1000 SPC/Fw water molecules t=   1.41000 step= 1410
 2931
    1SOL     OW    1   2.481   0.305   2.657 -1.0407  0.2777 -0.2516
    1SOL    HW1    2   2.476   0.199   2.642 -0.0449  0.7169  0.8272
    1SOL    HW2    3   2.548   0.329   2.735  0.7796  0.8200  2.9416
    2SOL     OW    4   2.748   2.989   1.380 -0.0790 -0.0028 -0.0283
    2SOL    HW1    5   2.826   3.036   1.333  2.4947  2.9879  1.1196
    2SOL    HW2    6   2.708   3.044   1.456 -0.6194 -2.2810 -0.0724
    3SOL     OW    7   2.643   2.566   0.406 -0.1204 -0.2591 -0.5432
    3SOL    HW1    8   2.590   2.476   0.422  1.3702 -0.1137  0.6732
    3SOL    HW2    9   2.682   2.601   0.495 -0.8437 -0.1710 -1.7104
    4SOL     OW   10   1.235   1.510   2.416 -0.2203  0.4252 -0.1011
    4SOL    HW1   11   1.188   1.503   2.327 -0.6560 -0.6059  1.5058
    4SOL    HW2   12   1.272   1.418   2.447 -1.1381 -1.7128 -0.0781
    5SOL     OW   13   1.180   1.555   2.898  0.3025 -0.1162 -0.1905
    5SOL    HW1   14   1.230   1.642   2.933  0.9964  0.7461  3.0672
    5SOL    HW2   15   1.082   1.567   2.864  1.3148  1.2304 -0.1270
    6SOL     OW   16   0.269   1.816   3.010  0.3315 -0.4619 -0.1513
    6SOL    HW1   17   0.168   1.786   3.009 -1.8033 -1.3015  0.9360
    6SOL    HW2   18   0.319   1.799   3.095 -0.3224 -2.7686  1.2394
    7SOL     OW   19   2.470   0.895   1.054 -0.6873 -0.3528  0.1419
    7SOL    HW1   20   2.390   0.844   1.095 -0.5762  1.0140 -0.7238
    7SOL    HW2   21   2.491   0.864   0.960 -0.9506  2.6263 -0.5054
    8SOL     OW   22   0.342   0.683   1.516 -0.8528  0.4188 -0.0038
    8SOL    HW1   23   0.426   0.622   1.494  0.8820  2.8113 -0.2220
    8SOL    HW2   24   0.348   0.773   1.464 -0.2254 -1.2574  1.4033
    9SOL     OW   25   1.155   0.839   2.406  0.0203 -0.4245 -0.4205
    9SOL    HW1   26   1.211   0.867   2.322  1.6475  0.6662 -1.3879
    9SOL    HW2   27   1.111   0.744   2.400  1.4045  0.3594 -1.7039
   10SOL     OW   28   0.688   1.372   1.309  0.3845  0.3524  0.0555
   10SOL    HW1   29   0.616   1.372   1.236  1.3972  0.8072 -1.6905
   10SOL    HW2   30   0.732   1.466   1.316 -0.4540 -4.1751  0.6238
   11SOL     OW   31   2.302   2.829   0.830 -0.2802 -0.0276  0.3460
   11SOL    HW1   32   2.247   2.826   0.918  2.4495 -1.9267 -0.4561
   11SOL    HW2   33   2.388   2.779   0.834  2.7450  2.1486 -0.0145
   12SOL     OW   34   1.517   0.877   0.429  0.2951  0.0982 -0.5081
   12SOL    HW1   35   1.436   0.905   0.373  0.9539  0.4382 -0.4705
   12SOL    HW2   36   1.577   0.812   0.373  2.3282 -0.1099  0.5446
   13SOL     OW   37   2.432   0.708   1.779  0.1423 -0.6896  0.6050
   13SOL    HW1   38   2.350   0.640   1.796  0.1957 -0.5577 -1.9385
   13SOL    HW2   39   2.471   0.694   1.682 -1.6324 -1.3215  0.2423
   14SOL     OW   40   1.952   0.013   0.621  0.0508 -0.4426  0.4141
   14SOL    HW1   41   1.852   0.050   0.618 -0.6568  0.6790 -0.1080
   14SOL    HW2   42   1.964  -0.050   0.702  2.1539 -0.6520 -0.1429
   15SOL     OW   43   1.886   2.082   2.661 -0.6297 -0.6899  0.4426
   15SOL    HW1   44   1.825   2.144   2.719 -0.0617 -2.4006  2.6940
   15SOL    HW2   45   1.839   2.023   2.591 -0.0829  2.1234 -0.8245
   16SOL     OW   46   1.603   1.728   2.995  0.2054  0.2168  0.3065
   16SOL    HW1   47   1.566   1.635   3.020 -1.1082  2.7852  0.7294
   16SOL    HW2   48   1.683   1.766   3.048  1.7111  1.0461 -0.9981
   17SOL     OW   49   0.094   0.414   0.177  0.1144 -0.1001  0.2465
   17SOL    HW1   50   0.168   0.462   0.125 -1.0414  1.2504  3.4440
   17SOL    HW2   51   0.014   0.383   0.118  0.7259 -0.0381  2.5525
   18SOL     OW   52   0.894   2.978   2.159 -0.2636 -0.1068 -0.0881
   18SOL    HW1   53   0.862   2.890   2.209 -3.6295  0.0565  0.1792
   18SOL    HW2   54   0.953   2.960   2.072 -2.0206  0.9577  1.5861
   19SOL     OW   55   0.549   0.846   1.890  0.1111  0.0902 -0.2047
   19SOL    HW1   56   0.595   0.807   1.974 -1.3972 -1.2060 -1.8878
   19SOL    HW2   57   0.598   0.931   1.855  1.0330  0.1880  0.1213
   20SOL     OW   58   0.246   2.830   0.856  0.1720  0.2400  0.0121
   20SOL    HW1   59   0.150   2.859   0.846  3.2932 -0.0062  0.5871
   20SOL    HW2   60   0.280   2.767   0.780 -2.1226 -2.1873 -1.3224
   21SOL     OW   61   2.771   0.264   1.964 -0.2056  0.3072  0.0362
   21SOL    HW1   62   2.715   0.196   1.909  0.9681 -0.7197 -1.2519
   21SOL    HW2   63   2.868   0.232   1.980 -2.1028  2.4972  1.2175
   22SOL     OW   64   2.363   0.194   0.114 -0.0955 -0.0353 -0.3658
   22SOL    HW1   65   2.352   0.102   0.072  0.5625 -0.3611  4.3711
   22SOL    HW2   66   2.327   0.276   0.059  0.4289 -1.7804  3.1404
   23SOL     OW   67   2.834   0.567   0.676  0.0630 -0.0755  0.1098
   23SOL    HW1   68   2.848   0.473   0.635  1.8402 -1.9474  3.3298
   23SOL    HW2   69   2.810   0.645   0.610  0.1910  1.1032 -0.5860
   24SOL     OW   70   0.215   1.859   0.444  0.1165 -0.3764  0.3396
   24SOL    HW1   71   0.165   1.904   0.368  0.0875 -0.2833  0.3175
   24SOL    HW2   72   0.315   1.877   0.427 -2.5901 -1.8752 -2.1104
   25SOL     OW   73   2.234   0.635   0.214  0.5426 -0.2112 -0.3195
   25SOL    HW1   74   2.237   0.643   0.111  0.5509  0.5793  0.8869
   25SOL    HW2   75   2.265   0.539   0.244  4.0667  0.1438  1.3676
   26SOL     OW   76   2.442   2.130   2.127  0.2548  0.2584  0.1729
   26SOL    HW1   77   2.519   2.197   2.143 -0.8470 -0.9093  1.5510
   26SOL    HW2   78   2.467   2.057   2.058  2.3816 -0.0360  1.5221
   27SOL     OW   79   0.605   2.959   0.214 -0.4672 -0.5178 -1.1486
   27SOL    HW1   80   0.695   2.989   0.172  1.0179  3.2178  1.3639
   27SOL    HW2   81   0.547   2.904   0.152  1.6569  1.0042  0.0671
   28SOL     OW   82   1.611   0.105   0.342  0.6900 -0.0473 -0.2863
   28SOL    HW1   83   1.655   0.073   0.251  1.0068 -1.7013  0.1823
   28SOL    HW2   84   1.629   0.207   0.355  0.8640  2.0403 -1.0117
   29SOL     OW   85   1.958   0.579   0.271  0.1354  0.6501  0.2505
   29SOL    HW1   86   1.927   0.617   0.361 -2.3954 -1.5501 -0.3782
   29SOL    HW2   87   2.050   0.621   0.245  1.0154 -1.7041  0.5810
   30SOL     OW   88   0.187   2.063   0.879  0.5394 -0.4182 -0.0270
   30SOL    HW1   89   0.197   1.977   0.818  2.5960 -2.1185  1.4018
   30SOL    HW2   90   0.089   2.088   0.905 -1.2264 -2.0913 -1.2091
   31SOL     OW   91   2.165   0.077   2.412  0.1541  0.3056  0.0506
   31SOL    HW1   92   2.143   0.053   2.513 -1.4166 -0.8183  0.6125
   31SOL    HW2   93   2.106   0.029   2.341  1.1682 -1.3852 -2.5466
   32SOL     OW   94   2.965   3.084   0.272  0.4173 -0.7923 -0.2524
   32SOL    HW1   95   2.941   2.986   0.259 -1.7864  1.0890  3.1792
   32SOL    HW2   96   2.985   3.105   0.371 -1.2725 -0.7311  1.8609
   33SOL     OW   97   0.864   0.218   0.640 -0.0754 -0.6333  0.1384
   33SOL    HW1   98   0.853   0.158   0.558  1.5249 -0.2654  0.4557
   33SOL    HW2   99   0.964   0.260   0.642  0.2746 -0.9721  0.7203
   34SOL     OW  100   0.309   2.726   1.109  0.6429  0.1939 -0.6284
   34SOL    HW1  101   0.259   2.757   1.023  0.1363 -2.1037  0.1653
   34SOL    HW2  102   0.410   2.754   1.111  0.1797  1.0476  2.0889
   35SOL     OW  103   3.098   0.110   1.866 -0.3030 -0.0456 -0.1217
   35SOL    HW1  104   3.143   0.020   1.877 -2.8330 -1.3541 -0.8936
   35SOL    HW2  105   3.062   0.114   1.769  0.7393 -1.5475 -0.9109
   36SOL     OW  106   1.814   1.175   1.529  0.5093 -0.1044  0.4134
   36SOL    HW1  107   1.885   1.104   1.548  0.7166  1.0432 -2.6049
   36SOL    HW2  108   1.842   1.253   1.466 -0.6661 -0.1423 -1.3982
   37SOL     OW  109   1.151   0.177   0.974 -0.1992 -0.0137 -0.1555
   37SOL    HW1  110   1.186   0.275   0.983 -2.5037 -0.9290  0.8609
   37SOL    HW2  111   1.230   0.114   0.940  1.7730 -1.6556  2.0441
   38SOL     OW  112   1.152   2.889   2.415  0.0940  0.2800  0.2368
   38SOL    HW1  113   1.057   2.881   2.449  1.6030 -2.5076  3.4140
   38SOL    HW2  114   1.173   2.985   2.372  1.7868  1.5390 -2.8188
   39SOL     OW  115   2.433   1.378   3.040  0.0657  0.2668  0.1846
   39SOL    HW1  116   2.512   1.315   3.058  2.7313  4.6924 -0.7941
   39SOL    HW2  117   2.364   1.381   3.119  1.2395  1.2068  0.2639
   40SOL     OW  118   2.019   2.489   2.601  0.2356  0.2994 -0.0974
   40SOL    HW1  119   1.973   2.586   2.597  2.6047  2.4048  0.7347
   40SOL    HW2  120   1.985   2.430   2.525  0.1012  0.0373 -0.1685
   41SOL     OW  121   3.007   0.645   2.803 -0.3449 -0.1866  0.5813
   41SOL    HW1  122   2.940   0.714   2.833  0.1068 -1.3291 -2.5200
   41SOL    HW2  123   2.957   0.558   2.776 -1.0230  3.6274 -1.9270
   42SOL     OW  124   1.747   1.764   0.553  0.0937 -0.1483  0.7871
   42SOL    HW1  125   1.693   1.678   0.565 -0.2729  0.1608 -1.1638
   42SOL    HW2  126   1.785   1.774   0.454 -0.5056  0.3238 -1.3376
   43SOL     OW  127   0.501   1.660   1.260  0.0336 -0.5979 -0.4881
   43SOL    HW1  128   0.484   1.571   1.210  2.9706 -1.4879  0.1257
   43SOL    HW2  129   0.441   1.669   1.344  0.6955 -1.1622  4.0869
   44SOL     OW  130   1.670   2.421   2.995  0.1517 -0.1546 -0.5192
   44SOL    HW1  131   1.575   2.456   2.970 -0.0342 -2.4065  3.7330
   44SOL    HW2  132   1.747   2.448   2.931 -1.0085 -1.4287  0.8401
   45SOL     OW  133   0.359   1.911   2.547 -0.1718 -0.3235 -0.4113
   45SOL    HW1  134   0.304   1.877   2.466  0.2141  3.7015  1.8668
   45SOL    HW2  135   0.423   1.843   2.596  1.3900 -0.7212 -1.9623
   46SOL     OW  136   1.298   0.662   0.232  0.0565  0.3532  0.8785
   46SOL    HW1  137   1.290   0.743   0.169  3.1774  0.5428  2.3260
   46SOL    HW2  138   1.236   0.583   0.209 -3.1679  0.8575 -1.5160
   47SOL     OW  139   0.187   2.464   1.564 -0.0115 -0.3419 -0.5314
   47SOL    HW1  140   0.150   2.375   1.609 -1.7029  1.4223 -0.2409
   47SOL    HW2  141   0.192   2.463   1.460  0.2091 -0.1133  0.6055
   48SOL     OW  142   2.660   0.607   0.144  0.0989  0.4596 -0.1798
   48SOL    HW1  143   2.627   0.628   0.242  1.5412  0.0745 -1.4381
   48SOL    HW2  144   2.751   0.650   0.126 -1.5551 -0.8786  2.9999
   49SOL     OW  145   0.314   0.772   1.764  0.8080  0.4452  0.8564
   49SOL    HW1  146   0.405   0.795   1.808  0.9045 -0.1432 -0.3010
   49SOL    HW2  147   0.333   0.731   1.668  3.6924  1.6370 -1.0692
   50SOL     OW  148   1.728   1.123   0.294 -0.1338 -0.1482  0.4085
   50SOL    HW1  149   1.755   1.030   0.257  0.8896 -0.1076  0.9706
   50SOL    HW2  150   1.675   1.117   0.381  0.3123  0.5374  0.2415
   51SOL     OW  151   3.032   1.759   0.240 -0.2653 -0.5973  0.3658
   51SOL    HW1  152   2.949   1.701   0.214 -0.5754  0.5406  0.7866
   51SOL    HW2  153   3.094   1.712   0.306 -0.2706  0.4934 -0.1307
   52SOL     OW  154   0.793   2.134   0.656  0.1969 -0.0429  0.0849
   52SOL    HW1  155   0.693   2.107   0.628 -2.2574  0.5449  0.7651
   52SOL    HW2  156   0.833   2.067   0.723 -1.8166  3.7791  0.9588
   53SOL     OW  157   0.182   0.427   1.568  0.6637 -0.1229 -0.6983
   53SOL    HW1  158   0.245   0.507   1.556  0.2782 -0.0473  0.5074
   53SOL    HW2  159   0.098   0.431   1.507 -0.6102  0.5636 -3.8809
   54SOL     OW  160   1.801   0.487   3.080  0.2326  0.2791  0.1127
   54SOL    HW1  161   1.856   0.428   3.145 -2.6212 -2.0743  0.6599
   54SOL    HW2  162   1.698   0.479   3.105  1.0855 -2.2972  0.7775
   55SOL     OW  163   0.760   2.903   0.709 -0.7248  0.2338  0.4632
   55SOL    HW1  164   0.730   3.004   0.721 -0.0961  0.9482  0.3226
   55SOL    HW2  165   0.858   2.898   0.669 -0.9322 -1.3212  0.7237
   56SOL     OW  166   0.585   1.622   3.069  0.4698 -0.1761 -0.3837
   56SOL    HW1  167   0.518   1.682   3.125 -1.0715 -2.4059  0.0484
   56SOL    HW2  168   0.551   1.525   3.055  1.2362  0.9669 -0.4877
   57SOL     OW  169   1.776   2.496   2.416  0.0174 -0.1515  0.1452
   57SOL    HW1  170   1.832   2.413   2.411 -1.4451  1.8331 -2.9840
   57SOL    HW2  171   1.676   2.475   2.425 -1.5429 -0.3816 -0.7623
   58SOL     OW  172   0.671   0.261   1.124  0.2947 -0.5671 -0.2574
   58SOL    HW1  173   0.568   0.272   1.143 -0.4110  1.5914 -1.9869
   58SOL    HW2  174   0.702   0.163   1.137  1.9018 -1.9411 -1.3940
   59SOL     OW  175   0.441   2.412   2.730  0.3205  0.0646  0.0156
   59SOL    HW1  176   0.426   2.315   2.720  1.3602 -0.5710  2.3457
   59SOL    HW2  177   0.541   2.440   2.728 -1.9998 -0.2255 -0.9843
   60SOL     OW  178   2.297   2.123   2.346 -0.0896  0.0207  0.1587
   60SOL    HW1  179   2.340   2.124   2.251 -0.3195 -2.7391  2.5685
   60SOL    HW2  180   2.355   2.172   2.419 -0.9415 -0.9916 -0.5865
   61SOL     OW  181   1.228   0.647   0.504 -0.2944  0.2152  0.1231
   61SOL    HW1  182   1.132   0.683   0.532 -0.2174 -1.0734  3.9315
   61SOL    HW2  183   1.252   0.666   0.405  2.4727 -0.0510  4.6079
   62SOL     OW  184   2.710   1.714   2.772 -0.2178 -0.4606 -0.3716
   62SOL    HW1  185   2.672   1.711   2.676  2.2639 -0.7242  0.4877
   62SOL    HW2  186   2.800   1.670   2.787  0.3711 -0.0725  0.7973
   63SOL     OW  187   0.556   0.915   0.200 -0.0576  0.0985  0.1797
   63SOL    HW1  188   0.624   0.954   0.132 -0.7571  0.1196 -0.4791
   63SOL    HW2  189   0.594   0.888   0.292 -0.6108  0.3524  1.2710
   64SOL     OW  190   3.036   0.581   2.350 -0.1911  0.5441 -0.3566
   64SOL    HW1  191   2.956   0.613   2.412  1.0299 -1.5968  1.4794
   64SOL    HW2  192   3.056   0.639   2.269  0.6598 -4.1909 -1.2188
   65SOL     OW  193   0.208   1.448   0.705  0.1326 -0.1004  0.2044
   65SOL    HW1  194   0.209   1.519   0.784 -4.9107  1.0384  3.0785
   65SOL    HW2  195   0.268   1.467   0.619 -0.0857 -0.2649 -0.3560
   66SOL     OW  196   2.526   0.399   0.517  0.1006 -0.0572 -0.2083
   66SOL    HW1  197   2.611   0.350   0.488 -0.5991  0.9094 -1.3879
   66SOL    HW2  198   2.472   0.348   0.596  1.1640 -2.4443  2.5644
   67SOL     OW  199   0.643   2.477   1.442 -0.0183  0.2227  0.3698
   67SOL    HW1  200   0.729   2.422   1.465  1.7745 -0.5860  0.6386
   67SOL    HW2  201   0.554   2.419   1.435  1.8996 -1.1493 -0.5961
   68SOL     OW  202   0.994   1.035   2.492 -0.0317 -0.4620 -0.2906
   68SOL    HW1  203   1.063   0.958   2.471 -1.5015 -0.0585 -0.9191
   68SOL    HW2  204   0.957   1.094   2.418 -2.9842 -1.4073  2.8768
   69SOL     OW  205   0.793   2.757   2.234  0.2246  0.0528  0.6623
   69SOL    HW1  206   0.829   2.670   2.188  1.9213  2.3245 -1.7711
   69SOL    HW2  207   0.689   2.751   2.242  0.7426  1.4542 -0.8523
   70SOL     OW  208   0.444   0.106   2.502 -0.2601 -0.3366 -0.1571
   70SOL    HW1  209   0.364   0.103   2.568  1.9050  2.9705 -0.4563
   70SOL    HW2  210   0.498   0.017   2.511  1.1928 -0.1526 -2.2331
   71SOL     OW  211   1.097   1.752   0.314 -0.4604 -1.1594  0.4824
   71SOL    HW1  212   1.052   1.680   0.372 -0.8117  2.6265 -1.3482
   71SOL    HW2  213   1.035   1.795   0.241 -0.3675  0.1687 -1.6342
   72SOL     OW  214   1.826   0.188   2.168 -0.0116  0.4205 -0.3299
   72SOL    HW1  215   1.882   0.282   2.180  2.8941 -0.6399  0.7192
   72SOL    HW2  216   1.892   0.114   2.143 -0.4641  0.1064  1.7460
   73SOL     OW  217   2.792   2.167   2.409  0.1171  0.3148  1.1448
   73SOL    HW1  218   2.760   2.067   2.403 -0.4605  1.7043 -1.5479
   73SOL    HW2  219   2.845   2.189   2.497 -2.0709  0.3153  1.4113
   74SOL     OW  220   2.700   2.873   2.180  0.7368  0.1077 -0.3449
   74SOL    HW1  221   2.674   2.861   2.282 -1.6396 -0.3705 -3.0071
   74SOL    HW2  222   2.786   2.925   2.168  1.3952 -0.4506 -0.3308
   75SOL     OW  223   0.953   0.882   1.090  0.3792  0.1817  0.5293
   75SOL    HW1  224   0.862   0.920   1.063  0.8930  3.1881  4.1412
   75SOL    HW2  225   0.970   0.882   1.190 -2.0320  0.1019  0.7370
   76SOL     OW  226   1.855   1.269   2.469 -0.1069  0.6180  0.6979
   76SOL    HW1  227   1.754   1.254   2.442  0.0715 -2.2628 -0.2114
   76SOL    HW2  228   1.869   1.350   2.535  2.5461  0.1367  2.8603
   77SOL     OW  229   2.904   0.926   1.048 -0.3723  0.0047  0.1686
   77SOL    HW1  230   2.873   0.825   1.042 -0.4547  0.2507  3.1005
   77SOL    HW2  231   2.983   0.931   1.112  0.5097 -1.8742 -0.1932
   78SOL     OW  232   2.023   1.360   1.375 -0.0789 -0.5818 -0.6687
   78SOL    HW1  233   2.124   1.373   1.375  0.5322 -1.4282  3.3371
   78SOL    HW2  234   1.972   1.390   1.289 -1.4227  0.0883 -1.8637
   79SOL     OW  235   0.678   1.409   0.805  0.4086  0.1016  0.1699
   79SOL    HW1  236   0.574   1.396   0.814 -0.5511 -2.6149 -1.7769
   79SOL    HW2  237   0.731   1.323   0.760  1.0209 -3.1936  0.6757
   80SOL     OW  238   0.614   0.511   1.515 -0.8248  0.4162  0.6669
   80SOL    HW1  239   0.687   0.577   1.477  0.4325  0.3844  0.6097
   80SOL    HW2  240   0.635   0.407   1.504 -0.0501  0.4156 -2.1849
   81SOL     OW  241   0.988   1.309   2.620 -0.2048 -0.4933  0.0487
   81SOL    HW1  242   0.972   1.209   2.591 -2.5499 -0.5977  2.5259
   81SOL    HW2  243   0.945   1.380   2.553 -1.2809  0.4397 -1.9321
   82SOL     OW  244   1.013   2.850   1.533  0.0059  0.3868 -0.3885
   82SOL    HW1  245   0.933   2.795   1.492 -2.5692  2.4655 -0.9578
   82SOL    HW2  246   1.052   2.924   1.472 -1.3845  0.1735 -1.6453
   83SOL     OW  247   2.546   2.378   0.874 -0.0671 -0.4341 -0.2712
   83SOL    HW1  248   2.465   2.334   0.822  1.5667 -0.1669  2.4805
   83SOL    HW2  249   2.540   2.486   0.880  1.0580  2.2269 -0.4562
   84SOL     OW  250   0.751   0.017   2.340  0.1114  0.1289 -0.3381
   84SOL    HW1  251   0.719  -0.055   2.409  1.4307  0.0862 -0.7199
   84SOL    HW2  252   0.806  -0.028   2.264  3.0827 -0.0705  2.5118
   85SOL     OW  253   0.271   1.632   1.417 -0.4249  0.3264  0.2678
   85SOL    HW1  254   0.216   1.723   1.415 -0.4466  0.8171 -0.9093
   85SOL    HW2  255   0.323   1.604   1.504  0.2082  0.4981 -3.8794
   86SOL     OW  256   0.410   1.046   1.554 -0.5023 -0.6326  0.4264
   86SOL    HW1  257   0.364   0.988   1.478  1.3039 -2.5217 -2.2526
   86SOL    HW2  258   0.508   1.027   1.553  0.2068  1.7150 -0.1643
   87SOL     OW  259   1.630   0.683   0.276 -0.2956  0.3634  0.4396
   87SOL    HW1  260   1.722   0.736   0.271  2.0096  0.9385  1.4041
   87SOL    HW2  261   1.625   0.629   0.190 -1.2394  0.7744 -4.2639
   88SOL     OW  262   1.603   1.385   0.287  0.1742  0.7984  0.0916
   88SOL    HW1  263   1.659   1.297   0.274 -0.6352 -0.0206  0.6709
   88SOL    HW2  264   1.501   1.363   0.295  1.4762  0.1551  1.8194
   89SOL     OW  265   0.004   0.304   0.623  0.0873  0.1985 -0.6185
   89SOL    HW1  266   0.093   0.257   0.602  2.2992 -0.5835  0.2794
   89SOL    HW2  267  -0.080   0.260   0.585  1.8737 -0.6607  0.1190
   90SOL     OW  268   0.778   1.579   0.168 -0.5948  0.1687  0.1261
   90SOL    HW1  269   0.839   1.494   0.184  0.5837 -0.8452  0.3822
   90SOL    HW2  270   0.731   1.585   0.074  1.0438 -0.4924  1.4189
   91SOL     OW  271   1.207   1.457   1.766 -0.3382  0.0355 -0.0129
   91SOL    HW1  272   1.214   1.546   1.825  0.1809  0.0388 -0.5922
   91SOL    HW2  273   1.296   1.403   1.761 -3.6413 -0.5754 -0.8618
   92SOL     OW  274   0.008   0.971   1.217 -0.1342  0.5470 -0.4809
   92SOL    HW1  275   0.072   1.044   1.182 -0.6721  1.9596  0.6910
   92SOL    HW2  276   0.005   0.968   1.320  0.9212  1.2699 -0.4192
   93SOL     OW  277   3.067   2.704   0.050 -0.2794  0.2446 -0.1287
   93SOL    HW1  278   3.037   2.690  -0.046 -3.2273 -2.3217  0.9351
   93SOL    HW2  279   3.085   2.616   0.100  1.5996 -0.5597  0.4690
   94SOL     OW  280   1.487   1.411   1.741  0.1690 -0.0598 -0.0735
   94SOL    HW1  281   1.558   1.336   1.757 -0.5127  0.7636 -0.6747
   94SOL    HW2  282   1.525   1.505   1.770  3.1048  0.3333  1.9996
   95SOL     OW  283   1.387   2.495   2.956 -0.3883 -0.1353 -0.1470
   95SOL    HW1  284   1.296   2.508   2.996  0.2120  0.7067 -1.2059
   95SOL    HW2  285   1.399   2.396   2.918  0.5570  1.8175 -0.7309
   96SOL     OW  286   0.565   2.099   1.273 -0.0827 -0.0132 -0.7767
   96SOL    HW1  287   0.491   2.056   1.213  0.6691 -0.9136  0.4332
   96SOL    HW2  288   0.617   2.030   1.336  1.0083  1.2234  0.0989
   97SOL     OW  289   0.301   1.638   2.431  0.0511  0.3768 -0.2129
   97SOL    HW1  290   0.264   1.711   2.365 -2.4599  0.1395  2.6801
   97SOL    HW2  291   0.249   1.634   2.519  0.2585  0.5786  0.4188
   98SOL     OW  292   2.198   1.625   1.228  0.3798  0.5442  0.5929
   98SOL    HW1  293   2.100   1.590   1.209  1.1834 -4.3490 -0.1890
   98SOL    HW2  294   2.271   1.581   1.175 -0.3166  0.8935  1.8085
   99SOL     OW  295   2.564   2.144   1.315  0.1853  0.2430  0.2017
   99SOL    HW1  296   2.631   2.159   1.395  0.8857 -1.6906  2.6347
   99SOL    HW2  297   2.509   2.056   1.331  0.5701  2.2245 -0.3567
  100SOL     OW  298   2.308   0.409   2.101  0.1761 -0.2475 -0.0379
  100SOL    HW1  299   2.261   0.392   2.193  0.1555  1.9080  1.1206
  100SOL    HW2  300   2.412   0.431   2.116  0.6521  1.9123 -0.5947
  101SOL     OW  301   0.387   1.534   0.524  0.0702  0.0289  0.0229
  101SOL    HW1  302   0.398   1.617   0.587  1.5536  1.0034  1.9968
  101SOL    HW2  303   0.445   1.537   0.443  0.5916  0.5617 -1.5180
  102SOL     OW  304   2.307   1.079   0.846  0.1114  0.2041  0.5499
  102SOL    HW1  305   2.257   0.991   0.822  2.8658  2.3496  1.0793
  102SOL    HW2  306   2.407   1.071   0.821  1.2364  0.4733  1.6856
  103SOL     OW  307   2.241   0.069   0.329  0.1166 -0.1624  0.1329
  103SOL    HW1  308   2.288   0.132   0.262  0.1689  0.3882  0.2861
  103SOL    HW2  309   2.309   0.040   0.403  1.3291  2.0065 -0.2810
  104SOL     OW  310   0.049   1.847   2.097 -0.4580 -0.8097  0.2179
  104SOL    HW1  311   0.103   1.811   2.014 -1.2175  1.4510 -0.8652
  104SOL    HW2  312  -0.052   1.851   2.086  3.3586 -1.4455  0.5132
  105SOL     OW  313   1.326   2.096   0.775  0.8148 -0.0727  0.1796
  105SOL    HW1  314   1.305   2.141   0.683  1.1442  1.4626 -0.0527
  105SOL    HW2  315   1.343   1.994   0.762  1.3839  0.9894  0.6101
  106SOL     OW  316   2.100   0.402   1.415  0.4935 -0.2008  0.8886
  106SOL    HW1  317   2.057   0.315   1.382  1.5092 -2.3447 -0.4071
  106SOL    HW2  318   2.092   0.423   1.515 -0.0074  1.7519  0.8970
  107SOL     OW  319   1.972   2.952   1.208 -0.3509  0.0885  0.1997
  107SOL    HW1  320   1.906   3.031   1.230 -0.7064  1.2241 -0.1339
  107SOL    HW2  321   1.921   2.881   1.151  1.1122  1.4754 -0.9242
  108SOL     OW  322   0.856   2.824   1.172 -0.6537  0.3946  0.0638
  108SOL    HW1  323   0.869   2.722   1.185 -3.5028  0.6647  1.6111
  108SOL    HW2  324   0.943   2.875   1.197 -0.0537 -2.4226 -1.2805
  109SOL     OW  325   2.141   0.171   0.731 -0.1928  0.1295 -0.9768
  109SOL    HW1  326   2.074   0.115   0.674  0.6603  0.0083 -1.2921
  109SOL    HW2  327   2.168   0.120   0.816 -0.2069  2.0475 -1.4604
  110SOL     OW  328   0.463   2.783   2.780  0.1622 -0.3265 -0.1500
  110SOL    HW1  329   0.435   2.764   2.682 -0.4789  0.3309 -0.6874
  110SOL    HW2  330   0.538   2.713   2.822  0.8266 -1.6249  2.4121
  111SOL     OW  331   1.281   0.494   2.315  0.2173 -0.0134 -0.6105
  111SOL    HW1  332   1.181   0.532   2.335 -1.9687  1.1007  1.9197
  111SOL    HW2  333   1.320   0.441   2.397  0.0764  0.3047 -0.2909
  112SOL     OW  334   1.775   0.395   1.516 -0.3540 -0.4195  0.0750
  112SOL    HW1  335   1.767   0.404   1.415  0.8433  0.4620 -0.6435
  112SOL    HW2  336   1.681   0.389   1.564  2.1004 -0.4479 -0.5967
  113SOL     OW  337   2.397   1.679   1.718 -0.3614  0.1924 -0.1551
  113SOL    HW1  338   2.412   1.574   1.719 -1.9013 -2.3973 -0.3520
  113SOL    HW2  339   2.421   1.721   1.810  0.8591  0.4582  1.6211
  114SOL     OW  340   0.290   0.473   1.194  0.2403  0.2562 -0.0201
  114SOL    HW1  341   0.364   0.520   1.146  0.3052 -0.6616  1.7381
  114SOL    HW2  342   0.214   0.539   1.219  0.8084 -0.9743 -1.3968
  115SOL     OW  343   2.747   1.543   1.234 -0.8432  0.1921 -0.5586
  115SOL    HW1  344   2.731   1.442   1.263 -2.2677 -0.8433 -0.3264
  115SOL    HW2  345   2.831   1.546   1.167 -1.7967 -1.1981 -0.3686
  116SOL     OW  346   1.894   0.945   0.699 -0.9042  0.1050  0.8584
  116SOL    HW1  347   1.803   0.902   0.692  2.7381 -0.4113 -0.0099
  116SOL    HW2  348   1.875   1.044   0.689 -0.4363 -2.6409  1.1547
  117SOL     OW  349   1.125   0.371   0.561 -0.3480 -0.0743 -0.0695
  117SOL    HW1  350   1.183   0.454   0.564  0.8859 -1.0496  1.2147
  117SOL    HW2  351   1.106   0.340   0.458  0.3981 -2.1290 -0.5018
  118SOL     OW  352   1.099   1.205   1.101 -0.0668  0.0912 -0.4220
  118SOL    HW1  353   1.004   1.184   1.129  0.1810  0.4935 -0.8294
  118SOL    HW2  354   1.130   1.297   1.143  1.8086  1.9050 -2.0712
  119SOL     OW  355   1.866   1.572   2.200 -0.5172 -0.3874  0.3237
  119SOL    HW1  356   1.816   1.641   2.138 -1.2116 -2.7601  0.4013
  119SOL    HW2  357   1.968   1.557   2.174  1.5100 -1.0143 -0.9509
  120SOL     OW  358   2.893   2.794   0.246 -0.2045  0.0887  0.2013
  120SOL    HW1  359   2.975   2.765   0.187 -2.8763 -0.8599 -1.2394
  120SOL    HW2  360   2.802   2.745   0.221  0.4232  0.6225 -1.5884
  121SOL     OW  361   1.889   0.744   2.189  1.1092 -0.0963  0.8171
  121SOL    HW1  362   1.923   0.787   2.098  0.3825  2.5528  0.9399
  121SOL    HW2  363   1.919   0.647   2.209  1.6679 -0.4060  0.5890
  122SOL     OW  364   2.577   2.512   1.349 -0.6560  0.1238 -0.1378
  122SOL    HW1  365   2.589   2.510   1.252  0.4716  1.5975  1.1259
  122SOL    HW2  366   2.624   2.434   1.396  2.1675 -0.6050 -2.2957
  123SOL     OW  367   1.732   0.145   1.731  0.1495  0.1499  0.2468
  123SOL    HW1  368   1.724   0.043   1.696 -1.1966 -0.7649 -1.3017
  123SOL    HW2  369   1.830   0.181   1.704  3.2972  1.8793 -2.4537
  124SOL     OW  370   3.062   0.475   1.085  0.3217 -0.3258 -0.6879
  124SOL    HW1  371   2.967   0.513   1.109  0.3375  2.0316 -1.8918
  124SOL    HW2  372   3.094   0.505   0.990 -1.0399 -0.1941 -0.0927
  125SOL     OW  373   0.888   1.903   0.779 -0.8152 -0.2620  0.5557
  125SOL    HW1  374   0.985   1.857   0.779  2.4004  0.2890  0.0187
  125SOL    HW2  375   0.849   1.907   0.873  2.7803  1.9539 -2.1049
  126SOL     OW  376   1.963   2.286   2.437 -0.2281 -0.1301 -0.5211
  126SOL    HW1  377   2.003   2.242   2.352 -0.2380  2.3864 -0.1251
  126SOL    HW2  378   1.948   2.219   2.511 -2.1862  1.8601 -2.3775
  127SOL     OW  379   0.891   0.975   0.208 -0.0440  0.2633 -0.0790
  127SOL    HW1  380   0.923   1.021   0.296 -1.1777 -0.7550  1.6490
  127SOL    HW2  381   0.913   0.876   0.212 -2.2201 -0.2540  0.6750
  128SOL     OW  382   0.942   0.277   1.419 -0.1080  0.1648  0.0884
  128SOL    HW1  383   0.899   0.347   1.349 -0.3847 -3.2954 -1.6351
  128SOL    HW2  384   0.894   0.181   1.431 -0.6764  2.6837  0.8673
  129SOL     OW  385   1.866   0.683   1.837  0.0136  0.4933 -0.1524
  129SOL    HW1  386   1.878   0.680   1.736 -0.9933 -1.1484 -0.0748
  129SOL    HW2  387   1.852   0.775   1.879 -2.5212  3.3741  0.0131
  130SOL     OW  388   1.396   2.249   1.008 -0.8473  0.6475 -0.2097
  130SOL    HW1  389   1.367   2.198   0.919 -0.6839 -1.3655  0.6902
  130SOL    HW2  390   1.462   2.324   0.990 -0.9604 -1.5360 -0.7381
  131SOL     OW  391   3.058   1.440   1.366  0.3830  0.4355  0.1005
  131SOL    HW1  392   2.968   1.381   1.379 -0.7440  2.7916  1.9968
  131SOL    HW2  393   3.144   1.381   1.363 -0.2046  1.7958  1.3091
  132SOL     OW  394   2.027   2.368   0.518 -0.0902  0.2649 -0.5761
  132SOL    HW1  395   1.937   2.418   0.522  0.1937 -1.2463  1.1237
  132SOL    HW2  396   2.032   2.291   0.588  0.3373 -2.6683 -0.7108
  133SOL     OW  397   1.793   2.366   2.715 -0.3183  0.3065 -0.1090
  133SOL    HW1  398   1.734   2.436   2.662  1.3762  0.2416 -0.2249
  133SOL    HW2  399   1.892   2.398   2.706 -0.4035  4.4960  0.4792
  134SOL     OW  400   2.703   2.388   1.602  0.1552  0.2343 -0.2909
  134SOL    HW1  401   2.639   2.364   1.680 -0.0976  0.8668  1.1460
  134SOL    HW2  402   2.797   2.424   1.627  1.3241 -1.2037  0.9373
  135SOL     OW  403   0.712   1.429   2.699  0.7532  0.5518  0.3506
  135SOL    HW1  404   0.695   1.331   2.717 -1.8823  0.2884  1.4913
  135SOL    HW2  405   0.709   1.445   2.597 -0.4110 -3.3565 -2.6306
  136SOL     OW  406   1.182   2.027   0.409 -0.6059  0.7040 -0.4621
  136SOL    HW1  407   1.103   2.097   0.413 -0.2808 -0.9516  0.2227
  136SOL    HW2  408   1.156   1.928   0.433  2.4636 -1.2153  0.1183
  137SOL     OW  409   0.409   1.234   2.235  0.0368 -0.0878  0.3114
  137SOL    HW1  410   0.314   1.230   2.273 -0.8574 -0.1825  1.9151
  137SOL    HW2  411   0.457   1.146   2.243 -0.1816  2.3641 -0.6484
  138SOL     OW  412   2.447   1.532   0.292 -0.0175 -0.4113 -0.3161
  138SOL    HW1  413   2.361   1.493   0.243  1.3234 -0.3168 -2.8729
  138SOL    HW2  414   2.494   1.453   0.340 -0.2591 -0.1090  0.6388
  139SOL     OW  415   1.878   2.636   1.538  0.0727 -0.0916  0.2582
  139SOL    HW1  416   1.780   2.660   1.534  1.2376 -2.2140  4.4995
  139SOL    HW2  417   1.905   2.563   1.469 -0.8167 -0.7507  1.0079
  140SOL     OW  418   3.010   2.973   2.625  0.0200 -0.4827  0.3472
  140SOL    HW1  419   3.068   2.898   2.589 -1.8900 -0.1682  0.2419
  140SOL    HW2  420   3.051   3.063   2.595  1.3219 -0.3793 -0.0362
  141SOL     OW  421   1.317   1.617   1.561 -0.4904 -0.0930 -0.3435
  141SOL    HW1  422   1.233   1.675   1.569  0.8444 -0.6637 -1.3416
  141SOL    HW2  423   1.319   1.535   1.625  1.0908  1.1941 -0.0084
  142SOL     OW  424   1.515   0.627   2.241 -0.6313  0.5519 -0.1256
  142SOL    HW1  425   1.517   0.643   2.138 -0.6765 -1.8843 -0.6794
  142SOL    HW2  426   1.416   0.621   2.279 -3.1541 -0.4954 -0.6310
  143SOL     OW  427   2.782   0.795   0.545 -0.5006 -0.8913  0.0224
  143SOL    HW1  428   2.821   0.853   0.466 -1.8850 -1.0960 -1.2781
  143SOL    HW2  429   2.778   0.851   0.631 -2.2431 -0.2217  3.4719
  144SOL     OW  430   2.915   1.180   1.452  0.3630 -0.1412 -0.3846
  144SOL    HW1  431   2.874   1.197   1.545  2.4503  1.1883 -1.4488
  144SOL    HW2  432   3.001   1.121   1.447 -0.9627 -0.2376 -0.6457
  145SOL     OW  433   0.906   1.850   0.103 -0.4023  0.6650 -0.1983
  145SOL    HW1  434   0.959   1.867   0.015 -3.3912  1.6546 -1.6067
  145SOL    HW2  435   0.852   1.762   0.109 -0.2914 -1.5677  1.5839
  146SOL     OW  436   2.461   0.663   1.498 -0.0535 -0.0217  0.4175
  146SOL    HW1  437   2.420   0.581   1.445 -0.1630 -0.9800 -0.5913
  146SOL    HW2  438   2.431   0.757   1.469  0.6396 -1.1692 -1.4341
  147SOL     OW  439   1.116   2.521   0.592  0.4939 -0.1874  0.7879
  147SOL    HW1  440   1.070   2.570   0.511 -0.8665 -1.1130  1.1714
  147SOL    HW2  441   1.197   2.463   0.568 -0.5666  0.7350 -0.2188
  148SOL     OW  442   1.584   1.465   3.084  0.4374  0.2197 -0.3846
  148SOL    HW1  443   1.561   1.372   3.037 -1.5364 -0.3775 -2.0437
  148SOL    HW2  444   1.570   1.455   3.188 -1.7162  0.0248  1.1663
  149SOL     OW  445   0.687   1.511   1.966 -0.4687  0.1954 -0.3880
  149SOL    HW1  446   0.587   1.481   1.988 -0.5286 -0.2466 -2.2666
  149SOL    HW2  447   0.733   1.460   1.884  0.1389  0.5062  1.1119
  150SOL     OW  448   3.026   1.187   0.978 -0.0310 -0.6966  0.1273
  150SOL    HW1  449   3.089   1.216   1.058 -1.0726  1.5071  3.8744
  150SOL    HW2  450   2.977   1.099   0.996  0.4403 -3.4398  0.1970
  151SOL     OW  451   0.296   0.802   2.046 -0.0680 -0.1576  0.5991
  151SOL    HW1  452   0.279   0.888   1.991  0.9740 -2.0867 -1.2775
  151SOL    HW2  453   0.308   0.720   1.985 -0.4117 -1.4991  0.0422
  152SOL     OW  454   1.420   1.837   1.132 -0.3172  0.3665 -0.3715
  152SOL    HW1  455   1.471   1.924   1.149  0.0708  2.3213  1.5386
  152SOL    HW2  456   1.319   1.857   1.103 -1.1048  1.0794 -2.6126
  153SOL     OW  457   0.163   1.509   0.217 -0.7434 -0.5688  0.0048
  153SOL    HW1  458   0.106   1.420   0.216  0.3527  2.8502 -0.5729
  153SOL    HW2  459   0.151   1.559   0.308 -0.3903 -2.3175 -0.6212
  154SOL     OW  460   2.272   1.852   2.770 -0.2902 -0.5113 -0.0902
  154SOL    HW1  461   2.289   1.749   2.788  0.1594 -1.2958 -0.9770
  154SOL    HW2  462   2.354   1.904   2.729  1.4969  1.7637 -0.2386
  155SOL     OW  463   2.438   1.249   0.335  0.2966  0.2203 -0.2090
  155SOL    HW1  464   2.542   1.232   0.336 -0.7843  0.8180  1.4497
  155SOL    HW2  465   2.393   1.159   0.351  0.2269 -0.8254  1.0400
  156SOL     OW  466   2.456   0.820   0.720 -0.4301  0.2264 -0.5983
  156SOL    HW1  467   2.354   0.821   0.707 -1.1706  0.9670 -0.3140
  156SOL    HW2  468   2.501   0.848   0.630 -0.2800  2.1351  1.0772
  157SOL     OW  469   1.216   2.958   3.016 -0.1870  0.3457 -0.0448
  157SOL    HW1  470   1.285   2.899   2.966 -0.1756  1.7442  0.1177
  157SOL    HW2  471   1.241   3.054   3.032 -1.7962  0.6257  1.7078
  158SOL     OW  472   1.062   1.851   1.827  0.5469 -0.2100  0.2825
  158SOL    HW1  473   1.078   1.956   1.816  1.3812  0.3246  0.0986
  158SOL    HW2  474   0.987   1.836   1.896  0.3600  0.0803 -0.0890
  159SOL     OW  475   0.851   0.445   1.225 -0.1632  0.2896  0.5061
  159SOL    HW1  476   0.821   0.540   1.266 -0.6805 -1.3191 -1.1328
  159SOL    HW2  477   0.789   0.413   1.149 -0.5339 -0.1454  0.2396
  160SOL     OW  478   1.419   2.432   1.499  1.1837  0.2710 -0.6987
  160SOL    HW1  479   1.367   2.365   1.563  0.6339  0.1922 -0.2261
  160SOL    HW2  480   1.516   2.406   1.470 -0.6465  1.0523  1.0211
  161SOL     OW  481   3.041   2.652   0.462 -0.4834 -0.7570 -0.4125
  161SOL    HW1  482   3.013   2.553   0.450  1.8437 -2.3521  0.0092
  161SOL    HW2  483   2.965   2.718   0.428  1.9521  1.8745  0.2626
  162SOL     OW  484   2.588   1.839   0.455  0.4203  0.8729  0.3258
  162SOL    HW1  485   2.560   1.807   0.359  1.5382 -0.5986 -1.7153
  162SOL    HW2  486   2.535   1.777   0.518 -1.6312 -0.9712 -1.3047
  163SOL     OW  487   1.950   2.690   0.745  0.2845  0.3855  0.0322
  163SOL    HW1  488   1.931   2.706   0.645 -0.2602  2.9540 -0.9361
  163SOL    HW2  489   2.026   2.622   0.760 -0.9307 -0.4990  0.3141
  164SOL     OW  490   3.034   0.211   1.210  0.0358 -0.3271 -0.3688
  164SOL    HW1  491   3.037   0.312   1.172  0.6664  2.1108  0.3352
  164SOL    HW2  492   3.111   0.203   1.284  3.7784  0.7162  0.9214
  165SOL     OW  493   1.108   1.408   0.672 -0.0808 -0.4768 -0.2622
  165SOL    HW1  494   1.084   1.441   0.772  1.0127  1.0146  1.3590
  165SOL    HW2  495   1.047   1.440   0.596  1.1254  2.4393  0.6702
  166SOL     OW  496   1.525   1.018   1.780 -0.6862 -0.3131  0.2978
  166SOL    HW1  497   1.430   1.036   1.821 -2.6276 -0.6218  0.6370
  166SOL    HW2  498   1.598   1.090   1.797  0.1991  1.5566 -1.4571
  167SOL     OW  499   0.767   1.953   1.461 -0.5080  0.0174  0.0123
  167SOL    HW1  500   0.756   2.029   1.531 -2.0006 -0.9766 -0.7795
  167SOL    HW2  501   0.724   1.861   1.494 -1.7216  1.3289 -0.3296
  168SOL     OW  502   1.561   2.341   0.159 -0.3879 -0.2593 -0.0011
  168SOL    HW1  503   1.606   2.354   0.069 -1.5542  1.9251  1.4229
  168SOL    HW2  504   1.628   2.299   0.228  2.3985  1.2033 -1.7276
  169SOL     OW  505   0.076   2.573   2.195 -0.1910 -0.5989 -0.3924
  169SOL    HW1  506   0.126   2.508   2.128  0.9076 -1.0971 -2.7901
  169SOL    HW2  507   0.107   2.569   2.291  0.8403  0.5799 -1.2518
  170SOL     OW  508   1.147   0.208   2.045 -0.4470 -0.4146 -0.2627
  170SOL    HW1  509   1.239   0.256   2.070  3.8063 -0.3442  1.7826
  170SOL    HW2  510   1.152   0.169   1.949  2.0204 -0.5938  0.3334
  171SOL     OW  511   0.213   0.856   2.367 -0.0873  0.0972 -0.4314
  171SOL    HW1  512   0.121   0.882   2.420 -1.6205 -1.7285 -0.5250
  171SOL    HW2  513   0.207   0.830   2.269 -0.0967  0.4373 -0.4480
  172SOL     OW  514   0.968   1.033   2.883  0.5315  0.1937 -0.8230
  172SOL    HW1  515   0.903   1.110   2.909  1.2278 -1.5339 -1.3203
  172SOL    HW2  516   0.922   0.967   2.817  1.0134 -1.8812  2.5711
  173SOL     OW  517   0.491   2.461   0.106 -0.4231 -0.2667 -0.5204
  173SOL    HW1  518   0.515   2.374   0.060  1.4437  3.5302 -1.9452
  173SOL    HW2  519   0.417   2.463   0.175  2.0179  1.6561 -2.3432
  174SOL     OW  520   1.529   2.859   1.085  0.4044 -0.1280 -0.0708
  174SOL    HW1  521   1.583   2.921   1.018 -0.1336  1.6408 -1.9998
  174SOL    HW2  522   1.479   2.781   1.038  1.5187  0.9662  3.8759
  175SOL     OW  523   0.425   3.067   1.713 -0.0854 -0.0975  0.7077
  175SOL    HW1  524   0.525   3.066   1.748  0.5623 -0.8637  0.3689
  175SOL    HW2  525   0.383   3.163   1.693 -3.1572 -1.3058  1.5324
  176SOL     OW  526   2.628   0.368   0.013  0.5274  0.1288 -0.2189
  176SOL    HW1  527   2.623   0.461   0.066  0.1057  0.9780  0.8797
  176SOL    HW2  528   2.622   0.285   0.072 -2.9190  2.0651  0.4994
  177SOL     OW  529   0.343   0.315   0.993  0.3299  0.1301 -0.0358
  177SOL    HW1  530   0.317   0.214   0.976 -0.3880 -0.4766 -4.0754
  177SOL    HW2  531   0.296   0.366   1.070  1.2353  1.6851 -0.8707
  178SOL     OW  532   0.021   2.740   2.554 -0.1199 -0.0760  0.2376
  178SOL    HW1  533  -0.013   2.641   2.532 -0.3226 -0.2471 -4.5577
  178SOL    HW2  534   0.091   2.743   2.634  1.8030 -1.8703 -0.6322
  179SOL     OW  535   3.002   1.527   1.107 -0.5453  0.0738 -0.0057
  179SOL    HW1  536   3.032   1.615   1.066  0.7829 -2.2447 -1.4334
  179SOL    HW2  537   3.030   1.511   1.209 -0.0398 -0.5762  3.2665
  180SOL     OW  538   0.193   1.376   1.779 -0.0501 -0.3368  0.2841
  180SOL    HW1  539   0.255   1.303   1.821  0.6986 -1.3863  1.6958
  180SOL    HW2  540   0.150   1.434   1.847 -0.0926 -0.1223 -0.0422
  181SOL     OW  541   2.974   1.934   2.543  0.5774 -0.3485  0.1992
  181SOL    HW1  542   3.016   2.022   2.518 -2.9764 -4.2961  0.4459
  181SOL    HW2  543   2.888   1.916   2.486 -0.9405  2.5111  0.6834
  182SOL     OW  544   2.333   1.276   1.260 -0.6090  0.0613 -0.0551
  182SOL    HW1  545   2.266   1.243   1.188 -2.8927  1.6759 -2.5494
  182SOL    HW2  546   2.373   1.375   1.239 -1.0442  2.9884  0.5170
  183SOL     OW  547   1.384   2.311   2.451  0.5100  0.1231  0.0736
  183SOL    HW1  548   1.332   2.322   2.542 -0.3088  1.1551  0.3462
  183SOL    HW2  549   1.418   2.214   2.437 -1.1086  0.2378  1.8400
  184SOL     OW  550   2.158   0.844   0.758 -0.4075 -0.9191  0.1357
  184SOL    HW1  551   2.068   0.892   0.763  2.0763 -2.4639 -2.3520
  184SOL    HW2  552   2.143   0.758   0.706 -0.3440  0.2257  2.5613
  185SOL     OW  553   1.529   2.732   2.050  0.1660 -0.5585  0.5481
  185SOL    HW1  554   1.442   2.789   2.042 -0.0789 -0.2360 -2.7199
  185SOL    HW2  555   1.598   2.773   2.117 -0.2685  1.2795  1.1846
  186SOL     OW  556   0.058   2.210   1.645 -0.0173  0.1015  0.4823
  186SOL    HW1  557   0.023   2.248   1.732  2.1737 -1.2804 -2.7529
  186SOL    HW2  558   0.139   2.145   1.657 -1.2603  1.1885  0.3850
  187SOL     OW  559   1.354   0.629   1.672 -0.0981  0.2297  0.2628
  187SOL    HW1  560   1.444   0.665   1.659 -1.7826  0.9473  1.0699
  187SOL    HW2  561   1.348   0.548   1.737 -0.6618 -0.3816  1.2932
  188SOL     OW  562   2.761   2.704   1.416 -0.2728 -0.1359  0.4080
  188SOL    HW1  563   2.757   2.805   1.406  0.1941 -1.2474 -0.9068
  188SOL    HW2  564   2.663   2.664   1.422 -1.2443 -2.1952  0.6351
  189SOL     OW  565   0.899   1.208   1.388  0.3036  0.2679 -0.4354
  189SOL    HW1  566   0.975   1.229   1.456  1.3015 -2.1532 -0.5830
  189SOL    HW2  567   0.816   1.273   1.395 -2.2884 -0.9692  1.3719
  190SOL     OW  568   1.462   1.890   1.549 -0.3846  0.3459 -0.6453
  190SOL    HW1  569   1.469   1.790   1.531  0.8817 -0.7794 -0.1759
  190SOL    HW2  570   1.483   1.920   1.646 -0.6041  2.8921  0.1774
  191SOL     OW  571   0.919   0.812   1.517 -0.6875  0.2659 -0.1012
  191SOL    HW1  572   0.991   0.736   1.531  0.9074 -1.3504 -2.9167
  191SOL    HW2  573   0.954   0.882   1.449 -0.1994 -1.9865 -2.2457
  192SOL     OW  574   1.848   2.472   1.106 -0.1885  0.1334 -0.0734
  192SOL    HW1  575   1.750   2.471   1.066 -1.7655  1.0256 -3.0451
  192SOL    HW2  576   1.917   2.407   1.057 -1.0281  0.0701 -0.6713
  193SOL     OW  577   0.539   0.559   0.454  0.5566  0.5076  1.0123
  193SOL    HW1  578   0.490   0.471   0.473 -0.4800  1.4912  0.5741
  193SOL    HW2  579   0.566   0.569   0.348  0.3873 -2.3025 -0.1307
  194SOL     OW  580   0.344   0.911   1.330  0.4922 -0.4741  0.2995
  194SOL    HW1  581   0.273   0.854   1.278  2.7614  0.6990  0.7979
  194SOL    HW2  582   0.404   0.973   1.270  0.1884  3.0099 -0.7210
  195SOL     OW  583   0.974   2.901   0.535  0.6822 -0.0930 -0.6091
  195SOL    HW1  584   0.970   2.809   0.487  0.2365  0.1647  1.0650
  195SOL    HW2  585   1.069   2.943   0.519 -0.7159  0.4664  1.5302
  196SOL     OW  586   0.267   1.373   1.340  0.1753  0.2539 -0.2580
  196SOL    HW1  587   0.259   1.478   1.357 -1.1531  1.8771 -0.4218
  196SOL    HW2  588   0.266   1.314   1.424  2.6325 -0.3406  0.6511
  197SOL     OW  589   0.832   2.014   0.332  0.5399 -0.2743 -0.6208
  197SOL    HW1  590   0.825   1.964   0.427  0.7991  0.2712  1.9183
  197SOL    HW2  591   0.850   1.943   0.256 -0.7236  0.7219 -1.0370
  198SOL     OW  592   0.291   1.248   0.349 -0.0202  0.3344  0.1364
  198SOL    HW1  593   0.191   1.229   0.318  1.4838 -0.2448 -2.9274
  198SOL    HW2  594   0.294   1.338   0.404  1.8147 -0.1082 -0.1378
  199SOL     OW  595   2.248   0.463   2.573 -0.7638 -0.2612  0.0094
  199SOL    HW1  596   2.171   0.465   2.639  0.6087  2.7418 -2.5412
  199SOL    HW2  597   2.331   0.406   2.602 -0.1205 -1.7026 -0.4788
  200SOL     OW  598   3.090   2.979   0.817 -0.3429  0.2900  0.1134
  200SOL    HW1  599   3.116   3.074   0.848 -1.3687 -1.4587  0.2828
  200SOL    HW2  600   3.012   2.981   0.746  2.7033  3.0561 -0.4081
  201SOL     OW  601   0.928   0.731   0.504 -0.4070 -0.1726 -0.1663
  201SOL    HW1  602   0.900   0.819   0.558  2.6487 -0.3395 -1.7374
  201SOL    HW2  603   0.872   0.648   0.532  1.7560  1.3417 -0.1991
  202SOL     OW  604   0.436   1.248   1.837  0.0559  0.2363 -0.6704
  202SOL    HW1  605   0.513   1.190   1.793  0.7060 -1.3872 -1.8241
  202SOL    HW2  606   0.459   1.314   1.913 -1.9539  1.0711 -0.7172
  203SOL     OW  607   0.625   0.219   1.559  0.4812 -0.1219 -0.1645
  203SOL    HW1  608   0.642   0.187   1.461  0.5320  0.1492  1.0602
  203SOL    HW2  609   0.697   0.173   1.624 -0.1492 -0.4711 -0.0135
  204SOL     OW  610   2.094   1.790   2.977 -0.3655 -0.3373 -0.3857
  204SOL    HW1  611   2.085   1.687   2.993 -1.6306  1.1903 -0.2466
  204SOL    HW2  612   2.158   1.816   2.903 -3.9875 -1.0362  3.1074
  205SOL     OW  613   1.842   1.885   0.010  0.1675 -0.1189 -0.0761
  205SOL    HW1  614   1.933   1.862  -0.040 -1.5912 -1.5854 -0.9989
  205SOL    HW2  615   1.775   1.929  -0.059  1.0789  0.4597 -0.1507
  206SOL     OW  616   2.411   2.781   0.352  0.0544 -0.1471 -0.5664
  206SOL    HW1  617   2.362   2.690   0.366 -2.3930  0.5639  0.8804
  206SOL    HW2  618   2.497   2.781   0.296  2.9405 -1.5892 -2.3267
  207SOL     OW  619   0.706   1.743   2.880  0.1275  0.1377 -0.3843
  207SOL    HW1  620   0.788   1.691   2.855 -0.6722  1.2086  0.6531
  207SOL    HW2  621   0.656   1.701   2.959  0.5619  2.0586 -1.6697
  208SOL     OW  622   1.063   1.661   1.241 -0.8644 -0.7651 -0.0735
  208SOL    HW1  623   1.087   1.758   1.265 -0.1320  0.0315 -1.8199
  208SOL    HW2  624   0.965   1.636   1.258 -1.8571  0.8886 -0.1051
  209SOL     OW  625   0.216   0.990   3.085  0.5328 -0.0935 -0.1908
  209SOL    HW1  626   0.191   0.916   3.016 -1.3719  0.8016 -0.1941
  209SOL    HW2  627   0.218   0.953   3.181  2.3084  0.2961  1.2305
  210SOL     OW  628   1.717   0.483   1.235  0.1595  0.2090 -0.0264
  210SOL    HW1  629   1.661   0.559   1.193 -1.1488 -4.0244  1.3887
  210SOL    HW2  630   1.821   0.493   1.225  2.0239 -0.8933 -1.0800
  211SOL     OW  631   2.047   1.030   1.562 -0.0725 -0.2260  0.0300
  211SOL    HW1  632   2.092   0.958   1.629  5.2976 -1.5467  1.8948
  211SOL    HW2  633   2.111   1.101   1.528 -1.7008  0.6534  1.2528
  212SOL     OW  634   0.036   0.964   1.482 -0.2769  0.2474 -0.4044
  212SOL    HW1  635   0.073   1.043   1.535 -2.7339 -0.7306 -1.3640
  212SOL    HW2  636   0.045   0.876   1.534  1.6696  1.7212  0.1164
  213SOL     OW  637   2.747   0.208   0.251 -0.1568 -0.6553 -0.3225
  213SOL    HW1  638   2.841   0.219   0.199  1.0085 -2.7947 -0.1045
  213SOL    HW2  639   2.685   0.127   0.224  0.8076  1.2727 -0.9023
  214SOL     OW  640   2.155   0.356   2.348  0.2051 -0.1366  0.1386
  214SOL    HW1  641   2.191   0.411   2.426 -0.0091 -0.0823  0.0408
  214SOL    HW2  642   2.163   0.250   2.366 -2.6566 -3.1147  0.6596
  215SOL     OW  643   1.645   2.275   2.095 -0.3181 -0.1803  0.0222
  215SOL    HW1  644   1.749   2.294   2.086  0.4235 -1.7500 -2.0369
  215SOL    HW2  645   1.596   2.356   2.135  0.7892 -0.3770 -0.6256
  216SOL     OW  646   2.155   0.610   0.603 -0.5134 -0.8319  0.1556
  216SOL    HW1  647   2.154   0.512   0.578  0.6616  3.6045  2.8689
  216SOL    HW2  648   2.200   0.669   0.522 -0.1437 -1.7749  0.2791
  217SOL     OW  649   0.928   2.840   2.543  0.3881  0.0723  0.5339
  217SOL    HW1  650   1.009   2.786   2.574  0.6304  0.0688  0.9746
  217SOL    HW2  651   0.840   2.787   2.519 -1.3862 -0.5536 -1.1173
  218SOL     OW  652   1.879   1.466   0.034  0.2161 -0.1568 -0.5830
  218SOL    HW1  653   1.777   1.461   0.023  0.2087  0.8759 -0.4200
  218SOL    HW2  654   1.918   1.394   0.098 -0.1873  2.8612 -1.4156
  219SOL     OW  655   2.477   1.274   2.529 -0.3157 -0.0472 -0.2402
  219SOL    HW1  656   2.514   1.233   2.440  0.8073 -0.3282 -1.8979
  219SOL    HW2  657   2.464   1.202   2.607 -2.3273 -2.1753  1.5306
  220SOL     OW  658   1.434   1.014   1.403  0.2573 -0.3121 -0.3077
  220SOL    HW1  659   1.528   0.969   1.408 -0.9939  0.7520 -2.4768
  220SOL    HW2  660   1.406   1.042   1.309  0.5579  0.4677  1.2385
  221SOL     OW  661   1.356   0.949   2.213  0.0855 -0.0838  0.2531
  221SOL    HW1  662   1.353   0.950   2.107  1.7162  0.7890  2.5018
  221SOL    HW2  663   1.448   0.976   2.243 -2.6934  1.3283  2.8902
  222SOL     OW  664   1.097   0.114   1.238  0.4302 -0.6208 -0.0927
  222SOL    HW1  665   1.025   0.181   1.280  0.0547  1.4077 -1.0470
  222SOL    HW2  666   1.113   0.127   1.136 -0.1182 -2.1764  0.2208
  223SOL     OW  667   2.710   0.907   2.086  0.0998  0.1830 -0.2000
  223SOL    HW1  668   2.655   0.993   2.116 -0.8547  0.9939 -0.4784
  223SOL    HW2  669   2.806   0.907   2.128  0.6596 -0.1654  1.3682
  224SOL     OW  670   1.525   1.051   2.725  0.8683  0.6153  0.3054
  224SOL    HW1  671   1.561   0.956   2.696  0.7102 -3.7689 -1.4213
  224SOL    HW2  672   1.569   1.132   2.682  1.9672 -2.2370 -0.2765
  225SOL     OW  673   2.967   2.690   2.844 -0.3424  0.4751 -0.5024
  225SOL    HW1  674   2.874   2.680   2.786 -1.8014  2.4090 -0.6546
  225SOL    HW2  675   3.003   2.788   2.849  1.2041 -0.9520  0.3497
  226SOL     OW  676   2.361   1.581   2.798 -0.4499 -1.2875  0.6581
  226SOL    HW1  677   2.427   1.569   2.712  0.4047 -0.4310 -1.4084
  226SOL    HW2  678   2.382   1.523   2.882  0.9508  0.9447  5.2422
  227SOL     OW  679   0.856   0.254   3.081 -0.1359  0.4179 -0.1956
  227SOL    HW1  680   0.906   0.344   3.067 -0.2011 -1.5355  2.2123
  227SOL    HW2  681   0.809   0.222   2.995 -1.4203  2.5017  0.9352
  228SOL     OW  682   2.409   0.598   2.820 -0.1643  0.2070  0.4896
  228SOL    HW1  683   2.435   0.689   2.773 -1.8103  3.0122 -2.3335
  228SOL    HW2  684   2.489   0.542   2.843 -2.3876 -1.6471  0.8176
  229SOL     OW  685   0.522   0.478   1.802 -0.7763  0.2623  0.3928
  229SOL    HW1  686   0.570   0.397   1.839 -0.8949  0.2754  1.3973
  229SOL    HW2  687   0.543   0.492   1.698 -2.5208 -0.8028 -1.4325
  230SOL     OW  688   1.871   1.218   2.040 -0.0896  0.4691 -0.6045
  230SOL    HW1  689   1.944   1.284   2.007 -0.0533 -0.0097  1.7206
  230SOL    HW2  690   1.807   1.265   2.107  1.4749  0.9478  1.2936
  231SOL     OW  691   0.660   1.075   3.093 -0.4820  0.1384  0.0718
  231SOL    HW1  692   0.743   1.138   3.107  0.4295  2.9982  2.2606
  231SOL    HW2  693   0.574   1.126   3.118  2.4634 -4.5870 -1.9034
  232SOL     OW  694   2.435   3.013   2.831 -0.6030 -0.0497  0.2449
  232SOL    HW1  695   2.491   2.928   2.846 -2.4105  0.6238  2.3782
  232SOL    HW2  696   2.455   3.067   2.745  0.2213  0.7612  3.8295
  233SOL     OW  697   1.755   1.250   1.203 -0.2101 -0.3321 -0.3171
  233SOL    HW1  698   1.815   1.244   1.118  0.3041  1.7098 -1.5554
  233SOL    HW2  699   1.731   1.154   1.239 -0.6921 -3.2596 -1.6724
  234SOL     OW  700   1.646   2.571   1.828  0.5940  0.7349 -0.3102
  234SOL    HW1  701   1.600   2.627   1.904  0.8337  0.9352  0.0454
  234SOL    HW2  702   1.603   2.481   1.823  0.3203 -0.2623 -0.1217
  235SOL     OW  703   0.012   2.952   2.869 -0.5283 -0.2894  0.1492
  235SOL    HW1  704  -0.045   2.965   2.783 -1.0646 -0.9081 -0.5582
  235SOL    HW2  705  -0.023   3.002   2.952  2.4321 -1.4480 -2.7650
  236SOL     OW  706   2.934   0.656   0.106  0.7224 -0.5086 -0.4495
  236SOL    HW1  707   3.002   0.712   0.163  1.5167 -0.6967  1.2305
  236SOL    HW2  708   2.983   0.573   0.063  0.9738  2.2149  0.0363
  237SOL     OW  709   1.467   1.640   0.943  0.2316 -0.5753 -0.5459
  237SOL    HW1  710   1.561   1.603   0.932 -1.4998 -1.4094 -0.8908
  237SOL    HW2  711   1.458   1.707   1.025  2.1748 -0.1057  0.4664
  238SOL     OW  712   1.886   1.215   0.749  0.4163 -0.7862 -0.1036
  238SOL    HW1  713   1.912   1.248   0.848 -0.3110  1.1642 -2.1763
  238SOL    HW2  714   1.792   1.255   0.725 -2.1216  0.0682  2.4555
  239SOL     OW  715   2.046   0.274   2.752  0.0080 -0.4452 -0.5178
  239SOL    HW1  716   2.095   0.219   2.830  1.5507 -0.5135  1.1671
  239SOL    HW2  717   1.988   0.351   2.786  3.5603  0.8311  1.3889
  240SOL     OW  718   0.925   0.697   0.236  0.0304  0.1254  0.4552
  240SOL    HW1  719   0.979   0.614   0.199  0.3536 -0.2310  3.3946
  240SOL    HW2  720   0.923   0.693   0.342  0.0362 -1.0666 -2.2540
  241SOL     OW  721   0.588   0.091   0.388  0.0256  0.4591 -0.2349
  241SOL    HW1  722   0.645   0.157   0.326  2.1897  0.7928 -2.6240
  241SOL    HW2  723   0.588  -0.003   0.352 -0.6110 -1.3262  2.8399
  242SOL     OW  724   0.622   2.556   1.196  0.1051 -0.0868  0.0847
  242SOL    HW1  725   0.637   2.525   1.295 -0.6519 -1.5285 -0.6466
  242SOL    HW2  726   0.615   2.659   1.177  1.8721  1.2156 -1.5109
  243SOL     OW  727   1.029   0.561   2.400  0.1686  0.7315 -0.2598
  243SOL    HW1  728   0.949   0.586   2.341  1.2910  0.7272  3.5794
  243SOL    HW2  729   0.996   0.512   2.483 -1.8999 -0.6279 -1.5450
  244SOL     OW  730   2.755   1.893   2.368  0.0110 -0.0867 -0.0076
  244SOL    HW1  731   2.790   1.900   2.269 -0.7863  1.9820 -2.5161
  244SOL    HW2  732   2.675   1.829   2.378 -1.6180  1.7477 -1.4010
  245SOL     OW  733   2.173   0.928   2.174  0.1078  0.0871  0.0219
  245SOL    HW1  734   2.269   0.921   2.210 -0.0354 -0.2251 -4.7397
  245SOL    HW2  735   2.122   1.006   2.217 -0.2829 -1.7129 -0.5861
  246SOL     OW  736   0.227   2.864   1.747  0.4628 -0.1053  0.4046
  246SOL    HW1  737   0.150   2.877   1.678 -1.3839 -3.5217 -2.8331
  246SOL    HW2  738   0.304   2.931   1.724  0.2119 -1.1373  0.2571
  247SOL     OW  739   2.236   0.630   3.040  0.1656 -0.1218  0.0817
  247SOL    HW1  740   2.295   0.598   2.959 -0.3822 -1.4515 -0.1133
  247SOL    HW2  741   2.178   0.705   3.005 -1.5944  0.5276  0.9211
  248SOL     OW  742   2.196   1.852   1.590  0.2645  0.1923  0.7305
  248SOL    HW1  743   2.272   1.789   1.621 -0.9336  3.2984 -1.2649
  248SOL    HW2  744   2.106   1.806   1.606 -1.8579 -0.5118 -0.6972
  249SOL     OW  745   1.950   1.870   1.827 -0.1969  0.0576 -0.5310
  249SOL    HW1  746   1.967   1.796   1.756  0.8257 -1.9404  3.1280
  249SOL    HW2  747   2.041   1.919   1.853 -0.9538  1.1818 -1.2730
  250SOL     OW  748   1.116   0.729   1.877 -0.0357  0.0289 -0.3435
  250SOL    HW1  749   1.137   0.660   1.950  1.0951  0.3874 -2.3350
  250SOL    HW2  750   1.088   0.690   1.783 -0.5983 -1.3083 -2.7537
  251SOL     OW  751   3.019   1.625   2.569  0.1938  0.3801  0.2996
  251SOL    HW1  752   3.012   1.731   2.563 -0.0576  0.9058 -2.2162
  251SOL    HW2  753   2.939   1.573   2.527  2.7873 -1.0641  1.1707
  252SOL     OW  754   1.599   0.765   1.699  0.0020  0.4405 -0.8209
  252SOL    HW1  755   1.688   0.746   1.649  0.5857  0.1904 -2.0779
  252SOL    HW2  756   1.589   0.863   1.735 -2.1949 -0.3097  1.3160
  253SOL     OW  757   0.988   1.574   0.483  0.0709 -0.2178  0.2898
  253SOL    HW1  758   0.985   1.477   0.448  2.2731  1.5029  0.1588
  253SOL    HW2  759   0.900   1.592   0.537 -1.0959 -1.8292  1.9868
  254SOL     OW  760   2.028   2.210   1.658 -0.3426  0.0783  0.1142
  254SOL    HW1  761   1.981   2.126   1.619  0.2199 -0.5475 -2.5220
  254SOL    HW2  762   1.960   2.269   1.714  0.5175 -0.0466  0.4115
  255SOL     OW  763   0.140   1.189   2.898 -0.1015  0.0073 -0.2645
  255SOL    HW1  764   0.197   1.274   2.907 -3.0756 -0.2090 -0.2250
  255SOL    HW2  765   0.164   1.113   2.967 -0.5372 -3.4206  2.3214
  256SOL     OW  766   2.836   1.374   1.862 -0.1857 -0.3531 -0.1152
  256SOL    HW1  767   2.745   1.427   1.867 -1.0956  0.4263  0.7729
  256SOL    HW2  768   2.829   1.279   1.829 -0.9874 -0.0429 -0.1657
  257SOL     OW  769   0.801   0.136   1.769 -0.0950  0.6453  0.3741
  257SOL    HW1  770   0.858   0.217   1.733  0.1665  1.5241  2.3310
  257SOL    HW2  771   0.860   0.048   1.783  3.1652 -4.0032  1.0601
  258SOL     OW  772   2.972   1.213   0.493 -0.1592 -0.5138  0.2183
  258SOL    HW1  773   2.897   1.212   0.562  1.4343  0.8275 -0.9368
  258SOL    HW2  774   3.058   1.255   0.528 -0.9725  1.0196  2.3602
  259SOL     OW  775   0.384   2.922   3.038 -0.0759  0.3710 -0.1301
  259SOL    HW1  776   0.351   2.843   3.100  1.5084  0.8153 -1.5173
  259SOL    HW2  777   0.422   2.884   2.952  1.3109 -0.4396  1.8324
  260SOL     OW  778   2.753   0.741   2.780  0.5752  0.1182 -0.5850
  260SOL    HW1  779   2.673   0.786   2.734  0.7715  0.8314 -2.3934
  260SOL    HW2  780   2.743   0.643   2.810 -1.0584 -1.1222 -1.3668
  261SOL     OW  781   2.701   1.275   1.293  0.4596  1.0092  0.4860
  261SOL    HW1  782   2.665   1.235   1.207  3.0122  0.4398  2.4776
  261SOL    HW2  783   2.768   1.213   1.346 -1.0935 -1.8177 -0.8137
  262SOL     OW  784   1.372   2.975   1.962  0.0060  0.1157  1.2096
  262SOL    HW1  785   1.413   3.067   1.930 -1.6967 -0.5177 -1.6750
  262SOL    HW2  786   1.272   2.965   1.957  1.7785 -0.5382  2.2509
  263SOL     OW  787   0.825   0.685   2.281 -0.7148  0.1515  0.1034
  263SOL    HW1  788   0.775   0.618   2.215 -2.2508  1.3387  0.3903
  263SOL    HW2  789   0.863   0.759   2.221  1.0249 -1.6649 -2.6957
  264SOL     OW  790   2.266   0.784   0.450  0.6713  0.4687 -0.3373
  264SOL    HW1  791   2.283   0.733   0.361 -0.1637 -0.0630  1.4174
  264SOL    HW2  792   2.357   0.827   0.476  0.0550 -1.7203 -1.5954
  265SOL     OW  793   0.952   2.412   2.611  0.2260 -0.1534 -0.0831
  265SOL    HW1  794   0.997   2.487   2.661  0.9273 -2.7151 -0.7212
  265SOL    HW2  795   0.919   2.332   2.678 -1.4461 -1.3708  1.1443
  266SOL     OW  796   1.330   1.766   3.058 -0.0548  0.2384  0.0462
  266SOL    HW1  797   1.297   1.817   3.144 -2.7113 -0.8369  0.4278
  266SOL    HW2  798   1.434   1.759   3.047 -0.9038 -1.0784 -0.6619
  267SOL     OW  799   1.101   0.053   2.277  0.5073 -0.6510 -0.5039
  267SOL    HW1  800   1.016   0.007   2.241  0.2849  1.6148 -0.2636
  267SOL    HW2  801   1.134   0.112   2.205  1.0084 -2.8902  1.2860
  268SOL     OW  802   0.803   1.253   1.034  0.8368 -0.4062  0.2191
  268SOL    HW1  803   0.787   1.281   1.134  1.3538  0.3398  0.8051
  268SOL    HW2  804   0.794   1.330   0.973  0.2978 -4.2434 -1.1497
  269SOL     OW  805   2.368   2.505   1.609  0.0072 -0.0401  0.6216
  269SOL    HW1  806   2.457   2.471   1.650  1.0313  0.1854  5.3790
  269SOL    HW2  807   2.308   2.541   1.685  0.1783  0.6460  3.1545
  270SOL     OW  808   0.135   2.959   1.989 -0.1709  0.3441  0.9257
  270SOL    HW1  809   0.155   2.907   1.903  1.5621  0.7539 -0.0933
  270SOL    HW2  810   0.076   2.906   2.056  1.0929  0.0359  1.0310
  271SOL     OW  811   0.481   1.418   1.139  0.6717  0.3410 -0.0772
  271SOL    HW1  812   0.494   1.406   1.035  1.3404  0.4998 -2.6629
  271SOL    HW2  813   0.386   1.392   1.170  0.5312 -2.0284 -2.5631
  272SOL     OW  814   1.972   3.016   1.961 -0.5430  0.6728 -0.3339
  272SOL    HW1  815   1.880   2.962   1.944 -2.2375 -2.4158 -3.5954
  272SOL    HW2  816   2.036   3.033   1.879  0.8825  2.7877  1.3834
  273SOL     OW  817   1.488   1.480   2.730  0.3669 -0.8791  0.2633
  273SOL    HW1  818   1.395   1.446   2.691  1.0027  0.2192 -1.5211
  273SOL    HW2  819   1.502   1.450   2.831 -3.6192  0.7840  0.7097
  274SOL     OW  820   1.169   0.504   2.060  0.1567 -0.0915 -0.2639
  274SOL    HW1  821   1.086   0.447   2.070 -1.5372  0.1225 -0.8685
  274SOL    HW2  822   1.234   0.501   2.138 -1.0596  1.6245 -1.1359
  275SOL     OW  823   0.635   2.135   1.905 -0.4584 -0.5395  0.1049
  275SOL    HW1  824   0.600   2.221   1.946  1.4695 -0.3224  1.8082
  275SOL    HW2  825   0.572   2.054   1.911 -0.4525  0.7864 -3.3189
  276SOL     OW  826   2.173   1.058   2.806  0.0479 -0.8951 -0.0143
  276SOL    HW1  827   2.078   1.083   2.771 -0.9207 -2.0271 -0.3226
  276SOL    HW2  828   2.170   0.961   2.834 -0.0655  0.3850  2.2676
  277SOL     OW  829   3.078   0.805   0.273 -0.9908 -0.3094  0.1644
  277SOL    HW1  830   3.164   0.862   0.260 -1.8832  1.3426  1.3407
  277SOL    HW2  831   3.093   0.725   0.337 -0.0858 -2.2971 -1.0806
  278SOL     OW  832   0.228   0.236   2.958 -0.0483 -0.0008  0.3056
  278SOL    HW1  833   0.312   0.184   2.932  0.1102  2.3257 -1.4647
  278SOL    HW2  834   0.247   0.333   3.002  0.8076  0.1694  2.7039
  279SOL     OW  835   0.275   0.059   0.932 -0.0035  0.3018 -0.4546
  279SOL    HW1  836   0.277  -0.035   0.973  0.4221  0.6060  4.5547
  279SOL    HW2  837   0.351   0.078   0.865 -1.7213 -1.4587 -0.1892
  280SOL     OW  838   1.611   2.956   2.408  0.2098 -0.6639  0.2506
  280SOL    HW1  839   1.680   2.998   2.466 -0.9501 -2.2548 -2.2363
  280SOL    HW2  840   1.556   3.016   2.340  0.3983 -0.9830  1.4788
  281SOL     OW  841   0.566   0.959   2.275 -0.2410 -0.3640 -0.3183
  281SOL    HW1  842   0.517   0.881   2.229 -0.5159 -1.8163  0.4694
  281SOL    HW2  843   0.556   0.956   2.380  1.0594  0.7536  0.7472
  282SOL     OW  844   1.790   2.476   0.522  0.2488 -0.1301  0.2478
  282SOL    HW1  845   1.751   2.408   0.452  0.1134 -0.6999 -0.4711
  282SOL    HW2  846   1.728   2.556   0.533  1.6359 -1.3802  1.0855
  283SOL     OW  847   1.138   0.942   0.761 -0.6325 -0.2957 -0.0919
  283SOL    HW1  848   1.170   0.886   0.840 -1.0052  1.5971  1.0523
  283SOL    HW2  849   1.108   1.034   0.799 -0.7428 -0.3403 -0.6113
  284SOL     OW  850   2.241   2.831   2.497 -0.1233  0.1246 -0.2303
  284SOL    HW1  851   2.339   2.806   2.475  4.4116  2.5118 -1.8394
  284SOL    HW2  852   2.222   2.891   2.578 -0.1304 -1.2621 -2.1005
  285SOL     OW  853   1.386   0.021   2.570 -0.0899  0.3058  0.4428
  285SOL    HW1  854   1.418   0.035   2.471 -1.4701  1.2972 -2.7741
  285SOL    HW2  855   1.284   0.021   2.586  0.7653 -0.8645  1.2285
  286SOL     OW  856   0.454   0.431   0.772  0.4409 -0.0058 -0.5994
  286SOL    HW1  857   0.409   0.394   0.859  0.2192 -1.2408 -2.5307
  286SOL    HW2  858   0.439   0.359   0.702  0.2054 -1.1232  1.1916
  287SOL     OW  859   0.075   1.308   2.633  0.5308  0.2203  1.3311
  287SOL    HW1  860   0.032   1.218   2.659 -3.3172  2.6118  1.8741
  287SOL    HW2  861   0.108   1.356   2.713 -2.5464 -3.6411  0.8194
  288SOL     OW  862   1.563   2.737   1.631 -0.8799  0.3855  0.2445
  288SOL    HW1  863   1.587   2.661   1.698 -1.2818 -2.7332  1.0371
  288SOL    HW2  864   1.573   2.708   1.529 -0.1766 -1.6356  0.5414
  289SOL     OW  865   0.598   2.718   0.861  0.2576  0.0407  0.1003
  289SOL    HW1  866   0.648   2.790   0.799  3.9505  1.0923 -0.6261
  289SOL    HW2  867   0.598   2.746   0.959  1.8322  2.7984 -2.3436
  290SOL     OW  868   2.798   1.132   1.738 -0.2346 -0.3960 -0.0549
  290SOL    HW1  869   2.726   1.060   1.748 -0.7453  3.3700  1.5364
  290SOL    HW2  870   2.888   1.104   1.778  1.0081  2.7776  1.3812
  291SOL     OW  871   1.952   3.090   0.043 -0.4230  0.3355  0.2108
  291SOL    HW1  872   1.976   3.144   0.132 -0.1402  1.9020  0.9065
  291SOL    HW2  873   2.032   3.105  -0.019  1.3822 -1.3112  1.0259
  292SOL     OW  874   3.024   1.220   3.089 -0.2001 -0.7470 -0.4950
  292SOL    HW1  875   2.959   1.293   3.051 -1.9975  2.5983  2.8397
  292SOL    HW2  876   3.111   1.207   3.026  1.6871  2.8140 -3.7133
  293SOL     OW  877   0.592   2.119   0.279 -0.2975 -0.4193  0.2327
  293SOL    HW1  878   0.565   2.189   0.355 -0.8498  0.3951 -1.0361
  293SOL    HW2  879   0.687   2.085   0.296 -0.2245  0.4896 -1.2093
  294SOL     OW  880   1.842   2.339   1.823  0.5343  0.4780  0.0940
  294SOL    HW1  881   1.889   2.333   1.912  0.1087  0.0736 -2.3631
  294SOL    HW2  882   1.811   2.434   1.803  1.1148 -0.4583  3.4965
  295SOL     OW  883   0.985   1.076   0.457  0.2562  0.4649  0.1679
  295SOL    HW1  884   1.085   1.041   0.471 -0.7716 -1.9014 -1.6603
  295SOL    HW2  885   0.933   1.059   0.544 -0.1901  1.0448 -0.1007
  296SOL     OW  886   1.177   2.130   2.744 -0.5134  0.0850 -0.5054
  296SOL    HW1  887   1.078   2.165   2.752 -2.9848  0.0362  4.2953
  296SOL    HW2  888   1.203   2.087   2.649 -0.9076 -1.5366 -1.9808
  297SOL     OW  889   1.352   0.566   1.288 -0.3754 -0.1463 -0.2652
  297SOL    HW1  890   1.390   0.488   1.343  1.4573 -1.6742 -0.7941
  297SOL    HW2  891   1.428   0.612   1.232  2.5209  1.7556  0.6880
  298SOL     OW  892   0.524   1.355   2.982 -0.1866 -0.7536 -0.4428
  298SOL    HW1  893   0.479   1.289   3.049  1.5581 -1.0004 -0.6102
  298SOL    HW2  894   0.615   1.321   2.957 -0.5737  1.4940  3.0973
  299SOL     OW  895   0.415   0.255   1.316 -0.2258 -0.5247 -0.0676
  299SOL    HW1  896   0.376   0.323   1.250 -0.5782 -1.7978 -0.7103
  299SOL    HW2  897   0.374   0.257   1.408  2.4946 -0.9875  2.1670
  300SOL     OW  898   1.268   1.727   2.573 -0.0538 -0.0490 -0.0910
  300SOL    HW1  899   1.271   1.642   2.517  0.7570  2.0747  1.4646
  300SOL    HW2  900   1.348   1.735   2.640 -0.0307  1.9878 -1.3722
  301SOL     OW  901   0.412   0.295   0.520 -0.1308  1.0840  0.3676
  301SOL    HW1  902   0.329   0.227   0.530 -2.7977  1.3534 -0.0203
  301SOL    HW2  903   0.481   0.256   0.444 -0.0992 -1.1321 -1.6612
  302SOL     OW  904   1.265   2.469   2.268 -0.0115  0.3836 -0.2791
  302SOL    HW1  905   1.165   2.480   2.305 -1.6423 -3.6741 -2.0838
  302SOL    HW2  906   1.330   2.424   2.332  0.1426  0.8961 -0.9234
  303SOL     OW  907   0.939   2.401   0.795  0.2668 -0.1424 -0.2627
  303SOL    HW1  908   0.983   2.419   0.706 -1.4255 -3.1895 -0.4752
  303SOL    HW2  909   0.976   2.451   0.879 -1.7147 -2.1119  1.9804
  304SOL     OW  910   0.085   1.897   0.681  0.3296 -0.2827  0.0347
  304SOL    HW1  911   0.157   1.903   0.599 -0.1084 -2.9901 -1.6229
  304SOL    HW2  912  -0.008   1.923   0.649 -1.3432 -0.4413  0.1014
  305SOL     OW  913   1.580   0.873   0.680 -0.2448 -0.0704  0.0777
  305SOL    HW1  914   1.529   0.884   0.584  0.2431  1.4566 -1.4717
  305SOL    HW2  915   1.650   0.796   0.695  0.7068  4.4052  0.7167
  306SOL     OW  916   0.425   1.933   1.912  0.4109 -0.1463  0.0943
  306SOL    HW1  917   0.510   1.867   1.902  1.0004  0.3599  0.8268
  306SOL    HW2  918   0.408   1.963   2.014 -1.9862  0.2139  0.3942
  307SOL     OW  919   3.064   0.889   2.474  0.6406  0.0303 -0.2275
  307SOL    HW1  920   3.070   0.948   2.559  0.7698  0.2125 -0.6114
  307SOL    HW2  921   3.022   0.798   2.495 -0.2179  0.1361 -1.1275
  308SOL     OW  922   1.539   2.688   2.805 -0.8876 -0.0809 -0.7607
  308SOL    HW1  923   1.543   2.656   2.702 -3.4379  1.7510 -3.6700
  308SOL    HW2  924   1.476   2.630   2.863  2.1807 -1.1652  0.9813
  309SOL     OW  925   1.235   0.158   1.790 -0.1604 -0.2553 -0.3751
  309SOL    HW1  926   1.326   0.116   1.814 -1.3599 -1.3040  0.6326
  309SOL    HW2  927   1.205   0.145   1.693  1.1750 -0.5705  1.2367
  310SOL     OW  928   1.487   2.595   0.679 -0.5597  0.2550  0.2738
  310SOL    HW1  929   1.452   2.636   0.764  1.4978 -1.6463 -2.8300
  310SOL    HW2  930   1.556   2.658   0.622 -0.0015  1.7489 -2.0493
  311SOL     OW  931   1.155   0.988   1.766 -0.2778 -0.2996  0.4039
  311SOL    HW1  932   1.123   0.899   1.813  1.8427  0.3874  1.2865
  311SOL    HW2  933   1.188   0.974   1.669 -2.0431  1.3599  1.7121
  312SOL     OW  934   1.538   0.670   1.098 -0.4632  0.2651 -0.4618
  312SOL    HW1  935   1.578   0.766   1.068  3.9952  0.8273 -1.8654
  312SOL    HW2  936   1.498   0.619   1.014 -0.7776 -2.5353  0.8616
  313SOL     OW  937   1.643   1.324   0.738  0.1441 -0.5467 -0.0160
  313SOL    HW1  938   1.579   1.333   0.817 -3.3056  1.3179 -2.7546
  313SOL    HW2  939   1.608   1.248   0.677  2.8435  1.9311  0.2782
  314SOL     OW  940   2.976   3.097   3.077  0.1357  0.4277 -0.1778
  314SOL    HW1  941   3.001   3.115   3.182 -1.5243 -3.1044  0.9250
  314SOL    HW2  942   2.880   3.054   3.069  1.3848 -1.6942 -0.0832
  315SOL     OW  943   1.160   0.233   2.753  0.0178 -0.5916  0.1849
  315SOL    HW1  944   1.172   0.158   2.682  1.0663 -1.7172 -0.8261
  315SOL    HW2  945   1.139   0.199   2.850 -3.0512 -0.8994 -0.3267
  316SOL     OW  946   1.709   2.091   0.898 -0.6560 -0.1119 -0.2929
  316SOL    HW1  947   1.652   2.077   0.985  0.6565  2.9474  3.8689
  316SOL    HW2  948   1.708   2.192   0.870 -1.6895 -0.9823  0.3682
  317SOL     OW  949   1.153   0.649   2.767  0.7244  0.5146 -0.2814
  317SOL    HW1  950   1.100   0.702   2.845  0.1735  1.0397  0.1642
  317SOL    HW2  951   1.093   0.585   2.714  0.7487  2.5989 -0.0488
  318SOL     OW  952   1.413   3.096   2.245 -0.5954 -0.5163 -0.0472
  318SOL    HW1  953   1.391   3.194   2.216 -1.2994 -1.7372  1.4516
  318SOL    HW2  954   1.414   3.032   2.163  2.8119  0.7775  1.3066
  319SOL     OW  955   0.668   2.353   2.929 -0.2367  0.5199  0.0946
  319SOL    HW1  956   0.623   2.294   3.001  2.7551 -0.1367  2.2285
  319SOL    HW2  957   0.738   2.305   2.870  1.8385 -0.9500  1.5380
  320SOL     OW  958   1.687   2.249   0.393  0.8358  0.0098 -0.3824
  320SOL    HW1  959   1.770   2.176   0.406  2.4533 -1.0396 -1.8023
  320SOL    HW2  960   1.598   2.207   0.434 -1.0766 -0.2315 -0.0948
  321SOL     OW  961   1.685   2.781   0.543 -0.1360  0.2236 -0.5948
  321SOL    HW1  962   1.607   2.825   0.496 -0.8530  3.5909 -0.6961
  321SOL    HW2  963   1.780   2.809   0.513  1.2298 -1.9757  1.9374
  322SOL     OW  964   2.600   1.128   2.305 -0.3145 -0.3434  0.0620
  322SOL    HW1  965   2.699   1.139   2.338  1.9391  0.5417  0.1835
  322SOL    HW2  966   2.563   1.037   2.335 -1.6658  1.2528 -0.7529
  323SOL     OW  967   1.175   2.689   0.807  0.4038  0.5578  0.0425
  323SOL    HW1  968   1.140   2.647   0.720  0.4116 -0.0465 -1.0827
  323SOL    HW2  969   1.165   2.787   0.824  3.0445 -3.3727  1.2689
  324SOL     OW  970   0.212   2.534   2.430  0.2470 -0.5090 -0.2946
  324SOL    HW1  971   0.136   2.501   2.493  0.7215  1.4188 -0.2874
  324SOL    HW2  972   0.270   2.618   2.462  2.3420  0.7946 -0.2939
  325SOL     OW  973   1.208   3.017   0.457 -0.1112 -0.6599 -0.2252
  325SOL    HW1  974   1.188   3.067   0.366  0.5701  1.2804 -0.8068
  325SOL    HW2  975   1.259   3.085   0.518 -1.2295  0.8581  1.9646
  326SOL     OW  976   2.480   0.764   3.082  0.5452 -0.2577  0.0700
  326SOL    HW1  977   2.388   0.729   3.055 -0.2990 -1.9040 -0.4079
  326SOL    HW2  978   2.544   0.699   3.128 -0.0697  2.6240 -1.2321
  327SOL     OW  979   2.804   0.285   0.508  0.3565  0.1172 -0.0313
  327SOL    HW1  980   2.777   0.248   0.409 -2.7265 -0.4015 -4.5095
  327SOL    HW2  981   2.794   0.220   0.590  0.2732 -0.8157  1.2432
  328SOL     OW  982   2.578   0.652   0.419 -0.4612  0.2726 -0.1021
  328SOL    HW1  983   2.676   0.680   0.437  0.3148 -2.0096 -0.8747
  328SOL    HW2  984   2.540   0.582   0.485 -1.5066  4.5457  3.4907
  329SOL     OW  985   2.934   3.007   2.105  0.2354  0.1592  0.2988
  329SOL    HW1  986   2.998   2.967   2.178 -1.6742  1.5012  2.7216
  329SOL    HW2  987   2.951   3.109   2.091  1.4858 -1.7345  2.1995
  330SOL     OW  988   0.589   0.225   1.917 -0.6651  0.5303 -0.2355
  330SOL    HW1  989   0.659   0.179   1.855  3.3654 -0.3125  0.1365
  330SOL    HW2  990   0.564   0.162   1.998  1.1408 -1.1876  0.4206
  331SOL     OW  991   3.022   1.887   1.112 -0.2534 -0.1530 -0.1084
  331SOL    HW1  992   2.990   1.941   1.029 -2.3204 -1.6448  1.7596
  331SOL    HW2  993   2.941   1.859   1.177 -1.9864 -0.7000 -1.2848
  332SOL     OW  994   0.425   1.174   0.061 -0.1831  0.1208  0.2310
  332SOL    HW1  995   0.353   1.119   0.014  2.0594 -1.2698 -2.4684
  332SOL    HW2  996   0.413   1.178   0.161 -0.3443  2.5932 -1.3827
  333SOL     OW  997   2.895   0.979   0.374 -0.2124  0.4005 -0.7804
  333SOL    HW1  998   2.934   1.067   0.399  0.7508  0.1842  1.4267
  333SOL    HW2  999   2.972   0.925   0.322  0.9139 -0.2263 -4.6989
  334SOL     OW 1000   1.701   1.225   1.785  1.1309 -0.4474 -0.8513
  334SOL    HW1 1001   1.744   1.215   1.692 -3.3260  0.0352 -0.4210
  334SOL    HW2 1002   1.768   1.238   1.864 -0.0596 -0.3484 -0.8162
  335SOL     OW 1003   1.947   2.757   2.621 -0.2177  0.8914 -0.5006
  335SOL    HW1 1004   1.878   2.768   2.700 -2.7095 -3.0714  1.1892
  335SOL    HW2 1005   2.046   2.781   2.648  1.3053  0.5237  1.3102
  336SOL     OW 1006   0.266   3.101   2.725 -0.1460 -0.3882 -0.1349
  336SOL    HW1 1007   0.354   3.126   2.777 -0.8728  1.7664 -0.5045
  336SOL    HW2 1008   0.197   3.047   2.785  1.4233 -0.6772  0.2813
  337SOL     OW 1009   0.919   2.904   2.967  0.3880  0.0996 -0.1633
  337SOL    HW1 1010   0.892   2.804   2.981 -0.1908 -4.6172  1.7783
  337SOL    HW2 1011   1.016   2.914   2.982 -0.8572  0.8732 -1.8164
  338SOL     OW 1012   0.021   0.955   0.662 -0.0037 -0.2205  0.0695
  338SOL    HW1 1013  -0.075   0.923   0.656 -0.6483  1.8385 -0.0161
  338SOL    HW2 1014   0.030   1.060   0.673  1.5181  0.0785 -0.6653
  339SOL     OW 1015   1.649   1.353   2.160  0.2093 -0.1585 -0.3112
  339SOL    HW1 1016   1.584   1.403   2.090 -2.7424  1.6617  1.9574
  339SOL    HW2 1017   1.642   1.394   2.258 -4.5763 -0.2559  1.4599
  340SOL     OW 1018   2.244   0.800   1.166  0.4103 -0.0107 -0.4563
  340SOL    HW1 1019   2.154   0.855   1.174 -0.8957  2.0441  1.2096
  340SOL    HW2 1020   2.240   0.727   1.093  1.5267  1.9844 -0.8434
  341SOL     OW 1021   1.893   2.065   0.356 -0.1856 -0.6489  0.5585
  341SOL    HW1 1022   1.939   2.090   0.265  2.8001 -0.9781 -0.7593
  341SOL    HW2 1023   1.956   2.057   0.438 -1.3066 -0.3873  1.1786
  342SOL     OW 1024   2.154   2.092   2.734 -0.2652  0.2425 -0.4640
  342SOL    HW1 1025   2.176   1.994   2.756  0.7791 -0.5337  0.7865
  342SOL    HW2 1026   2.050   2.110   2.724 -1.5289  0.4948  0.2094
  343SOL     OW 1027   0.412   0.779   2.746 -0.1936  0.1559 -0.1020
  343SOL    HW1 1028   0.413   0.843   2.663  1.0790 -1.1355  0.2565
  343SOL    HW2 1029   0.502   0.771   2.792 -0.8347 -1.9488  1.7138
  344SOL     OW 1030   1.917   1.487   0.413  0.4626 -0.2714  0.0154
  344SOL    HW1 1031   1.900   1.399   0.358 -0.8524  0.9361 -0.1447
  344SOL    HW2 1032   1.828   1.539   0.425  0.5953  0.7950  0.8802
  345SOL     OW 1033   1.403   2.239   2.865  0.1011  0.0396 -0.0760
  345SOL    HW1 1034   1.318   2.199   2.826  2.3672 -0.7086 -1.2125
  345SOL    HW2 1035   1.478   2.168   2.872  0.3577 -1.8332  1.0625
  346SOL     OW 1036   2.347   0.902   1.402 -0.4495  0.2056  0.0083
  346SOL    HW1 1037   2.301   0.988   1.430  2.5587 -0.2680 -0.2637
  346SOL    HW2 1038   2.319   0.873   1.309 -0.4566  0.4389  0.8209
  347SOL     OW 1039   0.699   2.735   1.650  0.2328  0.2247  0.1769
  347SOL    HW1 1040   0.649   2.752   1.742 -2.0229 -0.2390  1.6551
  347SOL    HW2 1041   0.638   2.755   1.571  2.0681  0.9918  1.1715
  348SOL     OW 1042   0.169   0.796   2.881  0.2091 -0.0751  0.4718
  348SOL    HW1 1043   0.086   0.761   2.837 -0.4713  0.3658  0.1299
  348SOL    HW2 1044   0.254   0.786   2.824 -1.9234  0.5500 -1.6563
  349SOL     OW 1045   1.852   0.451   2.811  0.0588 -0.2658 -0.0145
  349SOL    HW1 1046   1.838   0.518   2.729 -1.0071  0.6278  2.0614
  349SOL    HW2 1047   1.838   0.490   2.907 -0.0492 -0.1003  0.0392
  350SOL     OW 1048   1.704   0.358   0.361 -0.1636  0.0604 -0.0275
  350SOL    HW1 1049   1.760   0.362   0.452  1.3308 -0.8582  1.5121
  350SOL    HW2 1050   1.670   0.452   0.332  1.1859 -0.0903  0.6496
  351SOL     OW 1051   0.920   0.823   2.058 -0.6677 -0.2970  0.1392
  351SOL    HW1 1052   0.939   0.923   2.049  2.8712 -1.1440 -1.4128
  351SOL    HW2 1053   0.987   0.768   2.000 -3.1256  0.9340  2.3435
  352SOL     OW 1054   2.052   1.347   0.593 -0.3475 -0.1258  0.5160
  352SOL    HW1 1055   2.020   1.416   0.523 -3.0621 -1.9725  1.7451
  352SOL    HW2 1056   1.980   1.294   0.649  1.4637  1.2442  2.1817
  353SOL     OW 1057   2.185   2.811   1.092 -0.1219 -0.2777  0.4372
  353SOL    HW1 1058   2.265   2.759   1.143  0.9023 -0.9432  0.9680
  353SOL    HW2 1059   2.106   2.841   1.158  0.4509  0.7688  2.0876
  354SOL     OW 1060   0.262   1.435   2.865 -0.8135 -0.1170  0.0339
  354SOL    HW1 1061   0.251   1.507   2.791 -0.9569 -0.6099 -1.8754
  354SOL    HW2 1062   0.363   1.425   2.892  1.4930  1.5171  0.0927
  355SOL     OW 1063   0.742   1.583   0.594 -0.5815 -0.1949 -0.5932
  355SOL    HW1 1064   0.722   1.526   0.677 -2.4065 -2.5986 -2.7887
  355SOL    HW2 1065   0.687   1.554   0.511  1.3417 -0.0181 -0.8343
  356SOL     OW 1066   0.883   0.282   2.029  0.4722 -0.1673  0.1077
  356SOL    HW1 1067   0.971   0.245   2.067 -1.2036  1.4765 -0.0887
  356SOL    HW2 1068   0.858   0.235   1.938  3.2844  0.0211  0.1231
  357SOL     OW 1069   1.005   1.325   0.352 -0.2174 -0.2382 -0.7924
  357SOL    HW1 1070   1.072   1.313   0.276  1.0610 -1.6754 -1.2935
  357SOL    HW2 1071   0.984   1.238   0.410  3.4212 -1.7016  2.8673
  358SOL     OW 1072   1.640   1.529   0.524  0.4624 -0.5444  0.1042
  358SOL    HW1 1073   1.624   1.458   0.599 -0.6827  0.3995  3.0859
  358SOL    HW2 1074   1.603   1.484   0.438 -1.7173 -0.6844 -1.4244
  359SOL     OW 1075   1.620   2.590   0.314 -0.1187  0.0873  0.1170
  359SOL    HW1 1076   1.599   2.495   0.274 -1.5148 -1.7872 -0.2699
  359SOL    HW2 1077   1.533   2.635   0.349 -0.7596  1.0253  1.1080
  360SOL     OW 1078   0.790   0.508   0.580 -0.0774 -0.5924 -0.1054
  360SOL    HW1 1079   0.686   0.524   0.567 -2.1097 -1.5813  2.1475
  360SOL    HW2 1080   0.823   0.415   0.593 -0.5715  2.6084  0.0505
  361SOL     OW 1081   1.349   1.287   0.620  0.8159  0.6240 -0.0045
  361SOL    HW1 1082   1.363   1.260   0.720 -2.2205 -2.4129  0.0263
  361SOL    HW2 1083   1.274   1.353   0.610  1.4301  0.2329 -0.4774
  362SOL     OW 1084   1.377   1.780   0.713  0.1836  0.8374 -0.2988
  362SOL    HW1 1085   1.437   1.740   0.787 -1.8798 -1.5451  0.6009
  362SOL    HW2 1086   1.433   1.825   0.637  3.3812  0.0369  0.4135
  363SOL     OW 1087   1.260   1.307   2.073  0.2378 -0.2500  0.1841
  363SOL    HW1 1088   1.342   1.374   2.077 -1.7747 -0.6443  0.7854
  363SOL    HW2 1089   1.170   1.357   2.083  1.2310 -1.9617  0.0701
  364SOL     OW 1090   0.552   2.347   2.055  0.3092 -0.1739  0.4449
  364SOL    HW1 1091   0.459   2.373   2.091 -0.2630  0.0632 -0.9804
  364SOL    HW2 1092   0.581   2.409   1.975 -0.3628  1.0361  2.1293
  365SOL     OW 1093   1.016   1.973   1.352 -0.6922 -1.0735  0.7481
  365SOL    HW1 1094   0.916   1.969   1.385 -1.3705  0.1416  2.3435
  365SOL    HW2 1095   1.026   2.034   1.269  2.9727  0.9610  0.7912
  366SOL     OW 1096   2.849   1.970   0.323 -0.2758  0.4632 -0.4466
  366SOL    HW1 1097   2.759   1.938   0.352  1.7451 -1.0633  2.9455
  366SOL    HW2 1098   2.907   1.893   0.282 -2.0204  0.1951 -1.6739
  367SOL     OW 1099   0.899   1.195   0.038 -0.2305  0.4414  0.2532
  367SOL    HW1 1100   0.917   1.130   0.112 -2.6757 -1.4450 -2.2059
  367SOL    HW2 1101   0.986   1.228  -0.004 -1.6474 -0.9116 -0.4348
  368SOL     OW 1102   1.485   0.570   0.565  0.3076  0.1908  0.3231
  368SOL    HW1 1103   1.393   0.610   0.535 -0.9565  2.9838  0.4660
  368SOL    HW2 1104   1.556   0.617   0.511 -0.9977 -0.5972 -2.7244
  369SOL     OW 1105   0.401   1.718   0.154  0.0128 -0.0700 -0.2497
  369SOL    HW1 1106   0.455   1.756   0.236 -0.0715 -0.9294 -0.2482
  369SOL    HW2 1107   0.320   1.652   0.174 -3.2197  0.8980 -0.2430
  370SOL     OW 1108   0.379   2.140   1.050 -0.0920  0.9246  0.2479
  370SOL    HW1 1109   0.418   2.238   1.046  0.4376  1.2299  3.1469
  370SOL    HW2 1110   0.308   2.124   0.977  1.3620  1.4292  2.9464
  371SOL     OW 1111   2.884   2.242   2.658  0.5050  0.4442  0.0139
  371SOL    HW1 1112   2.817   2.168   2.685 -1.8830  0.1440 -3.6125
  371SOL    HW2 1113   2.942   2.275   2.736 -2.1288 -1.2865  0.9451
  372SOL     OW 1114   1.081   2.121   1.120  0.5086  0.9959  0.5695
  372SOL    HW1 1115   1.015   2.157   1.048 -0.8078 -0.2778  1.6598
  372SOL    HW2 1116   1.147   2.191   1.159 -0.0718  0.6746  1.6720
  373SOL     OW 1117   1.912   1.932   0.986 -0.3840  0.2030  0.1694
  373SOL    HW1 1118   1.994   1.985   1.025 -1.1095  2.2619 -2.6228
  373SOL    HW2 1119   1.822   1.985   0.967  3.0626  1.7237 -2.0129
  374SOL     OW 1120   1.865   0.422   0.572  0.3443  0.4441 -0.4402
  374SOL    HW1 1121   1.855   0.364   0.664  2.4853  0.6268  2.2466
  374SOL    HW2 1122   1.957   0.400   0.537 -3.6728 -0.3797 -0.8655
  375SOL     OW 1123   2.408   2.194   1.110  0.1297 -0.0399 -0.0155
  375SOL    HW1 1124   2.460   2.242   1.034  0.4497  2.3463  0.4582
  375SOL    HW2 1125   2.471   2.163   1.191  1.6352  1.0957 -0.8345
  376SOL     OW 1126   3.078   0.579   1.411  0.7476  0.7100  0.1138
  376SOL    HW1 1127   3.079   0.638   1.494 -0.5404 -0.7032  2.7222
  376SOL    HW2 1128   2.986   0.569   1.359  0.8898  3.0844  2.4049
  377SOL     OW 1129   2.164   2.885   0.294 -0.2410 -0.7948  0.1127
  377SOL    HW1 1130   2.122   2.979   0.304 -0.9165 -0.5008  2.5689
  377SOL    HW2 1131   2.259   2.880   0.340  1.7962  0.2890 -2.2193
  378SOL     OW 1132   1.781   1.874   2.483  0.7933  0.6895 -0.5727
  378SOL    HW1 1133   1.855   1.871   2.413  1.4256  0.4423 -1.6081
  378SOL    HW2 1134   1.739   1.782   2.492  1.8263  0.8896 -3.0205
  379SOL     OW 1135   0.745   0.167   2.814 -0.1618  0.9938  0.3241
  379SOL    HW1 1136   0.792   0.090   2.758  1.9448  0.3306 -1.0250
  379SOL    HW2 1137   0.720   0.253   2.766  1.6997 -1.8983 -1.3026
  380SOL     OW 1138   1.573   1.142   0.540  0.1702  0.0712  0.2530
  380SOL    HW1 1139   1.482   1.194   0.549 -0.0472  0.3555  0.3448
  380SOL    HW2 1140   1.551   1.042   0.513 -1.1432  2.0834 -2.6879
  381SOL     OW 1141   1.347   1.238   1.599 -0.5645 -0.2637 -0.0354
  381SOL    HW1 1142   1.399   1.152   1.574 -2.3500 -0.3952 -2.0235
  381SOL    HW2 1143   1.403   1.311   1.646  0.4194  0.2892  1.5738
  382SOL     OW 1144   1.819   0.877   0.231 -0.3510 -0.5893 -0.1712
  382SOL    HW1 1145   1.833   0.825   0.140 -0.0365 -3.0230  0.6973
  382SOL    HW2 1146   1.897   0.857   0.298  0.7406 -0.5180 -0.9759
  383SOL     OW 1147   2.591   0.998   1.490 -0.1899  0.3341  0.0728
  383SOL    HW1 1148   2.489   0.971   1.463  0.0456 -1.5012 -0.4481
  383SOL    HW2 1149   2.652   1.008   1.405  1.6566 -0.7739 -2.0437
  384SOL     OW 1150   0.844   2.239   0.154 -0.2291  0.2111  0.0015
  384SOL    HW1 1151   0.813   2.330   0.198 -0.8038  1.2943 -1.4943
  384SOL    HW2 1152   0.863   2.165   0.223 -0.5522  1.3048  1.6501
  385SOL     OW 1153   2.953   2.018   1.669  0.2096  0.4049  0.0567
  385SOL    HW1 1154   3.023   2.077   1.631 -1.4511  1.5997  0.5947
  385SOL    HW2 1155   2.980   1.918   1.679 -1.3519  1.9254  2.3840
  386SOL     OW 1156   0.483   1.059   0.468  0.4751 -0.1966 -0.0228
  386SOL    HW1 1157   0.484   0.956   0.499  1.1583 -2.3080 -0.2170
  386SOL    HW2 1158   0.395   1.096   0.438  1.6391 -0.4045 -0.1207
  387SOL     OW 1159   0.912   0.355   1.679  0.2449 -0.7858  0.8266
  387SOL    HW1 1160   0.893   0.452   1.702 -1.6009  0.8578 -0.9462
  387SOL    HW2 1161   0.954   0.344   1.585 -0.4283  1.0523  1.4252
  388SOL     OW 1162   1.191   2.729   1.743  0.0475  0.0569  0.3958
  388SOL    HW1 1163   1.210   2.760   1.649 -0.2651 -1.0249  0.2715
  388SOL    HW2 1164   1.252   2.654   1.777  1.4018  1.0229  1.2591
  389SOL     OW 1165   0.134   2.958   1.331  0.7507 -0.6546  1.2005
  389SOL    HW1 1166   0.033   2.954   1.305  0.2557 -2.6033  0.9067
  389SOL    HW2 1167   0.177   2.866   1.359 -1.2034  0.4871 -0.4451
  390SOL     OW 1168   1.061   0.968   1.332 -0.2202 -0.0488  0.6441
  390SOL    HW1 1169   1.124   0.930   1.408  0.6573  1.7829  2.7280
  390SOL    HW2 1170   1.013   1.055   1.356  0.9953 -1.9197 -0.0249
  391SOL     OW 1171   2.177   1.120   1.087  0.1707  0.5727  0.3284
  391SOL    HW1 1172   2.104   1.050   1.120 -2.8317 -3.1783 -1.3755
  391SOL    HW2 1173   2.221   1.095   0.998  1.9127  1.5822  1.8305
  392SOL     OW 1174   0.914   2.639   3.043  0.2342  0.1430  0.1805
  392SOL    HW1 1175   0.980   2.561   3.032 -0.3998  0.8379  0.4995
  392SOL    HW2 1176   0.875   2.639   3.144 -1.4131  0.2397  2.0999
  393SOL     OW 1177   0.334   0.540   1.974  0.2956  0.7612 -0.4594
  393SOL    HW1 1178   0.260   0.468   1.951 -2.3686 -0.1948 -0.2582
  393SOL    HW2 1179   0.413   0.531   1.908 -1.1892  3.0298  1.4550
  394SOL     OW 1180   3.004   1.937   2.811  0.1376 -0.2048  0.3611
  394SOL    HW1 1181   3.099   1.970   2.837  2.4167 -1.0792  1.4760
  394SOL    HW2 1182   2.988   1.941   2.708 -0.5858 -0.0482  3.0368
  395SOL     OW 1183   1.601   1.959   0.654  0.1761 -0.4177 -0.0608
  395SOL    HW1 1184   1.667   1.886   0.616 -1.0303  0.2765 -0.8127
  395SOL    HW2 1185   1.641   2.006   0.739  1.0034 -0.0997 -1.6072
  396SOL     OW 1186   2.814   1.799   1.297 -0.2290 -0.5223  0.3094
  396SOL    HW1 1187   2.798   1.712   1.238 -0.8411 -1.2486  0.3965
  396SOL    HW2 1188   2.733   1.832   1.350  2.4881  2.0523  0.6377
  397SOL     OW 1189   1.025   2.235   0.503 -0.0059  0.0666  0.1716
  397SOL    HW1 1190   0.939   2.210   0.555 -2.5906  0.3734 -2.2485
  397SOL    HW2 1191   1.046   2.334   0.504  0.6991 -2.7678  2.0065
  398SOL     OW 1192   2.150   0.002   1.016  0.0452  0.0040  0.3348
  398SOL    HW1 1193   2.122  -0.072   1.085 -3.0852 -0.7675  0.3920
  398SOL    HW2 1194   2.083   0.081   1.017 -0.4206 -1.6396 -1.8321
  399SOL     OW 1195   3.089   2.447   2.566 -0.4192  0.6976  0.4090
  399SOL    HW1 1196   2.989   2.418   2.568 -1.1848 -2.4896  0.2971
  399SOL    HW2 1197   3.138   2.407   2.646 -1.3958 -1.2484 -3.6595
  400SOL     OW 1198   0.789   1.639   1.379 -0.5858  0.1296 -0.2617
  400SOL    HW1 1199   0.722   1.653   1.460 -3.0426  1.5830  1.2919
  400SOL    HW2 1200   0.776   1.710   1.304 -1.7401 -3.1151 -2.4447
  401SOL     OW 1201   1.868   0.105   1.249  0.2340 -0.1122 -0.9559
  401SOL    HW1 1202   1.908   0.124   1.346 -2.2403  0.9470 -1.6543
  401SOL    HW2 1203   1.762   0.125   1.255  0.9225  2.0622  0.7562
  402SOL     OW 1204   1.299   0.125   3.064 -0.1111 -0.3506 -0.6362
  402SOL    HW1 1205   1.397   0.135   3.023  1.6580 -0.5477 -0.1917
  402SOL    HW2 1206   1.241   0.215   3.068  0.0733  1.8806 -0.4091
  403SOL     OW 1207   2.283   1.790   0.929  0.0203  0.0113 -0.3902
  403SOL    HW1 1208   2.383   1.772   0.958  3.1689 -0.3901  0.3768
  403SOL    HW2 1209   2.240   1.868   0.983  0.9299 -0.9584  2.7693
  404SOL     OW 1210   0.197   2.492   2.832  0.4398  0.0682  0.3151
  404SOL    HW1 1211   0.299   2.457   2.826 -0.2111  0.7253 -1.3413
  404SOL    HW2 1212   0.181   2.590   2.798 -1.5973 -0.8013 -0.1374
  405SOL     OW 1213   0.097   2.478   0.695 -0.4359 -0.0606  0.2567
  405SOL    HW1 1214   0.102   2.417   0.613  2.8549 -0.0043  1.8973
  405SOL    HW2 1215   0.179   2.534   0.692 -1.8665  0.4809 -1.2989
  406SOL     OW 1216   0.063   1.531   3.057 -0.1159  0.2802 -0.0620
  406SOL    HW1 1217   0.134   1.488   2.992 -2.6812 -1.0205  0.7113
  406SOL    HW2 1218   0.095   1.519   3.152  0.0216  0.3505  0.1546
  407SOL     OW 1219   1.545   0.963   0.994 -0.2315 -0.1473 -0.6376
  407SOL    HW1 1220   1.505   0.921   0.911  1.4785  1.6550  1.2888
  407SOL    HW2 1221   1.480   1.014   1.055 -2.3063  2.0141  0.1435
  408SOL     OW 1222   1.617   2.453   0.960 -0.0177 -0.1276 -0.4251
  408SOL    HW1 1223   1.687   2.420   0.892 -0.1106 -0.2530  2.1714
  408SOL    HW2 1224   1.549   2.523   0.921  0.7713  0.5444 -0.7250
  409SOL     OW 1225   0.641   0.793   0.761  0.1909 -0.9550  0.0372
  409SOL    HW1 1226   0.549   0.785   0.711 -0.4611  1.4038 -0.8572
  409SOL    HW2 1227   0.674   0.708   0.817  1.2490 -2.6845  2.0983
  410SOL     OW 1228   1.306   2.053   1.390 -0.3010  0.7389  0.1783
  410SOL    HW1 1229   1.356   1.977   1.437 -2.1452 -0.1349 -0.4733
  410SOL    HW2 1230   1.214   2.022   1.347  2.5655  2.2196  1.3646
  411SOL     OW 1231   2.648   1.855   3.014  0.2458 -0.9434  0.0824
  411SOL    HW1 1232   2.593   1.925   2.959 -0.9258  0.5060  0.7408
  411SOL    HW2 1233   2.721   1.806   2.957 -0.6038 -1.5969 -0.3739
  412SOL     OW 1234   1.514   2.493   2.161  0.7002  0.6133 -0.3168
  412SOL    HW1 1235   1.535   2.592   2.129  2.4178  0.5027 -0.8755
  412SOL    HW2 1236   1.420   2.474   2.199  1.2249  0.0149 -4.0162
  413SOL     OW 1237   3.040   0.217   2.940  0.9703 -0.2127  0.5705
  413SOL    HW1 1238   3.024   0.125   2.987 -1.2803 -0.5729 -1.4725
  413SOL    HW2 1239   3.142   0.237   2.937 -0.5445 -0.7330 -1.1301
  414SOL     OW 1240   1.890   1.556   1.190  0.0715  0.1011 -0.3639
  414SOL    HW1 1241   1.818   1.633   1.187 -0.1845 -1.8251  1.4728
  414SOL    HW2 1242   1.858   1.485   1.122 -1.6995 -2.2966 -1.6429
  415SOL     OW 1243   0.366   2.267   0.755  0.4004  0.9776  0.4759
  415SOL    HW1 1244   0.384   2.322   0.835  2.5773  2.6483 -0.8312
  415SOL    HW2 1245   0.279   2.211   0.757 -1.9705  0.1946 -0.0971
  416SOL     OW 1246   0.366   1.047   1.054 -0.2047 -0.6991  0.5252
  416SOL    HW1 1247   0.318   0.998   0.976 -1.8426 -0.1331 -1.3480
  416SOL    HW2 1248   0.463   1.074   1.036  2.3393  0.2302  1.5001
  417SOL     OW 1249   2.249   2.320   1.985  0.3824  0.2458 -0.4318
  417SOL    HW1 1250   2.316   2.257   2.041 -0.1647 -1.2605 -0.6908
  417SOL    HW2 1251   2.176   2.264   1.938  0.4514  0.9397  2.1531
  418SOL     OW 1252   1.075   0.604   1.344  0.3717  0.3666  0.2865
  418SOL    HW1 1253   1.000   0.555   1.289  0.6537  0.3435 -2.6068
  418SOL    HW2 1254   1.157   0.613   1.286 -3.3724 -0.8945 -2.4207
  419SOL     OW 1255   0.972   0.504   2.954 -0.5719 -0.3684 -0.4958
  419SOL    HW1 1256   0.942   0.472   2.858 -1.6470 -4.0625  0.1001
  419SOL    HW2 1257   0.964   0.611   2.955 -0.3259  1.2338  0.1373
  420SOL     OW 1258   0.087   2.258   0.527 -0.1247  0.0616  0.1952
  420SOL    HW1 1259   0.128   2.237   0.435 -2.2928 -0.0478 -0.0110
  420SOL    HW2 1260   0.031   2.176   0.562  1.1609 -1.1352  0.1317
  421SOL     OW 1261   0.331   2.976   0.631  0.4280 -0.0927 -0.4895
  421SOL    HW1 1262   0.311   2.940   0.729  0.0335  0.8551  1.5241
  421SOL    HW2 1263   0.413   3.038   0.633  0.0329  1.3310 -0.6176
  422SOL     OW 1264   1.018   2.583   1.034 -0.3632  0.2291  0.1771
  422SOL    HW1 1265   1.079   2.640   0.973 -0.9038 -0.5729 -2.7217
  422SOL    HW2 1266   1.036   2.589   1.138  0.6794  0.9637 -1.5282
  423SOL     OW 1267   0.146   0.724   1.248  0.4625  0.5269 -0.7041
  423SOL    HW1 1268   0.095   0.670   1.323 -2.6195  1.2296 -1.2288
  423SOL    HW2 1269   0.090   0.811   1.229 -1.0234 -2.9670  0.3196
  424SOL     OW 1270   1.076   2.207   2.046  1.0942 -0.2323  0.0272
  424SOL    HW1 1271   1.068   2.304   2.011  0.2162 -1.6157  0.8389
  424SOL    HW2 1272   1.047   2.196   2.146 -0.5004  1.4065 -1.6923
  425SOL     OW 1273   1.985   1.302   1.001 -0.2020  0.0893  0.1675
  425SOL    HW1 1274   2.047   1.227   1.036  0.4079 -0.2837 -0.4587
  425SOL    HW2 1275   2.030   1.398   0.981 -0.7426  1.5711 -1.7060
  426SOL     OW 1276   1.516   1.595   1.377 -0.5285 -0.3096 -0.3884
  426SOL    HW1 1277   1.501   1.647   1.293  1.2430 -0.9290  3.2579
  426SOL    HW2 1278   1.434   1.601   1.446 -2.5465  1.8954  0.6969
  427SOL     OW 1279   1.932   2.328   2.051 -0.4936 -0.1873  0.0778
  427SOL    HW1 1280   1.964   2.250   2.114 -1.3475  0.8861 -0.9185
  427SOL    HW2 1281   1.950   2.427   2.091  0.2742  0.9657  0.0027
  428SOL     OW 1282   0.865   3.048   0.153 -1.3696  0.1495 -0.1519
  428SOL    HW1 1283   0.885   3.106   0.071 -1.3470  3.0627 -1.4631
  428SOL    HW2 1284   0.933   2.971   0.164 -0.0067 -0.5672  0.5759
  429SOL     OW 1285   1.321   0.095   0.257 -0.1460  0.5545  0.2174
  429SOL    HW1 1286   1.419   0.089   0.286  0.3214 -0.7768 -1.9978
  429SOL    HW2 1287   1.312   0.070   0.159 -2.3398 -0.1822 -0.3253
  430SOL     OW 1288   2.851   1.413   0.303  0.3185 -0.2650 -0.4779
  430SOL    HW1 1289   2.867   1.456   0.209  3.1270 -1.4693  1.9641
  430SOL    HW2 1290   2.885   1.472   0.386 -0.3670  1.5771  3.3952
  431SOL     OW 1291   2.100   1.523   0.925 -0.0425 -0.0919  0.6439
  431SOL    HW1 1292   2.166   1.600   0.938  1.0827 -0.4209  0.7399
  431SOL    HW2 1293   2.013   1.560   0.877 -1.8041  1.1789  1.8433
  432SOL     OW 1294   2.929   2.251   1.150  0.3637 -0.1839 -0.0244
  432SOL    HW1 1295   2.849   2.188   1.176  0.8363 -1.3680 -1.6905
  432SOL    HW2 1296   2.989   2.276   1.236  1.7134  0.6730 -0.8578
  433SOL     OW 1297   1.830   0.294   0.800 -0.0785 -0.9712 -0.0719
  433SOL    HW1 1298   1.730   0.300   0.835  2.1487  2.3467 -1.5698
  433SOL    HW2 1299   1.891   0.237   0.863  4.3133 -0.6176  1.4333
  434SOL     OW 1300   1.551   0.312   0.697  0.2127  0.4437 -0.2709
  434SOL    HW1 1301   1.524   0.396   0.645 -1.4161 -0.5841  1.2699
  434SOL    HW2 1302   1.540   0.318   0.802 -1.7002  2.0380  0.9099
  435SOL     OW 1303   1.447   1.504   2.057  0.8008  0.3508 -1.2165
  435SOL    HW1 1304   1.445   1.560   2.149  0.8001 -0.0948 -0.2738
  435SOL    HW2 1305   1.460   1.562   1.971 -2.8736 -2.0464 -0.5096
  436SOL     OW 1306   1.698   2.738   2.284  0.0388  0.1695 -0.1768
  436SOL    HW1 1307   1.658   2.823   2.338  0.7969 -0.8906  0.2486
  436SOL    HW2 1308   1.715   2.657   2.344  0.8073 -0.3263 -1.5534
  437SOL     OW 1309   1.108   2.920   0.927 -0.0739  0.2886 -0.2433
  437SOL    HW1 1310   1.029   2.985   0.908 -1.4716 -0.3449 -2.0459
  437SOL    HW2 1311   1.094   2.853   1.005 -0.4849  0.4397  0.0488
  438SOL     OW 1312   0.979   2.609   1.324  0.0981 -0.0010 -0.0580
  438SOL    HW1 1313   1.067   2.654   1.357  1.0201  2.4297  1.7612
  438SOL    HW2 1314   0.977   2.503   1.329 -0.3983  2.1427 -1.5639
  439SOL     OW 1315   0.720   1.779   1.128  0.6112  0.5374  0.4963
  439SOL    HW1 1316   0.690   1.862   1.071  1.3345  0.7655 -0.2189
  439SOL    HW2 1317   0.640   1.738   1.184 -0.8110  0.9065  1.8868
  440SOL     OW 1318   1.037   2.529   1.942  0.1232 -0.3367 -0.2433
  440SOL    HW1 1319   1.020   2.560   1.845  2.4252 -2.1288  1.7481
  440SOL    HW2 1320   1.137   2.531   1.966  0.5729  1.5912 -2.0880
  441SOL     OW 1321   0.532   2.738   1.425  0.4133  0.3433  0.1819
  441SOL    HW1 1322   0.591   2.651   1.429 -2.5559  2.3068  0.8312
  441SOL    HW2 1323   0.434   2.717   1.403 -1.5710 -1.2252  3.4430
  442SOL     OW 1324   2.250   0.738   2.488  0.1589 -0.3061 -0.0048
  442SOL    HW1 1325   2.249   0.637   2.513  0.5318  1.2393  0.6464
  442SOL    HW2 1326   2.150   0.771   2.475 -0.3522  0.8876 -1.4838
  443SOL     OW 1327   1.193   2.728   2.200 -0.3109  0.7205  0.2495
  443SOL    HW1 1328   1.179   2.780   2.295 -0.2564  2.6109  3.0582
  443SOL    HW2 1329   1.197   2.624   2.205 -3.0033  1.4062 -0.9686
  444SOL     OW 1330   1.079   1.284   1.565  0.0679  0.7994  0.1424
  444SOL    HW1 1331   1.174   1.249   1.581 -0.4708  0.2606 -3.6384
  444SOL    HW2 1332   1.057   1.369   1.620 -2.9593 -1.0568  0.2242
  445SOL     OW 1333   0.014   2.297   1.918  0.0320 -0.2982  0.2852
  445SOL    HW1 1334   0.015   2.395   1.881 -0.2579  1.3491 -0.0275
  445SOL    HW2 1335  -0.078   2.280   1.966 -1.5091  0.9994  0.5537
  446SOL     OW 1336   0.183   1.888   2.329 -0.7331 -0.2153  0.2445
  446SOL    HW1 1337   0.133   1.964   2.377  3.2034 -0.2804  3.2930
  446SOL    HW2 1338   0.152   1.868   2.232  0.7345 -0.4768  1.1692
  447SOL     OW 1339   1.242   1.687   1.932  0.4768  0.0266  0.1348
  447SOL    HW1 1340   1.177   1.754   1.884  2.8329 -0.4652 -2.0409
  447SOL    HW2 1341   1.308   1.727   2.000 -0.5587  1.6560  2.6497
  448SOL     OW 1342   0.179   1.564   2.037  0.1668 -0.0045 -0.4473
  448SOL    HW1 1343   0.197   1.645   1.981 -1.2434 -0.3862  4.4698
  448SOL    HW2 1344   0.121   1.591   2.119  0.3676  1.5064 -0.1749
  449SOL     OW 1345   2.013   2.941   0.810  0.4706  0.2076 -0.3229
  449SOL    HW1 1346   2.082   2.974   0.886  1.4257  2.8850  0.3477
  449SOL    HW2 1347   2.019   2.839   0.781 -2.9442 -1.9901 -1.3088
  450SOL     OW 1348   2.314   1.356   0.774 -0.7762  0.6122 -0.1083
  450SOL    HW1 1349   2.301   1.273   0.839  0.4990 -0.0909  0.0083
  450SOL    HW2 1350   2.224   1.393   0.734  1.6668 -2.0464 -1.2247
  451SOL     OW 1351   1.408   0.035   1.460  0.5847  0.4700  0.3980
  451SOL    HW1 1352   1.325   0.097   1.459 -0.5727  1.3666  0.7120
  451SOL    HW2 1353   1.420  -0.012   1.555  0.9652  0.1243  1.5652
  452SOL     OW 1354   2.654   2.290   2.217 -0.0968 -0.3077 -0.0076
  452SOL    HW1 1355   2.594   2.373   2.247 -0.2480 -0.9639 -0.2518
  452SOL    HW2 1356   2.694   2.240   2.301  0.3203 -1.0081 -0.8469
  453SOL     OW 1357   2.432   2.645   3.079 -0.1059 -0.6594 -0.2211
  453SOL    HW1 1358   2.344   2.699   3.104  0.4072 -4.0640  1.1231
  453SOL    HW2 1359   2.430   2.595   2.987  0.0848 -1.4342  3.0465
  454SOL     OW 1360   0.991   1.099   2.104 -0.4758  0.2556  0.4767
  454SOL    HW1 1361   0.969   1.149   2.013 -1.6511  1.7656 -1.3372
  454SOL    HW2 1362   1.089   1.120   2.140  0.9163  1.8489 -1.0695
  455SOL     OW 1363   0.676   2.627   2.884  0.1320  0.4539 -0.3401
  455SOL    HW1 1364   0.753   2.679   2.927  2.8279  1.2062 -0.8766
  455SOL    HW2 1365   0.673   2.529   2.917 -1.4043  0.0355 -0.4229
  456SOL     OW 1366   0.498   1.868   0.384  0.0064 -0.5638 -0.3978
  456SOL    HW1 1367   0.548   1.874   0.477  2.3223 -0.1335  2.8774
  456SOL    HW2 1368   0.542   1.926   0.311  0.7258  1.7293 -0.0034
  457SOL     OW 1369   0.376   2.607   0.717 -0.0189  0.0696 -0.2545
  457SOL    HW1 1370   0.403   2.606   0.619 -1.0003 -0.9469  0.9783
  457SOL    HW2 1371   0.465   2.612   0.776  1.4547 -0.1285  1.7006
  458SOL     OW 1372   2.986   3.055   1.250 -0.3156 -0.4979  0.5147
  458SOL    HW1 1373   3.020   3.143   1.203  1.3981 -0.5669 -1.7735
  458SOL    HW2 1374   2.944   2.996   1.177 -2.2837 -0.0793  2.7295
  459SOL     OW 1375   2.158   2.552   0.879 -0.5181  0.7348  0.4763
  459SOL    HW1 1376   2.152   2.619   0.958  1.3431 -1.3272  1.7814
  459SOL    HW2 1377   2.250   2.539   0.841 -1.8840 -1.9164  0.7289
  460SOL     OW 1378   1.143   1.950   2.957 -0.0465  0.1251  0.7497
  460SOL    HW1 1379   1.170   2.015   2.882  0.2995 -2.7681  2.2833
  460SOL    HW2 1380   1.219   1.885   2.976 -1.7645  0.0077  0.7857
  461SOL     OW 1381   0.492   2.147   2.678  0.2999 -0.3105 -0.4001
  461SOL    HW1 1382   0.422   2.087   2.636  0.0614  1.3972  1.3685
  461SOL    HW2 1383   0.529   2.119   2.771 -0.7890  1.2776 -1.4397
  462SOL     OW 1384   0.934   1.182   1.835 -0.0306  0.9066 -0.1907
  462SOL    HW1 1385   1.015   1.145   1.784  1.1422 -2.4885 -2.2003
  462SOL    HW2 1386   0.880   1.255   1.782 -2.4646 -1.8750  1.9228
  463SOL     OW 1387   0.451   0.794   0.546 -0.2091  0.2156  0.3919
  463SOL    HW1 1388   0.478   0.702   0.515  1.9643  1.9968 -0.1254
  463SOL    HW2 1389   0.348   0.791   0.560  0.2599  1.1867 -1.1096
  464SOL     OW 1390   0.602   2.236   2.307  0.1854  0.3106  0.1509
  464SOL    HW1 1391   0.577   2.309   2.380 -0.5777 -2.0192  2.3127
  464SOL    HW2 1392   0.594   2.275   2.210 -2.8960  0.9217  3.2893
  465SOL     OW 1393   0.271   0.918   0.840 -0.5399  0.0780 -0.2238
  465SOL    HW1 1394   0.190   0.953   0.783 -0.1223  0.0240  1.0665
  465SOL    HW2 1395   0.284   0.817   0.833 -2.6368  0.8619 -0.6363
  466SOL     OW 1396   1.376   1.106   1.136  0.0578 -0.2382  0.0446
  466SOL    HW1 1397   1.407   1.201   1.163 -0.2388  1.1734  2.1438
  466SOL    HW2 1398   1.273   1.098   1.130  2.0850  2.0385 -3.9014
  467SOL     OW 1399   0.508   0.331   2.357 -0.0715  0.6207  0.6866
  467SOL    HW1 1400   0.517   0.411   2.425 -0.9856 -0.0894  2.8213
  467SOL    HW2 1401   0.498   0.235   2.398 -0.1244 -0.0860 -1.2581
  468SOL     OW 1402   0.420   2.318   1.669 -0.3001 -0.2774 -0.0523
  468SOL    HW1 1403   0.489   2.388   1.703  0.0714 -0.5251  1.1619
  468SOL    HW2 1404   0.411   2.321   1.563 -0.2721 -0.6331 -0.3514
  469SOL     OW 1405   1.488   1.337   1.276  0.1279  0.2338 -0.7460
  469SOL    HW1 1406   1.587   1.306   1.252 -2.5059 -1.9346 -2.0629
  469SOL    HW2 1407   1.477   1.434   1.309 -1.5378 -0.0276  1.6506
  470SOL     OW 1408   3.014   1.694   0.737  0.2698  0.3234  0.0265
  470SOL    HW1 1409   3.088   1.763   0.721  0.7061  0.5583  0.3021
  470SOL    HW2 1410   2.920   1.723   0.771  0.6212  1.1294 -2.3142
  471SOL     OW 1411   2.625   1.357   2.164 -0.2340 -0.4307  0.2980
  471SOL    HW1 1412   2.619   1.274   2.227 -0.6045 -0.2781  2.1521
  471SOL    HW2 1413   2.726   1.379   2.148 -1.2600 -1.9613 -1.0696
  472SOL     OW 1414   1.113   2.449   3.051 -0.0763 -0.5789 -0.2574
  472SOL    HW1 1415   1.131   2.449   3.154  1.8336 -1.6817 -0.6913
  472SOL    HW2 1416   1.082   2.352   3.021  0.3411 -0.4532  1.0866
  473SOL     OW 1417   1.054   1.493   0.923  0.7076  0.0809 -0.1252
  473SOL    HW1 1418   0.961   1.539   0.951  0.9825  0.3816 -1.8817
  473SOL    HW2 1419   1.107   1.466   1.004  0.7444  3.1840  2.4494
  474SOL     OW 1420   0.790   1.226   0.601  0.2712  0.2489  0.2140
  474SOL    HW1 1421   0.766   1.216   0.500  2.9041 -2.4731 -0.9179
  474SOL    HW2 1422   0.833   1.141   0.645 -0.1826  1.3885  1.8032
  475SOL     OW 1423   2.809   0.141   0.789 -0.0232 -0.2324  0.4855
  475SOL    HW1 1424   2.897   0.175   0.836  0.4011  0.1334 -0.2510
  475SOL    HW2 1425   2.730   0.137   0.860 -0.4809  0.8147  0.6595
  476SOL     OW 1426   0.917   2.997   1.773 -0.0456 -0.2248 -0.5608
  476SOL    HW1 1427   0.970   2.962   1.858  3.2026  0.8159 -0.1298
  476SOL    HW2 1428   0.949   2.950   1.683  1.0225  2.0635 -3.1396
  477SOL     OW 1429   1.420   0.331   2.483  0.1432 -0.1335  0.1937
  477SOL    HW1 1430   1.428   0.349   2.586 -0.2195  0.9434  0.1666
  477SOL    HW2 1431   1.489   0.263   2.445 -1.0975 -1.8680 -2.1660
  478SOL     OW 1432   2.256   1.829   0.245 -0.2514  0.1099  0.1169
  478SOL    HW1 1433   2.190   1.743   0.232 -0.3418 -1.4225  0.9291
  478SOL    HW2 1434   2.356   1.811   0.225  1.6243  3.0879  1.8668
  479SOL     OW 1435   1.234   1.050   2.875 -0.4302 -0.6167  0.0488
  479SOL    HW1 1436   1.294   1.068   2.794 -2.7273 -0.3481 -4.4329
  479SOL    HW2 1437   1.134   1.039   2.853  1.1099  3.2524 -2.2160
  480SOL     OW 1438   2.528   2.306   0.369 -0.2909  0.5571 -0.8898
  480SOL    HW1 1439   2.484   2.209   0.370 -1.9702 -0.7548  1.4730
  480SOL    HW2 1440   2.489   2.374   0.302 -1.8170  0.1198  2.1045
  481SOL     OW 1441   1.058   1.182   0.835  0.3081 -0.1390 -0.0873
  481SOL    HW1 1442   1.077   1.258   0.767  0.9169  1.0945 -1.0388
  481SOL    HW2 1443   1.054   1.210   0.937  0.5953 -2.5811  2.4563
  482SOL     OW 1444   1.592   0.333   2.036  0.2259 -0.0243  0.5302
  482SOL    HW1 1445   1.582   0.434   2.008 -0.5635  3.1837 -1.2250
  482SOL    HW2 1446   1.681   0.311   2.087 -1.6285  2.7529  0.7445
  483SOL     OW 1447   0.192   2.387   1.277 -0.3859 -0.0044  0.1481
  483SOL    HW1 1448   0.097   2.353   1.297 -0.7629 -3.3758 -0.8031
  483SOL    HW2 1449   0.197   2.436   1.182 -0.5600  2.8455 -0.5587
  484SOL     OW 1450   1.705   0.983   1.400  0.0372 -0.0118  0.0767
  484SOL    HW1 1451   1.786   0.915   1.392  1.1378 -0.0740  2.1969
  484SOL    HW2 1452   1.737   1.074   1.442  0.8111  0.2020 -1.2359
  485SOL     OW 1453   0.668   1.084   1.791  0.2836 -0.5150 -0.6644
  485SOL    HW1 1454   0.666   1.074   1.685  0.6084  4.8455  1.1921
  485SOL    HW2 1455   0.763   1.112   1.829  2.9869  1.8955 -1.3994
  486SOL     OW 1456   0.944   1.953   2.484 -0.5448  0.3427  0.0491
  486SOL    HW1 1457   0.973   1.893   2.563  1.4104 -1.8469 -1.2791
  486SOL    HW2 1458   0.845   1.991   2.493 -2.9082  2.1846 -1.6272
  487SOL     OW 1459   1.708   1.544   0.897 -0.9351 -0.2241 -0.2825
  487SOL    HW1 1460   1.694   1.462   0.838  0.0145  1.4239  3.0549
  487SOL    HW2 1461   1.793   1.603   0.865 -0.0341 -2.2553 -1.2575
  488SOL     OW 1462   2.955   0.920   2.206  0.4383  0.7995 -0.4026
  488SOL    HW1 1463   3.008   0.860   2.141 -0.4773 -1.4806  0.8721
  488SOL    HW2 1464   2.987   0.910   2.307 -0.2566 -2.0194 -1.7934
  489SOL     OW 1465   2.782   0.253   1.296 -0.3480  0.0825  0.0098
  489SOL    HW1 1466   2.748   0.199   1.381 -2.1392 -0.8902  3.6760
  489SOL    HW2 1467   2.883   0.235   1.271 -1.2008  2.2869  0.3106
  490SOL     OW 1468   1.432   2.954   2.806 -0.2851  0.2571  0.0940
  490SOL    HW1 1469   1.476   2.858   2.799 -1.9091  2.4371 -2.3875
  490SOL    HW2 1470   1.443   3.000   2.715 -1.2525  1.0874  2.5550
  491SOL     OW 1471   1.791   1.491   2.673  0.2072  0.2279 -0.1373
  491SOL    HW1 1472   1.737   1.464   2.755  0.1533 -1.3544  0.4916
  491SOL    HW2 1473   1.892   1.515   2.700  2.7026  1.8036 -0.4362
  492SOL     OW 1474   0.542   2.052   0.711  0.3660 -0.0898  0.8957
  492SOL    HW1 1475   0.602   2.042   0.795  0.0093  1.9910  0.7653
  492SOL    HW2 1476   0.476   2.131   0.710  0.0450  0.9479 -0.3404
  493SOL     OW 1477   0.433   1.432   2.050 -0.2305  0.9320  0.4312
  493SOL    HW1 1478   0.342   1.483   2.057 -0.7200  0.2303 -1.4101
  493SOL    HW2 1479   0.430   1.353   2.115  0.8895  2.3182  0.6232
  494SOL     OW 1480   2.653   2.697   0.158  0.4754 -0.0144  0.1157
  494SOL    HW1 1481   2.648   2.634   0.239  0.6772  1.3118 -0.5338
  494SOL    HW2 1482   2.591   2.665   0.081  1.0209 -1.0552 -1.5078
  495SOL     OW 1483   2.724   2.641   2.702  0.1103 -0.4203  0.5161
  495SOL    HW1 1484   2.643   2.579   2.690 -1.0866 -0.5383  0.6127
  495SOL    HW2 1485   2.773   2.655   2.612 -0.4540  0.8953  2.1261
  496SOL     OW 1486   2.021   2.170   0.715 -0.2376  0.2648  0.6677
  496SOL    HW1 1487   2.039   2.211   0.806  0.0247 -1.5945 -2.1166
  496SOL    HW2 1488   2.091   2.097   0.692  0.4694 -1.3684 -0.3092
  497SOL     OW 1489   0.198   2.975   2.400  0.0688  0.5958 -0.0141
  497SOL    HW1 1490   0.166   3.032   2.482 -1.0087  0.5189  2.3160
  497SOL    HW2 1491   0.236   3.036   2.322  0.3130 -0.1139 -0.7529
  498SOL     OW 1492   1.219   1.447   1.150  0.0477 -0.0582 -0.7040
  498SOL    HW1 1493   1.298   1.409   1.209  1.4536 -1.9447  2.0157
  498SOL    HW2 1494   1.159   1.523   1.191  1.0739  0.0889 -0.1951
  499SOL     OW 1495   0.757   1.860   0.548  0.5211 -0.0738  0.3357
  499SOL    HW1 1496   0.763   1.755   0.545  2.9681 -1.9042 -1.8699
  499SOL    HW2 1497   0.816   1.905   0.618  0.9033 -0.1204 -1.2884
  500SOL     OW 1498   1.446   2.968   1.697 -0.3302 -0.1469  0.3849
  500SOL    HW1 1499   1.418   2.950   1.795 -0.4596 -1.3101 -0.9097
  500SOL    HW2 1500   1.505   2.887   1.664  2.0918  0.3782 -0.4034
  501SOL     OW 1501   0.793   1.117   2.293 -0.4760 -0.1116 -0.0526
  501SOL    HW1 1502   0.716   1.047   2.301 -2.2948  4.3055 -0.6159
  501SOL    HW2 1503   0.852   1.108   2.208 -0.1519  0.0018  1.2219
  502SOL     OW 1504   2.579   0.946   1.756 -0.2166  0.3996  0.1574
  502SOL    HW1 1505   2.590   0.961   1.652 -2.0261  2.2127 -0.3969
  502SOL    HW2 1506   2.543   0.857   1.785 -2.0525 -0.5433 -0.8838
  503SOL     OW 1507   1.305   0.128   0.607  0.6746  0.7881 -0.1744
  503SOL    HW1 1508   1.256   0.193   0.541  0.9241 -0.6650  0.3417
  503SOL    HW2 1509   1.387   0.178   0.643 -3.9360  0.5167 -0.2078
  504SOL     OW 1510   3.032   2.314   1.407 -0.0552 -0.1003 -0.1998
  504SOL    HW1 1511   2.986   2.404   1.436 -2.1936  4.6479 -3.0896
  504SOL    HW2 1512   3.064   2.252   1.484  2.4601  2.3355 -1.2497
  505SOL     OW 1513   2.268   1.168   1.500  0.4930 -0.1277 -0.9056
  505SOL    HW1 1514   2.293   1.203   1.408  2.1833 -1.2349  2.1514
  505SOL    HW2 1515   2.320   1.217   1.579 -0.6461  0.8177  1.0708
  506SOL     OW 1516   1.990   0.213   1.750 -0.4396 -0.0989  0.1397
  506SOL    HW1 1517   2.035   0.129   1.786  1.1932 -0.3458 -4.1316
  506SOL    HW2 1518   1.980   0.291   1.823 -0.2504  2.0418  0.0179
  507SOL     OW 1519   0.533   0.671   2.167 -0.4920 -0.0082 -0.0267
  507SOL    HW1 1520   0.461   0.654   2.098  1.6492 -1.2186  2.5640
  507SOL    HW2 1521   0.613   0.600   2.147  1.0818  0.3531  1.1321
  508SOL     OW 1522   0.258   1.608   0.910  0.4778  0.0087  0.1357
  508SOL    HW1 1523   0.327   1.663   0.859 -2.9738  0.6845 -2.7341
  508SOL    HW2 1524   0.222   1.659   0.994  0.6578 -2.3001 -0.0634
  509SOL     OW 1525   1.350   1.243   2.432  0.3498 -0.2745  0.8929
  509SOL    HW1 1526   1.266   1.184   2.457 -4.4293 -3.4335  0.6274
  509SOL    HW2 1527   1.382   1.210   2.339 -1.4997  0.3594  1.6351
  510SOL     OW 1528   1.283   2.006   2.064  0.0600 -0.4550 -0.0055
  510SOL    HW1 1529   1.227   2.086   2.034  1.2203  2.2806  0.1823
  510SOL    HW2 1530   1.232   1.939   2.130  2.4236 -0.1440  0.2241
  511SOL     OW 1531   3.049   2.659   1.319  0.0139 -0.1648 -0.3189
  511SOL    HW1 1532   2.998   2.622   1.236  0.0451 -1.9806  1.4672
  511SOL    HW2 1533   3.010   2.631   1.411 -1.8459 -1.1879  1.1525
  512SOL     OW 1534   2.377   0.430   1.393  0.4392  0.2926 -0.0964
  512SOL    HW1 1535   2.273   0.429   1.389 -1.1728 -1.9895 -1.8875
  512SOL    HW2 1536   2.421   0.408   1.303  4.6920  2.2478  2.8172
  513SOL     OW 1537   2.471   2.020   0.858 -0.2766  0.2454 -0.5631
  513SOL    HW1 1538   2.418   2.086   0.798  1.6055 -0.3830  0.4253
  513SOL    HW2 1539   2.536   1.967   0.796 -0.3989 -0.8244 -1.8095
  514SOL     OW 1540   0.611   2.807   0.444  0.5113 -0.2523 -0.6952
  514SOL    HW1 1541   0.593   2.855   0.353  0.7125  1.1634 -2.1886
  514SOL    HW2 1542   0.664   2.861   0.518  1.6724  0.9263 -1.4901
  515SOL     OW 1543   2.032   1.139   2.264  0.4828  0.2369  0.6100
  515SOL    HW1 1544   1.987   1.170   2.179 -2.0813 -0.5984  4.6158
  515SOL    HW2 1545   1.980   1.169   2.345 -1.4755  0.7325 -3.9510
  516SOL     OW 1546   0.285   0.268   1.954  0.1688 -0.2639 -0.0122
  516SOL    HW1 1547   0.376   0.273   1.909 -0.2446 -0.9477 -0.3373
  516SOL    HW2 1548   0.205   0.236   1.892 -0.8931 -0.3167 -0.1591
  517SOL     OW 1549   0.362   3.034   1.200 -0.3114 -0.2730  0.6661
  517SOL    HW1 1550   0.393   3.126   1.243 -3.2277  0.4551  0.6094
  517SOL    HW2 1551   0.276   2.984   1.241 -2.2356 -0.2884  1.2645
  518SOL     OW 1552   2.153   3.076   1.749 -0.9028 -0.4221  0.0901
  518SOL    HW1 1553   2.220   3.152   1.786  0.6823  1.4669  1.9859
  518SOL    HW2 1554   2.195   3.010   1.680 -0.9773  0.5165  1.6201
  519SOL     OW 1555   2.401   2.222   2.576  0.5260 -0.0782 -0.2293
  519SOL    HW1 1556   2.318   2.212   2.637  1.5019  1.4441 -0.8286
  519SOL    HW2 1557   2.441   2.318   2.579 -1.5110 -0.8341  1.3640
  520SOL     OW 1558   1.747   2.872   1.863  0.0996  0.0957 -0.1822
  520SOL    HW1 1559   1.656   2.835   1.889  0.8733 -0.6018  0.2515
  520SOL    HW2 1560   1.813   2.799   1.831 -0.4511  2.7317 -0.3351
  521SOL     OW 1561   0.571   3.093   2.122  0.3428  0.4513 -0.7383
  521SOL    HW1 1562   0.477   3.071   2.160 -0.7841  1.5248  0.8189
  521SOL    HW2 1563   0.637   3.135   2.190 -0.0963  2.3274  1.7854
  522SOL     OW 1564   0.201   1.906   1.468 -0.2338  0.0773  0.3120
  522SOL    HW1 1565   0.262   1.963   1.534 -0.4535  1.7779  0.0162
  522SOL    HW2 1566   0.166   1.961   1.384  0.2435 -0.2968  0.5703
  523SOL     OW 1567   2.251   2.908   1.563  0.0293  0.1226  0.3618
  523SOL    HW1 1568   2.325   2.837   1.558 -0.7879  0.8989 -0.6555
  523SOL    HW2 1569   2.162   2.874   1.524 -0.8147 -0.5816  0.1648
  524SOL     OW 1570   0.183   2.756   2.764 -0.2645 -0.0931  0.0337
  524SOL    HW1 1571   0.119   2.804   2.829  1.3846 -0.6740  0.6311
  524SOL    HW2 1572   0.287   2.763   2.789  0.2701  0.7043  4.5007
  525SOL     OW 1573   2.160   1.951   0.478 -0.2546  0.1381 -0.5257
  525SOL    HW1 1574   2.180   1.875   0.551  3.3880 -0.8569 -2.8621
  525SOL    HW2 1575   2.167   1.912   0.380  1.7026 -2.4092 -0.1088
  526SOL     OW 1576   0.421   1.514   1.620  0.7240  0.5420 -0.4746
  526SOL    HW1 1577   0.390   1.489   1.716 -1.8743 -1.1834  0.4714
  526SOL    HW2 1578   0.477   1.437   1.573 -1.5345 -1.7204  0.4148
  527SOL     OW 1579   1.085   2.959   1.279  0.0700 -0.6689  0.4689
  527SOL    HW1 1580   1.186   2.935   1.268 -1.0184 -1.3322  1.9473
  527SOL    HW2 1581   1.072   3.064   1.290 -0.5328  1.7763  2.4754
  528SOL     OW 1582   1.348   2.411   0.503 -0.0134  0.1699 -0.2872
  528SOL    HW1 1583   1.387   2.318   0.482 -2.4347 -0.1571 -0.1758
  528SOL    HW2 1584   1.394   2.457   0.583 -1.5989 -0.7665  0.5750
  529SOL     OW 1585   1.907   1.704   0.810 -0.7158 -0.4861  0.0077
  529SOL    HW1 1586   1.850   1.743   0.734  2.4468 -0.6108  1.4327
  529SOL    HW2 1587   1.928   1.776   0.878  0.5197 -0.9731 -0.1911
  530SOL     OW 1588   0.282   2.483   0.340 -0.0590 -0.3207  0.4013
  530SOL    HW1 1589   0.262   2.571   0.395  0.0359  2.1281  1.5921
  530SOL    HW2 1590   0.339   2.417   0.395  0.2197  2.8240  0.2531
  531SOL     OW 1591   1.803   1.023   0.995  0.2577  0.1253  0.0064
  531SOL    HW1 1592   1.837   0.989   0.905  1.3095  0.1965  0.0356
  531SOL    HW2 1593   1.697   1.006   1.003  0.6629 -1.2482  0.6065
  532SOL     OW 1594   0.503   1.066   0.801 -0.0901 -0.1982 -0.1479
  532SOL    HW1 1595   0.551   1.031   0.717  0.1266  1.5616  0.9490
  532SOL    HW2 1596   0.428   1.004   0.836 -0.3291  0.1400  1.6755
  533SOL     OW 1597   1.766   0.013   2.569  0.0876  0.0809 -0.1912
  533SOL    HW1 1598   1.871   0.026   2.565  0.7137  0.9478 -1.4009
  533SOL    HW2 1599   1.721   0.055   2.655 -1.0733  1.1127  0.4540
  534SOL     OW 1600   0.359   0.208   1.598  0.5377  0.7720 -0.8676
  534SOL    HW1 1601   0.463   0.217   1.595 -1.3861 -1.7692  1.5725
  534SOL    HW2 1602   0.306   0.291   1.625  2.8322 -0.1361 -3.4627
  535SOL     OW 1603   1.952   0.336   0.144 -0.4647  0.1690  0.1743
  535SOL    HW1 1604   1.946   0.425   0.193  0.7910  2.1266 -0.4293
  535SOL    HW2 1605   1.967   0.258   0.212  1.2012  0.7601  2.7327
  536SOL     OW 1606   1.394   2.652   0.952 -0.3006  0.5014 -0.0214
  536SOL    HW1 1607   1.384   2.603   1.050  2.1235 -2.0454  1.7795
  536SOL    HW2 1608   1.304   2.670   0.903  0.2731 -0.6777  0.1163
  537SOL     OW 1609   0.805   0.295   2.405 -0.3127 -0.4336  0.2031
  537SOL    HW1 1610   0.803   0.361   2.324  0.0066  1.5868  0.3264
  537SOL    HW2 1611   0.769   0.199   2.375  0.0651 -1.3015  0.0397
  538SOL     OW 1612   1.672   2.305   1.442 -0.2841 -0.3409 -0.8670
  538SOL    HW1 1613   1.665   2.201   1.447  2.5688 -0.2775 -0.8542
  538SOL    HW2 1614   1.765   2.340   1.410 -1.9460  0.0682  0.2217
  539SOL     OW 1615   0.160   1.642   2.673  0.0021 -0.0882 -0.1109
  539SOL    HW1 1616   0.066   1.613   2.639  1.6431 -0.3037  1.4126
  539SOL    HW2 1617   0.169   1.736   2.718  0.2512 -0.2529 -1.2189
  540SOL     OW 1618   2.665   1.766   1.923  0.5169 -0.0842  0.1447
  540SOL    HW1 1619   2.599   1.686   1.949 -2.1584  1.4433 -0.4686
  540SOL    HW2 1620   2.603   1.855   1.905 -0.0398  1.2541  0.2047
  541SOL     OW 1621   0.541   2.185   0.008  0.6295 -0.2290  0.0033
  541SOL    HW1 1622   0.563   2.154   0.105  0.1537  2.5018 -0.4581
  541SOL    HW2 1623   0.438   2.188  -0.003 -0.0842 -1.9552 -1.0945
  542SOL     OW 1624   2.197   2.572   0.410 -0.5595 -0.0627 -0.1725
  542SOL    HW1 1625   2.161   2.669   0.415 -0.3458  1.6551  0.6903
  542SOL    HW2 1626   2.129   2.502   0.452 -2.1118  1.1571  0.5011
  543SOL     OW 1627   1.112   1.813   1.560 -0.3625  0.0212 -0.3211
  543SOL    HW1 1628   1.111   1.874   1.644  0.2425  1.4531  1.2026
  543SOL    HW2 1629   1.060   1.853   1.479 -1.0241 -1.0588  2.7222
  544SOL     OW 1630   1.103   0.475   0.177 -0.2695  0.4128 -0.1554
  544SOL    HW1 1631   1.090   0.405   0.255  0.4836  0.3623  1.4137
  544SOL    HW2 1632   1.139   0.437   0.086  3.3804 -1.8601 -0.4504
  545SOL     OW 1633   1.125   1.766   0.780 -0.0754 -0.1397 -0.3224
  545SOL    HW1 1634   1.222   1.766   0.736 -1.5933 -0.7478  0.9040
  545SOL    HW2 1635   1.095   1.672   0.817 -0.9813  0.5636 -2.1375
  546SOL     OW 1636   2.646   1.537   3.016  0.5008  0.7314 -0.4751
  546SOL    HW1 1637   2.620   1.630   2.975  0.2413 -1.5263  1.3310
  546SOL    HW2 1638   2.566   1.465   3.020  0.6476 -1.1886  0.9249
  547SOL     OW 1639   0.616   3.012   2.595 -0.0343  0.1595 -0.3341
  547SOL    HW1 1640   0.703   3.024   2.646 -1.6666  0.4071 -2.9624
  547SOL    HW2 1641   0.551   2.939   2.626 -3.3397  0.2407  0.1303
  548SOL     OW 1642   2.086   0.853   2.978 -0.0724 -0.4132  0.0436
  548SOL    HW1 1643   1.998   0.817   3.017 -1.4803 -0.1464  1.6030
  548SOL    HW2 1644   2.100   0.952   2.999 -2.1523 -0.4636 -0.3786
  549SOL     OW 1645   0.657   0.597   0.197  0.0359  0.5031  0.1366
  549SOL    HW1 1646   0.597   0.633   0.116 -0.8383 -0.5348  0.8696
  549SOL    HW2 1647   0.752   0.629   0.206 -4.1783 -2.1176  2.0730
  550SOL     OW 1648   2.612   2.793   2.911 -0.3903  0.2615  0.0005
  550SOL    HW1 1649   2.555   2.744   2.984  2.5505 -0.6740 -0.0538
  550SOL    HW2 1650   2.671   2.732   2.846  1.0275  0.1003 -0.8057
  551SOL     OW 1651   0.272   0.902   0.275 -0.5314  1.0120 -0.1055
  551SOL    HW1 1652   0.372   0.916   0.256  0.7444 -1.6548  0.1044
  551SOL    HW2 1653   0.260   0.860   0.371  2.2632 -1.8350  1.0091
  552SOL     OW 1654   0.636   3.001   1.851  0.4610  0.3839 -0.3612
  552SOL    HW1 1655   0.618   3.034   1.953  1.2835 -0.7859  0.0397
  552SOL    HW2 1656   0.738   3.009   1.828  0.9681  0.2069  1.0727
  553SOL     OW 1657   2.893   2.433   0.362  0.1348 -0.3623  0.0100
  553SOL    HW1 1658   2.849   2.334   0.363  0.2332  0.0757  0.7050
  553SOL    HW2 1659   2.820   2.497   0.401 -3.8857  0.0473 -1.0105
  554SOL     OW 1660   2.115   0.328   0.515  0.0073 -0.5618 -0.2655
  554SOL    HW1 1661   2.172   0.310   0.428  0.0598  2.6946 -0.4193
  554SOL    HW2 1662   2.136   0.269   0.596 -0.2177  0.2878  0.3971
  555SOL     OW 1663   0.373   2.788   2.520  0.1603  0.5948  0.3441
  555SOL    HW1 1664   0.293   2.855   2.507  1.0942 -1.4252  2.0801
  555SOL    HW2 1665   0.435   2.788   2.436  2.6491 -1.6849 -0.3762
  556SOL     OW 1666   0.867   2.348   1.562  0.4026  0.6377  0.6049
  556SOL    HW1 1667   0.902   2.424   1.624 -0.3925 -2.4426  1.6737
  556SOL    HW2 1668   0.924   2.343   1.474 -0.4048  1.6570 -1.4135
  557SOL     OW 1669   0.144   2.017   0.235 -0.1309  0.3128 -0.4599
  557SOL    HW1 1670   0.058   1.970   0.194 -0.4070 -0.6361  0.4569
  557SOL    HW2 1671   0.224   2.032   0.165 -0.7088  2.4955 -2.7839
  558SOL     OW 1672   2.762   2.208   0.434  0.3310 -0.0284  0.3090
  558SOL    HW1 1673   2.663   2.244   0.429 -1.5469 -0.7988 -0.4764
  558SOL    HW2 1674   2.788   2.127   0.368 -0.9463 -0.4855 -1.3409
  559SOL     OW 1675   0.429   2.324   1.379 -0.1590 -0.2921 -0.3391
  559SOL    HW1 1676   0.336   2.358   1.341 -2.8279  1.1347 -0.5150
  559SOL    HW2 1677   0.462   2.239   1.329 -0.0769  1.5298 -3.6965
  560SOL     OW 1678   2.115   1.122   3.083 -0.0095 -0.1993 -0.2895
  560SOL    HW1 1679   2.133   1.144   3.180 -0.3600  0.3426 -1.4592
  560SOL    HW2 1680   2.190   1.164   3.024 -0.8134  0.4617  1.8175
  561SOL     OW 1681   0.011   1.856   0.007  0.3298  0.0967 -0.5494
  561SOL    HW1 1682  -0.008   1.813   0.100  1.7834 -1.2248  0.6859
  561SOL    HW2 1683  -0.046   1.939  -0.021 -2.2018  0.6744 -3.4528
  562SOL     OW 1684   1.028   2.174   2.322  0.3860  0.3912  0.7864
  562SOL    HW1 1685   1.025   2.270   2.355  0.8319 -3.9052 -2.2336
  562SOL    HW2 1686   1.003   2.095   2.390  0.6825 -1.0237 -1.9341
  563SOL     OW 1687   0.697   2.525   2.626  0.0707 -0.1986 -0.2784
  563SOL    HW1 1688   0.794   2.493   2.601  0.7504 -0.1502 -0.9004
  563SOL    HW2 1689   0.689   2.593   2.706  2.1258 -0.0961  1.6420
  564SOL     OW 1690   2.867   1.394   2.924  0.4512  0.5924  0.3175
  564SOL    HW1 1691   2.778   1.425   2.969  0.2514  0.6739  1.3319
  564SOL    HW2 1692   2.922   1.471   2.882  0.4803 -2.5615  0.4833
  565SOL     OW 1693   2.479   1.972   2.657  0.0085 -0.7035  0.0387
  565SOL    HW1 1694   2.439   2.067   2.633 -0.8709 -2.3241  3.1654
  565SOL    HW2 1695   2.574   1.989   2.700  0.5379 -0.5265 -2.9119
  566SOL     OW 1696   1.993   2.870   1.471  0.3261  0.3702 -0.1624
  566SOL    HW1 1697   1.954   2.775   1.505  0.7154 -1.0040 -0.7116
  566SOL    HW2 1698   1.994   2.882   1.367 -1.8342 -0.9271  0.0879
  567SOL     OW 1699   2.437   3.088   2.335  0.6070  0.3836 -0.8547
  567SOL    HW1 1700   2.340   3.125   2.347 -0.2713  0.5392  1.1381
  567SOL    HW2 1701   2.462   3.091   2.235 -0.0966 -0.9529  1.2805
  568SOL     OW 1702   1.532   1.808   0.265 -0.4705 -0.2649  0.3958
  568SOL    HW1 1703   1.461   1.882   0.248  1.1936  0.8703 -0.9261
  568SOL    HW2 1704   1.628   1.841   0.289  0.4717 -0.7266  0.9517
  569SOL     OW 1705   0.248   0.630   0.787 -0.7288 -0.2650  0.2299
  569SOL    HW1 1706   0.315   0.546   0.782  0.6185 -1.4016  0.3952
  569SOL    HW2 1707   0.152   0.595   0.794 -2.9152 -1.8263 -2.0082
  570SOL     OW 1708   0.651   0.869   2.890  0.1584  0.2053 -0.8659
  570SOL    HW1 1709   0.729   0.880   2.820 -1.6928 -1.8134  0.4031
  570SOL    HW2 1710   0.660   0.935   2.970  0.6314  3.0764 -2.1381
  571SOL     OW 1711   0.811   0.019   1.125  0.6584  0.5369  0.5846
  571SOL    HW1 1712   0.834   0.062   1.036 -4.7579  0.6832  1.9361
  571SOL    HW2 1713   0.830  -0.080   1.134 -1.9411  2.3701 -0.9701
  572SOL     OW 1714   1.614   2.661   1.377 -0.1153  0.0146  0.0158
  572SOL    HW1 1715   1.540   2.595   1.355 -3.6874  0.1207  0.4715
  572SOL    HW2 1716   1.620   2.747   1.319  0.7458  0.4455 -0.3698
  573SOL     OW 1717   2.994   0.493   2.024  0.7840  0.1834  0.2695
  573SOL    HW1 1718   2.911   0.432   2.047 -0.3783 -2.1927  0.0632
  573SOL    HW2 1719   3.047   0.457   1.940 -0.7211  3.1261  2.1530
  574SOL     OW 1720   0.165   1.764   1.128  0.1734 -0.0748  0.5452
  574SOL    HW1 1721   0.220   1.819   1.195 -0.5635  1.1533 -1.7954
  574SOL    HW2 1722   0.071   1.804   1.115  1.6867  0.5048 -1.3955
  575SOL     OW 1723   0.845   2.174   0.954 -0.1904  0.1053  0.0139
  575SOL    HW1 1724   0.817   2.232   1.033  2.7854 -2.1551 -1.6309
  575SOL    HW2 1725   0.880   2.223   0.867  0.5068 -1.0968 -2.5362
  576SOL     OW 1726   2.887   2.985   1.681  0.4476  0.5820  0.2454
  576SOL    HW1 1727   2.789   2.956   1.683  1.5919 -0.5862  0.4948
  576SOL    HW2 1728   2.905   3.085   1.669  2.6560 -2.5807  1.4300
  577SOL     OW 1729   2.638   1.223   0.011  0.9138  0.2056  0.3649
  577SOL    HW1 1730   2.622   1.132  -0.038 -2.6517  0.9077 -0.8161
  577SOL    HW2 1731   2.690   1.225   0.099 -0.1576  2.3336 -0.1656
  578SOL     OW 1732   1.393   2.804   2.477  0.0098  0.5870  0.2338
  578SOL    HW1 1733   1.299   2.835   2.437  1.3974  1.4748 -1.5153
  578SOL    HW2 1734   1.470   2.872   2.465  1.8906  0.1215  0.9459
  579SOL     OW 1735   3.100   2.478   0.169 -0.2830 -0.2711  0.1907
  579SOL    HW1 1736   3.010   2.488   0.224  0.7989  3.0783  1.9268
  579SOL    HW2 1737   3.180   2.453   0.228 -0.6659 -1.0609 -1.8338
  580SOL     OW 1738   0.988   2.652   0.376  0.2154  0.6700  0.2335
  580SOL    HW1 1739   1.080   2.696   0.343  0.5085  0.7781 -1.7565
  580SOL    HW2 1740   0.937   2.607   0.300  0.9230 -2.2737 -2.3730
  581SOL     OW 1741   1.248   2.652   1.439  0.5548  0.5219  0.0097
  581SOL    HW1 1742   1.300   2.566   1.472  1.1993  0.1287  0.8160
  581SOL    HW2 1743   1.302   2.736   1.407  1.8711 -0.9896  1.9471
  582SOL     OW 1744   1.501   0.111   1.896 -0.0741 -0.2723  0.4957
  582SOL    HW1 1745   1.531   0.203   1.942  1.4354  0.8253 -3.0942
  582SOL    HW2 1746   1.573   0.066   1.839 -1.7178  0.3555  2.2661
  583SOL     OW 1747   2.433   3.064   0.529  0.1203  0.1564 -0.0600
  583SOL    HW1 1748   2.518   3.007   0.514 -3.1297 -1.1624 -1.8986
  583SOL    HW2 1749   2.349   3.005   0.553  0.8316 -1.1798  1.7856
  584SOL     OW 1750   1.589   1.110   2.275 -0.1218  0.6521  0.3954
  584SOL    HW1 1751   1.629   1.174   2.206  0.4810  1.5663 -2.0953
  584SOL    HW2 1752   1.661   1.035   2.290  3.1850  1.3286 -1.2459
  585SOL     OW 1753   2.096   2.667   2.890 -0.1813  0.4720  0.2241
  585SOL    HW1 1754   2.134   2.568   2.872  0.2070 -0.5904  1.0426
  585SOL    HW2 1755   1.996   2.682   2.879 -0.5258  0.0107 -1.0343
  586SOL     OW 1756   2.899   0.393   1.541 -0.0229  0.2824 -0.3470
  586SOL    HW1 1757   2.892   0.477   1.594  1.5304 -1.7213  0.2017
  586SOL    HW2 1758   2.833   0.391   1.457  1.5136 -1.2946 -1.7338
  587SOL     OW 1759   2.067   1.477   2.651  0.0653 -0.5321  0.2305
  587SOL    HW1 1760   2.103   1.402   2.588  1.0027  1.0091 -1.8583
  587SOL    HW2 1761   2.135   1.494   2.729  2.2498  0.8820  0.5166
  588SOL     OW 1762   0.517   2.714   2.279  0.2590 -0.4145  0.8180
  588SOL    HW1 1763   0.473   2.717   2.187  2.5150  0.0993 -1.4024
  588SOL    HW2 1764   0.508   2.621   2.333  1.8481  0.2709 -0.2859
  589SOL     OW 1765   2.199   1.281   2.486 -0.0117 -0.1009  0.3504
  589SOL    HW1 1766   2.178   1.252   2.389  0.7477  1.5479  0.9797
  589SOL    HW2 1767   2.297   1.275   2.505 -0.3334  0.3828 -0.5096
  590SOL     OW 1768   2.348   1.777   2.057  0.3321  0.3859  0.1967
  590SOL    HW1 1769   2.405   1.693   2.067  1.8904 -2.5366  3.5474
  590SOL    HW2 1770   2.325   1.811   2.152 -0.0385 -0.0198  2.4562
  591SOL     OW 1771   1.227   2.428   0.219 -0.2539 -0.5458 -0.1406
  591SOL    HW1 1772   1.244   2.344   0.156  1.5314  2.6859 -0.3349
  591SOL    HW2 1773   1.257   2.408   0.318  0.6671 -0.7328  3.4776
  592SOL     OW 1774   1.798   2.332   0.771 -0.0165 -0.3594  0.9125
  592SOL    HW1 1775   1.801   2.413   0.706 -1.4037  1.1062 -1.3134
  592SOL    HW2 1776   1.853   2.250   0.731 -0.3275  0.6984  0.7935
  593SOL     OW 1777   0.713   0.262   0.224  0.1471 -0.0799  0.0191
  593SOL    HW1 1778   0.773   0.252   0.141  2.1146  0.7460  0.9018
  593SOL    HW2 1779   0.708   0.365   0.241  0.8536  0.3998 -1.3229
  594SOL     OW 1780   1.059   1.835   2.713  0.2382  0.0146  0.4403
  594SOL    HW1 1781   1.147   1.805   2.672 -1.3995 -0.2275 -1.7619
  594SOL    HW2 1782   1.074   1.880   2.800 -1.6697  0.5032 -2.9428
  595SOL     OW 1783   1.572   0.092   0.990 -0.4091 -0.3187 -0.1570
  595SOL    HW1 1784   1.655   0.031   0.966  0.8174  1.4177  1.0654
  595SOL    HW2 1785   1.481   0.060   0.949  1.7429 -2.6768  1.5940
  596SOL     OW 1786   0.041   1.542   2.299  0.6082 -0.6840 -0.0196
  596SOL    HW1 1787   0.102   1.463   2.321 -1.9141  2.0436  0.4220
  596SOL    HW2 1788   0.023   1.593   2.384 -1.8496  0.2055 -1.1247
  597SOL     OW 1789   1.928   2.678   1.801  0.5378 -0.1157  0.1898
  597SOL    HW1 1790   1.911   2.637   1.704  0.0564 -0.6555 -0.2267
  597SOL    HW2 1791   2.030   2.664   1.830  3.2960 -1.1264 -1.1186
  598SOL     OW 1792   2.547   2.892   1.220 -0.0994 -0.2811  0.0893
  598SOL    HW1 1793   2.610   2.920   1.293 -3.9491  0.5601  0.4662
  598SOL    HW2 1794   2.590   2.886   1.126  1.3051  0.4607  0.5583
  599SOL     OW 1795   2.854   0.301   2.477 -0.2448 -0.7131  0.5492
  599SOL    HW1 1796   2.891   0.245   2.395  0.8910 -1.2149 -0.9023
  599SOL    HW2 1797   2.798   0.385   2.440 -3.7428 -0.0518  0.5582
  600SOL     OW 1798   2.827   1.188   2.759 -0.1105  0.6834  0.5332
  600SOL    HW1 1799   2.724   1.178   2.741 -1.4861 -0.2694 -1.1153
  600SOL    HW2 1800   2.856   1.277   2.802  1.3021  0.7841 -1.0699
  601SOL     OW 1801   3.079   1.345   2.010 -0.0649  0.4112  0.3335
  601SOL    HW1 1802   2.990   1.373   1.962 -0.1535  0.8582 -4.4658
  601SOL    HW2 1803   3.139   1.425   2.037 -3.3770 -0.1754 -0.8865
  602SOL     OW 1804   1.454   1.611   2.313  0.4404 -0.3909  0.1809
  602SOL    HW1 1805   1.360   1.595   2.352  0.4906 -1.1689 -1.3445
  602SOL    HW2 1806   1.529   1.631   2.379  1.5802 -2.3526 -0.4447
  603SOL     OW 1807   0.670   1.160   2.736 -0.4223 -0.9218 -0.5567
  603SOL    HW1 1808   0.569   1.149   2.760 -0.5129  0.1306 -1.7993
  603SOL    HW2 1809   0.719   1.080   2.687 -0.9559 -1.2406  0.6017
  604SOL     OW 1810   2.450   1.000   0.148  0.6986 -0.3209 -0.0679
  604SOL    HW1 1811   2.532   1.055   0.116 -1.6514 -0.4503 -2.4391
  604SOL    HW2 1812   2.432   0.915   0.090 -2.2512 -1.4663  0.8259
  605SOL     OW 1813   2.498   1.186   1.978  0.2846 -0.4395 -0.3037
  605SOL    HW1 1814   2.565   1.123   1.935 -0.3973  2.4999 -1.4877
  605SOL    HW2 1815   2.533   1.256   2.043 -1.3562  0.2062  0.7988
  606SOL     OW 1816   1.488   2.550   2.560 -0.2126  0.0108  0.0388
  606SOL    HW1 1817   1.451   2.631   2.510  2.1580 -0.7234  2.2814
  606SOL    HW2 1818   1.465   2.456   2.520 -0.3383 -0.0180 -0.0176
  607SOL     OW 1819   1.366   1.601   0.304  0.0706  0.5406 -0.3544
  607SOL    HW1 1820   1.271   1.648   0.319 -3.7740  1.0525 -0.5091
  607SOL    HW2 1821   1.444   1.674   0.294 -0.1402  0.9254 -0.4263
  608SOL     OW 1822   1.442   2.847   0.397 -0.0385  0.3423 -0.2975
  608SOL    HW1 1823   1.487   2.889   0.311 -2.5563  1.3912  0.1160
  608SOL    HW2 1824   1.360   2.903   0.428  0.6130  1.1285  0.2902
  609SOL     OW 1825   1.314   1.342   0.190  0.6485 -0.1941  0.0065
  609SOL    HW1 1826   1.320   1.436   0.230  0.8631 -0.0376  0.3186
  609SOL    HW2 1827   1.267   1.342   0.092 -0.0245  1.9746 -3.9990
  610SOL     OW 1828   3.013   1.186   2.263 -0.1330 -0.1609  0.5999
  610SOL    HW1 1829   2.994   1.090   2.219 -2.2798 -0.3048 -1.1696
  610SOL    HW2 1830   3.001   1.264   2.195  0.6403  1.2273  0.8597
  611SOL     OW 1831   2.508   0.271   1.174 -0.4887 -0.2418 -0.0458
  611SOL    HW1 1832   2.434   0.201   1.181 -0.5156  1.1752 -0.9400
  611SOL    HW2 1833   2.601   0.239   1.202  0.3904 -0.5928 -2.1559
  612SOL     OW 1834   0.742   2.301   1.185  0.1375 -0.0334 -0.2368
  612SOL    HW1 1835   0.674   2.226   1.219  0.3834 -1.4216  0.2163
  612SOL    HW2 1836   0.712   2.396   1.185 -0.6138 -0.8352  0.1284
  613SOL     OW 1837   0.864   1.387   2.377 -0.1697  0.1565 -0.0886
  613SOL    HW1 1838   0.852   1.466   2.306  1.0458  3.5694 -0.5012
  613SOL    HW2 1839   0.817   1.295   2.357 -2.3928 -0.6409 -3.0384
  614SOL     OW 1840   1.549   1.648   1.831 -0.2160 -0.3426 -0.1431
  614SOL    HW1 1841   1.526   1.747   1.803  0.0656 -0.3978 -1.6860
  614SOL    HW2 1842   1.649   1.625   1.844 -0.0114  2.7232 -0.6341
  615SOL     OW 1843   0.753   1.386   1.717  0.2952  0.4706  0.0908
  615SOL    HW1 1844   0.690   1.348   1.650  1.6171  0.8709  1.4610
  615SOL    HW2 1845   0.806   1.471   1.678 -0.1073  0.7128 -2.1594
  616SOL     OW 1846   1.107   1.555   2.165  0.0309 -0.4116 -0.4892
  616SOL    HW1 1847   1.003   1.562   2.178 -0.7906  3.3320  2.1929
  616SOL    HW2 1848   1.132   1.587   2.070 -1.7653 -0.3176 -0.8888
  617SOL     OW 1849   2.983   1.513   1.617  0.6518 -0.5380 -0.1297
  617SOL    HW1 1850   2.984   1.428   1.678 -1.5531  0.5587  0.6707
  617SOL    HW2 1851   3.006   1.484   1.521  0.7711 -2.1703 -0.9902
  618SOL     OW 1852   1.930   1.941   1.437  0.0534 -0.2613 -0.0333
  618SOL    HW1 1853   2.017   1.943   1.379 -0.9490 -1.9255  0.5424
  618SOL    HW2 1854   1.914   1.852   1.491  0.0396  1.2384 -0.0694
  619SOL     OW 1855   1.679   0.461   2.366  0.0909 -0.4544 -0.0431
  619SOL    HW1 1856   1.604   0.515   2.325 -0.4287  2.6682  0.9874
  619SOL    HW2 1857   1.664   0.358   2.363 -0.8127 -1.3382  2.9529
  620SOL     OW 1858   2.185   2.934   0.585  0.1647  0.3565 -0.5453
  620SOL    HW1 1859   2.104   2.992   0.609  1.7681 -1.4621 -1.3015
  620SOL    HW2 1860   2.216   2.868   0.661  0.3820 -1.5766 -0.4317
  621SOL     OW 1861   2.217   1.888   1.325  0.5149  0.2139  0.6407
  621SOL    HW1 1862   2.200   1.902   1.428  0.1776 -1.4108  1.6898
  621SOL    HW2 1863   2.214   1.789   1.299  2.2630 -1.9206  0.7809
  622SOL     OW 1864   2.172   0.859   1.750  0.2219  0.5517  0.6359
  622SOL    HW1 1865   2.266   0.819   1.739  1.8468 -0.3390  1.3287
  622SOL    HW2 1866   2.127   0.801   1.825  1.9561  0.5657  1.0202
  623SOL     OW 1867   1.349   0.770   2.599 -0.5253  0.1415 -0.3887
  623SOL    HW1 1868   1.295   0.703   2.655  1.6472  3.5855 -0.9510
  623SOL    HW2 1869   1.295   0.833   2.538  1.4133 -0.6336 -1.2508
  624SOL     OW 1870   0.499   0.722   3.084  0.1230 -0.1175 -0.0172
  624SOL    HW1 1871   0.538   0.772   2.999 -0.9237  1.3495 -4.5060
  624SOL    HW2 1872   0.501   0.789   3.169  1.0133  2.4254 -0.6429
  625SOL     OW 1873   2.788   1.729   0.899 -0.3698 -0.6257 -0.0664
  625SOL    HW1 1874   2.704   1.759   0.956 -0.2024 -1.3531  1.3848
  625SOL    HW2 1875   2.792   1.624   0.890 -1.2661  0.0698 -1.7840
  626SOL     OW 1876   0.537   2.740   1.855 -0.1875  0.2465  0.6221
  626SOL    HW1 1877   0.555   2.844   1.858 -0.9530  1.0318  0.3598
  626SOL    HW2 1878   0.436   2.719   1.854 -0.4130 -2.0374  2.6002
  627SOL     OW 1879   0.704   1.027   1.521  0.4314  0.3804  0.2676
  627SOL    HW1 1880   0.716   0.924   1.548  1.8851 -0.4701  0.5081
  627SOL    HW2 1881   0.794   1.059   1.486 -1.3271  0.4568  0.9164
  628SOL     OW 1882   2.418   0.212   0.698  0.0262  0.0661  0.1692
  628SOL    HW1 1883   2.435   0.130   0.639  0.6429 -0.8433 -1.0206
  628SOL    HW2 1884   2.316   0.240   0.714 -0.3285  0.5420  3.4468
  629SOL     OW 1885   1.975   0.911   1.970  0.1440  0.1148 -0.4850
  629SOL    HW1 1886   2.052   0.936   2.038  0.2760 -0.3810 -1.5378
  629SOL    HW2 1887   1.907   0.988   1.976 -1.4338  0.8178  4.1653
  630SOL     OW 1888   2.765   2.159   0.780 -1.1544  0.0830 -0.2811
  630SOL    HW1 1889   2.696   2.217   0.823 -1.1269  3.3515  0.1766
  630SOL    HW2 1890   2.726   2.068   0.747  0.5616 -1.7915  0.1360
  631SOL     OW 1891   2.992   0.187   2.106  0.5591  1.2604 -0.1966
  631SOL    HW1 1892   3.039   0.209   2.195 -0.6321  0.3162  0.8248
  631SOL    HW2 1893   3.052   0.174   2.019 -1.1842 -1.5283  1.1749
  632SOL     OW 1894   2.370   2.506   0.649 -0.4796 -0.5865  0.4507
  632SOL    HW1 1895   2.429   2.591   0.669  0.8824 -1.8737 -0.0861
  632SOL    HW2 1896   2.324   2.521   0.557 -1.9659  1.0592  0.0751
  633SOL     OW 1897   1.587   1.274   2.558  0.2890  0.1025  0.6540
  633SOL    HW1 1898   1.560   1.357   2.616 -1.9529 -0.1012 -0.2009
  633SOL    HW2 1899   1.518   1.261   2.480  1.3596 -1.3922  0.2847
  634SOL     OW 1900   0.631   2.005   0.975  0.0445  0.4702  0.1868
  634SOL    HW1 1901   0.538   2.051   0.998  0.8309 -0.5938  3.3107
  634SOL    HW2 1902   0.710   2.075   0.977 -0.2216  3.2482  1.0178
  635SOL     OW 1903   0.043   2.310   3.057  0.7202 -0.2583 -0.2991
  635SOL    HW1 1904  -0.006   2.354   2.977 -1.1774  0.0072  3.6380
  635SOL    HW2 1905   0.028   2.368   3.141  3.1178  1.0813 -1.1227
  636SOL     OW 1906   2.291   2.798   2.008  0.0085  0.4227 -0.5929
  636SOL    HW1 1907   2.282   2.898   2.004 -0.6474 -4.1492 -1.2506
  636SOL    HW2 1908   2.239   2.754   2.088  1.9409 -0.7097 -1.0399
  637SOL     OW 1909   2.541   0.694   2.031 -0.3482  0.0227 -0.3319
  637SOL    HW1 1910   2.506   0.685   1.935 -0.3987  0.8806  0.5193
  637SOL    HW2 1911   2.604   0.776   2.047  0.0771 -1.1480  3.0114
  638SOL     OW 1912   2.488   1.873   1.320  0.3236  0.3037 -0.1129
  638SOL    HW1 1913   2.388   1.885   1.311  1.3854  1.3849  2.2953
  638SOL    HW2 1914   2.508   1.779   1.358 -0.1197 -3.0831  1.2751
  639SOL     OW 1915   1.275   2.207   1.608  0.9901 -0.1221 -0.7674
  639SOL    HW1 1916   1.298   2.145   1.527 -0.9621 -1.3360 -2.6214
  639SOL    HW2 1917   1.198   2.169   1.671 -0.2777 -0.4722  3.4559
  640SOL     OW 1918   0.181   1.194   1.573 -0.5451  0.3700  0.2271
  640SOL    HW1 1919   0.175   1.265   1.647  1.2294 -1.9637 -0.1084
  640SOL    HW2 1920   0.261   1.129   1.591  2.2701  2.7780 -0.3330
  641SOL     OW 1921   1.978   0.117   1.471 -0.6014  0.7471 -0.4228
  641SOL    HW1 1922   1.988   0.161   1.569  1.4697  0.7473  1.4390
  641SOL    HW2 1923   1.991   0.016   1.475  2.6743  0.2631 -0.0651
  642SOL     OW 1924   1.957   0.136   0.326  0.4025 -0.0918 -0.3457
  642SOL    HW1 1925   2.043   0.102   0.370  0.8104 -0.9018 -0.2962
  642SOL    HW2 1926   1.873   0.122   0.383 -0.9117 -0.7518  2.7358
  643SOL     OW 1927   2.865   1.883   2.062 -0.2102 -0.6711  0.1784
  643SOL    HW1 1928   2.810   1.819   2.004  3.1300 -1.4411 -1.8496
  643SOL    HW2 1929   2.855   1.981   2.034  1.6649  0.5428  0.4468
  644SOL     OW 1930   2.176   2.322   1.193 -0.0174 -0.0412  0.0577
  644SOL    HW1 1931   2.260   2.269   1.153  0.5942 -3.3107 -1.1306
  644SOL    HW2 1932   2.173   2.301   1.296  2.4499 -2.5098  0.8959
  645SOL     OW 1933   0.599   0.778   1.159 -0.4601  0.0378 -0.1858
  645SOL    HW1 1934   0.540   0.715   1.099 -0.5337 -1.8083 -1.8323
  645SOL    HW2 1935   0.634   0.867   1.122 -1.9729  1.3151  2.1198
  646SOL     OW 1936   1.517   1.943   1.804  0.0115 -0.0561  0.0883
  646SOL    HW1 1937   1.605   2.002   1.800  0.3674 -0.3555 -0.3284
  646SOL    HW2 1938   1.453   1.968   1.883 -1.5583  0.3892  2.5830
  647SOL     OW 1939   0.874   0.964   0.680  0.4633 -0.2968 -0.2068
  647SOL    HW1 1940   0.967   0.939   0.726  2.5185 -1.1618 -1.4749
  647SOL    HW2 1941   0.795   0.914   0.724 -1.3482  3.0477 -0.6440
  648SOL     OW 1942   0.156   0.171   0.291  0.7076  0.1728  0.1423
  648SOL    HW1 1943   0.170   0.088   0.221 -1.1054  1.5477  1.2403
  648SOL    HW2 1944   0.143   0.264   0.245 -0.5364 -0.7329 -1.2623
  649SOL     OW 1945   3.084   0.155   0.933  0.2785 -0.3049 -0.0835
  649SOL    HW1 1946   3.184   0.129   0.918  0.2371 -0.9410 -0.7871
  649SOL    HW2 1947   3.060   0.184   1.030  1.9457 -3.2121  1.8833
  650SOL     OW 1948   2.705   0.714   1.390  0.3108  0.1957 -0.1655
  650SOL    HW1 1949   2.619   0.667   1.422 -0.9758  0.7322 -1.9657
  650SOL    HW2 1950   2.679   0.809   1.357  0.0475 -2.0214  3.0545
  651SOL     OW 1951   0.888   1.592   1.624 -0.2171 -0.3615  0.0746
  651SOL    HW1 1952   0.969   1.633   1.676  1.0371  1.4037 -0.5911
  651SOL    HW2 1953   0.877   1.623   1.524  1.6470  1.5943  1.1195
  652SOL     OW 1954   2.231   2.481   2.430 -0.4376  0.2446 -0.2452
  652SOL    HW1 1955   2.175   2.506   2.508 -0.9888  1.7441 -2.4632
  652SOL    HW2 1956   2.209   2.545   2.347 -1.1362  0.3880 -3.1904
  653SOL     OW 1957   2.720   1.162   0.270 -0.4737 -0.0771  0.5244
  653SOL    HW1 1958   2.770   1.254   0.297  0.2015  0.5727  1.0928
  653SOL    HW2 1959   2.779   1.084   0.303 -0.4571  2.9723  0.7050
  654SOL     OW 1960   1.277   2.273   1.249  0.1377 -0.1954 -0.5099
  654SOL    HW1 1961   1.300   2.207   1.330  1.8975  1.0345 -2.0216
  654SOL    HW2 1962   1.321   2.248   1.158  0.5748  0.3700  0.6928
  655SOL     OW 1963   0.211   1.013   1.843  0.0007  0.0563  0.2992
  655SOL    HW1 1964   0.253   0.933   1.788  0.6476  2.3820 -2.8220
  655SOL    HW2 1965   0.280   1.089   1.839 -1.5335 -2.0299 -1.9489
  656SOL     OW 1966   2.513   2.477   2.601  0.0118 -0.0190  0.0191
  656SOL    HW1 1967   2.592   2.464   2.542 -2.1311  0.7099  0.6159
  656SOL    HW2 1968   2.443   2.547   2.567 -0.6255  3.1156  0.4057
  657SOL     OW 1969   3.041   1.096   1.894 -0.2339 -0.0206 -0.3446
  657SOL    HW1 1970   3.041   1.176   1.959  0.9415 -1.4888 -1.3073
  657SOL    HW2 1971   3.135   1.070   1.864 -0.6102 -0.1325  0.0429
  658SOL     OW 1972   1.633   0.165   2.380  0.3597 -0.0811 -0.0377
  658SOL    HW1 1973   1.673   0.109   2.458  0.4406  1.8060  0.3198
  658SOL    HW2 1974   1.690   0.144   2.299 -2.5999  1.8452  2.5824
  659SOL     OW 1975   1.385   0.612   2.900 -0.2214 -0.5570 -0.1069
  659SOL    HW1 1976   1.461   0.682   2.897 -1.9992  0.4516 -4.7072
  659SOL    HW2 1977   1.295   0.647   2.862 -0.1071 -0.4016  0.7003
  660SOL     OW 1978   1.467   0.350   1.401 -0.4325 -0.1209  0.1264
  660SOL    HW1 1979   1.491   0.359   1.505 -0.0100 -0.3173  0.9184
  660SOL    HW2 1980   1.541   0.311   1.346  2.3952  2.9231  2.6698
  661SOL     OW 1981   2.510   1.184   0.667 -0.7527  0.2357  0.2514
  661SOL    HW1 1982   2.522   1.143   0.574 -0.3064  0.3149  0.2391
  661SOL    HW2 1983   2.447   1.263   0.671 -0.4987 -3.5141  1.1438
  662SOL     OW 1984   1.318   0.416   1.830 -0.1637  0.2055  0.4951
  662SOL    HW1 1985   1.277   0.325   1.805 -0.2244  2.3205 -0.7516
  662SOL    HW2 1986   1.294   0.443   1.924  1.1419  0.4316 -1.6198
  663SOL     OW 1987   0.841   1.590   2.189  0.0579  0.4279 -0.0690
  663SOL    HW1 1988   0.816   1.681   2.239  2.9671  1.1058  1.7084
  663SOL    HW2 1989   0.793   1.575   2.100  2.6247  1.5834  2.7003
  664SOL     OW 1990   1.664   2.022   1.376  0.1567 -0.0696 -0.5646
  664SOL    HW1 1991   1.616   1.943   1.424 -0.4275  0.7897  1.7104
  664SOL    HW2 1992   1.766   2.024   1.389 -1.5114 -0.0662 -1.5135
  665SOL     OW 1993   2.196   0.682   1.976  0.3331 -0.3447 -0.9044
  665SOL    HW1 1994   2.171   0.590   2.021 -1.0172 -0.9768 -0.5479
  665SOL    HW2 1995   2.186   0.768   2.038  2.8389  0.6451  1.4631
  666SOL     OW 1996   0.484   2.313   0.478  0.7307 -0.6985 -0.3560
  666SOL    HW1 1997   0.556   2.387   0.465 -0.7960 -1.2041  1.3016
  666SOL    HW2 1998   0.427   2.319   0.567 -0.6987  1.5686  3.3029
  667SOL     OW 1999   1.981   0.203   1.023  0.5550  0.4498  0.2921
  667SOL    HW1 2000   1.996   0.304   1.034  0.4889 -2.1382 -1.9635
  667SOL    HW2 2001   1.945   0.149   1.107 -0.3018  1.0502  0.6748
  668SOL     OW 2002   1.990   0.552   1.181 -0.1503  0.1747 -0.7395
  668SOL    HW1 2003   2.065   0.569   1.113 -0.5931  1.9132  2.0738
  668SOL    HW2 2004   2.027   0.525   1.278  2.1435 -1.4597  0.2644
  669SOL     OW 2005   3.007   2.143   0.891 -0.4861 -0.5956  0.1996
  669SOL    HW1 2006   2.927   2.134   0.826 -1.2220 -2.0936 -1.7036
  669SOL    HW2 2007   2.973   2.179   0.983  3.7938  2.7540  1.5212
  670SOL     OW 2008   2.852   2.359   2.011 -0.6039  1.1330 -0.0099
  670SOL    HW1 2009   2.809   2.323   2.098  1.5671 -1.7021  1.4905
  670SOL    HW2 2010   2.842   2.462   2.003 -0.0167 -1.5546  0.7684
  671SOL     OW 2011   1.755   1.721   1.455  0.0709 -0.7466 -0.0731
  671SOL    HW1 2012   1.787   1.775   1.375  0.1981 -0.6848  3.1748
  671SOL    HW2 2013   1.675   1.660   1.436 -1.8025 -0.7579  2.6679
  672SOL     OW 2014   0.456   0.621   2.457 -0.6441  0.2627 -0.2485
  672SOL    HW1 2015   0.476   0.640   2.355 -0.2044 -0.5742 -0.1593
  672SOL    HW2 2016   0.370   0.667   2.492  2.6024 -1.2509  0.2580
  673SOL     OW 2017   0.148   1.199   1.162  0.4154  0.2375  0.3102
  673SOL    HW1 2018   0.188   1.262   1.234  1.3811 -3.5646  0.1925
  673SOL    HW2 2019   0.221   1.150   1.111 -2.9172 -0.1246 -1.5119
  674SOL     OW 2020   1.544   2.896   0.148 -0.2677 -0.3342  0.3050
  674SOL    HW1 2021   1.579   2.992   0.123  0.2694  2.5836 -0.7681
  674SOL    HW2 2022   1.559   2.821   0.081 -1.1476  0.0025  1.3345
  675SOL     OW 2023   1.664   0.854   2.308  0.3303 -0.2185  0.6286
  675SOL    HW1 2024   1.758   0.828   2.261  1.4435  1.1284  2.4922
  675SOL    HW2 2025   1.591   0.774   2.304 -2.6634  0.0368  2.5849
  676SOL     OW 2026   2.498   1.539   1.993  0.1251 -0.0131 -0.0806
  676SOL    HW1 2027   2.449   1.489   1.918 -0.4630 -1.3434 -1.6043
  676SOL    HW2 2028   2.549   1.475   2.063 -0.6859 -2.2016  0.6080
  677SOL     OW 2029   1.821   0.609   0.979 -0.3132 -0.2008  0.1595
  677SOL    HW1 2030   1.877   0.613   1.068  0.5080 -2.1152  2.2870
  677SOL    HW2 2031   1.802   0.512   0.953 -1.2184 -0.7883  1.1477
  678SOL     OW 2032   0.051   0.750   1.667 -0.0677 -0.1013 -0.1518
  678SOL    HW1 2033   0.152   0.739   1.695  2.4582 -1.6353  1.1847
  678SOL    HW2 2034  -0.013   0.782   1.745  0.0846 -0.4520  1.3127
  679SOL     OW 2035   2.511   1.175   1.091 -0.4003  0.1085 -0.8198
  679SOL    HW1 2036   2.436   1.215   1.152 -1.2390  1.1931  0.9742
  679SOL    HW2 2037   2.496   1.076   1.070  0.2712 -0.5516 -0.5457
  680SOL     OW 2038   2.821   0.653   1.643  0.1848 -0.0529  0.2282
  680SOL    HW1 2039   2.777   0.692   1.556  0.0350 -1.0628  0.0909
  680SOL    HW2 2040   2.856   0.724   1.714  0.9484 -0.9343  2.3777
  681SOL     OW 2041   2.993   0.138   1.607  0.3288  0.5586 -0.1114
  681SOL    HW1 2042   3.066   0.109   1.541 -1.0191  0.8356  0.1262
  681SOL    HW2 2043   2.956   0.232   1.585 -0.4944  2.5098  0.9060
  682SOL     OW 2044   0.790   0.034   1.396 -0.1996 -0.0691 -0.1979
  682SOL    HW1 2045   0.715  -0.029   1.432  0.6886  0.7959 -0.8180
  682SOL    HW2 2046   0.815   0.015   1.295  1.8064 -3.6987 -0.0877
  683SOL     OW 2047   1.382   0.259   2.187  0.5912 -0.1449 -0.3502
  683SOL    HW1 2048   1.359   0.349   2.236  2.0218  0.2681  1.9843
  683SOL    HW2 2049   1.469   0.274   2.135 -0.7517  2.7236 -1.4272
  684SOL     OW 2050   1.449   2.121   0.501  0.0669 -0.3687  0.0209
  684SOL    HW1 2051   1.500   2.058   0.566 -1.3527  0.8753 -0.2983
  684SOL    HW2 2052   1.361   2.079   0.464  0.5057 -0.7754  1.7728
  685SOL     OW 2053   2.195   1.982   1.930  0.1070 -0.5562 -0.3250
  685SOL    HW1 2054   2.268   2.027   1.873 -0.7479 -2.1567  0.1734
  685SOL    HW2 2055   2.244   1.914   1.998  1.8684 -1.3525 -0.2978
  686SOL     OW 2056   1.535   1.735   2.673  0.5172  0.2268  0.5196
  686SOL    HW1 2057   1.500   1.636   2.685 -2.7662  1.1954 -2.3402
  686SOL    HW2 2058   1.630   1.749   2.705 -1.6684  0.6721 -0.1737
  687SOL     OW 2059   1.320   2.521   1.895  0.1245 -0.0241 -0.0320
  687SOL    HW1 2060   1.335   2.430   1.847 -0.8112  2.6510 -1.9181
  687SOL    HW2 2061   1.394   2.558   1.957  1.0718 -0.3286  2.6436
  688SOL     OW 2062   2.072   1.447   1.639  0.1262  0.3653 -0.6979
  688SOL    HW1 2063   2.161   1.483   1.595  1.4859 -2.3852 -0.1844
  688SOL    HW2 2064   1.998   1.422   1.571 -0.2913  0.0527 -3.2982
  689SOL     OW 2065   2.475   1.114   2.759  0.2256 -0.1948  0.2045
  689SOL    HW1 2066   2.368   1.125   2.777 -0.1180  1.5678 -1.4560
  689SOL    HW2 2067   2.531   1.068   2.831  0.3977  0.7368 -1.3735
  690SOL     OW 2068   2.198   2.789   0.051  0.0077  0.6363 -1.3162
  690SOL    HW1 2069   2.130   2.775  -0.024 -1.4362  0.6635  1.6968
  690SOL    HW2 2070   2.161   2.827   0.142 -0.2867 -1.7036 -3.0935
  691SOL     OW 2071   2.608   0.420   2.122 -0.2542  0.4447 -0.2612
  691SOL    HW1 2072   2.668   0.346   2.081 -2.0214 -0.9758 -0.7938
  691SOL    HW2 2073   2.624   0.515   2.077  3.8516  2.2586  2.1627
  692SOL     OW 2074   2.792   1.207   0.715  0.3966 -0.0115 -0.0385
  692SOL    HW1 2075   2.688   1.212   0.695  0.8461  1.2343  0.7803
  692SOL    HW2 2076   2.830   1.291   0.766  0.1388  2.1641 -0.3109
  693SOL     OW 2077   2.871   3.006   0.637 -0.0250 -0.5951 -0.7720
  693SOL    HW1 2078   2.855   3.100   0.685 -2.2697  2.6532 -1.1671
  693SOL    HW2 2079   2.802   2.981   0.559  0.1426  0.0820 -2.1913
  694SOL     OW 2080   2.408   2.226   0.052  0.3623 -0.3931  0.0555
  694SOL    HW1 2081   2.387   2.321   0.085 -2.5213  2.4102  2.3256
  694SOL    HW2 2082   2.325   2.164   0.029 -0.8768 -1.0067  1.7983
  695SOL     OW 2083   0.561   3.010   1.481 -0.7696 -0.0383 -0.3313
  695SOL    HW1 2084   0.553   2.914   1.441 -1.9190  0.4396  0.9190
  695SOL    HW2 2085   0.509   3.025   1.571  1.5749 -0.2695 -1.8806
  696SOL     OW 2086   2.684   1.914   0.705  0.1256 -0.3106 -0.1499
  696SOL    HW1 2087   2.728   1.860   0.776  0.7690  2.0697  0.2744
  696SOL    HW2 2088   2.691   1.880   0.607 -1.1979 -3.2066  1.4377
  697SOL     OW 2089   1.754   2.086   1.782  0.4351  0.2574 -0.8136
  697SOL    HW1 2090   1.828   2.018   1.814 -1.3165  1.0955  1.5775
  697SOL    HW2 2091   1.783   2.188   1.802 -2.6667  3.1631 -0.7132
  698SOL     OW 2092   2.878   0.410   2.741 -0.0814  0.5468  0.3188
  698SOL    HW1 2093   2.862   0.354   2.650 -0.0223  3.9725 -0.0570
  698SOL    HW2 2094   2.920   0.351   2.815 -2.3514 -3.8643 -0.3844
  699SOL     OW 2095   1.543   0.083   2.947  0.8744 -0.0480 -0.1441
  699SOL    HW1 2096   1.513  -0.008   2.903  0.5264 -0.1877  2.9406
  699SOL    HW2 2097   1.621   0.120   2.890  0.3421  0.7416  2.8794
  700SOL     OW 2098   0.980   2.346   1.315  0.5077  0.4110 -0.0946
  700SOL    HW1 2099   1.073   2.302   1.290  0.3357 -0.1240  0.8880
  700SOL    HW2 2100   0.905   2.316   1.251  1.9143 -1.0367  4.0427
  701SOL     OW 2101   1.897   2.810   0.025 -0.4286 -0.1491  0.0985
  701SOL    HW1 2102   1.897   2.736   0.100  1.8198 -1.3624 -2.7550
  701SOL    HW2 2103   1.922   2.903   0.066  0.9884  1.2315  1.0942
  702SOL     OW 2104   2.106   1.345   1.928  0.1790  0.3014  0.3114
  702SOL    HW1 2105   2.160   1.251   1.918 -0.1366 -2.1839 -1.8837
  702SOL    HW2 2106   2.096   1.397   1.842  0.5401  0.5031  0.8555
  703SOL     OW 2107   1.924   0.820   1.408  0.2868  0.1923 -0.1834
  703SOL    HW1 2108   1.921   0.736   1.470  0.2497  0.8653 -0.3867
  703SOL    HW2 2109   1.992   0.892   1.444  2.0073  1.9869  2.4567
  704SOL     OW 2110   0.310   2.048   1.664  0.3931 -0.9920  0.4933
  704SOL    HW1 2111   0.337   1.981   1.740  1.4391  0.0926 -0.0086
  704SOL    HW2 2112   0.357   2.140   1.664 -0.7733  3.2343 -0.2977
  705SOL     OW 2113   2.545   1.396   0.911  0.6001  0.1207 -0.2683
  705SOL    HW1 2114   2.454   1.405   0.854 -0.2440  0.3172 -1.4286
  705SOL    HW2 2115   2.550   1.306   0.963 -2.7123  2.4644  1.0091
  706SOL     OW 2116   0.640   1.771   1.846  0.3049  0.0514  0.4200
  706SOL    HW1 2117   0.651   1.678   1.894  0.3633 -3.3276  1.6136
  706SOL    HW2 2118   0.712   1.835   1.889  1.3885 -2.2394  0.9296
  707SOL     OW 2119   2.269   1.128   1.842 -0.0576  0.8221 -0.2943
  707SOL    HW1 2120   2.361   1.150   1.886 -1.3900 -2.6626 -2.2901
  707SOL    HW2 2121   2.255   1.026   1.823  0.2070 -1.5358 -0.4796
  708SOL     OW 2122   3.049   0.460   3.048  0.1048  0.0141 -1.1110
  708SOL    HW1 2123   3.064   0.512   2.959 -1.0915  0.6624  1.4935
  708SOL    HW2 2124   3.034   0.362   3.021  0.7427 -0.0252 -0.6074
  709SOL     OW 2125   1.820   1.812   0.286  0.3886 -0.1273  0.5812
  709SOL    HW1 2126   1.816   1.914   0.311 -0.7462 -1.2148  1.6739
  709SOL    HW2 2127   1.831   1.792   0.184  1.3158 -0.2804 -2.8319
  710SOL     OW 2128   1.693   1.567   2.432  0.1646  0.1392  0.1440
  710SOL    HW1 2129   1.772   1.547   2.358 -0.7618 -3.4249  0.0907
  710SOL    HW2 2130   1.722   1.540   2.532  1.5605  1.7463  1.1108
  711SOL     OW 2131   2.640   2.907   0.960  0.0072  0.4093 -0.0094
  711SOL    HW1 2132   2.566   2.949   0.899 -0.0333 -2.9375 -2.0228
  711SOL    HW2 2133   2.735   2.912   0.914  1.5473 -1.3515 -3.7552
  712SOL     OW 2134   1.495   2.321   1.776  0.0116  0.1640 -0.5957
  712SOL    HW1 2135   1.568   2.251   1.788  0.7868  0.8882 -0.2768
  712SOL    HW2 2136   1.410   2.287   1.726 -0.2240  1.4491 -0.7605
  713SOL     OW 2137   2.788   1.494   2.481  0.1817 -0.5008 -0.5318
  713SOL    HW1 2138   2.803   1.392   2.465  1.5672  1.3029 -2.1686
  713SOL    HW2 2139   2.696   1.513   2.519  2.5837  0.8335  2.1833
  714SOL     OW 2140   2.642   0.474   2.410 -0.9817  0.1735  0.3185
  714SOL    HW1 2141   2.584   0.414   2.473 -1.2739  2.5164  0.5807
  714SOL    HW2 2142   2.625   0.461   2.307  0.5791  1.0538  1.4176
  715SOL     OW 2143   1.565   2.078   1.122  0.3043  0.1171 -0.0137
  715SOL    HW1 2144   1.489   2.144   1.088  0.5807 -0.8731 -0.7052
  715SOL    HW2 2145   1.593   2.088   1.228 -1.8811  0.8626  0.6308
  716SOL     OW 2146   1.210   0.229   1.524 -0.1476 -0.2667 -0.2726
  716SOL    HW1 2147   1.121   0.230   1.472  0.7393  1.4078  1.3152
  716SOL    HW2 2148   1.283   0.292   1.483 -0.0911  2.3881  2.1378
  717SOL     OW 2149   1.081   0.589   1.619 -0.1285 -0.6855  0.4471
  717SOL    HW1 2150   1.182   0.579   1.630  0.0842 -1.3839 -1.6109
  717SOL    HW2 2151   1.063   0.572   1.519 -0.7297  0.3302  0.2220
  718SOL     OW 2152   0.708   0.991   1.012 -0.4323  0.4634 -0.1638
  718SOL    HW1 2153   0.646   0.994   0.930 -0.3627  1.5905 -0.4513
  718SOL    HW2 2154   0.750   1.085   1.017 -2.2956 -0.0910  0.4179
  719SOL     OW 2155   0.774   1.833   2.269  0.8005  0.0383  0.1353
  719SOL    HW1 2156   0.821   1.894   2.339 -1.0631  2.4087  0.1587
  719SOL    HW2 2157   0.672   1.853   2.276 -3.4562  0.6245 -0.8843
  720SOL     OW 2158   2.205   1.110   0.261 -0.0916 -0.0525  0.4125
  720SOL    HW1 2159   2.295   1.070   0.235  1.2524 -0.2335  0.7007
  720SOL    HW2 2160   2.166   1.066   0.347  0.3464 -0.9272  1.4346
  721SOL     OW 2161   2.326   0.010   2.068  0.2802 -0.0626 -0.3726
  721SOL    HW1 2162   2.353   0.089   2.009 -0.6922  0.7412  1.3889
  721SOL    HW2 2163   2.237   0.026   2.123  2.0927  0.6964  4.1199
  722SOL     OW 2164   2.387   1.625   0.593  0.0007 -0.0277  0.3143
  722SOL    HW1 2165   2.368   1.570   0.507 -1.5322  0.5470  1.0436
  722SOL    HW2 2166   2.305   1.670   0.637 -0.3069  2.0665  0.0913
  723SOL     OW 2167   2.569   2.773   1.953  0.0884  0.4295  0.3576
  723SOL    HW1 2168   2.628   2.819   2.031  4.0892  2.1462 -1.2434
  723SOL    HW2 2169   2.468   2.786   1.968 -0.4479  1.5862  0.6989
  724SOL     OW 2170   0.503   2.463   2.442 -0.3873 -0.2498  0.1605
  724SOL    HW1 2171   0.416   2.453   2.489  0.1824  0.8815 -2.6858
  724SOL    HW2 2172   0.581   2.479   2.505 -1.8258  0.7704 -1.5839
  725SOL     OW 2173   2.478   2.744   1.509 -0.3985 -0.3521 -0.8695
  725SOL    HW1 2174   2.477   2.745   1.407  1.8566  0.0583 -0.3599
  725SOL    HW2 2175   2.438   2.661   1.561  0.3267 -1.9141 -2.2517
  726SOL     OW 2176   2.362   2.232   0.678  0.4972 -0.0718  0.2864
  726SOL    HW1 2177   2.344   2.333   0.642 -0.9400  1.1479  0.3532
  726SOL    HW2 2178   2.361   2.164   0.603  1.4022 -0.1883 -0.1359
  727SOL     OW 2179   0.239   3.090   0.100  0.2380 -0.3184  0.0700
  727SOL    HW1 2180   0.315   3.022   0.083 -1.5801 -2.6787  0.2430
  727SOL    HW2 2181   0.172   3.089   0.020  2.2911  0.5143 -0.7426
  728SOL     OW 2182   2.830   0.681   1.003 -0.4978  0.3693  0.3032
  728SOL    HW1 2183   2.790   0.651   0.914 -0.4459 -1.0285  2.3956
  728SOL    HW2 2184   2.793   0.615   1.078  2.0363  2.5299 -0.5078
  729SOL     OW 2185   2.894   2.444   0.687  0.1862  0.2210  0.0934
  729SOL    HW1 2186   2.902   2.347   0.654  1.7100 -0.9828 -3.0543
  729SOL    HW2 2187   2.991   2.473   0.709 -0.6080 -0.8417 -0.2153
  730SOL     OW 2188   2.564   0.582   0.798  0.2506 -0.3508 -0.4819
  730SOL    HW1 2189   2.512   0.667   0.760 -1.0776 -1.5041 -1.2720
  730SOL    HW2 2190   2.656   0.562   0.747 -2.2389  0.8215 -0.4734
  731SOL     OW 2191   0.015   2.139   2.434 -0.4485  0.1195  0.4458
  731SOL    HW1 2192   0.071   2.176   2.515 -1.8126 -0.8889  0.1120
  731SOL    HW2 2193   0.024   2.196   2.343 -2.1241 -2.3640  0.6617
  732SOL     OW 2194   1.079   2.877   1.983  0.3556 -0.3481  0.5548
  732SOL    HW1 2195   1.121   2.820   2.064  0.9780 -0.9731 -0.1154
  732SOL    HW2 2196   1.105   2.845   1.890  1.9401 -1.3224  1.7619
  733SOL     OW 2197   0.017   0.727   2.070  0.2876  0.2553 -0.2769
  733SOL    HW1 2198   0.120   0.733   2.064 -2.4636  0.7175 -1.1665
  733SOL    HW2 2199  -0.012   0.626   2.054  2.5079 -2.6400  1.3861
  734SOL     OW 2200   1.434   0.354   2.767 -0.1150 -0.5920 -0.4075
  734SOL    HW1 2201   1.443   0.448   2.813  2.3058  2.1324 -0.1066
  734SOL    HW2 2202   1.336   0.319   2.764  1.3056 -0.5236  0.9327
  735SOL     OW 2203   2.880   2.623   2.255 -0.1555 -0.0483 -0.0616
  735SOL    HW1 2204   2.814   2.627   2.173  0.4682  0.3224 -0.9500
  735SOL    HW2 2205   2.978   2.634   2.232 -1.2075  0.4959  1.9285
  736SOL     OW 2206   0.746   0.448   2.631 -0.1369 -0.3746  0.5858
  736SOL    HW1 2207   0.732   0.542   2.588  2.3868 -4.3504 -0.3521
  736SOL    HW2 2208   0.757   0.371   2.554  1.9092 -1.5795  0.6523
  737SOL     OW 2209   2.652   0.472   2.876  0.6776 -0.0071  0.2121
  737SOL    HW1 2210   2.654   0.428   2.971  2.3749 -0.6833  0.7574
  737SOL    HW2 2211   2.730   0.438   2.822 -0.0211  0.6926 -0.0219
  738SOL     OW 2212   1.590   1.229   2.953  0.3348 -0.1658  0.1324
  738SOL    HW1 2213   1.697   1.227   2.960  0.2331 -0.4141 -0.2243
  738SOL    HW2 2214   1.562   1.161   2.875  1.3619 -0.5158  0.8925
  739SOL     OW 2215   1.745   0.651   0.683  0.6542  0.1041  0.5127
  739SOL    HW1 2216   1.777   0.643   0.782  2.3705 -0.0872  0.9798
  739SOL    HW2 2217   1.782   0.571   0.626  1.8787  1.8975  1.5315
  740SOL     OW 2218   1.950   1.886   2.265 -0.5597  0.5547 -0.7032
  740SOL    HW1 2219   2.005   1.811   2.306  0.6701 -0.3255 -2.3655
  740SOL    HW2 2220   1.871   1.848   2.209  1.6004  0.6701 -1.2038
  741SOL     OW 2221   2.503   0.044   2.607 -0.6095 -0.0218  0.4013
  741SOL    HW1 2222   2.608   0.030   2.614  0.9176 -1.5566 -0.4804
  741SOL    HW2 2223   2.466   0.030   2.510  0.5702  0.1777  1.2305
  742SOL     OW 2224   2.253   1.370   0.145  0.1111 -0.1717 -0.2403
  742SOL    HW1 2225   2.158   1.409   0.156  0.3435 -2.3443 -1.1044
  742SOL    HW2 2226   2.286   1.307   0.224 -1.2895  0.6778 -0.6545
  743SOL     OW 2227   1.791   0.598   2.574 -0.6862 -0.6911  0.0151
  743SOL    HW1 2228   1.751   0.534   2.500  0.4958 -0.0009  0.0734
  743SOL    HW2 2229   1.730   0.678   2.597  0.9381  1.3790  0.5611
  744SOL     OW 2230   2.676   2.121   0.063 -0.6791  0.1235 -0.2488
  744SOL    HW1 2231   2.578   2.157   0.078 -2.0505  0.9270  0.2209
  744SOL    HW2 2232   2.686   2.015   0.045 -0.8835 -4.0330 -0.1912
  745SOL     OW 2233   2.139   2.676   2.228 -0.1097 -0.3007  0.1039
  745SOL    HW1 2234   2.042   2.674   2.190 -2.1626  0.7941  1.4413
  745SOL    HW2 2235   2.145   2.752   2.295  0.5758  2.2840 -1.6046
  746SOL     OW 2236   3.094   2.563   1.818 -0.4218 -0.4007  0.0102
  746SOL    HW1 2237   3.194   2.591   1.816 -0.3783  0.7520  0.0128
  746SOL    HW2 2238   3.039   2.635   1.868 -0.3123  1.0414  2.2011
  747SOL     OW 2239   0.009   1.771   1.632 -0.2989  0.1283  0.4001
  747SOL    HW1 2240  -0.039   1.677   1.620  0.0844  0.9972 -1.0057
  747SOL    HW2 2241   0.070   1.792   1.552  1.9368  0.3160  1.9236
  748SOL     OW 2242   1.817   2.754   2.874 -0.4303 -0.4195  0.8485
  748SOL    HW1 2243   1.846   2.789   2.969  2.7407 -1.7738  0.6479
  748SOL    HW2 2244   1.716   2.737   2.855  0.4519 -1.1222  1.9381
  749SOL     OW 2245   1.329   3.089   0.865 -0.2050  0.3840 -0.0290
  749SOL    HW1 2246   1.262   3.015   0.893 -2.0355 -0.8418 -0.8337
  749SOL    HW2 2247   1.326   3.119   0.766  1.3638  2.1989 -2.9650
  750SOL     OW 2248   2.307   0.229   1.884  0.1818  1.0820  0.0187
  750SOL    HW1 2249   2.290   0.288   1.796 -0.2968 -0.7603 -3.5859
  750SOL    HW2 2250   2.296   0.286   1.970 -4.1693 -0.8946 -1.6168
  751SOL     OW 2251   0.844   2.209   2.785 -0.5572 -0.1162  0.6838
  751SOL    HW1 2252   0.877   2.191   2.885  0.4060  1.4705  2.3013
  751SOL    HW2 2253   0.782   2.135   2.750 -0.4589 -0.2023  3.1140
  752SOL     OW 2254   1.234   0.870   1.526 -0.4542  0.2674 -0.0154
  752SOL    HW1 2255   1.314   0.927   1.488 -2.2286  1.2228  1.7815
  752SOL    HW2 2256   1.257   0.773   1.551 -1.3082  0.5387 -0.5871
  753SOL     OW 2257   0.939   2.598   1.704 -0.5961 -0.4181  0.3572
  753SOL    HW1 2258   1.023   2.656   1.675  3.2013  0.5418  0.9900
  753SOL    HW2 2259   0.851   2.657   1.694  1.6256  1.3928 -0.2259
  754SOL     OW 2260   1.219   1.313   3.029 -0.1821 -0.9667  0.0982
  754SOL    HW1 2261   1.241   1.226   2.980 -3.4164  2.2340 -0.6011
  754SOL    HW2 2262   1.225   1.398   2.968 -0.4990 -1.3913 -1.9309
  755SOL     OW 2263   1.922   0.455   2.224  0.2229  0.0967 -0.0568
  755SOL    HW1 2264   2.001   0.423   2.286  1.3622 -1.3923  0.0836
  755SOL    HW2 2265   1.827   0.471   2.272  0.7527 -0.3297 -0.3011
  756SOL     OW 2266   2.610   0.979   2.968  0.0987  0.3960  0.2010
  756SOL    HW1 2267   2.712   0.963   2.966 -4.7471  1.1499 -3.0158
  756SOL    HW2 2268   2.561   0.899   3.010 -0.3935 -1.2755 -1.1687
  757SOL     OW 2269   0.028   0.449   1.789  0.8360  0.3948  0.0504
  757SOL    HW1 2270  -0.001   0.549   1.773 -0.0714 -0.6743 -2.6376
  757SOL    HW2 2271   0.090   0.413   1.716  0.4210  0.0767 -0.9207
  758SOL     OW 2272   2.383   0.028   1.468  0.0276 -0.5869  0.4890
  758SOL    HW1 2273   2.341  -0.055   1.515  0.0374 -1.9277  0.0951
  758SOL    HW2 2274   2.373   0.020   1.361 -0.5015 -4.1330 -2.2572
  759SOL     OW 2275   1.674   0.021   0.072 -0.0228 -0.3747 -0.4244
  759SOL    HW1 2276   1.624   0.082   0.010  0.8953  1.1819  2.4651
  759SOL    HW2 2277   1.774   0.003   0.047 -2.1525 -0.3018  0.3275
  760SOL     OW 2278   2.721   2.042   2.775  0.5028  0.1878 -0.5336
  760SOL    HW1 2279   2.770   1.955   2.746 -1.1540 -1.1275 -3.2164
  760SOL    HW2 2280   2.746   2.074   2.870 -4.2044 -0.8087 -0.2190
  761SOL     OW 2281   1.957   1.689   1.622  0.5867 -0.9470 -0.0714
  761SOL    HW1 2282   2.008   1.602   1.632 -2.1484 -0.2912 -0.0466
  761SOL    HW2 2283   1.866   1.679   1.571  1.1070  0.4981  1.0901
  762SOL     OW 2284   0.502   2.422   0.981 -0.0026  0.0078 -0.6289
  762SOL    HW1 2285   0.563   2.437   0.899  1.0613 -2.9682 -2.3794
  762SOL    HW2 2286   0.536   2.460   1.066 -1.5380 -2.0843 -0.1821
  763SOL     OW 2287   2.117   1.522   2.986  0.0624  0.2199 -0.2645
  763SOL    HW1 2288   2.211   1.478   3.006  0.9088 -1.6720  2.2089
  763SOL    HW2 2289   2.031   1.472   3.025 -1.1721  0.5031  0.5052
  764SOL     OW 2290   0.694   0.556   0.896  0.2300 -0.3586  0.0093
  764SOL    HW1 2291   0.674   0.476   0.831 -0.5931 -2.0886  1.0580
  764SOL    HW2 2292   0.796   0.565   0.909  1.4078  0.8474  1.5606
  765SOL     OW 2293   0.654   0.244   0.813 -0.8538  0.2310 -0.2568
  765SOL    HW1 2294   0.738   0.246   0.750  1.3016  0.4551  0.4428
  765SOL    HW2 2295   0.674   0.279   0.906  0.5691  1.3257  0.8158
  766SOL     OW 2296   2.962   2.104   0.010 -0.3968 -0.0369  0.2983
  766SOL    HW1 2297   2.860   2.115   0.003  0.7499 -0.1546  0.1064
  766SOL    HW2 2298   3.016   2.182  -0.029  1.4333  1.8272  1.2083
  767SOL     OW 2299   2.880   1.554   0.534  0.2821 -0.4525 -0.5310
  767SOL    HW1 2300   2.779   1.531   0.560 -3.1176  1.9518 -2.2653
  767SOL    HW2 2301   2.931   1.595   0.613 -1.7125 -1.4060 -1.0822
  768SOL     OW 2302   1.088   0.237   0.323  0.5936  0.0058 -0.1955
  768SOL    HW1 2303   1.017   0.178   0.365  2.2509  1.2657 -0.7416
  768SOL    HW2 2304   1.178   0.186   0.297 -0.1354  1.1819 -2.3214
  769SOL     OW 2305   1.170   1.834   2.229  0.1972 -0.3056  0.4510
  769SOL    HW1 2306   1.092   1.872   2.284  1.8794  2.0700 -2.1410
  769SOL    HW2 2307   1.167   1.736   2.227  2.4896 -0.9537 -1.5449
  770SOL     OW 2308   0.150   1.264   2.359  0.5840 -0.6105  0.8778
  770SOL    HW1 2309   0.142   1.302   2.458  2.4986  4.1475 -0.0758
  770SOL    HW2 2310   0.056   1.237   2.319  2.8646 -0.1180  1.0885
  771SOL     OW 2311   2.959   2.809   1.881  0.2912 -0.2543  0.0268
  771SOL    HW1 2312   2.962   2.842   1.785 -0.2602 -1.8355  0.8491
  771SOL    HW2 2313   2.933   2.893   1.945 -3.1817  3.0887  0.5188
  772SOL     OW 2314   2.155   0.112   2.955 -0.8035 -0.3983 -0.3266
  772SOL    HW1 2315   2.233   0.080   2.902 -0.4615  1.9831  2.7540
  772SOL    HW2 2316   2.168   0.207   2.999  2.8359 -0.4897  1.8518
  773SOL     OW 2317   0.701   2.064   2.486 -0.2550  0.0984 -0.4358
  773SOL    HW1 2318   0.666   2.124   2.407 -0.4751  2.2514 -0.2100
  773SOL    HW2 2319   0.641   2.075   2.570  1.1715 -1.9521 -0.4306
  774SOL     OW 2320   2.041   0.031   2.651 -0.3966 -0.2749 -0.2733
  774SOL    HW1 2321   2.043   0.117   2.706  0.7445 -3.1826 -0.7075
  774SOL    HW2 2322   2.088  -0.044   2.710  2.1610  0.3700  0.1345
  775SOL     OW 2323   2.534   2.844   2.441 -0.3582 -0.5593 -0.4039
  775SOL    HW1 2324   2.485   2.930   2.407 -1.4627  1.3258 -1.0536
  775SOL    HW2 2325   2.619   2.868   2.499 -0.9504  2.1218 -0.1437
  776SOL     OW 2326   0.011   1.281   0.252 -0.3955  0.6555  0.0269
  776SOL    HW1 2327  -0.018   1.264   0.152 -0.0348  0.2070 -1.0164
  776SOL    HW2 2328  -0.061   1.270   0.326  0.7190  0.0921 -3.9154
  777SOL     OW 2329   0.223   2.716   0.487 -0.2441 -0.3907 -0.2259
  777SOL    HW1 2330   0.126   2.681   0.516 -1.7986  0.2405  0.0331
  777SOL    HW2 2331   0.238   2.817   0.502  1.5849 -0.0257 -0.1880
  778SOL     OW 2332   1.338   1.975   0.185  0.1294 -0.6794 -0.1756
  778SOL    HW1 2333   1.271   2.000   0.259 -0.2076 -1.5016  0.0100
  778SOL    HW2 2334   1.352   2.055   0.120 -1.2524  0.8643 -0.2502
  779SOL     OW 2335   0.183   0.773   0.516  0.2212 -0.1158  0.2163
  779SOL    HW1 2336   0.135   0.680   0.506 -1.3269  0.4656  1.0897
  779SOL    HW2 2337   0.136   0.835   0.582  2.6078 -0.7961 -1.7543
  780SOL     OW 2338   0.009   0.282   2.335 -0.8217  0.5421  0.4428
  780SOL    HW1 2339  -0.025   0.378   2.346  1.5500 -0.6440  0.3655
  780SOL    HW2 2340   0.109   0.280   2.308 -1.0250  2.0274  0.9466
  781SOL     OW 2341   0.595   1.742   1.557 -0.3705  0.1437 -0.1126
  781SOL    HW1 2342   0.632   1.772   1.653 -2.6724 -1.0053  1.5491
  781SOL    HW2 2343   0.531   1.662   1.566  3.5612  0.5344  0.7197
  782SOL     OW 2344   2.590   0.150   0.929  0.1445  0.0004  0.3510
  782SOL    HW1 2345   2.520   0.173   0.855  1.1634  1.0111 -1.9569
  782SOL    HW2 2346   2.557   0.172   1.027  0.1407 -2.2741  1.0129
  783SOL     OW 2347   2.828   0.658   2.504  0.5049  0.3381  0.2070
  783SOL    HW1 2348   2.843   0.681   2.603 -1.1900  0.6427 -2.1607
  783SOL    HW2 2349   2.737   0.613   2.482  3.1437  0.9399  1.9848
  784SOL     OW 2350   1.317   2.214   0.048 -0.4947  0.0182  0.0758
  784SOL    HW1 2351   1.415   2.250   0.078  1.0446  1.4180 -1.0427
  784SOL    HW2 2352   1.298   2.226  -0.052  1.3820 -2.1760 -1.2545
  785SOL     OW 2353   2.192   0.353   3.082  0.1974  0.0695  0.1690
  785SOL    HW1 2354   2.105   0.330   3.126  1.9270 -1.2760  0.5552
  785SOL    HW2 2355   2.195   0.455   3.071  0.2422 -1.4821  0.5469
  786SOL     OW 2356   2.036   2.146   2.222 -0.5972 -0.0315  0.5683
  786SOL    HW1 2357   2.005   2.047   2.239  3.4610  1.3094  1.3378
  786SOL    HW2 2358   2.140   2.156   2.234 -0.4076 -1.7482 -2.1733
  787SOL     OW 2359   1.400   0.592   0.855 -0.1351  0.5958 -0.5101
  787SOL    HW1 2360   1.319   0.659   0.857 -2.5944 -0.8385  0.0505
  787SOL    HW2 2361   1.443   0.589   0.763  0.7346  0.4784 -0.3789
  788SOL     OW 2362   1.224   0.388   3.024  0.4759 -0.1541  0.1938
  788SOL    HW1 2363   1.135   0.410   2.970 -1.3287  2.0338 -0.5239
  788SOL    HW2 2364   1.303   0.443   2.982 -1.8291 -1.1813  0.2851
  789SOL     OW 2365   2.591   0.109   1.814  0.6909 -0.1428  0.4046
  789SOL    HW1 2366   2.497   0.134   1.831  0.2284 -0.5539 -0.1284
  789SOL    HW2 2367   2.606   0.010   1.792 -0.2231  2.5506  2.8325
  790SOL     OW 2368   2.584   2.655   0.859  0.3530 -0.0237  0.4339
  790SOL    HW1 2369   2.649   2.675   0.785 -0.6224 -0.1386  4.1837
  790SOL    HW2 2370   2.614   2.697   0.949 -2.3005  0.3266 -3.4153
  791SOL     OW 2371   1.973   1.256   0.224 -0.0982  0.0565  0.1766
  791SOL    HW1 2372   1.902   1.188   0.256 -0.5479  3.9611  0.6063
  791SOL    HW2 2373   2.076   1.232   0.244  0.6305  0.2476 -0.3375
  792SOL     OW 2374   0.417   1.980   2.169  0.1888 -0.1416  0.1221
  792SOL    HW1 2375   0.469   2.059   2.208 -1.0047 -0.1498  2.6787
  792SOL    HW2 2376   0.349   1.944   2.238 -1.7296 -0.6990 -0.9251
  793SOL     OW 2377   2.123   1.554   2.124  0.2282 -0.2720  0.4244
  793SOL    HW1 2378   2.182   1.624   2.093 -0.3096  0.9516 -0.5288
  793SOL    HW2 2379   2.138   1.463   2.079 -0.9623  0.3257 -0.5791
  794SOL     OW 2380   0.423   1.382   2.465 -0.2457  0.2312 -0.5369
  794SOL    HW1 2381   0.429   1.330   2.380 -1.6721  0.7966 -0.0036
  794SOL    HW2 2382   0.391   1.477   2.451 -0.6239 -2.1226  0.6403
  795SOL     OW 2383   2.516   2.323   1.802  0.4731 -0.2666 -0.0096
  795SOL    HW1 2384   2.575   2.296   1.885  0.4270  0.5703 -0.1643
  795SOL    HW2 2385   2.425   2.268   1.793 -2.5785 -1.3883  0.2240
  796SOL     OW 2386   3.078   1.047   2.703 -0.1286  0.0827  0.2699
  796SOL    HW1 2387   2.980   1.068   2.717 -0.0446  1.9430 -1.5135
  796SOL    HW2 2388   3.139   1.056   2.786  5.1752 -1.2767 -4.0747
  797SOL     OW 2389   0.768   0.662   1.332 -0.1808 -0.5745  0.0294
  797SOL    HW1 2390   0.845   0.724   1.367  0.0916  0.5956 -0.3628
  797SOL    HW2 2391   0.701   0.715   1.270  1.2201  2.2355  2.9484
  798SOL     OW 2392   1.236   0.448   1.029 -0.8111  0.2207 -0.4616
  798SOL    HW1 2393   1.276   0.443   1.120 -1.3208  1.1874  0.1672
  798SOL    HW2 2394   1.296   0.503   0.962 -0.6986 -0.4129 -4.2592
  799SOL     OW 2395   1.854   2.753   1.024 -1.1207  0.2330  0.1202
  799SOL    HW1 2396   1.835   2.663   1.078  0.9311 -4.8131 -0.3013
  799SOL    HW2 2397   1.880   2.724   0.923  1.6921  0.7384 -0.9355
  800SOL     OW 2398   2.981   0.809   1.862 -0.1281  0.1800 -0.7488
  800SOL    HW1 2399   2.948   0.898   1.903 -0.0423  0.0546  0.6223
  800SOL    HW2 2400   3.016   0.744   1.935  0.8690 -0.0691  0.9255
  801SOL     OW 2401   1.968   2.134   0.111 -0.5962  0.5107  1.0396
  801SOL    HW1 2402   1.881   2.092   0.081  0.9932  1.0264  0.8097
  801SOL    HW2 2403   2.048   2.075   0.078 -0.4937 -1.1037  2.2671
  802SOL     OW 2404   0.698   0.712   2.541  0.5660  0.2190  0.2169
  802SOL    HW1 2405   0.727   0.703   2.442 -0.6289  0.9162 -1.1488
  802SOL    HW2 2406   0.610   0.662   2.554  0.6332 -0.0908  0.4082
  803SOL     OW 2407   0.931   0.066   0.852 -0.2796 -0.5469 -0.2327
  803SOL    HW1 2408   1.029   0.098   0.882  1.3935  0.2239  1.2869
  803SOL    HW2 2409   0.895   0.107   0.763 -0.3545 -1.5496 -1.0272
  804SOL     OW 2410   0.270   0.008   2.168 -0.1266  0.3566  0.1710
  804SOL    HW1 2411   0.254   0.109   2.182 -2.3096  0.4973 -0.4854
  804SOL    HW2 2412   0.212  -0.031   2.092 -0.8481  2.0911 -0.2763
  805SOL     OW 2413   2.349   0.391   0.319 -0.1090 -0.0614  0.5080
  805SOL    HW1 2414   2.417   0.424   0.387  2.2123 -0.0569 -0.0885
  805SOL    HW2 2415   2.390   0.318   0.254  1.3709 -1.0982 -0.9895
  806SOL     OW 2416   0.627   2.485   1.835  0.2257  0.0919  0.1269
  806SOL    HW1 2417   0.591   2.582   1.848 -3.2766 -0.3255 -1.4987
  806SOL    HW2 2418   0.690   2.481   1.756  0.7286  2.2479  1.0259
  807SOL     OW 2419   2.515   0.936   0.436  0.5792  0.2086  0.2523
  807SOL    HW1 2420   2.602   0.889   0.469  0.8980  1.1232 -1.6166
  807SOL    HW2 2421   2.525   0.951   0.331  3.3485 -0.1015 -3.9788
  808SOL     OW 2422   0.593   2.015   2.883 -0.3413  0.2429  0.4629
  808SOL    HW1 2423   0.587   2.058   2.976  1.1642  0.9531  0.7018
  808SOL    HW2 2424   0.655   1.931   2.878  0.5870 -0.2066 -3.6804
  809SOL     OW 2425   2.541   2.001   1.876  0.0229  0.1715 -0.3318
  809SOL    HW1 2426   2.645   2.034   1.868  0.9707  1.4179  0.5010
  809SOL    HW2 2427   2.487   2.042   1.796 -1.0100  0.1788 -3.1124
  810SOL     OW 2428   2.137   1.090   0.527  0.2808 -0.3140 -0.2818
  810SOL    HW1 2429   2.135   1.037   0.616 -0.7034 -1.7901  1.8690
  810SOL    HW2 2430   2.131   1.195   0.550 -0.9487  0.9656 -0.1166
  811SOL     OW 2431   1.331   2.558   1.199 -0.6555 -0.5752 -0.2936
  811SOL    HW1 2432   1.317   2.453   1.209 -1.4190 -1.7353 -1.3613
  811SOL    HW2 2433   1.295   2.617   1.279  0.0372  1.7684 -1.0042
  812SOL     OW 2434   1.376   0.771   1.924 -0.0290  0.2456 -0.1613
  812SOL    HW1 2435   1.293   0.768   1.856 -3.6001 -2.2301  0.6358
  812SOL    HW2 2436   1.419   0.866   1.922  1.2847 -1.0705 -0.6653
  813SOL     OW 2437   1.588   2.049   2.417 -0.2633 -0.0890 -0.1983
  813SOL    HW1 2438   1.660   1.973   2.428  0.3686 -0.4922  0.7439
  813SOL    HW2 2439   1.540   2.040   2.327  0.8555  0.1757  0.6450
  814SOL     OW 2440   2.956   1.681   2.897  0.1507  1.4082 -0.0061
  814SOL    HW1 2441   3.038   1.643   2.946  1.7201  1.3878  0.2486
  814SOL    HW2 2442   2.977   1.774   2.863  0.8593 -1.5159 -2.5211
  815SOL     OW 2443   2.182   2.901   2.755 -0.1425  0.0554  0.3397
  815SOL    HW1 2444   2.144   2.821   2.805  0.9519 -0.7167  0.5664
  815SOL    HW2 2445   2.273   2.929   2.796 -0.3350  1.7490  2.2636
  816SOL     OW 2446   1.549   0.370   1.662 -0.3317  0.1540 -0.6952
  816SOL    HW1 2447   1.616   0.311   1.720  0.3232  0.9219  1.2040
  816SOL    HW2 2448   1.466   0.395   1.719 -2.0320 -0.3121  0.3336
  817SOL     OW 2449   0.409   1.174   2.653  0.2025 -0.1676 -0.1417
  817SOL    HW1 2450   0.318   1.171   2.702  2.4132  0.4176  0.9392
  817SOL    HW2 2451   0.424   1.247   2.581  0.1045 -0.2822  2.4861
  818SOL     OW 2452   1.970   0.818   0.445  0.1175 -0.0686  0.1402
  818SOL    HW1 2453   2.073   0.825   0.455  0.8087 -0.8114 -1.7105
  818SOL    HW2 2454   1.919   0.835   0.536 -0.7091  1.0345  1.1601
  819SOL     OW 2455   2.736   2.980   3.087  0.4444 -0.7881 -0.2307
  819SOL    HW1 2456   2.736   2.890   3.137  0.6443 -1.4373  2.7985
  819SOL    HW2 2457   2.689   2.978   2.995 -0.0259  0.4902 -1.0985
  820SOL     OW 2458   1.255   1.050   0.523  0.2405  0.3174  0.1258
  820SOL    HW1 2459   1.291   1.138   0.557 -0.0082 -3.3403 -0.3204
  820SOL    HW2 2460   1.217   0.998   0.605  2.2484  1.6452  1.6248
  821SOL     OW 2461   0.046   1.216   0.725  0.1398 -0.8507 -0.0701
  821SOL    HW1 2462  -0.006   1.216   0.821  1.3665 -0.6505  2.5490
  821SOL    HW2 2463   0.120   1.285   0.727 -1.1585  1.1310  1.1934
  822SOL     OW 2464   2.513   1.792   2.446 -0.3207  0.0550 -0.4006
  822SOL    HW1 2465   2.511   1.854   2.531  0.6314  2.5312 -0.6671
  822SOL    HW2 2466   2.439   1.820   2.379 -1.9852 -0.4299 -1.1403
  823SOL     OW 2467   1.992   0.928   1.181  0.2780  0.8056  0.0940
  823SOL    HW1 2468   1.946   0.884   1.262 -0.5060 -0.6241  1.5645
  823SOL    HW2 2469   1.930   0.960   1.102  1.9091 -1.7364 -0.8132
  824SOL     OW 2470   0.224   1.961   2.784  0.2652 -0.8026  0.3006
  824SOL    HW1 2471   0.273   1.918   2.867 -1.0417  0.8760  1.4144
  824SOL    HW2 2472   0.262   1.951   2.686 -2.3564  2.2733  0.3057
  825SOL     OW 2473   1.330   1.083   0.258 -0.1083  0.6102 -0.0691
  825SOL    HW1 2474   1.332   1.185   0.228  1.3070 -0.6850  0.2492
  825SOL    HW2 2475   1.291   1.070   0.351 -1.5725 -1.9799 -1.6123
  826SOL     OW 2476   1.926   0.608   1.574  0.0351 -0.4192  0.5141
  826SOL    HW1 2477   2.017   0.574   1.616  0.8974 -0.3006  0.3889
  826SOL    HW2 2478   1.865   0.523   1.552 -0.4464 -2.3936 -0.5389
  827SOL     OW 2479   0.697   1.174   0.354 -0.1575 -0.8010  0.8545
  827SOL    HW1 2480   0.756   1.102   0.305  0.3223 -0.8959  2.0839
  827SOL    HW2 2481   0.617   1.134   0.408  0.8036 -0.6844 -0.7767
  828SOL     OW 2482   2.669   0.123   1.521 -0.3183  0.0774 -0.0098
  828SOL    HW1 2483   2.568   0.104   1.508  0.8571 -0.1316  0.3931
  828SOL    HW2 2484   2.693   0.159   1.617  0.7313 -0.9815  2.0462
  829SOL     OW 2485   2.959   2.403   2.866 -0.0940 -0.2625  0.3583
  829SOL    HW1 2486   2.869   2.389   2.921  0.7031  0.3182  0.9627
  829SOL    HW2 2487   2.984   2.503   2.850 -1.2049 -0.0558  0.8433
  830SOL     OW 2488   2.891   0.924   3.043  0.3327 -0.1980  0.1209
  830SOL    HW1 2489   2.957   1.001   3.047 -0.9705 -2.5337  2.3409
  830SOL    HW2 2490   2.919   0.847   3.106 -1.8424  0.0104 -0.7363
  831SOL     OW 2491   0.015   0.558   0.404  0.2841  0.2561 -0.2239
  831SOL    HW1 2492   0.006   0.485   0.477  1.5698 -0.2418  0.3903
  831SOL    HW2 2493   0.048   0.521   0.314 -0.4189  3.6504 -1.2679
  832SOL     OW 2494   1.826   0.779   3.082 -0.2337  0.2110  0.1254
  832SOL    HW1 2495   1.753   0.833   3.041 -1.1031 -2.1583 -1.0791
  832SOL    HW2 2496   1.816   0.676   3.064 -2.7270 -2.0471  2.1902
  833SOL     OW 2497   2.406   2.059   0.456 -0.2900  0.5264  0.3657
  833SOL    HW1 2498   2.311   2.026   0.463  0.5892  0.9855  1.7137
  833SOL    HW2 2499   2.481   1.985   0.455 -0.6510  1.7144  1.4112
  834SOL     OW 2500   0.204   0.132   0.563  0.3178 -0.1787  0.1726
  834SOL    HW1 2501   0.219   0.036   0.591  0.9759 -0.2997  1.3345
  834SOL    HW2 2502   0.192   0.140   0.460  0.3536 -1.9190  2.9127
  835SOL     OW 2503   2.479   1.529   1.157 -0.5533 -0.3327 -0.3246
  835SOL    HW1 2504   2.572   1.545   1.210  2.5995  0.2448 -1.1487
  835SOL    HW2 2505   2.503   1.485   1.069  2.0810  1.1271 -2.0237
  836SOL     OW 2506   1.619   0.830   2.594 -0.3900  0.1113 -0.0832
  836SOL    HW1 2507   1.521   0.801   2.614 -1.0589 -0.8106  1.6175
  836SOL    HW2 2508   1.631   0.863   2.497  0.1195 -0.5343 -0.5996
  837SOL     OW 2509   1.688   0.082   0.606  0.7723  0.3805  0.0059
  837SOL    HW1 2510   1.648   0.166   0.652  3.5568  0.8769 -1.4543
  837SOL    HW2 2511   1.649   0.071   0.512 -0.7368 -0.0303 -0.5553
  838SOL     OW 2512   1.253   1.375   2.702  0.5049  0.7223  0.2729
  838SOL    HW1 2513   1.213   1.446   2.768 -2.7406 -0.6530 -0.6149
  838SOL    HW2 2514   1.179   1.335   2.643  2.1314 -3.0070  0.4589
  839SOL     OW 2515   1.574   0.346   0.968 -0.4258 -0.1522  0.1839
  839SOL    HW1 2516   1.612   0.379   1.055 -1.4511  0.5416 -1.5497
  839SOL    HW2 2517   1.572   0.241   0.977  0.4793 -0.3967 -0.0984
  840SOL     OW 2518   2.600   2.940   1.732 -0.4686  0.1358 -0.2647
  840SOL    HW1 2519   2.529   2.915   1.660 -0.3375  3.3912 -3.0732
  840SOL    HW2 2520   2.598   2.869   1.810 -3.5030  0.0849  0.2145
  841SOL     OW 2521   1.538   0.853   2.944 -0.1072  0.1598 -0.4930
  841SOL    HW1 2522   1.533   0.841   3.045  0.4898 -2.4972 -0.5269
  841SOL    HW2 2523   1.525   0.947   2.905 -2.0829 -1.2841  2.2425
  842SOL     OW 2524   0.799   1.560   0.993 -0.1024  0.1134  0.1331
  842SOL    HW1 2525   0.756   1.640   1.039  2.2163 -1.3015 -1.3325
  842SOL    HW2 2526   0.755   1.529   0.901  0.0892  0.4474 -0.3981
  843SOL     OW 2527   0.126   0.104   1.425  0.0625 -0.1040  0.1902
  843SOL    HW1 2528   0.213   0.131   1.479 -0.7171  1.2190  0.2229
  843SOL    HW2 2529   0.129  -0.000   1.399  1.9770 -2.5127 -1.3737
  844SOL     OW 2530   0.776   2.507   0.243  0.0354  0.4644 -0.3729
  844SOL    HW1 2531   0.748   2.532   0.343 -1.5321 -1.0356 -1.3566
  844SOL    HW2 2532   0.696   2.466   0.190  0.3047  1.6220 -0.3983
  845SOL     OW 2533   1.686   2.956   1.315 -0.1092  0.0079 -0.6227
  845SOL    HW1 2534   1.671   3.026   1.388 -1.7863  0.4966 -2.3605
  845SOL    HW2 2535   1.627   2.966   1.229 -1.1006 -0.3932 -0.7079
  846SOL     OW 2536   1.718   2.953   0.905 -0.0586  0.0509  0.1270
  846SOL    HW1 2537   1.756   2.961   0.810  0.2223  0.5404 -0.5530
  846SOL    HW2 2538   1.773   2.887   0.965 -0.2897 -0.6558 -1.6041
  847SOL     OW 2539   2.075   1.616   0.209 -0.6570 -0.0418  0.1217
  847SOL    HW1 2540   2.024   1.599   0.296  1.5138 -1.5876  0.2056
  847SOL    HW2 2541   2.020   1.593   0.121 -1.7922 -0.9138 -2.6785
  848SOL     OW 2542   2.464   0.840   2.657 -0.0597  0.6013 -0.2033
  848SOL    HW1 2543   2.450   0.942   2.674  1.0934  3.5126  0.8436
  848SOL    HW2 2544   2.393   0.794   2.589 -1.5849  0.9655  1.0065
  849SOL     OW 2545   2.418   0.862   2.314 -0.2447  0.8484 -0.3302
  849SOL    HW1 2546   2.446   0.787   2.243  1.2077 -2.4260 -0.5078
  849SOL    HW2 2547   2.355   0.822   2.384 -0.1590  0.8987 -1.3453
  850SOL     OW 2548   1.604   0.151   1.268 -0.0645  0.2654 -0.4792
  850SOL    HW1 2549   1.587   0.109   1.176  0.0990 -0.4830  0.5953
  850SOL    HW2 2550   1.539   0.133   1.347  1.8408  2.9023  2.2523
  851SOL     OW 2551   0.470   1.770   0.686  0.2923  0.2252 -0.0606
  851SOL    HW1 2552   0.466   1.875   0.683 -1.0481  0.3864 -1.2929
  851SOL    HW2 2553   0.569   1.742   0.686 -0.5407  0.4734  1.7013
  852SOL     OW 2554   0.774   2.122   1.676 -0.7951  0.0611  0.9482
  852SOL    HW1 2555   0.788   2.208   1.619  0.5440  0.7263 -3.0597
  852SOL    HW2 2556   0.728   2.146   1.770  0.6437 -0.0498 -0.1244
  853SOL     OW 2557   2.531   1.551   2.580 -0.3545 -0.6166  0.1155
  853SOL    HW1 2558   2.490   1.460   2.551 -3.8221  0.7879 -0.5711
  853SOL    HW2 2559   2.505   1.632   2.513  0.8878  1.7824 -2.2958
  854SOL     OW 2560   2.395   1.396   1.772 -0.6567 -0.2567  0.0507
  854SOL    HW1 2561   2.445   1.365   1.687 -0.1088  0.3017  0.4027
  854SOL    HW2 2562   2.315   1.334   1.789 -2.7531 -0.4713 -2.1944
  855SOL     OW 2563   2.035   2.315   0.961 -0.1508 -0.7517 -0.3191
  855SOL    HW1 2564   2.071   2.395   0.906  1.5667 -0.9087 -1.1217
  855SOL    HW2 2565   2.078   2.306   1.060  3.6301  1.4243  2.3122
  856SOL     OW 2566   1.421   1.353   0.894  0.4387  0.0801 -0.5712
  856SOL    HW1 2567   1.433   1.454   0.894 -0.9841 -4.2830 -0.1723
  856SOL    HW2 2568   1.342   1.331   0.952  0.4938 -1.2785 -1.2821
  857SOL     OW 2569   2.992   2.568   1.065 -0.2619 -0.8619 -0.2998
  857SOL    HW1 2570   2.912   2.509   1.043  0.2439 -0.8638 -0.6202
  857SOL    HW2 2571   3.079   2.509   1.077  2.0044 -2.4786 -0.7600
  858SOL     OW 2572   2.284   2.171   1.750 -0.4609  0.0112  1.0989
  858SOL    HW1 2573   2.192   2.209   1.733  2.3575 -0.9348 -0.3170
  858SOL    HW2 2574   2.332   2.128   1.669 -1.3177  0.9838  0.8420
  859SOL     OW 2575   2.459   0.502   1.028 -0.0153  0.0300  0.0100
  859SOL    HW1 2576   2.502   0.525   0.938  0.1175 -2.0923 -3.2703
  859SOL    HW2 2577   2.477   0.407   1.067 -2.2215  1.3419  1.7767
  860SOL     OW 2578   1.964   2.758   0.466 -0.0735 -0.5362 -0.0123
  860SOL    HW1 2579   1.960   2.702   0.375  2.4485 -1.2620 -3.4563
  860SOL    HW2 2580   2.031   2.833   0.463 -1.2067  0.8768 -1.2371
  861SOL     OW 2581   1.103   2.600   2.770 -0.2113 -0.4199  0.0073
  861SOL    HW1 2582   1.131   2.701   2.775  2.7129  0.8455 -0.0419
  861SOL    HW2 2583   1.148   2.546   2.845 -1.2184 -1.5098  2.9634
  862SOL     OW 2584   2.931   2.547   1.553 -0.0331  0.3503 -0.6426
  862SOL    HW1 2585   2.943   2.581   1.652 -0.5175 -0.1802  1.3927
  862SOL    HW2 2586   2.856   2.607   1.498  1.3492  0.4550 -0.1074
  863SOL     OW 2587   1.890   2.619   0.228  1.1170  0.2782  0.5110
  863SOL    HW1 2588   1.941   2.530   0.230 -2.2506 -3.1931  2.2758
  863SOL    HW2 2589   1.792   2.611   0.270  0.1435  1.0801  2.5674
  864SOL     OW 2590   1.857   1.193   2.951 -0.1117  0.0535  0.1330
  864SOL    HW1 2591   1.888   1.180   2.853 -2.6246 -1.4687  1.2538
  864SOL    HW2 2592   1.933   1.169   3.013  0.3674  0.8739  0.1561
  865SOL     OW 2593   2.173   1.764   0.677 -0.8677 -0.7359 -0.0108
  865SOL    HW1 2594   2.200   1.766   0.775 -1.2221  0.1003 -2.9501
  865SOL    HW2 2595   2.076   1.735   0.668  1.5691  0.3055  2.1590
  866SOL     OW 2596   2.930   2.870   1.020 -0.5477 -0.3198 -0.1728
  866SOL    HW1 2597   2.991   2.925   0.952 -1.4755 -0.1229  1.5467
  866SOL    HW2 2598   2.966   2.778   1.037  0.0630  0.5676  0.9540
  867SOL     OW 2599   0.417   1.332   0.873  0.0103 -0.0278  0.1915
  867SOL    HW1 2600   0.443   1.246   0.816 -1.3277 -0.3006 -0.2855
  867SOL    HW2 2601   0.331   1.375   0.841  0.8815 -1.0898 -0.1974
  868SOL     OW 2602   0.823   1.915   2.009 -0.1120 -0.4262 -0.6049
  868SOL    HW1 2603   0.815   1.884   2.105  0.1797  1.9240 -3.3580
  868SOL    HW2 2604   0.805   2.014   1.996  1.4922  1.2773 -0.6734
  869SOL     OW 2605   2.492   2.004   1.600  0.1368  0.3071  0.7341
  869SOL    HW1 2606   2.584   2.045   1.569  1.1453  0.4285 -1.7210
  869SOL    HW2 2607   2.483   1.908   1.564  0.1269 -0.1619 -0.4868
  870SOL     OW 2608   2.300   2.563   1.233  1.1068 -0.2682 -0.2910
  870SOL    HW1 2609   2.246   2.471   1.219  0.2017  0.3431  1.5164
  870SOL    HW2 2610   2.391   2.544   1.274 -1.9450 -2.2937  3.1782
  871SOL     OW 2611   2.986   2.071   0.571 -0.0408 -0.3653  0.0772
  871SOL    HW1 2612   2.928   2.160   0.560 -2.8498  0.1410 -3.7677
  871SOL    HW2 2613   2.980   2.018   0.485  1.1386  0.6267  0.8545
  872SOL     OW 2614   2.145   0.507   1.704  0.1841  0.1162  0.1820
  872SOL    HW1 2615   2.131   0.497   1.807  0.0416  1.2916 -0.9497
  872SOL    HW2 2616   2.237   0.476   1.673 -1.5774 -0.3327 -0.4298
  873SOL     OW 2617   1.733   2.108   2.957 -0.1845  0.3244 -0.1564
  873SOL    HW1 2618   1.733   2.212   2.964 -1.0068  2.1258 -2.7191
  873SOL    HW2 2619   1.683   2.077   2.870  1.6639 -0.7387 -2.4491
  874SOL     OW 2620   0.677   2.484   0.771  0.3518  0.3176  0.3460
  874SOL    HW1 2621   0.654   2.573   0.828  1.8581  0.1188 -1.6246
  874SOL    HW2 2622   0.772   2.446   0.784 -0.3881 -0.2339  0.9570
  875SOL     OW 2623   2.275   1.554   1.489  0.1362 -0.3590  0.3921
  875SOL    HW1 2624   2.361   1.575   1.535  1.2175 -2.5810  1.5459
  875SOL    HW2 2625   2.259   1.591   1.390 -3.2758  0.9615 -0.6363
  876SOL     OW 2626   0.146   2.208   2.684 -0.2103 -0.2851 -0.2033
  876SOL    HW1 2627   0.163   2.121   2.735 -1.6372 -2.4467 -0.3927
  876SOL    HW2 2628   0.188   2.289   2.736  1.4129 -0.9745 -1.3707
  877SOL     OW 2629   2.780   2.680   0.650  0.2649  0.0960 -0.5434
  877SOL    HW1 2630   2.847   2.757   0.673  4.1402  1.4817 -0.3404
  877SOL    HW2 2631   2.819   2.583   0.656 -0.9811  1.5281  0.0321
  878SOL     OW 2632   2.887   1.447   2.198  0.1284  0.7271 -0.5708
  878SOL    HW1 2633   2.975   1.503   2.191 -1.0290  0.8155 -1.3544
  878SOL    HW2 2634   2.814   1.504   2.247  1.0317 -1.0641 -1.3529
  879SOL     OW 2635   2.384   0.021   1.189 -0.1123 -0.0710  0.1412
  879SOL    HW1 2636   2.445  -0.064   1.192  0.8051  0.3025  0.3476
  879SOL    HW2 2637   2.310   0.006   1.116 -1.0473  1.4498 -0.8937
  880SOL     OW 2638   0.720   0.459   2.171 -0.1563 -0.0395 -1.0049
  880SOL    HW1 2639   0.640   0.410   2.227  0.0131  0.8985  1.9172
  880SOL    HW2 2640   0.757   0.402   2.088 -0.5206 -2.2952 -0.6471
  881SOL     OW 2641   0.914   0.039   0.412  0.2978 -0.1707  0.2412
  881SOL    HW1 2642   0.929  -0.048   0.471 -2.4368  1.9090 -1.8199
  881SOL    HW2 2643   0.870   0.018   0.318 -1.4278 -1.3691 -1.2076
  882SOL     OW 2644   2.730   1.626   1.678  0.0897  0.3470  0.5096
  882SOL    HW1 2645   2.825   1.588   1.652 -0.3629  1.7130  0.0748
  882SOL    HW2 2646   2.738   1.695   1.752  0.5443  1.5575  1.4280
  883SOL     OW 2647   0.976   0.577   0.965  0.1883  0.1277 -0.0184
  883SOL    HW1 2648   0.977   0.669   1.005  0.8483 -2.7663 -1.9968
  883SOL    HW2 2649   1.040   0.508   1.013 -0.5659 -2.8465 -1.5841
  884SOL     OW 2650   1.182   1.892   1.036  0.4959  0.8066 -0.1276
  884SOL    HW1 2651   1.161   1.859   0.941 -0.5522  1.6382 -0.5896
  884SOL    HW2 2652   1.136   1.988   1.059 -2.0713  1.8163 -1.7052
  885SOL     OW 2653   2.272   1.856   2.311 -0.0049  0.0322  0.0866
  885SOL    HW1 2654   2.204   1.795   2.357  0.3929  1.0084 -0.0972
  885SOL    HW2 2655   2.266   1.956   2.345 -2.3090 -3.6127 -1.0820
  886SOL     OW 2656   2.672   0.461   1.792  0.0834 -0.1690  0.2453
  886SOL    HW1 2657   2.737   0.384   1.829  0.4796 -0.6611  0.0934
  886SOL    HW2 2658   2.727   0.537   1.748  1.0365  0.5564  0.1778
  887SOL     OW 2659   0.091   2.064   1.261 -0.0006  0.4349  0.4369
  887SOL    HW1 2660   0.027   1.990   1.223  0.2098 -1.3532  0.1607
  887SOL    HW2 2661   0.142   2.111   1.188 -1.4202 -1.0903  2.1205
  888SOL     OW 2662   0.551   1.288   1.539  0.4018 -0.4153 -0.9673
  888SOL    HW1 2663   0.585   1.305   1.440  1.9318  2.0574  0.8438
  888SOL    HW2 2664   0.512   1.191   1.550 -0.5480 -3.1786 -0.8360
  889SOL     OW 2665   0.853   2.484   2.120  0.0866  0.4334 -0.3272
  889SOL    HW1 2666   0.762   2.464   2.081  0.8194  1.9628 -1.9855
  889SOL    HW2 2667   0.923   2.505   2.048 -3.3410 -0.6981  1.3790
  890SOL     OW 2668   2.371   2.474   0.188  0.2744 -0.0376 -0.0324
  890SOL    HW1 2669   2.387   2.546   0.116  2.7134 -0.0873  1.3776
  890SOL    HW2 2670   2.279   2.482   0.232  0.7843 -1.6073 -2.2698
  891SOL     OW 2671   2.648   1.517   0.629 -0.3038 -0.5469  0.3117
  891SOL    HW1 2672   2.635   1.477   0.725 -2.9026  3.7674 -1.3498
  891SOL    HW2 2673   2.569   1.580   0.607  3.1411  0.4707  0.4114
  892SOL     OW 2674   0.260   0.284   2.236  0.3771  0.3356  0.3026
  892SOL    HW1 2675   0.259   0.306   2.134 -1.4749 -1.3985 -1.3826
  892SOL    HW2 2676   0.347   0.312   2.282 -0.6338 -0.3663 -1.2307
  893SOL     OW 2677   1.685   0.225   2.760 -0.1196  0.3547 -0.0364
  893SOL    HW1 2678   1.767   0.285   2.778 -1.8214  0.5881 -2.9519
  893SOL    HW2 2679   1.598   0.280   2.747  1.3027  0.1803 -0.3878
  894SOL     OW 2680   2.229   2.021   0.047  0.1367 -0.3462 -0.0812
  894SOL    HW1 2681   2.175   1.959  -0.015 -0.4355 -1.8397 -1.4317
  894SOL    HW2 2682   2.260   1.971   0.131  1.6127  2.6610 -2.1715
  895SOL     OW 2683   2.904   1.438   0.844  0.2087  0.6373 -0.4365
  895SOL    HW1 2684   2.956   1.420   0.931  4.7116 -1.6127 -3.3031
  895SOL    HW2 2685   2.955   1.506   0.784 -0.7420 -0.8960  0.0965
  896SOL     OW 2686   1.717   1.775   1.158  0.2126  0.1266 -0.0611
  896SOL    HW1 2687   1.788   1.822   1.096 -2.1457  1.3538 -0.6470
  896SOL    HW2 2688   1.625   1.822   1.146 -2.1158 -1.5123 -0.9635
  897SOL     OW 2689   0.266   0.546   3.063 -0.2295 -0.2741  0.3246
  897SOL    HW1 2690   0.205   0.611   3.005  0.8922  1.1362 -0.8165
  897SOL    HW2 2691   0.359   0.598   3.081  0.7941  0.1518  0.2986
  898SOL     OW 2692   0.572   2.837   1.122 -0.0481  0.0663  0.0027
  898SOL    HW1 2693   0.517   2.916   1.156  1.7373 -0.6179 -0.7479
  898SOL    HW2 2694   0.671   2.837   1.149  0.0178 -0.9852 -1.4561
  899SOL     OW 2695   2.702   0.957   1.245 -0.4703 -0.2477 -0.2493
  899SOL    HW1 2696   2.625   0.945   1.175 -0.2427 -1.1573 -1.2434
  899SOL    HW2 2697   2.783   0.980   1.187 -0.1919 -1.1385  0.1364
  900SOL     OW 2698   1.008   2.536   2.341  0.2895 -0.4988 -0.1715
  900SOL    HW1 2699   0.938   2.522   2.264  0.5162 -1.1123  1.4779
  900SOL    HW2 2700   0.985   2.474   2.428  2.0049 -2.1472  2.9893
  901SOL     OW 2701   1.918   2.443   1.373 -0.3719  0.6113  0.5219
  901SOL    HW1 2702   1.893   2.458   1.268 -1.3619  0.0977  1.2057
  901SOL    HW2 2703   2.015   2.406   1.397 -2.8736 -0.9050  1.0947
  902SOL     OW 2704   2.583   1.626   1.437  0.1828 -0.1232  0.0586
  902SOL    HW1 2705   2.603   1.609   1.536 -0.1409 -2.8915  0.2999
  902SOL    HW2 2706   2.667   1.606   1.374 -1.0442 -1.5748 -2.0213
  903SOL     OW 2707   0.248   2.436   2.026  0.2127 -0.2039 -0.1130
  903SOL    HW1 2708   0.203   2.353   1.988 -1.2767 -1.3513  1.4257
  903SOL    HW2 2709   0.260   2.505   1.947  0.3881 -0.4095  0.6177
  904SOL     OW 2710   1.989   0.777   2.460 -0.0458  0.8975  0.4906
  904SOL    HW1 2711   1.937   0.703   2.515  0.7596 -2.4644  1.0738
  904SOL    HW2 2712   1.950   0.786   2.366 -3.0709  1.0047  2.2859
  905SOL     OW 2713   2.769   0.037   2.591 -0.1114 -0.3001 -0.0364
  905SOL    HW1 2714   2.848  -0.027   2.600 -3.0806 -0.0828  1.0738
  905SOL    HW2 2715   2.790   0.132   2.560 -0.6560 -0.6028  0.2208
  906SOL     OW 2716   0.205   1.793   1.882 -0.1746 -0.3444  0.1910
  906SOL    HW1 2717   0.160   1.781   1.789  0.8097 -0.4277 -0.6953
  906SOL    HW2 2718   0.291   1.855   1.880 -1.5439 -0.0789 -0.3332
  907SOL     OW 2719   0.160   2.507   1.024 -0.3463 -0.1128  0.1107
  907SOL    HW1 2720   0.213   2.597   1.030 -0.0390  0.2223  0.5691
  907SOL    HW2 2721   0.129   2.497   0.926 -1.8798 -1.6866  0.7369
  908SOL     OW 2722   2.691   2.960   0.450 -0.1166 -0.2509 -0.3143
  908SOL    HW1 2723   2.677   3.026   0.372 -1.4255 -2.3702  0.2477
  908SOL    HW2 2724   2.665   2.870   0.413 -0.7700  1.5267  1.2603
  909SOL     OW 2725   0.832   0.912   2.678  0.0583  0.2701  0.1078
  909SOL    HW1 2726   0.757   0.850   2.636  0.8439  0.4084 -1.4793
  909SOL    HW2 2727   0.896   0.947   2.602 -0.0246 -1.0040 -1.1288
  910SOL     OW 2728   1.765   1.802   2.081  0.0943 -0.2577 -0.0784
  910SOL    HW1 2729   1.800   1.820   1.987  0.5989 -2.4039 -0.0849
  910SOL    HW2 2730   1.695   1.872   2.110 -0.0708  0.1473 -2.0738
  911SOL     OW 2731   1.777   3.002   1.621 -0.3170  0.7854  0.4714
  911SOL    HW1 2732   1.829   2.946   1.550 -0.8848 -0.7110  0.5397
  911SOL    HW2 2733   1.740   2.951   1.706 -1.0944 -1.7135  0.3522
  912SOL     OW 2734   2.859   0.950   0.769 -0.2763 -0.0367  0.6600
  912SOL    HW1 2735   2.884   0.932   0.869  0.8269  1.2025 -0.9586
  912SOL    HW2 2736   2.835   1.051   0.747 -0.2072  0.5213 -0.7260
  913SOL     OW 2737   2.535   1.294   1.568 -0.3894  0.1418 -0.5607
  913SOL    HW1 2738   2.552   1.194   1.580 -0.5380 -1.3490  0.1530
  913SOL    HW2 2739   2.581   1.328   1.481  0.5153 -0.4323  2.3334
  914SOL     OW 2740   2.810   0.525   1.222  0.3338  0.2621 -0.1987
  914SOL    HW1 2741   2.752   0.437   1.227  0.2146 -1.2752  3.4299
  914SOL    HW2 2742   2.776   0.607   1.281 -3.0229 -1.3825 -1.5634
  915SOL     OW 2743   1.225   0.797   1.012  0.4666 -0.6622  0.0558
  915SOL    HW1 2744   1.303   0.826   1.073 -0.6321  2.0709 -0.3312
  915SOL    HW2 2745   1.134   0.820   1.054 -1.1196 -0.0025  0.8682
  916SOL     OW 2746   0.558   0.035   0.666 -0.8223 -0.3587 -0.1454
  916SOL    HW1 2747   0.577   0.125   0.718  2.8831  0.0719 -0.7437
  916SOL    HW2 2748   0.534   0.046   0.565  0.6326  3.1096  0.1039
  917SOL     OW 2749   2.789   2.624   1.965 -0.7454 -0.0697 -0.3498
  917SOL    HW1 2750   2.691   2.653   1.958  0.9244 -3.5420  2.7680
  917SOL    HW2 2751   2.853   2.699   1.923 -1.5659  0.2890 -0.7188
  918SOL     OW 2752   0.983   2.186   3.006 -0.0727 -0.5480 -0.7043
  918SOL    HW1 2753   0.913   2.198   3.083 -1.9482 -2.4357  0.0782
  918SOL    HW2 2754   1.043   2.101   3.025 -0.9109 -1.4864  0.3775
  919SOL     OW 2755   0.925   1.582   2.778  0.1031 -0.0112 -0.4940
  919SOL    HW1 2756   0.974   1.634   2.702 -1.0293  0.2986  0.2884
  919SOL    HW2 2757   0.859   1.507   2.741  0.9918  0.1515  0.3563
  920SOL     OW 2758   1.248   2.026   2.490  0.0224  0.3105  0.3690
  920SOL    HW1 2759   1.197   2.059   2.404 -2.8049  2.5265 -1.6507
  920SOL    HW2 2760   1.267   1.923   2.482  0.8707 -1.1294 -1.0379
  921SOL     OW 2761   1.116   0.031   2.567 -0.1438 -0.0872 -0.2213
  921SOL    HW1 2762   1.101   0.055   2.464 -1.9569 -0.8121  0.7220
  921SOL    HW2 2763   1.031   0.023   2.627 -1.6175  0.8623  2.3104
  922SOL     OW 2764   2.178   2.382   2.798  0.6762 -0.3212 -0.4658
  922SOL    HW1 2765   2.182   2.276   2.803 -1.3803 -0.4257  1.5658
  922SOL    HW2 2766   2.120   2.411   2.714  0.4482  0.1760  0.6828
  923SOL     OW 2767   1.225   2.700   0.266  0.2307 -0.7529  0.6807
  923SOL    HW1 2768   1.319   2.728   0.295  1.0948 -0.2196  1.3202
  923SOL    HW2 2769   1.222   2.595   0.246 -1.3725 -0.5906  1.5760
  924SOL     OW 2770   2.924   1.564   0.089 -0.2323  0.2356 -0.0482
  924SOL    HW1 2771   2.840   1.555   0.027  1.1595  0.7223  0.0409
  924SOL    HW2 2772   3.014   1.563   0.031  2.3357 -4.2926  1.2806
  925SOL     OW 2773   0.013   2.885   1.586  0.1530 -0.4430 -0.1213
  925SOL    HW1 2774  -0.070   2.932   1.626  1.1790 -0.0589 -2.1850
  925SOL    HW2 2775   0.038   2.919   1.493  2.6719 -0.2644 -0.5791
  926SOL     OW 2776   1.348   2.888   1.306 -0.0910  0.1002 -0.0383
  926SOL    HW1 2777   1.425   2.889   1.237 -0.2539  0.7661  0.4348
  926SOL    HW2 2778   1.357   2.971   1.372  1.4724  1.8146 -1.8146
  927SOL     OW 2779   0.269   2.605   1.810  0.2700 -0.7915  0.1579
  927SOL    HW1 2780   0.286   2.546   1.723 -2.6423 -2.2081 -0.6809
  927SOL    HW2 2781   0.251   2.704   1.791 -1.1468 -2.7443 -1.0337
  928SOL     OW 2782   1.557   2.025   2.129 -0.5974  0.1706  0.1840
  928SOL    HW1 2783   1.597   2.120   2.108 -0.3088 -2.0753 -0.7646
  928SOL    HW2 2784   1.458   2.014   2.128  2.9678  0.7365 -2.0588
  929SOL     OW 2785   2.422   2.490   2.855  0.2213  0.0877  0.2467
  929SOL    HW1 2786   2.330   2.435   2.842  1.4189  2.9028  3.2064
  929SOL    HW2 2787   2.482   2.483   2.770  1.6873  1.9920 -0.2093
  930SOL     OW 2788   2.182   2.012   1.074  0.1636 -0.1426  0.1110
  930SOL    HW1 2789   2.209   1.979   1.169  0.2260  1.7509 -0.1319
  930SOL    HW2 2790   2.250   2.089   1.056  0.5835 -1.7733 -1.0398
  931SOL     OW 2791   0.546   1.696   2.646 -0.0757  0.1040 -0.4040
  931SOL    HW1 2792   0.604   1.689   2.732  1.7699  0.1238  1.0785
  931SOL    HW2 2793   0.529   1.610   2.589 -2.0389 -1.8154 -0.3828
  932SOL     OW 2794   0.449   0.059   2.901  0.5291  0.2688  0.4190
  932SOL    HW1 2795   0.539   0.100   2.905 -1.1936  0.6029 -1.6126
  932SOL    HW2 2796   0.427  -0.008   2.981 -1.9987  1.1209  0.8681
  933SOL     OW 2797   1.054   0.786   2.983 -0.2694  0.4991  0.0076
  933SOL    HW1 2798   1.117   0.783   3.065 -0.9754  3.3498  0.7854
  933SOL    HW2 2799   1.004   0.877   2.976 -1.9286  0.1206  1.1723
  934SOL     OW 2800   0.889   3.037   2.725  0.4885 -0.1544  0.1438
  934SOL    HW1 2801   0.921   2.970   2.654  1.6466  0.1207  2.0582
  934SOL    HW2 2802   0.877   2.995   2.821 -0.6593 -3.1420 -2.8124
  935SOL     OW 2803   3.078   0.519   0.801  0.1426  0.4512  0.8132
  935SOL    HW1 2804   3.108   0.442   0.741  0.4175 -1.2610  0.4960
  935SOL    HW2 2805   2.980   0.542   0.774  2.2573  0.1611  0.2544
  936SOL     OW 2806   1.102   2.903   0.149  0.1776 -0.1015  0.0636
  936SOL    HW1 2807   1.141   2.939   0.055 -1.1302  0.5013 -2.8901
  936SOL    HW2 2808   1.153   2.823   0.188 -0.5533 -0.7921  0.4614
  937SOL     OW 2809   1.894   2.621   2.102 -0.0387 -0.0239  0.0905
  937SOL    HW1 2810   1.824   2.620   2.172  1.1353  0.8237 -2.8215
  937SOL    HW2 2811   1.871   2.656   2.006  1.0907 -1.8066 -0.0315
  938SOL     OW 2812   2.736   2.126   1.526  0.3951  0.7062 -1.0598
  938SOL    HW1 2813   2.741   2.230   1.541 -0.4261 -0.1312  2.2398
  938SOL    HW2 2814   2.806   2.079   1.589 -3.1345  0.9647 -1.5236
  939SOL     OW 2815   2.806   1.200   2.456 -0.0055 -1.2736 -0.0910
  939SOL    HW1 2816   2.886   1.196   2.387  0.2560  0.2397 -0.9620
  939SOL    HW2 2817   2.836   1.171   2.553 -1.3829 -3.2067  0.9834
  940SOL     OW 2818   1.025   0.435   2.656  0.6604  0.1203 -0.0476
  940SOL    HW1 2819   1.076   0.353   2.701 -0.0126 -1.6405 -0.2134
  940SOL    HW2 2820   0.920   0.433   2.629 -0.2004 -1.3802  0.5018
  941SOL     OW 2821   0.022   2.833   2.222 -0.8761 -0.1422 -0.5164
  941SOL    HW1 2822   0.043   2.731   2.197 -1.6428  0.5950  1.7289
  941SOL    HW2 2823   0.089   2.864   2.304  3.4289 -0.2161  2.2500
  942SOL     OW 2824   0.031   0.085   2.545  0.1634 -0.5987 -0.3879
  942SOL    HW1 2825   0.100   0.112   2.614 -1.1771 -0.8319 -0.4036
  942SOL    HW2 2826   0.001   0.168   2.490 -1.4459 -0.6659  1.5378
  943SOL     OW 2827   2.112   1.676   2.441 -0.0739 -0.4343 -0.0156
  943SOL    HW1 2828   2.107   1.589   2.386 -0.9392 -2.4503  2.9665
  943SOL    HW2 2829   2.100   1.671   2.545  0.3663 -0.7782 -2.2482
  944SOL     OW 2830   2.171   2.334   1.462  0.3113  0.6248 -0.1727
  944SOL    HW1 2831   2.238   2.408   1.492 -0.1526 -0.4439  1.8426
  944SOL    HW2 2832   2.131   2.275   1.539 -1.2634 -1.5760  1.1478
  945SOL     OW 2833   0.633   1.475   0.363  0.1940 -0.2763  0.4431
  945SOL    HW1 2834   0.675   1.519   0.278 -0.1553 -0.0170 -0.8495
  945SOL    HW2 2835   0.663   1.375   0.366  1.0656 -2.4389  1.9528
  946SOL     OW 2836   0.430   0.939   2.534 -0.5268  0.4103  0.0119
  946SOL    HW1 2837   0.361   0.928   2.457  1.6597  2.1057 -0.1174
  946SOL    HW2 2838   0.438   1.028   2.590  1.8747  0.8484  1.8692
  947SOL     OW 2839   1.521   0.570   0.042 -0.6164 -0.2447  0.9447
  947SOL    HW1 2840   1.470   0.587  -0.045 -1.0252  0.0559  0.8278
  947SOL    HW2 2841   1.468   0.614   0.125 -0.5017 -0.9666  1.9963
  948SOL     OW 2842   2.029   3.082   2.206 -0.7943 -0.1683  0.1675
  948SOL    HW1 2843   2.009   3.053   2.109 -2.0010  0.8680  1.5984
  948SOL    HW2 2844   2.004   2.998   2.267 -0.2723 -0.8595 -0.7300
  949SOL     OW 2845   0.676   2.541   0.495 -0.7762 -0.1659 -0.0482
  949SOL    HW1 2846   0.657   2.641   0.472 -1.4146  1.3392  4.2763
  949SOL    HW2 2847   0.694   2.531   0.598  3.1856  0.8011  0.4415
  950SOL     OW 2848   0.274   2.176   3.075  0.3253  0.2951  0.2912
  950SOL    HW1 2849   0.186   2.227   3.094  1.2957 -1.0243  0.2810
  950SOL    HW2 2850   0.272   2.106   2.998 -1.0739 -0.1835  2.1286
  951SOL     OW 2851   1.169   2.867   2.718 -0.0898  0.3055  0.1151
  951SOL    HW1 2852   1.170   2.947   2.656 -0.3175  1.2027 -0.8399
  951SOL    HW2 2853   1.253   2.869   2.776 -1.9805  1.8043 -1.0649
  952SOL     OW 2854   0.082   1.627   0.445 -0.6103 -0.2831  0.1318
  952SOL    HW1 2855   0.146   1.712   0.469  2.2897  1.5506  4.0813
  952SOL    HW2 2856   0.064   1.571   0.530  1.4606 -0.0840 -0.1199
  953SOL     OW 2857   2.539   1.787   0.206  0.6384  0.0667 -0.2892
  953SOL    HW1 2858   2.529   1.681   0.221 -1.3452 -3.5985  2.1517
  953SOL    HW2 2859   2.603   1.812   0.131  1.4044 -0.7378  1.5238
  954SOL     OW 2860   2.185   0.543   0.981 -0.2452  0.3211  0.3931
  954SOL    HW1 2861   2.184   0.542   0.877  0.0744  1.1306 -2.5065
  954SOL    HW2 2862   2.279   0.543   1.020 -0.6334  0.6062 -0.9888
  955SOL     OW 2863   0.220   2.701   1.371 -0.9715  0.5085  0.5708
  955SOL    HW1 2864   0.118   2.683   1.384  0.3053 -0.4521 -2.1053
  955SOL    HW2 2865   0.250   2.678   1.274  0.9200 -0.5537 -0.1175
  956SOL     OW 2866   2.771   2.471   2.453  0.4660  0.2135  0.0864
  956SOL    HW1 2867   2.785   2.386   2.405 -1.9487  1.1509  1.1603
  956SOL    HW2 2868   2.801   2.556   2.395 -2.4336 -1.6377 -0.6919
  957SOL     OW 2869   1.575   2.003   2.733  0.4153  0.4040  0.0051
  957SOL    HW1 2870   1.546   1.901   2.746  0.8058  1.6636 -1.4914
  957SOL    HW2 2871   1.589   2.030   2.631  0.0511  0.4449 -1.8551
  958SOL     OW 2872   2.715   2.330   2.965 -0.5387 -0.0115  0.2649
  958SOL    HW1 2873   2.611   2.345   2.949 -0.4892  0.3243 -0.5719
  958SOL    HW2 2874   2.722   2.283   3.057 -0.1650  0.2121  1.2067
  959SOL     OW 2875   0.262   2.742   0.124  0.1925 -0.0860 -0.2499
  959SOL    HW1 2876   0.163   2.729   0.091  0.3134 -0.5538 -0.4755
  959SOL    HW2 2877   0.301   2.666   0.179  4.4030  2.8744 -1.3126
  960SOL     OW 2878   1.981   0.446   1.950  0.0543 -0.0722  0.2026
  960SOL    HW1 2879   1.930   0.526   1.907 -1.0206  1.3069 -1.5008
  960SOL    HW2 2880   1.969   0.452   2.052 -0.6724  1.3027 -2.5022
  961SOL     OW 2881   2.571   1.843   1.030 -0.0472  0.1981  0.4249
  961SOL    HW1 2882   2.537   1.930   0.985  1.2672  0.7652 -1.4126
  961SOL    HW2 2883   2.564   1.841   1.134  1.2767 -1.0660  1.1981
  962SOL     OW 2884   1.295   0.898   0.049  0.1738  0.0238 -0.0711
  962SOL    HW1 2885   1.283   0.931  -0.052  2.6365 -1.1798 -1.3658
  962SOL    HW2 2886   1.316   0.975   0.118  1.6711  1.9115 -0.8051
  963SOL     OW 2887   2.216   2.556   1.858  0.3826  0.5206  0.0295
  963SOL    HW1 2888   2.217   2.457   1.893  0.5599  0.6112  0.6459
  963SOL    HW2 2889   2.281   2.611   1.911 -1.5979 -2.0589 -1.2819
  964SOL     OW 2890   2.417   0.409   1.691 -0.2856 -0.6063 -0.1076
  964SOL    HW1 2891   2.511   0.398   1.735 -0.9934  0.0574 -0.5701
  964SOL    HW2 2892   2.432   0.397   1.593  2.1518 -0.5747  1.3738
  965SOL     OW 2893   2.603   3.088   0.196  0.2726  0.5219  0.5770
  965SOL    HW1 2894   2.658   3.043   0.121 -1.1556  1.0149  1.6401
  965SOL    HW2 2895   2.497   3.103   0.183 -3.1649  2.3527 -2.0355
  966SOL     OW 2896   2.469   2.481   2.294  0.0456  0.3560 -0.3898
  966SOL    HW1 2897   2.381   2.446   2.339  0.5376  1.0602 -2.7506
  966SOL    HW2 2898   2.460   2.575   2.248  1.6866  2.1695 -0.0490
  967SOL     OW 2899   2.824   2.792   2.478 -0.0106  0.2534  0.4933
  967SOL    HW1 2900   2.849   2.759   2.386 -0.8754  2.4037  1.1705
  967SOL    HW2 2901   2.892   2.857   2.524  0.2732  1.1538 -0.4576
  968SOL     OW 2902   1.919   1.065   2.662  0.3714  0.0152  0.2616
  968SOL    HW1 2903   1.940   1.124   2.584  0.0536  1.3754 -1.8098
  968SOL    HW2 2904   1.860   0.984   2.633 -0.9765 -2.5295 -0.1476
  969SOL     OW 2905   2.742   2.445   1.084  0.2171 -0.2059 -0.0808
  969SOL    HW1 2906   2.684   2.410   1.007  2.5019 -1.4006 -0.2109
  969SOL    HW2 2907   2.825   2.386   1.102 -0.8621 -2.8664  1.6638
  970SOL     OW 2908   1.052   2.126   1.768 -0.1324 -0.3133 -0.3842
  970SOL    HW1 2909   0.951   2.116   1.736 -1.7749 -0.4359  1.4488
  970SOL    HW2 2910   1.061   2.159   1.865  1.8395 -0.4879  0.5410
  971SOL     OW 2911   2.799   2.104   1.882 -0.5745 -0.3523 -0.1016
  971SOL    HW1 2912   2.823   2.192   1.932 -0.8099 -0.0309  1.0906
  971SOL    HW2 2913   2.864   2.072   1.806  1.1410 -1.1205  0.6387
  972SOL     OW 2914   2.047   2.386   0.220  0.0334  0.5389  0.6235
  972SOL    HW1 2915   2.028   2.310   0.150  2.8405  2.0962 -0.3918
  972SOL    HW2 2916   2.054   2.352   0.318  1.3002  2.1704 -0.8338
  973SOL     OW 2917   1.321   1.075   1.948 -0.2686  0.0643  0.0657
  973SOL    HW1 2918   1.241   1.037   1.888 -1.6989  1.4858  1.8411
  973SOL    HW2 2919   1.294   1.172   1.985 -0.1400  1.6222 -1.0765
  974SOL     OW 2920   1.603   0.610   1.946  0.3715  0.3199 -0.6907
  974SOL    HW1 2921   1.675   0.645   1.881 -2.2844 -1.8401 -0.7730
  974SOL    HW2 2922   1.509   0.651   1.929  0.1257 -1.7883  1.0578
  975SOL     OW 2923   2.374   3.033   0.039  0.0838 -0.2128 -0.2468
  975SOL    HW1 2924   2.304   2.960   0.055  1.1664  1.3047 -1.7181
  975SOL    HW2 2925   2.426   3.015  -0.053 -0.5558  1.0335 -2.9151
  976SOL     OW 2926   1.939   2.883   2.355  0.2303 -0.3789 -0.0196
  976SOL    HW1 2927   1.867   2.829   2.298 -0.8210 -2.2337 -0.8590
  976SOL    HW2 2928   1.930   2.868   2.452 -2.4684  0.4329 -0.3960
  977SOL     OW 2929   0.440   0.618   1.004  0.1088 -0.5913  0.6756
  977SOL    HW1 2930   0.377   0.648   0.927 -2.6901  3.0395  1.1118
  977SOL    HW2 2931   0.531   0.573   0.973 -1.7552  1.1740  0.9064
   3.10000   3.10000   3.10000
