1000 SPC/Fw water molecules t=   0.85000 step= 850
 2931
    1SOL     OW    1   2.499   0.353   2.643  0.5951  0.3839  1.2389
    1SOL    HW1    2   2.528   0.255   2.620 -0.2479 -0.2931  0.0732
    1SOL    HW2    3   2.544   0.392   2.729 -2.7218  3.1052  1.5169
    2SOL     OW    4   2.738   3.063   1.432 -0.2700 -0.4922  0.1368
    2SOL    HW1    5   2.799   3.071   1.348 -0.7507 -1.6876  0.6321
    2SOL    HW2    6   2.687   3.152   1.460 -0.5731 -1.8446  0.4827
    3SOL     OW    7   2.707   2.603   0.370 -0.7340 -0.0854  0.3757
    3SOL    HW1    8   2.674   2.506   0.366 -0.7430  2.1271 -0.6374
    3SOL    HW2    9   2.774   2.622   0.447 -1.7115 -0.4005  0.0332
    4SOL     OW   10   1.270   1.494   2.329 -0.3576  0.8821 -0.2994
    4SOL    HW1   11   1.181   1.545   2.304  0.1475 -2.0154 -1.3619
    4SOL    HW2   12   1.248   1.405   2.373 -2.0680  3.6763 -2.3712
    5SOL     OW   13   1.148   1.491   3.089  0.4865 -0.2267  0.2191
    5SOL    HW1   14   1.227   1.560   3.096 -0.5322 -1.2945  0.1668
    5SOL    HW2   15   1.057   1.532   3.120 -1.6157  0.3048  1.5248
    6SOL     OW   16   0.130   1.838   2.949  0.1167 -0.5447 -0.1008
    6SOL    HW1   17   0.058   1.842   3.023 -0.3387 -0.8225  1.8583
    6SOL    HW2   18   0.212   1.791   2.997 -1.5508 -0.6281  0.9772
    7SOL     OW   19   2.611   0.917   1.114 -0.1674  0.1615 -0.6498
    7SOL    HW1   20   2.520   0.877   1.135  2.7934 -0.7293 -3.3202
    7SOL    HW2   21   2.617   0.959   1.017  0.8289 -2.1157  0.0728
    8SOL     OW   22   0.390   0.622   1.549 -0.3675 -0.1891  0.5675
    8SOL    HW1   23   0.481   0.603   1.597 -1.0538  1.3190 -0.7244
    8SOL    HW2   24   0.377   0.572   1.458  2.1014  1.0229 -1.7436
    9SOL     OW   25   1.181   0.860   2.398  0.0398 -0.0502  0.0823
    9SOL    HW1   26   1.259   0.902   2.341 -0.9337  0.6036  0.6962
    9SOL    HW2   27   1.100   0.820   2.347 -0.5582  0.7186  3.0099
   10SOL     OW   28   0.644   1.343   1.308  0.0653 -0.1806  0.1799
   10SOL    HW1   29   0.565   1.344   1.243  0.0222  0.0812  0.6671
   10SOL    HW2   30   0.695   1.436   1.295  2.5609  1.9769 -0.9423
   11SOL     OW   31   2.353   2.729   0.834 -0.1146 -0.2496  0.5051
   11SOL    HW1   32   2.281   2.735   0.911 -2.2480 -0.4891 -1.1091
   11SOL    HW2   33   2.450   2.715   0.871  0.4902 -0.0450 -1.2518
   12SOL     OW   34   1.488   0.892   0.339  0.1819 -0.0180 -0.1812
   12SOL    HW1   35   1.411   0.960   0.315 -2.9927 -0.1577  2.4074
   12SOL    HW2   36   1.511   0.814   0.273 -0.5493 -2.6787  1.0259
   13SOL     OW   37   2.479   0.659   1.778  0.3249  0.0981  0.0075
   13SOL    HW1   38   2.389   0.680   1.819  2.3642  1.1184 -0.1003
   13SOL    HW2   39   2.480   0.648   1.674 -1.3120  1.0111 -0.9898
   14SOL     OW   40   1.872   0.042   0.737 -0.1800 -0.1190  0.0508
   14SOL    HW1   41   1.811   0.073   0.654 -2.0524 -0.9378 -1.8777
   14SOL    HW2   42   1.820  -0.027   0.795 -0.8938  0.8310  0.7927
   15SOL     OW   43   1.997   2.094   2.734 -0.3525  0.2025  0.1500
   15SOL    HW1   44   1.947   2.139   2.811 -2.2464 -3.4291  0.2942
   15SOL    HW2   45   1.933   2.029   2.682  1.0307 -1.1570 -0.5818
   16SOL     OW   46   1.608   1.727   2.964 -0.4819  0.0725  0.0262
   16SOL    HW1   47   1.625   1.624   2.962 -1.9613 -0.2555 -1.0167
   16SOL    HW2   48   1.681   1.781   3.018 -0.1095 -0.8915 -1.1193
   17SOL     OW   49   0.134   0.517   0.217 -0.3921 -0.1779  0.0056
   17SOL    HW1   50   0.235   0.533   0.189  1.1429 -0.7239 -2.6902
   17SOL    HW2   51   0.068   0.515   0.140 -0.8412 -0.1728  0.8975
   18SOL     OW   52   0.971   2.922   2.113 -0.4651 -0.4955  0.7696
   18SOL    HW1   53   0.890   2.856   2.094  1.3763 -0.1160  0.6278
   18SOL    HW2   54   1.036   2.920   2.035 -0.7759 -1.1119 -0.9658
   19SOL     OW   55   0.528   0.817   1.904  0.3018  0.4132  0.1015
   19SOL    HW1   56   0.547   0.755   1.990  0.5643 -0.2855  2.3666
   19SOL    HW2   57   0.615   0.837   1.839 -1.1266 -2.3580 -2.8366
   20SOL     OW   58   0.199   2.700   0.827 -0.4013  0.0437 -0.1618
   20SOL    HW1   59   0.128   2.763   0.786 -1.1821 -0.2689  0.1809
   20SOL    HW2   60   0.262   2.667   0.753  0.6876  2.9365  0.2806
   21SOL     OW   61   2.739   0.209   2.102 -0.2460  0.1131 -0.0778
   21SOL    HW1   62   2.702   0.150   2.021  0.8149 -0.9999 -0.0119
   21SOL    HW2   63   2.842   0.190   2.122  0.9571  1.1695 -0.3972
   22SOL     OW   64   2.386   0.229   0.137 -0.1227 -0.1021  0.3626
   22SOL    HW1   65   2.374   0.125   0.126 -0.3590  1.7922 -0.0653
   22SOL    HW2   66   2.297   0.276   0.127  0.2791 -1.9319  0.3970
   23SOL     OW   67   2.785   0.655   0.650  0.2409 -0.0672  0.2186
   23SOL    HW1   68   2.793   0.577   0.587 -2.6017 -2.2474  0.6169
   23SOL    HW2   69   2.748   0.742   0.603 -1.1366  3.1805 -0.5017
   24SOL     OW   70   0.209   1.896   0.362 -0.2973 -0.3824  0.1397
   24SOL    HW1   71   0.168   1.956   0.288  2.6406 -0.3492 -2.0006
   24SOL    HW2   72   0.307   1.910   0.378  0.4017 -2.0823 -0.6322
   25SOL     OW   73   2.202   0.558   0.294 -0.1337  0.0312 -0.6906
   25SOL    HW1   74   2.242   0.587   0.206  0.9220 -0.7780 -0.8014
   25SOL    HW2   75   2.256   0.491   0.347  1.2587  3.4117 -2.9589
   26SOL     OW   76   2.519   2.089   2.083 -0.4158 -0.0685 -0.0710
   26SOL    HW1   77   2.568   2.165   2.143  0.7522  0.9857 -0.4750
   26SOL    HW2   78   2.577   2.050   2.009 -0.3636  1.5848  1.4155
   27SOL     OW   79   0.596   2.964   0.215 -0.1779 -0.1350 -0.3744
   27SOL    HW1   80   0.702   2.970   0.206  1.5108  0.6063 -0.0778
   27SOL    HW2   81   0.542   2.970   0.128 -0.2480 -1.4288 -0.7447
   28SOL     OW   82   1.560   0.155   0.272 -0.1626  0.1639  0.0223
   28SOL    HW1   83   1.622   0.124   0.192  2.5848  2.1748 -1.9921
   28SOL    HW2   84   1.580   0.253   0.297 -0.9924 -0.3282  1.7562
   29SOL     OW   85   1.952   0.607   0.428 -0.1390  0.4003  0.1057
   29SOL    HW1   86   1.931   0.710   0.417 -2.3744 -1.5367  0.1192
   29SOL    HW2   87   2.046   0.576   0.395  2.7301  3.6123 -0.9911
   30SOL     OW   88   0.188   1.972   0.902 -0.3224 -0.1277 -0.5159
   30SOL    HW1   89   0.186   1.988   0.795  1.1405  1.4587 -2.4843
   30SOL    HW2   90   0.119   2.037   0.951 -0.0663  0.3330 -0.1569
   31SOL     OW   91   2.100   3.066   2.336 -0.2934  0.1893  0.4891
   31SOL    HW1   92   2.125   3.097   2.431  1.1393 -2.4787  0.2172
   31SOL    HW2   93   2.039   2.981   2.348 -0.7798 -0.7341  2.6065
   32SOL     OW   94   2.938   0.101   0.215  0.0126 -0.4383 -0.6211
   32SOL    HW1   95   2.936  -0.001   0.245 -0.8504 -3.7681  0.8458
   32SOL    HW2   96   3.031   0.150   0.217 -1.3632  1.4509 -0.9146
   33SOL     OW   97   0.950   0.292   0.612 -0.4238  0.0526 -0.2113
   33SOL    HW1   98   0.914   0.208   0.561  0.7031  1.2986 -0.7252
   33SOL    HW2   99   1.053   0.313   0.598 -0.7264  0.9951  2.5976
   34SOL     OW  100   0.281   2.778   1.102 -0.5333 -0.3515  0.1353
   34SOL    HW1  101   0.241   2.746   1.006 -4.2918  2.4040 -1.6536
   34SOL    HW2  102   0.385   2.781   1.111 -0.4819 -2.2929  0.6061
   35SOL     OW  103   0.028   0.110   1.881  0.3011 -1.0891  0.2332
   35SOL    HW1  104   0.070   0.019   1.858 -0.1594  0.2163 -1.3904
   35SOL    HW2  105  -0.030   0.140   1.799 -0.4420 -1.9052  2.2097
   36SOL     OW  106   1.921   1.172   1.744 -0.3692  0.3249 -0.2685
   36SOL    HW1  107   1.927   1.120   1.650 -2.1027 -1.4307  1.6253
   36SOL    HW2  108   2.002   1.228   1.760 -3.0537 -0.6793  0.8636
   37SOL     OW  109   1.181   0.154   0.940 -0.1293  0.3684 -0.3449
   37SOL    HW1  110   1.226   0.188   1.028 -1.1378  2.1679  1.5457
   37SOL    HW2  111   1.243   0.165   0.859  0.6872 -1.5677  1.3785
   38SOL     OW  112   1.065   2.784   2.483 -0.6511  0.6437  0.1946
   38SOL    HW1  113   1.055   2.686   2.447 -0.0277 -2.1810  0.1045
   38SOL    HW2  114   0.995   2.848   2.440  1.2255 -1.3633 -1.8121
   39SOL     OW  115   2.300   1.397   3.033 -0.0152  0.1054 -0.3421
   39SOL    HW1  116   2.386   1.346   3.063  0.4263  1.5853  1.9556
   39SOL    HW2  117   2.235   1.401   3.115  1.1352  5.0387  3.0640
   40SOL     OW  118   2.048   2.471   2.542 -1.0213 -0.9571 -0.7336
   40SOL    HW1  119   2.008   2.568   2.542 -0.1780  0.4147 -0.8921
   40SOL    HW2  120   1.975   2.403   2.523 -0.8025 -0.6150  0.7179
   41SOL     OW  121   3.043   0.689   2.848 -0.0205  0.0247 -0.2452
   41SOL    HW1  122   3.043   0.783   2.809  1.4290  2.2381 -0.1179
   41SOL    HW2  123   2.977   0.636   2.788 -3.9008  1.9012  1.6090
   42SOL     OW  124   1.781   1.715   0.481  0.2386 -0.0898  0.0277
   42SOL    HW1  125   1.722   1.631   0.497  0.3441  2.1866  1.5274
   42SOL    HW2  126   1.784   1.753   0.385  1.7216 -0.7743  2.5853
   43SOL     OW  127   0.478   1.665   1.128 -0.5846 -0.4788  0.3896
   43SOL    HW1  128   0.461   1.570   1.166  0.6251 -1.4360  1.8726
   43SOL    HW2  129   0.402   1.698   1.067  3.2486 -2.6546 -0.1894
   44SOL     OW  130   1.790   2.504   3.049 -0.4989  0.3520 -0.6103
   44SOL    HW1  131   1.805   2.601   3.015 -0.5580 -1.5305 -2.7284
   44SOL    HW2  132   1.824   2.434   2.980  1.6195  2.7652 -2.1783
   45SOL     OW  133   0.435   1.938   2.599 -0.3762  0.0796 -0.1340
   45SOL    HW1  134   0.379   1.911   2.519  1.1641 -0.8817 -0.8302
   45SOL    HW2  135   0.481   1.859   2.645 -0.8639  0.1163 -2.3787
   46SOL     OW  136   1.251   0.697   0.197  0.0504 -0.3846 -0.0885
   46SOL    HW1  137   1.288   0.741   0.110  0.2675 -1.0568 -1.7090
   46SOL    HW2  138   1.181   0.760   0.248  0.8589  0.9978  1.8410
   47SOL     OW  139   0.224   2.503   1.574 -0.2006 -0.1433 -0.3421
   47SOL    HW1  140   0.246   2.401   1.574  2.7007  1.7660 -3.4845
   47SOL    HW2  141   0.213   2.543   1.481 -2.8557  4.7370 -0.1770
   48SOL     OW  142   2.620   0.639   0.133  0.1698 -0.0960  0.0765
   48SOL    HW1  143   2.599   0.610   0.230  0.2438 -4.1282 -0.8904
   48SOL    HW2  144   2.726   0.653   0.117 -0.2439  2.5894  1.1507
   49SOL     OW  145   0.312   0.814   1.742 -0.7761  0.3139  0.1577
   49SOL    HW1  146   0.393   0.807   1.812 -0.6675 -0.8098  0.5821
   49SOL    HW2  147   0.324   0.742   1.669 -0.4814  0.7645  1.3094
   50SOL     OW  148   1.669   1.127   0.312  0.0913  0.4179  0.4030
   50SOL    HW1  149   1.641   1.030   0.284  0.4662  1.6490 -0.8659
   50SOL    HW2  150   1.613   1.155   0.396  1.1167  2.5409 -1.4397
   51SOL     OW  151   2.885   1.845   0.305 -0.5192 -0.7561 -0.4480
   51SOL    HW1  152   2.822   1.770   0.278 -0.2745 -0.1902 -0.7433
   51SOL    HW2  153   2.960   1.803   0.372  3.2997 -4.6266 -0.5686
   52SOL     OW  154   0.771   2.005   0.495 -0.3951  0.2220  0.2400
   52SOL    HW1  155   0.695   2.060   0.545  1.2247 -0.4034  0.6312
   52SOL    HW2  156   0.804   1.926   0.564  0.1787 -3.1780  0.6310
   53SOL     OW  157   0.175   0.414   1.601  0.4585 -0.3568 -0.4895
   53SOL    HW1  158   0.248   0.486   1.609 -2.5742  0.9867 -3.0969
   53SOL    HW2  159   0.094   0.448   1.544 -0.3712 -0.2249  2.0955
   54SOL     OW  160   1.816   0.473   3.055 -0.0735  0.2393  0.1811
   54SOL    HW1  161   1.866   0.476   3.149  2.4015  0.0771 -0.8167
   54SOL    HW2  162   1.714   0.461   3.060 -2.2911 -0.6113 -1.3469
   55SOL     OW  163   0.772   2.898   0.689 -0.2674  0.4927 -0.0022
   55SOL    HW1  164   0.711   2.970   0.650  2.0104  1.3986 -1.7421
   55SOL    HW2  165   0.872   2.902   0.665 -0.8339 -1.1367 -1.8632
   56SOL     OW  166   0.510   1.595   0.012  0.8598 -0.3966 -0.1174
   56SOL    HW1  167   0.409   1.619   0.035 -2.2414 -0.3013  1.8261
   56SOL    HW2  168   0.525   1.511  -0.046 -0.3047  1.2775 -0.8514
   57SOL     OW  169   1.729   2.508   2.491 -0.6048  0.2330 -0.4492
   57SOL    HW1  170   1.789   2.422   2.460  3.0214 -2.3149  0.6614
   57SOL    HW2  171   1.634   2.474   2.510  2.6076  1.1025  0.1485
   58SOL     OW  172   0.651   0.261   1.028  0.1063 -0.3347  0.0794
   58SOL    HW1  173   0.552   0.250   1.061  1.7675 -4.0662  0.5069
   58SOL    HW2  174   0.706   0.170   1.045  0.9171 -0.1939 -0.4992
   59SOL     OW  175   0.450   2.450   2.744  0.6333  0.0674 -0.1408
   59SOL    HW1  176   0.452   2.346   2.730 -2.3468 -1.6680 -2.3838
   59SOL    HW2  177   0.536   2.499   2.768 -1.0099 -0.9507 -1.0701
   60SOL     OW  178   2.286   2.034   2.204 -0.0313  0.0159  0.3996
   60SOL    HW1  179   2.381   2.048   2.152 -0.4525  1.0483  2.7036
   60SOL    HW2  180   2.290   2.091   2.291  3.0149  1.1929 -2.6175
   61SOL     OW  181   1.334   0.628   0.500 -0.4183  0.2003 -0.1952
   61SOL    HW1  182   1.263   0.693   0.531 -0.8272 -2.0988 -1.9069
   61SOL    HW2  183   1.393   0.661   0.424  0.8938  0.7724  0.5821
   62SOL     OW  184   2.759   1.804   2.917 -0.7425  0.2622  0.6204
   62SOL    HW1  185   2.744   1.704   2.934 -1.9914  1.5777 -2.3960
   62SOL    HW2  186   2.854   1.827   2.874  2.3141 -0.8034  0.5883
   63SOL     OW  187   0.591   0.898   0.192 -0.5596 -0.2754  0.3972
   63SOL    HW1  188   0.615   0.951   0.110  3.2070 -2.9694  2.1267
   63SOL    HW2  189   0.663   0.910   0.264 -1.7024 -0.5792 -0.0939
   64SOL     OW  190   0.105   0.481   2.474  0.1943 -0.1842  0.0197
   64SOL    HW1  191   0.167   0.507   2.554 -2.9836 -0.5887  1.2066
   64SOL    HW2  192   0.078   0.564   2.413 -1.1545  1.6245 -3.6624
   65SOL     OW  193   0.158   1.496   0.547 -0.1729  0.4432 -0.6235
   65SOL    HW1  194   0.223   1.537   0.622  0.0560 -0.9643 -2.5165
   65SOL    HW2  195   0.218   1.473   0.465  0.9654 -2.0833  1.1347
   66SOL     OW  196   2.567   0.397   0.609  0.2723 -0.7378  0.4571
   66SOL    HW1  197   2.661   0.385   0.645 -2.1879  2.3218 -2.4810
   66SOL    HW2  198   2.502   0.331   0.654  1.0217  1.0862  1.8026
   67SOL     OW  199   0.541   2.540   1.373 -0.0729  0.2433  0.2185
   67SOL    HW1  200   0.568   2.542   1.476  0.4316  0.2416  1.5284
   67SOL    HW2  201   0.489   2.455   1.336 -2.1421  0.6107 -1.5769
   68SOL     OW  202   1.014   1.091   2.465 -0.0580 -0.2603  0.3685
   68SOL    HW1  203   1.060   0.998   2.466  1.4250 -0.4369  0.7397
   68SOL    HW2  204   0.947   1.103   2.385 -1.1721  0.4243 -0.6611
   69SOL     OW  205   0.737   2.726   2.176  0.1268  0.0606 -0.0756
   69SOL    HW1  206   0.762   2.629   2.154 -2.5418  0.1774  2.0257
   69SOL    HW2  207   0.631   2.730   2.197 -0.9038  1.6816 -0.7582
   70SOL     OW  208   0.517   0.313   2.691 -0.1043 -0.4466  0.1782
   70SOL    HW1  209   0.516   0.369   2.778  0.6724 -1.0524 -0.1851
   70SOL    HW2  210   0.489   0.213   2.699  1.0206  1.5696 -3.0757
   71SOL     OW  211   1.110   1.742   0.448  0.4281 -0.0039  0.2968
   71SOL    HW1  212   1.077   1.696   0.535  0.8728 -2.0022  4.0686
   71SOL    HW2  213   1.037   1.757   0.375  1.8808  0.3752  1.6755
   72SOL     OW  214   1.825   0.208   2.162 -0.6916  0.5094  0.1895
   72SOL    HW1  215   1.915   0.251   2.171 -1.7383 -2.5098  1.7195
   72SOL    HW2  216   1.831   0.102   2.144  0.1055 -1.5017  1.6500
   73SOL     OW  217   2.819   2.183   2.423 -0.1572  0.3707 -0.0405
   73SOL    HW1  218   2.787   2.092   2.380  0.9353  3.9753  1.6695
   73SOL    HW2  219   2.844   2.176   2.521 -0.8085 -0.6123 -1.3489
   74SOL     OW  220   2.656   2.913   2.130 -0.2338  0.1448  0.3352
   74SOL    HW1  221   2.602   2.891   2.215 -1.9694  0.5186  0.4999
   74SOL    HW2  222   2.763   2.906   2.144  1.7938 -1.5109  0.5988
   75SOL     OW  223   0.909   0.776   1.111  0.3194  0.1967  0.2209
   75SOL    HW1  224   0.814   0.802   1.080 -0.1786  1.8543  1.1922
   75SOL    HW2  225   0.953   0.849   1.166  0.1415  2.4292 -1.4415
   76SOL     OW  226   1.690   1.180   2.501 -0.4185 -0.7472 -0.1969
   76SOL    HW1  227   1.600   1.141   2.519  0.4452  0.6761 -0.5115
   76SOL    HW2  228   1.690   1.268   2.559  0.5777 -1.6323  1.1224
   77SOL     OW  229   2.981   0.928   0.947 -0.4214  0.0172 -0.2455
   77SOL    HW1  230   2.910   0.849   0.950  1.0150  0.6419  1.1704
   77SOL    HW2  231   3.046   0.925   1.029  0.9953 -3.1416 -2.8687
   78SOL     OW  232   2.063   1.480   1.529 -0.2393  0.5477  0.2541
   78SOL    HW1  233   2.163   1.471   1.506 -0.3316 -0.6912 -0.4525
   78SOL    HW2  234   2.006   1.506   1.447 -2.1967 -2.2940  1.1113
   79SOL     OW  235   0.600   1.366   0.873 -0.5584 -0.0911 -0.4261
   79SOL    HW1  236   0.504   1.351   0.913 -1.4331 -1.1087  0.3565
   79SOL    HW2  237   0.610   1.337   0.778  0.5238  0.9915  1.5370
   80SOL     OW  238   0.634   0.498   1.587  0.6599  0.4362  0.1895
   80SOL    HW1  239   0.697   0.543   1.518 -1.2192  0.1050  0.4904
   80SOL    HW2  240   0.600   0.407   1.556 -2.5946  1.7660 -1.7965
   81SOL     OW  241   1.028   1.398   2.628 -0.3301 -0.3126 -0.0569
   81SOL    HW1  242   1.094   1.325   2.608 -1.0711  2.5529 -1.4457
   81SOL    HW2  243   0.939   1.394   2.574 -1.4540  2.5890  1.1491
   82SOL     OW  244   1.004   2.941   1.508 -0.0746  0.4826  0.3014
   82SOL    HW1  245   1.030   2.979   1.416  0.4703 -0.4227  0.8410
   82SOL    HW2  246   0.908   2.896   1.505 -0.2284 -0.0120 -0.3109
   83SOL     OW  247   2.734   2.458   0.854  0.1475 -0.2664  0.0873
   83SOL    HW1  248   2.671   2.406   0.797  0.5732  2.5193  2.0164
   83SOL    HW2  249   2.747   2.558   0.821 -0.1984  0.4289  0.2258
   84SOL     OW  250   0.641   3.041   2.366  0.1929 -0.3407 -0.3649
   84SOL    HW1  251   0.548   3.015   2.393  3.3003  0.3396 -1.4657
   84SOL    HW2  252   0.711   2.971   2.398 -0.2971 -3.1111  0.7265
   85SOL     OW  253   0.260   1.582   1.491 -0.4265  0.1082 -0.0337
   85SOL    HW1  254   0.244   1.688   1.507 -0.2651  2.0566  0.0672
   85SOL    HW2  255   0.339   1.552   1.556  1.4777  1.6894  0.1439
   86SOL     OW  256   0.397   1.001   1.535 -0.3441 -0.0179  0.0411
   86SOL    HW1  257   0.368   0.947   1.451  0.8409 -1.1728  0.8379
   86SOL    HW2  258   0.391   0.940   1.616  2.5568 -0.4393 -0.9347
   87SOL     OW  259   1.579   0.676   0.209 -0.2739  0.5091 -0.0700
   87SOL    HW1  260   1.665   0.726   0.195  1.4799 -2.1345 -0.2146
   87SOL    HW2  261   1.549   0.632   0.119 -0.0454 -0.0558  2.6186
   88SOL     OW  262   1.611   1.381   0.206 -0.1172 -0.1867  0.6659
   88SOL    HW1  263   1.647   1.285   0.223 -1.1262  0.7222  2.2811
   88SOL    HW2  264   1.510   1.382   0.215 -0.3485 -3.6784 -0.5246
   89SOL     OW  265   0.003   0.444   0.583 -0.0266  0.6743  0.1418
   89SOL    HW1  266   0.071   0.364   0.593 -0.7219  0.3203  0.7338
   89SOL    HW2  267  -0.098   0.416   0.581  0.9618  1.3769 -1.2665
   90SOL     OW  268   0.878   1.601   0.051  0.2404 -0.3714 -0.0500
   90SOL    HW1  269   0.826   1.544   0.125 -0.0431  0.6661  0.5639
   90SOL    HW2  270   0.838   1.599  -0.044  1.1307 -0.0293 -1.1094
   91SOL     OW  271   1.218   1.464   1.806 -0.4528  0.2237  0.1807
   91SOL    HW1  272   1.205   1.540   1.880  0.3262 -1.0853  3.1152
   91SOL    HW2  273   1.321   1.443   1.787  1.7672 -3.2917  0.9332
   92SOL     OW  274   3.095   0.978   1.193 -0.3626  0.2036  0.1212
   92SOL    HW1  275   3.135   1.068   1.158 -1.3712  1.8432  1.3139
   92SOL    HW2  276   3.098   0.975   1.298  1.2149 -2.4834 -0.4771
   93SOL     OW  277   0.008   2.709   3.063  0.0871 -0.3079 -0.3359
   93SOL    HW1  278  -0.072   2.695   2.999  1.2597  1.3072 -1.3255
   93SOL    HW2  279   0.043   2.622   3.109  2.8486  0.2385 -2.0683
   94SOL     OW  280   1.489   1.499   1.741  0.6968  0.1411 -0.0816
   94SOL    HW1  281   1.549   1.416   1.718 -2.0026 -2.4612 -2.4045
   94SOL    HW2  282   1.526   1.551   1.821 -1.5173 -1.5980 -0.3397
   95SOL     OW  283   1.352   2.551   2.981 -0.0590 -0.3318 -0.1772
   95SOL    HW1  284   1.272   2.545   3.049 -0.0027 -2.0050  0.7552
   95SOL    HW2  285   1.357   2.473   2.917 -0.7409  1.2808 -0.1744
   96SOL     OW  286   0.546   2.120   1.254  0.2722  0.0211 -0.2932
   96SOL    HW1  287   0.514   2.075   1.164 -0.6592 -0.0388 -2.1682
   96SOL    HW2  288   0.590   2.052   1.324  2.4069  1.0531  0.0863
   97SOL     OW  289   0.413   1.612   2.466  0.0981 -0.1921  0.2260
   97SOL    HW1  290   0.342   1.686   2.459  0.7432 -3.2077  2.6251
   97SOL    HW2  291   0.434   1.590   2.565  3.0060 -0.2212  0.1085
   98SOL     OW  292   2.006   1.604   1.224  0.4955  0.2572 -0.5067
   98SOL    HW1  293   1.921   1.578   1.275  0.5707 -0.2147 -1.1114
   98SOL    HW2  294   2.020   1.548   1.137  1.8416  0.4568  0.5015
   99SOL     OW  295   2.445   2.051   1.391  0.3705 -0.2033  0.0985
   99SOL    HW1  296   2.477   2.038   1.488  0.9772 -0.6070 -0.9257
   99SOL    HW2  297   2.428   1.959   1.344  1.5835 -0.3599  0.3568
  100SOL     OW  298   2.358   0.306   2.114  0.6533  0.0502  0.1084
  100SOL    HW1  299   2.294   0.279   2.187  1.8108  0.9431  2.2515
  100SOL    HW2  300   2.442   0.346   2.152 -0.5054  1.6970 -0.7544
  101SOL     OW  301   0.390   1.512   0.377  0.5870 -0.2506  1.0950
  101SOL    HW1  302   0.473   1.511   0.436 -0.1999 -0.7463 -1.2912
  101SOL    HW2  303   0.375   1.604   0.332 -0.3768 -0.1724  2.4283
  102SOL     OW  304   2.257   1.018   0.838  0.4556  0.2138  0.4368
  102SOL    HW1  305   2.177   0.964   0.802 -0.8720  1.4193  1.4781
  102SOL    HW2  306   2.308   1.076   0.760 -1.7023  0.4670  1.1272
  103SOL     OW  307   2.276   0.063   0.396 -0.0265  0.3978  0.0679
  103SOL    HW1  308   2.285   0.169   0.396  0.3536 -1.3193  0.1681
  103SOL    HW2  309   2.357   0.010   0.434 -0.1291 -0.7017  1.1737
  104SOL     OW  310   0.086   1.746   2.198 -0.1832  0.0382  0.1051
  104SOL    HW1  311   0.122   1.700   2.118 -1.3735 -1.1395  3.4238
  104SOL    HW2  312   0.001   1.801   2.169  0.3065  0.6168  1.2610
  105SOL     OW  313   1.219   2.099   0.796 -0.2743 -0.1190 -0.0918
  105SOL    HW1  314   1.133   2.114   0.739  1.5166  0.2272 -0.8302
  105SOL    HW2  315   1.267   2.008   0.778  1.3936  0.8645  0.4585
  106SOL     OW  316   2.107   0.427   1.412 -0.2336  0.0452 -0.5658
  106SOL    HW1  317   2.056   0.339   1.413  0.0366  1.7513  0.8330
  106SOL    HW2  318   2.103   0.474   1.503 -0.3741 -0.1956 -1.1547
  107SOL     OW  319   1.831   3.004   1.187  0.2814  0.0313 -0.0716
  107SOL    HW1  320   1.839   3.098   1.233  2.3010  1.2812  1.7681
  107SOL    HW2  321   1.762   2.949   1.237  2.4405  0.4698  0.6531
  108SOL     OW  322   0.770   2.807   1.222 -0.4238  0.0362  0.5682
  108SOL    HW1  323   0.781   2.805   1.325 -1.7474  1.8984  0.2349
  108SOL    HW2  324   0.864   2.813   1.170 -0.0638  1.0933 -0.2581
  109SOL     OW  325   2.142   0.118   0.742  0.0374 -0.3628  1.1039
  109SOL    HW1  326   2.038   0.098   0.745  0.2156 -0.1352 -0.6692
  109SOL    HW2  327   2.184   0.086   0.832 -1.2197 -0.8703  0.4444
  110SOL     OW  328   0.461   2.843   2.782 -0.1257 -0.3123  0.5854
  110SOL    HW1  329   0.455   2.874   2.679  0.5602 -2.2948 -1.1231
  110SOL    HW2  330   0.548   2.787   2.802  0.3725 -2.9542  2.4531
  111SOL     OW  331   1.310   0.574   2.334  0.0281 -0.4232  0.0212
  111SOL    HW1  332   1.225   0.609   2.378  0.1035  1.1229 -0.7962
  111SOL    HW2  333   1.353   0.497   2.389 -0.7959  0.8439  0.3747
  112SOL     OW  334   1.735   0.559   1.439 -0.1019  0.1813  0.1384
  112SOL    HW1  335   1.782   0.528   1.350 -0.6884 -1.7655  0.1346
  112SOL    HW2  336   1.700   0.473   1.492 -1.8947 -3.4563 -0.8996
  113SOL     OW  337   2.272   1.681   1.776  0.4618  0.2425 -0.6280
  113SOL    HW1  338   2.335   1.606   1.735 -1.4964 -1.4671  0.9056
  113SOL    HW2  339   2.293   1.699   1.876 -1.3439 -1.7657 -0.1920
  114SOL     OW  340   0.369   0.520   1.249  0.6791  0.1537  0.1617
  114SOL    HW1  341   0.420   0.589   1.182  1.5796 -0.1647  0.2845
  114SOL    HW2  342   0.266   0.533   1.248  0.2367 -1.7839  1.6936
  115SOL     OW  343   2.760   1.575   1.263 -0.7551  0.2899  0.1761
  115SOL    HW1  344   2.768   1.476   1.280  0.7711  1.7337  0.1832
  115SOL    HW2  345   2.745   1.597   1.162  0.9787  1.4298 -2.7035
  116SOL     OW  346   1.842   1.040   0.722 -0.1473  0.1887 -0.7536
  116SOL    HW1  347   1.766   0.996   0.669  0.8888  2.2003  1.6342
  116SOL    HW2  348   1.813   1.128   0.769 -2.3946 -3.1225  1.2059
  117SOL     OW  349   1.214   0.376   0.561  0.5404 -0.3075 -0.6713
  117SOL    HW1  350   1.222   0.422   0.654  3.1237  3.2599  1.1591
  117SOL    HW2  351   1.263   0.430   0.490 -0.6549 -0.0876  2.9695
  118SOL     OW  352   1.131   1.116   1.110  0.3214 -0.3331 -0.0100
  118SOL    HW1  353   1.078   1.053   1.169  1.4271  4.7575 -3.7161
  118SOL    HW2  354   1.139   1.210   1.157 -3.6883  1.1399 -0.8520
  119SOL     OW  355   1.811   1.624   2.142  0.1174 -0.2268  0.3077
  119SOL    HW1  356   1.788   1.724   2.155  2.1185 -1.3165  1.2906
  119SOL    HW2  357   1.915   1.604   2.152  4.3210 -0.5601 -1.0270
  120SOL     OW  358   2.955   2.878   0.121  0.3812  0.1260 -0.2010
  120SOL    HW1  359   3.028   2.836   0.060 -3.5796  1.0418 -1.4847
  120SOL    HW2  360   2.864   2.839   0.090 -0.5938 -2.0641 -0.6516
  121SOL     OW  361   1.982   0.748   2.247  0.1468 -0.2916 -0.9219
  121SOL    HW1  362   1.988   0.809   2.160 -0.6011  1.3828 -1.6292
  121SOL    HW2  363   2.006   0.649   2.233  1.1508  1.1010  0.2805
  122SOL     OW  364   2.582   2.659   1.225 -0.1917 -0.0097  0.3324
  122SOL    HW1  365   2.655   2.589   1.211  1.1944 -1.3011  0.5363
  122SOL    HW2  366   2.500   2.655   1.157 -2.1227 -1.6511  0.3531
  123SOL     OW  367   1.738   0.083   1.724 -0.2805 -0.0269  0.0351
  123SOL    HW1  368   1.768  -0.008   1.681 -0.5976 -2.1873 -2.3040
  123SOL    HW2  369   1.808   0.124   1.788 -0.6818 -0.1460 -2.2485
  124SOL     OW  370   0.102   0.473   1.105 -0.4045 -0.0151  0.6219
  124SOL    HW1  371   0.112   0.567   1.146  2.5531 -0.1928  0.6889
  124SOL    HW2  372   0.060   0.480   1.009 -2.8271  3.3923 -4.3099
  125SOL     OW  373   0.851   1.843   0.705  0.4379 -0.6422 -0.3077
  125SOL    HW1  374   0.942   1.810   0.747 -0.6958 -0.0052 -0.4008
  125SOL    HW2  375   0.787   1.885   0.778 -1.4450 -0.9038 -0.7052
  126SOL     OW  376   1.867   2.282   2.444 -0.0478 -0.4214  0.0912
  126SOL    HW1  377   1.941   2.255   2.375 -1.8778 -0.7241 -0.3892
  126SOL    HW2  378   1.808   2.199   2.472 -1.1538 -0.7343 -1.9724
  127SOL     OW  379   0.986   0.900   0.255  0.6629  0.1062  0.4720
  127SOL    HW1  380   1.017   0.949   0.339 -0.0642 -1.7111  0.2869
  127SOL    HW2  381   0.943   0.804   0.272 -0.3963 -0.9921 -1.8464
  128SOL     OW  382   0.905   0.228   1.389 -0.0137 -0.5550  0.5082
  128SOL    HW1  383   0.894   0.305   1.316  2.5605 -1.6026  1.6638
  128SOL    HW2  384   0.903   0.141   1.339 -2.4445  3.1149 -1.4023
  129SOL     OW  385   1.829   0.694   1.894 -0.3783 -0.3494 -0.0101
  129SOL    HW1  386   1.818   0.705   1.788  0.1435  0.3366 -3.9933
  129SOL    HW2  387   1.877   0.778   1.937 -0.0756 -1.3385 -2.3039
  130SOL     OW  388   1.362   2.227   1.011 -0.1118 -0.2733  0.2793
  130SOL    HW1  389   1.315   2.202   0.921  0.8097 -3.6208  2.4909
  130SOL    HW2  390   1.464   2.254   0.992  1.0281 -1.0750  0.7297
  131SOL     OW  391   3.067   1.452   1.396  0.2211 -0.0543  0.4349
  131SOL    HW1  392   2.989   1.384   1.386 -0.4530  0.7164  1.6481
  131SOL    HW2  393   3.160   1.409   1.391  0.6224  3.8011  0.2650
  132SOL     OW  394   2.051   2.442   0.512  0.5700  0.1853  0.0920
  132SOL    HW1  395   1.956   2.487   0.539 -2.3901  0.4863  0.5071
  132SOL    HW2  396   2.075   2.364   0.575 -1.1173  1.1002 -1.7353
  133SOL     OW  397   1.867   2.323   2.846  0.3064 -0.3869 -0.4515
  133SOL    HW1  398   1.842   2.337   2.746 -2.1396  2.2375 -0.0299
  133SOL    HW2  399   1.961   2.356   2.872 -2.6521 -0.7058  3.3123
  134SOL     OW  400   2.663   2.355   1.645 -0.2037  0.3637 -0.4024
  134SOL    HW1  401   2.596   2.340   1.724  0.3601  0.4944 -1.4270
  134SOL    HW2  402   2.705   2.452   1.645  1.5300 -0.4449 -0.6104
  135SOL     OW  403   0.647   1.467   2.676 -0.0053 -0.1653 -0.4753
  135SOL    HW1  404   0.595   1.384   2.695 -1.9123 -2.1794 -0.8781
  135SOL    HW2  405   0.736   1.446   2.630 -1.0112 -0.5583  2.6654
  136SOL     OW  406   1.192   2.012   0.413 -0.2738  0.6297  0.4132
  136SOL    HW1  407   1.124   2.076   0.466 -2.0050  0.2939 -2.0240
  136SOL    HW2  408   1.164   1.912   0.430 -1.4006  2.5608  0.1036
  137SOL     OW  409   0.421   1.175   2.176 -0.2427  0.0633  0.0400
  137SOL    HW1  410   0.338   1.150   2.226  2.3531  0.4412 -2.4036
  137SOL    HW2  411   0.498   1.111   2.198 -0.0190  1.2930  2.6128
  138SOL     OW  412   2.465   1.527   0.233  0.6489  0.0714 -0.6174
  138SOL    HW1  413   2.380   1.483   0.193  0.1252 -2.4035 -2.4881
  138SOL    HW2  414   2.522   1.451   0.279 -0.1450 -1.7148  0.0255
  139SOL     OW  415   1.856   2.597   1.284 -0.4061  0.1402  0.3255
  139SOL    HW1  416   1.752   2.599   1.286  1.7009  1.1681 -2.3466
  139SOL    HW2  417   1.903   2.506   1.316  2.6354  0.3702  0.0703
  140SOL     OW  418   3.020   2.983   2.541 -0.3068  0.2790  0.1438
  140SOL    HW1  419   3.050   2.884   2.538  1.8040  0.4754  1.4064
  140SOL    HW2  420   3.103   3.042   2.535 -1.9714 -0.8490 -1.5690
  141SOL     OW  421   1.326   1.673   1.615  0.2444 -0.2466 -0.5034
  141SOL    HW1  422   1.228   1.687   1.648  1.4447  0.4019 -1.1933
  141SOL    HW2  423   1.381   1.615   1.682  0.9432  2.2721  0.3351
  142SOL     OW  424   1.575   0.584   2.261  0.2992  0.0360 -0.3627
  142SOL    HW1  425   1.596   0.561   2.158  1.8543  1.4284 -1.5469
  142SOL    HW2  426   1.474   0.568   2.281  2.3724 -1.1446  1.6613
  143SOL     OW  427   2.716   0.896   0.521 -0.2746 -0.0666 -0.4025
  143SOL    HW1  428   2.762   0.928   0.436 -1.9054  2.3103  0.8523
  143SOL    HW2  429   2.767   0.937   0.599 -3.2741  1.0400 -2.1802
  144SOL     OW  430   2.922   1.153   1.447 -0.7112  0.4361 -0.6159
  144SOL    HW1  431   2.882   1.158   1.543 -1.0832 -2.6490  0.1720
  144SOL    HW2  432   2.999   1.081   1.439 -0.6802 -0.1106  2.2914
  145SOL     OW  433   0.989   1.822   0.178 -0.3987 -0.5390  0.0301
  145SOL    HW1  434   1.021   1.887   0.103 -0.6778  0.8107  1.6825
  145SOL    HW2  435   0.957   1.731   0.137  0.0359 -0.1444  0.8022
  146SOL     OW  436   2.510   0.668   1.502  0.0193 -0.0685 -0.1353
  146SOL    HW1  437   2.471   0.578   1.462  2.3843 -2.7779  1.4216
  146SOL    HW2  438   2.464   0.754   1.465  2.4451  1.0014  0.5323
  147SOL     OW  439   1.098   2.456   0.624 -0.2952  0.5341  0.3267
  147SOL    HW1  440   1.056   2.516   0.556  1.5006 -1.0356  3.3584
  147SOL    HW2  441   1.186   2.420   0.581 -1.7053 -0.2151  2.5478
  148SOL     OW  442   1.633   1.483   3.049 -0.5026  0.2822 -0.4771
  148SOL    HW1  443   1.645   1.387   3.002 -0.6306  1.1387  0.6449
  148SOL    HW2  444   1.608   1.468   3.150 -0.5202  3.0058  0.3673
  149SOL     OW  445   0.697   1.395   1.982 -0.3261 -0.3777  0.1123
  149SOL    HW1  446   0.595   1.376   2.002 -1.5923  2.0050 -3.0470
  149SOL    HW2  447   0.729   1.359   1.889  2.3259 -1.6769 -0.2285
  150SOL     OW  448   3.021   1.229   0.942 -0.0100 -0.6791  0.0625
  150SOL    HW1  449   3.085   1.245   1.022 -0.6525  1.4170 -1.2994
  150SOL    HW2  450   2.976   1.137   0.938 -1.6152  1.8196  3.2212
  151SOL     OW  451   0.185   0.736   2.129 -0.3984  0.2774 -0.6122
  151SOL    HW1  452   0.185   0.821   2.069 -1.1880  0.1724 -0.6487
  151SOL    HW2  453   0.226   0.650   2.088  0.3122  0.9022  0.1116
  152SOL     OW  454   1.428   1.768   1.285 -0.2542 -0.0923  0.0067
  152SOL    HW1  455   1.430   1.849   1.356  0.3429  1.2301  1.9618
  152SOL    HW2  456   1.333   1.750   1.248  0.5479 -0.6575  2.0316
  153SOL     OW  457   0.034   1.521   0.160  0.5024  0.5046  0.1808
  153SOL    HW1  458   0.040   1.418   0.181  0.2358 -0.1734 -0.9686
  153SOL    HW2  459   0.016   1.585   0.242 -1.3930 -0.2928  1.0313
  154SOL     OW  460   2.393   1.865   2.783  0.0108 -0.5581  0.6497
  154SOL    HW1  461   2.388   1.763   2.815  0.3762 -1.5795  0.3491
  154SOL    HW2  462   2.469   1.877   2.709 -0.0348 -0.5511  1.4209
  155SOL     OW  463   2.476   1.202   0.384 -0.1979 -0.0439 -0.6853
  155SOL    HW1  464   2.570   1.199   0.341  0.1138 -1.7644  1.6927
  155SOL    HW2  465   2.396   1.193   0.320 -0.5828 -2.1458  0.5202
  156SOL     OW  466   2.521   0.978   0.866  0.1745  0.6173 -0.4714
  156SOL    HW1  467   2.421   1.004   0.870 -0.2374  0.5012  0.7520
  156SOL    HW2  468   2.576   1.038   0.803 -0.6887 -1.7119 -0.2394
  157SOL     OW  469   1.287   2.929   3.027 -0.2954  0.1621  0.0553
  157SOL    HW1  470   1.311   2.924   2.930 -2.0105  0.5365 -0.5869
  157SOL    HW2  471   1.305   3.022   3.069  0.3687  0.7714  2.0786
  158SOL     OW  472   1.008   1.829   1.890 -0.1638  0.0850  0.3748
  158SOL    HW1  473   1.018   1.927   1.855 -2.0313 -0.7621 -2.3736
  158SOL    HW2  474   0.924   1.818   1.945  1.4189  0.4778 -3.3502
  159SOL     OW  475   0.830   0.428   1.211  0.0674 -0.4712  0.2907
  159SOL    HW1  476   0.806   0.509   1.277 -0.5399  0.2160  1.5752
  159SOL    HW2  477   0.750   0.395   1.155  3.0791 -1.0927  1.1217
  160SOL     OW  478   1.405   2.325   1.568 -0.0601  0.8454 -0.1621
  160SOL    HW1  479   1.383   2.264   1.648  1.5185 -1.3288 -3.7092
  160SOL    HW2  480   1.506   2.338   1.554  0.2521  3.8281 -0.3795
  161SOL     OW  481   0.081   2.951   0.317 -0.5012  0.2271  0.8487
  161SOL    HW1  482   0.005   2.883   0.306  0.2244 -4.6367  1.1386
  161SOL    HW2  483   0.087   3.010   0.229 -0.2335  0.4278 -0.2276
  162SOL     OW  484   2.547   1.887   0.489  1.1978 -0.6439  0.0593
  162SOL    HW1  485   2.552   1.850   0.393 -2.2607  0.8446  3.0343
  162SOL    HW2  486   2.596   1.835   0.566  0.8227  0.0246  1.1431
  163SOL     OW  487   1.900   2.846   0.727 -0.0746  0.2156  0.2847
  163SOL    HW1  488   1.913   2.890   0.633  0.9310  0.4539  0.1409
  163SOL    HW2  489   1.958   2.757   0.733  1.5198 -1.3226 -0.3969
  164SOL     OW  490   3.062   0.260   1.221  0.0531  0.0653  0.1560
  164SOL    HW1  491   3.126   0.326   1.172  2.3435  1.8309  0.0611
  164SOL    HW2  492   3.106   0.212   1.298  0.4398 -0.0368  1.5124
  165SOL     OW  493   0.970   1.454   0.745 -0.1609  0.1058  0.2613
  165SOL    HW1  494   0.912   1.518   0.804  3.7266 -1.5081 -0.8365
  165SOL    HW2  495   0.942   1.476   0.646 -0.9332 -0.0211 -0.3322
  166SOL     OW  496   1.495   1.065   1.749  0.1775 -0.7653 -0.2057
  166SOL    HW1  497   1.420   1.057   1.824  1.0079  1.6473  2.4757
  166SOL    HW2  498   1.577   1.119   1.788  0.7742 -0.4553  1.2692
  167SOL     OW  499   0.720   1.946   1.446 -0.1071  1.0983 -0.5161
  167SOL    HW1  500   0.751   2.013   1.521  3.9444 -0.8598 -0.1322
  167SOL    HW2  501   0.673   1.862   1.488  1.0176 -1.3708  1.6738
  168SOL     OW  502   1.654   2.389   0.139 -0.0223 -0.3957  0.2752
  168SOL    HW1  503   1.719   2.442   0.075  4.4710  0.2446  3.1124
  168SOL    HW2  504   1.708   2.354   0.224  3.2838 -0.5231 -0.1266
  169SOL     OW  505   0.202   2.547   2.254  0.6715  0.2146  0.5520
  169SOL    HW1  506   0.218   2.489   2.172  3.1479 -1.2719  1.7709
  169SOL    HW2  507   0.240   2.503   2.343  0.0692 -1.6354  0.4064
  170SOL     OW  508   1.129   0.232   2.010  0.2322 -0.7610  0.1782
  170SOL    HW1  509   1.214   0.218   2.073 -0.9678  0.7766  2.6150
  170SOL    HW2  510   1.151   0.198   1.911  0.4656  0.9465 -2.6421
  171SOL     OW  511   0.184   0.779   2.412 -0.5913  0.3967 -0.2475
  171SOL    HW1  512   0.122   0.846   2.459  0.7989 -0.0253 -0.4880
  171SOL    HW2  513   0.155   0.769   2.315  0.7494 -1.1318 -1.0087
  172SOL     OW  514   0.923   1.015   2.901  0.2567 -0.4806 -0.7748
  172SOL    HW1  515   0.973   1.103   2.926  1.1309 -0.5411  0.8131
  172SOL    HW2  516   0.888   1.019   2.803  0.5303  0.7881  0.4208
  173SOL     OW  517   0.654   2.684   0.140  0.2846  0.0288  0.2099
  173SOL    HW1  518   0.690   2.786   0.139  0.0841 -1.7910  0.5037
  173SOL    HW2  519   0.550   2.679   0.139  2.7434  1.4496 -0.0974
  174SOL     OW  520   1.474   2.841   1.064  0.4146 -0.0734 -0.5162
  174SOL    HW1  521   1.448   2.925   1.005  2.1007 -2.2234 -1.0125
  174SOL    HW2  522   1.447   2.757   1.012  1.7886  0.0726 -3.9325
  175SOL     OW  523   0.406  -0.001   1.628  0.1034 -0.0902  0.1384
  175SOL    HW1  524   0.465   0.021   1.712  2.3676 -0.8190 -1.2956
  175SOL    HW2  525   0.348   0.079   1.592 -0.7387  0.8049 -0.3874
  176SOL     OW  526   2.614   0.398   0.002  0.3240  0.2865  0.3937
  176SOL    HW1  527   2.627   0.496   0.031 -0.5719 -0.8247 -0.7920
  176SOL    HW2  528   2.576   0.331   0.076 -2.0650 -3.1934 -0.2514
  177SOL     OW  529   0.356   0.306   1.004 -0.0623 -0.0003 -0.3801
  177SOL    HW1  530   0.295   0.220   0.985 -0.8826 -0.0699 -2.9907
  177SOL    HW2  531   0.301   0.391   1.040  0.5305  2.0472 -0.6577
  178SOL     OW  532   3.091   2.721   2.581  0.3584  0.6492 -0.3122
  178SOL    HW1  533   3.012   2.680   2.632 -0.1199  1.4203 -1.6615
  178SOL    HW2  534   3.174   2.742   2.641  0.6739  2.2831  0.0831
  179SOL     OW  535   3.090   1.625   1.145 -0.8035 -0.2556 -0.1994
  179SOL    HW1  536   2.994   1.654   1.144  0.4390 -1.5756 -3.9348
  179SOL    HW2  537   3.121   1.573   1.233  2.6856 -0.2751  0.8863
  180SOL     OW  538   0.185   1.219   1.867 -0.3194 -0.2009  0.1908
  180SOL    HW1  539   0.283   1.226   1.836  0.1283 -1.5055 -0.8521
  180SOL    HW2  540   0.152   1.306   1.922 -0.1640 -1.5137 -2.4151
  181SOL     OW  541   3.028   1.851   2.501  0.5437  0.2244 -0.0941
  181SOL    HW1  542   3.053   1.948   2.514  1.9122  0.5444  1.4364
  181SOL    HW2  543   2.936   1.837   2.458  2.7285  0.3443 -1.5280
  182SOL     OW  544   2.251   1.311   1.170  0.5026  0.3907  0.0842
  182SOL    HW1  545   2.191   1.251   1.109  2.0690 -2.1179  0.1388
  182SOL    HW2  546   2.261   1.405   1.135  0.2606 -1.8249 -3.1507
  183SOL     OW  547   1.484   2.232   2.586 -0.2825  0.7331  0.7327
  183SOL    HW1  548   1.392   2.205   2.552  1.7470  1.4698  0.0198
  183SOL    HW2  549   1.553   2.158   2.556  3.2175 -0.7234 -1.7336
  184SOL     OW  550   2.033   0.842   0.774 -1.1088  0.3472 -0.1711
  184SOL    HW1  551   1.967   0.908   0.724 -1.3060 -2.2062 -2.0490
  184SOL    HW2  552   1.979   0.764   0.822  0.6138 -1.7070 -2.4813
  185SOL     OW  553   1.622   2.771   2.061  0.3754 -0.3633 -0.4158
  185SOL    HW1  554   1.566   2.828   1.996  1.8705  0.7270  1.0879
  185SOL    HW2  555   1.642   2.815   2.153  1.9071 -1.5147 -0.1746
  186SOL     OW  556   0.098   2.192   1.643 -0.0649  0.3148  0.1873
  186SOL    HW1  557   0.078   2.263   1.719 -1.7298  2.0474 -1.4209
  186SOL    HW2  558   0.184   2.138   1.657 -2.0605  0.2792 -2.8163
  187SOL     OW  559   1.297   0.769   1.670 -0.0032 -0.1524  0.1164
  187SOL    HW1  560   1.374   0.803   1.611 -2.7219  0.6442  0.5789
  187SOL    HW2  561   1.321   0.759   1.769 -0.5853  3.2753  1.1486
  188SOL     OW  562   2.757   2.792   1.426  0.2272  0.0466 -0.2733
  188SOL    HW1  563   2.770   2.896   1.422 -0.9975  0.4210 -0.1593
  188SOL    HW2  564   2.688   2.751   1.364  1.5452 -1.6536  0.1192
  189SOL     OW  565   0.944   1.205   1.405  0.0045 -0.2806  0.2718
  189SOL    HW1  566   1.025   1.248   1.457  3.0906  1.3107  1.7583
  189SOL    HW2  567   0.865   1.274   1.397  0.8534  2.5809 -1.0711
  190SOL     OW  568   1.464   1.895   1.589 -0.0757  0.1845 -0.0466
  190SOL    HW1  569   1.413   1.803   1.610 -0.8271  1.9592  2.9454
  190SOL    HW2  570   1.472   1.944   1.678  2.2179 -2.1056 -0.3648
  191SOL     OW  571   0.971   0.732   1.575  0.1547 -0.2722  0.4610
  191SOL    HW1  572   1.066   0.694   1.572 -0.7034 -2.3265  2.7017
  191SOL    HW2  573   0.961   0.831   1.584 -1.4577 -1.7894  0.5869
  192SOL     OW  574   1.871   2.251   1.120  0.1053 -0.3706 -0.1166
  192SOL    HW1  575   1.771   2.259   1.097 -1.6823 -0.7366 -1.0105
  192SOL    HW2  576   1.934   2.304   1.055 -0.5962  0.8714 -0.2328
  193SOL     OW  577   0.587   0.577   0.467  0.3365 -0.0987  0.1664
  193SOL    HW1  578   0.533   0.490   0.494  0.2540 -4.6243 -0.1149
  193SOL    HW2  579   0.632   0.557   0.378 -0.5201  0.1212  2.7294
  194SOL     OW  580   0.336   0.864   1.286 -0.1294  0.3373 -0.1238
  194SOL    HW1  581   0.251   0.809   1.281 -1.6092  6.5711  1.5768
  194SOL    HW2  582   0.339   0.934   1.206 -1.2419  2.5669  0.8409
  195SOL     OW  583   1.007   2.879   0.547 -0.1626 -0.3032  0.1236
  195SOL    HW1  584   1.032   2.797   0.480  2.2856  0.5572  0.7563
  195SOL    HW2  585   1.088   2.944   0.562 -2.5420  1.8840 -2.2790
  196SOL     OW  586   0.211   1.326   1.369 -0.4784 -0.5891 -0.0004
  196SOL    HW1  587   0.230   1.422   1.407  0.3933 -0.1495  0.2649
  196SOL    HW2  588   0.211   1.255   1.446  1.9821 -0.3664  0.3092
  197SOL     OW  589   0.821   2.051   0.232 -0.3075  0.7287  0.0001
  197SOL    HW1  590   0.795   2.033   0.332 -1.1493 -0.9342 -1.1067
  197SOL    HW2  591   0.879   1.975   0.196 -0.4936  0.4527  1.5043
  198SOL     OW  592   0.298   1.246   0.232 -0.2560  0.3637  0.4244
  198SOL    HW1  593   0.195   1.228   0.213 -1.5535  0.6300  2.5172
  198SOL    HW2  594   0.313   1.332   0.282  0.9643 -3.6930 -0.8566
  199SOL     OW  595   2.232   0.370   2.538  0.5925 -0.4532 -0.6047
  199SOL    HW1  596   2.155   0.347   2.606 -2.7401 -1.1171  1.8441
  199SOL    HW2  597   2.326   0.345   2.578 -0.6289  0.8286 -0.3016
  200SOL     OW  598   0.026   2.943   0.750  0.2207 -0.5646  0.2618
  200SOL    HW1  599  -0.058   2.939   0.686 -1.9206  0.1078 -1.8786
  200SOL    HW2  600   0.029   3.021   0.818  1.2219  1.6864 -0.6237
  201SOL     OW  601   1.080   0.759   0.615 -0.5945 -0.4957 -0.4568
  201SOL    HW1  602   1.102   0.809   0.705 -0.9232 -0.0365 -0.8379
  201SOL    HW2  603   0.995   0.691   0.615 -0.4310 -0.6397  1.1548
  202SOL     OW  604   0.456   1.149   1.847 -0.6982 -0.7811  0.6171
  202SOL    HW1  605   0.532   1.099   1.798 -0.6811  0.3960  0.4627
  202SOL    HW2  606   0.465   1.136   1.945 -1.9060  0.9855 -0.3127
  203SOL     OW  607   0.656   0.202   1.542  0.0686 -0.0215 -0.6213
  203SOL    HW1  608   0.729   0.167   1.478 -1.7516 -0.4574 -0.3522
  203SOL    HW2  609   0.692   0.196   1.635 -0.0283 -1.4171 -0.7812
  204SOL     OW  610   2.065   1.852   2.926  0.5095 -0.4565 -0.4630
  204SOL    HW1  611   2.103   1.756   2.934 -3.6779  1.1731 -0.3496
  204SOL    HW2  612   2.093   1.894   2.837  0.4797  1.2236 -1.4180
  205SOL     OW  613   1.828   1.864   3.066  0.1180 -0.2048  0.0646
  205SOL    HW1  614   1.911   1.834   3.006 -2.2069 -2.6474  0.5702
  205SOL    HW2  615   1.794   1.958   3.040  2.2251 -0.9466  2.1522
  206SOL     OW  616   2.502   2.790   0.322  0.1028  0.0688  0.1240
  206SOL    HW1  617   2.569   2.720   0.353  1.0641 -0.9121 -0.3886
  206SOL    HW2  618   2.546   2.870   0.273  1.3141  0.5279  0.0438
  207SOL     OW  619   0.643   1.798   2.972  0.4344  0.1738  0.5223
  207SOL    HW1  620   0.744   1.782   2.961  0.8260  0.3778  2.1509
  207SOL    HW2  621   0.595   1.735   3.039 -1.4150 -2.0892 -0.5530
  208SOL     OW  622   1.118   1.569   1.385 -0.3328 -0.1863 -0.8081
  208SOL    HW1  623   1.155   1.643   1.324 -0.7554 -0.0462  0.1534
  208SOL    HW2  624   1.180   1.536   1.458  0.0262 -2.3660 -0.4609
  209SOL     OW  625   0.230   0.956   3.077 -0.6812 -0.4817 -0.4545
  209SOL    HW1  626   0.219   0.891   2.996 -0.2827 -0.5072  0.2607
  209SOL    HW2  627   0.247   0.900   3.164  1.4930  1.0271 -0.3477
  210SOL     OW  628   1.797   0.533   1.183  0.3571 -0.7447  0.0557
  210SOL    HW1  629   1.734   0.611   1.142  0.1842  1.9675 -0.6922
  210SOL    HW2  630   1.892   0.533   1.146  0.5662 -0.9834 -0.8730
  211SOL     OW  631   2.151   1.026   1.565 -1.0921  0.3844 -0.4499
  211SOL    HW1  632   2.201   0.982   1.649 -0.0388  0.3802 -0.2951
  211SOL    HW2  633   2.219   1.078   1.508  1.3265 -0.0183  0.5955
  212SOL     OW  634   0.013   0.962   1.474  0.0357 -0.1808 -0.0879
  212SOL    HW1  635   0.088   1.029   1.508  1.3480  0.5873 -1.6001
  212SOL    HW2  636   0.012   0.868   1.519  1.0321 -1.1115  0.2866
  213SOL     OW  637   2.845   0.271   0.380  0.1034 -0.4289  0.6952
  213SOL    HW1  638   2.887   0.193   0.328  0.4795 -1.0401  1.7890
  213SOL    HW2  639   2.783   0.331   0.332 -0.6970  0.7220 -2.2912
  214SOL     OW  640   2.167   0.245   2.306 -0.2993  0.4371 -0.2854
  214SOL    HW1  641   2.194   0.271   2.405 -1.9311 -4.6831  1.2904
  214SOL    HW2  642   2.150   0.142   2.300 -0.7107  0.8843  0.8483
  215SOL     OW  643   1.624   2.273   2.138  0.1612 -0.2706 -0.0867
  215SOL    HW1  644   1.710   2.305   2.093 -0.6020 -0.9464 -1.9877
  215SOL    HW2  645   1.566   2.359   2.166  2.6648  0.8849  0.5224
  216SOL     OW  646   2.195   0.658   0.643  0.3268 -0.2446  0.0735
  216SOL    HW1  647   2.145   0.576   0.611 -1.5089  0.3949 -1.2358
  216SOL    HW2  648   2.139   0.735   0.689  0.6242 -0.7063 -0.8612
  217SOL     OW  649   0.767   2.797   2.434  0.0561 -0.0564 -0.2563
  217SOL    HW1  650   0.743   2.710   2.484 -1.2866  2.6140  3.5291
  217SOL    HW2  651   0.762   2.790   2.331 -0.4277 -0.3815  0.7906
  218SOL     OW  652   1.921   1.441   0.033 -0.0480  0.0892 -0.2858
  218SOL    HW1  653   1.830   1.487   0.036  1.1412  1.0912 -1.5296
  218SOL    HW2  654   1.914   1.344   0.060 -0.1423 -2.1942  0.3189
  219SOL     OW  655   2.371   1.300   2.533  0.4698  0.3111  0.0807
  219SOL    HW1  656   2.432   1.272   2.451  0.8459  2.6873  0.4802
  219SOL    HW2  657   2.389   1.241   2.617  1.8860  0.2326  0.3045
  220SOL     OW  658   1.526   1.059   1.238 -0.0786 -0.0706  0.2571
  220SOL    HW1  659   1.616   1.083   1.282 -0.5355  0.1919  3.4466
  220SOL    HW2  660   1.502   1.102   1.145 -2.4878  0.5565  0.0754
  221SOL     OW  661   1.357   0.979   2.213 -0.0063  0.2580 -0.3086
  221SOL    HW1  662   1.307   0.996   2.128  0.9119 -0.7861  1.9193
  221SOL    HW2  663   1.457   0.958   2.199 -0.3818  2.2949 -1.5202
  222SOL     OW  664   1.128   0.015   1.174 -0.2452 -0.0223 -0.2030
  222SOL    HW1  665   1.206   0.056   1.225 -2.1417 -0.1438  0.6514
  222SOL    HW2  666   1.128   0.050   1.078 -2.9242  0.2024 -2.1446
  223SOL     OW  667   2.735   0.895   2.022  0.2718  0.4406  0.3326
  223SOL    HW1  668   2.696   0.924   2.113  0.0151  2.0503  0.4075
  223SOL    HW2  669   2.814   0.956   1.985  1.3513 -1.4703  0.2875
  224SOL     OW  670   1.536   1.015   2.780 -0.2230 -0.1302  0.2409
  224SOL    HW1  671   1.591   0.963   2.710 -0.2443  1.9149  2.6656
  224SOL    HW2  672   1.463   1.079   2.736 -1.1878  3.2034 -0.3734
  225SOL     OW  673   2.921   2.775   2.871  0.3180 -0.2141 -0.2435
  225SOL    HW1  674   2.910   2.680   2.827 -3.4542  1.0292  1.0573
  225SOL    HW2  675   2.991   2.838   2.830  0.7716  1.2230  0.8662
  226SOL     OW  676   2.428   1.578   2.824  0.6823 -0.3561  0.6948
  226SOL    HW1  677   2.478   1.539   2.745 -2.0999  1.2663  0.0604
  226SOL    HW2  678   2.356   1.509   2.863  1.4102 -1.0501 -0.0056
  227SOL     OW  679   0.824   0.150   3.091  0.3438  0.0831  0.9230
  227SOL    HW1  680   0.900   0.081   3.105  3.0818  1.1469  0.1125
  227SOL    HW2  681   0.811   0.164   2.988 -4.3794  0.1065  0.7454
  228SOL     OW  682   2.392   0.624   2.852 -0.5116  0.2756 -0.4665
  228SOL    HW1  683   2.352   0.641   2.761  3.3277  2.9520  1.1169
  228SOL    HW2  684   2.480   0.568   2.846  0.9316  1.5331  1.5148
  229SOL     OW  685   0.633   0.417   1.853 -0.2625  0.4589 -0.7328
  229SOL    HW1  686   0.623   0.311   1.867  0.1344  1.6061  0.1726
  229SOL    HW2  687   0.659   0.461   1.759 -0.5464 -0.0470  1.7241
  230SOL     OW  688   1.878   1.149   2.110 -0.7855  0.0379 -0.2031
  230SOL    HW1  689   1.952   1.208   2.080 -3.3724 -0.0990 -1.2270
  230SOL    HW2  690   1.788   1.198   2.105 -0.0295  1.7049 -0.5459
  231SOL     OW  691   0.676   1.017   3.039 -0.5937  0.2826  0.5799
  231SOL    HW1  692   0.772   1.031   3.004 -0.6840  1.7302  3.7372
  231SOL    HW2  693   0.614   1.092   3.012  0.3812  0.5197  0.7496
  232SOL     OW  694   2.365   3.100   2.832 -0.3630 -0.4432  0.4178
  232SOL    HW1  695   2.410   3.007   2.849  0.6025 -1.2527 -0.0136
  232SOL    HW2  696   2.414   3.149   2.758 -0.3669  0.7794  1.7170
  233SOL     OW  697   1.718   1.293   1.144 -0.3859  0.3474 -0.0737
  233SOL    HW1  698   1.707   1.285   1.042 -1.4490 -1.9529 -0.5517
  233SOL    HW2  699   1.781   1.216   1.182  0.3838 -3.0266  2.1518
  234SOL     OW  700   1.596   2.591   1.847 -0.7024 -0.5755 -0.0803
  234SOL    HW1  701   1.618   2.653   1.926 -0.0636 -0.1189  0.6870
  234SOL    HW2  702   1.499   2.557   1.860  0.4964  0.8701 -0.9386
  235SOL     OW  703   0.008   2.978   2.868 -0.4091 -0.0982 -0.4064
  235SOL    HW1  704   0.024   3.039   2.785  1.4915 -0.7609 -1.3845
  235SOL    HW2  705  -0.059   3.014   2.941 -0.6519 -0.3215  3.1775
  236SOL     OW  706   2.924   0.719   0.071  0.3237 -0.3616  0.0842
  236SOL    HW1  707   2.980   0.788   0.124  0.8491 -0.7761 -1.1659
  236SOL    HW2  708   2.984   0.635   0.056  0.8870 -0.0942 -0.2393
  237SOL     OW  709   1.522   1.712   1.024  0.4236 -0.4383 -0.2283
  237SOL    HW1  710   1.626   1.689   1.021 -1.1624  1.6165 -1.3960
  237SOL    HW2  711   1.492   1.749   1.115 -0.6497  0.2726 -0.6526
  238SOL     OW  712   1.756   1.286   0.868 -0.0477 -0.2322 -0.5994
  238SOL    HW1  713   1.831   1.353   0.904  2.8880  2.5591 -0.0968
  238SOL    HW2  714   1.678   1.334   0.814 -3.2460 -0.5652  2.6699
  239SOL     OW  715   2.056   0.266   2.704  0.1173  0.1430 -0.8019
  239SOL    HW1  716   2.110   0.238   2.790  0.9079  0.3738 -0.5140
  239SOL    HW2  717   1.969   0.326   2.729 -1.0864  2.0378 -2.5746
  240SOL     OW  718   0.902   0.628   0.333 -0.4587 -0.1074 -0.4218
  240SOL    HW1  719   0.945   0.544   0.290 -0.5529  4.3316  0.6574
  240SOL    HW2  720   0.872   0.600   0.428 -1.9650  1.1295 -1.5952
  241SOL     OW  721   0.595   0.100   0.380 -0.7511 -0.9136  0.6058
  241SOL    HW1  722   0.638   0.174   0.318  0.7915  2.4734  1.7899
  241SOL    HW2  723   0.590   0.013   0.332 -2.1833  1.2422  2.7279
  242SOL     OW  724   0.662   2.518   1.117  0.0146 -0.3802  0.4148
  242SOL    HW1  725   0.623   2.540   1.209  0.2523  0.7411 -0.0609
  242SOL    HW2  726   0.731   2.584   1.082 -0.3407 -0.2335 -0.9058
  243SOL     OW  727   1.085   0.581   2.493  0.0790  0.1699  0.1233
  243SOL    HW1  728   1.000   0.641   2.473  0.0958 -1.2855  0.0595
  243SOL    HW2  729   1.097   0.575   2.594  0.6574 -0.1494  0.6494
  244SOL     OW  730   2.789   1.892   2.312 -0.0133 -0.5715 -0.4461
  244SOL    HW1  731   2.838   1.871   2.227 -0.8674  4.2882  0.9931
  244SOL    HW2  732   2.697   1.842   2.318  2.2227 -0.3553 -1.8614
  245SOL     OW  733   2.366   0.674   2.216 -0.6602  0.4137 -0.1666
  245SOL    HW1  734   2.436   0.736   2.255 -2.3596  2.2607 -2.8469
  245SOL    HW2  735   2.403   0.576   2.210 -1.4906 -3.2842  1.3808
  246SOL     OW  736   0.204   2.912   1.694 -0.1744  0.2534 -0.0858
  246SOL    HW1  737   0.132   2.897   1.620  1.1528  2.9291  1.2487
  246SOL    HW2  738   0.294   2.951   1.663 -0.8592 -2.0014 -0.5772
  247SOL     OW  739   2.153   0.586   3.044  0.6363  0.3803 -0.1494
  247SOL    HW1  740   2.197   0.554   2.962 -0.5851 -0.0386  2.6207
  247SOL    HW2  741   2.122   0.681   3.038 -1.0910 -0.1354 -0.4191
  248SOL     OW  742   2.155   1.840   1.590 -0.0568 -0.0331  0.1454
  248SOL    HW1  743   2.216   1.793   1.657 -2.2008 -0.6646  1.8346
  248SOL    HW2  744   2.059   1.813   1.609  1.7391  0.4440 -1.7447
  249SOL     OW  745   1.854   1.907   1.915  0.0937  0.2283 -0.1534
  249SOL    HW1  746   1.884   1.823   1.857 -1.4442 -0.1987  0.4033
  249SOL    HW2  747   1.926   1.977   1.928 -1.4173 -1.1351 -0.3793
  250SOL     OW  748   1.129   0.711   1.959 -0.1759  0.2887  0.7098
  250SOL    HW1  749   1.164   0.612   1.984 -1.4540 -0.7325  0.4449
  250SOL    HW2  750   1.081   0.712   1.867  2.2627 -1.0497 -0.4915
  251SOL     OW  751   0.016   1.567   2.509  0.0443  0.2330 -0.4024
  251SOL    HW1  752   0.023   1.664   2.480  0.0836 -0.9404 -0.6584
  251SOL    HW2  753  -0.079   1.525   2.520  1.9931  0.0492 -0.5715
  252SOL     OW  754   1.519   0.856   1.545 -0.0219 -0.0893  0.1641
  252SOL    HW1  755   1.617   0.840   1.523 -3.4933 -0.3137  0.4402
  252SOL    HW2  756   1.516   0.926   1.618  1.4221  0.9118 -2.0506
  253SOL     OW  757   0.900   1.524   0.499  0.8753 -0.4352  0.0474
  253SOL    HW1  758   0.931   1.446   0.443  0.5711 -0.2543 -3.1720
  253SOL    HW2  759   0.798   1.545   0.492  3.5197 -1.0680  4.0958
  254SOL     OW  760   2.023   2.154   1.617 -0.0627 -0.0093  0.1159
  254SOL    HW1  761   2.006   2.080   1.548 -0.2818  2.5351 -0.9608
  254SOL    HW2  762   1.945   2.171   1.681  2.8721 -0.3337  2.7778
  255SOL     OW  763   0.134   1.158   2.875  0.3104 -0.1410 -0.4494
  255SOL    HW1  764   0.202   1.230   2.849  2.6444  0.7917  0.7477
  255SOL    HW2  765   0.174   1.087   2.934  2.0433  0.2931  0.4814
  256SOL     OW  766   2.804   1.367   1.751  0.0942  0.0878  0.2598
  256SOL    HW1  767   2.723   1.428   1.768  0.4197 -1.2254  0.9797
  256SOL    HW2  768   2.780   1.269   1.726  0.5588  0.7182 -0.5368
  257SOL     OW  769   0.816   0.207   1.797  0.3898 -0.5644 -0.2241
  257SOL    HW1  770   0.860   0.291   1.750 -0.2192  3.3058 -1.0390
  257SOL    HW2  771   0.861   0.121   1.759  0.1342 -0.6670 -1.6256
  258SOL     OW  772   2.933   1.283   0.455  0.4846  0.0456 -0.2666
  258SOL    HW1  773   2.840   1.326   0.475 -0.7745  1.0505 -0.1488
  258SOL    HW2  774   2.980   1.272   0.550 -1.2433  1.4559 -0.8481
  259SOL     OW  775   0.471   2.964   3.048 -0.0821 -0.1091  0.4809
  259SOL    HW1  776   0.388   2.920   3.088 -0.5024 -1.9432  1.4785
  259SOL    HW2  777   0.482   2.940   2.943 -1.1146  0.2906 -0.4710
  260SOL     OW  778   2.745   0.847   2.779 -0.6868  0.0088  0.8876
  260SOL    HW1  779   2.642   0.825   2.772  0.0033  1.9194  2.0150
  260SOL    HW2  780   2.761   0.861   2.877 -2.6490 -0.6333 -2.3192
  261SOL     OW  781   2.753   1.307   1.290  0.4164 -0.1327  0.0050
  261SOL    HW1  782   2.699   1.248   1.225 -0.4074 -0.1758 -2.5074
  261SOL    HW2  783   2.815   1.249   1.357  1.6297  0.6183  1.2491
  262SOL     OW  784   1.414   2.983   2.019 -0.9337 -0.2994 -0.5719
  262SOL    HW1  785   1.451   3.048   1.945  0.5471  1.0000  1.6537
  262SOL    HW2  786   1.331   2.933   1.988  2.0528 -0.5322 -0.8262
  263SOL     OW  787   0.865   0.716   2.333 -0.0049  0.5494 -0.7121
  263SOL    HW1  788   0.837   0.626   2.292 -2.7686  2.9611  1.4369
  263SOL    HW2  789   0.916   0.771   2.265 -0.1091  1.7542  2.9369
  264SOL     OW  790   2.196   0.844   0.340  0.2040  0.2624  0.6206
  264SOL    HW1  791   2.207   0.738   0.361  0.8879 -1.0678 -0.7094
  264SOL    HW2  792   2.290   0.894   0.322 -0.6979 -1.0207  2.6124
  265SOL     OW  793   0.908   2.371   2.673  0.3529  0.6109  0.0460
  265SOL    HW1  794   0.967   2.413   2.749 -0.9463 -0.2116 -0.8279
  265SOL    HW2  795   0.866   2.284   2.698  0.1150  2.9193 -1.8447
  266SOL     OW  796   1.342   1.688   3.098  0.1550 -0.3669 -0.3212
  266SOL    HW1  797   1.345   1.764   3.171  2.8294 -1.2360 -0.9749
  266SOL    HW2  798   1.429   1.695   3.038  0.7788 -0.0203  0.3741
  267SOL     OW  799   0.959   3.034   2.360  0.1358 -0.2599  0.0839
  267SOL    HW1  800   0.983   3.017   2.260 -0.6880  0.7320 -0.4237
  267SOL    HW2  801   0.900   3.121   2.370  2.3341  3.3181  2.3709
  268SOL     OW  802   0.669   1.194   1.063 -0.4737  0.6954 -0.2820
  268SOL    HW1  803   0.686   1.243   1.155  1.6577 -1.7894 -1.6855
  268SOL    HW2  804   0.662   1.267   0.990 -0.0096  2.1832 -1.8094
  269SOL     OW  805   2.374   2.525   1.560 -0.4869  0.1988  0.5408
  269SOL    HW1  806   2.477   2.506   1.552 -0.3906  1.3232 -1.9415
  269SOL    HW2  807   2.331   2.524   1.656  0.4290 -0.8382  0.5299
  270SOL     OW  808   0.174   2.987   1.956  0.2749 -0.2017  0.6904
  270SOL    HW1  809   0.200   2.943   1.865 -1.0748 -0.5529  1.8587
  270SOL    HW2  810   0.104   2.929   2.008 -0.2231  0.7802  0.4395
  271SOL     OW  811   0.414   1.370   1.164  0.0944  0.1946 -0.2146
  271SOL    HW1  812   0.360   1.366   1.072  1.4841 -0.0069 -0.2265
  271SOL    HW2  813   0.353   1.367   1.251 -0.2848  1.0284 -1.7193
  272SOL     OW  814   1.980   2.863   1.929  0.4194  0.1236  0.1751
  272SOL    HW1  815   1.938   2.812   1.843  1.9717  1.7065  0.6352
  272SOL    HW2  816   2.056   2.930   1.900  2.5860  1.9713 -2.0377
  273SOL     OW  817   1.458   1.435   2.768 -0.0391 -0.2292 -0.2165
  273SOL    HW1  818   1.385   1.503   2.801 -0.1855  1.3702  0.1575
  273SOL    HW2  819   1.502   1.381   2.847  2.1651 -1.0504  0.7198
  274SOL     OW  820   1.238   0.482   2.011 -0.3400  0.4165  0.0068
  274SOL    HW1  821   1.191   0.394   1.984 -0.2452  1.3413  0.4264
  274SOL    HW2  822   1.273   0.490   2.111 -1.2816 -0.5443 -1.2951
  275SOL     OW  823   0.594   2.092   1.882 -0.1170 -0.5409  0.6122
  275SOL    HW1  824   0.544   2.176   1.924 -2.7179  0.0986 -0.4147
  275SOL    HW2  825   0.540   2.000   1.884  0.4523  2.1127 -1.6836
  276SOL     OW  826   2.171   0.879   2.769  0.0850 -0.2575 -1.2945
  276SOL    HW1  827   2.123   0.873   2.677 -0.7599  1.1951  2.1485
  276SOL    HW2  828   2.121   0.833   2.849  0.8469  1.6798  2.0304
  277SOL     OW  829   3.075   0.889   0.224 -0.3007  0.5349 -0.0681
  277SOL    HW1  830   3.170   0.930   0.207 -0.5885  1.9248 -1.1686
  277SOL    HW2  831   3.073   0.805   0.287 -0.9171 -0.6419 -2.2111
  278SOL     OW  832   0.233   0.286   0.002  0.1112  0.2727 -0.8530
  278SOL    HW1  833   0.329   0.245   0.024 -1.7575 -3.0013 -0.6292
  278SOL    HW2  834   0.243   0.386  -0.019  2.0517 -2.4128  0.2702
  279SOL     OW  835   0.165   0.076   0.883 -0.4492  0.1213 -0.0353
  279SOL    HW1  836   0.183   0.002   0.957  1.3418  1.3307  0.7862
  279SOL    HW2  837   0.204   0.049   0.790  0.7542 -0.9384  2.0276
  280SOL     OW  838   1.568   2.952   2.456 -0.3917  0.2508 -0.7981
  280SOL    HW1  839   1.629   3.014   2.511  0.8735 -2.3919 -1.8572
  280SOL    HW2  840   1.506   3.005   2.392  1.8284 -1.1667 -4.5093
  281SOL     OW  841   0.559   0.936   2.207 -0.0438  0.5461 -0.6030
  281SOL    HW1  842   0.532   0.862   2.136 -0.3561 -0.5184 -0.6618
  281SOL    HW2  843   0.519   0.910   2.300  1.7798 -0.0664  0.9477
  282SOL     OW  844   1.790   2.488   0.538  0.3220 -0.6034  0.4425
  282SOL    HW1  845   1.759   2.407   0.480  0.5711  0.8107 -0.0146
  282SOL    HW2  846   1.725   2.567   0.519  0.9500 -1.6304  1.5425
  283SOL     OW  847   1.126   0.921   0.867 -0.2263  0.2515  0.5145
  283SOL    HW1  848   1.136   0.864   0.952  1.9535 -3.5755 -0.9979
  283SOL    HW2  849   1.060   0.998   0.865 -0.9729 -1.0692 -1.6405
  284SOL     OW  850   2.360   2.705   2.467 -1.0235  0.1332  0.1043
  284SOL    HW1  851   2.394   2.764   2.388 -1.3111 -1.5904  3.2913
  284SOL    HW2  852   2.393   2.737   2.555 -1.2221 -3.0647  0.4315
  285SOL     OW  853   1.297   3.034   2.579 -0.2797  0.2259  0.4055
  285SOL    HW1  854   1.324   3.066   2.481 -2.3071 -0.3277  2.1395
  285SOL    HW2  855   1.203   3.060   2.602  1.4980  0.4391 -0.4514
  286SOL     OW  856   0.455   0.474   0.775  0.1668  0.3822 -0.3567
  286SOL    HW1  857   0.429   0.420   0.861 -0.6564  0.0548  0.2371
  286SOL    HW2  858   0.475   0.414   0.691  0.2627 -2.0159 -0.3434
  287SOL     OW  859   0.118   1.284   2.529 -0.6746 -0.0569  0.0764
  287SOL    HW1  860   0.038   1.221   2.557  1.0760 -1.9528 -0.0700
  287SOL    HW2  861   0.110   1.377   2.563  2.5617  2.6483 -3.8390
  288SOL     OW  862   1.590   2.657   1.590  0.0109 -0.9451 -0.2729
  288SOL    HW1  863   1.608   2.623   1.688  2.7159 -2.3984  1.6861
  288SOL    HW2  864   1.638   2.600   1.527  1.5539  2.1775  3.1738
  289SOL     OW  865   0.640   2.715   0.863  0.3669 -0.0922  0.6555
  289SOL    HW1  866   0.700   2.777   0.806  0.7568 -1.1485 -0.2119
  289SOL    HW2  867   0.602   2.765   0.949  0.9657  0.2987  0.3612
  290SOL     OW  868   2.784   1.099   1.696  0.2814 -0.1228  0.2230
  290SOL    HW1  869   2.716   1.027   1.678  1.3867 -0.0111 -0.0918
  290SOL    HW2  870   2.865   1.059   1.744 -0.7093 -0.6816 -1.3270
  291SOL     OW  871   1.992   0.071   0.064 -0.1672 -0.5635  0.1427
  291SOL    HW1  872   1.999   0.019   0.152 -1.1749  0.5552 -1.7817
  291SOL    HW2  873   2.048   0.158   0.047  1.7298 -1.0554 -0.9641
  292SOL     OW  874   3.001   1.184   3.039 -0.5750 -0.7718 -0.6438
  292SOL    HW1  875   2.921   1.229   2.983 -0.0381  1.8368  0.2418
  292SOL    HW2  876   3.092   1.183   2.983  0.3363  0.6793 -0.8867
  293SOL     OW  877   0.567   2.133   0.165 -0.3354  0.1307  0.4109
  293SOL    HW1  878   0.522   2.193   0.234  1.5890 -3.7490 -1.1346
  293SOL    HW2  879   0.668   2.114   0.186  1.3612  0.2805  0.3728
  294SOL     OW  880   1.810   2.227   1.760  0.1822  0.6334 -0.4749
  294SOL    HW1  881   1.840   2.295   1.836  1.4049 -0.3427 -0.8631
  294SOL    HW2  882   1.771   2.267   1.671  0.7957  3.0005  3.0112
  295SOL     OW  883   0.981   1.047   0.513 -0.2864  0.3060 -0.4432
  295SOL    HW1  884   1.063   1.016   0.565 -0.2201  1.5560  2.1568
  295SOL    HW2  885   0.895   1.040   0.566  2.7370  1.5012 -3.3393
  296SOL     OW  886   1.240   2.124   2.527 -0.8925  0.3746 -0.3304
  296SOL    HW1  887   1.182   2.166   2.450 -0.8927  0.5871  2.6746
  296SOL    HW2  888   1.272   2.029   2.512 -0.1083  0.2944 -4.0333
  297SOL     OW  889   1.437   0.626   1.355 -0.1429  0.1378 -0.2090
  297SOL    HW1  890   1.415   0.522   1.356  0.0823 -0.9437  0.2178
  297SOL    HW2  891   1.535   0.652   1.375 -1.9578 -0.4699 -0.0789
  298SOL     OW  892   0.550   1.379   2.968  0.2002  0.0329  0.0442
  298SOL    HW1  893   0.501   1.322   3.035  1.4520  2.0810  0.2705
  298SOL    HW2  894   0.590   1.326   2.881 -0.0313 -1.6202  0.6325
  299SOL     OW  895   0.499   0.285   1.300 -0.5465 -0.0122  0.3714
  299SOL    HW1  896   0.451   0.372   1.282 -3.5591 -3.4044  0.4935
  299SOL    HW2  897   0.572   0.292   1.374 -1.1359  1.7324 -2.4733
  300SOL     OW  898   1.214   1.820   2.776  0.2606 -0.8862 -0.8900
  300SOL    HW1  899   1.175   1.733   2.818 -2.8962  0.2198 -2.2025
  300SOL    HW2  900   1.313   1.834   2.787 -1.8199 -1.3888  0.2121
  301SOL     OW  901   0.450   0.354   0.501 -0.1074  0.3735  0.2972
  301SOL    HW1  902   0.347   0.328   0.502 -2.7626 -0.4636 -0.8278
  301SOL    HW2  903   0.499   0.276   0.453 -1.1387 -0.1144 -1.6186
  302SOL     OW  904   1.240   2.479   2.352  0.8510  0.7164  0.0282
  302SOL    HW1  905   1.163   2.536   2.385  2.7712 -1.2920 -1.6024
  302SOL    HW2  906   1.206   2.378   2.349 -1.5508 -1.1714 -1.0767
  303SOL     OW  907   0.946   2.392   0.844 -0.6638  0.6762 -0.0989
  303SOL    HW1  908   1.015   2.406   0.769 -1.3912 -0.6037 -0.1775
  303SOL    HW2  909   0.955   2.461   0.921 -2.5101 -0.5615  0.8265
  304SOL     OW  910   0.092   2.006   0.636 -0.7991 -0.6446 -0.3693
  304SOL    HW1  911   0.139   1.948   0.563  1.3940 -0.5679  0.0694
  304SOL    HW2  912   0.029   2.084   0.598  2.6007  2.4660  2.4958
  305SOL     OW  913   1.648   0.903   0.571 -0.2437 -0.8617  0.1967
  305SOL    HW1  914   1.579   0.906   0.497  2.7000 -0.1160 -1.0201
  305SOL    HW2  915   1.662   0.805   0.607  1.7884 -1.8664 -0.4007
  306SOL     OW  916   0.436   1.869   1.918 -0.3547 -0.0119  0.0957
  306SOL    HW1  917   0.482   1.779   1.909  3.7466  0.6004 -0.4396
  306SOL    HW2  918   0.443   1.896   2.017  0.5608 -1.9520 -1.4143
  307SOL     OW  919   3.082   0.913   2.511  0.5641  0.0903  0.0225
  307SOL    HW1  920   3.076   1.000   2.574  1.9436  0.0131  0.4378
  307SOL    HW2  921   3.001   0.847   2.533 -0.3399  1.4598  1.0950
  308SOL     OW  922   1.568   2.665   2.801  0.4507  0.2716 -0.2312
  308SOL    HW1  923   1.548   2.604   2.716 -1.7589  3.6630  1.0664
  308SOL    HW2  924   1.524   2.628   2.886 -1.2787  2.5441 -0.2938
  309SOL     OW  925   1.235   0.146   1.784 -0.1416  0.7048  0.3606
  309SOL    HW1  926   1.329   0.102   1.807 -0.4596  1.9094  2.0517
  309SOL    HW2  927   1.211   0.147   1.683  1.0662 -0.3396  0.1886
  310SOL     OW  928   1.509   2.538   0.682 -0.1609 -0.1475  0.1006
  310SOL    HW1  929   1.505   2.561   0.783  1.0214 -1.2722 -0.7056
  310SOL    HW2  930   1.567   2.603   0.631  0.3107 -0.4776  2.4504
  311SOL     OW  931   1.187   1.013   1.624  0.5920 -0.0113 -0.0182
  311SOL    HW1  932   1.229   0.921   1.633 -1.7126  0.0336 -2.0642
  311SOL    HW2  933   1.235   1.070   1.556 -0.2743 -0.7804 -1.3314
  312SOL     OW  934   1.616   0.698   1.062  0.3469  0.7500 -0.1900
  312SOL    HW1  935   1.579   0.787   1.024  0.0986 -2.8626  0.4018
  312SOL    HW2  936   1.541   0.625   1.069  1.6205  0.6239  0.3565
  313SOL     OW  937   1.533   1.378   0.737 -0.2244  0.2035  0.3551
  313SOL    HW1  938   1.453   1.433   0.778  1.4185 -0.1356  1.2985
  313SOL    HW2  939   1.493   1.314   0.670 -0.1484  1.3779  1.0870
  314SOL     OW  940   2.944   0.046   3.002  0.5671  0.4894 -0.1295
  314SOL    HW1  941   2.940   0.068   3.107 -0.7336  0.7906 -0.2135
  314SOL    HW2  942   2.853   0.005   2.974  0.4306  2.5725 -1.1805
  315SOL     OW  943   1.232   0.209   2.784 -0.4806 -0.3501 -0.6325
  315SOL    HW1  944   1.190   0.133   2.727  1.8957  2.8850 -0.2545
  315SOL    HW2  945   1.251   0.188   2.881 -1.9660  0.1250 -0.0951
  316SOL     OW  946   1.715   2.035   0.843  0.2795 -0.0234  0.1720
  316SOL    HW1  947   1.664   2.027   0.936 -2.0986  0.3919  0.7912
  316SOL    HW2  948   1.733   2.132   0.816 -0.2542  0.1204 -2.0419
  317SOL     OW  949   1.124   0.651   2.889  0.6383  0.4032  0.4039
  317SOL    HW1  950   1.083   0.702   2.967  0.2200 -0.4294 -0.7234
  317SOL    HW2  951   1.059   0.595   2.825 -1.2500 -3.2501  0.0890
  318SOL     OW  952   1.357   3.092   2.320  0.1978  0.0530  0.1867
  318SOL    HW1  953   1.337   3.193   2.310  0.2478  0.4985  0.9113
  318SOL    HW2  954   1.364   3.059   2.226 -1.0100  2.4130  0.8635
  319SOL     OW  955   0.716   2.417   2.918 -0.4313 -0.8222 -0.0102
  319SOL    HW1  956   0.633   2.374   2.964 -2.0731 -1.1039 -0.9344
  319SOL    HW2  957   0.809   2.390   2.960 -0.8368  0.7293  0.6697
  320SOL     OW  958   1.714   2.268   0.407 -0.0594 -0.1089  0.1129
  320SOL    HW1  959   1.779   2.193   0.407 -1.9245  2.6560  0.7515
  320SOL    HW2  960   1.613   2.234   0.416 -1.3605 -2.3071 -1.0764
  321SOL     OW  961   1.637   2.745   0.502 -0.6285  0.4325 -0.2322
  321SOL    HW1  962   1.553   2.753   0.440 -1.2296 -2.3474  0.3108
  321SOL    HW2  963   1.715   2.805   0.469  0.6325 -0.6942  3.1313
  322SOL     OW  964   2.587   1.160   2.384 -0.0036 -0.2583 -0.2763
  322SOL    HW1  965   2.680   1.194   2.408 -0.9255  0.8919 -1.0257
  322SOL    HW2  966   2.577   1.059   2.375  0.5330 -0.0015 -4.6634
  323SOL     OW  967   1.179   2.638   0.869  0.0890 -0.0398 -0.1336
  323SOL    HW1  968   1.149   2.586   0.783  1.6372  0.9676 -0.7620
  323SOL    HW2  969   1.146   2.737   0.868 -0.4329  1.0193  2.1719
  324SOL     OW  970   0.260   2.487   2.517  0.1811 -0.3180 -0.5099
  324SOL    HW1  971   0.316   2.496   2.608 -0.0402 -1.9557  0.1419
  324SOL    HW2  972   0.164   2.532   2.526 -0.6887  0.1038  2.8817
  325SOL     OW  973   1.272   3.048   0.499  0.5363  0.4793 -0.4608
  325SOL    HW1  974   1.256   3.086   0.401  0.9659  2.3231  0.9052
  325SOL    HW2  975   1.302   3.125   0.566  0.3888  0.1885  1.8278
  326SOL     OW  976   2.463   0.786   3.064  0.3092  0.8236 -0.3830
  326SOL    HW1  977   2.422   0.723   2.992  3.7415  1.0331 -2.2820
  326SOL    HW2  978   2.512   0.732   3.141  0.6738 -0.7152  0.7151
  327SOL     OW  979   2.849   0.355   0.633  0.0352 -0.3452 -0.3069
  327SOL    HW1  980   2.850   0.308   0.542  0.1624  0.2179  1.5154
  327SOL    HW2  981   2.913   0.319   0.708 -0.0140 -0.3708 -0.6609
  328SOL     OW  982   2.569   0.566   0.391  0.3213  0.1955 -0.1162
  328SOL    HW1  983   2.537   0.665   0.409 -1.9425  2.2903 -0.6172
  328SOL    HW2  984   2.579   0.504   0.476  0.4766 -1.1217  3.2788
  329SOL     OW  985   2.971   2.925   2.132  0.0679 -0.7312 -0.0214
  329SOL    HW1  986   3.038   2.892   2.206 -0.4978  0.3805  3.7039
  329SOL    HW2  987   2.983   3.021   2.100 -0.6198  0.7124 -0.8350
  330SOL     OW  988   0.574   0.136   1.894 -0.6198 -0.5347  0.1503
  330SOL    HW1  989   0.664   0.161   1.853 -0.2274 -0.0988 -1.2208
  330SOL    HW2  990   0.586   0.074   1.973  0.4846  0.1263 -1.0582
  331SOL     OW  991   2.986   1.901   1.151  0.1705  0.1941  0.6134
  331SOL    HW1  992   3.028   1.989   1.110  2.4805 -0.7404  0.0370
  331SOL    HW2  993   2.900   1.920   1.207  2.6047 -2.0914  1.4464
  332SOL     OW  994   0.428   1.163   3.090 -0.1402  0.2420  0.1028
  332SOL    HW1  995   0.391   1.064   3.074  0.0582  0.0244 -0.7764
  332SOL    HW2  996   0.383   1.204   3.172  1.3521  1.0564 -2.3400
  333SOL     OW  997   2.882   1.053   0.340 -0.6202 -0.4535 -0.2975
  333SOL    HW1  998   2.911   1.131   0.401  0.8875 -2.5149 -0.6111
  333SOL    HW2  999   2.958   1.015   0.277 -2.1055 -0.8011  1.8118
  334SOL     OW 1000   1.682   1.268   1.840  0.1693  0.6498  0.0329
  334SOL    HW1 1001   1.777   1.234   1.816  1.8133  1.9533 -0.3411
  334SOL    HW2 1002   1.680   1.298   1.938 -2.0284 -0.0686  0.2583
  335SOL     OW 1003   2.005   2.726   2.600 -0.0534 -0.0745  0.0038
  335SOL    HW1 1004   1.922   2.743   2.656  2.6679  1.3355  0.1621
  335SOL    HW2 1005   2.085   2.775   2.638 -1.7829 -2.6437  0.7172
  336SOL     OW 1006   0.268   0.181   2.783 -0.4449  0.5292  0.5005
  336SOL    HW1 1007   0.345   0.169   2.851 -0.5031 -1.8006  0.4912
  336SOL    HW2 1008   0.191   0.238   2.815  0.7074 -1.8388  0.6228
  337SOL     OW 1009   0.938   2.803   2.825 -0.4650  0.6909  0.6470
  337SOL    HW1 1010   0.940   2.762   2.922 -0.8129  0.9181  1.1108
  337SOL    HW2 1011   1.027   2.782   2.775 -1.7876  0.5329 -0.4911
  338SOL     OW 1012   0.007   1.027   0.616 -0.2506  0.2646  0.0425
  338SOL    HW1 1013  -0.089   0.997   0.642 -1.7482 -2.2570 -0.2566
  338SOL    HW2 1014   0.025   1.130   0.636  1.6092  1.9154  0.0973
  339SOL     OW 1015   1.685   1.342   2.117  0.0266 -0.1451  0.4651
  339SOL    HW1 1016   1.584   1.337   2.135 -0.2282 -0.3883 -1.1753
  339SOL    HW2 1017   1.732   1.433   2.132 -1.6209 -0.3485 -1.7962
  340SOL     OW 1018   2.361   0.802   1.126 -0.3372 -0.4045 -0.4122
  340SOL    HW1 1019   2.274   0.840   1.081  0.1289  2.6010 -0.8767
  340SOL    HW2 1020   2.384   0.706   1.101  0.5539  1.0490 -0.5212
  341SOL     OW 1021   1.910   2.094   0.336 -0.7379  0.1594  0.0772
  341SOL    HW1 1022   1.922   2.151   0.251 -2.6029 -2.3134  0.3993
  341SOL    HW2 1023   1.998   2.073   0.388  0.9430  0.6232 -0.1946
  342SOL     OW 1024   2.257   2.109   2.709  0.0466  0.6375 -0.1836
  342SOL    HW1 1025   2.312   2.025   2.741 -0.4318  0.2815  0.0936
  342SOL    HW2 1026   2.152   2.095   2.719  1.8481 -2.9820  0.6800
  343SOL     OW 1027   0.361   0.880   2.743 -0.4453  0.3823 -0.6838
  343SOL    HW1 1028   0.383   0.884   2.645  0.6088 -2.3275  3.5553
  343SOL    HW2 1029   0.449   0.861   2.799 -2.5895  2.6675  0.0853
  344SOL     OW 1030   1.906   1.446   0.386 -0.5130 -0.2168  0.3052
  344SOL    HW1 1031   1.894   1.381   0.304  0.2865  1.1767 -0.0995
  344SOL    HW2 1032   1.819   1.484   0.430 -0.4512 -0.0520  1.1568
  345SOL     OW 1033   1.431   2.233   2.921 -0.0022  0.1873  0.4957
  345SOL    HW1 1034   1.339   2.198   2.881 -1.7233 -1.3375 -0.2037
  345SOL    HW2 1035   1.508   2.240   2.848  0.9460 -2.4383 -0.4789
  346SOL     OW 1036   2.363   0.881   1.410  0.0448 -0.3481 -0.1468
  346SOL    HW1 1037   2.302   0.960   1.431 -0.1475 -1.4063  0.0933
  346SOL    HW2 1038   2.350   0.840   1.314 -0.0781  2.4023 -1.0456
  347SOL     OW 1039   0.762   2.832   1.522  0.0547 -0.2880  0.1654
  347SOL    HW1 1040   0.721   2.794   1.612 -1.3129  0.8626 -1.9915
  347SOL    HW2 1041   0.697   2.904   1.481 -1.5226 -0.4465  0.2829
  348SOL     OW 1042   0.208   0.667   2.861  0.1867 -0.3776  0.4488
  348SOL    HW1 1043   0.102   0.652   2.857  1.8071  2.4518  0.2720
  348SOL    HW2 1044   0.247   0.752   2.810  1.5396  1.6410  0.4856
  349SOL     OW 1045   1.879   0.460   2.799  0.0111  0.0680  0.1566
  349SOL    HW1 1046   1.882   0.560   2.772  1.4207 -1.2553 -0.0555
  349SOL    HW2 1047   1.878   0.452   2.906  0.3630 -2.2042 -0.4107
  350SOL     OW 1048   1.654   0.402   0.352 -0.0462 -0.3482  0.0304
  350SOL    HW1 1049   1.702   0.402   0.445 -0.3591  0.8263  1.1433
  350SOL    HW2 1050   1.636   0.497   0.313 -1.3797  2.3387  0.6218
  351SOL     OW 1051   1.004   0.867   2.133 -0.1162 -0.4108 -0.3176
  351SOL    HW1 1052   0.979   0.960   2.094 -1.3525  0.4796 -1.5920
  351SOL    HW2 1053   1.027   0.797   2.063  2.8790 -1.4184  2.7404
  352SOL     OW 1054   2.056   1.315   0.647 -0.0741 -0.2244  0.6489
  352SOL    HW1 1055   2.056   1.351   0.548  0.2245 -2.1376 -3.3685
  352SOL    HW2 1056   1.967   1.330   0.687 -1.1556 -2.0442 -1.5509
  353SOL     OW 1057   2.174   2.824   1.032 -0.3348 -0.1597  0.0384
  353SOL    HW1 1058   2.188   2.758   1.115 -1.6630 -2.0503  0.0349
  353SOL    HW2 1059   2.068   2.834   1.025 -2.2659 -2.2835 -0.1748
  354SOL     OW 1060   0.296   1.405   2.853  0.0162 -0.2258  0.8306
  354SOL    HW1 1061   0.273   1.499   2.811 -0.3338  0.7819 -1.6454
  354SOL    HW2 1062   0.384   1.396   2.905 -0.7753 -0.7209  0.2882
  355SOL     OW 1063   0.582   1.507   0.585  0.4775  0.2129  0.3966
  355SOL    HW1 1064   0.533   1.522   0.675  0.5622 -1.6286  1.3009
  355SOL    HW2 1065   0.632   1.416   0.575  2.9563  0.6193  0.4157
  356SOL     OW 1066   0.885   0.273   2.102  0.0216  0.7166 -0.2232
  356SOL    HW1 1067   0.979   0.243   2.068 -0.5318  0.9649  0.1682
  356SOL    HW2 1068   0.814   0.282   2.034  2.5545 -1.4048  2.1765
  357SOL     OW 1069   0.998   1.275   0.330 -0.0577  0.1077 -0.2249
  357SOL    HW1 1070   0.974   1.248   0.233 -1.5930  0.6699  0.7891
  357SOL    HW2 1071   0.972   1.205   0.400  1.1950  0.3842 -3.1639
  358SOL     OW 1072   1.649   1.485   0.477 -0.2747  0.1820  0.2436
  358SOL    HW1 1073   1.607   1.430   0.554  0.4230  0.7573 -0.1093
  358SOL    HW2 1074   1.624   1.451   0.383  2.1872  2.5017  1.4901
  359SOL     OW 1075   1.585   2.646   0.165 -0.1791 -0.6175  0.4812
  359SOL    HW1 1076   1.603   2.540   0.167 -3.4861  0.6235  1.5089
  359SOL    HW2 1077   1.489   2.665   0.134 -1.0588  1.8042 -1.0915
  360SOL     OW 1078   0.866   0.565   0.596  0.3376  0.3782 -0.2889
  360SOL    HW1 1079   0.768   0.591   0.617  0.8639 -0.6180  1.0476
  360SOL    HW2 1080   0.885   0.460   0.595  1.2441 -0.2933 -0.5892
  361SOL     OW 1081   1.214   1.313   0.755  0.3215  0.2015 -0.2708
  361SOL    HW1 1082   1.287   1.362   0.814 -0.7536  0.9525  0.6297
  361SOL    HW2 1083   1.128   1.369   0.743  1.5398 -3.7688  0.5894
  362SOL     OW 1084   1.368   1.853   0.778  0.2683 -0.1970  0.1070
  362SOL    HW1 1085   1.393   1.794   0.859  3.8138  0.2945 -0.2481
  362SOL    HW2 1086   1.454   1.870   0.718  0.4362 -0.1966 -2.7313
  363SOL     OW 1087   1.225   1.267   2.035 -0.4030 -0.7956  0.5760
  363SOL    HW1 1088   1.309   1.308   2.081  2.4707 -1.1167  0.1475
  363SOL    HW2 1089   1.200   1.324   1.952  1.0294  0.4741 -0.4105
  364SOL     OW 1090   0.489   2.324   1.997  0.6380 -0.0052  0.4105
  364SOL    HW1 1091   0.393   2.355   1.965  0.0021 -1.7978 -1.5299
  364SOL    HW2 1092   0.566   2.379   1.953  1.1655  1.6409 -0.8002
  365SOL     OW 1093   1.013   1.887   1.397 -0.0909  0.0573  0.2441
  365SOL    HW1 1094   0.917   1.922   1.405  0.9129  0.4733  0.7747
  365SOL    HW2 1095   1.012   1.783   1.375  2.2307 -0.6396  0.8538
  366SOL     OW 1096   2.764   2.071   0.449  0.5804 -0.3036  0.4979
  366SOL    HW1 1097   2.669   2.033   0.423  1.1870 -0.7539  0.5322
  366SOL    HW2 1098   2.840   2.034   0.394 -1.4965 -0.4458 -1.6613
  367SOL     OW 1099   0.953   1.138   0.088  0.3485  0.5903  0.5905
  367SOL    HW1 1100   0.999   1.049   0.115  0.5808  0.2698  0.3564
  367SOL    HW2 1101   1.014   1.191   0.022  1.3726 -0.6314 -0.7660
  368SOL     OW 1102   1.487   0.549   0.738 -0.6916  0.0819  0.2500
  368SOL    HW1 1103   1.430   0.584   0.661 -0.9351 -3.7468  1.0866
  368SOL    HW2 1104   1.582   0.584   0.741  0.3900 -3.4911  1.5698
  369SOL     OW 1105   0.282   1.739   0.061  1.3188 -0.1593  0.3972
  369SOL    HW1 1106   0.347   1.793   0.117 -0.9433  0.3726 -1.0184
  369SOL    HW2 1107   0.193   1.720   0.111  1.6453 -0.0482  0.4415
  370SOL     OW 1108   0.435   2.071   0.970  0.6644  0.4033 -0.3010
  370SOL    HW1 1109   0.450   2.168   0.949 -1.2844 -0.0346  0.1373
  370SOL    HW2 1110   0.342   2.029   0.938 -0.2751 -1.9903 -2.0095
  371SOL     OW 1111   2.917   2.168   2.664  0.6320  0.3959 -0.4544
  371SOL    HW1 1112   2.847   2.132   2.737  3.1169 -0.4412 -1.3418
  371SOL    HW2 1113   3.012   2.186   2.702 -1.0170 -1.0303  1.0117
  372SOL     OW 1114   1.127   1.986   1.118 -0.1307  0.2544 -0.7020
  372SOL    HW1 1115   1.059   2.040   1.060 -1.6480  0.8766 -0.7879
  372SOL    HW2 1116   1.197   2.037   1.173 -0.1022  1.1812  0.9964
  373SOL     OW 1117   2.013   1.992   0.876  0.2977 -0.1219 -0.3588
  373SOL    HW1 1118   2.072   2.006   0.960 -1.3365  0.1876 -0.7598
  373SOL    HW2 1119   1.920   2.032   0.883  1.8590 -1.2528  0.7687
  374SOL     OW 1120   1.808   0.429   0.571  0.3205 -0.4877  0.4205
  374SOL    HW1 1121   1.836   0.388   0.666 -0.1303 -1.0132 -0.6031
  374SOL    HW2 1122   1.879   0.485   0.519  2.3643  1.1463 -3.0872
  375SOL     OW 1123   2.447   2.200   1.141 -0.0483 -0.0130 -0.5808
  375SOL    HW1 1124   2.513   2.173   1.067  1.1671  0.5864 -0.0727
  375SOL    HW2 1125   2.477   2.161   1.235  0.8514 -0.5693  0.0106
  376SOL     OW 1126   3.071   0.554   1.475  0.0728 -0.0201  0.3901
  376SOL    HW1 1127   3.089   0.618   1.557 -0.7740 -0.4947  2.3884
  376SOL    HW2 1128   2.976   0.515   1.479  1.0555 -0.7882  0.3914
  377SOL     OW 1129   2.224   2.844   0.350  0.0553  0.2681 -0.1529
  377SOL    HW1 1130   2.214   2.947   0.372 -0.2810 -2.2968 -1.0181
  377SOL    HW2 1131   2.326   2.818   0.351 -0.2543 -1.5985 -3.3299
  378SOL     OW 1132   1.869   1.853   2.606  0.6536  0.5704 -0.6693
  378SOL    HW1 1133   1.921   1.786   2.670 -1.7509  0.0917 -1.8130
  378SOL    HW2 1134   1.863   1.817   2.508 -1.0340 -1.3950  2.9907
  379SOL     OW 1135   0.790   0.146   2.805 -0.8520  0.3280  0.0635
  379SOL    HW1 1136   0.729   0.061   2.787 -1.3598 -2.5352  1.2974
  379SOL    HW2 1137   0.809   0.198   2.723 -0.0943 -0.6628  0.4893
  380SOL     OW 1138   1.501   1.147   0.564  0.1060 -0.4785 -0.3617
  380SOL    HW1 1139   1.400   1.117   0.581 -1.7830 -1.1290 -0.3750
  380SOL    HW2 1140   1.568   1.087   0.621 -0.2412  1.3656 -1.4413
  381SOL     OW 1141   1.363   1.172   1.483  0.3468  0.0679 -0.6631
  381SOL    HW1 1142   1.405   1.131   1.395 -0.9968  0.1189 -0.6608
  381SOL    HW2 1143   1.415   1.142   1.570  1.5356 -0.4554  1.3106
  382SOL     OW 1144   1.799   0.832   0.153 -0.4099 -0.2404  0.0620
  382SOL    HW1 1145   1.849   0.818   0.062  0.7853 -0.1420 -0.1489
  382SOL    HW2 1146   1.857   0.845   0.235  1.3841  1.1303  0.3625
  383SOL     OW 1147   2.632   1.002   1.456  0.1695 -0.5894 -0.3130
  383SOL    HW1 1148   2.550   0.985   1.400 -2.4462 -0.8638  1.5160
  383SOL    HW2 1149   2.724   0.982   1.409 -0.8935 -1.4203  1.5303
  384SOL     OW 1150   0.890   2.320   0.137 -0.4106  0.3071  0.3175
  384SOL    HW1 1151   0.832   2.403   0.167 -1.4790  0.6324  0.0040
  384SOL    HW2 1152   0.868   2.231   0.182  0.6951 -0.5367 -2.3186
  385SOL     OW 1153   3.025   2.006   1.713  0.0935  0.0026 -0.1561
  385SOL    HW1 1154   3.095   2.075   1.681 -0.0490 -2.2226 -1.3431
  385SOL    HW2 1155   3.067   1.912   1.711  2.7306 -0.2736 -1.6091
  386SOL     OW 1156   0.443   1.085   0.436  0.2523  0.0175 -0.4741
  386SOL    HW1 1157   0.460   0.983   0.457 -0.8278 -2.6712 -0.4125
  386SOL    HW2 1158   0.362   1.105   0.369  0.9439  1.1143  1.2873
  387SOL     OW 1159   0.922   0.405   1.623 -0.5191  0.4035 -0.5417
  387SOL    HW1 1160   1.011   0.462   1.615 -1.5634 -0.3044  0.3203
  387SOL    HW2 1161   0.901   0.351   1.534 -0.4645 -2.8441  0.1936
  388SOL     OW 1162   1.183   2.642   1.768 -0.1693 -0.1430  0.0134
  388SOL    HW1 1163   1.191   2.614   1.668 -0.8784  1.0420  0.2039
  388SOL    HW2 1164   1.238   2.584   1.838  0.8430  2.4351  3.0390
  389SOL     OW 1165   0.178   3.035   1.109 -0.1523 -0.6505 -0.8660
  389SOL    HW1 1166   0.130   3.069   1.193 -0.4937  0.5244 -2.4836
  389SOL    HW2 1167   0.228   2.943   1.111 -0.3447 -1.0531 -0.8722
  390SOL     OW 1168   0.990   0.970   1.299 -0.0388 -0.6054 -0.1108
  390SOL    HW1 1169   1.035   0.916   1.374 -3.1078  0.8602  1.0819
  390SOL    HW2 1170   0.965   1.064   1.342 -0.4215  0.0317  0.6446
  391SOL     OW 1171   2.089   1.191   0.996  0.0308 -0.0771  0.2063
  391SOL    HW1 1172   2.010   1.123   1.012  1.6110  2.2297  3.0942
  391SOL    HW2 1173   2.171   1.134   0.965  1.6006 -1.8557 -0.5183
  392SOL     OW 1174   0.906   2.650   3.069  0.2763  0.3852 -0.2957
  392SOL    HW1 1175   0.828   2.656   3.139 -0.4348 -0.3818 -2.3449
  392SOL    HW2 1176   0.997   2.684   3.109 -1.7965 -1.2522 -0.8204
  393SOL     OW 1177   0.398   0.466   2.008 -0.6189  0.3175 -0.5130
  393SOL    HW1 1178   0.320   0.409   1.969  0.0351  0.8271  3.5136
  393SOL    HW2 1179   0.493   0.451   1.964  0.6304  1.0393  1.0148
  394SOL     OW 1180   2.991   1.813   2.761 -0.5111  0.9365  0.0778
  394SOL    HW1 1181   3.076   1.839   2.819  0.0296  2.1353 -1.2243
  394SOL    HW2 1182   3.002   1.827   2.661 -0.7620 -1.4090  0.8756
  395SOL     OW 1183   1.599   1.905   0.638  0.2557 -0.5731 -0.1806
  395SOL    HW1 1184   1.669   1.848   0.590  2.4487 -1.2101  1.9128
  395SOL    HW2 1185   1.651   1.964   0.707  1.9672  2.3146 -0.0773
  396SOL     OW 1186   2.766   1.965   1.297 -0.1728  0.1994 -0.1742
  396SOL    HW1 1187   2.671   1.998   1.322 -0.4212 -0.2846 -1.8566
  396SOL    HW2 1188   2.794   1.885   1.357  3.0663 -1.7563  0.9860
  397SOL     OW 1189   1.013   2.168   0.560 -0.4019 -0.2081 -1.0198
  397SOL    HW1 1190   0.912   2.140   0.555  1.5053  2.5086 -1.2768
  397SOL    HW2 1191   1.035   2.263   0.536 -0.0601  2.0761  2.4081
  398SOL     OW 1192   2.225   0.033   1.014 -0.7573 -0.4827  0.1856
  398SOL    HW1 1193   2.217  -0.064   1.041  0.7703  1.5357  1.4352
  398SOL    HW2 1194   2.164   0.097   1.081 -1.9573  2.2904  1.5171
  399SOL     OW 1195   2.900   2.539   2.766  0.7198 -0.2813 -0.0201
  399SOL    HW1 1196   2.872   2.494   2.675 -0.8329 -1.4388 -0.2060
  399SOL    HW2 1197   2.898   2.471   2.837  0.6665  2.1832 -1.3505
  400SOL     OW 1198   0.756   1.589   1.295 -0.0631  0.8346  0.6737
  400SOL    HW1 1199   0.714   1.659   1.363  0.1150  0.1200 -0.2146
  400SOL    HW2 1200   0.761   1.629   1.202  0.1798 -1.7922 -0.4978
  401SOL     OW 1201   1.845   0.123   1.367 -0.0497 -0.5897 -0.3550
  401SOL    HW1 1202   1.918   0.110   1.446  0.8484 -5.0679  1.1179
  401SOL    HW2 1203   1.754   0.151   1.407  1.1983 -0.1133  0.3601
  402SOL     OW 1204   1.326   0.116   3.067  0.0058 -0.5446 -0.1692
  402SOL    HW1 1205   1.425   0.110   3.031  0.2098  0.2454  0.3920
  402SOL    HW2 1206   1.313   0.205   3.114 -0.4204 -4.1599 -1.5535
  403SOL     OW 1207   2.302   1.840   0.899 -0.6039 -0.0404 -0.1615
  403SOL    HW1 1208   2.405   1.835   0.898 -2.1145 -3.2703  2.6609
  403SOL    HW2 1209   2.260   1.919   0.954  0.6126  1.3118  2.7991
  404SOL     OW 1210   0.198   2.481   2.841 -0.3691 -0.0365 -0.4620
  404SOL    HW1 1211   0.295   2.462   2.814 -0.6774  0.0989 -2.0954
  404SOL    HW2 1212   0.165   2.579   2.831 -1.9426  2.4699  1.2222
  405SOL     OW 1213   0.174   2.433   0.570  0.1942 -0.6847  0.2065
  405SOL    HW1 1214   0.149   2.410   0.475 -0.1429  0.2647  2.3084
  405SOL    HW2 1215   0.240   2.513   0.563 -1.3766 -0.7628 -0.9120
  406SOL     OW 1216   0.028   1.453   2.970  0.0180  0.3109 -0.1343
  406SOL    HW1 1217   0.112   1.436   2.924 -3.1469  0.1218  2.3487
  406SOL    HW2 1218   0.038   1.496   3.065  0.3400 -0.3002 -1.0701
  407SOL     OW 1219   1.591   0.916   0.886  0.0491 -0.2288  0.4047
  407SOL    HW1 1220   1.550   0.873   0.805 -1.3628 -0.5688  1.4213
  407SOL    HW2 1221   1.531   0.994   0.925 -2.6405 -0.8650  1.0000
  408SOL     OW 1222   1.609   2.369   0.967 -0.0062  0.8184 -0.8122
  408SOL    HW1 1223   1.680   2.373   0.885 -1.6521  1.1071 -0.8368
  408SOL    HW2 1224   1.549   2.447   0.965 -0.8910  0.7088 -1.2153
  409SOL     OW 1225   0.586   0.879   0.751  0.0390 -0.0202 -0.4271
  409SOL    HW1 1226   0.501   0.892   0.689  2.1624  1.8972 -1.1268
  409SOL    HW2 1227   0.619   0.783   0.755 -0.9245  0.0521 -1.3489
  410SOL     OW 1228   1.272   2.014   1.409 -0.1506 -0.0254 -0.2174
  410SOL    HW1 1229   1.321   1.971   1.487 -0.2869  0.4726 -0.0996
  410SOL    HW2 1230   1.177   1.986   1.398  6.2058  2.4675 -0.0158
  411SOL     OW 1231   2.485   1.898   3.063  0.7578 -0.1026 -0.1923
  411SOL    HW1 1232   2.413   1.893   2.987  0.8326 -0.6557 -0.5095
  411SOL    HW2 1233   2.580   1.878   3.026  1.0424 -0.3945  1.2599
  412SOL     OW 1234   1.481   2.488   2.209  0.1700  0.9085 -0.4589
  412SOL    HW1 1235   1.528   2.576   2.233  1.4815  0.1087  0.1796
  412SOL    HW2 1236   1.394   2.474   2.266 -1.9924  0.3499 -0.5005
  413SOL     OW 1237  -0.000   0.261   2.927 -0.5443  0.2293  0.3213
  413SOL    HW1 1238  -0.054   0.179   2.954 -0.6900  1.2044 -2.7657
  413SOL    HW2 1239   0.091   0.272   2.978  0.8620 -0.6060 -0.6431
  414SOL     OW 1240   1.790   1.476   1.357 -0.1333  0.4865 -0.2042
  414SOL    HW1 1241   1.706   1.500   1.410 -0.9959 -0.5486 -0.1187
  414SOL    HW2 1242   1.782   1.404   1.281  0.2171 -1.0061  1.0381
  415SOL     OW 1243   0.289   2.214   0.700 -0.4151  0.0141  0.1417
  415SOL    HW1 1244   0.264   2.314   0.678 -0.1730  2.7371 -0.1082
  415SOL    HW2 1245   0.216   2.148   0.676  1.8580 -0.2082 -0.6219
  416SOL     OW 1246   0.347   1.067   1.066  0.3806 -0.0004 -0.0196
  416SOL    HW1 1247   0.327   1.030   0.971 -2.8020  0.7087 -1.2987
  416SOL    HW2 1248   0.443   1.106   1.068 -0.8446 -0.5098  1.3384
  417SOL     OW 1249   2.105   2.336   1.880  0.3546 -0.2047  0.0727
  417SOL    HW1 1250   2.129   2.239   1.843 -0.9827 -1.0505 -0.8760
  417SOL    HW2 1251   2.016   2.336   1.934 -1.0281 -0.1339 -0.1088
  418SOL     OW 1252   1.119   0.513   1.251  0.3035 -0.0477  0.1026
  418SOL    HW1 1253   1.025   0.504   1.205  2.3639 -0.1949 -2.2168
  418SOL    HW2 1254   1.189   0.567   1.204 -0.4430  0.2432  1.2851
  419SOL     OW 1255   1.023   0.361   3.019 -0.6076  0.0886  0.4591
  419SOL    HW1 1256   0.999   0.382   2.925  0.8886  0.0139  0.8851
  419SOL    HW2 1257   0.987   0.274   3.053  1.4485 -0.2977  1.9098
  420SOL     OW 1258   0.161   2.233   0.354 -0.1466  0.5485  0.2616
  420SOL    HW1 1259   0.122   2.170   0.278  0.9329  0.8569 -1.7261
  420SOL    HW2 1260   0.094   2.240   0.433 -1.8914 -1.8562 -1.8149
  421SOL     OW 1261   0.307   3.058   0.697 -0.2021 -0.4982 -0.2017
  421SOL    HW1 1262   0.280   2.963   0.675  3.6394 -0.5267  2.8843
  421SOL    HW2 1263   0.410   3.066   0.702  1.2041 -1.8000  0.1018
  422SOL     OW 1264   0.966   2.556   1.042  0.3796  0.7485 -0.4915
  422SOL    HW1 1265   1.054   2.589   0.993 -0.9399 -0.4263 -0.2653
  422SOL    HW2 1266   0.972   2.562   1.145  0.3516 -0.9529 -2.8352
  423SOL     OW 1267   0.109   0.690   1.270  0.2368  0.2362 -0.2219
  423SOL    HW1 1268   0.061   0.645   1.349  1.9850  0.4850 -1.5539
  423SOL    HW2 1269   0.053   0.757   1.221 -2.0866  1.9556  1.1720
  424SOL     OW 1270   1.014   2.224   2.053  0.0386  0.0796 -0.2631
  424SOL    HW1 1271   1.002   2.326   2.038 -2.0968  0.0594  1.3080
  424SOL    HW2 1272   1.032   2.195   2.152  3.1069 -0.3852  0.1554
  425SOL     OW 1273   1.977   1.447   0.947  0.2359  0.7147 -0.3271
  425SOL    HW1 1274   2.028   1.363   0.978  0.2793 -1.4823 -0.8265
  425SOL    HW2 1275   2.048   1.511   0.908  0.6478  0.8496 -0.4635
  426SOL     OW 1276   1.490   1.525   1.418 -0.0096 -0.0295 -0.1158
  426SOL    HW1 1277   1.488   1.606   1.355 -0.1296  0.8907 -2.7922
  426SOL    HW2 1278   1.466   1.551   1.513 -0.0880 -1.9897 -0.5540
  427SOL     OW 1279   1.872   2.375   2.029 -0.4113 -0.2122 -0.0702
  427SOL    HW1 1280   1.924   2.332   2.104  0.5151 -0.6697 -1.4381
  427SOL    HW2 1281   1.892   2.476   2.027 -2.0334 -0.1812  1.8808
  428SOL     OW 1282   0.863   2.924   0.179  0.2360  0.7875  0.5691
  428SOL    HW1 1283   0.915   3.012   0.201 -0.1652  1.8022 -1.0245
  428SOL    HW2 1284   0.936   2.847   0.165  0.8987 -1.7787  0.2038
  429SOL     OW 1285   1.299   0.094   0.267 -0.0988 -0.1593 -0.1280
  429SOL    HW1 1286   1.403   0.118   0.283  1.1490 -1.6361  0.0239
  429SOL    HW2 1287   1.279   0.065   0.171 -0.4897 -2.0687  0.3420
  430SOL     OW 1288   2.704   1.473   0.385 -0.1545 -0.7244  0.4458
  430SOL    HW1 1289   2.758   1.520   0.306  0.4015  2.3947  2.4705
  430SOL    HW2 1290   2.719   1.524   0.473 -2.2214 -0.0025 -1.0380
  431SOL     OW 1291   2.142   1.631   0.841  0.0120 -0.0650 -0.6972
  431SOL    HW1 1292   2.218   1.696   0.869  1.2458 -0.2278 -0.4622
  431SOL    HW2 1293   2.076   1.681   0.780  0.3568  0.1879  0.6851
  432SOL     OW 1294   2.872   2.230   1.269 -0.3216  0.1035  0.0066
  432SOL    HW1 1295   2.839   2.126   1.269 -0.6831 -2.5637 -2.9917
  432SOL    HW2 1296   2.926   2.262   1.356 -0.0027  0.1505 -0.2010
  433SOL     OW 1297   1.910   0.363   0.839  0.7704  0.0451 -0.0225
  433SOL    HW1 1298   1.839   0.324   0.904  0.9246 -1.4518 -0.7587
  433SOL    HW2 1299   1.998   0.310   0.847 -1.2122 -1.7753  1.0964
  434SOL     OW 1300   1.573   0.254   0.772 -0.1317 -0.2186  0.8354
  434SOL    HW1 1301   1.532   0.348   0.743 -0.8497 -0.0504  0.2593
  434SOL    HW2 1302   1.616   0.258   0.863 -3.3987  0.6181 -3.3804
  435SOL     OW 1303   1.448   1.426   2.131  0.2620 -0.6711  0.3999
  435SOL    HW1 1304   1.400   1.465   2.214 -4.6154 -2.5608 -2.5823
  435SOL    HW2 1305   1.493   1.504   2.073  1.4135  1.7844 -3.5444
  436SOL     OW 1306   1.669   2.739   2.344  0.4415  0.3166 -0.4523
  436SOL    HW1 1307   1.609   2.811   2.390 -0.1857  1.1731  1.5152
  436SOL    HW2 1308   1.696   2.668   2.411  0.2419  1.0116 -2.3595
  437SOL     OW 1309   1.110   2.912   0.896  0.2903 -0.1445  0.6639
  437SOL    HW1 1310   1.054   2.993   0.865  0.6617  0.9926 -1.5479
  437SOL    HW2 1311   1.079   2.881   0.991 -1.7693 -2.7324 -0.3992
  438SOL     OW 1312   1.060   2.596   1.309  0.3614 -0.4372  0.0654
  438SOL    HW1 1313   1.105   2.606   1.399 -2.4462  0.1495  1.0932
  438SOL    HW2 1314   0.993   2.516   1.322 -0.4152 -1.0295 -0.0664
  439SOL     OW 1315   0.720   1.771   1.091  0.1468 -0.2954 -0.1394
  439SOL    HW1 1316   0.734   1.873   1.102 -1.0878 -1.0148 -0.2482
  439SOL    HW2 1317   0.628   1.740   1.132  1.8178  0.5346  1.0391
  440SOL     OW 1318   0.972   2.488   1.949  0.0936  0.0168 -0.6950
  440SOL    HW1 1319   0.913   2.520   1.871  0.7552  0.2756 -1.7434
  440SOL    HW2 1320   1.075   2.514   1.941  0.5609  0.1579 -0.7719
  441SOL     OW 1321   0.407   2.799   1.360  0.0654 -0.5568  0.2501
  441SOL    HW1 1322   0.440   2.703   1.368 -0.2134  2.1077  0.6129
  441SOL    HW2 1323   0.320   2.814   1.300 -1.1331 -0.7286  0.6313
  442SOL     OW 1324   2.269   0.651   2.621  0.1029  0.0614 -0.2296
  442SOL    HW1 1325   2.252   0.557   2.581 -0.3712 -2.3304  0.6051
  442SOL    HW2 1326   2.193   0.717   2.603  0.8559 -0.8607 -1.4081
  443SOL     OW 1327   1.211   2.722   2.201 -0.1241  0.1930  0.1495
  443SOL    HW1 1328   1.250   2.622   2.218  0.6636 -1.9996  1.0583
  443SOL    HW2 1329   1.237   2.796   2.268  0.6617  0.5107  0.5174
  444SOL     OW 1330   1.144   1.301   1.574  0.3779 -0.1595  0.8534
  444SOL    HW1 1331   1.233   1.251   1.547 -0.2961 -2.7685  0.7566
  444SOL    HW2 1332   1.147   1.377   1.645 -2.1063 -1.8483 -0.1862
  445SOL     OW 1333   3.097   2.377   1.867  0.1907  0.0510  0.3226
  445SOL    HW1 1334   3.082   2.470   1.821 -0.0741 -1.2954  2.1196
  445SOL    HW2 1335   3.015   2.353   1.923 -0.4489 -0.2252 -1.2961
  446SOL     OW 1336   0.251   1.891   2.390  0.1993 -0.1080 -0.5743
  446SOL    HW1 1337   0.195   1.975   2.414 -0.6480  0.2392 -0.0924
  446SOL    HW2 1338   0.200   1.828   2.323 -1.0500  3.5419  3.1450
  447SOL     OW 1339   1.243   1.672   1.964 -0.1307  0.5875 -0.5327
  447SOL    HW1 1340   1.159   1.731   1.986 -0.3392  0.9449  1.9286
  447SOL    HW2 1341   1.330   1.724   1.994 -0.4857  3.0703 -0.4228
  448SOL     OW 1342   0.095   1.440   1.970  0.4348 -0.1398 -0.0828
  448SOL    HW1 1343   0.149   1.524   1.933  1.0747  0.1338 -2.2114
  448SOL    HW2 1344   0.074   1.444   2.072 -1.0992  0.3887 -1.6093
  449SOL     OW 1345   1.746   2.958   0.907  0.1895  0.5520 -0.2851
  449SOL    HW1 1346   1.757   2.932   1.006  2.8648 -0.2233  1.5575
  449SOL    HW2 1347   1.816   2.906   0.849  2.1181  4.5968  0.0921
  450SOL     OW 1348   2.326   1.435   0.756  0.1245 -0.1328 -0.0064
  450SOL    HW1 1349   2.238   1.473   0.803  0.1522  0.2875 -2.5473
  450SOL    HW2 1350   2.337   1.465   0.656  1.0771  1.0225  0.1124
  451SOL     OW 1351   1.309   3.024   1.429  0.1612 -0.3205 -0.0126
  451SOL    HW1 1352   1.259   3.111   1.448  0.3794 -1.8964 -0.8643
  451SOL    HW2 1353   1.363   2.985   1.512  2.4257  0.0548 -0.3580
  452SOL     OW 1354   2.657   2.293   2.204  0.2980 -0.1616 -0.4035
  452SOL    HW1 1355   2.612   2.386   2.215  1.2461 -1.6547  0.0676
  452SOL    HW2 1356   2.689   2.258   2.298 -0.0202 -0.0421  1.6102
  453SOL     OW 1357   2.454   2.670   0.007  0.2708 -0.4952  0.7374
  453SOL    HW1 1358   2.367   2.722   0.033 -0.8266  0.9327 -0.2328
  453SOL    HW2 1359   2.452   2.624  -0.093  0.7205 -0.0981 -1.2473
  454SOL     OW 1360   0.979   1.135   2.033 -0.0522 -0.6372 -0.0621
  454SOL    HW1 1361   0.960   1.137   1.929  0.1497  2.6787  0.4168
  454SOL    HW2 1362   1.070   1.182   2.051  1.6292 -1.3962 -0.8522
  455SOL     OW 1363   0.698   2.663   2.820 -0.3892  0.0797 -0.1750
  455SOL    HW1 1364   0.783   2.729   2.824  0.1359 -1.8270 -2.0058
  455SOL    HW2 1365   0.708   2.577   2.874 -2.8427  6.1653 -0.3660
  456SOL     OW 1366   0.450   1.898   0.219  0.6148  0.5406  0.4433
  456SOL    HW1 1367   0.507   1.833   0.278 -3.1640 -0.9600  2.1788
  456SOL    HW2 1368   0.490   1.996   0.216 -0.1918  2.5283 -0.3356
  457SOL     OW 1369   0.354   2.647   0.602 -0.7364 -0.7988  0.2092
  457SOL    HW1 1370   0.339   2.721   0.533 -0.8936 -1.8855 -0.4632
  457SOL    HW2 1371   0.450   2.639   0.638 -2.8336 -1.0221  1.7346
  458SOL     OW 1372   2.921   3.085   1.226 -0.0723 -0.3025 -0.0897
  458SOL    HW1 1373   2.986   3.158   1.191 -2.0403  1.2032  1.8726
  458SOL    HW2 1374   2.918   2.997   1.165  1.0072 -1.2873  0.0824
  459SOL     OW 1375   2.074   2.626   0.753  0.0634 -0.1820 -0.4836
  459SOL    HW1 1376   2.165   2.671   0.773 -1.2913 -0.5138  1.1553
  459SOL    HW2 1377   2.074   2.557   0.670  2.0067 -0.2039 -1.5380
  460SOL     OW 1378   1.219   2.109   2.815  0.3603 -0.0682  0.5602
  460SOL    HW1 1379   1.216   2.141   2.719  1.6437 -1.3031 -0.5662
  460SOL    HW2 1380   1.207   2.007   2.823 -1.9379 -0.7532 -2.7670
  461SOL     OW 1381   0.542   2.190   2.650 -0.1119  0.1509  0.1048
  461SOL    HW1 1382   0.491   2.105   2.617 -1.3453  0.8467  0.7998
  461SOL    HW2 1383   0.579   2.183   2.743  1.0716  1.1143 -0.6684
  462SOL     OW 1384   0.959   1.128   1.770 -0.1613  0.8549  0.9655
  462SOL    HW1 1385   1.019   1.087   1.693  0.0910  0.1267 -0.2974
  462SOL    HW2 1386   0.892   1.196   1.724 -1.4429  1.3679  0.3700
  463SOL     OW 1387   0.450   0.817   0.505 -0.0744 -0.0528  0.2486
  463SOL    HW1 1388   0.500   0.726   0.479  1.9623  1.9687 -0.8161
  463SOL    HW2 1389   0.346   0.816   0.506 -1.3160 -1.2801  1.7848
  464SOL     OW 1390   0.616   2.308   2.234 -0.5415  0.3432 -0.0903
  464SOL    HW1 1391   0.568   2.374   2.301  2.0219 -0.7792  3.0131
  464SOL    HW2 1392   0.557   2.286   2.146  0.0794  1.7162 -3.5289
  465SOL     OW 1393   0.229   0.960   0.813  0.4694  0.2464 -0.1144
  465SOL    HW1 1394   0.130   0.962   0.790  1.6164 -0.3890  4.1286
  465SOL    HW2 1395   0.268   0.859   0.801 -1.1535  1.1383 -2.9587
  466SOL     OW 1396   1.398   1.119   0.988  0.1988 -0.0965 -0.6291
  466SOL    HW1 1397   1.391   1.220   0.957 -1.0317  1.5622  1.8911
  466SOL    HW2 1398   1.303   1.088   1.021  0.1179  3.5153  2.3775
  467SOL     OW 1399   0.562   0.410   2.451 -0.4946 -0.1991 -0.3923
  467SOL    HW1 1400   0.509   0.500   2.433 -0.6633 -3.1799  1.9798
  467SOL    HW2 1401   0.532   0.368   2.545 -1.4075 -0.5981 -2.0850
  468SOL     OW 1402   0.452   2.265   1.614  0.1773  0.3027 -0.1276
  468SOL    HW1 1403   0.542   2.308   1.652  0.8290  1.2355  1.9731
  468SOL    HW2 1404   0.426   2.286   1.516  2.2877 -1.3410 -0.0382
  469SOL     OW 1405   1.441   1.347   1.210 -0.7310  0.3240 -0.3480
  469SOL    HW1 1406   1.528   1.317   1.163  2.5765  1.4662 -1.2426
  469SOL    HW2 1407   1.459   1.425   1.278 -1.3470 -1.5961 -0.7852
  470SOL     OW 1408   3.013   1.839   0.751 -0.6145 -0.3235 -0.2176
  470SOL    HW1 1409   3.083   1.898   0.702  1.2588  0.3939 -0.7997
  470SOL    HW2 1410   3.034   1.829   0.848 -1.9020 -0.6166 -0.8844
  471SOL     OW 1411   2.634   1.273   2.134  0.6790 -0.6638  0.1014
  471SOL    HW1 1412   2.585   1.234   2.217 -0.6337  1.9374 -0.4432
  471SOL    HW2 1413   2.715   1.334   2.162  3.7028 -0.1639 -0.7290
  472SOL     OW 1414   1.136   2.458   0.054 -0.4117  0.2875  0.1156
  472SOL    HW1 1415   1.216   2.420   0.109  0.4680 -0.0586  0.7583
  472SOL    HW2 1416   1.042   2.430   0.092 -1.5724  0.4656 -0.5464
  473SOL     OW 1417   1.095   1.536   1.016  0.2472  0.1356 -0.5502
  473SOL    HW1 1418   0.999   1.534   0.974 -1.3609 -1.2048  1.0190
  473SOL    HW2 1419   1.116   1.447   1.065 -0.8297  1.6597 -1.9388
  474SOL     OW 1420   0.679   1.274   0.547  0.1135  0.0493 -0.2327
  474SOL    HW1 1421   0.613   1.236   0.476 -2.4687  0.3211  1.0263
  474SOL    HW2 1422   0.715   1.197   0.612 -1.7445 -1.3316  1.1863
  475SOL     OW 1423   2.866   0.011   0.845  0.5439 -0.2278 -0.2831
  475SOL    HW1 1424   2.930   0.097   0.836  1.5932  3.4041  0.7269
  475SOL    HW2 1425   2.769   0.043   0.878 -1.2794  0.4081  2.0657
  476SOL     OW 1426   0.965   3.085   1.758  0.0201  0.1718  0.0547
  476SOL    HW1 1427   1.051   3.119   1.799 -1.4519  1.8584  0.1384
  476SOL    HW2 1428   0.982   3.044   1.664  1.6839  0.0214 -0.0954
  477SOL     OW 1429   1.409   0.331   2.420 -0.3781 -0.0161 -0.0566
  477SOL    HW1 1430   1.424   0.354   2.521  0.8529  0.0820  0.9593
  477SOL    HW2 1431   1.482   0.264   2.383  0.8849  1.4765  2.5765
  478SOL     OW 1432   2.220   1.818   0.150  0.2855  0.2604  0.2002
  478SOL    HW1 1433   2.172   1.743   0.199 -1.8729 -0.3710 -2.9366
  478SOL    HW2 1434   2.324   1.808   0.163 -0.0296 -0.2370  0.2793
  479SOL     OW 1435   1.195   0.988   2.849  0.5052 -0.0911  0.5510
  479SOL    HW1 1436   1.239   0.933   2.775  0.4060  0.0076  0.5404
  479SOL    HW2 1437   1.120   0.939   2.896 -0.6498 -0.3628  1.4675
  480SOL     OW 1438   2.664   2.337   0.360  0.5407 -0.1657  0.0347
  480SOL    HW1 1439   2.680   2.236   0.359 -2.1828 -0.8281 -0.8237
  480SOL    HW2 1440   2.578   2.364   0.309  0.1319 -0.4168 -0.2187
  481SOL     OW 1441   0.966   1.148   0.885  0.0510 -0.4606  0.5626
  481SOL    HW1 1442   0.986   1.227   0.819  2.1498 -0.2746 -0.0681
  481SOL    HW2 1443   1.026   1.150   0.969 -0.8581  0.2142  3.1976
  482SOL     OW 1444   1.592   0.278   2.027 -0.1915  0.0160  0.5784
  482SOL    HW1 1445   1.589   0.372   1.977  1.2238 -1.0282  2.1432
  482SOL    HW2 1446   1.691   0.250   2.061  2.7112 -1.7076  3.8925
  483SOL     OW 1447   0.102   2.304   1.224 -0.0794  0.2585  0.0936
  483SOL    HW1 1448   0.043   2.351   1.295  2.5515 -0.4857  1.1420
  483SOL    HW2 1449   0.147   2.376   1.163 -2.5160  3.5899  3.2658
  484SOL     OW 1450   1.775   1.106   1.363 -0.2505 -0.1081 -0.3297
  484SOL    HW1 1451   1.843   1.028   1.381  0.3787 -0.8994  1.5144
  484SOL    HW2 1452   1.766   1.164   1.444  0.0072  0.2453 -1.5114
  485SOL     OW 1453   0.733   0.927   1.753 -0.1244  0.7992 -0.0038
  485SOL    HW1 1454   0.747   0.918   1.651 -1.0125  3.2280 -0.8008
  485SOL    HW2 1455   0.807   0.993   1.791  0.1057 -1.4707  3.0324
  486SOL     OW 1456   0.810   1.872   2.440  0.2871  0.0064 -0.5140
  486SOL    HW1 1457   0.853   1.833   2.531 -0.2454  1.5648  4.2141
  486SOL    HW2 1458   0.776   1.971   2.443  1.6943 -0.2735 -1.6928
  487SOL     OW 1459   1.791   1.650   0.969  0.1662  0.0433  0.6383
  487SOL    HW1 1460   1.851   1.571   0.962  0.6709  0.1991 -3.3898
  487SOL    HW2 1461   1.802   1.716   0.890 -1.2686 -2.6245  0.5058
  488SOL     OW 1462   2.996   0.859   2.227  0.2890  0.2681 -0.8278
  488SOL    HW1 1463   2.973   0.758   2.219 -0.4449  0.2320 -0.0419
  488SOL    HW2 1464   3.018   0.876   2.328  2.9091 -0.9869 -0.2954
  489SOL     OW 1465   2.796   0.305   1.256 -0.8837 -0.5331 -0.0050
  489SOL    HW1 1466   2.764   0.301   1.355 -1.0695 -1.2849  1.0011
  489SOL    HW2 1467   2.900   0.298   1.244  2.3582  0.6814  3.1788
  490SOL     OW 1468   1.481   2.954   2.784  0.6054  0.2032 -0.2786
  490SOL    HW1 1469   1.542   2.873   2.784 -0.3513 -1.2860 -2.0766
  490SOL    HW2 1470   1.435   2.976   2.694  2.6303  0.5546  0.9269
  491SOL     OW 1471   1.714   1.444   2.611  0.5489  0.0744 -0.4607
  491SOL    HW1 1472   1.627   1.451   2.666 -0.8966  2.8985  1.0479
  491SOL    HW2 1473   1.802   1.459   2.669  2.3872 -2.2649  0.7362
  492SOL     OW 1474   0.579   2.131   0.646 -0.2564  0.2844  0.1301
  492SOL    HW1 1475   0.616   2.103   0.735 -0.0052 -0.0419 -0.0939
  492SOL    HW2 1476   0.480   2.173   0.652  0.5131  2.1205  0.3880
  493SOL     OW 1477   0.437   1.407   2.024  0.0550  0.5734 -0.1791
  493SOL    HW1 1478   0.372   1.481   2.043  1.7911  0.2414 -0.4579
  493SOL    HW2 1479   0.414   1.317   2.079  0.4262 -0.1443  0.0223
  494SOL     OW 1480   2.721   2.740   0.105 -0.4437 -0.0689  0.4895
  494SOL    HW1 1481   2.714   2.689   0.196  2.7506 -0.5057 -0.4804
  494SOL    HW2 1482   2.624   2.759   0.068  1.7759  1.5065  2.0895
  495SOL     OW 1483   2.587   2.699   2.635  1.0597  0.1404  0.9242
  495SOL    HW1 1484   2.567   2.600   2.618  1.7163 -0.9886  1.8631
  495SOL    HW2 1485   2.663   2.738   2.588  0.2307  0.6608  3.9046
  496SOL     OW 1486   2.072   2.253   0.715 -0.4106 -0.0007  0.1000
  496SOL    HW1 1487   2.124   2.288   0.798  0.4069  0.6603 -0.8752
  496SOL    HW2 1488   2.069   2.147   0.714 -1.0903 -2.7570  2.9379
  497SOL     OW 1489   0.200   2.998   2.358 -0.0658 -0.0206 -0.2466
  497SOL    HW1 1490   0.164   3.062   2.437 -1.3648  1.1301 -0.9216
  497SOL    HW2 1491   0.232   3.052   2.275  0.7191  1.6566 -1.3973
  498SOL     OW 1492   1.175   1.357   1.197 -0.0960  0.5851  0.0492
  498SOL    HW1 1493   1.276   1.345   1.186 -0.7698 -2.0729 -2.3998
  498SOL    HW2 1494   1.149   1.434   1.258  0.9968  2.5530 -1.1710
  499SOL     OW 1495   0.639   1.748   0.366  0.3040  0.2853 -0.1459
  499SOL    HW1 1496   0.669   1.660   0.319 -3.2936  1.2889  0.7330
  499SOL    HW2 1497   0.715   1.807   0.400  2.3154 -0.1307  1.1357
  500SOL     OW 1498   1.412   2.877   1.633 -0.0038 -0.0564 -0.0996
  500SOL    HW1 1499   1.368   2.840   1.720 -2.6797  0.4233  4.8685
  500SOL    HW2 1500   1.484   2.820   1.588 -0.2885  0.8959 -3.1940
  501SOL     OW 1501   0.817   1.114   2.275 -0.4546 -0.1982  0.0160
  501SOL    HW1 1502   0.736   1.053   2.266  0.4989 -0.4195 -0.1416
  501SOL    HW2 1503   0.878   1.121   2.182  3.6396 -1.2704 -0.6972
  502SOL     OW 1504   2.542   0.925   1.715  0.0625  0.0111 -0.0294
  502SOL    HW1 1505   2.577   0.946   1.621 -1.5725 -2.5623 -2.5433
  502SOL    HW2 1506   2.547   0.826   1.743 -0.2141  2.0937  1.1923
  503SOL     OW 1507   1.333   0.161   0.672 -0.1135  0.2261  0.5297
  503SOL    HW1 1508   1.294   0.243   0.625  0.6027 -0.7994 -0.7206
  503SOL    HW2 1509   1.428   0.169   0.713 -0.6328  0.6464  3.2353
  504SOL     OW 1510   3.025   2.339   1.486  0.2247  0.0473 -0.3183
  504SOL    HW1 1511   2.968   2.418   1.530 -0.5799  2.5107  1.1366
  504SOL    HW2 1512   3.082   2.285   1.560  0.5222  0.2095  1.5121
  505SOL     OW 1513   2.338   1.163   1.407  0.5511  0.1917  0.1180
  505SOL    HW1 1514   2.293   1.215   1.332 -1.6297  2.6085 -2.0037
  505SOL    HW2 1515   2.402   1.218   1.461 -0.8161 -0.0401  0.8893
  506SOL     OW 1516   1.973   0.217   1.815 -0.2070  0.2107  0.4142
  506SOL    HW1 1517   2.055   0.186   1.866 -1.3912 -1.5860 -1.4029
  506SOL    HW2 1518   1.946   0.307   1.852  0.9754 -1.5312 -1.1085
  507SOL     OW 1519   0.550   0.668   2.121  0.1623  0.0262  0.4349
  507SOL    HW1 1520   0.494   0.603   2.058 -3.6183 -2.3942 -2.6838
  507SOL    HW2 1521   0.640   0.623   2.150  0.6999 -2.3957 -1.5535
  508SOL     OW 1522   0.276   1.634   0.744  0.0399 -0.1785  0.7352
  508SOL    HW1 1523   0.340   1.706   0.703 -2.3885 -0.9579  0.9489
  508SOL    HW2 1524   0.245   1.666   0.840  0.5320  1.6409  0.3148
  509SOL     OW 1525   1.254   1.224   2.405 -0.3594  0.2666 -0.1928
  509SOL    HW1 1526   1.298   1.175   2.318  0.5349 -0.5978  1.4802
  509SOL    HW2 1527   1.163   1.193   2.432  2.0962  1.5016 -1.5931
  510SOL     OW 1528   1.282   2.122   2.211 -0.4826 -0.1807  0.0146
  510SOL    HW1 1529   1.297   2.168   2.117 -1.7342  0.6658 -2.3695
  510SOL    HW2 1530   1.192   2.075   2.226 -2.6203  0.8069 -0.7185
  511SOL     OW 1531   3.006   2.683   1.303 -0.2381  0.7468  0.8375
  511SOL    HW1 1532   2.949   2.675   1.217 -0.0506 -2.0200  2.1699
  511SOL    HW2 1533   2.943   2.671   1.382  5.0884  1.0254 -1.9078
  512SOL     OW 1534   2.391   0.441   1.372 -0.6272 -0.3517 -0.2810
  512SOL    HW1 1535   2.288   0.442   1.376  0.4113 -2.0089 -1.2849
  512SOL    HW2 1536   2.415   0.461   1.279 -3.2596  1.4951  2.0064
  513SOL     OW 1537   2.615   2.108   0.876  0.7422 -0.3660  0.1802
  513SOL    HW1 1538   2.566   2.191   0.824 -0.3106  1.5606  0.8572
  513SOL    HW2 1539   2.662   2.047   0.807  1.1563 -0.0708  0.3095
  514SOL     OW 1540   0.641   2.756   0.461 -0.7534 -0.4455  0.0278
  514SOL    HW1 1541   0.636   2.837   0.396 -1.2162  1.1524 -1.1551
  514SOL    HW2 1542   0.700   2.780   0.545  0.6842  0.8052 -1.0153
  515SOL     OW 1543   1.953   1.288   2.356  0.2012 -0.4312  0.2747
  515SOL    HW1 1544   1.918   1.235   2.273  0.6428  3.0736  0.3398
  515SOL    HW2 1545   1.907   1.272   2.447 -0.6435  0.9875 -1.4072
  516SOL     OW 1546   0.264   0.249   1.916 -0.4416 -0.3626 -0.0179
  516SOL    HW1 1547   0.343   0.183   1.905  2.0771 -2.3923 -0.8927
  516SOL    HW2 1548   0.174   0.200   1.902  2.9355 -1.4067  0.0594
  517SOL     OW 1549   0.486   0.017   1.171 -0.2416  0.3584  0.1218
  517SOL    HW1 1550   0.503   0.097   1.230  1.9615 -3.5924 -0.8436
  517SOL    HW2 1551   0.386  -0.003   1.176  0.2384 -0.1848  0.0089
  518SOL     OW 1552   2.163   3.045   1.827  0.0279 -0.4311 -0.2401
  518SOL    HW1 1553   2.209   3.138   1.848 -2.6025 -1.4119 -0.5726
  518SOL    HW2 1554   2.155   3.017   1.730 -1.5185 -0.5982  1.1186
  519SOL     OW 1555   2.366   2.152   2.454  0.2477  0.4375  0.0942
  519SOL    HW1 1556   2.311   2.128   2.536  2.1670 -0.2505 -0.5060
  519SOL    HW2 1557   2.366   2.257   2.443  0.6065  0.2347  2.1188
  520SOL     OW 1558   1.843   2.706   1.755  0.3023  0.7697 -0.2790
  520SOL    HW1 1559   1.766   2.647   1.787 -0.8489  2.2683  1.6238
  520SOL    HW2 1560   1.904   2.660   1.683  2.0588 -0.7947 -0.7966
  521SOL     OW 1561   0.584   3.066   2.097 -0.0386  0.0296 -0.1545
  521SOL    HW1 1562   0.481   3.065   2.100  0.4847  0.8106  0.2213
  521SOL    HW2 1563   0.624   3.054   2.194 -2.2645 -0.8234  0.0825
  522SOL     OW 1564   0.228   1.845   1.546  0.3766 -0.3098 -0.9861
  522SOL    HW1 1565   0.273   1.891   1.628 -0.5439  0.9127 -1.5321
  522SOL    HW2 1566   0.179   1.914   1.482 -2.0563  0.8138 -1.0437
  523SOL     OW 1567   2.193   2.956   1.558  0.5399  0.3066 -0.0320
  523SOL    HW1 1568   2.276   2.888   1.559  3.4086 -3.0318 -0.8315
  523SOL    HW2 1569   2.121   2.926   1.486 -1.4707 -1.1066 -1.0473
  524SOL     OW 1570   0.192   2.773   2.785 -0.0996  0.4604 -0.2892
  524SOL    HW1 1571   0.134   2.847   2.827  3.1274  2.4763  0.2237
  524SOL    HW2 1572   0.292   2.778   2.815  2.4374 -2.3706  0.4769
  525SOL     OW 1573   2.197   1.959   0.390 -0.3302  0.1219 -0.2806
  525SOL    HW1 1574   2.207   1.884   0.466  1.1798 -2.2412  1.3480
  525SOL    HW2 1575   2.216   1.921   0.297  0.3805 -1.3640  1.6212
  526SOL     OW 1576   0.497   1.518   1.653 -0.3939 -0.3038 -0.0776
  526SOL    HW1 1577   0.504   1.528   1.759 -0.0742  0.4387 -2.1687
  526SOL    HW2 1578   0.519   1.423   1.625  1.3773  1.8919 -1.4435
  527SOL     OW 1579   1.027   2.860   1.155 -0.4238 -0.5103  0.1705
  527SOL    HW1 1580   1.090   2.786   1.198 -0.0724 -1.6448  0.5596
  527SOL    HW2 1581   1.049   2.961   1.176 -2.5838  1.0011 -1.3262
  528SOL     OW 1582   1.336   2.361   0.542  0.5119  0.5257  0.5714
  528SOL    HW1 1583   1.361   2.261   0.536  1.9390 -0.8252  1.0688
  528SOL    HW2 1584   1.417   2.421   0.576 -1.3340  1.6681 -0.2603
  529SOL     OW 1585   1.952   1.772   0.681  0.4706 -0.2978 -0.1568
  529SOL    HW1 1586   1.878   1.772   0.607  1.6423 -2.4495 -0.9112
  529SOL    HW2 1587   1.965   1.868   0.722 -1.4537 -1.4454  0.8972
  530SOL     OW 1588   0.378   2.597   0.206 -0.7780  0.2142  0.0929
  530SOL    HW1 1589   0.343   2.659   0.282 -2.6120  0.0975 -1.5227
  530SOL    HW2 1590   0.423   2.510   0.253  0.4034 -2.5351  1.4529
  531SOL     OW 1591   1.876   1.019   1.020 -0.4048 -0.2258  0.3472
  531SOL    HW1 1592   1.811   1.086   0.971 -0.4916  2.1533 -2.1764
  531SOL    HW2 1593   1.855   0.919   1.010 -0.5146 -1.7179  0.1003
  532SOL     OW 1594   0.369   1.143   0.693 -0.0950  0.3542  0.3754
  532SOL    HW1 1595   0.399   1.120   0.593  0.0486 -1.2565 -1.5975
  532SOL    HW2 1596   0.301   1.074   0.741 -3.9171 -0.4010 -0.4086
  533SOL     OW 1597   1.749   0.032   2.581  0.3260  1.0658  0.3717
  533SOL    HW1 1598   1.847  -0.007   2.573 -2.2274  1.1382 -0.5600
  533SOL    HW2 1599   1.737   0.110   2.647 -0.9724 -0.8629 -0.4532
  534SOL     OW 1600   0.291   0.181   1.483  0.5481  0.3395  0.6940
  534SOL    HW1 1601   0.362   0.207   1.413  1.6023  0.7357 -1.6221
  534SOL    HW2 1602   0.257   0.266   1.535  0.8495  0.5847  3.4724
  535SOL     OW 1603   1.897   0.417   0.208  0.4771  0.2958  0.1802
  535SOL    HW1 1604   1.937   0.463   0.293 -3.0183  1.6654  3.0205
  535SOL    HW2 1605   1.810   0.368   0.237  0.9724  2.9922  1.4157
  536SOL     OW 1606   1.426   2.577   0.939 -0.3225  0.2278 -0.0849
  536SOL    HW1 1607   1.406   2.548   1.038 -0.5455  0.1555 -0.6111
  536SOL    HW2 1608   1.335   2.586   0.882  1.1986  0.3448  1.6087
  537SOL     OW 1609   0.811   0.155   2.340  0.1553  0.2887  0.0127
  537SOL    HW1 1610   0.834   0.197   2.248 -2.2367 -1.5594 -0.3530
  537SOL    HW2 1611   0.725   0.099   2.341  1.2404 -0.6429  0.1901
  538SOL     OW 1612   1.674   2.300   1.527  0.5790 -0.0424  0.3734
  538SOL    HW1 1613   1.636   2.210   1.490 -1.0983 -0.3217  1.8834
  538SOL    HW2 1614   1.740   2.349   1.464 -1.1161  4.6111  3.1031
  539SOL     OW 1615   0.176   1.629   2.730  0.1296 -1.0630  0.0490
  539SOL    HW1 1616   0.129   1.610   2.643 -1.1847 -0.6587  0.1390
  539SOL    HW2 1617   0.127   1.693   2.796 -0.0778  2.9980 -0.3616
  540SOL     OW 1618   2.719   1.716   1.990  0.4603  0.4254  0.1820
  540SOL    HW1 1619   2.658   1.631   1.970  0.0487 -1.5390 -0.6343
  540SOL    HW2 1620   2.674   1.806   1.962 -1.7826 -0.2843 -2.2799
  541SOL     OW 1621   0.497   2.295   3.029 -0.1751 -0.2340  0.6960
  541SOL    HW1 1622   0.531   2.244   3.109  2.0398 -0.2938  0.1293
  541SOL    HW2 1623   0.396   2.293   3.029  3.6907 -1.2410 -1.5180
  542SOL     OW 1624   2.268   2.564   0.399 -0.1210 -0.0664 -0.3667
  542SOL    HW1 1625   2.251   2.664   0.406 -1.6402 -0.2733 -1.4302
  542SOL    HW2 1626   2.184   2.512   0.428 -0.7447  0.4913 -0.9109
  543SOL     OW 1627   1.071   1.718   1.652  0.2200  0.6826 -0.0744
  543SOL    HW1 1628   1.050   1.760   1.747  1.0880  3.6922 -0.1904
  543SOL    HW2 1629   1.076   1.789   1.576 -0.5445 -0.9932 -0.1087
  544SOL     OW 1630   0.976   0.403   0.212  0.5179 -0.0537 -0.4960
  544SOL    HW1 1631   1.034   0.321   0.240 -2.3407  1.5595  1.7717
  544SOL    HW2 1632   0.981   0.430   0.113  0.5822 -0.4946  2.4311
  545SOL     OW 1633   1.098   1.761   0.806 -0.2921  0.3166  1.0549
  545SOL    HW1 1634   1.192   1.792   0.770  1.3374 -2.2221 -0.8908
  545SOL    HW2 1635   1.096   1.719   0.903  1.6397 -1.6790  1.9286
  546SOL     OW 1636   2.627   1.585   0.003 -0.0822  0.3052  0.5222
  546SOL    HW1 1637   2.578   1.580  -0.083  1.7795 -0.4456 -1.1063
  546SOL    HW2 1638   2.564   1.588   0.090 -0.8478  1.1117  3.0774
  547SOL     OW 1639   0.559   0.025   2.654  0.2304  0.0237  0.2565
  547SOL    HW1 1640   0.650  -0.028   2.636  3.7064 -3.1900 -1.3051
  547SOL    HW2 1641   0.478  -0.012   2.607 -1.7252 -0.3169  2.4049
  548SOL     OW 1642   2.062   0.849   3.049  0.1425  0.2915  0.2442
  548SOL    HW1 1643   1.970   0.828   3.014  2.6508  0.7120  1.7538
  548SOL    HW2 1644   2.085   0.951   3.069  3.3715 -0.2182  0.3190
  549SOL     OW 1645   0.689   0.537   0.201  0.4600 -0.6889 -0.2544
  549SOL    HW1 1646   0.647   0.590   0.122 -0.0763 -0.9990  1.4791
  549SOL    HW2 1647   0.784   0.584   0.222  1.5036  3.1336  2.9778
  550SOL     OW 1648   2.509   2.857   2.883 -0.8152  0.1718 -0.3963
  550SOL    HW1 1649   2.495   2.801   2.972  0.3086 -1.2839  1.3317
  550SOL    HW2 1650   2.526   2.798   2.797 -1.8641  2.3793 -0.1664
  551SOL     OW 1651   0.280   0.855   0.227  0.1023  0.3363  0.4623
  551SOL    HW1 1652   0.377   0.887   0.219  1.1359 -2.4408 -0.9317
  551SOL    HW2 1653   0.246   0.869   0.321 -0.4276  0.1800 -0.9216
  552SOL     OW 1654   0.686   2.966   1.842  0.3041  0.7366 -0.1631
  552SOL    HW1 1655   0.678   2.994   1.938 -0.8877 -0.2852  0.4571
  552SOL    HW2 1656   0.767   3.015   1.801 -1.5032 -0.0625 -1.1016
  553SOL     OW 1657   3.043   2.572   0.352 -0.4583 -0.1133 -0.0473
  553SOL    HW1 1658   2.998   2.482   0.347 -1.7352  0.9037 -1.3247
  553SOL    HW2 1659   3.013   2.620   0.439 -1.0118 -0.5348  0.1440
  554SOL     OW 1660   2.139   0.359   0.568 -0.8809  0.1777  0.5672
  554SOL    HW1 1661   2.224   0.358   0.507 -1.6493 -0.1064  0.6464
  554SOL    HW2 1662   2.149   0.286   0.642  1.8845  0.8237 -1.7866
  555SOL     OW 1663   0.411   2.906   2.500 -0.0991 -1.1326  0.1119
  555SOL    HW1 1664   0.330   2.947   2.444 -0.6902 -0.8780 -1.9377
  555SOL    HW2 1665   0.434   2.815   2.457 -1.8197  1.4679  0.1335
  556SOL     OW 1666   0.786   2.386   1.564  0.0748  0.1086 -0.6572
  556SOL    HW1 1667   0.830   2.473   1.602  0.0654  1.3916 -1.0986
  556SOL    HW2 1668   0.830   2.361   1.473 -2.3097 -3.0865 -0.0049
  557SOL     OW 1669   0.087   2.067   0.148 -0.0071 -0.4578 -0.4218
  557SOL    HW1 1670   0.039   1.998   0.091 -1.8283  0.8578  2.7147
  557SOL    HW2 1671   0.147   2.126   0.087  0.1593 -0.8886 -1.3383
  558SOL     OW 1672   2.938   2.316   0.279  0.1587 -0.1355 -0.1561
  558SOL    HW1 1673   2.836   2.333   0.275 -0.9974 -1.4901  0.1739
  558SOL    HW2 1674   2.983   2.304   0.186 -0.7036 -1.7464  0.0706
  559SOL     OW 1675   0.361   2.303   1.351  0.0771 -0.0252  0.2425
  559SOL    HW1 1676   0.273   2.302   1.302 -1.1158  1.2938 -0.1672
  559SOL    HW2 1677   0.428   2.225   1.321  2.0973 -0.7417  0.6619
  560SOL     OW 1678   2.094   1.124   3.084  0.2142 -0.1720  0.1410
  560SOL    HW1 1679   2.045   1.156   3.170  2.0380  0.0784  1.5338
  560SOL    HW2 1680   2.146   1.197   3.032 -0.8627 -1.2450 -3.3057
  561SOL     OW 1681   3.018   1.880   0.020  0.3047 -0.1355 -0.1350
  561SOL    HW1 1682   2.980   1.845   0.110  1.7037  0.0403 -1.4641
  561SOL    HW2 1683   2.951   1.944  -0.024  2.8795 -1.4707  1.6012
  562SOL     OW 1684   0.996   2.256   2.362  0.9488  0.7437  0.1776
  562SOL    HW1 1685   0.908   2.217   2.391 -0.0742  1.7386 -1.1879
  562SOL    HW2 1686   1.005   2.357   2.398 -2.2171 -0.4372  0.1949
  563SOL     OW 1687   0.720   2.542   2.565  0.4274  0.7613 -0.0935
  563SOL    HW1 1688   0.775   2.453   2.594  0.0708 -3.5633 -0.6276
  563SOL    HW2 1689   0.716   2.608   2.644  1.2312 -0.1982  0.9622
  564SOL     OW 1690   2.767   1.308   2.951 -0.3297 -0.0042  0.1379
  564SOL    HW1 1691   2.723   1.317   3.046  1.1309  0.0512 -0.1196
  564SOL    HW2 1692   2.776   1.397   2.901  2.2701 -0.5025  0.5265
  565SOL     OW 1693   2.577   1.928   2.605  0.1793 -0.0872  0.0461
  565SOL    HW1 1694   2.544   1.989   2.528  0.5507 -0.0953 -0.8965
  565SOL    HW2 1695   2.616   1.982   2.685 -2.4022 -0.6230  1.0447
  566SOL     OW 1696   1.944   2.856   1.363 -0.1959 -0.2301 -0.1591
  566SOL    HW1 1697   1.924   2.757   1.341 -1.9191  0.4960 -2.0841
  566SOL    HW2 1698   1.911   2.923   1.284  1.3358 -0.6075 -2.6209
  567SOL     OW 1699   2.497   0.039   2.272  0.0587  0.5230  0.2930
  567SOL    HW1 1700   2.600   0.035   2.293  2.2369  1.1296  2.6095
  567SOL    HW2 1701   2.480   0.016   2.174  0.2891  1.2741  1.0007
  568SOL     OW 1702   1.556   1.786   0.288  0.1362  0.3075  0.6035
  568SOL    HW1 1703   1.484   1.851   0.254 -0.7681 -0.0166  0.7738
  568SOL    HW2 1704   1.634   1.775   0.220 -1.5425 -0.7498 -2.3092
  569SOL     OW 1705   0.267   0.694   0.783 -0.3027  0.1284 -0.4484
  569SOL    HW1 1706   0.340   0.632   0.754 -0.1307  1.1029  0.8594
  569SOL    HW2 1707   0.176   0.649   0.789  0.3919  2.2469 -0.1066
  570SOL     OW 1708   0.609   0.806   2.841 -0.0553  0.3314  0.0686
  570SOL    HW1 1709   0.686   0.809   2.776 -2.3159  1.0149 -0.7582
  570SOL    HW2 1710   0.624   0.881   2.911  0.4409 -0.6626  1.5894
  571SOL     OW 1711   0.796   3.094   1.043  0.2429  0.4506 -0.1901
  571SOL    HW1 1712   0.857   3.104   0.959  0.0953  1.9372 -1.4411
  571SOL    HW2 1713   0.712   3.035   1.025  1.3611  2.3981 -3.0407
  572SOL     OW 1714   1.579   2.618   1.255 -0.4253 -0.1744  0.4072
  572SOL    HW1 1715   1.489   2.562   1.241  0.4869  0.5477  1.4920
  572SOL    HW2 1716   1.573   2.715   1.222  0.6749 -1.1189  1.0900
  573SOL     OW 1717   2.869   0.469   2.031 -0.5406  0.5861  0.2967
  573SOL    HW1 1718   2.840   0.370   2.058 -1.2296  0.9903  2.7989
  573SOL    HW2 1719   2.790   0.530   2.002  0.7121 -0.0504 -0.2882
  574SOL     OW 1720   0.192   1.719   0.999  0.2880 -0.6925 -0.2210
  574SOL    HW1 1721   0.186   1.821   0.973  1.1415  0.5338 -1.4940
  574SOL    HW2 1722   0.121   1.689   1.071 -0.3337 -0.1085  0.1765
  575SOL     OW 1723   0.935   2.157   0.970 -0.3608  0.2367  0.2504
  575SOL    HW1 1724   0.862   2.185   1.040  0.2639  1.5942 -0.8461
  575SOL    HW2 1725   0.965   2.238   0.912  0.9301 -1.0282  0.2924
  576SOL     OW 1726   2.896   2.991   1.681  0.4736  0.6138  0.2399
  576SOL    HW1 1727   2.815   2.967   1.626  1.8380 -0.2411  0.9522
  576SOL    HW2 1728   2.918   3.089   1.669  1.7272 -0.1720 -2.1045
  577SOL     OW 1729   2.511   1.234   0.041 -0.1630  0.1501 -0.0014
  577SOL    HW1 1730   2.531   1.169  -0.040 -0.6994  0.0496 -1.7151
  577SOL    HW2 1731   2.577   1.236   0.123 -0.9853 -1.1787 -1.3112
  578SOL     OW 1732   1.334   2.745   2.497  0.2147  0.1267 -0.3588
  578SOL    HW1 1733   1.229   2.756   2.494 -0.0751 -1.8858 -1.8675
  578SOL    HW2 1734   1.387   2.835   2.505 -0.0343 -0.2667 -0.1501
  579SOL     OW 1735   0.080   2.503   0.133 -0.2558  0.0766 -0.0532
  579SOL    HW1 1736   0.031   2.558   0.210 -0.6853  1.5393 -0.7324
  579SOL    HW2 1737   0.178   2.476   0.162  1.9146 -0.3599  1.3416
  580SOL     OW 1738   1.023   2.625   0.425 -0.9897 -0.2942 -0.0310
  580SOL    HW1 1739   1.107   2.633   0.368  0.7856  1.2274 -0.1153
  580SOL    HW2 1740   0.936   2.602   0.366  1.9581  3.0188 -0.1649
  581SOL     OW 1741   1.285   2.568   1.517 -0.0305 -0.3730  0.0256
  581SOL    HW1 1742   1.342   2.477   1.525  3.3902 -0.7534 -0.6012
  581SOL    HW2 1743   1.331   2.633   1.450 -1.0932 -0.3195 -1.4109
  582SOL     OW 1744   1.492   0.083   1.863  0.2184 -0.1935  0.0755
  582SOL    HW1 1745   1.508   0.149   1.942  1.0368 -0.4445  2.0814
  582SOL    HW2 1746   1.577   0.064   1.807 -1.0028 -1.1405  0.3141
  583SOL     OW 1747   2.506   3.052   0.500 -0.1890  0.3478  0.1218
  583SOL    HW1 1748   2.594   3.021   0.456  2.2623 -0.3346 -0.7211
  583SOL    HW2 1749   2.440   2.978   0.542 -0.4730 -0.3901 -2.8798
  584SOL     OW 1750   1.622   0.929   2.095 -0.3708 -0.3238  0.2002
  584SOL    HW1 1751   1.693   0.906   2.020 -0.8752 -2.2811 -2.8401
  584SOL    HW2 1752   1.653   0.904   2.191 -1.7207  1.9805 -0.1261
  585SOL     OW 1753   2.091   2.655   2.918  0.0708 -0.2535 -0.4077
  585SOL    HW1 1754   2.109   2.564   2.885 -0.3043  3.1737 -1.3924
  585SOL    HW2 1755   1.989   2.684   2.905 -1.0870  3.8937 -0.5043
  586SOL     OW 1756   2.804   0.316   1.545  0.4752  0.7927 -0.5954
  586SOL    HW1 1757   2.830   0.392   1.618  0.2071  3.3151  1.0958
  586SOL    HW2 1758   2.712   0.272   1.573 -0.3008  1.3248  0.0576
  587SOL     OW 1759   1.964   1.529   2.729  0.1604  0.4516 -0.2966
  587SOL    HW1 1760   2.024   1.482   2.661  2.7090 -0.1751 -1.8910
  587SOL    HW2 1761   2.002   1.533   2.826 -1.8232 -0.5005  1.1891
  588SOL     OW 1762   0.462   2.722   2.244 -0.0976 -0.7658  0.2992
  588SOL    HW1 1763   0.363   2.705   2.213 -0.8892 -0.3731 -1.6622
  588SOL    HW2 1764   0.497   2.637   2.295 -0.9141 -0.7871 -1.5640
  589SOL     OW 1765   2.124   1.408   2.543  0.0363  0.1269 -0.6897
  589SOL    HW1 1766   2.064   1.362   2.472 -0.0985 -0.2625  0.2042
  589SOL    HW2 1767   2.221   1.368   2.544  2.9618 -0.1145  0.4751
  590SOL     OW 1768   2.338   1.656   2.042  0.3694 -0.0168 -0.0141
  590SOL    HW1 1769   2.406   1.578   2.031 -1.5187 -1.6571  0.8245
  590SOL    HW2 1770   2.350   1.694   2.139  0.2606 -0.5529  0.5052
  591SOL     OW 1771   1.326   2.408   0.256 -0.0814 -0.2648  0.0192
  591SOL    HW1 1772   1.384   2.343   0.200  0.4726 -0.3475 -0.7617
  591SOL    HW2 1773   1.328   2.390   0.358  0.1375 -0.5644 -0.1543
  592SOL     OW 1774   1.797   2.316   0.758  0.5440 -0.1631 -0.6553
  592SOL    HW1 1775   1.786   2.381   0.677  1.0281  1.4426 -1.2430
  592SOL    HW2 1776   1.897   2.294   0.776 -0.8774  0.9212  0.9913
  593SOL     OW 1777   0.701   0.268   0.214  0.0266  0.1057  0.5020
  593SOL    HW1 1778   0.770   0.236   0.139  2.3885 -0.3304  0.6530
  593SOL    HW2 1779   0.687   0.373   0.218 -0.8058 -1.9764  0.7227
  594SOL     OW 1780   0.938   1.868   2.706  0.3004  0.4681 -0.1260
  594SOL    HW1 1781   1.040   1.854   2.711 -1.2263 -1.1573  0.1443
  594SOL    HW2 1782   0.911   1.970   2.731  1.3830  1.1082 -2.2508
  595SOL     OW 1783   1.567   0.058   1.086  0.5850 -0.2226  0.5529
  595SOL    HW1 1784   1.646   0.008   1.038  0.0632 -0.1362  2.3056
  595SOL    HW2 1785   1.482   0.060   1.029  0.8023  0.6907  0.7110
  596SOL     OW 1786   0.012   1.435   2.220 -0.0679 -0.7268  0.4869
  596SOL    HW1 1787  -0.017   1.337   2.236  1.5704 -1.5057  1.5216
  596SOL    HW2 1788   0.034   1.482   2.312 -1.5985  0.8791 -2.8271
  597SOL     OW 1789   2.018   2.539   1.615 -0.5557 -0.3149 -0.4568
  597SOL    HW1 1790   2.030   2.469   1.548  0.0564  1.3783  1.2414
  597SOL    HW2 1791   2.104   2.549   1.667  0.1902  0.0383  0.0084
  598SOL     OW 1792   2.513   2.978   1.307 -0.2869 -0.1877 -0.5434
  598SOL    HW1 1793   2.595   3.014   1.358 -0.5335 -0.2293  0.8146
  598SOL    HW2 1794   2.536   2.933   1.218  1.7964  2.8511  0.3903
  599SOL     OW 1795   2.955   0.362   2.514 -0.1257 -0.3741  0.2985
  599SOL    HW1 1796   3.052   0.402   2.515 -0.6897 -1.4937  0.9060
  599SOL    HW2 1797   2.887   0.409   2.448 -0.0667 -1.2945  0.1972
  600SOL     OW 1798   2.772   1.116   2.717  0.2681  0.0802  0.7960
  600SOL    HW1 1799   2.758   1.014   2.734  0.1332  2.0997 -1.3784
  600SOL    HW2 1800   2.730   1.172   2.792  1.2598 -1.1144 -0.8955
  601SOL     OW 1801   2.980   1.274   1.951  0.1081 -0.3979  0.3447
  601SOL    HW1 1802   2.917   1.323   1.888  3.0459  1.0945  1.9432
  601SOL    HW2 1803   3.057   1.336   1.975  1.4352 -1.0516 -1.3203
  602SOL     OW 1804   1.428   1.713   2.368  0.0857  0.5674  0.1064
  602SOL    HW1 1805   1.377   1.620   2.367 -3.0668 -1.0073  1.5815
  602SOL    HW2 1806   1.531   1.707   2.365  0.0167 -1.3046  0.5315
  603SOL     OW 1807   0.584   1.211   2.758  0.1622 -0.4756 -0.4899
  603SOL    HW1 1808   0.498   1.204   2.702  0.7194 -0.7445 -0.0029
  603SOL    HW2 1809   0.658   1.154   2.721 -1.9951  0.6725  0.4820
  604SOL     OW 1810   2.388   1.006   0.141  0.0815 -0.2111 -0.1533
  604SOL    HW1 1811   2.403   1.099   0.106  1.7747 -2.8153  1.5162
  604SOL    HW2 1812   2.363   0.930   0.069 -0.5243  0.8490 -0.7649
  605SOL     OW 1813   2.538   1.166   1.909 -0.5105 -0.3316  0.4690
  605SOL    HW1 1814   2.572   1.092   1.848  0.5167  0.1669 -4.3499
  605SOL    HW2 1815   2.609   1.202   1.982  0.3619  0.6285  2.0784
  606SOL     OW 1816   1.462   2.526   2.589  0.2804 -0.6251 -0.5378
  606SOL    HW1 1817   1.399   2.592   2.533 -0.3095  1.0948 -1.2284
  606SOL    HW2 1818   1.453   2.424   2.578 -0.3765  0.4797  0.7210
  607SOL     OW 1819   1.350   1.612   0.385 -0.7358  0.1122 -0.3368
  607SOL    HW1 1820   1.266   1.662   0.419  1.4739  0.0558 -0.2101
  607SOL    HW2 1821   1.437   1.667   0.373  0.6253  0.0732  1.4082
  608SOL     OW 1822   1.444   2.870   0.329  0.1860  0.6938 -0.3079
  608SOL    HW1 1823   1.535   2.902   0.289 -0.4837  0.1362  1.0935
  608SOL    HW2 1824   1.393   2.948   0.373 -1.4422 -0.4090 -0.6586
  609SOL     OW 1825   1.328   1.390   0.225 -0.3102 -0.0853 -1.2918
  609SOL    HW1 1826   1.326   1.466   0.299 -0.5493  0.1846  1.5143
  609SOL    HW2 1827   1.254   1.392   0.157 -2.3647 -1.2227  0.4906
  610SOL     OW 1828   3.031   1.128   2.184 -0.3306  0.1168  0.6458
  610SOL    HW1 1829   3.026   1.024   2.186 -0.1568  0.0312  1.6988
  610SOL    HW2 1830   2.965   1.173   2.121  0.4788 -1.2255 -2.0851
  611SOL     OW 1831   2.561   0.283   1.111 -0.2997  0.2563  0.0261
  611SOL    HW1 1832   2.479   0.233   1.156  0.0984  0.1415  0.6872
  611SOL    HW2 1833   2.648   0.276   1.169 -0.5510  2.1804 -0.5126
  612SOL     OW 1834   0.760   2.248   1.162 -0.4173  0.3551 -0.6062
  612SOL    HW1 1835   0.674   2.199   1.196  2.1913  0.2509 -1.5643
  612SOL    HW2 1836   0.736   2.336   1.108 -1.4033  0.4607 -0.5739
  613SOL     OW 1837   0.819   1.368   2.453  0.6567 -0.2837  0.4064
  613SOL    HW1 1838   0.791   1.438   2.384  0.9586  1.2680  0.5841
  613SOL    HW2 1839   0.821   1.275   2.410  0.6767 -0.7312 -1.7994
  614SOL     OW 1840   1.595   1.646   1.981 -0.1345  0.3688 -0.0933
  614SOL    HW1 1841   1.548   1.735   2.006 -1.1334 -0.6779  0.5065
  614SOL    HW2 1842   1.686   1.627   2.028 -1.0365 -1.7434 -0.8117
  615SOL     OW 1843   0.764   1.306   1.709  0.2766  0.0209  0.0351
  615SOL    HW1 1844   0.686   1.268   1.642 -1.7886 -1.1171  0.4111
  615SOL    HW2 1845   0.812   1.394   1.680  1.0276  2.5491  2.2003
  616SOL     OW 1846   1.053   1.669   2.228 -0.5504  0.0784 -0.3904
  616SOL    HW1 1847   0.958   1.624   2.214  2.0399  0.2373 -3.8065
  616SOL    HW2 1848   1.056   1.771   2.214  1.6472 -2.3753  0.0252
  617SOL     OW 1849   2.948   1.582   1.612  0.1696  0.2786  0.0398
  617SOL    HW1 1850   2.925   1.503   1.670 -1.8995 -0.1673 -0.4019
  617SOL    HW2 1851   3.016   1.557   1.534 -0.1315 -1.8299  2.4788
  618SOL     OW 1852   1.878   1.976   1.389  0.1133 -0.1928  0.3838
  618SOL    HW1 1853   1.950   1.993   1.313 -0.7344 -0.1711  0.8035
  618SOL    HW2 1854   1.861   1.874   1.402 -1.0837 -1.4975 -0.6560
  619SOL     OW 1855   1.779   0.437   2.368 -0.5009  0.0009  0.0416
  619SOL    HW1 1856   1.702   0.497   2.327  0.8089 -1.7518  0.7087
  619SOL    HW2 1857   1.754   0.340   2.394 -0.0048  0.4464 -2.7976
  620SOL     OW 1858   2.295   2.920   0.636 -0.3755  0.4421 -0.4806
  620SOL    HW1 1859   2.247   3.008   0.659 -3.0866  2.6528  1.2092
  620SOL    HW2 1860   2.324   2.865   0.723 -1.1115  1.9740 -1.7605
  621SOL     OW 1861   2.158   1.834   1.285 -0.4775 -0.4827  0.2928
  621SOL    HW1 1862   2.165   1.862   1.385 -0.3324  2.8755  2.7700
  621SOL    HW2 1863   2.113   1.744   1.272  3.2285 -0.3293  1.6401
  622SOL     OW 1864   2.276   0.923   1.768  0.1308  0.1725  0.3901
  622SOL    HW1 1865   2.375   0.937   1.748 -1.1525  1.9998  3.2702
  622SOL    HW2 1866   2.256   0.834   1.820 -1.5635  1.0619  3.7280
  623SOL     OW 1867   1.331   0.824   2.643 -0.3596 -0.0561  0.3874
  623SOL    HW1 1868   1.329   0.736   2.696  1.3995 -0.3260  0.7386
  623SOL    HW2 1869   1.280   0.817   2.554  1.1258  0.8065  0.4342
  624SOL     OW 1870   0.572   0.694   3.088 -0.0051 -0.7321 -0.2784
  624SOL    HW1 1871   0.587   0.710   2.984 -0.3900 -2.3728  0.5604
  624SOL    HW2 1872   0.571   0.779   3.146 -0.0172 -0.4810  0.5524
  625SOL     OW 1873   2.805   1.718   0.999 -0.1851 -0.4158 -0.9594
  625SOL    HW1 1874   2.714   1.770   0.985 -0.9706  0.1752 -1.1356
  625SOL    HW2 1875   2.875   1.776   1.045  0.9040 -1.7083 -3.4919
  626SOL     OW 1876   0.597   2.753   1.716  0.0186 -0.4702  0.4196
  626SOL    HW1 1877   0.640   2.834   1.772  0.1825  0.3334  0.5555
  626SOL    HW2 1878   0.500   2.731   1.749  0.2588  2.3469  1.3338
  627SOL     OW 1879   0.774   0.952   1.497  0.6594  0.3744  0.3294
  627SOL    HW1 1880   0.745   0.892   1.415 -1.0512  2.0698  0.0064
  627SOL    HW2 1881   0.791   1.047   1.469 -0.6369 -1.8486  0.9209
  628SOL     OW 1882   2.422   0.147   0.688 -0.7173  0.1811  0.3653
  628SOL    HW1 1883   2.478   0.078   0.632  1.8541  2.9828 -0.8115
  628SOL    HW2 1884   2.323   0.128   0.706 -3.9936  1.8499 -0.9400
  629SOL     OW 1885   1.984   0.922   1.971 -0.0799 -0.2586 -0.0501
  629SOL    HW1 1886   2.016   0.946   1.872 -0.0488 -1.3142 -0.2334
  629SOL    HW2 1887   1.942   1.002   2.026 -2.5716  0.1989  0.2491
  630SOL     OW 1888   2.901   2.214   0.834 -0.2491 -0.1652 -0.0710
  630SOL    HW1 1889   2.828   2.275   0.876 -0.3652 -0.2674  1.7635
  630SOL    HW2 1890   2.852   2.124   0.808 -2.1787 -1.1041  1.9055
  631SOL     OW 1891   3.003   0.166   2.124 -0.4914  0.3147  0.1340
  631SOL    HW1 1892   3.065   0.184   2.210 -1.5042 -0.4602  1.2933
  631SOL    HW2 1893   3.048   0.180   2.035 -1.0892  0.0579  0.4499
  632SOL     OW 1894   2.385   2.539   0.644  0.0076 -0.3949  0.0433
  632SOL    HW1 1895   2.342   2.608   0.706  0.1846  0.4964  2.4616
  632SOL    HW2 1896   2.363   2.542   0.544 -1.3735  0.5946  0.5930
  633SOL     OW 1897   1.407   1.215   2.616  0.1037  0.2576 -1.1613
  633SOL    HW1 1898   1.422   1.307   2.663 -1.4353  0.5299 -0.0440
  633SOL    HW2 1899   1.342   1.213   2.530 -2.0421 -0.1277  0.6525
  634SOL     OW 1900   0.727   2.031   0.871 -0.0729  0.0196  0.3418
  634SOL    HW1 1901   0.643   2.070   0.917  0.5471  0.4835  1.1650
  634SOL    HW2 1902   0.816   2.087   0.886 -0.9532 -0.3612  0.2083
  635SOL     OW 1903   2.988   2.359   0.002  0.4414 -0.2234 -0.0472
  635SOL    HW1 1904   2.905   2.412  -0.034 -0.8051 -0.9762 -1.4177
  635SOL    HW2 1905   3.074   2.418   0.027  0.4451  1.7057 -0.1381
  636SOL     OW 1906   2.297   2.735   2.048 -0.0390 -0.2543  0.2630
  636SOL    HW1 1907   2.301   2.839   2.053  2.1206  2.1412  0.4245
  636SOL    HW2 1908   2.228   2.703   2.120 -0.4100  0.7084 -3.7344
  637SOL     OW 1909   2.670   0.632   1.991  0.1065  0.0543  0.9820
  637SOL    HW1 1910   2.603   0.623   1.906  0.7673 -1.6282 -3.6628
  637SOL    HW2 1911   2.705   0.731   1.999 -0.4847 -0.8931  0.4984
  638SOL     OW 1912   2.453   1.818   1.253 -0.2340 -0.2538 -0.2302
  638SOL    HW1 1913   2.362   1.788   1.212 -1.8021 -2.4846 -0.3646
  638SOL    HW2 1914   2.491   1.749   1.319  1.5911  0.1868 -0.2126
  639SOL     OW 1915   1.293   2.115   1.717 -0.1134  0.8158  0.8883
  639SOL    HW1 1916   1.288   2.125   1.615 -0.0325 -1.5958 -0.7312
  639SOL    HW2 1917   1.199   2.094   1.758  0.6338 -0.5619  1.0502
  640SOL     OW 1918   0.174   1.158   1.596  0.1738  0.1772  0.1161
  640SOL    HW1 1919   0.152   1.188   1.692  0.6542 -1.9478  2.5270
  640SOL    HW2 1920   0.271   1.128   1.597  1.3800 -0.0749  1.0351
  641SOL     OW 1921   2.048   0.165   1.557  0.4585 -0.4092 -0.3825
  641SOL    HW1 1922   2.005   0.171   1.656  1.1149  3.1530 -0.5850
  641SOL    HW2 1923   2.151   0.169   1.556  0.3693  0.4432  0.2335
  642SOL     OW 1924   2.007   3.095   0.340 -0.0933  0.6973 -0.7545
  642SOL    HW1 1925   2.078   3.151   0.393  0.1691 -0.1205  1.0736
  642SOL    HW2 1926   1.940   3.049   0.405 -1.1497  2.1843  0.2491
  643SOL     OW 1927   2.957   1.841   2.065 -0.1270  0.5236 -0.6797
  643SOL    HW1 1928   2.874   1.790   2.029  0.1399 -0.5862 -1.1587
  643SOL    HW2 1929   2.953   1.941   2.041  0.6700 -2.0176 -0.8225
  644SOL     OW 1930   2.213   2.369   1.180  0.1003 -0.3092  0.0379
  644SOL    HW1 1931   2.290   2.303   1.150  1.4039 -0.3797 -0.6536
  644SOL    HW2 1932   2.188   2.358   1.285 -0.0428 -0.9331  1.5679
  645SOL     OW 1933   0.612   0.818   1.285 -0.3407 -0.6130  0.0413
  645SOL    HW1 1934   0.518   0.834   1.319  2.3937 -2.4830  0.9498
  645SOL    HW2 1935   0.618   0.813   1.185  1.1990 -0.0510  0.1569
  646SOL     OW 1936   1.437   1.852   2.066 -0.1878 -0.0376 -0.5498
  646SOL    HW1 1937   1.442   1.947   2.029  0.8940 -0.4390  0.3408
  646SOL    HW2 1938   1.423   1.848   2.168  0.9604  0.2511 -0.2340
  647SOL     OW 1939   0.789   1.080   0.696  0.5032  0.6473 -0.5414
  647SOL    HW1 1940   0.857   1.100   0.774  0.9590  0.7932  2.0213
  647SOL    HW2 1941   0.702   1.024   0.726 -3.5070 -0.9551  1.0376
  648SOL     OW 1942   0.088   0.237   0.240 -0.0709 -0.2187 -0.1084
  648SOL    HW1 1943   0.141   0.185   0.166  0.0394  0.5022 -3.2400
  648SOL    HW2 1944   0.092   0.345   0.232  1.5933  1.2787  0.3946
  649SOL     OW 1945   3.025   0.249   0.828  0.3558 -0.6586  0.9832
  649SOL    HW1 1946   3.119   0.214   0.847 -0.1818  1.4932 -0.6773
  649SOL    HW2 1947   3.001   0.333   0.878  3.0389 -0.6561 -1.8393
  650SOL     OW 1948   2.790   0.741   1.504  0.0180 -0.0372 -0.8004
  650SOL    HW1 1949   2.688   0.721   1.498  1.2338  1.9127 -0.3873
  650SOL    HW2 1950   2.827   0.804   1.432 -0.3469  1.6681  2.2572
  651SOL     OW 1951   0.900   1.512   1.575  0.4447 -0.1653  0.2587
  651SOL    HW1 1952   0.959   1.583   1.627  4.2438  2.5624  0.0923
  651SOL    HW2 1953   0.911   1.524   1.474  0.4989  0.3849  1.5557
  652SOL     OW 1954   2.335   2.424   2.480  0.0852  0.0323  0.2347
  652SOL    HW1 1955   2.229   2.420   2.477 -0.3794  3.3981  1.0349
  652SOL    HW2 1956   2.365   2.525   2.482  0.0946 -1.5564  1.9528
  653SOL     OW 1957   2.696   1.237   0.238  0.5084  0.0864 -0.2036
  653SOL    HW1 1958   2.720   1.334   0.258  1.7122 -0.5812 -1.8097
  653SOL    HW2 1959   2.761   1.169   0.275 -0.7076 -0.5509  2.2673
  654SOL     OW 1960   1.240   2.243   1.258  0.3967  0.1822 -0.1145
  654SOL    HW1 1961   1.260   2.156   1.316 -1.1151 -1.2603 -0.4899
  654SOL    HW2 1962   1.269   2.233   1.157 -1.7545  1.6075  0.1528
  655SOL     OW 1963   0.177   0.947   1.959  0.0969  0.4564  0.6986
  655SOL    HW1 1964   0.243   0.914   1.885  1.1246 -0.5916  0.6172
  655SOL    HW2 1965   0.163   1.049   1.954 -3.3318 -1.1273  0.7137
  656SOL     OW 1966   2.571   2.432   2.623 -0.3467 -0.4288  0.1752
  656SOL    HW1 1967   2.670   2.423   2.591  1.4611 -0.1033  1.4168
  656SOL    HW2 1968   2.504   2.368   2.583  0.3386  2.4948  3.5142
  657SOL     OW 1969   3.004   1.000   1.894 -0.0566  0.3899 -0.1861
  657SOL    HW1 1970   3.008   1.101   1.923  0.3336  0.9804  1.4411
  657SOL    HW2 1971   3.095   0.955   1.896  0.6461  3.5330  0.2203
  658SOL     OW 1972   1.626   0.173   2.367  0.1715  0.1872 -0.2284
  658SOL    HW1 1973   1.662   0.093   2.428 -0.4450 -1.2184 -0.2172
  658SOL    HW2 1974   1.697   0.197   2.295  1.0825  1.3960 -0.8772
  659SOL     OW 1975   1.388   0.630   2.837 -0.7083  0.0150  0.0276
  659SOL    HW1 1976   1.438   0.720   2.868 -0.0696 -0.3862  0.2491
  659SOL    HW2 1977   1.288   0.637   2.860  0.6600  0.0023 -0.1998
  660SOL     OW 1978   1.422   0.342   1.392  0.2744  0.2236 -0.1302
  660SOL    HW1 1979   1.453   0.354   1.487 -1.6525 -1.2051 -2.7400
  660SOL    HW2 1980   1.451   0.248   1.351 -1.7203  0.8456  0.5230
  661SOL     OW 1981   2.412   1.184   0.657  0.9495 -0.4768  0.2631
  661SOL    HW1 1982   2.433   1.177   0.560  2.2236  0.9509  2.7125
  661SOL    HW2 1983   2.356   1.270   0.681 -0.1260  0.5938  0.9848
  662SOL     OW 1984   1.409   0.377   1.731 -0.0444  0.2577  0.2871
  662SOL    HW1 1985   1.345   0.311   1.780  0.2182  1.0122  0.4443
  662SOL    HW2 1986   1.401   0.472   1.775  0.0776  0.4912 -0.0668
  663SOL     OW 1987   0.788   1.549   2.204 -0.2283  0.2558  0.6247
  663SOL    HW1 1988   0.722   1.628   2.197  0.7517  1.3212  1.8913
  663SOL    HW2 1989   0.768   1.485   2.117 -0.3703 -4.7100 -3.0586
  664SOL     OW 1990   1.609   2.049   1.398 -0.3501  0.2718  0.6506
  664SOL    HW1 1991   1.542   2.012   1.469 -2.2152 -0.8743  2.3396
  664SOL    HW2 1992   1.710   2.024   1.416 -1.1251  2.6202  2.8467
  665SOL     OW 1993   2.241   0.698   1.937  0.1783 -0.1158 -0.2238
  665SOL    HW1 1994   2.184   0.614   1.921  0.7922 -2.0546  1.1099
  665SOL    HW2 1995   2.271   0.706   2.039 -0.4448 -0.3363 -1.5920
  666SOL     OW 1996   0.446   2.298   0.342 -0.0041 -0.4091  0.1197
  666SOL    HW1 1997   0.488   2.368   0.407 -0.4781  1.2106 -0.6254
  666SOL    HW2 1998   0.343   2.277   0.357  1.6054 -0.4758  2.0085
  667SOL     OW 1999   2.065   0.189   1.199 -0.4345  0.0343  0.4339
  667SOL    HW1 2000   2.069   0.291   1.180 -1.2605  0.1693  2.3091
  667SOL    HW2 2001   1.968   0.166   1.230 -1.1048  2.4067 -0.0162
  668SOL     OW 2002   2.055   0.481   1.116  0.1350 -0.0476  0.2095
  668SOL    HW1 2003   2.115   0.498   1.033 -2.1195 -1.9207  2.4653
  668SOL    HW2 2004   2.096   0.507   1.203  0.0935  0.5665 -1.4850
  669SOL     OW 2005   3.093   2.113   1.042  0.2890  0.5045  0.5017
  669SOL    HW1 2006   3.016   2.163   0.997 -4.0027  0.2308  0.9621
  669SOL    HW2 2007   3.134   2.173   1.112  0.5151 -0.0652  0.9519
  670SOL     OW 2008   2.866   2.349   2.005  0.1638 -0.2043 -0.7203
  670SOL    HW1 2009   2.809   2.317   2.081  0.5576  0.5182 -1.7973
  670SOL    HW2 2010   2.851   2.453   1.993 -0.5064  3.2884  0.0239
  671SOL     OW 2011   1.700   1.768   1.496  0.3737 -0.8071  0.0379
  671SOL    HW1 2012   1.699   1.758   1.392  2.2262 -2.8259 -0.5372
  671SOL    HW2 2013   1.606   1.804   1.533 -3.3658 -1.5845 -0.3917
  672SOL     OW 2014   0.422   0.633   2.384 -0.2151  0.0831  0.4722
  672SOL    HW1 2015   0.479   0.650   2.297 -1.0079 -1.5454  0.5988
  672SOL    HW2 2016   0.331   0.681   2.387 -1.7123 -0.4343 -0.9834
  673SOL     OW 2017   0.115   1.222   1.125 -0.2730 -0.5440  0.1655
  673SOL    HW1 2018   0.142   1.287   1.199  1.8309 -0.3239  0.4856
  673SOL    HW2 2019   0.196   1.171   1.082 -1.1019  0.6270  0.2335
  674SOL     OW 2020   1.709   2.958   0.248  0.0149 -0.8127 -0.4914
  674SOL    HW1 2021   1.768   3.044   0.251 -1.7184 -0.9877  1.3326
  674SOL    HW2 2022   1.763   2.877   0.214 -1.8390 -0.4348  0.1591
  675SOL     OW 2023   1.738   0.809   2.327  0.2128 -0.1901 -0.1751
  675SOL    HW1 2024   1.834   0.801   2.295  0.5002  2.0294 -1.1155
  675SOL    HW2 2025   1.691   0.714   2.338 -1.9573  0.8988 -1.2697
  676SOL     OW 2026   2.544   1.480   1.940 -0.7014  0.3449  0.1644
  676SOL    HW1 2027   2.490   1.443   1.859 -1.2654 -0.7722  1.8309
  676SOL    HW2 2028   2.575   1.404   2.001 -0.2273 -3.1031  0.5955
  677SOL     OW 2029   1.856   0.658   0.908 -0.6558 -0.1602  0.1758
  677SOL    HW1 2030   1.774   0.680   0.964  0.0958  0.6361 -0.1507
  677SOL    HW2 2031   1.870   0.558   0.899 -2.3445  2.8761  1.0724
  678SOL     OW 2032   0.032   0.746   1.657  0.4307 -0.2319  0.0830
  678SOL    HW1 2033   0.117   0.765   1.711 -2.1822 -0.3956  0.5700
  678SOL    HW2 2034  -0.051   0.745   1.720 -2.7686  0.8078 -1.4441
  679SOL     OW 2035   2.529   1.212   1.126  0.5325 -0.3056 -0.7481
  679SOL    HW1 2036   2.432   1.232   1.154 -1.9311 -1.7916 -1.3523
  679SOL    HW2 2037   2.542   1.106   1.116 -2.0733 -2.8887 -1.0818
  680SOL     OW 2038   2.835   0.549   1.706  0.4344  0.6724  0.3261
  680SOL    HW1 2039   2.806   0.616   1.628  0.6421 -0.6058 -1.5433
  680SOL    HW2 2040   2.866   0.589   1.794 -0.1866  0.6403 -0.0535
  681SOL     OW 2041   3.004   0.154   1.621 -0.0918 -0.1891  0.1125
  681SOL    HW1 2042   3.067   0.129   1.542  0.3544 -0.6494  1.2175
  681SOL    HW2 2043   2.917   0.215   1.599  1.9237 -3.9431  2.3971
  682SOL     OW 2044   0.804   3.091   1.309  0.0945 -0.3060 -0.3086
  682SOL    HW1 2045   0.720   3.047   1.359  0.6626  0.3779  1.9990
  682SOL    HW2 2046   0.806   3.083   1.202  2.5466  0.8682  0.6193
  683SOL     OW 2047   1.346   0.231   2.154  0.0499 -0.3267  0.2975
  683SOL    HW1 2048   1.351   0.288   2.243  1.2730 -2.1129  0.4546
  683SOL    HW2 2049   1.440   0.247   2.105  0.4393  2.5708  0.0417
  684SOL     OW 2050   1.484   2.108   0.464  0.0704  0.3786 -0.0734
  684SOL    HW1 2051   1.525   2.024   0.512  1.0017  2.1873 -0.3813
  684SOL    HW2 2052   1.396   2.085   0.417  0.7371  1.4175  0.1839
  685SOL     OW 2053   2.169   2.047   1.944 -0.5945  0.0416  0.3035
  685SOL    HW1 2054   2.234   2.023   1.865  1.2657 -3.1852 -3.4889
  685SOL    HW2 2055   2.216   2.030   2.035 -0.9461  1.1094 -0.7112
  686SOL     OW 2056   1.524   1.807   2.718  0.5330 -0.1828  0.0447
  686SOL    HW1 2057   1.572   1.773   2.807  1.6774  0.8441  0.7707
  686SOL    HW2 2058   1.564   1.760   2.634 -0.1287 -1.8479  0.3812
  687SOL     OW 2059   1.301   2.479   1.981 -0.1774 -0.0618  0.5052
  687SOL    HW1 2060   1.297   2.379   1.962  0.6825  2.1843 -1.0671
  687SOL    HW2 2061   1.359   2.502   2.068 -1.1270 -2.2356 -0.3940
  688SOL     OW 2062   2.053   1.504   1.784  0.4271 -0.0004 -0.8091
  688SOL    HW1 2063   2.104   1.589   1.802  1.8563 -2.3570  1.3707
  688SOL    HW2 2064   2.072   1.481   1.684 -1.0893  0.2535  1.1784
  689SOL     OW 2065   2.365   1.085   2.764  0.5951  0.1850 -0.5285
  689SOL    HW1 2066   2.285   1.017   2.763  0.5580 -1.6430  2.5262
  689SOL    HW2 2067   2.434   1.068   2.842 -0.9990  1.7145  1.6739
  690SOL     OW 2068   2.227   2.790   0.072 -0.1556  0.1310 -0.2982
  690SOL    HW1 2069   2.150   2.759   0.011 -1.3691  1.3366 -0.3065
  690SOL    HW2 2070   2.216   2.771   0.171  2.2587  3.9610 -2.0549
  691SOL     OW 2071   2.603   0.457   2.197  0.4228  0.7077  0.2055
  691SOL    HW1 2072   2.631   0.355   2.164 -0.3325 -3.5395  0.7495
  691SOL    HW2 2073   2.629   0.532   2.128  1.6783  1.7771  1.9630
  692SOL     OW 2074   2.726   1.246   0.739  0.1375 -0.1141  0.2381
  692SOL    HW1 2075   2.635   1.258   0.688 -3.1245  1.5493 -0.1050
  692SOL    HW2 2076   2.760   1.333   0.784 -0.5208 -1.6822  1.3881
  693SOL     OW 2077   2.875   2.932   0.620  0.0289  0.3064 -0.1169
  693SOL    HW1 2078   2.877   3.003   0.694 -0.1690 -0.8040  1.7108
  693SOL    HW2 2079   2.852   2.962   0.523  2.8888 -4.0084 -1.7251
  694SOL     OW 2080   2.365   2.165   0.082 -0.0947 -0.5216 -0.0513
  694SOL    HW1 2081   2.342   2.238   0.153  1.4882 -0.8243  0.8311
  694SOL    HW2 2082   2.280   2.109   0.052 -1.4431 -0.4330 -0.4077
  695SOL     OW 2083   0.569   3.005   1.437  0.9042  0.1352 -0.6415
  695SOL    HW1 2084   0.492   2.938   1.403  2.0781 -1.7750  1.2938
  695SOL    HW2 2085   0.530   3.069   1.514  0.1977 -1.8651  3.3543
  696SOL     OW 2086   2.795   1.985   0.708 -0.4111 -1.0266 -0.1268
  696SOL    HW1 2087   2.872   1.915   0.726  0.2386 -0.4562  0.9264
  696SOL    HW2 2088   2.777   2.004   0.607  1.1234  0.2974 -0.0808
  697SOL     OW 2089   1.611   2.019   1.842 -0.4947  0.3306 -0.1089
  697SOL    HW1 2090   1.670   1.944   1.879  1.5148  1.4153  0.3069
  697SOL    HW2 2091   1.666   2.095   1.800 -3.0294 -1.7789  1.2742
  698SOL     OW 2092   2.932   0.432   2.772  0.4781 -0.0215 -0.3258
  698SOL    HW1 2093   2.938   0.393   2.677  1.9470 -4.5180 -1.6686
  698SOL    HW2 2094   2.988   0.372   2.837  0.6142 -2.3486  1.0791
  699SOL     OW 2095   1.551   0.078   2.903 -0.0874 -0.5760  0.1705
  699SOL    HW1 2096   1.505  -0.009   2.875  1.3460  0.2084  1.1325
  699SOL    HW2 2097   1.597   0.128   2.820  2.3463  1.0430 -0.4655
  700SOL     OW 2098   0.958   2.326   1.338 -0.0939  0.1469  0.4157
  700SOL    HW1 2099   1.057   2.299   1.336 -1.5223  1.8773  0.4051
  700SOL    HW2 2100   0.896   2.276   1.271  0.1684  0.2329 -1.2261
  701SOL     OW 2101   1.879   2.924   3.050  0.2262 -0.3475 -0.2577
  701SOL    HW1 2102   1.901   2.864   3.132  1.5102 -1.1048 -0.8625
  701SOL    HW2 2103   1.864   3.025   3.069  0.9918 -1.5403  1.3810
  702SOL     OW 2104   2.063   1.332   2.000  0.1945  0.2337 -0.0470
  702SOL    HW1 2105   2.148   1.289   1.963  0.9033  1.1595  0.5562
  702SOL    HW2 2106   2.030   1.406   1.930  1.8400  1.6863 -2.3311
  703SOL     OW 2107   1.929   0.903   1.455  0.3911 -0.1204 -0.0818
  703SOL    HW1 2108   1.893   0.827   1.518 -0.0260 -0.1438  1.9196
  703SOL    HW2 2109   2.014   0.943   1.499  2.2613  0.1473 -0.9003
  704SOL     OW 2110   0.318   2.038   1.741 -0.0143  0.3403  0.1682
  704SOL    HW1 2111   0.363   1.972   1.805  0.5304 -1.3137  1.5742
  704SOL    HW2 2112   0.383   2.109   1.702  2.2432 -1.5466  2.5788
  705SOL     OW 2113   2.531   1.515   0.912 -0.2152 -0.1517  0.3233
  705SOL    HW1 2114   2.461   1.468   0.853 -0.1970  0.9045  2.4176
  705SOL    HW2 2115   2.612   1.452   0.932  0.2285 -0.8500  2.0683
  706SOL     OW 2116   0.639   1.645   1.875  0.4354 -0.2950 -0.1084
  706SOL    HW1 2117   0.684   1.562   1.921 -0.3168 -0.1763  0.4032
  706SOL    HW2 2118   0.700   1.732   1.876 -0.0140  1.4223  2.5286
  707SOL     OW 2119   2.271   1.191   1.850 -0.2414  0.4664  0.3477
  707SOL    HW1 2120   2.355   1.169   1.907  0.6910 -1.0533  1.1651
  707SOL    HW2 2121   2.248   1.114   1.784  1.5900  1.5569  0.3239
  708SOL     OW 2122   3.078   0.526   3.082  0.4343 -0.7923  0.1750
  708SOL    HW1 2123   3.073   0.595   3.004 -2.0977 -3.5096 -0.4716
  708SOL    HW2 2124   3.033   0.434   3.054  2.3025 -0.2093  0.5228
  709SOL     OW 2125   1.856   1.848   0.236 -0.4937  0.5643 -0.3272
  709SOL    HW1 2126   1.863   1.937   0.285 -2.2229  1.6674 -1.2890
  709SOL    HW2 2127   1.842   1.867   0.134  3.0337 -0.2890 -2.4075
  710SOL     OW 2128   1.709   1.650   2.420  0.9051  0.0633  0.3647
  710SOL    HW1 2129   1.731   1.623   2.326  0.5224 -3.9894  1.2863
  710SOL    HW2 2130   1.723   1.574   2.489 -0.5181  1.2123  0.6234
  711SOL     OW 2131   2.629   2.933   1.043 -0.1384  0.6482 -0.2438
  711SOL    HW1 2132   2.621   3.036   1.017 -0.4906  0.5746 -1.4136
  711SOL    HW2 2133   2.730   2.901   1.053  0.3087  1.2042  3.5248
  712SOL     OW 2134   1.392   2.205   1.962 -0.1317 -0.1730  0.1103
  712SOL    HW1 2135   1.468   2.212   2.029  0.0203  1.9138 -1.3088
  712SOL    HW2 2136   1.408   2.142   1.885 -0.0972  1.2019  0.3434
  713SOL     OW 2137   2.865   1.472   2.541  0.4604  0.5317 -0.0542
  713SOL    HW1 2138   2.835   1.384   2.496 -0.0390  1.0462  1.5652
  713SOL    HW2 2139   2.819   1.485   2.630  2.9645 -2.3400 -0.6387
  714SOL     OW 2140   2.721   0.527   2.466  0.1705  0.0531 -0.3451
  714SOL    HW1 2141   2.649   0.490   2.529  1.4440 -1.3715 -0.4914
  714SOL    HW2 2142   2.695   0.511   2.368  0.8426 -0.2859  1.0732
  715SOL     OW 2143   1.586   2.035   1.132 -0.1803 -0.1076 -0.1648
  715SOL    HW1 2144   1.490   2.064   1.101 -1.2549 -1.8382 -1.9839
  715SOL    HW2 2145   1.602   2.047   1.232 -0.9626 -1.0496 -1.5726
  716SOL     OW 2146   1.164   0.167   1.488 -0.3914  0.2769 -0.4836
  716SOL    HW1 2147   1.071   0.201   1.463  3.2657 -0.4867 -0.4137
  716SOL    HW2 2148   1.226   0.247   1.479  1.1920 -1.8257 -0.5484
  717SOL     OW 2149   1.170   0.531   1.548 -0.0111 -0.5886  0.5666
  717SOL    HW1 2150   1.247   0.596   1.575 -0.7213  0.4512  1.1086
  717SOL    HW2 2151   1.144   0.552   1.450 -1.7413 -1.9289 -2.0690
  718SOL     OW 2152   0.676   0.896   1.017  0.1936  0.5119 -0.5963
  718SOL    HW1 2153   0.624   0.873   0.933  1.7277 -0.2171 -0.3046
  718SOL    HW2 2154   0.684   0.997   1.043  0.1931 -0.0670  0.2112
  719SOL     OW 2155   0.587   1.773   2.290  0.0738  0.8285 -0.3716
  719SOL    HW1 2156   0.666   1.813   2.345 -0.3711 -0.4860 -1.9433
  719SOL    HW2 2157   0.533   1.708   2.358 -0.1273 -0.9380 -1.2253
  720SOL     OW 2158   2.177   1.146   0.311  0.2258  0.4662  0.8605
  720SOL    HW1 2159   2.214   1.069   0.256 -1.4093  2.3683  0.2428
  720SOL    HW2 2160   2.156   1.119   0.405  1.3821 -0.0816 -0.9808
  721SOL     OW 2161   2.279   3.014   2.112 -0.2033 -0.1307  0.3527
  721SOL    HW1 2162   2.213   3.019   2.033  0.9022  4.7732 -0.9990
  721SOL    HW2 2163   2.232   3.041   2.205 -4.0760 -1.9036 -0.2485
  722SOL     OW 2164   2.354   1.603   0.522 -0.2991 -0.2816 -0.4828
  722SOL    HW1 2165   2.332   1.580   0.424  5.0994  0.1836 -1.2638
  722SOL    HW2 2166   2.315   1.696   0.553  3.1362 -0.3989  0.7850
  723SOL     OW 2167   2.582   2.747   1.934 -0.5514 -0.1984 -0.6763
  723SOL    HW1 2168   2.616   2.813   2.009  0.1022  1.7753 -0.5158
  723SOL    HW2 2169   2.488   2.706   1.954  0.7482  1.5999  0.6782
  724SOL     OW 2170   0.513   2.472   2.408  0.2354  0.1273  0.2197
  724SOL    HW1 2171   0.425   2.469   2.464 -2.0741  1.7156  0.0667
  724SOL    HW2 2172   0.597   2.490   2.468  1.6123 -2.3279  0.1005
  725SOL     OW 2173   2.461   2.824   1.531  0.5189  0.3416 -0.2857
  725SOL    HW1 2174   2.475   2.866   1.436  1.8478 -3.0052 -0.8938
  725SOL    HW2 2175   2.428   2.728   1.524  4.3428  2.7450 -0.4038
  726SOL     OW 2176   2.529   2.321   0.731 -0.5775 -0.3244 -0.6574
  726SOL    HW1 2177   2.476   2.407   0.713 -2.6270  0.3988  0.4695
  726SOL    HW2 2178   2.507   2.253   0.652  0.5739  2.2362  1.3622
  727SOL     OW 2179   0.120   3.094   0.068  0.5489  0.6095 -0.3465
  727SOL    HW1 2180   0.170   3.010   0.032  0.2664 -0.0937 -0.2626
  727SOL    HW2 2181   0.054   3.122  -0.001  0.1363 -2.1665 -1.0112
  728SOL     OW 2182   2.892   0.640   0.959  0.2423  0.2030  0.0758
  728SOL    HW1 2183   2.810   0.660   0.892 -1.7154 -0.2628 -2.1064
  728SOL    HW2 2184   2.860   0.617   1.058 -1.7908  0.8634 -0.3750
  729SOL     OW 2185   3.047   2.519   0.775  0.4513 -0.0624  0.5765
  729SOL    HW1 2186   2.982   2.431   0.772  1.0230 -0.5803 -2.4031
  729SOL    HW2 2187   3.141   2.507   0.736 -2.7210  0.8787 -1.7553
  730SOL     OW 2188   2.641   0.733   0.874 -0.1934  0.1403  0.1748
  730SOL    HW1 2189   2.584   0.818   0.864  1.2963 -0.9724 -1.3399
  730SOL    HW2 2190   2.686   0.696   0.787 -0.0942 -0.4684 -3.0055
  731SOL     OW 2191   0.065   2.103   2.513  0.1775 -0.5658  0.3151
  731SOL    HW1 2192   0.124   2.142   2.590  1.5455 -0.6362 -0.3566
  731SOL    HW2 2193   0.002   2.169   2.467  2.3500 -0.3792  1.5298
  732SOL     OW 2194   1.181   2.846   1.948  0.3391 -0.4338 -0.4694
  732SOL    HW1 2195   1.194   2.796   2.043  0.0142 -1.7445 -0.9309
  732SOL    HW2 2196   1.159   2.779   1.869  0.2320  0.5753  0.8024
  733SOL     OW 2197   3.049   0.592   2.212 -0.5023 -0.2447  0.1331
  733SOL    HW1 2198   3.134   0.632   2.166  0.8174  2.9935 -1.7410
  733SOL    HW2 2199   2.970   0.566   2.146 -0.2584  1.5228  2.4780
  734SOL     OW 2200   1.440   0.388   2.686 -0.1591  0.0282 -0.3150
  734SOL    HW1 2201   1.427   0.479   2.734 -0.1093 -1.0517  2.0994
  734SOL    HW2 2202   1.367   0.319   2.711  0.0992 -0.7802  2.2851
  735SOL     OW 2203   2.884   2.670   2.284 -0.0400  0.0861 -0.3503
  735SOL    HW1 2204   2.877   2.616   2.191 -1.2668 -3.4662  0.1700
  735SOL    HW2 2205   2.979   2.710   2.299  0.7419  2.8046 -1.1255
  736SOL     OW 2206   0.836   0.311   2.562 -0.2599  0.0786 -0.1354
  736SOL    HW1 2207   0.745   0.353   2.575  0.7352 -3.7180  4.2705
  736SOL    HW2 2208   0.824   0.246   2.482 -1.4803  0.7595  4.0522
  737SOL     OW 2209   2.646   0.466   2.839  0.3070  0.0603 -0.4147
  737SOL    HW1 2210   2.634   0.444   2.939 -3.7197  0.2807 -1.2688
  737SOL    HW2 2211   2.742   0.446   2.803  1.4455  0.3890  0.0158
  738SOL     OW 2212   1.642   1.251   2.883 -0.0064  0.1953  0.1636
  738SOL    HW1 2213   1.746   1.250   2.881 -3.5681  1.6541 -0.8311
  738SOL    HW2 2214   1.603   1.155   2.874  0.4998  1.0666  0.4426
  739SOL     OW 2215   1.714   0.672   0.680  0.3456  0.4377 -0.4152
  739SOL    HW1 2216   1.768   0.691   0.766  0.3406 -0.9682  0.4352
  739SOL    HW2 2217   1.758   0.595   0.619  1.9203 -1.4075 -1.7418
  740SOL     OW 2218   1.995   1.922   2.334 -0.0154 -0.5583 -0.5752
  740SOL    HW1 2219   2.040   1.835   2.375 -1.1918 -2.4132 -2.9209
  740SOL    HW2 2220   1.913   1.899   2.282  2.0497 -1.9468  0.5636
  741SOL     OW 2221   2.560   0.089   2.543 -0.1323 -1.1785 -0.6060
  741SOL    HW1 2222   2.663   0.084   2.538 -1.1418 -0.4713 -3.0111
  741SOL    HW2 2223   2.522   0.108   2.447 -1.6863  0.7704 -1.9331
  742SOL     OW 2224   2.213   1.398   0.189  0.2166  0.2080 -0.1767
  742SOL    HW1 2225   2.125   1.453   0.185  0.3043  3.2590  1.1307
  742SOL    HW2 2226   2.207   1.313   0.243  1.4781 -1.4528  1.6814
  743SOL     OW 2227   1.833   0.658   2.634  0.2818  0.4531  0.7419
  743SOL    HW1 2228   1.801   0.570   2.604 -0.9522  2.1982 -1.8708
  743SOL    HW2 2229   1.758   0.728   2.607 -0.1026  0.5995  0.6233
  744SOL     OW 2230   2.621   2.098   0.173  0.1781  0.8172  0.2833
  744SOL    HW1 2231   2.522   2.137   0.159 -3.4748  1.6173 -0.4114
  744SOL    HW2 2232   2.605   1.996   0.170  1.0863  2.2918 -0.6836
  745SOL     OW 2233   2.145   2.651   2.249  0.1502 -0.2896  1.0710
  745SOL    HW1 2234   2.053   2.631   2.207 -1.3306 -1.4834  3.8955
  745SOL    HW2 2235   2.153   2.610   2.342  0.2815 -2.2266  0.1103
  746SOL     OW 2236   3.058   2.616   1.741  0.0258 -0.2230  0.1042
  746SOL    HW1 2237   3.142   2.648   1.693 -1.2674  0.2313  1.2008
  746SOL    HW2 2238   3.034   2.690   1.809  0.1034 -1.0812  0.5759
  747SOL     OW 2239   0.042   1.748   1.721  0.1498 -0.1207 -0.8347
  747SOL    HW1 2240  -0.039   1.696   1.697  4.1653 -1.1484  2.0548
  747SOL    HW2 2241   0.107   1.762   1.637 -0.8644  0.5725  0.0403
  748SOL     OW 2242   1.823   2.729   2.875  0.0704 -0.0440  0.0555
  748SOL    HW1 2243   1.850   2.819   2.926  0.6979  3.5039  0.5691
  748SOL    HW2 2244   1.720   2.715   2.848 -1.2077 -1.5247 -0.6469
  749SOL     OW 2245   1.369   3.020   0.889 -0.5800 -0.1415  0.2507
  749SOL    HW1 2246   1.273   3.003   0.888  0.9942 -0.7229  2.2134
  749SOL    HW2 2247   1.426   2.992   0.802  0.6921 -0.1149 -0.4050
  750SOL     OW 2248   2.278   0.188   1.867 -0.4307 -0.5867  0.4234
  750SOL    HW1 2249   2.311   0.245   1.785 -1.9001 -0.4851  0.2661
  750SOL    HW2 2250   2.307   0.237   1.958  2.9325  1.0264  1.0966
  751SOL     OW 2251   0.866   2.103   2.818  0.6178  0.8743 -0.3952
  751SOL    HW1 2252   0.921   2.113   2.905  0.0140 -1.7205 -0.1130
  751SOL    HW2 2253   0.765   2.092   2.844 -0.0766  0.7481 -1.0871
  752SOL     OW 2254   1.315   0.865   1.269 -0.0643 -0.2688  0.7045
  752SOL    HW1 2255   1.374   0.950   1.250  0.6796 -1.1976 -0.0563
  752SOL    HW2 2256   1.360   0.789   1.330  1.2734  1.0932 -0.2344
  753SOL     OW 2257   0.919   2.609   1.655 -0.0146 -0.1132 -0.2535
  753SOL    HW1 2258   0.992   2.637   1.724 -0.6061 -1.9233 -1.3619
  753SOL    HW2 2259   0.884   2.687   1.603  0.8697  0.1495  2.4486
  754SOL     OW 2260   1.109   1.233   3.003 -0.4935  0.2388  0.3268
  754SOL    HW1 2261   1.166   1.197   2.926  0.4887 -0.6943 -0.9712
  754SOL    HW2 2262   1.130   1.335   3.013 -0.4780  1.8965  0.1006
  755SOL     OW 2263   1.998   0.472   2.217  0.0022 -0.2639  0.3983
  755SOL    HW1 2264   2.079   0.413   2.245  1.0739 -0.4221  2.4784
  755SOL    HW2 2265   1.917   0.449   2.275 -1.3509  2.7128 -0.0743
  756SOL     OW 2266   2.556   1.019   2.960  0.1512 -0.4795  0.3648
  756SOL    HW1 2267   2.653   1.006   2.993  0.7929  3.3756 -0.5194
  756SOL    HW2 2268   2.495   0.944   3.003 -0.1342  3.4401 -0.7902
  757SOL     OW 2269   0.064   0.538   1.932 -0.1574 -0.0128 -0.7199
  757SOL    HW1 2270   0.076   0.473   1.857 -3.3434  1.1486 -0.5798
  757SOL    HW2 2271   0.027   0.487   2.013 -0.3759 -1.5352  1.7892
  758SOL     OW 2272   2.306   0.122   1.518  0.2823 -0.4954 -0.3264
  758SOL    HW1 2273   2.274   0.025   1.540 -3.0013 -2.2477  0.5963
  758SOL    HW2 2274   2.314   0.133   1.416  0.6766  0.0868 -0.5153
  759SOL     OW 2275   1.708   0.120   0.034  0.0662  0.0018  0.2339
  759SOL    HW1 2276   1.669   0.126  -0.062  0.3854  0.3690 -0.9363
  759SOL    HW2 2277   1.810   0.130   0.035 -2.1114 -0.2954 -0.4463
  760SOL     OW 2278   2.700   2.072   2.823 -0.1346 -0.1678  0.2102
  760SOL    HW1 2279   2.717   1.976   2.860 -1.5496  1.2486  1.3411
  760SOL    HW2 2280   2.677   2.140   2.897 -0.9357  2.2540 -0.5008
  761SOL     OW 2281   1.889   1.704   1.704  0.4996  0.1395  0.1467
  761SOL    HW1 2282   1.940   1.611   1.727  0.0253 -2.7831 -1.9575
  761SOL    HW2 2283   1.812   1.691   1.632  0.3224 -0.8565 -0.9872
  762SOL     OW 2284   0.519   2.352   0.964 -0.0189 -0.0076  0.1569
  762SOL    HW1 2285   0.566   2.386   0.874  0.8798 -1.7607  0.8057
  762SOL    HW2 2286   0.562   2.405   1.042 -1.1460  2.1431 -1.2396
  763SOL     OW 2287   2.087   1.590   2.979  0.4522 -0.5178  0.1935
  763SOL    HW1 2288   2.183   1.548   2.994  1.4721  0.4824 -2.1339
  763SOL    HW2 2289   2.009   1.542   3.032  0.7331 -0.1495 -3.1090
  764SOL     OW 2290   0.680   0.632   0.821 -0.5670 -0.1942 -0.0473
  764SOL    HW1 2291   0.613   0.552   0.808 -0.3160 -2.5483  2.5734
  764SOL    HW2 2292   0.768   0.595   0.873  1.0363  1.6345  2.7888
  765SOL     OW 2293   0.718   0.229   0.771 -0.1486  0.2321 -0.4547
  765SOL    HW1 2294   0.807   0.271   0.758 -2.6450 -1.2081  1.5076
  765SOL    HW2 2295   0.685   0.211   0.872  0.7888 -2.2877 -1.5971
  766SOL     OW 2296   2.854   2.098   3.093 -0.1350  0.3804  0.3207
  766SOL    HW1 2297   2.785   2.097   3.174 -3.0903  2.8300  1.9176
  766SOL    HW2 2298   2.921   2.180   3.089 -1.6335  0.7731  1.8854
  767SOL     OW 2299   2.765   1.617   0.599  0.3077 -0.7697  0.1912
  767SOL    HW1 2300   2.675   1.662   0.631  1.1677  0.2464  1.9950
  767SOL    HW2 2301   2.831   1.632   0.672 -2.1304  4.1126  0.0660
  768SOL     OW 2302   1.038   0.059   0.271  0.9429 -0.2926 -0.0569
  768SOL    HW1 2303   0.984   0.070   0.357 -0.9476 -0.1034  1.4735
  768SOL    HW2 2304   1.127   0.112   0.278 -3.0884  3.0448  1.3522
  769SOL     OW 2305   1.058   1.949   2.284 -0.3555 -0.4002 -0.5901
  769SOL    HW1 2306   0.964   1.988   2.291  1.4198 -0.2982 -0.6735
  769SOL    HW2 2307   1.091   1.908   2.376 -1.9638 -0.2639  3.1711
  770SOL     OW 2308   0.174   1.152   2.291  0.1363 -0.6975  0.3451
  770SOL    HW1 2309   0.159   1.185   2.390 -0.7101  2.2633 -1.7561
  770SOL    HW2 2310   0.086   1.133   2.241 -0.5238 -2.5602  1.3212
  771SOL     OW 2311   2.963   2.835   1.883 -0.0701  0.1889 -0.1688
  771SOL    HW1 2312   2.933   2.910   1.813 -1.5451  0.1060  0.7344
  771SOL    HW2 2313   2.966   2.874   1.979 -0.4481 -2.3764  0.3451
  772SOL     OW 2314   2.191   0.205   2.932 -0.2615  0.7314  0.0067
  772SOL    HW1 2315   2.278   0.154   2.913  1.3883 -0.6623 -1.5044
  772SOL    HW2 2316   2.181   0.219   3.031 -0.8469  0.1044 -1.4683
  773SOL     OW 2317   0.719   2.142   2.424  0.2322 -0.1023  0.0329
  773SOL    HW1 2318   0.678   2.191   2.343 -1.2458  0.4224  1.5378
  773SOL    HW2 2319   0.658   2.148   2.506 -3.0881  1.0509  0.5758
  774SOL     OW 2320   2.043   3.097   2.600  0.2500 -0.4381  0.3853
  774SOL    HW1 2321   2.064   3.191   2.637  0.8113  2.1082 -0.4837
  774SOL    HW2 2322   2.060   3.028   2.669  0.5263  3.7052 -1.1919
  775SOL     OW 2323   2.526   2.886   2.376 -0.5097 -0.7975 -0.0299
  775SOL    HW1 2324   2.481   2.977   2.385 -0.9655  1.2118  1.2157
  775SOL    HW2 2325   2.615   2.885   2.431  0.6490 -2.9804  1.8968
  776SOL     OW 2326   0.011   1.239   0.194 -0.3782  0.4418 -0.1436
  776SOL    HW1 2327  -0.030   1.230   0.098  1.2703 -0.0065  0.3463
  776SOL    HW2 2328  -0.062   1.236   0.264 -0.0588 -0.8848  1.5490
  777SOL     OW 2329   0.354   2.846   0.406  0.4568  0.4372  0.1969
  777SOL    HW1 2330   0.261   2.874   0.366  3.1069  0.0268  2.9476
  777SOL    HW2 2331   0.437   2.892   0.362  0.7549  0.8142  1.9778
  778SOL     OW 2332   1.365   1.935   0.182 -0.1487  0.0220 -0.2066
  778SOL    HW1 2333   1.300   1.946   0.265 -0.7446  0.6682  2.7273
  778SOL    HW2 2334   1.380   2.026   0.142  0.9116 -1.7850 -0.8103
  779SOL     OW 2335   0.177   0.849   0.485 -0.1198 -0.4463 -0.0727
  779SOL    HW1 2336   0.113   0.767   0.470 -2.0801 -1.0102 -0.5850
  779SOL    HW2 2337   0.134   0.918   0.553  0.3385 -1.8373  0.4388
  780SOL     OW 2338   0.087   0.206   2.310  0.3087  0.2209 -0.7602
  780SOL    HW1 2339   0.124   0.301   2.335  2.9174 -1.0077 -1.2491
  780SOL    HW2 2340   0.165   0.139   2.285  0.4936 -2.5886  0.3744
  781SOL     OW 2341   0.653   1.695   1.522  0.0243  0.1177 -0.5343
  781SOL    HW1 2342   0.732   1.638   1.557 -1.8496  1.4401  2.8268
  781SOL    HW2 2343   0.566   1.665   1.565  0.8730  0.1555  1.0458
  782SOL     OW 2344   2.588   0.079   0.918 -0.1215  0.1829 -0.2978
  782SOL    HW1 2345   2.532   0.113   0.832 -0.2596  2.6504 -2.5837
  782SOL    HW2 2346   2.604   0.157   0.982 -1.3202  0.4119 -2.4812
  783SOL     OW 2347   2.859   0.744   2.540  0.0319 -0.1257  0.0556
  783SOL    HW1 2348   2.832   0.780   2.635  1.5305  2.2340  3.3374
  783SOL    HW2 2349   2.810   0.655   2.518 -3.0526  0.0600  0.7327
  784SOL     OW 2350   1.459   2.212   0.090  0.2474 -0.2958 -0.4569
  784SOL    HW1 2351   1.523   2.294   0.098  0.4190 -0.1589 -1.5918
  784SOL    HW2 2352   1.440   2.191  -0.009  1.2027 -0.7312  2.9364
  785SOL     OW 2353   2.132   0.319   0.063  0.2034 -0.4350 -0.1504
  785SOL    HW1 2354   2.039   0.327   0.120 -0.2555  0.3495  0.0812
  785SOL    HW2 2355   2.161   0.410   0.021  1.1741  1.2783 -1.0144
  786SOL     OW 2356   2.007   2.173   2.233 -0.1245 -0.2749 -0.5408
  786SOL    HW1 2357   1.994   2.081   2.262 -0.7188  1.8648  0.2674
  786SOL    HW2 2358   2.103   2.189   2.200 -0.4505  0.4379 -2.1141
  787SOL     OW 2359   1.379   0.546   1.022  0.5110  0.6493  0.1743
  787SOL    HW1 2360   1.298   0.603   1.042  3.0931  0.0975  0.1834
  787SOL    HW2 2361   1.395   0.536   0.922  1.7575  0.0813 -0.6686
  788SOL     OW 2362   1.271   0.389   0.068 -0.0872  0.0983 -0.1806
  788SOL    HW1 2363   1.186   0.390   0.004 -3.5852  2.7924 -1.4824
  788SOL    HW2 2364   1.267   0.466   0.138 -2.9570  0.6145  1.2856
  789SOL     OW 2365   2.570   0.104   1.871 -0.3956  0.0312 -0.7584
  789SOL    HW1 2366   2.476   0.124   1.911  1.2135 -0.1517 -1.9856
  789SOL    HW2 2367   2.581   0.006   1.848  2.1182 -0.6286 -4.2379
  790SOL     OW 2368   2.681   2.781   0.796 -0.2386  0.1912 -0.1180
  790SOL    HW1 2369   2.733   2.816   0.712  0.2788 -0.5007 -3.1163
  790SOL    HW2 2370   2.678   2.834   0.884 -0.2302 -2.1663 -1.4699
  791SOL     OW 2371   1.937   1.192   0.208 -0.4540 -0.2351  0.2237
  791SOL    HW1 2372   1.844   1.162   0.252 -0.8308  1.7727  0.5508
  791SOL    HW2 2373   2.018   1.168   0.268  0.7372 -0.4696 -2.9268
  792SOL     OW 2374   0.435   1.952   2.170  0.0556  0.9983  0.0273
  792SOL    HW1 2375   0.498   1.880   2.216 -1.8230 -0.3950  0.4525
  792SOL    HW2 2376   0.342   1.961   2.216  1.9952  2.3801 -0.8436
  793SOL     OW 2377   2.077   1.573   2.144 -0.0897  0.1740  0.1786
  793SOL    HW1 2378   2.139   1.628   2.079  2.2326 -0.3698  0.5425
  793SOL    HW2 2379   2.082   1.472   2.130  1.5360 -2.5649  0.9280
  794SOL     OW 2380   0.474   1.340   2.389 -0.4658 -0.2639  0.6888
  794SOL    HW1 2381   0.471   1.312   2.288  0.7690 -0.1910 -0.6909
  794SOL    HW2 2382   0.461   1.443   2.396 -1.4723  0.2596  0.2230
  795SOL     OW 2383   2.479   2.275   1.831 -0.6025  0.1840 -0.7791
  795SOL    HW1 2384   2.470   2.317   1.925  0.1508  2.2048 -1.6583
  795SOL    HW2 2385   2.407   2.205   1.802 -0.5243 -1.6229 -0.1259
  796SOL     OW 2386   3.038   1.124   2.688  0.1041 -0.3678 -0.3038
  796SOL    HW1 2387   2.942   1.135   2.733 -1.6674 -1.3330  0.6199
  796SOL    HW2 2388   3.116   1.132   2.764  2.7035  0.6449  1.0568
  797SOL     OW 2389   0.781   0.632   1.399 -0.1906 -0.3688  0.2717
  797SOL    HW1 2390   0.850   0.673   1.467  0.8734 -2.0993 -0.0527
  797SOL    HW2 2391   0.715   0.704   1.356 -0.9110 -0.6189  0.0276
  798SOL     OW 2392   1.328   0.297   1.111  0.5332  0.1757 -0.2689
  798SOL    HW1 2393   1.304   0.311   1.215 -0.6062  2.3328  4.4301
  798SOL    HW2 2394   1.365   0.383   1.072  0.0612 -0.3831 -0.9565
  799SOL     OW 2395   1.910   2.737   1.045  0.1861 -0.2074  0.1073
  799SOL    HW1 2396   1.898   2.668   1.126  1.0338 -4.5221 -0.5075
  799SOL    HW2 2397   1.823   2.746   0.997 -0.0734 -0.3353  0.6430
  800SOL     OW 2398   2.965   0.725   1.873 -0.6352  0.3699  0.5607
  800SOL    HW1 2399   2.963   0.818   1.916  0.0489 -0.3489 -0.0063
  800SOL    HW2 2400   3.041   0.669   1.916 -0.6664  1.6239 -0.9754
  801SOL     OW 2401   1.945   2.226   0.079  0.3751  0.0087  0.2224
  801SOL    HW1 2402   1.849   2.211   0.039 -3.0033  2.7048 -0.1999
  801SOL    HW2 2403   2.011   2.146   0.061  1.1659  2.2990 -0.8662
  802SOL     OW 2404   0.682   0.796   2.534  0.3659  0.2329 -0.0827
  802SOL    HW1 2405   0.751   0.751   2.474  0.0793  0.7107 -0.9837
  802SOL    HW2 2406   0.589   0.820   2.489 -0.0762 -2.1968  0.9749
  803SOL     OW 2407   0.975   0.037   0.843 -0.1952 -0.3540  0.1197
  803SOL    HW1 2408   1.054   0.084   0.895  1.7063 -1.3308  2.0797
  803SOL    HW2 2409   0.940   0.092   0.764 -0.1509  0.3353 -0.7514
  804SOL     OW 2410   0.307   0.036   2.164  0.0313 -0.3446  0.4969
  804SOL    HW1 2411   0.335   0.136   2.163 -0.2139 -1.1271 -1.9912
  804SOL    HW2 2412   0.255   0.003   2.080 -0.4429  0.9216  0.8651
  805SOL     OW 2413   2.356   0.332   0.397  0.0362 -0.2226  0.5393
  805SOL    HW1 2414   2.431   0.369   0.460  0.4295  1.3626  1.7821
  805SOL    HW2 2415   2.397   0.313   0.303  1.6431  0.1205  0.8376
  806SOL     OW 2416   0.645   2.443   1.784 -0.0793  0.2208  0.6548
  806SOL    HW1 2417   0.633   2.548   1.790 -0.8347  0.4392 -1.7377
  806SOL    HW2 2418   0.709   2.411   1.709 -1.9945  0.1491 -0.9722
  807SOL     OW 2419   2.487   0.846   0.354  0.2789  0.0684 -0.2469
  807SOL    HW1 2420   2.562   0.876   0.412 -1.1867 -0.9993  0.8933
  807SOL    HW2 2421   2.483   0.905   0.267  0.0981  0.3048  0.0592
  808SOL     OW 2422   0.591   2.078   2.919  0.2379 -0.2943  0.0389
  808SOL    HW1 2423   0.541   2.144   2.985  0.6017  0.0804  0.1241
  808SOL    HW2 2424   0.621   1.988   2.964 -1.8176 -2.4920 -1.1922
  809SOL     OW 2425   2.668   1.964   1.885 -0.4551 -0.6105 -0.3524
  809SOL    HW1 2426   2.768   1.975   1.901 -1.7374  0.4338 -1.7240
  809SOL    HW2 2427   2.626   2.023   1.810 -0.3665 -0.6135  0.6846
  810SOL     OW 2428   2.105   1.060   0.567 -0.1713  0.4883  0.1638
  810SOL    HW1 2429   2.135   0.977   0.616 -0.3267 -0.1550 -2.7322
  810SOL    HW2 2430   2.069   1.141   0.624  1.9488  1.1510 -1.8933
  811SOL     OW 2431   1.332   2.505   1.178 -0.1668  0.2128  0.4112
  811SOL    HW1 2432   1.319   2.404   1.208 -0.0805 -0.8165  2.1050
  811SOL    HW2 2433   1.250   2.562   1.200  1.6480 -0.8232  0.1474
  812SOL     OW 2434   1.410   0.750   1.952  0.1749 -0.3393 -0.3907
  812SOL    HW1 2435   1.446   0.833   2.007  0.2269  4.3547 -0.2334
  812SOL    HW2 2436   1.306   0.733   1.957 -1.7209 -0.9782 -1.1564
  813SOL     OW 2437   1.707   2.057   2.501  0.1915  0.2447  0.5496
  813SOL    HW1 2438   1.753   1.972   2.530 -0.8083  4.0350 -0.1809
  813SOL    HW2 2439   1.641   2.046   2.420  0.6231  1.0413  2.3074
  814SOL     OW 2440   2.907   1.534   2.826  0.1437 -1.0405  0.3700
  814SOL    HW1 2441   2.989   1.494   2.878  1.0560 -0.2038 -0.3973
  814SOL    HW2 2442   2.933   1.618   2.766 -1.8778  2.1587  0.0305
  815SOL     OW 2443   2.152   2.903   2.779  0.4620  0.1621  0.0333
  815SOL    HW1 2444   2.141   2.817   2.840 -1.5311 -2.1825 -0.8603
  815SOL    HW2 2445   2.217   2.968   2.821  0.4389 -1.9743 -1.1423
  816SOL     OW 2446   1.646   0.326   1.595  0.0061 -0.1307 -0.1830
  816SOL    HW1 2447   1.692   0.240   1.623  0.0969 -0.1606  1.0297
  816SOL    HW2 2448   1.569   0.350   1.664  2.0900 -1.0245  1.9877
  817SOL     OW 2449   0.380   1.167   2.567  0.0673 -0.3143  0.1352
  817SOL    HW1 2450   0.288   1.199   2.600  1.2574 -1.8784  2.5023
  817SOL    HW2 2451   0.410   1.225   2.487  0.7239 -2.9620 -1.3552
  818SOL     OW 2452   1.889   0.899   0.414  0.2504  0.4334 -0.5123
  818SOL    HW1 2453   1.983   0.922   0.450  1.4771 -0.7243 -0.8646
  818SOL    HW2 2454   1.818   0.933   0.474  3.6768  0.2292 -2.2789
  819SOL     OW 2455   2.747   2.962   2.960  0.5693 -0.1182 -0.1690
  819SOL    HW1 2456   2.812   2.898   2.919 -1.2940 -0.1920  0.7840
  819SOL    HW2 2457   2.648   2.941   2.943  0.8677  0.8048 -1.1688
  820SOL     OW 2458   1.246   1.059   0.643 -0.4093 -0.0823 -0.5904
  820SOL    HW1 2459   1.236   1.158   0.667 -1.9822  0.3355  0.4699
  820SOL    HW2 2460   1.223   0.993   0.720  2.8178  0.8966 -2.6561
  821SOL     OW 2461   3.099   1.288   0.685  0.5490 -0.7622  0.0904
  821SOL    HW1 2462   3.075   1.294   0.785 -1.0233 -0.0456  2.9169
  821SOL    HW2 2463   3.138   1.380   0.658 -0.1698  0.2969  0.9403
  822SOL     OW 2464   2.561   1.714   2.418  0.3116  0.3113  0.4020
  822SOL    HW1 2465   2.569   1.791   2.488  0.4919 -0.6017 -1.7260
  822SOL    HW2 2466   2.465   1.704   2.380 -0.0458  2.4200  0.6248
  823SOL     OW 2467   2.070   0.909   1.199 -0.4303 -0.2480 -0.2952
  823SOL    HW1 2468   2.038   0.903   1.298 -0.0566  0.6127 -0.6014
  823SOL    HW2 2469   2.005   0.951   1.133 -0.1208  4.3014 -1.1772
  824SOL     OW 2470   0.258   2.043   2.801  0.3655 -0.1097  0.6201
  824SOL    HW1 2471   0.210   1.961   2.840  0.5414  0.6207 -2.4152
  824SOL    HW2 2472   0.325   2.015   2.729 -0.7189 -0.9077 -0.0015
  825SOL     OW 2473   1.293   1.126   0.283  0.1165 -0.7066  0.2120
  825SOL    HW1 2474   1.308   1.230   0.284 -0.4017  1.0546 -1.3025
  825SOL    HW2 2475   1.219   1.094   0.352 -0.6599 -0.2836 -0.1432
  826SOL     OW 2476   1.884   0.675   1.613 -0.6287 -0.1904 -0.0612
  826SOL    HW1 2477   1.972   0.622   1.626 -1.0262 -2.5720 -2.3114
  826SOL    HW2 2478   1.820   0.627   1.545  0.7120 -0.2037 -0.3902
  827SOL     OW 2479   0.672   1.188   0.201  0.1676  0.6007 -0.2310
  827SOL    HW1 2480   0.763   1.155   0.174 -1.9493  0.4366  2.4040
  827SOL    HW2 2481   0.616   1.108   0.226  0.2203  2.6347  0.8205
  828SOL     OW 2482   2.575   0.139   1.585  0.7424  0.9063  0.7672
  828SOL    HW1 2483   2.477   0.136   1.550 -0.6239  0.0416 -0.7532
  828SOL    HW2 2484   2.575   0.128   1.689 -3.0706  1.0448  0.1366
  829SOL     OW 2485   2.766   2.494   3.020  0.2629 -0.3263 -0.4708
  829SOL    HW1 2486   2.693   2.421   3.003  1.9589 -2.7775  0.7493
  829SOL    HW2 2487   2.743   2.553   3.106 -2.0029  2.5146 -0.0653
  830SOL     OW 2488   2.812   0.954   3.050 -0.7181  0.6773  0.4854
  830SOL    HW1 2489   2.888   1.019   3.053 -1.5493 -0.8145 -2.2278
  830SOL    HW2 2490   2.828   0.869   3.103  0.1294  2.6650 -0.2315
  831SOL     OW 2491  -0.000   0.662   0.405 -0.3333  0.4066  0.4797
  831SOL    HW1 2492  -0.012   0.590   0.476 -0.8023  0.9844 -0.8020
  831SOL    HW2 2493   0.056   0.619   0.328 -0.2236 -1.0047  2.4894
  832SOL     OW 2494   1.811   0.750   2.986  0.3800  0.0051 -0.2452
  832SOL    HW1 2495   1.709   0.777   2.980 -0.5170  0.3039 -2.7427
  832SOL    HW2 2496   1.831   0.648   2.986 -1.1298 -0.7402  0.4067
  833SOL     OW 2497   2.457   2.146   0.530 -0.6760  0.0812 -0.3886
  833SOL    HW1 2498   2.373   2.179   0.477 -1.7712  0.6883  0.0399
  833SOL    HW2 2499   2.482   2.050   0.504 -1.5326  0.1189 -0.9532
  834SOL     OW 2500   0.206   0.216   0.482 -0.0692 -0.2779 -0.4548
  834SOL    HW1 2501   0.242   0.121   0.485  0.4036  4.1755  0.2148
  834SOL    HW2 2502   0.151   0.233   0.393 -0.7982  2.8115 -1.1708
  835SOL     OW 2503   2.319   1.576   1.085 -0.6119  0.0123 -0.0478
  835SOL    HW1 2504   2.251   1.649   1.061 -0.9066 -1.4103 -1.0391
  835SOL    HW2 2505   2.402   1.572   1.016  3.9193 -2.0876 -0.8056
  836SOL     OW 2506   1.612   0.829   2.587  0.1851 -0.0355  0.3794
  836SOL    HW1 2507   1.506   0.829   2.585  2.5480 -2.3700 -0.8096
  836SOL    HW2 2508   1.656   0.854   2.495 -0.6637 -1.6597  1.6540
  837SOL     OW 2509   1.708   0.133   0.539 -0.2475  0.0055 -0.4410
  837SOL    HW1 2510   1.675   0.195   0.611  1.3643 -0.1046  0.3714
  837SOL    HW2 2511   1.646   0.126   0.458 -0.6884  0.7084  1.5743
  838SOL     OW 2512   1.173   1.556   2.818  0.1477  0.2685  0.0699
  838SOL    HW1 2513   1.145   1.538   2.917 -0.9346  1.0066  0.5771
  838SOL    HW2 2514   1.116   1.506   2.750  2.5403  1.1972 -1.6348
  839SOL     OW 2515   1.693   0.316   1.037  0.2762 -0.1885 -0.2807
  839SOL    HW1 2516   1.724   0.376   1.117 -2.3421 -0.1637  1.3062
  839SOL    HW2 2517   1.628   0.244   1.065  2.8021 -0.6468  0.7951
  840SOL     OW 2518   2.538   2.947   1.759  1.1587 -0.1196  0.4591
  840SOL    HW1 2519   2.521   2.923   1.659  0.4997 -0.0619  3.8333
  840SOL    HW2 2520   2.553   2.854   1.811 -2.4939 -1.7837  0.4837
  841SOL     OW 2521   1.516   0.831   2.969 -0.0735  0.0927  0.7576
  841SOL    HW1 2522   1.457   0.861   3.050 -1.1011 -2.1187 -4.1489
  841SOL    HW2 2523   1.527   0.909   2.899 -2.3249 -1.2216  2.3238
  842SOL     OW 2524   0.802   1.554   0.961  0.8096 -0.0718 -0.2015
  842SOL    HW1 2525   0.764   1.648   0.992  2.6354  0.1580  3.1138
  842SOL    HW2 2526   0.724   1.489   0.934  0.2450 -1.3186 -2.8944
  843SOL     OW 2527   0.067   0.058   1.422  0.5524  0.2014  0.7634
  843SOL    HW1 2528   0.150   0.098   1.464  0.6971  0.3994 -0.6448
  843SOL    HW2 2529   0.063  -0.048   1.421 -2.8902 -0.7311  1.9598
  844SOL     OW 2530   0.805   2.545   0.302 -0.4050 -0.5935  0.2707
  844SOL    HW1 2531   0.763   2.484   0.371  0.9290  0.1173  2.4034
  844SOL    HW2 2532   0.742   2.615   0.263  2.6104  1.6107 -1.6999
  845SOL     OW 2533   1.635   2.894   1.366 -0.3997  0.2718  0.0553
  845SOL    HW1 2534   1.669   2.905   1.462  0.2685 -2.3077  0.5130
  845SOL    HW2 2535   1.533   2.896   1.357 -1.2770 -0.7228  0.5272
  846SOL     OW 2536   1.531   2.925   0.722 -0.4300  0.6288  1.0555
  846SOL    HW1 2537   1.542   2.839   0.659 -1.5091 -1.5527  0.6576
  846SOL    HW2 2538   1.615   2.948   0.783 -0.0720  0.6225  1.2053
  847SOL     OW 2539   2.054   1.658   0.306 -0.1096  0.1127 -0.0688
  847SOL    HW1 2540   2.001   1.579   0.345  0.2096 -1.0434  1.8217
  847SOL    HW2 2541   1.984   1.737   0.280  0.9534  1.7343 -0.4000
  848SOL     OW 2542   2.457   0.858   2.583  0.5316 -0.1023 -0.0292
  848SOL    HW1 2543   2.424   0.939   2.641 -0.7340 -1.0082  1.5131
  848SOL    HW2 2544   2.386   0.785   2.600  0.6889 -0.2172  0.3597
  849SOL     OW 2545   2.595   0.804   2.341  0.1035 -0.0094  0.0750
  849SOL    HW1 2546   2.683   0.759   2.377  0.4869 -0.7397  0.1367
  849SOL    HW2 2547   2.536   0.844   2.416 -1.2997  0.2031 -0.2135
  850SOL     OW 2548   1.540   0.101   1.345 -0.0905  0.2743 -0.0435
  850SOL    HW1 2549   1.552   0.063   1.243  0.6986 -1.7257 -0.5316
  850SOL    HW2 2550   1.486   0.025   1.393 -2.4306  2.5355 -0.7334
  851SOL     OW 2551   0.451   1.803   0.600 -0.0012  0.1151  0.2173
  851SOL    HW1 2552   0.479   1.891   0.646 -1.1466 -0.7350 -0.4057
  851SOL    HW2 2553   0.513   1.773   0.521 -0.7972 -0.5831 -0.5679
  852SOL     OW 2554   0.768   2.133   1.657 -0.3986 -0.1577  0.0004
  852SOL    HW1 2555   0.787   2.227   1.613  1.0230  1.0970  5.1651
  852SOL    HW2 2556   0.708   2.142   1.742 -0.4914  3.3814  0.8647
  853SOL     OW 2557   2.577   1.488   2.590 -0.1055  0.3975 -0.4839
  853SOL    HW1 2558   2.510   1.417   2.554 -0.2627  0.6043  0.4116
  853SOL    HW2 2559   2.595   1.554   2.515 -0.5448 -2.5341  1.5789
  854SOL     OW 2560   2.391   1.408   1.709  0.5987 -0.0232 -0.2302
  854SOL    HW1 2561   2.441   1.389   1.620 -1.5162  2.1758 -5.2283
  854SOL    HW2 2562   2.341   1.325   1.739  2.7724 -0.4490 -2.4600
  855SOL     OW 2563   2.037   2.425   0.960  0.7404 -0.2354 -0.6162
  855SOL    HW1 2564   2.016   2.519   0.917 -1.4586 -1.6403  0.1248
  855SOL    HW2 2565   2.124   2.413   1.022  0.3114 -1.4529 -2.8215
  856SOL     OW 2566   1.361   1.489   0.907 -0.0518 -0.0482 -0.6217
  856SOL    HW1 2567   1.432   1.545   0.953 -0.5425  0.4197  0.1343
  856SOL    HW2 2568   1.262   1.525   0.930  0.7418 -2.2589 -0.8521
  857SOL     OW 2569   3.048   2.699   1.020  0.4737 -0.0742  0.1103
  857SOL    HW1 2570   2.989   2.631   0.976 -1.2816  0.9561  1.5472
  857SOL    HW2 2571   3.135   2.657   1.058  0.4765  0.7715 -1.2488
  858SOL     OW 2572   2.329   2.017   1.704 -0.0968 -0.3540  0.6065
  858SOL    HW1 2573   2.248   1.990   1.647 -3.0017 -2.8187  1.1122
  858SOL    HW2 2574   2.419   1.977   1.673 -0.0311  1.9687  1.1523
  859SOL     OW 2575   2.491   0.551   1.020  0.4211  0.0174  0.3484
  859SOL    HW1 2576   2.558   0.614   0.966 -2.2960  1.3288  0.1881
  859SOL    HW2 2577   2.527   0.453   1.029 -0.6603  1.5474  0.4559
  860SOL     OW 2578   1.954   2.823   0.416 -0.1296 -0.2156 -0.2982
  860SOL    HW1 2579   1.937   2.756   0.342  0.2926  1.8216  3.2532
  860SOL    HW2 2580   2.054   2.843   0.412  2.6501 -1.5724  0.6818
  861SOL     OW 2581   1.102   2.461   2.861  0.4581  0.0176 -0.6429
  861SOL    HW1 2582   1.155   2.540   2.813 -1.6780  2.4377 -1.8343
  861SOL    HW2 2583   1.103   2.472   2.966 -0.8058  2.4307  1.6281
  862SOL     OW 2584   2.831   2.578   1.610 -0.1099 -0.3467 -0.0124
  862SOL    HW1 2585   2.910   2.586   1.678 -0.2212  1.2221  1.0020
  862SOL    HW2 2586   2.806   2.668   1.567  2.5411  1.1520 -0.5455
  863SOL     OW 2587   1.844   2.723   0.175  0.4595 -0.0073 -0.0499
  863SOL    HW1 2588   1.896   2.630   0.184 -1.8073 -1.7466  3.5272
  863SOL    HW2 2589   1.740   2.705   0.171 -1.0334  0.5102 -0.8532
  864SOL     OW 2590   1.907   1.192   2.853  0.0408  0.0607 -0.1427
  864SOL    HW1 2591   1.900   1.144   2.759 -0.9827 -2.1786  0.3632
  864SOL    HW2 2592   1.969   1.143   2.918  1.5943  0.5937  0.3469
  865SOL     OW 2593   2.213   1.806   0.623 -0.2796 -0.0088 -0.2453
  865SOL    HW1 2594   2.238   1.817   0.723  2.7388  0.3996  0.0620
  865SOL    HW2 2595   2.111   1.801   0.607  1.0601  1.8455 -0.1885
  866SOL     OW 2596   2.893   2.906   1.024  1.0284  0.1567  0.0210
  866SOL    HW1 2597   2.893   2.956   0.935  1.4089 -1.6211 -1.1394
  866SOL    HW2 2598   2.958   2.824   1.018 -2.7962 -0.0055 -0.4453
  867SOL     OW 2599   0.309   1.362   0.905  0.3247 -0.4935  0.2905
  867SOL    HW1 2600   0.328   1.308   0.821  1.1634  1.1030  2.3926
  867SOL    HW2 2601   0.275   1.462   0.885 -3.0522  0.2950 -1.6667
  868SOL     OW 2602   0.734   1.869   1.971 -0.5482 -0.0103 -0.3154
  868SOL    HW1 2603   0.703   1.843   2.068 -1.3776 -0.4469  1.3787
  868SOL    HW2 2604   0.729   1.967   1.946 -1.0449 -1.4774  1.0747
  869SOL     OW 2605   2.572   1.935   1.612  0.2813  0.1867 -0.5021
  869SOL    HW1 2606   2.661   1.996   1.598  0.4976 -0.4600  0.5207
  869SOL    HW2 2607   2.596   1.846   1.661 -2.8304  1.2512 -0.5153
  870SOL     OW 2608   2.216   2.631   1.256  0.0928  0.2683  0.1567
  870SOL    HW1 2609   2.188   2.542   1.208  3.0971  2.3384  4.9428
  870SOL    HW2 2610   2.270   2.616   1.344  1.1447  1.4904 -0.0347
  871SOL     OW 2611   3.027   2.215   0.525  0.1748 -0.2485  0.4210
  871SOL    HW1 2612   2.941   2.186   0.573  0.5507 -0.4402 -0.3109
  871SOL    HW2 2613   3.003   2.247   0.426 -2.6548  0.7718  0.5769
  872SOL     OW 2614   2.108   0.524   1.690  0.3908 -0.7827 -0.0363
  872SOL    HW1 2615   2.066   0.512   1.782 -1.5472  1.5755 -1.2182
  872SOL    HW2 2616   2.200   0.476   1.675  1.2639 -0.6435  0.2996
  873SOL     OW 2617   1.722   2.120   3.041 -0.2155  0.5555 -0.5878
  873SOL    HW1 2618   1.652   2.174   3.095 -1.6253 -0.3632 -1.3296
  873SOL    HW2 2619   1.703   2.113   2.938 -2.0249 -3.7338 -1.7327
  874SOL     OW 2620   0.696   2.461   0.763  0.3310 -0.7987 -0.4467
  874SOL    HW1 2621   0.661   2.545   0.812 -2.8626  0.7066 -0.9980
  874SOL    HW2 2622   0.789   2.431   0.801 -0.6033  2.8162  1.1070
  875SOL     OW 2623   2.345   1.496   1.402  0.0421  0.4560 -0.0488
  875SOL    HW1 2624   2.432   1.542   1.432  0.1337  1.2760 -1.2883
  875SOL    HW2 2625   2.347   1.466   1.308 -1.7368  2.1867  3.7757
  876SOL     OW 2626   0.073   2.236   2.749  0.2062 -0.5491  0.0139
  876SOL    HW1 2627   0.151   2.162   2.761  0.2963  2.5707  1.9499
  876SOL    HW2 2628   0.100   2.331   2.789  0.8297  1.1087 -0.5317
  877SOL     OW 2629   2.907   2.667   0.581  0.1516 -0.0255 -0.1184
  877SOL    HW1 2630   2.913   2.764   0.608  0.8985 -1.7024 -1.1413
  877SOL    HW2 2631   2.960   2.608   0.648  0.0124  0.1504  1.3247
  878SOL     OW 2632   2.761   1.484   2.251 -0.1511  0.0841 -0.3795
  878SOL    HW1 2633   2.849   1.521   2.207  0.3927 -1.8312  0.1218
  878SOL    HW2 2634   2.756   1.512   2.351 -0.9123  2.1297  0.9483
  879SOL     OW 2635   2.382   0.109   1.229 -0.3696 -0.4068  0.1104
  879SOL    HW1 2636   2.441   0.028   1.255 -0.0789 -1.8662  0.2723
  879SOL    HW2 2637   2.321   0.089   1.148  0.4353  1.2762  0.0109
  880SOL     OW 2638   0.757   0.491   2.219 -0.4084  0.3533  0.2829
  880SOL    HW1 2639   0.723   0.455   2.310 -1.0066 -1.8048  1.7551
  880SOL    HW2 2640   0.831   0.432   2.175 -0.2949 -0.0520 -0.5481
  881SOL     OW 2641   0.876   0.050   0.500 -0.8560 -0.1361 -0.3022
  881SOL    HW1 2642   0.903  -0.049   0.505  0.6932  3.8813 -1.2529
  881SOL    HW2 2643   0.776   0.052   0.471  1.0787  1.7109 -1.0957
  882SOL     OW 2644   2.706   1.684   1.699 -0.0256  0.2620  0.1170
  882SOL    HW1 2645   2.793   1.662   1.649  1.0841  0.5580  2.5802
  882SOL    HW2 2646   2.707   1.651   1.800  1.8111 -1.0344  3.1405
  883SOL     OW 2647   0.903   0.547   0.937  0.6108  0.3435  0.4357
  883SOL    HW1 2648   0.909   0.642   0.975 -0.6281  1.0304 -0.5993
  883SOL    HW2 2649   0.906   0.478   1.013 -0.0362  1.9301 -0.5017
  884SOL     OW 2650   1.180   1.725   1.181  0.6901  0.4560  0.0983
  884SOL    HW1 2651   1.133   1.649   1.123  0.9813 -0.5958 -1.1881
  884SOL    HW2 2652   1.138   1.811   1.155  3.4711 -2.3377 -1.2231
  885SOL     OW 2653   2.319   1.787   2.297 -0.6868 -0.1806  0.2491
  885SOL    HW1 2654   2.235   1.744   2.341  2.0551 -2.2852  1.1093
  885SOL    HW2 2655   2.298   1.878   2.249  1.5831  0.2455 -3.5390
  886SOL     OW 2656   2.604   0.383   1.799 -0.0431  0.6978 -0.3931
  886SOL    HW1 2657   2.618   0.307   1.871 -0.8850 -0.3194  0.7321
  886SOL    HW2 2658   2.691   0.437   1.784 -0.7888 -1.7030  1.1457
  887SOL     OW 2659   0.111   1.981   1.352 -0.2374  0.5376 -0.0356
  887SOL    HW1 2660   0.034   1.945   1.295  0.0432  0.8189 -0.7988
  887SOL    HW2 2661   0.118   2.084   1.359  2.2881  1.1766 -1.0388
  888SOL     OW 2662   0.570   1.208   1.535 -0.0501  0.0095 -0.2780
  888SOL    HW1 2663   0.598   1.253   1.443 -0.7269  0.4421 -0.5637
  888SOL    HW2 2664   0.507   1.123   1.526  2.0749  2.1896 -0.6421
  889SOL     OW 2665   0.809   2.467   2.177  0.0841 -0.4899 -0.1716
  889SOL    HW1 2666   0.752   2.382   2.195 -0.7624  1.3590 -0.5918
  889SOL    HW2 2667   0.855   2.473   2.089 -3.6521  4.1416  1.8695
  890SOL     OW 2668   2.423   2.421   0.229 -0.2575  0.4567 -0.1890
  890SOL    HW1 2669   2.415   2.487   0.149 -0.7895 -1.7991 -0.8864
  890SOL    HW2 2670   2.353   2.450   0.300 -0.3377 -0.0401 -1.0672
  891SOL     OW 2671   2.546   1.725   0.717  0.6173  0.2335  0.3800
  891SOL    HW1 2672   2.548   1.691   0.816  0.8853 -1.1654  2.7613
  891SOL    HW2 2673   2.462   1.683   0.673 -2.2300 -2.8842  0.5990
  892SOL     OW 2674   0.351   0.312   2.245 -0.0270  0.3314 -0.5190
  892SOL    HW1 2675   0.349   0.367   2.158  0.4423  0.1964  2.1763
  892SOL    HW2 2676   0.426   0.346   2.311 -0.6993 -0.0956  1.4765
  893SOL     OW 2677   1.690   0.241   2.732  0.4887 -0.0280 -0.2276
  893SOL    HW1 2678   1.769   0.300   2.766  0.2771 -0.8874  1.1716
  893SOL    HW2 2679   1.611   0.292   2.692  2.5958  1.1746  3.2405
  894SOL     OW 2680   2.117   2.039   0.020 -0.5539  0.1812 -0.1849
  894SOL    HW1 2681   2.093   1.999  -0.076  1.8199  1.0481  0.6641
  894SOL    HW2 2682   2.143   1.959   0.084 -2.5070 -2.4819 -0.9954
  895SOL     OW 2683   2.823   1.429   0.947 -0.4020 -0.0833 -0.2231
  895SOL    HW1 2684   2.909   1.366   0.960  1.0303  0.7864 -2.8267
  895SOL    HW2 2685   2.837   1.521   0.983 -1.6538 -0.3768 -1.2445
  896SOL     OW 2686   1.763   1.805   1.191  0.7724  0.0383  0.1793
  896SOL    HW1 2687   1.783   1.738   1.114  0.8095 -0.6473  1.4489
  896SOL    HW2 2688   1.713   1.891   1.161  0.1526  0.7813 -0.9334
  897SOL     OW 2689   0.324   0.540   3.061  0.5280  0.0301  0.2902
  897SOL    HW1 2690   0.282   0.595   2.982  0.4291 -0.5653 -1.3440
  897SOL    HW2 2691   0.407   0.590   3.106  0.6531 -1.5840  3.4746
  898SOL     OW 2692   0.552   2.871   1.090  0.1641 -0.1708  0.1426
  898SOL    HW1 2693   0.531   2.969   1.122  1.5431 -1.6411  1.0167
  898SOL    HW2 2694   0.637   2.838   1.139  0.4525  2.5988 -0.9500
  899SOL     OW 2695   2.832   0.925   1.274  0.2044  0.1755  0.4543
  899SOL    HW1 2696   2.746   0.907   1.220  0.0907 -0.2859 -0.1170
  899SOL    HW2 2697   2.915   0.964   1.226  1.5426 -0.0061  1.5382
  900SOL     OW 2698   0.984   2.535   2.418 -0.8048  0.2272  0.4974
  900SOL    HW1 2699   0.934   2.537   2.325  0.8019 -1.7119 -0.8843
  900SOL    HW2 2700   0.926   2.523   2.495  0.0011 -5.7971 -1.8667
  901SOL     OW 2701   1.911   2.347   1.370  0.3810  0.0279  0.3493
  901SOL    HW1 2702   1.888   2.297   1.282  0.3602 -0.4934  0.1396
  901SOL    HW2 2703   1.994   2.305   1.422  1.4411 -1.5512  0.9534
  902SOL     OW 2704   2.567   1.658   1.462  0.5465 -0.1644 -0.0851
  902SOL    HW1 2705   2.599   1.656   1.561  0.6988 -1.5309  0.0282
  902SOL    HW2 2706   2.636   1.623   1.394 -2.1422 -0.2494  1.1647
  903SOL     OW 2707   0.243   2.465   1.968 -0.3549  0.1508 -0.4683
  903SOL    HW1 2708   0.155   2.421   1.938  0.9906 -0.6749  0.4387
  903SOL    HW2 2709   0.278   2.546   1.919 -0.1658  0.4128  0.9862
  904SOL     OW 2710   2.036   0.806   2.526  0.0432  0.4051 -0.1366
  904SOL    HW1 2711   1.961   0.757   2.572 -0.1238 -0.4799 -4.3078
  904SOL    HW2 2712   2.037   0.787   2.422  0.0184  0.3188 -0.1807
  905SOL     OW 2713   2.846   0.116   2.565  0.3497 -0.4949 -0.1239
  905SOL    HW1 2714   2.906   0.033   2.576  1.3538 -0.5832 -0.6474
  905SOL    HW2 2715   2.905   0.197   2.552  0.2338 -1.3127  2.0382
  906SOL     OW 2716   0.204   1.689   1.923 -0.3453  0.5151 -0.1896
  906SOL    HW1 2717   0.142   1.693   1.842 -1.3251 -2.1730  1.9760
  906SOL    HW2 2718   0.268   1.766   1.917  0.1069 -0.5564  0.8375
  907SOL     OW 2719   0.263   2.442   1.035 -0.0885  0.2997  0.2839
  907SOL    HW1 2720   0.358   2.406   1.009 -0.7901  0.9141 -1.5030
  907SOL    HW2 2721   0.237   2.522   0.976 -1.3162 -4.3243 -3.7524
  908SOL     OW 2722   2.788   2.986   0.355 -0.8250  0.1852  0.2534
  908SOL    HW1 2723   2.727   3.027   0.284  2.0594  0.4153 -0.9222
  908SOL    HW2 2724   2.826   2.893   0.327 -0.3345 -0.6180 -1.0559
  909SOL     OW 2725   0.808   1.045   2.648 -0.8112 -0.1758 -0.0957
  909SOL    HW1 2726   0.730   0.987   2.607 -0.6650 -1.9186  0.4354
  909SOL    HW2 2727   0.882   1.072   2.575 -0.4938  0.7845 -0.5101
  910SOL     OW 2728   1.765   1.874   2.169 -0.3270 -0.0862 -0.1980
  910SOL    HW1 2729   1.807   1.905   2.080 -1.7932  1.5061  2.8142
  910SOL    HW2 2730   1.685   1.938   2.198  1.1127 -0.3673 -0.0036
  911SOL     OW 2731   1.813   2.945   1.596 -0.0345 -0.1446  0.0737
  911SOL    HW1 2732   1.878   2.924   1.520  0.2422  0.2174  0.2330
  911SOL    HW2 2733   1.779   2.859   1.647  0.6675 -0.6207  1.0625
  912SOL     OW 2734   2.861   0.991   0.724  0.2142 -0.1936 -0.6993
  912SOL    HW1 2735   2.896   0.961   0.816 -1.9218 -0.1575  1.3106
  912SOL    HW2 2736   2.825   1.088   0.723  0.2556 -1.0705  2.9493
  913SOL     OW 2737   2.566   1.285   1.506  0.1762 -0.1219  0.0928
  913SOL    HW1 2738   2.588   1.185   1.510  0.6432  0.5209 -0.4220
  913SOL    HW2 2739   2.638   1.330   1.445  0.0163  0.8065 -3.4064
  914SOL     OW 2740   2.799   0.613   1.211  0.1008  0.2289  0.6970
  914SOL    HW1 2741   2.753   0.524   1.239  0.9161  0.0950 -1.7230
  914SOL    HW2 2742   2.760   0.695   1.257  2.6766  1.0495 -0.9355
  915SOL     OW 2743   1.174   0.726   1.088 -0.2191  0.9861  0.3889
  915SOL    HW1 2744   1.233   0.784   1.144 -2.3366 -1.5007 -0.1262
  915SOL    HW2 2745   1.075   0.755   1.107 -0.0263  0.5422  0.7576
  916SOL     OW 2746   0.595   0.021   0.620  0.3322 -0.1329 -0.0272
  916SOL    HW1 2747   0.635   0.095   0.680  0.5103  0.7585  1.0487
  916SOL    HW2 2748   0.586   0.049   0.516  0.5571 -0.1427 -2.7318
  917SOL     OW 2749   2.846   2.617   1.980 -0.2951  0.1802  0.0076
  917SOL    HW1 2750   2.755   2.600   1.935 -0.4759 -0.7158 -1.1132
  917SOL    HW2 2751   2.882   2.707   1.952 -0.1980 -1.5377  0.1867
  918SOL     OW 2752   1.011   2.122   3.051  0.4537  0.6742  0.4681
  918SOL    HW1 2753   1.003   2.207   3.106 -1.9813 -1.0429  1.4213
  918SOL    HW2 2754   1.090   2.122   2.985 -2.7826 -1.1992 -2.1219
  919SOL     OW 2755   0.857   1.631   2.885 -0.2132  0.2963  0.5928
  919SOL    HW1 2756   0.892   1.711   2.831 -0.2407 -0.5687  0.4758
  919SOL    HW2 2757   0.806   1.569   2.824 -0.3233  1.0000 -0.5645
  920SOL     OW 2758   1.205   1.861   2.490 -0.4479 -0.3573  0.2341
  920SOL    HW1 2759   1.266   1.793   2.438 -0.9082  1.5059 -0.4354
  920SOL    HW2 2760   1.192   1.826   2.587 -1.3655  1.2019 -0.5803
  921SOL     OW 2761   1.049   0.025   2.609 -0.0180 -0.0250  0.1457
  921SOL    HW1 2762   1.012  -0.022   2.522 -1.4471 -1.3531  0.6978
  921SOL    HW2 2763   0.974   0.070   2.664  3.6729 -0.3121 -1.8497
  922SOL     OW 2764   2.161   2.385   2.782 -0.7241 -0.1071  0.1678
  922SOL    HW1 2765   2.192   2.288   2.767 -2.3796  0.3121 -0.2617
  922SOL    HW2 2766   2.145   2.425   2.689 -2.2033  1.5607 -0.3864
  923SOL     OW 2767   1.268   2.661   0.274 -0.0477  0.1957 -0.4734
  923SOL    HW1 2768   1.339   2.731   0.297 -0.1608  2.4595 -0.4388
  923SOL    HW2 2769   1.301   2.563   0.271  1.6792 -0.6497  1.0349
  924SOL     OW 2770   2.850   1.564   0.177  0.6349 -0.5594 -0.4162
  924SOL    HW1 2771   2.790   1.593   0.099 -0.9710 -0.2357 -0.0981
  924SOL    HW2 2772   2.949   1.552   0.147 -0.0281 -2.2884 -3.1621
  925SOL     OW 2773   0.007   2.870   1.507 -0.5986  0.0949  0.4078
  925SOL    HW1 2774  -0.068   2.913   1.559  1.5758 -2.3764 -0.6129
  925SOL    HW2 2775  -0.023   2.803   1.436 -1.5534  1.3519  0.9882
  926SOL     OW 2776   1.302   2.795   1.268  0.0399  0.1902 -0.2706
  926SOL    HW1 2777   1.371   2.800   1.191  0.1215 -1.5973 -0.9990
  926SOL    HW2 2778   1.301   2.871   1.339  3.0443 -0.1286 -0.7091
  927SOL     OW 2779   0.329   2.675   1.778  0.4481 -0.3277 -0.2614
  927SOL    HW1 2780   0.299   2.598   1.718 -0.9759 -0.5311  3.2008
  927SOL    HW2 2781   0.283   2.766   1.753 -1.5244 -0.9796  0.4172
  928SOL     OW 2782   1.552   2.050   2.279 -0.6748 -0.1032  0.3033
  928SOL    HW1 2783   1.591   2.137   2.235  0.7029 -1.1491 -0.3715
  928SOL    HW2 2784   1.447   2.055   2.261  1.2055  0.0427  0.7112
  929SOL     OW 2785   2.398   2.509   2.866  0.3379 -0.6040 -0.2705
  929SOL    HW1 2786   2.307   2.474   2.841  1.1896  1.1165  3.7499
  929SOL    HW2 2787   2.468   2.508   2.792 -0.6602 -0.9537  0.5586
  930SOL     OW 2788   2.199   2.011   1.085  0.4412  0.4492 -0.0384
  930SOL    HW1 2789   2.189   1.940   1.163  0.6774 -3.3309 -0.0707
  930SOL    HW2 2790   2.280   2.077   1.105  1.4599 -1.7683 -4.2809
  931SOL     OW 2791   0.537   1.713   2.734  0.2083 -0.2158  0.2916
  931SOL    HW1 2792   0.554   1.756   2.827  0.8795  1.4257  0.1850
  931SOL    HW2 2793   0.581   1.625   2.706 -2.8966  0.3836 -1.0782
  932SOL     OW 2794   0.484   0.144   3.009 -0.4012  0.0371 -0.8622
  932SOL    HW1 2795   0.562   0.191   3.067  2.5591  0.1462  0.9925
  932SOL    HW2 2796   0.498   0.042   3.002  0.9119  1.9983  1.4462
  933SOL     OW 2797   1.002   0.797   3.086  0.1404 -0.2157 -0.9726
  933SOL    HW1 2798   1.019   0.832   3.180  2.0991  0.1560  0.7340
  933SOL    HW2 2799   0.939   0.860   3.030  2.3455  0.8633 -3.2042
  934SOL     OW 2800   0.781   2.966   2.663 -0.0993  0.2037 -0.4882
  934SOL    HW1 2801   0.795   2.914   2.574 -0.8781  0.4856 -0.6393
  934SOL    HW2 2802   0.854   2.931   2.726  0.0655  0.2150 -2.5315
  935SOL     OW 2803   0.037   0.566   0.827 -0.2377  0.0753 -0.6861
  935SOL    HW1 2804   0.025   0.534   0.729 -1.9172  0.8874  3.8939
  935SOL    HW2 2805  -0.049   0.604   0.865  2.4113  0.5941  0.7101
  936SOL     OW 2806   1.120   2.768   0.078 -0.3344  0.3714  0.0524
  936SOL    HW1 2807   1.191   2.826   0.031  1.5541 -0.4973  0.0684
  936SOL    HW2 2808   1.167   2.707   0.146 -0.0360  1.4476 -1.9358
  937SOL     OW 2809   1.896   2.638   2.103  0.5057 -0.4616 -0.4148
  937SOL    HW1 2810   1.817   2.645   2.168 -2.2032  1.3808  0.7075
  937SOL    HW2 2811   1.901   2.724   2.046 -1.2323  0.6159  2.7033
  938SOL     OW 2812   2.771   2.100   1.612  0.3339  0.2580  0.0379
  938SOL    HW1 2813   2.754   2.205   1.601 -0.6380  0.3918  0.5718
  938SOL    HW2 2814   2.868   2.070   1.636  0.1284  2.2591  0.2039
  939SOL     OW 2815   2.882   1.219   2.434  0.1591 -0.2899 -0.4963
  939SOL    HW1 2816   2.934   1.169   2.359  2.1818 -0.2679 -1.1916
  939SOL    HW2 2817   2.904   1.172   2.524  0.7877  0.7659  1.8215
  940SOL     OW 2818   1.033   0.402   2.736 -0.3777 -0.1938 -0.6337
  940SOL    HW1 2819   1.115   0.334   2.741  0.3551 -2.2522  0.2099
  940SOL    HW2 2820   0.975   0.379   2.649  1.5038 -1.1396 -1.5089
  941SOL     OW 2821   0.066   2.790   2.268 -0.1440  0.4245  0.0146
  941SOL    HW1 2822   0.110   2.697   2.257  0.4202 -2.1576 -2.1004
  941SOL    HW2 2823   0.132   2.854   2.310 -0.5554 -1.8734 -0.9818
  942SOL     OW 2824   0.145   0.063   2.554  0.1132  0.3597 -0.0376
  942SOL    HW1 2825   0.206   0.078   2.637 -2.5045  1.6100 -1.9367
  942SOL    HW2 2826   0.132   0.156   2.504  0.4350 -0.0079  1.0730
  943SOL     OW 2827   2.096   1.662   2.403  0.2882  0.8854  0.3102
  943SOL    HW1 2828   2.083   1.615   2.306 -1.5523 -0.4293  2.1029
  943SOL    HW2 2829   2.111   1.592   2.477 -1.4867 -0.1426 -2.4258
  944SOL     OW 2830   2.168   2.321   1.457  0.0310  0.2593  0.1995
  944SOL    HW1 2831   2.254   2.364   1.496 -1.3324 -2.6427  1.3257
  944SOL    HW2 2832   2.148   2.241   1.521  0.6030  1.3443 -0.3563
  945SOL     OW 2833   0.677   1.505   0.230 -0.4342 -0.3255  0.3587
  945SOL    HW1 2834   0.594   1.528   0.172  0.1888 -1.3256  0.2877
  945SOL    HW2 2835   0.695   1.402   0.228  3.0904  1.9017  0.0272
  946SOL     OW 2836   0.428   0.918   2.455 -0.6298  0.1010 -0.1813
  946SOL    HW1 2837   0.344   0.878   2.416 -0.2458  0.9299  1.0630
  946SOL    HW2 2838   0.409   1.011   2.494  1.6411 -1.4826 -1.2129
  947SOL     OW 2839   1.541   0.535   3.078  0.1105 -0.3275  0.0328
  947SOL    HW1 2840   1.508   0.603   2.999 -1.1328  1.4859 -3.6968
  947SOL    HW2 2841   1.464   0.468   3.098 -1.2020  0.8294 -0.8291
  948SOL     OW 2842   1.832   3.041   2.140  0.3387  0.4559  0.3894
  948SOL    HW1 2843   1.870   2.981   2.058  1.6895 -0.2974 -0.7328
  948SOL    HW2 2844   1.836   2.981   2.222 -3.8111 -0.2375  0.0044
  949SOL     OW 2845   0.608   2.464   0.487 -0.2253 -0.1207 -0.0332
  949SOL    HW1 2846   0.623   2.568   0.489  1.5689  0.2217  3.6544
  949SOL    HW2 2847   0.625   2.425   0.583  4.6551  1.2853  0.6936
  950SOL     OW 2848   0.196   2.225   3.065 -0.1356 -0.3405  0.4814
  950SOL    HW1 2849   0.135   2.290   3.009  1.2167 -1.6231 -0.5653
  950SOL    HW2 2850   0.239   2.152   3.008 -0.3721 -0.7226 -0.2597
  951SOL     OW 2851   1.233   2.685   2.776  0.7629  0.0743 -1.1499
  951SOL    HW1 2852   1.280   2.683   2.868 -0.6650 -0.4436  0.0543
  951SOL    HW2 2853   1.301   2.669   2.699  0.0022  1.1439  1.4101
  952SOL     OW 2854   0.010   1.695   0.381  0.4101  0.8539 -0.2627
  952SOL    HW1 2855   0.096   1.759   0.363 -1.7835  0.9647 -2.5974
  952SOL    HW2 2856   0.006   1.653   0.483 -0.7477 -0.0105  3.9445
  953SOL     OW 2857   2.541   1.800   0.207  0.0836 -0.6714 -0.0849
  953SOL    HW1 2858   2.525   1.704   0.237 -0.6108 -0.5759  1.0612
  953SOL    HW2 2859   2.502   1.811   0.108 -0.3527  1.0841 -1.9558
  954SOL     OW 2860   2.230   0.536   0.916  0.0822  0.2014  0.3955
  954SOL    HW1 2861   2.206   0.575   0.826 -0.1298 -0.3670  1.6321
  954SOL    HW2 2862   2.332   0.538   0.933 -0.3509  0.9393 -1.4865
  955SOL     OW 2863   0.175   2.596   1.311  0.0494 -0.1491 -0.5506
  955SOL    HW1 2864   0.076   2.620   1.287 -1.2773 -0.8840 -1.8257
  955SOL    HW2 2865   0.236   2.612   1.230 -1.2049 -0.8623  2.1740
  956SOL     OW 2866   2.840   2.443   2.516 -0.4539 -0.1981 -0.4543
  956SOL    HW1 2867   2.842   2.346   2.471  0.7258 -1.5768 -0.7980
  956SOL    HW2 2868   2.842   2.512   2.442  2.1804 -0.2161  0.3040
  957SOL     OW 2869   1.665   2.057   2.779 -0.4802  0.2869  0.1914
  957SOL    HW1 2870   1.617   1.964   2.793  2.0571  0.6495 -1.9712
  957SOL    HW2 2871   1.673   2.072   2.678 -0.7510  1.2075  1.4533
  958SOL     OW 2872   2.549   2.302   3.003  0.3348  0.5346 -0.1087
  958SOL    HW1 2873   2.475   2.354   2.951 -1.3404  1.5352 -0.3301
  958SOL    HW2 2874   2.512   2.230   3.070 -2.0237 -2.2653 -3.2441
  959SOL     OW 2875   0.249   2.803   0.050 -0.1761  0.0707  0.1217
  959SOL    HW1 2876   0.153   2.783   0.013  0.9785  1.1795  0.6244
  959SOL    HW2 2877   0.280   2.723   0.113  0.2186 -0.6166 -0.9995
  960SOL     OW 2878   1.996   0.489   1.936  0.9951 -0.0111 -0.0782
  960SOL    HW1 2879   1.937   0.570   1.923  2.3850  0.4828  1.2638
  960SOL    HW2 2880   2.039   0.481   2.030  0.5501 -0.9508 -0.1685
  961SOL     OW 2881   2.562   1.861   0.995  0.1100 -0.3178  0.2176
  961SOL    HW1 2882   2.588   1.954   0.959  0.2248  0.4129 -3.0029
  961SOL    HW2 2883   2.533   1.849   1.094  1.8174 -0.3536  0.6093
  962SOL     OW 2884   1.319   0.934   0.035 -0.0675  0.6707 -0.0094
  962SOL    HW1 2885   1.270   0.971  -0.048  1.0607 -1.5637 -0.4240
  962SOL    HW2 2886   1.329   1.004   0.113 -0.0306 -0.0167  3.1119
  963SOL     OW 2887   2.216   2.568   1.822 -0.2404 -0.1139  0.4435
  963SOL    HW1 2888   2.178   2.475   1.853  1.2307 -1.2652  1.4354
  963SOL    HW2 2889   2.236   2.636   1.904  2.0832  1.3155  2.9837
  964SOL     OW 2890   2.354   0.383   1.671 -0.2237 -0.4071  0.2051
  964SOL    HW1 2891   2.447   0.394   1.718  2.6428  1.3982 -0.3932
  964SOL    HW2 2892   2.359   0.380   1.570 -0.3685  1.5251  0.6863
  965SOL     OW 2893   2.641   3.057   0.142 -0.1742  0.6360 -0.1231
  965SOL    HW1 2894   2.704   3.043   0.061  0.9147  0.0863 -0.7355
  965SOL    HW2 2895   2.545   3.071   0.111 -0.2276 -0.3335  2.9969
  966SOL     OW 2896   2.625   2.577   2.198  0.5377  0.0679 -0.4506
  966SOL    HW1 2897   2.688   2.635   2.258 -0.8007  1.7876  0.1773
  966SOL    HW2 2898   2.534   2.624   2.187  0.3800 -0.8059 -0.6755
  967SOL     OW 2899   2.785   2.831   2.491  0.9363  0.0639  0.2624
  967SOL    HW1 2900   2.822   2.783   2.406 -0.2434  0.0700 -0.4693
  967SOL    HW2 2901   2.846   2.905   2.526  0.2388  0.3849 -1.1401
  968SOL     OW 2902   1.900   1.051   2.628  0.3350 -0.6418  0.0555
  968SOL    HW1 2903   1.827   1.096   2.563 -1.2274  1.3624  0.3055
  968SOL    HW2 2904   1.948   0.970   2.582 -1.3563  1.9880  1.3681
  969SOL     OW 2905   2.857   2.478   1.115  0.0198 -1.4022  0.5704
  969SOL    HW1 2906   2.795   2.469   1.032 -0.1101  0.3397  0.0443
  969SOL    HW2 2907   2.865   2.389   1.165 -0.5804 -0.0434 -0.9061
  970SOL     OW 2908   1.020   2.086   1.810 -0.0293  0.0505  0.5462
  970SOL    HW1 2909   0.945   2.101   1.741  0.6354 -0.1831 -0.4098
  970SOL    HW2 2910   1.007   2.141   1.898  2.1366  0.7431  0.7254
  971SOL     OW 2911   2.928   2.096   1.958 -0.0935  0.2442 -0.6097
  971SOL    HW1 2912   2.906   2.198   1.950  1.4297  1.5183  0.5329
  971SOL    HW2 2913   2.977   2.072   1.875 -0.1480  0.6260  0.3328
  972SOL     OW 2914   1.980   2.482   0.243 -0.0006  0.3319 -0.4285
  972SOL    HW1 2915   1.970   2.400   0.175  1.3352 -4.1016 -0.0712
  972SOL    HW2 2916   2.014   2.451   0.333  0.8326 -0.4474 -0.1321
  973SOL     OW 2917   1.276   1.039   1.898  0.1274 -0.2388  0.3895
  973SOL    HW1 2918   1.227   1.068   1.810  0.2273 -0.6601 -0.2875
  973SOL    HW2 2919   1.251   1.101   1.975  0.1328 -1.9660  0.7391
  974SOL     OW 2920   1.620   0.552   1.984  0.0576  0.6453  0.3584
  974SOL    HW1 2921   1.714   0.585   1.958 -0.9855 -2.8004 -0.4671
  974SOL    HW2 2922   1.536   0.605   1.955 -0.5440 -1.0991 -1.1138
  975SOL     OW 2923   2.356   3.049   0.059 -0.0397 -0.0001  0.3344
  975SOL    HW1 2924   2.301   2.967   0.092  1.0908 -2.5141  1.0030
  975SOL    HW2 2925   2.339   3.065  -0.041  1.8368  1.8822 -0.2192
  976SOL     OW 2926   1.907   2.854   2.357  0.3466 -0.1686  0.4066
  976SOL    HW1 2927   1.809   2.825   2.355 -1.1029  1.3031  2.2653
  976SOL    HW2 2928   1.965   2.794   2.419 -1.4760  2.5407  1.4147
  977SOL     OW 2929   0.461   0.656   1.011 -0.4784 -0.1625 -0.9744
  977SOL    HW1 2930   0.380   0.675   0.954 -0.5278 -2.2283  1.4616
  977SOL    HW2 2931   0.553   0.641   0.968 -0.0104 -2.2534  2.9512
   3.10000   3.10000   3.10000
