1000 SPC/Fw water molecules t=   0.43000 step= 430
 2931
    1SOL     OW    1   2.517   0.311   2.619 -0.7918  0.4019  0.6516
    1SOL    HW1    2   2.541   0.211   2.630 -3.2066 -0.2282 -0.1640
    1SOL    HW2    3   2.560   0.365   2.694  2.8169 -2.1955  0.6245
    2SOL     OW    4   2.707   3.063   1.454  0.4193 -0.5748 -0.1067
    2SOL    HW1    5   2.768   3.071   1.369  1.7379  1.8004  0.9277
    2SOL    HW2    6   2.664   3.154   1.490  0.9647  2.1307  2.3363
    3SOL     OW    7   2.743   2.596   0.390 -0.0883  0.2395 -0.1577
    3SOL    HW1    8   2.723   2.492   0.393  0.9360 -0.9854 -1.5427
    3SOL    HW2    9   2.808   2.633   0.466  0.3683  1.0060  0.5017
    4SOL     OW   10   1.328   1.490   2.350 -0.3051  0.5741 -0.3935
    4SOL    HW1   11   1.236   1.497   2.305 -3.0285  0.5894 -0.4275
    4SOL    HW2   12   1.322   1.428   2.432  0.8881 -0.7620 -1.2964
    5SOL     OW   13   1.199   1.506   3.035  0.1653  0.3345  0.2519
    5SOL    HW1   14   1.243   1.572   3.102 -1.3685 -0.8425 -1.2758
    5SOL    HW2   15   1.096   1.521   3.035  0.2263  2.1031 -0.5812
    6SOL     OW   16   0.034   1.781   2.893  0.3729 -0.1811  0.4526
    6SOL    HW1   17   0.054   1.843   2.977 -1.6771  3.0333  1.7534
    6SOL    HW2   18   0.023   1.677   2.918 -0.4885 -1.2760 -1.4485
    7SOL     OW   19   2.559   0.887   1.157 -0.0294 -0.2526  0.4232
    7SOL    HW1   20   2.470   0.860   1.200  0.5534  0.9564 -0.2034
    7SOL    HW2   21   2.546   0.918   1.054  3.5134  3.2118 -1.7886
    8SOL     OW   22   0.411   0.633   1.536  0.4883 -0.4187 -0.3955
    8SOL    HW1   23   0.500   0.577   1.552 -0.1258  0.4986 -0.1280
    8SOL    HW2   24   0.366   0.608   1.446  1.8377 -1.4436  0.0326
    9SOL     OW   25   1.146   0.966   2.250 -0.2389 -0.0819  0.2763
    9SOL    HW1   26   1.226   1.021   2.217  0.4905  2.4216 -1.8429
    9SOL    HW2   27   1.079   0.927   2.174  0.0434 -1.4454  1.6182
   10SOL     OW   28   0.714   1.352   1.265 -0.4253 -0.1230  0.2132
   10SOL    HW1   29   0.613   1.355   1.240  1.1537 -0.6836  3.6829
   10SOL    HW2   30   0.764   1.443   1.245  4.1151  1.5792  1.5450
   11SOL     OW   31   2.358   2.675   0.968  0.4383  0.5236 -0.2786
   11SOL    HW1   32   2.326   2.690   1.067 -0.5171  3.2732  1.7644
   11SOL    HW2   33   2.453   2.648   0.968 -1.2924 -0.4103 -0.8223
   12SOL     OW   34   1.440   0.918   0.399  0.0119 -0.4273 -0.2782
   12SOL    HW1   35   1.371   0.986   0.359  0.4598 -0.5869 -1.1270
   12SOL    HW2   36   1.466   0.839   0.336  1.6935 -0.2878 -0.9970
   13SOL     OW   37   2.531   0.667   1.812 -0.0139 -0.1480 -1.0749
   13SOL    HW1   38   2.446   0.656   1.872  0.3980 -0.0718  0.2929
   13SOL    HW2   39   2.523   0.623   1.717 -0.8251 -1.8256 -1.7492
   14SOL     OW   40   1.985   0.039   0.684 -0.1496  0.1887  0.1729
   14SOL    HW1   41   1.906   0.093   0.636 -3.2330 -0.2909  1.2961
   14SOL    HW2   42   1.947  -0.051   0.730 -0.3891 -1.0852 -0.1777
   15SOL     OW   43   1.950   2.012   2.857  0.4793 -0.3319 -0.0605
   15SOL    HW1   44   1.929   2.113   2.871 -0.5717 -0.4732  1.6614
   15SOL    HW2   45   1.892   1.975   2.775 -2.0115  0.1781 -1.9877
   16SOL     OW   46   1.620   1.732   3.101 -0.3087  0.1357 -0.3519
   16SOL    HW1   47   1.621   1.632   3.071 -0.3832 -1.6721  0.9502
   16SOL    HW2   48   1.718   1.765   3.116  1.2661 -1.7689  1.3006
   17SOL     OW   49   0.081   0.493   0.126 -0.1880  0.2091 -0.7838
   17SOL    HW1   50   0.178   0.519   0.102  0.4456  0.8503 -0.5012
   17SOL    HW2   51   0.021   0.494   0.042  1.1680  2.3491 -1.3267
   18SOL     OW   52   0.991   2.900   2.175  0.4669  0.4607  0.0579
   18SOL    HW1   53   0.899   2.867   2.138  0.0408  0.2376 -1.9780
   18SOL    HW2   54   1.069   2.857   2.129 -1.9013 -0.6859  2.7885
   19SOL     OW   55   0.529   0.853   1.941  0.6899 -0.5023 -0.4060
   19SOL    HW1   56   0.538   0.917   2.016  1.5085 -2.5649 -0.0540
   19SOL    HW2   57   0.622   0.831   1.900 -0.0899  3.0954 -3.3485
   20SOL     OW   58   0.174   2.802   0.832 -0.6558  0.2733  0.4253
   20SOL    HW1   59   0.086   2.848   0.801  0.9840 -0.6636  2.3716
   20SOL    HW2   60   0.252   2.809   0.760 -1.4617 -3.3846 -0.5150
   21SOL     OW   61   2.786   0.180   2.134 -0.0693 -0.1546 -0.6533
   21SOL    HW1   62   2.796   0.096   2.079  2.1050  0.9810 -0.3024
   21SOL    HW2   63   2.799   0.165   2.234  1.5020  0.7715 -0.8320
   22SOL     OW   64   2.320   0.234   0.012  0.1381  0.0318  0.3756
   22SOL    HW1   65   2.319   0.128   0.015 -0.6021 -0.1652  0.2476
   22SOL    HW2   66   2.229   0.274  -0.007  0.0666  1.0167  2.2252
   23SOL     OW   67   2.800   0.640   0.647 -0.3226 -0.2147 -0.4819
   23SOL    HW1   68   2.805   0.547   0.596 -1.1594 -1.9775  1.4008
   23SOL    HW2   69   2.744   0.714   0.600 -1.4278  2.0347  0.9496
   24SOL     OW   70   0.144   1.921   0.428 -0.0178  0.1486 -1.2367
   24SOL    HW1   71   0.061   1.922   0.369 -2.3925 -0.3546 -0.2696
   24SOL    HW2   72   0.229   1.889   0.381  2.8134  1.3233  3.1492
   25SOL     OW   73   2.256   0.488   0.209  0.0913  0.2555  0.3124
   25SOL    HW1   74   2.328   0.427   0.244 -0.5906  0.9110  2.2759
   25SOL    HW2   75   2.256   0.510   0.103 -3.6934  2.9837 -1.1102
   26SOL     OW   76   2.485   2.194   2.093  0.6787  0.3040 -0.4854
   26SOL    HW1   77   2.553   2.222   2.171  2.6884 -0.3635  0.9200
   26SOL    HW2   78   2.519   2.117   2.035 -0.1550  0.7704  0.7200
   27SOL     OW   79   0.652   2.981   0.111 -0.4339  0.1498  0.1375
   27SOL    HW1   80   0.749   3.015   0.113 -1.2173 -0.3321  2.1882
   27SOL    HW2   81   0.601   3.019   0.032 -0.9331  0.0925  0.8805
   28SOL     OW   82   1.568   0.173   0.278  0.4852  0.3596  0.1349
   28SOL    HW1   83   1.611   0.145   0.185 -2.0618 -0.4623 -2.4109
   28SOL    HW2   84   1.595   0.263   0.318 -2.0588  0.5442 -1.2392
   29SOL     OW   85   2.037   0.543   0.365 -0.3773 -0.2822  0.8508
   29SOL    HW1   86   1.993   0.632   0.329 -0.3905 -1.4380 -0.3844
   29SOL    HW2   87   2.126   0.527   0.315  2.2287 -1.9391 -0.2615
   30SOL     OW   88   0.134   2.031   0.926  0.6029  0.5624 -0.3039
   30SOL    HW1   89   0.152   2.023   0.823 -3.6291 -1.9960  0.4124
   30SOL    HW2   90   0.054   2.092   0.956  2.4118 -1.7925 -0.3456
   31SOL     OW   91   2.101   0.012   2.301  0.2487  0.2369 -0.2292
   31SOL    HW1   92   2.110  -0.011   2.404  1.1216 -0.7503 -0.1016
   31SOL    HW2   93   2.010  -0.010   2.254 -0.9921 -0.5374 -0.2357
   32SOL     OW   94   2.925   0.189   0.164  0.5527  0.0644  0.5076
   32SOL    HW1   95   2.899   0.104   0.214  1.5928  0.2710  1.7187
   32SOL    HW2   96   3.016   0.223   0.200 -0.9027 -0.9392  0.9409
   33SOL     OW   97   0.930   0.325   0.502 -0.7085 -0.3429  0.1159
   33SOL    HW1   98   0.885   0.243   0.462 -0.1726 -0.9006  2.5003
   33SOL    HW2   99   1.008   0.293   0.566  4.9850  1.1000  2.1015
   34SOL     OW  100   0.389   2.841   1.028 -0.4282  0.0689 -0.9337
   34SOL    HW1  101   0.345   2.763   0.973  0.4040 -1.2495 -1.9176
   34SOL    HW2  102   0.493   2.835   1.023  0.4507 -1.8978  0.6604
   35SOL     OW  103   0.039   0.107   1.854 -0.0528  1.3008  0.3391
   35SOL    HW1  104   0.095   0.024   1.885  1.5763 -0.5186  0.3833
   35SOL    HW2  105  -0.025   0.089   1.775 -0.7066  0.4380 -0.3760
   36SOL     OW  106   1.938   1.120   1.817 -0.0353 -0.1477  0.5092
   36SOL    HW1  107   1.977   1.094   1.726  0.3086  0.8350 -2.6784
   36SOL    HW2  108   1.982   1.195   1.869 -0.6978 -1.1052 -0.2882
   37SOL     OW  109   1.190   0.220   0.946 -0.0937 -0.9149  0.2005
   37SOL    HW1  110   1.234   0.308   0.985 -1.1471 -1.4474  0.0259
   37SOL    HW2  111   1.243   0.135   0.968 -0.6155  1.2651 -0.9178
   38SOL     OW  112   1.065   2.697   2.414  0.1482  0.0978  0.1155
   38SOL    HW1  113   1.046   2.602   2.454 -1.2827 -0.8720  0.6519
   38SOL    HW2  114   0.984   2.767   2.422  3.0458  1.4914 -2.1609
   39SOL     OW  115   2.323   1.379   2.998  0.3309 -0.5253  0.1126
   39SOL    HW1  116   2.418   1.340   3.007  1.2687 -0.2778 -1.6236
   39SOL    HW2  117   2.271   1.368   3.086  1.9549  0.3703 -2.2278
   40SOL     OW  118   2.107   2.516   2.526  0.9042 -0.6496  0.2163
   40SOL    HW1  119   2.076   2.611   2.543  1.8978 -2.3122 -2.5490
   40SOL    HW2  120   2.041   2.462   2.473 -0.0064  3.8073  3.5295
   41SOL     OW  121   2.925   0.703   2.751  0.1243  0.8809 -0.0117
   41SOL    HW1  122   2.834   0.748   2.775 -0.0620 -3.1941 -0.4583
   41SOL    HW2  123   2.916   0.596   2.751  0.3677  1.2969  3.5606
   42SOL     OW  124   1.756   1.772   0.568 -0.3417  0.1591 -0.2369
   42SOL    HW1  125   1.721   1.680   0.535 -1.1666  2.6326 -0.3015
   42SOL    HW2  126   1.820   1.826   0.504  0.9227  1.0634 -0.3048
   43SOL     OW  127   0.466   1.745   1.191  0.3309 -0.1738 -0.4981
   43SOL    HW1  128   0.427   1.693   1.268  1.1761 -1.1977 -2.5339
   43SOL    HW2  129   0.392   1.765   1.118 -1.1101  1.0086 -1.9422
   44SOL     OW  130   1.789   2.526   3.096  0.3129 -0.5708 -0.9334
   44SOL    HW1  131   1.763   2.569   3.007  2.4719 -1.2413  1.5671
   44SOL    HW2  132   1.878   2.555   3.129 -0.7443 -1.7782 -1.5901
   45SOL     OW  133   0.286   1.893   2.602 -0.0088 -0.7176  0.0891
   45SOL    HW1  134   0.243   1.899   2.505  2.1108  2.5544 -0.7029
   45SOL    HW2  135   0.347   1.809   2.620 -0.3101 -1.2519 -0.3547
   46SOL     OW  136   1.174   0.661   0.228  0.6846  0.2557 -0.3176
   46SOL    HW1  137   1.230   0.745   0.203 -0.9503  0.6476 -0.5838
   46SOL    HW2  138   1.072   0.686   0.230  0.5937  2.1713 -2.4199
   47SOL     OW  139   0.215   2.439   1.619 -0.2428  0.1670  0.7536
   47SOL    HW1  140   0.285   2.361   1.590  2.3663  0.2363 -1.7039
   47SOL    HW2  141   0.135   2.446   1.556  1.1432 -0.9670  3.1075
   48SOL     OW  142   2.593   0.601   0.146 -0.5159  0.1935  0.0916
   48SOL    HW1  143   2.541   0.594   0.231  2.1952  1.3744  0.8486
   48SOL    HW2  144   2.699   0.619   0.149  4.7056 -3.1965  2.3408
   49SOL     OW  145   0.361   0.807   1.737  0.2295  0.1613 -0.2407
   49SOL    HW1  146   0.420   0.814   1.825 -1.4296 -0.1706  0.6673
   49SOL    HW2  147   0.398   0.732   1.674 -0.3490  0.6096 -2.7848
   50SOL     OW  148   1.684   1.094   0.365 -0.4258  0.1886 -0.5884
   50SOL    HW1  149   1.678   0.997   0.346 -0.8528  4.4023 -0.4552
   50SOL    HW2  150   1.629   1.123   0.447  1.6404  0.1843 -1.0970
   51SOL     OW  151   2.992   1.903   0.324 -0.1500  0.5798 -0.4654
   51SOL    HW1  152   2.984   1.892   0.220  0.0974 -0.1217 -1.8431
   51SOL    HW2  153   2.945   1.826   0.377 -2.9913  1.2198  2.6118
   52SOL     OW  154   0.791   1.954   0.506 -0.1675 -0.4488  0.4870
   52SOL    HW1  155   0.702   1.983   0.550  2.4521 -0.0598  1.4362
   52SOL    HW2  156   0.826   1.865   0.547  0.9241 -2.6205  0.1659
   53SOL     OW  157   3.086   0.357   1.555  0.0553  0.1233 -0.3626
   53SOL    HW1  158   3.037   0.373   1.646 -1.4734 -0.5126 -2.2949
   53SOL    HW2  159   3.070   0.437   1.496 -1.7537 -1.2730  0.9623
   54SOL     OW  160   1.748   0.471   3.064  0.3699 -0.3842  0.2504
   54SOL    HW1  161   1.792   0.441   3.154 -0.1268 -0.4934  2.3156
   54SOL    HW2  162   1.648   0.463   3.063 -0.7376 -1.2120  0.4642
   55SOL     OW  163   0.731   2.923   0.584 -0.2188 -0.9158  0.3706
   55SOL    HW1  164   0.670   3.007   0.587  1.2507 -0.2726  3.2852
   55SOL    HW2  165   0.812   2.925   0.515  3.2014 -3.3273 -1.0704
   56SOL     OW  166   0.453   1.569   3.027 -0.3158 -0.0594  0.1301
   56SOL    HW1  167   0.400   1.653   3.060 -0.0797  0.3226  1.9349
   56SOL    HW2  168   0.391   1.493   2.991  3.2701  1.8899  1.5635
   57SOL     OW  169   1.815   2.448   2.670 -0.2079  0.5440 -0.6930
   57SOL    HW1  170   1.874   2.430   2.587  1.6363  0.5868  0.6442
   57SOL    HW2  171   1.718   2.486   2.656  0.7957  3.0863 -1.9938
   58SOL     OW  172   0.650   0.408   1.118  0.4474 -0.8709 -0.0205
   58SOL    HW1  173   0.593   0.486   1.078  0.5039 -2.8609  0.9041
   58SOL    HW2  174   0.592   0.330   1.161 -4.5629  1.7257  1.9248
   59SOL     OW  175   0.433   2.387   2.737 -0.4575 -0.6805  0.5406
   59SOL    HW1  176   0.420   2.289   2.715  0.0291  0.1722  0.2590
   59SOL    HW2  177   0.516   2.399   2.801  0.4598  0.3458 -2.3526
   60SOL     OW  178   2.291   2.106   2.257 -0.3151 -0.3864 -0.1686
   60SOL    HW1  179   2.346   2.164   2.188 -1.0703  0.0357 -0.7677
   60SOL    HW2  180   2.319   2.137   2.352  1.1958  0.8904 -0.8954
   61SOL     OW  181   1.363   0.648   0.505 -0.4336 -0.1693  0.3429
   61SOL    HW1  182   1.282   0.705   0.533 -1.1447  1.3740 -0.5917
   61SOL    HW2  183   1.362   0.631   0.403  2.8966  0.0924 -2.2888
   62SOL     OW  184   2.660   1.805   3.005  0.5610 -0.5457 -0.6177
   62SOL    HW1  185   2.633   1.712   3.047 -1.1461  2.0002  0.1965
   62SOL    HW2  186   2.738   1.799   2.942  1.2856  2.0408 -0.5241
   63SOL     OW  187   0.506   0.889   0.168  0.6710  0.5810  0.0504
   63SOL    HW1  188   0.478   0.986   0.135  0.8043 -0.0073 -1.3189
   63SOL    HW2  189   0.600   0.880   0.213  0.1630  0.2305 -0.7622
   64SOL     OW  190   0.071   0.520   2.537 -0.0445  0.4199  0.2790
   64SOL    HW1  191  -0.003   0.581   2.575 -0.2985 -0.9728 -1.3454
   64SOL    HW2  192   0.129   0.561   2.467 -1.9820 -4.1320  3.5190
   65SOL     OW  193   0.177   1.481   0.627  0.2207  0.4451 -0.0752
   65SOL    HW1  194   0.232   1.551   0.680  0.7390  2.5682 -1.1614
   65SOL    HW2  195   0.243   1.414   0.578 -0.3500 -4.7117 -1.0336
   66SOL     OW  196   2.523   0.428   0.643 -0.2848 -0.0232 -0.2319
   66SOL    HW1  197   2.474   0.497   0.706  1.0922 -0.8893  0.4348
   66SOL    HW2  198   2.483   0.336   0.652 -0.3195  1.1433 -2.6965
   67SOL     OW  199   0.506   2.484   1.425  0.2476 -0.3771  0.3674
   67SOL    HW1  200   0.539   2.495   1.522 -0.1063  0.9707 -0.0413
   67SOL    HW2  201   0.490   2.381   1.402  2.5799 -1.6731  2.1255
   68SOL     OW  202   1.009   1.089   2.467 -0.3799  0.2060 -0.6221
   68SOL    HW1  203   1.067   1.020   2.416 -0.2380 -1.4022 -1.8354
   68SOL    HW2  204   0.942   1.137   2.403 -0.9271 -3.0138 -5.0582
   69SOL     OW  205   0.746   2.755   2.162  0.4002  0.1546  0.2290
   69SOL    HW1  206   0.793   2.667   2.179 -2.0218 -2.2485 -0.3501
   69SOL    HW2  207   0.641   2.750   2.196 -3.9240  3.1282  3.2445
   70SOL     OW  208   0.647   0.281   2.740 -0.1888  0.4053 -0.5512
   70SOL    HW1  209   0.709   0.322   2.809  1.6818  0.3359  1.2502
   70SOL    HW2  210   0.602   0.191   2.767  0.3288 -2.5732 -0.0754
   71SOL     OW  211   1.128   1.801   0.331  0.2141  0.1879 -0.2418
   71SOL    HW1  212   1.069   1.717   0.351 -2.9954 -0.1989  0.5316
   71SOL    HW2  213   1.113   1.823   0.228 -2.8204 -1.2412 -0.8341
   72SOL     OW  214   1.793   0.150   2.061 -0.4781 -0.6699 -0.1819
   72SOL    HW1  215   1.851   0.171   1.979 -1.0790  0.3636  3.3160
   72SOL    HW2  216   1.807   0.056   2.101 -1.4573 -0.5759  1.6154
   73SOL     OW  217   2.741   2.190   2.525  0.0004 -0.5914 -0.2363
   73SOL    HW1  218   2.686   2.094   2.519 -2.0627 -2.5758 -0.2244
   73SOL    HW2  219   2.803   2.186   2.607 -0.0428 -1.0027  1.7320
   74SOL     OW  220   2.729   2.977   2.002 -0.4706  0.2967 -0.2436
   74SOL    HW1  221   2.649   2.973   2.068  0.6823  1.0412 -4.0000
   74SOL    HW2  222   2.823   2.980   2.052 -0.6711 -0.3111 -0.6635
   75SOL     OW  223   0.905   0.761   1.024 -0.3210  0.2865 -0.5845
   75SOL    HW1  224   0.825   0.814   0.990  2.4046 -2.2867  0.4311
   75SOL    HW2  225   0.940   0.797   1.121 -2.6594  1.2562  0.8993
   76SOL     OW  226   1.737   1.228   2.574 -0.6398 -0.3087 -0.2072
   76SOL    HW1  227   1.644   1.202   2.601  2.9299 -0.7262  2.3392
   76SOL    HW2  228   1.763   1.322   2.613 -1.1362  2.3296  0.0771
   77SOL     OW  229   2.910   0.963   0.974 -0.4151 -0.3454 -0.3965
   77SOL    HW1  230   2.930   0.860   0.963  0.9833 -0.8450 -0.6965
   77SOL    HW2  231   2.964   0.990   1.056 -1.2572  0.0333 -0.1138
   78SOL     OW  232   2.017   1.422   1.504  0.7301 -0.0297  0.3266
   78SOL    HW1  233   2.103   1.452   1.451  3.4780  2.1969  1.0376
   78SOL    HW2  234   1.929   1.420   1.444 -0.8114  0.4173 -0.2740
   79SOL     OW  235   0.582   1.344   0.821  0.0380 -0.2511 -0.1549
   79SOL    HW1  236   0.499   1.396   0.850  0.9644  0.9627 -0.6288
   79SOL    HW2  237   0.579   1.312   0.723  0.6053  1.1554  1.3675
   80SOL     OW  238   0.661   0.488   1.587  0.3424  0.1123  0.0019
   80SOL    HW1  239   0.696   0.566   1.524  0.6118 -0.0974  0.3611
   80SOL    HW2  240   0.732   0.413   1.601 -0.5031 -0.7607  1.2163
   81SOL     OW  241   1.020   1.372   2.604  0.7396  0.2128 -0.2691
   81SOL    HW1  242   0.978   1.277   2.625 -1.3501  1.9723  2.3431
   81SOL    HW2  243   0.963   1.420   2.537  1.1797  0.3615 -0.6151
   82SOL     OW  244   0.983   2.957   1.519  0.3702  0.0798 -0.6032
   82SOL    HW1  245   1.026   2.968   1.428 -2.0478  1.1209 -1.3999
   82SOL    HW2  246   0.885   2.931   1.518  0.3139 -4.3845  1.3023
   83SOL     OW  247   2.673   2.463   0.799 -0.2361  0.5582  0.9164
   83SOL    HW1  248   2.590   2.418   0.754  0.3374 -0.6593  0.4897
   83SOL    HW2  249   2.675   2.571   0.778 -2.8743  2.4500  0.2270
   84SOL     OW  250   0.723   3.083   2.374  0.4625 -0.3033 -0.0590
   84SOL    HW1  251   0.632   3.037   2.401 -0.4039  1.2935 -2.0738
   84SOL    HW2  252   0.799   3.057   2.435 -0.2161 -1.7761 -3.1462
   85SOL     OW  253   0.408   1.662   1.541  0.0650 -0.5733  0.2695
   85SOL    HW1  254   0.338   1.732   1.502 -1.3442 -1.2617 -0.9838
   85SOL    HW2  255   0.420   1.655   1.645 -0.9655 -0.8901  2.9639
   86SOL     OW  256   0.363   0.976   1.516 -0.0779 -0.4080 -0.0595
   86SOL    HW1  257   0.340   0.913   1.434 -1.9803 -0.0183 -0.4465
   86SOL    HW2  258   0.356   0.930   1.611 -0.7323  0.7797  0.8256
   87SOL     OW  259   1.525   0.643   0.267 -0.1246 -0.1717  0.5295
   87SOL    HW1  260   1.612   0.701   0.267  0.4604 -1.3394 -0.8418
   87SOL    HW2  261   1.507   0.606   0.169 -0.2769  1.8654 -1.0169
   88SOL     OW  262   1.566   1.330   0.197 -0.4390  0.5095  0.4135
   88SOL    HW1  263   1.605   1.254   0.255  2.1686 -0.6618 -1.5609
   88SOL    HW2  264   1.464   1.340   0.214  0.1753  2.3032 -1.9972
   89SOL     OW  265   0.038   0.444   0.565  0.5039 -0.8006  0.5605
   89SOL    HW1  266   0.089   0.358   0.588  1.0036 -1.8044  0.8554
   89SOL    HW2  267  -0.066   0.425   0.540 -1.4439  0.2711 -0.7700
   90SOL     OW  268   0.941   1.604   3.018 -0.5704 -0.4805  0.1703
   90SOL    HW1  269   0.855   1.580   3.072 -0.6455 -1.1798  0.3173
   90SOL    HW2  270   0.927   1.642   2.923  0.6665 -1.2099  1.7173
   91SOL     OW  271   1.280   1.466   1.794  0.3169 -0.3437  0.4564
   91SOL    HW1  272   1.287   1.530   1.872  0.5414 -1.8930 -1.1589
   91SOL    HW2  273   1.375   1.452   1.748 -0.6637  0.6450 -0.8262
   92SOL     OW  274   3.056   1.048   1.227 -0.2028  0.5130 -0.0626
   92SOL    HW1  275   3.125   1.103   1.174  0.9128 -0.2261  1.2138
   92SOL    HW2  276   3.082   1.012   1.324 -0.0458  0.6123  0.3591
   93SOL     OW  277   3.089   2.754   0.073  0.0983  0.1766  0.0771
   93SOL    HW1  278   3.040   2.756  -0.017  0.3738 -0.4857  2.2029
   93SOL    HW2  279   3.149   2.676   0.090 -1.4430  0.6252 -3.6080
   94SOL     OW  280   1.521   1.416   1.695 -0.2514  0.3230 -0.2772
   94SOL    HW1  281   1.546   1.323   1.735 -0.7618 -0.4577  2.7099
   94SOL    HW2  282   1.594   1.484   1.724 -0.2035 -0.9005 -0.1601
   95SOL     OW  283   1.307   2.518   2.978  0.3938  0.7191 -0.2397
   95SOL    HW1  284   1.228   2.501   3.040 -0.1698 -0.3786  0.4384
   95SOL    HW2  285   1.348   2.434   2.935  1.0452  0.6119 -0.4526
   96SOL     OW  286   0.582   2.017   1.200 -0.4896 -0.0697  1.1231
   96SOL    HW1  287   0.500   2.058   1.159 -0.7385  1.1237  4.7742
   96SOL    HW2  288   0.574   1.917   1.219  4.1454 -1.7420 -2.7392
   97SOL     OW  289   0.374   1.535   2.521 -0.1041  0.4597 -0.4558
   97SOL    HW1  290   0.274   1.529   2.553  0.5300 -0.7328  0.0197
   97SOL    HW2  291   0.421   1.607   2.577 -0.3656 -0.2128 -2.7871
   98SOL     OW  292   1.975   1.617   1.271 -0.3174 -0.0928 -0.5165
   98SOL    HW1  293   1.884   1.592   1.239  0.8346 -0.5493  4.3957
   98SOL    HW2  294   2.036   1.531   1.271 -1.0825  0.3064 -0.8635
   99SOL     OW  295   2.479   2.108   1.390 -0.0802 -0.8361  0.9324
   99SOL    HW1  296   2.521   2.108   1.486  1.4931 -1.1871  0.4852
   99SOL    HW2  297   2.457   2.008   1.360 -2.0252 -2.2021  2.4441
  100SOL     OW  298   2.302   0.379   2.056 -0.3959  0.0399  0.3224
  100SOL    HW1  299   2.249   0.344   2.140 -1.6989 -2.3620  3.9049
  100SOL    HW2  300   2.405   0.400   2.077  2.5607 -1.8161 -1.0290
  101SOL     OW  301   0.397   1.491   0.277  0.6410  0.2636  0.2503
  101SOL    HW1  302   0.472   1.499   0.350  2.8562 -1.2317  1.5504
  101SOL    HW2  303   0.411   1.547   0.192  0.5296  0.0171 -1.8840
  102SOL     OW  304   2.311   1.038   0.819  0.2638 -0.1827  0.4321
  102SOL    HW1  305   2.217   1.000   0.815  1.3130 -0.9347  1.2801
  102SOL    HW2  306   2.345   1.085   0.727 -1.0513 -0.6514 -2.7687
  103SOL     OW  307   2.305   0.048   0.400  0.4229 -0.2053  0.0697
  103SOL    HW1  308   2.377   0.117   0.363 -1.7786  2.7143  1.0017
  103SOL    HW2  309   2.346   0.003   0.481  0.1194  1.0159 -0.2684
  104SOL     OW  310   0.083   1.801   2.120  1.0560 -0.9575  0.3924
  104SOL    HW1  311   0.124   1.760   2.036 -2.0694 -1.8448  0.4072
  104SOL    HW2  312  -0.023   1.801   2.120 -1.2416 -3.5455 -1.2874
  105SOL     OW  313   1.244   1.990   0.787  0.1283  0.3592  0.1201
  105SOL    HW1  314   1.163   2.016   0.728 -0.3490 -0.6774  0.7014
  105SOL    HW2  315   1.283   1.895   0.773  2.6243  1.4141  0.0779
  106SOL     OW  316   2.112   0.514   1.385  0.4413  0.6023 -0.0816
  106SOL    HW1  317   2.075   0.422   1.414  1.0049  1.7378 -0.0538
  106SOL    HW2  318   2.078   0.584   1.451 -0.1639  1.1194 -1.9600
  107SOL     OW  319   1.810   3.001   1.090  0.0064 -0.1697  0.0905
  107SOL    HW1  320   1.844   3.088   1.135  1.9862 -0.0743  1.2172
  107SOL    HW2  321   1.735   2.957   1.152  0.5501  0.0464  0.9429
  108SOL     OW  322   0.816   2.730   1.272  0.3825 -0.0521 -0.6706
  108SOL    HW1  323   0.777   2.777   1.356 -1.1842  2.4948 -0.4799
  108SOL    HW2  324   0.920   2.733   1.266  2.9582  1.8944 -1.7823
  109SOL     OW  325   2.197   0.117   0.795  0.8453  0.6312 -0.3106
  109SOL    HW1  326   2.105   0.084   0.751 -0.1803 -2.2527  0.2526
  109SOL    HW2  327   2.203   0.087   0.894  0.9524  0.4360  1.8392
  110SOL     OW  328   0.442   2.802   2.683 -0.2891 -0.4750 -0.1028
  110SOL    HW1  329   0.476   2.862   2.601  1.7449 -0.5167  1.7379
  110SOL    HW2  330   0.521   2.747   2.728 -0.8293  1.2906  2.6575
  111SOL     OW  331   1.320   0.520   2.249  0.6643 -0.1659 -0.0989
  111SOL    HW1  332   1.238   0.549   2.302  1.3144 -2.8316  1.2342
  111SOL    HW2  333   1.374   0.451   2.306 -1.0042 -0.7784 -1.5167
  112SOL     OW  334   1.750   0.521   1.442  0.0752  0.5105  0.4799
  112SOL    HW1  335   1.752   0.519   1.338 -2.0964 -0.9997  1.3623
  112SOL    HW2  336   1.728   0.428   1.486 -1.1728 -0.6289  2.0138
  113SOL     OW  337   2.292   1.629   1.733 -0.6630 -0.2200  0.2473
  113SOL    HW1  338   2.338   1.537   1.701  1.5260 -1.7779  1.8434
  113SOL    HW2  339   2.339   1.661   1.818  1.4239 -0.7384 -2.1638
  114SOL     OW  340   0.302   0.540   1.291 -0.0144  0.1258 -0.6202
  114SOL    HW1  341   0.325   0.644   1.275  1.1902 -0.5042  1.9103
  114SOL    HW2  342   0.268   0.489   1.207  0.3629  1.3165 -0.5763
  115SOL     OW  343   2.613   1.592   1.204  0.0418  1.1569  0.0441
  115SOL    HW1  344   2.658   1.507   1.238 -0.7249  1.7373 -0.4126
  115SOL    HW2  345   2.673   1.646   1.136  0.7533  2.7627 -1.9291
  116SOL     OW  346   1.816   1.041   0.783  0.3443  0.2581 -0.8697
  116SOL    HW1  347   1.725   0.994   0.755 -1.9035 -0.9246 -2.1257
  116SOL    HW2  348   1.794   1.138   0.813  0.9215  0.0459  0.3521
  117SOL     OW  349   1.116   0.341   0.710  0.3918 -0.0152 -0.4593
  117SOL    HW1  350   1.114   0.296   0.802 -0.3934  1.3737 -1.0886
  117SOL    HW2  351   1.141   0.443   0.717 -0.1402  1.8053  0.8083
  118SOL     OW  352   1.107   1.122   1.119 -0.3896 -0.1796 -0.7077
  118SOL    HW1  353   1.074   1.032   1.152  3.1557  1.3826 -2.6485
  118SOL    HW2  354   1.088   1.203   1.186  0.3900  2.9212  1.1632
  119SOL     OW  355   1.825   1.601   2.120  0.3666  0.4376  0.4121
  119SOL    HW1  356   1.807   1.702   2.133 -0.1076 -4.5304 -1.0901
  119SOL    HW2  357   1.924   1.581   2.103  0.3211 -3.0459 -1.9711
  120SOL     OW  358   2.969   2.814   0.296 -0.1025  0.2159 -0.1749
  120SOL    HW1  359   2.989   2.814   0.189  0.3891  0.9430 -0.6794
  120SOL    HW2  360   2.960   2.722   0.337 -1.9819  1.8540  0.1662
  121SOL     OW  361   1.984   0.718   2.236 -0.0125  0.0148  0.5616
  121SOL    HW1  362   1.961   0.757   2.143 -3.3591  1.0916 -1.1360
  121SOL    HW2  363   2.010   0.619   2.227  0.0588  1.9198 -0.6259
  122SOL     OW  364   2.716   2.646   1.301 -0.1038  0.5365 -0.6680
  122SOL    HW1  365   2.735   2.593   1.211 -0.5378  2.3721  0.9033
  122SOL    HW2  366   2.638   2.598   1.357 -2.5560 -2.8512  1.2953
  123SOL     OW  367   1.740   0.076   1.717  0.2597  0.1333  0.1125
  123SOL    HW1  368   1.769   0.005   1.642 -2.2917  1.2610 -2.0996
  123SOL    HW2  369   1.822   0.106   1.777 -1.6360 -1.2501 -0.9800
  124SOL     OW  370   0.113   0.494   1.085  0.0734 -0.0693 -0.1292
  124SOL    HW1  371   0.087   0.575   1.144 -1.3194 -3.4462 -2.8474
  124SOL    HW2  372   0.064   0.495   0.999  0.5138 -0.5334  3.2146
  125SOL     OW  373   0.892   1.744   0.638 -0.7145 -0.2226 -0.4598
  125SOL    HW1  374   0.986   1.712   0.607 -3.4451  0.4512 -0.5057
  125SOL    HW2  375   0.898   1.796   0.725  0.2433 -1.6055  0.6479
  126SOL     OW  376   1.918   2.366   2.417 -0.1930  0.2326  0.0626
  126SOL    HW1  377   1.973   2.312   2.346 -0.3680  1.7634  0.2468
  126SOL    HW2  378   1.824   2.325   2.432  1.3632 -2.5361  1.9800
  127SOL     OW  379   0.787   0.958   0.251  0.0772 -0.5103  0.5033
  127SOL    HW1  380   0.808   0.996   0.345  0.2964 -0.0714 -0.4639
  127SOL    HW2  381   0.842   0.870   0.231 -2.5919 -0.0655 -0.2548
  128SOL     OW  382   0.953   0.179   1.399  0.5890  0.2763 -0.4691
  128SOL    HW1  383   0.950   0.276   1.355 -0.6649  3.7487  0.6880
  128SOL    HW2  384   0.866   0.126   1.386 -0.6750  0.2097 -2.0907
  129SOL     OW  385   1.884   0.675   1.860 -0.6234  0.5532  0.9045
  129SOL    HW1  386   1.908   0.677   1.759 -0.6157 -3.8665 -3.1245
  129SOL    HW2  387   1.899   0.765   1.917 -0.9258 -0.8381  1.7844
  130SOL     OW  388   1.307   2.181   1.009 -0.1905  0.5898 -0.3013
  130SOL    HW1  389   1.284   2.125   0.926 -0.7568  2.8346 -0.6983
  130SOL    HW2  390   1.374   2.260   0.992  4.4863  0.4429 -1.4446
  131SOL     OW  391   0.023   1.511   1.396  0.4659  0.5225  0.3447
  131SOL    HW1  392  -0.033   1.428   1.364  0.2618 -1.5772  0.4356
  131SOL    HW2  393   0.124   1.485   1.391  0.3479  0.4591  0.0602
  132SOL     OW  394   2.000   2.405   0.535 -0.3574 -0.4195 -0.0433
  132SOL    HW1  395   1.902   2.401   0.504  0.0114 -0.9986  0.9161
  132SOL    HW2  396   2.009   2.353   0.621 -3.1217 -2.8050 -3.2410
  133SOL     OW  397   1.873   2.274   2.874  0.4582  0.1409 -0.1256
  133SOL    HW1  398   1.935   2.333   2.925 -0.0746 -0.0247 -0.0515
  133SOL    HW2  399   1.827   2.334   2.799 -1.1495  2.6998 -0.3973
  134SOL     OW  400   2.735   2.348   1.626 -0.1069 -0.1877 -0.1000
  134SOL    HW1  401   2.688   2.331   1.716 -1.0178  1.3934 -0.3172
  134SOL    HW2  402   2.796   2.431   1.626  0.0942 -0.0831  3.2665
  135SOL     OW  403   0.723   1.548   2.588 -0.0014  0.2602 -0.6222
  135SOL    HW1  404   0.696   1.462   2.633  1.2546  1.8329  0.9104
  135SOL    HW2  405   0.783   1.524   2.503 -3.8371  1.6800  4.5969
  136SOL     OW  406   1.196   2.037   0.438  0.4189  0.3825 -0.3875
  136SOL    HW1  407   1.134   2.085   0.506  0.4403  0.0356  0.2812
  136SOL    HW2  408   1.169   1.939   0.409  1.2151  1.9031  1.0862
  137SOL     OW  409   0.417   1.109   2.116  0.2220 -0.0174 -0.2063
  137SOL    HW1  410   0.323   1.124   2.147  1.9506 -0.1515 -0.3751
  137SOL    HW2  411   0.463   1.037   2.175 -0.7040  0.2286  0.3844
  138SOL     OW  412   2.433   1.492   0.194 -0.1556  0.2683  0.1132
  138SOL    HW1  413   2.333   1.490   0.170  0.9810  0.8504  2.4215
  138SOL    HW2  414   2.451   1.434   0.276  0.3061 -0.1290 -1.3103
  139SOL     OW  415   1.816   2.651   1.218  0.1570 -0.0603  0.4070
  139SOL    HW1  416   1.725   2.628   1.178 -0.6192  0.6107  0.0178
  139SOL    HW2  417   1.858   2.577   1.281  2.2892 -4.1394  0.4291
  140SOL     OW  418   2.995   2.969   2.540  0.7093 -0.0938  1.1021
  140SOL    HW1  419   3.029   2.875   2.572  2.0874  1.9592  4.1093
  140SOL    HW2  420   3.063   3.049   2.548  2.4892  1.2936  0.6133
  141SOL     OW  421   1.213   1.681   1.606 -0.5109  0.1781  0.0413
  141SOL    HW1  422   1.130   1.725   1.649  1.6292  0.0125  0.5502
  141SOL    HW2  423   1.239   1.595   1.654  0.6872  3.3261 -0.7767
  142SOL     OW  424   1.602   0.633   2.215 -0.3521 -0.1978 -0.5640
  142SOL    HW1  425   1.627   0.592   2.117 -1.2936  1.0194 -2.9562
  142SOL    HW2  426   1.500   0.621   2.232  1.5041 -0.6992 -0.8562
  143SOL     OW  427   2.729   0.873   0.506  0.2347 -0.1805  0.3953
  143SOL    HW1  428   2.787   0.887   0.422  1.0880  2.9697  2.4690
  143SOL    HW2  429   2.759   0.923   0.593 -0.6546 -1.1545 -0.8756
  144SOL     OW  430   2.995   1.268   1.371  0.1273 -0.7159  0.3376
  144SOL    HW1  431   2.960   1.245   1.467 -1.3378  0.4980  0.3692
  144SOL    HW2  432   3.014   1.186   1.309  0.4619 -0.5069 -0.0580
  145SOL     OW  433   1.021   1.830   0.072 -0.2457 -1.0194 -0.0594
  145SOL    HW1  434   1.027   1.909   0.001  1.9239  1.3273 -0.5769
  145SOL    HW2  435   0.985   1.744   0.027 -2.2839  1.1611 -2.0782
  146SOL     OW  436   2.434   0.638   1.553 -0.6439  0.5241  0.4334
  146SOL    HW1  437   2.418   0.551   1.496 -0.9130  0.0379 -0.2702
  146SOL    HW2  438   2.375   0.719   1.538  1.0041 -3.3237  2.3911
  147SOL     OW  439   1.083   2.483   0.581  0.0433 -0.3367 -0.1835
  147SOL    HW1  440   1.059   2.538   0.496  2.6995  1.0438  2.3972
  147SOL    HW2  441   1.174   2.425   0.569  1.3650  0.1017 -1.9858
  148SOL     OW  442   1.641   1.476   3.061  0.0917  0.1839 -0.1040
  148SOL    HW1  443   1.672   1.396   2.997  1.1963 -1.4814  3.4918
  148SOL    HW2  444   1.608   1.442   3.154  2.8094 -1.7957  0.3596
  149SOL     OW  445   0.672   1.422   1.926  0.2536  0.4448 -0.2241
  149SOL    HW1  446   0.587   1.404   1.982  1.1794  0.5147 -0.4556
  149SOL    HW2  447   0.696   1.344   1.868 -1.0790  2.0784  0.1646
  150SOL     OW  448   2.979   1.247   0.921  0.1636 -0.1095  0.3831
  150SOL    HW1  449   3.036   1.273   1.004  2.9476 -1.6615 -0.5375
  150SOL    HW2  450   2.952   1.146   0.917  0.4433 -0.2981 -1.0399
  151SOL     OW  451   0.180   0.774   2.121 -0.2046  0.0991 -0.4997
  151SOL    HW1  452   0.168   0.853   2.047 -0.8738 -0.6383 -2.2073
  151SOL    HW2  453   0.264   0.710   2.101  1.0820  1.1334 -1.4976
  152SOL     OW  454   1.357   1.721   1.256 -0.3486 -0.2477  0.2253
  152SOL    HW1  455   1.360   1.780   1.340  1.6538  0.6660  0.2392
  152SOL    HW2  456   1.266   1.727   1.202  1.8751  1.9584 -1.4136
  153SOL     OW  457   0.029   1.544   0.159 -0.3505  0.0293 -0.9304
  153SOL    HW1  458   0.040   1.441   0.159 -0.0893 -2.6652  0.2688
  153SOL    HW2  459   0.052   1.587   0.254 -0.8113 -1.5362  0.5326
  154SOL     OW  460   2.362   1.850   2.822 -0.0137  0.1028 -0.1557
  154SOL    HW1  461   2.382   1.756   2.857 -0.9691  2.3117  1.3230
  154SOL    HW2  462   2.440   1.899   2.781 -1.4807 -0.9576  1.5035
  155SOL     OW  463   2.488   1.273   0.350 -0.5599 -0.1314  1.1506
  155SOL    HW1  464   2.576   1.247   0.293  1.8776 -1.0410 -0.3834
  155SOL    HW2  465   2.397   1.238   0.308 -0.0405 -0.8359 -0.9982
  156SOL     OW  466   2.547   0.941   0.869  0.3101 -0.3725  0.1322
  156SOL    HW1  467   2.449   0.972   0.864  2.2769  1.5318 -0.5655
  156SOL    HW2  468   2.621   1.010   0.840  2.5684 -0.8713 -2.6218
  157SOL     OW  469   1.189   2.978   2.966  0.2414  0.3442 -0.4281
  157SOL    HW1  470   1.251   2.956   2.887 -1.3497 -1.6236  1.2138
  157SOL    HW2  471   1.212   3.064   3.021 -1.2338 -1.7046  0.4429
  158SOL     OW  472   1.028   1.841   1.981 -0.1847  0.1699 -0.5688
  158SOL    HW1  473   1.052   1.937   1.953  0.0788 -0.0934 -1.8529
  158SOL    HW2  474   0.952   1.826   2.054 -0.8212  2.9042  0.2476
  159SOL     OW  475   0.863   0.436   1.304  0.2162  0.3354  0.2173
  159SOL    HW1  476   0.839   0.531   1.339 -1.4888 -0.2101  1.5509
  159SOL    HW2  477   0.795   0.399   1.235 -0.0938  0.0735  2.3174
  160SOL     OW  478   1.465   2.482   1.636 -0.3294  0.0443  0.1011
  160SOL    HW1  479   1.470   2.569   1.576 -1.7447  0.9048 -2.2432
  160SOL    HW2  480   1.546   2.418   1.604  0.9425  1.6441  0.5547
  161SOL     OW  481   0.187   2.898   0.332  0.0624 -0.2991 -0.5071
  161SOL    HW1  482   0.122   2.846   0.388 -1.4257  5.1050 -4.0845
  161SOL    HW2  483   0.131   2.975   0.279 -2.8184 -1.8950 -0.8521
  162SOL     OW  484   2.598   1.916   0.495 -0.2344  0.1358 -1.0091
  162SOL    HW1  485   2.596   1.871   0.401 -1.2727 -1.6785  0.5177
  162SOL    HW2  486   2.566   1.859   0.572 -0.9046 -2.3078 -2.6838
  163SOL     OW  487   1.956   2.670   0.705  0.2054  0.2233  0.1363
  163SOL    HW1  488   1.917   2.709   0.614  0.2552 -0.0124  0.5107
  163SOL    HW2  489   2.031   2.600   0.689 -0.7919 -0.9071 -1.2213
  164SOL     OW  490   3.048   0.281   1.257  0.1153 -0.1303  0.7432
  164SOL    HW1  491   3.108   0.353   1.214 -0.3931 -0.7671  3.4264
  164SOL    HW2  492   3.084   0.249   1.350 -1.1399 -1.4706 -1.2958
  165SOL     OW  493   0.968   1.431   0.678 -0.1735 -0.6480 -0.4154
  165SOL    HW1  494   0.902   1.473   0.744 -0.3824  1.9429  0.5640
  165SOL    HW2  495   1.014   1.497   0.618  1.4868 -0.7784  1.5319
  166SOL     OW  496   1.475   1.063   1.755  0.6730  0.0538 -0.2914
  166SOL    HW1  497   1.418   0.991   1.805  0.5842 -0.4115 -0.1896
  166SOL    HW2  498   1.546   1.104   1.819 -3.2221 -2.3413 -0.4349
  167SOL     OW  499   0.832   1.923   1.539  0.0757 -0.1862  0.3564
  167SOL    HW1  500   0.796   1.984   1.616  1.0567  0.4218 -0.9106
  167SOL    HW2  501   0.785   1.833   1.533 -2.5274  0.7448  1.7425
  168SOL     OW  502   1.617   2.385   0.163  0.2684  0.0045 -0.2598
  168SOL    HW1  503   1.691   2.429   0.106  0.9994  0.2194  1.1825
  168SOL    HW2  504   1.642   2.293   0.204 -1.8809 -3.5926 -0.1810
  169SOL     OW  505   0.230   2.602   2.213  0.5031 -0.0056 -0.1999
  169SOL    HW1  506   0.256   2.573   2.119 -1.9596  1.2171  2.3090
  169SOL    HW2  507   0.227   2.527   2.285  4.7595  1.5319 -0.2875
  170SOL     OW  508   1.237   0.291   1.918 -0.5552  1.0153  0.5112
  170SOL    HW1  509   1.269   0.241   2.003  0.4580 -1.0280 -1.0419
  170SOL    HW2  510   1.212   0.221   1.842  0.7773 -0.4996 -0.7467
  171SOL     OW  511   0.218   0.759   2.416  0.0876  0.0384 -0.3487
  171SOL    HW1  512   0.142   0.801   2.482 -0.3212  0.6627  0.2025
  171SOL    HW2  513   0.197   0.772   2.314 -2.2519  3.8245  2.1990
  172SOL     OW  514   0.883   1.150   2.967  0.5266 -0.0027  0.7437
  172SOL    HW1  515   0.973   1.196   2.988 -1.0912 -1.4069  0.3177
  172SOL    HW2  516   0.881   1.118   2.869  1.1868 -0.5127  3.3993
  173SOL     OW  517   0.643   2.682   0.133 -0.0553  0.3627 -0.2138
  173SOL    HW1  518   0.622   2.774   0.090  0.0699  1.9931  0.1646
  173SOL    HW2  519   0.558   2.634   0.157  2.0353  1.5372 -1.0202
  174SOL     OW  520   1.395   2.813   1.047  0.1000  0.1877  0.2535
  174SOL    HW1  521   1.372   2.908   1.010 -1.0769  2.3082  0.5672
  174SOL    HW2  522   1.333   2.739   1.015  0.4280 -0.4988  1.4510
  175SOL     OW  523   0.456   0.024   1.664  0.1681  0.2747 -0.2293
  175SOL    HW1  524   0.495   0.074   1.748 -0.1838 -2.7553 -0.7234
  175SOL    HW2  525   0.413   0.084   1.591  0.8592  0.8911  0.8965
  176SOL     OW  526   2.505   0.426   3.066  0.5368  0.0284 -0.2802
  176SOL    HW1  527   2.530   0.490   3.144 -3.1092 -3.2248  2.9276
  176SOL    HW2  528   2.432   0.361   3.101 -1.5877  0.3824  4.1900
  177SOL     OW  529   0.365   0.314   0.942 -0.4596 -0.7005  0.0590
  177SOL    HW1  530   0.424   0.243   0.979 -0.0902  0.9001 -1.7470
  177SOL    HW2  531   0.286   0.345   0.995  0.0232 -1.3250 -0.6111
  178SOL     OW  532   0.049   2.716   2.575 -0.5137  0.2036 -0.1027
  178SOL    HW1  533  -0.029   2.661   2.617  1.9674 -0.0340  0.4034
  178SOL    HW2  534   0.131   2.738   2.639  0.6266  0.0584  0.6579
  179SOL     OW  535   0.014   1.716   1.169 -0.5337  0.0716  0.3288
  179SOL    HW1  536  -0.052   1.796   1.165 -0.2060 -2.8161  0.6036
  179SOL    HW2  537   0.001   1.664   1.252  2.3405 -2.2816 -0.4213
  180SOL     OW  538   0.224   1.210   1.818  0.4413 -0.4821  0.2823
  180SOL    HW1  539   0.318   1.227   1.788 -1.0150  1.3359 -2.8133
  180SOL    HW2  540   0.193   1.262   1.904  2.7073 -0.5348 -0.8467
  181SOL     OW  541   3.044   1.844   2.560  0.2999  0.1594 -0.0860
  181SOL    HW1  542   3.098   1.912   2.502 -0.4489 -1.8120 -0.5107
  181SOL    HW2  543   2.945   1.848   2.520 -4.4441  2.3809 -6.5999
  182SOL     OW  544   2.324   1.263   1.147 -0.0424 -0.2101 -0.1652
  182SOL    HW1  545   2.235   1.224   1.114 -0.1703 -3.1167 -0.1599
  182SOL    HW2  546   2.326   1.369   1.148 -0.9058  2.4231  0.1531
  183SOL     OW  547   1.492   2.290   2.515 -0.8951 -0.1044 -0.3798
  183SOL    HW1  548   1.422   2.211   2.516  0.2798  0.3841  0.0595
  183SOL    HW2  549   1.591   2.247   2.491  3.0772 -2.3455 -1.7157
  184SOL     OW  550   2.068   0.940   0.803 -0.5041  0.3892 -0.2928
  184SOL    HW1  551   1.978   0.988   0.777 -0.6997  0.7345 -0.2118
  184SOL    HW2  552   2.052   0.846   0.851 -2.3893 -0.6872  0.3754
  185SOL     OW  553   1.621   2.672   2.093 -0.5598  0.2864 -0.2713
  185SOL    HW1  554   1.594   2.771   2.065  0.2651 -1.2512  0.2782
  185SOL    HW2  555   1.626   2.660   2.197 -4.1137 -2.0934  1.2723
  186SOL     OW  556   0.079   2.209   1.718 -0.5027 -0.0997  0.0831
  186SOL    HW1  557   0.122   2.300   1.713 -0.9083  0.5086 -1.9620
  186SOL    HW2  558   0.150   2.135   1.701  0.0196  3.2644  0.7514
  187SOL     OW  559   1.372   0.723   1.684 -0.0303  0.4269  0.1342
  187SOL    HW1  560   1.434   0.747   1.598  1.4270  1.6874 -0.3723
  187SOL    HW2  561   1.413   0.766   1.769 -1.4159 -2.3043  0.6366
  188SOL     OW  562   2.790   2.785   1.504  0.3705  0.4309 -0.2798
  188SOL    HW1  563   2.769   2.886   1.499  1.4592  0.5674  0.3842
  188SOL    HW2  564   2.750   2.727   1.430  1.6021 -0.7455  0.3845
  189SOL     OW  565   0.856   1.012   1.394  0.3874  0.4145  0.0314
  189SOL    HW1  566   0.918   1.075   1.443 -3.4765  1.8993 -1.0342
  189SOL    HW2  567   0.779   1.063   1.352 -1.5746  1.7212  0.9939
  190SOL     OW  568   1.503   1.819   1.580  0.1792  1.1277  0.5004
  190SOL    HW1  569   1.404   1.816   1.605 -1.8813  1.5041 -1.6039
  190SOL    HW2  570   1.564   1.856   1.658 -2.5831  4.6541  1.0662
  191SOL     OW  571   0.997   0.762   1.560  0.0082  0.0050  0.0223
  191SOL    HW1  572   1.057   0.678   1.544 -1.4434 -0.9716  1.4488
  191SOL    HW2  573   1.059   0.846   1.562  0.3303  0.8080  1.2793
  192SOL     OW  574   1.837   2.313   1.171  0.0257 -0.0471 -0.4838
  192SOL    HW1  575   1.753   2.270   1.131 -2.4305  3.4434  0.3193
  192SOL    HW2  576   1.918   2.326   1.104  1.5331  0.9471 -1.8601
  193SOL     OW  577   0.498   0.576   0.402 -0.0314  0.6897  0.1365
  193SOL    HW1  578   0.541   0.518   0.473 -0.6765  2.8208  1.1941
  193SOL    HW2  579   0.524   0.549   0.303 -0.1441 -1.4476 -2.1326
  194SOL     OW  580   0.299   0.815   1.250 -0.6118 -0.1900  0.6021
  194SOL    HW1  581   0.198   0.787   1.239  1.1962 -2.6903  0.8999
  194SOL    HW2  582   0.322   0.898   1.195 -1.1609 -1.9932 -0.0474
  195SOL     OW  583   0.958   2.928   0.430 -0.0277  0.2826 -0.1155
  195SOL    HW1  584   0.963   2.831   0.402  0.8712 -1.5580 -1.1591
  195SOL    HW2  585   1.050   2.957   0.456  1.1000  1.3505 -2.0314
  196SOL     OW  586   0.289   1.448   1.425  0.0833 -0.2677 -0.1149
  196SOL    HW1  587   0.340   1.529   1.471  1.7211 -0.2144  0.0017
  196SOL    HW2  588   0.278   1.365   1.489  0.1401 -2.4438 -0.6978
  197SOL     OW  589   0.929   2.039   0.209  0.4589  0.7925 -0.3922
  197SOL    HW1  590   0.929   2.023   0.312 -0.2763  2.0458  0.1455
  197SOL    HW2  591   0.955   1.954   0.153  0.7465 -1.4618 -1.1104
  198SOL     OW  592   0.249   1.256   0.270  0.1071 -0.3161  0.4552
  198SOL    HW1  593   0.153   1.263   0.226 -3.3808  1.1965 -0.5619
  198SOL    HW2  594   0.293   1.348   0.288 -1.8633  0.2671  2.5731
  199SOL     OW  595   2.257   0.379   2.510 -0.0306  0.1416  0.3429
  199SOL    HW1  596   2.186   0.331   2.559  0.0978 -0.5071  0.4891
  199SOL    HW2  597   2.354   0.342   2.527 -0.2147  1.8434 -1.7238
  200SOL     OW  598   3.094   2.988   0.713  0.1962  0.0322 -0.2817
  200SOL    HW1  599   3.017   3.032   0.658  2.1606  1.3882  1.4921
  200SOL    HW2  600   3.135   3.047   0.785 -1.5532  1.5491 -2.1445
  201SOL     OW  601   1.141   0.749   0.621 -0.6396  0.0102  0.3969
  201SOL    HW1  602   1.148   0.842   0.670  2.4112 -1.5399  1.9842
  201SOL    HW2  603   1.044   0.730   0.589  0.9682  1.8780  2.8991
  202SOL     OW  604   0.496   1.258   1.732  0.2749 -0.3524  0.0726
  202SOL    HW1  605   0.540   1.254   1.637  0.9995  1.0090  0.0690
  202SOL    HW2  606   0.543   1.194   1.803 -3.6155  1.6116  0.7370
  203SOL     OW  607   0.690   0.195   1.605  0.6575 -0.1561  0.4010
  203SOL    HW1  608   0.652   0.128   1.528 -3.0231  0.5577  0.2258
  203SOL    HW2  609   0.722   0.136   1.684  0.2360  0.4610 -0.1395
  204SOL     OW  610   2.094   1.847   3.025  0.3982  0.3506  0.2325
  204SOL    HW1  611   2.068   1.744   3.006 -0.1833  1.1021 -3.8607
  204SOL    HW2  612   2.067   1.918   2.952 -0.7707 -1.5909  1.0793
  205SOL     OW  613   1.846   1.866   0.071 -0.2807  0.1410 -1.0511
  205SOL    HW1  614   1.941   1.868   0.026  0.2928  0.6565 -4.6270
  205SOL    HW2  615   1.790   1.951   0.046  0.3824 -2.8295 -0.1103
  206SOL     OW  616   2.539   2.815   0.398  0.2515 -0.4399 -0.6724
  206SOL    HW1  617   2.616   2.746   0.405 -1.2902  1.5720 -0.8998
  206SOL    HW2  618   2.562   2.893   0.328 -2.2886 -0.5257  0.0383
  207SOL     OW  619   0.614   1.767   2.890 -0.1773  0.4710  0.0975
  207SOL    HW1  620   0.712   1.753   2.860 -2.6333 -0.9961  1.0905
  207SOL    HW2  621   0.571   1.683   2.925  1.6190  3.0212 -0.5072
  208SOL     OW  622   1.042   1.535   1.451  0.6571  0.2825  0.2690
  208SOL    HW1  623   0.990   1.574   1.364 -1.8319  0.4821 -1.7306
  208SOL    HW2  624   1.132   1.587   1.475  0.1908  0.2608  1.6954
  209SOL     OW  625   0.298   0.955   3.007  0.5280  0.1558 -0.4655
  209SOL    HW1  626   0.331   0.896   2.927 -0.6186 -1.3751 -1.9494
  209SOL    HW2  627   0.296   0.902   3.096  0.3131 -0.9437 -0.7036
  210SOL     OW  628   1.728   0.484   1.171 -0.0070 -0.8500  0.5577
  210SOL    HW1  629   1.662   0.554   1.127  0.2247  1.8391  0.4373
  210SOL    HW2  630   1.826   0.515   1.162 -0.6359  0.9384  2.3955
  211SOL     OW  631   2.140   1.049   1.633 -0.3420 -0.0819 -0.7836
  211SOL    HW1  632   2.187   1.033   1.724  1.7649  0.0958  0.2944
  211SOL    HW2  633   2.189   1.105   1.559 -2.4210 -2.6153  0.9056
  212SOL     OW  634   0.007   0.956   1.480  0.2381 -0.0269  1.0289
  212SOL    HW1  635   0.059   1.034   1.526 -0.7485 -0.7236 -1.8733
  212SOL    HW2  636   0.046   0.865   1.502 -2.7646  0.9101  0.0315
  213SOL     OW  637   2.699   0.343   0.270 -0.4722  0.3756  0.0658
  213SOL    HW1  638   2.771   0.299   0.215 -1.1754 -0.5830  1.0081
  213SOL    HW2  639   2.693   0.440   0.247  1.1407 -3.8516  0.8028
  214SOL     OW  640   2.171   0.261   2.267 -0.1084 -0.2772 -0.3072
  214SOL    HW1  641   2.215   0.298   2.356 -2.5857  2.0393 -1.2160
  214SOL    HW2  642   2.132   0.164   2.277 -0.2355  0.6283 -2.8574
  215SOL     OW  643   1.649   2.261   2.018 -0.1175  0.0311 -0.7250
  215SOL    HW1  644   1.750   2.280   2.009 -2.0595 -0.5670 -3.2483
  215SOL    HW2  645   1.597   2.315   2.096 -1.3619 -0.7105 -1.1568
  216SOL     OW  646   2.203   0.532   0.669  0.2258  0.3228 -0.2549
  216SOL    HW1  647   2.177   0.442   0.622 -5.2821  3.9123  0.7119
  216SOL    HW2  648   2.222   0.611   0.599  0.4978  0.6434 -2.2629
  217SOL     OW  649   0.752   2.781   2.450 -0.1016 -0.3504 -1.0906
  217SOL    HW1  650   0.724   2.683   2.459 -2.7170  3.2942 -0.7170
  217SOL    HW2  651   0.776   2.809   2.357 -0.3815  0.0727  2.5682
  218SOL     OW  652   1.917   1.388   0.075 -0.8127 -0.1209 -0.1415
  218SOL    HW1  653   1.831   1.444   0.053 -0.8688  1.1272 -2.6582
  218SOL    HW2  654   1.899   1.316   0.146  2.2800 -1.4884  0.4050
  219SOL     OW  655   2.367   1.266   2.519 -0.4330 -0.5141  0.0331
  219SOL    HW1  656   2.414   1.202   2.449  2.9905 -1.3343 -1.2376
  219SOL    HW2  657   2.361   1.226   2.614 -1.4786  2.0879 -2.6726
  220SOL     OW  658   1.499   1.029   1.260  0.2595 -0.3064 -0.2295
  220SOL    HW1  659   1.599   1.040   1.287  2.3916  2.3933 -2.9202
  220SOL    HW2  660   1.485   1.050   1.161  0.9661  1.1973 -0.7653
  221SOL     OW  661   1.353   1.148   2.205  0.2805 -1.0509  0.3841
  221SOL    HW1  662   1.323   1.212   2.129  0.8594  0.9111  1.3343
  221SOL    HW2  663   1.441   1.097   2.181  1.5844 -0.3634 -1.4369
  222SOL     OW  664   1.230   0.056   1.190 -0.2516 -0.4478  1.0213
  222SOL    HW1  665   1.305   0.051   1.262  2.0323 -2.1944  2.5605
  222SOL    HW2  666   1.174   0.143   1.184  1.6976  1.6584 -0.6243
  223SOL     OW  667   2.945   0.836   2.008 -0.7347  0.7228  0.3211
  223SOL    HW1  668   2.945   0.849   2.110 -0.0825  1.7192  0.9245
  223SOL    HW2  669   2.961   0.928   1.963  0.8044  1.2228  1.0033
  224SOL     OW  670   1.493   0.959   2.807 -0.4412 -0.3812  0.0012
  224SOL    HW1  671   1.517   0.905   2.721 -1.4787 -1.2392 -2.6158
  224SOL    HW2  672   1.481   1.065   2.777  1.7518  1.5605 -1.6075
  225SOL     OW  673   2.990   2.772   2.895 -0.8216 -0.2615 -0.3211
  225SOL    HW1  674   2.965   2.694   2.823 -0.3717 -0.2647 -1.7418
  225SOL    HW2  675   3.089   2.807   2.887  1.1297 -1.0879  1.2056
  226SOL     OW  676   2.452   1.584   2.894 -0.2830 -0.7983 -0.3956
  226SOL    HW1  677   2.489   1.549   2.805  0.2290  1.0109  2.8154
  226SOL    HW2  678   2.380   1.519   2.931 -0.4167  0.5530 -1.4445
  227SOL     OW  679   0.889   0.114   3.002  0.2834 -0.2124  0.9077
  227SOL    HW1  680   0.921   0.041   3.071 -0.1239  0.4673  1.2093
  227SOL    HW2  681   0.917   0.090   2.901 -0.7872  1.4474 -2.6515
  228SOL     OW  682   2.377   0.607   2.845  0.3877  0.8860 -0.2854
  228SOL    HW1  683   2.344   0.665   2.765  1.2469 -1.0957  0.0603
  228SOL    HW2  684   2.441   0.528   2.815 -0.2993 -1.9211 -1.9864
  229SOL     OW  685   0.555   0.521   1.857 -0.3198 -0.2362  0.1998
  229SOL    HW1  686   0.525   0.475   1.773  2.2566  1.7641  2.2380
  229SOL    HW2  687   0.645   0.564   1.833 -3.9161  1.6151 -3.7358
  230SOL     OW  688   1.880   1.249   2.170  0.1266  0.2701 -0.2148
  230SOL    HW1  689   1.960   1.275   2.103 -0.4615 -1.4331 -0.1100
  230SOL    HW2  690   1.785   1.290   2.151 -2.0989  0.0981 -0.8875
  231SOL     OW  691   0.640   1.004   3.006 -0.5906 -0.1840  0.3208
  231SOL    HW1  692   0.734   1.050   3.007  0.1635 -0.0789 -0.6796
  231SOL    HW2  693   0.574   1.058   3.066 -2.7896 -1.6602 -3.3417
  232SOL     OW  694   2.476   0.015   2.754 -0.5844 -0.3133  0.4629
  232SOL    HW1  695   2.451  -0.075   2.794  1.1733 -0.3224 -0.3087
  232SOL    HW2  696   2.466   0.010   2.650  2.4897 -2.2925  1.4288
  233SOL     OW  697   1.699   1.243   1.069 -0.1220  0.2570  0.2347
  233SOL    HW1  698   1.708   1.286   0.972  2.7635  0.2791  1.7401
  233SOL    HW2  699   1.766   1.163   1.074  0.6965 -1.3190  0.6974
  234SOL     OW  700   1.692   2.580   1.821  0.1010 -0.1848  0.1100
  234SOL    HW1  701   1.680   2.590   1.922 -0.4713 -0.0933 -0.6372
  234SOL    HW2  702   1.608   2.557   1.764  0.0879 -3.4827  0.2990
  235SOL     OW  703   0.103   3.003   2.903 -0.7356 -0.5899 -0.0964
  235SOL    HW1  704   0.138   3.072   2.839 -1.5816  1.3742  1.1596
  235SOL    HW2  705   0.014   3.031   2.947 -0.4612  1.2516 -0.3482
  236SOL     OW  706   2.860   0.675   0.118  0.6596  0.4036 -0.2236
  236SOL    HW1  707   2.932   0.745   0.149  0.4354  2.4485 -0.6061
  236SOL    HW2  708   2.907   0.606   0.048  3.6704 -0.0110 -3.2240
  237SOL     OW  709   1.479   1.631   1.001 -0.0620  0.3840 -0.2310
  237SOL    HW1  710   1.581   1.610   1.003  1.1444 -0.3424  3.5004
  237SOL    HW2  711   1.445   1.654   1.093 -0.8436 -4.5680 -2.3856
  238SOL     OW  712   1.781   1.316   0.815 -0.8967 -0.1548 -0.9748
  238SOL    HW1  713   1.869   1.320   0.761 -1.2060  0.6005  0.5888
  238SOL    HW2  714   1.706   1.356   0.761  0.5238 -2.5706  1.4418
  239SOL     OW  715   2.077   0.248   2.720 -0.5919  0.3063 -0.8776
  239SOL    HW1  716   2.175   0.245   2.759 -2.6318 -1.2664 -1.6501
  239SOL    HW2  717   2.010   0.301   2.779  1.3737 -0.4264 -2.0057
  240SOL     OW  718   0.879   0.690   0.237 -0.0040 -0.1155  0.5730
  240SOL    HW1  719   0.868   0.597   0.189  2.8302  1.1397 -0.8941
  240SOL    HW2  720   0.878   0.687   0.341  1.3499  1.3957  4.7181
  241SOL     OW  721   0.577   0.062   0.316  0.1984  0.9143 -0.3588
  241SOL    HW1  722   0.607   0.018   0.228  0.9005 -1.5099 -1.7354
  241SOL    HW2  723   0.502  -0.001   0.354  1.3689  2.1180 -0.5261
  242SOL     OW  724   0.677   2.449   1.157 -0.7659 -0.2037  0.1444
  242SOL    HW1  725   0.656   2.505   1.246  1.4460  3.2703  2.3432
  242SOL    HW2  726   0.762   2.482   1.111 -0.9087 -1.4933  1.2344
  243SOL     OW  727   1.103   0.649   2.429  0.3498  0.1475  0.4005
  243SOL    HW1  728   1.039   0.726   2.384 -0.2931  1.9107 -0.4321
  243SOL    HW2  729   1.046   0.570   2.474  0.3587  0.2032 -0.6797
  244SOL     OW  730   2.799   1.884   2.437  0.2471 -0.4035 -0.3041
  244SOL    HW1  731   2.814   1.874   2.339  0.6476 -0.4914  3.4441
  244SOL    HW2  732   2.725   1.822   2.479  1.6649 -0.8047  2.2594
  245SOL     OW  733   2.467   0.739   2.148  0.3764  0.1756  0.2316
  245SOL    HW1  734   2.499   0.775   2.243  0.0423 -0.8108  1.8996
  245SOL    HW2  735   2.538   0.684   2.106  0.7354 -2.1655  1.4537
  246SOL     OW  736   0.284   2.902   1.672  0.9510  0.6370 -0.1039
  246SOL    HW1  737   0.194   2.897   1.622 -0.3531 -0.4827 -0.7536
  246SOL    HW2  738   0.321   2.999   1.683 -0.2981  0.8142 -2.0359
  247SOL     OW  739   2.177   0.566   3.038  0.1418  0.5659  0.1003
  247SOL    HW1  740   2.234   0.573   2.948  2.1341 -0.3151 -1.4649
  247SOL    HW2  741   2.139   0.658   3.057 -0.4538 -0.5465 -1.2608
  248SOL     OW  742   2.198   1.867   1.617 -0.2903  0.6066 -0.2556
  248SOL    HW1  743   2.252   1.792   1.666 -0.3241  0.3357  1.3691
  248SOL    HW2  744   2.098   1.875   1.644 -1.0083  1.2914  0.4807
  249SOL     OW  745   1.927   2.002   1.967 -0.0725  0.4155 -0.3680
  249SOL    HW1  746   1.928   1.935   1.886  0.0308 -1.3630 -1.1748
  249SOL    HW2  747   2.018   2.049   1.975  1.6442  0.6104 -0.6866
  250SOL     OW  748   1.023   0.680   1.853  0.2801  0.4353  0.2139
  250SOL    HW1  749   1.042   0.627   1.939 -2.0273  2.2569  0.3044
  250SOL    HW2  750   1.054   0.638   1.766  2.2297  2.1667  0.6047
  251SOL     OW  751   3.064   1.566   2.560  0.3285  0.5016 -0.2422
  251SOL    HW1  752   3.073   1.671   2.561  0.4127  0.8966  2.5687
  251SOL    HW2  753   2.969   1.545   2.525 -0.1212  1.0911  0.6377
  252SOL     OW  754   1.507   0.899   1.517 -0.0317  0.0974  0.1582
  252SOL    HW1  755   1.506   0.931   1.416  1.2364 -1.1594 -3.0328
  252SOL    HW2  756   1.500   0.977   1.582 -1.3897 -2.4799  0.6938
  253SOL     OW  757   0.951   1.592   0.360 -0.2934 -0.9336 -0.2100
  253SOL    HW1  758   0.951   1.492   0.321 -0.4609  1.8782 -0.0729
  253SOL    HW2  759   0.858   1.619   0.409 -2.3195  2.0649  2.2286
  254SOL     OW  760   2.024   2.184   1.600  0.6066  0.0567  0.1710
  254SOL    HW1  761   1.980   2.128   1.524 -2.6684 -0.1205 -0.2149
  254SOL    HW2  762   1.952   2.213   1.672  1.7492 -0.7215  1.8495
  255SOL     OW  763   0.133   1.155   2.923  0.4753 -0.1638  0.1287
  255SOL    HW1  764   0.179   1.249   2.915 -0.2174 -1.3885  0.2259
  255SOL    HW2  765   0.185   1.079   2.959 -0.0980  0.8748 -1.0541
  256SOL     OW  766   2.816   1.383   1.842  0.6045 -0.2057  0.3542
  256SOL    HW1  767   2.748   1.458   1.838  1.0418 -1.0208  1.0318
  256SOL    HW2  768   2.768   1.298   1.877  0.0442 -0.2022  1.2081
  257SOL     OW  769   0.909   0.193   1.907  0.1023 -0.3485 -0.4480
  257SOL    HW1  770   0.939   0.226   1.809 -3.5866 -0.0560 -1.6394
  257SOL    HW2  771   0.932   0.090   1.918 -0.1596  0.6003 -0.5155
  258SOL     OW  772   2.959   1.287   0.434  0.3785 -0.0824  0.1010
  258SOL    HW1  773   2.897   1.367   0.437 -0.1141 -2.1707 -2.9706
  258SOL    HW2  774   3.026   1.273   0.518  0.5888 -0.0070  0.0359
  259SOL     OW  775   0.442   2.920   2.971  0.3748 -0.6031  0.3250
  259SOL    HW1  776   0.409   2.879   3.059  0.0998 -0.6611  1.4797
  259SOL    HW2  777   0.431   2.855   2.887 -0.7351  0.5013 -2.9922
  260SOL     OW  778   2.678   0.827   2.766  0.7538  0.8266 -0.3384
  260SOL    HW1  779   2.591   0.794   2.717  0.2255 -0.2040  0.6021
  260SOL    HW2  780   2.660   0.860   2.863  0.7771 -2.0214  0.8947
  261SOL     OW  781   2.724   1.358   1.316 -0.2020 -0.7246  0.0431
  261SOL    HW1  782   2.690   1.286   1.252  1.7010  1.5299  0.9992
  261SOL    HW2  783   2.823   1.346   1.345  0.2749  0.4428 -1.1057
  262SOL     OW  784   1.482   2.897   2.012 -0.2279  0.0232 -0.4320
  262SOL    HW1  785   1.514   2.957   1.934  1.2537  0.6862 -1.2195
  262SOL    HW2  786   1.378   2.893   2.020  0.9984 -1.9386  1.2324
  263SOL     OW  787   0.857   0.784   2.316 -0.6327  0.0143 -0.1078
  263SOL    HW1  788   0.819   0.689   2.289 -0.0526 -0.5684 -1.9964
  263SOL    HW2  789   0.894   0.835   2.231  0.0873 -0.0406 -0.9408
  264SOL     OW  790   2.267   0.728   0.473 -0.0004 -0.7478 -0.2040
  264SOL    HW1  791   2.175   0.727   0.432  0.2358 -0.4937  2.4909
  264SOL    HW2  792   2.301   0.821   0.483 -3.1346 -2.8845  0.1025
  265SOL     OW  793   0.896   2.279   2.672 -0.0463 -0.3542 -0.3410
  265SOL    HW1  794   0.952   2.334   2.741  1.6631 -1.7290  1.7880
  265SOL    HW2  795   0.821   2.230   2.716  2.0144  0.8580 -0.6350
  266SOL     OW  796   1.344   1.706   0.061 -0.3589  0.0228 -0.2885
  266SOL    HW1  797   1.314   1.787   0.121  1.5218  2.4198  0.0918
  266SOL    HW2  798   1.446   1.710   0.039  2.5067 -0.0317  3.8342
  267SOL     OW  799   1.063   3.077   2.385 -0.5441 -0.8941 -0.1812
  267SOL    HW1  800   1.034   3.022   2.300 -0.0338  0.4906 -0.0109
  267SOL    HW2  801   1.007   3.165   2.389  0.4803  1.0234 -0.2022
  268SOL     OW  802   0.673   1.156   1.007  0.1951  0.0121  0.5873
  268SOL    HW1  803   0.709   1.212   1.089  1.0438  0.1854 -0.8973
  268SOL    HW2  804   0.648   1.214   0.929  0.1391 -2.2040  1.1148
  269SOL     OW  805   2.423   2.461   1.603  0.3710 -0.5116  0.2590
  269SOL    HW1  806   2.507   2.403   1.611  1.3689 -2.1826 -1.0095
  269SOL    HW2  807   2.397   2.511   1.689  1.6059 -0.7912  1.2549
  270SOL     OW  808   0.189   2.985   1.945 -0.5877  0.5785 -0.1182
  270SOL    HW1  809   0.262   2.938   1.890  0.6508  1.5716  0.3220
  270SOL    HW2  810   0.104   2.926   1.953  1.7110 -2.4425 -1.6990
  271SOL     OW  811   0.469   1.405   1.192 -0.4592 -0.0426 -0.2664
  271SOL    HW1  812   0.457   1.416   1.091  1.3717  5.0525 -0.4018
  271SOL    HW2  813   0.382   1.396   1.253 -1.3760  0.4005  0.4183
  272SOL     OW  814   1.898   2.918   1.905  0.0341 -0.0097  0.1708
  272SOL    HW1  815   1.862   2.865   1.824  0.3545 -0.0178  0.3696
  272SOL    HW2  816   1.980   2.967   1.879 -0.2769 -2.1409 -0.8819
  273SOL     OW  817   1.406   1.415   2.817 -0.0741 -0.2552  0.1241
  273SOL    HW1  818   1.374   1.500   2.763 -2.7278 -2.4174 -0.7808
  273SOL    HW2  819   1.424   1.427   2.919  0.1395 -1.0628 -0.9919
  274SOL     OW  820   1.145   0.517   2.042  0.3375  0.1578 -0.1858
  274SOL    HW1  821   1.178   0.449   1.974  2.1661  0.8258 -1.2181
  274SOL    HW2  822   1.219   0.531   2.122 -1.2428  0.7160  3.4497
  275SOL     OW  823   0.619   2.084   1.972 -0.0574  0.3839 -0.4828
  275SOL    HW1  824   0.583   2.179   1.988 -1.9569  0.2572  0.5970
  275SOL    HW2  825   0.540   2.017   1.948  2.4839 -1.8600  0.1955
  276SOL     OW  826   2.170   0.943   2.774  0.3591 -0.6235 -0.8496
  276SOL    HW1  827   2.090   0.971   2.716 -1.6425  1.5196  0.0036
  276SOL    HW2  828   2.140   0.898   2.860  0.8000  1.1411 -4.1408
  277SOL     OW  829   3.054   0.863   0.204  0.1732  0.1520  0.1918
  277SOL    HW1  830   3.134   0.859   0.140 -1.4625  2.3802 -0.7028
  277SOL    HW2  831   3.066   0.804   0.289  0.6426  0.7636 -2.3011
  278SOL     OW  832   0.189   0.278   2.961  0.0483  0.2067 -0.3310
  278SOL    HW1  833   0.239   0.199   3.016  2.9217 -0.9867  2.7924
  278SOL    HW2  834   0.233   0.369   2.974  2.1630  0.2003  0.8253
  279SOL     OW  835   0.162   0.054   0.873  0.1266 -0.0570 -0.2684
  279SOL    HW1  836   0.194   0.036   0.969 -1.5387  0.5070  0.1856
  279SOL    HW2  837   0.233   0.017   0.804 -0.4681  1.7356 -1.2176
  280SOL     OW  838   1.605   2.941   2.556  0.5404 -0.5328  0.4315
  280SOL    HW1  839   1.661   3.003   2.493 -3.1245 -1.4648 -1.2040
  280SOL    HW2  840   1.499   2.948   2.539 -0.0774  3.1275  0.6595
  281SOL     OW  841   0.569   0.969   2.317 -0.0975  0.5537 -0.6341
  281SOL    HW1  842   0.580   0.874   2.271  0.6435  2.9355  0.8743
  281SOL    HW2  843   0.516   0.956   2.406 -1.6315 -0.9790 -1.4165
  282SOL     OW  844   1.729   2.422   0.511  0.1422 -0.7950  0.2624
  282SOL    HW1  845   1.695   2.343   0.452  2.3212  1.5628 -2.5925
  282SOL    HW2  846   1.679   2.518   0.502  0.8384 -0.0356 -0.2534
  283SOL     OW  847   1.181   0.973   0.776 -0.2883  0.2917  1.2100
  283SOL    HW1  848   1.245   0.904   0.824  1.8042 -2.4431  1.3679
  283SOL    HW2  849   1.150   1.051   0.833 -0.8265 -1.4358  2.2978
  284SOL     OW  850   2.367   2.798   2.355  0.2605 -0.1579 -0.7648
  284SOL    HW1  851   2.382   2.867   2.277  1.9926  0.8217 -1.8320
  284SOL    HW2  852   2.438   2.798   2.425 -2.8440 -2.4346 -1.3299
  285SOL     OW  853   1.345   2.972   2.547 -0.4089 -0.2203 -0.1065
  285SOL    HW1  854   1.333   3.006   2.445 -0.6120 -0.1952 -1.7846
  285SOL    HW2  855   1.257   2.987   2.600 -0.9427 -1.6074 -0.1126
  286SOL     OW  856   0.465   0.428   0.699 -0.0954 -0.1569  0.2688
  286SOL    HW1  857   0.433   0.377   0.784 -0.5532  0.9701  1.4772
  286SOL    HW2  858   0.443   0.376   0.613 -0.3033 -2.2644  0.4009
  287SOL     OW  859   0.118   1.313   2.538  0.1825 -0.6343  0.3333
  287SOL    HW1  860   0.097   1.229   2.600 -0.9903  1.6583  4.5732
  287SOL    HW2  861   0.051   1.386   2.552  3.3418 -0.2185 -1.8702
  288SOL     OW  862   1.604   2.702   1.498 -0.7154 -0.6043  0.6111
  288SOL    HW1  863   1.602   2.616   1.450  0.3787  2.0343  2.3337
  288SOL    HW2  864   1.624   2.775   1.422  1.6885  2.6310  1.4795
  289SOL     OW  865   0.660   2.736   0.757  0.6352 -0.0605 -0.0760
  289SOL    HW1  866   0.706   2.800   0.691 -1.4732  2.1845 -1.7940
  289SOL    HW2  867   0.686   2.760   0.856 -0.6546  0.5000 -0.2585
  290SOL     OW  868   2.868   1.159   1.590 -0.2921 -1.1106  0.4301
  290SOL    HW1  869   2.778   1.109   1.578 -0.2221 -2.1402  1.2249
  290SOL    HW2  870   2.918   1.123   1.671  0.0876 -0.4909  2.3769
  291SOL     OW  871   1.979   0.045   0.110 -0.7040 -0.2958 -0.3539
  291SOL    HW1  872   1.983   0.069   0.211 -1.0974 -1.8461 -0.3055
  291SOL    HW2  873   2.005   0.124   0.050 -1.6071 -1.5974 -1.4832
  292SOL     OW  874   2.973   1.151   3.032  0.2981  0.6024 -0.3180
  292SOL    HW1  875   2.902   1.209   2.986  0.0274 -1.1470  1.1448
  292SOL    HW2  876   3.063   1.142   2.982  0.4412 -1.4954  2.4144
  293SOL     OW  877   0.617   2.122   0.117 -0.4213  0.8335  0.3886
  293SOL    HW1  878   0.562   2.175   0.189  0.0493  0.5426  0.5749
  293SOL    HW2  879   0.719   2.124   0.138  2.6264 -1.1501  0.5760
  294SOL     OW  880   1.680   2.152   1.761  0.0750  0.3847  0.3516
  294SOL    HW1  881   1.657   2.203   1.850  1.3479 -1.4905  1.9902
  294SOL    HW2  882   1.693   2.216   1.683  0.6354 -2.9435 -0.2913
  295SOL     OW  883   1.007   0.996   0.428  0.5174 -0.2327  0.8688
  295SOL    HW1  884   1.102   1.008   0.448 -2.3994  2.9497  3.1644
  295SOL    HW2  885   0.941   1.012   0.508 -2.9179  0.7436 -0.8329
  296SOL     OW  886   1.332   2.037   2.504  0.2728  0.0058  0.2475
  296SOL    HW1  887   1.328   2.048   2.402  0.6127  0.4825 -0.3723
  296SOL    HW2  888   1.317   1.941   2.528  2.4125  3.5119 -3.2118
  297SOL     OW  889   1.478   0.606   1.354  0.1718 -0.4558  0.3544
  297SOL    HW1  890   1.412   0.533   1.380 -0.8746 -0.6499 -1.1079
  297SOL    HW2  891   1.570   0.586   1.396  1.4779 -0.5609 -0.6041
  298SOL     OW  892   0.435   1.207   2.882  0.3114 -0.3833  0.3956
  298SOL    HW1  893   0.450   1.145   2.961 -1.7065  2.0641 -0.1339
  298SOL    HW2  894   0.521   1.217   2.826 -0.9331 -0.9815 -0.5065
  299SOL     OW  895   0.459   0.301   1.466 -0.2313 -0.7112 -0.4056
  299SOL    HW1  896   0.465   0.393   1.416  1.2480  1.2182  1.7686
  299SOL    HW2  897   0.555   0.285   1.513  2.7126 -0.3863 -1.0930
  300SOL     OW  898   1.179   1.800   2.893  0.2736 -0.3508  0.3661
  300SOL    HW1  899   1.135   1.730   2.830 -2.5220 -0.8804 -2.2275
  300SOL    HW2  900   1.186   1.774   2.991 -0.4579 -1.1661 -1.1344
  301SOL     OW  901   0.439   0.278   0.443  0.1430 -0.4199  0.3413
  301SOL    HW1  902   0.340   0.287   0.427 -0.1277 -0.6113  0.9167
  301SOL    HW2  903   0.495   0.237   0.368  3.0683  2.2150 -1.3698
  302SOL     OW  904   1.241   2.321   2.323  0.0642 -0.0188 -0.0752
  302SOL    HW1  905   1.193   2.341   2.415  0.9320  0.0495 -2.9665
  302SOL    HW2  906   1.255   2.224   2.298  1.2259 -1.2550  0.6406
  303SOL     OW  907   0.945   2.331   0.791  0.1245 -0.5164  0.1936
  303SOL    HW1  908   0.991   2.389   0.715 -1.9419  1.0691 -1.6423
  303SOL    HW2  909   0.936   2.385   0.880  2.1183  0.2850 -1.0063
  304SOL     OW  910   0.133   2.055   0.662 -0.1418  0.4907  0.2449
  304SOL    HW1  911   0.135   2.001   0.574  2.2551 -0.3156 -2.0242
  304SOL    HW2  912   0.098   2.150   0.640 -0.4886 -1.4753 -1.9062
  305SOL     OW  913   1.602   0.895   0.628 -0.3187 -0.4966 -0.2383
  305SOL    HW1  914   1.524   0.871   0.565  2.9537 -1.3516 -1.0346
  305SOL    HW2  915   1.668   0.815   0.652 -0.6249 -2.9612 -2.5743
  306SOL     OW  916   0.471   1.872   1.900  0.1620 -0.3378  0.0765
  306SOL    HW1  917   0.539   1.811   1.850  2.8960 -1.0734  0.4044
  306SOL    HW2  918   0.419   1.821   1.978 -0.3259  0.5537  3.0455
  307SOL     OW  919   0.022   0.840   2.605  0.1547 -0.0465 -0.1251
  307SOL    HW1  920   0.001   0.941   2.621 -3.5721 -0.0583  2.7252
  307SOL    HW2  921  -0.051   0.783   2.654 -2.0020 -0.3532 -1.1664
  308SOL     OW  922   1.523   2.643   2.885 -0.9285  0.2802  0.2673
  308SOL    HW1  923   1.528   2.582   2.796 -3.6020  2.3313 -4.1619
  308SOL    HW2  924   1.449   2.614   2.944  0.9764 -0.4209 -0.9875
  309SOL     OW  925   1.220   0.093   1.741  0.5132 -0.1883  0.2022
  309SOL    HW1  926   1.304   0.053   1.783  0.1260  0.6018 -2.5427
  309SOL    HW2  927   1.236   0.142   1.651 -0.9540  0.9057  3.9923
  310SOL     OW  928   1.410   2.581   0.739  0.9742 -0.6565 -0.4334
  310SOL    HW1  929   1.403   2.665   0.797 -2.0206 -3.9129  2.2278
  310SOL    HW2  930   1.482   2.594   0.673 -0.5827  1.7169  1.5027
  311SOL     OW  931   1.168   0.972   1.550 -0.8927  0.1098  0.1328
  311SOL    HW1  932   1.256   0.919   1.538  2.2327 -2.1363  2.8111
  311SOL    HW2  933   1.191   1.070   1.536 -0.6007 -0.6444  1.0347
  312SOL     OW  934   1.624   0.704   1.003  0.1872  0.2791  0.4706
  312SOL    HW1  935   1.575   0.787   0.963  3.5024 -0.2539 -0.7534
  312SOL    HW2  936   1.597   0.622   0.952 -0.0195  2.5335  1.3560
  313SOL     OW  937   1.533   1.405   0.659 -0.0414 -0.1418  0.9395
  313SOL    HW1  938   1.440   1.434   0.689 -1.4133 -0.0619  1.8287
  313SOL    HW2  939   1.533   1.305   0.629  1.0507 -0.7170  0.7412
  314SOL     OW  940   2.984   3.098   3.065 -0.0850 -0.9573  1.0905
  314SOL    HW1  941   2.945   3.181   3.115  1.1618  0.9655  0.1373
  314SOL    HW2  942   2.914   3.030   3.034  2.4656 -0.6339  0.5506
  315SOL     OW  943   1.221   0.233   2.779 -0.1185 -0.3341  0.1482
  315SOL    HW1  944   1.177   0.155   2.722 -0.7730  0.2358  0.5101
  315SOL    HW2  945   1.264   0.204   2.866  2.2098 -2.5119 -3.8434
  316SOL     OW  946   1.713   2.092   0.923  0.6665 -0.0597 -0.3834
  316SOL    HW1  947   1.655   2.091   1.014  1.8004  0.1187 -1.2995
  316SOL    HW2  948   1.706   2.183   0.876  2.2669  0.8447  2.3296
  317SOL     OW  949   1.142   0.709   2.839  0.0408  0.4265  0.2386
  317SOL    HW1  950   1.072   0.762   2.891 -0.7099 -2.2844 -0.6835
  317SOL    HW2  951   1.095   0.626   2.795 -1.9808  1.4624 -0.7475
  318SOL     OW  952   1.461   3.030   2.264 -0.3980 -0.4803 -0.6869
  318SOL    HW1  953   1.431   3.128   2.247 -1.8338  2.9525  4.2466
  318SOL    HW2  954   1.466   2.974   2.177  0.1622 -2.7287  0.5391
  319SOL     OW  955   0.652   2.403   2.915 -0.0212 -0.2140 -0.1904
  319SOL    HW1  956   0.580   2.361   2.980 -0.2306  2.1707  1.1395
  319SOL    HW2  957   0.738   2.347   2.901  1.9947  1.5312 -0.5430
  320SOL     OW  958   1.627   2.178   0.343 -0.1120  0.2480 -0.2361
  320SOL    HW1  959   1.725   2.142   0.366  0.1957 -0.5680  0.2620
  320SOL    HW2  960   1.558   2.157   0.419 -1.2529 -0.9485  4.2961
  321SOL     OW  961   1.593   2.660   0.498  0.2440 -0.7241 -0.6248
  321SOL    HW1  962   1.523   2.731   0.481  0.8379 -1.8652  3.0062
  321SOL    HW2  963   1.685   2.707   0.520  1.6492  1.5398 -0.2236
  322SOL     OW  964   2.546   1.114   2.256 -0.0440  0.3272  0.1609
  322SOL    HW1  965   2.595   1.162   2.330 -1.5806 -1.5105 -0.7611
  322SOL    HW2  966   2.547   1.015   2.275 -0.7837  0.3257 -1.7800
  323SOL     OW  967   0.992   2.666   0.787  0.5660 -0.4831 -0.2453
  323SOL    HW1  968   1.029   2.644   0.696 -1.0351 -0.0675  0.9096
  323SOL    HW2  969   1.035   2.756   0.826  1.3389 -0.1942 -0.6913
  324SOL     OW  970   0.204   2.470   2.462  1.0380  0.0150  0.1244
  324SOL    HW1  971   0.201   2.379   2.511 -0.2140  0.4465  0.3027
  324SOL    HW2  972   0.157   2.544   2.514 -0.3518 -1.7099 -1.1800
  325SOL     OW  973   1.206   3.051   0.457  0.4141 -0.3761  0.1385
  325SOL    HW1  974   1.233   3.085   0.359  1.6734  1.6538  0.0863
  325SOL    HW2  975   1.234   3.122   0.532  0.9167  1.3918  1.4105
  326SOL     OW  976   2.461   0.765   3.056  0.2281 -0.0888 -0.4328
  326SOL    HW1  977   2.432   0.701   2.979 -2.8728 -0.5381  0.9790
  326SOL    HW2  978   2.529   0.720   3.121  1.5842  0.9299  0.5159
  327SOL     OW  979   2.854   0.395   0.512  0.6814 -0.2219 -0.4208
  327SOL    HW1  980   2.781   0.402   0.437  0.4685  0.7662 -1.1866
  327SOL    HW2  981   2.826   0.338   0.591  1.6483 -0.0249  1.0449
  328SOL     OW  982   2.474   0.555   0.394  0.2698  0.2966 -0.4477
  328SOL    HW1  983   2.384   0.605   0.418 -0.5365  0.4820  1.7380
  328SOL    HW2  984   2.500   0.496   0.477  2.8898  0.6708  2.7256
  329SOL     OW  985   2.946   2.994   2.166 -0.6873 -0.3807 -0.0626
  329SOL    HW1  986   2.980   2.914   2.225 -0.1591  0.0884  1.3366
  329SOL    HW2  987   2.962   3.085   2.211  0.0504 -1.2046  0.1372
  330SOL     OW  988   0.527   0.176   1.887  0.0931  0.3187  0.2769
  330SOL    HW1  989   0.594   0.257   1.880  0.8818  1.1523 -0.2312
  330SOL    HW2  990   0.534   0.117   1.976 -1.7618 -1.3600 -0.0385
  331SOL     OW  991   2.951   1.938   1.118 -0.3263  0.1687 -0.1210
  331SOL    HW1  992   2.984   2.019   1.059 -0.5558  1.7807 -0.1214
  331SOL    HW2  993   2.888   1.971   1.192  0.5206  2.2770 -0.6837
  332SOL     OW  994   0.423   1.121   0.084  0.3006 -0.3834 -0.2208
  332SOL    HW1  995   0.361   1.071   0.013  0.6885  0.5784 -0.6958
  332SOL    HW2  996   0.375   1.202   0.129 -1.3523 -0.5477  1.2255
  333SOL     OW  997   2.873   1.047   0.305  0.0526  0.5584 -0.0005
  333SOL    HW1  998   2.886   1.129   0.367 -0.1956  0.8751  0.2250
  333SOL    HW2  999   2.958   0.985   0.300  1.0753  0.7903 -0.7542
  334SOL     OW 1000   1.678   1.192   1.902  0.4662  0.0965 -0.3688
  334SOL    HW1 1001   1.773   1.174   1.859  4.0160 -1.1503 -0.1613
  334SOL    HW2 1002   1.681   1.278   1.963 -2.2250  0.6073 -2.9546
  335SOL     OW 1003   1.999   2.758   2.617 -0.4031  0.3814 -0.2678
  335SOL    HW1 1004   1.930   2.771   2.691  0.7789 -5.0865 -1.6956
  335SOL    HW2 1005   2.088   2.787   2.658 -4.3544  0.9091 -0.8943
  336SOL     OW 1006   0.255   0.110   2.759  0.1902 -0.3289  0.4934
  336SOL    HW1 1007   0.353   0.094   2.742 -0.1025 -1.5507 -2.7874
  336SOL    HW2 1008   0.237   0.196   2.813 -1.2958  0.4089 -0.3394
  337SOL     OW 1009   0.923   2.776   2.800  0.5598  0.5948 -0.6882
  337SOL    HW1 1010   0.914   2.799   2.902  2.0874 -0.3348  3.2592
  337SOL    HW2 1011   1.019   2.739   2.778  1.2663 -1.0760  0.7493
  338SOL     OW 1012   0.036   0.984   0.657 -0.2260 -0.0732  0.8686
  338SOL    HW1 1013  -0.062   0.958   0.669  0.9343 -0.3654  0.2762
  338SOL    HW2 1014   0.034   1.087   0.655 -2.0748  0.1592 -1.6936
  339SOL     OW 1015   1.672   1.393   2.084  0.6590 -0.0782  0.2147
  339SOL    HW1 1016   1.574   1.414   2.103  1.1388 -1.3618  0.8112
  339SOL    HW2 1017   1.738   1.470   2.101  0.6818 -3.8822 -0.2519
  340SOL     OW 1018   2.283   0.809   1.199  1.0169 -0.0818  0.7474
  340SOL    HW1 1019   2.181   0.833   1.195 -0.8005 -1.2072  0.6772
  340SOL    HW2 1020   2.306   0.715   1.167  0.5739  0.6023  1.5329
  341SOL     OW 1021   1.916   2.152   0.356  0.0170 -0.1140 -0.5603
  341SOL    HW1 1022   1.927   2.234   0.296  3.1765 -0.6082  3.2090
  341SOL    HW2 1023   2.006   2.136   0.412  2.2879 -2.1234 -1.7615
  342SOL     OW 1024   2.207   2.103   2.769 -0.1662  0.2168  0.0619
  342SOL    HW1 1025   2.274   2.044   2.821  0.8670 -0.8191 -0.0472
  342SOL    HW2 1026   2.104   2.072   2.774  0.0044  0.4454  0.0390
  343SOL     OW 1027   0.330   0.796   2.773 -0.3782 -0.1074  0.0850
  343SOL    HW1 1028   0.318   0.836   2.679 -1.6369 -0.5948  1.0959
  343SOL    HW2 1029   0.427   0.776   2.784  1.1600  1.5033 -1.9959
  344SOL     OW 1030   1.902   1.456   0.428  0.2098  0.0011  0.9305
  344SOL    HW1 1031   1.915   1.374   0.367  1.8552  1.5298 -1.8723
  344SOL    HW2 1032   1.802   1.487   0.441 -2.2612  0.3609  2.0152
  345SOL     OW 1033   1.393   2.259   2.868 -0.0218  0.3460  0.6804
  345SOL    HW1 1034   1.303   2.213   2.851 -1.2449  2.8245  1.5167
  345SOL    HW2 1035   1.471   2.221   2.811  0.0518  0.9015  0.7514
  346SOL     OW 1036   2.309   0.861   1.465 -0.2330  0.5040  0.1287
  346SOL    HW1 1037   2.273   0.955   1.489  0.6389 -0.6299 -0.6994
  346SOL    HW2 1038   2.306   0.845   1.362 -0.2699 -1.3529  0.7730
  347SOL     OW 1039   0.724   2.861   1.515  0.3165  0.0056  0.0881
  347SOL    HW1 1040   0.701   2.771   1.563  0.7363 -0.9224  0.5989
  347SOL    HW2 1041   0.643   2.905   1.468  0.0336 -0.3690 -0.7353
  348SOL     OW 1042   0.077   0.652   2.867  0.4829 -0.0376 -0.3441
  348SOL    HW1 1043  -0.021   0.687   2.843  0.3384 -3.5125 -0.6407
  348SOL    HW2 1044   0.147   0.696   2.809 -1.3107 -1.9807  1.2245
  349SOL     OW 1045   1.857   0.430   2.804 -0.5650 -0.0268 -0.5716
  349SOL    HW1 1046   1.857   0.522   2.750  0.3029  1.0446  2.4504
  349SOL    HW2 1047   1.807   0.428   2.898  0.1748 -0.4745  0.8836
  350SOL     OW 1048   1.640   0.415   0.384 -0.2952  1.1452 -0.0641
  350SOL    HW1 1049   1.705   0.450   0.455 -0.6821 -0.5470 -0.6835
  350SOL    HW2 1050   1.595   0.501   0.338 -2.3534  0.5013  0.1192
  351SOL     OW 1051   0.964   0.908   2.070  0.4081 -0.1904  0.0939
  351SOL    HW1 1052   0.949   1.007   2.037 -1.3062  1.0441 -2.8406
  351SOL    HW2 1053   0.970   0.846   1.982  1.4145 -1.0363 -0.5277
  352SOL     OW 1054   1.999   1.300   0.647  0.0880 -0.5377  0.6647
  352SOL    HW1 1055   1.960   1.366   0.569 -2.8222  2.0059 -1.5951
  352SOL    HW2 1056   2.082   1.343   0.695 -0.9962 -1.7608  1.6256
  353SOL     OW 1057   2.136   2.896   1.130  0.3267 -0.2379  0.3265
  353SOL    HW1 1058   2.193   2.827   1.179 -0.6873 -1.2394  0.2065
  353SOL    HW2 1059   2.057   2.852   1.079  1.3355  1.3954 -0.0924
  354SOL     OW 1060   0.242   1.404   2.844 -0.3774  0.3615  0.1945
  354SOL    HW1 1061   0.268   1.483   2.781 -0.3187  0.0150 -2.1793
  354SOL    HW2 1062   0.317   1.331   2.843 -1.2870  2.7440  1.0130
  355SOL     OW 1063   0.517   1.532   0.526 -0.0740 -0.0911 -0.8148
  355SOL    HW1 1064   0.537   1.610   0.593  2.1907  0.7033 -1.0989
  355SOL    HW2 1065   0.588   1.451   0.529  0.7816 -1.1075 -1.3382
  356SOL     OW 1066   0.920   0.366   2.124 -0.0350 -1.1416  0.0178
  356SOL    HW1 1067   1.006   0.418   2.098  0.9979  3.0295  0.1803
  356SOL    HW2 1068   0.891   0.293   2.053  0.0275 -1.5999  1.7912
  357SOL     OW 1069   1.019   1.289   0.327  0.8325  0.5745  0.8279
  357SOL    HW1 1070   0.933   1.289   0.269 -0.6214 -1.8479  2.5553
  357SOL    HW2 1071   1.018   1.197   0.380 -2.8867  1.0099  1.8658
  358SOL     OW 1072   1.650   1.535   0.445  0.1946 -0.7314 -0.0830
  358SOL    HW1 1073   1.591   1.483   0.518  1.8388 -1.1707  1.9162
  358SOL    HW2 1074   1.599   1.537   0.354 -0.1774 -0.3060  1.3577
  359SOL     OW 1075   1.567   2.685   0.101 -0.0021  0.4725 -0.4822
  359SOL    HW1 1076   1.602   2.606   0.042  1.4728 -2.0728 -1.2975
  359SOL    HW2 1077   1.467   2.677   0.126  2.1881  2.0460 -1.2323
  360SOL     OW 1078   0.895   0.602   0.497 -0.5260  0.5797 -0.0050
  360SOL    HW1 1079   0.832   0.620   0.577  1.0725 -0.0357 -1.4731
  360SOL    HW2 1080   0.906   0.498   0.477 -0.9433 -0.0339 -2.0095
  361SOL     OW 1081   1.258   1.393   0.677 -0.5266  0.1971 -0.1746
  361SOL    HW1 1082   1.288   1.357   0.769  1.0017 -0.0116  0.1400
  361SOL    HW2 1083   1.152   1.411   0.677  1.0481 -0.0828  0.1415
  362SOL     OW 1084   1.380   1.744   0.776 -0.1128 -0.1925 -0.1092
  362SOL    HW1 1085   1.394   1.699   0.866  0.1145  0.9161 -2.0220
  362SOL    HW2 1086   1.457   1.813   0.756 -1.0983  1.3158  0.4400
  363SOL     OW 1087   1.199   1.315   2.025  0.6059 -0.7473  0.3431
  363SOL    HW1 1088   1.206   1.399   2.081 -1.1221 -0.7032  1.2643
  363SOL    HW2 1089   1.225   1.333   1.925  2.6212  0.6278 -0.0757
  364SOL     OW 1090   0.543   2.339   1.922  0.0340  0.1509 -0.1594
  364SOL    HW1 1091   0.460   2.405   1.938 -1.4462  0.2802 -0.7666
  364SOL    HW2 1092   0.604   2.367   1.844 -1.3834  0.7658  0.1531
  365SOL     OW 1093   1.076   1.948   1.389 -0.4755 -0.2697  0.3433
  365SOL    HW1 1094   0.976   1.941   1.421 -0.0399  2.5522 -2.1708
  365SOL    HW2 1095   1.095   1.886   1.307 -0.1172 -0.5550  0.2578
  366SOL     OW 1096   2.815   2.056   0.475  0.2642 -0.6465  0.2428
  366SOL    HW1 1097   2.722   2.006   0.490 -3.0979 -0.0983 -0.9169
  366SOL    HW2 1098   2.874   2.007   0.407 -3.7604  0.2185 -0.5656
  367SOL     OW 1099   0.803   1.213   0.139 -0.1248 -0.1811  0.3261
  367SOL    HW1 1100   0.800   1.120   0.180  2.1162 -1.1499 -4.2697
  367SOL    HW2 1101   0.837   1.206   0.046 -0.7307  0.8361  1.9957
  368SOL     OW 1102   1.525   0.566   0.714 -0.4590  0.4855 -0.1393
  368SOL    HW1 1103   1.457   0.587   0.632 -0.0000  1.0618 -0.3186
  368SOL    HW2 1104   1.618   0.609   0.691 -0.8915 -0.8764 -0.4271
  369SOL     OW 1105   0.283   1.727   0.056 -0.1772  0.0546 -0.4064
  369SOL    HW1 1106   0.326   1.806   0.113 -1.2084 -1.7556 -2.2338
  369SOL    HW2 1107   0.206   1.692   0.109 -1.7335  1.9646 -1.9618
  370SOL     OW 1108   0.384   2.118   1.027  0.0404  0.0928  0.5156
  370SOL    HW1 1109   0.404   2.220   1.024 -1.1494 -0.0367 -1.4455
  370SOL    HW2 1110   0.288   2.097   0.992 -0.8443  1.5616 -0.2657
  371SOL     OW 1111   2.903   2.214   2.746  0.1113  0.1903  0.0160
  371SOL    HW1 1112   2.889   2.182   2.848 -1.7472  1.3701  1.5673
  371SOL    HW2 1113   2.993   2.255   2.728 -0.9871  2.5555  1.1720
  372SOL     OW 1114   0.961   1.897   0.928  1.0494  0.9097  0.4134
  372SOL    HW1 1115   0.920   1.991   0.952 -2.1317  1.5900 -0.1283
  372SOL    HW2 1116   1.047   1.911   0.872  0.7786 -2.4032 -0.5638
  373SOL     OW 1117   1.968   2.009   0.904 -1.0350  0.2230 -0.6173
  373SOL    HW1 1118   2.023   1.984   0.986 -2.0674  1.7590  0.1206
  373SOL    HW2 1119   1.874   2.046   0.925 -2.4369 -1.4246 -1.9584
  374SOL     OW 1120   1.847   0.458   0.545 -0.4907  0.0314 -0.3925
  374SOL    HW1 1121   1.879   0.396   0.622  2.5603  0.8971  0.2238
  374SOL    HW2 1122   1.920   0.489   0.493 -2.2474 -2.3049  0.4313
  375SOL     OW 1123   2.382   2.148   1.135 -0.3441  0.1012 -0.4781
  375SOL    HW1 1124   2.440   2.140   1.053 -0.8020 -0.1525  1.6734
  375SOL    HW2 1125   2.433   2.140   1.222 -0.2532  0.2033  1.1654
  376SOL     OW 1126   3.035   0.608   1.422 -0.2300 -0.2718 -0.5992
  376SOL    HW1 1127   3.079   0.657   1.503 -1.8571  3.1535 -1.0863
  376SOL    HW2 1128   2.933   0.611   1.424 -0.2371  0.6196 -0.1779
  377SOL     OW 1129   2.277   2.827   0.317  0.1433 -0.4034  0.5918
  377SOL    HW1 1130   2.239   2.922   0.330  0.9649 -0.7334  0.2606
  377SOL    HW2 1131   2.367   2.813   0.360 -1.4756  2.6228 -3.1185
  378SOL     OW 1132   1.812   1.913   2.634 -1.1429  0.2881 -0.2292
  378SOL    HW1 1133   1.803   1.815   2.667  1.5464  0.7861 -0.3107
  378SOL    HW2 1134   1.832   1.929   2.532 -1.5087  2.3963  1.9304
  379SOL     OW 1135   0.869   0.066   2.728  0.6566  0.1783  0.0491
  379SOL    HW1 1136   0.808  -0.018   2.730  0.0325 -1.0021 -0.2051
  379SOL    HW2 1137   0.816   0.155   2.713  3.5194  0.5351  0.3550
  380SOL     OW 1138   1.517   1.142   0.592 -0.1527  0.3803 -0.2942
  380SOL    HW1 1139   1.416   1.128   0.572  2.1072  3.0364 -0.3449
  380SOL    HW2 1140   1.575   1.052   0.602 -0.2600  0.1459  2.0651
  381SOL     OW 1141   1.318   1.193   1.505 -0.2948 -0.1713  0.6774
  381SOL    HW1 1142   1.357   1.236   1.418 -0.3227  0.8056 -0.1487
  381SOL    HW2 1143   1.380   1.195   1.584  0.0293 -0.7205 -1.3080
  382SOL     OW 1144   1.753   0.795   0.270  0.3243 -0.0389 -0.4454
  382SOL    HW1 1145   1.807   0.783   0.181  0.7575  1.2989  1.6926
  382SOL    HW2 1146   1.816   0.803   0.353  0.1114 -0.4533 -1.1536
  383SOL     OW 1147   2.579   0.975   1.505 -0.4944 -0.4786 -0.1984
  383SOL    HW1 1148   2.495   0.914   1.498  3.4998 -0.1956  1.9674
  383SOL    HW2 1149   2.648   0.963   1.428  1.5097  1.1411 -0.1200
  384SOL     OW 1150   0.898   2.276   0.095 -0.8566 -0.3959 -0.4116
  384SOL    HW1 1151   0.864   2.342   0.174  0.0671  0.1998  1.5669
  384SOL    HW2 1152   0.933   2.187   0.128 -0.9362  2.9332 -0.2422
  385SOL     OW 1153   2.990   2.014   1.755 -0.2229  0.0200  0.2416
  385SOL    HW1 1154   3.056   2.094   1.763 -3.1174  2.3707  0.2172
  385SOL    HW2 1155   3.048   1.930   1.749 -2.6686  1.7387 -0.7771
  386SOL     OW 1156   0.439   1.150   0.453 -0.2733  0.1748  0.3270
  386SOL    HW1 1157   0.446   1.048   0.455  0.5022 -0.6964  0.8523
  386SOL    HW2 1158   0.370   1.186   0.377 -0.9042 -1.3419  0.0903
  387SOL     OW 1159   0.977   0.281   1.663  0.3970 -0.1080 -0.4032
  387SOL    HW1 1160   1.031   0.369   1.654 -0.0166 -4.5633 -2.1522
  387SOL    HW2 1161   0.959   0.244   1.571 -1.8113  0.4075 -1.3678
  388SOL     OW 1162   1.167   2.621   1.779  0.2067  0.1406  0.3485
  388SOL    HW1 1163   1.182   2.659   1.680  0.6859 -0.9193 -1.2314
  388SOL    HW2 1164   1.236   2.548   1.816  3.7885  0.0446  0.2614
  389SOL     OW 1165   0.262   0.025   1.133 -0.5176  0.0330  0.1442
  389SOL    HW1 1166   0.174   0.030   1.195 -1.1660 -1.6806 -0.1586
  389SOL    HW2 1167   0.308  -0.068   1.129 -0.3327 -0.2812 -1.2176
  390SOL     OW 1168   1.024   0.878   1.236  0.4149 -0.0265 -0.4182
  390SOL    HW1 1169   1.117   0.864   1.278 -1.0991 -1.1520  1.4852
  390SOL    HW2 1170   0.958   0.916   1.305  1.8467  1.5563  2.7704
  391SOL     OW 1171   2.096   1.151   1.061 -0.1961  0.3546  0.2052
  391SOL    HW1 1172   2.001   1.113   1.074  0.7466 -0.9775  0.3693
  391SOL    HW2 1173   2.154   1.080   1.026 -0.7908  1.0207  2.2891
  392SOL     OW 1174   0.872   2.712   3.057  0.1513 -0.2274 -0.2240
  392SOL    HW1 1175   0.804   2.663   3.115  0.7404 -0.7946  0.9823
  392SOL    HW2 1176   0.952   2.751   3.106  0.2370  1.2474 -0.6006
  393SOL     OW 1177   0.368   0.578   2.047  0.4754 -0.4806  1.1198
  393SOL    HW1 1178   0.276   0.528   2.035 -0.9203  1.6192 -0.1258
  393SOL    HW2 1179   0.423   0.583   1.960 -0.9484  0.9073  1.9034
  394SOL     OW 1180   2.845   1.829   2.804  0.1905  0.3216  0.3368
  394SOL    HW1 1181   2.947   1.805   2.816 -0.2983  0.2963  3.7295
  394SOL    HW2 1182   2.821   1.866   2.713  0.4182 -4.1421  1.3452
  395SOL     OW 1183   1.592   1.932   0.730 -0.1714 -0.0144  0.5509
  395SOL    HW1 1184   1.644   1.867   0.668 -2.1311  1.7999  3.0428
  395SOL    HW2 1185   1.650   1.977   0.804 -0.4975  1.3010 -3.0302
  396SOL     OW 1186   2.761   2.055   1.309  0.2444 -0.0964 -0.0218
  396SOL    HW1 1187   2.770   2.065   1.414  1.5494  0.5875  1.7287
  396SOL    HW2 1188   2.665   2.070   1.278 -0.0978 -2.9992  0.7436
  397SOL     OW 1189   1.011   2.077   0.650  0.1606  0.3060  0.2036
  397SOL    HW1 1190   0.923   2.055   0.592 -2.6517 -1.3088  0.4826
  397SOL    HW2 1191   1.009   2.163   0.703  0.9383  0.4724 -3.0345
  398SOL     OW 1192   2.185   0.063   1.084 -0.2825  0.3515  0.2858
  398SOL    HW1 1193   2.161  -0.034   1.101 -1.5599  2.0146 -1.7114
  398SOL    HW2 1194   2.099   0.123   1.056 -0.4443  1.4509 -0.4693
  399SOL     OW 1195   2.964   2.539   2.732  0.6092 -0.3027 -0.3128
  399SOL    HW1 1196   2.915   2.500   2.650 -0.8119  1.0605 -1.2504
  399SOL    HW2 1197   2.930   2.501   2.822 -0.7050  1.2112 -3.3739
  400SOL     OW 1198   0.845   1.613   1.267 -0.0136  0.2052  0.0947
  400SOL    HW1 1199   0.784   1.648   1.344 -2.3345 -0.8858 -2.0451
  400SOL    HW2 1200   0.808   1.636   1.176  1.6942  0.1842  1.0891
  401SOL     OW 1201   1.832   0.129   1.274 -0.3329  0.4143 -0.1070
  401SOL    HW1 1202   1.887   0.189   1.337 -1.0505  0.2730  4.3989
  401SOL    HW2 1203   1.736   0.119   1.313  0.7916  1.5302  0.3540
  402SOL     OW 1204   1.318   0.138   3.038  0.2639 -0.5600 -0.1801
  402SOL    HW1 1205   1.401   0.115   2.991  0.7831  0.7328  0.7920
  402SOL    HW2 1206   1.321   0.217   3.107 -2.2673  2.6020  0.0806
  403SOL     OW 1207   2.297   1.811   0.945  0.2974 -0.3813  0.2056
  403SOL    HW1 1208   2.400   1.805   0.963 -0.9111  0.0132 -0.1309
  403SOL    HW2 1209   2.252   1.868   1.017  2.5810  1.8054  0.1154
  404SOL     OW 1210   0.176   2.493   2.835  0.3339  0.8676  0.0639
  404SOL    HW1 1211   0.266   2.453   2.806 -3.5956  0.7019 -0.3027
  404SOL    HW2 1212   0.191   2.592   2.866 -0.6912  0.8524  0.9413
  405SOL     OW 1213   0.248   2.572   0.573 -0.9056 -0.0653 -0.4017
  405SOL    HW1 1214   0.238   2.568   0.466 -0.9401 -2.4765 -1.9461
  405SOL    HW2 1215   0.323   2.643   0.607 -0.2681  1.6535 -1.1497
  406SOL     OW 1216   0.036   1.515   2.975  0.3161 -0.3186  0.4631
  406SOL    HW1 1217   0.105   1.456   2.927  0.0080  1.1511  1.3412
  406SOL    HW2 1218   0.031   1.506   3.080  0.5190 -0.2001  1.6668
  407SOL     OW 1219   1.526   0.929   0.885 -0.5518 -0.2795  0.0732
  407SOL    HW1 1220   1.544   0.947   0.781 -0.3173  2.9075 -0.0973
  407SOL    HW2 1221   1.465   1.000   0.933 -1.2893 -1.1230  1.6289
  408SOL     OW 1222   1.497   2.397   0.963  0.5147  0.5729  0.0191
  408SOL    HW1 1223   1.573   2.379   0.890  0.4336 -0.4170 -3.5188
  408SOL    HW2 1224   1.533   2.456   1.038 -1.5611  0.2651 -1.0213
  409SOL     OW 1225   0.666   0.875   0.686  0.0937 -0.5716 -0.2375
  409SOL    HW1 1226   0.594   0.887   0.612 -0.3882 -1.1046 -0.0474
  409SOL    HW2 1227   0.675   0.778   0.718  0.1697 -0.3303  3.1937
  410SOL     OW 1228   1.319   2.010   1.499 -0.2140  0.4060  0.1793
  410SOL    HW1 1229   1.323   2.076   1.576  1.2414 -1.3593 -0.6204
  410SOL    HW2 1230   1.218   1.974   1.489  1.5995 -1.1912 -2.0537
  411SOL     OW 1231   2.375   1.838   0.045  0.1493 -0.0581 -0.1496
  411SOL    HW1 1232   2.277   1.802   0.034  2.1823 -2.1318  1.2818
  411SOL    HW2 1233   2.428   1.834  -0.047 -1.1937  0.2728 -2.1682
  412SOL     OW 1234   1.505   2.402   2.223  0.0484  0.2217 -0.4569
  412SOL    HW1 1235   1.545   2.495   2.250  0.2518 -2.0763  2.6155
  412SOL    HW2 1236   1.464   2.361   2.307  1.3034  0.9869 -0.8172
  413SOL     OW 1237   3.008   0.266   2.947 -0.1062 -0.1557  0.6982
  413SOL    HW1 1238   2.969   0.169   2.952  1.4361  0.0445  5.2901
  413SOL    HW2 1239   3.111   0.263   2.929  2.1974 -0.4171  0.0334
  414SOL     OW 1240   1.779   1.360   1.327 -0.2576  0.5548  0.2690
  414SOL    HW1 1241   1.696   1.410   1.363 -1.3564  0.5610 -1.4681
  414SOL    HW2 1242   1.761   1.313   1.235  0.7413  0.8698  2.6139
  415SOL     OW 1243   0.369   2.272   0.671  0.1257 -0.1007  0.0149
  415SOL    HW1 1244   0.340   2.364   0.625 -2.6647  1.9134 -1.8574
  415SOL    HW2 1245   0.291   2.203   0.665  0.2322  0.9771 -0.0754
  416SOL     OW 1246   0.369   1.017   1.057  0.1678  0.0589 -0.0453
  416SOL    HW1 1247   0.334   0.977   0.971 -0.4819  2.2259 -0.4381
  416SOL    HW2 1248   0.447   1.087   1.042  1.6668  1.0502 -3.0718
  417SOL     OW 1249   2.151   2.318   1.884 -0.1006 -0.3093  0.7079
  417SOL    HW1 1250   2.190   2.231   1.927 -3.5400  0.9007 -0.1763
  417SOL    HW2 1251   2.061   2.347   1.925  2.6438 -0.3846 -1.7982
  418SOL     OW 1252   1.134   0.446   1.330 -0.3348  0.6842 -0.4415
  418SOL    HW1 1253   1.034   0.439   1.319 -1.2786 -0.2032 -0.3283
  418SOL    HW2 1254   1.185   0.420   1.246 -1.4183  0.8062  4.6821
  419SOL     OW 1255   0.973   0.381   3.030 -0.1310 -0.0769  0.0468
  419SOL    HW1 1256   0.978   0.414   2.931  2.1491 -0.2321  1.0270
  419SOL    HW2 1257   0.917   0.290   3.030  0.4706 -1.1727 -3.3775
  420SOL     OW 1258   0.215   2.270   0.353  0.9792 -0.2757 -0.5909
  420SOL    HW1 1259   0.181   2.205   0.280 -1.2459 -3.1157  2.6855
  420SOL    HW2 1260   0.156   2.273   0.440  0.0801 -0.8578 -1.2602
  421SOL     OW 1261   0.329   3.076   0.645  0.0097  0.2787  0.3425
  421SOL    HW1 1262   0.316   3.023   0.557 -0.3496  0.8624 -0.7571
  421SOL    HW2 1263   0.425   3.113   0.664 -0.9236  1.5195 -0.8919
  422SOL     OW 1264   0.928   2.503   1.028  0.2068  0.0730  0.1644
  422SOL    HW1 1265   0.947   2.583   0.961 -2.4041 -0.8791  0.0785
  422SOL    HW2 1266   0.975   2.522   1.118 -1.2485 -0.7458 -1.3456
  423SOL     OW 1267   0.036   0.730   1.191  0.2492 -0.2209 -0.0497
  423SOL    HW1 1268   0.003   0.680   1.278 -1.0360 -2.5786  1.4085
  423SOL    HW2 1269  -0.036   0.764   1.132  4.2438  2.0372  1.8823
  424SOL     OW 1270   1.026   2.145   2.156 -0.1861  0.4972 -0.5933
  424SOL    HW1 1271   1.014   2.244   2.132 -0.0201 -2.2915  0.6506
  424SOL    HW2 1272   0.981   2.121   2.246 -1.1172 -0.7099 -2.1420
  425SOL     OW 1273   2.004   1.404   1.077 -0.5019 -0.7016 -0.1333
  425SOL    HW1 1274   2.037   1.309   1.065  0.5474  0.7251 -0.6343
  425SOL    HW2 1275   2.055   1.483   1.029 -1.3243  4.5726  0.6500
  426SOL     OW 1276   1.557   1.523   1.379 -0.2335  0.4699 -0.0357
  426SOL    HW1 1277   1.512   1.607   1.342  2.1099 -2.3410 -0.4730
  426SOL    HW2 1278   1.527   1.507   1.478  1.6460  1.6895 -1.0334
  427SOL     OW 1279   1.924   2.370   2.044  0.1554  0.2504  0.3075
  427SOL    HW1 1280   1.933   2.313   2.131 -1.3878 -1.0681  2.0663
  427SOL    HW2 1281   1.925   2.473   2.057 -2.0333 -1.9052  3.8463
  428SOL     OW 1282   0.914   3.048   0.126 -0.3011  0.4772  0.0158
  428SOL    HW1 1283   0.957   3.126   0.183 -3.4681 -1.3904 -1.9461
  428SOL    HW2 1284   0.970   2.959   0.134 -0.7751  0.2723  1.5955
  429SOL     OW 1285   1.319   0.059   0.240 -0.4127 -0.0713 -0.1386
  429SOL    HW1 1286   1.407   0.103   0.282  3.7790 -2.2952  1.5715
  429SOL    HW2 1287   1.332   0.026   0.144  0.6430  1.6981  0.4760
  430SOL     OW 1288   2.814   1.504   0.358 -0.3109  0.2789  0.0181
  430SOL    HW1 1289   2.817   1.575   0.278  0.5073  3.6663 -1.1122
  430SOL    HW2 1290   2.805   1.554   0.447  0.6372  0.0414 -0.9241
  431SOL     OW 1291   2.121   1.600   0.909  0.9231  0.0085  0.1959
  431SOL    HW1 1292   2.197   1.669   0.913  0.0308 -1.3598 -3.3661
  431SOL    HW2 1293   2.031   1.642   0.885  1.1528  0.8333  1.7265
  432SOL     OW 1294   2.914   2.302   1.243  0.8868  0.0564  0.2067
  432SOL    HW1 1295   2.849   2.226   1.262  0.3453 -2.1793 -1.7175
  432SOL    HW2 1296   2.981   2.297   1.317 -0.7368  1.4736 -0.4769
  433SOL     OW 1297   1.826   0.336   0.801 -0.1390  0.4102 -0.1113
  433SOL    HW1 1298   1.726   0.363   0.790 -1.7656  0.6564  1.7276
  433SOL    HW2 1299   1.852   0.281   0.888  0.2031  0.8218 -1.3999
  434SOL     OW 1300   1.545   0.272   0.704 -0.1154 -0.0563 -0.0282
  434SOL    HW1 1301   1.531   0.369   0.677  0.7974  1.5258 -1.1185
  434SOL    HW2 1302   1.561   0.264   0.811 -0.4520 -0.2408 -1.1788
  435SOL     OW 1303   1.440   1.535   2.110 -0.1262 -0.5706 -0.0118
  435SOL    HW1 1304   1.400   1.504   2.205 -0.6806 -0.7285 -0.3517
  435SOL    HW2 1305   1.367   1.574   2.044  0.7831 -0.4204 -3.3255
  436SOL     OW 1306   1.655   2.666   2.386  0.4742 -0.5686  0.6025
  436SOL    HW1 1307   1.654   2.766   2.422  0.7028  0.3478  2.3881
  436SOL    HW2 1308   1.615   2.602   2.461 -1.9894 -1.5135 -1.3444
  437SOL     OW 1309   1.096   2.915   0.864  0.0238  0.1261  0.9115
  437SOL    HW1 1310   1.027   2.990   0.867  1.3032 -1.9932 -0.8510
  437SOL    HW2 1311   1.134   2.904   0.960  0.9928  0.0850  1.0366
  438SOL     OW 1312   1.047   2.513   1.287  0.8331  0.5624 -0.0116
  438SOL    HW1 1313   1.086   2.557   1.370  0.7294 -4.7266  1.4043
  438SOL    HW2 1314   1.022   2.413   1.309  1.0773  0.2668  1.7712
  439SOL     OW 1315   0.715   1.691   1.051  0.3879  0.3549 -0.2508
  439SOL    HW1 1316   0.741   1.789   1.030 -0.6547  1.8909  1.2130
  439SOL    HW2 1317   0.616   1.695   1.080 -0.5258 -0.8469  5.7057
  440SOL     OW 1318   1.039   2.433   2.042  0.1383 -0.7379  0.2813
  440SOL    HW1 1319   1.000   2.476   1.952 -1.2031  1.5862  0.7044
  440SOL    HW2 1320   1.142   2.432   2.043  1.1505  0.8639 -0.6487
  441SOL     OW 1321   0.347   2.718   1.349 -0.3136 -0.0548  1.2698
  441SOL    HW1 1322   0.406   2.634   1.371  0.8034 -1.5979  3.1729
  441SOL    HW2 1323   0.362   2.759   1.257  0.8780  0.2556 -0.9037
  442SOL     OW 1324   2.250   0.668   2.607 -0.2683 -0.4293  0.4242
  442SOL    HW1 1325   2.267   0.577   2.560 -1.2148 -0.1545  1.6467
  442SOL    HW2 1326   2.155   0.708   2.578 -0.4962  2.3850 -2.6084
  443SOL     OW 1327   1.282   2.634   2.231 -0.1292  1.0143  0.3345
  443SOL    HW1 1328   1.314   2.537   2.240 -0.4669 -1.1508  0.5209
  443SOL    HW2 1329   1.196   2.654   2.293 -0.8211  2.1207  0.3677
  444SOL     OW 1330   1.021   1.203   1.471 -0.1032  0.0034  0.5658
  444SOL    HW1 1331   1.118   1.202   1.454 -2.1602  0.5400 -0.4376
  444SOL    HW2 1332   0.990   1.295   1.501 -0.6411 -2.5845  1.3702
  445SOL     OW 1333   0.167   2.278   2.044 -0.3611  0.3519 -0.8237
  445SOL    HW1 1334   0.072   2.289   2.007 -1.9027 -0.1483 -0.5209
  445SOL    HW2 1335   0.165   2.240   2.136 -0.8942  2.7210 -3.2649
  446SOL     OW 1336   0.148   1.950   2.357 -0.0373 -0.1013  0.5459
  446SOL    HW1 1337   0.095   2.035   2.378  2.7787  2.3399 -2.7067
  446SOL    HW2 1338   0.128   1.897   2.268  1.0276  1.2212 -0.2852
  447SOL     OW 1339   1.259   1.705   1.974 -0.3123 -0.0578  0.7554
  447SOL    HW1 1340   1.168   1.755   1.979 -1.6861 -2.5289 -2.1817
  447SOL    HW2 1341   1.343   1.757   2.005 -0.2833 -0.8169  1.5119
  448SOL     OW 1342   0.210   1.444   2.057  0.1928 -0.0331 -0.0528
  448SOL    HW1 1343   0.199   1.531   2.002  1.3622 -0.3130 -0.4321
  448SOL    HW2 1344   0.141   1.435   2.125  2.9920  0.2395 -0.5451
  449SOL     OW 1345   1.884   2.914   0.800  0.2181 -0.0119 -0.2551
  449SOL    HW1 1346   1.860   2.932   0.897 -0.2090 -0.5763  1.0655
  449SOL    HW2 1347   1.927   2.821   0.781 -3.2150  1.7942 -0.3390
  450SOL     OW 1348   2.253   1.450   0.675  0.4832  0.5913  0.3552
  450SOL    HW1 1349   2.217   1.512   0.750  3.3732  1.9564  0.5533
  450SOL    HW2 1350   2.308   1.505   0.611 -2.4398 -2.4813 -1.7602
  451SOL     OW 1351   1.391   3.038   1.492 -0.5095  0.0103 -0.0068
  451SOL    HW1 1352   1.317   3.106   1.503  3.3909 -0.9332 -0.2848
  451SOL    HW2 1353   1.430   2.985   1.579 -0.7258  0.7655 -1.2612
  452SOL     OW 1354   2.679   2.295   2.263 -0.5044 -0.3368  0.2972
  452SOL    HW1 1355   2.640   2.392   2.255 -1.3468 -2.2029  0.9547
  452SOL    HW2 1356   2.664   2.252   2.355 -1.7636 -0.1755 -0.5079
  453SOL     OW 1357   2.482   2.666   3.060  0.4447  0.6640 -0.0718
  453SOL    HW1 1358   2.401   2.729   3.068 -1.4718 -0.7090  0.5906
  453SOL    HW2 1359   2.454   2.580   3.000  1.7543 -2.4830 -5.9391
  454SOL     OW 1360   0.925   1.179   1.995 -0.2063 -0.3255  0.3262
  454SOL    HW1 1361   0.927   1.143   1.899  1.5800 -1.8197  2.5251
  454SOL    HW2 1362   1.005   1.237   2.025 -1.9650 -1.7255  0.2755
  455SOL     OW 1363   0.654   2.662   2.803 -0.2854  0.0416 -0.1539
  455SOL    HW1 1364   0.750   2.698   2.808  1.0164 -1.5241  0.7712
  455SOL    HW2 1365   0.637   2.567   2.852  3.1891 -0.5411  1.1202
  456SOL     OW 1366   0.371   1.943   0.219 -0.7434 -0.0663  0.0500
  456SOL    HW1 1367   0.473   1.951   0.238  0.0056 -0.1248  1.5844
  456SOL    HW2 1368   0.329   2.035   0.196  2.2769  2.4998 -0.0179
  457SOL     OW 1369   0.421   2.768   0.651  0.5186  0.6731  0.1310
  457SOL    HW1 1370   0.424   2.851   0.593 -0.2375  0.8389 -0.4037
  457SOL    HW2 1371   0.515   2.756   0.703 -0.2873 -2.3707  0.9135
  458SOL     OW 1372   2.869   0.028   1.237 -0.8564  0.0443 -0.0138
  458SOL    HW1 1373   2.937   0.108   1.227 -1.5417 -1.5023 -1.8902
  458SOL    HW2 1374   2.860  -0.022   1.147 -2.3577 -3.2737  1.9164
  459SOL     OW 1375   2.229   2.491   0.789  0.6381  0.3601  0.2516
  459SOL    HW1 1376   2.257   2.550   0.869  1.0535 -2.6689 -0.1427
  459SOL    HW2 1377   2.295   2.487   0.711 -1.6187  1.3142  1.0107
  460SOL     OW 1378   1.193   2.064   2.765  0.1733  0.3969  0.2821
  460SOL    HW1 1379   1.269   2.095   2.702 -0.8398  0.7454  0.8989
  460SOL    HW2 1380   1.210   1.971   2.808  0.0876  1.1092 -0.1920
  461SOL     OW 1381   0.420   2.114   2.706 -0.4392 -0.0958  0.1862
  461SOL    HW1 1382   0.378   2.038   2.652  0.7094  2.5712  0.7965
  461SOL    HW2 1383   0.444   2.097   2.802 -0.1199  0.4912 -0.5798
  462SOL     OW 1384   0.942   1.019   1.755  0.0370 -0.0063 -0.0434
  462SOL    HW1 1385   0.928   0.943   1.689  0.7638 -0.3927 -1.1918
  462SOL    HW2 1386   0.956   1.109   1.710  0.7107  0.8307 -0.7877
  463SOL     OW 1387   0.453   0.847   0.481  0.6689 -0.0189  0.3360
  463SOL    HW1 1388   0.499   0.763   0.440 -1.8836 -1.3346 -0.5293
  463SOL    HW2 1389   0.353   0.836   0.493 -1.3910  1.3004 -1.5404
  464SOL     OW 1390   0.604   2.349   2.188 -0.5580 -0.0511 -0.3632
  464SOL    HW1 1391   0.553   2.394   2.265  0.1042 -2.6255 -2.4822
  464SOL    HW2 1392   0.547   2.338   2.103  0.4971 -0.5730  1.4264
  465SOL     OW 1393   0.237   0.900   0.831  0.2667 -0.5368  0.2757
  465SOL    HW1 1394   0.152   0.905   0.777  0.9426  0.7428  2.6555
  465SOL    HW2 1395   0.287   0.817   0.799 -0.3102  0.0598 -1.3725
  466SOL     OW 1396   1.376   1.141   1.002  0.3392  0.0549 -0.3073
  466SOL    HW1 1397   1.391   1.240   0.977 -0.2465 -1.1227 -1.1428
  466SOL    HW2 1398   1.288   1.128   1.055  0.5264  2.3353 -0.0657
  467SOL     OW 1399   0.575   0.407   2.485 -0.2465 -0.0777 -0.3048
  467SOL    HW1 1400   0.535   0.502   2.495 -0.2031 -1.8030  0.9673
  467SOL    HW2 1401   0.573   0.355   2.577 -0.1619 -2.7383  1.0559
  468SOL     OW 1402   0.431   2.263   1.608 -0.3167 -0.0781 -0.0817
  468SOL    HW1 1403   0.518   2.302   1.646 -2.0952  4.0127 -1.6326
  468SOL    HW2 1404   0.446   2.235   1.509  1.6465  0.3328  1.2183
  469SOL     OW 1405   1.404   1.322   1.282  0.3777 -0.2308  0.1238
  469SOL    HW1 1406   1.445   1.234   1.262  0.0279  0.2235  0.2901
  469SOL    HW2 1407   1.479   1.398   1.291 -2.0661 -1.7138  1.1600
  470SOL     OW 1408   3.024   1.772   0.736 -0.0891  0.1802 -0.0202
  470SOL    HW1 1409   3.088   1.825   0.682 -0.5366  0.0330 -2.2822
  470SOL    HW2 1410   3.071   1.724   0.815 -1.1594 -2.8839 -0.5563
  471SOL     OW 1411   2.556   1.378   2.164  0.0973 -0.5837  0.0237
  471SOL    HW1 1412   2.534   1.277   2.180  1.2935 -1.7055 -0.7423
  471SOL    HW2 1413   2.643   1.404   2.215 -2.2685  1.5484  0.6303
  472SOL     OW 1414   1.129   2.434   0.067  0.2884 -0.4129 -0.0215
  472SOL    HW1 1415   1.202   2.443   0.139  0.4978 -1.3087 -1.6581
  472SOL    HW2 1416   1.050   2.368   0.089  0.3188 -1.9153 -1.5497
  473SOL     OW 1417   1.076   1.504   1.000  0.7448  0.0258  0.1481
  473SOL    HW1 1418   0.976   1.488   0.971 -0.6508  0.0150  1.0662
  473SOL    HW2 1419   1.091   1.464   1.093  1.9140 -0.9791 -2.4587
  474SOL     OW 1420   0.653   1.285   0.545  0.2834  0.2601 -0.0932
  474SOL    HW1 1421   0.577   1.228   0.506  0.9735 -1.1132  0.0007
  474SOL    HW2 1422   0.730   1.228   0.584 -2.7487 -1.2239  2.6564
  475SOL     OW 1423   2.802   0.040   0.805 -0.2001 -0.4642 -0.3924
  475SOL    HW1 1424   2.887   0.102   0.815  2.2495 -3.3966 -1.0038
  475SOL    HW2 1425   2.710   0.077   0.842 -2.0072 -0.8960 -0.8325
  476SOL     OW 1426   0.989   3.036   1.787  0.2926 -0.4371 -0.3582
  476SOL    HW1 1427   1.077   3.088   1.776 -1.8525 -1.7904  0.8770
  476SOL    HW2 1428   0.950   3.009   1.697  0.7289 -1.0539 -0.7988
  477SOL     OW 1429   1.464   0.298   2.396 -0.0789  0.5085 -0.1611
  477SOL    HW1 1430   1.463   0.307   2.499  0.0581 -1.9732  0.3349
  477SOL    HW2 1431   1.556   0.263   2.364 -2.1245 -0.5741 -0.0523
  478SOL     OW 1432   2.228   1.880   0.288 -0.8457 -0.6694 -0.1910
  478SOL    HW1 1433   2.170   1.796   0.306  3.4138  0.9026 -1.3964
  478SOL    HW2 1434   2.302   1.875   0.216  0.6872 -0.3972 -2.9986
  479SOL     OW 1435   1.233   0.967   2.909  0.1510  0.0397  0.1007
  479SOL    HW1 1436   1.330   0.979   2.872  1.3173 -1.1687  0.5125
  479SOL    HW2 1437   1.190   0.880   2.872 -1.0984 -0.4244  1.2950
  480SOL     OW 1438   2.702   2.312   0.381 -0.0082  0.5966 -0.2680
  480SOL    HW1 1439   2.708   2.270   0.477 -1.5459 -1.3146  2.1479
  480SOL    HW2 1440   2.631   2.260   0.323 -0.6676  0.4610 -0.3738
  481SOL     OW 1441   1.061   1.188   0.854 -0.1505  0.2849 -0.7780
  481SOL    HW1 1442   1.025   1.287   0.838  0.4085 -0.2771 -0.6776
  481SOL    HW2 1443   1.065   1.165   0.957 -0.3993  0.8476 -0.2160
  482SOL     OW 1444   1.573   0.294   2.000  0.2273 -0.1801  0.2250
  482SOL    HW1 1445   1.581   0.385   1.942  1.4232  0.8922  0.9960
  482SOL    HW2 1446   1.667   0.249   2.015 -0.1004 -3.3209 -2.7082
  483SOL     OW 1447   0.216   2.340   1.222 -0.3889  0.1807  0.2797
  483SOL    HW1 1448   0.200   2.416   1.294 -2.7204 -0.7798  3.5232
  483SOL    HW2 1449   0.207   2.371   1.124 -1.2508  0.3066 -1.6550
  484SOL     OW 1450   1.757   1.057   1.337  0.0534  0.1639  0.4748
  484SOL    HW1 1451   1.794   0.993   1.410  0.5437  0.0800  2.0855
  484SOL    HW2 1452   1.775   1.158   1.355  0.4549 -0.7797 -3.7509
  485SOL     OW 1453   0.751   0.740   1.828  0.0990  0.3537 -0.0941
  485SOL    HW1 1454   0.726   0.757   1.732  1.4872 -2.4289  0.4310
  485SOL    HW2 1455   0.852   0.732   1.840  0.8707  2.9800  1.2589
  486SOL     OW 1456   0.827   1.876   2.412 -0.1222 -0.5212 -0.0062
  486SOL    HW1 1457   0.849   1.919   2.502  1.7391  0.1761  0.6552
  486SOL    HW2 1458   0.775   1.937   2.343  0.7762 -0.6634  0.4160
  487SOL     OW 1459   1.793   1.567   1.039  0.1794 -0.3632 -0.3422
  487SOL    HW1 1460   1.869   1.503   1.063 -0.3358  1.4934 -0.2693
  487SOL    HW2 1461   1.818   1.616   0.950  1.3007  0.6479  0.4134
  488SOL     OW 1462   2.971   0.841   2.294  0.7270  0.4523  0.1967
  488SOL    HW1 1463   3.029   0.760   2.267 -0.9085 -1.1036 -1.3928
  488SOL    HW2 1464   2.916   0.820   2.377 -0.6004  1.2624 -0.4030
  489SOL     OW 1465   2.764   0.342   1.255  0.2073  0.4537 -0.7955
  489SOL    HW1 1466   2.720   0.298   1.338 -0.8553  1.5604 -1.3921
  489SOL    HW2 1467   2.867   0.331   1.248 -1.1419  1.0674  0.9817
  490SOL     OW 1468   1.436   2.903   2.821  0.3089 -0.0291 -0.0825
  490SOL    HW1 1469   1.496   2.825   2.853 -0.8550  0.9546  2.8837
  490SOL    HW2 1470   1.450   2.931   2.721 -1.1374  0.3901 -1.3138
  491SOL     OW 1471   1.737   1.498   2.708 -0.1339  0.0098 -0.2642
  491SOL    HW1 1472   1.700   1.433   2.782  1.0241  1.2539 -2.1935
  491SOL    HW2 1473   1.827   1.549   2.737 -1.1729  0.2306 -0.2865
  492SOL     OW 1474   0.559   2.065   0.661  0.7522  0.0630 -0.2640
  492SOL    HW1 1475   0.588   2.038   0.755  0.3602 -0.0574 -1.4558
  492SOL    HW2 1476   0.501   2.158   0.668  0.6929  2.5459  1.5584
  493SOL     OW 1477   0.472   1.382   2.095 -0.3020  0.5879 -0.3510
  493SOL    HW1 1478   0.372   1.411   2.087 -0.2530 -1.2681  0.1814
  493SOL    HW2 1479   0.474   1.276   2.096 -0.7333 -0.8330  0.1557
  494SOL     OW 1480   2.697   2.567   0.094  0.1078 -0.6518  0.2643
  494SOL    HW1 1481   2.727   2.604   0.185 -1.9993 -1.4411  0.5458
  494SOL    HW2 1482   2.614   2.617   0.057 -0.2802  0.3922  0.4653
  495SOL     OW 1483   2.534   2.818   2.596 -0.2733  0.2802 -0.0216
  495SOL    HW1 1484   2.559   2.718   2.628  1.5853 -1.7485 -0.1756
  495SOL    HW2 1485   2.620   2.864   2.555 -0.3736  0.1553 -3.6501
  496SOL     OW 1486   1.977   2.315   0.814 -0.3115  0.0008 -0.0209
  496SOL    HW1 1487   2.061   2.379   0.832  0.9062  1.2383 -0.2077
  496SOL    HW2 1488   1.987   2.223   0.853  0.4004 -0.0510  0.2231
  497SOL     OW 1489   0.165   2.998   2.381 -0.6082  0.0376 -0.3837
  497SOL    HW1 1490   0.144   3.070   2.459 -0.0147  2.3586  1.9616
  497SOL    HW2 1491   0.219   3.041   2.301  1.1741 -0.3198 -2.9954
  498SOL     OW 1492   1.129   1.371   1.254  0.7014  0.2508  0.2438
  498SOL    HW1 1493   1.232   1.356   1.270 -2.0545 -4.0083  2.5060
  498SOL    HW2 1494   1.087   1.419   1.336  1.6432  1.4884  2.4222
  499SOL     OW 1495   0.629   1.792   0.322  0.2671 -0.4470 -0.5376
  499SOL    HW1 1496   0.675   1.738   0.247  0.4626 -2.0892 -1.1807
  499SOL    HW2 1497   0.695   1.854   0.364 -2.5168 -1.9457  1.0631
  500SOL     OW 1498   1.503   2.880   1.689 -0.5483 -0.1187  0.8067
  500SOL    HW1 1499   1.550   2.845   1.774 -1.4166 -1.8767  0.1161
  500SOL    HW2 1500   1.533   2.819   1.607  0.1835 -0.3838 -2.2045
  501SOL     OW 1501   0.780   1.141   2.292 -0.0773 -0.7908  0.0289
  501SOL    HW1 1502   0.711   1.072   2.310  2.0707  3.7945  0.4259
  501SOL    HW2 1503   0.826   1.127   2.202 -0.2797 -1.4523 -0.8864
  502SOL     OW 1504   2.606   0.926   1.780  0.4238  0.1508 -0.2539
  502SOL    HW1 1505   2.610   0.948   1.676 -1.2865 -0.2972 -0.2686
  502SOL    HW2 1506   2.580   0.828   1.799  1.0156  1.7096 -0.3704
  503SOL     OW 1507   1.293   0.137   0.641 -0.1358  0.0012 -0.6677
  503SOL    HW1 1508   1.224   0.213   0.661 -1.9508  1.6707  0.2630
  503SOL    HW2 1509   1.389   0.159   0.673  1.7066 -0.6439  0.9588
  504SOL     OW 1510   3.027   2.307   1.517 -0.7189  0.3060 -0.9331
  504SOL    HW1 1511   2.984   2.399   1.533  1.0229  0.4432 -1.2890
  504SOL    HW2 1512   3.061   2.258   1.604  1.3156 -0.3971  2.7582
  505SOL     OW 1513   2.304   1.182   1.435 -0.6465 -0.1296 -0.6438
  505SOL    HW1 1514   2.309   1.206   1.331  1.2422  1.2211 -2.5888
  505SOL    HW2 1515   2.376   1.233   1.496 -2.1988 -0.2873 -0.2767
  506SOL     OW 1516   1.964   0.177   1.850 -0.6341  0.4025 -0.5758
  506SOL    HW1 1517   2.048   0.118   1.847  0.4393  1.6459 -1.3823
  506SOL    HW2 1518   1.985   0.273   1.886  1.7903  0.1050 -0.0982
  507SOL     OW 1519   0.568   0.720   2.214  0.6394  0.1064  0.0107
  507SOL    HW1 1520   0.512   0.720   2.128  0.2145 -2.4268  0.3933
  507SOL    HW2 1521   0.626   0.628   2.222 -0.2316  1.4550  3.0707
  508SOL     OW 1522   0.326   1.677   0.789  0.0082 -0.5786 -0.1328
  508SOL    HW1 1523   0.372   1.741   0.716  0.1250  0.5868 -2.0640
  508SOL    HW2 1524   0.275   1.728   0.867 -0.6520  1.3231  1.9956
  509SOL     OW 1525   1.285   1.212   2.487  0.3708 -0.5385  0.0362
  509SOL    HW1 1526   1.310   1.194   2.387  1.2627 -1.7948 -1.9659
  509SOL    HW2 1527   1.182   1.210   2.494  0.7511  0.4297  0.7979
  510SOL     OW 1528   1.324   2.050   2.227  0.3465  0.3949 -0.0237
  510SOL    HW1 1529   1.325   2.100   2.135  1.1132  2.2666  1.0773
  510SOL    HW2 1530   1.246   1.978   2.238  3.3059  1.1710 -2.4037
  511SOL     OW 1531   3.015   2.747   1.289  0.3205 -0.4637 -0.1837
  511SOL    HW1 1532   3.051   2.792   1.202  0.5384 -0.7944 -1.0907
  511SOL    HW2 1533   2.907   2.741   1.287 -2.5575  1.1893 -3.0797
  512SOL     OW 1534   2.380   0.417   1.386  0.3707 -0.1706  0.6465
  512SOL    HW1 1535   2.280   0.446   1.403 -0.1275  0.6853  0.8907
  512SOL    HW2 1536   2.381   0.332   1.321 -1.0640  0.1884 -1.0444
  513SOL     OW 1537   2.596   2.148   0.934  0.1371  0.1162  0.2989
  513SOL    HW1 1538   2.529   2.197   0.866 -2.5448 -0.3287  0.2854
  513SOL    HW2 1539   2.685   2.125   0.888  0.0769  1.8266  0.4512
  514SOL     OW 1540   0.665   2.712   0.415  0.3447  0.0995 -0.6635
  514SOL    HW1 1541   0.680   2.760   0.326  2.1222 -0.5197  1.3398
  514SOL    HW2 1542   0.695   2.767   0.499  0.0875  0.5403  1.3650
  515SOL     OW 1543   1.927   1.354   2.416 -0.2203  0.3758 -0.1531
  515SOL    HW1 1544   1.930   1.307   2.319  2.5940 -1.6977 -2.1371
  515SOL    HW2 1545   1.859   1.311   2.482  1.6838 -0.2223 -1.2412
  516SOL     OW 1546   0.263   0.276   1.878  0.5616  0.1745  0.0843
  516SOL    HW1 1547   0.356   0.239   1.875 -0.9793 -0.1023 -0.5069
  516SOL    HW2 1548   0.186   0.209   1.851 -0.7570  1.6177  1.8897
  517SOL     OW 1549   0.482   0.165   1.167  0.9202  0.2500 -0.0835
  517SOL    HW1 1550   0.548   0.126   1.242  2.0177 -0.8681  1.8402
  517SOL    HW2 1551   0.394   0.109   1.155 -3.4005 -1.6626 -0.1778
  518SOL     OW 1552   2.148   3.054   1.793  0.2192  0.0323  0.1355
  518SOL    HW1 1553   2.210   3.142   1.780 -0.4555  5.0026 -4.4643
  518SOL    HW2 1554   2.142   2.998   1.703 -1.5582  0.3334 -2.5360
  519SOL     OW 1555   2.344   2.175   2.520 -0.3517 -0.2914  0.1037
  519SOL    HW1 1556   2.255   2.167   2.575 -1.4629 -1.7725 -1.1763
  519SOL    HW2 1557   2.395   2.269   2.528  3.8887 -0.2524 -1.0086
  520SOL     OW 1558   1.849   2.746   1.695 -0.1514 -0.1752  0.7855
  520SOL    HW1 1559   1.773   2.685   1.727  3.2817 -0.4908  0.9712
  520SOL    HW2 1560   1.937   2.685   1.672 -0.3684 -3.0315 -2.7090
  521SOL     OW 1561   0.552   0.042   2.131 -0.4675 -0.1604 -0.7490
  521SOL    HW1 1562   0.456   0.025   2.165  0.1113  0.1553 -0.6392
  521SOL    HW2 1563   0.632   0.002   2.187  2.5993  0.1042  1.7851
  522SOL     OW 1564   0.233   1.865   1.461 -0.1044  0.2498  0.0913
  522SOL    HW1 1565   0.241   1.928   1.546 -0.1776  0.6034 -2.0798
  522SOL    HW2 1566   0.229   1.928   1.379  1.3561 -0.2537  0.0294
  523SOL     OW 1567   2.135   2.921   1.562  0.3556  0.2065 -0.3701
  523SOL    HW1 1568   2.202   2.846   1.575  0.7631  0.1215 -1.0190
  523SOL    HW2 1569   2.067   2.901   1.482  2.4849 -1.9981 -0.7203
  524SOL     OW 1570   0.217   2.761   2.798 -0.2271  0.6096  0.6281
  524SOL    HW1 1571   0.187   2.846   2.845  0.0823 -2.4122 -2.6769
  524SOL    HW2 1572   0.300   2.784   2.738 -0.1173  2.0032 -0.6036
  525SOL     OW 1573   2.127   2.045   0.473 -0.2572  0.2294 -0.3844
  525SOL    HW1 1574   2.169   2.032   0.569 -0.2086 -0.4439  2.3657
  525SOL    HW2 1575   2.161   1.980   0.399 -2.0819  2.4958  0.4959
  526SOL     OW 1576   0.438   1.531   1.798 -0.4381  0.1046  0.4143
  526SOL    HW1 1577   0.451   1.522   1.900  3.5107  0.1646  4.7587
  526SOL    HW2 1578   0.463   1.442   1.752  1.4862 -1.5451  2.4341
  527SOL     OW 1579   1.060   2.937   1.229  0.4182  0.0426  0.3853
  527SOL    HW1 1580   1.134   2.868   1.257 -0.3670 -0.8631  3.6562
  527SOL    HW2 1581   1.111   3.027   1.229  0.1016 -1.1562 -1.0823
  528SOL     OW 1582   1.330   2.359   0.563  0.7027 -0.3584 -0.0972
  528SOL    HW1 1583   1.381   2.274   0.548  1.4838  0.5388 -0.5196
  528SOL    HW2 1584   1.363   2.409   0.651  1.1327 -0.1038 -1.6689
  529SOL     OW 1585   1.889   1.747   0.808 -0.1243 -0.4158 -0.0348
  529SOL    HW1 1586   1.844   1.744   0.714 -0.3186  0.9699 -1.4558
  529SOL    HW2 1587   1.905   1.847   0.842 -0.7619  1.7628 -0.6009
  530SOL     OW 1588   0.443   2.487   0.194  0.0924  0.0661  0.1505
  530SOL    HW1 1589   0.474   2.410   0.255 -3.0766  0.4675 -1.3101
  530SOL    HW2 1590   0.431   2.458   0.098  0.2549 -1.4624 -0.7430
  531SOL     OW 1591   1.855   1.031   1.064  0.0703  0.2874  0.3898
  531SOL    HW1 1592   1.800   0.981   0.988  0.6478 -1.4391 -4.0539
  531SOL    HW2 1593   1.826   1.009   1.161 -0.4900  0.2383  0.3533
  532SOL     OW 1594   0.358   1.200   0.715 -0.5461  0.4700 -0.2916
  532SOL    HW1 1595   0.406   1.181   0.627  0.5657  2.0114 -0.9442
  532SOL    HW2 1596   0.319   1.117   0.765 -2.3627  0.6244  2.0622
  533SOL     OW 1597   1.835   0.045   2.531 -0.4160 -0.3328 -0.1813
  533SOL    HW1 1598   1.935   0.027   2.565  1.7592 -1.8705  1.5823
  533SOL    HW2 1599   1.785   0.118   2.582  0.9283 -1.5993  1.3458
  534SOL     OW 1600   0.242   0.185   1.531 -0.1740 -0.0011 -0.3878
  534SOL    HW1 1601   0.337   0.219   1.516 -1.3164 -0.4711  0.7586
  534SOL    HW2 1602   0.180   0.261   1.556  2.5474 -1.0644 -0.9908
  535SOL     OW 1603   1.900   0.365   0.191 -0.6155 -0.8206  0.0517
  535SOL    HW1 1604   1.936   0.427   0.268 -1.3919 -3.5549 -3.0376
  535SOL    HW2 1605   1.817   0.307   0.207 -1.0682 -0.7004  0.5103
  536SOL     OW 1606   1.247   2.619   0.956 -0.1166  0.4515 -0.6006
  536SOL    HW1 1607   1.306   2.533   0.958 -0.0455  2.3133 -3.6155
  536SOL    HW2 1608   1.171   2.614   0.885 -2.9124  0.9989 -0.5486
  537SOL     OW 1609   0.904   0.205   2.349  0.1667  0.2179  0.0384
  537SOL    HW1 1610   0.957   0.247   2.267  1.8706  3.2417  0.8735
  537SOL    HW2 1611   0.802   0.183   2.332  0.2433 -2.1769  1.6307
  538SOL     OW 1612   1.687   2.352   1.532 -0.3570  0.4086 -0.1580
  538SOL    HW1 1613   1.652   2.258   1.499  1.7506  0.8504 -0.1343
  538SOL    HW2 1614   1.776   2.385   1.493 -0.1527 -0.5415 -1.2226
  539SOL     OW 1615   0.185   1.637   2.705 -0.2629 -0.2049  0.2052
  539SOL    HW1 1616   0.099   1.603   2.654  2.7962  3.4655  2.3985
  539SOL    HW2 1617   0.152   1.698   2.782 -1.0492 -1.2785 -1.8857
  540SOL     OW 1618   2.704   1.710   2.026  0.1407 -0.3742 -0.3289
  540SOL    HW1 1619   2.652   1.638   1.978 -1.5886  0.3624  1.3799
  540SOL    HW2 1620   2.664   1.800   2.028  1.0870 -2.4261 -2.8691
  541SOL     OW 1621   0.456   2.293   3.068 -0.1637  0.1374  0.1049
  541SOL    HW1 1622   0.525   2.223   3.101 -1.3082 -1.5044  1.5766
  541SOL    HW2 1623   0.371   2.242   3.024  1.0713 -3.0368  0.6365
  542SOL     OW 1624   2.190   2.604   0.490  0.3240  0.0166 -0.2743
  542SOL    HW1 1625   2.168   2.674   0.421  1.3860 -2.8144  0.9002
  542SOL    HW2 1626   2.139   2.511   0.484 -0.6158 -1.2781 -0.0318
  543SOL     OW 1627   0.993   1.789   1.712 -0.4196  0.0898 -0.0662
  543SOL    HW1 1628   0.996   1.807   1.813  0.1625  2.2127 -1.0022
  543SOL    HW2 1629   0.936   1.860   1.655 -0.8129  3.0468 -1.0359
  544SOL     OW 1630   0.882   0.417   0.182  0.1653 -0.3040  1.1412
  544SOL    HW1 1631   0.953   0.401   0.257 -0.5271 -1.4263  0.6641
  544SOL    HW2 1632   0.925   0.412   0.087 -0.2440  0.3320  2.3048
  545SOL     OW 1633   1.175   1.694   0.603  0.4862 -0.0715 -0.1745
  545SOL    HW1 1634   1.244   1.708   0.680  0.3432  1.3097 -0.2195
  545SOL    HW2 1635   1.214   1.723   0.509  1.2696  1.1910 -0.3758
  546SOL     OW 1636   2.676   1.557   0.020  0.3830 -0.0842  0.1057
  546SOL    HW1 1637   2.731   1.496  -0.043 -0.7652  2.2709  3.4112
  546SOL    HW2 1638   2.588   1.521   0.051  0.5767  1.7698  0.2460
  547SOL     OW 1639   0.545   0.036   2.803 -0.0762  0.2245 -0.2603
  547SOL    HW1 1640   0.598  -0.029   2.741  1.9346  2.5168  2.9122
  547SOL    HW2 1641   0.514  -0.020   2.891 -3.7632  0.5616 -1.3745
  548SOL     OW 1642   2.071   0.858   3.027  0.8250  0.7057  0.4937
  548SOL    HW1 1643   1.984   0.806   3.048  0.8286  0.6915 -1.1349
  548SOL    HW2 1644   2.073   0.959   3.069 -2.8752  3.0988  0.7374
  549SOL     OW 1645   0.620   0.399   0.143  0.6144  0.3383  0.7272
  549SOL    HW1 1646   0.565   0.468   0.088  1.0334  0.0624  0.6084
  549SOL    HW2 1647   0.719   0.420   0.141 -2.0771  4.9599 -3.1518
  550SOL     OW 1648   2.536   2.861   2.887  0.4079 -0.6836  0.3029
  550SOL    HW1 1649   2.522   2.789   2.955  2.7393  0.5051 -0.2840
  550SOL    HW2 1650   2.529   2.837   2.788  0.3402  0.8945  2.6439
  551SOL     OW 1651   0.238   0.827   0.165 -0.2167  1.0086 -0.3910
  551SOL    HW1 1652   0.345   0.825   0.161  1.4998 -2.9871  0.0002
  551SOL    HW2 1653   0.203   0.832   0.264 -0.0866  0.1227 -1.3758
  552SOL     OW 1654   0.802   2.798   1.861 -0.3933 -0.4614  0.8393
  552SOL    HW1 1655   0.759   2.801   1.957 -1.5844  0.7141  1.5136
  552SOL    HW2 1656   0.879   2.875   1.851  1.9340  2.8073  0.2435
  553SOL     OW 1657   3.054   2.554   0.384  0.3481  0.3327 -0.5422
  553SOL    HW1 1658   3.002   2.466   0.360 -1.3713  0.2270  2.5162
  553SOL    HW2 1659   3.023   2.586   0.477 -1.0074 -1.1950 -1.0286
  554SOL     OW 1660   2.169   0.288   0.570  0.7215  0.3540  0.1556
  554SOL    HW1 1661   2.245   0.250   0.511  1.4746 -1.0107 -1.9912
  554SOL    HW2 1662   2.160   0.231   0.658  1.5063  1.0164 -1.7854
  555SOL     OW 1663   0.425   2.916   2.434 -0.6890  0.2566 -0.0525
  555SOL    HW1 1664   0.327   2.940   2.418 -1.1718 -1.3557 -1.5368
  555SOL    HW2 1665   0.447   2.833   2.379 -0.4675 -1.1848  2.3123
  556SOL     OW 1666   0.910   2.303   1.683 -0.2886 -0.1078 -0.6364
  556SOL    HW1 1667   0.949   2.381   1.739 -0.8043  0.0081  1.8383
  556SOL    HW2 1668   0.952   2.292   1.588  0.1580  1.3412 -0.2719
  557SOL     OW 1669   0.168   2.126   0.127 -0.1138 -0.6552  0.6409
  557SOL    HW1 1670   0.084   2.064   0.110 -0.1507  0.2352 -2.0936
  557SOL    HW2 1671   0.189   2.182   0.039 -2.3245  1.3962 -0.3303
  558SOL     OW 1672   2.951   2.305   0.318  0.0659 -0.9074  0.4142
  558SOL    HW1 1673   2.853   2.282   0.349  1.5604  0.7055  2.6504
  558SOL    HW2 1674   2.951   2.308   0.213 -2.6107  0.8531 -1.0062
  559SOL     OW 1675   0.427   2.218   1.354 -0.4461 -0.0101 -0.1516
  559SOL    HW1 1676   0.346   2.246   1.296  2.2543  2.8707 -1.2947
  559SOL    HW2 1677   0.488   2.146   1.307  0.9783 -1.8887 -0.5812
  560SOL     OW 1678   2.079   1.123   3.097  0.3284 -0.7750 -0.0890
  560SOL    HW1 1679   2.059   1.147   2.997  1.2086 -1.0642 -0.9462
  560SOL    HW2 1680   2.002   1.131   3.164  0.7997  1.6913  2.0087
  561SOL     OW 1681   3.058   1.933   0.010  0.4356  0.9547 -0.2663
  561SOL    HW1 1682   2.997   1.854   0.038 -1.8497 -2.9872 -1.2775
  561SOL    HW2 1683   3.003   2.006  -0.041 -3.4085 -0.8098 -1.0314
  562SOL     OW 1684   0.871   2.166   2.395  0.3775 -0.1063 -1.0272
  562SOL    HW1 1685   0.771   2.156   2.400  3.0152  0.2452 -1.8368
  562SOL    HW2 1686   0.905   2.199   2.491  1.5715  0.6379 -0.1555
  563SOL     OW 1687   0.685   2.535   2.579 -0.6526 -0.8349  0.6192
  563SOL    HW1 1688   0.764   2.469   2.579  2.1262 -2.4935  2.5154
  563SOL    HW2 1689   0.658   2.566   2.677 -1.6851  3.0793  0.3606
  564SOL     OW 1690   2.713   1.304   2.842 -0.5129 -0.1588  0.3040
  564SOL    HW1 1691   2.627   1.291   2.901 -1.6482  0.0410  1.1197
  564SOL    HW2 1692   2.760   1.396   2.847  0.4313  0.3030 -1.2296
  565SOL     OW 1693   2.534   1.959   2.587  0.0182 -0.2208 -0.2920
  565SOL    HW1 1694   2.459   2.028   2.561 -0.1731  0.0533 -0.7650
  565SOL    HW2 1695   2.585   1.988   2.672  1.6406 -1.9143 -2.8978
  566SOL     OW 1696   1.966   2.867   1.353 -0.0319  0.0311 -0.6477
  566SOL    HW1 1697   1.930   2.777   1.326 -1.0949  1.3491 -1.9624
  566SOL    HW2 1698   1.980   2.928   1.272  0.1402 -0.2654  0.3342
  567SOL     OW 1699   2.460   0.134   2.226 -0.6214 -0.2555 -0.6030
  567SOL    HW1 1700   2.497   0.130   2.129 -2.0730  0.0725  0.9576
  567SOL    HW2 1701   2.358   0.164   2.234 -0.7694  0.4268  1.4253
  568SOL     OW 1702   1.494   1.833   0.383 -0.0557  0.0343 -0.6607
  568SOL    HW1 1703   1.471   1.873   0.285 -0.6537  0.7201  1.8082
  568SOL    HW2 1704   1.574   1.878   0.424  1.5017 -1.1017 -3.4042
  569SOL     OW 1705   0.316   0.635   0.795 -0.3967 -0.0971 -0.0833
  569SOL    HW1 1706   0.367   0.561   0.735 -0.6589 -1.0812 -3.6835
  569SOL    HW2 1707   0.215   0.600   0.821 -4.4044 -0.0849  3.0056
  570SOL     OW 1708   0.608   0.766   2.836  0.4226  0.0160  0.2487
  570SOL    HW1 1709   0.663   0.764   2.745 -2.2398 -1.2405 -1.3049
  570SOL    HW2 1710   0.640   0.846   2.897  5.7182 -0.1250  1.4030
  571SOL     OW 1711   0.814   3.042   1.098  0.2292  0.2989  0.0586
  571SOL    HW1 1712   0.843   3.090   1.013  1.3016 -0.6095  0.7456
  571SOL    HW2 1713   0.899   3.006   1.143  1.3242  0.5169 -0.5275
  572SOL     OW 1714   1.550   2.586   1.158  0.1937  0.5420  0.0511
  572SOL    HW1 1715   1.495   2.545   1.238 -1.0363  2.5950  2.3172
  572SOL    HW2 1716   1.505   2.672   1.119 -0.4482  2.7141 -1.1747
  573SOL     OW 1717   2.938   0.407   2.085 -0.0386 -0.0912 -0.1377
  573SOL    HW1 1718   2.897   0.317   2.108 -0.8241 -2.0279  1.5043
  573SOL    HW2 1719   2.876   0.478   2.038  1.3252  0.6587 -0.7074
  574SOL     OW 1720   0.230   1.780   1.011  0.0859 -0.4557 -0.7014
  574SOL    HW1 1721   0.208   1.877   0.980 -0.0661  0.4138 -0.9514
  574SOL    HW2 1722   0.154   1.749   1.081 -2.0479  0.0107  0.1936
  575SOL     OW 1723   0.881   2.140   0.996 -0.2039  0.0642 -0.3475
  575SOL    HW1 1724   0.865   2.196   1.081 -2.6512  0.9754 -1.9075
  575SOL    HW2 1725   0.899   2.202   0.915 -1.9403 -2.3224 -0.7955
  576SOL     OW 1726   2.908   2.930   1.729 -0.1579 -0.8862 -0.2702
  576SOL    HW1 1727   2.859   2.856   1.670  0.0782 -0.4772  0.7458
  576SOL    HW2 1728   2.913   3.026   1.685  1.1126 -0.4911 -0.1399
  577SOL     OW 1729   2.563   1.266   3.068 -0.1755  0.3387  0.6222
  577SOL    HW1 1730   2.547   1.163   3.036  0.3796 -0.4672 -0.7430
  577SOL    HW2 1731   2.628   1.271   3.152 -1.7253 -3.0366 -0.0221
  578SOL     OW 1732   1.302   2.681   2.538 -0.5626  0.6935 -0.2208
  578SOL    HW1 1733   1.220   2.689   2.475 -0.6743  0.5985  0.3268
  578SOL    HW2 1734   1.358   2.763   2.524 -0.5767 -3.9016 -1.5918
  579SOL     OW 1735   0.130   2.483   0.187 -0.1122 -0.3162 -0.1756
  579SOL    HW1 1736   0.076   2.511   0.273  0.1588 -1.0305 -0.8564
  579SOL    HW2 1737   0.215   2.431   0.210 -0.2374  0.6681  1.5988
  580SOL     OW 1738   1.010   2.659   0.375  0.1846  0.5525  0.3183
  580SOL    HW1 1739   1.097   2.679   0.323 -0.0816 -3.6630  1.3992
  580SOL    HW2 1740   0.949   2.592   0.322  0.4700  1.9288  1.0166
  581SOL     OW 1741   1.207   2.620   1.494  0.3846  0.3125 -0.3531
  581SOL    HW1 1742   1.285   2.554   1.503  2.0564  2.7885 -1.1315
  581SOL    HW2 1743   1.234   2.710   1.453  2.1485 -0.2657 -0.7899
  582SOL     OW 1744   1.486   0.057   1.854  0.4832  0.3868 -0.0576
  582SOL    HW1 1745   1.509   0.127   1.926  0.8655  1.3351 -0.4399
  582SOL    HW2 1746   1.563   0.044   1.791 -2.6143  0.6003  0.9205
  583SOL     OW 1747   2.454   2.999   0.590  0.1752 -0.6599 -0.7923
  583SOL    HW1 1748   2.491   2.933   0.521  0.4903  0.2580 -0.9200
  583SOL    HW2 1749   2.410   2.938   0.664  0.2930  0.3874 -1.5996
  584SOL     OW 1750   1.574   1.007   2.136  0.2334  0.2438  0.4114
  584SOL    HW1 1751   1.631   1.081   2.092 -1.7066  0.8047 -0.3091
  584SOL    HW2 1752   1.626   0.945   2.205  0.9645 -1.4834 -2.4012
  585SOL     OW 1753   2.095   2.646   2.904 -0.3270 -0.4527 -0.6941
  585SOL    HW1 1754   2.136   2.555   2.879 -3.9242  2.7708  2.5441
  585SOL    HW2 1755   1.998   2.660   2.880 -0.5913  1.6709  0.3689
  586SOL     OW 1756   2.745   0.250   1.561 -0.4423  0.4336  0.5277
  586SOL    HW1 1757   2.804   0.331   1.597  3.4280  2.4403 -2.4395
  586SOL    HW2 1758   2.653   0.237   1.597  1.9212  0.4677 -1.1164
  587SOL     OW 1759   1.964   1.647   2.733 -0.0855 -0.2326 -0.3377
  587SOL    HW1 1760   2.007   1.607   2.650 -2.6162  1.5156  2.7614
  587SOL    HW2 1761   2.021   1.637   2.819  1.2596 -1.1420 -0.8045
  588SOL     OW 1762   0.492   2.729   2.234  0.0980 -0.3168 -0.4861
  588SOL    HW1 1763   0.402   2.711   2.187  1.8651 -1.7764  0.1125
  588SOL    HW2 1764   0.506   2.654   2.307  0.3310 -3.5876 -1.8492
  589SOL     OW 1765   2.139   1.446   2.574 -0.3058  0.1727  0.5377
  589SOL    HW1 1766   2.052   1.404   2.539  0.8658  0.6184  2.6785
  589SOL    HW2 1767   2.216   1.385   2.551 -1.4771 -1.3397 -0.3336
  590SOL     OW 1768   2.368   1.697   2.001  0.0353  0.1271  0.2852
  590SOL    HW1 1769   2.451   1.634   1.999  2.2842  3.0887 -0.0060
  590SOL    HW2 1770   2.365   1.758   2.083  0.0093 -1.7132 -0.6681
  591SOL     OW 1771   1.368   2.469   0.297  0.4711 -0.0734  0.3594
  591SOL    HW1 1772   1.462   2.437   0.269 -1.4118 -1.1340  0.1538
  591SOL    HW2 1773   1.340   2.427   0.388 -1.3544  1.1722 -1.7460
  592SOL     OW 1774   1.704   2.327   0.776  0.3345 -0.1901 -0.1681
  592SOL    HW1 1775   1.680   2.356   0.682  3.6266  1.2577 -0.0224
  592SOL    HW2 1776   1.810   2.343   0.797  1.2252 -2.1341 -0.3574
  593SOL     OW 1777   0.631   0.146   0.034  0.7538 -0.3971  0.6790
  593SOL    HW1 1778   0.725   0.132   0.004 -1.3619 -1.2038  4.5930
  593SOL    HW2 1779   0.623   0.230   0.096 -0.6091 -1.6391 -1.8169
  594SOL     OW 1780   0.923   1.969   2.679 -0.0572 -1.2442  0.1599
  594SOL    HW1 1781   1.020   2.002   2.670 -1.2819  1.7946  0.0703
  594SOL    HW2 1782   0.880   2.014   2.764 -0.5547  2.4051 -1.3179
  595SOL     OW 1783   1.533   0.023   1.078 -0.6134 -0.1861 -0.3268
  595SOL    HW1 1784   1.635   0.010   1.045  1.0145 -0.8793  0.6456
  595SOL    HW2 1785   1.459  -0.006   1.006 -1.0814  1.1144 -1.8571
  596SOL     OW 1786   0.010   1.393   2.241  0.1434  0.3269 -0.2347
  596SOL    HW1 1787  -0.084   1.427   2.242  1.6867  0.8284  1.0240
  596SOL    HW2 1788   0.048   1.393   2.338 -1.4306  1.9404  4.9522
  597SOL     OW 1789   2.072   2.614   1.646 -0.7275 -0.1969 -0.5047
  597SOL    HW1 1790   2.049   2.529   1.598  1.0358  0.6580  0.9595
  597SOL    HW2 1791   2.155   2.609   1.699 -1.3912  1.0707  0.3528
  598SOL     OW 1792   2.506   2.904   1.283 -0.3981  0.2948  0.8280
  598SOL    HW1 1793   2.547   2.952   1.364  0.1629  2.1406  1.3580
  598SOL    HW2 1794   2.576   2.852   1.224  1.1082 -2.4312 -0.0778
  599SOL     OW 1795   2.911   0.375   2.471 -0.2156 -0.0329 -0.2210
  599SOL    HW1 1796   2.995   0.410   2.421 -0.3739  3.5804  2.9837
  599SOL    HW2 1797   2.825   0.411   2.432  0.6867  2.2517  1.0088
  600SOL     OW 1798   2.829   1.089   2.725  0.5761 -0.0980 -0.3511
  600SOL    HW1 1799   2.784   1.002   2.746  0.6420 -0.2816 -1.3500
  600SOL    HW2 1800   2.773   1.168   2.763 -0.6360  0.8605 -1.7451
  601SOL     OW 1801   2.998   1.245   2.022 -0.6805  0.2301 -0.4449
  601SOL    HW1 1802   2.922   1.281   1.960  2.3310 -1.5896  0.6511
  601SOL    HW2 1803   3.030   1.309   2.097 -1.9794 -1.0058  2.7179
  602SOL     OW 1804   1.511   1.727   2.354 -0.4264  0.0561 -0.5295
  602SOL    HW1 1805   1.448   1.640   2.334 -2.1281 -3.5305 -0.9234
  602SOL    HW2 1806   1.608   1.700   2.389 -0.5929 -1.2538  2.4369
  603SOL     OW 1807   0.635   1.255   2.695 -0.0336 -0.1960  0.2582
  603SOL    HW1 1808   0.566   1.242   2.621 -1.8842 -1.0858  0.5387
  603SOL    HW2 1809   0.697   1.173   2.694 -1.5034 -0.2223  0.2491
  604SOL     OW 1810   2.418   0.961   0.158  0.1208 -0.0117 -0.5022
  604SOL    HW1 1811   2.455   1.034   0.095 -1.1582  0.1260 -0.3370
  604SOL    HW2 1812   2.403   0.870   0.111  0.1759 -3.1800 -0.2343
  605SOL     OW 1813   2.692   1.147   1.959  0.0683  0.2826  0.0530
  605SOL    HW1 1814   2.685   1.068   1.888  0.9607  1.8459  1.8897
  605SOL    HW2 1815   2.673   1.115   2.057 -1.2210  2.3472  0.7716
  606SOL     OW 1816   1.527   2.522   2.621  0.4541 -0.3634  0.4589
  606SOL    HW1 1817   1.449   2.580   2.591  0.3325  0.2679 -0.9481
  606SOL    HW2 1818   1.516   2.423   2.586 -1.4408  1.9861  0.3789
  607SOL     OW 1819   1.353   1.593   0.433 -0.1034  0.4305 -0.4672
  607SOL    HW1 1820   1.312   1.585   0.531  1.1325 -1.3571 -0.7484
  607SOL    HW2 1821   1.386   1.686   0.404  3.4404 -2.6380  1.6116
  608SOL     OW 1822   1.408   2.886   0.461 -0.0254 -0.3786  0.0290
  608SOL    HW1 1823   1.483   2.941   0.422 -0.6394 -0.8889  0.9527
  608SOL    HW2 1824   1.321   2.941   0.473 -0.1520 -0.6838 -1.8535
  609SOL     OW 1825   1.285   1.376   0.279 -0.2921 -0.4536  0.1411
  609SOL    HW1 1826   1.304   1.469   0.328  1.7076  2.6570 -1.0509
  609SOL    HW2 1827   1.185   1.346   0.292  1.3958  2.0234 -0.2267
  610SOL     OW 1828   2.959   1.119   2.279  0.0404  0.0216 -0.5275
  610SOL    HW1 1829   2.978   1.015   2.284  1.7245  1.3146 -1.5046
  610SOL    HW2 1830   2.959   1.156   2.183  0.4921 -0.2926  0.6376
  611SOL     OW 1831   2.519   0.295   1.151  0.0244 -0.1965 -0.3658
  611SOL    HW1 1832   2.471   0.215   1.201 -0.6772 -0.2470  1.4687
  611SOL    HW2 1833   2.613   0.319   1.186 -0.7163  0.2345  0.5940
  612SOL     OW 1834   0.769   2.213   1.263  0.8473  0.7498 -0.0202
  612SOL    HW1 1835   0.718   2.127   1.240  1.3269  0.5933 -0.5265
  612SOL    HW2 1836   0.738   2.291   1.200 -0.2469 -0.0957  0.1097
  613SOL     OW 1837   0.886   1.470   2.386  0.0491  0.1783  0.8004
  613SOL    HW1 1838   0.944   1.540   2.339 -2.3231  0.9190 -0.6373
  613SOL    HW2 1839   0.853   1.393   2.325 -4.2529  0.6919 -0.6064
  614SOL     OW 1840   1.668   1.609   1.837  0.0947  0.3847  0.6353
  614SOL    HW1 1841   1.617   1.699   1.828 -0.3042 -0.3859  0.1519
  614SOL    HW2 1842   1.721   1.601   1.926  0.1377  0.1704  1.5797
  615SOL     OW 1843   0.840   1.290   1.710  0.5440 -0.1693 -0.3626
  615SOL    HW1 1844   0.777   1.277   1.631  0.0398 -1.2966 -1.7198
  615SOL    HW2 1845   0.873   1.384   1.711  1.2153  0.9488 -0.4897
  616SOL     OW 1846   1.115   1.569   2.204  0.1759  0.7535  0.2089
  616SOL    HW1 1847   1.027   1.567   2.152 -0.9670  1.4251 -1.1912
  616SOL    HW2 1848   1.144   1.667   2.217  0.1016  1.4613  2.3799
  617SOL     OW 1849   2.953   1.531   1.614 -0.7079 -0.3169  0.0822
  617SOL    HW1 1850   2.956   1.450   1.676 -1.3932 -1.9544 -1.9642
  617SOL    HW2 1851   3.015   1.526   1.528  0.4823  1.5445 -2.8492
  618SOL     OW 1852   1.880   2.092   1.359  0.2057 -0.3153 -0.2825
  618SOL    HW1 1853   1.863   2.170   1.293  3.6598  1.7153  0.9504
  618SOL    HW2 1854   1.868   2.003   1.314  1.5544  2.4791  2.1408
  619SOL     OW 1855   1.757   0.458   2.375 -0.0321 -0.2253  0.0139
  619SOL    HW1 1856   1.708   0.521   2.305  1.0474  2.4828  1.9118
  619SOL    HW2 1857   1.750   0.357   2.343  1.2733  1.9544 -1.6220
  620SOL     OW 1858   2.300   2.876   0.770 -0.0022  0.9128 -0.0460
  620SOL    HW1 1859   2.245   2.952   0.803  0.7937 -2.5973 -0.9550
  620SOL    HW2 1860   2.303   2.793   0.833  0.9049 -0.9795  0.5876
  621SOL     OW 1861   2.121   1.821   1.355 -0.0765 -1.2233  0.0537
  621SOL    HW1 1862   2.138   1.843   1.454 -0.8804  0.8850  0.9937
  621SOL    HW2 1863   2.065   1.733   1.341  0.7095 -0.2243  0.5455
  622SOL     OW 1864   2.298   0.935   1.848 -0.7764 -0.3633 -0.3041
  622SOL    HW1 1865   2.404   0.936   1.843 -2.2019  2.0061 -0.1649
  622SOL    HW2 1866   2.266   0.840   1.876 -2.0062 -2.2190  0.9233
  623SOL     OW 1867   1.347   0.792   2.430  0.0718 -0.0800 -0.6091
  623SOL    HW1 1868   1.265   0.732   2.450  5.3472  0.4601  1.5654
  623SOL    HW2 1869   1.333   0.872   2.366 -1.3178 -0.6028  1.1420
  624SOL     OW 1870   0.535   0.642   3.080  0.0293  0.2017 -0.0585
  624SOL    HW1 1871   0.575   0.675   2.987  2.3484 -0.3809  1.3251
  624SOL    HW2 1872   0.546   0.715   3.151 -2.4550  0.4766 -3.4096
  625SOL     OW 1873   2.788   1.711   1.005 -0.0489  0.3759  0.0286
  625SOL    HW1 1874   2.703   1.776   1.013 -0.3114  1.7438 -2.1484
  625SOL    HW2 1875   2.877   1.752   1.042 -0.8503 -0.4804 -0.0206
  626SOL     OW 1876   0.621   2.666   1.710 -0.2104 -0.7196 -0.0134
  626SOL    HW1 1877   0.675   2.734   1.768  0.2053 -1.1424 -1.2655
  626SOL    HW2 1878   0.523   2.663   1.737  1.4958 -0.6078 -2.5376
  627SOL     OW 1879   0.648   0.889   1.575  0.6099  0.3213  0.0397
  627SOL    HW1 1880   0.559   0.854   1.531 -3.8651 -1.0572 -0.5037
  627SOL    HW2 1881   0.715   0.928   1.504  0.0953  0.2507 -1.1301
  628SOL     OW 1882   2.436   0.159   0.703  0.5958  0.8393  0.2228
  628SOL    HW1 1883   2.456   0.069   0.649  2.5187  0.4919 -1.3246
  628SOL    HW2 1884   2.340   0.154   0.746 -0.3933 -0.8361  1.4628
  629SOL     OW 1885   1.899   0.901   1.987  0.1006 -0.2425  0.1698
  629SOL    HW1 1886   1.924   0.972   1.913 -0.8088  1.4510  2.7853
  629SOL    HW2 1887   1.878   0.941   2.079 -0.2758 -0.1384  0.1401
  630SOL     OW 1888   2.920   2.326   0.779  0.3641  0.1518  0.1485
  630SOL    HW1 1889   2.836   2.386   0.767  1.6731 -1.0582 -1.2174
  630SOL    HW2 1890   2.890   2.225   0.773  3.0545  0.7261 -1.7842
  631SOL     OW 1891   3.070   0.150   2.176 -0.2738  0.5918  0.0487
  631SOL    HW1 1892   3.164   0.171   2.220  1.8566 -0.3046  2.0667
  631SOL    HW2 1893   3.078   0.140   2.074  0.3763  2.4643  1.9482
  632SOL     OW 1894   2.451   2.566   0.603  0.5506 -0.2169  0.5131
  632SOL    HW1 1895   2.510   2.649   0.623  1.3891  2.7704  1.3069
  632SOL    HW2 1896   2.353   2.596   0.570  0.2798  2.0951  1.2200
  633SOL     OW 1897   1.481   1.199   2.683 -0.0986  0.6531 -0.2655
  633SOL    HW1 1898   1.459   1.280   2.738  1.6299 -0.4573 -1.8652
  633SOL    HW2 1899   1.405   1.195   2.613  2.1789 -0.8146  1.2399
  634SOL     OW 1900   0.633   2.030   0.906 -0.0853 -0.3921 -0.6994
  634SOL    HW1 1901   0.544   2.061   0.955 -0.9116  1.2752  0.6236
  634SOL    HW2 1902   0.724   2.057   0.951  0.0232 -0.6671  0.9560
  635SOL     OW 1903   3.005   2.383   0.037 -0.2282 -0.2378  0.5209
  635SOL    HW1 1904   2.934   2.442  -0.006 -0.0366 -1.0333  0.4828
  635SOL    HW2 1905   3.082   2.426   0.091  0.2505 -0.3765 -0.1070
  636SOL     OW 1906   2.384   2.763   1.994 -1.0310  0.6741  0.3461
  636SOL    HW1 1907   2.356   2.860   1.979 -2.0469  0.6245 -1.1165
  636SOL    HW2 1908   2.320   2.728   2.072 -1.1502 -0.7472  0.6044
  637SOL     OW 1909   2.771   0.613   1.978  0.4428  0.0254  0.2017
  637SOL    HW1 1910   2.696   0.626   1.906 -4.6557  3.8416  0.0114
  637SOL    HW2 1911   2.830   0.694   1.994 -1.4573 -0.0310  0.7843
  638SOL     OW 1912   2.443   1.857   1.297 -0.2192  0.4216  0.5793
  638SOL    HW1 1913   2.345   1.822   1.278 -0.7566 -1.3455 -0.5323
  638SOL    HW2 1914   2.480   1.814   1.384  1.3876  0.4071 -1.5793
  639SOL     OW 1915   1.315   2.208   1.689 -0.2676 -0.2849  0.3409
  639SOL    HW1 1916   1.346   2.305   1.713  0.3205  0.4347 -0.4873
  639SOL    HW2 1917   1.213   2.187   1.719 -1.9530  0.8344 -0.9114
  640SOL     OW 1918   0.189   1.197   1.545  0.2558  0.1072  0.0373
  640SOL    HW1 1919   0.175   1.227   1.646 -0.7531  0.4210 -3.1704
  640SOL    HW2 1920   0.269   1.132   1.522  0.0577  1.2454  1.6019
  641SOL     OW 1921   1.964   0.271   1.467  0.3356 -0.0771 -0.9003
  641SOL    HW1 1922   1.899   0.288   1.547  0.5711 -0.8467  0.6000
  641SOL    HW2 1923   2.058   0.238   1.498 -2.0345  1.1525 -2.2706
  642SOL     OW 1924   2.023   0.079   0.380 -0.4346  0.0009  0.1202
  642SOL    HW1 1925   2.123   0.051   0.386  0.7199  0.1584  1.3987
  642SOL    HW2 1926   2.007   0.162   0.439  2.1702  1.0031 -0.1316
  643SOL     OW 1927   2.914   1.844   2.154  0.3015 -0.3275 -0.0286
  643SOL    HW1 1928   2.841   1.785   2.110 -0.6680  0.2962 -1.0405
  643SOL    HW2 1929   2.914   1.944   2.121  1.9652 -0.0761 -0.3191
  644SOL     OW 1930   2.293   2.432   1.232  0.2601 -0.0745 -0.4642
  644SOL    HW1 1931   2.332   2.346   1.188 -0.0433 -1.2263 -2.6541
  644SOL    HW2 1932   2.274   2.418   1.339 -0.2750  1.2750  1.9987
  645SOL     OW 1933   0.594   0.825   1.256 -0.3008  0.0229  0.3530
  645SOL    HW1 1934   0.491   0.794   1.263 -1.2014  1.5187  2.7266
  645SOL    HW2 1935   0.618   0.853   1.157  0.4244  0.4074  2.3967
  646SOL     OW 1936   1.500   1.817   2.047 -0.0920 -0.0451 -0.1489
  646SOL    HW1 1937   1.566   1.856   1.978 -2.6762  3.7018  1.2398
  646SOL    HW2 1938   1.541   1.776   2.132  0.9020 -1.1919 -0.4328
  647SOL     OW 1939   0.851   1.097   0.643  0.9234 -0.1216 -0.5554
  647SOL    HW1 1940   0.921   1.144   0.700 -1.6657  0.1023 -1.5039
  647SOL    HW2 1941   0.808   1.014   0.686  0.0723  0.7340 -2.2232
  648SOL     OW 1942   0.149   0.268   0.290  0.0074  0.0864 -0.0775
  648SOL    HW1 1943   0.145   0.178   0.239  0.1962  2.6432 -0.9170
  648SOL    HW2 1944   0.117   0.352   0.237 -1.8608  0.7116 -1.3767
  649SOL     OW 1945   3.022   0.181   0.787  0.1232 -0.0731  0.5848
  649SOL    HW1 1946   3.113   0.137   0.797  0.9209  1.9353  1.7515
  649SOL    HW2 1947   3.029   0.281   0.809 -1.0854 -0.2919 -1.2737
  650SOL     OW 1948   2.720   0.647   1.550 -0.4115 -0.1115  0.6126
  650SOL    HW1 1949   2.617   0.657   1.550  0.5739 -2.3864 -0.0871
  650SOL    HW2 1950   2.766   0.744   1.544  2.8114  0.0430 -2.1451
  651SOL     OW 1951   0.878   1.545   1.677  0.2575  0.1347 -0.2327
  651SOL    HW1 1952   0.882   1.632   1.730 -0.7194  2.1753 -1.6607
  651SOL    HW2 1953   0.945   1.540   1.596  0.3435 -0.8538  0.7329
  652SOL     OW 1954   2.399   2.453   2.471 -0.3625 -0.5810  0.0622
  652SOL    HW1 1955   2.304   2.493   2.474  2.0811 -1.1411 -0.9973
  652SOL    HW2 1956   2.453   2.477   2.384 -0.8471 -0.9459  0.9434
  653SOL     OW 1957   2.736   1.243   0.180 -0.3360  0.1162 -0.1939
  653SOL    HW1 1958   2.792   1.314   0.232  1.8094 -1.8285  0.1591
  653SOL    HW2 1959   2.770   1.146   0.197 -0.2904 -0.2059  0.2884
  654SOL     OW 1960   1.270   2.191   1.296  0.0480  0.8252 -0.1189
  654SOL    HW1 1961   1.285   2.101   1.355  2.3372  1.8605  1.1459
  654SOL    HW2 1962   1.261   2.181   1.191 -1.6087 -1.7148  1.2051
  655SOL     OW 1963   0.185   0.949   1.883  0.1830 -0.3997 -0.0047
  655SOL    HW1 1964   0.232   0.871   1.830  0.1799 -4.3277  1.5504
  655SOL    HW2 1965   0.226   1.045   1.874 -0.2848 -0.6707 -2.8768
  656SOL     OW 1966   2.569   2.552   2.658  0.0244 -0.5617 -0.0595
  656SOL    HW1 1967   2.664   2.537   2.628 -1.2788 -1.6890  1.5965
  656SOL    HW2 1968   2.499   2.507   2.594  1.4997 -2.5994  1.4369
  657SOL     OW 1969   3.003   1.037   1.807 -0.1027 -0.7515 -0.2092
  657SOL    HW1 1970   2.992   1.104   1.892 -0.0875 -0.0418 -0.3209
  657SOL    HW2 1971   3.099   1.002   1.808 -1.1227 -1.3786 -2.2594
  658SOL     OW 1972   1.710   0.205   2.302  0.0461  0.3627 -0.3861
  658SOL    HW1 1973   1.742   0.117   2.355  1.2844 -2.6713  2.3984
  658SOL    HW2 1974   1.754   0.216   2.211  0.2042  0.9808  1.2227
  659SOL     OW 1975   1.398   0.638   2.762 -0.5895  0.0067  0.4206
  659SOL    HW1 1976   1.445   0.708   2.710  0.0050 -0.5814 -1.2639
  659SOL    HW2 1977   1.295   0.649   2.778  0.7117  0.7799 -0.4250
  660SOL     OW 1978   1.435   0.355   1.414 -0.5722  0.3817  0.4100
  660SOL    HW1 1979   1.454   0.391   1.509  0.6291 -1.7067  3.7313
  660SOL    HW2 1980   1.504   0.272   1.408 -0.3441 -0.8919  0.3891
  661SOL     OW 1981   2.438   1.253   0.636 -0.3024  0.2097 -0.5988
  661SOL    HW1 1982   2.473   1.242   0.538  2.2636 -1.5735  1.5398
  661SOL    HW2 1983   2.338   1.295   0.643 -2.6458  3.5230 -0.8408
  662SOL     OW 1984   1.433   0.431   1.711 -0.7152 -0.1949 -0.0917
  662SOL    HW1 1985   1.374   0.369   1.771  2.0495 -0.8631  2.1157
  662SOL    HW2 1986   1.431   0.525   1.744  2.8755  0.3950  1.0919
  663SOL     OW 1987   0.866   1.552   2.113  0.2079 -0.8143  0.5279
  663SOL    HW1 1988   0.805   1.616   2.171  2.1523 -2.6239  0.0751
  663SOL    HW2 1989   0.816   1.508   2.033 -2.8594 -1.3422  1.3251
  664SOL     OW 1990   1.608   2.115   1.426 -0.0223 -0.5157  0.1624
  664SOL    HW1 1991   1.534   2.048   1.447  1.6118 -1.5953  0.4169
  664SOL    HW2 1992   1.707   2.081   1.450  2.8999 -1.3993 -1.2197
  665SOL     OW 1993   2.282   0.652   1.957  0.2344 -0.5456 -0.1638
  665SOL    HW1 1994   2.267   0.551   1.967  0.2028  0.6467 -0.2678
  665SOL    HW2 1995   2.318   0.691   2.051  0.5549 -0.8359  2.0575
  666SOL     OW 1996   0.478   2.240   0.316 -0.0761  0.1948  0.2783
  666SOL    HW1 1997   0.534   2.300   0.378  0.0694  1.8436 -0.1603
  666SOL    HW2 1998   0.375   2.259   0.329 -1.4504 -2.1470 -1.4534
  667SOL     OW 1999   1.914   0.228   1.030  0.1521  0.1459  0.0667
  667SOL    HW1 2000   1.927   0.331   1.044 -3.3432  0.7234  1.1423
  667SOL    HW2 2001   1.869   0.183   1.108  0.9717 -0.8793  0.4769
  668SOL     OW 2002   1.989   0.523   1.134 -0.0517 -0.0678  0.1645
  668SOL    HW1 2003   2.054   0.547   1.046  2.8437  2.1108  0.2318
  668SOL    HW2 2004   2.041   0.518   1.224 -0.0097  3.5675 -1.2284
  669SOL     OW 2005   3.019   2.179   1.020 -0.2693  0.1100  0.3763
  669SOL    HW1 2006   2.995   2.221   0.928 -0.9903  2.2761 -1.9770
  669SOL    HW2 2007   3.010   2.253   1.096  2.9078 -1.3483  4.1500
  670SOL     OW 2008   2.892   2.305   2.092 -0.5268  0.2984  0.2788
  670SOL    HW1 2009   2.804   2.297   2.144  3.1978 -1.4497  0.0733
  670SOL    HW2 2010   2.908   2.397   2.046  1.3808 -0.1876 -0.0868
  671SOL     OW 2011   1.776   1.768   1.544  0.2700 -0.3669 -0.0163
  671SOL    HW1 2012   1.828   1.786   1.457 -1.0840  2.6191 -0.0698
  671SOL    HW2 2013   1.675   1.782   1.535  2.2084  1.5696 -1.8288
  672SOL     OW 2014   0.476   0.669   2.534 -0.1379  0.0094 -0.2907
  672SOL    HW1 2015   0.399   0.717   2.481  0.1003  2.3195 -1.4780
  672SOL    HW2 2016   0.444   0.617   2.615  0.0891  3.5690 -1.1226
  673SOL     OW 2017   0.072   1.283   1.115  0.2221 -0.8978  0.1563
  673SOL    HW1 2018   0.043   1.374   1.155 -3.0630 -0.4846 -0.4861
  673SOL    HW2 2019   0.179   1.273   1.105  1.2134  0.0253  0.2497
  674SOL     OW 2020   1.637   2.978   0.310  0.1163  0.4471 -0.2165
  674SOL    HW1 2021   1.602   3.044   0.243  0.8138  1.3806  3.1126
  674SOL    HW2 2022   1.704   2.908   0.269 -3.3970  0.8875 -1.6382
  675SOL     OW 2023   1.732   0.845   2.328  0.0112  0.4347 -0.4187
  675SOL    HW1 2024   1.830   0.838   2.305  0.5531 -0.8629 -0.6867
  675SOL    HW2 2025   1.686   0.751   2.303 -1.0925 -0.9572  1.6479
  676SOL     OW 2026   2.557   1.506   1.922 -0.2132 -0.7028 -0.2948
  676SOL    HW1 2027   2.502   1.441   1.856 -0.2484 -0.4882  0.1703
  676SOL    HW2 2028   2.545   1.475   2.018  1.5074  2.3419  0.9579
  677SOL     OW 2029   1.922   0.725   0.888  0.2909 -0.5245 -0.3766
  677SOL    HW1 2030   1.836   0.689   0.935  0.9365 -0.3301 -0.4497
  677SOL    HW2 2031   2.018   0.689   0.921  0.2426 -2.5655  0.5430
  678SOL     OW 2032   0.108   0.750   1.621 -0.3955  0.1170  0.2783
  678SOL    HW1 2033   0.210   0.758   1.641 -2.0530  2.0456 -1.1808
  678SOL    HW2 2034   0.054   0.718   1.704  2.1362 -1.7718  0.5996
  679SOL     OW 2035   2.584   1.191   1.171 -0.8350  0.5684  0.2588
  679SOL    HW1 2036   2.495   1.239   1.159 -0.1341 -2.1229 -0.0660
  679SOL    HW2 2037   2.579   1.092   1.136  0.8846 -0.6887  1.4056
  680SOL     OW 2038   2.837   0.472   1.710 -0.2640 -0.1040  0.2692
  680SOL    HW1 2039   2.781   0.530   1.646 -2.3483 -1.6584 -2.0825
  680SOL    HW2 2040   2.908   0.531   1.756 -1.6260 -0.1084 -1.6293
  681SOL     OW 2041   2.979   0.064   1.600 -0.6108 -0.2896 -0.7284
  681SOL    HW1 2042   3.023   0.032   1.518  1.2061  1.7995  1.5547
  681SOL    HW2 2043   2.913   0.139   1.584  1.7767  3.0874  0.2312
  682SOL     OW 2044   0.662   0.055   1.342  0.3301  0.1993 -0.1109
  682SOL    HW1 2045   0.598  -0.026   1.348 -0.3779 -0.1089 -1.2024
  682SOL    HW2 2046   0.718   0.056   1.252  0.3721  0.4678 -1.7737
  683SOL     OW 2047   1.376   0.205   2.158  0.2936 -0.6121 -0.1542
  683SOL    HW1 2048   1.378   0.260   2.248  0.9514  1.2238  0.1398
  683SOL    HW2 2049   1.449   0.233   2.090 -2.1177  3.2704 -0.0034
  684SOL     OW 2050   1.456   2.114   0.546  0.0073 -0.1827 -0.0331
  684SOL    HW1 2051   1.516   2.057   0.613 -0.4792 -1.3844  0.9387
  684SOL    HW2 2052   1.375   2.064   0.512  1.3125 -0.7018  1.7115
  685SOL     OW 2053   2.226   2.072   1.969  0.3318  0.6728  0.2893
  685SOL    HW1 2054   2.288   2.038   1.891 -0.2371 -1.0529 -2.2871
  685SOL    HW2 2055   2.267   2.059   2.067 -2.0199 -0.3495  1.4971
  686SOL     OW 2056   1.486   1.821   2.844 -0.6243 -0.3486 -0.6327
  686SOL    HW1 2057   1.531   1.800   2.934 -0.7651  1.9356  0.8851
  686SOL    HW2 2058   1.387   1.788   2.839 -0.6057  0.1745  2.1671
  687SOL     OW 2059   1.320   2.403   1.971 -0.2128  0.3325 -0.2810
  687SOL    HW1 2060   1.324   2.299   1.973 -0.1146  2.3594 -1.6043
  687SOL    HW2 2061   1.394   2.450   2.027 -2.0164  2.2338  3.5388
  688SOL     OW 2062   2.037   1.529   1.787 -0.3241  0.3206  0.1024
  688SOL    HW1 2063   2.123   1.572   1.757  1.4212 -1.8194  2.8641
  688SOL    HW2 2064   1.994   1.471   1.712 -1.1728 -1.1384 -1.5514
  689SOL     OW 2065   2.388   1.090   2.731 -0.0880 -0.4217  0.4012
  689SOL    HW1 2066   2.310   1.025   2.755  0.8133  0.3108 -0.9649
  689SOL    HW2 2067   2.432   1.120   2.819  0.5353 -0.6465 -0.2752
  690SOL     OW 2068   2.244   2.785   0.059 -0.2898  0.3983 -0.5120
  690SOL    HW1 2069   2.156   2.747   0.040  3.6260  1.8893 -2.0417
  690SOL    HW2 2070   2.254   2.795   0.163  0.3107  1.5570  0.1934
  691SOL     OW 2071   2.592   0.408   2.094  0.0298  0.3504 -0.2169
  691SOL    HW1 2072   2.646   0.323   2.113 -1.1306 -1.0550 -0.4269
  691SOL    HW2 2073   2.635   0.470   2.022 -2.3316 -1.8237 -3.4277
  692SOL     OW 2074   2.640   1.204   0.821  0.4992 -0.0734  0.2418
  692SOL    HW1 2075   2.566   1.221   0.748  1.6299 -1.3718 -1.1952
  692SOL    HW2 2076   2.676   1.290   0.871  0.6266 -0.2981  0.2880
  693SOL     OW 2077   2.860   3.002   0.578  0.0123  0.6663 -0.0021
  693SOL    HW1 2078   2.817   3.052   0.659 -3.0402 -0.0437 -2.4256
  693SOL    HW2 2079   2.852   3.048   0.488 -0.0440 -0.3871  1.8474
  694SOL     OW 2080   2.444   2.195   0.138 -0.2756 -0.1998 -0.3375
  694SOL    HW1 2081   2.451   2.295   0.165 -1.9431 -3.0327 -0.4999
  694SOL    HW2 2082   2.355   2.178   0.089 -0.8349  0.1582  1.2429
  695SOL     OW 2083   0.480   2.952   1.432 -0.4358  0.1782 -0.0425
  695SOL    HW1 2084   0.416   2.871   1.406 -0.2294 -2.7335  1.9185
  695SOL    HW2 2085   0.460   2.989   1.529 -2.1283  1.3148 -0.5318
  696SOL     OW 2086   2.854   2.060   0.740  0.4644  0.5399  0.1223
  696SOL    HW1 2087   2.883   1.965   0.770 -1.7538 -0.0788 -1.0729
  696SOL    HW2 2088   2.846   2.067   0.638  0.0950  0.0207  1.0310
  697SOL     OW 2089   1.650   1.881   1.817 -0.1716  0.2759 -0.3830
  697SOL    HW1 2090   1.739   1.830   1.823  0.7941  0.0493 -1.8717
  697SOL    HW2 2091   1.655   1.987   1.798 -1.1782  1.6588  0.8785
  698SOL     OW 2092   2.881   0.437   2.753 -0.8267  0.1660 -0.6707
  698SOL    HW1 2093   2.873   0.398   2.656 -1.5749  1.5294  2.5001
  698SOL    HW2 2094   2.932   0.369   2.818 -2.1726 -0.0053 -0.9254
  699SOL     OW 2095   1.551   0.053   2.926 -0.0709 -0.3893  0.0085
  699SOL    HW1 2096   1.528  -0.045   2.898  0.0467  0.7114  2.5713
  699SOL    HW2 2097   1.604   0.104   2.851 -0.5093  0.1667  1.1372
  700SOL     OW 2098   0.999   2.256   1.406  0.2696  0.6398  1.2692
  700SOL    HW1 2099   1.059   2.167   1.407 -0.4857  1.5322  1.1590
  700SOL    HW2 2100   0.905   2.232   1.360 -1.5970 -0.6336  0.1127
  701SOL     OW 2101   1.920   2.874   0.002  0.2596  0.6410  0.0732
  701SOL    HW1 2102   1.857   2.824   0.067 -2.1530 -0.4559 -2.3806
  701SOL    HW2 2103   1.967   2.963   0.028  1.0271 -0.0071 -1.2386
  702SOL     OW 2104   2.070   1.305   1.955 -0.1192 -0.0735  0.2250
  702SOL    HW1 2105   2.170   1.276   1.964 -1.0965 -2.0509 -1.0262
  702SOL    HW2 2106   2.055   1.394   1.902 -2.0660 -1.3500 -1.9869
  703SOL     OW 2107   1.948   0.912   1.485  0.5516 -0.2332  0.0231
  703SOL    HW1 2108   1.907   0.828   1.525  0.0700  0.7359 -3.2298
  703SOL    HW2 2109   2.030   0.952   1.536 -3.2291  1.4956  3.2973
  704SOL     OW 2110   0.291   2.027   1.681 -0.2849  0.3707 -0.5405
  704SOL    HW1 2111   0.326   1.959   1.752  2.2689 -2.6993 -1.0507
  704SOL    HW2 2112   0.358   2.106   1.668 -0.8729 -1.6484  0.0066
  705SOL     OW 2113   2.463   1.512   0.859 -0.1793  0.3688 -0.4896
  705SOL    HW1 2114   2.395   1.458   0.804 -1.4354  2.3102  2.2114
  705SOL    HW2 2115   2.549   1.457   0.874 -0.4388 -1.7898 -1.2453
  706SOL     OW 2116   0.692   1.699   1.839  0.3035 -0.4859 -0.0461
  706SOL    HW1 2117   0.691   1.598   1.855  1.7057  2.6832  0.7738
  706SOL    HW2 2118   0.753   1.753   1.912  1.6906  1.7303  1.4379
  707SOL     OW 2119   2.338   1.205   1.982 -0.2042  0.1824  0.0487
  707SOL    HW1 2120   2.413   1.200   2.053 -1.5488  0.2271  1.3461
  707SOL    HW2 2121   2.310   1.115   1.937 -1.0044 -1.6620 -0.6601
  708SOL     OW 2122   3.011   0.533   3.033 -0.5637 -0.0292  0.4284
  708SOL    HW1 2123   3.058   0.569   2.948 -3.7139 -2.9996 -0.5410
  708SOL    HW2 2124   2.996   0.432   3.011 -1.4545  0.3445 -3.1711
  709SOL     OW 2125   1.893   1.866   0.341  0.4022  1.0333  0.6384
  709SOL    HW1 2126   1.919   1.967   0.348  1.1568 -0.0214  0.0511
  709SOL    HW2 2127   1.871   1.842   0.241 -3.2306 -0.3902  0.7043
  710SOL     OW 2128   1.764   1.625   2.469 -0.2914 -0.1373 -0.6125
  710SOL    HW1 2129   1.792   1.565   2.391 -1.1730  0.1713 -1.0201
  710SOL    HW2 2130   1.763   1.588   2.565 -0.1584  0.3667  2.3291
  711SOL     OW 2131   2.589   2.926   0.973 -0.6520 -0.6224  0.5447
  711SOL    HW1 2132   2.570   3.029   0.952  0.8106 -0.4655 -1.4086
  711SOL    HW2 2133   2.690   2.914   0.996 -0.6592 -1.4414 -2.2752
  712SOL     OW 2134   1.417   2.139   1.962  0.3845 -0.2096 -0.0550
  712SOL    HW1 2135   1.493   2.200   1.978 -0.4117 -1.3915  0.5140
  712SOL    HW2 2136   1.406   2.115   1.865  0.1315  1.4503  1.8234
  713SOL     OW 2137   2.799   1.511   2.525 -0.4651 -0.3000 -0.0855
  713SOL    HW1 2138   2.808   1.411   2.505  0.4660  0.9482  0.2881
  713SOL    HW2 2139   2.712   1.543   2.567  1.9451  1.7359  0.4574
  714SOL     OW 2140   2.610   0.440   2.377 -0.2409 -0.5036 -0.1338
  714SOL    HW1 2141   2.558   0.404   2.458  0.1763 -0.5549  4.3845
  714SOL    HW2 2142   2.568   0.422   2.288 -0.1882 -1.0777  2.8029
  715SOL     OW 2143   1.575   2.139   1.139 -0.1588 -0.4803  0.4875
  715SOL    HW1 2144   1.476   2.139   1.107 -0.8017 -1.5815 -3.1631
  715SOL    HW2 2145   1.586   2.145   1.241 -1.5740 -0.7623 -2.4400
  716SOL     OW 2146   1.224   0.157   1.475 -0.4565 -0.0666 -0.2067
  716SOL    HW1 2147   1.116   0.164   1.453 -2.6063  2.0947 -2.1091
  716SOL    HW2 2148   1.280   0.236   1.427  0.7719  2.8582 -3.3178
  717SOL     OW 2149   1.162   0.543   1.586 -0.3290 -0.2359 -0.2360
  717SOL    HW1 2150   1.257   0.579   1.614  1.2699 -2.8831  0.1208
  717SOL    HW2 2151   1.150   0.505   1.492 -0.0687  1.1869  1.2267
  718SOL     OW 2152   0.660   0.893   0.950  0.6503 -0.3261  0.1988
  718SOL    HW1 2153   0.652   0.874   0.850  0.8542  0.2977  0.9218
  718SOL    HW2 2154   0.660   0.999   0.974 -0.0282 -0.8998 -1.4890
  719SOL     OW 2155   0.602   1.740   2.282  0.1235 -0.0068  0.1543
  719SOL    HW1 2156   0.669   1.764   2.356 -2.7118  0.8599 -1.8030
  719SOL    HW2 2157   0.569   1.642   2.303 -0.3293 -3.1075  2.1175
  720SOL     OW 2158   2.217   1.128   0.290 -0.0234  0.1368 -0.2047
  720SOL    HW1 2159   2.264   1.073   0.214  2.6077 -1.5173 -1.4115
  720SOL    HW2 2160   2.220   1.077   0.384 -4.1458 -1.3091 -0.1133
  721SOL     OW 2161   2.247   2.993   2.049 -0.0116 -0.2097 -0.2283
  721SOL    HW1 2162   2.225   3.042   1.957  0.4135  0.5210 -0.2835
  721SOL    HW2 2163   2.224   3.058   2.126  0.5952  0.8512  2.8337
  722SOL     OW 2164   2.346   1.644   0.483 -0.3912 -0.0324 -0.0791
  722SOL    HW1 2165   2.421   1.646   0.415 -1.3586  0.0901  2.6912
  722SOL    HW2 2166   2.256   1.652   0.436  1.9120  1.7522 -0.2053
  723SOL     OW 2167   2.650   2.710   1.920  0.5746 -0.0487 -0.2111
  723SOL    HW1 2168   2.707   2.792   1.905 -2.4510  0.4012 -0.9504
  723SOL    HW2 2169   2.550   2.727   1.937 -0.1513 -1.7594 -2.2020
  724SOL     OW 2170   0.473   2.501   2.411  0.4612 -0.1400 -0.1566
  724SOL    HW1 2171   0.379   2.478   2.437  0.9236 -0.8149  0.0101
  724SOL    HW2 2172   0.536   2.516   2.493 -3.3522  3.6732  0.1443
  725SOL     OW 2173   2.367   2.736   1.571 -0.0397 -0.6466 -0.2014
  725SOL    HW1 2174   2.457   2.754   1.526 -0.1643  2.4744  2.0849
  725SOL    HW2 2175   2.358   2.632   1.575 -0.3541 -2.4776  2.1543
  726SOL     OW 2176   2.468   2.324   0.695 -0.7538  0.1761  0.0850
  726SOL    HW1 2177   2.448   2.404   0.632 -2.1552  1.2367  0.1072
  726SOL    HW2 2178   2.459   2.234   0.641 -1.8250  4.1304  2.0566
  727SOL     OW 2179   0.103   3.089   0.147  0.2540 -0.3805 -0.3571
  727SOL    HW1 2180   0.181   3.067   0.086 -0.3649 -1.3819 -1.4142
  727SOL    HW2 2181   0.016   3.108   0.093  3.1810 -0.9504 -0.4677
  728SOL     OW 2182   2.895   0.706   0.918 -0.5092 -0.2852  0.2616
  728SOL    HW1 2183   2.838   0.698   0.832 -1.6081  0.8524  2.4556
  728SOL    HW2 2184   2.848   0.673   1.007  0.4093  0.4363 -1.1877
  729SOL     OW 2185   0.035   2.538   0.736  0.5407  0.3716 -0.3205
  729SOL    HW1 2186   0.063   2.463   0.804 -1.7048 -0.9112  0.3425
  729SOL    HW2 2187   0.096   2.560   0.657 -3.3038 -1.1032  0.3867
  730SOL     OW 2188   2.537   0.669   0.846 -0.3632  0.4354 -0.4964
  730SOL    HW1 2189   2.546   0.774   0.859 -3.7525 -1.4137  1.9199
  730SOL    HW2 2190   2.603   0.622   0.783  0.2511  0.5654 -0.8321
  731SOL     OW 2191   3.082   2.186   2.409  0.2429 -0.0664  0.8280
  731SOL    HW1 2192   3.113   2.232   2.499  0.6882  1.8014 -0.5462
  731SOL    HW2 2193   3.002   2.233   2.361  0.5060  0.6722 -0.7725
  732SOL     OW 2194   1.181   2.793   2.032 -0.6256  0.3917 -0.3121
  732SOL    HW1 2195   1.224   2.734   2.106  0.3473  1.2998 -1.0424
  732SOL    HW2 2196   1.169   2.745   1.943  1.2917  2.1584 -0.9099
  733SOL     OW 2197   0.003   0.583   2.257 -0.3729  0.6043  0.1248
  733SOL    HW1 2198   0.070   0.639   2.205 -1.8201  1.4619 -1.8791
  733SOL    HW2 2199  -0.049   0.514   2.198 -3.3286  0.1216  0.6407
  734SOL     OW 2200   1.460   0.378   2.675  0.2953  0.0345  0.0080
  734SOL    HW1 2201   1.442   0.481   2.696  1.6402  0.5001  2.8104
  734SOL    HW2 2202   1.398   0.312   2.732 -2.2397 -1.3439 -0.8384
  735SOL     OW 2203   2.875   2.610   2.278  0.5281  0.2360 -0.2398
  735SOL    HW1 2204   2.860   2.599   2.177  2.2416  1.7490 -0.4066
  735SOL    HW2 2205   2.952   2.678   2.291 -2.4017 -2.2399 -1.3472
  736SOL     OW 2206   0.919   0.436   2.515  0.2760  0.0729  0.2119
  736SOL    HW1 2207   0.826   0.482   2.507 -0.5429 -0.6605 -0.2077
  736SOL    HW2 2208   0.923   0.355   2.448 -1.8848 -2.6858 -1.5939
  737SOL     OW 2209   2.616   0.457   2.814  0.2762  0.7884 -0.0413
  737SOL    HW1 2210   2.593   0.459   2.917 -0.1117 -1.2100 -1.3447
  737SOL    HW2 2211   2.720   0.468   2.801  2.5556 -1.0201  2.7647
  738SOL     OW 2212   1.714   1.288   2.886 -0.0846  0.1223  0.3573
  738SOL    HW1 2213   1.811   1.264   2.903  0.9824 -0.8441 -1.1741
  738SOL    HW2 2214   1.656   1.208   2.865  2.6757 -0.8256  0.3234
  739SOL     OW 2215   1.783   0.693   0.655  0.0824  0.5367  0.6117
  739SOL    HW1 2216   1.834   0.721   0.741  0.3957  1.2095 -1.5555
  739SOL    HW2 2217   1.826   0.605   0.609 -0.3995 -0.4860  1.8080
  740SOL     OW 2218   1.939   1.934   2.372 -0.1874  0.5611 -0.5904
  740SOL    HW1 2219   2.025   1.875   2.366  3.5895 -0.5058  1.6048
  740SOL    HW2 2220   1.872   1.912   2.293 -2.4086  1.0891  2.6206
  741SOL     OW 2221   2.578   0.071   2.457  1.2421  0.3269  0.2665
  741SOL    HW1 2222   2.682   0.084   2.451  0.6273  1.7432  0.5125
  741SOL    HW2 2223   2.528   0.089   2.368  1.5818  1.6305 -1.1513
  742SOL     OW 2224   2.190   1.373   0.146 -0.4793  0.0297 -0.4161
  742SOL    HW1 2225   2.091   1.386   0.116  1.2644 -1.2019  0.9904
  742SOL    HW2 2226   2.214   1.274   0.176  0.4082  3.0827 -1.1974
  743SOL     OW 2227   1.772   0.633   2.618  0.2164  0.3082  0.2832
  743SOL    HW1 2228   1.768   0.554   2.549  0.0193  1.7268 -2.2602
  743SOL    HW2 2229   1.689   0.702   2.612 -5.2510  2.2175 -0.1732
  744SOL     OW 2230   2.679   2.072   0.040  0.4870 -1.0920 -0.2858
  744SOL    HW1 2231   2.603   2.096   0.108  3.3660  0.6898  0.6863
  744SOL    HW2 2232   2.659   1.973  -0.002  0.4358 -2.3767 -1.1869
  745SOL     OW 2233   2.212   2.645   2.176 -0.2599  0.6321 -0.5693
  745SOL    HW1 2234   2.107   2.640   2.192 -1.3514  1.3230 -0.6298
  745SOL    HW2 2235   2.270   2.691   2.253  0.9976  1.1448  0.3211
  746SOL     OW 2236   0.050   2.654   1.735 -0.3496  0.4982 -0.3750
  746SOL    HW1 2237   0.136   2.595   1.727 -0.2268 -0.4898  3.0042
  746SOL    HW2 2238   0.030   2.687   1.829  0.4932 -0.6064 -0.5559
  747SOL     OW 2239   0.048   1.809   1.657 -0.6862 -0.0710 -0.1021
  747SOL    HW1 2240  -0.025   1.745   1.630  3.4498  0.3998 -0.2344
  747SOL    HW2 2241   0.103   1.829   1.575  0.2162  0.3320 -0.8841
  748SOL     OW 2242   1.814   2.733   2.870  0.1720 -0.0060  0.0524
  748SOL    HW1 2243   1.859   2.792   2.939  2.7381  0.3318  0.8229
  748SOL    HW2 2244   1.711   2.725   2.887 -0.5035  0.4788  0.5797
  749SOL     OW 2245   1.375   3.046   0.869 -0.5719 -0.0002 -0.2303
  749SOL    HW1 2246   1.291   3.040   0.812  3.0962  1.1253  2.1571
  749SOL    HW2 2247   1.463   3.007   0.824  3.9304  2.0882 -3.9094
  750SOL     OW 2248   2.280   0.192   1.833  0.8078  0.7220  0.3173
  750SOL    HW1 2249   2.318   0.254   1.760  0.6792 -3.1341  3.6143
  750SOL    HW2 2250   2.271   0.246   1.924  0.9010  0.3232 -0.2263
  751SOL     OW 2251   0.770   2.130   2.894  1.0362  0.0652 -0.2960
  751SOL    HW1 2252   0.831   2.111   2.973  0.3990 -2.0821  1.8423
  751SOL    HW2 2253   0.673   2.095   2.908  1.8128 -1.9454 -1.1976
  752SOL     OW 2254   1.319   0.830   1.282  0.2401  0.0108  0.3532
  752SOL    HW1 2255   1.386   0.900   1.244  0.7995  0.4456 -1.8693
  752SOL    HW2 2256   1.367   0.749   1.324  0.2084  0.8102  0.2706
  753SOL     OW 2257   0.906   2.549   1.805 -0.2223  1.0588  0.3076
  753SOL    HW1 2258   1.008   2.577   1.799 -0.0655  0.5478 -0.7126
  753SOL    HW2 2259   0.847   2.631   1.824  0.8117 -0.0380 -0.2411
  754SOL     OW 2260   1.110   1.227   3.042 -0.2320 -0.0810  0.0013
  754SOL    HW1 2261   1.185   1.158   3.020  1.0125 -0.0938  1.4015
  754SOL    HW2 2262   1.143   1.329   3.039  0.4876  2.3765 -0.3149
  755SOL     OW 2263   1.978   0.441   2.208 -0.2386  0.5843 -0.1994
  755SOL    HW1 2264   2.051   0.371   2.227  0.0565 -2.8872  1.3370
  755SOL    HW2 2265   1.913   0.456   2.290  1.8987  0.7885 -0.6360
  756SOL     OW 2266   2.554   0.997   2.994  0.7180 -0.2963 -0.0520
  756SOL    HW1 2267   2.651   0.992   3.027  2.5009  1.0364  0.3977
  756SOL    HW2 2268   2.498   0.909   3.004  0.9224  0.5158 -0.6069
  757SOL     OW 2269   0.107   0.475   1.988  0.0768  0.4928 -0.7184
  757SOL    HW1 2270   0.167   0.392   1.956 -0.9585  3.0216 -0.4994
  757SOL    HW2 2271   0.016   0.448   2.026 -2.1211  2.6215  1.7459
  758SOL     OW 2272   2.213   0.097   1.492  0.4737 -0.3664 -0.0334
  758SOL    HW1 2273   2.174   0.003   1.507 -2.1053  2.3915 -0.0545
  758SOL    HW2 2274   2.265   0.106   1.400  1.0206  0.3056 -1.9218
  759SOL     OW 2275   1.701   0.066   0.064  0.3163  0.5224 -0.0375
  759SOL    HW1 2276   1.653   0.057  -0.024 -1.3701  0.6349  1.0000
  759SOL    HW2 2277   1.801   0.040   0.059  0.6672 -0.6177  0.8754
  760SOL     OW 2278   2.619   2.031   2.821 -1.1262  0.7855 -0.1483
  760SOL    HW1 2279   2.648   1.952   2.884  0.5958  1.2043  0.9233
  760SOL    HW2 2280   2.610   2.125   2.864 -1.2593  0.2512  0.4799
  761SOL     OW 2281   1.926   1.792   1.780 -0.0865  0.2209 -0.2894
  761SOL    HW1 2282   1.934   1.692   1.808 -3.0614 -1.0232 -0.5131
  761SOL    HW2 2283   1.885   1.804   1.687  1.1819 -0.7749  0.6689
  762SOL     OW 2284   0.479   2.364   0.960  0.0728 -0.2766 -0.1799
  762SOL    HW1 2285   0.525   2.356   0.863  1.4785 -0.9811 -1.8088
  762SOL    HW2 2286   0.549   2.397   1.031  0.6700  0.1451 -1.2145
  763SOL     OW 2287   2.078   1.547   2.963  0.4705 -0.0605  0.3510
  763SOL    HW1 2288   2.172   1.518   2.978 -0.2820  2.7335  0.3932
  763SOL    HW2 2289   2.001   1.494   3.009  1.0829  1.6867 -0.4512
  764SOL     OW 2290   0.689   0.605   0.714 -0.3111 -0.2921 -0.2555
  764SOL    HW1 2291   0.618   0.534   0.710  1.0087 -0.6530  0.1154
  764SOL    HW2 2292   0.754   0.585   0.795  1.1586  0.6870  2.6680
  765SOL     OW 2293   0.803   0.277   0.754 -0.2741 -1.0224  0.1835
  765SOL    HW1 2294   0.851   0.286   0.662 -1.2333 -0.0070  3.1689
  765SOL    HW2 2295   0.817   0.363   0.819  1.5536  5.0540  3.0287
  766SOL     OW 2296   2.917   2.152   3.019 -0.4410 -0.0358 -0.0853
  766SOL    HW1 2297   2.829   2.130   3.068 -1.4967  1.4462 -1.3847
  766SOL    HW2 2298   2.960   2.239   3.057 -0.9460 -1.3961 -2.2706
  767SOL     OW 2299   2.800   1.660   0.597  0.5722 -0.0556 -0.2833
  767SOL    HW1 2300   2.704   1.666   0.637 -0.8936  0.2371 -1.9861
  767SOL    HW2 2301   2.870   1.721   0.639 -2.1501  1.9114 -2.3956
  768SOL     OW 2302   1.062   0.146   0.242 -1.2048 -0.1405  0.3852
  768SOL    HW1 2303   1.024   0.189   0.322 -0.9361  1.1340 -1.3012
  768SOL    HW2 2304   1.163   0.127   0.248 -0.1975  0.2876 -1.8206
  769SOL     OW 2305   1.129   1.831   2.317  0.2088  0.3281  0.1275
  769SOL    HW1 2306   1.025   1.841   2.342 -1.3593 -0.2396  1.3566
  769SOL    HW2 2307   1.189   1.808   2.397 -0.0471  1.3639  0.7985
  770SOL     OW 2308   0.160   1.124   2.303  0.0042  0.0293 -0.1185
  770SOL    HW1 2309   0.187   1.165   2.397 -1.8765 -0.4330  3.3194
  770SOL    HW2 2310   0.058   1.133   2.285  0.3505 -0.1141 -0.9710
  771SOL     OW 2311   3.064   2.823   1.940 -0.2803 -0.0445 -0.1043
  771SOL    HW1 2312   2.999   2.848   1.860  3.0920  2.1339 -0.3784
  771SOL    HW2 2313   3.043   2.853   2.034  1.3168 -2.1485 -2.0741
  772SOL     OW 2314   2.311   0.215   2.836  0.2145 -0.0520  0.4460
  772SOL    HW1 2315   2.378   0.148   2.797 -0.4492 -0.0632 -0.8870
  772SOL    HW2 2316   2.326   0.229   2.936 -1.6391 -0.2611 -1.9492
  773SOL     OW 2317   0.605   2.111   2.393 -0.4270  0.0398 -0.0201
  773SOL    HW1 2318   0.602   2.183   2.317  3.4148  0.6912 -1.3100
  773SOL    HW2 2319   0.517   2.082   2.434  0.8918  0.3120  1.6433
  774SOL     OW 2320   2.112   0.009   2.594  0.1807 -0.1317  0.2780
  774SOL    HW1 2321   2.093   0.095   2.649  1.4133  0.9310  2.2399
  774SOL    HW2 2322   2.174  -0.059   2.644  1.8426  1.1253  1.1105
  775SOL     OW 2323   2.578   2.964   2.225 -0.3625  0.3667  0.0035
  775SOL    HW1 2324   2.508   3.037   2.229 -1.1479 -2.0105 -2.9187
  775SOL    HW2 2325   2.655   2.968   2.296  3.0520  3.0802 -0.9296
  776SOL     OW 2326   3.089   1.247   0.163 -0.2468  0.0004  0.5023
  776SOL    HW1 2327   3.051   1.200   0.077 -0.5031  0.5041 -0.3137
  776SOL    HW2 2328   3.050   1.219   0.252 -1.4729  0.2626 -3.2842
  777SOL     OW 2329   0.441   2.940   0.426 -0.1176 -0.0692  0.1181
  777SOL    HW1 2330   0.352   2.914   0.380 -0.6165  1.6946 -1.4150
  777SOL    HW2 2331   0.524   2.891   0.391  0.6829  1.6102 -1.7369
  778SOL     OW 2332   1.330   1.953   0.176  0.2776 -0.3813 -0.3069
  778SOL    HW1 2333   1.295   1.989   0.268  2.2340  1.5348  1.9291
  778SOL    HW2 2334   1.360   2.035   0.116  0.7213  0.0083 -0.3768
  779SOL     OW 2335   0.165   0.869   0.447  0.3456  1.0479  0.5972
  779SOL    HW1 2336   0.102   0.787   0.446 -1.5062 -0.2390 -2.5529
  779SOL    HW2 2337   0.151   0.937   0.526  0.6225 -0.1907 -1.1935
  780SOL     OW 2338   0.186   0.286   2.390 -0.6252  0.0674  0.7556
  780SOL    HW1 2339   0.151   0.375   2.434  1.3488  0.6700  1.0670
  780SOL    HW2 2340   0.275   0.296   2.342  1.0843 -0.1538  1.3139
  781SOL     OW 2341   0.706   1.669   1.486 -0.0283 -0.5616  0.2230
  781SOL    HW1 2342   0.760   1.607   1.550 -1.2364 -2.1695  0.5433
  781SOL    HW2 2343   0.605   1.666   1.503  1.1386  0.0120  0.8171
  782SOL     OW 2344   2.569   0.115   0.938  0.4721  0.4995 -0.7585
  782SOL    HW1 2345   2.515   0.141   0.855 -0.2998  3.3679 -1.4190
  782SOL    HW2 2346   2.551   0.175   1.019  3.2883 -2.9342  1.6583
  783SOL     OW 2347   2.761   0.677   2.469  0.0422 -0.1327 -0.2121
  783SOL    HW1 2348   2.741   0.703   2.573  2.2803  3.1579  1.2935
  783SOL    HW2 2349   2.714   0.587   2.430 -3.5527 -0.7368 -0.8487
  784SOL     OW 2350   1.401   2.190   0.061 -0.0421 -0.4101  0.2282
  784SOL    HW1 2351   1.416   2.251   0.140  0.7171 -2.0810  2.2429
  784SOL    HW2 2352   1.392   2.240  -0.035  2.5577  1.8273  2.0786
  785SOL     OW 2353   2.038   0.323   3.067 -0.3463  0.2582  0.3856
  785SOL    HW1 2354   1.991   0.330   3.162 -0.0763 -2.8120  1.7916
  785SOL    HW2 2355   2.068   0.411   3.023  0.9053 -2.3469 -2.2393
  786SOL     OW 2356   2.034   2.166   2.246  0.1238 -0.6654  0.0312
  786SOL    HW1 2357   1.990   2.085   2.298 -0.9565  5.1340 -0.4779
  786SOL    HW2 2358   2.134   2.148   2.226  0.8795  1.3300  0.0462
  787SOL     OW 2359   1.349   0.524   0.922 -0.6763  0.7085 -0.1022
  787SOL    HW1 2360   1.287   0.605   0.930  1.6805 -2.8999 -0.6026
  787SOL    HW2 2361   1.427   0.542   0.860 -1.0433  1.9205  0.8610
  788SOL     OW 2362   1.217   0.421   0.057  0.4065  0.0457  0.2157
  788SOL    HW1 2363   1.129   0.407   0.010  3.7534 -1.0731 -0.1722
  788SOL    HW2 2364   1.223   0.506   0.111  2.5369 -2.2100 -1.2170
  789SOL     OW 2365   2.536   0.078   1.969  0.6448 -0.7404 -0.4111
  789SOL    HW1 2366   2.526   0.077   1.866  2.4357 -2.7493 -4.9008
  789SOL    HW2 2367   2.612   0.016   1.992 -1.9172 -0.7344 -1.6183
  790SOL     OW 2368   2.658   2.749   0.771 -0.1033  0.2361  0.2009
  790SOL    HW1 2369   2.691   2.807   0.696 -1.4880 -0.4310  2.3234
  790SOL    HW2 2370   2.606   2.796   0.850 -0.1231  2.4216  2.4369
  791SOL     OW 2371   1.932   1.213   0.288  0.1826 -0.6294 -0.1471
  791SOL    HW1 2372   1.861   1.162   0.337  0.0972 -0.5302  0.8923
  791SOL    HW2 2373   2.028   1.182   0.301  0.0660 -0.1386 -0.9817
  792SOL     OW 2374   0.367   1.741   2.123 -0.4513  0.1471  0.3168
  792SOL    HW1 2375   0.431   1.750   2.204  3.0889 -0.8851 -0.9080
  792SOL    HW2 2376   0.269   1.777   2.140 -1.4764  2.8722  2.2471
  793SOL     OW 2377   2.095   1.553   2.096  0.0883 -0.6130 -0.4102
  793SOL    HW1 2378   2.186   1.605   2.089 -1.4007 -0.4234  1.5194
  793SOL    HW2 2379   2.110   1.453   2.074 -0.8436 -0.5643 -1.2883
  794SOL     OW 2380   0.568   1.452   2.340  0.0670  0.2879  0.3538
  794SOL    HW1 2381   0.547   1.432   2.239  2.0784 -1.8498  1.1157
  794SOL    HW2 2382   0.492   1.495   2.397  0.1332 -2.9666  0.7142
  795SOL     OW 2383   2.540   2.269   1.830 -0.0415 -0.5942  0.1050
  795SOL    HW1 2384   2.549   2.261   1.937  0.1840 -0.0144  2.2246
  795SOL    HW2 2385   2.448   2.227   1.795 -1.3723  1.7510  0.8570
  796SOL     OW 2386   3.102   1.108   2.683 -0.8436 -0.0242  0.3761
  796SOL    HW1 2387   3.000   1.102   2.698 -2.1594  0.5728  0.2678
  796SOL    HW2 2388   3.154   1.134   2.770  3.9102  0.8264 -1.1461
  797SOL     OW 2389   0.783   0.669   1.414 -0.1780  0.1727 -0.3145
  797SOL    HW1 2390   0.857   0.710   1.474 -1.9140  1.2081 -1.3767
  797SOL    HW2 2391   0.726   0.740   1.365 -0.5876 -0.7966  2.9268
  798SOL     OW 2392   1.325   0.386   1.155  0.5852  0.0720  0.0200
  798SOL    HW1 2393   1.396   0.382   1.230  2.6867  1.3697  0.0067
  798SOL    HW2 2394   1.348   0.449   1.078  0.1352 -4.4233  2.2675
  799SOL     OW 2395   1.991   2.711   0.975 -0.0399  0.4418  0.1999
  799SOL    HW1 2396   1.910   2.703   1.040 -3.6680  0.6214  1.2795
  799SOL    HW2 2397   1.968   2.681   0.875 -1.9812  0.2269 -1.0995
  800SOL     OW 2398   3.043   0.624   1.816  0.5841 -0.8917 -0.1700
  800SOL    HW1 2399   3.007   0.707   1.871 -2.3681 -2.4840  0.1561
  800SOL    HW2 2400   3.137   0.587   1.850  1.9804 -0.3035 -3.5946
  801SOL     OW 2401   1.953   2.249   0.081  0.2039 -0.2220  0.1827
  801SOL    HW1 2402   1.875   2.199   0.034  1.0249 -0.7827  0.5239
  801SOL    HW2 2403   2.048   2.211   0.071  0.6924  0.9209 -0.3882
  802SOL     OW 2404   0.726   0.810   2.559 -0.2182  0.1047 -0.2310
  802SOL    HW1 2405   0.784   0.815   2.476 -0.5104  2.1089  1.1173
  802SOL    HW2 2406   0.622   0.791   2.535 -0.8632 -2.1365  2.1743
  803SOL     OW 2407   0.949   0.096   0.892  0.1151 -0.2551 -0.3675
  803SOL    HW1 2408   1.044   0.138   0.907 -1.6329  1.4348  0.1033
  803SOL    HW2 2409   0.888   0.161   0.840  2.5349 -1.4835  0.8078
  804SOL     OW 2410   0.287   0.043   2.166 -0.1012 -0.4048  0.0730
  804SOL    HW1 2411   0.305   0.142   2.159 -1.8176 -0.8583  1.7040
  804SOL    HW2 2412   0.229   0.012   2.089 -3.0191  1.7343  2.6017
  805SOL     OW 2413   2.446   0.251   0.281  0.6033  0.1570  1.0542
  805SOL    HW1 2414   2.545   0.286   0.287  3.5782  0.7135 -0.4696
  805SOL    HW2 2415   2.422   0.230   0.184 -2.0417 -1.3656 -0.0058
  806SOL     OW 2416   0.656   2.409   1.678  0.0848  0.0399 -0.1292
  806SOL    HW1 2417   0.665   2.511   1.702 -1.7370  1.7909 -2.8653
  806SOL    HW2 2418   0.748   2.364   1.674 -0.4371 -0.9809  0.0382
  807SOL     OW 2419   2.377   0.966   0.459 -0.4815 -0.3907 -0.0788
  807SOL    HW1 2420   2.445   0.933   0.527 -0.8488 -0.0242 -0.8905
  807SOL    HW2 2421   2.422   0.994   0.372  3.9568 -0.8969 -0.8962
  808SOL     OW 2422   0.546   2.013   2.990 -0.1103  0.2111  0.4297
  808SOL    HW1 2423   0.548   2.033   3.094 -4.2673  1.1033 -1.5045
  808SOL    HW2 2424   0.568   1.915   2.963  0.2948  0.6580  1.6006
  809SOL     OW 2425   2.596   1.979   1.952  0.0700  0.1150 -0.8126
  809SOL    HW1 2426   2.693   2.003   1.982 -0.5231 -1.8962 -0.5300
  809SOL    HW2 2427   2.584   1.998   1.854  3.3185  1.0944  1.0006
  810SOL     OW 2428   2.096   1.053   0.569  0.4709 -0.8968  0.5001
  810SOL    HW1 2429   2.117   0.988   0.652 -3.5908 -2.1684  1.4835
  810SOL    HW2 2430   2.053   1.147   0.597  0.4025  3.7634 -1.2744
  811SOL     OW 2431   1.351   2.461   1.320  0.0039 -0.2165  0.2760
  811SOL    HW1 2432   1.347   2.358   1.323  0.4028 -0.1795  0.0034
  811SOL    HW2 2433   1.254   2.496   1.291 -0.9476  1.7314 -2.1008
  812SOL     OW 2434   1.472   0.802   1.954  0.3315  0.3326  0.0945
  812SOL    HW1 2435   1.528   0.844   2.030 -2.4747  1.2504  0.9011
  812SOL    HW2 2436   1.379   0.848   1.960  0.0127  0.7709 -1.1907
  813SOL     OW 2437   1.728   2.163   2.445 -0.1299 -0.6921  0.5593
  813SOL    HW1 2438   1.821   2.110   2.450  1.8770 -1.1503 -1.1953
  813SOL    HW2 2439   1.667   2.118   2.373  0.8343 -2.0945 -1.9407
  814SOL     OW 2440   2.862   1.546   2.870 -0.0198  0.7380 -0.9361
  814SOL    HW1 2441   2.960   1.552   2.915  1.2305  2.3006  1.8190
  814SOL    HW2 2442   2.839   1.634   2.815  0.3620  1.6811 -0.5841
  815SOL     OW 2443   2.265   2.834   2.716 -0.6176 -0.0947  0.5729
  815SOL    HW1 2444   2.279   2.791   2.808  1.8469 -2.0892  1.7902
  815SOL    HW2 2445   2.345   2.807   2.649  2.3537 -1.5704  0.1307
  816SOL     OW 2446   1.674   0.294   1.580 -0.4077 -0.0828 -0.3856
  816SOL    HW1 2447   1.694   0.202   1.624 -1.1215 -1.5397  1.4965
  816SOL    HW2 2448   1.602   0.344   1.634 -0.6517 -0.7192 -1.1424
  817SOL     OW 2449   0.443   1.256   2.499 -0.0562 -0.1906  0.2990
  817SOL    HW1 2450   0.373   1.327   2.531 -0.8987  0.4242  1.1755
  817SOL    HW2 2451   0.506   1.301   2.430 -2.5830  0.1149  1.6377
  818SOL     OW 2452   1.959   0.834   0.455 -0.1947 -0.4036  0.6884
  818SOL    HW1 2453   2.013   0.921   0.473  1.7974  1.5815  0.4803
  818SOL    HW2 2454   1.930   0.789   0.544  0.7524  3.6575  2.5309
  819SOL     OW 2455   2.791   2.889   3.019  0.1262  0.2860 -0.0734
  819SOL    HW1 2456   2.872   2.840   2.970  0.8591  0.5324 -1.7191
  819SOL    HW2 2457   2.702   2.879   2.970 -0.8447 -0.6320 -0.7954
  820SOL     OW 2458   1.244   1.114   0.538 -0.1735 -0.2178  0.4384
  820SOL    HW1 2459   1.213   1.213   0.556  0.7701  2.1850 -1.0321
  820SOL    HW2 2460   1.250   1.055   0.631 -1.6288 -2.2690  1.4103
  821SOL     OW 2461   0.012   1.272   0.665  0.7562  0.0222 -0.0399
  821SOL    HW1 2462  -0.025   1.268   0.761  2.3786 -1.0033 -0.5142
  821SOL    HW2 2463   0.075   1.358   0.647 -1.1507  0.5503  0.8733
  822SOL     OW 2464   2.531   1.752   2.411  0.2596  0.1935 -0.1771
  822SOL    HW1 2465   2.520   1.828   2.487 -0.5405 -1.5768  1.4803
  822SOL    HW2 2466   2.473   1.769   2.328 -1.3701 -0.8811  0.8071
  823SOL     OW 2467   2.030   0.857   1.220 -0.3001 -0.8737 -0.1906
  823SOL    HW1 2468   1.997   0.877   1.318  0.5252  0.3461  1.5938
  823SOL    HW2 2469   1.953   0.853   1.152 -1.0828 -0.4339  0.7923
  824SOL     OW 2470   0.117   2.032   2.802  0.3512  0.5529 -0.1521
  824SOL    HW1 2471   0.063   1.950   2.842 -0.5854 -1.6837  2.1569
  824SOL    HW2 2472   0.190   2.002   2.735  2.0926  2.2537 -1.5955
  825SOL     OW 2473   1.286   1.084   0.236  0.0543  0.7639  0.0227
  825SOL    HW1 2474   1.318   1.182   0.257  1.9475  1.3264  0.7932
  825SOL    HW2 2475   1.183   1.069   0.232 -1.6291 -5.0038  0.6914
  826SOL     OW 2476   1.939   0.637   1.599 -0.1447 -0.0858 -0.0593
  826SOL    HW1 2477   2.010   0.565   1.628  1.5555 -0.6278 -3.1593
  826SOL    HW2 2478   1.851   0.600   1.558 -0.5303 -0.1914 -0.3338
  827SOL     OW 2479   0.726   1.413   0.287 -0.4099 -0.6624 -0.1130
  827SOL    HW1 2480   0.774   1.336   0.232 -3.0611 -0.7589 -2.4627
  827SOL    HW2 2481   0.686   1.375   0.373  0.6319  2.2998 -0.0198
  828SOL     OW 2482   2.501   0.091   1.594 -0.5846  0.2264  0.7431
  828SOL    HW1 2483   2.416   0.093   1.543 -1.2486 -2.0765  0.9509
  828SOL    HW2 2484   2.511   0.010   1.650 -0.7429  1.2134 -2.9507
  829SOL     OW 2485   2.811   2.499   2.965 -0.0732 -0.3843 -0.4131
  829SOL    HW1 2486   2.744   2.425   2.941 -2.9547 -0.1848  1.2509
  829SOL    HW2 2487   2.774   2.549   3.049 -1.2654  0.7386  1.8381
  830SOL     OW 2488   2.813   0.921   3.028  0.0110 -0.6878  0.3762
  830SOL    HW1 2489   2.870   0.996   3.067  1.4824 -1.0788 -0.3962
  830SOL    HW2 2490   2.837   0.828   3.071  0.1648 -3.0501  0.7110
  831SOL     OW 2491   0.017   0.636   0.380  0.1157  0.3339  0.0763
  831SOL    HW1 2492   0.026   0.576   0.470  2.4133  0.3768  1.6754
  831SOL    HW2 2493   0.016   0.582   0.289 -2.3619 -3.8552 -1.3711
  832SOL     OW 2494   1.835   0.729   0.008 -0.6089  0.0897  0.0556
  832SOL    HW1 2495   1.758   0.800  -0.015 -3.2834  0.8842 -0.3877
  832SOL    HW2 2496   1.803   0.629  -0.014  1.2357 -1.7278  0.9690
  833SOL     OW 2497   2.425   2.108   0.531  0.5559 -0.3406 -0.1283
  833SOL    HW1 2498   2.335   2.076   0.489 -1.6412 -2.6030  0.4599
  833SOL    HW2 2499   2.495   2.034   0.520  1.7084 -1.7885  0.5725
  834SOL     OW 2500   0.168   0.194   0.571  0.4375 -0.2751 -0.7690
  834SOL    HW1 2501   0.223   0.111   0.595 -1.6265  3.0134 -0.0041
  834SOL    HW2 2502   0.159   0.206   0.474 -0.4909 -0.6172  1.9070
  835SOL     OW 2503   2.377   1.526   1.157  0.1729  0.7152  0.2597
  835SOL    HW1 2504   2.479   1.547   1.177 -1.0518 -2.2489  0.8440
  835SOL    HW2 2505   2.345   1.536   1.064  0.7635  0.2579  1.3659
  836SOL     OW 2506   1.577   0.818   2.569  0.0697  0.2451 -0.3842
  836SOL    HW1 2507   1.486   0.815   2.521  1.6697  3.2483  0.9340
  836SOL    HW2 2508   1.652   0.840   2.501  0.8020 -2.0665 -0.0497
  837SOL     OW 2509   1.739   0.144   0.548  0.2273 -0.0149  0.3054
  837SOL    HW1 2510   1.653   0.194   0.562  2.3671  1.1177 -1.8476
  837SOL    HW2 2511   1.744   0.081   0.464  0.4250  1.0117  0.3115
  838SOL     OW 2512   1.173   1.564   2.732 -1.4135  0.0415  0.2597
  838SOL    HW1 2513   1.206   1.517   2.818  0.9823 -1.3124  0.4380
  838SOL    HW2 2514   1.135   1.497   2.663  1.7253 -3.0933  0.9905
  839SOL     OW 2515   1.589   0.312   0.974 -0.0769  0.1745  0.0000
  839SOL    HW1 2516   1.625   0.366   1.053 -2.1309 -1.2224  0.3816
  839SOL    HW2 2517   1.534   0.230   1.002  1.0364 -0.3695  1.1177
  840SOL     OW 2518   2.505   2.935   1.718 -0.7614  0.0657 -0.2901
  840SOL    HW1 2519   2.426   2.864   1.708 -0.8410  2.5501  0.0177
  840SOL    HW2 2520   2.585   2.897   1.765  0.0581  2.3381 -0.7654
  841SOL     OW 2521   1.594   0.813   3.055 -0.9589  0.3318 -0.4701
  841SOL    HW1 2522   1.498   0.826   3.097 -0.1494 -1.3017  0.4638
  841SOL    HW2 2523   1.595   0.848   2.965 -0.2521 -0.4875  2.0916
  842SOL     OW 2524   0.818   1.477   0.907 -0.4573  0.2408  0.2361
  842SOL    HW1 2525   0.777   1.566   0.954 -1.7664  0.8543  0.8902
  842SOL    HW2 2526   0.739   1.417   0.874 -0.5210  0.9704 -1.1691
  843SOL     OW 2527   0.093   0.006   1.384 -0.1381 -0.2546 -0.1673
  843SOL    HW1 2528   0.154   0.061   1.445 -0.9763 -4.0172 -0.0841
  843SOL    HW2 2529   0.083  -0.089   1.427  1.4708 -0.8073  1.4008
  844SOL     OW 2530   0.806   2.480   0.264  0.0242 -0.7193 -0.4775
  844SOL    HW1 2531   0.760   2.452   0.352 -2.4050  2.9697  0.2838
  844SOL    HW2 2532   0.764   2.562   0.222  1.5335 -0.9208  0.2966
  845SOL     OW 2533   1.652   2.888   1.309 -0.2053  0.0496  0.4991
  845SOL    HW1 2534   1.707   2.805   1.273  0.3149  0.6647 -0.5017
  845SOL    HW2 2535   1.700   2.941   1.386 -0.2112  1.4297  3.8391
  846SOL     OW 2536   1.592   2.942   0.721  0.1753 -0.1334  0.4865
  846SOL    HW1 2537   1.579   2.948   0.619  1.2039 -0.8018  1.7069
  846SOL    HW2 2538   1.692   2.927   0.752 -1.1968 -3.4595  1.6446
  847SOL     OW 2539   2.077   1.667   0.387  0.0747 -0.4852 -0.2840
  847SOL    HW1 2540   2.027   1.578   0.387  0.3427  3.8506 -3.2248
  847SOL    HW2 2541   2.014   1.751   0.409 -3.6682  2.7314 -3.2416
  848SOL     OW 2542   2.446   0.857   2.613  0.2105  0.0808 -0.1199
  848SOL    HW1 2543   2.445   0.952   2.657 -0.7952 -0.2872  0.3619
  848SOL    HW2 2544   2.350   0.809   2.613  0.3422 -1.4549  0.0667
  849SOL     OW 2545   2.551   0.861   2.369 -0.4076  0.2349  0.3140
  849SOL    HW1 2546   2.632   0.793   2.370 -1.6256 -0.3826  1.5115
  849SOL    HW2 2547   2.504   0.855   2.457  2.4885 -0.9935 -0.7175
  850SOL     OW 2548   1.561   0.093   1.357  0.2240 -0.2280 -0.5876
  850SOL    HW1 2549   1.551   0.058   1.256 -0.6838  0.6002 -0.6267
  850SOL    HW2 2550   1.506   0.038   1.427 -0.2008  0.1399 -1.9720
  851SOL     OW 2551   0.435   1.804   0.561 -0.0818 -0.3480 -0.2350
  851SOL    HW1 2552   0.458   1.906   0.555  0.4906  1.1028  0.5060
  851SOL    HW2 2553   0.470   1.744   0.487 -1.3649 -2.3731  1.2171
  852SOL     OW 2554   0.808   2.054   1.785 -0.4383  0.3378 -0.7965
  852SOL    HW1 2555   0.829   2.150   1.748  1.2917 -0.4104 -3.9340
  852SOL    HW2 2556   0.733   2.055   1.856  0.9586  0.6733  3.0298
  853SOL     OW 2557   2.505   1.545   2.600 -0.1794  0.1043  0.2760
  853SOL    HW1 2558   2.463   1.457   2.561  0.3264 -1.9235 -1.4908
  853SOL    HW2 2559   2.492   1.625   2.528  0.1658  0.4875 -1.1194
  854SOL     OW 2560   2.412   1.367   1.735 -0.5698 -0.0863 -0.6724
  854SOL    HW1 2561   2.455   1.325   1.651  0.3545 -0.1386 -0.8723
  854SOL    HW2 2562   2.347   1.301   1.788  0.4732 -1.2431 -0.1723
  855SOL     OW 2563   2.085   2.470   1.044  0.0724 -0.2504  0.2087
  855SOL    HW1 2564   2.066   2.562   1.005 -0.6408 -0.3054  2.5934
  855SOL    HW2 2565   2.171   2.473   1.102 -0.2170  1.1891  1.4095
  856SOL     OW 2566   1.336   1.404   0.937  0.5728 -0.2244  0.2287
  856SOL    HW1 2567   1.411   1.477   0.944  1.5396  1.9693  1.4218
  856SOL    HW2 2568   1.244   1.439   0.968 -1.5896 -1.8024  2.5715
  857SOL     OW 2569   3.058   2.747   0.985 -0.4077 -0.4837 -0.3755
  857SOL    HW1 2570   3.026   2.658   0.946  1.7402  1.0675  2.9873
  857SOL    HW2 2571   3.148   2.776   0.936  1.1952  0.8237 -1.7330
  858SOL     OW 2572   2.351   2.093   1.709 -0.3725  0.0772 -0.0528
  858SOL    HW1 2573   2.262   2.098   1.663  0.6023 -1.4539 -1.9362
  858SOL    HW2 2574   2.401   2.009   1.668 -3.1883 -0.4934 -0.2874
  859SOL     OW 2575   2.425   0.581   1.093  1.1846  0.1761  0.0228
  859SOL    HW1 2576   2.496   0.605   1.027  2.1675 -0.7207  1.2439
  859SOL    HW2 2577   2.430   0.480   1.117  1.9307  0.5430  1.0858
  860SOL     OW 2578   1.836   2.801   0.508  0.9166 -0.6044 -0.0170
  860SOL    HW1 2579   1.838   2.799   0.401 -0.5839  1.9042 -2.3490
  860SOL    HW2 2580   1.847   2.894   0.548 -1.0340  2.6651  0.8755
  861SOL     OW 2581   0.996   2.442   2.878  0.3904 -0.1507  0.4081
  861SOL    HW1 2582   1.042   2.521   2.831 -0.4702 -2.0809 -2.4334
  861SOL    HW2 2583   0.964   2.467   2.971 -0.2938 -2.3540 -0.8221
  862SOL     OW 2584   2.929   2.556   1.603 -0.2791  0.1301 -0.7254
  862SOL    HW1 2585   3.011   2.587   1.662 -0.3097 -1.3957  1.5597
  862SOL    HW2 2586   2.873   2.643   1.583  0.3726 -0.3721  2.8802
  863SOL     OW 2587   1.805   2.742   0.236 -0.0227 -0.3773 -0.5886
  863SOL    HW1 2588   1.868   2.658   0.240 -0.3007  1.6991  1.5613
  863SOL    HW2 2589   1.715   2.715   0.190  0.1859 -0.4808  1.3787
  864SOL     OW 2590   2.027   1.225   2.848 -0.3152 -0.3005  0.0164
  864SOL    HW1 2591   2.057   1.148   2.784 -0.4426 -4.0292 -2.3264
  864SOL    HW2 2592   2.036   1.317   2.808 -0.3843 -0.1718 -2.0144
  865SOL     OW 2593   2.161   1.933   0.742 -0.3661 -0.0784 -0.1742
  865SOL    HW1 2594   2.231   1.881   0.796 -0.7131  0.8098  0.9256
  865SOL    HW2 2595   2.078   1.961   0.795  0.0183  1.7828 -1.9566
  866SOL     OW 2596   2.876   2.954   1.012 -0.0455 -0.3093  0.0405
  866SOL    HW1 2597   2.874   3.013   0.928 -1.5714  3.0763 -1.9597
  866SOL    HW2 2598   2.951   2.882   0.999 -1.3438 -1.1457 -0.6170
  867SOL     OW 2599   0.359   1.453   0.937 -0.1924 -0.6586  0.0975
  867SOL    HW1 2600   0.319   1.379   0.878  0.2975 -1.0113  0.7639
  867SOL    HW2 2601   0.366   1.546   0.882  0.3366  4.4030 -1.3521
  868SOL     OW 2602   0.765   1.846   2.106  0.1720  0.6793  0.3656
  868SOL    HW1 2603   0.687   1.804   2.167 -3.1516 -0.9810  2.9252
  868SOL    HW2 2604   0.740   1.941   2.067 -1.5437  0.2395 -2.0940
  869SOL     OW 2605   2.579   1.945   1.628 -0.3002  0.2515 -0.0041
  869SOL    HW1 2606   2.669   1.972   1.582  2.1206 -0.3108 -4.7293
  869SOL    HW2 2607   2.558   1.847   1.615 -0.0012  2.4136 -1.2208
  870SOL     OW 2608   2.300   2.703   1.224 -0.6702 -0.0391 -0.4400
  870SOL    HW1 2609   2.300   2.598   1.242 -2.9583 -3.4188  1.8590
  870SOL    HW2 2610   2.383   2.755   1.239  0.2189 -1.6313  0.6880
  871SOL     OW 2611   0.024   2.272   0.552  0.4043  0.0404 -0.2242
  871SOL    HW1 2612  -0.012   2.324   0.630  1.8564  1.4889 -0.6803
  871SOL    HW2 2613  -0.031   2.280   0.464 -0.4095  2.1658 -1.0164
  872SOL     OW 2614   2.099   0.437   1.681  0.4201  0.2673 -0.4922
  872SOL    HW1 2615   2.061   0.423   1.776  2.3236  0.1970 -0.3048
  872SOL    HW2 2616   2.204   0.417   1.679  1.8556  0.5774 -1.5571
  873SOL     OW 2617   1.712   2.100   3.103  0.3418  0.2664  0.1320
  873SOL    HW1 2618   1.616   2.115   3.145 -0.8296 -3.0582 -0.4236
  873SOL    HW2 2619   1.707   2.101   2.997  3.5707 -0.1497 -1.9776
  874SOL     OW 2620   0.677   2.464   0.757 -0.0691 -0.3115 -0.0593
  874SOL    HW1 2621   0.660   2.563   0.769  1.0389 -0.4398 -1.8730
  874SOL    HW2 2622   0.779   2.435   0.756  1.2855  1.1723  0.1939
  875SOL     OW 2623   2.259   1.519   1.425  0.0110  0.5338 -0.6486
  875SOL    HW1 2624   2.298   1.589   1.482  1.1727  0.9760 -0.8140
  875SOL    HW2 2625   2.302   1.516   1.331  2.6933 -1.5404  1.3057
  876SOL     OW 2626   0.068   2.281   2.654  0.1766 -0.3758  0.0754
  876SOL    HW1 2627   0.096   2.187   2.689 -1.3301  3.0771  0.2176
  876SOL    HW2 2628   0.107   2.356   2.716 -0.6679  2.8405  0.3281
  877SOL     OW 2629   2.924   2.634   0.609 -0.1668 -0.2284 -0.6199
  877SOL    HW1 2630   2.908   2.724   0.652  0.6109 -1.1627 -0.7927
  877SOL    HW2 2631   2.994   2.581   0.669 -0.6410 -0.2341  1.5773
  878SOL     OW 2632   2.816   1.494   2.259  0.0082 -0.3260  0.0976
  878SOL    HW1 2633   2.798   1.583   2.207 -0.7733  0.5885  0.0440
  878SOL    HW2 2634   2.795   1.506   2.360 -1.4018 -1.0828 -0.1461
  879SOL     OW 2635   2.384   0.085   1.257 -0.4169  0.2588  1.2106
  879SOL    HW1 2636   2.444   0.001   1.250  0.6428  0.4841  0.7121
  879SOL    HW2 2637   2.305   0.076   1.183  2.3827  0.1182 -1.5325
  880SOL     OW 2638   0.738   0.524   2.241  0.1669 -0.2447 -0.1043
  880SOL    HW1 2639   0.678   0.474   2.311  1.3229 -1.6705  2.1604
  880SOL    HW2 2640   0.816   0.465   2.196  1.4849  2.1562 -3.4037
  881SOL     OW 2641   0.835   0.083   0.416  0.7826  0.2125 -0.0982
  881SOL    HW1 2642   0.873  -0.014   0.384  1.7350 -0.8376 -1.2122
  881SOL    HW2 2643   0.733   0.088   0.389 -2.0536 -1.6166  3.2782
  882SOL     OW 2644   2.712   1.667   1.694 -0.3624 -0.0241 -0.3663
  882SOL    HW1 2645   2.777   1.591   1.664 -1.1487  0.3735  0.6559
  882SOL    HW2 2646   2.744   1.714   1.775  0.1140  0.2225  0.1489
  883SOL     OW 2647   0.822   0.515   0.939  0.6508  0.1672  0.2298
  883SOL    HW1 2648   0.865   0.594   0.989 -0.8146  1.3590 -0.0297
  883SOL    HW2 2649   0.759   0.453   0.998 -0.1763  0.0473 -0.1950
  884SOL     OW 2650   1.101   1.749   1.167 -0.2178  0.0749  0.2856
  884SOL    HW1 2651   1.089   1.653   1.123 -0.5065 -2.6568  0.1831
  884SOL    HW2 2652   1.057   1.824   1.115  0.8089 -2.7101  3.3167
  885SOL     OW 2653   2.324   1.825   2.228 -0.0205 -0.5474  0.4532
  885SOL    HW1 2654   2.241   1.765   2.259 -0.0359  0.0984  0.6052
  885SOL    HW2 2655   2.326   1.928   2.261 -0.4123  0.5175  0.0120
  886SOL     OW 2656   2.595   0.348   1.798  0.1225 -0.0946 -0.2331
  886SOL    HW1 2657   2.580   0.292   1.883  0.6504  1.3184 -1.0637
  886SOL    HW2 2658   2.692   0.380   1.780  0.2698  0.0173  1.1228
  887SOL     OW 2659   0.151   2.060   1.277 -0.2631  0.2594  0.6296
  887SOL    HW1 2660   0.071   2.031   1.223  2.0817 -0.4686 -1.8417
  887SOL    HW2 2661   0.170   2.159   1.272 -0.8628 -0.5849  1.5516
  888SOL     OW 2662   0.645   1.218   1.492 -0.5591  0.1441  0.0751
  888SOL    HW1 2663   0.700   1.267   1.422  0.0615  0.5849 -1.5358
  888SOL    HW2 2664   0.625   1.117   1.473  1.7608  0.7877  1.0070
  889SOL     OW 2665   0.848   2.498   2.237 -0.2934  1.0918 -0.6024
  889SOL    HW1 2666   0.769   2.433   2.220 -0.5668 -1.0102  0.6711
  889SOL    HW2 2667   0.933   2.475   2.182 -0.1926  1.4578 -1.6645
  890SOL     OW 2668   2.350   2.497   0.245  0.0473  0.5975  0.2868
  890SOL    HW1 2669   2.386   2.570   0.186 -0.0074 -1.5800  3.5767
  890SOL    HW2 2670   2.324   2.530   0.338  3.5403  2.2879 -1.0640
  891SOL     OW 2671   2.516   1.726   0.691 -0.2950  0.2341 -0.6348
  891SOL    HW1 2672   2.495   1.672   0.779 -2.4795 -0.6307  0.2205
  891SOL    HW2 2673   2.447   1.701   0.614  0.1344 -0.0232 -0.2963
  892SOL     OW 2674   0.415   0.357   2.231  0.4838 -0.3553  0.4998
  892SOL    HW1 2675   0.422   0.438   2.163  2.2206 -1.8127 -0.6660
  892SOL    HW2 2676   0.479   0.367   2.309  0.6410 -0.8442 -0.5513
  893SOL     OW 2677   1.702   0.213   2.718 -0.4965  0.0661  0.3199
  893SOL    HW1 2678   1.779   0.282   2.729 -0.9459  0.6245  0.2454
  893SOL    HW2 2679   1.611   0.267   2.705 -0.7905 -4.1483  1.2082
  894SOL     OW 2680   2.162   2.083   0.070  0.0187 -0.4035  0.1142
  894SOL    HW1 2681   2.128   2.023  -0.004 -2.1178  1.9613  1.2969
  894SOL    HW2 2682   2.209   2.037   0.149  0.1070 -1.1006 -1.4461
  895SOL     OW 2683   2.773   1.451   0.929  0.5937 -0.0349 -0.4418
  895SOL    HW1 2684   2.866   1.405   0.941  2.1858  0.5444 -0.0054
  895SOL    HW2 2685   2.776   1.551   0.925  0.5109 -2.2705 -0.5207
  896SOL     OW 2686   1.851   1.868   1.215  0.0206  0.1189 -0.3832
  896SOL    HW1 2687   1.927   1.802   1.245  0.4407 -2.9216  0.5674
  896SOL    HW2 2688   1.786   1.830   1.146  0.5446 -1.2065  0.0796
  897SOL     OW 2689   0.284   0.535   3.041  0.4848  1.0313  0.2285
  897SOL    HW1 2690   0.225   0.601   2.992  2.3121  0.4646  3.1487
  897SOL    HW2 2691   0.383   0.566   3.057 -0.2136  1.6631  0.2495
  898SOL     OW 2692   0.679   2.811   1.030 -0.1674  0.3411  0.0663
  898SOL    HW1 2693   0.702   2.904   1.069 -2.2693 -0.2023  1.0540
  898SOL    HW2 2694   0.725   2.734   1.079 -0.8738  1.5992  3.7667
  899SOL     OW 2695   2.834   0.884   1.412 -0.4479 -0.3611 -0.3887
  899SOL    HW1 2696   2.860   0.842   1.325 -0.7636  0.6182 -0.0165
  899SOL    HW2 2697   2.907   0.946   1.448 -0.9001  2.7343 -2.0996
  900SOL     OW 2698   0.999   2.456   2.501  0.7152  0.6128  1.0010
  900SOL    HW1 2699   0.938   2.462   2.414 -3.5890  1.6239 -0.5288
  900SOL    HW2 2700   0.965   2.391   2.576 -1.9376  1.2890 -1.3065
  901SOL     OW 2701   1.917   2.436   1.386  0.1479 -0.3646 -0.6476
  901SOL    HW1 2702   1.879   2.388   1.300 -0.3675  0.9052 -0.2448
  901SOL    HW2 2703   2.019   2.411   1.410 -0.0863  1.7283  3.6318
  902SOL     OW 2704   2.512   1.675   1.500  0.1253 -0.0723  0.4835
  902SOL    HW1 2705   2.576   1.661   1.584  0.8468  1.4991  0.1435
  902SOL    HW2 2706   2.549   1.631   1.414  1.5575  0.2435  1.3248
  903SOL     OW 2707   0.330   2.505   1.987 -0.0579 -0.0359 -0.4901
  903SOL    HW1 2708   0.261   2.429   2.001  0.5410 -0.4978  2.3740
  903SOL    HW2 2709   0.326   2.546   1.889 -1.9727  0.0227 -0.0846
  904SOL     OW 2710   1.991   0.797   2.536 -0.3770 -0.2455  1.1778
  904SOL    HW1 2711   1.918   0.748   2.590  2.8537 -1.6022  1.1011
  904SOL    HW2 2712   1.986   0.770   2.434  0.4082  2.0717 -0.2547
  905SOL     OW 2713   2.860   0.082   2.393  0.3582 -0.1011  0.6699
  905SOL    HW1 2714   2.895  -0.005   2.439 -1.3538  0.8279  2.6259
  905SOL    HW2 2715   2.919   0.164   2.424 -2.9490  1.0226 -0.6516
  906SOL     OW 2716   0.146   1.690   1.888 -0.0318 -0.1375 -0.1607
  906SOL    HW1 2717   0.092   1.747   1.817 -0.0019 -2.0678  1.6639
  906SOL    HW2 2718   0.251   1.684   1.869  0.0880 -3.0218  3.6008
  907SOL     OW 2719   0.210   2.458   0.965 -0.3927 -0.5958  0.1838
  907SOL    HW1 2720   0.307   2.440   0.929  0.9198  1.3959  0.2991
  907SOL    HW2 2721   0.174   2.551   0.948 -1.2987 -2.4721  1.2893
  908SOL     OW 2722   2.833   3.050   0.269 -0.0530  0.0907  0.0832
  908SOL    HW1 2723   2.736   3.040   0.229  0.7353  2.0122 -0.5823
  908SOL    HW2 2724   2.875   2.953   0.290  2.2135  0.2619  1.9611
  909SOL     OW 2725   0.856   1.055   2.680 -0.1508  0.2177  0.0431
  909SOL    HW1 2726   0.806   0.972   2.657  1.5551  1.9193 -0.1547
  909SOL    HW2 2727   0.926   1.071   2.604  0.2706 -0.5635 -0.2447
  910SOL     OW 2728   1.764   1.881   2.164 -0.3065 -0.0696  0.5156
  910SOL    HW1 2729   1.807   1.943   2.092  0.0470 -0.1404 -1.8703
  910SOL    HW2 2730   1.694   1.922   2.228 -3.2949 -0.7234  0.4145
  911SOL     OW 2731   1.790   2.969   1.548  0.3524  0.3972  0.0146
  911SOL    HW1 2732   1.867   2.955   1.483 -1.9406  0.1934  2.3205
  911SOL    HW2 2733   1.782   2.886   1.613 -1.4871  1.5253  1.7607
  912SOL     OW 2734   2.852   1.024   0.720  0.0574 -0.0153 -0.2791
  912SOL    HW1 2735   2.876   0.990   0.815  0.8721  1.5110 -0.4219
  912SOL    HW2 2736   2.829   1.128   0.719 -0.1578  1.6970 -0.2509
  913SOL     OW 2737   2.561   1.268   1.514  0.3293 -0.5681 -0.2787
  913SOL    HW1 2738   2.553   1.163   1.511 -1.1762  1.1773  1.1228
  913SOL    HW2 2739   2.626   1.315   1.449  1.5295 -2.6324 -0.5079
  914SOL     OW 2740   2.777   0.611   1.125  0.0484  0.6797 -0.4307
  914SOL    HW1 2741   2.752   0.523   1.173 -1.2275 -1.9962  1.6900
  914SOL    HW2 2742   2.701   0.678   1.145 -1.7467 -0.7094 -0.6799
  915SOL     OW 2743   1.206   0.771   0.997  0.6859 -0.7207  0.6410
  915SOL    HW1 2744   1.237   0.785   1.095  0.0525  1.8854 -2.8790
  915SOL    HW2 2745   1.104   0.794   0.982  0.0211  2.3926 -1.2702
  916SOL     OW 2746   0.567   0.111   0.662 -0.0798 -0.7326 -0.4662
  916SOL    HW1 2747   0.612   0.158   0.745 -2.4402  0.1849 -2.5601
  916SOL    HW2 2748   0.511   0.180   0.609 -1.1441  1.4281  1.9991
  917SOL     OW 2749   2.878   2.554   1.999  0.5288  0.0964 -0.1266
  917SOL    HW1 2750   2.795   2.578   1.950  0.9095 -0.1959  1.8489
  917SOL    HW2 2751   2.958   2.612   1.964  0.7357 -2.9562 -2.2519
  918SOL     OW 2752   1.005   2.066   3.007 -0.1915 -0.1252 -0.0894
  918SOL    HW1 2753   0.987   2.144   3.072  0.6732 -0.1544  0.2343
  918SOL    HW2 2754   1.080   2.090   2.938  0.9261  0.5794 -2.7046
  919SOL     OW 2755   0.863   1.711   2.768 -0.1821 -0.1679  0.6084
  919SOL    HW1 2756   0.896   1.798   2.722 -1.1975  1.2815 -0.8294
  919SOL    HW2 2757   0.817   1.644   2.703 -1.4780  0.7304 -0.2869
  920SOL     OW 2758   1.278   1.755   2.531 -0.3546  0.4757  0.4200
  920SOL    HW1 2759   1.371   1.747   2.483 -1.1905 -1.9629  1.3358
  920SOL    HW2 2760   1.257   1.691   2.609 -1.2708 -2.3097 -2.0312
  921SOL     OW 2761   1.125   0.007   2.652 -0.8076 -0.0098  0.1408
  921SOL    HW1 2762   1.138  -0.008   2.550  1.7291 -0.4211 -1.0883
  921SOL    HW2 2763   1.023   0.010   2.679  2.0045  0.6220 -0.9931
  922SOL     OW 2764   2.186   2.376   2.742  0.2270  0.3377  0.0357
  922SOL    HW1 2765   2.189   2.268   2.756 -1.1042  1.7818 -0.9968
  922SOL    HW2 2766   2.153   2.407   2.650 -2.6225 -1.5023  1.4189
  923SOL     OW 2767   1.271   2.707   0.268 -0.1305 -0.4793  0.0414
  923SOL    HW1 2768   1.315   2.773   0.337  1.4749 -0.0740  0.6559
  923SOL    HW2 2769   1.316   2.608   0.272 -1.3024 -2.9775 -0.8713
  924SOL     OW 2770   2.879   1.677   0.145 -0.0641 -0.9487 -0.1467
  924SOL    HW1 2771   2.812   1.635   0.072  2.9014 -2.1468 -2.5926
  924SOL    HW2 2772   2.972   1.631   0.148 -1.5581  0.3089  1.0765
  925SOL     OW 2773   0.049   2.867   1.518 -0.0773 -0.0036 -0.3218
  925SOL    HW1 2774  -0.001   2.850   1.609 -0.1261  1.8046  2.0351
  925SOL    HW2 2775   0.010   2.805   1.444  0.0738  0.1888  1.0829
  926SOL     OW 2776   1.300   2.838   1.327 -0.0434  0.2089  0.2462
  926SOL    HW1 2777   1.364   2.845   1.247 -1.9174 -0.9545  2.0495
  926SOL    HW2 2778   1.341   2.894   1.402 -1.7673 -2.4372  0.7661
  927SOL     OW 2779   0.347   2.640   1.768 -0.1690 -0.8059  0.3834
  927SOL    HW1 2780   0.319   2.589   1.679 -0.5141 -0.9709 -0.0341
  927SOL    HW2 2781   0.344   2.747   1.758 -2.6275  0.7080 -0.6217
  928SOL     OW 2782   1.597   2.070   2.241 -0.1449  0.0229  0.2404
  928SOL    HW1 2783   1.633   2.127   2.163  0.6338 -2.6147 -0.6620
  928SOL    HW2 2784   1.498   2.044   2.217 -2.7330 -0.3771  1.0166
  929SOL     OW 2785   2.395   2.483   2.858 -0.3059 -0.3299  0.0865
  929SOL    HW1 2786   2.317   2.423   2.815 -1.6987 -1.5327  3.1207
  929SOL    HW2 2787   2.466   2.514   2.792  1.2078 -1.3780  0.0439
  930SOL     OW 2788   2.157   1.977   1.116 -0.0838 -0.6154 -0.3693
  930SOL    HW1 2789   2.137   1.924   1.202 -1.6477 -0.2519 -2.4012
  930SOL    HW2 2790   2.229   2.056   1.126 -1.1340 -0.4263 -0.8170
  931SOL     OW 2791   0.522   1.725   2.637  0.3689  0.0316 -0.3831
  931SOL    HW1 2792   0.543   1.747   2.734 -0.6759  0.3728 -0.1295
  931SOL    HW2 2793   0.609   1.691   2.595  0.5160  2.2210  3.9468
  932SOL     OW 2794   0.364   0.098   3.089 -0.4167 -0.0552  0.3724
  932SOL    HW1 2795   0.446   0.149   3.128  0.7674  1.9028  1.1514
  932SOL    HW2 2796   0.386   0.001   3.051  2.7300 -0.0217 -3.4947
  933SOL     OW 2797   0.954   0.843   3.021 -0.3109 -0.2619 -0.6234
  933SOL    HW1 2798   0.858   0.814   3.023  1.4653  0.9871  0.9085
  933SOL    HW2 2799   0.964   0.946   3.031  0.2000  0.6006 -0.8456
  934SOL     OW 2800   0.719   2.932   2.683  0.3810  0.8184  0.7142
  934SOL    HW1 2801   0.707   2.879   2.587 -0.5070 -1.3905 -0.4940
  934SOL    HW2 2802   0.788   2.882   2.744 -1.7328  0.7170  0.9904
  935SOL     OW 2803   0.010   0.536   0.806  0.5193 -0.2575 -0.0053
  935SOL    HW1 2804   0.021   0.512   0.703  1.8769 -0.3837  0.5928
  935SOL    HW2 2805  -0.067   0.601   0.831  0.0214  3.3181 -0.4836
  936SOL     OW 2806   1.102   2.840   0.093  0.1899 -0.5978  0.3049
  936SOL    HW1 2807   1.123   2.893   0.005 -2.1142  0.7027  0.6554
  936SOL    HW2 2808   1.178   2.782   0.131 -1.4818  2.4999  1.0721
  937SOL     OW 2809   1.893   2.649   2.073 -0.4308  0.0934  0.0480
  937SOL    HW1 2810   1.794   2.659   2.103  0.3743  0.2638 -0.7180
  937SOL    HW2 2811   1.927   2.732   2.021  1.8053  1.6719  2.0768
  938SOL     OW 2812   2.812   2.088   1.577  0.5098  0.0024  0.6737
  938SOL    HW1 2813   2.799   2.189   1.593  0.5985  0.9498  0.2083
  938SOL    HW2 2814   2.903   2.055   1.616  0.1485 -1.6707  1.5321
  939SOL     OW 2815   2.788   1.235   2.458  0.1366  0.1916 -0.5546
  939SOL    HW1 2816   2.859   1.201   2.387 -0.5144  0.3931  1.1821
  939SOL    HW2 2817   2.782   1.171   2.539 -1.8655 -0.1090 -0.4970
  940SOL     OW 2818   1.027   0.446   2.759 -0.0150  0.6574 -0.1949
  940SOL    HW1 2819   1.120   0.404   2.768 -1.0788 -0.4909 -0.0851
  940SOL    HW2 2820   0.976   0.440   2.664 -1.0930  1.3309 -0.3991
  941SOL     OW 2821   0.001   2.774   2.267  0.4801 -0.4816  0.6223
  941SOL    HW1 2822   0.076   2.709   2.238  0.7119  0.8942  0.5822
  941SOL    HW2 2823   0.035   2.819   2.350 -0.4580 -0.2939 -1.8299
  942SOL     OW 2824   0.077   0.087   2.558  0.7999  0.3171  0.1636
  942SOL    HW1 2825   0.133   0.088   2.646 -0.8683  0.5825  1.1033
  942SOL    HW2 2826   0.105   0.158   2.486  0.3856  1.2790 -0.1817
  943SOL     OW 2827   2.106   1.710   2.330  0.0788 -0.2932  0.1508
  943SOL    HW1 2828   2.093   1.653   2.249 -1.1835 -1.4578  0.4736
  943SOL    HW2 2829   2.094   1.666   2.421 -1.2720  0.2522 -0.4138
  944SOL     OW 2830   2.187   2.376   1.483 -0.7613  0.2167 -0.4517
  944SOL    HW1 2831   2.274   2.420   1.530  0.4692  0.3513 -1.0995
  944SOL    HW2 2832   2.137   2.301   1.537 -2.0050  0.4901 -3.0091
  945SOL     OW 2833   0.703   1.582   0.067 -0.1611  0.0994 -0.1361
  945SOL    HW1 2834   0.633   1.536   0.011  5.4002 -2.7547 -1.1450
  945SOL    HW2 2835   0.713   1.535   0.161 -1.8747  0.9694  0.7348
  946SOL     OW 2836   0.406   0.965   2.530  0.7126 -0.4323 -0.3243
  946SOL    HW1 2837   0.330   0.939   2.464 -0.4617 -1.2491  0.0694
  946SOL    HW2 2838   0.422   1.068   2.531  1.6538  1.9034  0.4918
  947SOL     OW 2839   1.482   0.524   3.075 -0.5009 -0.6947  0.2037
  947SOL    HW1 2840   1.478   0.607   3.017 -1.6841 -0.7392  0.1832
  947SOL    HW2 2841   1.392   0.480   3.074  1.7816 -0.1100 -0.0458
  948SOL     OW 2842   1.895   3.022   2.162 -0.2356  0.5985  0.3356
  948SOL    HW1 2843   1.893   2.968   2.068 -0.8428  0.2527 -2.5813
  948SOL    HW2 2844   1.860   2.964   2.241 -3.3842  2.0795 -0.9355
  949SOL     OW 2845   0.598   2.449   0.469  0.0744  0.2651 -0.2048
  949SOL    HW1 2846   0.595   2.550   0.439 -0.7842  0.2241  0.3645
  949SOL    HW2 2847   0.628   2.454   0.567 -0.4677  0.6831  2.3309
  950SOL     OW 2848   0.182   2.245   2.973 -0.5947  0.1003  0.0432
  950SOL    HW1 2849   0.150   2.339   2.937  1.6735 -0.9253 -0.1436
  950SOL    HW2 2850   0.162   2.166   2.905  2.4817  2.9549  0.3738
  951SOL     OW 2851   1.161   2.647   2.783 -0.1160 -0.3884  0.6861
  951SOL    HW1 2852   1.225   2.611   2.857 -0.6145  0.3288 -0.9524
  951SOL    HW2 2853   1.204   2.661   2.690  0.1512  0.4458 -0.7986
  952SOL     OW 2854   0.081   1.649   0.398 -0.9890  0.3504  0.2851
  952SOL    HW1 2855   0.078   1.751   0.422 -0.0477 -1.9734 -2.3991
  952SOL    HW2 2856   0.097   1.598   0.485 -0.6224  1.6679  2.6930
  953SOL     OW 2857   2.540   1.775   0.248  0.5347 -0.0240  0.1961
  953SOL    HW1 2858   2.587   1.686   0.236 -1.9487  2.3641 -0.9981
  953SOL    HW2 2859   2.484   1.807   0.166 -0.1193  0.0487 -0.6132
  954SOL     OW 2860   2.177   0.589   0.923  0.0390  0.1788 -0.1138
  954SOL    HW1 2861   2.190   0.554   0.823  0.1669  1.2324  0.8147
  954SOL    HW2 2862   2.274   0.591   0.970 -0.5048  2.3665  1.6563
  955SOL     OW 2863   0.098   2.548   1.364 -0.2321 -0.2179 -0.1552
  955SOL    HW1 2864   0.018   2.613   1.348  2.7399  1.7592 -1.3501
  955SOL    HW2 2865   0.186   2.608   1.375  1.4766  1.3677  1.2836
  956SOL     OW 2866   2.805   2.476   2.507 -0.3292 -0.1082 -0.0157
  956SOL    HW1 2867   2.773   2.375   2.514 -2.1940 -0.1710  2.3637
  956SOL    HW2 2868   2.820   2.512   2.407  0.0730  0.2175 -0.0483
  957SOL     OW 2869   1.565   2.066   2.726  0.0802  0.6750  0.1052
  957SOL    HW1 2870   1.558   1.972   2.774 -0.1021 -1.9907 -1.9218
  957SOL    HW2 2871   1.637   2.069   2.657 -1.0308 -0.4469  2.1200
  958SOL     OW 2872   2.585   2.308   2.957  0.4400  0.2486  0.1612
  958SOL    HW1 2873   2.491   2.353   2.953 -2.0336  2.5674 -3.3963
  958SOL    HW2 2874   2.611   2.266   3.049 -2.3414  0.3695  0.4027
  959SOL     OW 2875   0.324   2.784   0.097 -0.4883  0.3280 -0.0503
  959SOL    HW1 2876   0.262   2.822   0.171 -0.6002  0.7934  2.3726
  959SOL    HW2 2877   0.313   2.680   0.082 -0.9316  1.5887 -2.7968
  960SOL     OW 2878   1.967   0.422   1.932  0.3561 -0.0070  0.4173
  960SOL    HW1 2879   1.952   0.517   1.898  1.0047 -0.7128  1.0728
  960SOL    HW2 2880   1.968   0.425   2.039  0.1869  0.2300  0.2590
  961SOL     OW 2881   2.547   1.866   1.054  0.5426  0.7739  0.3742
  961SOL    HW1 2882   2.568   1.956   1.013  0.7532  0.4315  1.5360
  961SOL    HW2 2883   2.507   1.863   1.151  0.7080 -0.9545  0.9780
  962SOL     OW 2884   1.346   0.873   0.059  0.3097  0.3301  0.1089
  962SOL    HW1 2885   1.291   0.883  -0.027  3.5416 -1.2506 -0.7160
  962SOL    HW2 2886   1.351   0.959   0.112 -0.2593  2.1795  0.1041
  963SOL     OW 2887   2.293   2.555   1.816  0.2642 -0.3188 -0.3332
  963SOL    HW1 2888   2.283   2.456   1.839  0.6006  3.5034 -0.7134
  963SOL    HW2 2889   2.302   2.609   1.904  1.3641 -2.6014  1.8699
  964SOL     OW 2890   2.371   0.359   1.662 -0.2677  0.0165 -0.0891
  964SOL    HW1 2891   2.457   0.351   1.722 -0.4122 -3.5914  0.9014
  964SOL    HW2 2892   2.398   0.337   1.565  1.7241  0.8441  3.6588
  965SOL     OW 2893   2.577   2.988   0.166 -0.0799  0.0789  0.3788
  965SOL    HW1 2894   2.600   2.922   0.087 -1.8863 -0.0824  0.7993
  965SOL    HW2 2895   2.509   3.063   0.140  0.2745 -0.5239 -0.0811
  966SOL     OW 2896   2.518   2.539   2.192  0.0963  0.6273  0.3144
  966SOL    HW1 2897   2.565   2.629   2.164  1.5599 -0.0830  0.1080
  966SOL    HW2 2898   2.438   2.517   2.129 -0.6092 -1.1880 -0.6591
  967SOL     OW 2899   2.773   2.851   2.454  0.4399 -0.4848  0.1362
  967SOL    HW1 2900   2.802   2.751   2.446  1.1706 -0.8978 -0.9812
  967SOL    HW2 2901   2.858   2.910   2.466  0.6703 -2.5092 -0.6915
  968SOL     OW 2902   1.941   1.051   2.613 -0.1368  0.3707 -0.2101
  968SOL    HW1 2903   1.869   1.117   2.593  2.5599  0.2227  1.0542
  968SOL    HW2 2904   1.942   0.964   2.554  0.5821 -1.3768 -0.4316
  969SOL     OW 2905   2.750   2.465   1.073 -0.2427 -0.2913  0.0591
  969SOL    HW1 2906   2.737   2.435   0.974 -2.3546 -3.6223  0.5056
  969SOL    HW2 2907   2.798   2.394   1.133 -0.8559  0.0358  1.0819
  970SOL     OW 2908   1.086   2.117   1.843  0.2553 -0.1983 -0.1355
  970SOL    HW1 2909   0.997   2.086   1.800 -2.6433  0.8927 -1.6975
  970SOL    HW2 2910   1.066   2.167   1.933  1.9939 -3.1236  1.0901
  971SOL     OW 2911   2.891   2.056   2.000  0.5395  0.5307  0.5479
  971SOL    HW1 2912   2.897   2.159   2.021  0.0456 -1.8808 -1.0102
  971SOL    HW2 2913   2.927   2.033   1.903  1.4834  1.0915  2.1948
  972SOL     OW 2914   1.962   2.481   0.260  0.4036  0.0844 -0.2677
  972SOL    HW1 2915   1.973   2.398   0.195  2.9048  0.3529 -0.7388
  972SOL    HW2 2916   1.989   2.473   0.357 -1.4854 -2.0780 -1.7384
  973SOL     OW 2917   1.225   0.919   1.859  0.2539  0.1672 -0.1898
  973SOL    HW1 2918   1.175   0.830   1.844 -1.6110  2.1739 -1.6721
  973SOL    HW2 2919   1.171   0.998   1.819  1.7459 -1.3192  1.5037
  974SOL     OW 2920   1.639   0.576   1.925 -0.2716  0.0465 -0.6636
  974SOL    HW1 2921   1.738   0.601   1.896  2.3724 -0.0489 -0.1193
  974SOL    HW2 2922   1.571   0.652   1.910 -0.7137  3.9739 -0.7386
  975SOL     OW 2923   2.342   3.044   3.097 -0.1148 -0.1695  0.5307
  975SOL    HW1 2924   2.282   2.964   3.119  1.0436  0.5230  2.1352
  975SOL    HW2 2925   2.414   3.020   3.030 -1.0446  1.7977  0.5028
  976SOL     OW 2926   1.885   2.832   2.375 -0.2506  0.2369  0.1966
  976SOL    HW1 2927   1.834   2.745   2.349 -0.0860 -1.1016  1.9403
  976SOL    HW2 2928   1.951   2.817   2.456 -0.5588  0.1141  3.8650
  977SOL     OW 2929   0.517   0.604   0.981  0.3948 -0.4986 -0.2612
  977SOL    HW1 2930   0.432   0.600   0.919 -3.0905 -1.8954 -4.1220
  977SOL    HW2 2931   0.571   0.694   0.972  0.3484  2.7256 -1.1960
   3.10000   3.10000   3.10000
