1000 SPC/Fw water molecules t=   1.65000 step= 1650
 2931
    1SOL     OW    1   2.474   0.401   2.658  1.1687  0.0339 -0.0418
    1SOL    HW1    2   2.480   0.298   2.633 -0.0742 -2.9670  0.0263
    1SOL    HW2    3   2.542   0.435   2.730 -0.2255 -1.8815 -0.0219
    2SOL     OW    4   2.721   2.981   1.381 -0.2889 -0.1401  0.0799
    2SOL    HW1    5   2.821   2.987   1.346 -3.0763 -0.0611  1.2854
    2SOL    HW2    6   2.711   3.012   1.481  0.3057 -1.3856  1.8840
    3SOL     OW    7   2.701   2.491   0.376  0.2672  0.1792 -0.0507
    3SOL    HW1    8   2.610   2.440   0.374  0.0384  0.3884 -0.2895
    3SOL    HW2    9   2.711   2.548   0.464  0.2864  0.6743  0.6717
    4SOL     OW   10   1.319   1.583   2.443  0.9099  0.2335 -0.0657
    4SOL    HW1   11   1.240   1.558   2.375  0.7266  1.7028 -2.2257
    4SOL    HW2   12   1.310   1.541   2.538 -0.5041  0.5494 -0.9232
    5SOL     OW   13   1.114   1.534   3.018 -0.0865 -0.4062  0.5433
    5SOL    HW1   14   1.178   1.605   3.055  0.5714 -1.3168 -1.0101
    5SOL    HW2   15   1.029   1.582   2.985 -0.3629 -0.1726  0.0963
    6SOL     OW   16   0.267   1.820   3.082 -0.1817 -0.5046  0.4929
    6SOL    HW1   17   0.191   1.819   3.146  1.2873 -3.9120 -0.7271
    6SOL    HW2   18   0.298   1.723   3.068 -1.1072  1.3925 -0.0198
    7SOL     OW   19   2.494   0.924   1.002  0.0379 -0.3323  0.6612
    7SOL    HW1   20   2.402   0.887   1.040 -0.3949 -0.3706  1.0847
    7SOL    HW2   21   2.499   0.900   0.900 -1.4150 -0.1943  2.5457
    8SOL     OW   22   0.391   0.681   1.542  0.9478 -0.6780  0.1596
    8SOL    HW1   23   0.475   0.622   1.547 -0.5576 -1.7853  0.5576
    8SOL    HW2   24   0.386   0.735   1.452 -0.3225 -0.9595  0.0549
    9SOL     OW   25   1.143   0.877   2.327 -0.2082  0.2433  0.2400
    9SOL    HW1   26   1.233   0.891   2.280 -0.8033  2.0346 -1.6058
    9SOL    HW2   27   1.122   0.777   2.328 -0.3172 -2.9233 -1.3635
   10SOL     OW   28   0.730   1.416   1.245  0.2610 -0.1723 -0.1040
   10SOL    HW1   29   0.638   1.410   1.188  1.6922 -2.5782  0.6524
   10SOL    HW2   30   0.745   1.512   1.286 -0.7703  2.5510  2.0202
   11SOL     OW   31   2.350   2.876   0.916 -0.4221  0.4323 -0.1804
   11SOL    HW1   32   2.294   2.830   0.988  0.6395 -1.7165  0.8214
   11SOL    HW2   33   2.437   2.919   0.951 -2.3964 -0.6712 -2.6265
   12SOL     OW   34   1.503   0.896   0.443  0.4296 -0.5029  0.6021
   12SOL    HW1   35   1.412   0.881   0.394  0.0305 -3.3546 -1.2969
   12SOL    HW2   36   1.577   0.834   0.403  0.5976 -0.3068 -1.8235
   13SOL     OW   37   2.475   0.736   1.812 -0.0464 -0.3863  0.2092
   13SOL    HW1   38   2.405   0.691   1.874 -1.0632 -0.4627  4.0838
   13SOL    HW2   39   2.476   0.703   1.714 -0.4576 -0.4271  0.1526
   14SOL     OW   40   1.959   0.010   0.609 -0.4765  0.8156 -0.1130
   14SOL    HW1   41   1.868   0.056   0.594  3.0410 -0.3511  0.4639
   14SOL    HW2   42   1.964  -0.027   0.709  1.2727 -0.9027  0.8603
   15SOL     OW   43   1.917   2.082   2.671  0.1112  0.1072  0.3377
   15SOL    HW1   44   1.864   2.075   2.760  0.9490 -0.2631 -0.6410
   15SOL    HW2   45   1.897   2.003   2.601  1.0421  1.2395 -0.7134
   16SOL     OW   46   1.626   1.720   3.038 -0.3474  0.4699  0.0201
   16SOL    HW1   47   1.621   1.623   3.074 -0.3518  0.5764 -2.6216
   16SOL    HW2   48   1.695   1.780   3.085 -2.1645 -1.7972 -1.4895
   17SOL     OW   49   0.119   0.465   0.180 -0.2306  0.0430  0.0138
   17SOL    HW1   50   0.210   0.488   0.139 -0.7660  0.4930  0.0799
   17SOL    HW2   51   0.056   0.444   0.107  1.5500  1.8158 -0.7896
   18SOL     OW   52   0.916   2.917   2.134  0.1589 -0.3461 -0.1625
   18SOL    HW1   53   0.894   2.830   2.184  0.4574  1.8404  2.6059
   18SOL    HW2   54   1.003   2.903   2.080  2.5294  1.1274 -0.5985
   19SOL     OW   55   0.592   0.894   1.925 -0.6151  0.0309 -0.2407
   19SOL    HW1   56   0.636   0.864   2.014 -0.8729 -0.4941  0.1731
   19SOL    HW2   57   0.628   0.984   1.885 -2.8050 -0.4834  0.2770
   20SOL     OW   58   0.203   2.830   0.805  0.7198 -0.7869 -0.8503
   20SOL    HW1   59   0.099   2.849   0.818 -2.0274 -0.3272  0.6196
   20SOL    HW2   60   0.230   2.735   0.777 -0.6343  2.7495 -0.3169
   21SOL     OW   61   2.725   0.304   2.047  0.7364 -0.3076  0.3782
   21SOL    HW1   62   2.685   0.229   1.985  2.0918  1.5717 -0.9102
   21SOL    HW2   63   2.816   0.272   2.090  3.2691 -2.3536 -2.7368
   22SOL     OW   64   2.350   0.210   0.129  0.3433 -0.0749  0.0678
   22SOL    HW1   65   2.356   0.111   0.091 -0.5827 -1.4184 -2.3586
   22SOL    HW2   66   2.271   0.270   0.098 -1.5367  1.1508  0.8025
   23SOL     OW   67   2.802   0.557   0.675  0.1148 -0.0966  0.3074
   23SOL    HW1   68   2.832   0.466   0.632  0.0004 -0.0829 -0.2182
   23SOL    HW2   69   2.820   0.632   0.605  2.0605 -1.3004 -0.0141
   24SOL     OW   70   0.315   1.868   0.449 -0.0588  0.7114  0.1877
   24SOL    HW1   71   0.265   1.941   0.396  2.6917 -0.3105  1.9317
   24SOL    HW2   72   0.386   1.817   0.397 -0.3173  0.7489  0.0220
   25SOL     OW   73   2.294   0.602   0.182 -0.3847 -0.2013  0.4540
   25SOL    HW1   74   2.280   0.606   0.078  0.9742 -0.7660 -1.2321
   25SOL    HW2   75   2.355   0.526   0.215 -0.0978  0.6473 -0.4588
   26SOL     OW   76   2.450   2.126   2.098  0.2480 -0.1206  0.1105
   26SOL    HW1   77   2.507   2.155   2.178 -0.8619 -0.1423  0.8582
   26SOL    HW2   78   2.493   2.056   2.034  0.6784  1.4528 -0.2230
   27SOL     OW   79   0.607   2.977   0.170 -0.1835  0.6397 -0.3997
   27SOL    HW1   80   0.700   3.022   0.148 -0.3026 -0.3869  0.5183
   27SOL    HW2   81   0.573   2.924   0.082  2.1707  0.7711 -3.8923
   28SOL     OW   82   1.571   0.139   0.294  0.0510 -0.2419 -0.1183
   28SOL    HW1   83   1.619   0.097   0.216  0.5089  0.4609  0.4749
   28SOL    HW2   84   1.605   0.236   0.326 -2.3131  0.8385 -1.9842
   29SOL     OW   85   2.016   0.604   0.287  0.2199 -0.7793  0.0528
   29SOL    HW1   86   2.015   0.659   0.376  0.7924  0.9546 -2.4631
   29SOL    HW2   87   2.110   0.597   0.248  0.4807  3.8550 -0.1359
   30SOL     OW   88   0.189   2.076   0.918 -0.2035 -0.4562 -0.5385
   30SOL    HW1   89   0.177   2.012   0.836 -1.9815  1.0645 -0.5194
   30SOL    HW2   90   0.097   2.095   0.960  3.1427 -0.5205 -0.3775
   31SOL     OW   91   2.135   0.052   2.391 -0.2390  0.2433  0.2850
   31SOL    HW1   92   2.096   0.020   2.483 -0.6770 -0.1689  0.3338
   31SOL    HW2   93   2.092   0.005   2.308  1.6496 -0.9407  1.1829
   32SOL     OW   94   3.086   3.064   0.271 -0.1084  0.3779 -0.8070
   32SOL    HW1   95   3.050   2.968   0.293  0.4145  0.1018 -0.4522
   32SOL    HW2   96   3.182   3.056   0.238 -0.6907  1.3350  2.3032
   33SOL     OW   97   0.924   0.193   0.648  0.1860 -0.1351  0.0239
   33SOL    HW1   98   0.911   0.137   0.558  0.6473 -1.7292  1.9431
   33SOL    HW2   99   0.997   0.262   0.646 -1.3024 -0.4446  1.4834
   34SOL     OW  100   0.350   2.691   1.035  0.0989  0.1431 -0.1986
   34SOL    HW1  101   0.303   2.720   0.946  1.1846  2.0318 -3.2540
   34SOL    HW2  102   0.418   2.768   1.061  2.9000 -0.5329  1.0538
   35SOL     OW  103   0.049   0.135   1.911  0.3143 -0.0846 -0.3442
   35SOL    HW1  104   0.089   0.039   1.938  0.2970 -1.0582 -2.5027
   35SOL    HW2  105   0.012   0.145   1.812  0.3909  2.2609 -1.4393
   36SOL     OW  106   1.942   1.143   1.518  0.3500  0.0920 -0.2080
   36SOL    HW1  107   2.022   1.091   1.562  0.0081 -1.1667  0.8158
   36SOL    HW2  108   1.972   1.220   1.455 -2.0507 -0.2603  1.6628
   37SOL     OW  109   1.116   0.242   0.989  0.0315  0.0211  0.1315
   37SOL    HW1  110   1.130   0.343   0.967 -0.6583  0.5391 -2.5471
   37SOL    HW2  111   1.174   0.187   0.918 -1.2273  2.0456  1.1046
   38SOL     OW  112   1.163   2.857   2.437  0.1011 -0.7543 -0.2777
   38SOL    HW1  113   1.092   2.782   2.464 -3.2199  1.1480 -0.0647
   38SOL    HW2  114   1.114   2.926   2.383 -0.3551 -0.6217 -0.4342
   39SOL     OW  115   2.474   1.417   3.017 -0.0979  0.5898 -0.0487
   39SOL    HW1  116   2.539   1.339   3.042  1.3388  0.2711 -2.0114
   39SOL    HW2  117   2.379   1.398   3.048  0.9643  0.3520 -1.6363
   40SOL     OW  118   2.020   2.553   2.557  0.6955 -0.0021 -0.5058
   40SOL    HW1  119   1.963   2.629   2.584  0.4762 -3.0645 -2.6370
   40SOL    HW2  120   1.973   2.487   2.494  2.4592  1.8852  0.2756
   41SOL     OW  121   3.052   0.755   2.789  0.3146 -0.5903 -0.5428
   41SOL    HW1  122   2.978   0.805   2.847  2.2696 -0.3773  1.0617
   41SOL    HW2  123   3.007   0.692   2.723  1.4459 -1.4130 -1.5382
   42SOL     OW  124   1.788   1.722   0.526 -0.1956  0.5047 -0.4207
   42SOL    HW1  125   1.757   1.621   0.530 -0.7901 -0.3212  1.6791
   42SOL    HW2  126   1.791   1.763   0.430  1.3488  0.6502 -0.1465
   43SOL     OW  127   0.465   1.663   1.128  0.0232  0.4196 -0.4289
   43SOL    HW1  128   0.447   1.566   1.093 -0.1177 -1.4200  1.9025
   43SOL    HW2  129   0.408   1.674   1.214  1.9133 -1.4999 -1.5909
   44SOL     OW  130   1.657   2.338   2.970  0.0788 -0.3013 -0.4047
   44SOL    HW1  131   1.558   2.366   2.980 -0.0657 -0.7234 -0.9773
   44SOL    HW2  132   1.706   2.410   2.912  1.3459  1.9542 -0.1365
   45SOL     OW  133   0.362   1.899   2.573  0.4280  0.1861  0.7930
   45SOL    HW1  134   0.313   1.907   2.482 -1.2378  1.3065 -1.9171
   45SOL    HW2  135   0.441   1.834   2.564  1.2607 -0.4136 -0.2470
   46SOL     OW  136   1.258   0.747   0.266  0.6862 -0.3740 -0.5981
   46SOL    HW1  137   1.264   0.838   0.220  2.4377 -1.0852  1.0052
   46SOL    HW2  138   1.192   0.684   0.225  5.2901  1.8056 -0.7460
   47SOL     OW  139   0.117   2.421   1.576 -0.5183  0.0280  0.0751
   47SOL    HW1  140   0.094   2.330   1.625 -1.9978 -3.1382 -0.5434
   47SOL    HW2  141   0.129   2.414   1.470  0.3998  0.4135 -1.4506
   48SOL     OW  142   2.652   0.681   0.121 -0.5680  0.0098 -0.3518
   48SOL    HW1  143   2.640   0.648   0.221 -2.3224 -2.4230  0.3090
   48SOL    HW2  144   2.755   0.686   0.087  2.5616 -3.1010 -0.4662
   49SOL     OW  145   0.368   0.820   1.778 -0.3268 -0.0174 -0.4364
   49SOL    HW1  146   0.457   0.834   1.828 -0.8764  1.9891  0.4677
   49SOL    HW2  147   0.371   0.749   1.702  3.0426  1.1765  0.4800
   50SOL     OW  148   1.740   1.098   0.310  0.0546 -0.2716  0.0294
   50SOL    HW1  149   1.751   1.007   0.266 -0.1714  0.1444 -0.5981
   50SOL    HW2  150   1.694   1.100   0.403  0.1119 -0.3238  0.1688
   51SOL     OW  151   2.980   1.790   0.340 -0.5507 -0.0835 -0.0048
   51SOL    HW1  152   2.898   1.734   0.364  0.5853  0.3286  1.1564
   51SOL    HW2  153   3.063   1.749   0.388 -1.4576 -0.4397  0.0102
   52SOL     OW  154   0.746   2.180   0.544  0.0004  0.3765 -0.1175
   52SOL    HW1  155   0.646   2.189   0.524 -0.1561 -1.2222 -0.2428
   52SOL    HW2  156   0.772   2.100   0.608  0.4672 -2.4269 -1.9153
   53SOL     OW  157   0.273   0.403   1.470  0.1601  0.3866 -0.8152
   53SOL    HW1  158   0.322   0.483   1.516  2.7438  0.2769 -1.4468
   53SOL    HW2  159   0.282   0.412   1.369  0.5659  0.7013  0.0543
   54SOL     OW  160   1.724   0.428  -0.001 -0.4934 -0.3632 -0.1493
   54SOL    HW1  161   1.803   0.385   0.057  0.5638 -1.8776  0.3181
   54SOL    HW2  162   1.636   0.451   0.050 -1.3742 -0.3982  0.7673
   55SOL     OW  163   0.730   2.962   0.607  0.1413  0.9408  0.2317
   55SOL    HW1  164   0.644   3.020   0.597  1.6096  0.5448  0.5547
   55SOL    HW2  165   0.820   3.011   0.622 -0.1438  1.5821 -2.6852
   56SOL     OW  166   0.581   1.533   3.063  0.2750 -0.1820 -0.0160
   56SOL    HW1  167   0.516   1.553   3.142 -0.3341  0.0531  0.3916
   56SOL    HW2  168   0.552   1.452   3.004  0.3120 -1.7042 -3.1113
   57SOL     OW  169   1.679   2.471   2.343 -0.4910 -0.2160 -0.1550
   57SOL    HW1  170   1.753   2.399   2.361  2.4870  1.7704  0.7864
   57SOL    HW2  171   1.616   2.483   2.425  2.0879 -1.0127 -0.0140
   58SOL     OW  172   0.665   0.230   1.071 -0.2026 -0.2190 -0.3611
   58SOL    HW1  173   0.585   0.242   1.137 -2.6154 -2.2034  0.1649
   58SOL    HW2  174   0.689   0.130   1.072 -0.0919  0.4104 -0.4069
   59SOL     OW  175   0.446   2.378   2.677  0.1152 -0.7007 -0.8674
   59SOL    HW1  176   0.463   2.272   2.679  0.3121  1.9753  1.0212
   59SOL    HW2  177   0.531   2.436   2.691 -0.6893  1.0288 -0.9804
   60SOL     OW  178   2.283   2.047   2.326 -0.1440  0.3528 -0.5114
   60SOL    HW1  179   2.341   2.053   2.240  1.6292 -2.7357 -1.6562
   60SOL    HW2  180   2.331   2.093   2.406 -0.0866 -0.8569  0.2093
   61SOL     OW  181   1.182   0.637   0.509  0.1129 -0.1944  0.2393
   61SOL    HW1  182   1.082   0.653   0.526 -0.5699 -1.5932 -1.2296
   61SOL    HW2  183   1.204   0.696   0.423 -0.2021  2.1676 -3.0903
   62SOL     OW  184   2.776   1.737   2.696  0.7771  0.0164 -0.3300
   62SOL    HW1  185   2.733   1.644   2.678 -1.9265  0.6641  1.0816
   62SOL    HW2  186   2.844   1.731   2.774 -1.8058 -0.3593 -2.1586
   63SOL     OW  187   0.533   0.937   0.206  0.4727 -0.0824  0.2463
   63SOL    HW1  188   0.600   0.990   0.149  0.6093 -1.4822  0.8755
   63SOL    HW2  189   0.522   0.975   0.303 -0.3220 -1.6786 -0.5128
   64SOL     OW  190   2.988   0.569   2.324 -0.2329 -0.0634  0.3535
   64SOL    HW1  191   2.930   0.608   2.395 -2.1726  0.8360 -0.6013
   64SOL    HW2  192   3.001   0.619   2.235 -0.3231 -1.2019  0.9893
   65SOL     OW  193   0.238   1.435   0.732 -0.0134 -0.0727 -0.3986
   65SOL    HW1  194   0.214   1.509   0.804  2.0609 -0.4777 -0.4946
   65SOL    HW2  195   0.263   1.475   0.639 -0.1302 -1.7802 -2.2203
   66SOL     OW  196   2.574   0.337   0.562 -0.0162  0.0950  0.2645
   66SOL    HW1  197   2.678   0.324   0.575 -0.3180 -0.9472  2.7067
   66SOL    HW2  198   2.520   0.289   0.634 -0.2050  1.6553 -2.8588
   67SOL     OW  199   0.602   2.527   1.475 -0.1536 -0.1902  0.0448
   67SOL    HW1  200   0.685   2.494   1.529 -0.5692  1.9104 -2.3289
   67SOL    HW2  201   0.538   2.452   1.448 -0.5144 -1.9535 -0.2181
   68SOL     OW  202   0.897   0.980   2.436 -0.2634 -0.3693  0.0555
   68SOL    HW1  203   0.981   0.947   2.391  0.6449  2.2374  1.1920
   68SOL    HW2  204   0.820   1.003   2.369 -0.8031  1.1660  3.6322
   69SOL     OW  205   0.790   2.672   2.339 -0.4367 -0.5158  0.5054
   69SOL    HW1  206   0.830   2.581   2.305 -1.6945 -1.2353 -0.7974
   69SOL    HW2  207   0.686   2.662   2.334 -1.9860  0.0271  0.2333
   70SOL     OW  208   0.448   0.156   2.544  0.2034  0.2934  0.3125
   70SOL    HW1  209   0.379   0.119   2.609  2.5229 -0.5672  0.1070
   70SOL    HW2  210   0.527   0.095   2.536 -1.8611  1.3902  1.1987
   71SOL     OW  211   1.063   1.758   0.323 -0.5634 -0.4402 -0.4901
   71SOL    HW1  212   1.012   1.713   0.407 -3.0368 -2.6261 -0.7887
   71SOL    HW2  213   0.993   1.762   0.245  0.8154 -1.3243 -0.0883
   72SOL     OW  214   1.852   0.260   2.163 -0.1723  0.1164  0.0643
   72SOL    HW1  215   1.928   0.325   2.145 -0.0776  2.4018 -0.4739
   72SOL    HW2  216   1.886   0.162   2.190  1.3800 -1.9179 -0.7560
   73SOL     OW  217   2.782   2.191   2.503 -0.1900  0.6062 -0.3969
   73SOL    HW1  218   2.730   2.106   2.477 -1.5681 -0.9672  1.5030
   73SOL    HW2  219   2.820   2.188   2.598 -0.5306 -0.7911 -0.2089
   74SOL     OW  220   2.694   2.900   2.136  0.3727  0.2976 -0.3887
   74SOL    HW1  221   2.618   2.893   2.201 -0.0487  2.7962 -1.8394
   74SOL    HW2  222   2.769   2.962   2.171 -4.0387 -0.5142  0.2765
   75SOL     OW  223   0.965   0.808   1.159 -0.0863 -0.0065  0.2327
   75SOL    HW1  224   0.864   0.832   1.150 -2.0626 -1.4229 -0.6672
   75SOL    HW2  225   1.008   0.849   1.246  2.6834  3.7335 -0.2294
   76SOL     OW  226   1.858   1.277   2.566 -0.0774  0.1428 -0.0240
   76SOL    HW1  227   1.767   1.239   2.595 -0.7741 -1.6617  1.5520
   76SOL    HW2  228   1.860   1.375   2.594 -0.3752  0.7770  3.3126
   77SOL     OW  229   2.910   0.972   1.041 -0.0371  0.1309 -0.1608
   77SOL    HW1  230   2.868   0.877   1.027  1.0266  0.2384 -0.9625
   77SOL    HW2  231   2.980   0.979   1.122 -0.0367 -1.9839  2.5638
   78SOL     OW  232   2.000   1.392   1.330  0.0697  0.8933  0.1116
   78SOL    HW1  233   2.084   1.381   1.271 -2.2660  0.4143 -1.9478
   78SOL    HW2  234   1.919   1.425   1.277 -1.7311 -0.8419  0.2268
   79SOL     OW  235   0.712   1.440   0.831  0.4494  0.2036  0.0717
   79SOL    HW1  236   0.623   1.439   0.886 -1.6919  0.6942 -0.1317
   79SOL    HW2  237   0.743   1.350   0.798 -2.0447 -0.3167 -0.4151
   80SOL     OW  238   0.581   0.449   1.568  0.4503 -0.0155  0.2407
   80SOL    HW1  239   0.613   0.490   1.481 -2.9780  1.1738 -0.6165
   80SOL    HW2  240   0.618   0.357   1.586 -0.7508  0.5951 -0.0695
   81SOL     OW  241   1.073   1.256   2.545  0.1369  0.1728 -0.0490
   81SOL    HW1  242   1.027   1.161   2.538 -0.6779 -2.1098 -2.6657
   81SOL    HW2  243   1.017   1.323   2.488  0.5820 -0.2821 -3.3504
   82SOL     OW  244   0.911   2.906   1.507 -0.4880  0.6563 -0.3878
   82SOL    HW1  245   0.974   2.841   1.462  2.8569  4.9574  0.3620
   82SOL    HW2  246   0.848   2.946   1.437  0.6318 -0.3135 -1.0551
   83SOL     OW  247   2.621   2.344   0.871  0.5265  0.7766 -0.6661
   83SOL    HW1  248   2.534   2.313   0.823 -1.6352  0.7662 -2.8592
   83SOL    HW2  249   2.637   2.444   0.853  0.0860 -1.5774  1.2318
   84SOL     OW  250   0.770   0.041   2.272  0.1290 -0.6287 -0.1324
   84SOL    HW1  251   0.732   0.014   2.363 -1.1911  1.1244 -1.2397
   84SOL    HW2  252   0.807  -0.040   2.216 -0.8076 -1.4269  0.5807
   85SOL     OW  253   0.286   1.691   1.363 -0.2771  0.6833 -0.6321
   85SOL    HW1  254   0.254   1.781   1.403 -1.2547  0.6193 -2.2275
   85SOL    HW2  255   0.344   1.639   1.437 -0.3605 -0.6290  2.6799
   86SOL     OW  256   0.401   1.048   1.494  0.6150 -0.1054 -0.1796
   86SOL    HW1  257   0.396   0.990   1.412 -1.0972  2.7998  0.2250
   86SOL    HW2  258   0.466   1.015   1.565  1.2221 -0.3754 -0.4413
   87SOL     OW  259   1.625   0.664   0.296 -0.2796  0.2910 -0.3236
   87SOL    HW1  260   1.712   0.719   0.283  0.3093 -1.2928  2.8642
   87SOL    HW2  261   1.559   0.667   0.217  0.9446 -0.9568  3.8628
   88SOL     OW  262   1.592   1.350   0.265 -0.0964 -0.7067 -0.1145
   88SOL    HW1  263   1.635   1.261   0.297 -1.5819  1.3023 -0.9074
   88SOL    HW2  264   1.486   1.340   0.255 -0.2407 -0.2381 -0.5913
   89SOL     OW  265   0.023   0.405   0.622  0.2288  0.1227  0.6618
   89SOL    HW1  266   0.111   0.354   0.641 -1.4440  2.0229  1.7424
   89SOL    HW2  267  -0.053   0.342   0.583  0.7680  0.6163 -2.2084
   90SOL     OW  268   0.764   1.518   0.153 -0.2679  0.5122 -0.0520
   90SOL    HW1  269   0.850   1.464   0.133 -0.8738  2.2038  1.9460
   90SOL    HW2  270   0.698   1.524   0.071 -0.6316  1.4324 -1.1906
   91SOL     OW  271   1.262   1.488   1.759  0.5272  0.2004 -0.4095
   91SOL    HW1  272   1.241   1.555   1.834  2.2176  0.4371 -0.3883
   91SOL    HW2  273   1.307   1.398   1.782  3.7141  1.6724  1.1151
   92SOL     OW  274   0.010   1.010   1.220  0.3208  0.1008 -0.0310
   92SOL    HW1  275   0.063   1.096   1.192 -1.2609  1.4077 -0.6047
   92SOL    HW2  276   0.026   0.989   1.320 -0.5490 -0.4244  1.2142
   93SOL     OW  277   0.001   2.684   0.081 -0.7952 -0.8765 -0.3266
   93SOL    HW1  278  -0.056   2.660   0.002 -1.3251 -1.5535  3.2797
   93SOL    HW2  279   0.044   2.605   0.124  0.0888  1.7723 -1.3529
   94SOL     OW  280   1.512   1.284   1.677 -0.3664  0.2181  0.0579
   94SOL    HW1  281   1.605   1.236   1.678  1.4386  0.0208  1.3943
   94SOL    HW2  282   1.511   1.386   1.680 -0.9029 -1.5921 -1.0628
   95SOL     OW  283   1.328   2.467   2.920  0.2656  0.0415  0.0165
   95SOL    HW1  284   1.231   2.503   2.940  1.1998 -0.7116  0.7701
   95SOL    HW2  285   1.328   2.366   2.910 -2.3334 -1.8456  1.7722
   96SOL     OW  286   0.596   2.183   1.325 -0.2957 -0.5023  0.2097
   96SOL    HW1  287   0.534   2.129   1.260 -0.3205 -0.7783 -1.3148
   96SOL    HW2  288   0.639   2.118   1.394 -0.3769  0.5362  0.1905
   97SOL     OW  289   0.243   1.606   2.433  0.1190 -0.0095  0.0183
   97SOL    HW1  290   0.250   1.698   2.387  2.3403  3.2454 -0.6804
   97SOL    HW2  291   0.212   1.622   2.531 -1.8979 -0.5803  0.1909
   98SOL     OW  292   2.164   1.667   1.211  0.0275 -0.3059 -0.7026
   98SOL    HW1  293   2.095   1.597   1.186 -0.1190 -2.2532  6.1801
   98SOL    HW2  294   2.262   1.661   1.172 -0.7839  0.9661 -1.2910
   99SOL     OW  295   2.653   2.058   1.255 -0.1708 -0.2431  0.4464
   99SOL    HW1  296   2.703   2.124   1.317 -2.3815 -1.0117 -0.1967
   99SOL    HW2  297   2.593   1.987   1.304  0.6883 -1.6922  2.6502
  100SOL     OW  298   2.331   0.373   2.138 -0.4052 -0.0870  0.2658
  100SOL    HW1  299   2.271   0.341   2.216  2.0679  3.6872  1.6823
  100SOL    HW2  300   2.424   0.403   2.169 -0.4643 -0.5800 -2.0350
  101SOL     OW  301   0.357   1.505   0.492  0.2928 -0.5346 -0.4996
  101SOL    HW1  302   0.394   1.582   0.552 -1.1651 -0.4505 -3.8642
  101SOL    HW2  303   0.428   1.490   0.417 -3.1557 -0.6552  0.8667
  102SOL     OW  304   2.230   1.065   0.821  0.1389 -0.0099 -0.1366
  102SOL    HW1  305   2.210   0.974   0.778 -1.5831 -2.1926 -3.6052
  102SOL    HW2  306   2.329   1.095   0.800 -0.7367 -1.2292  0.8726
  103SOL     OW  307   2.285   0.077   0.359 -0.0543  0.4906  0.5204
  103SOL    HW1  308   2.332   0.126   0.281  1.8707 -0.8843  0.1234
  103SOL    HW2  309   2.345   0.024   0.423 -2.3417 -0.0817 -1.7810
  104SOL     OW  310   3.069   1.785   2.228 -0.1650 -0.2969  0.1831
  104SOL    HW1  311   3.132   1.756   2.151  0.9378  0.1645  1.5627
  104SOL    HW2  312   2.982   1.830   2.198 -3.3973  0.9837  2.2706
  105SOL     OW  313   1.370   2.104   0.774 -0.5172 -0.3718  0.1540
  105SOL    HW1  314   1.380   2.155   0.686  0.7622 -0.1700  1.9574
  105SOL    HW2  315   1.366   1.999   0.767 -1.8546 -0.3111 -1.2955
  106SOL     OW  316   2.146   0.410   1.414 -0.3937 -0.0606  0.0682
  106SOL    HW1  317   2.075   0.330   1.413 -1.2400  1.5838  0.6475
  106SOL    HW2  318   2.172   0.423   1.517  0.0460  0.3216  0.7346
  107SOL     OW  319   1.916   2.882   1.167 -0.8235  0.1325 -0.7009
  107SOL    HW1  320   1.838   2.946   1.177  2.1017 -1.3928 -2.3425
  107SOL    HW2  321   1.894   2.795   1.114 -2.1492 -1.2214  1.6311
  108SOL     OW  322   0.829   2.822   1.176  0.2394  0.4272 -0.6496
  108SOL    HW1  323   0.837   2.737   1.114 -0.8765 -0.2018 -0.5750
  108SOL    HW2  324   0.910   2.827   1.243  0.8206 -2.0855  0.9217
  109SOL     OW  325   2.159   0.190   0.715  0.6794 -0.8955 -0.1866
  109SOL    HW1  326   2.092   0.133   0.658  0.2968  1.3195 -1.3131
  109SOL    HW2  327   2.124   0.209   0.813 -1.2863  1.3712 -0.4445
  110SOL     OW  328   0.511   2.771   2.750 -0.0991  0.3948 -0.3649
  110SOL    HW1  329   0.508   2.793   2.647 -0.6995  1.0941 -0.0057
  110SOL    HW2  330   0.594   2.721   2.775 -3.3256  2.3477  0.3385
  111SOL     OW  331   1.302   0.537   2.281  0.1211  0.6300 -0.1409
  111SOL    HW1  332   1.204   0.565   2.299  2.3835  0.3008 -2.1785
  111SOL    HW2  333   1.345   0.463   2.337  1.2016 -0.4379 -0.1593
  112SOL     OW  334   1.746   0.427   1.521 -0.1190  0.5508 -0.1549
  112SOL    HW1  335   1.712   0.474   1.433 -3.3826 -1.1320  3.7423
  112SOL    HW2  336   1.667   0.399   1.577 -0.9494  1.4843  1.9960
  113SOL     OW  337   2.381   1.711   1.785  0.0603 -0.9414  0.1038
  113SOL    HW1  338   2.403   1.610   1.777  0.0780 -0.8184 -1.1062
  113SOL    HW2  339   2.355   1.738   1.880 -0.5111  1.3585  0.9601
  114SOL     OW  340   0.315   0.418   1.159 -0.2338 -0.2256 -0.0093
  114SOL    HW1  341   0.247   0.494   1.146  1.1175 -4.1389  2.1985
  114SOL    HW2  342   0.378   0.404   1.079 -0.6813  2.6712 -0.5091
  115SOL     OW  343   2.718   1.550   1.244 -0.2017 -0.1933  0.5691
  115SOL    HW1  344   2.733   1.458   1.291  1.1160  0.8563  0.7494
  115SOL    HW2  345   2.800   1.579   1.192 -0.3550 -2.8450 -0.4851
  116SOL     OW  346   1.916   0.893   0.757 -0.3372 -0.4192 -0.1297
  116SOL    HW1  347   1.818   0.878   0.724  2.2994 -1.3977  0.5249
  116SOL    HW2  348   1.943   0.994   0.757 -0.2255 -1.5408  0.5289
  117SOL     OW  349   1.137   0.361   0.563  0.2845  0.0827  0.1167
  117SOL    HW1  350   1.156   0.463   0.566  0.1855  0.4557 -0.4231
  117SOL    HW2  351   1.111   0.323   0.477  1.9929 -0.1322  0.3200
  118SOL     OW  352   1.129   1.221   1.076  0.3790  0.2017  0.0463
  118SOL    HW1  353   1.054   1.204   1.149  1.0055 -0.2034  0.8566
  118SOL    HW2  354   1.185   1.304   1.097 -2.9150 -0.5216 -0.8279
  119SOL     OW  355   1.841   1.577   2.193 -0.2290  0.1675 -0.1249
  119SOL    HW1  356   1.792   1.653   2.138 -1.2049  0.2584 -0.9827
  119SOL    HW2  357   1.942   1.574   2.176 -2.5662 -2.6025  0.4714
  120SOL     OW  358   2.958   2.820   0.257  0.2711 -0.1773  0.0418
  120SOL    HW1  359   3.018   2.767   0.189  3.5045 -0.8793  1.0461
  120SOL    HW2  360   2.859   2.820   0.233  1.4866 -0.7748  0.9997
  121SOL     OW  361   1.997   0.805   2.319  0.1021 -0.0117  0.0631
  121SOL    HW1  362   2.058   0.882   2.292 -0.0196  0.9771  0.7174
  121SOL    HW2  363   2.000   0.730   2.247 -1.4377  1.4316 -0.3795
  122SOL     OW  364   2.625   2.502   1.323 -0.3866 -0.0886 -0.3282
  122SOL    HW1  365   2.671   2.457   1.238 -0.5810  4.7120 -0.0712
  122SOL    HW2  366   2.614   2.442   1.405  1.0322 -0.3679 -0.8494
  123SOL     OW  367   1.658   0.134   1.710 -0.1993  0.2212 -0.2208
  123SOL    HW1  368   1.684   0.067   1.637  0.3182  0.2511  1.7764
  123SOL    HW2  369   1.733   0.191   1.749 -1.2316 -2.7184 -0.6780
  124SOL     OW  370   3.059   0.384   1.126 -0.1708  0.0412  0.4363
  124SOL    HW1  371   3.004   0.437   1.196 -3.5841 -0.8619  0.4287
  124SOL    HW2  372   3.060   0.429   1.031 -0.8135 -2.3988 -0.2445
  125SOL     OW  373   0.851   2.000   0.763  0.5028 -0.0934 -0.5269
  125SOL    HW1  374   0.939   1.950   0.779 -0.6260  2.4017  0.3976
  125SOL    HW2  375   0.806   2.045   0.846 -1.3987  1.2997  2.6870
  126SOL     OW  376   1.892   2.318   2.464 -0.4329  0.1298 -0.4868
  126SOL    HW1  377   1.953   2.249   2.420 -0.8630  0.3202  1.6516
  126SOL    HW2  378   1.844   2.281   2.551  0.1326 -3.3383 -1.0654
  127SOL     OW  379   0.896   0.975   0.206  0.1212  0.1288 -0.1086
  127SOL    HW1  380   0.938   1.035   0.277 -1.2128 -0.4617 -0.7857
  127SOL    HW2  381   0.928   0.874   0.209  0.0116  0.0554  0.6918
  128SOL     OW  382   0.944   0.237   1.433  0.1704 -0.4927  0.2796
  128SOL    HW1  383   0.887   0.295   1.377 -0.6527  0.6683  2.7151
  128SOL    HW2  384   0.954   0.147   1.392 -1.1284 -1.8858 -0.4730
  129SOL     OW  385   1.865   0.718   1.823 -0.2414 -0.1150  0.7754
  129SOL    HW1  386   1.901   0.707   1.723  0.5207 -1.0363 -0.7898
  129SOL    HW2  387   1.901   0.803   1.865 -0.1710 -1.8847 -3.0953
  130SOL     OW  388   1.353   2.274   0.987  0.3797 -0.8142  0.4900
  130SOL    HW1  389   1.345   2.201   0.916  0.1071  1.8818 -1.1721
  130SOL    HW2  390   1.443   2.327   0.976  1.0517 -0.2704  0.0351
  131SOL     OW  391   3.069   1.433   1.391 -0.2364 -0.3005 -0.0011
  131SOL    HW1  392   3.025   1.342   1.399  2.9459 -2.8009 -0.1074
  131SOL    HW2  393   3.169   1.441   1.360 -1.0368  0.9971  3.3134
  132SOL     OW  394   2.063   2.414   0.563  0.3907  0.7302 -0.1122
  132SOL    HW1  395   1.967   2.449   0.556  0.4116  0.7707 -0.7229
  132SOL    HW2  396   2.075   2.343   0.642  1.3141  1.9282  0.6805
  133SOL     OW  397   1.744   2.502   2.756  0.4982  0.3989  0.1284
  133SOL    HW1  398   1.672   2.491   2.683 -1.4826  0.6034 -1.5930
  133SOL    HW2  399   1.758   2.602   2.773  0.2173 -1.4244  1.0811
  134SOL     OW  400   2.673   2.398   1.591 -0.2434  0.3905  0.0921
  134SOL    HW1  401   2.606   2.368   1.665 -1.4648  1.4964 -1.3737
  134SOL    HW2  402   2.706   2.493   1.617 -2.4854 -1.0378  2.7172
  135SOL     OW  403   0.811   1.431   2.656  0.1500 -0.6683 -0.4860
  135SOL    HW1  404   0.724   1.384   2.693  1.0618 -0.7339 -0.9430
  135SOL    HW2  405   0.816   1.437   2.556  2.9076 -0.2967  1.1403
  136SOL     OW  406   1.178   2.010   0.403  0.2038  0.3691  0.2329
  136SOL    HW1  407   1.104   2.081   0.434 -2.2004  2.0998 -0.6730
  136SOL    HW2  408   1.138   1.912   0.400 -0.8500  0.2433  0.1059
  137SOL     OW  409   0.421   1.216   2.332 -0.2724  0.1526  0.3997
  137SOL    HW1  410   0.320   1.193   2.332  2.6572 -1.2293  0.4642
  137SOL    HW2  411   0.479   1.137   2.301  0.4007 -0.3731  1.7950
  138SOL     OW  412   2.440   1.516   0.239  0.3606 -0.8519 -0.1521
  138SOL    HW1  413   2.384   1.482   0.158 -0.8031  1.3357 -0.4092
  138SOL    HW2  414   2.451   1.449   0.321 -0.4171 -0.0850 -1.8612
  139SOL     OW  415   1.880   2.672   1.595 -0.3492  0.0344  0.1246
  139SOL    HW1  416   1.775   2.676   1.598 -1.0214 -3.5845 -1.2129
  139SOL    HW2  417   1.912   2.597   1.535 -1.3697 -0.1474  0.4102
  140SOL     OW  418   2.960   2.951   2.562  0.5134  0.0849 -0.3164
  140SOL    HW1  419   3.007   2.858   2.588  1.7951 -0.2365  1.4204
  140SOL    HW2  420   3.030   3.029   2.546  1.1275 -1.1719  2.9797
  141SOL     OW  421   1.306   1.653   1.499  0.3845 -0.2487 -0.5626
  141SOL    HW1  422   1.210   1.699   1.512 -1.4083 -0.8786 -0.9082
  141SOL    HW2  423   1.309   1.573   1.564  1.1120 -1.4550 -2.8581
  142SOL     OW  424   1.563   0.693   2.247  0.5993  0.1196 -0.1393
  142SOL    HW1  425   1.577   0.731   2.155 -0.2316 -0.1043  0.1222
  142SOL    HW2  426   1.470   0.654   2.261  2.8764  1.9001  1.6291
  143SOL     OW  427   2.750   0.814   0.554 -0.2657 -0.4319  0.0832
  143SOL    HW1  428   2.796   0.876   0.487 -2.2853 -2.1733 -1.7399
  143SOL    HW2  429   2.751   0.856   0.649  1.4132  1.0172 -4.3616
  144SOL     OW  430   2.896   1.161   1.454  0.2816 -0.4413 -0.1571
  144SOL    HW1  431   2.839   1.162   1.542 -0.3719 -1.0155 -0.4989
  144SOL    HW2  432   2.987   1.121   1.479 -0.1963 -2.0247 -3.7941
  145SOL     OW  433   0.877   1.783   0.100  0.2724 -0.8899  0.2880
  145SOL    HW1  434   0.889   1.803  -0.000  1.0445 -1.5970 -1.2029
  145SOL    HW2  435   0.808   1.711   0.117  1.1732 -0.0792  0.0475
  146SOL     OW  436   2.450   0.664   1.507 -0.1183 -0.1410 -0.3195
  146SOL    HW1  437   2.439   0.574   1.464 -1.0353  1.3001 -0.4775
  146SOL    HW2  438   2.389   0.738   1.464 -1.0657  0.3774 -0.2657
  147SOL     OW  439   1.073   2.490   0.562 -0.4258 -0.4316 -0.0913
  147SOL    HW1  440   1.012   2.566   0.522  1.4313  1.7262 -0.3072
  147SOL    HW2  441   1.166   2.485   0.515  0.4892 -3.2217  2.8370
  148SOL     OW  442   1.575   1.464   0.005  0.0056 -0.6613  0.1386
  148SOL    HW1  443   1.612   1.384  -0.047 -0.3301  0.1537 -0.1156
  148SOL    HW2  444   1.556   1.447   0.104  0.3136  1.2635 -1.2535
  149SOL     OW  445   0.649   1.493   1.980  0.0360 -0.1839 -0.1221
  149SOL    HW1  446   0.562   1.444   2.009 -0.2360  1.0479  0.0093
  149SOL    HW2  447   0.689   1.476   1.886  2.5474  0.4449 -1.4840
  150SOL     OW  448   3.041   1.188   0.929 -0.4347 -0.5513 -0.0651
  150SOL    HW1  449   3.096   1.230   1.001 -0.3873  0.9555 -0.1682
  150SOL    HW2  450   2.995   1.100   0.966 -3.1228  0.3287  0.9798
  151SOL     OW  451   0.149   0.916   2.093 -0.4520 -0.3250  0.2293
  151SOL    HW1  452   0.163   0.988   2.021 -0.6895  2.1286  0.8765
  151SOL    HW2  453   0.213   0.836   2.082 -2.7846  0.6697  2.6990
  152SOL     OW  454   1.476   1.865   1.096  0.1789  0.2025  0.4729
  152SOL    HW1  455   1.498   1.968   1.101 -0.1155 -2.1574 -2.0206
  152SOL    HW2  456   1.375   1.847   1.087  2.7638  2.3870  0.7024
  153SOL     OW  457   0.153   1.494   0.236 -0.5258  0.1219  0.4362
  153SOL    HW1  458   0.098   1.406   0.243 -1.5443  0.3150 -0.0418
  153SOL    HW2  459   0.139   1.550   0.326  0.1884 -1.1184  1.7875
  154SOL     OW  460   2.330   1.804   2.775  0.4676  1.0389  0.2541
  154SOL    HW1  461   2.347   1.704   2.768 -0.3867 -0.4022  2.9753
  154SOL    HW2  462   2.393   1.862   2.715  0.8240 -0.2962  1.8347
  155SOL     OW  463   2.453   1.321   0.429  0.8122  0.3586  0.2214
  155SOL    HW1  464   2.537   1.272   0.394  2.4928  1.4205 -1.0301
  155SOL    HW2  465   2.378   1.260   0.469  1.5797  0.6946 -0.5395
  156SOL     OW  466   2.462   0.827   0.762 -0.6481 -0.6318  0.4970
  156SOL    HW1  467   2.371   0.780   0.775  1.0590  0.0860 -0.7220
  156SOL    HW2  468   2.490   0.856   0.667  1.5450  2.3988  0.1704
  157SOL     OW  469   1.264   3.069   3.075 -0.0145  0.3162 -0.0666
  157SOL    HW1  470   1.325   3.021   3.007  3.0828  1.7560 -0.9115
  157SOL    HW2  471   1.291   3.169   3.085  4.0093 -0.7181 -3.1918
  158SOL     OW  472   1.096   1.928   1.820 -0.0745  0.3338  0.2227
  158SOL    HW1  473   1.163   2.005   1.822 -0.0509  0.8240  2.8715
  158SOL    HW2  474   1.002   1.946   1.871 -1.0218 -2.3142  2.0500
  159SOL     OW  475   0.781   0.412   1.288 -0.2095  0.2149 -0.5808
  159SOL    HW1  476   0.736   0.505   1.283 -2.8707  1.5956  1.4898
  159SOL    HW2  477   0.758   0.352   1.206 -3.3671  0.9800  0.8682
  160SOL     OW  478   1.420   2.472   1.449  0.2866 -0.4650  0.2210
  160SOL    HW1  479   1.369   2.395   1.498  1.5641 -0.3114  0.9429
  160SOL    HW2  480   1.506   2.436   1.401  0.7514  3.2325 -0.8073
  161SOL     OW  481   0.010   2.619   0.446  0.2394 -0.2949 -0.2943
  161SOL    HW1  482  -0.037   2.529   0.444  1.6537  0.9435 -1.0412
  161SOL    HW2  483  -0.045   2.695   0.419 -0.5784 -0.2540  0.8543
  162SOL     OW  484   2.523   1.886   0.491 -0.5836 -0.2099  0.1472
  162SOL    HW1  485   2.560   1.857   0.399 -3.2022 -2.4849  2.0897
  162SOL    HW2  486   2.458   1.821   0.539  0.6121 -0.0015 -2.7428
  163SOL     OW  487   1.973   2.753   0.758  0.2992 -0.3118  0.0712
  163SOL    HW1  488   1.977   2.772   0.656 -0.8513 -1.2678  2.5898
  163SOL    HW2  489   2.030   2.672   0.784  0.1505  0.0151 -2.6882
  164SOL     OW  490   3.087   0.141   1.216  0.6437  0.5307  0.0392
  164SOL    HW1  491   3.084   0.236   1.172  2.2951 -0.7631  2.4988
  164SOL    HW2  492   3.149   0.128   1.295 -3.8922 -0.1874 -0.7329
  165SOL     OW  493   1.115   1.454   0.626 -0.3366  0.1955 -0.2298
  165SOL    HW1  494   1.112   1.490   0.722  1.5236  0.4509 -0.6449
  165SOL    HW2  495   1.063   1.507   0.550 -0.5813 -2.7233 -2.9545
  166SOL     OW  496   1.505   0.996   1.824  0.1887  0.3808  0.2158
  166SOL    HW1  497   1.440   1.061   1.868  0.2434 -1.1940  0.1404
  166SOL    HW2  498   1.597   1.040   1.817 -1.2186  1.1717  2.9894
  167SOL     OW  499   0.665   2.016   1.526  0.2458  0.3316  0.2572
  167SOL    HW1  500   0.652   2.071   1.613 -2.7201  1.0343  0.2782
  167SOL    HW2  501   0.627   1.922   1.534  1.8215 -1.7280 -2.4798
  168SOL     OW  502   1.629   2.295   0.146  0.3814 -0.0845  0.2216
  168SOL    HW1  503   1.678   2.352   0.073  0.3818 -0.9542 -0.5392
  168SOL    HW2  504   1.668   2.284   0.241 -1.3290 -1.7173  0.5682
  169SOL     OW  505   0.003   2.572   2.183 -0.3634  0.2743 -0.5766
  169SOL    HW1  506  -0.003   2.491   2.123 -1.5584 -0.0615  0.3758
  169SOL    HW2  507   0.056   2.551   2.273  1.5168 -2.6040 -2.2593
  170SOL     OW  508   1.148   0.142   2.062 -0.0903 -0.1565  0.1644
  170SOL    HW1  509   1.232   0.178   2.111 -1.2335 -1.7232 -0.2179
  170SOL    HW2  510   1.157   0.151   1.958 -0.1990 -0.6158 -2.2125
  171SOL     OW  511   0.172   0.861   2.421 -0.5505  0.3980 -0.1202
  171SOL    HW1  512   0.080   0.837   2.456 -0.0422 -3.0251  2.9145
  171SOL    HW2  513   0.174   0.946   2.359 -1.1015 -0.9865 -0.8468
  172SOL     OW  514   1.007   1.000   2.849  0.3573 -0.7948 -0.3123
  172SOL    HW1  515   0.958   1.072   2.905 -1.0454 -1.2577 -2.1834
  172SOL    HW2  516   0.960   0.976   2.759 -0.8942 -0.0897  1.8791
  173SOL     OW  517   0.397   2.577   0.032 -0.3609  0.4880 -0.4020
  173SOL    HW1  518   0.430   2.497  -0.019 -2.3642 -2.0862 -1.0781
  173SOL    HW2  519   0.401   2.568   0.132 -0.3656 -2.3920  1.8953
  174SOL     OW  520   1.467   2.868   1.045 -0.2101 -0.1395 -0.0164
  174SOL    HW1  521   1.556   2.908   1.020 -1.6403  0.8829  0.7130
  174SOL    HW2  522   1.441   2.785   0.984  1.0443 -0.0839 -1.2992
  175SOL     OW  523   0.464   3.053   1.713  0.5927 -0.4136 -0.1819
  175SOL    HW1  524   0.499   3.067   1.813  2.0764  0.4606  0.9251
  175SOL    HW2  525   0.434   3.145   1.672 -1.3980  0.9049  0.7475
  176SOL     OW  526   2.656   0.429   3.062 -0.3429  0.9403 -0.3911
  176SOL    HW1  527   2.636   0.515   3.118 -0.9626  0.4753  1.9418
  176SOL    HW2  528   2.681   0.352   3.127  1.0840  1.0779 -0.7159
  177SOL     OW  529   0.387   0.274   0.887  0.4775 -0.3684 -0.2579
  177SOL    HW1  530   0.320   0.194   0.868 -1.4040 -2.4916 -1.4860
  177SOL    HW2  531   0.478   0.253   0.835  0.6858  0.0005 -1.1162
  178SOL     OW  532   0.024   2.729   2.647 -0.7567  0.3471  0.9730
  178SOL    HW1  533   0.010   2.629   2.666  0.1395  1.5543 -1.3072
  178SOL    HW2  534   0.095   2.764   2.712  0.3987  0.7248 -0.7713
  179SOL     OW  535   2.979   1.590   1.195 -0.2829  0.6061  0.3512
  179SOL    HW1  536   3.079   1.601   1.163  1.6376 -0.9324  0.8882
  179SOL    HW2  537   2.983   1.527   1.274 -0.9701  1.0612 -0.8433
  180SOL     OW  538   0.255   1.378   1.748  0.1951  0.8151 -0.5048
  180SOL    HW1  539   0.339   1.337   1.786 -2.1473  1.7094 -1.8348
  180SOL    HW2  540   0.191   1.418   1.822 -0.0269  1.4207  0.2854
  181SOL     OW  541   2.984   1.806   2.486  0.1467 -0.5929 -0.8346
  181SOL    HW1  542   3.001   1.803   2.382 -0.9620  0.2616 -2.9779
  181SOL    HW2  543   2.883   1.808   2.503  0.5119 -1.0394  1.6734
  182SOL     OW  544   2.253   1.366   1.193 -0.3414  0.0008  0.1718
  182SOL    HW1  545   2.213   1.275   1.155  1.7443  0.9957 -0.7557
  182SOL    HW2  546   2.317   1.418   1.137 -0.2232 -0.8073  1.9132
  183SOL     OW  547   1.420   2.248   2.414  0.2949 -0.0152 -0.3833
  183SOL    HW1  548   1.346   2.183   2.455 -0.4807 -0.6745 -1.6101
  183SOL    HW2  549   1.503   2.190   2.385  1.8098 -1.7659  1.6297
  184SOL     OW  550   2.179   0.789   0.755  0.3947  0.0986 -0.3335
  184SOL    HW1  551   2.079   0.821   0.766 -2.2711 -0.1456  1.7510
  184SOL    HW2  552   2.191   0.685   0.727  0.4428 -3.6443 -0.4953
  185SOL     OW  553   1.581   2.792   2.000  0.1601 -0.0861  0.1239
  185SOL    HW1  554   1.487   2.833   2.011 -0.4381 -0.3759 -0.1483
  185SOL    HW2  555   1.627   2.779   2.094  0.4200  1.1281  1.7993
  186SOL     OW  556   0.088   2.209   1.769 -0.0241 -0.0293  0.4127
  186SOL    HW1  557   0.081   2.271   1.854 -3.3569  0.6946  2.5975
  186SOL    HW2  558   0.186   2.184   1.753 -0.7802 -3.1387  0.3512
  187SOL     OW  559   1.338   0.686   1.662 -0.2687  0.3323 -0.4031
  187SOL    HW1  560   1.424   0.703   1.601 -0.4186 -3.0110 -0.5708
  187SOL    HW2  561   1.353   0.607   1.725  1.2201  1.2681 -0.9026
  188SOL     OW  562   2.712   2.667   1.551 -0.0381 -0.1355  0.5631
  188SOL    HW1  563   2.661   2.744   1.599 -1.1428 -2.5544 -0.1688
  188SOL    HW2  564   2.697   2.666   1.452  0.0887  0.3585  2.5977
  189SOL     OW  565   0.955   1.200   1.336 -0.0881 -0.0497 -0.1801
  189SOL    HW1  566   0.983   1.247   1.423 -0.4636 -3.1611  1.7670
  189SOL    HW2  567   0.884   1.253   1.286 -0.6914 -1.2515 -0.5102
  190SOL     OW  568   1.476   1.893   1.500  0.1364  0.4161  0.2123
  190SOL    HW1  569   1.426   1.803   1.501  0.8929  0.8281 -0.4386
  190SOL    HW2  570   1.488   1.922   1.600 -0.1261 -1.3223 -0.8113
  191SOL     OW  571   0.844   0.768   1.512  0.1239  0.3392 -0.1914
  191SOL    HW1  572   0.909   0.699   1.542 -2.1895 -1.9860 -1.6391
  191SOL    HW2  573   0.892   0.838   1.456 -0.6679  0.6154 -0.2523
  192SOL     OW  574   1.820   2.441   1.097 -0.4211 -0.0963 -0.2315
  192SOL    HW1  575   1.721   2.431   1.067  3.2884  0.8804 -1.7674
  192SOL    HW2  576   1.861   2.346   1.071 -2.6434 -0.7239 -0.0334
  193SOL     OW  577   0.555   0.579   0.443 -0.6087  0.2628 -0.4499
  193SOL    HW1  578   0.486   0.502   0.431 -1.4109  0.6301  0.2900
  193SOL    HW2  579   0.616   0.596   0.365 -0.7669 -1.8533  1.9178
  194SOL     OW  580   0.382   0.817   1.324  0.6851 -0.0971 -0.6531
  194SOL    HW1  581   0.281   0.802   1.300 -2.9794  0.2619  1.6552
  194SOL    HW2  582   0.442   0.823   1.244 -0.5752  0.0194  0.5068
  195SOL     OW  583   1.026   2.943   0.502 -0.2152  0.1833  0.0912
  195SOL    HW1  584   1.000   2.848   0.467  0.9264  1.5703 -3.5380
  195SOL    HW2  585   1.117   2.975   0.468 -2.3822  1.7136 -1.5062
  196SOL     OW  586   0.245   1.426   1.304 -0.2331 -0.0050  0.0684
  196SOL    HW1  587   0.256   1.527   1.300 -0.9339  0.4330 -0.3689
  196SOL    HW2  588   0.269   1.392   1.400 -2.0215  1.0611  1.9800
  197SOL     OW  589   0.844   1.998   0.304  0.2165 -0.6802 -0.4694
  197SOL    HW1  590   0.857   1.948   0.392  0.0368  0.8283 -2.5700
  197SOL    HW2  591   0.851   1.934   0.222 -1.7542 -3.2583 -1.0111
  198SOL     OW  592   0.280   1.215   0.349 -0.4992 -0.4240  0.2301
  198SOL    HW1  593   0.189   1.208   0.306  3.0558  0.8060 -1.3371
  198SOL    HW2  594   0.294   1.303   0.399 -1.4266 -0.0322 -4.0504
  199SOL     OW  595   2.219   0.460   2.597  0.0120 -0.1720 -0.2824
  199SOL    HW1  596   2.147   0.393   2.636  1.3809 -2.3872 -0.0370
  199SOL    HW2  597   2.316   0.434   2.628 -1.8834 -0.0859 -0.2147
  200SOL     OW  598   3.026   2.890   0.809 -0.0920 -0.5281  0.1173
  200SOL    HW1  599   3.063   2.979   0.854  1.0810 -0.8146 -0.2024
  200SOL    HW2  600   2.967   2.912   0.725 -2.8522 -0.2248  2.2669
  201SOL     OW  601   0.907   0.699   0.504  0.1509  0.4131 -0.0729
  201SOL    HW1  602   0.860   0.773   0.550  0.6505 -1.7259  0.7951
  201SOL    HW2  603   0.859   0.608   0.506  0.1657 -0.5663  0.4418
  202SOL     OW  604   0.462   1.228   1.849  0.5284 -0.4349  0.5744
  202SOL    HW1  605   0.547   1.179   1.812  0.2637 -0.6784  0.5990
  202SOL    HW2  606   0.473   1.250   1.954  1.0370  0.2584  1.7073
  203SOL     OW  607   0.681   0.199   1.587  0.0182 -0.3481 -0.3856
  203SOL    HW1  608   0.691   0.139   1.499  2.8912 -1.1937 -1.4118
  203SOL    HW2  609   0.767   0.192   1.641  1.8013  2.1634 -1.1453
  204SOL     OW  610   2.112   1.826   2.919 -0.3773  0.3473  0.3514
  204SOL    HW1  611   2.085   1.723   2.932  2.8821 -2.4247  2.5938
  204SOL    HW2  612   2.195   1.827   2.848  1.9768 -0.8549 -1.8572
  205SOL     OW  613   1.837   1.900   3.068 -0.0528 -0.1354 -0.3616
  205SOL    HW1  614   1.928   1.865   3.044 -0.1796  1.4597 -0.2647
  205SOL    HW2  615   1.788   1.963   3.002  0.5131  0.8885 -0.2019
  206SOL     OW  616   2.350   2.716   0.278  0.0457 -0.2001  0.2647
  206SOL    HW1  617   2.339   2.676   0.377 -1.1936 -1.0033 -0.0053
  206SOL    HW2  618   2.445   2.694   0.243 -2.1674 -2.9126  2.0024
  207SOL     OW  619   0.703   1.745   2.916 -0.0357 -0.2400  0.4735
  207SOL    HW1  620   0.797   1.703   2.894  0.0715  1.8536  0.1872
  207SOL    HW2  621   0.643   1.682   2.970 -0.6573  0.5375 -0.5766
  208SOL     OW  622   0.992   1.546   1.273 -0.4600 -0.1016 -0.0708
  208SOL    HW1  623   0.924   1.585   1.209 -0.8751  1.4645  2.3455
  208SOL    HW2  624   0.987   1.585   1.368  1.9848 -0.3205 -1.1443
  209SOL     OW  625   0.263   0.964   3.039 -0.5998  0.3337 -0.0072
  209SOL    HW1  626   0.300   0.923   2.951  1.9756 -0.7425 -1.1629
  209SOL    HW2  627   0.233   0.889   3.106  2.7614 -3.2562 -3.2408
  210SOL     OW  628   1.693   0.563   1.272 -0.3207 -0.0165  0.8240
  210SOL    HW1  629   1.634   0.595   1.190 -3.0054 -0.2523 -1.3940
  210SOL    HW2  630   1.793   0.555   1.248 -1.6302  2.2737  1.5736
  211SOL     OW  631   2.188   1.029   1.573  0.2594  0.1513  0.0386
  211SOL    HW1  632   2.207   1.014   1.671 -0.0316 -0.5117 -2.2209
  211SOL    HW2  633   2.241   1.109   1.522  3.4349 -2.3330 -2.6902
  212SOL     OW  634   0.043   1.031   1.483 -0.4795  0.0300  0.4577
  212SOL    HW1  635   0.104   1.118   1.499 -2.0470  2.8076  0.4816
  212SOL    HW2  636   0.070   0.951   1.547 -0.2282 -0.5542  0.3950
  213SOL     OW  637   2.817   0.076   0.361  0.3943 -0.9429  0.3215
  213SOL    HW1  638   2.915   0.049   0.366 -1.5973  0.0691 -0.0101
  213SOL    HW2  639   2.771   0.025   0.281  0.0346  1.2664  2.2836
  214SOL     OW  640   2.160   0.336   2.351  0.0437  0.1361  0.0326
  214SOL    HW1  641   2.185   0.383   2.444  1.2841  2.1237 -1.1156
  214SOL    HW2  642   2.148   0.238   2.365 -0.0726  4.5529  0.6821
  215SOL     OW  643   1.658   2.238   2.054 -0.1570  0.3590  0.4124
  215SOL    HW1  644   1.749   2.281   2.042  1.1432  1.2656  1.5935
  215SOL    HW2  645   1.593   2.311   2.087 -0.0171  2.4906  1.4162
  216SOL     OW  646   2.215   0.527   0.732  0.3185 -0.3068  0.2683
  216SOL    HW1  647   2.193   0.483   0.632  1.6346  0.4214 -1.6297
  216SOL    HW2  648   2.311   0.518   0.764  1.4747 -1.4706  0.7553
  217SOL     OW  649   0.937   2.732   2.569  0.2291  0.0330 -0.3142
  217SOL    HW1  650   0.919   2.659   2.645  3.1738  1.9751 -0.6508
  217SOL    HW2  651   0.875   2.716   2.489 -0.3905 -2.3408  1.3651
  218SOL     OW  652   1.868   1.434   0.027  0.3046 -0.3065 -0.2796
  218SOL    HW1  653   1.774   1.461   0.061  0.4800 -3.2620 -0.5744
  218SOL    HW2  654   1.884   1.333   0.043 -0.6932 -1.0712  0.3753
  219SOL     OW  655   2.463   1.295   2.521 -0.1436  0.1975 -0.0012
  219SOL    HW1  656   2.477   1.231   2.441 -3.3044 -1.0990  0.4893
  219SOL    HW2  657   2.452   1.241   2.608  2.2591  1.3098 -0.2795
  220SOL     OW  658   1.383   1.020   1.330 -0.0124 -0.1991 -0.1756
  220SOL    HW1  659   1.483   1.024   1.358  0.5201  0.3063  1.5901
  220SOL    HW2  660   1.370   1.049   1.230 -1.2718 -2.5892 -1.9636
  221SOL     OW  661   1.386   0.955   2.183 -0.6723 -0.9879  0.4544
  221SOL    HW1  662   1.350   1.006   2.104  0.1875 -1.6164 -0.0799
  221SOL    HW2  663   1.471   1.002   2.231  0.2855 -0.4039 -0.9343
  222SOL     OW  664   1.172   0.079   1.227  0.1393 -0.1234 -0.1176
  222SOL    HW1  665   1.205   0.117   1.316 -0.9385  0.1335 -0.2147
  222SOL    HW2  666   1.166   0.154   1.153 -1.0883  0.2240 -0.5626
  223SOL     OW  667   2.727   0.951   2.125  0.3300 -0.3500  0.4683
  223SOL    HW1  668   2.713   1.046   2.088  0.6693  1.2270 -0.4405
  223SOL    HW2  669   2.825   0.933   2.158  0.6979 -1.5514 -0.4792
  224SOL     OW  670   1.550   1.015   2.774 -0.8009 -0.6302  0.4237
  224SOL    HW1  671   1.535   0.938   2.711 -1.7901  0.5808  4.2621
  224SOL    HW2  672   1.598   1.101   2.735  2.9688 -1.3336 -0.5917
  225SOL     OW  673   2.952   2.675   2.922  0.2450  0.1204  0.2347
  225SOL    HW1  674   2.871   2.652   2.866 -2.1238  1.3981 -0.5958
  225SOL    HW2  675   3.007   2.748   2.870  2.4865  1.9058  0.7131
  226SOL     OW  676   2.413   1.537   2.773  1.1478  0.6153 -0.5249
  226SOL    HW1  677   2.485   1.537   2.701 -1.7549 -1.0434 -0.9997
  226SOL    HW2  678   2.448   1.487   2.856 -2.8660 -1.4129 -2.8245
  227SOL     OW  679   0.858   0.252   3.068  0.5721  0.6512  0.2283
  227SOL    HW1  680   0.860   0.354   3.041  0.8212 -0.0839 -0.1188
  227SOL    HW2  681   0.808   0.193   2.993 -0.5819  0.6589  2.2679
  228SOL     OW  682   2.452   0.668   2.847 -0.2400  0.2934  0.1969
  228SOL    HW1  683   2.455   0.751   2.786 -0.7512 -2.5395 -1.0406
  228SOL    HW2  684   2.500   0.584   2.813 -0.9321 -1.7471  0.8506
  229SOL     OW  685   0.487   0.550   1.823  1.0613  0.9063 -0.0485
  229SOL    HW1  686   0.578   0.601   1.838 -0.5566  0.9935  2.6978
  229SOL    HW2  687   0.487   0.494   1.740  0.7518  3.1532 -0.4378
  230SOL     OW  688   1.867   1.207   1.942 -0.1743  0.3072 -0.0998
  230SOL    HW1  689   1.948   1.267   1.912  0.0604  2.1190 -0.2990
  230SOL    HW2  690   1.812   1.244   2.021  1.8791 -3.7759  0.4423
  231SOL     OW  691   0.617   1.077   3.081  0.1998  0.2817 -0.3629
  231SOL    HW1  692   0.697   1.143   3.066 -4.0082  1.2291 -0.6369
  231SOL    HW2  693   0.528   1.122   3.118 -2.9069  3.2482  1.9221
  232SOL     OW  694   2.395   3.042   2.788 -0.4387 -0.9380  0.1941
  232SOL    HW1  695   2.471   2.971   2.801  0.1977 -0.8778 -1.9260
  232SOL    HW2  696   2.423   3.112   2.714 -1.5747 -0.3481 -2.3654
  233SOL     OW  697   1.786   1.161   1.081  0.4758  0.2376  0.0321
  233SOL    HW1  698   1.867   1.208   1.039  0.5317 -2.1102 -3.0150
  233SOL    HW2  699   1.803   1.092   1.153  0.2305  0.1068  0.9789
  234SOL     OW  700   1.640   2.533   1.838 -0.5732 -0.6550  0.3192
  234SOL    HW1  701   1.591   2.596   1.900  1.2030  0.7980 -0.5738
  234SOL    HW2  702   1.610   2.433   1.851  2.2470  1.1318 -2.1914
  235SOL     OW  703   3.097   2.973   2.833  0.1171 -0.1081 -0.6844
  235SOL    HW1  704   3.025   3.010   2.770  1.4851 -0.3629  1.0291
  235SOL    HW2  705   3.078   2.996   2.932 -0.7956 -1.7470 -0.8815
  236SOL     OW  706   2.913   0.689   0.062 -0.0742  0.3952  0.4494
  236SOL    HW1  707   2.965   0.724   0.146  1.2506 -1.1856  1.9659
  236SOL    HW2  708   2.943   0.598   0.027  0.1714 -1.2997 -1.2044
  237SOL     OW  709   1.472   1.670   0.888  0.6996  0.5282 -0.1774
  237SOL    HW1  710   1.567   1.623   0.887  2.0116 -1.5045  0.2833
  237SOL    HW2  711   1.472   1.749   0.953 -0.6888 -2.0900 -1.8270
  238SOL     OW  712   1.887   1.203   0.760 -0.1207 -0.0168 -0.2003
  238SOL    HW1  713   1.926   1.249   0.840 -0.5261  0.6168  1.2707
  238SOL    HW2  714   1.780   1.201   0.755 -2.8254 -1.3581  1.3315
  239SOL     OW  715   2.011   0.214   2.764 -0.1200  0.2761  0.9110
  239SOL    HW1  716   2.063   0.177   2.842 -1.3296  0.9882 -3.1592
  239SOL    HW2  717   1.942   0.291   2.788 -2.5626  0.0657 -0.6243
  240SOL     OW  718   0.942   0.699   0.238  0.0262 -0.0774 -0.0864
  240SOL    HW1  719   1.009   0.630   0.204  2.4003  0.1869  0.8965
  240SOL    HW2  720   0.944   0.700   0.342 -2.1063 -1.8613  2.4105
  241SOL     OW  721   0.560   0.134   0.313  0.2717 -0.0708 -0.1711
  241SOL    HW1  722   0.642   0.190   0.300 -1.6745  2.0086 -0.6005
  241SOL    HW2  723   0.568   0.046   0.258  2.6775  0.4606 -0.0627
  242SOL     OW  724   0.643   2.565   1.179 -0.3909 -0.0610 -0.2807
  242SOL    HW1  725   0.619   2.586   1.283 -1.3612  3.2575  2.9241
  242SOL    HW2  726   0.614   2.645   1.122  0.3975  1.6372 -0.0779
  243SOL     OW  727   1.066   0.616   2.382  0.5354  0.5268  0.7116
  243SOL    HW1  728   0.958   0.621   2.361 -2.7249  1.0796 -0.8409
  243SOL    HW2  729   1.091   0.567   2.471 -0.2808 -0.7370 -2.6928
  244SOL     OW  730   2.674   1.960   2.354  0.1445  0.0609 -0.0040
  244SOL    HW1  731   2.709   1.920   2.267 -0.7855  0.8401  2.0792
  244SOL    HW2  732   2.615   1.894   2.402  0.2382 -0.0933 -0.3678
  245SOL     OW  733   2.133   1.009   2.218 -0.8278 -0.1678  0.4733
  245SOL    HW1  734   2.232   0.993   2.245 -0.8198  1.7982 -0.0086
  245SOL    HW2  735   2.082   1.077   2.278 -0.4067  2.0822  0.0296
  246SOL     OW  736   0.312   2.837   1.800  0.1812 -0.1903  0.0775
  246SOL    HW1  737   0.221   2.832   1.751  3.2968 -0.0739 -0.3985
  246SOL    HW2  738   0.372   2.906   1.750  0.2363  1.9521 -1.0172
  247SOL     OW  739   2.239   0.579   3.007  0.2377 -0.3843  0.0510
  247SOL    HW1  740   2.303   0.592   2.926 -1.5593  0.6344 -2.5556
  247SOL    HW2  741   2.174   0.666   3.018 -0.2725  0.6054  0.5365
  248SOL     OW  742   2.195   1.800   1.590 -0.2402  0.0917 -0.1939
  248SOL    HW1  743   2.265   1.776   1.664  2.3638  0.1543  2.3194
  248SOL    HW2  744   2.109   1.738   1.602  1.7938  0.2597  2.2739
  249SOL     OW  745   1.878   1.908   1.787  0.6045  0.1389 -0.5729
  249SOL    HW1  746   1.890   1.821   1.732  0.8681  0.1346 -1.1686
  249SOL    HW2  747   1.961   1.928   1.849  0.0710 -0.1794  1.2753
  250SOL     OW  748   0.950   0.726   1.878 -0.0683 -0.1025 -0.5978
  250SOL    HW1  749   1.003   0.644   1.916  2.1201 -0.7044  0.1537
  250SOL    HW2  750   0.920   0.710   1.784 -3.6065  1.1898  1.6344
  251SOL     OW  751   3.026   1.537   2.539 -0.4068 -0.6082  0.5065
  251SOL    HW1  752   2.996   1.637   2.537  1.3780 -0.1416  2.9527
  251SOL    HW2  753   2.950   1.469   2.516 -0.9516 -1.7654 -0.8506
  252SOL     OW  754   1.573   0.854   1.576  0.1009 -0.2947  0.0460
  252SOL    HW1  755   1.634   0.917   1.519 -0.2601  0.7629 -0.6746
  252SOL    HW2  756   1.544   0.903   1.662  1.3655  0.0628 -0.0024
  253SOL     OW  757   0.926   1.529   0.415  0.2031  0.2124 -0.2673
  253SOL    HW1  758   0.898   1.472   0.332 -1.7325 -2.8410 -0.0286
  253SOL    HW2  759   0.843   1.555   0.475 -2.1087 -0.6262 -3.8568
  254SOL     OW  760   2.068   2.187   1.628  0.4890 -0.4710  0.6876
  254SOL    HW1  761   2.018   2.099   1.594 -0.2287 -1.5823  0.5272
  254SOL    HW2  762   2.004   2.248   1.681 -1.3575  0.9197  0.5915
  255SOL     OW  763   0.121   1.173   2.907 -0.3225  0.2622  0.4118
  255SOL    HW1  764   0.178   1.263   2.906  2.1278  0.6978 -0.6734
  255SOL    HW2  765   0.174   1.098   2.951  0.1947  4.5998  0.2052
  256SOL     OW  766   2.821   1.427   1.769 -0.2986  0.0395 -0.0984
  256SOL    HW1  767   2.736   1.474   1.754  1.3475 -0.1198  0.8669
  256SOL    HW2  768   2.813   1.324   1.743  0.4969 -0.1026 -1.8005
  257SOL     OW  769   0.879   0.253   1.879  0.5580 -0.4507 -0.0729
  257SOL    HW1  770   0.929   0.298   1.801 -0.1336  0.1990 -1.5090
  257SOL    HW2  771   0.897   0.152   1.877 -3.9570  4.2867 -1.0367
  258SOL     OW  772   2.967   1.157   0.516 -0.0337  0.1615 -0.0892
  258SOL    HW1  773   2.884   1.167   0.582 -2.0499  1.3077 -1.3967
  258SOL    HW2  774   3.063   1.172   0.560 -0.2693 -3.0897 -1.5295
  259SOL     OW  775   0.470   2.939   3.001 -0.1050 -0.0121  0.4175
  259SOL    HW1  776   0.387   2.883   3.019  0.2943 -1.0688 -1.7536
  259SOL    HW2  777   0.527   2.918   2.913  0.1558 -2.3775 -0.0343
  260SOL     OW  778   2.734   0.751   2.731  0.2045 -0.3701 -0.4486
  260SOL    HW1  779   2.660   0.793   2.675  2.3686 -1.5816  0.1631
  260SOL    HW2  780   2.706   0.665   2.779  2.3169  3.9238  3.2711
  261SOL     OW  781   2.694   1.293   1.315 -0.1199 -0.6608  0.1790
  261SOL    HW1  782   2.613   1.260   1.258 -0.2952  3.7155 -1.0246
  261SOL    HW2  783   2.754   1.221   1.354 -0.5719 -1.5311 -0.2874
  262SOL     OW  784   1.356   2.962   2.060 -0.2785 -0.0445 -0.5353
  262SOL    HW1  785   1.398   3.048   2.027  0.0108 -0.1782  1.6887
  262SOL    HW2  786   1.268   2.935   2.007 -2.6374 -1.9797 -0.0134
  263SOL     OW  787   0.809   0.640   2.298 -0.0204  0.2825  0.3657
  263SOL    HW1  788   0.776   0.551   2.259  1.4090 -1.8748 -0.1729
  263SOL    HW2  789   0.798   0.723   2.232 -1.3209 -1.4793  0.1661
  264SOL     OW  790   2.272   0.818   0.391  0.1830 -0.0218  0.6336
  264SOL    HW1  791   2.290   0.740   0.323  2.0615  3.2865 -0.2867
  264SOL    HW2  792   2.359   0.861   0.430  0.8254  0.2613 -1.0673
  265SOL     OW  793   0.926   2.401   2.581  0.0027 -0.2874 -0.0089
  265SOL    HW1  794   0.986   2.461   2.646 -0.0785  1.2758  1.0946
  265SOL    HW2  795   0.864   2.338   2.626  0.4197  0.7835 -1.6388
  266SOL     OW  796   1.298   1.778   3.051 -0.2168  0.2239  0.2139
  266SOL    HW1  797   1.281   1.794   3.154  3.1551 -0.6176  3.2750
  266SOL    HW2  798   1.403   1.778   3.028  1.3556  1.6492 -2.1719
  267SOL     OW  799   1.068   0.042   2.333  0.4585 -0.4986  0.4776
  267SOL    HW1  800   0.979   0.083   2.305  2.2432 -0.0614 -2.3786
  267SOL    HW2  801   1.140   0.049   2.255 -2.2645  1.8536 -2.6257
  268SOL     OW  802   0.845   1.257   1.046  0.0527  0.2901  0.3709
  268SOL    HW1  803   0.816   1.334   1.107 -0.2133  1.7306 -1.1674
  268SOL    HW2  804   0.930   1.280   0.987 -0.2212  0.9260  0.6703
  269SOL     OW  805   2.371   2.541   1.583  0.1185  0.2864 -0.2374
  269SOL    HW1  806   2.460   2.488   1.597  0.6708  1.7869 -3.4026
  269SOL    HW2  807   2.338   2.604   1.662 -1.0195 -0.4088 -0.3211
  270SOL     OW  808   0.165   2.991   1.976  0.2394  0.0276 -0.5499
  270SOL    HW1  809   0.240   2.941   1.923 -2.2006 -1.0108  1.6803
  270SOL    HW2  810   0.103   2.928   2.027  1.3843  0.3079  3.5036
  271SOL     OW  811   0.484   1.392   1.127 -0.3769 -0.5753 -0.1439
  271SOL    HW1  812   0.476   1.350   1.034 -2.1213  4.2909 -0.6329
  271SOL    HW2  813   0.392   1.402   1.173 -1.5423  3.3373  1.2452
  272SOL     OW  814   1.899   3.097   1.925 -0.3272 -0.0360 -0.0174
  272SOL    HW1  815   1.891   3.023   1.855 -0.0804  1.1137  0.6986
  272SOL    HW2  816   1.896   3.190   1.877  0.1446 -0.0680  0.2751
  273SOL     OW  817   1.467   1.485   2.812 -0.4557 -0.2607  0.1959
  273SOL    HW1  818   1.375   1.474   2.762 -1.3736  2.3938  0.7693
  273SOL    HW2  819   1.457   1.498   2.915 -0.9030 -2.3423  1.2860
  274SOL     OW  820   1.106   0.524   2.026 -0.4202  0.3423  0.6124
  274SOL    HW1  821   1.034   0.454   2.054  2.2253  1.8670  0.5816
  274SOL    HW2  822   1.175   0.537   2.107  0.9077 -3.2020  0.9149
  275SOL     OW  823   0.648   2.133   1.902 -0.0477 -0.2683  0.5722
  275SOL    HW1  824   0.616   2.216   1.957 -1.1066 -3.0982  1.1574
  275SOL    HW2  825   0.570   2.066   1.882 -0.7893  0.3400 -2.8179
  276SOL     OW  826   2.233   0.932   2.849 -0.3207 -0.2481  0.0497
  276SOL    HW1  827   2.167   0.965   2.772 -0.0381  2.6333  1.1782
  276SOL    HW2  828   2.217   0.832   2.878 -0.0545 -0.5954 -2.6931
  277SOL     OW  829   3.083   0.769   0.268  0.1875 -0.3431 -0.2898
  277SOL    HW1  830   3.170   0.823   0.249 -0.7293 -0.2742  0.8884
  277SOL    HW2  831   3.104   0.674   0.301 -0.8114 -0.3746 -0.8557
  278SOL     OW  832   0.256   0.240   3.047 -0.1905  0.2048 -0.4801
  278SOL    HW1  833   0.335   0.185   3.006 -1.9119 -2.1841 -1.1149
  278SOL    HW2  834   0.270   0.340   3.037  1.2261 -0.6626  0.4630
  279SOL     OW  835   0.269   3.098   0.889  0.5049 -0.4755  0.7680
  279SOL    HW1  836   0.315   3.057   0.973  0.6352 -0.8906 -2.0968
  279SOL    HW2  837   0.227   3.018   0.833 -0.9683 -2.8128  0.6243
  280SOL     OW  838   1.633   2.921   2.441 -0.5570 -0.0033 -0.4519
  280SOL    HW1  839   1.716   2.974   2.484  0.7278 -1.1725  2.9524
  280SOL    HW2  840   1.565   2.985   2.403 -0.8652 -1.8556 -0.0782
  281SOL     OW  841   0.527   0.941   2.290  0.5453 -0.1128  0.3482
  281SOL    HW1  842   0.521   0.847   2.243 -3.5336 -0.3317 -1.0426
  281SOL    HW2  843   0.472   0.941   2.380  1.3533 -2.1463  3.4785
  282SOL     OW  844   1.792   2.454   0.540  0.0058  0.0839  0.3628
  282SOL    HW1  845   1.768   2.378   0.478 -1.2116  2.9957  4.2554
  282SOL    HW2  846   1.740   2.541   0.515  0.7178 -1.0643 -0.6562
  283SOL     OW  847   1.160   0.893   0.748 -0.1039  0.5585  0.2545
  283SOL    HW1  848   1.177   0.844   0.841 -1.4183 -1.0390 -0.4016
  283SOL    HW2  849   1.150   0.999   0.756  0.5149 -0.1972  0.6586
  284SOL     OW  850   2.232   2.804   2.462  0.1589 -0.1394 -0.4537
  284SOL    HW1  851   2.320   2.848   2.438 -2.9841 -0.7920  1.6778
  284SOL    HW2  852   2.214   2.816   2.564  2.6997  1.0378 -0.0230
  285SOL     OW  853   1.323   3.067   2.615 -0.1816 -0.5978  0.3253
  285SOL    HW1  854   1.345   3.083   2.516  0.4865  1.0610  0.5450
  285SOL    HW2  855   1.226   3.096   2.633  0.8324 -0.7569 -0.8141
  286SOL     OW  856   0.321   0.453   0.664 -0.9138  0.2026 -0.6366
  286SOL    HW1  857   0.341   0.383   0.736 -0.5711 -2.3664  0.1511
  286SOL    HW2  858   0.348   0.424   0.567 -0.4737 -3.3178  2.4797
  287SOL     OW  859   0.094   1.311   2.604 -0.2675  0.1986 -0.6218
  287SOL    HW1  860   0.054   1.225   2.633  1.4118 -0.7579  1.0635
  287SOL    HW2  861   0.030   1.385   2.565  2.2186  1.4387 -1.8658
  288SOL     OW  862   1.527   2.744   1.671  0.2253 -0.1002  0.4012
  288SOL    HW1  863   1.567   2.679   1.744 -0.2720 -1.0511 -0.4234
  288SOL    HW2  864   1.541   2.715   1.572 -0.6636  2.0220 -0.9722
  289SOL     OW  865   0.636   2.773   0.813 -0.0982  0.2678 -0.3572
  289SOL    HW1  866   0.672   2.850   0.753  0.5826 -1.7095 -1.3049
  289SOL    HW2  867   0.604   2.789   0.913  0.7312  0.6360  2.6852
  290SOL     OW  868   2.827   1.149   1.713  0.0467 -0.2251 -0.1261
  290SOL    HW1  869   2.765   1.065   1.729 -2.3591 -2.5748 -1.8801
  290SOL    HW2  870   2.911   1.140   1.778 -0.4952 -2.8562 -0.8499
  291SOL     OW  871   1.946   3.072   0.037 -0.1361  0.1709 -0.3723
  291SOL    HW1  872   1.967   3.107   0.133  3.7731 -3.2798 -1.0064
  291SOL    HW2  873   2.012   3.109  -0.039  1.8093  0.3983  2.9044
  292SOL     OW  874   2.993   1.167   3.059  0.2193 -0.0053  0.0422
  292SOL    HW1  875   2.934   1.251   3.052 -2.0774 -2.0169 -0.4657
  292SOL    HW2  876   3.078   1.178   3.003  1.2170  3.2405 -3.2123
  293SOL     OW  877   0.585   2.070   0.286 -0.1321  0.0549 -0.5758
  293SOL    HW1  878   0.543   2.130   0.360 -0.3792 -0.6366  1.0592
  293SOL    HW2  879   0.691   2.058   0.303  0.1217  1.7755  1.8860
  294SOL     OW  880   1.880   2.344   1.748  0.1005  0.3597  0.2688
  294SOL    HW1  881   1.878   2.326   1.852 -1.8367 -1.2705 -1.1213
  294SOL    HW2  882   1.836   2.433   1.725 -2.7466 -2.9491 -1.0011
  295SOL     OW  883   0.981   1.049   0.451 -1.2997  0.4644 -0.0383
  295SOL    HW1  884   1.064   1.103   0.474 -0.5310 -0.3511  0.2235
  295SOL    HW2  885   0.954   0.980   0.530  0.2308  0.5561  3.6624
  296SOL     OW  886   1.088   2.166   2.745  0.3471  0.1492  0.1277
  296SOL    HW1  887   0.996   2.209   2.748  0.8317 -0.6506  0.6014
  296SOL    HW2  888   1.137   2.192   2.655 -0.5550 -0.2581  0.4665
  297SOL     OW  889   1.273   0.532   1.165  0.2142  0.3784  0.1576
  297SOL    HW1  890   1.332   0.476   1.230 -1.6394 -2.1092 -3.0547
  297SOL    HW2  891   1.298   0.631   1.149 -1.0236 -1.9443  0.6919
  298SOL     OW  892   0.476   1.314   2.922 -0.7926 -0.1013  0.6704
  298SOL    HW1  893   0.431   1.259   3.002 -1.7748 -0.7729 -0.1121
  298SOL    HW2  894   0.525   1.257   2.849 -1.3948  0.4585 -0.3690
  299SOL     OW  895   0.443   0.198   1.257  0.2168 -0.4312 -0.3576
  299SOL    HW1  896   0.377   0.270   1.219 -1.3430  0.0988  0.5773
  299SOL    HW2  897   0.436   0.194   1.363 -1.1525  0.2155 -0.2422
  300SOL     OW  898   1.356   1.811   2.586  0.1447  0.5485  0.1572
  300SOL    HW1  899   1.364   1.725   2.519 -2.7717 -0.6662 -0.7858
  300SOL    HW2  900   1.433   1.813   2.659 -0.8032 -0.0920  1.0030
  301SOL     OW  901   0.417   0.355   0.420  0.2457 -0.7283 -0.8945
  301SOL    HW1  902   0.322   0.321   0.405  0.8476 -0.6329 -0.1283
  301SOL    HW2  903   0.490   0.283   0.404  0.6551 -1.9679 -0.7073
  302SOL     OW  904   1.274   2.442   2.306  0.3463 -0.7509  0.2954
  302SOL    HW1  905   1.174   2.426   2.307  1.9148 -0.3449 -2.8500
  302SOL    HW2  906   1.324   2.392   2.382 -1.4229  0.6577  2.5167
  303SOL     OW  907   0.941   2.450   0.833 -0.4130 -0.1789 -0.2552
  303SOL    HW1  908   1.020   2.468   0.765  0.6639  0.8036 -1.8410
  303SOL    HW2  909   0.964   2.508   0.917 -0.4272  1.5062 -0.6120
  304SOL     OW  910   0.146   1.928   0.673 -0.1313  0.2805  0.2497
  304SOL    HW1  911   0.217   1.921   0.601  0.2743  0.0483 -1.4587
  304SOL    HW2  912   0.051   1.941   0.626 -0.3442 -2.0311  0.4142
  305SOL     OW  913   1.629   0.877   0.688  0.9146  0.1369 -0.0349
  305SOL    HW1  914   1.571   0.913   0.611  0.3997  3.1796  0.4735
  305SOL    HW2  915   1.644   0.772   0.693 -0.3594 -1.8020  4.2089
  306SOL     OW  916   0.392   1.845   1.963 -0.4871  0.0542  0.1247
  306SOL    HW1  917   0.480   1.807   1.923 -0.5384 -0.9439 -0.5991
  306SOL    HW2  918   0.413   1.892   2.053  0.1934 -2.2882  0.6153
  307SOL     OW  919   3.004   0.887   2.519  0.2937 -0.3545 -0.0088
  307SOL    HW1  920   3.034   0.933   2.607 -0.1638 -1.0543 -0.3968
  307SOL    HW2  921   2.932   0.814   2.538  0.6657  2.4822  1.8598
  308SOL     OW  922   1.474   2.689   2.812 -0.5490  0.2797 -0.1454
  308SOL    HW1  923   1.433   2.715   2.722 -1.3162  2.9585 -0.0153
  308SOL    HW2  924   1.425   2.604   2.854 -2.4130 -2.1071 -0.5162
  309SOL     OW  925   1.250   0.176   1.786 -0.5553 -0.0191  0.4618
  309SOL    HW1  926   1.321   0.107   1.824  0.0098  0.4223  0.1176
  309SOL    HW2  927   1.199   0.143   1.701 -0.9977  0.9803  0.5657
  310SOL     OW  928   1.484   2.530   0.671  0.4396 -1.0719 -0.4150
  310SOL    HW1  929   1.438   2.566   0.759 -2.5317 -1.6958  2.3871
  310SOL    HW2  930   1.569   2.579   0.651 -1.3694  0.4167  0.2229
  311SOL     OW  931   1.035   0.970   1.760 -0.2114  0.0751  0.4144
  311SOL    HW1  932   1.026   0.880   1.812  0.6673 -0.1950  0.7034
  311SOL    HW2  933   1.110   0.962   1.686  0.9149  1.3563 -0.7990
  312SOL     OW  934   1.541   0.625   1.046 -0.4856 -0.3725  0.1390
  312SOL    HW1  935   1.545   0.724   1.072  1.1356 -0.1063 -0.2439
  312SOL    HW2  936   1.488   0.623   0.954  0.5086  1.8964 -1.7698
  313SOL     OW  937   1.622   1.239   0.774  0.1477  0.4934  0.5605
  313SOL    HW1  938   1.550   1.275   0.837  1.3225  1.5175 -0.5025
  313SOL    HW2  939   1.576   1.211   0.687 -2.7823 -1.4832  1.0274
  314SOL     OW  940   2.982   3.092   3.075  0.4977  0.1587  0.2003
  314SOL    HW1  941   3.009   3.098   3.173 -0.6345  0.4867  1.9463
  314SOL    HW2  942   2.904   3.025   3.058 -0.2737  0.9028 -1.5379
  315SOL     OW  943   1.188   0.202   2.800  0.0573 -0.1476  0.0445
  315SOL    HW1  944   1.115   0.182   2.726 -0.9375  0.5931  2.2957
  315SOL    HW2  945   1.155   0.170   2.891 -0.8520  1.4444  1.5897
  316SOL     OW  946   1.759   2.078   0.887  0.6045 -0.3345  0.4307
  316SOL    HW1  947   1.693   2.069   0.966  3.8305  1.0240 -2.5416
  316SOL    HW2  948   1.770   2.169   0.838  1.1296  0.0436 -1.0181
  317SOL     OW  949   1.169   0.702   2.760 -0.2267 -0.1125 -0.6156
  317SOL    HW1  950   1.128   0.717   2.856  3.5379  0.5272  1.7079
  317SOL    HW2  951   1.129   0.615   2.717 -1.2394 -0.8885  0.8990
  318SOL     OW  952   1.419   3.088   2.329 -0.3209 -0.0846  0.6911
  318SOL    HW1  953   1.434   3.191   2.325 -3.6387  1.5292 -0.9723
  318SOL    HW2  954   1.391   3.039   2.239  2.3349 -1.4624 -2.0764
  319SOL     OW  955   0.662   2.403   3.023 -0.5369 -0.1089  0.0837
  319SOL    HW1  956   0.627   2.322   3.076  0.2350  3.2038  0.0530
  319SOL    HW2  957   0.736   2.375   2.958 -0.4655  0.2378  1.6573
  320SOL     OW  958   1.678   2.227   0.392  0.0489  0.0543 -0.2567
  320SOL    HW1  959   1.760   2.173   0.413 -0.3667  0.8353 -1.0519
  320SOL    HW2  960   1.585   2.198   0.426  1.7637  1.8122  3.1641
  321SOL     OW  961   1.664   2.712   0.558 -0.5896 -0.1344 -0.3041
  321SOL    HW1  962   1.580   2.772   0.554  2.7421  1.0410 -1.4679
  321SOL    HW2  963   1.747   2.770   0.540  0.0751  0.8707  1.6063
  322SOL     OW  964   2.571   1.136   2.311  0.1639  0.0681 -0.2729
  322SOL    HW1  965   2.642   1.134   2.384 -3.1281 -0.0613 -2.4026
  322SOL    HW2  966   2.542   1.038   2.286 -0.1128 -2.8515  3.0152
  323SOL     OW  967   1.141   2.704   0.792  0.0347  0.2390 -0.2613
  323SOL    HW1  968   1.121   2.665   0.700 -3.8257  3.2393  0.7416
  323SOL    HW2  969   1.098   2.801   0.812 -3.1390  2.0007 -0.3286
  324SOL     OW  970   0.139   2.548   2.420 -0.7905  0.6135 -0.2394
  324SOL    HW1  971   0.082   2.501   2.497 -2.2889 -0.1453 -0.9423
  324SOL    HW2  972   0.194   2.625   2.457 -0.2578 -0.5233  0.5507
  325SOL     OW  973   1.264   3.072   0.454  0.7666 -0.4973  0.1389
  325SOL    HW1  974   1.255   3.094   0.352  1.2331 -0.2344 -0.9114
  325SOL    HW2  975   1.294   3.149   0.519  2.0103 -0.6613 -1.5534
  326SOL     OW  976   2.481   0.869   0.019 -0.5544  0.2858  0.0766
  326SOL    HW1  977   2.424   0.814  -0.047  1.6967 -1.1216  2.0249
  326SOL    HW2  978   2.532   0.802   0.081  1.2576  0.0483  0.7914
  327SOL     OW  979   2.876   0.293   0.558  0.0480 -0.2380 -0.4023
  327SOL    HW1  980   2.869   0.257   0.464 -0.4992 -0.2184  3.5295
  327SOL    HW2  981   2.881   0.214   0.623  0.2935  2.0621  0.5307
  328SOL     OW  982   2.588   0.613   0.384  0.2751 -0.7483 -0.4042
  328SOL    HW1  983   2.637   0.634   0.473  1.0619 -0.7763 -0.6519
  328SOL    HW2  984   2.534   0.525   0.393  0.3835 -0.6289 -0.5825
  329SOL     OW  985   2.938   3.013   2.225 -0.4019  0.2501  0.6225
  329SOL    HW1  986   3.026   2.959   2.220 -0.8545  0.2271  1.9498
  329SOL    HW2  987   2.942   3.106   2.180 -1.4774  1.5103 -1.2441
  330SOL     OW  988   0.536   0.213   1.866  0.2058  0.7219  1.0392
  330SOL    HW1  989   0.621   0.243   1.812 -1.7301 -0.5824 -0.1900
  330SOL    HW2  990   0.553   0.200   1.966 -0.4007  0.4296 -1.7440
  331SOL     OW  991   3.079   1.867   1.127  0.3192  0.1734 -0.4909
  331SOL    HW1  992   3.069   1.894   1.029  2.5739 -0.6868 -1.7025
  331SOL    HW2  993   2.994   1.871   1.187 -0.1641  0.3043  0.2125
  332SOL     OW  994   0.376   1.194   0.048  0.3329  0.2729 -0.0774
  332SOL    HW1  995   0.327   1.106   0.019 -2.3419  1.5791 -1.9032
  332SOL    HW2  996   0.339   1.232   0.139 -0.6946 -1.6414 -1.9387
  333SOL     OW  997   2.901   0.960   0.362  0.5422 -0.0508 -0.0257
  333SOL    HW1  998   2.940   1.042   0.427  1.5316 -1.2076 -3.4606
  333SOL    HW2  999   2.976   0.906   0.319 -1.2015  0.9443  3.2380
  334SOL     OW 1000   1.741   1.139   1.725 -0.5864 -0.2736 -0.2282
  334SOL    HW1 1001   1.806   1.126   1.641  2.3448 -3.2060 -0.8052
  334SOL    HW2 1002   1.798   1.168   1.808  1.9214 -2.2216  0.5159
  335SOL     OW 1003   1.910   2.790   2.614  0.5544  0.6657 -0.4397
  335SOL    HW1 1004   1.835   2.822   2.675  1.2017 -1.9452 -0.1081
  335SOL    HW2 1005   2.000   2.838   2.634  2.1186 -0.0318  0.9606
  336SOL     OW 1006   0.273   0.054   2.745 -0.4368  0.3608  0.2204
  336SOL    HW1 1007   0.340   0.058   2.828 -0.1834  2.3194 -0.9679
  336SOL    HW2 1008   0.214  -0.033   2.745 -1.7558 -0.9373  1.9165
  337SOL     OW 1009   0.914   2.864   3.007  0.2036 -0.4060  0.6771
  337SOL    HW1 1010   0.920   2.789   3.076 -0.2415  3.7185 -3.0262
  337SOL    HW2 1011   0.932   2.961   3.048 -1.5355  2.3264  2.8848
  338SOL     OW 1012   3.100   0.948   0.728  0.3999  0.3250  0.4211
  338SOL    HW1 1013   2.997   0.931   0.724  0.9895 -0.9656 -1.3259
  338SOL    HW2 1014   3.123   1.047   0.718  1.6784  1.1148  0.1534
  339SOL     OW 1015   1.765   1.314   2.185  0.4951  0.1430  0.1986
  339SOL    HW1 1016   1.676   1.331   2.138  3.0996  0.3841  0.3362
  339SOL    HW2 1017   1.792   1.409   2.210 -2.4093 -1.0150  0.1879
  340SOL     OW 1018   2.236   0.831   1.065  0.3775  0.5330 -0.2388
  340SOL    HW1 1019   2.157   0.867   1.122  1.0348  2.4657  0.1533
  340SOL    HW2 1020   2.224   0.724   1.049  0.1335 -1.9909  1.7001
  341SOL     OW 1021   1.934   2.101   0.394  0.2199 -0.1664 -0.1034
  341SOL    HW1 1022   1.969   2.149   0.313 -2.7306 -2.0360  0.9046
  341SOL    HW2 1023   2.008   2.051   0.448  0.3440 -0.0792 -0.8816
  342SOL     OW 1024   2.175   2.110   2.724  0.4596  0.4445  0.2392
  342SOL    HW1 1025   2.187   2.047   2.804 -2.4832  1.6120  0.5186
  342SOL    HW2 1026   2.086   2.100   2.678  1.8072  1.0952 -1.4058
  343SOL     OW 1027   0.358   0.886   2.815  0.0249  0.2041  0.3701
  343SOL    HW1 1028   0.370   0.929   2.719 -1.8738  1.4747 -1.4362
  343SOL    HW2 1029   0.453   0.873   2.857 -0.2277  0.2372  0.2269
  344SOL     OW 1030   1.937   1.464   0.366 -0.1706  0.2625 -0.1433
  344SOL    HW1 1031   1.952   1.382   0.302  0.4416 -1.8392 -0.7301
  344SOL    HW2 1032   1.837   1.478   0.386  1.0381 -0.4622 -0.1422
  345SOL     OW 1033   1.339   2.201   2.846 -0.0081  0.0390 -0.1147
  345SOL    HW1 1034   1.237   2.216   2.819 -1.1470  0.8001  1.0477
  345SOL    HW2 1035   1.405   2.162   2.777  0.9538  0.1186  3.7159
  346SOL     OW 1036   2.301   0.840   1.397  0.1023 -0.3167 -0.2304
  346SOL    HW1 1037   2.242   0.913   1.439  2.5547 -1.7364  1.1434
  346SOL    HW2 1038   2.240   0.766   1.357 -0.9556  1.2307  2.5462
  347SOL     OW 1039   0.737   2.768   1.670  0.5102  0.1563  0.2709
  347SOL    HW1 1040   0.815   2.803   1.617 -2.1123 -0.1561  0.8124
  347SOL    HW2 1041   0.647   2.793   1.619 -0.7147 -0.6914 -0.9022
  348SOL     OW 1042   0.180   0.666   2.901 -0.1480 -0.5563 -0.7922
  348SOL    HW1 1043   0.084   0.706   2.875 -0.2944 -0.2669 -0.9598
  348SOL    HW2 1044   0.256   0.702   2.840  1.3765  1.6775  1.0419
  349SOL     OW 1045   1.802   0.439   2.839 -0.4777 -0.0492  0.0581
  349SOL    HW1 1046   1.789   0.517   2.773 -0.8663  0.2475 -1.3247
  349SOL    HW2 1047   1.759   0.457   2.931 -0.2590  0.3157 -0.3433
  350SOL     OW 1048   1.680   0.387   0.364 -0.0944 -0.0901  0.2689
  350SOL    HW1 1049   1.740   0.376   0.450  0.7995 -1.7734 -0.9350
  350SOL    HW2 1050   1.667   0.482   0.317  0.6552  0.7745 -2.4350
  351SOL     OW 1051   0.836   0.846   2.121  0.6569  0.2051  0.5021
  351SOL    HW1 1052   0.881   0.939   2.134 -0.6764 -1.4576  0.4533
  351SOL    HW2 1053   0.866   0.794   2.033 -2.1638 -1.5241 -2.2029
  352SOL     OW 1054   2.067   1.320   0.599 -0.1090  0.0609  0.0687
  352SOL    HW1 1055   2.022   1.371   0.519  2.0876  1.4740  0.5041
  352SOL    HW2 1056   2.002   1.275   0.664  1.2308 -0.4082  0.7071
  353SOL     OW 1057   2.217   2.726   1.106 -0.1589 -0.5033  0.0811
  353SOL    HW1 1058   2.304   2.662   1.106 -0.3320 -4.4697 -0.8334
  353SOL    HW2 1059   2.175   2.744   1.201  1.4028 -0.7647  2.8476
  354SOL     OW 1060   0.227   1.427   2.890  0.4249 -0.3819 -0.0751
  354SOL    HW1 1061   0.208   1.488   2.807  2.0146 -1.5048 -1.6848
  354SOL    HW2 1062   0.324   1.388   2.897 -0.4250  0.7736  2.6186
  355SOL     OW 1063   0.714   1.576   0.581  0.2395  0.1504 -0.4041
  355SOL    HW1 1064   0.706   1.546   0.682 -0.3648  3.6080  0.3185
  355SOL    HW2 1065   0.659   1.521   0.510  1.9262  0.7724  1.0821
  356SOL     OW 1066   0.932   0.299   2.138  0.2883  0.3060 -0.0916
  356SOL    HW1 1067   1.026   0.248   2.141  1.5867  1.7562  0.6999
  356SOL    HW2 1068   0.886   0.279   2.047  1.9691  1.2394  0.2257
  357SOL     OW 1069   0.991   1.372   0.169  0.0642 -0.2387 -0.6156
  357SOL    HW1 1070   1.038   1.301   0.109  0.1480  1.0992  0.6366
  357SOL    HW2 1071   1.061   1.442   0.195  0.5936 -1.6219 -3.0543
  358SOL     OW 1072   1.691   1.455   0.498 -0.7072  0.0884 -0.2135
  358SOL    HW1 1073   1.671   1.398   0.579  2.5811 -0.2488 -0.8119
  358SOL    HW2 1074   1.651   1.416   0.411  2.2985 -0.3070  2.1604
  359SOL     OW 1075   1.594   2.590   0.213  0.2987 -0.1093 -0.3362
  359SOL    HW1 1076   1.576   2.495   0.183  0.4811 -0.0228  2.2018
  359SOL    HW2 1077   1.510   2.631   0.257  0.0372 -0.9562  0.9169
  360SOL     OW 1078   0.753   0.458   0.588 -0.7338  0.3677 -0.0524
  360SOL    HW1 1079   0.682   0.512   0.547  4.2011  0.4184  1.1423
  360SOL    HW2 1080   0.778   0.370   0.539 -0.1305 -1.1152  2.8259
  361SOL     OW 1081   1.345   1.290   0.620  0.5347 -0.1131  0.2136
  361SOL    HW1 1082   1.372   1.298   0.717 -0.2945  0.5439 -0.6412
  361SOL    HW2 1083   1.256   1.344   0.594 -0.8194  1.0299  0.4988
  362SOL     OW 1084   1.378   1.830   0.684  0.1387  0.2796 -0.4258
  362SOL    HW1 1085   1.410   1.764   0.758 -0.9791  1.7390  1.6391
  362SOL    HW2 1086   1.447   1.850   0.611  0.3843  1.3415  0.0036
  363SOL     OW 1087   1.298   1.338   2.026  0.0132  0.2621 -0.6088
  363SOL    HW1 1088   1.397   1.371   2.040  0.6055  1.9861  0.4660
  363SOL    HW2 1089   1.235   1.360   2.106 -2.5459  1.8743 -1.7312
  364SOL     OW 1090   0.534   2.379   1.972  0.6259 -0.1590 -0.3307
  364SOL    HW1 1091   0.432   2.348   1.976 -0.1061 -0.0235  0.9965
  364SOL    HW2 1092   0.552   2.474   1.928 -0.3227  1.2373 -0.9884
  365SOL     OW 1093   0.933   1.973   1.414  0.5377 -0.2056  0.3031
  365SOL    HW1 1094   0.849   2.024   1.445  0.6115  1.4347 -0.8003
  365SOL    HW2 1095   0.957   2.006   1.317 -0.6799 -0.7112  0.2115
  366SOL     OW 1096   2.752   1.931   0.228 -0.6808 -0.9722 -0.2008
  366SOL    HW1 1097   2.706   1.839   0.209  0.5802  2.6751 -1.3335
  366SOL    HW2 1098   2.851   1.921   0.248 -2.6096 -0.9738  2.7098
  367SOL     OW 1099   0.883   1.138   3.077  0.2797 -0.1768 -0.3133
  367SOL    HW1 1100   0.869   1.079   3.164  0.7904  1.3684 -0.2585
  367SOL    HW2 1101   0.981   1.170   3.072  1.4179 -2.2385  0.0817
  368SOL     OW 1102   1.457   0.556   0.518 -0.1811 -0.1851 -0.2735
  368SOL    HW1 1103   1.360   0.593   0.518  1.4829  0.6245  0.4703
  368SOL    HW2 1104   1.513   0.583   0.431 -2.7848  2.6786 -0.0461
  369SOL     OW 1105   0.411   1.573   0.166  0.0717  0.3846 -0.1059
  369SOL    HW1 1106   0.437   1.658   0.223 -0.0782  2.6684  0.3270
  369SOL    HW2 1107   0.320   1.534   0.190  3.1701 -0.9869 -1.5062
  370SOL     OW 1108   0.423   2.190   1.089  0.7532  0.4081  0.2496
  370SOL    HW1 1109   0.448   2.281   1.043  0.4039 -0.2713  0.4750
  370SOL    HW2 1110   0.338   2.149   1.043 -1.5898  0.6224 -0.5379
  371SOL     OW 1111   2.909   2.212   2.747 -0.1793 -0.3344  0.0456
  371SOL    HW1 1112   2.974   2.133   2.750 -1.9982  2.2372  1.1731
  371SOL    HW2 1113   2.921   2.275   2.829 -1.1188  0.6624 -1.4110
  372SOL     OW 1114   1.006   2.043   1.168 -0.2791 -0.3535  0.4924
  372SOL    HW1 1115   0.951   2.072   1.083  0.1696  0.8530  1.7723
  372SOL    HW2 1116   1.075   2.115   1.189  0.9418 -0.5879  1.4008
  373SOL     OW 1117   1.944   1.918   1.025  0.4106  0.3962  0.1198
  373SOL    HW1 1118   2.040   1.947   1.046  0.3479 -2.8802 -0.5900
  373SOL    HW2 1119   1.885   1.988   0.977 -2.6546  1.2826  0.7683
  374SOL     OW 1120   1.904   0.398   0.580  0.1080 -0.0853 -0.2196
  374SOL    HW1 1121   1.890   0.333   0.654  3.0822  1.7346 -0.2649
  374SOL    HW2 1122   2.006   0.408   0.557  2.3238  0.9696  1.5786
  375SOL     OW 1123   2.430   2.178   1.114 -0.0212  0.1262  0.2907
  375SOL    HW1 1124   2.433   2.226   1.023  0.1364 -0.7713  0.0931
  375SOL    HW2 1125   2.517   2.132   1.139  0.8091 -3.5293 -0.2889
  376SOL     OW 1126   0.016   0.637   1.421 -0.2643 -0.1607  0.2865
  376SOL    HW1 1127   0.015   0.728   1.461  4.5616 -2.3486  0.0011
  376SOL    HW2 1128  -0.051   0.574   1.458 -0.2220 -1.3222  1.1477
  377SOL     OW 1129   2.189   2.913   0.214  0.1882 -0.0331 -0.4395
  377SOL    HW1 1130   2.166   2.989   0.279  2.5663 -0.3069 -0.8081
  377SOL    HW2 1131   2.254   2.842   0.250  0.8491  1.4999 -0.3944
  378SOL     OW 1132   1.897   1.901   2.461  0.2005 -0.3171  0.9491
  378SOL    HW1 1133   1.908   1.907   2.357  0.0094  0.5887  2.2228
  378SOL    HW2 1134   1.855   1.812   2.501 -0.1437 -0.3343  1.9755
  379SOL     OW 1135   0.767   0.159   2.824 -0.0928  0.0860 -0.7683
  379SOL    HW1 1136   0.773   0.063   2.789 -2.7826  0.4289  0.0052
  379SOL    HW2 1137   0.786   0.242   2.758  0.8971  4.3458 -1.5546
  380SOL     OW 1138   1.560   1.170   0.506 -0.5122 -0.3510 -0.3172
  380SOL    HW1 1139   1.464   1.217   0.509 -0.7370 -1.6217  0.6829
  380SOL    HW2 1140   1.548   1.069   0.509 -1.5446 -3.1291  1.5835
  381SOL     OW 1141   1.275   1.272   1.521 -0.0046  0.7827  0.0713
  381SOL    HW1 1142   1.274   1.215   1.438 -3.7082  0.3851  0.3511
  381SOL    HW2 1143   1.357   1.256   1.583 -0.9704  2.0135 -0.9033
  382SOL     OW 1144   1.817   0.832   0.252  0.2067 -0.0846 -0.2117
  382SOL    HW1 1145   1.869   0.773   0.184  0.2530  0.3450 -1.2407
  382SOL    HW2 1146   1.876   0.852   0.338 -1.6837  0.6150  1.2758
  383SOL     OW 1147   2.561   0.986   1.455 -0.0988 -0.2190  0.3347
  383SOL    HW1 1148   2.464   0.952   1.453 -3.5060 -1.1721 -0.6651
  383SOL    HW2 1149   2.618   0.965   1.366 -0.0262  0.0456 -2.1726
  384SOL     OW 1150   0.909   2.304   0.228  0.7496 -0.5237  0.5762
  384SOL    HW1 1151   0.825   2.361   0.226  1.1823 -1.9811  0.1661
  384SOL    HW2 1152   0.928   2.269   0.324  0.1889  0.9024 -1.2145
  385SOL     OW 1153   2.975   2.068   1.668 -0.1880 -0.6495  0.0136
  385SOL    HW1 1154   3.060   2.129   1.695 -0.3733  0.2864  0.9415
  385SOL    HW2 1155   3.002   1.968   1.681 -0.7309 -2.8022 -1.5477
  386SOL     OW 1156   0.473   1.033   0.448  0.6678  0.9112  0.0666
  386SOL    HW1 1157   0.459   0.940   0.491 -2.4276  0.6966 -0.1133
  386SOL    HW2 1158   0.379   1.063   0.402  1.5217 -0.7718 -0.6752
  387SOL     OW 1159   1.009   0.353   1.678 -0.1152 -0.0396 -0.6657
  387SOL    HW1 1160   1.037   0.453   1.667 -3.3369 -0.2666  1.5672
  387SOL    HW2 1161   0.970   0.310   1.591 -2.0662 -1.2863  1.2260
  388SOL     OW 1162   1.206   2.688   1.735  0.4641  0.2385 -0.1277
  388SOL    HW1 1163   1.260   2.729   1.658  0.4033 -2.2102  1.1522
  388SOL    HW2 1164   1.262   2.615   1.781  0.7953  1.9035  0.0127
  389SOL     OW 1165   0.164   2.913   1.353 -0.5236  0.2206 -0.2130
  389SOL    HW1 1166   0.062   2.908   1.338  1.8595 -1.3118 -1.3643
  389SOL    HW2 1167   0.209   2.818   1.356  0.7592  1.0115  0.9728
  390SOL     OW 1168   1.029   0.955   1.373 -0.0443 -0.0023  0.1531
  390SOL    HW1 1169   1.102   0.951   1.445 -1.0901  1.4691 -0.9124
  390SOL    HW2 1170   0.988   1.052   1.363 -0.2787 -0.4138 -3.1589
  391SOL     OW 1171   2.187   1.119   1.090  0.2586 -0.8069  1.1124
  391SOL    HW1 1172   2.167   1.052   1.166  0.6119  0.7479 -2.3422
  391SOL    HW2 1173   2.233   1.069   1.009  0.3751  0.1350 -0.1372
  392SOL     OW 1174   0.887   2.642   0.071 -0.4594  0.0170  0.4789
  392SOL    HW1 1175   0.975   2.582   0.070  1.1655 -0.2232  2.5789
  392SOL    HW2 1176   0.819   2.612   0.139  0.6193  0.1457  1.4600
  393SOL     OW 1177   0.277   0.646   2.003 -0.2061  0.3684 -0.4355
  393SOL    HW1 1178   0.214   0.567   1.990  1.7027  1.0490 -2.5626
  393SOL    HW2 1179   0.351   0.650   1.927 -0.4907  1.1022 -1.2634
  394SOL     OW 1180   3.031   1.968   2.721  0.4402 -0.0752 -0.6197
  394SOL    HW1 1181   3.123   1.955   2.769 -1.4325 -1.2545 -1.5122
  394SOL    HW2 1182   3.022   1.902   2.643  1.4559 -1.4807 -2.1467
  395SOL     OW 1183   1.620   1.940   0.576 -0.0603  0.0013  0.7248
  395SOL    HW1 1184   1.679   1.854   0.582  0.3527 -0.4954 -0.8181
  395SOL    HW2 1185   1.651   2.015   0.639 -1.6535 -0.5060  0.7608
  396SOL     OW 1186   2.838   1.841   1.297  0.2975 -0.0384  0.0389
  396SOL    HW1 1187   2.861   1.741   1.293 -0.0477 -1.6507  0.8593
  396SOL    HW2 1188   2.738   1.853   1.323  1.3313 -0.3551 -1.7068
  397SOL     OW 1189   1.018   2.211   0.508  0.2157 -0.1286 -0.3478
  397SOL    HW1 1190   0.925   2.176   0.539  2.1086  1.8099  0.8379
  397SOL    HW2 1191   1.039   2.307   0.540 -0.8086  0.1634  0.4239
  398SOL     OW 1192   2.125   3.086   1.097  0.2346 -0.7515  0.1321
  398SOL    HW1 1193   2.051   3.023   1.129  1.5852  1.0709  0.8403
  398SOL    HW2 1194   2.093   3.176   1.056 -0.9294  0.1632  0.8612
  399SOL     OW 1195   3.044   2.464   2.616  0.0351 -0.4782  0.7892
  399SOL    HW1 1196   2.946   2.471   2.592  0.8555  0.5717  0.1228
  399SOL    HW2 1197   3.067   2.385   2.681 -1.9746 -1.3572  3.3455
  400SOL     OW 1198   0.712   1.659   1.375 -0.6810  0.0901  0.3047
  400SOL    HW1 1199   0.660   1.685   1.458 -1.0704 -1.2634 -2.6962
  400SOL    HW2 1200   0.695   1.730   1.299 -1.0699 -2.9310 -2.2651
  401SOL     OW 1201   1.865   0.242   1.158 -0.8421  0.3245 -0.0490
  401SOL    HW1 1202   1.902   0.232   1.258  0.4119 -2.3698  2.7798
  401SOL    HW2 1203   1.784   0.305   1.142 -2.0397  0.5044  1.0996
  402SOL     OW 1204   1.353   0.240   3.090  0.1381  0.6697 -0.0376
  402SOL    HW1 1205   1.421   0.200   3.021  0.4381 -1.3492  2.5473
  402SOL    HW2 1206   1.310   0.328   3.052 -0.0406 -0.3426  0.4618
  403SOL     OW 1207   2.281   1.817   0.903 -0.7198  0.0552 -0.5375
  403SOL    HW1 1208   2.371   1.852   0.880  0.4198  1.0271  0.0312
  403SOL    HW2 1209   2.247   1.868   0.988 -3.3776  1.8915  1.3495
  404SOL     OW 1210   0.198   2.476   2.758  0.2788  0.3785 -0.2631
  404SOL    HW1 1211   0.289   2.447   2.717  0.1725 -0.3225 -3.4591
  404SOL    HW2 1212   0.206   2.572   2.801 -1.9027 -0.5329  3.2307
  405SOL     OW 1213   0.089   2.456   0.748  0.2317 -1.2087  0.2911
  405SOL    HW1 1214   0.072   2.372   0.686 -2.6874 -1.7787 -1.0996
  405SOL    HW2 1215   0.186   2.501   0.724  0.0819  2.0125 -1.0886
  406SOL     OW 1216   0.051   1.580   3.091  0.3714 -0.2152  0.2230
  406SOL    HW1 1217   0.093   1.509   3.028  1.4023 -1.8162  0.5977
  406SOL    HW2 1218   0.103   1.575   3.182  1.0061 -0.1269 -0.7931
  407SOL     OW 1219   1.559   0.881   0.958  0.1161  0.3187 -0.0187
  407SOL    HW1 1220   1.594   0.897   0.861 -2.2711 -0.6575 -1.8894
  407SOL    HW2 1221   1.488   0.952   0.980  1.8527 -2.2134 -1.8454
  408SOL     OW 1222   1.585   2.408   0.986 -0.3943 -0.1012 -0.2769
  408SOL    HW1 1223   1.652   2.381   0.908  1.1891  0.0478 -0.3461
  408SOL    HW2 1224   1.543   2.499   0.968  0.1647 -2.5651 -0.6432
  409SOL     OW 1225   0.652   0.796   0.769  0.1214  0.9128 -0.1792
  409SOL    HW1 1226   0.573   0.797   0.702 -0.5896  3.4083  0.9154
  409SOL    HW2 1227   0.663   0.706   0.822  0.8344  3.7627  0.7803
  410SOL     OW 1228   1.251   2.029   1.399  0.2705 -0.2402 -0.7421
  410SOL    HW1 1229   1.320   1.953   1.395  0.9634  3.5936 -0.6084
  410SOL    HW2 1230   1.179   2.011   1.473 -1.0327  2.3489  2.6981
  411SOL     OW 1231   2.534   1.833   3.011 -0.9321 -0.1463 -0.5127
  411SOL    HW1 1232   2.587   1.921   3.009 -1.7671 -0.0106 -2.7080
  411SOL    HW2 1233   2.482   1.818   2.923 -1.6890  0.4792 -0.5339
  412SOL     OW 1234   1.492   2.461   2.147 -0.6092 -0.0498  0.2387
  412SOL    HW1 1235   1.566   2.459   2.221  1.0820  0.6828 -1.7482
  412SOL    HW2 1236   1.396   2.449   2.192 -1.1796 -2.8522 -1.1029
  413SOL     OW 1237   3.097   0.185   2.944 -0.4792  0.0712  0.2745
  413SOL    HW1 1238   3.044   0.119   3.002  1.8977 -0.7924  1.3185
  413SOL    HW2 1239   3.194   0.201   2.975  0.7619  0.6953 -0.8680
  414SOL     OW 1240   1.776   1.499   1.205 -0.5055 -0.2554  0.0291
  414SOL    HW1 1241   1.734   1.594   1.217 -0.9711  0.2182 -0.4333
  414SOL    HW2 1242   1.774   1.464   1.107 -1.5994  1.5768  1.6706
  415SOL     OW 1243   0.334   2.227   0.690 -0.0733 -0.2342  0.3659
  415SOL    HW1 1244   0.308   2.211   0.795 -3.5537 -1.9884  0.6352
  415SOL    HW2 1245   0.242   2.224   0.635 -1.7871 -1.2568 -0.6047
  416SOL     OW 1246   0.345   1.045   1.049 -0.1077  0.0222 -0.4146
  416SOL    HW1 1247   0.277   0.987   0.998  0.2884 -1.2694  0.9205
  416SOL    HW2 1248   0.442   1.042   1.012  0.1706  0.4982 -0.6799
  417SOL     OW 1249   2.312   2.423   2.053  0.5280  0.6119  0.3041
  417SOL    HW1 1250   2.310   2.323   2.037 -0.1682  0.7849 -0.0495
  417SOL    HW2 1251   2.253   2.441   2.137 -0.0335  3.0913 -0.8648
  418SOL     OW 1252   1.062   0.506   1.343 -0.1464 -0.7582  0.1238
  418SOL    HW1 1253   0.968   0.466   1.322 -2.7893  0.3269 -2.3083
  418SOL    HW2 1254   1.130   0.533   1.263  1.4292  0.1257 -1.2347
  419SOL     OW 1255   0.931   0.518   2.963 -0.3799 -0.3355  0.0327
  419SOL    HW1 1256   0.878   0.562   2.889  1.7826 -1.0055  2.0784
  419SOL    HW2 1257   0.942   0.569   3.048  4.3167 -1.6840 -0.7749
  420SOL     OW 1258   0.118   2.205   0.526 -0.0493 -0.0263 -0.8321
  420SOL    HW1 1259   0.174   2.211   0.437  3.4651  0.4755 -0.5905
  420SOL    HW2 1260   0.054   2.125   0.515 -1.0854 -0.2214 -0.8178
  421SOL     OW 1261   0.329   2.933   0.593 -0.3554 -0.7778 -0.2255
  421SOL    HW1 1262   0.283   2.914   0.683 -0.6692 -0.0321 -0.6284
  421SOL    HW2 1263   0.416   2.992   0.603 -0.2171  0.0073 -1.8882
  422SOL     OW 1264   0.997   2.621   1.032  0.1823  0.1201 -0.1021
  422SOL    HW1 1265   1.046   2.689   0.972  1.4137 -0.4895  1.6730
  422SOL    HW2 1266   1.048   2.594   1.120  2.4450 -1.6753  2.9975
  423SOL     OW 1267   0.134   0.755   1.205 -0.4308 -0.2859  0.3721
  423SOL    HW1 1268   0.074   0.709   1.279  1.2711 -0.3212  3.1504
  423SOL    HW2 1269   0.108   0.858   1.189 -1.6081  2.7841 -0.1702
  424SOL     OW 1270   1.173   2.213   2.035  0.3639  0.3358 -0.0744
  424SOL    HW1 1271   1.140   2.310   2.022  1.4254  1.7909  0.6423
  424SOL    HW2 1272   1.146   2.162   2.121  1.0807  0.0747  0.8251
  425SOL     OW 1273   2.005   1.311   0.987  0.3305  0.1764 -0.4481
  425SOL    HW1 1274   2.072   1.233   1.009 -2.3305 -0.5883 -1.7419
  425SOL    HW2 1275   2.042   1.405   1.001 -1.2508 -1.0287  0.7783
  426SOL     OW 1276   1.424   1.614   1.238 -0.0110 -0.1026  0.1849
  426SOL    HW1 1277   1.463   1.699   1.186 -2.0495  1.5751 -0.9485
  426SOL    HW2 1278   1.370   1.629   1.322  2.0567 -2.0852 -1.5880
  427SOL     OW 1279   1.912   2.348   2.062  0.3843  0.3571  0.2724
  427SOL    HW1 1280   1.980   2.279   2.107  2.6655 -0.9358  1.4217
  427SOL    HW2 1281   1.942   2.443   2.075  0.9736  0.5450 -0.6539
  428SOL     OW 1282   0.854   0.003   0.099 -0.1991  0.5135 -0.1617
  428SOL    HW1 1283   0.869   0.098   0.064 -0.0642  0.1660  2.1390
  428SOL    HW2 1284   0.948  -0.028   0.131  0.9596  2.8758 -0.6478
  429SOL     OW 1285   1.309   0.151   0.241 -0.6063  0.5994 -0.0158
  429SOL    HW1 1286   1.409   0.150   0.273 -1.5820  1.0775  1.4207
  429SOL    HW2 1287   1.298   0.180   0.139 -0.1821 -2.8996  0.6817
  430SOL     OW 1288   2.915   1.389   0.301  0.3061  0.0239  0.3735
  430SOL    HW1 1289   2.900   1.456   0.225 -0.4522 -0.7189 -2.8779
  430SOL    HW2 1290   2.903   1.432   0.389 -3.3610 -2.6818 -2.7959
  431SOL     OW 1291   2.052   1.602   0.932  0.0735 -0.1219  0.0215
  431SOL    HW1 1292   2.146   1.641   0.909 -0.6228 -0.9661 -1.1361
  431SOL    HW2 1293   1.974   1.664   0.906  0.6854 -0.5451 -0.2365
  432SOL     OW 1294   2.946   2.151   1.211 -0.0404  0.3522  0.2944
  432SOL    HW1 1295   2.899   2.081   1.273  1.0674 -2.6521 -0.4713
  432SOL    HW2 1296   3.001   2.220   1.263 -0.9958 -2.9661  3.4784
  433SOL     OW 1297   1.838   0.212   0.800 -0.0128 -1.3141 -0.3505
  433SOL    HW1 1298   1.837   0.307   0.841  0.6037  2.8413  1.6274
  433SOL    HW2 1299   1.869   0.136   0.858  0.8824 -0.6479 -2.6395
  434SOL     OW 1300   1.598   0.335   0.672 -0.2796 -0.2060  0.0999
  434SOL    HW1 1301   1.576   0.429   0.629 -0.7702  2.0743 -3.7940
  434SOL    HW2 1302   1.608   0.333   0.774 -0.1875 -1.1026  0.0531
  435SOL     OW 1303   1.566   1.438   2.033 -0.0728 -0.3095  0.4808
  435SOL    HW1 1304   1.579   1.500   2.118  1.2717  1.5709 -0.9795
  435SOL    HW2 1305   1.572   1.499   1.948 -4.2005  0.8167 -2.5586
  436SOL     OW 1306   1.704   2.730   2.229 -0.0574 -0.2288  0.1194
  436SOL    HW1 1307   1.663   2.800   2.291  0.6648 -0.8625  1.8555
  436SOL    HW2 1308   1.695   2.628   2.266  0.5891 -2.9937  0.3678
  437SOL     OW 1309   1.091   2.926   0.915 -0.0594 -0.3384 -0.7405
  437SOL    HW1 1310   1.021   3.002   0.906  0.4153 -2.6179 -0.3851
  437SOL    HW2 1311   1.110   2.906   1.015 -0.0430  2.2636 -1.6571
  438SOL     OW 1312   1.012   2.674   1.399 -0.0443  0.0161  0.8970
  438SOL    HW1 1313   1.115   2.685   1.422 -2.1581  1.1504  0.8799
  438SOL    HW2 1314   0.985   2.577   1.434 -3.0394 -2.0348  1.2573
  439SOL     OW 1315   0.674   1.825   1.072 -0.0216 -0.1105 -0.0371
  439SOL    HW1 1316   0.678   1.918   1.026 -0.0541 -1.9610 -2.4367
  439SOL    HW2 1317   0.583   1.778   1.060  0.5007 -0.0810  1.6504
  440SOL     OW 1318   1.092   2.463   1.973 -0.3461  0.3776 -0.2425
  440SOL    HW1 1319   1.038   2.520   1.907 -0.5384  1.8652 -0.4675
  440SOL    HW2 1320   1.193   2.484   1.968 -0.6804  0.4022  0.7203
  441SOL     OW 1321   0.415   2.700   1.533  0.0609 -0.1158  0.3082
  441SOL    HW1 1322   0.486   2.628   1.519  1.6294 -0.4528  2.6549
  441SOL    HW2 1323   0.330   2.686   1.473  0.6790 -0.7337 -0.4632
  442SOL     OW 1324   2.250   0.723   2.520  0.5723 -0.5704  0.6781
  442SOL    HW1 1325   2.260   0.622   2.531  0.2260  0.7318  0.3398
  442SOL    HW2 1326   2.162   0.758   2.554  1.0972 -2.8245  0.8583
  443SOL     OW 1327   1.188   2.695   2.191 -0.0831  0.6244  0.1617
  443SOL    HW1 1328   1.192   2.757   2.270 -3.1063 -0.5234 -0.0906
  443SOL    HW2 1329   1.214   2.599   2.224  2.6264  1.6564 -0.4151
  444SOL     OW 1330   1.000   1.319   1.594 -0.4600 -0.1803  0.3349
  444SOL    HW1 1331   1.103   1.307   1.595 -0.4196  0.5709 -0.5930
  444SOL    HW2 1332   0.973   1.420   1.583 -0.1095  0.6831 -1.8835
  445SOL     OW 1333   3.066   2.378   1.982  0.0464  0.4861  0.2824
  445SOL    HW1 1334   3.068   2.462   1.920 -0.5432  0.6694  2.6420
  445SOL    HW2 1335   2.974   2.337   2.004  0.8813  0.7003  0.0539
  446SOL     OW 1336   0.204   1.913   2.343  0.3423  0.0177 -0.0640
  446SOL    HW1 1337   0.165   1.975   2.417  1.9204 -1.8188  2.0151
  446SOL    HW2 1338   0.128   1.879   2.285  0.5648  1.2870 -1.7140
  447SOL     OW 1339   1.191   1.685   1.955 -0.0291 -0.6626 -0.3511
  447SOL    HW1 1340   1.135   1.757   1.904 -2.3029 -0.7919 -0.8932
  447SOL    HW2 1341   1.289   1.711   1.970 -1.3578 -1.3799  0.2004
  448SOL     OW 1342   0.093   1.475   1.965  0.1835  0.1059  0.2733
  448SOL    HW1 1343   0.089   1.578   1.936  2.4324  2.5272 -1.7579
  448SOL    HW2 1344   0.097   1.460   2.070 -1.6742  0.6804 -1.3731
  449SOL     OW 1345   1.992   2.999   0.859 -0.1761  0.5187  0.2278
  449SOL    HW1 1346   2.074   3.007   0.919  1.9771 -0.7137  0.6420
  449SOL    HW2 1347   1.989   2.898   0.825 -0.4533 -0.1868 -1.0341
  450SOL     OW 1348   2.273   1.369   0.860  0.2084  0.0550  0.7641
  450SOL    HW1 1349   2.253   1.275   0.821  1.8841  1.0436  0.3152
  450SOL    HW2 1350   2.213   1.431   0.800 -0.2241  2.3274  0.1181
  451SOL     OW 1351   1.436   0.029   1.457 -0.1153  0.0363 -0.1636
  451SOL    HW1 1352   1.358   0.096   1.471 -1.4300 -0.7824  0.0149
  451SOL    HW2 1353   1.466  -0.014   1.544  0.2642 -0.2130 -0.5086
  452SOL     OW 1354   2.665   2.312   2.254  0.2238 -0.3746  0.3904
  452SOL    HW1 1355   2.609   2.400   2.248 -4.0888  1.2592  0.1064
  452SOL    HW2 1356   2.682   2.284   2.350 -0.2351  0.1355  0.1474
  453SOL     OW 1357   2.435   2.610   3.056 -0.1701 -0.2566 -0.1863
  453SOL    HW1 1358   2.357   2.675   3.077  1.2610  0.2000 -0.7361
  453SOL    HW2 1359   2.414   2.556   2.968  1.4990 -2.7436 -0.5591
  454SOL     OW 1360   0.948   1.106   2.094 -0.6863 -0.5199 -0.2027
  454SOL    HW1 1361   0.945   1.148   1.999  1.9633 -1.3249 -2.2186
  454SOL    HW2 1362   1.048   1.092   2.117  1.7302 -2.0548 -0.9756
  455SOL     OW 1363   0.727   2.639   2.898 -0.0314 -0.3635  0.4433
  455SOL    HW1 1364   0.776   2.710   2.950 -2.7011 -2.6967  0.2089
  455SOL    HW2 1365   0.703   2.555   2.958 -0.5398 -1.7829  1.3996
  456SOL     OW 1366   0.547   1.777   0.276  0.2593 -0.0253  0.1654
  456SOL    HW1 1367   0.622   1.740   0.328  0.7311  1.4093 -3.9626
  456SOL    HW2 1368   0.568   1.878   0.252  0.3766 -1.9100  0.0960
  457SOL     OW 1369   0.317   2.596   0.724  0.5303 -0.1424 -0.8205
  457SOL    HW1 1370   0.337   2.638   0.629 -1.4641  0.5428  0.7875
  457SOL    HW2 1371   0.397   2.570   0.782 -1.0432 -0.1106 -0.2527
  458SOL     OW 1372   2.969   2.985   1.253 -0.0422 -0.8597 -0.4141
  458SOL    HW1 1373   3.009   3.076   1.220 -4.7446 -1.8265 -0.9347
  458SOL    HW2 1374   2.939   2.917   1.178  3.4867 -3.0875  0.5923
  459SOL     OW 1375   2.089   2.517   0.923 -0.3234  0.2180  0.0642
  459SOL    HW1 1376   2.121   2.577   1.003 -0.4835 -1.2465  2.1771
  459SOL    HW2 1377   2.161   2.514   0.846 -1.1937 -0.8871  3.0108
  460SOL     OW 1378   1.076   1.924   2.910 -0.4035 -0.1584 -0.4407
  460SOL    HW1 1379   1.103   1.998   2.838 -1.8843 -2.0189 -1.2693
  460SOL    HW2 1380   1.158   1.885   2.961 -0.3883  1.4010 -1.8980
  461SOL     OW 1381   0.496   2.114   2.704  0.4012  0.0819 -0.2416
  461SOL    HW1 1382   0.409   2.055   2.704 -1.3420  1.0739  0.7208
  461SOL    HW2 1383   0.567   2.075   2.772  2.4281  1.3645  0.9368
  462SOL     OW 1384   0.943   1.201   1.847  0.2151 -0.3966 -0.4934
  462SOL    HW1 1385   0.983   1.114   1.814 -0.6204  2.2692  1.7758
  462SOL    HW2 1386   0.941   1.277   1.777  2.2721  2.8676 -2.2159
  463SOL     OW 1387   0.462   0.798   0.571 -0.0015 -0.1721 -0.5514
  463SOL    HW1 1388   0.498   0.707   0.531 -1.8173 -0.4982  0.0520
  463SOL    HW2 1389   0.363   0.787   0.596  1.0883 -1.0863 -4.5868
  464SOL     OW 1390   0.509   2.237   2.234 -0.2056  0.3885 -0.5185
  464SOL    HW1 1391   0.459   2.291   2.309 -1.4350  1.1833 -2.1506
  464SOL    HW2 1392   0.525   2.299   2.150  1.6886 -0.5575 -3.5012
  465SOL     OW 1393   0.231   0.888   0.879 -0.1310  0.3294  0.1808
  465SOL    HW1 1394   0.140   0.909   0.830  0.9340  1.9483  1.5879
  465SOL    HW2 1395   0.247   0.784   0.886  0.6869  3.0039  1.1959
  466SOL     OW 1396   1.378   1.096   1.061  0.1754 -0.4207 -0.5314
  466SOL    HW1 1397   1.445   1.171   1.083 -1.2956 -1.3662  1.1897
  466SOL    HW2 1398   1.277   1.127   1.056 -1.1741 -1.8039 -1.2684
  467SOL     OW 1399   0.453   0.372   2.377 -0.2086  0.2078  0.4276
  467SOL    HW1 1400   0.437   0.459   2.432  0.5706 -0.1477 -1.0938
  467SOL    HW2 1401   0.458   0.291   2.439 -0.4356  1.0429  0.0706
  468SOL     OW 1402   0.479   2.243   1.678  0.2376 -0.1975  0.2320
  468SOL    HW1 1403   0.514   2.314   1.745 -2.1120  0.6681  0.2353
  468SOL    HW2 1404   0.419   2.282   1.601 -0.3848 -0.8215  1.3446
  469SOL     OW 1405   1.549   1.312   1.121  0.1837 -0.6355 -0.0826
  469SOL    HW1 1406   1.643   1.270   1.115  1.0045 -1.9764  0.3036
  469SOL    HW2 1407   1.554   1.389   1.191 -1.8774 -0.5363 -2.4509
  470SOL     OW 1408   3.027   1.662   0.736  0.2138 -0.0620  0.5528
  470SOL    HW1 1409   3.102   1.726   0.759 -0.5795 -2.5792 -2.2114
  470SOL    HW2 1410   2.935   1.690   0.767 -0.3978 -1.2614 -2.8149
  471SOL     OW 1411   2.694   1.301   2.121 -0.1734 -0.2944  0.1987
  471SOL    HW1 1412   2.648   1.243   2.198  1.5959 -0.7461  0.6685
  471SOL    HW2 1413   2.743   1.385   2.161  0.7986 -0.0358  1.8647
  472SOL     OW 1414   1.099   2.464   3.086 -0.1868 -0.0699 -0.0052
  472SOL    HW1 1415   1.177   2.466   3.156  1.5236 -0.8690 -1.2921
  472SOL    HW2 1416   1.070   2.368   3.068  0.5373 -0.0880  0.5138
  473SOL     OW 1417   1.090   1.576   0.891 -0.0191 -0.0320 -0.4128
  473SOL    HW1 1418   0.996   1.596   0.923 -0.6290 -1.7724 -1.6608
  473SOL    HW2 1419   1.143   1.530   0.970 -1.4117  1.4443 -1.4443
  474SOL     OW 1420   0.826   1.194   0.724 -0.3650  0.1199 -0.1440
  474SOL    HW1 1421   0.769   1.196   0.639 -1.3711  0.7119  0.6974
  474SOL    HW2 1422   0.882   1.108   0.733 -0.4522 -0.9972  0.0419
  475SOL     OW 1423   2.877   0.085   0.735 -0.4284  0.1835 -0.4346
  475SOL    HW1 1424   2.957   0.075   0.798 -2.7413  2.8855 -1.1209
  475SOL    HW2 1425   2.788   0.082   0.793  1.9205  0.1538  0.5480
  476SOL     OW 1426   0.885   3.079   1.817 -0.2455  0.3565  0.1040
  476SOL    HW1 1427   0.929   3.003   1.869 -1.0912 -1.0980  1.1247
  476SOL    HW2 1428   0.877   3.054   1.718  1.9208 -0.1417 -0.2150
  477SOL     OW 1429   1.429   0.322   2.430  0.6885 -0.0186 -0.1351
  477SOL    HW1 1430   1.416   0.352   2.528  1.6296  0.5349 -0.7912
  477SOL    HW2 1431   1.525   0.282   2.412 -0.4390 -1.1307 -0.8410
  478SOL     OW 1432   2.317   1.815   0.232  0.3473  0.2451  0.0377
  478SOL    HW1 1433   2.253   1.741   0.206  0.6086  2.0763 -1.9204
  478SOL    HW2 1434   2.412   1.795   0.191 -1.1218  0.6601  0.2341
  479SOL     OW 1435   1.285   1.080   2.902 -0.9335  0.3006  0.7496
  479SOL    HW1 1436   1.366   1.055   2.847 -0.3837  1.3132  1.1055
  479SOL    HW2 1437   1.193   1.053   2.859 -3.1294  1.1787 -1.5804
  480SOL     OW 1438   2.466   2.348   0.386 -0.2148 -0.3437  0.1357
  480SOL    HW1 1439   2.441   2.263   0.440 -0.0012  0.6810  1.0692
  480SOL    HW2 1440   2.422   2.355   0.293 -1.9289  0.8311 -2.1241
  481SOL     OW 1441   1.135   1.162   0.778 -0.1047  0.3506  0.5414
  481SOL    HW1 1442   1.108   1.254   0.741 -1.3708 -1.6700  0.2651
  481SOL    HW2 1443   1.131   1.168   0.881  1.7393  0.1358 -0.4415
  482SOL     OW 1444   1.609   0.309   2.037 -0.0455 -0.1011 -0.4267
  482SOL    HW1 1445   1.623   0.401   1.993  1.2055 -3.8543 -1.9888
  482SOL    HW2 1446   1.693   0.282   2.092  3.1358 -0.7137  1.4626
  483SOL     OW 1447   0.144   2.338   1.297  0.2952  0.2399  0.0539
  483SOL    HW1 1448   0.047   2.372   1.311  1.0562  0.2851  0.5288
  483SOL    HW2 1449   0.182   2.360   1.205 -2.5454  0.8605  2.4371
  484SOL     OW 1450   1.729   0.988   1.391 -0.3150 -0.0900 -0.3195
  484SOL    HW1 1451   1.759   0.888   1.385  1.6281 -1.4492 -0.5150
  484SOL    HW2 1452   1.810   1.053   1.415 -0.0578  3.0952 -1.6879
  485SOL     OW 1453   0.705   1.109   1.772  0.1758  0.4767 -0.1104
  485SOL    HW1 1454   0.723   1.079   1.673 -0.4442 -1.7335 -2.4936
  485SOL    HW2 1455   0.787   1.158   1.807 -0.7790 -0.5595 -0.8774
  486SOL     OW 1456   0.912   1.934   2.468 -0.0609 -0.5763  0.2282
  486SOL    HW1 1457   0.951   1.881   2.547 -1.8076 -2.0392 -1.1083
  486SOL    HW2 1458   0.836   1.991   2.501  3.0743  1.8543 -0.7036
  487SOL     OW 1459   1.752   1.490   0.916  0.3651 -0.1428 -0.3284
  487SOL    HW1 1460   1.721   1.407   0.862 -1.4122 -2.1198 -2.0761
  487SOL    HW2 1461   1.783   1.563   0.849  0.6061  2.8641 -1.4171
  488SOL     OW 1462   2.972   0.941   2.238 -0.3558  0.5518  0.6307
  488SOL    HW1 1463   2.986   0.847   2.190 -0.2362  2.6296  0.9102
  488SOL    HW2 1464   2.994   0.939   2.340 -0.4612 -0.7675  2.4827
  489SOL     OW 1465   2.776   0.257   1.318  0.5928 -0.8138 -0.1997
  489SOL    HW1 1466   2.727   0.220   1.401  0.0235  1.4697 -1.4562
  489SOL    HW2 1467   2.867   0.213   1.297  1.8512 -2.8197 -2.2061
  490SOL     OW 1468   1.413   2.972   2.864 -0.3065  0.3733  0.6267
  490SOL    HW1 1469   1.429   2.871   2.861 -1.6237 -0.9016 -0.3186
  490SOL    HW2 1470   1.401   3.021   2.774  3.2867 -2.0797 -0.8686
  491SOL     OW 1471   1.873   1.580   2.694  0.4164 -0.1836  0.0577
  491SOL    HW1 1472   1.808   1.638   2.749  0.8244  2.3553 -5.1839
  491SOL    HW2 1473   1.965   1.554   2.731  0.5931 -2.3487 -2.1430
  492SOL     OW 1474   0.459   1.961   0.738  0.1506 -0.3326 -0.0277
  492SOL    HW1 1475   0.533   1.945   0.809  0.1560 -0.4621 -2.6770
  492SOL    HW2 1476   0.436   2.059   0.725 -1.4301 -1.2336  1.8639
  493SOL     OW 1477   0.428   1.406   2.103  0.2777  0.4890  0.1298
  493SOL    HW1 1478   0.360   1.482   2.110 -2.3378 -1.7715  1.7418
  493SOL    HW2 1479   0.408   1.330   2.172 -0.5381 -1.2497 -2.2805
  494SOL     OW 1480   2.639   2.656   0.125 -0.1983 -0.0592  0.3878
  494SOL    HW1 1481   2.663   2.587   0.195  1.6070 -0.6938 -0.0782
  494SOL    HW2 1482   2.570   2.621   0.053  0.7218  0.2886 -0.5888
  495SOL     OW 1483   2.746   2.680   2.689  0.4134 -0.0210  0.1070
  495SOL    HW1 1484   2.730   2.584   2.657 -0.3515  1.8115  1.1895
  495SOL    HW2 1485   2.729   2.744   2.606 -2.5947  0.3132 -1.6555
  496SOL     OW 1486   2.106   2.204   0.740 -0.1082 -0.5383 -0.3513
  496SOL    HW1 1487   2.047   2.190   0.834 -0.4880  1.3808  3.6912
  496SOL    HW2 1488   2.135   2.118   0.695 -0.3422  0.9950 -1.4771
  497SOL     OW 1489   0.233   2.981   2.402  0.2586 -0.2860  0.4071
  497SOL    HW1 1490   0.169   3.030   2.464  0.7020 -1.4094 -2.2661
  497SOL    HW2 1491   0.271   3.036   2.323 -0.7550  0.3388  1.6964
  498SOL     OW 1492   1.205   1.481   1.124 -0.3052 -0.0891  0.1427
  498SOL    HW1 1493   1.293   1.518   1.156 -1.6243  0.0289 -5.8177
  498SOL    HW2 1494   1.119   1.519   1.175 -1.1089  0.7757 -0.8528
  499SOL     OW 1495   0.849   1.794   0.535  0.1151 -0.2045 -0.1395
  499SOL    HW1 1496   0.787   1.715   0.549 -0.2523  2.6434 -0.0922
  499SOL    HW2 1497   0.860   1.850   0.621  0.9776 -1.4655 -1.8359
  500SOL     OW 1498   1.407   2.983   1.746  0.3049 -0.1018 -0.6451
  500SOL    HW1 1499   1.440   3.014   1.839  2.1776 -0.8129 -0.6347
  500SOL    HW2 1500   1.462   2.905   1.707 -1.5978  0.3357  0.8770
  501SOL     OW 1501   0.747   1.143   2.250 -0.0101 -0.0321  0.0191
  501SOL    HW1 1502   0.664   1.080   2.223  0.2060 -0.7189 -0.9713
  501SOL    HW2 1503   0.818   1.150   2.175 -1.0737  1.1850  2.0042
  502SOL     OW 1504   2.615   0.964   1.731  0.2258  0.2129 -0.1057
  502SOL    HW1 1505   2.620   0.944   1.633  1.5013  2.1448  1.7823
  502SOL    HW2 1506   2.553   0.893   1.778 -0.5557  3.1674 -1.7223
  503SOL     OW 1507   1.342   0.187   0.616 -0.5535 -0.3657  0.1007
  503SOL    HW1 1508   1.276   0.257   0.574  1.5731  1.3097  1.0033
  503SOL    HW2 1509   1.442   0.224   0.619 -0.0293  1.6902 -1.1857
  504SOL     OW 1510   2.964   2.363   1.393 -0.2896  0.7941  0.1954
  504SOL    HW1 1511   2.971   2.443   1.453 -1.2874 -3.9699 -1.5408
  504SOL    HW2 1512   2.888   2.303   1.429 -0.1044 -1.7056  2.0171
  505SOL     OW 1513   2.287   1.234   1.436  0.2270  0.4469 -0.2183
  505SOL    HW1 1514   2.261   1.323   1.380  1.2736  0.5790 -0.2701
  505SOL    HW2 1515   2.383   1.245   1.472 -0.6332 -2.7262 -0.9306
  506SOL     OW 1516   1.900   0.258   1.824 -0.4042 -0.5671  0.0022
  506SOL    HW1 1517   1.989   0.242   1.771 -1.9259  0.8782 -1.8312
  506SOL    HW2 1518   1.907   0.351   1.865  2.5154 -0.7132  2.2317
  507SOL     OW 1519   0.504   0.644   2.178  0.3661  0.4551  0.4004
  507SOL    HW1 1520   0.432   0.642   2.104  0.3473 -1.1055 -0.0195
  507SOL    HW2 1521   0.568   0.566   2.176  0.1099  1.5362 -0.3658
  508SOL     OW 1522   0.217   1.673   0.867 -0.9521 -0.2019 -0.4045
  508SOL    HW1 1523   0.274   1.756   0.836 -0.8066  2.1429  1.7541
  508SOL    HW2 1524   0.222   1.652   0.967 -2.5511  1.2918  1.3188
  509SOL     OW 1525   1.361   1.193   2.549  0.3148 -0.0660  0.8381
  509SOL    HW1 1526   1.268   1.238   2.537  2.6786  3.1927 -0.1528
  509SOL    HW2 1527   1.380   1.105   2.486 -0.2889 -0.3603 -1.9123
  510SOL     OW 1528   1.344   1.972   2.049  0.0025  0.5710 -0.7100
  510SOL    HW1 1529   1.307   2.071   2.030  1.3144  0.4476 -0.1495
  510SOL    HW2 1530   1.285   1.932   2.123 -2.5064 -1.3133 -0.5973
  511SOL     OW 1531   0.023   2.643   1.320 -0.4138 -0.1068 -0.2940
  511SOL    HW1 1532  -0.015   2.623   1.226 -1.0650  0.2881 -1.1681
  511SOL    HW2 1533  -0.042   2.627   1.397  1.5067  0.7248 -0.9178
  512SOL     OW 1534   2.413   0.431   1.352  0.1659  0.0756  0.2596
  512SOL    HW1 1535   2.314   0.405   1.368 -0.0443 -1.7604 -0.5274
  512SOL    HW2 1536   2.447   0.382   1.264 -1.9548  0.3703 -3.3992
  513SOL     OW 1537   2.491   1.998   0.844  0.2073  0.2486  0.1287
  513SOL    HW1 1538   2.450   2.095   0.834 -1.1324  1.5949  1.3029
  513SOL    HW2 1539   2.589   1.997   0.809 -0.6113  0.7215 -1.7392
  514SOL     OW 1540   0.676   2.777   0.377 -0.4261  0.6221  0.3127
  514SOL    HW1 1541   0.647   2.839   0.300  2.4571 -0.1648  0.9229
  514SOL    HW2 1542   0.702   2.835   0.459  1.5567 -1.4602 -1.1187
  515SOL     OW 1543   1.966   1.212   2.340 -0.0437  0.3449  0.7048
  515SOL    HW1 1544   1.901   1.229   2.259 -3.1276  0.8127  2.1078
  515SOL    HW2 1545   1.929   1.231   2.440  1.2502 -0.0891  0.8923
  516SOL     OW 1546   0.261   0.298   1.954  0.0967  0.0719  0.3359
  516SOL    HW1 1547   0.337   0.279   1.883  0.0035 -0.6519 -0.1135
  516SOL    HW2 1548   0.182   0.230   1.948 -2.4890 -0.7430  0.5657
  517SOL     OW 1549   0.352   3.040   1.177  0.1591  0.1671 -0.2043
  517SOL    HW1 1550   0.387   3.138   1.184  0.8916  0.0843  0.7163
  517SOL    HW2 1551   0.291   3.018   1.253  0.0798 -0.4209 -4.2052
  518SOL     OW 1552   2.147   0.150   1.697  0.1460  0.8446 -1.0602
  518SOL    HW1 1553   2.219   0.182   1.760 -0.2454 -0.0424 -0.0192
  518SOL    HW2 1554   2.164   0.047   1.674  0.4419 -1.4632 -1.0585
  519SOL     OW 1555   2.397   2.189   2.557 -0.8971 -0.0793 -0.4435
  519SOL    HW1 1556   2.311   2.173   2.612 -0.6890 -1.0573 -0.1474
  519SOL    HW2 1557   2.423   2.287   2.563 -0.6442 -1.4265 -3.5357
  520SOL     OW 1558   1.769   2.886   1.801 -0.0957 -0.4387 -0.1378
  520SOL    HW1 1559   1.679   2.874   1.847  1.7868  1.4703 -3.3455
  520SOL    HW2 1560   1.829   2.804   1.809 -0.5528  0.5073 -1.7686
  521SOL     OW 1561   0.559   0.143   2.133  0.4583  0.2521  0.2308
  521SOL    HW1 1562   0.475   0.104   2.178  0.0195  0.7052 -0.8782
  521SOL    HW2 1563   0.647   0.118   2.180 -0.2972  1.2751 -1.5186
  522SOL     OW 1564   0.201   1.911   1.571  0.2605 -0.3340 -0.3001
  522SOL    HW1 1565   0.258   1.962   1.642 -0.1787  0.8477  0.0375
  522SOL    HW2 1566   0.179   1.963   1.485 -1.2775 -1.1594 -0.3893
  523SOL     OW 1567   2.186   2.950   1.619 -0.1155  0.4826 -0.0796
  523SOL    HW1 1568   2.241   2.876   1.572 -1.2157  0.4554 -0.5371
  523SOL    HW2 1569   2.087   2.951   1.584  1.1159 -0.5137  2.6356
  524SOL     OW 1570   0.242   2.736   2.837  0.3898  0.0817 -0.2069
  524SOL    HW1 1571   0.210   2.792   2.916  2.0855 -0.5191  0.5417
  524SOL    HW2 1572   0.341   2.736   2.829 -1.6633  2.1054 -2.1564
  525SOL     OW 1573   2.138   1.934   0.456 -0.9506  0.4148  0.2301
  525SOL    HW1 1574   2.128   1.859   0.522 -1.4160 -1.0103 -0.3510
  525SOL    HW2 1575   2.192   1.910   0.369  1.2830  1.9091 -1.4155
  526SOL     OW 1576   0.406   1.520   1.539  0.4315 -0.3134  0.0880
  526SOL    HW1 1577   0.339   1.479   1.604  1.5805  0.3047 -1.2210
  526SOL    HW2 1578   0.474   1.449   1.509  0.9451 -0.4849  0.9691
  527SOL     OW 1579   1.102   2.890   1.193 -0.4746 -0.3043 -0.0140
  527SOL    HW1 1580   1.162   2.833   1.257  0.2409 -1.9211  1.4303
  527SOL    HW2 1581   1.132   2.988   1.194  1.1724 -2.8290 -0.3834
  528SOL     OW 1582   1.345   2.383   0.457  0.2901  0.3849 -0.0275
  528SOL    HW1 1583   1.356   2.282   0.454 -1.4115  0.2455 -0.3904
  528SOL    HW2 1584   1.408   2.427   0.529 -0.0660 -0.9146  1.1936
  529SOL     OW 1585   1.844   1.737   0.809 -0.4438  0.2373 -0.4092
  529SOL    HW1 1586   1.830   1.751   0.706 -1.8456  1.1217 -1.6995
  529SOL    HW2 1587   1.834   1.827   0.861 -0.4405 -1.5020 -1.0370
  530SOL     OW 1588   0.319   2.444   0.324  0.1435  0.4398 -0.5265
  530SOL    HW1 1589   0.305   2.543   0.344  0.3347 -4.4932 -0.7924
  530SOL    HW2 1590   0.379   2.390   0.391  3.4441 -0.5709 -2.1603
  531SOL     OW 1591   1.832   0.825   1.037  0.8002 -0.4940 -0.5314
  531SOL    HW1 1592   1.874   0.818   0.936  0.7851 -1.6182 -0.5368
  531SOL    HW2 1593   1.727   0.840   1.023 -2.7979 -0.7363 -0.3988
  532SOL     OW 1594   0.493   1.082   0.725 -0.2007  0.5364  0.5598
  532SOL    HW1 1595   0.477   1.062   0.623  0.2766 -1.1976 -1.8543
  532SOL    HW2 1596   0.455   1.008   0.788  1.4776 -1.3961 -0.3864
  533SOL     OW 1597   1.777   0.044   2.546  0.1924  0.0937 -0.3093
  533SOL    HW1 1598   1.872   0.017   2.573  0.0550 -2.3955  2.4992
  533SOL    HW2 1599   1.736   0.103   2.621 -2.8831  0.9729 -0.5962
  534SOL     OW 1600   0.403   0.167   1.543 -0.3403 -0.1424  0.5064
  534SOL    HW1 1601   0.492   0.196   1.590  0.6285 -1.1735  0.0459
  534SOL    HW2 1602   0.343   0.251   1.528 -1.9751 -1.1863 -0.7064
  535SOL     OW 1603   1.921   0.351   0.200  0.3323 -0.3805  0.5098
  535SOL    HW1 1604   1.941   0.424   0.273 -0.1595  0.6819 -1.2423
  535SOL    HW2 1605   1.935   0.249   0.223  1.5707 -2.4982 -1.9569
  536SOL     OW 1606   1.375   2.635   0.934 -0.1956 -0.3758  0.4738
  536SOL    HW1 1607   1.329   2.593   1.013 -0.9495  1.1260 -0.4654
  536SOL    HW2 1608   1.303   2.678   0.878 -0.0289  1.5346 -1.3632
  537SOL     OW 1609   0.836   0.285   2.399 -0.1083  0.3135 -0.1897
  537SOL    HW1 1610   0.841   0.341   2.313  0.9280  0.7176 -0.8234
  537SOL    HW2 1611   0.804   0.192   2.376  1.1767 -3.5043 -1.5138
  538SOL     OW 1612   1.639   2.344   1.355  0.5640  0.3487  0.4115
  538SOL    HW1 1613   1.642   2.246   1.388 -1.6058 -1.6919 -0.5537
  538SOL    HW2 1614   1.728   2.392   1.379  2.4810 -0.0630  2.3806
  539SOL     OW 1615   0.161   1.615   2.691  0.8039 -0.3851  0.2242
  539SOL    HW1 1616   0.073   1.579   2.646 -1.1333  2.6036 -0.8295
  539SOL    HW2 1617   0.146   1.705   2.738  1.7778 -0.1167  0.9152
  540SOL     OW 1618   2.663   1.708   1.925 -0.4015  0.2745 -0.6925
  540SOL    HW1 1619   2.590   1.632   1.932 -0.0968 -1.3064 -0.1585
  540SOL    HW2 1620   2.629   1.804   1.902 -1.3554  1.5897 -0.1919
  541SOL     OW 1621   0.560   2.152   0.023 -0.0244  0.1483  0.3003
  541SOL    HW1 1622   0.589   2.110   0.116  0.2420  0.6290  1.7990
  541SOL    HW2 1623   0.463   2.121  -0.009  1.9846 -1.6388 -0.5997
  542SOL     OW 1624   2.235   2.614   0.503 -0.1299  0.4371 -0.0057
  542SOL    HW1 1625   2.186   2.694   0.545 -0.6125  0.2109  0.8520
  542SOL    HW2 1626   2.183   2.526   0.517  1.6170 -1.5486  0.5284
  543SOL     OW 1627   1.087   1.814   1.560 -0.1119  0.2612 -0.0425
  543SOL    HW1 1628   1.112   1.853   1.654 -1.4238 -0.4231 -2.7527
  543SOL    HW2 1629   1.016   1.872   1.509 -3.6711  0.6475  0.5761
  544SOL     OW 1630   1.127   0.513   0.173  0.7922 -0.2318 -0.1626
  544SOL    HW1 1631   1.082   0.424   0.194 -0.5246  0.6829 -0.9207
  544SOL    HW2 1632   1.175   0.508   0.084 -2.1897  2.3327  0.6141
  545SOL     OW 1633   1.097   1.838   0.780  0.2789  0.4785 -0.4702
  545SOL    HW1 1634   1.180   1.855   0.721  1.1545  1.4136  1.0285
  545SOL    HW2 1635   1.089   1.739   0.810 -1.3657 -0.2560  0.6621
  546SOL     OW 1636   2.703   1.585   2.969 -0.0209  0.1324  0.0449
  546SOL    HW1 1637   2.662   1.679   2.944  0.5552  2.5805 -2.6257
  546SOL    HW2 1638   2.625   1.524   2.993 -0.3172 -0.9426 -0.4591
  547SOL     OW 1639   0.660   3.042   2.521 -0.1847 -0.6282 -0.2816
  547SOL    HW1 1640   0.719   3.045   2.610  2.3548 -1.0869  2.5553
  547SOL    HW2 1641   0.599   2.957   2.524  1.7673  1.7441  0.8218
  548SOL     OW 1642   2.051   0.782   3.070  0.0481 -0.3974 -0.4896
  548SOL    HW1 1643   1.952   0.752   3.049  0.3956 -0.8198 -0.7308
  548SOL    HW2 1644   2.059   0.881   3.101  2.2979  0.0366 -0.5941
  549SOL     OW 1645   0.705   0.578   0.216  0.0711 -0.5146 -0.2098
  549SOL    HW1 1646   0.638   0.616   0.150  0.1296 -0.6440  0.8229
  549SOL    HW2 1647   0.784   0.649   0.226  1.1797 -0.0808  1.7478
  550SOL     OW 1648   2.565   2.813   2.843  0.0182 -0.3632 -0.1446
  550SOL    HW1 1649   2.500   2.761   2.903 -0.2225 -0.0861  1.5036
  550SOL    HW2 1650   2.615   2.752   2.780 -0.0011  0.1697 -1.8713
  551SOL     OW 1651   0.232   0.886   0.269 -0.2922 -0.2341  0.1354
  551SOL    HW1 1652   0.334   0.889   0.243 -1.0804 -1.3949 -0.0739
  551SOL    HW2 1653   0.208   0.870   0.367  1.3744 -1.4614 -0.7040
  552SOL     OW 1654   0.579   3.005   1.969  0.2385  0.8493  0.2525
  552SOL    HW1 1655   0.561   3.080   2.037 -0.1716  0.5582  1.6364
  552SOL    HW2 1656   0.680   2.992   1.945 -0.5373  1.2428  0.9038
  553SOL     OW 1657   2.955   2.397   0.367  0.9394  0.3109  0.2930
  553SOL    HW1 1658   2.939   2.295   0.360 -1.5110 -2.5073  3.2213
  553SOL    HW2 1659   2.868   2.455   0.357  0.7464 -3.0396  2.5417
  554SOL     OW 1660   2.188   0.388   0.506  0.6204  0.1408  0.5471
  554SOL    HW1 1661   2.273   0.391   0.450  2.5791  0.2785  1.1928
  554SOL    HW2 1662   2.188   0.302   0.569  1.4544  0.1268  1.8966
  555SOL     OW 1663   0.471   2.844   2.489  0.6495 -0.1057 -0.3512
  555SOL    HW1 1664   0.393   2.896   2.449  1.2596  0.4152 -2.9743
  555SOL    HW2 1665   0.489   2.762   2.424 -2.6018  0.6154 -0.1051
  556SOL     OW 1666   0.817   2.451   1.607 -0.7489  0.9297 -0.2581
  556SOL    HW1 1667   0.842   2.504   1.694  1.1095 -0.0800  2.1259
  556SOL    HW2 1668   0.903   2.417   1.563 -2.5893  2.3271 -0.0185
  557SOL     OW 1669   0.219   2.093   0.270  0.6390  0.4150  1.0257
  557SOL    HW1 1670   0.164   2.026   0.206 -2.3314 -1.3627 -2.3436
  557SOL    HW2 1671   0.315   2.103   0.235  1.8714 -1.5329  0.0945
  558SOL     OW 1672   2.826   2.159   0.406 -0.0920 -0.1495 -0.1144
  558SOL    HW1 1673   2.757   2.178   0.476  3.1673 -0.4599 -0.4384
  558SOL    HW2 1674   2.792   2.114   0.325  3.8209 -1.6466  0.7058
  559SOL     OW 1675   0.404   2.352   1.429  0.0492  0.3654  0.2741
  559SOL    HW1 1676   0.332   2.387   1.370  2.2093 -2.6301  3.5838
  559SOL    HW2 1677   0.455   2.271   1.389  1.3910  0.9982 -1.2886
  560SOL     OW 1678   2.137   1.058   3.098 -0.3106 -0.1225  0.0556
  560SOL    HW1 1679   2.185   1.078   3.189 -0.7718  0.5340  1.6168
  560SOL    HW2 1680   2.197   1.005   3.031 -1.1143 -2.5059 -3.7613
  561SOL     OW 1681   0.044   1.912   0.125 -0.4224  0.3852  1.2791
  561SOL    HW1 1682  -0.011   1.849   0.185  1.7216  1.6522  1.0639
  561SOL    HW2 1683  -0.021   1.977   0.077  2.7821 -3.5835 -1.9258
  562SOL     OW 1684   1.118   2.104   2.283 -0.0385 -1.0809 -0.0296
  562SOL    HW1 1685   1.068   2.193   2.314 -2.2580  2.0240  1.5575
  562SOL    HW2 1686   1.056   2.023   2.298  1.5800 -0.5535 -1.2375
  563SOL     OW 1687   0.678   2.534   2.645 -0.3552 -0.0495  0.0743
  563SOL    HW1 1688   0.751   2.485   2.590 -1.4663  0.9453  0.6218
  563SOL    HW2 1689   0.711   2.571   2.737 -3.9466 -0.5105  0.7206
  564SOL     OW 1690   2.871   1.390   2.887 -0.9447  0.2298 -0.0121
  564SOL    HW1 1691   2.818   1.470   2.924  0.1565 -1.7597 -0.8165
  564SOL    HW2 1692   2.962   1.422   2.847  2.0118  1.8097  1.5001
  565SOL     OW 1693   2.524   1.956   2.636  0.0173  0.2271  0.0464
  565SOL    HW1 1694   2.484   2.045   2.597  2.5947  1.4053  1.4900
  565SOL    HW2 1695   2.602   1.973   2.704 -0.0640  0.5890 -1.3796
  566SOL     OW 1696   1.974   2.902   1.465  0.4398  0.2060  0.0884
  566SOL    HW1 1697   1.940   2.814   1.505  1.4283  1.4687  3.5820
  566SOL    HW2 1698   1.949   2.909   1.363 -0.4927 -0.1998 -0.1537
  567SOL     OW 1699   2.395   0.027   2.315 -0.2010 -0.1455  0.3517
  567SOL    HW1 1700   2.308   0.041   2.366  1.0803 -1.1137 -1.5016
  567SOL    HW2 1701   2.383   0.052   2.215 -1.4582  0.2902  1.2245
  568SOL     OW 1702   1.487   1.731   0.290  0.4545 -0.3500 -0.4575
  568SOL    HW1 1703   1.454   1.818   0.243  1.6483 -2.4432  0.1546
  568SOL    HW2 1704   1.583   1.742   0.326 -1.7585 -1.0518  0.6492
  569SOL     OW 1705   0.265   0.610   0.888  0.3377 -0.6044  0.1564
  569SOL    HW1 1706   0.282   0.566   0.800 -0.3833 -1.5301  0.7015
  569SOL    HW2 1707   0.173   0.570   0.926 -1.1846 -0.0126 -1.4144
  570SOL     OW 1708   0.636   0.885   2.893  0.1330  0.0689  0.5086
  570SOL    HW1 1709   0.673   0.908   2.801  1.5523  0.4436 -1.1209
  570SOL    HW2 1710   0.644   0.961   2.963 -0.3959 -1.8310  0.8221
  571SOL     OW 1711   0.766   3.073   1.091 -0.0671 -0.3375 -0.7846
  571SOL    HW1 1712   0.822   3.112   1.010  0.8362 -0.6414  0.0345
  571SOL    HW2 1713   0.777   2.967   1.099 -2.9560  0.7016  1.2586
  572SOL     OW 1714   1.625   2.689   1.409  0.4202 -0.5213  0.2876
  572SOL    HW1 1715   1.650   2.618   1.338 -1.1941  4.3558 -0.2910
  572SOL    HW2 1716   1.554   2.759   1.371 -1.1060  0.1083  0.8849
  573SOL     OW 1717   3.087   0.497   1.963 -0.8243 -0.2082 -0.4774
  573SOL    HW1 1718   3.042   0.406   1.990  0.6350 -0.5556  1.5635
  573SOL    HW2 1719   3.118   0.499   1.864  1.8942 -1.6291 -3.5155
  574SOL     OW 1720   0.153   1.643   1.142  0.3449 -0.2011 -0.2009
  574SOL    HW1 1721   0.188   1.657   1.240 -0.7146 -1.0915 -0.2122
  574SOL    HW2 1722   0.127   1.734   1.101  3.7928 -0.8833 -0.0107
  575SOL     OW 1723   0.870   2.225   0.993 -0.7738  0.2987  0.2076
  575SOL    HW1 1724   0.845   2.257   1.092 -1.5965 -0.6909  2.1503
  575SOL    HW2 1725   0.909   2.302   0.936 -0.5671 -0.2636  3.6182
  576SOL     OW 1726   2.937   3.003   1.727  0.8085 -0.0467  0.2430
  576SOL    HW1 1727   2.848   2.980   1.669 -0.1870  1.0040  0.0411
  576SOL    HW2 1728   2.974   3.098   1.702  0.5402  1.5372  0.4326
  577SOL     OW 1729   2.673   1.223   0.013  0.1422  0.0044  0.1389
  577SOL    HW1 1730   2.661   1.135  -0.041  0.2542 -1.4685 -0.2888
  577SOL    HW2 1731   2.758   1.205   0.076  0.7292 -0.3183  1.2457
  578SOL     OW 1732   1.419   2.752   2.555 -0.4377 -0.2714  0.0541
  578SOL    HW1 1733   1.328   2.788   2.526 -0.7300 -0.0567 -2.9707
  578SOL    HW2 1734   1.496   2.814   2.519 -0.2681  0.0247  1.3515
  579SOL     OW 1735   0.064   2.407   0.177  0.2416  0.2985 -0.0006
  579SOL    HW1 1736  -0.013   2.422   0.246  0.4217  1.5827 -0.8031
  579SOL    HW2 1737   0.157   2.386   0.223  0.9890 -1.5432  0.1885
  580SOL     OW 1738   0.956   2.706   0.428  0.2381  0.2042 -0.2798
  580SOL    HW1 1739   1.019   2.695   0.346 -0.5650 -1.8322 -2.2969
  580SOL    HW2 1740   0.854   2.714   0.410  1.1347 -0.0478  0.9774
  581SOL     OW 1741   1.266   2.685   1.430  0.6154  0.2557  0.1793
  581SOL    HW1 1742   1.323   2.600   1.439 -3.7506  1.4450 -1.1319
  581SOL    HW2 1743   1.323   2.765   1.396  0.9539  0.1531  0.2610
  582SOL     OW 1744   1.493   0.072   1.919  0.6458  0.1874 -0.0843
  582SOL    HW1 1745   1.498   0.153   1.980 -0.8120 -1.0740 -1.3116
  582SOL    HW2 1746   1.567   0.084   1.843  0.8960 -0.1423  1.4185
  583SOL     OW 1747   2.467   3.053   0.554 -0.8612 -0.2145  0.1442
  583SOL    HW1 1748   2.544   2.994   0.509  2.0159 -0.4201 -1.2193
  583SOL    HW2 1749   2.388   2.993   0.582  0.1316 -2.9708  0.9203
  584SOL     OW 1750   1.609   1.091   2.284 -0.4421  0.9673 -0.7484
  584SOL    HW1 1751   1.662   1.181   2.259 -0.3422 -1.9408 -0.1851
  584SOL    HW2 1752   1.670   1.003   2.301  0.2600 -0.3815  1.6764
  585SOL     OW 1753   2.051   2.662   2.871 -0.5972  0.2342  0.2184
  585SOL    HW1 1754   2.073   2.561   2.858 -0.3801 -0.0826  1.8171
  585SOL    HW2 1755   1.947   2.676   2.882  1.1619 -2.5918 -1.0145
  586SOL     OW 1756   2.938   0.386   1.590  0.4690 -0.1858  0.5741
  586SOL    HW1 1757   2.942   0.475   1.642 -0.5579 -2.3900 -1.5502
  586SOL    HW2 1758   2.852   0.370   1.545  1.3474 -0.4039  0.9394
  587SOL     OW 1759   2.147   1.457   2.711  0.1077 -0.2079  0.5091
  587SOL    HW1 1760   2.140   1.408   2.619  0.4431 -0.2151  0.9697
  587SOL    HW2 1761   2.244   1.496   2.725 -0.3858 -1.8299  0.1858
  588SOL     OW 1762   0.509   2.641   2.286  0.6454  0.3639  0.5082
  588SOL    HW1 1763   0.483   2.679   2.188 -1.6862 -0.3976  0.6147
  588SOL    HW2 1764   0.460   2.553   2.309  0.1355 -2.6616  2.5489
  589SOL     OW 1765   2.181   1.316   2.489 -0.0242  0.6505  0.1008
  589SOL    HW1 1766   2.122   1.265   2.421  0.6775 -0.4354 -0.2635
  589SOL    HW2 1767   2.286   1.306   2.476 -2.1182  2.0062  1.8044
  590SOL     OW 1768   2.310   1.697   2.073 -0.0933 -0.1449  0.1095
  590SOL    HW1 1769   2.396   1.639   2.060 -1.6421  1.1346  1.1417
  590SOL    HW2 1770   2.290   1.721   2.173  2.9690 -1.5295  0.8180
  591SOL     OW 1771   1.298   2.413   0.174  0.8972  0.8481 -0.0536
  591SOL    HW1 1772   1.319   2.326   0.120  0.8232 -3.5744 -1.3071
  591SOL    HW2 1773   1.308   2.394   0.274  0.5387  2.3165 -2.0315
  592SOL     OW 1774   1.783   2.369   0.791 -0.4823 -0.0415  0.0559
  592SOL    HW1 1775   1.778   2.412   0.695  0.2310 -1.3197  0.1685
  592SOL    HW2 1776   1.867   2.395   0.848 -0.6436  2.1501  3.4832
  593SOL     OW 1777   0.775   0.294   0.241 -0.3515 -0.3329 -0.5924
  593SOL    HW1 1778   0.812   0.260   0.150  2.5822  0.1535  2.5455
  593SOL    HW2 1779   0.752   0.396   0.243 -1.8388  1.1129 -3.2358
  594SOL     OW 1780   1.066   1.798   2.657  0.2339 -0.0877  0.1519
  594SOL    HW1 1781   1.144   1.780   2.591  1.8509  2.0979 -0.0841
  594SOL    HW2 1782   1.094   1.865   2.733  2.4152  2.4942  1.6563
  595SOL     OW 1783   1.512   0.122   0.989 -0.1158  0.1382  0.1644
  595SOL    HW1 1784   1.563   0.031   0.977  3.0089  0.2085  0.6326
  595SOL    HW2 1785   1.421   0.128   0.932 -0.6242  3.8754 -2.5002
  596SOL     OW 1786   0.129   1.455   2.235  0.5631 -0.9158 -0.7282
  596SOL    HW1 1787   0.066   1.378   2.271 -0.8811 -0.1734  1.3373
  596SOL    HW2 1788   0.182   1.499   2.310 -0.2311 -2.2281 -2.6155
  597SOL     OW 1789   2.040   2.675   1.817  0.6978  0.2026  0.3621
  597SOL    HW1 1790   1.993   2.671   1.722 -2.2194  1.8763 -3.5172
  597SOL    HW2 1791   2.140   2.648   1.820  0.8310 -0.3525 -2.3385
  598SOL     OW 1792   2.492   2.844   1.290 -0.2866 -0.2957  0.6185
  598SOL    HW1 1793   2.578   2.874   1.346 -0.6760  1.7434 -2.0692
  598SOL    HW2 1794   2.514   2.834   1.190 -2.0213  1.6508  0.6531
  599SOL     OW 1795   2.869   0.260   2.508  0.9279  0.2971 -0.2691
  599SOL    HW1 1796   2.961   0.284   2.474 -0.0488  1.3227 -0.4190
  599SOL    HW2 1797   2.787   0.286   2.454 -0.4432  1.8169  2.7241
  600SOL     OW 1798   2.792   1.157   2.774  0.0535  0.1943 -0.0493
  600SOL    HW1 1799   2.736   1.100   2.838  2.7967 -0.2383  0.0346
  600SOL    HW2 1800   2.811   1.253   2.817  1.4924 -0.1613 -0.1347
  601SOL     OW 1801   2.967   1.342   2.000 -0.2539 -0.3615 -0.1335
  601SOL    HW1 1802   2.874   1.374   1.965  1.1594 -0.5400  1.6289
  601SOL    HW2 1803   3.046   1.410   1.989  0.8297  2.1915 -0.9355
  602SOL     OW 1804   1.549   1.552   2.297  0.3340 -0.2257  0.5644
  602SOL    HW1 1805   1.454   1.563   2.335  0.6984  1.5547 -1.5996
  602SOL    HW2 1806   1.617   1.606   2.358 -1.3767  1.5576 -0.5368
  603SOL     OW 1807   0.612   1.216   2.708 -0.5105  0.1379 -0.3258
  603SOL    HW1 1808   0.515   1.234   2.674  1.0559  0.5630 -1.3226
  603SOL    HW2 1809   0.640   1.117   2.688 -0.7418  0.3225 -1.1455
  604SOL     OW 1810   2.501   1.062   0.208  0.5645  0.7834  0.0370
  604SOL    HW1 1811   2.593   1.113   0.200  1.0785  0.5702  0.6096
  604SOL    HW2 1812   2.491   0.992   0.134 -1.0164  2.8581  0.8078
  605SOL     OW 1813   2.565   1.155   1.936  0.2662  0.7278 -0.7240
  605SOL    HW1 1814   2.614   1.079   1.881  0.4978  1.6630 -3.2935
  605SOL    HW2 1815   2.632   1.215   1.994  1.8893 -0.8903 -0.0551
  606SOL     OW 1816   1.522   2.463   2.551  0.4363 -0.2764  0.1344
  606SOL    HW1 1817   1.449   2.537   2.534 -0.9944  2.1638  3.3241
  606SOL    HW2 1818   1.497   2.367   2.520  1.6352  1.7201 -0.8879
  607SOL     OW 1819   1.252   1.595   0.238 -0.4429 -0.2952  0.4624
  607SOL    HW1 1820   1.176   1.660   0.266  2.1313  1.2756 -1.1364
  607SOL    HW2 1821   1.343   1.636   0.264 -0.1809  0.8524  0.5484
  608SOL     OW 1822   1.375   2.814   0.348 -0.2873 -0.3982 -0.5489
  608SOL    HW1 1823   1.440   2.839   0.269  0.8036  0.8064  0.4494
  608SOL    HW2 1824   1.337   2.895   0.404 -0.7817 -0.1739  0.0914
  609SOL     OW 1825   1.331   1.334   0.176 -0.5731  0.7212 -0.0820
  609SOL    HW1 1826   1.293   1.428   0.200 -1.4438  0.5241 -0.0801
  609SOL    HW2 1827   1.288   1.297   0.096 -0.3163 -0.7424  4.2680
  610SOL     OW 1828   3.006   1.223   2.249  0.0893 -0.2139 -0.5921
  610SOL    HW1 1829   2.978   1.127   2.253  0.2834 -0.2095 -0.7237
  610SOL    HW2 1830   2.991   1.270   2.158  1.3013  0.1063 -1.8565
  611SOL     OW 1831   2.564   0.226   1.137  0.1604 -1.0127  0.6137
  611SOL    HW1 1832   2.514   0.146   1.184 -0.7339  1.8069  1.0294
  611SOL    HW2 1833   2.662   0.242   1.177 -1.0952  0.4569 -0.8100
  612SOL     OW 1834   0.778   2.339   1.206 -0.4655  0.1478 -0.3697
  612SOL    HW1 1835   0.719   2.287   1.268  1.3627  0.9467  0.3602
  612SOL    HW2 1836   0.749   2.439   1.195 -1.0253  0.5855  0.6757
  613SOL     OW 1837   0.780   1.395   2.393 -0.1827 -0.1991  0.3308
  613SOL    HW1 1838   0.789   1.464   2.319 -0.2645  0.2113  2.6110
  613SOL    HW2 1839   0.772   1.300   2.356  1.0298  1.9111  1.0901
  614SOL     OW 1840   1.529   1.656   1.865 -0.2842 -0.1942  0.5215
  614SOL    HW1 1841   1.473   1.678   1.786  0.2798 -0.5362  1.9948
  614SOL    HW2 1842   1.594   1.730   1.889 -1.6907 -2.6780 -1.0819
  615SOL     OW 1843   0.730   1.444   1.716  0.2963  0.7419  0.4382
  615SOL    HW1 1844   0.661   1.389   1.654 -1.9266  2.1990  0.8376
  615SOL    HW2 1845   0.802   1.488   1.663 -1.1324 -1.5612  0.5052
  616SOL     OW 1846   1.126   1.557   2.222 -0.6970 -0.2033 -0.1155
  616SOL    HW1 1847   1.024   1.532   2.215  0.9219 -2.8019 -0.6598
  616SOL    HW2 1848   1.165   1.589   2.131  0.6388  0.1140 -0.8752
  617SOL     OW 1849   3.031   1.562   1.637 -0.1735  0.5286  0.2657
  617SOL    HW1 1850   2.969   1.507   1.703 -3.0034  1.0491  0.0464
  617SOL    HW2 1851   3.045   1.518   1.541  0.1611  0.4892  0.5577
  618SOL     OW 1852   1.909   1.972   1.481 -0.5902  0.0999  0.1628
  618SOL    HW1 1853   1.968   1.955   1.394  0.1492  0.5402 -0.9135
  618SOL    HW2 1854   1.899   1.886   1.540  0.2995 -0.6980  0.2476
  619SOL     OW 1855   1.763   0.505   2.347  0.6255  0.6785  0.0892
  619SOL    HW1 1856   1.690   0.574   2.323  1.6760 -0.9979  0.5136
  619SOL    HW2 1857   1.715   0.419   2.374 -1.4388  2.8556  2.3239
  620SOL     OW 1858   2.257   2.917   0.667  0.3258 -0.1163  0.6084
  620SOL    HW1 1859   2.178   2.987   0.654 -0.5978  1.4356  0.9677
  620SOL    HW2 1860   2.298   2.917   0.764  0.9200 -1.3375 -1.0384
  621SOL     OW 1861   2.182   1.906   1.345 -0.1202  0.3000  0.1344
  621SOL    HW1 1862   2.172   1.878   1.446 -2.3381 -1.2881  0.5233
  621SOL    HW2 1863   2.161   1.827   1.276  1.1109  0.0602 -1.6678
  622SOL     OW 1864   2.216   0.999   1.845  0.3666  0.3730  0.2567
  622SOL    HW1 1865   2.296   0.936   1.859 -0.5624  2.5168 -0.5775
  622SOL    HW2 1866   2.121   0.974   1.887 -0.3911  0.7713  1.5234
  623SOL     OW 1867   1.283   0.881   2.569  0.2181  0.8885 -0.3019
  623SOL    HW1 1868   1.211   0.842   2.639  0.9561  1.7383  3.3293
  623SOL    HW2 1869   1.232   0.903   2.478 -0.6586  0.8489  0.1415
  624SOL     OW 1870   0.527   0.700   0.046  0.1740  0.1397 -0.5473
  624SOL    HW1 1871   0.539   0.721  -0.052  1.5847 -5.3838  1.7483
  624SOL    HW2 1872   0.542   0.767   0.121 -1.1765  0.7599 -1.1557
  625SOL     OW 1873   2.764   1.732   0.822  0.3525  0.6939 -0.6342
  625SOL    HW1 1874   2.766   1.729   0.927  0.4483 -2.0217 -0.5650
  625SOL    HW2 1875   2.707   1.659   0.775  2.0861 -0.3016 -1.0661
  626SOL     OW 1876   0.460   2.765   2.031 -1.0428  0.0603 -0.1635
  626SOL    HW1 1877   0.515   2.849   2.013 -1.0778 -1.0497 -1.3772
  626SOL    HW2 1878   0.371   2.763   1.981 -0.4167  0.8664  1.2326
  627SOL     OW 1879   0.750   1.053   1.524 -0.1111 -0.3878 -0.2315
  627SOL    HW1 1880   0.743   0.954   1.510  2.2583  0.4857  0.6240
  627SOL    HW2 1881   0.810   1.105   1.454 -1.4808 -2.8074  0.9653
  628SOL     OW 1882   2.432   0.164   0.724 -0.1822 -0.6279 -0.6799
  628SOL    HW1 1883   2.436   0.081   0.659 -1.2396  0.2985  1.1301
  628SOL    HW2 1884   2.336   0.186   0.741  3.0162  0.9477  0.2750
  629SOL     OW 1885   1.982   0.953   1.990 -0.3928  0.0130 -0.7818
  629SOL    HW1 1886   2.035   0.978   2.075  1.1430  1.1766  0.2128
  629SOL    HW2 1887   1.924   1.031   1.951 -1.1530  0.3139  3.9963
  630SOL     OW 1888   2.812   2.203   0.744  0.0574  0.0111 -0.0602
  630SOL    HW1 1889   2.720   2.244   0.778  1.4470 -1.5296 -0.6120
  630SOL    HW2 1890   2.795   2.104   0.723 -1.9313 -0.8668  0.7749
  631SOL     OW 1891   2.994   0.234   2.127 -1.5213  0.2170  0.4825
  631SOL    HW1 1892   3.047   0.246   2.214  0.3791 -3.0887 -0.4995
  631SOL    HW2 1893   3.048   0.200   2.046 -0.2145 -0.6887 -1.7524
  632SOL     OW 1894   2.308   2.525   0.765  0.6209 -0.7654 -0.1246
  632SOL    HW1 1895   2.375   2.591   0.806  3.8839 -2.8922 -1.2679
  632SOL    HW2 1896   2.311   2.525   0.660  3.2098  1.5298  1.7684
  633SOL     OW 1897   1.592   1.259   2.668 -0.1109  0.4199  0.2354
  633SOL    HW1 1898   1.602   1.326   2.745  0.8623  0.7752 -0.5137
  633SOL    HW2 1899   1.495   1.248   2.629 -0.4152  0.3989 -0.8125
  634SOL     OW 1900   0.645   2.077   0.963  0.6378  0.9073 -0.9166
  634SOL    HW1 1901   0.551   2.101   0.996 -1.3717  2.0562  2.6892
  634SOL    HW2 1902   0.718   2.152   0.974  0.1971 -1.3967  0.8611
  635SOL     OW 1903   0.071   2.238   3.026 -0.2517  0.0880 -0.7247
  635SOL    HW1 1904  -0.021   2.288   2.999 -3.5298 -1.8199 -2.9030
  635SOL    HW2 1905   0.108   2.273   3.118 -0.7630  1.5473  0.4047
  636SOL     OW 1906   2.327   2.881   2.045  0.1623  0.2502 -0.0193
  636SOL    HW1 1907   2.289   2.980   2.023 -2.2878  0.7535 -1.1889
  636SOL    HW2 1908   2.262   2.833   2.111 -1.0725 -0.0035  0.1310
  637SOL     OW 1909   2.606   0.709   2.057  0.0999  0.0232  0.0727
  637SOL    HW1 1910   2.575   0.727   1.961  1.7681  1.5521  2.0509
  637SOL    HW2 1911   2.654   0.794   2.091  0.1238 -1.4861  1.2608
  638SOL     OW 1912   2.469   1.894   1.412 -0.7015 -0.3760  0.5081
  638SOL    HW1 1913   2.367   1.909   1.385 -1.9200  2.3513 -1.1263
  638SOL    HW2 1914   2.491   1.792   1.438  1.0742  3.1648 -0.0982
  639SOL     OW 1915   1.314   2.264   1.564  0.0109  0.4690 -0.1843
  639SOL    HW1 1916   1.315   2.178   1.503  1.4252 -1.0107  0.4845
  639SOL    HW2 1917   1.223   2.269   1.612  0.5616  2.1530 -2.5926
  640SOL     OW 1918   0.220   1.240   1.530  0.0179  0.1009 -0.8298
  640SOL    HW1 1919   0.209   1.274   1.632  2.1423  1.2811  1.4608
  640SOL    HW2 1920   0.305   1.178   1.514 -0.1488  1.2470  0.2521
  641SOL     OW 1921   1.924   0.241   1.442 -0.0322  0.4373 -0.3965
  641SOL    HW1 1922   1.848   0.292   1.481 -0.3701  1.1355  1.6013
  641SOL    HW2 1923   1.950   0.159   1.500 -1.0729  0.9833 -2.7110
  642SOL     OW 1924   1.993   0.099   0.297  0.1012  0.2364  0.3973
  642SOL    HW1 1925   2.092   0.108   0.329  1.4678  0.6643  1.2010
  642SOL    HW2 1926   1.923   0.096   0.371 -0.6441 -0.2257 -2.4792
  643SOL     OW 1927   2.815   1.856   2.120 -0.2543  0.9195  0.4202
  643SOL    HW1 1928   2.772   1.781   2.059  1.8566  0.6889  0.2594
  643SOL    HW2 1929   2.832   1.939   2.059 -0.7343 -0.3185 -0.1145
  644SOL     OW 1930   2.168   2.258   1.239  0.0003 -0.1928  0.1018
  644SOL    HW1 1931   2.252   2.204   1.253 -0.8090  2.7206  0.0731
  644SOL    HW2 1932   2.134   2.300   1.325  1.7693  0.1838 -0.9601
  645SOL     OW 1933   0.660   0.863   1.161  0.6350 -0.4166 -0.1990
  645SOL    HW1 1934   0.593   0.792   1.117  0.8842 -2.2942  1.0009
  645SOL    HW2 1935   0.666   0.961   1.122  2.4513  0.8119 -0.0120
  646SOL     OW 1936   1.455   1.950   1.778 -0.4600 -0.3339  0.1552
  646SOL    HW1 1937   1.540   2.008   1.778  1.9875 -2.1736  1.4618
  646SOL    HW2 1938   1.406   1.953   1.866  2.6446 -0.6890 -0.4771
  647SOL     OW 1939   0.883   0.933   0.671  0.3292  0.0427  0.5128
  647SOL    HW1 1940   0.971   0.892   0.700 -0.8496  1.4089  1.4875
  647SOL    HW2 1941   0.806   0.887   0.726  2.6678 -2.1435  2.2695
  648SOL     OW 1942   0.168   0.235   0.328 -0.9198  0.4186  0.0295
  648SOL    HW1 1943   0.149   0.153   0.275 -2.6163 -0.6330 -0.4542
  648SOL    HW2 1944   0.138   0.316   0.273  0.9494  0.8227  0.8344
  649SOL     OW 1945   3.087   0.029   0.950  0.0308 -0.2431  0.5629
  649SOL    HW1 1946   3.186   0.036   0.932 -0.2038 -0.0088 -0.7721
  649SOL    HW2 1947   3.058   0.057   1.046 -2.1681 -0.6957 -0.0826
  650SOL     OW 1948   2.723   0.729   1.442  0.0482 -0.1275  0.0174
  650SOL    HW1 1949   2.620   0.717   1.474 -1.1417  2.4871  1.8535
  650SOL    HW2 1950   2.742   0.805   1.369  0.7046  0.0783 -2.3812
  651SOL     OW 1951   0.916   1.587   1.558  0.3031  0.1816 -0.3573
  651SOL    HW1 1952   0.969   1.668   1.581 -1.7557 -2.8499 -2.8152
  651SOL    HW2 1953   0.831   1.610   1.504 -0.7436 -2.8342  0.6743
  652SOL     OW 1954   2.300   2.521   2.393 -0.4887 -0.0478 -0.0120
  652SOL    HW1 1955   2.213   2.507   2.453  0.6666 -0.1732 -0.1020
  652SOL    HW2 1956   2.283   2.585   2.317 -3.9791  0.5676  1.0591
  653SOL     OW 1957   2.744   1.164   0.276  0.8336  0.3799 -0.1769
  653SOL    HW1 1958   2.783   1.256   0.300 -3.2815  0.7529  0.3661
  653SOL    HW2 1959   2.805   1.081   0.306  4.8230 -0.1023  0.2807
  654SOL     OW 1960   1.209   2.231   1.225 -0.0846 -0.3836  0.2053
  654SOL    HW1 1961   1.254   2.174   1.297 -0.3581 -0.9712  0.5454
  654SOL    HW2 1962   1.265   2.252   1.139  1.7843 -1.7161 -0.3444
  655SOL     OW 1963   0.234   1.049   1.846  0.1483 -0.1671  0.3764
  655SOL    HW1 1964   0.277   0.963   1.809  1.1826  1.2777  0.2775
  655SOL    HW2 1965   0.302   1.132   1.851  3.7561  3.0057  0.1628
  656SOL     OW 1966   2.498   2.436   2.570 -0.3874 -0.4097  0.1642
  656SOL    HW1 1967   2.597   2.464   2.564 -0.1029 -1.4580  0.9315
  656SOL    HW2 1968   2.443   2.468   2.490  1.2951  0.2097  3.9699
  657SOL     OW 1969   3.064   1.121   1.851 -0.3944  0.2467  0.4373
  657SOL    HW1 1970   3.022   1.192   1.914  0.1845  0.7366  1.1670
  657SOL    HW2 1971   3.168   1.119   1.853 -0.8443  0.3843 -0.2829
  658SOL     OW 1972   1.691   0.245   2.381 -0.5236 -0.4231  0.2146
  658SOL    HW1 1973   1.717   0.166   2.437  2.3716  2.7591 -3.0868
  658SOL    HW2 1974   1.759   0.255   2.300  2.7239 -1.0374 -0.1319
  659SOL     OW 1975   1.408   0.588   2.862 -0.2490  0.4433 -0.0685
  659SOL    HW1 1976   1.454   0.658   2.925  2.4285 -0.1586 -3.1139
  659SOL    HW2 1977   1.340   0.632   2.800 -0.4539  1.3942  1.1647
  660SOL     OW 1978   1.408   0.402   1.399  0.1581  0.1584 -0.0017
  660SOL    HW1 1979   1.417   0.405   1.501 -1.9783  0.7869  1.7421
  660SOL    HW2 1980   1.477   0.341   1.350  0.6265  2.7241  0.1864
  661SOL     OW 1981   2.464   1.152   0.676  0.0288 -0.4223 -0.0165
  661SOL    HW1 1982   2.492   1.084   0.603 -1.0904 -0.3378  0.9211
  661SOL    HW2 1983   2.444   1.247   0.637  0.0793 -0.7771 -2.3468
  662SOL     OW 1984   1.285   0.457   1.828  0.3154 -0.1033 -0.4190
  662SOL    HW1 1985   1.251   0.364   1.785 -1.7408 -1.7842 -0.0473
  662SOL    HW2 1986   1.216   0.484   1.907 -0.5956  0.7590  2.6095
  663SOL     OW 1987   0.850   1.576   2.163  0.4382 -0.4015  0.1626
  663SOL    HW1 1988   0.826   1.679   2.183  0.1119 -1.1239  2.0449
  663SOL    HW2 1989   0.784   1.535   2.091  2.6180 -1.2425 -3.1927
  664SOL     OW 1990   1.657   2.065   1.408  0.1100  0.7903 -0.0330
  664SOL    HW1 1991   1.591   1.988   1.423 -1.7599  2.8113 -2.2651
  664SOL    HW2 1992   1.754   2.036   1.435 -0.7954 -1.9295 -0.0654
  665SOL     OW 1993   2.294   0.610   1.989  0.1132 -0.4764 -0.0848
  665SOL    HW1 1994   2.296   0.514   2.031 -0.5693  2.0379  0.8825
  665SOL    HW2 1995   2.230   0.663   2.048  1.4942 -0.1594  0.0249
  666SOL     OW 1996   0.510   2.264   0.502 -0.2597 -0.0412  0.0168
  666SOL    HW1 1997   0.563   2.352   0.499  0.2331 -0.8700  1.6077
  666SOL    HW2 1998   0.456   2.253   0.592  2.0448 -1.9364 -2.4995
  667SOL     OW 1999   2.089   0.259   0.988  0.1022 -0.4191 -0.0538
  667SOL    HW1 2000   2.146   0.348   0.969  1.4839  0.1450  2.3250
  667SOL    HW2 2001   2.010   0.283   1.050  2.3735  0.1342  2.6379
  668SOL     OW 2002   1.953   0.542   1.240  0.6245  1.4377  1.0232
  668SOL    HW1 2003   2.013   0.551   1.153  0.7293 -1.3607 -1.4963
  668SOL    HW2 2004   2.008   0.520   1.324  0.9531 -1.4785  0.3187
  669SOL     OW 2005   2.989   2.078   0.946  0.0793  0.1903  0.0922
  669SOL    HW1 2006   2.933   2.116   0.873 -0.3170 -2.0448  4.2854
  669SOL    HW2 2007   2.963   2.109   1.038  2.0631 -1.1611 -3.5043
  670SOL     OW 2008   2.778   2.346   2.006 -0.1752 -0.2415  0.0423
  670SOL    HW1 2009   2.741   2.330   2.104 -1.3311 -2.0656 -2.4320
  670SOL    HW2 2010   2.758   2.443   1.973 -0.8676  0.9808  1.5376
  671SOL     OW 2011   1.698   1.680   1.462 -0.1875  0.2191  0.6178
  671SOL    HW1 2012   1.737   1.727   1.373  2.0273  0.3392 -2.7983
  671SOL    HW2 2013   1.606   1.640   1.447 -3.0055  3.6475 -1.8730
  672SOL     OW 2014   0.414   0.683   2.439 -0.3007 -0.2816 -0.3109
  672SOL    HW1 2015   0.436   0.679   2.338 -0.6636  0.8015  1.5550
  672SOL    HW2 2016   0.313   0.709   2.453 -3.8204  0.4493  0.5490
  673SOL     OW 2017   0.149   1.212   1.144 -0.1926  0.3931 -0.4141
  673SOL    HW1 2018   0.179   1.283   1.217 -0.1992 -2.9652  0.8953
  673SOL    HW2 2019   0.235   1.154   1.109  0.0142  0.6469  0.7532
  674SOL     OW 2020   1.535   2.871   0.146 -0.0127  0.6759  0.0638
  674SOL    HW1 2021   1.580   2.957   0.117  0.6577 -0.6537  4.2927
  674SOL    HW2 2022   1.584   2.787   0.106 -0.2640  0.9413 -0.3625
  675SOL     OW 2023   1.750   0.865   2.340 -0.0977 -0.1376  0.5300
  675SOL    HW1 2024   1.851   0.844   2.319  3.2793 -0.0686  0.3349
  675SOL    HW2 2025   1.687   0.802   2.287  0.4147 -0.9427 -0.4284
  676SOL     OW 2026   2.508   1.496   2.039 -0.5037  0.0560 -0.1158
  676SOL    HW1 2027   2.453   1.461   1.958  0.4084  0.8153  1.3571
  676SOL    HW2 2028   2.579   1.432   2.073 -0.0026  2.8523  0.4959
  677SOL     OW 2029   1.862   0.554   0.949  0.2444  0.3217 -0.3429
  677SOL    HW1 2030   1.882   0.614   1.027  0.1054  1.9160 -0.0998
  677SOL    HW2 2031   1.780   0.494   0.967  0.4524 -0.5523 -0.1061
  678SOL     OW 2032   0.097   0.840   1.659 -0.2723  0.4892 -0.3528
  678SOL    HW1 2033   0.189   0.828   1.705 -2.8919  0.3066 -0.9218
  678SOL    HW2 2034   0.019   0.829   1.728  0.1724 -3.0882 -0.6078
  679SOL     OW 2035   2.518   1.160   1.141 -0.8370  0.7666  0.2248
  679SOL    HW1 2036   2.420   1.176   1.154  1.4166 -1.2326  0.3864
  679SOL    HW2 2037   2.536   1.077   1.085 -0.5578  2.2939  1.3223
  680SOL     OW 2038   2.848   0.654   1.673  0.6088  0.2086  0.2446
  680SOL    HW1 2039   2.795   0.693   1.595 -2.0136  1.1540  0.3795
  680SOL    HW2 2040   2.892   0.723   1.732 -0.4020 -1.1305 -0.2737
  681SOL     OW 2041   3.048   0.125   1.651 -0.2467 -0.0129 -0.0318
  681SOL    HW1 2042   3.115   0.111   1.573  2.5256  0.5129  0.3831
  681SOL    HW2 2043   2.998   0.217   1.649  0.4757 -1.0039  1.6586
  682SOL     OW 2044   0.720   0.006   1.367  0.3889 -0.7513  0.2429
  682SOL    HW1 2045   0.654  -0.064   1.400  0.0337 -1.2080 -0.5844
  682SOL    HW2 2046   0.722   0.004   1.266  0.8289  2.2844  1.9877
  683SOL     OW 2047   1.369   0.236   2.166  0.1254  0.0254  0.0809
  683SOL    HW1 2048   1.372   0.270   2.265  0.8003 -0.4851 -2.4487
  683SOL    HW2 2049   1.451   0.269   2.111  1.1648  0.9207  1.4099
  684SOL     OW 2050   1.413   2.102   0.462  0.1283 -0.0636 -0.3250
  684SOL    HW1 2051   1.471   2.020   0.486 -0.1618 -0.2448  1.3214
  684SOL    HW2 2052   1.313   2.076   0.441  0.1030  0.5992 -1.1042
  685SOL     OW 2053   2.119   1.941   1.959 -0.5937  0.3786  0.3921
  685SOL    HW1 2054   2.176   2.000   1.893  1.8149 -0.1482 -1.7293
  685SOL    HW2 2055   2.171   1.866   2.006  0.6240  1.1266  0.4197
  686SOL     OW 2056   1.535   1.753   2.768 -0.3286 -0.1355 -0.1791
  686SOL    HW1 2057   1.510   1.654   2.760 -0.3683 -0.6098 -1.0826
  686SOL    HW2 2058   1.588   1.770   2.859  0.3263 -2.0077  3.0068
  687SOL     OW 2059   1.351   2.511   1.906  0.3062  0.4117 -0.0290
  687SOL    HW1 2060   1.358   2.439   1.828 -1.0989 -1.5793 -1.6471
  687SOL    HW2 2061   1.416   2.483   1.987  0.0250  0.5336 -0.7158
  688SOL     OW 2062   2.100   1.501   1.600  0.1090 -0.1567  0.0216
  688SOL    HW1 2063   2.194   1.521   1.555  0.2001  1.8557 -2.2482
  688SOL    HW2 2064   2.042   1.450   1.533  1.0055  4.0331 -1.9890
  689SOL     OW 2065   2.438   1.101   2.723 -0.4298 -0.2664 -0.9157
  689SOL    HW1 2066   2.350   1.065   2.760 -1.8425  1.6029 -0.9170
  689SOL    HW2 2067   2.514   1.087   2.796  1.4259 -1.8892  0.7370
  690SOL     OW 2068   2.208   2.750   3.080  0.0336 -0.2114 -0.2722
  690SOL    HW1 2069   2.152   2.702   3.007  1.3917  1.5448 -2.3739
  690SOL    HW2 2070   2.161   2.772   3.168  0.1650  0.1329  3.5331
  691SOL     OW 2071   2.565   0.480   2.195  0.3908  0.1179 -0.1299
  691SOL    HW1 2072   2.640   0.415   2.163 -0.6448  0.2535 -3.1093
  691SOL    HW2 2073   2.585   0.572   2.155  1.4459 -1.4925 -2.6330
  692SOL     OW 2074   2.737   1.209   0.686  0.0360 -0.5110 -0.0195
  692SOL    HW1 2075   2.637   1.195   0.682  0.2414 -1.3848 -0.2699
  692SOL    HW2 2076   2.755   1.293   0.745  1.1380 -1.9395 -0.2217
  693SOL     OW 2077   2.857   2.956   0.579 -0.1549 -0.3455  0.4214
  693SOL    HW1 2078   2.879   3.051   0.602  0.9355 -1.4119  0.8747
  693SOL    HW2 2079   2.790   2.954   0.504  1.6610  0.0154 -1.7871
  694SOL     OW 2080   2.364   2.115   0.074  0.4094  0.2951  0.1717
  694SOL    HW1 2081   2.352   2.218   0.074  1.3472 -3.9711 -1.8942
  694SOL    HW2 2082   2.282   2.055   0.071  1.7055 -3.4054  1.6595
  695SOL     OW 2083   0.545   2.930   1.493 -0.3421 -0.9175 -0.0724
  695SOL    HW1 2084   0.477   2.856   1.481  3.5770 -1.5037 -0.6901
  695SOL    HW2 2085   0.530   2.972   1.586  0.1685 -2.2531  2.0335
  696SOL     OW 2086   2.711   1.964   0.676  0.8348 -0.0574 -0.1778
  696SOL    HW1 2087   2.748   1.874   0.716 -0.0413  2.0250 -1.1676
  696SOL    HW2 2088   2.639   1.943   0.603  2.3431  0.6218  0.0802
  697SOL     OW 2089   1.680   2.089   1.743 -0.4778 -0.2869 -0.2433
  697SOL    HW1 2090   1.748   2.010   1.762  0.3662 -2.7957  1.2851
  697SOL    HW2 2091   1.740   2.168   1.714  0.1720 -1.2540 -2.8160
  698SOL     OW 2092   2.931   0.320   2.789  0.1937 -0.3949  0.6429
  698SOL    HW1 2093   2.923   0.292   2.689 -1.3129  0.3784 -3.5368
  698SOL    HW2 2094   2.999   0.261   2.849 -0.4179 -0.9609  1.0132
  699SOL     OW 2095   1.541   0.112   2.933 -0.6162  0.4435 -0.0334
  699SOL    HW1 2096   1.503   0.021   2.900  2.7057 -2.6926 -0.0015
  699SOL    HW2 2097   1.601   0.150   2.858 -1.2903  1.0449 -2.1546
  700SOL     OW 2098   0.980   2.354   1.401  0.2683 -0.2933  0.4795
  700SOL    HW1 2099   1.073   2.335   1.366  0.3432  3.1257 -0.7818
  700SOL    HW2 2100   0.906   2.352   1.324  0.7412  1.4494 -2.4237
  701SOL     OW 2101   1.857   2.803   0.043  0.1505  0.3824 -0.3891
  701SOL    HW1 2102   1.900   2.742   0.114  1.0291  2.1427  2.3932
  701SOL    HW2 2103   1.898   2.897   0.033  1.2298 -2.4301 -3.1940
  702SOL     OW 2104   2.097   1.397   1.874  0.1458 -0.2685 -0.5109
  702SOL    HW1 2105   2.167   1.328   1.890 -0.9001  0.1409  0.8756
  702SOL    HW2 2106   2.099   1.439   1.777 -0.2515  2.5062  1.9715
  703SOL     OW 2107   1.977   0.841   1.472  0.6300 -0.0334  0.1007
  703SOL    HW1 2108   1.957   0.742   1.505 -0.7059 -1.0838 -0.4885
  703SOL    HW2 2109   2.045   0.895   1.528 -0.8100  0.4393 -2.5626
  704SOL     OW 2110   0.332   2.032   1.761  0.1928  0.6774  0.4580
  704SOL    HW1 2111   0.354   1.966   1.838 -3.5052  1.3925  1.8490
  704SOL    HW2 2112   0.402   2.106   1.748 -3.6787 -1.8163  1.6981
  705SOL     OW 2113   2.542   1.406   0.858 -0.3169  0.2337 -0.7635
  705SOL    HW1 2114   2.441   1.399   0.870 -0.3745  0.1341 -0.4785
  705SOL    HW2 2115   2.594   1.398   0.947  0.6772  0.9959  2.0504
  706SOL     OW 2116   0.637   1.749   1.906  0.1722  0.0369  0.6191
  706SOL    HW1 2117   0.650   1.659   1.952 -2.2179  1.5267 -0.0902
  706SOL    HW2 2118   0.694   1.822   1.947  2.9475  0.9496  0.3975
  707SOL     OW 2119   2.298   1.238   1.950  0.1449  0.2685 -0.0478
  707SOL    HW1 2120   2.400   1.220   1.972  2.2399 -0.2779  3.5678
  707SOL    HW2 2121   2.256   1.150   1.912  0.8771  0.4785  0.7100
  708SOL     OW 2122   3.071   0.480   3.027 -0.5003  0.7537  0.1821
  708SOL    HW1 2123   3.104   0.539   2.954  1.1018 -1.0855 -0.4583
  708SOL    HW2 2124   3.044   0.388   3.001  4.1753  1.0802  1.1152
  709SOL     OW 2125   1.775   1.863   0.295 -0.5046 -0.2986 -0.5884
  709SOL    HW1 2126   1.795   1.958   0.334  0.7189  0.3418  2.0139
  709SOL    HW2 2127   1.829   1.850   0.210 -0.5321  1.6687  3.3902
  710SOL     OW 2128   1.759   1.634   2.454 -0.2049  0.4584 -0.1868
  710SOL    HW1 2129   1.817   1.624   2.371  2.7100 -0.1891 -0.1883
  710SOL    HW2 2130   1.808   1.597   2.541  0.4422 -0.3104  2.2225
  711SOL     OW 2131   2.640   2.954   0.965 -0.4198  0.0732 -0.0512
  711SOL    HW1 2132   2.664   3.055   0.940  2.2951  2.9709 -1.2852
  711SOL    HW2 2133   2.722   2.889   0.968  1.6285 -0.2192  2.3911
  712SOL     OW 2134   1.461   2.284   1.778  0.2204 -0.4380 -0.2650
  712SOL    HW1 2135   1.533   2.216   1.810 -1.2470 -1.3127 -2.2779
  712SOL    HW2 2136   1.417   2.257   1.689  1.4107 -0.5043 -1.4565
  713SOL     OW 2137   2.829   1.345   2.486  0.0655 -0.0352 -0.3351
  713SOL    HW1 2138   2.805   1.250   2.464  0.4550 -0.4059 -0.5531
  713SOL    HW2 2139   2.756   1.399   2.531  1.6992 -3.3531 -0.8176
  714SOL     OW 2140   2.636   0.458   2.441  0.1275 -0.5762  0.3870
  714SOL    HW1 2141   2.565   0.445   2.515  0.5786 -3.0222  1.4553
  714SOL    HW2 2142   2.595   0.452   2.345 -0.8389  0.5471  1.0143
  715SOL     OW 2143   1.609   2.113   1.128  0.3535  0.6320 -0.3356
  715SOL    HW1 2144   1.577   2.209   1.107  1.4200  0.3854 -0.6336
  715SOL    HW2 2145   1.610   2.100   1.229  0.3950 -0.7009 -0.0665
  716SOL     OW 2146   1.224   0.214   1.456 -0.0498  0.1940 -0.1621
  716SOL    HW1 2147   1.129   0.240   1.485  0.2990 -0.4168  1.2289
  716SOL    HW2 2148   1.277   0.297   1.420 -0.6351 -0.2390  2.5436
  717SOL     OW 2149   1.071   0.627   1.595 -0.4514 -0.1491  0.3326
  717SOL    HW1 2150   1.170   0.646   1.626 -2.3483  1.3749  0.6827
  717SOL    HW2 2151   1.068   0.586   1.495  0.0739  1.1212 -1.3344
  718SOL     OW 2152   0.655   1.086   0.979  0.4683  0.0923  0.0768
  718SOL    HW1 2153   0.627   1.088   0.876 -0.0176  2.2381 -0.3551
  718SOL    HW2 2154   0.722   1.166   1.006 -1.4230  1.1212  1.4238
  719SOL     OW 2155   0.765   1.847   2.249 -0.8574 -0.2699 -0.1297
  719SOL    HW1 2156   0.829   1.883   2.330 -1.9118  0.6490  0.3707
  719SOL    HW2 2157   0.673   1.815   2.277  3.3592  1.9846 -0.8688
  720SOL     OW 2158   2.251   1.111   0.230  0.5184  0.4862  0.5602
  720SOL    HW1 2159   2.350   1.091   0.211 -0.8166 -2.7940  1.1628
  720SOL    HW2 2160   2.233   1.091   0.330 -1.2753  0.9344 -0.0332
  721SOL     OW 2161   2.203   0.052   2.069  0.0255 -0.4231 -0.6905
  721SOL    HW1 2162   2.236   0.115   1.994 -0.2937 -0.3703 -2.0741
  721SOL    HW2 2163   2.106   0.065   2.101  0.5194  0.5725 -0.1418
  722SOL     OW 2164   2.349   1.665   0.504  0.7194  0.4148 -0.0849
  722SOL    HW1 2165   2.334   1.677   0.401 -1.0913  1.1743 -2.3705
  722SOL    HW2 2166   2.262   1.638   0.557  1.7474 -1.2442  0.9028
  723SOL     OW 2167   2.571   2.837   1.895 -0.3141 -0.0370  0.2653
  723SOL    HW1 2168   2.629   2.863   1.971 -0.0295  3.5717 -1.9767
  723SOL    HW2 2169   2.468   2.853   1.915 -1.4627  0.2253 -0.4551
  724SOL     OW 2170   0.388   2.434   2.411 -0.5347 -0.0676  0.1457
  724SOL    HW1 2171   0.285   2.456   2.410 -1.4768 -1.4104  1.7641
  724SOL    HW2 2172   0.413   2.399   2.508 -2.2502 -2.1757  3.1983
  725SOL     OW 2173   2.283   2.757   1.439 -0.3393 -0.0638  0.2959
  725SOL    HW1 2174   2.365   2.768   1.369 -1.6739  2.9128  1.4262
  725SOL    HW2 2175   2.294   2.664   1.489  0.3591 -0.5742  2.1080
  726SOL     OW 2176   2.388   2.255   0.785 -0.1604 -0.1435  0.7469
  726SOL    HW1 2177   2.364   2.348   0.813 -0.0772 -0.0427 -1.5020
  726SOL    HW2 2178   2.334   2.229   0.699  1.4500 -0.0509 -0.1987
  727SOL     OW 2179   0.218   0.004   0.152 -0.0318 -1.1620  0.1653
  727SOL    HW1 2180   0.276  -0.080   0.140  0.6826  0.7853  0.8405
  727SOL    HW2 2181   0.237   0.069   0.076  1.4647  1.4097  2.6421
  728SOL     OW 2182   2.791   0.713   1.046  0.9754 -0.4109 -0.0162
  728SOL    HW1 2183   2.742   0.646   0.982  0.7916 -2.4005  1.7517
  728SOL    HW2 2184   2.812   0.672   1.138 -0.1063  0.2627  1.3529
  729SOL     OW 2185   2.905   2.470   0.750 -0.7509 -0.1331  0.7696
  729SOL    HW1 2186   2.870   2.372   0.731  2.3120  0.0281 -1.1251
  729SOL    HW2 2187   3.013   2.479   0.756  2.2933  2.2088  1.1036
  730SOL     OW 2188   2.600   0.563   0.875  0.0924  0.2298  0.4291
  730SOL    HW1 2189   2.586   0.664   0.859  0.8481  2.0847 -1.7293
  730SOL    HW2 2190   2.684   0.520   0.829  2.0573 -4.4926 -2.0194
  731SOL     OW 2191   0.048   2.127   2.460  0.6737  0.3436  0.2537
  731SOL    HW1 2192   0.075   2.197   2.531 -2.1129  0.3141  0.8838
  731SOL    HW2 2193  -0.021   2.057   2.486 -1.8308 -2.2958  1.8231
  732SOL     OW 2194   1.138   2.840   1.958 -0.0982 -0.4503  0.7761
  732SOL    HW1 2195   1.163   2.788   2.044  0.1793  1.5058  0.1408
  732SOL    HW2 2196   1.170   2.794   1.869  1.7754  0.6167  1.4218
  733SOL     OW 2197   3.025   0.719   2.102 -0.2686  0.0215  0.4321
  733SOL    HW1 2198   3.106   0.783   2.103  0.8898 -1.4313 -1.7502
  733SOL    HW2 2199   3.041   0.637   2.039 -0.1971  0.3578  2.0857
  734SOL     OW 2200   1.396   0.362   2.700  0.3222  0.2151  0.1760
  734SOL    HW1 2201   1.431   0.431   2.770  0.0137  0.2333 -3.4789
  734SOL    HW2 2202   1.330   0.293   2.741  0.8001 -1.6597  1.0312
  735SOL     OW 2203   2.831   2.590   2.277  0.0692 -0.2654  0.1598
  735SOL    HW1 2204   2.740   2.605   2.228 -2.9841  1.2726  0.8476
  735SOL    HW2 2205   2.916   2.578   2.212 -0.8927 -0.1194 -2.3433
  736SOL     OW 2206   0.795   0.365   2.630 -0.2422 -0.7303  0.4444
  736SOL    HW1 2207   0.724   0.444   2.607  0.8488  3.1754 -1.1106
  736SOL    HW2 2208   0.827   0.324   2.538 -0.7660  2.1272 -0.1193
  737SOL     OW 2209   2.682   0.462   2.804  0.0879  0.0663  0.3370
  737SOL    HW1 2210   2.657   0.451   2.906  1.3241 -0.8060 -2.7067
  737SOL    HW2 2211   2.769   0.404   2.789 -1.2390 -0.5050  1.4522
  738SOL     OW 2212   1.662   1.210   3.031  0.2634 -0.1397  0.1228
  738SOL    HW1 2213   1.756   1.168   3.005 -1.5157  0.1616 -1.6842
  738SOL    HW2 2214   1.577   1.169   2.991 -0.0187 -1.0754 -1.2854
  739SOL     OW 2215   1.756   0.626   0.695 -0.4814 -0.1228 -0.3517
  739SOL    HW1 2216   1.777   0.607   0.796  0.7513 -0.1187  0.1958
  739SOL    HW2 2217   1.789   0.555   0.629  0.6332 -0.2265  0.3531
  740SOL     OW 2218   1.934   1.960   2.155 -0.1264  0.5168 -0.8015
  740SOL    HW1 2219   2.024   1.962   2.102 -0.6337  0.4681 -0.3613
  740SOL    HW2 2220   1.861   1.898   2.112 -3.0758  0.3960 -0.7210
  741SOL     OW 2221   2.496   0.134   2.567  0.0539  0.6314 -0.4954
  741SOL    HW1 2222   2.592   0.097   2.592 -1.1511 -0.2083 -0.2089
  741SOL    HW2 2223   2.464   0.098   2.478 -0.7413  0.9966 -0.6538
  742SOL     OW 2224   2.254   1.378   0.099  0.2058 -0.0576 -0.4672
  742SOL    HW1 2225   2.162   1.412   0.138  1.2605 -1.1278 -0.2798
  742SOL    HW2 2226   2.285   1.297   0.157  2.5941  2.4718  0.6284
  743SOL     OW 2227   1.747   0.612   2.603  0.0726  0.6478  0.2309
  743SOL    HW1 2228   1.770   0.551   2.519 -0.0598 -0.4084 -0.8780
  743SOL    HW2 2229   1.673   0.683   2.577  1.8913  0.3562 -1.3128
  744SOL     OW 2230   2.634   2.093   0.027 -0.2479 -0.0969 -0.2707
  744SOL    HW1 2231   2.529   2.093   0.039 -0.9306 -0.3906 -3.4327
  744SOL    HW2 2232   2.683   2.045   0.104 -1.9802  0.1705 -2.5858
  745SOL     OW 2233   2.162   2.717   2.211  0.5944  0.1017 -0.2303
  745SOL    HW1 2234   2.068   2.683   2.181 -2.1275  2.3296 -1.5641
  745SOL    HW2 2235   2.174   2.744   2.315  1.1690 -1.6814  0.6065
  746SOL     OW 2236   3.092   2.619   1.834  0.4405  0.0597  0.0834
  746SOL    HW1 2237   3.188   2.599   1.810  0.0063 -0.6970  1.2906
  746SOL    HW2 2238   3.060   2.715   1.822 -0.6060 -0.7449  2.2145
  747SOL     OW 2239   3.094   1.803   1.715  0.9130  0.2690  0.4445
  747SOL    HW1 2240   3.076   1.706   1.682 -0.8418 -0.3496  0.1548
  747SOL    HW2 2241   3.161   1.851   1.653 -0.8666 -0.8784 -0.7848
  748SOL     OW 2242   1.749   2.776   2.886  0.1298  0.1602  0.5660
  748SOL    HW1 2243   1.767   2.789   2.988  3.5860 -1.4190 -1.2953
  748SOL    HW2 2244   1.657   2.730   2.859 -0.7433 -0.8386 -1.8643
  749SOL     OW 2245   1.270   0.077   0.849  0.1670  0.0592  0.7008
  749SOL    HW1 2246   1.239  -0.018   0.875  1.1460 -0.2014 -0.7299
  749SOL    HW2 2247   1.302   0.078   0.753 -1.2572  0.3918  0.5629
  750SOL     OW 2248   2.368   0.224   1.888 -0.5830  0.4428 -0.7400
  750SOL    HW1 2249   2.405   0.288   1.818  1.1366  0.9724 -0.8652
  750SOL    HW2 2250   2.352   0.271   1.983 -0.8055  1.0003  3.9366
  751SOL     OW 2251   0.844   2.234   2.851 -0.2007  0.0318  0.2647
  751SOL    HW1 2252   0.920   2.221   2.920 -2.7084  0.7804 -0.7547
  751SOL    HW2 2253   0.764   2.172   2.870 -0.2574  0.1384  2.1989
  752SOL     OW 2254   1.236   0.930   1.554 -0.1681  0.3809 -0.7082
  752SOL    HW1 2255   1.290   0.959   1.469  1.6457  0.8038 -0.8723
  752SOL    HW2 2256   1.283   0.848   1.600 -0.0552  0.1610  0.7398
  753SOL     OW 2257   0.930   2.622   1.791 -0.1514 -0.3279  0.3447
  753SOL    HW1 2258   1.014   2.671   1.759 -1.8459 -1.4404  1.7231
  753SOL    HW2 2259   0.848   2.674   1.753 -2.6026  0.1736  3.3389
  754SOL     OW 2260   1.133   1.261   3.062  0.3223  0.9484 -0.3081
  754SOL    HW1 2261   1.203   1.216   2.995  2.0854 -2.7376 -1.9923
  754SOL    HW2 2262   1.116   1.362   3.043  2.3766  0.6696  0.2065
  755SOL     OW 2263   2.000   0.526   2.221  0.4397  0.1515 -0.3672
  755SOL    HW1 2264   2.068   0.479   2.288  0.1653  4.0049  0.2273
  755SOL    HW2 2265   1.905   0.504   2.258 -0.5326  1.2714  0.8573
  756SOL     OW 2266   2.632   0.983   2.915 -0.3080 -0.3813  0.1502
  756SOL    HW1 2267   2.724   0.929   2.923  1.8492 -1.9752 -0.3494
  756SOL    HW2 2268   2.564   0.950   2.991  0.1599 -2.6199 -1.2992
  757SOL     OW 2269   0.119   0.548   1.701 -0.5297  0.0681 -0.6951
  757SOL    HW1 2270   0.123   0.645   1.675  0.1183 -0.4139  0.6179
  757SOL    HW2 2271   0.155   0.486   1.625 -2.3521  0.1698  0.1433
  758SOL     OW 2272   2.418   3.089   1.535  0.5616  0.3441 -0.2889
  758SOL    HW1 2273   2.332   3.051   1.580 -0.2301 -1.6094 -2.4408
  758SOL    HW2 2274   2.400   3.116   1.440  1.0751 -0.6261 -1.4138
  759SOL     OW 2275   1.665   3.097   0.070 -0.4142  0.5068 -0.0814
  759SOL    HW1 2276   1.622   3.151  -0.013 -2.9825  1.9888 -0.4003
  759SOL    HW2 2277   1.768   3.080   0.056  1.3659  0.6587  2.4687
  760SOL     OW 2278   2.729   2.006   2.811  0.3718 -0.1451  0.1416
  760SOL    HW1 2279   2.805   1.958   2.763 -0.0251 -0.2825  1.0359
  760SOL    HW2 2280   2.743   2.103   2.839  0.1859  2.6563  0.0982
  761SOL     OW 2281   1.917   1.722   1.598 -0.7783  0.9839 -0.1524
  761SOL    HW1 2282   1.975   1.636   1.624  0.1303  1.6179  0.4367
  761SOL    HW2 2283   1.830   1.696   1.546 -0.4915 -1.4335  0.3891
  762SOL     OW 2284   0.533   2.409   0.946  0.2619  0.1451  0.2490
  762SOL    HW1 2285   0.586   2.430   0.861 -1.5856  3.4234  0.7340
  762SOL    HW2 2286   0.585   2.453   1.030  0.7630 -0.1692 -0.6329
  763SOL     OW 2287   2.040   1.558   2.962 -0.8639  0.1822 -0.6641
  763SOL    HW1 2288   2.076   1.488   2.898 -0.9428 -0.2530  1.3631
  763SOL    HW2 2289   1.985   1.508   3.032  0.5925  1.2072  1.6507
  764SOL     OW 2290   0.675   0.529   0.877 -0.3309 -0.0364 -0.2413
  764SOL    HW1 2291   0.680   0.462   0.800  0.8426  0.1453  1.3344
  764SOL    HW2 2292   0.771   0.557   0.908 -1.7043 -0.3118 -4.2912
  765SOL     OW 2293   0.660   0.220   0.792 -0.2618 -0.5907  0.4213
  765SOL    HW1 2294   0.750   0.234   0.745 -2.0548 -1.2798  0.3390
  765SOL    HW2 2295   0.673   0.209   0.894 -0.9646 -0.6544  0.6069
  766SOL     OW 2296   2.942   2.045   3.086  0.0246 -0.2328 -0.7712
  766SOL    HW1 2297   2.842   2.033   3.063 -0.6342  1.1476 -1.0138
  766SOL    HW2 2298   2.985   2.133   3.060  0.3962 -2.8861  1.7975
  767SOL     OW 2299   2.849   1.569   0.505 -0.4461  0.0621 -0.0752
  767SOL    HW1 2300   2.753   1.538   0.517  0.6025  1.2591  0.4171
  767SOL    HW2 2301   2.900   1.578   0.593 -0.2771 -0.4496  0.4650
  768SOL     OW 2302   1.057   0.279   0.288 -0.1389  0.0096 -0.4057
  768SOL    HW1 2303   0.976   0.223   0.330  1.0229  2.9114  1.7196
  768SOL    HW2 2304   1.140   0.221   0.262 -0.4463 -0.6508 -0.4322
  769SOL     OW 2305   1.217   1.820   2.287  0.2432 -0.0583  0.8533
  769SOL    HW1 2306   1.300   1.812   2.345  1.7596 -1.8378  3.4258
  769SOL    HW2 2307   1.177   1.728   2.275  3.8916  2.9966  1.4292
  770SOL     OW 2308   0.144   1.135   2.368 -0.1173 -0.4380 -0.6481
  770SOL    HW1 2309   0.158   1.195   2.452  0.2013  0.3493  0.1516
  770SOL    HW2 2310   0.062   1.168   2.304 -3.7091  3.4753 -2.7655
  771SOL     OW 2311   2.930   2.838   1.940  0.3453  0.0341 -0.3651
  771SOL    HW1 2312   2.948   2.912   1.865  2.2501  1.2540  0.0448
  771SOL    HW2 2313   2.876   2.862   2.018  1.4684 -0.8868 -1.1725
  772SOL     OW 2314   2.130   0.105   2.977 -0.4907 -0.1193  0.1182
  772SOL    HW1 2315   2.203   0.037   3.012 -1.0669 -1.1083 -1.0167
  772SOL    HW2 2316   2.138   0.198   3.022 -2.8650 -1.8532  0.7128
  773SOL     OW 2317   0.669   2.094   2.476 -0.0825  0.2824  0.3375
  773SOL    HW1 2318   0.621   2.111   2.387 -0.4638  0.4946  0.9964
  773SOL    HW2 2319   0.600   2.103   2.552  0.3338  2.9013  0.9407
  774SOL     OW 2320   2.028   3.076   2.631 -0.2942 -0.7169  0.4646
  774SOL    HW1 2321   2.024   3.165   2.689  1.2964  1.8342  2.2867
  774SOL    HW2 2322   2.094   3.008   2.675 -1.2747  2.1015  1.6212
  775SOL     OW 2323   2.501   2.855   2.352  0.2926  0.4113  0.9337
  775SOL    HW1 2324   2.465   2.954   2.338 -1.4692 -1.3821 -0.9277
  775SOL    HW2 2325   2.599   2.844   2.393  1.9957  2.5773  1.1873
  776SOL     OW 2326   0.020   1.231   0.223 -0.8552 -0.5192  0.5236
  776SOL    HW1 2327  -0.008   1.139   0.187  3.5964  0.9947  0.7158
  776SOL    HW2 2328  -0.061   1.287   0.252 -0.2860  0.0578 -0.4050
  777SOL     OW 2329   0.267   2.703   0.454  0.4265  0.4682  0.0572
  777SOL    HW1 2330   0.166   2.689   0.463  0.7484 -0.0851 -1.0911
  777SOL    HW2 2331   0.297   2.800   0.483  0.8660  0.2636  0.0161
  778SOL     OW 2332   1.346   1.952   0.188 -0.5438  0.3084  0.0393
  778SOL    HW1 2333   1.269   1.968   0.254 -0.5065 -1.3250 -1.1223
  778SOL    HW2 2334   1.375   2.037   0.136 -0.2055 -0.4764  1.4699
  779SOL     OW 2335   0.189   0.803   0.538  0.0015  0.1175 -0.1967
  779SOL    HW1 2336   0.164   0.706   0.501  0.0610  0.8671 -2.8662
  779SOL    HW2 2337   0.115   0.850   0.600 -2.8237 -0.6375  1.9390
  780SOL     OW 2338   0.002   0.315   2.389  0.0272 -0.5097 -0.1406
  780SOL    HW1 2339  -0.045   0.406   2.368 -0.6681  0.1980 -0.0774
  780SOL    HW2 2340   0.092   0.298   2.336 -0.2603 -1.3564 -0.0204
  781SOL     OW 2341   0.589   1.729   1.627 -0.0974  0.6906 -0.2731
  781SOL    HW1 2342   0.620   1.740   1.722  1.1407  3.2827 -1.8458
  781SOL    HW2 2343   0.512   1.657   1.612  1.2780 -2.3891  0.0891
  782SOL     OW 2344   2.638   0.107   0.889  0.1993  0.1364 -0.4057
  782SOL    HW1 2345   2.572   0.118   0.810 -2.5381 -0.6135  0.7266
  782SOL    HW2 2346   2.613   0.177   0.961 -0.4510  2.7728 -0.0942
  783SOL     OW 2347   2.816   0.680   2.500  0.0362  0.1663  0.4946
  783SOL    HW1 2348   2.784   0.711   2.597  0.3529  1.5347  1.8815
  783SOL    HW2 2349   2.758   0.612   2.448  0.6648 -2.4090 -2.1523
  784SOL     OW 2350   1.388   2.169   0.044 -0.1946  0.2725 -0.2469
  784SOL    HW1 2351   1.474   2.212   0.069 -1.3333 -2.3969 -2.0369
  784SOL    HW2 2352   1.373   2.145  -0.058 -1.4914 -1.7942 -0.1136
  785SOL     OW 2353   2.130   0.344   0.017  0.3566 -0.0072  0.0290
  785SOL    HW1 2354   2.044   0.369   0.080 -0.7315  1.9796 -1.9706
  785SOL    HW2 2355   2.171   0.429  -0.037  0.5983  1.5660 -0.9220
  786SOL     OW 2356   2.042   2.152   2.311  0.7558  0.2266 -0.2203
  786SOL    HW1 2357   1.975   2.094   2.261 -3.2858  0.3399 -0.7380
  786SOL    HW2 2358   2.132   2.100   2.322  1.6702 -1.1847 -0.7295
  787SOL     OW 2359   1.423   0.612   0.804  0.3086 -0.1641 -0.3525
  787SOL    HW1 2360   1.393   0.706   0.792  0.6627 -0.3498 -2.8706
  787SOL    HW2 2361   1.489   0.582   0.729 -1.3559  1.6239 -0.4409
  788SOL     OW 2362   1.218   0.463   3.016 -0.3590  0.2248 -0.2576
  788SOL    HW1 2363   1.121   0.464   2.975  2.0541  1.3076 -0.1865
  788SOL    HW2 2364   1.285   0.520   2.956  2.9409  0.3169 -1.4094
  789SOL     OW 2365   2.647   0.101   1.879  0.2740 -0.5001  0.0994
  789SOL    HW1 2366   2.549   0.067   1.874  2.5759  0.8265 -0.4900
  789SOL    HW2 2367   2.714   0.032   1.843  2.3106 -1.4386  0.4073
  790SOL     OW 2368   2.607   2.671   0.805  0.5444  0.0059  0.0506
  790SOL    HW1 2369   2.682   2.679   0.734 -3.2594 -0.0487 -1.4031
  790SOL    HW2 2370   2.615   2.747   0.874  0.5620  0.0708  3.8084
  791SOL     OW 2371   1.972   1.233   0.238 -0.2488 -0.9616 -0.3577
  791SOL    HW1 2372   1.889   1.170   0.270 -1.3195 -1.2609  0.4259
  791SOL    HW2 2373   2.040   1.177   0.189 -1.2919  2.3333 -2.4884
  792SOL     OW 2374   0.428   1.979   2.186 -0.0270 -0.4682 -0.2172
  792SOL    HW1 2375   0.445   2.079   2.193 -1.3720 -1.2672 -0.8367
  792SOL    HW2 2376   0.344   1.944   2.235 -0.0974 -1.4801 -1.1039
  793SOL     OW 2377   2.091   1.507   2.139  0.5906 -0.6787 -1.0395
  793SOL    HW1 2378   2.194   1.534   2.133 -2.4894  1.9776  1.3993
  793SOL    HW2 2379   2.055   1.453   2.058 -4.2415 -0.6439 -1.7763
  794SOL     OW 2380   0.521   1.503   2.462  0.1569  0.7014 -0.5711
  794SOL    HW1 2381   0.584   1.456   2.391  3.1782 -0.2602  3.1661
  794SOL    HW2 2382   0.430   1.534   2.421 -2.3867 -1.1611 -0.7596
  795SOL     OW 2383   2.508   2.303   1.801 -0.5045 -0.2467 -0.2164
  795SOL    HW1 2384   2.560   2.285   1.891 -0.2504 -0.4689  2.6973
  795SOL    HW2 2385   2.433   2.237   1.788  0.9647 -0.1658  1.9962
  796SOL     OW 2386   3.049   1.080   2.723 -0.4294  0.2045 -0.1337
  796SOL    HW1 2387   2.957   1.105   2.756  1.3296  2.1512  2.3729
  796SOL    HW2 2388   3.122   1.095   2.794  0.9841  0.1408 -0.7245
  797SOL     OW 2389   0.652   0.654   1.345 -0.0065 -0.1939 -0.0395
  797SOL    HW1 2390   0.700   0.688   1.429 -4.0947  0.9511  0.3231
  797SOL    HW2 2391   0.638   0.733   1.282  2.0827  0.5869  2.5754
  798SOL     OW 2392   1.169   0.512   0.905  0.3832  0.3551 -0.0490
  798SOL    HW1 2393   1.196   0.511   1.009 -0.5567 -1.5589 -1.3820
  798SOL    HW2 2394   1.253   0.519   0.849  0.7695 -1.1297  0.1338
  799SOL     OW 2395   1.826   2.697   1.001  0.5061  0.2388 -0.0734
  799SOL    HW1 2396   1.827   2.598   1.040 -2.1179  0.5819 -4.1888
  799SOL    HW2 2397   1.876   2.714   0.913  0.1976 -0.1052  0.5829
  800SOL     OW 2398   2.977   0.846   1.848  0.6708 -0.0338  0.7018
  800SOL    HW1 2399   3.002   0.946   1.852  0.9756 -1.2386 -1.8417
  800SOL    HW2 2400   2.988   0.797   1.938  1.6112 -0.5436 -1.7895
  801SOL     OW 2401   1.963   2.173   0.105  0.0212  0.4748 -0.4848
  801SOL    HW1 2402   1.867   2.150   0.070  0.3402 -1.2940  1.6837
  801SOL    HW2 2403   2.028   2.094   0.084 -0.8433 -1.5257  3.0304
  802SOL     OW 2404   0.679   0.614   2.523  0.3747  0.4722  0.2433
  802SOL    HW1 2405   0.731   0.628   2.434 -0.0382  0.6692  2.0163
  802SOL    HW2 2406   0.579   0.640   2.522  1.3623 -1.4709  1.5639
  803SOL     OW 2407   0.929   0.072   0.897 -0.0757  0.3878  0.1185
  803SOL    HW1 2408   0.986   0.138   0.951 -1.3010  0.4877  0.5615
  803SOL    HW2 2409   0.939   0.100   0.796 -0.9659  0.8385 -1.6674
  804SOL     OW 2410   0.298   0.020   2.187 -0.6764  0.2599 -0.4147
  804SOL    HW1 2411   0.268   0.121   2.197  0.2779  0.2035  0.3501
  804SOL    HW2 2412   0.258  -0.029   2.102  0.0657 -0.4275  0.9466
  805SOL     OW 2413   2.416   0.378   0.341 -0.1492  0.2515 -0.2522
  805SOL    HW1 2414   2.473   0.346   0.421 -0.7715 -0.9395 -1.8592
  805SOL    HW2 2415   2.410   0.310   0.268 -1.7653  1.5412  0.9751
  806SOL     OW 2416   0.580   2.605   1.837 -0.6760  0.8385  0.4894
  806SOL    HW1 2417   0.554   2.651   1.923  0.1965 -1.2456  0.2167
  806SOL    HW2 2418   0.623   2.674   1.770 -0.9871  0.7364  1.6461
  807SOL     OW 2419   2.516   0.945   0.466 -0.0992  0.4218 -0.0529
  807SOL    HW1 2420   2.596   0.877   0.481  1.4164 -2.6394  0.4403
  807SOL    HW2 2421   2.511   0.991   0.375 -0.8502 -1.2072 -0.6332
  808SOL     OW 2422   0.648   2.016   2.903  0.3203  0.0785 -0.0420
  808SOL    HW1 2423   0.619   2.059   2.996  0.5552  1.7254  1.1303
  808SOL    HW2 2424   0.681   1.919   2.920 -0.9038 -0.6801 -0.2931
  809SOL     OW 2425   2.584   1.971   1.909  0.4356  0.0872  0.2159
  809SOL    HW1 2426   2.669   2.016   1.942 -1.1064 -2.2006 -0.2945
  809SOL    HW2 2427   2.552   1.983   1.810  0.5320 -1.3273  2.5778
  810SOL     OW 2428   2.211   1.118   0.489 -0.1900 -0.3914 -0.2781
  810SOL    HW1 2429   2.158   1.031   0.509 -1.1145  1.7723 -1.1032
  810SOL    HW2 2430   2.166   1.210   0.517  2.6765  1.1837  1.4744
  811SOL     OW 2431   1.293   2.520   1.168  0.1768 -0.6707 -0.7467
  811SOL    HW1 2432   1.254   2.426   1.149 -0.6818  0.5213 -0.3841
  811SOL    HW2 2433   1.364   2.504   1.241 -1.4464 -3.1120 -1.6114
  812SOL     OW 2434   1.467   0.746   1.932  0.5502  0.3935  0.5980
  812SOL    HW1 2435   1.373   0.756   1.967  0.8335 -4.4391 -1.7062
  812SOL    HW2 2436   1.507   0.824   1.875 -1.0947 -1.5601  0.6123
  813SOL     OW 2437   1.660   2.076   2.384  0.4541 -0.2311  0.3583
  813SOL    HW1 2438   1.739   2.021   2.419  0.5487  1.1192  0.0124
  813SOL    HW2 2439   1.620   2.026   2.303  0.6120 -1.0701 -0.7670
  814SOL     OW 2440   2.992   1.675   2.884 -0.3297 -0.6296  0.4696
  814SOL    HW1 2441   3.017   1.606   2.955 -4.2312  0.3385 -1.0562
  814SOL    HW2 2442   3.012   1.773   2.914  0.5877 -0.9076  2.6790
  815SOL     OW 2443   2.185   2.871   2.741  0.3335  0.2640 -0.1289
  815SOL    HW1 2444   2.141   2.808   2.813 -0.4621 -0.4249 -2.0153
  815SOL    HW2 2445   2.254   2.937   2.778 -0.2102 -0.0479  2.0542
  816SOL     OW 2446   1.491   0.356   1.664 -0.4343  0.5852 -0.8004
  816SOL    HW1 2447   1.533   0.267   1.697  0.3842  2.6235 -1.2621
  816SOL    HW2 2448   1.453   0.421   1.734 -0.5551  2.4811 -3.1502
  817SOL     OW 2449   0.369   1.322   2.620 -0.2256 -0.0346 -0.2144
  817SOL    HW1 2450   0.267   1.350   2.615 -2.5413 -2.0947 -0.5521
  817SOL    HW2 2451   0.427   1.377   2.553  3.3659 -1.8314 -0.1367
  818SOL     OW 2452   2.014   0.864   0.469 -0.4896  0.1506 -0.1016
  818SOL    HW1 2453   2.110   0.877   0.429  2.0201  0.2173 -0.7481
  818SOL    HW2 2454   2.011   0.846   0.569  1.2426  0.2749  1.3012
  819SOL     OW 2455   2.794   2.891   3.026  0.1936  0.2458 -0.4239
  819SOL    HW1 2456   2.845   2.804   3.014 -0.5470  1.2089 -1.2035
  819SOL    HW2 2457   2.722   2.893   2.956  0.6533 -0.5909 -3.0854
  820SOL     OW 2458   1.264   1.044   0.536 -0.1113 -0.2160  0.1378
  820SOL    HW1 2459   1.248   1.129   0.596 -1.0527  3.2025 -1.2889
  820SOL    HW2 2460   1.268   0.959   0.597 -1.4691 -2.4410  0.2765
  821SOL     OW 2461   0.071   1.231   0.689 -0.3117  0.6016 -0.0750
  821SOL    HW1 2462   0.024   1.205   0.773  3.0478  0.5536 -0.9316
  821SOL    HW2 2463   0.144   1.309   0.703 -0.7144 -0.6600  1.7689
  822SOL     OW 2464   2.534   1.726   2.476  0.1493 -0.0047  0.1907
  822SOL    HW1 2465   2.541   1.790   2.558  0.6576 -2.3210  0.0680
  822SOL    HW2 2466   2.442   1.723   2.430  0.2043 -1.0255 -0.6274
  823SOL     OW 2467   2.023   0.925   1.221  0.0794 -0.6260  0.1820
  823SOL    HW1 2468   1.994   0.890   1.319  2.2771  1.8854  0.2210
  823SOL    HW2 2469   1.962   0.888   1.144  0.7986 -1.6790 -1.8720
  824SOL     OW 2470   0.181   1.884   2.792 -0.1036 -0.3339  0.5368
  824SOL    HW1 2471   0.215   1.850   2.881  0.3477 -0.4750  0.8329
  824SOL    HW2 2472   0.258   1.873   2.722 -0.4206  1.6709 -0.4578
  825SOL     OW 2473   1.302   1.071   0.264  0.0884 -0.2508 -0.0984
  825SOL    HW1 2474   1.292   1.171   0.245 -2.8101 -1.5691 -0.4483
  825SOL    HW2 2475   1.290   1.056   0.371 -1.3111  0.3646  1.2524
  826SOL     OW 2476   1.939   0.604   1.588  0.2415  0.1743 -0.3308
  826SOL    HW1 2477   2.032   0.552   1.586  1.4285  0.4606 -1.6576
  826SOL    HW2 2478   1.855   0.542   1.568 -0.3179  1.5586 -1.2600
  827SOL     OW 2479   0.703   1.184   0.454 -0.0469 -0.5171  0.6170
  827SOL    HW1 2480   0.794   1.136   0.443  1.7023  0.1738  2.7103
  827SOL    HW2 2481   0.619   1.119   0.434 -1.0384 -2.5946  3.3007
  828SOL     OW 2482   2.637   0.158   1.531  0.2708  0.3601  0.5125
  828SOL    HW1 2483   2.545   0.105   1.520 -0.6374  0.7213 -0.2777
  828SOL    HW2 2484   2.656   0.181   1.628 -0.5434 -0.9334 -1.9102
  829SOL     OW 2485   2.928   2.384   2.974 -0.2009 -0.5841  0.3479
  829SOL    HW1 2486   2.829   2.363   2.985  2.0038  1.3607 -1.0403
  829SOL    HW2 2487   2.954   2.486   2.977 -0.5190  0.2626 -1.7358
  830SOL     OW 2488   2.914   0.911   2.992  0.4469  0.7053  0.3402
  830SOL    HW1 2489   2.954   1.004   3.024  0.2612  1.2676  1.9583
  830SOL    HW2 2490   2.887   0.847   3.069  1.8316  2.3084  1.2274
  831SOL     OW 2491   0.123   0.564   0.439 -0.3774  0.0313  0.3912
  831SOL    HW1 2492   0.097   0.504   0.521 -1.4784 -0.8784 -0.1167
  831SOL    HW2 2493   0.122   0.506   0.351  1.9349 -1.4295  0.0314
  832SOL     OW 2494   1.793   0.713   3.060 -0.0480  0.2282  0.3887
  832SOL    HW1 2495   1.705   0.758   3.023  0.2999  2.1402  2.5942
  832SOL    HW2 2496   1.798   0.612   3.060 -0.2756  1.0949 -0.8845
  833SOL     OW 2497   2.360   2.118   0.520 -0.1016  0.1799  0.3305
  833SOL    HW1 2498   2.260   2.095   0.507  1.1243 -1.4995  0.9813
  833SOL    HW2 2499   2.418   2.038   0.502 -0.2730  2.0584 -2.0358
  834SOL     OW 2500   0.145   0.055   0.555 -0.5100 -0.1669 -0.2665
  834SOL    HW1 2501   0.202  -0.030   0.529 -0.0894  1.5981  1.4215
  834SOL    HW2 2502   0.158   0.134   0.491 -0.9841  0.0686 -1.0321
  835SOL     OW 2503   2.433   1.615   1.147  0.2430  0.6694  0.7151
  835SOL    HW1 2504   2.511   1.554   1.168  0.5808  1.2966 -0.2204
  835SOL    HW2 2505   2.459   1.714   1.131 -0.6208 -1.7544  0.4777
  836SOL     OW 2506   1.559   0.813   2.585 -0.0397  0.1063 -0.4033
  836SOL    HW1 2507   1.459   0.810   2.570  2.4779 -0.5904  2.0249
  836SOL    HW2 2508   1.608   0.850   2.501 -1.0284 -1.6705 -2.9322
  837SOL     OW 2509   1.706   0.123   0.529  0.3816 -0.2831  0.0814
  837SOL    HW1 2510   1.655   0.184   0.596  0.2482  0.6498  0.3036
  837SOL    HW2 2511   1.656   0.106   0.439  2.7599 -0.9891  1.6109
  838SOL     OW 2512   1.232   1.466   2.694  0.2125  0.0842  0.2494
  838SOL    HW1 2513   1.158   1.520   2.740  0.4052  1.6931 -0.6117
  838SOL    HW2 2514   1.197   1.373   2.665 -3.8060  0.6400  2.7918
  839SOL     OW 2515   1.638   0.377   0.967  0.9656  0.0604 -0.2311
  839SOL    HW1 2516   1.597   0.457   1.022 -1.1444 -1.5878  0.0689
  839SOL    HW2 2517   1.598   0.290   0.998 -0.3888  4.1959  2.6192
  840SOL     OW 2518   2.655   2.963   1.653 -0.2433  0.1256 -0.2059
  840SOL    HW1 2519   2.578   3.026   1.629  0.4328  0.0933  2.8863
  840SOL    HW2 2520   2.638   2.904   1.735 -1.0465 -0.3925 -0.2687
  841SOL     OW 2521   1.526   0.825   2.995  0.1882 -0.1788  1.0517
  841SOL    HW1 2522   1.531   0.851   3.095  2.5016  0.9998 -2.2039
  841SOL    HW2 2523   1.535   0.912   2.931  3.4205  0.0746  2.5762
  842SOL     OW 2524   0.833   1.626   1.001 -0.6664 -0.1322 -0.0591
  842SOL    HW1 2525   0.769   1.710   1.030 -1.0775  1.5608 -2.0760
  842SOL    HW2 2526   0.786   1.549   0.954  2.2766 -0.7453  1.8955
  843SOL     OW 2527   0.154   0.052   1.472  0.4622 -0.3296 -0.2039
  843SOL    HW1 2528   0.247   0.092   1.494  0.4124 -2.1985 -0.2975
  843SOL    HW2 2529   0.151  -0.043   1.435  0.6408  0.4254  3.3030
  844SOL     OW 2530   0.703   2.496   0.209 -0.5184 -0.1284 -0.0105
  844SOL    HW1 2531   0.653   2.500   0.301 -0.6607 -0.9204  0.2187
  844SOL    HW2 2532   0.642   2.464   0.132  1.8367 -2.2541 -0.9338
  845SOL     OW 2533   1.726   3.085   1.253  0.3119  0.7529 -0.6091
  845SOL    HW1 2534   1.669   3.076   1.341  1.7735 -0.5032 -0.8593
  845SOL    HW2 2535   1.732   3.182   1.218  1.1435  0.6389  0.9928
  846SOL     OW 2536   1.706   3.027   0.924  0.1746  0.3501  0.2240
  846SOL    HW1 2537   1.710   3.087   0.844 -1.6146 -0.9540 -2.2204
  846SOL    HW2 2538   1.799   2.986   0.943  1.8258  0.8984  0.4147
  847SOL     OW 2539   2.097   1.621   0.196  0.4216  0.3632 -0.5557
  847SOL    HW1 2540   2.056   1.546   0.257 -0.5839 -0.8080 -0.0357
  847SOL    HW2 2541   2.081   1.604   0.101 -2.4002  1.2763  1.1969
  848SOL     OW 2542   2.493   0.819   2.619  0.0184 -0.4055  0.2978
  848SOL    HW1 2543   2.457   0.916   2.628  1.9688 -1.4126 -0.1882
  848SOL    HW2 2544   2.428   0.771   2.555 -0.4191  0.0296 -0.5758
  849SOL     OW 2545   2.363   0.826   2.278  0.1748 -0.1052  0.3125
  849SOL    HW1 2546   2.429   0.770   2.226 -0.0338 -0.1430  0.9500
  849SOL    HW2 2547   2.335   0.791   2.376 -0.1293 -1.3333  1.6712
  850SOL     OW 2548   1.561   0.195   1.241 -0.4328  0.2360  0.2353
  850SOL    HW1 2549   1.530   0.155   1.148 -1.1062 -0.6764 -0.1839
  850SOL    HW2 2550   1.526   0.138   1.319 -0.3009  1.4297 -0.2602
  851SOL     OW 2551   0.469   1.715   0.646 -0.4009 -1.0537 -0.2686
  851SOL    HW1 2552   0.437   1.815   0.659  0.2649 -1.9228 -0.4238
  851SOL    HW2 2553   0.565   1.698   0.686  0.0840  0.9417  0.1411
  852SOL     OW 2554   0.834   2.198   1.713 -0.3081 -0.4644 -0.2959
  852SOL    HW1 2555   0.831   2.292   1.666 -1.9283 -3.1870  1.8016
  852SOL    HW2 2556   0.755   2.186   1.774 -0.3456  1.0730  1.7659
  853SOL     OW 2557   2.606   1.503   2.585 -0.0789 -0.1161  0.4179
  853SOL    HW1 2558   2.551   1.415   2.569  0.4279  0.2383 -2.1904
  853SOL    HW2 2559   2.573   1.580   2.525  0.9834 -5.1240  1.5201
  854SOL     OW 2560   2.422   1.439   1.788  0.6253 -0.5843  0.1298
  854SOL    HW1 2561   2.467   1.408   1.701 -0.7749  2.9230  0.0383
  854SOL    HW2 2562   2.355   1.374   1.829  2.4842  0.6733  1.4587
  855SOL     OW 2563   2.018   2.277   0.997  0.2086  0.3340  0.4655
  855SOL    HW1 2564   2.038   2.376   0.963 -0.4248 -0.9624  0.2463
  855SOL    HW2 2565   2.076   2.250   1.075 -2.1173  0.0720 -2.6512
  856SOL     OW 2566   1.402   1.401   0.883 -0.0238  0.2659 -0.2004
  856SOL    HW1 2567   1.399   1.503   0.856  3.5080  0.7101 -0.7147
  856SOL    HW2 2568   1.449   1.387   0.976  0.3175  1.9542 -2.5855
  857SOL     OW 2569   2.889   2.550   1.011 -0.1336 -0.4600 -0.2261
  857SOL    HW1 2570   2.823   2.497   1.070  2.0512 -1.9653 -1.0628
  857SOL    HW2 2571   2.923   2.502   0.928  0.5312  2.0167  0.3997
  858SOL     OW 2572   2.259   2.087   1.785  0.5338  0.1786 -0.4771
  858SOL    HW1 2573   2.185   2.134   1.729 -1.8740  0.2718 -0.0875
  858SOL    HW2 2574   2.338   2.048   1.735  1.4541 -1.0972  2.0960
  859SOL     OW 2575   2.400   0.418   0.963  0.0186 -0.5058 -0.2125
  859SOL    HW1 2576   2.485   0.480   0.943 -2.2660 -4.0325 -1.2807
  859SOL    HW2 2577   2.435   0.336   1.021  0.5521 -0.9819 -0.0430
  860SOL     OW 2578   1.957   2.833   0.496  0.1485  0.3166  0.2104
  860SOL    HW1 2579   1.984   2.780   0.417 -1.3773  1.9143  1.1653
  860SOL    HW2 2580   1.971   2.933   0.484 -1.1903 -1.2946  1.2359
  861SOL     OW 2581   1.024   2.560   2.807  0.0794 -0.4086  0.5093
  861SOL    HW1 2582   1.098   2.627   2.780 -1.7429 -0.7704  0.8815
  861SOL    HW2 2583   0.988   2.572   2.902 -0.8709  1.3324 -2.8283
  862SOL     OW 2584   2.975   2.605   1.561  0.1812  0.0898  0.2510
  862SOL    HW1 2585   3.021   2.608   1.653  0.5727  1.4854 -0.6756
  862SOL    HW2 2586   2.876   2.634   1.559 -0.5858  1.4492  1.1378
  863SOL     OW 2587   1.908   2.640   0.277 -0.7087 -0.0913  0.0965
  863SOL    HW1 2588   1.969   2.554   0.264  0.6851  1.6711  1.5855
  863SOL    HW2 2589   1.809   2.632   0.260 -1.9821 -0.7079  0.7117
  864SOL     OW 2590   1.904   1.131   2.958  0.1751  0.1407  0.0344
  864SOL    HW1 2591   1.947   1.108   2.867  0.2643 -1.0974  1.1881
  864SOL    HW2 2592   1.970   1.110   3.038 -0.7432  0.6839 -1.9053
  865SOL     OW 2593   2.115   1.681   0.659 -0.4594  0.4788 -0.2751
  865SOL    HW1 2594   2.156   1.738   0.736 -0.2756 -1.7607 -2.3004
  865SOL    HW2 2595   2.013   1.659   0.678  0.2446 -1.0051  0.2897
  866SOL     OW 2596   2.867   2.820   1.003  0.6049  0.2705  0.1081
  866SOL    HW1 2597   2.942   2.853   0.941  3.3925 -2.0658 -0.5724
  866SOL    HW2 2598   2.875   2.714   1.020 -1.0554 -1.5910  0.4489
  867SOL     OW 2599   0.456   1.327   0.850 -0.0395  0.2685 -0.6419
  867SOL    HW1 2600   0.473   1.244   0.794  0.5453  0.3517 -0.7259
  867SOL    HW2 2601   0.374   1.385   0.815  1.4073  0.4937 -0.5528
  868SOL     OW 2602   0.843   1.950   1.994 -0.1990 -0.4212 -0.1373
  868SOL    HW1 2603   0.835   1.924   2.095  1.0428 -1.1165  0.9282
  868SOL    HW2 2604   0.779   2.032   1.967  3.0994 -0.5518 -1.8191
  869SOL     OW 2605   2.521   2.037   1.647 -0.3515 -0.0904  0.4771
  869SOL    HW1 2606   2.598   2.098   1.619  1.7344  2.3696  2.1943
  869SOL    HW2 2607   2.485   1.982   1.564 -0.3440 -1.1487 -1.5063
  870SOL     OW 2608   2.390   2.529   1.180  0.1388  0.4103 -0.0666
  870SOL    HW1 2609   2.355   2.436   1.199  0.8676  0.3599  1.7070
  870SOL    HW2 2610   2.477   2.552   1.235 -0.7131 -1.1319  1.1631
  871SOL     OW 2611   3.020   1.991   0.507  0.5797 -0.3153 -0.3158
  871SOL    HW1 2612   2.944   2.054   0.495  2.9964  1.3234  0.6720
  871SOL    HW2 2613   2.995   1.893   0.477 -0.4997 -1.6537  2.0218
  872SOL     OW 2614   2.170   0.489   1.676  0.0377 -0.4646 -0.2640
  872SOL    HW1 2615   2.119   0.493   1.770 -0.0401  0.1276  0.5335
  872SOL    HW2 2616   2.269   0.449   1.687 -0.8440 -3.5008  0.0098
  873SOL     OW 2617   1.713   2.082   2.880  0.2470 -0.0316 -0.5100
  873SOL    HW1 2618   1.722   2.173   2.923  1.4678 -1.4536  0.2628
  873SOL    HW2 2619   1.646   2.074   2.807 -0.3771 -1.6666  1.4705
  874SOL     OW 2620   0.693   2.507   0.744 -0.6240 -0.3150  0.3098
  874SOL    HW1 2621   0.676   2.603   0.775 -1.4146  2.9733 -3.2710
  874SOL    HW2 2622   0.783   2.464   0.777 -1.3275 -2.3132 -1.6212
  875SOL     OW 2623   2.304   1.533   1.448 -0.2283  0.5799 -0.3047
  875SOL    HW1 2624   2.402   1.577   1.470  1.5501  0.0407 -0.2360
  875SOL    HW2 2625   2.278   1.565   1.353 -0.3203  1.1853 -0.0253
  876SOL     OW 2626   0.171   2.205   2.698 -0.3140 -0.3832 -0.3428
  876SOL    HW1 2627   0.213   2.149   2.769 -0.3359  1.3341 -1.8538
  876SOL    HW2 2628   0.167   2.302   2.721 -0.3018 -0.1989 -1.4009
  877SOL     OW 2629   2.796   2.651   0.580 -0.0027  0.2574 -0.0500
  877SOL    HW1 2630   2.847   2.738   0.590 -1.3150 -1.3726 -2.3641
  877SOL    HW2 2631   2.831   2.571   0.638  0.1444 -2.8680  0.0432
  878SOL     OW 2632   2.759   1.539   2.255 -0.0111 -0.2221  0.6713
  878SOL    HW1 2633   2.746   1.639   2.224 -0.6621 -0.7980  0.0805
  878SOL    HW2 2634   2.824   1.522   2.338  1.4915  0.0482 -0.0781
  879SOL     OW 2635   2.393   0.009   1.229  0.4662  0.2116  0.4036
  879SOL    HW1 2636   2.435  -0.085   1.237 -1.4006 -0.2750 -0.2028
  879SOL    HW2 2637   2.305   0.007   1.174  1.1633 -0.8966 -0.7136
  880SOL     OW 2638   0.653   0.419   2.191 -0.8752 -0.1713 -0.0278
  880SOL    HW1 2639   0.585   0.378   2.251  1.3365  1.2517  0.6612
  880SOL    HW2 2640   0.684   0.344   2.131 -2.1642  2.8259  0.0174
  881SOL     OW 2641   0.925   0.050   0.387 -0.2785 -0.1336  0.7335
  881SOL    HW1 2642   0.969  -0.029   0.440  2.5651 -0.4030  0.1603
  881SOL    HW2 2643   0.863   0.016   0.315  1.3249  0.1049  1.1868
  882SOL     OW 2644   2.755   1.684   1.651 -0.2109  1.0263  0.0789
  882SOL    HW1 2645   2.848   1.713   1.617  0.6337  0.6056 -3.3296
  882SOL    HW2 2646   2.727   1.711   1.750  2.0176  0.0684 -1.2660
  883SOL     OW 2647   0.922   0.622   0.960 -0.3661  0.0552  0.1850
  883SOL    HW1 2648   0.943   0.705   1.024  1.7194 -0.0436  4.0027
  883SOL    HW2 2649   1.012   0.587   0.921  0.0189  2.9705  0.8809
  884SOL     OW 2650   1.211   1.847   1.057 -1.0042 -0.1520  0.4549
  884SOL    HW1 2651   1.186   1.831   0.959 -0.2813 -1.3863  1.3331
  884SOL    HW2 2652   1.125   1.862   1.109  0.3748 -0.9117  0.3675
  885SOL     OW 2653   2.272   1.751   2.349 -0.2779 -0.3748 -0.0132
  885SOL    HW1 2654   2.189   1.696   2.388  2.5493 -3.4342  2.4557
  885SOL    HW2 2655   2.266   1.854   2.369 -0.1007  4.3035 -0.1734
  886SOL     OW 2656   2.668   0.470   1.789  0.0525 -0.2001  0.3553
  886SOL    HW1 2657   2.701   0.435   1.876  1.8413  0.3855  0.6906
  886SOL    HW2 2658   2.731   0.534   1.739 -0.3888 -0.8242  0.3108
  887SOL     OW 2659   0.179   2.024   1.313  0.3431 -0.4622  0.4086
  887SOL    HW1 2660   0.128   2.005   1.228  2.2850 -1.0150  1.4955
  887SOL    HW2 2661   0.210   2.124   1.323 -0.1563 -0.6899 -0.5585
  888SOL     OW 2662   0.593   1.332   1.483 -0.7567 -0.3435 -0.1553
  888SOL    HW1 2663   0.642   1.404   1.427  1.4526  2.2146  1.3505
  888SOL    HW2 2664   0.599   1.239   1.449  3.1183  1.4071  1.3318
  889SOL     OW 2665   0.868   2.504   2.143  0.0544 -0.6005 -0.5405
  889SOL    HW1 2666   0.786   2.497   2.085  0.1636 -2.3563  3.6167
  889SOL    HW2 2667   0.955   2.510   2.092  0.9495  0.5232 -0.2642
  890SOL     OW 2668   2.326   2.379   0.125 -0.2290  0.0772 -0.3553
  890SOL    HW1 2669   2.367   2.427   0.047 -2.6055 -0.9327 -1.0234
  890SOL    HW2 2670   2.229   2.410   0.145 -0.2940 -1.9373 -2.6041
  891SOL     OW 2671   2.605   1.540   0.606  0.6084  0.3109  0.2627
  891SOL    HW1 2672   2.582   1.478   0.688  2.7883 -1.2475  2.1710
  891SOL    HW2 2673   2.517   1.574   0.560 -1.2439 -1.2703 -1.0934
  892SOL     OW 2674   0.225   0.316   2.220  0.0908  0.1862  0.1143
  892SOL    HW1 2675   0.247   0.322   2.118 -2.7912 -0.0362  1.3098
  892SOL    HW2 2676   0.314   0.346   2.270  0.5020  1.6992  1.5448
  893SOL     OW 2677   1.660   0.241   2.702 -0.4291 -0.1458  0.1445
  893SOL    HW1 2678   1.718   0.304   2.764 -0.8521 -0.9143 -0.1843
  893SOL    HW2 2679   1.563   0.272   2.684 -0.3553 -0.0722  1.9156
  894SOL     OW 2680   2.141   1.964   0.051 -0.1837 -0.2686 -0.0814
  894SOL    HW1 2681   2.143   1.906  -0.038  1.0697  1.6485  0.4834
  894SOL    HW2 2682   2.195   1.912   0.127  0.3207 -0.9510  0.4143
  895SOL     OW 2683   2.891   1.423   0.818 -0.0772  0.6898 -0.0488
  895SOL    HW1 2684   2.940   1.344   0.869  0.2759  1.5444  2.1535
  895SOL    HW2 2685   2.954   1.476   0.757  1.3620 -0.6988  1.0874
  896SOL     OW 2686   1.745   1.775   1.216  0.1632 -0.1961  0.0351
  896SOL    HW1 2687   1.821   1.815   1.157  1.2002 -1.9007  0.0784
  896SOL    HW2 2688   1.648   1.797   1.178  2.0735  1.0714 -0.5043
  897SOL     OW 2689   0.323   0.506   3.074 -0.5615 -0.4419 -0.2021
  897SOL    HW1 2690   0.264   0.554   3.002  0.0884  2.2486  0.3478
  897SOL    HW2 2691   0.407   0.558   3.104  2.1089 -2.1504 -0.9063
  898SOL     OW 2692   0.543   2.853   1.142 -0.0361  0.2062 -0.4903
  898SOL    HW1 2693   0.480   2.935   1.156  1.4508  2.0574 -1.5530
  898SOL    HW2 2694   0.626   2.856   1.208 -0.8271  1.7136  2.2099
  899SOL     OW 2695   2.695   0.922   1.235  0.1751  0.3655  0.2389
  899SOL    HW1 2696   2.627   0.889   1.165  0.2180 -1.5357  1.0954
  899SOL    HW2 2697   2.767   0.990   1.201 -0.6807  0.5163  0.9021
  900SOL     OW 2698   0.983   2.347   2.328 -0.6735  0.1774  0.2831
  900SOL    HW1 2699   0.940   2.402   2.251 -1.0458  1.5610 -1.4759
  900SOL    HW2 2700   0.936   2.364   2.415 -0.7245 -0.7977  0.0607
  901SOL     OW 2701   1.896   2.434   1.389 -0.3207 -0.1691  0.0197
  901SOL    HW1 2702   1.876   2.440   1.289 -1.7955 -1.5327  0.3291
  901SOL    HW2 2703   1.998   2.436   1.411  2.2305 -0.1717  2.3673
  902SOL     OW 2704   2.555   1.637   1.470 -0.1581  0.1081 -0.4386
  902SOL    HW1 2705   2.624   1.657   1.549 -1.1925  3.4277 -0.2223
  902SOL    HW2 2706   2.610   1.612   1.388  0.9468  0.6234 -0.6357
  903SOL     OW 2707   0.276   2.327   1.963 -0.2550  0.3960  0.0258
  903SOL    HW1 2708   0.179   2.315   2.000  1.0543  1.2422 -0.8726
  903SOL    HW2 2709   0.285   2.405   1.901 -0.2636 -1.5820 -2.3031
  904SOL     OW 2710   1.964   0.786   2.593 -0.1704  0.2249  0.0981
  904SOL    HW1 2711   1.881   0.731   2.622 -0.1287  0.7803 -1.1760
  904SOL    HW2 2712   1.977   0.793   2.484  1.5594 -1.1473 -0.2037
  905SOL     OW 2713   2.738   0.035   2.644  0.2739  0.2692 -0.0724
  905SOL    HW1 2714   2.780  -0.056   2.659  0.3074 -0.5265 -0.8748
  905SOL    HW2 2715   2.810   0.108   2.616 -0.6486 -0.7579 -0.7005
  906SOL     OW 2716   0.105   1.735   1.976 -0.3291  0.3282 -0.1981
  906SOL    HW1 2717   0.058   1.767   1.892 -0.3377 -0.6328  1.0134
  906SOL    HW2 2718   0.190   1.788   1.991  0.7011  0.3632  0.3889
  907SOL     OW 2719   0.186   2.464   1.050  0.0350 -0.0427 -0.1263
  907SOL    HW1 2720   0.252   2.542   1.040  1.8491 -3.2151  0.1343
  907SOL    HW2 2721   0.119   2.454   0.970  1.1890  1.6223  0.5281
  908SOL     OW 2722   2.630   2.870   0.422 -0.0962 -0.5933 -0.3447
  908SOL    HW1 2723   2.591   2.882   0.324 -1.3106  0.9303  1.3461
  908SOL    HW2 2724   2.635   2.768   0.450 -1.2452  0.8542  2.8509
  909SOL     OW 2725   0.715   0.900   2.638 -0.3287  0.2560 -1.1612
  909SOL    HW1 2726   0.691   0.799   2.626 -0.7314 -1.2060 -2.1584
  909SOL    HW2 2727   0.788   0.944   2.578  1.0079 -0.7177  0.3303
  910SOL     OW 2728   1.764   1.772   2.018  0.0249 -0.7205  0.4893
  910SOL    HW1 2729   1.803   1.788   1.922 -0.3305  0.0305  0.6492
  910SOL    HW2 2730   1.699   1.845   2.053  1.1046  0.0678  1.4778
  911SOL     OW 2731   1.771   3.027   1.550 -0.0132 -0.8722  0.4205
  911SOL    HW1 2732   1.857   3.000   1.500 -1.2206  2.9662  1.2818
  911SOL    HW2 2733   1.745   2.962   1.623  0.0948  1.4317  0.8466
  912SOL     OW 2734   2.806   0.968   0.793 -0.2954  0.4560 -0.0579
  912SOL    HW1 2735   2.825   0.976   0.896 -0.3342  1.5368  0.8338
  912SOL    HW2 2736   2.747   1.046   0.757  2.8659  2.5657 -1.3683
  913SOL     OW 2737   2.553   1.270   1.544 -0.1546  0.2885  0.0147
  913SOL    HW1 2738   2.563   1.167   1.562  0.2332  2.0827  2.3898
  913SOL    HW2 2739   2.616   1.303   1.470  1.6473 -1.6588 -1.2865
  914SOL     OW 2740   2.796   0.528   1.250  0.1307  0.4746  0.0983
  914SOL    HW1 2741   2.788   0.429   1.267  1.3571  3.5208 -1.2502
  914SOL    HW2 2742   2.787   0.574   1.340 -2.8402 -1.6950 -0.8977
  915SOL     OW 2743   1.219   0.852   1.001 -0.5558  0.4502  0.5273
  915SOL    HW1 2744   1.278   0.928   1.036 -0.9061  2.5150 -1.6343
  915SOL    HW2 2745   1.127   0.840   1.049  1.2096 -0.2922  0.1143
  916SOL     OW 2746   0.541   0.039   0.599  0.9702  0.2372  0.1199
  916SOL    HW1 2747   0.573   0.106   0.671  0.1210 -2.8618  0.8445
  916SOL    HW2 2748   0.539   0.078   0.503 -2.0854  0.4500  1.5319
  917SOL     OW 2749   2.772   2.588   1.919  0.2560 -0.4566 -0.3451
  917SOL    HW1 2750   2.690   2.653   1.905  0.5139  2.1209 -0.6625
  917SOL    HW2 2751   2.859   2.635   1.928 -1.7539  0.0251  0.1327
  918SOL     OW 2752   0.979   2.216   3.077 -0.0580 -0.0258  0.5656
  918SOL    HW1 2753   0.950   2.245   3.173  0.8077 -1.5426  0.2406
  918SOL    HW2 2754   1.027   2.124   3.069  2.1770  1.2144 -1.0164
  919SOL     OW 2755   0.929   1.642   2.835 -0.7173 -0.1679 -0.3788
  919SOL    HW1 2756   0.985   1.725   2.802  0.2805  0.1123 -1.4563
  919SOL    HW2 2757   0.889   1.579   2.761 -0.3442  1.8197 -3.1703
  920SOL     OW 2758   1.264   2.057   2.514 -0.4794 -0.5258 -0.1792
  920SOL    HW1 2759   1.205   2.039   2.433  3.5224 -1.4194  2.2466
  920SOL    HW2 2760   1.308   1.975   2.559 -0.3897  1.3136 -1.7126
  921SOL     OW 2761   1.036   0.144   2.584  0.0233  0.1615  0.2935
  921SOL    HW1 2762   1.044   0.077   2.503 -0.0588 -1.2617  0.8762
  921SOL    HW2 2763   0.983   0.226   2.553  2.8047 -3.1430  1.6846
  922SOL     OW 2764   2.112   2.413   2.769 -0.8410 -0.0367 -0.2742
  922SOL    HW1 2765   2.103   2.311   2.758 -2.4426  0.8681 -0.3191
  922SOL    HW2 2766   2.079   2.466   2.687  0.5824 -3.5997  0.5251
  923SOL     OW 2767   1.162   2.700   0.242 -0.4309  0.4975 -0.3700
  923SOL    HW1 2768   1.234   2.743   0.304 -2.1534 -0.9820 -1.6564
  923SOL    HW2 2769   1.180   2.604   0.221 -1.9125  0.7964  0.9065
  924SOL     OW 2770   2.875   1.566   0.101 -0.4428 -0.0053  0.2479
  924SOL    HW1 2771   2.804   1.614   0.041 -2.1511 -0.8367 -0.8908
  924SOL    HW2 2772   2.964   1.557   0.052 -0.7242  0.0356  0.0356
  925SOL     OW 2773   0.067   2.855   1.656  0.0362  0.1595 -0.4115
  925SOL    HW1 2774  -0.016   2.914   1.689 -1.0948 -0.7466  1.6965
  925SOL    HW2 2775   0.065   2.834   1.556  2.9577  1.9740 -1.2071
  926SOL     OW 2776   1.443   2.871   1.323  0.1847 -0.1140 -0.3932
  926SOL    HW1 2777   1.447   2.862   1.217 -3.3442 -1.1136 -0.0570
  926SOL    HW2 2778   1.434   2.966   1.364  0.6359 -0.0456 -1.5198
  927SOL     OW 2779   0.293   2.533   1.777 -0.2502  0.1726  0.5541
  927SOL    HW1 2780   0.244   2.497   1.694 -1.4120 -1.3429  2.2518
  927SOL    HW2 2781   0.355   2.613   1.748 -0.7509  0.7853 -1.1850
  928SOL     OW 2782   1.607   1.971   2.118 -0.0895  0.7063 -0.2807
  928SOL    HW1 2783   1.635   2.069   2.096  0.2346 -0.8170 -1.6398
  928SOL    HW2 2784   1.502   1.950   2.112 -2.1211  1.2672 -3.0687
  929SOL     OW 2785   2.386   2.471   2.822 -0.2699  0.1561  0.2765
  929SOL    HW1 2786   2.291   2.439   2.812 -1.8824 -0.7857 -0.9476
  929SOL    HW2 2787   2.444   2.458   2.739 -1.4182 -1.1116  1.1792
  930SOL     OW 2788   2.218   2.006   1.092 -0.1639  0.1887 -0.0540
  930SOL    HW1 2789   2.185   1.978   1.191 -2.0858  1.0284 -0.1971
  930SOL    HW2 2790   2.294   2.081   1.094 -0.5309  0.3374  0.4889
  931SOL     OW 2791   0.568   1.724   2.614  0.3184  0.2232  0.5141
  931SOL    HW1 2792   0.613   1.705   2.709  1.2443  0.2541 -1.2255
  931SOL    HW2 2793   0.569   1.629   2.565 -0.5486 -0.2258  0.6723
  932SOL     OW 2794   0.470   0.108   2.923  0.6229  0.1297 -0.2465
  932SOL    HW1 2795   0.558   0.153   2.885  1.2734 -1.1227 -2.1898
  932SOL    HW2 2796   0.496   0.024   2.978  0.7135  2.4265  1.3155
  933SOL     OW 2797   1.058   0.785   3.016  0.1155  0.3221 -0.0208
  933SOL    HW1 2798   1.124   0.839   3.072  0.8621  0.5387  0.7565
  933SOL    HW2 2799   1.008   0.847   2.952 -2.5319  0.0340  0.8271
  934SOL     OW 2800   0.794   2.964   2.742 -0.1617 -0.4003  0.2167
  934SOL    HW1 2801   0.831   2.891   2.671 -1.9241 -0.5758 -1.5185
  934SOL    HW2 2802   0.826   2.952   2.839  0.9207  0.3726  1.0248
  935SOL     OW 2803   3.081   0.505   0.881  0.1151  0.4491  0.0677
  935SOL    HW1 2804   3.098   0.468   0.782 -1.3726 -1.0769  3.8727
  935SOL    HW2 2805   2.998   0.569   0.884 -0.7880  1.1442  1.1825
  936SOL     OW 2806   1.087   2.943   0.142  0.6803 -0.2088 -0.4844
  936SOL    HW1 2807   1.153   2.987   0.079  1.6448 -2.8389 -1.4035
  936SOL    HW2 2808   1.125   2.847   0.168  1.9059 -1.4551  1.2350
  937SOL     OW 2809   1.941   2.614   2.070  0.1207 -0.2755  0.1436
  937SOL    HW1 2810   1.849   2.659   2.092  0.2306 -0.3095  1.6738
  937SOL    HW2 2811   1.975   2.646   1.979 -1.1002  0.6926  2.4421
  938SOL     OW 2812   2.786   2.170   1.475 -0.1956  0.1207  0.2447
  938SOL    HW1 2813   2.746   2.266   1.494 -1.2515  0.4183  1.6239
  938SOL    HW2 2814   2.839   2.128   1.556  1.7316 -0.2740  0.7787
  939SOL     OW 2815   2.758   1.096   2.505 -0.7259 -0.1171  0.4982
  939SOL    HW1 2816   2.806   1.017   2.455 -0.6439 -0.4366 -0.7035
  939SOL    HW2 2817   2.790   1.111   2.600  2.4487 -0.8555 -0.7986
  940SOL     OW 2818   1.072   0.470   2.620 -0.0605 -0.4126 -0.0807
  940SOL    HW1 2819   1.129   0.388   2.615 -0.4605  2.3148  0.3759
  940SOL    HW2 2820   0.983   0.450   2.654  2.2732 -0.8070 -2.7021
  941SOL     OW 2821   0.049   2.846   2.204  0.4764 -0.1551  0.2218
  941SOL    HW1 2822   0.035   2.745   2.177  0.1872 -3.3236 -0.3872
  941SOL    HW2 2823   0.103   2.859   2.289 -1.8620  0.0729  1.5976
  942SOL     OW 2824   0.059   0.086   2.549  0.1965  0.0546  0.6040
  942SOL    HW1 2825   0.135   0.107   2.623  0.5647  1.2356 -0.6020
  942SOL    HW2 2826   0.036   0.165   2.485 -0.1998 -0.4270 -0.5020
  943SOL     OW 2827   2.064   1.598   2.420 -0.2769 -0.1226  0.0226
  943SOL    HW1 2828   2.064   1.555   2.328 -1.0432  1.4439  4.0107
  943SOL    HW2 2829   2.070   1.527   2.495  1.5435  3.1619  1.8991
  944SOL     OW 2830   2.156   2.412   1.479 -0.0604 -0.5310 -0.0125
  944SOL    HW1 2831   2.236   2.466   1.511  0.6734 -1.3230 -0.3989
  944SOL    HW2 2832   2.126   2.347   1.550  1.4526  3.1241 -3.4905
  945SOL     OW 2833   0.612   1.436   0.360  0.1929  0.7295  0.9164
  945SOL    HW1 2834   0.666   1.457   0.272 -1.1165  0.7034  0.5487
  945SOL    HW2 2835   0.634   1.344   0.398  1.1829  1.9082 -1.0831
  946SOL     OW 2836   0.377   1.014   2.553 -0.2010  0.2602  0.5459
  946SOL    HW1 2837   0.301   0.959   2.503 -0.8893 -2.8264 -0.6023
  946SOL    HW2 2838   0.354   1.114   2.562  0.3332 -1.3403  2.4184
  947SOL     OW 2839   1.466   0.462   0.113 -0.0900 -0.6446 -0.1278
  947SOL    HW1 2840   1.383   0.523   0.122  2.8377 -1.1994 -0.2154
  947SOL    HW2 2841   1.442   0.367   0.078 -1.9543 -1.3283 -1.5661
  948SOL     OW 2842   1.947   3.104   2.189  0.0038  0.2914  0.1064
  948SOL    HW1 2843   1.933   3.075   2.085 -0.0206 -0.5508 -0.9567
  948SOL    HW2 2844   1.939   3.021   2.248 -0.1417  0.6118 -2.7893
  949SOL     OW 2845   0.626   2.520   0.481 -0.0926 -0.4029 -0.0200
  949SOL    HW1 2846   0.638   2.623   0.465 -1.3372 -1.1928 -1.5302
  949SOL    HW2 2847   0.673   2.482   0.564  0.0977 -0.4941 -0.4589
  950SOL     OW 2848   0.305   2.106   3.037  0.0817  0.3418 -0.5622
  950SOL    HW1 2849   0.212   2.155   3.021 -0.1066  2.2021  2.3171
  950SOL    HW2 2850   0.298   2.003   3.027  0.8536  1.1306 -2.6153
  951SOL     OW 2851   1.190   2.757   2.770 -0.7111  0.1180 -0.1128
  951SOL    HW1 2852   1.144   2.824   2.712  1.7656 -2.3005  1.0611
  951SOL    HW2 2853   1.248   2.803   2.840  0.5007 -1.0213 -1.3566
  952SOL     OW 2854   0.081   1.650   0.481 -0.2949  0.0560  0.1465
  952SOL    HW1 2855   0.158   1.711   0.505  2.7843  1.1855  0.6341
  952SOL    HW2 2856   0.013   1.625   0.556 -2.3132 -0.5566  0.0726
  953SOL     OW 2857   2.566   1.726   0.156  0.0862 -0.2180  0.6787
  953SOL    HW1 2858   2.524   1.638   0.183  0.7041  2.6444  2.1816
  953SOL    HW2 2859   2.532   1.763   0.062  0.8739  0.5121 -0.6932
  954SOL     OW 2860   2.168   0.547   1.020  0.4353  0.0602 -0.3978
  954SOL    HW1 2861   2.132   0.569   0.929  0.3163 -1.4116  2.9632
  954SOL    HW2 2862   2.255   0.485   1.015  1.0567 -1.5280  0.9970
  955SOL     OW 2863   0.289   2.679   1.293 -0.1219 -0.4052  0.1806
  955SOL    HW1 2864   0.194   2.649   1.308  1.4010 -1.1321  0.0270
  955SOL    HW2 2865   0.327   2.663   1.198  1.1414  0.3262  1.1013
  956SOL     OW 2866   2.778   2.461   2.500  0.6211  0.1887  0.2482
  956SOL    HW1 2867   2.804   2.355   2.496  1.8222 -1.9099  0.0174
  956SOL    HW2 2868   2.796   2.510   2.410 -0.9883  1.9085 -0.2196
  957SOL     OW 2869   1.534   2.065   2.647  0.4329  0.3793 -0.4303
  957SOL    HW1 2870   1.503   1.968   2.647 -2.4062 -1.4263 -1.9387
  957SOL    HW2 2871   1.582   2.090   2.560  2.3213  3.1411  3.5381
  958SOL     OW 2872   2.668   2.344   3.007  0.4549 -0.0845  0.2262
  958SOL    HW1 2873   2.589   2.360   2.948  0.5541 -2.5278  0.7132
  958SOL    HW2 2874   2.669   2.246   3.047 -1.0556  1.2794 -2.0903
  959SOL     OW 2875   0.232   2.808   0.001  0.2602  0.5613 -0.2079
  959SOL    HW1 2876   0.140   2.771   0.032  0.4003 -0.2871  1.5686
  959SOL    HW2 2877   0.306   2.738   0.019  1.5102  0.2376  1.0231
  960SOL     OW 2878   2.018   0.505   1.930  0.3568  0.5268  0.1961
  960SOL    HW1 2879   1.961   0.572   1.873 -0.4069 -1.7944  2.6294
  960SOL    HW2 2880   2.040   0.538   2.028  0.2503  2.0882  1.2469
  961SOL     OW 2881   2.589   1.846   1.057  0.3946  0.2223 -0.4839
  961SOL    HW1 2882   2.555   1.888   0.967 -0.1145 -1.0940 -2.7458
  961SOL    HW2 2883   2.632   1.923   1.114 -0.5540  5.2042 -1.8258
  962SOL     OW 2884   1.253   0.953   0.035 -0.0573  0.9803 -0.4892
  962SOL    HW1 2885   1.271   0.999  -0.053 -0.7435 -0.6952 -2.0289
  962SOL    HW2 2886   1.261   1.012   0.122 -0.4184 -1.9302  0.7982
  963SOL     OW 2887   2.297   2.637   1.873 -0.3569  0.1993  0.4763
  963SOL    HW1 2888   2.292   2.552   1.934  0.6813 -1.5860  0.6151
  963SOL    HW2 2889   2.301   2.730   1.925 -1.6176  2.8665  0.5374
  964SOL     OW 2890   2.427   0.379   1.670 -0.1403 -0.3467  0.7728
  964SOL    HW1 2891   2.505   0.430   1.718 -0.8421  2.2305 -1.2788
  964SOL    HW2 2892   2.450   0.348   1.570 -0.0908  3.5951 -0.0853
  965SOL     OW 2893   2.634   3.003   0.131 -0.0009 -0.1494 -0.7174
  965SOL    HW1 2894   2.695   2.973   0.044  2.4793  3.1290  0.9866
  965SOL    HW2 2895   2.538   2.981   0.110  3.6283  2.5244 -1.3223
  966SOL     OW 2896   2.565   2.585   2.185 -0.2826  0.0107 -0.7075
  966SOL    HW1 2897   2.528   2.547   2.095 -0.4870  0.9498 -2.2121
  966SOL    HW2 2898   2.508   2.665   2.219  1.0862 -0.0717 -0.1945
  967SOL     OW 2899   2.751   2.822   2.437 -0.2368  0.5749 -0.0357
  967SOL    HW1 2900   2.784   2.733   2.391 -0.8870  1.9368 -0.9089
  967SOL    HW2 2901   2.830   2.880   2.462 -2.2374 -0.5066  0.4852
  968SOL     OW 2902   2.037   1.042   2.674  0.0952 -0.9070  0.1652
  968SOL    HW1 2903   1.999   1.126   2.624  0.3677 -3.0129  2.5446
  968SOL    HW2 2904   2.014   0.951   2.633  1.0025  2.7626 -0.2448
  969SOL     OW 2905   2.740   2.334   1.126 -0.1311  0.0554  0.7624
  969SOL    HW1 2906   2.689   2.316   1.038  2.3475  0.4601  0.8599
  969SOL    HW2 2907   2.805   2.257   1.156 -0.6331 -0.2062  1.8205
  970SOL     OW 2908   1.117   2.219   1.740  0.4433  0.2393  0.1362
  970SOL    HW1 2909   1.020   2.211   1.703  1.3276  2.7294  1.2545
  970SOL    HW2 2910   1.113   2.214   1.842 -0.5680 -2.4673 -1.8756
  971SOL     OW 2911   2.828   2.088   1.947  0.1002 -0.2416  0.1524
  971SOL    HW1 2912   2.814   2.188   1.977  0.2056 -1.5353 -1.9272
  971SOL    HW2 2913   2.852   2.086   1.845 -0.8347 -1.4380  1.4900
  972SOL     OW 2914   2.014   2.395   0.253  0.4025  0.2612 -0.2105
  972SOL    HW1 2915   1.999   2.318   0.181 -0.7826 -2.1877 -0.4561
  972SOL    HW2 2916   2.076   2.368   0.335 -0.9974  0.2932  1.8880
  973SOL     OW 2917   1.240   1.078   1.977  0.3348  0.2767 -0.2538
  973SOL    HW1 2918   1.214   1.045   1.886  3.1580 -0.3940 -0.1011
  973SOL    HW2 2919   1.268   1.176   1.991 -2.3902 -2.0112 -2.3812
  974SOL     OW 2920   1.667   0.533   1.897  0.0705  0.1439 -0.0760
  974SOL    HW1 2921   1.744   0.601   1.871  0.5644  1.3711  0.7131
  974SOL    HW2 2922   1.572   0.579   1.879  0.6175 -1.7835  0.9163
  975SOL     OW 2923   2.339   3.050   3.077  0.5425  0.0393  0.0043
  975SOL    HW1 2924   2.302   2.962   3.119 -0.2058 -3.5712  0.5463
  975SOL    HW2 2925   2.358   3.047   2.978  0.5347  1.4218 -0.8881
  976SOL     OW 2926   1.919   2.874   2.349 -0.3099 -0.1400 -0.4182
  976SOL    HW1 2927   1.858   2.818   2.296 -2.3020  1.8768  1.6112
  976SOL    HW2 2928   1.923   2.841   2.450  0.0652 -0.0019  0.4460
  977SOL     OW 2929   0.507   0.692   1.035 -0.3299  0.2749 -0.3182
  977SOL    HW1 2930   0.409   0.700   0.994 -0.1754  0.2814  1.5459
  977SOL    HW2 2931   0.567   0.619   0.987  1.2004 -2.8552  0.1232
   3.10000   3.10000   3.10000
