1000 SPC/Fw water molecules t=   1.28000 step= 1280
 2931
    1SOL     OW    1   2.548   0.348   2.605 -0.1459 -0.0904 -0.2067
    1SOL    HW1    2   2.545   0.246   2.583 -1.0157  2.7853  0.8880
    1SOL    HW2    3   2.605   0.373   2.688 -0.1560  2.1975 -0.3348
    2SOL     OW    4   2.758   2.988   1.370 -0.2164  0.0687 -0.0850
    2SOL    HW1    5   2.828   3.029   1.300 -0.0648  2.3747 -1.8082
    2SOL    HW2    6   2.726   3.061   1.441 -0.7636 -0.4815  0.8676
    3SOL     OW    7   2.613   2.570   0.425  0.0419 -0.0388 -0.0632
    3SOL    HW1    8   2.578   2.472   0.432  0.2346 -1.8231 -2.5459
    3SOL    HW2    9   2.677   2.599   0.499 -0.5012 -1.0417 -0.7294
    4SOL     OW   10   1.246   1.523   2.400 -0.4796 -0.0208  0.5885
    4SOL    HW1   11   1.178   1.538   2.322  0.8351  0.0117  1.1372
    4SOL    HW2   12   1.273   1.419   2.407  0.3041 -1.8866  1.4006
    5SOL     OW   13   1.185   1.578   2.941 -0.1096 -0.0712 -0.9013
    5SOL    HW1   14   1.235   1.663   2.978 -0.6096  0.4220  1.4244
    5SOL    HW2   15   1.086   1.596   2.915  2.6969 -1.0682 -4.0357
    6SOL     OW   16   0.278   1.831   3.034 -0.0905  0.4470  0.2541
    6SOL    HW1   17   0.172   1.836   3.047  1.3170  0.3007 -2.9613
    6SOL    HW2   18   0.326   1.789   3.113 -0.1438  0.4143 -3.9419
    7SOL     OW   19   2.525   0.834   1.062  0.1865  0.2103 -0.3196
    7SOL    HW1   20   2.449   0.780   1.107 -0.1847 -0.0898 -0.2191
    7SOL    HW2   21   2.512   0.839   0.961 -2.1372  1.0330  0.3934
    8SOL     OW   22   0.404   0.606   1.478 -0.6890 -0.1158  0.5390
    8SOL    HW1   23   0.498   0.570   1.490 -0.3501  0.8964  1.2995
    8SOL    HW2   24   0.374   0.616   1.380 -0.2832  1.2271  1.7882
    9SOL     OW   25   1.183   0.845   2.426  0.7252  0.2254  0.3734
    9SOL    HW1   26   1.218   0.875   2.331  2.6092 -0.3502  0.9602
    9SOL    HW2   27   1.130   0.752   2.430 -0.0350  0.9697  0.1990
   10SOL     OW   28   0.663   1.378   1.306  0.5021  0.6341  0.1594
   10SOL    HW1   29   0.573   1.380   1.262 -1.7688  0.1468  1.8019
   10SOL    HW2   30   0.712   1.470   1.324 -0.6517  0.8216 -1.8874
   11SOL     OW   31   2.311   2.825   0.817 -0.0254 -0.0714  0.0945
   11SOL    HW1   32   2.264   2.841   0.913 -1.6632  0.3828 -0.2982
   11SOL    HW2   33   2.404   2.786   0.832  3.4996  2.6572  0.5435
   12SOL     OW   34   1.482   0.811   0.432 -0.1956  0.3053 -0.3603
   12SOL    HW1   35   1.437   0.886   0.380 -0.5314 -0.8641  1.3162
   12SOL    HW2   36   1.553   0.758   0.375 -1.3336  2.0289 -1.6191
   13SOL     OW   37   2.415   0.740   1.755 -0.2381  0.0325 -0.0261
   13SOL    HW1   38   2.386   0.662   1.817 -0.4707 -0.8300 -0.3679
   13SOL    HW2   39   2.430   0.724   1.657  0.7729  0.6578  2.2786
   14SOL     OW   40   1.905   0.059   0.659  0.5645 -0.4030 -0.4735
   14SOL    HW1   41   1.806   0.055   0.624  0.8476 -0.5827 -0.7141
   14SOL    HW2   42   1.927  -0.019   0.722 -2.3937 -0.1934 -0.6924
   15SOL     OW   43   1.898   2.101   2.673  0.1583 -0.1406 -0.3721
   15SOL    HW1   44   1.825   2.170   2.704 -0.4337  1.0505 -0.1796
   15SOL    HW2   45   1.861   2.005   2.676  0.0087  0.3239 -2.2508
   16SOL     OW   46   1.596   1.700   2.999  0.0735 -0.1906 -0.1141
   16SOL    HW1   47   1.594   1.600   3.036  1.5141 -0.9647  0.1729
   16SOL    HW2   48   1.686   1.744   3.029  2.6958  1.7355  0.4280
   17SOL     OW   49   0.123   0.453   0.178  0.3599 -0.7032  0.3849
   17SOL    HW1   50   0.195   0.454   0.106  1.9392  0.9608  0.5641
   17SOL    HW2   51   0.033   0.477   0.133 -1.5628  1.0247 -1.2087
   18SOL     OW   52   0.931   2.949   2.159  0.0344  0.3895 -0.0926
   18SOL    HW1   53   0.875   2.869   2.191 -1.8193  0.1590  1.9066
   18SOL    HW2   54   0.969   2.923   2.064  1.6222 -2.8876  1.0482
   19SOL     OW   55   0.501   0.837   1.892  0.0035 -0.2541 -0.1594
   19SOL    HW1   56   0.514   0.780   1.977  1.7347 -0.2060 -0.3588
   19SOL    HW2   57   0.564   0.916   1.884  1.6439 -0.7576  1.0221
   20SOL     OW   58   0.213   2.822   0.848  0.1540  0.0270 -0.2091
   20SOL    HW1   59   0.123   2.858   0.812 -1.4209 -2.0431 -0.2066
   20SOL    HW2   60   0.248   2.739   0.794  2.6501 -2.6595  0.8107
   21SOL     OW   61   2.735   0.253   1.947  0.1034  0.0350 -0.2167
   21SOL    HW1   62   2.685   0.186   1.886  0.3576 -0.9901 -1.8065
   21SOL    HW2   63   2.796   0.204   2.018 -1.8218  1.3564  1.3416
   22SOL     OW   64   2.336   0.189   0.130  0.1076  0.1158 -0.1754
   22SOL    HW1   65   2.331   0.094   0.098  2.4975 -2.1719 -1.3942
   22SOL    HW2   66   2.301   0.253   0.055 -0.3842 -0.0853 -4.0723
   23SOL     OW   67   2.815   0.559   0.671 -0.2819 -0.4023 -0.1363
   23SOL    HW1   68   2.837   0.477   0.613  0.9529 -1.2062 -0.0431
   23SOL    HW2   69   2.822   0.645   0.616  1.0179 -0.7841 -2.7117
   24SOL     OW   70   0.254   1.908   0.473  0.2543 -0.4215  0.5025
   24SOL    HW1   71   0.200   1.961   0.407 -1.6908 -2.0081 -0.3534
   24SOL    HW2   72   0.354   1.888   0.448  1.2156 -0.3458 -0.9518
   25SOL     OW   73   2.218   0.635   0.179  0.1388  0.2895 -0.4712
   25SOL    HW1   74   2.221   0.649   0.078 -2.6388 -2.0284  0.9136
   25SOL    HW2   75   2.283   0.560   0.215  0.6164 -1.4074 -1.7164
   26SOL     OW   76   2.451   2.151   2.073 -0.5368  0.1924  1.0608
   26SOL    HW1   77   2.535   2.198   2.111  2.3575  0.1458 -1.3792
   26SOL    HW2   78   2.480   2.075   2.009 -0.3349  0.4035 -1.6833
   27SOL     OW   79   0.653   2.914   0.285 -0.2527  0.3202 -0.1741
   27SOL    HW1   80   0.717   2.987   0.252 -0.5504  0.0025 -2.3173
   27SOL    HW2   81   0.596   2.876   0.207  1.3574  0.7200 -0.0807
   28SOL     OW   82   1.564   0.127   0.320  0.0539 -0.2969  0.3878
   28SOL    HW1   83   1.594   0.087   0.227  0.3369  0.7622  1.0560
   28SOL    HW2   84   1.588   0.227   0.329 -1.4380 -1.3940 -0.6034
   29SOL     OW   85   1.943   0.561   0.284 -0.4798 -0.2836 -0.1073
   29SOL    HW1   86   1.914   0.633   0.350  1.7534  0.6987 -1.5420
   29SOL    HW2   87   2.044   0.565   0.284 -1.5256  0.4287 -1.2241
   30SOL     OW   88   0.192   2.081   0.890 -0.0479  0.2221 -0.3511
   30SOL    HW1   89   0.166   2.024   0.805  1.1007 -0.8123  0.7977
   30SOL    HW2   90   0.107   2.133   0.917 -0.0096 -2.1911 -0.5986
   31SOL     OW   91   2.134   0.105   2.407  0.6229  0.6273  0.6806
   31SOL    HW1   92   2.093   0.079   2.502  0.6870 -0.9937 -0.9164
   31SOL    HW2   93   2.094   0.048   2.331  3.2398  1.1674  1.0516
   32SOL     OW   94   2.940   0.046   0.253  0.0975 -0.4051  0.2106
   32SOL    HW1   95   2.949  -0.054   0.274  0.6418  0.6329  0.3774
   32SOL    HW2   96   3.023   0.106   0.274  1.8763  3.9155 -0.8685
   33SOL     OW   97   0.884   0.302   0.607  0.3968 -0.4650 -0.1481
   33SOL    HW1   98   0.884   0.206   0.575 -2.4917  0.5683  0.6480
   33SOL    HW2   99   0.978   0.347   0.611  2.6139 -1.9318  0.0865
   34SOL     OW  100   0.333   2.723   1.107 -0.2693  0.3637 -0.6474
   34SOL    HW1  101   0.286   2.757   1.022  0.3653  0.6047 -1.1779
   34SOL    HW2  102   0.432   2.758   1.110  0.3292  1.3869  1.6472
   35SOL     OW  103   0.014   0.119   1.860  0.7123 -0.3335 -0.4000
   35SOL    HW1  104   0.064   0.031   1.886 -0.4042 -1.2093  1.9144
   35SOL    HW2  105  -0.030   0.122   1.762  0.7915  1.9732 -2.6230
   36SOL     OW  106   1.849   1.238   1.571 -0.6333  0.1885  0.7584
   36SOL    HW1  107   1.923   1.169   1.594 -1.9891  1.1032 -0.7444
   36SOL    HW2  108   1.894   1.320   1.520 -4.5442  0.9116 -3.5770
   37SOL     OW  109   1.200   0.226   0.950  0.1844 -0.2506  0.0505
   37SOL    HW1  110   1.246   0.307   0.988 -0.9937 -1.6965 -2.2497
   37SOL    HW2  111   1.260   0.146   0.925  0.1120  0.1079 -2.0149
   38SOL     OW  112   1.156   2.855   2.343 -0.1102  0.1474 -0.2233
   38SOL    HW1  113   1.101   2.819   2.419 -0.0280  2.9334 -3.6487
   38SOL    HW2  114   1.128   2.953   2.329 -1.6583  2.0411 -1.1429
   39SOL     OW  115   2.342   1.360   3.026  0.3749 -0.1223 -0.1423
   39SOL    HW1  116   2.426   1.298   3.025  1.9935 -1.2285  1.0376
   39SOL    HW2  117   2.307   1.373   3.126 -0.4639 -0.2396  1.8020
   40SOL     OW  118   1.985   2.460   2.607  0.2591 -0.4263 -0.4582
   40SOL    HW1  119   1.970   2.565   2.588 -0.9315 -0.5859  1.2385
   40SOL    HW2  120   1.966   2.402   2.524  2.3220  1.0886 -2.6800
   41SOL     OW  121   3.031   0.647   2.808  0.4199  0.2565 -0.4291
   41SOL    HW1  122   2.949   0.703   2.821 -0.0326 -0.5721  1.2533
   41SOL    HW2  123   3.020   0.567   2.744 -0.3947 -1.3757 -0.7353
   42SOL     OW  124   1.745   1.795   0.518  0.4590 -0.2316  0.9308
   42SOL    HW1  125   1.701   1.702   0.514  3.2590  1.4148  1.7431
   42SOL    HW2  126   1.761   1.831   0.419 -0.4204 -0.5448 -0.8956
   43SOL     OW  127   0.461   1.656   1.211  0.6719 -0.3466  0.6411
   43SOL    HW1  128   0.461   1.554   1.181 -0.3859  1.9852 -0.6787
   43SOL    HW2  129   0.390   1.666   1.288 -3.4081 -1.3883  0.7043
   44SOL     OW  130   1.692   2.376   3.012 -0.1537  0.8037  0.1650
   44SOL    HW1  131   1.605   2.429   2.997 -1.6987  2.6919  0.6108
   44SOL    HW2  132   1.730   2.350   2.919 -0.6104 -1.0000 -0.5034
   45SOL     OW  133   0.358   1.903   2.573  0.5112  0.1363 -0.3132
   45SOL    HW1  134   0.329   1.897   2.473  0.1606  0.2614 -0.2996
   45SOL    HW2  135   0.400   1.810   2.603  0.8735 -0.7216  0.9114
   46SOL     OW  136   1.285   0.651   0.137  0.5565  0.3375 -0.0253
   46SOL    HW1  137   1.264   0.754   0.126 -0.6472 -0.5349  0.4298
   46SOL    HW2  138   1.201   0.591   0.149  0.4639 -1.9343 -1.0232
   47SOL     OW  139   0.188   2.490   1.587 -0.0228 -0.1050 -0.2119
   47SOL    HW1  140   0.200   2.393   1.555 -1.4589 -0.2135 -0.7906
   47SOL    HW2  141   0.232   2.550   1.517 -0.8057  0.7777  3.0857
   48SOL     OW  142   2.639   0.612   0.141 -0.2372 -0.0229  0.0418
   48SOL    HW1  143   2.617   0.594   0.242 -0.2222 -1.9744  1.8166
   48SOL    HW2  144   2.720   0.671   0.127 -0.1563  1.1228 -0.2166
   49SOL     OW  145   0.318   0.769   1.684  0.4526  0.3150  0.9502
   49SOL    HW1  146   0.392   0.783   1.756 -0.6444  0.8249  1.6271
   49SOL    HW2  147   0.347   0.713   1.601 -2.5926 -3.2370 -0.1542
   50SOL     OW  148   1.700   1.119   0.318 -0.0184  0.5380  0.1074
   50SOL    HW1  149   1.726   1.026   0.272  1.7583 -1.1560 -2.4075
   50SOL    HW2  150   1.678   1.109   0.421  1.0583 -2.4620  1.8580
   51SOL     OW  151   3.004   1.733   0.250  0.4401  0.2335  0.3269
   51SOL    HW1  152   2.955   1.654   0.201  1.3920 -0.1902 -3.6978
   51SOL    HW2  153   3.050   1.697   0.334 -1.2645 -2.5134 -0.6940
   52SOL     OW  154   0.808   2.152   0.625  0.2649 -0.0989  0.1298
   52SOL    HW1  155   0.776   2.233   0.683 -3.6786  1.5436  1.8551
   52SOL    HW2  156   0.843   2.073   0.682  0.2874  1.4950 -0.8303
   53SOL     OW  157   0.180   0.469   1.566 -0.1036  0.6503 -0.5521
   53SOL    HW1  158   0.273   0.509   1.537  0.0704  1.0027  1.5528
   53SOL    HW2  159   0.100   0.472   1.496 -0.7793 -0.3679 -2.7340
   54SOL     OW  160   1.815   0.494   3.055  0.0213 -0.1693  0.2051
   54SOL    HW1  161   1.882   0.432   3.100  1.8448  0.6014 -1.5746
   54SOL    HW2  162   1.730   0.515   3.109  0.2452  0.7434  1.5723
   55SOL     OW  163   0.760   2.881   0.718 -0.5385  0.3704  0.2279
   55SOL    HW1  164   0.707   2.967   0.723  1.2914 -0.4086 -1.1324
   55SOL    HW2  165   0.836   2.880   0.650 -2.1130  0.5165  1.3961
   56SOL     OW  166   0.569   1.624   0.033  0.0432  0.6328 -0.1677
   56SOL    HW1  167   0.491   1.659   0.090  1.5233  0.7633  0.9864
   56SOL    HW2  168   0.547   1.535  -0.011  1.0288 -0.5486  0.2755
   57SOL     OW  169   1.747   2.514   2.389  0.1695 -0.0943  0.3851
   57SOL    HW1  170   1.808   2.428   2.390 -1.0812 -0.0928  0.1663
   57SOL    HW2  171   1.682   2.518   2.475 -2.0058 -0.7766  3.9774
   58SOL     OW  172   0.661   0.232   1.119 -0.2236 -0.0338 -0.1283
   58SOL    HW1  173   0.579   0.254   1.182  1.7520 -0.9207  0.1924
   58SOL    HW2  174   0.689   0.133   1.123 -2.5490  1.0760  1.0512
   59SOL     OW  175   0.411   2.380   2.744  0.2854  0.2840  0.2769
   59SOL    HW1  176   0.414   2.292   2.693 -0.4576  1.5974 -2.6475
   59SOL    HW2  177   0.503   2.396   2.797  2.2302  4.7918 -1.0834
   60SOL     OW  178   2.336   2.111   2.328 -0.1114  0.3654  0.2084
   60SOL    HW1  179   2.381   2.158   2.249 -0.7396  1.8224 -1.3068
   60SOL    HW2  180   2.340   2.163   2.419  3.4291  1.2336  2.9369
   61SOL     OW  181   1.228   0.604   0.425 -0.3777  0.4195  0.0516
   61SOL    HW1  182   1.149   0.657   0.462 -2.4813  3.3492  0.8607
   61SOL    HW2  183   1.258   0.644   0.338  0.0264  0.2730  1.5881
   62SOL     OW  184   2.712   1.706   2.859 -0.3522 -0.3162 -0.7259
   62SOL    HW1  185   2.725   1.795   2.805 -0.3308  0.1182 -0.7088
   62SOL    HW2  186   2.796   1.648   2.852 -0.7594 -3.0425 -0.1065
   63SOL     OW  187   0.576   0.885   0.214 -0.2240  0.3237 -0.1357
   63SOL    HW1  188   0.622   0.932   0.133 -0.7070  1.6021 -0.0194
   63SOL    HW2  189   0.643   0.878   0.291  0.9766  0.7046 -0.5307
   64SOL     OW  190   3.035   0.549   2.421 -0.0139 -0.3717 -1.4619
   64SOL    HW1  191   2.972   0.596   2.486 -0.8124  2.8123 -1.1310
   64SOL    HW2  192   3.046   0.595   2.330 -1.3238  2.5129 -0.3655
   65SOL     OW  193   0.221   1.453   0.682 -0.2498 -0.8693  0.0696
   65SOL    HW1  194   0.223   1.536   0.742  2.3240  0.2527  0.0482
   65SOL    HW2  195   0.292   1.457   0.604  0.0396  3.2738  3.1612
   66SOL     OW  196   2.505   0.387   0.530  0.1191 -0.2559 -0.1701
   66SOL    HW1  197   2.598   0.364   0.500 -3.4189  1.4992  0.7614
   66SOL    HW2  198   2.472   0.318   0.602 -0.1047 -1.2242 -0.7116
   67SOL     OW  199   0.623   2.477   1.414  0.1291  0.4637  0.0813
   67SOL    HW1  200   0.693   2.414   1.451  1.0021  0.3321 -0.6096
   67SOL    HW2  201   0.527   2.447   1.443  0.6901  0.1200 -1.3964
   68SOL     OW  202   0.996   1.013   2.525  0.6189  0.4810 -0.1341
   68SOL    HW1  203   1.080   0.951   2.496  1.0066 -4.8989 -0.4180
   68SOL    HW2  204   0.944   1.037   2.437 -0.6217  0.7684 -3.2221
   69SOL     OW  205   0.748   2.762   2.217  0.2073 -0.2961  0.0329
   69SOL    HW1  206   0.767   2.670   2.169 -0.1016 -2.1375  1.8369
   69SOL    HW2  207   0.651   2.772   2.252  2.5990 -2.3491 -0.3311
   70SOL     OW  208   0.460   0.122   2.548 -0.0986 -0.0564 -0.7240
   70SOL    HW1  209   0.364   0.119   2.581  3.0759  0.1443 -1.1496
   70SOL    HW2  210   0.510   0.037   2.570 -1.3741  0.1877  3.0681
   71SOL     OW  211   1.151   1.785   0.350  0.6360 -0.5023 -0.1291
   71SOL    HW1  212   1.082   1.718   0.388  1.3985  1.9870 -1.0320
   71SOL    HW2  213   1.111   1.856   0.285  1.8766  2.3599 -3.0993
   72SOL     OW  214   1.814   0.176   2.170 -0.0719  0.1453  0.1025
   72SOL    HW1  215   1.867   0.263   2.146  1.2704  1.0236 -0.3155
   72SOL    HW2  216   1.864   0.096   2.198 -2.0159  2.8528  0.7370
   73SOL     OW  217   2.807   2.147   2.361 -0.1323  0.5479 -0.0431
   73SOL    HW1  218   2.776   2.057   2.324  1.6886 -0.2701  0.8254
   73SOL    HW2  219   2.813   2.144   2.465 -0.5608 -1.1958  1.0876
   74SOL     OW  220   2.642   2.865   2.190  0.2573 -0.0012 -0.3327
   74SOL    HW1  221   2.631   2.875   2.295  2.4243  1.0503  0.3097
   74SOL    HW2  222   2.736   2.886   2.162  1.2343  0.4161  0.3386
   75SOL     OW  223   0.958   0.857   1.073 -0.3260  0.3590  0.0694
   75SOL    HW1  224   0.880   0.908   1.023  0.0391 -1.5691  0.1720
   75SOL    HW2  225   0.984   0.912   1.161 -0.0137 -2.5378  1.5564
   76SOL     OW  226   1.808   1.218   2.457  0.2228 -0.0116 -0.4587
   76SOL    HW1  227   1.706   1.220   2.473 -0.6076  1.4000 -0.4323
   76SOL    HW2  228   1.842   1.308   2.491  0.0595  0.4016  2.4987
   77SOL     OW  229   2.945   0.910   1.036 -0.3324 -0.4088  0.3341
   77SOL    HW1  230   2.914   0.811   1.012  1.3812 -0.3414 -1.2556
   77SOL    HW2  231   3.009   0.911   1.121  2.4110  1.6962 -0.1690
   78SOL     OW  232   2.000   1.420   1.444  0.5074 -0.4715  0.2220
   78SOL    HW1  233   2.101   1.425   1.415 -0.4632  0.3646 -1.4310
   78SOL    HW2  234   1.940   1.448   1.364  1.3967  0.5809 -0.6467
   79SOL     OW  235   0.627   1.432   0.801  0.3579 -0.0611  0.2577
   79SOL    HW1  236   0.545   1.416   0.857  3.4799 -0.3600  0.2846
   79SOL    HW2  237   0.643   1.340   0.752  0.6662  2.1456 -0.4387
   80SOL     OW  238   0.660   0.474   1.526 -0.0989  0.3275 -0.6683
   80SOL    HW1  239   0.727   0.538   1.484 -0.9896 -0.2631  0.3956
   80SOL    HW2  240   0.678   0.375   1.503 -0.2378  2.0681  1.2180
   81SOL     OW  241   0.997   1.309   2.611 -0.0153  0.0698 -0.0487
   81SOL    HW1  242   1.008   1.213   2.580 -0.8392  1.9920  0.7680
   81SOL    HW2  243   0.945   1.366   2.543  1.0459  0.7095  1.9189
   82SOL     OW  244   0.959   2.907   1.505  0.6659 -1.1656  0.1931
   82SOL    HW1  245   0.878   2.875   1.453  2.1740 -1.2888 -0.3187
   82SOL    HW2  246   1.042   2.925   1.449 -0.2883  0.5110  3.3041
   83SOL     OW  247   2.585   2.370   0.860 -0.4100  0.0829  0.1964
   83SOL    HW1  248   2.538   2.334   0.947 -0.3990 -0.7639 -3.3771
   83SOL    HW2  249   2.520   2.397   0.789  0.3991  1.4849  1.3673
   84SOL     OW  250   0.722   0.006   2.382 -0.3186  0.5144 -0.6461
   84SOL    HW1  251   0.665  -0.019   2.467  0.3825  1.2186  0.9172
   84SOL    HW2  252   0.796  -0.058   2.360 -2.0506  0.4786  0.9425
   85SOL     OW  253   0.259   1.614   1.449  0.3294 -0.1039 -0.2552
   85SOL    HW1  254   0.219   1.708   1.453  0.2605  3.1141  0.7120
   85SOL    HW2  255   0.292   1.592   1.544 -1.0633  0.5628  0.4840
   86SOL     OW  256   0.447   1.067   1.494  0.0418 -0.6755  0.0763
   86SOL    HW1  257   0.405   1.016   1.410 -0.6514 -1.1974  1.1975
   86SOL    HW2  258   0.542   1.026   1.519 -1.9232 -0.2985  2.4010
   87SOL     OW  259   1.663   0.684   0.285  0.3491  0.1268 -0.1573
   87SOL    HW1  260   1.728   0.769   0.268  0.9361 -2.6199 -0.1775
   87SOL    HW2  261   1.623   0.640   0.200 -0.1195  1.0507  1.8978
   88SOL     OW  262   1.537   1.344   0.265 -0.9507  0.1915 -0.1904
   88SOL    HW1  263   1.590   1.260   0.292  1.5374  2.0910  0.1347
   88SOL    HW2  264   1.435   1.336   0.264  0.0561 -1.1326 -0.1159
   89SOL     OW  265   3.079   0.338   0.609 -0.4869 -1.1861  0.1251
   89SOL    HW1  266   3.147   0.258   0.587  0.0274 -2.8670  0.4214
   89SOL    HW2  267   2.978   0.310   0.585  1.8526 -1.2170 -0.8243
   90SOL     OW  268   0.840   1.567   0.105 -0.5031  0.3904  0.0550
   90SOL    HW1  269   0.897   1.489   0.070  0.6866 -1.2437  1.9157
   90SOL    HW2  270   0.758   1.585   0.046  0.5375 -0.3976  1.2110
   91SOL     OW  271   1.207   1.453   1.759  0.0532  0.0373 -0.3695
   91SOL    HW1  272   1.167   1.524   1.822 -1.3837 -0.0007  1.5478
   91SOL    HW2  273   1.293   1.419   1.800 -1.1676 -1.4028 -1.8839
   92SOL     OW  274   0.015   0.950   1.246 -0.0572  0.2228 -0.1398
   92SOL    HW1  275   0.079   1.010   1.188  1.0488 -0.4823 -1.0631
   92SOL    HW2  276   0.008   0.979   1.350 -2.3370 -0.7680  0.8835
   93SOL     OW  277   3.072   2.701   0.050  0.2766  0.0201 -0.4563
   93SOL    HW1  278   3.046   2.693  -0.053  0.0579  3.3717 -0.7913
   93SOL    HW2  279   3.102   2.607   0.091  3.3032 -0.2146 -0.0193
   94SOL     OW  280   1.493   1.448   1.781  0.1185 -0.0410 -0.1750
   94SOL    HW1  281   1.574   1.382   1.780 -0.8719 -0.8368 -0.4761
   94SOL    HW2  282   1.517   1.546   1.806 -2.5303  1.2983  1.6480
   95SOL     OW  283   1.428   2.507   2.967 -0.5304  0.1818 -0.1318
   95SOL    HW1  284   1.351   2.561   3.001 -1.1093 -1.7360  0.8378
   95SOL    HW2  285   1.399   2.408   2.939 -0.3295 -2.1961 -0.3539
   96SOL     OW  286   0.567   2.094   1.316  0.2440 -0.1787  0.0851
   96SOL    HW1  287   0.518   2.057   1.234  0.4690  3.6286  0.4557
   96SOL    HW2  288   0.638   2.032   1.358 -0.0891 -1.1672 -1.4041
   97SOL     OW  289   0.301   1.605   2.460 -0.2752  0.3072 -0.0637
   97SOL    HW1  290   0.246   1.673   2.401  0.0988  0.4988 -1.4175
   97SOL    HW2  291   0.276   1.605   2.560  1.1993 -0.9466 -0.2029
   98SOL     OW  292   2.148   1.591   1.209  0.7429 -0.2441 -0.3468
   98SOL    HW1  293   2.065   1.551   1.162  0.0361  1.6063  0.4685
   98SOL    HW2  294   2.240   1.565   1.173 -0.5833  1.6001  1.3127
   99SOL     OW  295   2.572   2.091   1.278 -0.0954  0.3052  0.2360
   99SOL    HW1  296   2.624   2.118   1.358  2.8473  0.7102 -0.6724
   99SOL    HW2  297   2.528   1.997   1.287 -0.5986  1.6691 -0.0940
  100SOL     OW  298   2.299   0.409   2.095  0.5327 -0.0658  0.3257
  100SOL    HW1  299   2.256   0.389   2.186 -0.0250 -1.0147 -2.4080
  100SOL    HW2  300   2.402   0.400   2.093 -0.2751  1.5725  2.4850
  101SOL     OW  301   0.402   1.519   0.478 -0.6067  0.2505  0.5238
  101SOL    HW1  302   0.387   1.605   0.542  0.0939  0.7565  2.6365
  101SOL    HW2  303   0.471   1.538   0.402  0.2712  0.2308  2.0847
  102SOL     OW  304   2.289   1.065   0.838 -0.0373 -0.1222 -0.0764
  102SOL    HW1  305   2.220   1.001   0.788  0.4904 -3.0181 -0.6278
  102SOL    HW2  306   2.384   1.071   0.796  3.2627 -0.1330 -0.9462
  103SOL     OW  307   2.216   0.129   0.380  0.5031 -0.1995 -0.2441
  103SOL    HW1  308   2.255   0.192   0.308  0.1419  1.2330 -2.2577
  103SOL    HW2  309   2.289   0.079   0.439 -1.3066 -0.3982  0.7269
  104SOL     OW  310   0.051   1.907   2.097 -0.2172  0.0124 -0.1584
  104SOL    HW1  311   0.092   1.857   2.014  0.5346  0.3652 -3.2575
  104SOL    HW2  312  -0.051   1.912   2.084  0.4010  0.5978  1.6789
  105SOL     OW  313   1.244   2.113   0.827 -0.0750 -0.3976  0.1776
  105SOL    HW1  314   1.201   2.163   0.750  0.7314 -0.7769  0.7313
  105SOL    HW2  315   1.303   2.036   0.792 -0.5850  2.2810  0.1210
  106SOL     OW  316   2.083   0.361   1.442 -0.4508  0.3239 -0.1609
  106SOL    HW1  317   2.023   0.281   1.408 -0.7308  0.5244 -2.3403
  106SOL    HW2  318   2.077   0.374   1.548  0.5561 -0.6867  0.7303
  107SOL     OW  319   1.953   2.947   1.181  0.7580 -0.2917 -0.3924
  107SOL    HW1  320   1.883   3.007   1.222 -0.1727  0.5818 -0.2166
  107SOL    HW2  321   1.917   2.867   1.127  0.9633  1.2391 -2.2122
  108SOL     OW  322   0.854   2.826   1.194  0.0621  0.4811 -0.8640
  108SOL    HW1  323   0.901   2.732   1.202 -0.7467 -1.3566 -0.3306
  108SOL    HW2  324   0.922   2.900   1.224 -1.4267  0.4681  3.6214
  109SOL     OW  325   2.141   0.145   0.769  0.5167  0.2683  0.3508
  109SOL    HW1  326   2.045   0.128   0.735  0.5902 -0.9343  0.1974
  109SOL    HW2  327   2.166   0.087   0.851  1.4009 -1.2715 -0.1311
  110SOL     OW  328   0.471   2.795   2.758  0.3413 -0.1231 -0.2822
  110SOL    HW1  329   0.440   2.772   2.666  1.6738 -1.5328  2.1627
  110SOL    HW2  330   0.522   2.715   2.808  1.1309  0.7774 -0.3690
  111SOL     OW  331   1.279   0.486   2.340  0.4026  0.2193  0.7270
  111SOL    HW1  332   1.191   0.526   2.385  0.0410 -0.6108 -0.4223
  111SOL    HW2  333   1.334   0.434   2.407 -0.5528  3.2736 -0.7461
  112SOL     OW  334   1.769   0.447   1.480  0.1801 -0.3725  0.3227
  112SOL    HW1  335   1.731   0.464   1.387  0.9862  1.1995 -1.6095
  112SOL    HW2  336   1.694   0.416   1.546 -0.3479  0.3878 -0.0795
  113SOL     OW  337   2.366   1.696   1.730  0.3812  0.4936 -0.0041
  113SOL    HW1  338   2.410   1.602   1.738 -0.3846  1.7628  1.7356
  113SOL    HW2  339   2.429   1.774   1.753 -0.6727 -0.4891 -1.2774
  114SOL     OW  340   0.318   0.524   1.208  0.0944 -0.6817 -0.2187
  114SOL    HW1  341   0.375   0.569   1.134  0.0153  0.7481 -1.8279
  114SOL    HW2  342   0.228   0.581   1.228 -1.9500  1.4312 -0.2782
  115SOL     OW  343   2.803   1.567   1.289 -0.3755 -0.4488  0.1116
  115SOL    HW1  344   2.783   1.472   1.313 -0.1488  0.1806 -0.3220
  115SOL    HW2  345   2.882   1.575   1.221 -2.0396  0.8121  2.9011
  116SOL     OW  346   1.862   0.986   0.653  0.8134 -0.3668  0.3864
  116SOL    HW1  347   1.767   0.940   0.676  0.6569  1.6989 -0.4832
  116SOL    HW2  348   1.879   1.080   0.700 -1.8613 -1.6883  2.0167
  117SOL     OW  349   1.175   0.368   0.558 -0.0009  0.3021  0.4303
  117SOL    HW1  350   1.221   0.450   0.525 -4.2249 -0.1880  0.2004
  117SOL    HW2  351   1.146   0.302   0.479 -0.0928 -0.1840 -1.0315
  118SOL     OW  352   1.070   1.211   1.096  0.2433  0.3034  0.3098
  118SOL    HW1  353   1.031   1.151   1.169  1.3106  1.8242 -0.2408
  118SOL    HW2  354   1.082   1.309   1.127  1.7285 -2.9785  2.1599
  119SOL     OW  355   1.855   1.599   2.192  0.5815  0.3052 -0.5166
  119SOL    HW1  356   1.819   1.689   2.159  0.2922 -2.2336 -0.4546
  119SOL    HW2  357   1.953   1.583   2.162  0.8717  0.3162 -1.3320
  120SOL     OW  358   2.896   2.812   0.240  0.0877 -0.3534  0.0853
  120SOL    HW1  359   2.971   2.783   0.179 -0.1113 -0.0769  0.6699
  120SOL    HW2  360   2.807   2.774   0.209 -0.1742 -0.2887  1.8618
  121SOL     OW  361   1.869   0.708   2.160  0.0378  0.0000 -0.3132
  121SOL    HW1  362   1.863   0.790   2.097 -1.4055 -0.4665 -2.0527
  121SOL    HW2  363   1.907   0.628   2.108 -1.3597 -1.4799 -0.7124
  122SOL     OW  364   2.630   2.540   1.344 -0.9438 -1.0697 -0.3273
  122SOL    HW1  365   2.676   2.472   1.281  1.3546  0.2776 -0.5928
  122SOL    HW2  366   2.585   2.501   1.429 -1.6845 -0.5746  3.2982
  123SOL     OW  367   1.734   0.127   1.710  0.2858 -0.2685 -0.3388
  123SOL    HW1  368   1.741   0.038   1.661  0.3793  2.3440  4.3721
  123SOL    HW2  369   1.824   0.151   1.753 -0.2262  0.1022 -1.3333
  124SOL     OW  370   3.074   0.467   1.083 -0.6526  0.4664 -0.0946
  124SOL    HW1  371   2.980   0.499   1.101 -0.2837  1.7457  1.2544
  124SOL    HW2  372   3.101   0.489   0.987 -0.3713 -0.5240  2.1025
  125SOL     OW  373   0.904   1.921   0.770 -0.6358  0.0555  0.1826
  125SOL    HW1  374   0.981   1.856   0.790  1.5005 -1.9227 -2.6970
  125SOL    HW2  375   0.815   1.896   0.818  1.7119 -0.3838 -0.0854
  126SOL     OW  376   1.923   2.292   2.405  1.0647  0.2277  0.2248
  126SOL    HW1  377   1.971   2.248   2.321 -1.2149 -3.8833 -2.1338
  126SOL    HW2  378   1.869   2.222   2.458  1.1148 -1.1554  0.8912
  127SOL     OW  379   0.901   0.964   0.198 -0.2339  0.3756 -0.1343
  127SOL    HW1  380   0.911   1.002   0.299 -1.5966  0.4299  1.8781
  127SOL    HW2  381   0.908   0.860   0.189  1.4888  0.2519 -1.3885
  128SOL     OW  382   0.972   0.265   1.429  0.4334  0.2915 -0.0064
  128SOL    HW1  383   0.943   0.338   1.363 -0.0838  3.2790 -0.5075
  128SOL    HW2  384   0.901   0.190   1.411 -1.5169 -1.2598  1.5393
  129SOL     OW  385   1.858   0.678   1.854  0.1191 -0.7077  0.2896
  129SOL    HW1  386   1.896   0.690   1.753 -0.7829 -0.6709  1.0344
  129SOL    HW2  387   1.876   0.765   1.913  0.1859  1.2356  0.4711
  130SOL     OW  388   1.425   2.216   1.017 -0.3928  0.8890  0.1615
  130SOL    HW1  389   1.365   2.202   0.931 -1.1874 -0.3988 -1.8732
  130SOL    HW2  390   1.492   2.294   1.013 -0.9461  1.6229 -0.4932
  131SOL     OW  391   3.022   1.345   1.352  0.7679  0.0203 -0.0239
  131SOL    HW1  392   2.987   1.257   1.387 -0.4819  0.3595 -0.9316
  131SOL    HW2  393   3.122   1.344   1.360 -1.1645 -1.5346 -0.9784
  132SOL     OW  394   2.034   2.379   0.489 -0.3572  0.0605  0.3127
  132SOL    HW1  395   1.934   2.408   0.484  0.8846 -1.5920 -0.0223
  132SOL    HW2  396   2.052   2.319   0.576  0.8114 -1.6586  2.5100
  133SOL     OW  397   1.757   2.342   2.756  0.4622 -0.4743  0.1007
  133SOL    HW1  398   1.676   2.390   2.709 -1.9068 -0.1681  0.9391
  133SOL    HW2  399   1.854   2.367   2.727  1.2120  2.6827 -0.5428
  134SOL     OW  400   2.674   2.340   1.590  0.1931  0.6648 -0.0057
  134SOL    HW1  401   2.618   2.310   1.672 -0.0590 -0.7499 -1.5155
  134SOL    HW2  402   2.756   2.397   1.616 -1.4713  1.7089 -2.1073
  135SOL     OW  403   0.700   1.465   2.639 -0.5661 -0.2728 -0.0548
  135SOL    HW1  404   0.677   1.383   2.697  2.0078  1.3398  2.6833
  135SOL    HW2  405   0.727   1.445   2.539 -0.0793  1.9386 -2.7393
  136SOL     OW  406   1.224   2.024   0.489 -1.0250 -0.2561 -0.4231
  136SOL    HW1  407   1.141   2.089   0.485 -0.3611 -0.0715 -1.7053
  136SOL    HW2  408   1.195   1.929   0.457 -2.3200 -0.7052 -2.8092
  137SOL     OW  409   0.429   1.223   2.265 -0.2219  0.3059  0.2209
  137SOL    HW1  410   0.324   1.218   2.253 -2.7195 -2.2097 -0.2243
  137SOL    HW2  411   0.475   1.130   2.239 -2.2233  0.5598  1.5852
  138SOL     OW  412   2.480   1.517   0.286 -0.5482  0.2451  0.1880
  138SOL    HW1  413   2.394   1.475   0.251  1.3255  1.4739 -0.4774
  138SOL    HW2  414   2.539   1.451   0.336 -3.5332 -0.5627 -2.6130
  139SOL     OW  415   1.882   2.628   1.499 -0.2716 -0.2445  0.3429
  139SOL    HW1  416   1.790   2.653   1.456 -0.8312  1.8484 -1.4267
  139SOL    HW2  417   1.913   2.537   1.458  1.5201 -0.8557 -2.7551
  140SOL     OW  418   3.027   2.995   2.580 -0.1609  0.3406  0.4962
  140SOL    HW1  419   3.074   2.899   2.582 -1.3906  0.3013 -0.7386
  140SOL    HW2  420   3.085   3.073   2.532  0.2775  2.2096 -0.5423
  141SOL     OW  421   1.311   1.650   1.584  0.2645 -0.6248 -0.0475
  141SOL    HW1  422   1.232   1.718   1.576 -0.4568 -1.1816  0.2935
  141SOL    HW2  423   1.279   1.559   1.624  0.6893 -0.5438  2.1704
  142SOL     OW  424   1.536   0.600   2.273  0.1240  0.2853 -0.2066
  142SOL    HW1  425   1.571   0.580   2.179 -0.2765  2.2524  0.8514
  142SOL    HW2  426   1.442   0.558   2.292 -0.5087  2.1599  1.5606
  143SOL     OW  427   2.778   0.860   0.540 -0.1591 -0.9030  0.5803
  143SOL    HW1  428   2.832   0.905   0.458 -2.2481 -2.1057  0.5813
  143SOL    HW2  429   2.804   0.897   0.633 -1.4167  0.7907 -0.2133
  144SOL     OW  430   2.887   1.155   1.503  0.5091  0.1021 -0.5047
  144SOL    HW1  431   2.863   1.168   1.603 -0.1611  0.4047 -0.7786
  144SOL    HW2  432   2.967   1.086   1.499  2.6871  0.1227 -1.4196
  145SOL     OW  433   0.963   1.832   0.124 -0.7787  0.1770  0.4877
  145SOL    HW1  434   1.026   1.816   0.041  0.3937  1.6942 -0.0836
  145SOL    HW2  435   0.914   1.744   0.151 -0.2236 -1.0804 -1.2942
  146SOL     OW  436   2.443   0.678   1.473 -0.1675 -0.2487 -0.0663
  146SOL    HW1  437   2.402   0.588   1.435 -1.0440 -0.3624  0.7682
  146SOL    HW2  438   2.392   0.763   1.434  1.3933  0.5972  0.3032
  147SOL     OW  439   1.083   2.488   0.586  0.2161 -0.2611 -0.2890
  147SOL    HW1  440   1.051   2.561   0.515  0.2559  2.6300  1.2940
  147SOL    HW2  441   1.177   2.451   0.561 -0.2089  0.3063  0.2928
  148SOL     OW  442   1.638   1.438   3.098 -0.2909  0.4209  0.1401
  148SOL    HW1  443   1.624   1.356   3.035  0.5540  2.0110 -0.0044
  148SOL    HW2  444   1.584   1.433   3.188  0.2591 -0.6208 -0.5394
  149SOL     OW  445   0.653   1.515   1.962  0.1259  0.5616 -0.4838
  149SOL    HW1  446   0.571   1.485   2.016  1.7218 -2.3263  0.5819
  149SOL    HW2  447   0.680   1.438   1.899  1.9102 -0.1720  0.1010
  150SOL     OW  448   3.012   1.225   0.975  0.2458 -0.1281 -0.4633
  150SOL    HW1  449   3.106   1.219   1.024 -0.6151  0.5589  0.2471
  150SOL    HW2  450   2.949   1.143   0.991  0.1255  2.0356 -0.3640
  151SOL     OW  451   0.199   0.792   2.079  0.2419  0.1454  0.1492
  151SOL    HW1  452   0.156   0.846   2.000 -1.1879  2.0051  0.4419
  151SOL    HW2  453   0.276   0.728   2.051  3.4705  1.3530 -1.0538
  152SOL     OW  454   1.426   1.790   1.188 -0.1832 -0.4875  0.2340
  152SOL    HW1  455   1.487   1.872   1.176 -1.8755 -0.1250  1.7878
  152SOL    HW2  456   1.330   1.805   1.140 -0.4795 -0.5845 -0.9152
  153SOL     OW  457   0.187   1.506   0.204  0.2986  0.2240 -0.3582
  153SOL    HW1  458   0.153   1.410   0.191  2.4814 -0.1702  0.6740
  153SOL    HW2  459   0.177   1.540   0.299 -1.7149  2.5949 -0.3766
  154SOL     OW  460   2.324   1.905   2.803 -0.6581  0.0165 -0.4517
  154SOL    HW1  461   2.356   1.803   2.806 -0.3978  1.2479  0.2746
  154SOL    HW2  462   2.402   1.965   2.770  1.8236  0.4575  0.3834
  155SOL     OW  463   2.519   1.245   0.374 -0.6237  0.3573 -0.2076
  155SOL    HW1  464   2.600   1.209   0.313 -1.4430 -0.6041 -0.2086
  155SOL    HW2  465   2.426   1.214   0.348  0.3582 -0.3023 -0.7522
  156SOL     OW  466   2.467   0.829   0.750 -0.4216  0.1916 -0.1446
  156SOL    HW1  467   2.375   0.805   0.713  1.3628 -0.0992 -2.7139
  156SOL    HW2  468   2.530   0.870   0.676 -1.5439 -0.1617 -0.2404
  157SOL     OW  469   1.236   3.008   2.980 -0.1065 -0.1818  0.3237
  157SOL    HW1  470   1.308   2.977   2.906  1.8283 -1.2999 -1.7077
  157SOL    HW2  471   1.260   3.100   3.016  1.5861 -1.1935  1.5877
  158SOL     OW  472   0.993   1.875   1.830  0.5884 -0.4177  0.3443
  158SOL    HW1  473   1.039   1.969   1.837 -0.6348 -0.9065  0.7845
  158SOL    HW2  474   0.919   1.859   1.901 -0.4500  0.4220 -0.7809
  159SOL     OW  475   0.851   0.435   1.220  0.0156  0.1567  0.1349
  159SOL    HW1  476   0.803   0.524   1.254 -0.6255  0.5721 -0.1497
  159SOL    HW2  477   0.783   0.375   1.174  1.7254 -1.9864 -1.0664
  160SOL     OW  478   1.379   2.456   1.533 -0.2333 -0.0519 -0.2530
  160SOL    HW1  479   1.345   2.371   1.584 -0.4209 -2.1065 -0.8430
  160SOL    HW2  480   1.480   2.434   1.516 -0.4640  2.3583  0.1341
  161SOL     OW  481   3.059   2.763   0.453 -0.0423 -0.5037  0.5854
  161SOL    HW1  482   3.048   2.669   0.479  0.0954  0.2818 -4.2932
  161SOL    HW2  483   2.986   2.791   0.391  2.1094 -2.0545  0.5783
  162SOL     OW  484   2.567   1.814   0.472 -0.0539 -0.2173 -0.0051
  162SOL    HW1  485   2.580   1.789   0.369  3.0137 -0.0644 -0.9196
  162SOL    HW2  486   2.500   1.755   0.528 -0.8897  0.2297 -1.3050
  163SOL     OW  487   1.967   2.681   0.747 -0.0966 -0.2702  0.4109
  163SOL    HW1  488   1.901   2.663   0.672 -0.8058  0.9235  1.4435
  163SOL    HW2  489   2.029   2.598   0.766 -1.2928 -2.9036 -3.0294
  164SOL     OW  490   3.057   0.251   1.270 -0.4823 -0.4460 -0.0867
  164SOL    HW1  491   3.068   0.337   1.213 -1.5812 -0.1739  0.8624
  164SOL    HW2  492   3.129   0.220   1.336 -0.7106 -2.2055  0.5486
  165SOL     OW  493   1.070   1.432   0.672  0.0525  0.1818 -0.6305
  165SOL    HW1  494   1.068   1.463   0.773  2.2363  0.7922  0.3418
  165SOL    HW2  495   1.048   1.514   0.613  2.1249 -0.2346  1.5687
  166SOL     OW  496   1.587   1.015   1.777 -0.1215 -0.3154 -0.2087
  166SOL    HW1  497   1.494   1.033   1.828 -2.5117  0.4326 -1.3750
  166SOL    HW2  498   1.644   1.103   1.786 -1.4531  1.4440 -0.2256
  167SOL     OW  499   0.779   1.955   1.444  0.3314 -0.1925 -0.1369
  167SOL    HW1  500   0.807   2.025   1.510  0.1717  0.1639 -0.6194
  167SOL    HW2  501   0.763   1.866   1.493 -1.5917 -0.2792  0.8877
  168SOL     OW  502   1.593   2.352   0.164 -0.1150  0.3671  0.3429
  168SOL    HW1  503   1.665   2.378   0.096  1.4493 -0.9443 -1.0742
  168SOL    HW2  504   1.623   2.283   0.234  0.8855 -1.1840 -0.5162
  169SOL     OW  505   0.120   2.577   2.219 -1.0557  0.1942  0.1249
  169SOL    HW1  506   0.164   2.521   2.139  1.2193 -0.5401 -1.8233
  169SOL    HW2  507   0.172   2.556   2.306  0.3728 -0.8831 -1.1214
  170SOL     OW  508   1.108   0.231   2.019  0.0846 -0.5232  0.1834
  170SOL    HW1  509   1.178   0.222   2.099  0.8876  3.4105  1.1969
  170SOL    HW2  510   1.139   0.184   1.931 -1.6884  0.9311  2.3646
  171SOL     OW  511   0.204   0.826   2.377 -0.0488  0.3539 -0.1457
  171SOL    HW1  512   0.106   0.832   2.417 -0.8144  0.5510 -0.5922
  171SOL    HW2  513   0.203   0.839   2.276  2.0485 -1.9892  2.7798
  172SOL     OW  514   0.972   0.990   2.926 -0.0727 -0.1055  0.3777
  172SOL    HW1  515   0.969   1.068   2.992 -0.5283 -0.0428  0.5311
  172SOL    HW2  516   0.897   0.996   2.855 -0.0077  0.5767 -1.3735
  173SOL     OW  517   0.512   2.445   0.152  0.1119 -0.2174  0.6269
  173SOL    HW1  518   0.490   2.356   0.104  0.0968 -4.0554  0.1741
  173SOL    HW2  519   0.427   2.489   0.194 -1.1399  1.5977  2.5973
  174SOL     OW  520   1.477   2.836   1.061 -0.3149  0.0845  0.6443
  174SOL    HW1  521   1.547   2.903   1.028  1.4762  1.9439 -1.8993
  174SOL    HW2  522   1.472   2.757   0.993  0.5823  0.7513  2.1275
  175SOL     OW  523   0.472   3.054   1.680 -0.2475  0.1930 -0.1457
  175SOL    HW1  524   0.537   3.025   1.755  1.3872  2.7507  0.7618
  175SOL    HW2  525   0.420   3.137   1.711 -0.8883  1.3788 -0.8419
  176SOL     OW  526   2.581   0.372   0.011  0.5220 -0.3740  0.1801
  176SOL    HW1  527   2.626   0.455   0.054 -1.2598  0.8326 -2.6740
  176SOL    HW2  528   2.554   0.302   0.080  0.3356  2.2078 -2.6090
  177SOL     OW  529   0.304   0.279   0.959  0.3658  0.4207  0.5747
  177SOL    HW1  530   0.303   0.176   0.936 -0.0334 -1.9148  2.6629
  177SOL    HW2  531   0.300   0.288   1.061 -2.1067 -0.6640  1.0262
  178SOL     OW  532   0.000   2.725   2.597 -0.0148  0.1026 -0.5418
  178SOL    HW1  533  -0.033   2.629   2.573  1.0168 -1.0484  1.3123
  178SOL    HW2  534   0.061   2.723   2.679 -2.6164  0.8095 -1.1468
  179SOL     OW  535   3.032   1.556   1.138  0.1861 -0.1223 -0.4728
  179SOL    HW1  536   3.113   1.608   1.178 -0.9864  2.3997 -4.0423
  179SOL    HW2  537   3.048   1.455   1.145  4.3459 -0.9978  1.2652
  180SOL     OW  538   0.187   1.351   1.791 -0.0816  0.8133 -0.4247
  180SOL    HW1  539   0.271   1.290   1.828  2.6489 -0.4477 -1.6876
  180SOL    HW2  540   0.121   1.381   1.865 -0.7611 -2.3054 -0.1089
  181SOL     OW  541   3.007   1.942   2.498 -0.0762 -0.4775  0.2435
  181SOL    HW1  542   3.057   2.026   2.476  0.2341 -2.5156  2.4317
  181SOL    HW2  543   2.924   1.929   2.434 -3.4764 -3.0977 -0.9992
  182SOL     OW  544   2.337   1.260   1.259  0.0006  0.7681  0.0804
  182SOL    HW1  545   2.284   1.199   1.197 -0.5219  2.0434  4.2270
  182SOL    HW2  546   2.357   1.358   1.222 -0.9725 -0.1767  0.6966
  183SOL     OW  547   1.413   2.240   2.516 -0.6858 -0.4887 -0.5387
  183SOL    HW1  548   1.352   2.180   2.575 -2.2982 -0.6154 -1.4070
  183SOL    HW2  549   1.482   2.184   2.464 -1.6213  1.8402 -0.0194
  184SOL     OW  550   2.117   0.896   0.716  0.7794 -0.4799 -0.1343
  184SOL    HW1  551   2.025   0.946   0.689 -2.9098 -0.3248  1.1061
  184SOL    HW2  552   2.103   0.797   0.746 -1.0284 -4.1304  0.3100
  185SOL     OW  553   1.543   2.738   2.004 -0.5380  0.2976  0.3773
  185SOL    HW1  554   1.482   2.818   1.972 -1.0666 -0.6981  1.2546
  185SOL    HW2  555   1.593   2.754   2.092 -0.5339  0.0120 -1.2986
  186SOL     OW  556   0.063   2.205   1.637 -0.7736 -0.1049  0.1533
  186SOL    HW1  557   0.048   2.264   1.720 -2.3421  1.0458 -1.4281
  186SOL    HW2  558   0.158   2.160   1.639  1.2742 -2.3817  0.0218
  187SOL     OW  559   1.376   0.618   1.637 -0.1620 -0.0744 -0.2979
  187SOL    HW1  560   1.465   0.675   1.636 -0.7456 -0.9151  1.9921
  187SOL    HW2  561   1.373   0.556   1.727  0.3606  1.7778  3.6919
  188SOL     OW  562   2.832   2.705   1.429  0.6903  0.3374 -0.5430
  188SOL    HW1  563   2.814   2.807   1.416 -0.0481 -2.2331 -0.2906
  188SOL    HW2  564   2.751   2.643   1.400 -0.9690  0.1498 -1.2313
  189SOL     OW  565   0.885   1.168   1.422 -0.0056 -0.4604  0.0189
  189SOL    HW1  566   0.954   1.210   1.492 -1.9493  4.0118 -0.0587
  189SOL    HW2  567   0.833   1.244   1.370  0.9502  0.7894 -4.0050
  190SOL     OW  568   1.501   1.883   1.575 -0.1423 -0.5342 -0.5913
  190SOL    HW1  569   1.468   1.788   1.542  0.0930 -2.0349  0.6066
  190SOL    HW2  570   1.481   1.890   1.683 -0.4606 -0.6732  1.5588
  191SOL     OW  571   0.935   0.808   1.510  0.0908  0.7445  0.6445
  191SOL    HW1  572   0.996   0.733   1.549 -0.9704 -2.9217 -1.6504
  191SOL    HW2  573   0.975   0.871   1.437 -1.3710  0.8435 -0.6179
  192SOL     OW  574   1.850   2.433   1.107 -0.0363  1.1769 -0.5982
  192SOL    HW1  575   1.764   2.432   1.052 -0.6214  0.2928  1.6471
  192SOL    HW2  576   1.927   2.395   1.048 -1.8129  0.1501  1.8361
  193SOL     OW  577   0.517   0.531   0.409 -0.1750 -0.1502  0.3730
  193SOL    HW1  578   0.483   0.447   0.449  3.4218  2.2189 -0.0140
  193SOL    HW2  579   0.548   0.522   0.309 -0.6458  0.8848 -1.9394
  194SOL     OW  580   0.303   0.914   1.304  0.0119  0.1031  0.3885
  194SOL    HW1  581   0.241   0.832   1.306  0.8660  1.8690  1.9988
  194SOL    HW2  582   0.330   0.940   1.209  0.9535 -1.1448 -0.2638
  195SOL     OW  583   0.985   2.884   0.509 -0.0572 -0.1462  0.1013
  195SOL    HW1  584   0.977   2.804   0.444  2.2983 -1.1797  0.2856
  195SOL    HW2  585   1.079   2.919   0.534  0.2113 -0.9566 -1.3689
  196SOL     OW  586   0.200   1.371   1.340  0.0307 -0.1351 -0.1682
  196SOL    HW1  587   0.227   1.472   1.361  2.4532  0.2509 -1.3024
  196SOL    HW2  588   0.229   1.312   1.421 -2.3397  1.0773  1.6972
  197SOL     OW  589   0.818   1.992   0.288  0.3531 -0.4394  0.3786
  197SOL    HW1  590   0.786   1.944   0.374  0.6507 -0.5658 -0.4085
  197SOL    HW2  591   0.849   1.932   0.212 -2.9151  0.7770  1.9842
  198SOL     OW  592   0.324   1.248   0.341 -0.5573 -0.4086  0.0392
  198SOL    HW1  593   0.226   1.232   0.342  1.6546  0.7838  1.5915
  198SOL    HW2  594   0.355   1.334   0.388 -0.9967 -1.4310 -0.2227
  199SOL     OW  595   2.281   0.432   2.582 -0.1092  0.1723 -0.3507
  199SOL    HW1  596   2.207   0.399   2.650 -1.5153 -2.1738 -1.7324
  199SOL    HW2  597   2.373   0.395   2.614  2.2936 -1.2616  2.0206
  200SOL     OW  598   3.096   3.004   0.765  0.0014 -0.4298  0.7217
  200SOL    HW1  599   3.095   3.091   0.816  0.5686 -0.9606  3.0751
  200SOL    HW2  600   3.016   2.991   0.704  1.3964  0.3640 -1.7457
  201SOL     OW  601   0.977   0.709   0.505  0.2622  0.3321  0.0080
  201SOL    HW1  602   0.988   0.790   0.572 -3.9020  1.9613  1.2563
  201SOL    HW2  603   0.901   0.648   0.531  0.6652 -0.3148  1.3262
  202SOL     OW  604   0.419   1.203   1.875 -0.7746  0.1528 -0.2496
  202SOL    HW1  605   0.505   1.153   1.847 -0.3803  1.0088 -0.7667
  202SOL    HW2  606   0.442   1.273   1.949  3.7731 -0.7844 -1.0676
  203SOL     OW  607   0.563   0.185   1.542 -0.1463  0.4419  0.8475
  203SOL    HW1  608   0.545   0.113   1.472  0.6956  2.1634 -0.2288
  203SOL    HW2  609   0.632   0.163   1.613  0.8859  0.3350 -2.0385
  204SOL     OW  610   2.118   1.808   2.984 -0.0322  0.3908  0.3060
  204SOL    HW1  611   2.122   1.707   3.005 -0.9317 -2.3947  4.0785
  204SOL    HW2  612   2.164   1.823   2.895 -0.5004  0.3732 -0.2938
  205SOL     OW  613   1.841   1.817   3.051  0.1148  0.3608  0.6047
  205SOL    HW1  614   1.939   1.803   3.023 -0.4186 -2.8579 -1.7212
  205SOL    HW2  615   1.796   1.904   3.019  0.3147 -0.5557 -0.0260
  206SOL     OW  616   2.420   2.813   0.375 -0.3764 -0.1476  0.3390
  206SOL    HW1  617   2.406   2.726   0.435  0.4498 -0.2857  0.7593
  206SOL    HW2  618   2.518   2.815   0.335  0.0125  0.2464  0.0627
  207SOL     OW  619   0.683   1.763   2.931  0.0651 -0.5528 -0.5816
  207SOL    HW1  620   0.770   1.706   2.922  2.0743 -1.1831  1.6104
  207SOL    HW2  621   0.615   1.720   3.000 -1.5305 -2.3013 -0.8338
  208SOL     OW  622   1.151   1.667   1.325 -0.5799  0.1941 -0.9957
  208SOL    HW1  623   1.157   1.738   1.248 -0.0612  1.5356 -0.7098
  208SOL    HW2  624   1.113   1.707   1.413 -0.3437 -0.6455 -0.5754
  209SOL     OW  625   0.236   0.976   3.092 -0.7492 -0.1953  0.1830
  209SOL    HW1  626   0.209   0.900   3.021  1.7237  0.5983  1.0048
  209SOL    HW2  627   0.249   0.932   3.186  0.2607 -1.1251 -1.8567
  210SOL     OW  628   1.713   0.498   1.214 -0.0292 -0.2107 -0.3404
  210SOL    HW1  629   1.653   0.573   1.174  2.1295 -0.8150 -1.5299
  210SOL    HW2  630   1.815   0.508   1.189  2.9441  2.5936 -2.8688
  211SOL     OW  631   2.032   1.047   1.573  0.2182 -0.0359 -0.2067
  211SOL    HW1  632   2.038   0.975   1.651 -1.8749 -1.6506 -0.6860
  211SOL    HW2  633   2.127   1.084   1.549 -2.8897 -3.3639  0.1440
  212SOL     OW  634   0.005   0.993   1.515 -0.6548  0.3905 -0.4792
  212SOL    HW1  635   0.073   1.067   1.543  0.7661  1.0178 -0.6793
  212SOL    HW2  636   0.015   0.904   1.569 -0.2025 -1.0068 -1.0790
  213SOL     OW  637   2.730   0.185   0.319  0.1579  0.7806 -0.4949
  213SOL    HW1  638   2.819   0.140   0.293  1.0961  1.8266  2.7269
  213SOL    HW2  639   2.655   0.128   0.287  5.1595  2.8774  1.5525
  214SOL     OW  640   2.178   0.395   2.339 -0.2686 -0.0208  0.2652
  214SOL    HW1  641   2.211   0.434   2.427 -1.4651 -1.8675 -0.2227
  214SOL    HW2  642   2.151   0.293   2.355 -0.6618  0.4014  1.3180
  215SOL     OW  643   1.651   2.275   2.107  0.7709 -0.6017 -0.0969
  215SOL    HW1  644   1.743   2.308   2.068  0.2672 -0.9109 -1.1901
  215SOL    HW2  645   1.579   2.349   2.116  1.3204 -0.6746 -0.0750
  216SOL     OW  646   2.210   0.593   0.705 -0.5539 -0.0936 -0.3530
  216SOL    HW1  647   2.188   0.496   0.680 -1.7291  1.2183 -1.5540
  216SOL    HW2  648   2.200   0.664   0.630  0.7020  1.0357 -3.0807
  217SOL     OW  649   0.826   2.794   2.491  0.5633 -0.3818  0.4058
  217SOL    HW1  650   0.761   2.728   2.540  2.5438  0.5227  1.1854
  217SOL    HW2  651   0.869   2.746   2.405  2.5565 -0.6096 -1.3070
  218SOL     OW  652   1.894   1.485   0.048 -0.1691 -0.0651  0.0898
  218SOL    HW1  653   1.794   1.487   0.022 -2.1059  1.0398  1.9332
  218SOL    HW2  654   1.911   1.401   0.105  1.0640  0.4110  1.3195
  219SOL     OW  655   2.458   1.280   2.529  0.8697 -0.0004  0.4647
  219SOL    HW1  656   2.517   1.233   2.456 -2.2260 -0.6639  0.4675
  219SOL    HW2  657   2.455   1.226   2.620 -0.2907  0.7701  0.2363
  220SOL     OW  658   1.434   1.002   1.355 -0.3510  0.1861  0.8403
  220SOL    HW1  659   1.533   0.972   1.362  1.4273  1.3520  1.6613
  220SOL    HW2  660   1.412   1.051   1.268 -2.2791 -1.6404 -1.5650
  221SOL     OW  661   1.278   0.968   2.196  0.2405 -0.4023  0.4410
  221SOL    HW1  662   1.260   0.917   2.105  1.3307 -1.0214  0.0034
  221SOL    HW2  663   1.368   1.015   2.203 -0.2157 -1.3525 -2.4123
  222SOL     OW  664   1.116   0.138   1.194 -0.4085  0.0473  0.3342
  222SOL    HW1  665   1.103   0.209   1.269 -1.2859  1.1182  0.1720
  222SOL    HW2  666   1.149   0.184   1.109  0.3877 -2.7491  0.9208
  223SOL     OW  667   2.699   0.928   2.141 -0.2043  0.2329 -0.4037
  223SOL    HW1  668   2.649   1.012   2.182  0.2566 -0.1639  0.1233
  223SOL    HW2  669   2.779   0.893   2.196 -1.1679 -0.4739 -1.4663
  224SOL     OW  670   1.462   1.085   2.721  0.0333 -0.2947 -0.3343
  224SOL    HW1  671   1.455   0.998   2.663 -1.9272 -3.5740 -1.4570
  224SOL    HW2  672   1.456   1.173   2.661  0.8757 -1.1739  3.5164
  225SOL     OW  673   2.977   2.723   2.876  0.3626 -0.0044  0.0252
  225SOL    HW1  674   2.900   2.708   2.809 -0.1140 -0.7501  2.1645
  225SOL    HW2  675   3.052   2.780   2.839 -2.5517 -2.3540  0.0653
  226SOL     OW  676   2.352   1.614   2.845  0.2173 -0.0179 -0.6570
  226SOL    HW1  677   2.413   1.573   2.770 -2.7881 -0.7985 -2.6132
  226SOL    HW2  678   2.333   1.540   2.909  1.5012 -1.5765 -1.8829
  227SOL     OW  679   0.847   0.206   3.084  0.3428 -0.0271 -0.0483
  227SOL    HW1  680   0.899   0.291   3.072 -0.5769  0.1741  0.3484
  227SOL    HW2  681   0.775   0.198   3.012  0.2553  1.0521 -1.2725
  228SOL     OW  682   2.427   0.586   2.835 -0.1425 -0.2023 -0.5413
  228SOL    HW1  683   2.455   0.652   2.762  2.9405 -1.3342  0.6834
  228SOL    HW2  684   2.503   0.529   2.863 -1.6714  4.0465  0.0222
  229SOL     OW  685   0.565   0.450   1.810 -0.1471  0.3019 -0.3439
  229SOL    HW1  686   0.563   0.359   1.854  1.3749  0.9804 -3.2462
  229SOL    HW2  687   0.627   0.455   1.725  2.4633  0.3556 -0.1151
  230SOL     OW  688   1.881   1.172   2.029 -0.3130  0.1099 -0.3220
  230SOL    HW1  689   1.953   1.236   1.987  0.7668  0.6399 -0.5654
  230SOL    HW2  690   1.819   1.220   2.096 -0.1881 -0.7980  1.1798
  231SOL     OW  691   0.648   1.069   0.016  0.4461 -0.0336 -0.2964
  231SOL    HW1  692   0.730   1.130   0.017  1.9470  1.9776 -0.1540
  231SOL    HW2  693   0.553   1.119   0.015  3.1480  0.3019  0.5735
  232SOL     OW  694   2.435   3.025   2.831 -0.0112 -0.8272 -0.3797
  232SOL    HW1  695   2.517   2.967   2.854  2.5817  0.2216  0.2733
  232SOL    HW2  696   2.462   3.092   2.756  0.9047  0.7244 -0.9810
  233SOL     OW  697   1.774   1.247   1.223  0.0571 -0.3437  0.6165
  233SOL    HW1  698   1.847   1.218   1.152 -2.3746 -0.7029 -0.3067
  233SOL    HW2  699   1.747   1.164   1.282  0.0381 -0.5905 -0.4545
  234SOL     OW  700   1.592   2.526   1.848  0.1216  0.4203 -0.4875
  234SOL    HW1  701   1.575   2.613   1.908  1.2691 -1.4231 -0.3425
  234SOL    HW2  702   1.554   2.441   1.894  1.0953  0.8121  1.7317
  235SOL     OW  703   0.025   3.034   2.833  0.1670 -0.2485  0.7778
  235SOL    HW1  704  -0.044   3.035   2.755 -2.5118 -2.0185 -2.5495
  235SOL    HW2  705  -0.018   3.047   2.926  0.3649 -1.4671  0.4951
  236SOL     OW  706   2.867   0.731   0.080  0.0929 -0.2585  0.5555
  236SOL    HW1  707   2.945   0.766   0.141  3.7931  3.0364 -0.0457
  236SOL    HW2  708   2.895   0.645   0.025  0.3470  0.3883  0.5573
  237SOL     OW  709   1.523   1.632   0.958 -0.1752  0.0366  0.0633
  237SOL    HW1  710   1.621   1.612   0.931 -0.7547 -0.7438 -2.3774
  237SOL    HW2  711   1.512   1.666   1.059  0.4647 -0.2594  2.1145
  238SOL     OW  712   1.874   1.255   0.759  0.4761 -0.6238  0.0390
  238SOL    HW1  713   1.930   1.281   0.841  0.9449 -2.5566 -2.6788
  238SOL    HW2  714   1.792   1.313   0.747 -1.7151 -1.2270 -0.4792
  239SOL     OW  715   2.099   0.304   2.745 -0.1338  0.2407  0.3407
  239SOL    HW1  716   2.130   0.305   2.845 -0.8129 -1.5642  3.1662
  239SOL    HW2  717   2.008   0.347   2.726  1.0662 -2.0866 -1.6721
  240SOL     OW  718   0.925   0.668   0.242 -0.2662  0.1623 -0.3101
  240SOL    HW1  719   0.979   0.592   0.196  2.0711 -1.4299 -2.2754
  240SOL    HW2  720   0.932   0.677   0.344 -1.3216 -0.6889  2.1241
  241SOL     OW  721   0.604   0.099   0.394  0.3618  0.1376 -0.4692
  241SOL    HW1  722   0.649   0.168   0.323 -2.1931  0.3907 -1.0800
  241SOL    HW2  723   0.568   0.017   0.349  1.4723  1.0637  0.6128
  242SOL     OW  724   0.620   2.536   1.152  0.4079  0.2892  0.6908
  242SOL    HW1  725   0.614   2.534   1.258 -1.0515  0.8522 -0.2530
  242SOL    HW2  726   0.622   2.636   1.120  1.6187  1.6539  1.8274
  243SOL     OW  727   1.051   0.584   2.450 -0.2006 -0.7856 -0.9069
  243SOL    HW1  728   0.973   0.620   2.393  0.0522 -0.3792 -2.0868
  243SOL    HW2  729   1.022   0.539   2.537  0.8179 -2.8369  0.3136
  244SOL     OW  730   2.794   1.886   2.329 -0.6711 -0.5861 -0.5400
  244SOL    HW1  731   2.804   1.870   2.223 -1.7911  2.5173 -1.4720
  244SOL    HW2  732   2.716   1.831   2.374  0.1822  0.9271 -0.7944
  245SOL     OW  733   2.205   0.908   2.188 -0.4299  0.1285  0.0037
  245SOL    HW1  734   2.303   0.886   2.220 -1.8417  0.4142  1.5929
  245SOL    HW2  735   2.154   0.979   2.242  1.4779  0.4374  2.2502
  246SOL     OW  736   0.201   2.891   1.702  0.1142 -0.4416  0.5657
  246SOL    HW1  737   0.114   2.917   1.647  0.6111 -0.2975 -0.9059
  246SOL    HW2  738   0.284   2.954   1.682 -1.2710 -3.0178 -1.5575
  247SOL     OW  739   2.223   0.648   3.004 -0.2051  0.2763  0.9031
  247SOL    HW1  740   2.289   0.626   2.922 -1.3217 -0.4512  2.1390
  247SOL    HW2  741   2.152   0.723   2.993  0.7756 -0.6766  1.4467
  248SOL     OW  742   2.189   1.825   1.550  0.9216 -0.0224 -0.2720
  248SOL    HW1  743   2.263   1.774   1.603 -2.1447  1.5657 -0.3378
  248SOL    HW2  744   2.093   1.817   1.585 -1.6036 -0.6519 -0.6751
  249SOL     OW  745   1.947   1.894   1.898  0.4753 -0.1119  0.1470
  249SOL    HW1  746   1.935   1.851   1.806 -0.6397  0.1784  0.0535
  249SOL    HW2  747   2.030   1.956   1.909  1.0165  1.4210  0.2490
  250SOL     OW  748   1.083   0.712   1.879  0.4717 -0.1681 -0.3265
  250SOL    HW1  749   1.123   0.649   1.954 -2.8003  0.2857 -0.4186
  250SOL    HW2  750   1.059   0.656   1.792 -1.5465  0.6635 -1.4768
  251SOL     OW  751   3.069   1.678   2.520 -0.7627  0.2694  0.1341
  251SOL    HW1  752   3.059   1.782   2.499 -1.3570  1.5409 -1.7838
  251SOL    HW2  753   2.975   1.638   2.541 -1.0722  3.4804  2.9556
  252SOL     OW  754   1.623   0.745   1.686 -0.1728 -0.2607  0.2033
  252SOL    HW1  755   1.682   0.714   1.763 -2.2825  0.8316  1.9773
  252SOL    HW2  756   1.607   0.848   1.697  0.2567 -2.3418  1.5614
  253SOL     OW  757   0.984   1.593   0.462 -0.0749  0.6330  0.0545
  253SOL    HW1  758   0.982   1.495   0.420 -0.3047  2.1022 -1.8393
  253SOL    HW2  759   0.899   1.616   0.519 -3.2399 -0.7557  2.2162
  254SOL     OW  760   2.033   2.178   1.638 -0.3183 -0.2493 -0.5545
  254SOL    HW1  761   1.989   2.108   1.577 -0.7556 -0.4853  0.9368
  254SOL    HW2  762   1.965   2.230   1.699 -0.2121 -1.5314  0.0055
  255SOL     OW  763   0.142   1.187   2.911 -0.0494  0.3488 -0.2580
  255SOL    HW1  764   0.186   1.283   2.907 -0.2761 -2.1972 -0.9729
  255SOL    HW2  765   0.193   1.127   2.978  0.4754  0.6139  0.8204
  256SOL     OW  766   2.872   1.413   1.814 -0.4395 -0.4074  0.6387
  256SOL    HW1  767   2.797   1.482   1.845 -0.4421  1.4734  1.6669
  256SOL    HW2  768   2.834   1.319   1.787  1.1438  0.8894 -0.6047
  257SOL     OW  769   0.795   0.179   1.736  0.5001  0.4977 -0.1499
  257SOL    HW1  770   0.850   0.267   1.740 -1.0357 -2.8996  2.9027
  257SOL    HW2  771   0.852   0.092   1.732 -1.8214 -1.8611  1.0337
  258SOL     OW  772   2.996   1.232   0.475 -0.2559 -0.0042  0.0335
  258SOL    HW1  773   2.893   1.231   0.477  0.3582 -2.7836 -0.6811
  258SOL    HW2  774   3.038   1.270   0.562  2.4922  2.1949 -0.5759
  259SOL     OW  775   0.424   2.903   3.051 -0.3649 -0.3637 -0.1840
  259SOL    HW1  776   0.361   2.842   3.112 -1.9868 -1.3801  1.3073
  259SOL    HW2  777   0.473   2.855   2.978  0.3485  0.0558 -0.3323
  260SOL     OW  778   2.729   0.666   2.772 -0.2427  0.4383 -0.1276
  260SOL    HW1  779   2.651   0.735   2.757  0.6069  2.2495 -0.4309
  260SOL    HW2  780   2.704   0.561   2.774 -1.1739 -0.8492  2.9527
  261SOL     OW  781   2.728   1.288   1.337 -0.0839 -0.9808 -0.0438
  261SOL    HW1  782   2.693   1.222   1.268  0.5110  2.2166 -0.1266
  261SOL    HW2  783   2.789   1.241   1.407  0.3732  0.4264  1.8318
  262SOL     OW  784   1.393   2.950   1.917 -0.4842  0.3002 -0.0600
  262SOL    HW1  785   1.436   3.045   1.924  0.1727  1.4204 -1.9225
  262SOL    HW2  786   1.293   2.949   1.938 -0.1314 -3.7279 -0.2477
  263SOL     OW  787   0.858   0.668   2.282 -0.4438  0.0402  0.1018
  263SOL    HW1  788   0.806   0.583   2.236 -0.1477 -0.7936 -2.5152
  263SOL    HW2  789   0.880   0.752   2.221  0.9762  1.8659  1.1020
  264SOL     OW  790   2.241   0.801   0.394 -0.1438  0.1592 -0.3020
  264SOL    HW1  791   2.242   0.726   0.322  2.1910 -0.7584 -1.5600
  264SOL    HW2  792   2.331   0.850   0.417  0.7662 -0.6860  4.3729
  265SOL     OW  793   0.925   2.441   2.645  0.4434 -0.3161 -0.2390
  265SOL    HW1  794   1.002   2.489   2.684 -2.3614 -1.1304 -1.2962
  265SOL    HW2  795   0.921   2.341   2.670  1.0819 -1.8964 -1.0359
  266SOL     OW  796   1.330   1.795   3.038 -0.2909 -0.5722 -0.1090
  266SOL    HW1  797   1.333   1.851   3.126  1.2803 -0.1908  0.9751
  266SOL    HW2  798   1.428   1.766   3.019  0.4042  1.2209  0.6014
  267SOL     OW  799   1.032   0.076   2.322  0.2754  0.5813  0.2989
  267SOL    HW1  800   1.001   0.017   2.240 -0.6910 -2.0116 -1.6755
  267SOL    HW2  801   0.987   0.168   2.333  2.3004  1.3787 -3.6997
  268SOL     OW  802   0.683   1.221   1.083  1.1195  0.2173 -0.5359
  268SOL    HW1  803   0.692   1.271   1.177  2.6498  2.4644  2.1424
  268SOL    HW2  804   0.704   1.282   1.005 -1.4675  0.9805  3.0649
  269SOL     OW  805   2.335   2.519   1.619  0.4237 -0.6178 -0.2602
  269SOL    HW1  806   2.401   2.444   1.641  3.5855  0.2425 -4.1524
  269SOL    HW2  807   2.260   2.538   1.689  0.0053  0.7460  1.3046
  270SOL     OW  808   0.155   2.972   1.958 -0.2165  0.5758  0.1075
  270SOL    HW1  809   0.168   2.922   1.868 -1.2175  0.1794  0.8285
  270SOL    HW2  810   0.090   2.923   2.023  2.1619 -0.4429  0.5474
  271SOL     OW  811   0.424   1.400   1.156 -0.3530  0.4806  0.1369
  271SOL    HW1  812   0.423   1.369   1.055  0.4900  0.9276  0.2775
  271SOL    HW2  813   0.328   1.390   1.198  2.4857 -0.2190 -0.1791
  272SOL     OW  814   2.027   2.963   1.935 -0.1882  0.3145  0.0157
  272SOL    HW1  815   1.932   2.946   1.893 -0.4945 -1.2120 -3.5428
  272SOL    HW2  816   2.092   2.991   1.856 -0.0174  0.1700  3.0479
  273SOL     OW  817   1.500   1.440   2.754 -0.0182 -0.1985  0.3428
  273SOL    HW1  818   1.400   1.417   2.749  0.1015 -0.6040 -0.6755
  273SOL    HW2  819   1.550   1.363   2.805  0.6733 -0.4234  0.0714
  274SOL     OW  820   1.180   0.505   2.058 -0.1832  0.3376 -0.0868
  274SOL    HW1  821   1.161   0.403   2.040  1.5313 -2.1428 -0.2891
  274SOL    HW2  822   1.230   0.521   2.147  1.4929 -1.2612  0.2652
  275SOL     OW  823   0.655   2.132   1.883  0.2590 -0.2315  0.3073
  275SOL    HW1  824   0.641   2.223   1.930  1.1519  2.4752 -0.9426
  275SOL    HW2  825   0.563   2.081   1.874 -1.5961 -0.9648  2.3184
  276SOL     OW  826   2.196   1.123   2.777 -0.0068 -0.0395  0.1490
  276SOL    HW1  827   2.123   1.132   2.700 -3.3658  2.0032  0.8809
  276SOL    HW2  828   2.188   1.034   2.828 -1.9970  1.9006 -0.0451
  277SOL     OW  829  -0.003   0.765   0.242  0.1211  0.4179 -0.0990
  277SOL    HW1  830   0.079   0.810   0.194 -1.2771  0.4974  0.6500
  277SOL    HW2  831   0.024   0.687   0.306  0.2881  1.1229 -0.0180
  278SOL     OW  832   0.213   0.277   2.922 -0.1597 -0.6186  0.1774
  278SOL    HW1  833   0.299   0.226   2.930 -3.0497 -1.1257 -0.1209
  278SOL    HW2  834   0.227   0.382   2.921 -0.2572  0.5556 -3.6595
  279SOL     OW  835   0.230   0.025   0.900  0.0347 -0.2152 -0.0306
  279SOL    HW1  836   0.215  -0.051   0.964  0.9757 -0.3248  1.2113
  279SOL    HW2  837   0.250  -0.011   0.802  0.6908 -0.9707 -0.0525
  280SOL     OW  838   1.614   2.947   2.392  0.2484 -0.0684  0.4136
  280SOL    HW1  839   1.676   3.004   2.451 -2.2509  0.3962  0.9212
  280SOL    HW2  840   1.571   3.005   2.312 -1.4862 -2.0118 -4.0715
  281SOL     OW  841   0.587   0.984   2.265 -0.2552 -0.0488 -0.0314
  281SOL    HW1  842   0.602   0.887   2.236 -1.0651  1.1255  0.1192
  281SOL    HW2  843   0.555   0.989   2.367  1.7718  0.8808  1.3987
  282SOL     OW  844   1.787   2.487   0.500  0.3008 -0.0139  0.2428
  282SOL    HW1  845   1.765   2.396   0.455  1.3378 -1.0235 -0.1278
  282SOL    HW2  846   1.738   2.565   0.455 -1.1805 -1.7596 -0.4680
  283SOL     OW  847   1.211   0.942   0.774 -0.4249  0.0669  0.0296
  283SOL    HW1  848   1.221   0.868   0.847  0.2598 -0.7275 -0.6579
  283SOL    HW2  849   1.155   1.028   0.800 -1.4064  0.0091 -0.6950
  284SOL     OW  850   2.251   2.817   2.508  0.6251 -0.4257 -0.6211
  284SOL    HW1  851   2.354   2.800   2.505  2.2050 -1.0524  0.2925
  284SOL    HW2  852   2.221   2.834   2.610 -0.8146  0.2640 -3.4285
  285SOL     OW  853   1.383   3.067   2.573  0.2088  0.3617 -0.0448
  285SOL    HW1  854   1.418   3.066   2.476  4.0616 -1.5906 -0.1612
  285SOL    HW2  855   1.286   3.108   2.584  1.8990 -0.7785 -0.9692
  286SOL     OW  856   0.422   0.422   0.757  0.1008 -0.2819 -0.6091
  286SOL    HW1  857   0.385   0.380   0.847 -3.7469  2.3777  2.6714
  286SOL    HW2  858   0.414   0.364   0.675  0.3237 -1.2496 -0.4930
  287SOL     OW  859   0.073   1.274   2.518 -0.0272  0.6286  0.7851
  287SOL    HW1  860   0.039   1.201   2.584 -0.6846 -3.8256  1.9433
  287SOL    HW2  861   0.035   1.369   2.532 -0.3374 -0.5333 -0.6619
  288SOL     OW  862   1.601   2.701   1.640 -0.0325  0.2633  0.6418
  288SOL    HW1  863   1.592   2.637   1.716 -0.4962  2.2757 -0.0411
  288SOL    HW2  864   1.590   2.655   1.546  2.6108  1.7791  2.5792
  289SOL     OW  865   0.570   2.717   0.849 -0.2467  0.4339  0.0661
  289SOL    HW1  866   0.649   2.760   0.796  1.5971 -0.9321  0.0766
  289SOL    HW2  867   0.573   2.748   0.946 -2.6850 -1.1815 -2.2225
  290SOL     OW  868   2.850   1.150   1.781 -0.2806 -0.3106 -0.4130
  290SOL    HW1  869   2.782   1.072   1.762  2.8496 -1.5983  2.0195
  290SOL    HW2  870   2.942   1.119   1.821  1.4279 -1.5104 -2.6838
  291SOL     OW  871   1.986   3.091   0.042 -0.0560  0.2130  0.4998
  291SOL    HW1  872   1.978   3.144   0.137  0.9747  2.0617  0.2894
  291SOL    HW2  873   2.066   3.117  -0.022 -2.1237 -0.8231  0.3010
  292SOL     OW  874   3.023   1.230   3.089  0.0215  0.3504  0.3641
  292SOL    HW1  875   2.939   1.262   3.037  2.2120 -0.6470  1.0030
  292SOL    HW2  876   3.100   1.194   3.021  0.4357 -0.4684  1.5311
  293SOL     OW  877   0.531   2.184   0.291  0.2562 -0.2200 -0.1329
  293SOL    HW1  878   0.517   2.279   0.332 -0.2992 -0.2793  1.1622
  293SOL    HW2  879   0.627   2.156   0.298 -1.5254  1.6835  2.5883
  294SOL     OW  880   1.829   2.305   1.773 -0.2651  0.4805  0.6479
  294SOL    HW1  881   1.853   2.345   1.862  1.9098  1.7726 -0.2810
  294SOL    HW2  882   1.757   2.362   1.720 -1.1469  1.0134 -3.9093
  295SOL     OW  883   0.976   1.057   0.434  0.0138 -0.2566  0.1920
  295SOL    HW1  884   1.082   1.054   0.445 -1.7956 -2.7103  1.1529
  295SOL    HW2  885   0.930   1.038   0.522 -0.1044 -1.7583 -2.3322
  296SOL     OW  886   1.206   2.125   2.698 -0.7037  0.8376  0.5431
  296SOL    HW1  887   1.107   2.136   2.675 -1.4421 -1.8857  0.3132
  296SOL    HW2  888   1.241   2.053   2.631 -4.4083 -0.0015  1.2017
  297SOL     OW  889   1.371   0.582   1.311  0.1311 -0.1689 -0.3433
  297SOL    HW1  890   1.393   0.516   1.388 -0.6851 -1.8560 -1.9569
  297SOL    HW2  891   1.454   0.640   1.277 -0.7185  0.6365 -1.6089
  298SOL     OW  892   0.529   1.354   2.999 -0.1320  0.0391 -0.2163
  298SOL    HW1  893   0.457   1.317   3.069 -2.4047 -0.4740  2.6652
  298SOL    HW2  894   0.556   1.287   2.925  0.8086  0.7695  1.1663
  299SOL     OW  895   0.448   0.301   1.281 -0.5398 -0.1388  0.1023
  299SOL    HW1  896   0.394   0.391   1.256 -0.3274  1.6342 -0.0119
  299SOL    HW2  897   0.495   0.313   1.370 -2.4548  1.6393  0.9959
  300SOL     OW  898   1.257   1.714   2.585  0.0287  0.1553 -0.5138
  300SOL    HW1  899   1.248   1.629   2.529 -0.7401  2.9388 -1.9820
  300SOL    HW2  900   1.357   1.740   2.605  2.2299  1.7114 -1.4946
  301SOL     OW  901   0.419   0.266   0.514  0.6543  0.5456  0.2026
  301SOL    HW1  902   0.323   0.244   0.489  1.8856  0.9963  4.0647
  301SOL    HW2  903   0.496   0.219   0.461 -1.1275  0.4233  1.8966
  302SOL     OW  904   1.242   2.431   2.315 -0.5222  0.1427 -0.1034
  302SOL    HW1  905   1.151   2.485   2.314 -1.3740  1.9707  1.6581
  302SOL    HW2  906   1.264   2.398   2.407 -1.2906 -1.5113 -0.9953
  303SOL     OW  907   0.914   2.424   0.817 -0.5123 -0.1028 -0.1697
  303SOL    HW1  908   0.981   2.434   0.741  1.8445 -1.8720  1.6306
  303SOL    HW2  909   0.964   2.443   0.911  1.7734  0.4235  2.6969
  304SOL     OW  910   0.083   1.913   0.695 -0.3760 -0.3708 -0.5893
  304SOL    HW1  911   0.164   1.899   0.626  1.4097  0.6136  1.6560
  304SOL    HW2  912  -0.001   1.956   0.659  1.3533  0.0362  0.2446
  305SOL     OW  913   1.601   0.890   0.672  0.1944  0.4824  0.9123
  305SOL    HW1  914   1.566   0.868   0.576 -0.5787 -3.0744 -2.2106
  305SOL    HW2  915   1.625   0.798   0.707  1.7592  0.1552 -1.1165
  306SOL     OW  916   0.441   1.933   1.883 -0.2649  0.6719 -0.5055
  306SOL    HW1  917   0.514   1.863   1.874 -1.8870  2.7663 -1.1041
  306SOL    HW2  918   0.415   1.955   1.978  0.8040 -0.1781 -1.7217
  307SOL     OW  919   3.005   0.860   2.517 -0.3160 -0.2223 -0.0002
  307SOL    HW1  920   3.037   0.915   2.601  0.5987  0.2481  1.3942
  307SOL    HW2  921   2.946   0.778   2.540  0.2197 -0.9946 -0.1686
  308SOL     OW  922   1.598   2.662   2.789 -0.0125  0.1569  0.8967
  308SOL    HW1  923   1.557   2.625   2.699 -2.4875 -0.9484  0.4261
  308SOL    HW2  924   1.551   2.614   2.868 -0.6670  1.5357 -0.4788
  309SOL     OW  925   1.217   0.169   1.784 -0.0685 -0.4088  0.0159
  309SOL    HW1  926   1.313   0.133   1.802  3.1380 -0.2391 -2.0294
  309SOL    HW2  927   1.206   0.187   1.679 -2.1324  0.9828 -1.0304
  310SOL     OW  928   1.519   2.544   0.679 -0.3629  0.2606  0.5194
  310SOL    HW1  929   1.496   2.597   0.759  1.3166 -2.8934 -2.1547
  310SOL    HW2  930   1.588   2.601   0.622  1.0778  2.0431 -1.3694
  311SOL     OW  931   1.138   0.939   1.755  0.1395  0.6495  0.0577
  311SOL    HW1  932   1.141   0.851   1.809 -0.3136 -0.0748  0.2903
  311SOL    HW2  933   1.168   0.926   1.658  0.9223  0.5320  0.7674
  312SOL     OW  934   1.546   0.675   1.119  0.0841 -0.3584  0.4053
  312SOL    HW1  935   1.573   0.766   1.079 -1.2154 -1.1303  0.5284
  312SOL    HW2  936   1.496   0.621   1.048  1.0666  2.8429  1.6887
  313SOL     OW  937   1.606   1.358   0.722 -0.4626 -0.1460  0.2556
  313SOL    HW1  938   1.544   1.376   0.802 -2.8917 -2.2189  2.9592
  313SOL    HW2  939   1.581   1.272   0.663  0.1417  0.5952 -3.3872
  314SOL     OW  940   2.993   3.086   3.070  0.0620 -0.2039  0.4989
  314SOL    HW1  941   3.006   3.120   3.166 -0.9195  1.3524 -0.4812
  314SOL    HW2  942   2.909   3.029   3.070  1.3671  1.1957 -1.7056
  315SOL     OW  943   1.182   0.259   2.773  0.2521 -0.2193 -0.6335
  315SOL    HW1  944   1.174   0.187   2.699  0.6958 -1.3398  0.7277
  315SOL    HW2  945   1.231   0.226   2.860 -0.2549  1.2322  0.0416
  316SOL     OW  946   1.733   2.089   0.894  0.6413 -0.0060 -0.3535
  316SOL    HW1  947   1.691   2.098   0.984  0.6759  0.1410 -0.6767
  316SOL    HW2  948   1.742   2.179   0.840  0.9828  0.3184 -0.1431
  317SOL     OW  949   1.175   0.646   2.781 -0.5559 -0.1180 -0.5851
  317SOL    HW1  950   1.140   0.692   2.871 -0.8207 -0.7485  3.9765
  317SOL    HW2  951   1.115   0.578   2.740  1.4863  1.9079 -1.8652
  318SOL     OW  952   1.429   3.093   2.231 -0.3664  0.2450  0.0167
  318SOL    HW1  953   1.389   3.187   2.223  1.0754 -0.0570 -1.2007
  318SOL    HW2  954   1.405   3.030   2.155  0.2588  2.3357 -0.2395
  319SOL     OW  955   0.618   2.325   2.905  0.5583 -0.6219 -0.2412
  319SOL    HW1  956   0.556   2.280   2.977  1.2063  3.5501 -1.3481
  319SOL    HW2  957   0.674   2.257   2.853  1.7571  1.2298  1.0642
  320SOL     OW  958   1.697   2.234   0.407 -0.6569  0.1607 -0.2962
  320SOL    HW1  959   1.784   2.173   0.400 -2.3259  0.1220  1.9535
  320SOL    HW2  960   1.615   2.196   0.447  1.5515  2.4453 -4.6551
  321SOL     OW  961   1.674   2.760   0.578  0.0748  0.0619  0.3170
  321SOL    HW1  962   1.599   2.807   0.526  0.9920 -0.1031 -2.2029
  321SOL    HW2  963   1.770   2.775   0.529  1.0521  2.7233  1.5840
  322SOL     OW  964   2.596   1.124   2.329 -0.1616 -0.0666 -0.6254
  322SOL    HW1  965   2.682   1.135   2.385 -1.1488  0.3617  0.3279
  322SOL    HW2  966   2.540   1.043   2.357  3.2200  1.4893 -0.6104
  323SOL     OW  967   1.161   2.661   0.823  0.5886 -0.2716 -0.0242
  323SOL    HW1  968   1.103   2.645   0.735 -1.6224 -4.1419 -4.2488
  323SOL    HW2  969   1.131   2.751   0.873 -1.8142 -0.2743  1.3930
  324SOL     OW  970   0.262   2.513   2.458 -0.4823  0.4349 -0.1309
  324SOL    HW1  971   0.197   2.450   2.509 -0.1647  1.4804 -1.9542
  324SOL    HW2  972   0.271   2.608   2.505  1.9425  0.4732  0.7950
  325SOL     OW  973   1.266   2.991   0.486 -0.3718 -0.0920 -0.6568
  325SOL    HW1  974   1.255   3.040   0.391 -1.1506  0.5932 -1.4059
  325SOL    HW2  975   1.268   3.057   0.568 -2.2600  0.0699 -0.0198
  326SOL     OW  976   2.452   0.788   0.006  0.3374  0.1341  0.3473
  326SOL    HW1  977   2.370   0.759  -0.054 -0.6149 -0.8131 -1.3231
  326SOL    HW2  978   2.506   0.698   0.035  1.9269  0.1762  0.4734
  327SOL     OW  979   2.803   0.306   0.542 -0.3454  0.3565 -0.4708
  327SOL    HW1  980   2.780   0.252   0.456  0.3890 -0.7942 -1.0947
  327SOL    HW2  981   2.813   0.239   0.620 -0.5881 -1.3787 -4.3079
  328SOL     OW  982   2.609   0.611   0.416  0.4450  0.3326 -0.4325
  328SOL    HW1  983   2.674   0.686   0.452  0.5397  0.2433  2.6321
  328SOL    HW2  984   2.551   0.570   0.489 -0.9287 -0.1972 -2.7353
  329SOL     OW  985   2.907   2.940   2.124 -0.4928 -0.3736 -0.3221
  329SOL    HW1  986   2.985   2.893   2.171  1.7722 -0.1683 -3.2337
  329SOL    HW2  987   2.914   3.044   2.129 -2.2348 -0.0469  0.9356
  330SOL     OW  988   0.590   0.178   1.925  0.3604 -0.5247  0.2576
  330SOL    HW1  989   0.661   0.155   1.855 -1.8991 -0.6511  0.2242
  330SOL    HW2  990   0.580   0.122   2.013 -1.7825  3.0488  0.6924
  331SOL     OW  991   3.013   1.933   1.078 -0.3774 -0.2358  0.1318
  331SOL    HW1  992   2.961   1.937   0.990  2.6754  0.4005  0.7259
  331SOL    HW2  993   2.956   1.903   1.157  1.1647 -2.5147  0.3369
  332SOL     OW  994   0.386   1.191   0.069  0.5238  0.0383 -0.2743
  332SOL    HW1  995   0.328   1.107   0.049 -3.4720 -0.8201  2.9076
  332SOL    HW2  996   0.375   1.222   0.168 -2.7295  0.3114 -0.7081
  333SOL     OW  997   2.932   0.995   0.311  0.5093  0.3731  0.5614
  333SOL    HW1  998   2.982   1.069   0.369 -1.2734 -0.6907  0.9733
  333SOL    HW2  999   2.990   0.903   0.293  1.0429 -0.8669  1.5160
  334SOL     OW 1000   1.709   1.278   1.799  0.6304  0.0591 -0.3293
  334SOL    HW1 1001   1.779   1.284   1.724  1.9957  0.0689 -0.3137
  334SOL    HW2 1002   1.750   1.263   1.892  2.0293 -1.2143  1.6976
  335SOL     OW 1003   1.985   2.749   2.585 -0.5348  0.3441  0.3508
  335SOL    HW1 1004   1.937   2.780   2.673  3.7196  1.9284  0.1376
  335SOL    HW2 1005   2.083   2.785   2.581 -1.1848 -1.3559 -1.4204
  336SOL     OW 1006   0.262   0.030   2.727 -0.1356 -0.2166  0.0095
  336SOL    HW1 1007   0.329   0.030   2.805 -0.3930 -1.3059 -0.2032
  336SOL    HW2 1008   0.176  -0.024   2.759 -0.3523 -2.0399 -0.4783
  337SOL     OW 1009   0.981   2.933   2.948 -0.4512  0.2438  0.1850
  337SOL    HW1 1010   0.952   2.847   3.004  0.1353 -3.1261  1.6763
  337SOL    HW2 1011   1.087   2.950   2.949 -1.4350  1.2756  1.6380
  338SOL     OW 1012   0.064   0.992   0.697 -0.1133  0.0196 -0.0878
  338SOL    HW1 1013  -0.029   0.956   0.717 -0.3220 -0.0475 -1.6841
  338SOL    HW2 1014   0.066   1.096   0.711  0.4222  1.0712 -0.7079
  339SOL     OW 1015   1.717   1.355   2.156 -0.0978  0.9302  0.7182
  339SOL    HW1 1016   1.616   1.368   2.169  2.1748 -1.8371 -3.3810
  339SOL    HW2 1017   1.773   1.436   2.127  0.4328 -3.0888  0.4285
  340SOL     OW 1018   2.280   0.756   1.168 -0.8769  0.2295  0.2290
  340SOL    HW1 1019   2.191   0.799   1.139 -1.2134 -1.0996 -1.0240
  340SOL    HW2 1020   2.284   0.655   1.135 -0.7441  1.5184  0.9533
  341SOL     OW 1021   1.938   2.121   0.326 -0.3309  0.0363  0.4503
  341SOL    HW1 1022   1.978   2.123   0.231 -1.0674 -1.7048 -0.0061
  341SOL    HW2 1023   2.004   2.087   0.397 -1.6610  2.1840 -0.9226
  342SOL     OW 1024   2.151   2.134   2.775  0.5212  0.1042 -0.1970
  342SOL    HW1 1025   2.209   2.049   2.789 -1.6031 -0.2812 -1.6688
  342SOL    HW2 1026   2.053   2.112   2.740  0.1164  1.1373 -0.2156
  343SOL     OW 1027   0.406   0.789   2.774  0.3453 -0.3060 -0.2097
  343SOL    HW1 1028   0.394   0.849   2.686  0.1272 -0.2075 -1.0936
  343SOL    HW2 1029   0.492   0.813   2.823  0.6383  1.2956 -0.3894
  344SOL     OW 1030   1.896   1.494   0.409 -0.5882  0.1462 -0.2654
  344SOL    HW1 1031   1.884   1.399   0.368  1.4726  0.0966 -1.3639
  344SOL    HW2 1032   1.811   1.538   0.450 -1.9813 -1.7262 -2.4698
  345SOL     OW 1033   1.391   2.253   2.864  0.3242 -0.0635  0.1317
  345SOL    HW1 1034   1.295   2.247   2.824 -0.1154 -0.2443  1.8466
  345SOL    HW2 1035   1.454   2.182   2.820  4.0858  0.3121  1.0055
  346SOL     OW 1036   2.333   0.924   1.399  0.0934  0.0081  0.1206
  346SOL    HW1 1037   2.303   1.023   1.417 -1.4032  0.5975  1.1445
  346SOL    HW2 1038   2.290   0.879   1.316 -2.8247  0.8919 -1.6070
  347SOL     OW 1039   0.742   2.728   1.636 -0.2288  0.1225 -0.5499
  347SOL    HW1 1040   0.662   2.711   1.701 -1.7757  1.1204  1.4060
  347SOL    HW2 1041   0.717   2.791   1.560 -1.8885 -2.2721 -0.1810
  348SOL     OW 1042   0.177   0.777   2.918 -0.0274  0.2622 -0.3952
  348SOL    HW1 1043   0.091   0.753   2.863 -1.6604 -0.0417 -0.2997
  348SOL    HW2 1044   0.265   0.790   2.855  0.6647  2.9564  1.4127
  349SOL     OW 1045   1.842   0.425   2.776 -0.7833  0.3443  0.2978
  349SOL    HW1 1046   1.820   0.510   2.717 -0.0399  0.1343 -1.1214
  349SOL    HW2 1047   1.817   0.444   2.873  1.8825  0.3981  1.3025
  350SOL     OW 1048   1.655   0.394   0.368  0.1840 -0.3227 -0.3256
  350SOL    HW1 1049   1.739   0.376   0.422 -0.8382 -0.2202 -0.5273
  350SOL    HW2 1050   1.631   0.493   0.372  1.8979 -3.2333 -0.7131
  351SOL     OW 1051   0.954   0.851   2.086 -0.5332 -0.4516 -0.0060
  351SOL    HW1 1052   0.991   0.945   2.078 -0.4748  0.7033  3.3090
  351SOL    HW2 1053   0.979   0.793   2.002 -1.2224  0.6272 -0.8906
  352SOL     OW 1054   2.081   1.371   0.583  0.1134  0.4261 -0.4913
  352SOL    HW1 1055   2.034   1.421   0.506  4.1645  0.5653 -1.0301
  352SOL    HW2 1056   2.006   1.323   0.639  0.8476 -0.7300 -0.3213
  353SOL     OW 1057   2.192   2.821   1.062  0.3464  0.4159 -0.5001
  353SOL    HW1 1058   2.244   2.780   1.139 -0.4963  1.0685 -2.0112
  353SOL    HW2 1059   2.095   2.790   1.072  2.8992  2.4085 -0.9458
  354SOL     OW 1060   0.281   1.423   2.851  0.0862  0.7096  0.3862
  354SOL    HW1 1061   0.238   1.495   2.789 -0.2335 -1.9467  0.1355
  354SOL    HW2 1062   0.381   1.441   2.880  0.5399  2.3129  0.2510
  355SOL     OW 1063   0.745   1.591   0.587 -0.0081 -0.3214 -0.5282
  355SOL    HW1 1064   0.725   1.509   0.645  0.7458  0.9556  0.2852
  355SOL    HW2 1065   0.694   1.578   0.496 -0.7954  1.1812  0.7056
  356SOL     OW 1066   0.858   0.320   2.042  0.4598 -0.5146 -0.3587
  356SOL    HW1 1067   0.953   0.289   2.034  0.2595 -0.7135 -0.8862
  356SOL    HW2 1068   0.792   0.270   1.980 -1.2460  0.4571 -2.0863
  357SOL     OW 1069   1.019   1.321   0.365  1.1277 -0.2200 -0.5055
  357SOL    HW1 1070   1.109   1.338   0.316  0.1640  1.4829  2.0448
  357SOL    HW2 1071   1.007   1.225   0.405 -0.3989  0.7186  1.2870
  358SOL     OW 1072   1.642   1.539   0.489  0.2933 -0.2244 -0.0875
  358SOL    HW1 1073   1.614   1.487   0.579  0.0210  1.4904 -0.7994
  358SOL    HW2 1074   1.590   1.505   0.404 -0.7379 -0.6957  2.2540
  359SOL     OW 1075   1.606   2.618   0.251 -0.7376 -0.5083  0.4192
  359SOL    HW1 1076   1.570   2.521   0.230 -2.9609 -0.7469  0.6570
  359SOL    HW2 1077   1.538   2.688   0.285  3.2918 -0.4817 -0.2580
  360SOL     OW 1078   0.766   0.547   0.544 -0.1116 -0.2310  0.3932
  360SOL    HW1 1079   0.673   0.540   0.491 -1.2972  0.5054 -6.5171
  360SOL    HW2 1080   0.799   0.449   0.566  1.4370  0.5530  0.5196
  361SOL     OW 1081   1.305   1.270   0.650  0.3039 -0.0577 -0.4947
  361SOL    HW1 1082   1.352   1.285   0.745 -2.3056 -1.6904  4.8203
  361SOL    HW2 1083   1.227   1.340   0.637 -0.1157  0.7646 -0.7884
  362SOL     OW 1084   1.379   1.754   0.739 -0.2510 -0.0864 -0.6383
  362SOL    HW1 1085   1.430   1.713   0.821 -1.4626  1.8439  1.7505
  362SOL    HW2 1086   1.436   1.756   0.652  2.8717  0.1156  0.0422
  363SOL     OW 1087   1.237   1.323   2.076 -0.5263 -0.6182 -0.1046
  363SOL    HW1 1088   1.326   1.371   2.079 -0.2873 -1.4476  0.8533
  363SOL    HW2 1089   1.161   1.382   2.047  1.0265  0.7111  0.2716
  364SOL     OW 1090   0.511   2.362   2.025 -0.3416  0.0780  0.1877
  364SOL    HW1 1091   0.413   2.377   2.000 -0.4798 -2.3782 -0.2930
  364SOL    HW2 1092   0.578   2.420   1.969  0.0593  1.3682  1.0979
  365SOL     OW 1093   1.034   1.966   1.339  0.2104  0.1480  0.1707
  365SOL    HW1 1094   0.935   1.960   1.375 -0.2254 -3.1722 -1.3716
  365SOL    HW2 1095   1.037   1.996   1.241 -0.3056  2.0361  0.7937
  366SOL     OW 1096   2.848   1.943   0.367  0.0545 -0.0586  0.2873
  366SOL    HW1 1097   2.754   1.908   0.380 -1.2247  1.7679 -3.4042
  366SOL    HW2 1098   2.911   1.881   0.309  2.5858 -1.3789 -0.8744
  367SOL     OW 1099   0.973   1.193   0.026 -0.2970  0.0076  0.2693
  367SOL    HW1 1100   0.980   1.103   0.079  2.4057 -0.2463 -1.1487
  367SOL    HW2 1101   1.056   1.258   0.037  1.5669 -1.2233  2.1528
  368SOL     OW 1102   1.423   0.531   0.621  0.4534 -0.5814 -0.2111
  368SOL    HW1 1103   1.385   0.583   0.535  0.6332  1.9642 -2.6680
  368SOL    HW2 1104   1.521   0.560   0.655  1.4776 -0.5599 -0.5224
  369SOL     OW 1105   0.376   1.754   0.176  0.0997 -0.1009  0.4668
  369SOL    HW1 1106   0.424   1.816   0.246  1.1016 -2.4713 -0.3667
  369SOL    HW2 1107   0.309   1.694   0.222 -0.3451  0.6543  0.4310
  370SOL     OW 1108   0.440   2.074   1.041 -0.1163  0.3583 -0.4970
  370SOL    HW1 1109   0.453   2.178   1.035  0.4829  2.4010  0.6329
  370SOL    HW2 1110   0.344   2.043   1.036  0.7279  4.1973  0.5970
  371SOL     OW 1111   2.870   2.210   2.612 -0.3952  0.3202  0.0456
  371SOL    HW1 1112   2.817   2.147   2.680  1.4937 -1.6731  3.9678
  371SOL    HW2 1113   2.947   2.261   2.661 -0.0321  0.8840  0.1204
  372SOL     OW 1114   1.066   2.056   1.005  0.7548  0.5413  0.0580
  372SOL    HW1 1115   0.976   2.094   0.974  0.2271  1.2008  1.8966
  372SOL    HW2 1116   1.137   2.068   0.932 -0.7084  1.1455 -0.6264
  373SOL     OW 1117   1.935   1.918   0.944 -0.4740 -0.0377  1.4343
  373SOL    HW1 1118   2.004   1.971   1.004 -1.8021  1.4000  1.6682
  373SOL    HW2 1119   1.855   1.988   0.929 -0.5122 -0.2635  0.6578
  374SOL     OW 1120   1.866   0.391   0.559  0.1092  0.3172  0.0877
  374SOL    HW1 1121   1.843   0.368   0.658 -0.9082 -1.5269  3.3195
  374SOL    HW2 1122   1.963   0.385   0.531 -1.6255  1.5937 -0.4865
  375SOL     OW 1123   2.402   2.161   1.088  0.1820  0.2474 -0.1707
  375SOL    HW1 1124   2.431   2.125   0.997 -0.6859  0.3325 -0.2882
  375SOL    HW2 1125   2.468   2.133   1.163 -1.9650 -1.1546  0.1882
  376SOL     OW 1126   3.031   0.516   1.479  0.2896  0.1173 -0.5250
  376SOL    HW1 1127   3.007   0.583   1.550  3.1399 -0.5587 -2.2198
  376SOL    HW2 1128   2.968   0.431   1.476  2.1391 -1.6742  0.9355
  377SOL     OW 1129   2.174   2.913   0.313  0.2422  0.1881  0.0539
  377SOL    HW1 1130   2.167   3.016   0.320 -2.1949  0.5298 -0.2865
  377SOL    HW2 1131   2.267   2.877   0.350 -0.1822  1.5332 -0.2052
  378SOL     OW 1132   1.743   1.851   2.530  0.3163 -0.6465 -0.1519
  378SOL    HW1 1133   1.844   1.862   2.500  3.3947 -0.6690 -2.1101
  378SOL    HW2 1134   1.703   1.759   2.501 -3.7722  0.8190 -1.4796
  379SOL     OW 1135   0.692   0.150   2.841  0.3338 -0.0661 -0.3426
  379SOL    HW1 1136   0.754   0.070   2.816  1.1728 -0.6051  0.5447
  379SOL    HW2 1137   0.701   0.231   2.777 -0.3471  0.2145  3.8958
  380SOL     OW 1138   1.565   1.138   0.577  0.6109  0.0269 -0.8766
  380SOL    HW1 1139   1.466   1.166   0.577  2.3871  1.6389 -0.6494
  380SOL    HW2 1140   1.585   1.051   0.633  1.6092  1.7722  1.9561
  381SOL     OW 1141   1.348   1.198   1.577  0.0366 -0.0494  0.0430
  381SOL    HW1 1142   1.400   1.146   1.502  1.8866  1.8280 -0.0917
  381SOL    HW2 1143   1.411   1.259   1.629  0.2319  0.4617 -0.6828
  382SOL     OW 1144   1.826   0.888   0.201  0.3451 -0.4627  0.7165
  382SOL    HW1 1145   1.840   0.852   0.105  0.7710  2.3051  0.2120
  382SOL    HW2 1146   1.884   0.849   0.277  0.0435  0.4570 -0.5410
  383SOL     OW 1147   2.585   1.003   1.471  0.0769 -0.1130 -0.0185
  383SOL    HW1 1148   2.488   0.963   1.457  3.6538 -0.8781  1.6998
  383SOL    HW2 1149   2.638   1.001   1.385 -0.9408  1.0721  1.5989
  384SOL     OW 1150   0.925   2.229   0.165 -0.7409  0.1603  0.5714
  384SOL    HW1 1151   0.915   2.312   0.227 -3.5193  0.1303  2.3957
  384SOL    HW2 1152   0.908   2.141   0.214 -0.6913 -0.3967 -1.8733
  385SOL     OW 1153   2.965   2.007   1.664 -0.2935  0.0045  0.2414
  385SOL    HW1 1154   3.036   2.077   1.633  3.8134 -0.2135 -3.2340
  385SOL    HW2 1155   2.994   1.908   1.638  1.7797 -1.7666  0.5548
  386SOL     OW 1156   0.520   1.057   0.464 -0.3922  1.0062  0.0110
  386SOL    HW1 1157   0.508   0.949   0.469 -1.6496 -2.5051  0.8806
  386SOL    HW2 1158   0.429   1.104   0.461  1.5833  2.3157  0.5056
  387SOL     OW 1159   0.920   0.409   1.681 -0.4961 -0.1055 -0.3036
  387SOL    HW1 1160   0.997   0.475   1.683  0.2885  0.8803  0.9862
  387SOL    HW2 1161   0.916   0.353   1.593 -3.2816  0.0135 -1.4561
  388SOL     OW 1162   1.200   2.712   1.733 -0.3683 -0.0224 -0.5292
  388SOL    HW1 1163   1.212   2.721   1.628 -0.8790  0.6270 -1.3583
  388SOL    HW2 1164   1.249   2.626   1.774  3.5106 -0.8194 -0.2763
  389SOL     OW 1165   0.164   3.017   1.221 -0.4668 -0.9033  0.6679
  389SOL    HW1 1166   0.067   3.035   1.234  0.0640 -0.4859 -0.9255
  389SOL    HW2 1167   0.186   2.918   1.238  0.4629  1.3798  0.6111
  390SOL     OW 1168   1.037   0.971   1.312  0.0687 -0.2029 -0.4395
  390SOL    HW1 1169   1.121   0.961   1.369  2.4058 -1.6665 -2.0968
  390SOL    HW2 1170   0.970   1.046   1.342  2.1428  0.5230 -1.9512
  391SOL     OW 1171   2.191   1.126   1.079  0.3836 -0.1161 -0.2042
  391SOL    HW1 1172   2.146   1.044   1.128 -1.0307 -1.1577  0.7404
  391SOL    HW2 1173   2.237   1.099   0.986  1.7551  1.8264  1.9285
  392SOL     OW 1174   0.857   2.668   3.073  0.4914 -0.6292 -0.6759
  392SOL    HW1 1175   0.940   2.610   3.057 -1.5606  4.0114  1.9904
  392SOL    HW2 1176   0.841   2.696   3.173 -1.5998 -0.1799 -0.9347
  393SOL     OW 1177   0.401   0.580   1.972  0.0113  0.0815  0.2361
  393SOL    HW1 1178   0.329   0.508   1.971 -0.9105 -1.4813 -1.8588
  393SOL    HW2 1179   0.476   0.556   1.906 -3.5321 -0.7587  1.1925
  394SOL     OW 1180   2.953   1.895   2.786 -0.0725  0.4837  0.1407
  394SOL    HW1 1181   3.021   1.933   2.854  2.4482  0.7372  1.3402
  394SOL    HW2 1182   2.982   1.914   2.686  0.6853  1.2917 -0.4397
  395SOL     OW 1183   1.607   1.985   0.666 -0.2426  0.1884 -0.0724
  395SOL    HW1 1184   1.667   1.918   0.615 -1.8065 -2.5977  1.2885
  395SOL    HW2 1185   1.631   2.000   0.765 -0.5017  0.3505  0.5769
  396SOL     OW 1186   2.811   1.858   1.280 -0.0049  0.0756  0.0656
  396SOL    HW1 1187   2.782   1.758   1.269 -1.4760 -2.1265 -2.5671
  396SOL    HW2 1188   2.769   1.898   1.363 -0.9634 -1.3563 -0.7116
  397SOL     OW 1189   1.044   2.238   0.494  0.3680 -0.2716 -0.3128
  397SOL    HW1 1190   0.959   2.203   0.541 -0.6176 -1.6401  3.4957
  397SOL    HW2 1191   1.041   2.341   0.482  0.4314 -0.9155  0.6017
  398SOL     OW 1192   2.162   3.095   1.023  0.3483 -0.1772  0.1210
  398SOL    HW1 1193   2.166   3.003   1.071  0.2007 -2.0118  1.5283
  398SOL    HW2 1194   2.109   3.169   1.073  1.1302 -0.3956 -1.2709
  399SOL     OW 1195   3.053   2.468   2.526  0.5657 -0.3779  0.8242
  399SOL    HW1 1196   2.965   2.448   2.482 -2.3171  0.0388  0.6680
  399SOL    HW2 1197   3.084   2.395   2.594  1.1488  0.0952  0.0570
  400SOL     OW 1198   0.780   1.622   1.332  0.1125 -0.0782 -0.1007
  400SOL    HW1 1199   0.720   1.667   1.402 -2.0322 -0.0976 -0.1595
  400SOL    HW2 1200   0.791   1.682   1.247  2.8707  0.7435  2.6551
  401SOL     OW 1201   1.855   0.080   1.312  0.5324  0.2829  0.3028
  401SOL    HW1 1202   1.912   0.049   1.389 -1.4252 -2.2401 -0.5629
  401SOL    HW2 1203   1.756   0.100   1.336 -1.1245 -0.0747 -1.5798
  402SOL     OW 1204   1.307   0.150   3.084 -0.1670 -0.1598  0.1594
  402SOL    HW1 1205   1.393   0.125   3.031 -2.4921  0.3862  1.5229
  402SOL    HW2 1206   1.281   0.249   3.062  0.1367 -1.1378  0.3812
  403SOL     OW 1207   2.291   1.751   0.963  0.1427  0.5135  0.8045
  403SOL    HW1 1208   2.392   1.768   0.991  1.2933  0.8831  0.0194
  403SOL    HW2 1209   2.225   1.831   0.982  1.0716 -1.7976  0.6136
  404SOL     OW 1210   0.164   2.513   2.792 -0.1282 -0.2140  0.0766
  404SOL    HW1 1211   0.262   2.485   2.778  0.0495  0.4228  0.8918
  404SOL    HW2 1212   0.159   2.610   2.816 -0.6842 -0.9495 -0.6641
  405SOL     OW 1213   0.136   2.426   0.731  0.2441  0.7702 -0.1282
  405SOL    HW1 1214   0.120   2.380   0.634 -1.8895 -3.5910 -1.8021
  405SOL    HW2 1215   0.199   2.509   0.729 -1.1636  2.8858 -3.5271
  406SOL     OW 1216   0.096   1.520   3.053  0.1471  0.0140 -0.1220
  406SOL    HW1 1217   0.182   1.496   2.993 -1.4034  0.0156 -2.0091
  406SOL    HW2 1218   0.116   1.531   3.152  2.1556 -0.5828  0.5148
  407SOL     OW 1219   1.522   0.943   1.008  0.0681 -0.9754 -0.0386
  407SOL    HW1 1220   1.506   0.926   0.904  1.5099 -1.9361  0.6877
  407SOL    HW2 1221   1.473   1.028   1.040  2.3542  1.6798  1.8781
  408SOL     OW 1222   1.619   2.417   0.951  0.2774  0.5303 -0.3519
  408SOL    HW1 1223   1.678   2.392   0.871  0.1005  0.0725 -0.7355
  408SOL    HW2 1224   1.532   2.471   0.924 -0.3301  1.3349 -1.0164
  409SOL     OW 1225   0.605   0.834   0.738  0.2002 -0.4324  0.2182
  409SOL    HW1 1226   0.564   0.818   0.647 -0.1011 -3.9483  3.0891
  409SOL    HW2 1227   0.628   0.743   0.783 -1.5500 -1.1489 -0.1128
  410SOL     OW 1228   1.317   2.067   1.411  0.0598 -0.7255 -0.4831
  410SOL    HW1 1229   1.387   2.018   1.459  0.6165  0.6648 -1.5572
  410SOL    HW2 1230   1.252   2.003   1.359 -1.6494 -1.2889  0.8828
  411SOL     OW 1231   2.600   1.900   3.046  0.1724  0.0046  0.3694
  411SOL    HW1 1232   2.502   1.919   3.028  0.6117 -1.0941  0.5641
  411SOL    HW2 1233   2.637   1.825   2.985  0.5131  2.3775 -0.0308
  412SOL     OW 1234   1.466   2.463   2.166  0.1642  0.2135 -0.0866
  412SOL    HW1 1235   1.508   2.545   2.213  2.4708  1.5521  0.0825
  412SOL    HW2 1236   1.385   2.427   2.223 -0.2605  0.8192  1.3194
  413SOL     OW 1237   3.038   0.219   2.939 -0.0348 -0.5202 -0.6009
  413SOL    HW1 1238   3.014   0.143   3.005  2.0307  0.6062  2.1436
  413SOL    HW2 1239   3.137   0.245   2.940 -1.0867  0.2941  1.5107
  414SOL     OW 1240   1.865   1.518   1.191  1.0202  0.4873  0.0829
  414SOL    HW1 1241   1.808   1.602   1.222  3.4277  0.7751  0.3798
  414SOL    HW2 1242   1.818   1.427   1.177 -1.5416  1.2917  0.1631
  415SOL     OW 1243   0.346   2.243   0.681 -0.4432  0.5716 -0.2315
  415SOL    HW1 1244   0.271   2.314   0.690 -0.1395 -2.0136  2.1889
  415SOL    HW2 1245   0.334   2.174   0.764 -1.5502 -0.0627  1.0199
  416SOL     OW 1246   0.379   1.045   1.062 -0.0910  0.9105  0.0539
  416SOL    HW1 1247   0.365   1.013   0.959 -0.7186  0.6707 -0.6381
  416SOL    HW2 1248   0.473   1.095   1.073  2.5788  0.8304 -0.8409
  417SOL     OW 1249   2.232   2.323   2.018 -0.0721 -0.5293  0.2876
  417SOL    HW1 1250   2.306   2.280   2.074  0.7652  0.7898  0.0070
  417SOL    HW2 1251   2.149   2.267   2.002  2.7170 -0.1255  1.4024
  418SOL     OW 1252   1.086   0.543   1.357  0.2158  0.4370  0.0177
  418SOL    HW1 1253   1.006   0.529   1.293 -2.0660 -1.5318 -1.2738
  418SOL    HW2 1254   1.177   0.563   1.315  0.1336  0.9386  1.6336
  419SOL     OW 1255   0.932   0.487   3.006  0.2373  0.3898 -0.1811
  419SOL    HW1 1256   0.859   0.495   2.935  2.6239  1.7797  2.0453
  419SOL    HW2 1257   0.952   0.579   3.048  1.6228 -1.7231 -2.6057
  420SOL     OW 1258   0.100   2.258   0.478  0.3657 -0.0723  0.6247
  420SOL    HW1 1259   0.122   2.239   0.379 -0.2487  3.2060  1.4223
  420SOL    HW2 1260   0.048   2.182   0.527  0.1750 -1.3532 -0.5236
  421SOL     OW 1261   0.340   3.011   0.652 -0.5695 -0.0663 -0.2198
  421SOL    HW1 1262   0.369   2.918   0.695 -0.2017 -0.9043 -0.5021
  421SOL    HW2 1263   0.407   3.089   0.666 -2.4498 -1.0056  0.7407
  422SOL     OW 1264   1.055   2.507   1.046 -0.2460  0.7441  0.6449
  422SOL    HW1 1265   1.119   2.562   0.987 -1.3753 -0.0051 -1.0729
  422SOL    HW2 1266   1.040   2.555   1.138  2.2592 -0.1269  1.0004
  423SOL     OW 1267   0.107   0.689   1.298  0.4919  0.5455 -0.0431
  423SOL    HW1 1268   0.056   0.633   1.363 -0.0222 -2.1187 -0.0482
  423SOL    HW2 1269   0.053   0.763   1.253  1.0972 -1.0732 -2.6133
  424SOL     OW 1270   0.992   2.239   2.040  0.1282  0.9472  0.4343
  424SOL    HW1 1271   0.995   2.338   2.004  0.5041  0.7811 -1.8005
  424SOL    HW2 1272   0.992   2.230   2.142  2.4771  0.6278  1.6894
  425SOL     OW 1273   2.008   1.326   0.998 -0.5623 -0.3906  0.6078
  425SOL    HW1 1274   2.071   1.256   1.036 -1.1120  0.0324  0.2443
  425SOL    HW2 1275   2.066   1.405   0.958  1.5145 -0.1875  0.5581
  426SOL     OW 1276   1.483   1.585   1.377  0.4319 -0.0098 -0.9421
  426SOL    HW1 1277   1.444   1.655   1.312  2.2901 -2.1769 -0.4650
  426SOL    HW2 1278   1.413   1.570   1.456 -2.1138 -0.3249  1.4506
  427SOL     OW 1279   1.912   2.364   2.059  0.3579 -0.2736  0.2719
  427SOL    HW1 1280   1.960   2.284   2.098 -0.6710  1.6846 -1.6763
  427SOL    HW2 1281   1.933   2.453   2.109 -0.3999  0.5995  1.9242
  428SOL     OW 1282   0.841   0.007   0.161  0.0093  0.3811 -0.1504
  428SOL    HW1 1283   0.846   0.064   0.072  2.0816  0.0374 -0.9228
  428SOL    HW2 1284   0.916  -0.071   0.160 -2.0410 -1.4061 -0.5349
  429SOL     OW 1285   1.303   0.065   0.254 -0.3709  0.5044  0.1220
  429SOL    HW1 1286   1.398   0.076   0.300  0.2350  0.3388 -1.0786
  429SOL    HW2 1287   1.304   0.079   0.150  0.1691 -2.4813 -0.5166
  430SOL     OW 1288   2.769   1.430   0.311  0.5614  0.0541  0.1053
  430SOL    HW1 1289   2.787   1.488   0.227 -0.6223 -1.6721  2.8254
  430SOL    HW2 1290   2.786   1.487   0.397 -0.9702  2.0658  1.3383
  431SOL     OW 1291   2.109   1.559   0.870  0.3022  0.3862 -0.1388
  431SOL    HW1 1292   2.178   1.626   0.908  1.7128 -2.4151 -2.7359
  431SOL    HW2 1293   2.045   1.594   0.794  0.2435 -0.6379 -2.4475
  432SOL     OW 1294   2.859   2.239   1.239  0.3861 -0.0511 -0.7247
  432SOL    HW1 1295   2.786   2.176   1.266  4.0427 -1.6017  0.0518
  432SOL    HW2 1296   2.902   2.280   1.323 -1.6980  2.3106 -1.1130
  433SOL     OW 1297   1.846   0.369   0.848 -0.2767 -0.0239 -0.0076
  433SOL    HW1 1298   1.750   0.353   0.888  1.0365 -0.4648 -4.4130
  433SOL    HW2 1299   1.903   0.289   0.849 -1.5377  0.4692 -0.2799
  434SOL     OW 1300   1.509   0.249   0.734 -0.2432  0.6452 -1.0005
  434SOL    HW1 1301   1.484   0.344   0.699  2.5230 -2.1659 -1.2025
  434SOL    HW2 1302   1.520   0.251   0.838  0.7606 -0.2542 -0.2384
  435SOL     OW 1303   1.466   1.490   2.087 -0.3761  0.2988 -0.9613
  435SOL    HW1 1304   1.473   1.562   2.159  0.8130  0.7304  1.7237
  435SOL    HW2 1305   1.489   1.532   2.000 -0.5712 -0.3778  0.7776
  436SOL     OW 1306   1.709   2.731   2.240  0.0690 -0.1131  0.5130
  436SOL    HW1 1307   1.668   2.800   2.308  2.5289  0.9879 -0.3931
  436SOL    HW2 1308   1.738   2.644   2.290 -1.9329 -1.0788  0.8151
  437SOL     OW 1309   1.111   2.951   0.961  0.1099  0.4637 -0.0313
  437SOL    HW1 1310   1.033   3.008   0.923  0.4411 -1.4020 -0.4363
  437SOL    HW2 1311   1.108   2.958   1.066  0.4749 -0.0354 -0.2573
  438SOL     OW 1312   0.998   2.593   1.308 -0.3225 -0.2699 -0.2558
  438SOL    HW1 1313   1.057   2.631   1.383  2.3741 -1.2071  0.6326
  438SOL    HW2 1314   0.987   2.490   1.318  1.6406  1.1264  0.0081
  439SOL     OW 1315   0.678   1.770   1.083 -0.1003  0.1070  0.3296
  439SOL    HW1 1316   0.652   1.855   1.030 -0.5366 -1.7978 -0.4217
  439SOL    HW2 1317   0.594   1.729   1.131 -0.2983  1.6570  0.8706
  440SOL     OW 1318   1.007   2.502   1.951  0.0997 -0.3518 -0.6193
  440SOL    HW1 1319   0.971   2.501   1.853 -0.5599 -0.6281 -0.7871
  440SOL    HW2 1320   1.109   2.515   1.954  1.7975  0.0907  2.7530
  441SOL     OW 1321   0.507   2.730   1.435  0.4526  0.1311  0.0127
  441SOL    HW1 1322   0.547   2.632   1.446 -0.4248 -0.2966 -1.3440
  441SOL    HW2 1323   0.412   2.728   1.400 -2.9964  3.0782  2.0018
  442SOL     OW 1324   2.275   0.701   2.500 -0.3266  0.2870  0.2961
  442SOL    HW1 1325   2.277   0.607   2.540 -1.3185  1.6501 -0.3146
  442SOL    HW2 1326   2.199   0.715   2.431  0.1379 -0.8813 -1.2535
  443SOL     OW 1327   1.243   2.708   2.145 -0.3930  0.1435 -0.0832
  443SOL    HW1 1328   1.219   2.771   2.225  0.5937  1.4302  2.0501
  443SOL    HW2 1329   1.300   2.634   2.186 -2.1140  2.6723 -0.2054
  444SOL     OW 1330   1.065   1.261   1.586 -0.0034 -0.2682 -0.0879
  444SOL    HW1 1331   1.160   1.242   1.554  0.7020  2.6610 -1.0822
  444SOL    HW2 1332   1.069   1.331   1.660  1.2988  0.9005  1.0458
  445SOL     OW 1333   0.016   2.359   1.863 -0.3805 -0.1457  0.2642
  445SOL    HW1 1334   0.018   2.458   1.824  2.5874 -1.3618  1.6776
  445SOL    HW2 1335  -0.070   2.342   1.924 -2.0143 -0.6074 -1.0314
  446SOL     OW 1336   0.232   1.914   2.309 -0.2253  0.3092  0.4236
  446SOL    HW1 1337   0.189   1.983   2.375 -3.3688  0.4911  0.5888
  446SOL    HW2 1338   0.172   1.911   2.223 -4.6264  2.2857 -0.0787
  447SOL     OW 1339   1.166   1.688   1.939 -0.2496  0.4983 -0.1851
  447SOL    HW1 1340   1.112   1.741   1.867  0.5028 -0.5698  0.3857
  447SOL    HW2 1341   1.241   1.748   1.975 -0.3936  0.6141  1.2915
  448SOL     OW 1342   0.170   1.545   2.035 -0.0272  0.5517 -0.3509
  448SOL    HW1 1343   0.174   1.624   1.970 -1.1192 -1.1267 -1.8424
  448SOL    HW2 1344   0.139   1.574   2.133 -0.5370 -1.0926  4.6219
  449SOL     OW 1345   1.969   2.935   0.831  0.0002  0.1850 -0.1571
  449SOL    HW1 1346   2.051   2.972   0.881  1.3138 -1.8211  0.7949
  449SOL    HW2 1347   1.989   2.838   0.806  2.1498  0.4116 -1.5714
  450SOL     OW 1348   2.346   1.350   0.743 -0.0805 -0.3010  0.4272
  450SOL    HW1 1349   2.280   1.285   0.786 -0.4848 -1.1604 -0.1113
  450SOL    HW2 1350   2.307   1.445   0.731  0.6498 -1.6886  1.9669
  451SOL     OW 1351   1.322   3.073   1.434  0.3898  1.0011 -0.0217
  451SOL    HW1 1352   1.268   3.156   1.460 -0.6468 -0.4571 -1.4575
  451SOL    HW2 1353   1.370   3.029   1.516 -1.3786  1.0179 -1.0693
  452SOL     OW 1354   2.682   2.287   2.171 -0.0327  0.0583  0.1858
  452SOL    HW1 1355   2.603   2.346   2.206 -1.1371  0.3572 -0.3629
  452SOL    HW2 1356   2.743   2.245   2.245 -1.0996  0.5858  1.3538
  453SOL     OW 1357   2.453   2.666   3.062 -0.0491 -0.1759 -0.5917
  453SOL    HW1 1358   2.362   2.702   3.102 -1.1476  2.4430  2.2846
  453SOL    HW2 1359   2.435   2.588   2.995 -2.3884 -0.9305 -3.1458
  454SOL     OW 1360   1.041   1.107   2.061  0.3164  0.3849 -0.1577
  454SOL    HW1 1361   0.985   1.133   1.976 -1.2801 -2.0638  1.8778
  454SOL    HW2 1362   1.118   1.171   2.092 -0.0599 -1.0556  0.0624
  455SOL     OW 1363   0.619   2.605   2.893 -0.0862  0.2303  0.1080
  455SOL    HW1 1364   0.672   2.655   2.963 -0.6002 -1.3175 -0.0066
  455SOL    HW2 1365   0.618   2.501   2.914 -2.2562  0.7013  1.6668
  456SOL     OW 1366   0.495   1.913   0.348  0.4277  0.1636  0.8544
  456SOL    HW1 1367   0.576   1.881   0.410 -1.0508 -1.5032  1.3901
  456SOL    HW2 1368   0.498   2.013   0.326 -0.3855 -2.7726  0.4326
  457SOL     OW 1369   0.348   2.618   0.713  0.4608  0.0857  0.5756
  457SOL    HW1 1370   0.357   2.641   0.613 -1.2765  1.5921  5.2832
  457SOL    HW2 1371   0.431   2.653   0.771  0.4616  1.9894  1.0793
  458SOL     OW 1372   2.954   0.007   1.207 -0.0943  0.1602 -0.0744
  458SOL    HW1 1373   3.017   0.094   1.209  2.2883  0.1830 -0.3893
  458SOL    HW2 1374   2.930  -0.035   1.113  0.3662 -1.6915  2.4950
  459SOL     OW 1375   2.192   2.529   0.822 -0.1404 -0.6666  0.2723
  459SOL    HW1 1376   2.224   2.628   0.833  1.5522  1.6496  2.5699
  459SOL    HW2 1377   2.239   2.481   0.745 -1.1003 -0.5614 -1.6776
  460SOL     OW 1378   1.124   1.967   2.908 -0.1583 -0.1961  0.6067
  460SOL    HW1 1379   1.165   2.026   2.829  2.0271 -1.9938 -1.2252
  460SOL    HW2 1380   1.195   1.918   2.966  1.2438 -2.5857  2.4577
  461SOL     OW 1381   0.503   2.111   2.678 -0.3054  0.1840  0.3520
  461SOL    HW1 1382   0.443   2.037   2.637 -0.7788  1.4448 -0.0804
  461SOL    HW2 1383   0.550   2.082   2.770  0.7960  2.0183  1.5774
  462SOL     OW 1384   0.918   1.113   1.827  0.0857  0.9197  0.0424
  462SOL    HW1 1385   1.003   1.071   1.792  1.6723  2.6440 -0.7574
  462SOL    HW2 1386   0.902   1.208   1.782 -0.2452  0.3014  0.6421
  463SOL     OW 1387   0.458   0.769   0.513 -0.0237 -0.3826  0.5029
  463SOL    HW1 1388   0.501   0.681   0.481 -1.5158  0.6915 -1.5910
  463SOL    HW2 1389   0.350   0.773   0.503  0.1456 -1.9216 -1.1330
  464SOL     OW 1390   0.578   2.241   2.271  0.0459 -0.7135  0.1347
  464SOL    HW1 1391   0.589   2.322   2.333 -0.7819  0.2301  1.5104
  464SOL    HW2 1392   0.553   2.268   2.176  2.3307 -1.1021  1.8955
  465SOL     OW 1393   0.302   0.935   0.815 -0.4366 -0.1681  0.0048
  465SOL    HW1 1394   0.208   0.962   0.772 -0.7368  0.2913  0.0872
  465SOL    HW2 1395   0.316   0.837   0.806 -0.1812  2.0904  1.5346
  466SOL     OW 1396   1.362   1.160   1.124 -0.4351  0.4704  1.2535
  466SOL    HW1 1397   1.420   1.241   1.157  1.5916  0.7460  3.1792
  466SOL    HW2 1398   1.257   1.176   1.131  0.2417 -0.5459 -2.8729
  467SOL     OW 1399   0.491   0.302   2.357  0.2648  0.2501 -0.2267
  467SOL    HW1 1400   0.449   0.392   2.391  1.3763  2.5227  0.9819
  467SOL    HW2 1401   0.478   0.229   2.432 -1.2641 -0.0793  0.1975
  468SOL     OW 1402   0.474   2.312   1.687  0.0574  0.1277  0.3928
  468SOL    HW1 1403   0.549   2.377   1.715 -1.9556 -0.4594 -2.0895
  468SOL    HW2 1404   0.452   2.313   1.585 -0.4686 -0.6885  2.3440
  469SOL     OW 1405   1.505   1.345   1.250 -0.4971  0.1531  0.6439
  469SOL    HW1 1406   1.601   1.302   1.257  0.5910  2.6471 -0.7562
  469SOL    HW2 1407   1.508   1.438   1.290  0.3418  1.1750  2.5700
  470SOL     OW 1408   3.035   1.677   0.788  0.3595  0.2367 -0.3083
  470SOL    HW1 1409   3.114   1.743   0.773  0.5355  2.3629  0.9956
  470SOL    HW2 1410   2.964   1.724   0.852 -1.6993 -0.3493 -1.0175
  471SOL     OW 1411   2.646   1.336   2.159 -0.0589  0.4218 -0.1730
  471SOL    HW1 1412   2.617   1.275   2.237  0.2164 -0.8074  0.3641
  471SOL    HW2 1413   2.733   1.394   2.172 -2.2975  1.8212  0.7959
  472SOL     OW 1414   1.138   2.499   3.061  0.0055 -0.4588 -0.0687
  472SOL    HW1 1415   1.164   2.500   3.159 -0.2231  0.8397  0.7700
  472SOL    HW2 1416   1.114   2.408   3.020 -2.1701 -0.4511 -0.1352
  473SOL     OW 1417   1.068   1.501   0.981 -0.2630  0.0113 -0.4477
  473SOL    HW1 1418   0.961   1.502   1.001 -1.8347 -0.5338 -2.4815
  473SOL    HW2 1419   1.122   1.498   1.064 -1.9767 -0.9351 -1.1674
  474SOL     OW 1420   0.708   1.230   0.610  0.2559 -0.3678  0.3416
  474SOL    HW1 1421   0.703   1.243   0.511  0.7759  0.5445  1.1578
  474SOL    HW2 1422   0.770   1.152   0.637 -1.4334 -0.8191  0.1148
  475SOL     OW 1423   2.827   0.158   0.769 -0.3798  0.7027  0.7476
  475SOL    HW1 1424   2.905   0.161   0.835  0.3460 -0.3500 -1.1572
  475SOL    HW2 1425   2.732   0.161   0.807 -0.5822 -1.7965  1.4511
  476SOL     OW 1426   0.859   2.965   1.770  0.3359 -0.2992 -0.0775
  476SOL    HW1 1427   0.940   2.936   1.829 -0.6718  1.4373 -0.2924
  476SOL    HW2 1428   0.882   2.957   1.671 -0.0657  1.1949  2.3235
  477SOL     OW 1429   1.439   0.340   2.493 -0.3626  0.0712 -0.0310
  477SOL    HW1 1430   1.456   0.365   2.592  1.9466  0.6741 -0.7132
  477SOL    HW2 1431   1.521   0.297   2.452  0.8959 -2.1128  1.2377
  478SOL     OW 1432   2.241   1.826   0.266  0.6779  0.1440  0.1666
  478SOL    HW1 1433   2.166   1.752   0.253  0.5087 -0.1098  0.3544
  478SOL    HW2 1434   2.330   1.790   0.234 -0.9126  0.1830 -3.6120
  479SOL     OW 1435   1.298   1.094   2.939 -0.1441 -0.2995 -0.2184
  479SOL    HW1 1436   1.352   1.075   2.856  3.4210  1.4408  2.1277
  479SOL    HW2 1437   1.200   1.098   2.919  2.7033 -0.4276  2.6092
  480SOL     OW 1438   2.513   2.324   0.385 -0.2223  0.5570  0.2765
  480SOL    HW1 1439   2.464   2.232   0.399 -0.4869 -2.4147 -1.1128
  480SOL    HW2 1440   2.468   2.369   0.303  0.0868 -0.7466 -0.2317
  481SOL     OW 1441   1.022   1.147   0.839 -0.0064 -0.0704 -0.4600
  481SOL    HW1 1442   1.025   1.228   0.775  1.0676  1.3361  2.7265
  481SOL    HW2 1443   1.051   1.178   0.935 -0.1762 -1.7801 -0.1299
  482SOL     OW 1444   1.607   0.293   2.048  0.0556 -0.0284  0.0980
  482SOL    HW1 1445   1.623   0.391   2.022  0.3210  0.0691 -1.1727
  482SOL    HW2 1446   1.691   0.246   2.094 -3.0435  0.2353 -1.2867
  483SOL     OW 1447   0.172   2.335   1.248  0.1205  0.6017  0.5278
  483SOL    HW1 1448   0.091   2.350   1.311  2.2580  3.8901  0.9578
  483SOL    HW2 1449   0.160   2.385   1.156  0.3977 -1.7139  1.0294
  484SOL     OW 1450   1.719   1.040   1.377 -0.7956 -0.9972 -0.4096
  484SOL    HW1 1451   1.775   0.955   1.364  0.2854  0.0877  0.8402
  484SOL    HW2 1452   1.742   1.097   1.459 -1.1140  0.0135 -1.9359
  485SOL     OW 1453   0.640   1.047   1.808  0.5254  0.1295 -1.1392
  485SOL    HW1 1454   0.645   1.023   1.707 -0.3972 -0.8842  3.4999
  485SOL    HW2 1455   0.734   1.067   1.842 -0.5161  1.7515  0.3568
  486SOL     OW 1456   0.911   1.920   2.470  0.7685  0.2060 -0.0935
  486SOL    HW1 1457   0.946   1.864   2.548 -3.0449  1.0503 -2.5720
  486SOL    HW2 1458   0.834   1.985   2.499  2.7349 -2.1251  1.2853
  487SOL     OW 1459   1.782   1.570   0.916 -1.2806 -0.3471  0.0898
  487SOL    HW1 1460   1.841   1.565   0.998 -3.0893 -1.7871 -1.4802
  487SOL    HW2 1461   1.834   1.613   0.838  1.4723  0.4089 -0.7146
  488SOL     OW 1462   2.936   0.870   2.253  0.3510  0.3346 -0.3763
  488SOL    HW1 1463   2.990   0.791   2.221  0.6699  1.6814 -1.0719
  488SOL    HW2 1464   2.947   0.885   2.357  0.2766 -1.3251 -0.1229
  489SOL     OW 1465   2.784   0.255   1.304  0.6295 -0.3276  0.3040
  489SOL    HW1 1466   2.749   0.228   1.396 -0.3984  1.1357  2.3668
  489SOL    HW2 1467   2.878   0.218   1.291 -1.8908  0.3408  4.3399
  490SOL     OW 1468   1.446   2.903   2.798 -0.1786  0.1981 -0.4199
  490SOL    HW1 1469   1.521   2.829   2.798  0.1452 -1.1203 -0.2967
  490SOL    HW2 1470   1.434   2.960   2.714  1.0612  0.4161 -1.0417
  491SOL     OW 1471   1.806   1.473   2.619 -0.7242  0.0459  0.7249
  491SOL    HW1 1472   1.742   1.457   2.697  1.9367 -2.1799 -1.2217
  491SOL    HW2 1473   1.905   1.499   2.649 -1.5940  0.0199  1.4829
  492SOL     OW 1474   0.520   1.997   0.661  0.0421  0.2866  0.5060
  492SOL    HW1 1475   0.570   1.994   0.755 -1.3230 -0.8859  0.4595
  492SOL    HW2 1476   0.467   2.085   0.659  1.2718  1.3878  0.7634
  493SOL     OW 1477   0.399   1.400   2.064  0.4951  0.0370  0.0424
  493SOL    HW1 1478   0.310   1.461   2.055 -0.8325  1.1082  1.8059
  493SOL    HW2 1479   0.412   1.353   2.156  0.9362 -0.4509 -1.4513
  494SOL     OW 1480   2.630   2.747   0.214 -0.1314 -0.2991  0.1929
  494SOL    HW1 1481   2.620   2.669   0.284  1.4651 -1.8073 -2.1767
  494SOL    HW2 1482   2.569   2.727   0.129 -0.7846 -2.3782 -2.5046
  495SOL     OW 1483   2.774   2.668   2.673 -0.4334  0.1680  0.3063
  495SOL    HW1 1484   2.711   2.591   2.647 -0.8260  1.5057 -0.8755
  495SOL    HW2 1485   2.814   2.718   2.591 -2.2898  1.2214  0.3574
  496SOL     OW 1486   2.029   2.214   0.709  0.0106 -0.5272  0.2992
  496SOL    HW1 1487   2.048   2.262   0.800  1.2717 -0.8032 -1.5789
  496SOL    HW2 1488   2.107   2.161   0.673  2.0640 -0.7818  1.2701
  497SOL     OW 1489   0.232   2.994   2.454 -0.2105 -0.1376 -0.8304
  497SOL    HW1 1490   0.196   3.064   2.517  1.4432 -0.2628 -0.3383
  497SOL    HW2 1491   0.266   3.035   2.365 -2.7711  1.3525  0.6492
  498SOL     OW 1492   1.235   1.426   1.216 -0.2390  0.4802 -0.3634
  498SOL    HW1 1493   1.325   1.388   1.249 -0.4450  0.6144  1.4164
  498SOL    HW2 1494   1.187   1.480   1.295 -0.6315 -1.1008 -1.0247
  499SOL     OW 1495   0.717   1.861   0.507 -0.1417  0.0836  0.3418
  499SOL    HW1 1496   0.735   1.769   0.553  0.0948 -0.7450 -0.7786
  499SOL    HW2 1497   0.674   1.929   0.573  0.4613 -1.7265 -1.3418
  500SOL     OW 1498   1.471   2.955   1.638  0.2281  0.3277 -0.0650
  500SOL    HW1 1499   1.421   2.937   1.726  1.5551  0.3631 -0.3945
  500SOL    HW2 1500   1.538   2.880   1.608 -0.2333 -0.9978  0.5322
  501SOL     OW 1501   0.852   1.109   2.284  0.0137  0.3139  0.0383
  501SOL    HW1 1502   0.753   1.086   2.262 -0.7889 -0.0439 -1.8911
  501SOL    HW2 1503   0.915   1.072   2.215 -0.8947 -2.8485  3.1840
  502SOL     OW 1504   2.636   0.957   1.761  0.0734 -0.1248 -0.0671
  502SOL    HW1 1505   2.618   1.014   1.672 -1.2977  2.5424  0.8459
  502SOL    HW2 1506   2.578   0.874   1.763  0.3777 -0.5288 -0.6751
  503SOL     OW 1507   1.263   0.126   0.659  0.5974  0.3106  0.1416
  503SOL    HW1 1508   1.201   0.201   0.691 -0.6389  0.8671 -1.4509
  503SOL    HW2 1509   1.362   0.151   0.643 -0.7169  1.4056  2.4867
  504SOL     OW 1510   3.048   2.341   1.418  0.2101 -0.7182 -0.8259
  504SOL    HW1 1511   2.992   2.416   1.454 -0.9726 -0.3878  2.3318
  504SOL    HW2 1512   3.105   2.302   1.499  2.8446  1.3880 -0.4139
  505SOL     OW 1513   2.265   1.167   1.503 -0.0861 -0.0145  0.1444
  505SOL    HW1 1514   2.295   1.219   1.420 -0.9421 -1.2396  1.6392
  505SOL    HW2 1515   2.318   1.194   1.588  1.3889  1.6930  3.0285
  506SOL     OW 1516   1.987   0.164   1.779  0.2982  0.4637 -0.2393
  506SOL    HW1 1517   2.066   0.113   1.813 -2.3256  3.0675 -0.9075
  506SOL    HW2 1518   1.981   0.260   1.818  0.9238  0.8511  0.1453
  507SOL     OW 1519   0.538   0.692   2.160 -0.4469 -0.3402  0.1416
  507SOL    HW1 1520   0.477   0.668   2.084  1.3840  0.1627  2.1336
  507SOL    HW2 1521   0.611   0.621   2.183  1.4643 -2.5855 -1.6053
  508SOL     OW 1522   0.262   1.655   0.878  0.1492 -0.5992  0.2230
  508SOL    HW1 1523   0.340   1.714   0.850 -1.0281  0.8979  0.3075
  508SOL    HW2 1524   0.208   1.693   0.961 -0.2759  1.9118  0.9472
  509SOL     OW 1525   1.322   1.261   2.348  0.4858 -0.3100 -0.0956
  509SOL    HW1 1526   1.259   1.272   2.267 -4.1123 -0.8531 -0.0456
  509SOL    HW2 1527   1.400   1.189   2.342 -1.7051  2.2103  0.2031
  510SOL     OW 1528   1.302   2.028   2.058  0.3775  0.1404 -0.2372
  510SOL    HW1 1529   1.290   2.125   2.030 -2.3809  0.0500 -1.9442
  510SOL    HW2 1530   1.229   2.003   2.133 -0.7437 -0.2826  0.8531
  511SOL     OW 1531   3.084   2.731   1.326  0.0457 -0.1495  1.4771
  511SOL    HW1 1532   3.066   2.685   1.232 -2.4656  3.0008  1.7815
  511SOL    HW2 1533   3.017   2.699   1.396 -0.3093  1.3739  1.9093
  512SOL     OW 1534   2.357   0.409   1.403  0.0013 -0.0119  0.5678
  512SOL    HW1 1535   2.256   0.381   1.394  0.7675 -1.4349 -1.6209
  512SOL    HW2 1536   2.417   0.355   1.335 -0.9153  0.2165  0.5283
  513SOL     OW 1537   2.506   2.070   0.844 -0.6503  0.0002 -0.3154
  513SOL    HW1 1538   2.438   2.131   0.793  1.1732  1.2208  0.8346
  513SOL    HW2 1539   2.569   2.008   0.784  3.6716 -0.5864 -0.5778
  514SOL     OW 1540   0.556   2.770   0.513  0.4394  0.3083  0.1908
  514SOL    HW1 1541   0.559   2.826   0.424 -2.6624  0.4236  0.3836
  514SOL    HW2 1542   0.606   2.822   0.586 -0.2686 -0.6591 -0.7369
  515SOL     OW 1543   2.038   1.113   2.270 -0.4752  0.2610 -0.6694
  515SOL    HW1 1544   1.997   1.121   2.176  2.2428 -1.7166 -1.5851
  515SOL    HW2 1545   1.959   1.109   2.338  3.3999 -1.4873  3.4414
  516SOL     OW 1546   0.282   0.275   1.910  0.1178 -0.8678 -0.0164
  516SOL    HW1 1547   0.345   0.260   1.831 -2.6979  1.1878  1.9762
  516SOL    HW2 1548   0.191   0.225   1.898  0.1293  1.0167 -0.0669
  517SOL     OW 1549   0.426   3.064   1.171 -0.2095 -0.2562  0.1777
  517SOL    HW1 1550   0.458   3.162   1.188  0.1212 -2.7466 -0.8181
  517SOL    HW2 1551   0.326   3.055   1.198  2.1586 -0.6919 -0.4594
  518SOL     OW 1552   2.215   0.019   1.801 -0.4679 -0.7627 -0.6794
  518SOL    HW1 1553   2.282   0.095   1.811 -1.3628  0.8550 -1.9409
  518SOL    HW2 1554   2.230  -0.030   1.713 -3.0301  2.6755 -0.4768
  519SOL     OW 1555   2.360   2.230   2.589 -0.2003  0.1237 -0.0170
  519SOL    HW1 1556   2.287   2.213   2.660 -2.2087  1.1067  0.7877
  519SOL    HW2 1557   2.404   2.322   2.583  0.1873  0.4305 -0.5396
  520SOL     OW 1558   1.772   2.852   1.869 -0.4651  0.8483  0.1058
  520SOL    HW1 1559   1.691   2.813   1.917 -1.8909 -0.3919  0.3428
  520SOL    HW2 1560   1.841   2.777   1.849 -0.3359  0.0473  0.6213
  521SOL     OW 1561   0.571   0.019   2.153 -0.1657 -0.5739  0.5024
  521SOL    HW1 1562   0.482  -0.028   2.180  0.4695  0.8760 -0.4666
  521SOL    HW2 1563   0.637   0.031   2.232  0.8501  0.4527 -1.3510
  522SOL     OW 1564   0.210   1.915   1.442 -0.0556 -0.3472 -0.5039
  522SOL    HW1 1565   0.258   1.977   1.509 -2.4342 -0.8323  0.6584
  522SOL    HW2 1566   0.186   1.969   1.357 -0.7250 -0.5030  0.6276
  523SOL     OW 1567   2.265   2.983   1.539  0.2756  0.0273  0.0070
  523SOL    HW1 1568   2.346   2.915   1.557 -0.4512 -2.3702  2.1561
  523SOL    HW2 1569   2.193   2.942   1.476 -0.6205 -1.3542 -2.5309
  524SOL     OW 1570   0.169   2.781   2.810  0.1257 -0.2868 -0.2933
  524SOL    HW1 1571   0.139   2.872   2.844 -2.5362 -2.4382 -0.0038
  524SOL    HW2 1572   0.271   2.781   2.807 -1.7594 -1.8849 -0.3908
  525SOL     OW 1573   2.144   1.999   0.467  0.1922 -0.7017 -0.1561
  525SOL    HW1 1574   2.170   1.937   0.547 -2.9575 -2.8316 -1.9052
  525SOL    HW2 1575   2.149   1.940   0.383 -2.3559  2.2797 -1.4352
  526SOL     OW 1576   0.405   1.559   1.683 -0.1113 -0.1586 -0.1008
  526SOL    HW1 1577   0.345   1.499   1.742 -2.1269 -0.5835 -0.6304
  526SOL    HW2 1578   0.481   1.500   1.642 -0.1653  1.8618  0.6420
  527SOL     OW 1579   1.101   2.958   1.228  0.1749  0.4169  0.2850
  527SOL    HW1 1580   1.181   2.892   1.235 -0.9036  1.5695 -2.7601
  527SOL    HW2 1581   1.129   3.059   1.234 -0.0701  1.1235  0.9825
  528SOL     OW 1582   1.340   2.426   0.510 -0.2340  0.2656 -0.8713
  528SOL    HW1 1583   1.389   2.331   0.518  1.1103 -1.1974 -1.1363
  528SOL    HW2 1584   1.391   2.495   0.571 -0.4640 -0.4616  1.0540
  529SOL     OW 1585   1.936   1.748   0.735 -0.2582  0.0381 -0.0614
  529SOL    HW1 1586   1.878   1.778   0.650  0.0801  0.0184 -0.8926
  529SOL    HW2 1587   1.934   1.812   0.816 -0.5036  1.2588  1.6441
  530SOL     OW 1588   0.299   2.562   0.311 -0.1562 -0.6842  0.1423
  530SOL    HW1 1589   0.275   2.634   0.385 -1.1508  1.6433  0.7352
  530SOL    HW2 1590   0.348   2.483   0.357  0.0935  0.0951 -2.3615
  531SOL     OW 1591   1.799   1.006   0.976  0.0164  0.3150 -0.2121
  531SOL    HW1 1592   1.810   1.096   0.935  0.0832 -0.4773  1.8677
  531SOL    HW2 1593   1.707   0.986   1.021  1.2270 -1.1781  1.5914
  532SOL     OW 1594   0.487   1.127   0.752  0.8210 -0.6812  0.1111
  532SOL    HW1 1595   0.529   1.126   0.654  1.4295 -0.1718 -0.7859
  532SOL    HW2 1596   0.423   1.047   0.762 -1.1123 -0.7799 -0.9959
  533SOL     OW 1597   1.752   0.036   2.604 -0.1464  0.3630 -0.5566
  533SOL    HW1 1598   1.851   0.030   2.641 -1.5206 -0.7983  1.6071
  533SOL    HW2 1599   1.693   0.091   2.670  0.2868 -0.1095 -1.3542
  534SOL     OW 1600   0.312   0.241   1.631 -0.2165 -0.5831  0.2027
  534SOL    HW1 1601   0.410   0.240   1.598  1.1147 -2.1531 -3.9879
  534SOL    HW2 1602   0.265   0.331   1.613 -1.5815  0.9879  0.9511
  535SOL     OW 1603   1.953   0.341   0.119 -0.1705  0.1920  0.1093
  535SOL    HW1 1604   1.947   0.423   0.188 -2.3215 -0.7310 -0.1078
  535SOL    HW2 1605   1.933   0.248   0.172 -1.1254 -0.5102  0.0332
  536SOL     OW 1606   1.409   2.606   0.926 -0.0631  0.2497 -0.2911
  536SOL    HW1 1607   1.400   2.579   1.028 -1.2281  1.9825  1.7563
  536SOL    HW2 1608   1.318   2.623   0.883 -0.0369  0.1676  0.0920
  537SOL     OW 1609   0.832   0.260   2.412  0.2592  0.1634 -0.0151
  537SOL    HW1 1610   0.821   0.341   2.351  0.8606 -2.0632 -1.8357
  537SOL    HW2 1611   0.774   0.174   2.392  1.4193 -0.7046 -0.1723
  538SOL     OW 1612   1.630   2.358   1.526  0.6158 -0.6553 -0.7790
  538SOL    HW1 1613   1.605   2.259   1.515  1.1406 -2.4149 -0.9627
  538SOL    HW2 1614   1.719   2.384   1.483  0.2158  2.4595  0.2033
  539SOL     OW 1615   0.172   1.646   2.697 -0.3218  0.0189 -0.2669
  539SOL    HW1 1616   0.086   1.661   2.637 -1.6208 -2.6432  0.5718
  539SOL    HW2 1617   0.173   1.724   2.768  0.5774  0.6618  0.9170
  540SOL     OW 1618   2.674   1.754   1.935  0.5108  0.4346 -0.2635
  540SOL    HW1 1619   2.633   1.678   1.987  1.5318 -0.1852 -0.0626
  540SOL    HW2 1620   2.619   1.839   1.910  1.3124  3.3779  1.1032
  541SOL     OW 1621   0.472   2.199   0.013  0.5831  0.1605 -0.2321
  541SOL    HW1 1622   0.509   2.176   0.111  0.9176 -0.3098 -0.5219
  541SOL    HW2 1623   0.372   2.166  -0.007 -0.2329 -2.3792 -0.5996
  542SOL     OW 1624   2.230   2.574   0.427 -0.0646 -0.1326 -0.0873
  542SOL    HW1 1625   2.191   2.658   0.382 -0.0683 -1.7216 -1.3039
  542SOL    HW2 1626   2.159   2.501   0.453  2.9704 -0.7893 -0.4738
  543SOL     OW 1627   1.113   1.835   1.576  0.3232 -0.1535 -0.2204
  543SOL    HW1 1628   1.086   1.890   1.657 -1.6352 -1.7303 -0.0898
  543SOL    HW2 1629   1.093   1.885   1.483  2.3849  0.8281  0.2657
  544SOL     OW 1630   1.097   0.453   0.177  0.2145 -0.0278 -0.6638
  544SOL    HW1 1631   1.077   0.394   0.267 -1.5145  0.0231 -0.5686
  544SOL    HW2 1632   1.117   0.388   0.097 -0.7923  0.2991 -0.1580
  545SOL     OW 1633   1.117   1.738   0.804  0.2827 -0.1477 -0.1617
  545SOL    HW1 1634   1.216   1.747   0.777 -0.5950 -0.8919 -0.4145
  545SOL    HW2 1635   1.097   1.649   0.849  0.4030 -1.1518  2.4571
  546SOL     OW 1636   2.646   1.531   3.033  0.4581  0.3867 -0.3196
  546SOL    HW1 1637   2.650   1.587   2.946 -0.0072 -0.3223  1.2843
  546SOL    HW2 1638   2.549   1.514   3.054  0.2720  1.4620  0.3987
  547SOL     OW 1639   0.610   3.008   2.625  0.2116 -0.1116 -0.5999
  547SOL    HW1 1640   0.711   3.001   2.658  1.0816  0.6491  1.7495
  547SOL    HW2 1641   0.549   2.940   2.676 -1.6232 -3.8663  0.3699
  548SOL     OW 1642   2.079   0.898   2.978  0.3206 -0.4079  0.3767
  548SOL    HW1 1643   1.987   0.848   2.999  0.4850 -1.2001 -0.3813
  548SOL    HW2 1644   2.082   0.996   3.012  2.0410 -3.0737 -0.1140
  549SOL     OW 1645   0.696   0.528   0.168 -0.3411  0.3258  0.0131
  549SOL    HW1 1646   0.644   0.578   0.088 -2.7510  2.7197 -2.6247
  549SOL    HW2 1647   0.756   0.597   0.210  1.3465 -1.4263 -0.1113
  550SOL     OW 1648   2.619   2.811   2.880  0.1500 -0.3846  0.2430
  550SOL    HW1 1649   2.562   2.744   2.935  1.6614  0.3229 -0.6827
  550SOL    HW2 1650   2.668   2.754   2.803 -1.1239 -0.2429 -2.2786
  551SOL     OW 1651   0.283   0.849   0.228  0.4421  0.1229 -0.0451
  551SOL    HW1 1652   0.387   0.863   0.226  0.1719  0.4890 -1.0485
  551SOL    HW2 1653   0.244   0.823   0.324 -1.7175 -0.6549 -0.8357
  552SOL     OW 1654   0.617   2.968   1.894 -0.2278 -0.2209 -0.1870
  552SOL    HW1 1655   0.595   3.005   1.988 -2.1943  0.8287 -0.6565
  552SOL    HW2 1656   0.712   2.973   1.860 -0.3375  0.1089  0.4168
  553SOL     OW 1657   2.918   2.479   0.366 -0.6742 -0.6577 -0.0328
  553SOL    HW1 1658   2.892   2.379   0.377  0.0173  0.0337 -1.8793
  553SOL    HW2 1659   2.859   2.547   0.408  0.3752 -0.4668  0.5275
  554SOL     OW 1660   2.157   0.370   0.541 -0.1686 -0.0621 -0.2798
  554SOL    HW1 1661   2.227   0.394   0.465  4.1033 -1.1724 -0.0723
  554SOL    HW2 1662   2.182   0.283   0.587  1.5843 -1.0915 -0.2593
  555SOL     OW 1663   0.383   2.784   2.501 -0.2142  0.1633  0.7233
  555SOL    HW1 1664   0.313   2.860   2.498  0.0374 -1.4660 -0.8662
  555SOL    HW2 1665   0.423   2.773   2.408  0.0932  1.3518 -1.3499
  556SOL     OW 1666   0.867   2.363   1.548 -0.0586 -0.2395  0.2496
  556SOL    HW1 1667   0.920   2.444   1.589 -0.4544 -2.5977 -0.1221
  556SOL    HW2 1668   0.910   2.324   1.460  1.1795 -1.1844 -1.2000
  557SOL     OW 1669   0.153   2.074   0.221 -0.1719 -0.3317 -0.3274
  557SOL    HW1 1670   0.097   1.995   0.185  1.9255  0.3961  0.7090
  557SOL    HW2 1671   0.206   2.113   0.141  0.1907 -2.4399  1.7165
  558SOL     OW 1672   2.778   2.244   0.404 -0.0548 -0.4116  0.4361
  558SOL    HW1 1673   2.682   2.276   0.404  2.4358 -1.0712 -2.8461
  558SOL    HW2 1674   2.796   2.163   0.344  1.3235 -0.2184  3.3845
  559SOL     OW 1675   0.393   2.312   1.417  0.5006  0.3236 -0.1905
  559SOL    HW1 1676   0.325   2.335   1.341 -0.1489  1.6357  0.7325
  559SOL    HW2 1677   0.439   2.223   1.401 -1.8555  0.7044  1.2399
  560SOL     OW 1678   2.110   1.169   3.065  0.1993 -0.5967  0.6481
  560SOL    HW1 1679   2.141   1.137   3.159  1.0255 -1.5818  0.2028
  560SOL    HW2 1680   2.186   1.193   2.994  2.4209 -2.6661 -0.8026
  561SOL     OW 1681   3.083   1.846   0.011  0.5680 -0.1492 -0.2371
  561SOL    HW1 1682   3.049   1.788   0.090 -1.0620  2.4502 -0.8171
  561SOL    HW2 1683   3.029   1.935   0.011  1.0575 -1.2186  1.2185
  562SOL     OW 1684   0.975   2.177   2.306  0.4938 -0.4667 -0.4516
  562SOL    HW1 1685   0.977   2.241   2.386  0.7509  0.7753 -3.4490
  562SOL    HW2 1686   0.947   2.084   2.338 -1.6737 -3.7404 -0.8606
  563SOL     OW 1687   0.698   2.601   2.604  0.1956 -0.1959  0.0531
  563SOL    HW1 1688   0.784   2.540   2.612 -0.2986  1.4279  0.6508
  563SOL    HW2 1689   0.645   2.597   2.696 -0.7006 -0.2161  0.1391
  564SOL     OW 1690   2.815   1.336   2.891  0.1981  0.4109  0.0640
  564SOL    HW1 1691   2.745   1.374   2.953 -2.1124 -0.3018  0.1789
  564SOL    HW2 1692   2.874   1.413   2.850 -0.1241  0.6533  0.0270
  565SOL     OW 1693   2.539   2.035   2.657 -0.3332 -0.2857 -0.0572
  565SOL    HW1 1694   2.499   2.120   2.613  0.4473  0.5967  1.3647
  565SOL    HW2 1695   2.620   2.043   2.719  0.3063 -2.3537  0.7085
  566SOL     OW 1696   2.045   2.837   1.438 -0.9301  0.2727  0.3041
  566SOL    HW1 1697   1.996   2.746   1.460 -0.4260 -0.7964 -0.4779
  566SOL    HW2 1698   2.015   2.884   1.355  1.0462  1.0012  2.2401
  567SOL     OW 1699   2.409   3.037   2.362 -0.1804 -0.1560 -0.3829
  567SOL    HW1 1700   2.322   3.073   2.400 -0.0856  1.1927 -0.5662
  567SOL    HW2 1701   2.413   3.039   2.259 -2.2624 -1.2774  1.9885
  568SOL     OW 1702   1.535   1.761   0.217 -0.1668  0.4330  0.1485
  568SOL    HW1 1703   1.504   1.851   0.180  1.2560  0.9384  2.2244
  568SOL    HW2 1704   1.636   1.747   0.210  0.0253 -1.8044  2.5422
  569SOL     OW 1705   0.259   0.637   0.795 -0.3489 -0.5888 -0.6459
  569SOL    HW1 1706   0.336   0.566   0.764 -1.2655 -0.0135 -3.1690
  569SOL    HW2 1707   0.169   0.595   0.826 -0.9392  3.2914 -2.4869
  570SOL     OW 1708   0.651   0.820   2.932 -0.0969  0.0299 -0.5355
  570SOL    HW1 1709   0.713   0.816   2.847  2.4001 -0.9426  2.1874
  570SOL    HW2 1710   0.663   0.907   2.983 -0.6426  0.2545  0.0695
  571SOL     OW 1711   0.755   3.094   1.071  0.0083  0.0268 -0.1171
  571SOL    HW1 1712   0.824   3.136   1.005  0.0859  0.2104 -3.5247
  571SOL    HW2 1713   0.787   2.997   1.097  0.7994 -3.0386  1.1408
  572SOL     OW 1714   1.632   2.658   1.330 -0.2926  0.3426 -0.1669
  572SOL    HW1 1715   1.556   2.629   1.268  1.3413 -0.6261 -0.5603
  572SOL    HW2 1716   1.646   2.765   1.329  1.3134  0.3876  0.0538
  573SOL     OW 1717   2.923   0.486   2.033  0.6106  0.0976 -0.0100
  573SOL    HW1 1718   2.846   0.425   2.055 -0.3320 -1.8584  1.1568
  573SOL    HW2 1719   2.936   0.499   1.932 -1.3868  1.2646  2.9912
  574SOL     OW 1720   0.145   1.753   1.121  0.1404 -0.6317  0.1775
  574SOL    HW1 1721   0.231   1.801   1.152  0.5121  1.1830  0.9243
  574SOL    HW2 1722   0.065   1.814   1.102 -1.2909  0.8249 -0.3708
  575SOL     OW 1723   0.807   2.216   0.931 -0.2341 -0.5106 -0.0447
  575SOL    HW1 1724   0.791   2.241   1.032 -1.5568  0.0323 -0.8984
  575SOL    HW2 1725   0.846   2.303   0.884 -0.1810  2.4581 -1.8086
  576SOL     OW 1726   2.854   2.988   1.668  0.1624 -0.4870 -0.2382
  576SOL    HW1 1727   2.757   2.984   1.701 -2.2733  2.7196  0.6951
  576SOL    HW2 1728   2.896   3.083   1.675  1.2710  0.6076  1.2838
  577SOL     OW 1729   2.535   1.166   0.001  0.2976  0.0475  0.0132
  577SOL    HW1 1730   2.591   1.108  -0.067  3.1898 -1.9256  0.8789
  577SOL    HW2 1731   2.597   1.191   0.080  2.2079 -2.1766  0.7534
  578SOL     OW 1732   1.427   2.741   2.457 -0.5619  0.8649 -0.2504
  578SOL    HW1 1733   1.328   2.780   2.458 -0.9887  1.0316  2.3493
  578SOL    HW2 1734   1.498   2.818   2.455  1.0580  0.2798  0.2454
  579SOL     OW 1735   0.046   2.482   0.184  0.1545 -0.1376  0.3904
  579SOL    HW1 1736  -0.024   2.493   0.260 -0.9256 -0.7576 -0.1447
  579SOL    HW2 1737   0.142   2.481   0.222 -1.6512 -0.9472  1.2905
  580SOL     OW 1738   0.976   2.668   0.339 -0.3198 -0.1288 -0.0250
  580SOL    HW1 1739   1.075   2.678   0.295 -0.2149 -0.3051  1.0468
  580SOL    HW2 1740   0.916   2.595   0.299 -2.2709 -0.1197  1.6977
  581SOL     OW 1741   1.211   2.668   1.466  0.1333  0.1760  0.4207
  581SOL    HW1 1742   1.261   2.581   1.495  1.7553  0.9003  0.9121
  581SOL    HW2 1743   1.281   2.725   1.412 -0.2764 -0.1919  0.8650
  582SOL     OW 1744   1.490   0.101   1.864  0.0764  0.0772  0.4526
  582SOL    HW1 1745   1.541   0.159   1.934 -1.8320  2.5924 -0.7662
  582SOL    HW2 1746   1.560   0.075   1.792 -1.6739 -0.8036  1.4905
  583SOL     OW 1747   2.423   3.077   0.503  0.3654 -0.5846  0.2089
  583SOL    HW1 1748   2.504   3.041   0.454 -1.3720  0.7750  0.2235
  583SOL    HW2 1749   2.358   3.008   0.542 -3.8806  1.8317  0.6427
  584SOL     OW 1750   1.553   1.098   2.242  0.1957 -0.1378  0.5982
  584SOL    HW1 1751   1.615   1.178   2.236 -0.2908  0.6367  0.0732
  584SOL    HW2 1752   1.600   1.000   2.247 -1.9673 -4.3906 -0.8712
  585SOL     OW 1753   2.118   2.681   2.906 -0.3006 -0.3945 -0.4600
  585SOL    HW1 1754   2.135   2.576   2.921 -1.2537 -1.2750 -0.3676
  585SOL    HW2 1755   2.020   2.704   2.922  1.8871  0.9910  0.2376
  586SOL     OW 1756   2.837   0.350   1.598  0.3159  0.4189 -0.6271
  586SOL    HW1 1757   2.852   0.431   1.657 -0.2597 -3.0020  0.9724
  586SOL    HW2 1758   2.734   0.343   1.582 -2.3815 -0.9255 -1.8306
  587SOL     OW 1759   2.080   1.502   2.652  0.0262 -0.4217 -0.5432
  587SOL    HW1 1760   2.130   1.428   2.596  1.3862  0.3127  1.7758
  587SOL    HW2 1761   2.114   1.520   2.748 -0.4954  0.5269 -0.9748
  588SOL     OW 1762   0.457   2.685   2.234  0.0716  0.1053  0.3181
  588SOL    HW1 1763   0.410   2.675   2.147  1.8227  0.3175  1.0494
  588SOL    HW2 1764   0.481   2.588   2.271  0.8164 -0.4146  0.0677
  589SOL     OW 1765   2.184   1.323   2.475 -0.1897  0.0466  0.1622
  589SOL    HW1 1766   2.137   1.267   2.398 -0.2612 -2.9362 -0.8674
  589SOL    HW2 1767   2.285   1.305   2.489  0.3818  0.9192  0.2143
  590SOL     OW 1768   2.295   1.776   2.026  0.2490 -0.3666  0.2333
  590SOL    HW1 1769   2.364   1.704   1.995 -0.9520  1.7835 -2.7465
  590SOL    HW2 1770   2.301   1.817   2.123 -3.3333  1.2395 -0.4867
  591SOL     OW 1771   1.266   2.419   0.245  0.1694 -0.2828  0.2899
  591SOL    HW1 1772   1.282   2.334   0.189 -0.4215  2.2587  1.5895
  591SOL    HW2 1773   1.275   2.404   0.345 -0.2410 -2.0173  1.7119
  592SOL     OW 1774   1.770   2.322   0.752 -0.2666  0.5486  0.4991
  592SOL    HW1 1775   1.727   2.376   0.678 -2.5857 -1.6168  0.6483
  592SOL    HW2 1776   1.862   2.276   0.724 -0.1111  1.1619  0.1716
  593SOL     OW 1777   0.705   0.260   0.214 -0.0269  0.4350  0.5044
  593SOL    HW1 1778   0.775   0.207   0.158 -1.6475 -0.5706 -1.0783
  593SOL    HW2 1779   0.692   0.366   0.190 -2.0639  2.6386 -0.0859
  594SOL     OW 1780   1.031   1.812   2.681 -0.2479 -0.1301  0.1645
  594SOL    HW1 1781   1.118   1.772   2.631  1.8132  0.2217  0.4402
  594SOL    HW2 1782   1.055   1.878   2.759  3.6273 -1.7782 -1.0329
  595SOL     OW 1783   1.539   0.094   1.009  0.1533  0.2467  0.2720
  595SOL    HW1 1784   1.611   0.028   0.979 -0.2598  0.2129 -1.6803
  595SOL    HW2 1785   1.449   0.057   0.974  1.2079  0.3177  1.3611
  596SOL     OW 1786   0.047   1.574   2.280 -0.1242 -0.3489  0.0787
  596SOL    HW1 1787   0.107   1.491   2.313 -0.4303 -0.1639  4.4190
  596SOL    HW2 1788   0.016   1.638   2.358 -0.5694  1.9754  0.5511
  597SOL     OW 1789   1.923   2.639   1.801  0.0854  0.4763 -0.0701
  597SOL    HW1 1790   1.874   2.656   1.709 -0.4810  0.2851  1.8399
  597SOL    HW2 1791   2.010   2.580   1.797 -2.0826 -1.9837 -0.3216
  598SOL     OW 1792   2.527   2.915   1.236  0.2390  0.1459  0.3706
  598SOL    HW1 1793   2.611   2.927   1.296  1.9723 -1.9642 -0.8988
  598SOL    HW2 1794   2.559   2.892   1.138 -0.5279 -3.7486 -1.2120
  599SOL     OW 1795   2.900   0.307   2.453  0.0744  0.3924  0.1812
  599SOL    HW1 1796   2.978   0.352   2.400 -0.1746 -3.9270 -0.9062
  599SOL    HW2 1797   2.808   0.355   2.440  1.6482 -0.0393 -1.7545
  600SOL     OW 1798   2.805   1.104   2.732  0.3259  0.4316 -0.2726
  600SOL    HW1 1799   2.703   1.091   2.712 -2.1506  1.1169 -0.0583
  600SOL    HW2 1800   2.817   1.186   2.796 -1.1483 -0.1712  0.5963
  601SOL     OW 1801   3.064   1.323   1.998  0.1273  0.4074  0.2806
  601SOL    HW1 1802   3.018   1.363   1.915  1.9790  1.7373 -1.5192
  601SOL    HW2 1803   3.108   1.398   2.058 -1.5758 -1.3444  1.9250
  602SOL     OW 1804   1.450   1.698   2.315 -0.0403  0.1984  0.2494
  602SOL    HW1 1805   1.361   1.644   2.339 -1.2768 -0.5567  2.9786
  602SOL    HW2 1806   1.534   1.651   2.351  0.6634 -2.4335 -0.5478
  603SOL     OW 1807   0.629   1.189   2.796  0.8623 -0.8475 -0.5223
  603SOL    HW1 1808   0.560   1.188   2.719  2.6379  1.7307 -0.6886
  603SOL    HW2 1809   0.706   1.123   2.767  1.1505  0.0422  0.0389
  604SOL     OW 1810   2.421   1.008   0.182  0.6016 -0.0537  0.1221
  604SOL    HW1 1811   2.468   1.082   0.123 -0.2837 -2.2484 -1.3829
  604SOL    HW2 1812   2.423   0.918   0.132  1.2294  1.2250  0.6460
  605SOL     OW 1813   2.516   1.154   1.931 -0.3507  0.2360  0.7479
  605SOL    HW1 1814   2.564   1.066   1.897  0.3772  0.6455  0.2832
  605SOL    HW2 1815   2.562   1.193   2.016  1.2336  2.0189  2.3725
  606SOL     OW 1816   1.532   2.481   2.590  0.4865  0.9054 -0.3196
  606SOL    HW1 1817   1.478   2.545   2.532 -0.8849  0.2493  1.4503
  606SOL    HW2 1818   1.480   2.391   2.602 -0.1889 -0.6247 -3.8198
  607SOL     OW 1819   1.328   1.586   0.310  0.2437  0.8243  0.1980
  607SOL    HW1 1820   1.262   1.656   0.348  0.4405  1.5249 -0.2649
  607SOL    HW2 1821   1.415   1.630   0.278 -2.6343 -0.9730  1.3717
  608SOL     OW 1822   1.462   2.829   0.401 -0.1024 -0.2342 -0.3392
  608SOL    HW1 1823   1.514   2.878   0.326  0.0548 -2.5228 -0.9980
  608SOL    HW2 1824   1.380   2.878   0.438  0.3575 -0.4164  0.0175
  609SOL     OW 1825   1.267   1.329   0.257  0.0012 -0.0312 -0.3959
  609SOL    HW1 1826   1.292   1.426   0.275 -1.8576 -2.4969 -3.1889
  609SOL    HW2 1827   1.232   1.314   0.158 -2.9773 -2.9630 -0.7436
  610SOL     OW 1828   2.957   1.146   2.216  0.1090 -0.1077 -0.2537
  610SOL    HW1 1829   2.960   1.041   2.215  2.1433 -0.2370  0.3047
  610SOL    HW2 1830   2.955   1.190   2.124 -1.1819 -0.6810  0.6416
  611SOL     OW 1831   2.533   0.274   1.183 -0.2823 -0.0837  0.0169
  611SOL    HW1 1832   2.484   0.182   1.167  0.1172 -1.3939  0.2468
  611SOL    HW2 1833   2.634   0.261   1.195  1.0540  1.0007 -3.9866
  612SOL     OW 1834   0.724   2.285   1.179 -0.7298  0.5744 -0.1136
  612SOL    HW1 1835   0.665   2.231   1.253 -2.3034  0.0813  2.9930
  612SOL    HW2 1836   0.688   2.383   1.172  0.5358  0.3441 -1.6922
  613SOL     OW 1837   0.802   1.384   2.392  0.5434  0.0645 -0.1821
  613SOL    HW1 1838   0.793   1.452   2.314  1.3386 -0.6457 -0.0067
  613SOL    HW2 1839   0.811   1.290   2.352 -0.1006  2.2974 -0.1390
  614SOL     OW 1840   1.582   1.680   1.927  0.0725 -0.2626 -0.8628
  614SOL    HW1 1841   1.519   1.757   1.902 -0.1000 -2.6043 -1.4997
  614SOL    HW2 1842   1.666   1.716   1.976 -0.9640 -1.6420 -0.8271
  615SOL     OW 1843   0.799   1.340   1.730  0.2742  0.0266  0.0713
  615SOL    HW1 1844   0.716   1.321   1.678 -0.4320  2.2609  2.4338
  615SOL    HW2 1845   0.847   1.431   1.707  4.4336  1.0204 -0.5841
  616SOL     OW 1846   1.093   1.587   2.180  0.3991 -0.1657 -0.0886
  616SOL    HW1 1847   0.985   1.585   2.179 -1.4795 -0.8786  2.0771
  616SOL    HW2 1848   1.137   1.605   2.084 -0.3401 -1.0611  0.1550
  617SOL     OW 1849   2.975   1.536   1.592  0.3362  0.2511  0.4154
  617SOL    HW1 1850   2.969   1.490   1.688 -0.6299  1.7352 -0.2420
  617SOL    HW2 1851   2.958   1.473   1.514  0.4721 -2.4763  3.5878
  618SOL     OW 1852   1.923   2.017   1.434  0.4454  0.4759  0.5077
  618SOL    HW1 1853   2.001   2.025   1.367  1.8226  0.2253  2.7098
  618SOL    HW2 1854   1.880   1.926   1.427  2.1730  0.7984  1.2553
  619SOL     OW 1855   1.739   0.486   2.396 -0.6863 -0.2163  0.2100
  619SOL    HW1 1856   1.655   0.528   2.356 -2.0102 -2.1331 -1.1536
  619SOL    HW2 1857   1.721   0.383   2.414 -4.3734 -0.4149  1.7305
  620SOL     OW 1858   2.201   2.946   0.608  0.0836 -0.2862 -0.1161
  620SOL    HW1 1859   2.102   2.949   0.635  2.9424 -2.6374  0.3428
  620SOL    HW2 1860   2.259   2.897   0.683  1.6887 -0.8676  1.8844
  621SOL     OW 1861   2.145   1.862   1.290  0.4229  0.0262  0.1734
  621SOL    HW1 1862   2.165   1.874   1.394 -0.3560  0.5532 -1.4006
  621SOL    HW2 1863   2.139   1.763   1.257  0.7642  0.0882 -1.1266
  622SOL     OW 1864   2.144   0.844   1.750 -0.2211 -0.2968 -0.5736
  622SOL    HW1 1865   2.235   0.804   1.717  0.2370 -0.8385 -0.0317
  622SOL    HW2 1866   2.090   0.788   1.821 -1.3428 -1.1782 -2.0559
  623SOL     OW 1867   1.365   0.768   2.605 -0.1334 -0.0171 -0.7965
  623SOL    HW1 1868   1.294   0.727   2.670  0.3349 -0.1111  0.8163
  623SOL    HW2 1869   1.310   0.810   2.526 -0.8072  2.2830 -1.4477
  624SOL     OW 1870   0.516   0.665   0.022 -0.3480  0.2940  0.2442
  624SOL    HW1 1871   0.551   0.708  -0.063  0.4015 -0.2090  2.9021
  624SOL    HW2 1872   0.504   0.732   0.104  1.1965 -1.3703 -1.3093
  625SOL     OW 1873   2.795   1.747   0.947 -0.2113 -0.0686 -0.6283
  625SOL    HW1 1874   2.694   1.763   0.962  0.4804 -1.8020  1.6919
  625SOL    HW2 1875   2.823   1.650   0.972  2.6628  2.0092  2.2318
  626SOL     OW 1876   0.555   2.719   1.834 -0.2710  0.4133 -0.1317
  626SOL    HW1 1877   0.574   2.818   1.866  0.1394 -0.1168 -1.0285
  626SOL    HW2 1878   0.454   2.699   1.816 -0.5087  1.1798  2.9574
  627SOL     OW 1879   0.704   0.995   1.555 -0.7563  0.2216  0.1176
  627SOL    HW1 1880   0.749   0.916   1.605  2.0725  0.6729 -0.5013
  627SOL    HW2 1881   0.773   1.053   1.504 -2.0268 -0.3102  1.8289
  628SOL     OW 1882   2.401   0.192   0.685  0.0006  0.3802  0.0007
  628SOL    HW1 1883   2.411   0.122   0.611 -1.3277 -0.4419  0.1383
  628SOL    HW2 1884   2.307   0.183   0.734  1.1980 -0.7995 -0.1541
  629SOL     OW 1885   1.956   0.915   1.979  0.1537  0.5963 -0.0422
  629SOL    HW1 1886   2.054   0.895   2.019  1.2844 -0.3826  0.9977
  629SOL    HW2 1887   1.921   1.014   1.982  0.9480  1.3524 -3.3111
  630SOL     OW 1888   2.786   2.219   0.777 -0.1463 -0.4071 -0.0222
  630SOL    HW1 1889   2.706   2.274   0.810  0.1680 -3.3476 -0.2637
  630SOL    HW2 1890   2.752   2.120   0.754 -1.1312  0.1276  1.0799
  631SOL     OW 1891   2.962   0.114   2.095  0.1399  0.0448  0.5600
  631SOL    HW1 1892   3.015   0.143   2.178  1.9764  0.8096  1.1555
  631SOL    HW2 1893   3.019   0.138   2.007  1.0816 -2.8372 -2.0297
  632SOL     OW 1894   2.414   2.492   0.628 -0.5725  0.2729  0.0342
  632SOL    HW1 1895   2.482   2.556   0.679 -1.3560 -0.5717  1.2723
  632SOL    HW2 1896   2.382   2.525   0.534 -1.1400  2.4812  0.3516
  633SOL     OW 1897   1.540   1.280   2.536  1.4261  0.1251  0.0756
  633SOL    HW1 1898   1.564   1.353   2.604  1.6257 -1.2987  1.1442
  633SOL    HW2 1899   1.459   1.300   2.475  1.1354  1.5368  1.5436
  634SOL     OW 1900   0.655   1.996   0.907  0.1566  0.4906 -0.2600
  634SOL    HW1 1901   0.575   2.026   0.966 -0.2170  0.1227 -2.0753
  634SOL    HW2 1902   0.723   2.074   0.902  0.1141  1.1383 -0.3590
  635SOL     OW 1903   0.025   2.324   3.059  0.0617 -0.0991 -0.0225
  635SOL    HW1 1904  -0.012   2.374   2.975  0.2281 -0.1009 -1.6894
  635SOL    HW2 1905   0.023   2.378   3.147 -1.6465  0.0585  1.7531
  636SOL     OW 1906   2.286   2.754   2.038  0.5162  1.0875  0.0954
  636SOL    HW1 1907   2.290   2.853   2.061  1.0045 -0.1340  1.2807
  636SOL    HW2 1908   2.212   2.706   2.092 -2.6564 -1.1906  0.3507
  637SOL     OW 1909   2.588   0.695   2.055 -0.5004 -0.6832 -0.1446
  637SOL    HW1 1910   2.557   0.722   1.963  1.3799  1.4317  1.2116
  637SOL    HW2 1911   2.659   0.762   2.089  0.4287 -0.8796  1.9808
  638SOL     OW 1912   2.433   1.840   1.296  0.3896  0.1114 -0.1110
  638SOL    HW1 1913   2.328   1.833   1.293  2.6131 -0.1216  3.4727
  638SOL    HW2 1914   2.481   1.764   1.356  0.7197  0.5973  1.4752
  639SOL     OW 1915   1.287   2.199   1.646 -0.5157  0.2517  0.2378
  639SOL    HW1 1916   1.291   2.154   1.552 -1.4506 -0.5255  3.1817
  639SOL    HW2 1917   1.212   2.152   1.705  0.9383  1.2594  0.6054
  640SOL     OW 1918   0.215   1.180   1.567  0.1921  0.3813  0.2432
  640SOL    HW1 1919   0.195   1.242   1.647 -0.4129 -2.1087  0.1258
  640SOL    HW2 1920   0.318   1.162   1.554  0.5847 -1.2585 -0.3006
  641SOL     OW 1921   2.035   0.074   1.507 -0.1476 -0.2277  0.2140
  641SOL    HW1 1922   2.002   0.117   1.597 -2.0877  2.6976 -0.8718
  641SOL    HW2 1923   2.134   0.044   1.507 -1.5760  0.6105  0.7985
  642SOL     OW 1924   1.958   0.103   0.288 -0.4162 -0.0940 -0.0420
  642SOL    HW1 1925   2.051   0.134   0.332 -2.5351  1.4342 -0.1630
  642SOL    HW2 1926   1.893   0.060   0.357 -0.8738 -0.7746 -1.9116
  643SOL     OW 1927   2.851   1.891   2.072 -0.3514 -0.3017  0.4467
  643SOL    HW1 1928   2.787   1.826   2.018 -2.5303  2.4470 -1.4561
  643SOL    HW2 1929   2.855   1.987   2.023  0.8184  1.7485 -1.2689
  644SOL     OW 1930   2.211   2.335   1.186 -0.7190 -0.1723  0.5060
  644SOL    HW1 1931   2.291   2.282   1.159  0.0804  2.5483 -1.5245
  644SOL    HW2 1932   2.190   2.335   1.283 -1.5132  3.3693 -1.5843
  645SOL     OW 1933   0.631   0.847   1.196 -0.3567 -0.7199 -0.0457
  645SOL    HW1 1934   0.553   0.813   1.133 -0.6953  0.2542 -2.9912
  645SOL    HW2 1935   0.691   0.916   1.145  0.4665 -0.4888 -0.1006
  646SOL     OW 1936   1.451   1.940   1.849  0.3584  0.1898 -0.1691
  646SOL    HW1 1937   1.541   1.991   1.842 -1.6363 -1.8663  2.2583
  646SOL    HW2 1938   1.393   1.978   1.927 -0.3112  1.0128  0.2288
  647SOL     OW 1939   0.854   1.007   0.689  0.1172 -0.1355  0.2858
  647SOL    HW1 1940   0.909   1.046   0.769 -0.4898 -0.7226  1.9726
  647SOL    HW2 1941   0.769   0.960   0.720  3.6135 -0.3750  1.4076
  648SOL     OW 1942   0.104   0.176   0.252 -0.6229 -0.3887  0.3458
  648SOL    HW1 1943   0.143   0.116   0.176 -1.4942 -0.3276  0.8220
  648SOL    HW2 1944   0.124   0.273   0.238 -0.7547  0.6778  0.5314
  649SOL     OW 1945   3.064   0.173   0.919  0.2228 -0.4841 -0.0039
  649SOL    HW1 1946   3.118   0.221   0.845 -0.9085  1.3591  0.8738
  649SOL    HW2 1947   3.106   0.182   1.012 -1.5485 -0.2584  0.5644
  650SOL     OW 1948   2.718   0.710   1.421  0.2805  0.5316 -0.6740
  650SOL    HW1 1949   2.628   0.682   1.462 -0.5580 -0.7146  1.9251
  650SOL    HW2 1950   2.728   0.811   1.390 -2.5570  1.7075  0.3557
  651SOL     OW 1951   0.933   1.569   1.638 -0.6898  0.0268  0.2553
  651SOL    HW1 1952   0.931   1.644   1.703  0.9272 -2.9754 -0.6917
  651SOL    HW2 1953   0.941   1.595   1.539  0.0844 -0.7312  1.7356
  652SOL     OW 1954   2.267   2.522   2.490 -0.4245 -0.2491 -0.2680
  652SOL    HW1 1955   2.193   2.492   2.554  2.1544  2.1157  0.2566
  652SOL    HW2 1956   2.231   2.572   2.402 -0.2073  2.7585 -1.8038
  653SOL     OW 1957   2.732   1.171   0.225 -0.1229 -0.3718  0.4748
  653SOL    HW1 1958   2.759   1.267   0.260  0.7837  1.8864 -1.3687
  653SOL    HW2 1959   2.802   1.096   0.228  0.1400  1.8009  0.1732
  654SOL     OW 1960   1.245   2.257   1.221  0.0830  0.2855 -0.3531
  654SOL    HW1 1961   1.290   2.214   1.305  0.3994  0.8329  1.0529
  654SOL    HW2 1962   1.302   2.235   1.137 -0.1195 -0.2339 -1.0559
  655SOL     OW 1963   0.220   0.946   1.840  0.2937  0.8841 -0.2013
  655SOL    HW1 1964   0.258   0.882   1.767 -1.1338 -2.8968 -1.7837
  655SOL    HW2 1965   0.291   1.005   1.885 -0.4016  1.1133  1.0139
  656SOL     OW 1966   2.519   2.490   2.612  0.0665 -0.5438  0.2266
  656SOL    HW1 1967   2.602   2.475   2.547  1.2033 -1.0496  1.2045
  656SOL    HW2 1968   2.442   2.554   2.570 -3.8167  1.1102 -0.5601
  657SOL     OW 1969   3.084   1.080   1.894 -0.4626  0.3508 -0.0449
  657SOL    HW1 1970   3.094   1.177   1.937  0.0029 -0.0444  0.2567
  657SOL    HW2 1971   3.180   1.039   1.872  1.3564 -0.2619 -2.6127
  658SOL     OW 1972   1.669   0.217   2.409 -0.4297 -0.3530  0.0666
  658SOL    HW1 1973   1.686   0.144   2.483  2.7381 -1.8349 -1.6574
  658SOL    HW2 1974   1.705   0.198   2.313 -1.8987 -0.4027  0.7411
  659SOL     OW 1975   1.439   0.629   2.912 -0.5429 -0.0855 -0.0455
  659SOL    HW1 1976   1.494   0.717   2.916  0.4914 -1.7347  1.0555
  659SOL    HW2 1977   1.348   0.642   2.862 -1.1841 -1.8422  0.9902
  660SOL     OW 1978   1.438   0.362   1.448  0.3646 -0.0617  0.0640
  660SOL    HW1 1979   1.485   0.376   1.543 -1.7361  1.3399  1.1333
  660SOL    HW2 1980   1.484   0.291   1.392 -1.9431  0.4000  2.1759
  661SOL     OW 1981   2.508   1.160   0.651  0.1938  0.0870 -0.4308
  661SOL    HW1 1982   2.521   1.161   0.549  0.2991  0.7209 -2.8147
  661SOL    HW2 1983   2.449   1.239   0.682 -0.1785  1.2529 -0.6624
  662SOL     OW 1984   1.338   0.433   1.839 -0.0499  0.3309 -0.2671
  662SOL    HW1 1985   1.304   0.337   1.815  0.6344 -0.8716  0.3418
  662SOL    HW2 1986   1.295   0.472   1.927 -0.6909 -1.0587 -0.5376
  663SOL     OW 1987   0.825   1.588   2.161  0.5961 -0.4008  0.4993
  663SOL    HW1 1988   0.784   1.666   2.220  0.8236  3.1035  0.9113
  663SOL    HW2 1989   0.762   1.567   2.087  1.0859  0.2404  2.9158
  664SOL     OW 1990   1.657   2.090   1.443  0.2314 -0.4128 -0.2716
  664SOL    HW1 1991   1.615   2.013   1.498  0.0672 -0.6493  0.6463
  664SOL    HW2 1992   1.760   2.086   1.446  0.8714  0.3020 -2.5628
  665SOL     OW 1993   2.213   0.668   2.014 -0.3574  0.4358  0.6613
  665SOL    HW1 1994   2.236   0.572   2.048  1.5019  2.6987 -1.8696
  665SOL    HW2 1995   2.218   0.738   2.091 -1.9717 -0.6338  0.1328
  666SOL     OW 1996   0.429   2.379   0.450  0.5768  0.1648  0.7993
  666SOL    HW1 1997   0.517   2.424   0.487 -1.1977 -1.0487 -2.1343
  666SOL    HW2 1998   0.401   2.300   0.509  0.8590 -1.9088 -1.9553
  667SOL     OW 1999   1.970   0.187   1.076 -0.3868  0.2887 -1.0971
  667SOL    HW1 2000   1.973   0.292   1.072  0.9841  0.0337 -0.8421
  667SOL    HW2 2001   1.946   0.158   1.173  0.4693 -2.6435  0.6897
  668SOL     OW 2002   1.982   0.520   1.162 -0.3252  0.6759 -0.0928
  668SOL    HW1 2003   2.049   0.527   1.085 -2.4857  0.6462  2.5792
  668SOL    HW2 2004   2.026   0.517   1.257 -1.1699 -2.0948  1.2873
  669SOL     OW 2005   3.021   2.267   0.974  0.1704 -0.5501 -0.1556
  669SOL    HW1 2006   2.933   2.268   0.926  0.1801 -1.6961  1.3098
  669SOL    HW2 2007   3.003   2.227   1.065 -0.5530  0.3339 -1.5292
  670SOL     OW 2008   2.889   2.332   1.997  0.2458 -0.0146  0.2912
  670SOL    HW1 2009   2.834   2.299   2.078 -0.3746  0.2421  2.6924
  670SOL    HW2 2010   2.869   2.431   1.974 -0.2815 -0.9416  0.8076
  671SOL     OW 2011   1.787   1.770   1.434 -0.5136 -0.4304 -0.1821
  671SOL    HW1 2012   1.811   1.764   1.331 -0.1863 -2.9870 -1.6513
  671SOL    HW2 2013   1.688   1.757   1.451 -2.4793 -0.4203 -2.8455
  672SOL     OW 2014   0.424   0.569   2.389  0.5850 -0.3312  0.1392
  672SOL    HW1 2015   0.453   0.622   2.308  1.8204  0.2792 -0.7873
  672SOL    HW2 2016   0.344   0.616   2.433  1.2691 -0.5585 -0.3062
  673SOL     OW 2017   0.147   1.182   1.137 -0.1383 -0.1818  0.1331
  673SOL    HW1 2018   0.145   1.235   1.227 -0.4830  0.1250 -0.4182
  673SOL    HW2 2019   0.242   1.151   1.114 -0.4880 -0.4324  0.9969
  674SOL     OW 2020   1.586   2.899   0.162 -0.4384 -0.4574 -0.2412
  674SOL    HW1 2021   1.645   2.986   0.138  0.3847  1.8844 -1.8900
  674SOL    HW2 2022   1.603   2.823   0.091 -0.6398  1.0015  0.0056
  675SOL     OW 2023   1.645   0.849   2.287 -0.4394 -0.3525  0.6726
  675SOL    HW1 2024   1.737   0.816   2.257 -1.3714 -0.5819  0.8199
  675SOL    HW2 2025   1.595   0.764   2.301 -1.7537  0.0265 -1.5366
  676SOL     OW 2026   2.490   1.560   2.023 -0.2822 -0.1133  0.0954
  676SOL    HW1 2027   2.465   1.512   1.936 -0.7872 -0.0324  1.8704
  676SOL    HW2 2028   2.530   1.491   2.091 -0.7679  1.2033 -1.9844
  677SOL     OW 2029   1.884   0.638   0.897 -0.5540 -0.3808  0.2856
  677SOL    HW1 2030   1.897   0.662   0.998 -0.7402 -1.0760  2.0335
  677SOL    HW2 2031   1.874   0.536   0.871 -2.5697 -0.4154 -1.8869
  678SOL     OW 2032   0.024   0.724   1.665 -0.3998  0.0893  0.4249
  678SOL    HW1 2033   0.124   0.752   1.662 -0.7085 -0.7692 -1.0279
  678SOL    HW2 2034  -0.015   0.734   1.762  1.5638 -0.4012 -1.7336
  679SOL     OW 2035   2.553   1.149   1.108  0.0438  0.0750 -0.6146
  679SOL    HW1 2036   2.475   1.152   1.179  0.8853 -0.5908  0.6864
  679SOL    HW2 2037   2.578   1.051   1.090 -2.2791 -1.2325  0.6046
  680SOL     OW 2038   2.833   0.622   1.658  0.1554 -0.0508 -0.4410
  680SOL    HW1 2039   2.801   0.663   1.567  1.9077  1.1075 -0.5975
  680SOL    HW2 2040   2.891   0.692   1.707  1.0848  0.9152 -1.3352
  681SOL     OW 2041   3.000   0.126   1.633  0.0939 -0.2847  0.2745
  681SOL    HW1 2042   3.061   0.099   1.550 -2.1976  0.4252  0.5763
  681SOL    HW2 2043   2.944   0.215   1.615  0.4442  2.4131 -1.8994
  682SOL     OW 2044   0.780   0.060   1.343 -0.0744 -0.4685  0.7422
  682SOL    HW1 2045   0.715  -0.008   1.389 -0.8769  0.2044  1.8612
  682SOL    HW2 2046   0.790   0.042   1.241  1.6092  0.5228 -1.3899
  683SOL     OW 2047   1.355   0.269   2.155  0.5758  0.3586  0.0499
  683SOL    HW1 2048   1.320   0.335   2.229 -1.7597  0.9998  0.3714
  683SOL    HW2 2049   1.436   0.299   2.100  0.3488  0.5302  0.6487
  684SOL     OW 2050   1.449   2.177   0.544 -0.2661 -0.1048 -0.3437
  684SOL    HW1 2051   1.505   2.109   0.598  1.7229 -1.8139 -2.2507
  684SOL    HW2 2052   1.355   2.136   0.524 -2.2794  0.0209 -0.6812
  685SOL     OW 2053   2.208   2.003   1.903 -0.2150  0.3170 -0.1619
  685SOL    HW1 2054   2.281   2.073   1.899 -3.7162  1.0139  3.0133
  685SOL    HW2 2055   2.230   1.907   1.943  1.5545 -0.7427 -0.2244
  686SOL     OW 2056   1.511   1.754   2.697 -0.0573  0.0789 -1.1713
  686SOL    HW1 2057   1.509   1.676   2.762  0.0128 -1.2064 -0.7221
  686SOL    HW2 2058   1.604   1.772   2.664  1.3989 -1.8836  0.4914
  687SOL     OW 2059   1.293   2.515   1.915  0.2402  0.2758 -0.3447
  687SOL    HW1 2060   1.328   2.419   1.948 -0.7090 -0.1124 -3.0123
  687SOL    HW2 2061   1.348   2.593   1.956  0.1606  0.9172  1.1370
  688SOL     OW 2062   2.085   1.509   1.702 -0.2202 -0.7442 -1.0223
  688SOL    HW1 2063   2.173   1.570   1.688 -0.2740  1.0759 -0.5500
  688SOL    HW2 2064   2.059   1.467   1.609 -0.8069 -1.3567 -0.6813
  689SOL     OW 2065   2.477   1.091   2.724 -0.0236 -0.5296  0.2700
  689SOL    HW1 2066   2.375   1.119   2.740 -2.0600  1.7874  0.9731
  689SOL    HW2 2067   2.506   1.046   2.809 -1.8497  1.2136  1.8864
  690SOL     OW 2068   2.208   2.752   0.088 -0.5219  0.0102  0.1687
  690SOL    HW1 2069   2.139   2.749   0.016 -0.6995 -2.5392  1.8940
  690SOL    HW2 2070   2.181   2.817   0.164  2.4566  0.2619  1.3974
  691SOL     OW 2071   2.560   0.405   2.098  0.0155 -0.0506 -0.0266
  691SOL    HW1 2072   2.629   0.337   2.063  0.0389  0.6507  0.4258
  691SOL    HW2 2073   2.585   0.506   2.081  1.7796  0.8764  0.8392
  692SOL     OW 2074   2.766   1.214   0.711  0.0737  0.1120  0.1538
  692SOL    HW1 2075   2.667   1.194   0.679  1.6877  0.6580  0.3090
  692SOL    HW2 2076   2.775   1.301   0.763  2.2023 -0.1465  0.4426
  693SOL     OW 2077   2.839   2.979   0.675  0.4687  0.0713 -0.1966
  693SOL    HW1 2078   2.839   3.069   0.726  0.0082 -1.3326  0.5599
  693SOL    HW2 2079   2.779   2.985   0.590  3.0945  0.7489  1.2808
  694SOL     OW 2080   2.439   2.231   0.071  0.3010 -0.0215 -0.2689
  694SOL    HW1 2081   2.407   2.315   0.123  0.6728  1.5091 -2.5303
  694SOL    HW2 2082   2.366   2.152   0.073  1.0615  1.6206  0.8286
  695SOL     OW 2083   0.632   2.974   1.466 -0.3366 -0.3523  0.0579
  695SOL    HW1 2084   0.575   2.891   1.437 -2.1439 -0.7888 -1.9837
  695SOL    HW2 2085   0.592   3.010   1.554  1.0773  0.5523  1.2732
  696SOL     OW 2086   2.689   1.923   0.723 -0.4711  0.2794 -0.0509
  696SOL    HW1 2087   2.729   1.874   0.803 -1.3363  0.2013 -0.4138
  696SOL    HW2 2088   2.681   1.857   0.638 -3.2421 -0.7161 -0.7674
  697SOL     OW 2089   1.693   2.076   1.855  0.9410 -0.2390 -0.2410
  697SOL    HW1 2090   1.755   1.997   1.870 -1.3120  1.3633 -1.4613
  697SOL    HW2 2091   1.736   2.171   1.853  2.6285  1.1742 -0.0978
  698SOL     OW 2092   2.916   0.365   2.738 -1.0021  0.1254 -0.1933
  698SOL    HW1 2093   2.909   0.331   2.640  0.4025 -0.3648  1.6684
  698SOL    HW2 2094   2.945   0.296   2.803  1.2770  0.4258 -0.1406
  699SOL     OW 2095   1.517   0.054   2.932 -0.5514  0.2999 -0.2408
  699SOL    HW1 2096   1.493  -0.043   2.897 -0.9028 -1.8250 -0.0362
  699SOL    HW2 2097   1.575   0.121   2.873 -1.5103 -0.2490 -1.8789
  700SOL     OW 2098   0.990   2.314   1.311 -0.0958  0.0148  0.2402
  700SOL    HW1 2099   1.073   2.266   1.273  1.1384 -1.4422 -0.8157
  700SOL    HW2 2100   0.911   2.323   1.246  1.4309 -1.1011  0.8217
  701SOL     OW 2101   1.931   2.824   0.005 -0.2180 -0.2338 -0.1227
  701SOL    HW1 2102   1.904   2.773   0.091  0.1643  1.7627 -1.6966
  701SOL    HW2 2103   1.955   2.924   0.021 -2.0084 -0.3256  0.8691
  702SOL     OW 2104   2.092   1.340   1.925 -0.0809 -0.1030  0.2047
  702SOL    HW1 2105   2.135   1.246   1.901 -2.0567 -1.5052  0.1977
  702SOL    HW2 2106   2.087   1.400   1.843  0.9791 -3.3733  2.3252
  703SOL     OW 2107   1.924   0.833   1.399 -0.4461 -0.2297  0.2755
  703SOL    HW1 2108   1.906   0.745   1.449  1.3035  0.9572 -2.4467
  703SOL    HW2 2109   1.988   0.896   1.452 -0.0281 -0.6465 -0.9215
  704SOL     OW 2110   0.304   2.070   1.657  0.2337  0.3058  0.2471
  704SOL    HW1 2111   0.334   1.979   1.704  1.6568  1.8618  0.2155
  704SOL    HW2 2112   0.369   2.144   1.692  1.9597  1.1087  0.0440
  705SOL     OW 2113   2.530   1.395   0.942  0.4163 -0.0366 -0.1889
  705SOL    HW1 2114   2.485   1.376   0.853  1.4358 -0.7275 -0.2069
  705SOL    HW2 2115   2.557   1.310   0.994 -4.0321  1.2351  1.0372
  706SOL     OW 2116   0.652   1.755   1.849  0.1291  0.2230  0.5314
  706SOL    HW1 2117   0.623   1.669   1.901  0.3438 -2.7424  0.1374
  706SOL    HW2 2118   0.717   1.824   1.901  3.0815 -0.5700 -0.8717
  707SOL     OW 2119   2.235   1.101   1.891  0.5204  0.3112 -0.0788
  707SOL    HW1 2120   2.335   1.123   1.898 -1.1356 -0.1522 -0.7299
  707SOL    HW2 2121   2.211   1.008   1.862 -2.0654  0.1754 -1.3361
  708SOL     OW 2122   2.973   0.519   3.049  0.3283 -0.3542  0.5636
  708SOL    HW1 2123   3.025   0.547   2.960 -1.3788 -1.8681 -0.2162
  708SOL    HW2 2124   2.940   0.423   3.050  1.0632  0.9158 -2.9611
  709SOL     OW 2125   1.793   1.898   0.254  0.5530 -0.1393  0.1363
  709SOL    HW1 2126   1.848   1.986   0.280  0.5758 -1.3512 -0.6870
  709SOL    HW2 2127   1.819   1.867   0.160  0.4002 -0.0911 -0.3640
  710SOL     OW 2128   1.684   1.588   2.404  0.1443 -0.1886  0.1883
  710SOL    HW1 2129   1.730   1.578   2.314  0.7372 -1.9696  2.9679
  710SOL    HW2 2130   1.714   1.523   2.474  0.8031  4.0343  0.3919
  711SOL     OW 2131   2.666   2.934   0.972  0.5412 -0.1146  0.3060
  711SOL    HW1 2132   2.638   3.031   0.941  1.9902 -1.2341 -1.3915
  711SOL    HW2 2133   2.767   2.924   0.997  0.7025 -4.0076 -1.3820
  712SOL     OW 2134   1.431   2.267   1.889  0.5368  0.0800 -0.9696
  712SOL    HW1 2135   1.504   2.197   1.904 -0.8536 -1.5718 -1.6213
  712SOL    HW2 2136   1.384   2.247   1.797 -0.1558 -0.7282 -1.2111
  713SOL     OW 2137   2.821   1.524   2.529 -0.5115  0.4751 -0.6426
  713SOL    HW1 2138   2.822   1.420   2.517 -1.5792 -0.1606 -0.8305
  713SOL    HW2 2139   2.730   1.564   2.551 -3.1721 -3.5295 -1.2422
  714SOL     OW 2140   2.678   0.456   2.391 -0.2209 -0.6224  0.2757
  714SOL    HW1 2141   2.609   0.415   2.455  0.8763 -0.0317  2.5102
  714SOL    HW2 2142   2.643   0.451   2.297 -3.4721 -0.2207  1.0642
  715SOL     OW 2143   1.595   2.040   1.166  0.0035 -0.0008 -0.3179
  715SOL    HW1 2144   1.536   2.103   1.115  2.5723 -0.5361 -0.7456
  715SOL    HW2 2145   1.615   2.084   1.258 -2.4127 -0.4605  0.1876
  716SOL     OW 2146   1.211   0.218   1.517  0.7375  0.0268  0.0267
  716SOL    HW1 2147   1.116   0.243   1.478  0.1897  0.8923  0.3451
  716SOL    HW2 2148   1.285   0.278   1.475  0.5375  1.8479  0.0750
  717SOL     OW 2149   1.106   0.611   1.611 -0.2879  0.4742 -0.0998
  717SOL    HW1 2150   1.212   0.619   1.630 -0.7311 -0.6289  1.4990
  717SOL    HW2 2151   1.078   0.573   1.513 -2.4989 -0.4092 -0.0536
  718SOL     OW 2152   0.739   0.985   0.951  0.0898  0.2981  0.2247
  718SOL    HW1 2153   0.673   0.952   0.873 -0.2777  1.4537 -1.6970
  718SOL    HW2 2154   0.717   1.080   0.997  0.2293  1.9414 -0.5570
  719SOL     OW 2155   0.722   1.801   2.269  0.5083  0.1978  0.0282
  719SOL    HW1 2156   0.802   1.851   2.323  0.3200 -1.5213  0.0641
  719SOL    HW2 2157   0.642   1.776   2.331  0.6774  1.1702  1.7430
  720SOL     OW 2158   2.185   1.139   0.225 -0.3313 -0.5363 -0.1211
  720SOL    HW1 2159   2.267   1.075   0.210  0.7201  0.8794 -2.0276
  720SOL    HW2 2160   2.153   1.136   0.327  0.1853 -0.8428 -0.3559
  721SOL     OW 2161   2.299   3.031   2.097  0.2897  0.7591 -0.2872
  721SOL    HW1 2162   2.328   3.065   2.006 -0.0024  3.2977  1.8264
  721SOL    HW2 2163   2.196   3.044   2.115 -2.5166 -2.0878  1.2849
  722SOL     OW 2164   2.369   1.617   0.580 -0.1316  0.1250 -0.3050
  722SOL    HW1 2165   2.367   1.561   0.490  2.2268  1.5543 -0.8192
  722SOL    HW2 2166   2.295   1.692   0.582  0.6830  3.3791 -0.8725
  723SOL     OW 2167   2.558   2.711   1.980  0.1530  0.6530 -0.5236
  723SOL    HW1 2168   2.580   2.776   2.061 -0.9047  0.3880  0.1679
  723SOL    HW2 2169   2.458   2.695   1.978  0.4370  1.6972  1.5595
  724SOL     OW 2170   0.534   2.475   2.407 -0.1584  0.1776 -0.5191
  724SOL    HW1 2171   0.437   2.473   2.441 -1.5940  2.4074 -0.2705
  724SOL    HW2 2172   0.597   2.531   2.470  3.0441  0.4441  1.7680
  725SOL     OW 2173   2.460   2.754   1.547  0.5013 -0.0594  0.0107
  725SOL    HW1 2174   2.494   2.738   1.450  2.5189  0.2328  2.5951
  725SOL    HW2 2175   2.432   2.661   1.593 -0.9046  0.4324  1.5497
  726SOL     OW 2176   2.369   2.238   0.660 -0.0453 -0.3509  0.0776
  726SOL    HW1 2177   2.367   2.341   0.629 -2.5069 -0.3433 -2.1105
  726SOL    HW2 2178   2.412   2.179   0.593 -0.0052  0.1274  2.0319
  727SOL     OW 2179   0.182   3.087   0.061  0.4271  0.0808  0.4144
  727SOL    HW1 2180   0.254   3.019   0.051  1.4456  1.9122 -0.9007
  727SOL    HW2 2181   0.127   3.102  -0.026  0.6738  0.8543 -0.4041
  728SOL     OW 2182   2.860   0.668   0.975 -0.0820  0.4395 -0.2046
  728SOL    HW1 2183   2.800   0.670   0.893 -2.1273 -2.9693  1.2696
  728SOL    HW2 2184   2.828   0.609   1.059  0.1653 -0.0439 -0.4863
  729SOL     OW 2185   2.943   2.448   0.725 -0.7701  0.1120 -0.5791
  729SOL    HW1 2186   2.893   2.356   0.736 -1.2730 -0.4136 -0.0916
  729SOL    HW2 2187   3.051   2.444   0.743  0.1266 -3.6405  0.9499
  730SOL     OW 2188   2.608   0.612   0.867  0.3057 -0.6787 -0.2370
  730SOL    HW1 2189   2.547   0.683   0.837  0.0937 -1.7852  1.5889
  730SOL    HW2 2190   2.659   0.574   0.788 -0.4072  2.6455 -0.5430
  731SOL     OW 2191   0.112   2.126   2.446 -0.0599 -0.0652  0.3051
  731SOL    HW1 2192   0.107   2.177   2.532 -0.2421 -0.4777  0.5454
  731SOL    HW2 2193   0.119   2.192   2.366 -0.0229  1.2589 -0.7681
  732SOL     OW 2194   1.100   2.893   1.930  0.3154 -0.1683  0.4877
  732SOL    HW1 2195   1.123   2.818   1.998  0.0693  0.5870  0.4839
  732SOL    HW2 2196   1.139   2.862   1.841 -1.2411  0.6567 -0.0703
  733SOL     OW 2197   3.086   0.639   2.168  0.5972  0.5074 -0.1197
  733SOL    HW1 2198   3.170   0.688   2.123 -0.4976  2.7950  0.7213
  733SOL    HW2 2199   3.032   0.572   2.108 -0.9166 -2.0488 -2.4176
  734SOL     OW 2200   1.420   0.398   2.779  0.2935 -0.4514 -0.0392
  734SOL    HW1 2201   1.438   0.483   2.837  1.8175  1.8625 -0.8130
  734SOL    HW2 2202   1.323   0.364   2.788  2.7534  0.0026  1.2597
  735SOL     OW 2203   2.923   2.590   2.268 -0.0092  0.1247  0.1828
  735SOL    HW1 2204   2.890   2.595   2.168 -0.9058  2.1237 -1.3237
  735SOL    HW2 2205   3.028   2.582   2.270 -0.7052 -1.7910 -0.8779
  736SOL     OW 2206   0.697   0.394   2.623 -0.1634  1.4268 -0.4756
  736SOL    HW1 2207   0.632   0.463   2.592  0.6930 -2.7323 -1.3351
  736SOL    HW2 2208   0.734   0.332   2.555  0.5808 -0.7996  1.3892
  737SOL     OW 2209   2.657   0.414   2.850  0.4432  0.3228  0.2638
  737SOL    HW1 2210   2.615   0.399   2.947 -1.3441  0.6328  1.5800
  737SOL    HW2 2211   2.750   0.366   2.834 -0.0582 -2.1521 -0.6928
  738SOL     OW 2212   1.609   1.246   2.908 -0.0557  0.0522  0.1354
  738SOL    HW1 2213   1.707   1.227   2.922 -0.0692  2.7371 -0.6125
  738SOL    HW2 2214   1.551   1.172   2.868  2.3746  0.2389 -0.0665
  739SOL     OW 2215   1.696   0.633   0.640  0.2445 -0.1425  0.2374
  739SOL    HW1 2216   1.767   0.637   0.715  0.8144  0.4511  1.5162
  739SOL    HW2 2217   1.709   0.553   0.578  0.0740  0.7512  0.6311
  740SOL     OW 2218   1.938   1.912   2.347  0.0465 -0.1445  0.3992
  740SOL    HW1 2219   2.007   1.860   2.400 -0.1521 -0.9665 -1.2812
  740SOL    HW2 2220   1.890   1.853   2.271  0.4071 -0.3306 -1.8143
  741SOL     OW 2221   2.544   0.077   2.623  0.1729 -0.6894 -0.3958
  741SOL    HW1 2222   2.650   0.073   2.626  1.5581  2.1550  2.8409
  741SOL    HW2 2223   2.507   0.014   2.550  2.6383  2.1971 -1.0557
  742SOL     OW 2224   2.242   1.402   0.177  0.4795  0.1567 -0.1191
  742SOL    HW1 2225   2.164   1.465   0.186  0.3910 -1.2844 -0.8354
  742SOL    HW2 2226   2.218   1.310   0.217  2.7038  0.6674 -1.7177
  743SOL     OW 2227   1.813   0.659   2.593 -0.3434 -0.2968 -0.0729
  743SOL    HW1 2228   1.782   0.596   2.514 -0.9602  0.9615 -0.3768
  743SOL    HW2 2229   1.740   0.726   2.614 -1.0599 -0.5735 -0.9725
  744SOL     OW 2230   2.697   2.142   0.071 -0.2680  0.5334 -0.2626
  744SOL    HW1 2231   2.609   2.189   0.090  2.1555 -3.2791 -0.1294
  744SOL    HW2 2232   2.666   2.049   0.040  0.5838  1.2426 -0.3968
  745SOL     OW 2233   2.149   2.669   2.283 -0.3609  0.3984 -0.4510
  745SOL    HW1 2234   2.049   2.666   2.245 -2.2152 -1.0562 -0.2395
  745SOL    HW2 2235   2.170   2.742   2.358  1.7413 -0.9606 -0.5979
  746SOL     OW 2236   3.092   2.612   1.782  0.2915 -0.2896  0.9587
  746SOL    HW1 2237   3.171   2.619   1.714  0.1375 -1.9672  0.9233
  746SOL    HW2 2238   3.052   2.702   1.819 -1.2638 -0.4729 -0.5174
  747SOL     OW 2239   0.030   1.770   1.615  0.0911 -0.0784  0.0250
  747SOL    HW1 2240  -0.006   1.678   1.573 -1.8562  0.3407 -1.6430
  747SOL    HW2 2241   0.090   1.828   1.558  2.2142 -2.2350  2.1405
  748SOL     OW 2242   1.861   2.769   2.832  0.0617  0.0665 -0.1812
  748SOL    HW1 2243   1.851   2.805   2.927 -3.3750  1.2476 -0.1441
  748SOL    HW2 2244   1.770   2.729   2.802 -2.2072  1.5073  1.8527
  749SOL     OW 2245   1.330   3.079   0.891  0.2192  0.0065  0.2745
  749SOL    HW1 2246   1.263   3.000   0.922 -0.8448  1.1125 -0.4656
  749SOL    HW2 2247   1.292   3.118   0.801 -2.7981  1.0091  0.8233
  750SOL     OW 2248   2.367   0.234   1.873 -0.6981 -0.0706  0.0322
  750SOL    HW1 2249   2.392   0.287   1.785 -0.0043  1.2601  0.1619
  750SOL    HW2 2250   2.296   0.285   1.927  2.0653 -0.3216 -3.0914
  751SOL     OW 2251   0.940   2.176   2.721 -0.1069  0.2999 -0.2685
  751SOL    HW1 2252   0.947   2.199   2.822  0.4081  1.5319 -0.6684
  751SOL    HW2 2253   0.859   2.118   2.698  1.7222  0.8471  0.6364
  752SOL     OW 2254   1.251   0.861   1.511  0.3298 -0.1681  0.2677
  752SOL    HW1 2255   1.326   0.931   1.486  1.9968  0.1600 -1.4427
  752SOL    HW2 2256   1.287   0.764   1.513  3.8394 -0.5058 -1.8920
  753SOL     OW 2257   0.957   2.590   1.708  0.2499  0.0348 -0.1554
  753SOL    HW1 2258   1.047   2.633   1.735  1.0916  2.4727  2.6451
  753SOL    HW2 2259   0.887   2.650   1.657 -2.4428 -1.9801  2.1557
  754SOL     OW 2260   1.213   1.317   3.093  0.4013  0.2222 -0.5788
  754SOL    HW1 2261   1.269   1.246   3.045  0.6975  0.8198  2.9810
  754SOL    HW2 2262   1.211   1.401   3.037  0.4235  0.1837 -0.4687
  755SOL     OW 2263   1.947   0.424   2.210 -0.0405 -0.0352 -0.2050
  755SOL    HW1 2264   2.040   0.429   2.253 -0.3401 -1.3500 -0.2641
  755SOL    HW2 2265   1.880   0.467   2.278  0.2022  0.8706 -2.4740
  756SOL     OW 2266   2.604   0.953   2.929  0.0463  0.1195 -0.2336
  756SOL    HW1 2267   2.708   0.947   2.948  0.3270 -0.1468 -0.7313
  756SOL    HW2 2268   2.548   0.888   2.989  0.8890 -6.4157  0.3109
  757SOL     OW 2269   3.049   0.468   1.790  0.2136 -0.2771  0.0908
  757SOL    HW1 2270   3.125   0.478   1.719 -1.4058  2.1244 -0.8648
  757SOL    HW2 2271   3.050   0.382   1.840  2.1465  0.7190  0.7856
  758SOL     OW 2272   2.381   0.098   1.427 -0.0800 -0.8688  0.0712
  758SOL    HW1 2273   2.341   0.029   1.491  0.2058  3.0512  1.7653
  758SOL    HW2 2274   2.371   0.083   1.327 -0.7397  1.2481 -0.0319
  759SOL     OW 2275   1.695   0.031   0.077  0.1068  0.2406  0.3946
  759SOL    HW1 2276   1.645   0.047  -0.008  0.5013 -2.2562  0.7744
  759SOL    HW2 2277   1.791   0.073   0.075  0.1078  2.3131  1.7718
  760SOL     OW 2278   2.747   2.077   2.815 -0.3992  0.3380  0.0319
  760SOL    HW1 2279   2.809   2.011   2.861  2.2358  0.4121  0.3033
  760SOL    HW2 2280   2.751   2.168   2.864 -0.3085 -1.0794  1.6646
  761SOL     OW 2281   1.959   1.743   1.663  0.1208 -0.6042 -0.4077
  761SOL    HW1 2282   1.990   1.647   1.695 -0.9729 -1.6658 -2.8131
  761SOL    HW2 2283   1.889   1.739   1.583 -2.5253  1.7690 -2.0188
  762SOL     OW 2284   0.468   2.338   0.978 -0.1273 -0.1922  0.5582
  762SOL    HW1 2285   0.510   2.354   0.882  1.4208  1.9667 -1.0196
  762SOL    HW2 2286   0.486   2.424   1.036 -0.0966  0.7805 -0.9041
  763SOL     OW 2287   2.101   1.533   2.973 -0.2150 -0.4392  0.5656
  763SOL    HW1 2288   2.156   1.447   2.986 -1.3879  0.5708  0.7496
  763SOL    HW2 2289   2.010   1.534   3.022  1.0633  1.6948 -1.8344
  764SOL     OW 2290   0.667   0.599   0.863  0.5274  0.2145  0.4279
  764SOL    HW1 2291   0.659   0.556   0.768  1.4249  0.9985  0.5088
  764SOL    HW2 2292   0.761   0.583   0.901 -0.6643 -2.0948  0.0787
  765SOL     OW 2293   0.698   0.211   0.849 -0.3698  0.1675  0.6258
  765SOL    HW1 2294   0.713   0.276   0.767 -0.0839 -0.8240 -1.4501
  765SOL    HW2 2295   0.676   0.252   0.942 -0.3571  0.5841  0.5801
  766SOL     OW 2296   2.960   2.092   3.092 -0.3583  0.1881  0.3739
  766SOL    HW1 2297   2.856   2.100   3.111  1.6110  0.9519 -1.2475
  766SOL    HW2 2298   3.005   2.185   3.083 -0.8264  1.1884 -3.9987
  767SOL     OW 2299   2.867   1.568   0.537  0.5150 -0.2294 -0.3909
  767SOL    HW1 2300   2.785   1.586   0.598  1.2037  3.3619  1.7031
  767SOL    HW2 2301   2.954   1.563   0.597  0.8579  1.8673 -2.3103
  768SOL     OW 2302   1.088   0.228   0.351  0.2241 -0.2513 -0.3105
  768SOL    HW1 2303   1.021   0.167   0.390 -0.1462  2.2238 -1.3971
  768SOL    HW2 2304   1.164   0.172   0.304  0.9444 -3.4806  0.3184
  769SOL     OW 2305   1.115   1.888   2.258 -0.1909 -0.3158 -0.0523
  769SOL    HW1 2306   1.049   1.906   2.337 -1.1976 -3.6477 -2.4284
  769SOL    HW2 2307   1.121   1.793   2.231 -0.6071  1.2985  3.6096
  770SOL     OW 2308   0.131   1.284   2.254  0.2455  0.9088  0.0097
  770SOL    HW1 2309   0.128   1.273   2.358  0.6437  1.8310  1.6536
  770SOL    HW2 2310   0.049   1.241   2.208  3.4013 -0.4874  1.8329
  771SOL     OW 2311   2.949   2.841   1.870  0.2942  0.0609 -0.1316
  771SOL    HW1 2312   2.929   2.911   1.795  1.6876 -3.9058 -0.3882
  771SOL    HW2 2313   2.905   2.864   1.964  2.6733  2.0655  2.2487
  772SOL     OW 2314   2.174   0.111   2.975  0.4211  0.3441 -0.0121
  772SOL    HW1 2315   2.240   0.060   2.917 -2.8198 -0.2033  1.2134
  772SOL    HW2 2316   2.203   0.207   3.005  0.7609  2.0042 -1.4391
  773SOL     OW 2317   0.734   2.112   2.515 -0.2474 -0.9873  0.3217
  773SOL    HW1 2318   0.732   2.181   2.441 -0.4649 -0.3842  0.1525
  773SOL    HW2 2319   0.645   2.107   2.569  1.1925 -1.4245  0.3286
  774SOL     OW 2320   2.039   0.016   2.667 -0.0821  0.3139 -0.3322
  774SOL    HW1 2321   2.067   0.099   2.721  0.1369 -2.0218 -0.0677
  774SOL    HW2 2322   2.093  -0.077   2.684  2.7151 -2.2346 -0.3060
  775SOL     OW 2323   2.520   2.816   2.496 -0.2237  0.9364  0.1143
  775SOL    HW1 2324   2.481   2.887   2.432 -0.9815 -2.8927 -1.8149
  775SOL    HW2 2325   2.624   2.813   2.505 -2.0299 -1.1188  0.0072
  776SOL     OW 2326   0.054   1.249   0.241 -0.4244 -0.3978  0.5721
  776SOL    HW1 2327  -0.007   1.245   0.157 -0.9950  0.7818 -1.7991
  776SOL    HW2 2328  -0.012   1.247   0.324 -0.2520 -0.2327  0.6849
  777SOL     OW 2329   0.240   2.756   0.482 -0.0736 -1.0512  0.2482
  777SOL    HW1 2330   0.140   2.788   0.487 -0.3198 -0.3508 -6.1750
  777SOL    HW2 2331   0.304   2.835   0.472 -1.0308 -2.3363 -0.3224
  778SOL     OW 2332   1.359   1.986   0.167 -0.0580  0.4031  0.4331
  778SOL    HW1 2333   1.345   1.980   0.269 -1.2547  0.8469 -0.5665
  778SOL    HW2 2334   1.341   2.082   0.124 -2.0099  0.3551 -2.0450
  779SOL     OW 2335   0.190   0.793   0.506 -0.0725 -0.1900  0.5235
  779SOL    HW1 2336   0.139   0.703   0.493 -0.5012 -0.6028 -2.5678
  779SOL    HW2 2337   0.141   0.852   0.572  0.3931 -1.6159 -0.1831
  780SOL     OW 2338   0.039   0.275   2.293  0.1461  0.4885  0.3911
  780SOL    HW1 2339   0.039   0.381   2.292 -2.4991  1.0747  0.2822
  780SOL    HW2 2340   0.122   0.241   2.237  0.0465 -0.4702 -0.1250
  781SOL     OW 2341   0.658   1.718   1.562 -0.3519 -0.1501 -0.2079
  781SOL    HW1 2342   0.667   1.712   1.662 -0.2896 -0.5918 -0.3933
  781SOL    HW2 2343   0.566   1.709   1.525  2.4700  1.1032  1.8137
  782SOL     OW 2344   2.596   0.148   0.886  0.3266  0.0986 -0.5616
  782SOL    HW1 2345   2.525   0.158   0.815 -0.6125 -0.6037  1.8905
  782SOL    HW2 2346   2.576   0.212   0.966  0.4040  0.9805 -0.4799
  783SOL     OW 2347   2.822   0.659   2.535 -0.1592  0.5366  0.3800
  783SOL    HW1 2348   2.783   0.677   2.629  1.3902  0.5855  1.5204
  783SOL    HW2 2349   2.774   0.579   2.494 -0.1911 -0.9458 -1.2714
  784SOL     OW 2350   1.368   2.237   0.050 -0.4510  0.7153 -0.0015
  784SOL    HW1 2351   1.437   2.306   0.084 -0.1145 -0.1820 -0.3043
  784SOL    HW2 2352   1.370   2.228  -0.051  2.0803 -3.5420  2.5981
  785SOL     OW 2353   2.197   0.374   3.067  0.0765  0.0169 -0.1395
  785SOL    HW1 2354   2.104   0.365   3.116 -0.0655  0.5284 -1.5261
  785SOL    HW2 2355   2.215   0.469   3.021 -0.5181  0.0224  0.3791
  786SOL     OW 2356   2.051   2.133   2.195 -0.1785 -0.6113  0.2702
  786SOL    HW1 2357   1.995   2.055   2.230 -0.3784 -0.5711 -1.7453
  786SOL    HW2 2358   2.133   2.156   2.249  0.2419  1.1438  2.3686
  787SOL     OW 2359   1.401   0.611   0.878 -0.1498 -0.3224 -0.3325
  787SOL    HW1 2360   1.341   0.690   0.910  0.5103 -1.2105  1.1593
  787SOL    HW2 2361   1.377   0.578   0.782 -2.5328  1.5699  1.0970
  788SOL     OW 2362   1.219   0.409   3.033 -0.1534 -0.2063  0.3715
  788SOL    HW1 2363   1.139   0.411   2.975  0.1264  0.3126  0.5778
  788SOL    HW2 2364   1.256   0.498   3.073  3.3271 -1.6478 -2.0703
  789SOL     OW 2365   2.603   0.079   1.793 -0.2451 -0.1044 -0.5659
  789SOL    HW1 2366   2.525   0.132   1.833 -1.3417  3.6898 -1.7996
  789SOL    HW2 2367   2.589  -0.028   1.807  1.2085 -0.1971  1.1397
  790SOL     OW 2368   2.553   2.688   0.851 -0.4966 -0.1614 -0.2981
  790SOL    HW1 2369   2.620   2.747   0.891 -0.7398 -0.4410 -2.9958
  790SOL    HW2 2370   2.532   2.605   0.909 -1.7392 -0.5938  0.6479
  791SOL     OW 2371   1.932   1.270   0.258  0.2564  0.0370 -0.1641
  791SOL    HW1 2372   1.844   1.217   0.265  0.4884 -1.1799  0.2478
  791SOL    HW2 2373   2.002   1.209   0.211  1.2262 -1.2802 -0.7730
  792SOL     OW 2374   0.452   2.014   2.141 -0.0553  0.4434  0.6465
  792SOL    HW1 2375   0.502   2.101   2.169  0.4564  0.5122  0.6374
  792SOL    HW2 2376   0.376   1.982   2.210 -0.7636 -2.4950  2.9258
  793SOL     OW 2377   2.092   1.551   2.087 -0.1411  0.1790  0.2773
  793SOL    HW1 2378   2.135   1.617   2.019  1.4716 -0.8241 -1.4156
  793SOL    HW2 2379   2.080   1.451   2.044  0.2339 -1.1229 -0.6695
  794SOL     OW 2380   0.469   1.374   2.475  0.1632 -0.1496 -0.3024
  794SOL    HW1 2381   0.473   1.320   2.383  1.4293 -0.6808 -2.6419
  794SOL    HW2 2382   0.423   1.469   2.466 -1.3075  1.1965 -0.9253
  795SOL     OW 2383   2.475   2.367   1.795  0.0603 -0.1852  0.3468
  795SOL    HW1 2384   2.492   2.352   1.899 -1.6284 -0.5702 -1.1430
  795SOL    HW2 2385   2.404   2.299   1.761  2.8975 -0.0135 -0.8741
  796SOL     OW 2386   3.101   1.071   2.698 -0.0039 -0.1857 -0.2777
  796SOL    HW1 2387   3.010   1.060   2.743  0.5231 -2.1725  4.1266
  796SOL    HW2 2388   3.170   1.096   2.771  0.5926 -2.0235  2.1763
  797SOL     OW 2389   0.772   0.668   1.331  0.1313 -0.0766  0.0229
  797SOL    HW1 2390   0.819   0.722   1.403  0.6916 -1.6269  2.8819
  797SOL    HW2 2391   0.710   0.727   1.273 -0.0136 -0.9341 -0.1632
  798SOL     OW 2392   1.333   0.430   1.063 -0.4881 -0.2581  0.1066
  798SOL    HW1 2393   1.351   0.480   1.150 -1.5862 -0.3691 -2.7766
  798SOL    HW2 2394   1.356   0.490   0.977  1.3969  2.3879  0.3003
  799SOL     OW 2395   1.941   2.698   1.036 -0.7907  0.2332 -0.3178
  799SOL    HW1 2396   1.899   2.618   1.081  0.0035  1.4871  0.2874
  799SOL    HW2 2397   1.944   2.698   0.932  3.3555 -0.3543  2.3329
  800SOL     OW 2398   2.930   0.825   1.863  0.3161 -0.1636  0.1320
  800SOL    HW1 2399   2.977   0.904   1.912  1.8490 -0.3459 -1.1173
  800SOL    HW2 2400   2.827   0.825   1.868 -0.2628 -0.7275  1.1182
  801SOL     OW 2401   1.970   2.148   0.052 -0.2464 -0.5324 -0.0862
  801SOL    HW1 2402   1.891   2.147  -0.014  1.3227  2.1464  0.7854
  801SOL    HW2 2403   2.063   2.117   0.012  3.1899  0.0505 -1.2813
  802SOL     OW 2404   0.698   0.746   2.517  0.4157 -0.6003 -0.1320
  802SOL    HW1 2405   0.771   0.690   2.462  0.9383 -1.2279 -2.1817
  802SOL    HW2 2406   0.601   0.718   2.501 -0.5282  0.2547 -2.3830
  803SOL     OW 2407   0.962   0.091   0.893  0.4245 -0.2579  0.2025
  803SOL    HW1 2408   1.056   0.136   0.884 -0.4377  1.2642  1.2204
  803SOL    HW2 2409   0.889   0.160   0.868  0.5374 -2.2471 -0.6201
  804SOL     OW 2410   0.291   3.050   2.194 -0.2501  0.1261 -0.4274
  804SOL    HW1 2411   0.302   3.151   2.169  0.6096  1.9619  1.1379
  804SOL    HW2 2412   0.250   2.993   2.119 -0.7671  0.0206 -0.6061
  805SOL     OW 2413   2.337   0.419   0.331  0.0752  0.0103  0.5534
  805SOL    HW1 2414   2.406   0.430   0.409 -0.5317  0.8515 -2.3657
  805SOL    HW2 2415   2.361   0.334   0.271  0.7647  0.1795 -2.7078
  806SOL     OW 2416   0.680   2.473   1.795 -0.5880  0.2838 -0.0906
  806SOL    HW1 2417   0.646   2.572   1.812 -3.2948  1.1493  0.5986
  806SOL    HW2 2418   0.760   2.466   1.729 -2.0929  1.6547 -2.4272
  807SOL     OW 2419   2.507   0.926   0.435 -0.1806  0.9561 -0.2726
  807SOL    HW1 2420   2.611   0.917   0.455 -0.6969 -4.5267  1.6940
  807SOL    HW2 2421   2.476   0.938   0.338 -3.1817 -2.7643 -1.9613
  808SOL     OW 2422   0.651   2.052   2.901 -0.6792 -0.2569 -0.7667
  808SOL    HW1 2423   0.625   2.093   2.993  0.9288 -2.4020 -1.1836
  808SOL    HW2 2424   0.675   1.948   2.909  0.5903 -0.7761 -0.3639
  809SOL     OW 2425   2.562   1.986   1.847  0.1429  0.0244  0.3200
  809SOL    HW1 2426   2.650   2.044   1.848 -3.2580  0.0846  0.2333
  809SOL    HW2 2427   2.512   1.976   1.759  1.2236 -0.5150  1.5103
  810SOL     OW 2428   2.181   1.110   0.498 -0.4200 -0.4004  0.3504
  810SOL    HW1 2429   2.170   1.039   0.571  0.6720  1.7267 -0.0652
  810SOL    HW2 2430   2.132   1.203   0.516  0.7283 -2.9887 -0.5725
  811SOL     OW 2431   1.393   2.542   1.192 -0.2857  0.4980  0.1372
  811SOL    HW1 2432   1.406   2.447   1.233  0.6572 -1.0816 -1.3528
  811SOL    HW2 2433   1.348   2.601   1.265 -1.1389 -0.1092  1.2175
  812SOL     OW 2434   1.409   0.765   1.982 -0.1421  0.5073 -0.0499
  812SOL    HW1 2435   1.327   0.735   1.930  2.0005  1.3857 -2.2945
  812SOL    HW2 2436   1.422   0.865   1.965 -0.4564 -2.6848 -0.3467
  813SOL     OW 2437   1.612   2.064   2.436 -0.4559  0.2599 -0.2272
  813SOL    HW1 2438   1.668   1.978   2.465 -1.4771 -1.3583  1.1597
  813SOL    HW2 2439   1.582   2.059   2.338  0.0375  0.2791  0.7482
  814SOL     OW 2440   2.998   1.600   2.850  0.1091  0.4050  0.2528
  814SOL    HW1 2441   3.075   1.571   2.921  4.0375 -2.0034  0.5564
  814SOL    HW2 2442   2.986   1.704   2.843  0.2364  0.1358  3.1168
  815SOL     OW 2443   2.192   2.900   2.749  0.2347 -0.3709  0.5695
  815SOL    HW1 2444   2.155   2.820   2.806  1.0545 -0.0207 -1.9726
  815SOL    HW2 2445   2.293   2.924   2.774  1.4411 -0.1495 -0.5292
  816SOL     OW 2446   1.595   0.346   1.675 -0.4746 -0.2677 -0.1916
  816SOL    HW1 2447   1.655   0.263   1.697  0.6125  2.8037 -0.0605
  816SOL    HW2 2448   1.558   0.396   1.753 -0.1905 -0.5943 -1.1018
  817SOL     OW 2449   0.396   1.180   2.664 -0.2114 -0.4744  0.2918
  817SOL    HW1 2450   0.321   1.212   2.731 -1.3100 -1.5415 -0.3219
  817SOL    HW2 2451   0.421   1.260   2.598  1.1717 -1.3943  0.0773
  818SOL     OW 2452   1.943   0.827   0.439  0.2396 -0.3668 -0.1254
  818SOL    HW1 2453   2.045   0.819   0.436 -0.3881  2.5974  0.9536
  818SOL    HW2 2454   1.916   0.895   0.514  0.2272  1.0603 -0.1783
  819SOL     OW 2455   2.758   2.956   3.090 -0.1994  0.5651 -0.6523
  819SOL    HW1 2456   2.759   2.876   3.155 -1.2189 -2.0562 -1.0708
  819SOL    HW2 2457   2.706   2.927   3.003 -1.2578  1.0804 -2.1453
  820SOL     OW 2458   1.241   1.047   0.520  0.3692 -0.1497 -0.3507
  820SOL    HW1 2459   1.256   1.146   0.553 -2.7505  1.2361 -1.5892
  820SOL    HW2 2460   1.269   0.978   0.595  1.0463 -2.0693  1.5756
  821SOL     OW 2461   0.046   1.260   0.718  0.0447 -0.0969  0.2855
  821SOL    HW1 2462   0.002   1.274   0.813  0.8390 -2.4753 -0.9392
  821SOL    HW2 2463   0.112   1.333   0.698 -2.1707 -2.0286 -0.5445
  822SOL     OW 2464   2.537   1.806   2.461 -0.3179 -0.1257  0.3330
  822SOL    HW1 2465   2.541   1.881   2.534 -0.2234 -0.1993 -0.5429
  822SOL    HW2 2466   2.454   1.815   2.397 -0.9905 -0.1750 -0.2713
  823SOL     OW 2467   2.020   0.882   1.136 -0.4070  0.0466  0.0826
  823SOL    HW1 2468   1.976   0.843   1.219 -0.2051  1.1503  1.2055
  823SOL    HW2 2469   1.946   0.903   1.062 -1.3327 -2.4888  1.9651
  824SOL     OW 2470   0.210   1.981   2.800 -0.2943  0.5876 -0.2878
  824SOL    HW1 2471   0.272   1.934   2.869  1.1287 -2.6105  0.3934
  824SOL    HW2 2472   0.241   1.952   2.706  2.5346 -0.3222 -0.2724
  825SOL     OW 2473   1.315   1.035   0.260  0.0634  0.0875 -0.2701
  825SOL    HW1 2474   1.320   1.138   0.231  0.7053  0.2537  1.0356
  825SOL    HW2 2475   1.276   1.022   0.354 -1.8360  1.0938  1.0534
  826SOL     OW 2476   1.920   0.635   1.589  0.1653 -0.3704  0.0447
  826SOL    HW1 2477   2.002   0.574   1.608 -1.7720 -0.1710  0.0581
  826SOL    HW2 2478   1.838   0.577   1.557 -0.0914  0.6039  0.6597
  827SOL     OW 2479   0.643   1.226   0.298 -0.1221 -0.0877  0.0917
  827SOL    HW1 2480   0.709   1.177   0.239  0.4326 -0.4614  1.7683
  827SOL    HW2 2481   0.571   1.163   0.334  1.5646  0.3498 -0.0907
  828SOL     OW 2482   2.658   0.109   1.525  0.0974 -0.1000  0.0561
  828SOL    HW1 2483   2.562   0.105   1.490  2.4821  2.9561  1.8501
  828SOL    HW2 2484   2.656   0.118   1.629  1.0006  0.7069  0.8947
  829SOL     OW 2485   2.952   2.370   2.826 -0.1527 -0.0059 -0.0212
  829SOL    HW1 2486   2.868   2.362   2.885 -0.1764 -0.2973 -1.0861
  829SOL    HW2 2487   2.965   2.466   2.799  1.3286 -1.0915 -0.1032
  830SOL     OW 2488   2.880   0.981   3.054  0.4083 -0.8381  0.0847
  830SOL    HW1 2489   2.916   1.054   3.114  1.5631 -0.1496 -1.8008
  830SOL    HW2 2490   2.854   0.893   3.103 -1.0648 -0.0934  5.4071
  831SOL     OW 2491   0.053   0.554   0.432 -0.9238 -0.0126  0.0118
  831SOL    HW1 2492   0.039   0.481   0.506 -0.1818 -3.5388 -1.7177
  831SOL    HW2 2493   0.092   0.509   0.346  1.0498  1.2991 -0.5844
  832SOL     OW 2494   1.831   0.780   3.038 -0.1309 -0.3328  0.3073
  832SOL    HW1 2495   1.747   0.824   2.997  2.6359  0.5465 -1.1368
  832SOL    HW2 2496   1.826   0.675   3.048  2.5546 -1.2906  0.7660
  833SOL     OW 2497   2.415   2.062   0.467  0.3267 -0.0798 -0.0253
  833SOL    HW1 2498   2.319   2.041   0.439 -1.6635  1.6312  1.3073
  833SOL    HW2 2499   2.467   1.966   0.476  0.1124 -2.5961 -0.6939
  834SOL     OW 2500   0.141   0.105   0.537  0.4347 -0.0190  0.3079
  834SOL    HW1 2501   0.173   0.012   0.574  0.2080 -2.5977  1.8850
  834SOL    HW2 2502   0.126   0.105   0.434 -0.8811 -0.3125 -0.0257
  835SOL     OW 2503   2.404   1.516   1.156  0.2816  0.0766  0.0913
  835SOL    HW1 2504   2.474   1.515   1.233  0.3248  2.2964  3.3374
  835SOL    HW2 2505   2.441   1.497   1.062 -2.4393 -0.4053  0.6070
  836SOL     OW 2506   1.627   0.856   2.572 -0.1821 -0.4607 -0.1874
  836SOL    HW1 2507   1.533   0.806   2.585 -0.8603 -1.2311 -1.3805
  836SOL    HW2 2508   1.643   0.885   2.474 -2.0016 -0.7777 -0.1470
  837SOL     OW 2509   1.634   0.048   0.580  0.1575 -0.1084  0.5961
  837SOL    HW1 2510   1.576   0.102   0.650  0.0186 -0.4418 -0.1872
  837SOL    HW2 2511   1.608   0.071   0.483 -0.2878  0.0994 -0.2526
  838SOL     OW 2512   1.226   1.372   2.771 -0.1883 -0.3370 -0.5398
  838SOL    HW1 2513   1.210   1.460   2.828  1.9202  0.1236  1.2954
  838SOL    HW2 2514   1.147   1.346   2.709  0.1009  1.4474 -3.0405
  839SOL     OW 2515   1.613   0.337   1.011 -0.2389  0.7811  0.3363
  839SOL    HW1 2516   1.649   0.392   1.092 -2.5320 -0.3730  2.2644
  839SOL    HW2 2517   1.581   0.239   1.029 -0.5404 -0.7501  0.7547
  840SOL     OW 2518   2.557   2.912   1.783  0.5926  0.4432 -0.2107
  840SOL    HW1 2519   2.511   2.865   1.703  2.1744  1.0125  0.2757
  840SOL    HW2 2520   2.578   2.844   1.859 -3.7573  0.8539 -0.7446
  841SOL     OW 2521   1.567   0.872   2.968 -0.1967  0.1537 -0.1446
  841SOL    HW1 2522   1.572   0.866   3.070 -1.4602 -2.6584  0.5546
  841SOL    HW2 2523   1.538   0.966   2.933 -0.7457  0.2875 -0.1904
  842SOL     OW 2524   0.807   1.534   1.006 -0.2294  0.0612 -0.0756
  842SOL    HW1 2525   0.790   1.629   1.034 -0.9280  0.1603  0.5191
  842SOL    HW2 2526   0.761   1.514   0.916 -1.1468 -0.3266 -1.2374
  843SOL     OW 2527   0.128   0.115   1.466  0.0773  0.4747 -0.2507
  843SOL    HW1 2528   0.198   0.178   1.510 -1.6835 -0.8664 -0.8638
  843SOL    HW2 2529   0.168   0.026   1.438 -0.7808  1.3442 -0.5465
  844SOL     OW 2530   0.784   2.481   0.274 -0.1874 -0.2326 -0.5212
  844SOL    HW1 2531   0.741   2.483   0.368  2.7085  2.6914 -0.5202
  844SOL    HW2 2532   0.717   2.493   0.199  0.3586  0.4245 -0.7624
  845SOL     OW 2533   1.678   2.938   1.365  0.2181  0.3544  0.0813
  845SOL    HW1 2534   1.721   2.938   1.457  1.5337 -2.4818 -2.2776
  845SOL    HW2 2535   1.648   3.035   1.335 -0.5544 -0.0699  0.0052
  846SOL     OW 2536   1.692   2.959   0.909  0.4365 -0.1555  0.0911
  846SOL    HW1 2537   1.644   2.941   0.820 -1.9253 -1.6723  1.9666
  846SOL    HW2 2538   1.798   2.955   0.900  0.5524  0.8717 -0.0090
  847SOL     OW 2539   2.050   1.638   0.230  0.5337 -0.6611  0.0906
  847SOL    HW1 2540   1.997   1.600   0.313 -1.1708  1.4848 -2.1105
  847SOL    HW2 2541   1.988   1.642   0.148  0.5244 -0.2870 -3.1095
  848SOL     OW 2542   2.465   0.815   2.671 -0.0819  0.8278  0.0476
  848SOL    HW1 2543   2.466   0.916   2.665 -0.2541  0.2941  0.3924
  848SOL    HW2 2544   2.398   0.776   2.599  1.5369  2.1640  1.5110
  849SOL     OW 2545   2.448   0.853   2.298 -0.4280 -0.6250  0.1112
  849SOL    HW1 2546   2.514   0.817   2.224  1.7520  1.1950 -1.4204
  849SOL    HW2 2547   2.442   0.795   2.384  1.8087  0.9130 -0.1724
  850SOL     OW 2548   1.577   0.061   1.298  0.3759  0.2471 -0.9662
  850SOL    HW1 2549   1.561   0.097   1.200 -3.4065  1.4944 -1.4823
  850SOL    HW2 2550   1.485   0.017   1.333 -1.6002 -2.2236  0.9285
  851SOL     OW 2551   0.456   1.717   0.692  0.2163  0.4142 -0.3756
  851SOL    HW1 2552   0.494   1.813   0.681  3.5474 -0.8638  3.3955
  851SOL    HW2 2553   0.514   1.650   0.743 -3.8803 -0.5116 -1.8143
  852SOL     OW 2554   0.805   2.125   1.650  0.0549 -0.1277  0.1735
  852SOL    HW1 2555   0.802   2.224   1.628  1.4803  0.0676  2.1975
  852SOL    HW2 2556   0.754   2.099   1.738  0.3996  1.3866 -2.3212
  853SOL     OW 2557   2.519   1.563   2.603  0.4608 -0.1527 -0.4933
  853SOL    HW1 2558   2.463   1.485   2.571  3.4696  1.4677  1.0982
  853SOL    HW2 2559   2.513   1.649   2.544  0.2155  1.4295  0.3050
  854SOL     OW 2560   2.489   1.403   1.792 -0.6096  0.3588 -0.4905
  854SOL    HW1 2561   2.516   1.377   1.693  2.0918 -0.3462  0.7743
  854SOL    HW2 2562   2.492   1.318   1.855 -1.1342 -0.3579  0.6541
  855SOL     OW 2563   2.068   2.332   0.953  0.1949  0.3840 -0.7705
  855SOL    HW1 2564   2.122   2.402   0.901 -1.8885 -1.5020 -1.3173
  855SOL    HW2 2565   2.105   2.315   1.049 -0.6263 -1.2815 -1.4017
  856SOL     OW 2566   1.389   1.382   0.918  0.3705 -0.4351 -0.0846
  856SOL    HW1 2567   1.426   1.479   0.940  0.0761  0.7341  0.3891
  856SOL    HW2 2568   1.301   1.360   0.962 -0.1459  2.1760  3.1934
  857SOL     OW 2569   2.989   2.600   1.091 -0.5530  0.2283 -0.1748
  857SOL    HW1 2570   2.895   2.552   1.075  0.2734  2.0367 -0.9601
  857SOL    HW2 2571   3.070   2.553   1.042 -0.2750 -1.6279 -1.2344
  858SOL     OW 2572   2.310   2.171   1.699 -0.1745 -0.0571  0.0851
  858SOL    HW1 2573   2.210   2.155   1.716  0.9818  2.2317 -0.7455
  858SOL    HW2 2574   2.352   2.081   1.665  2.1464 -0.2502 -0.3115
  859SOL     OW 2575   2.437   0.504   1.061  0.3229 -0.6036  0.1345
  859SOL    HW1 2576   2.503   0.536   0.987 -1.8472  3.7774 -0.5345
  859SOL    HW2 2577   2.477   0.419   1.119  1.6570 -0.8777 -0.5209
  860SOL     OW 2578   1.927   2.777   0.442  0.2337  0.0833  0.5545
  860SOL    HW1 2579   1.893   2.729   0.352  0.3546 -4.1605  0.1683
  860SOL    HW2 2580   1.985   2.860   0.433 -0.6590 -2.6187  0.6196
  861SOL     OW 2581   1.120   2.601   2.783 -0.0406  0.0277 -0.2158
  861SOL    HW1 2582   1.126   2.702   2.746 -0.9167  0.5681 -0.9098
  861SOL    HW2 2583   1.164   2.580   2.875  0.1363 -0.7373 -0.7301
  862SOL     OW 2584   2.902   2.499   1.613  0.3205  0.5189 -0.1653
  862SOL    HW1 2585   2.973   2.532   1.673  0.0878 -1.1693 -1.7848
  862SOL    HW2 2586   2.847   2.571   1.562  1.2553 -1.4279  3.3968
  863SOL     OW 2587   1.866   2.651   0.210  0.2550 -1.1820 -0.1106
  863SOL    HW1 2588   1.917   2.564   0.197  2.6239 -0.2795  1.6647
  863SOL    HW2 2589   1.764   2.636   0.236  0.0514  1.3049  0.0563
  864SOL     OW 2590   1.848   1.167   2.927 -0.9082  0.1404 -0.3806
  864SOL    HW1 2591   1.875   1.181   2.824  0.6798 -0.5769  0.0583
  864SOL    HW2 2592   1.928   1.162   2.991 -0.1392  3.0795 -0.1352
  865SOL     OW 2593   2.208   1.832   0.683  0.1924 -0.5832  0.1455
  865SOL    HW1 2594   2.253   1.833   0.778  1.5174 -3.5144  0.9182
  865SOL    HW2 2595   2.112   1.789   0.679 -2.9405 -3.0665  1.7519
  866SOL     OW 2596   2.932   2.906   0.978 -0.3632  0.2643  0.1614
  866SOL    HW1 2597   3.002   2.935   0.905  1.4294 -0.9053 -0.0412
  866SOL    HW2 2598   2.948   2.812   1.016 -0.4903 -0.9521 -0.0347
  867SOL     OW 2599   0.383   1.346   0.897  0.1339  0.0701 -0.4334
  867SOL    HW1 2600   0.398   1.262   0.838  0.2133 -1.5171 -1.1648
  867SOL    HW2 2601   0.302   1.402   0.872  2.7008  1.2390 -0.9892
  868SOL     OW 2602   0.784   1.924   2.030  0.4161 -0.1017 -0.1448
  868SOL    HW1 2603   0.746   1.871   2.113  0.5161  0.6197 -0.5011
  868SOL    HW2 2604   0.730   2.011   2.006 -1.7746  2.3276 -3.2078
  869SOL     OW 2605   2.486   1.928   1.596 -0.4631  0.3755 -0.5304
  869SOL    HW1 2606   2.568   1.991   1.580 -0.8649  0.1801 -0.0104
  869SOL    HW2 2607   2.491   1.838   1.542  0.0632 -0.0527 -0.2225
  870SOL     OW 2608   2.270   2.598   1.249 -0.2008  0.0004 -0.1046
  870SOL    HW1 2609   2.249   2.506   1.205 -2.0777 -1.5433 -0.7078
  870SOL    HW2 2610   2.232   2.613   1.339  1.8054  1.3283 -1.1783
  871SOL     OW 2611   2.992   2.093   0.570 -0.4083 -0.2464 -0.3232
  871SOL    HW1 2612   2.940   2.160   0.629  0.5781  2.4277  1.6302
  871SOL    HW2 2613   2.953   2.070   0.477  1.7084 -0.8323 -1.1733
  872SOL     OW 2614   2.136   0.480   1.700  0.0716  0.3383  0.0187
  872SOL    HW1 2615   2.090   0.481   1.795  0.5055 -1.1164  0.2451
  872SOL    HW2 2616   2.240   0.478   1.698  0.1215 -0.3569  0.7913
  873SOL     OW 2617   1.719   2.089   2.963 -0.2468 -0.1525 -0.4715
  873SOL    HW1 2618   1.696   2.172   3.023 -1.5853  0.5903  0.8626
  873SOL    HW2 2619   1.654   2.071   2.883  0.1185  0.2622 -0.3322
  874SOL     OW 2620   0.628   2.460   0.787  0.5796 -0.2736 -0.3737
  874SOL    HW1 2621   0.604   2.561   0.810 -0.2901 -0.5012  1.3341
  874SOL    HW2 2622   0.728   2.445   0.791  1.3593 -0.1438  0.4424
  875SOL     OW 2623   2.261   1.491   1.442 -0.6140  0.8602  0.3398
  875SOL    HW1 2624   2.353   1.526   1.465 -0.2892  0.5051  0.3848
  875SOL    HW2 2625   2.222   1.547   1.359  0.8704  2.1681 -3.0981
  876SOL     OW 2626   0.119   2.238   2.698  0.4238 -0.4697 -0.8887
  876SOL    HW1 2627   0.159   2.161   2.754  0.7702  0.0216  1.6751
  876SOL    HW2 2628   0.139   2.335   2.739  2.0625 -1.7171  0.5554
  877SOL     OW 2629   2.797   2.675   0.647 -0.4276 -0.4341  0.7477
  877SOL    HW1 2630   2.821   2.774   0.668  0.5296  2.0056 -0.0820
  877SOL    HW2 2631   2.860   2.606   0.701 -0.0506  0.4415 -2.0144
  878SOL     OW 2632   2.863   1.517   2.218  0.2766 -1.1069  0.5363
  878SOL    HW1 2633   2.963   1.536   2.212  0.7515 -0.8592  0.6354
  878SOL    HW2 2634   2.815   1.559   2.298  2.0640 -1.1732  0.8964
  879SOL     OW 2635   2.391   0.040   1.161 -0.1735 -0.0522  0.3749
  879SOL    HW1 2636   2.445  -0.045   1.192 -1.8021  1.8599  0.2067
  879SOL    HW2 2637   2.310   0.022   1.098  0.8959 -0.8012  1.7753
  880SOL     OW 2638   0.703   0.469   2.209  0.0994  0.2829  0.3262
  880SOL    HW1 2639   0.625   0.410   2.233  0.6316  2.8122 -0.8078
  880SOL    HW2 2640   0.755   0.436   2.130 -1.6537  0.8749  1.7844
  881SOL     OW 2641   0.905   0.052   0.473 -0.4994 -0.3866 -0.5897
  881SOL    HW1 2642   0.932  -0.047   0.487 -1.1342  1.7078  0.5499
  881SOL    HW2 2643   0.850   0.063   0.387 -0.2932  1.7815 -2.2942
  882SOL     OW 2644   2.688   1.616   1.672 -0.1377 -0.3304  0.3847
  882SOL    HW1 2645   2.782   1.595   1.623  0.8134  0.9906  0.5752
  882SOL    HW2 2646   2.696   1.682   1.749  0.3672 -0.1262  0.8153
  883SOL     OW 2647   0.937   0.587   0.938  0.1827  0.1841  0.0113
  883SOL    HW1 2648   0.969   0.671   0.986 -1.7471 -0.2872 -0.2246
  883SOL    HW2 2649   0.943   0.502   0.995  1.4751 -1.5534  1.8929
  884SOL     OW 2650   1.189   1.823   1.079 -0.1822  0.2525 -0.1301
  884SOL    HW1 2651   1.153   1.759   1.014  3.7473 -0.4507  2.7728
  884SOL    HW2 2652   1.162   1.922   1.059  1.8906  0.6121 -0.8264
  885SOL     OW 2653   2.311   1.848   2.288  0.0807  0.2373 -0.4495
  885SOL    HW1 2654   2.251   1.782   2.333  0.9138 -0.8602 -0.1023
  885SOL    HW2 2655   2.295   1.949   2.310  1.2381  1.0162  2.1844
  886SOL     OW 2656   2.640   0.463   1.779  0.3111  0.0799 -0.2081
  886SOL    HW1 2657   2.686   0.389   1.838  0.7278  0.0282 -1.3574
  886SOL    HW2 2658   2.702   0.529   1.729 -2.1693 -0.7317  0.7637
  887SOL     OW 2659   0.139   2.069   1.217 -0.2280 -0.0484  0.4880
  887SOL    HW1 2660   0.061   2.031   1.161 -0.6522 -0.8692 -3.0183
  887SOL    HW2 2661   0.143   2.172   1.217  0.8299 -0.6702 -0.7275
  888SOL     OW 2662   0.557   1.347   1.550 -0.2955 -0.2847 -0.3075
  888SOL    HW1 2663   0.609   1.377   1.464 -0.3335 -0.9111  1.9237
  888SOL    HW2 2664   0.523   1.250   1.539  2.8850 -0.5322 -1.9492
  889SOL     OW 2665   0.819   2.496   2.163  0.2678 -0.5861  0.0178
  889SOL    HW1 2666   0.766   2.410   2.171 -2.1727 -1.1325 -0.0093
  889SOL    HW2 2667   0.894   2.495   2.092  3.0186  2.5834 -0.9749
  890SOL     OW 2668   2.361   2.465   0.191  0.3082 -0.1701  0.3049
  890SOL    HW1 2669   2.349   2.530   0.113 -2.5607 -0.9000 -1.4984
  890SOL    HW2 2670   2.293   2.482   0.267 -1.0212 -0.5983 -0.2095
  891SOL     OW 2671   2.650   1.538   0.690 -0.2278 -0.4676 -0.7625
  891SOL    HW1 2672   2.707   1.514   0.773  0.2807 -3.2739 -1.1821
  891SOL    HW2 2673   2.551   1.524   0.694  0.3046 -0.4391  1.0059
  892SOL     OW 2674   0.287   0.220   2.183 -0.4875 -0.2274  0.6081
  892SOL    HW1 2675   0.302   0.251   2.082 -1.8028 -0.2020 -0.6819
  892SOL    HW2 2676   0.365   0.248   2.248 -1.6919  2.5087  0.0037
  893SOL     OW 2677   1.635   0.233   2.777  0.2118  0.2979  0.1126
  893SOL    HW1 2678   1.725   0.284   2.768  1.2485 -0.9558  0.2478
  893SOL    HW2 2679   1.556   0.293   2.746 -1.1625  0.2951 -0.4813
  894SOL     OW 2680   2.269   2.023   0.028 -0.0094  0.1563  0.4044
  894SOL    HW1 2681   2.230   1.974  -0.053 -2.5128 -1.0321 -0.3919
  894SOL    HW2 2682   2.285   1.958   0.107 -1.6891 -0.9065 -2.7042
  895SOL     OW 2683   2.858   1.451   0.864 -0.1661 -0.2891  0.2057
  895SOL    HW1 2684   2.894   1.403   0.944 -1.3675 -0.0850  0.1154
  895SOL    HW2 2685   2.933   1.487   0.800 -0.8951 -1.8721 -1.7155
  896SOL     OW 2686   1.794   1.794   1.152 -0.4286 -0.1527 -0.2864
  896SOL    HW1 2687   1.854   1.818   1.072 -0.8992 -0.7224  0.0156
  896SOL    HW2 2688   1.703   1.838   1.153 -0.7801  0.2938  1.9318
  897SOL     OW 2689   0.269   0.548   3.038  0.1585  0.3877 -0.2115
  897SOL    HW1 2690   0.214   0.627   2.999  0.1855  1.8385 -0.5099
  897SOL    HW2 2691   0.363   0.562   3.075 -1.4150 -2.3661  0.2411
  898SOL     OW 2692   0.599   2.828   1.107 -0.2244 -0.0571  0.1376
  898SOL    HW1 2693   0.550   2.907   1.154 -0.6897  0.2836 -0.2464
  898SOL    HW2 2694   0.698   2.823   1.144  2.4798  0.2873  0.1965
  899SOL     OW 2695   2.738   0.915   1.228  0.5243  0.4625  0.3299
  899SOL    HW1 2696   2.659   0.869   1.171  0.2323  1.1297 -0.0391
  899SOL    HW2 2697   2.824   0.940   1.173 -1.5675  1.3064 -0.5476
  900SOL     OW 2698   0.980   2.583   2.361 -0.4319 -0.3660 -0.0782
  900SOL    HW1 2699   0.923   2.549   2.283  0.4502  0.5453  2.5937
  900SOL    HW2 2700   0.941   2.559   2.455  1.8936 -1.5836  1.0650
  901SOL     OW 2701   1.884   2.368   1.378  0.5153  0.4870  0.2815
  901SOL    HW1 2702   1.870   2.385   1.279 -1.7614 -0.3441 -0.0689
  901SOL    HW2 2703   1.969   2.316   1.390  0.7446  1.1767 -0.3406
  902SOL     OW 2704   2.575   1.657   1.430  0.5708 -0.2599 -0.2850
  902SOL    HW1 2705   2.601   1.640   1.528  0.9613  0.3294 -1.8924
  902SOL    HW2 2706   2.658   1.634   1.372  0.9153  0.2637  1.0749
  903SOL     OW 2707   0.239   2.468   1.996  0.4075  0.0334 -0.1235
  903SOL    HW1 2708   0.167   2.401   1.967 -0.1168  2.3521  0.7245
  903SOL    HW2 2709   0.252   2.551   1.930  0.7168 -1.9105  0.0765
  904SOL     OW 2710   2.027   0.715   2.383 -0.8369  0.7111 -0.6203
  904SOL    HW1 2711   1.975   0.700   2.474  0.6228 -2.3451  1.5245
  904SOL    HW2 2712   1.971   0.699   2.297  0.3028 -1.1042  1.0505
  905SOL     OW 2713   2.814   0.076   2.594 -0.0091 -0.0879 -0.0327
  905SOL    HW1 2714   2.885   0.000   2.580 -0.2956  0.0568 -4.0828
  905SOL    HW2 2715   2.839   0.158   2.536 -0.1162  1.5871 -0.5148
  906SOL     OW 2716   0.148   1.761   1.879  0.2744 -0.4821 -0.0940
  906SOL    HW1 2717   0.093   1.742   1.793 -0.7484  0.0420 -1.4411
  906SOL    HW2 2718   0.249   1.781   1.863  0.6967  0.6731  0.4993
  907SOL     OW 2719   0.134   2.483   1.010  0.3996 -0.0208 -0.3945
  907SOL    HW1 2720   0.210   2.551   1.026  0.4839 -3.9388  0.4032
  907SOL    HW2 2721   0.143   2.425   0.923  2.7902  1.7185  1.8363
  908SOL     OW 2722   2.706   2.955   0.442  0.1387  0.4023  0.7533
  908SOL    HW1 2723   2.689   2.993   0.344  0.4993 -0.5719 -2.1257
  908SOL    HW2 2724   2.722   2.854   0.450  0.1860  0.5704 -1.1893
  909SOL     OW 2725   0.787   0.957   2.695 -0.0947 -0.4872 -0.1008
  909SOL    HW1 2726   0.703   0.919   2.648  0.3512 -0.2028  0.5393
  909SOL    HW2 2727   0.862   0.977   2.626 -1.0543  1.5207  0.6638
  910SOL     OW 2728   1.755   1.844   2.107  0.1729 -0.3549 -0.3195
  910SOL    HW1 2729   1.818   1.882   2.031  0.5132  0.0595 -1.5736
  910SOL    HW2 2730   1.670   1.906   2.129 -1.6230  0.5231 -1.5578
  911SOL     OW 2731   1.807   2.949   1.620 -0.5705  0.3603  0.1279
  911SOL    HW1 2732   1.902   2.918   1.597 -3.2611  0.0542 -1.0662
  911SOL    HW2 2733   1.775   2.911   1.710  0.0365  2.5906  1.9850
  912SOL     OW 2734   2.896   0.969   0.761 -0.2222 -0.1229  0.4830
  912SOL    HW1 2735   2.908   0.936   0.859  0.5320  1.6570  0.0187
  912SOL    HW2 2736   2.849   1.062   0.760 -1.9251 -0.6841  0.2846
  913SOL     OW 2737   2.574   1.273   1.562 -0.0800 -0.0375  0.1193
  913SOL    HW1 2738   2.570   1.173   1.553  0.3475  0.1879  0.0747
  913SOL    HW2 2739   2.613   1.318   1.474 -0.9645 -0.9911 -0.1961
  914SOL     OW 2740   2.800   0.523   1.186 -0.0459  0.1587  0.3822
  914SOL    HW1 2741   2.814   0.429   1.218  0.6936  0.3460 -1.2157
  914SOL    HW2 2742   2.765   0.581   1.264 -2.9071 -0.8146 -3.1624
  915SOL     OW 2743   1.256   0.792   1.006  0.0780  0.4626 -0.3286
  915SOL    HW1 2744   1.333   0.828   1.068 -1.0562  0.2227 -0.5686
  915SOL    HW2 2745   1.157   0.813   1.035 -0.8553 -2.7618 -1.6657
  916SOL     OW 2746   0.602   0.030   0.672  0.2054 -0.3331  0.1755
  916SOL    HW1 2747   0.626   0.100   0.747 -0.8096  0.1032 -0.8362
  916SOL    HW2 2748   0.612   0.074   0.579 -3.7678 -1.2928  0.9318
  917SOL     OW 2749   2.812   2.606   1.983 -0.1221 -0.2912  0.3272
  917SOL    HW1 2750   2.712   2.619   1.984  0.7489  0.4831  1.4265
  917SOL    HW2 2751   2.856   2.677   1.922  0.1378 -1.1898 -2.9277
  918SOL     OW 2752   1.038   2.216   3.007 -0.0785 -0.0981  0.2086
  918SOL    HW1 2753   0.986   2.218   3.096  0.0879  1.1717 -0.3751
  918SOL    HW2 2754   1.062   2.120   2.972 -0.9192  0.8685 -2.5233
  919SOL     OW 2755   0.895   1.607   2.817  0.2609 -0.0605 -0.2212
  919SOL    HW1 2756   0.935   1.695   2.783  0.4961 -1.5468 -0.5583
  919SOL    HW2 2757   0.869   1.544   2.739  0.7933  0.3341  0.8661
  920SOL     OW 2758   1.271   1.971   2.473  0.5214  0.1538  0.2756
  920SOL    HW1 2759   1.247   1.986   2.373 -1.3284  1.1728  0.6714
  920SOL    HW2 2760   1.273   1.867   2.495  0.8620  1.1827 -2.3699
  921SOL     OW 2761   1.107   0.061   2.604 -0.2355  0.2572 -0.2981
  921SOL    HW1 2762   1.097   0.061   2.499  0.4003  1.2176  1.4901
  921SOL    HW2 2763   1.015   0.045   2.646  0.5759  0.4784  0.0567
  922SOL     OW 2764   2.141   2.407   2.899  0.0586 -0.4136 -0.3486
  922SOL    HW1 2765   2.138   2.306   2.894 -2.7184  0.0921 -0.1969
  922SOL    HW2 2766   2.099   2.453   2.821  2.1833 -0.8949  0.8790
  923SOL     OW 2767   1.229   2.687   0.262  0.4499 -0.0914 -0.1699
  923SOL    HW1 2768   1.286   2.748   0.319 -0.2416 -0.1597  0.6373
  923SOL    HW2 2769   1.266   2.589   0.250  1.7861  0.9757 -1.3729
  924SOL     OW 2770   2.861   1.555   0.086  0.2505  0.2329  0.3176
  924SOL    HW1 2771   2.776   1.558   0.028  1.0395  2.0130  2.1949
  924SOL    HW2 2772   2.946   1.535   0.035 -1.0153  0.2229 -2.0193
  925SOL     OW 2773   3.100   2.924   1.520 -0.0731 -0.5255 -0.1231
  925SOL    HW1 2774   2.999   2.940   1.551  0.0988 -2.1724  2.3108
  925SOL    HW2 2775   3.105   2.857   1.441 -2.5561 -1.9660  1.3289
  926SOL     OW 2776   1.353   2.833   1.302 -0.0538 -0.0702  0.0633
  926SOL    HW1 2777   1.417   2.823   1.222 -0.0176 -0.2757 -1.2777
  926SOL    HW2 2778   1.362   2.921   1.356  0.9306 -0.4707  1.9614
  927SOL     OW 2779   0.293   2.649   1.796 -0.4353 -0.0987  0.2573
  927SOL    HW1 2780   0.274   2.574   1.724 -0.9763 -2.0794 -0.2214
  927SOL    HW2 2781   0.260   2.738   1.756  0.6187 -0.6179  0.4064
  928SOL     OW 2782   1.566   2.020   2.166  0.2758  0.0125 -0.6525
  928SOL    HW1 2783   1.601   2.121   2.138  0.8477  4.0946  0.1048
  928SOL    HW2 2784   1.468   2.009   2.131 -0.7570 -0.8224 -1.9053
  929SOL     OW 2785   2.427   2.475   2.865 -0.2964  0.3719 -0.1794
  929SOL    HW1 2786   2.329   2.442   2.870  0.4843  0.0410 -2.3488
  929SOL    HW2 2787   2.470   2.463   2.774  1.5180  1.7130 -1.0628
  930SOL     OW 2788   2.180   1.989   1.065 -0.5412  0.4321  0.0730
  930SOL    HW1 2789   2.172   1.947   1.164  1.7714 -1.2783 -0.7276
  930SOL    HW2 2790   2.251   2.064   1.053  1.3200 -1.4765 -0.6081
  931SOL     OW 2791   0.538   1.706   2.695  0.2272 -0.0695 -0.0603
  931SOL    HW1 2792   0.575   1.760   2.780 -0.6586  2.5505 -2.3416
  931SOL    HW2 2793   0.605   1.629   2.660 -0.6907  0.4219 -0.8092
  932SOL     OW 2794   0.437   0.036   2.912  0.2012  0.2345 -0.2322
  932SOL    HW1 2795   0.529   0.065   2.886 -0.0678 -1.3466  1.2957
  932SOL    HW2 2796   0.436  -0.050   2.977  2.9924 -2.7239  1.1579
  933SOL     OW 2797   1.067   0.733   3.005  0.0842  0.5958 -0.5500
  933SOL    HW1 2798   1.148   0.741   3.068 -0.3346  2.7184 -1.0784
  933SOL    HW2 2799   1.028   0.823   2.974 -2.2976 -0.5717 -1.6982
  934SOL     OW 2800   0.885   2.995   2.680  0.3100  0.3461  0.6005
  934SOL    HW1 2801   0.884   2.910   2.626  0.1150  2.1088  1.3990
  934SOL    HW2 2802   0.911   2.975   2.780 -1.0962  2.6330 -0.2952
  935SOL     OW 2803   3.092   0.555   0.811  0.2474  0.0231 -0.1325
  935SOL    HW1 2804   3.097   0.493   0.729  1.9092 -1.5224 -0.4611
  935SOL    HW2 2805   3.003   0.612   0.824  0.1779 -0.1887 -1.5165
  936SOL     OW 2806   1.112   2.916   0.141  0.3014 -0.1259  0.2428
  936SOL    HW1 2807   1.162   2.919   0.049  0.9360 -1.9542  1.2820
  936SOL    HW2 2808   1.156   2.850   0.199 -0.4672  1.5169 -1.1041
  937SOL     OW 2809   1.934   2.659   2.095 -0.6353 -0.3310  0.2164
  937SOL    HW1 2810   1.839   2.692   2.113  1.0705 -0.7004  3.5134
  937SOL    HW2 2811   1.948   2.650   1.989 -0.5196 -2.6065 -0.7157
  938SOL     OW 2812   2.715   2.073   1.551  0.1331  0.2785  1.1853
  938SOL    HW1 2813   2.715   2.174   1.554 -0.1246  0.4454 -0.3625
  938SOL    HW2 2814   2.801   2.027   1.589  2.5189  1.8436  1.1332
  939SOL     OW 2815   2.862   1.227   2.466  0.1504  0.2861  0.1603
  939SOL    HW1 2816   2.894   1.196   2.372  0.5197 -0.0894  1.3496
  939SOL    HW2 2817   2.895   1.162   2.538 -1.1218  0.0629 -1.3811
  940SOL     OW 2818   0.990   0.452   2.695  0.3210  0.0575  0.0810
  940SOL    HW1 2819   1.041   0.360   2.712 -1.3600 -1.9819  1.7180
  940SOL    HW2 2820   0.890   0.421   2.682 -1.0055  0.0428  1.2418
  941SOL     OW 2821   0.058   2.838   2.205 -0.3304  0.2409  0.0333
  941SOL    HW1 2822   0.069   2.737   2.215 -0.5225  4.7504 -1.8000
  941SOL    HW2 2823   0.115   2.900   2.262 -0.1786  1.4080  0.0446
  942SOL     OW 2824   0.047   0.128   2.523 -0.5413  0.0259  0.4564
  942SOL    HW1 2825   0.095   0.177   2.602  1.1531 -2.0701 -0.5951
  942SOL    HW2 2826   0.037   0.190   2.437  1.9723  2.3038  0.5892
  943SOL     OW 2827   2.135   1.646   2.385 -0.6353 -0.1844  1.2268
  943SOL    HW1 2828   2.113   1.594   2.301  2.7316  2.2360  1.7210
  943SOL    HW2 2829   2.098   1.600   2.471  2.0774  0.4202 -0.6901
  944SOL     OW 2830   2.164   2.322   1.454  0.4248 -0.2540  0.3266
  944SOL    HW1 2831   2.226   2.391   1.503 -0.1892 -0.4016 -0.0126
  944SOL    HW2 2832   2.122   2.259   1.527 -1.0162 -0.7948 -0.2292
  945SOL     OW 2833   0.649   1.509   0.334 -0.0682 -0.0010  1.1491
  945SOL    HW1 2834   0.719   1.540   0.260 -0.3161 -1.7394  1.8024
  945SOL    HW2 2835   0.650   1.403   0.344 -0.4454  0.4377 -1.3541
  946SOL     OW 2836   0.433   0.935   2.541  0.4868  0.0835  0.3315
  946SOL    HW1 2837   0.347   0.906   2.486  1.1827 -0.4490 -0.1745
  946SOL    HW2 2838   0.408   1.018   2.600 -2.8853  2.2659  0.3135
  947SOL     OW 2839   1.544   0.560   0.067 -0.3565  0.3558 -0.6468
  947SOL    HW1 2840   1.504   0.575  -0.024  0.2430 -2.5527  1.3765
  947SOL    HW2 2841   1.470   0.556   0.145  0.1149  3.2962  0.4765
  948SOL     OW 2842   2.021   3.064   2.174  0.3836 -0.3843 -0.3337
  948SOL    HW1 2843   2.024   3.036   2.075 -2.1323  0.4407  0.0369
  948SOL    HW2 2844   1.974   2.995   2.240 -0.2684  0.9842  3.6065
  949SOL     OW 2845   0.652   2.509   0.514  0.3753  0.4574 -0.5863
  949SOL    HW1 2846   0.615   2.603   0.507  0.5414  0.7435 -1.4603
  949SOL    HW2 2847   0.643   2.467   0.606  1.2145 -3.5744 -0.6067
  950SOL     OW 2848   0.221   2.150   3.054 -0.2019 -0.1832 -0.1522
  950SOL    HW1 2849   0.133   2.206   3.056  0.5695 -0.8706  1.0405
  950SOL    HW2 2850   0.219   2.087   2.969  3.1822  1.4349 -0.7761
  951SOL     OW 2851   1.192   2.848   2.672  0.2744  0.2665  0.4432
  951SOL    HW1 2852   1.180   2.923   2.604  0.7404  2.8765  0.7716
  951SOL    HW2 2853   1.258   2.871   2.751  0.1340  1.3760  2.7132
  952SOL     OW 2854   0.112   1.638   0.440  0.0199 -0.3290 -0.0316
  952SOL    HW1 2855   0.147   1.735   0.444  0.5417  3.2791 -1.1576
  952SOL    HW2 2856   0.130   1.568   0.515 -2.6055  0.1009 -1.0896
  953SOL     OW 2857   2.483   1.774   0.187 -0.1764  0.8067 -0.9301
  953SOL    HW1 2858   2.507   1.679   0.228  0.7139  0.3353  3.4840
  953SOL    HW2 2859   2.539   1.792   0.101  0.8382 -3.7916  2.0223
  954SOL     OW 2860   2.183   0.530   0.980 -0.1375 -0.1131  0.5096
  954SOL    HW1 2861   2.188   0.565   0.882 -1.7702  0.2066 -1.6724
  954SOL    HW2 2862   2.279   0.500   1.017 -0.8918  0.0457  0.2715
  955SOL     OW 2863   0.244   2.646   1.367  0.1577  0.2050  0.6456
  955SOL    HW1 2864   0.145   2.683   1.375  1.3640  0.2894  1.7312
  955SOL    HW2 2865   0.281   2.658   1.270  1.4903  2.2765 -1.3519
  956SOL     OW 2866   2.777   2.442   2.430 -0.0198 -0.4978 -0.0954
  956SOL    HW1 2867   2.800   2.346   2.420  0.2441  0.6674  0.1747
  956SOL    HW2 2868   2.841   2.504   2.367 -0.4613  1.6091 -3.6112
  957SOL     OW 2869   1.535   2.034   2.745  0.0063 -0.1534  0.3635
  957SOL    HW1 2870   1.511   1.933   2.743  0.8984  2.8387  0.6691
  957SOL    HW2 2871   1.553   2.066   2.650 -0.3157  1.1331  2.5124
  958SOL     OW 2872   2.709   2.323   2.953  0.8112 -0.6005 -0.1509
  958SOL    HW1 2873   2.627   2.382   2.927  1.6755 -0.5828  0.2720
  958SOL    HW2 2874   2.714   2.293   3.051 -0.3140  0.0474 -2.2188
  959SOL     OW 2875   0.257   2.757   0.110 -0.1306 -0.0768  0.5147
  959SOL    HW1 2876   0.160   2.744   0.074 -1.4311 -2.8318  0.4658
  959SOL    HW2 2877   0.277   2.693   0.184 -0.0368  1.3692 -0.5262
  960SOL     OW 2878   1.993   0.424   1.924  0.1770 -0.3570  0.3535
  960SOL    HW1 2879   1.931   0.504   1.893  0.3076  1.4525 -0.3119
  960SOL    HW2 2880   2.013   0.417   2.026 -1.0148 -0.0293 -1.8383
  961SOL     OW 2881   2.549   1.842   1.025 -0.0347 -0.3875  0.1053
  961SOL    HW1 2882   2.540   1.933   0.979 -1.1426 -0.7571  2.7412
  961SOL    HW2 2883   2.524   1.853   1.126 -0.7633 -1.2342 -0.4703
  962SOL     OW 2884   1.251   0.900   0.046  0.2366  0.2995  0.1875
  962SOL    HW1 2885   1.259   0.968  -0.032  0.0945  0.5952  1.4195
  962SOL    HW2 2886   1.274   0.944   0.138 -1.0887 -1.0202  0.0422
  963SOL     OW 2887   2.195   2.564   1.844 -0.1737  0.1294 -0.5897
  963SOL    HW1 2888   2.222   2.476   1.891  2.2569 -1.9289  0.0852
  963SOL    HW2 2889   2.211   2.649   1.900  0.4802 -0.9101  0.7960
  964SOL     OW 2890   2.407   0.398   1.662 -0.2147  0.3800  0.2582
  964SOL    HW1 2891   2.496   0.446   1.699  1.0404  0.9163  2.2536
  964SOL    HW2 2892   2.397   0.391   1.557  2.5574 -3.6230 -2.0844
  965SOL     OW 2893   2.583   3.094   0.208  0.4303 -0.1525  0.4246
  965SOL    HW1 2894   2.661   3.077   0.140 -2.3909  2.3006  2.0580
  965SOL    HW2 2895   2.493   3.048   0.183 -1.2863  1.8776  2.0366
  966SOL     OW 2896   2.464   2.467   2.243 -0.1480 -0.2058  0.6081
  966SOL    HW1 2897   2.385   2.496   2.303  1.2387 -1.5894 -0.0063
  966SOL    HW2 2898   2.508   2.545   2.197  1.0005  1.0111  2.2131
  967SOL     OW 2899   2.802   2.816   2.429  0.1448 -0.6882 -0.3071
  967SOL    HW1 2900   2.814   2.731   2.375 -1.1200  1.7353 -1.4728
  967SOL    HW2 2901   2.893   2.866   2.444 -0.2667  0.9554  1.1888
  968SOL     OW 2902   1.933   1.091   2.661 -0.3383  0.4100  0.3442
  968SOL    HW1 2903   1.868   1.133   2.588  1.2811 -0.3172 -1.2321
  968SOL    HW2 2904   1.898   0.993   2.690 -0.8302 -2.6837 -0.3706
  969SOL     OW 2905   2.754   2.449   1.073 -0.1113  0.4802 -0.0703
  969SOL    HW1 2906   2.721   2.433   0.977 -3.4548  1.4824  1.2552
  969SOL    HW2 2907   2.810   2.371   1.114 -0.0924 -1.0124  1.5855
  970SOL     OW 2908   1.061   2.137   1.802 -0.2336  0.1550 -0.1040
  970SOL    HW1 2909   0.973   2.153   1.751  1.2600 -0.7028 -1.1074
  970SOL    HW2 2910   1.059   2.169   1.899  0.1156 -0.2526 -0.5610
  971SOL     OW 2911   2.822   2.096   1.876 -0.1974  0.0252 -0.3684
  971SOL    HW1 2912   2.839   2.196   1.900  0.0485 -0.9335 -2.5348
  971SOL    HW2 2913   2.888   2.066   1.797 -1.0557 -1.5237  0.1118
  972SOL     OW 2914   1.957   2.408   0.209  0.4588 -0.2157 -0.0713
  972SOL    HW1 2915   1.978   2.347   0.131  0.0936 -2.7000  0.0813
  972SOL    HW2 2916   1.978   2.359   0.297  0.4880 -0.8846  0.3921
  973SOL     OW 2917   1.317   1.067   1.908 -0.2848 -0.0898  0.7961
  973SOL    HW1 2918   1.249   1.032   1.841  1.6953  1.4309 -0.7265
  973SOL    HW2 2919   1.287   1.151   1.956 -0.5535  0.9237  0.7573
  974SOL     OW 2920   1.620   0.572   1.971  0.0419  0.3101 -0.0090
  974SOL    HW1 2921   1.711   0.588   1.926 -0.3037  2.8899 -0.1033
  974SOL    HW2 2922   1.553   0.647   1.954 -2.0050 -1.1355 -0.5621
  975SOL     OW 2923   2.374   3.012   0.028 -0.2934 -0.3243  0.4374
  975SOL    HW1 2924   2.306   2.938   0.048  0.1215  2.1213 -1.2905
  975SOL    HW2 2925   2.414   3.013  -0.071  0.4713  0.5232 -2.1297
  976SOL     OW 2926   1.917   2.895   2.363  0.4621  0.0462  0.4212
  976SOL    HW1 2927   1.840   2.859   2.300 -0.6865  0.7340 -1.8849
  976SOL    HW2 2928   1.936   2.838   2.446  1.3840  3.5281 -0.2601
  977SOL     OW 2929   0.456   0.679   1.011 -0.0580 -0.3852  0.6072
  977SOL    HW1 2930   0.371   0.675   0.956  1.4091 -2.7280 -0.8300
  977SOL    HW2 2931   0.538   0.649   0.953 -2.0155  1.1487  0.7601
   3.10000   3.10000   3.10000
