1000 SPC/Fw water molecules t=   1.62000 step= 1620
 2931
    1SOL     OW    1   2.454   0.395   2.658  0.1339  0.8455  0.3559
    1SOL    HW1    2   2.425   0.297   2.627  0.8960 -2.3723 -2.1930
    1SOL    HW2    3   2.540   0.402   2.717  0.4019 -0.5643 -2.4386
    2SOL     OW    4   2.732   2.982   1.376  0.0786 -0.1201 -0.0868
    2SOL    HW1    5   2.824   2.969   1.336 -3.5873  2.6323  1.2095
    2SOL    HW2    6   2.735   3.051   1.453 -0.6795 -0.8398  1.3566
    3SOL     OW    7   2.689   2.496   0.373  0.1776 -0.6458 -0.0216
    3SOL    HW1    8   2.598   2.445   0.388  0.5987 -1.0561  2.2752
    3SOL    HW2    9   2.716   2.552   0.458  2.6018 -0.8969  0.2326
    4SOL     OW   10   1.294   1.568   2.448  0.6201  0.4698  0.0354
    4SOL    HW1   11   1.236   1.558   2.360  0.1189 -0.6469  0.7340
    4SOL    HW2   12   1.257   1.522   2.533  3.8410  1.1270  0.0150
    5SOL     OW   13   1.122   1.540   3.008 -0.6427  0.2030  0.2991
    5SOL    HW1   14   1.186   1.612   3.043 -0.1458 -0.0906  0.8129
    5SOL    HW2   15   1.055   1.588   2.940 -0.7809 -0.8852 -2.6647
    6SOL     OW   16   0.269   1.834   3.063  0.2181 -0.2082  0.6109
    6SOL    HW1   17   0.175   1.851   3.094 -1.4253  1.9867  1.4511
    6SOL    HW2   18   0.309   1.766   3.129 -2.4640 -2.3745 -0.6334
    7SOL     OW   19   2.494   0.932   0.993  0.1767 -0.0278 -0.0321
    7SOL    HW1   20   2.400   0.897   1.024  0.5275  0.7919 -0.2754
    7SOL    HW2   21   2.512   0.903   0.897 -1.5287  0.8152  1.6577
    8SOL     OW   22   0.370   0.683   1.552  0.5384  0.3910 -0.5594
    8SOL    HW1   23   0.452   0.623   1.543  1.5548  1.2968  0.7559
    8SOL    HW2   24   0.346   0.735   1.465  0.3619  1.2245 -0.1641
    9SOL     OW   25   1.152   0.871   2.324 -0.1228  0.5365  0.0747
    9SOL    HW1   26   1.218   0.898   2.246  0.7387 -0.5162 -1.1025
    9SOL    HW2   27   1.126   0.768   2.320 -2.7865 -3.7139  2.0884
   10SOL     OW   28   0.723   1.417   1.243 -0.3090 -0.1099 -0.1059
   10SOL    HW1   29   0.634   1.402   1.188  2.7784  1.1094  1.7992
   10SOL    HW2   30   0.725   1.509   1.296  2.4859  2.0393  0.4904
   11SOL     OW   31   2.366   2.873   0.918 -0.3391  0.1991  0.1575
   11SOL    HW1   32   2.319   2.819   0.993 -3.2144 -0.0837  2.1526
   11SOL    HW2   33   2.464   2.896   0.939 -3.0144  0.1329  1.0388
   12SOL     OW   34   1.499   0.910   0.429  0.2557 -0.1952  0.7184
   12SOL    HW1   35   1.410   0.952   0.389 -2.1071 -3.5186 -0.9478
   12SOL    HW2   36   1.509   0.812   0.395  0.4163 -0.8362  0.2053
   13SOL     OW   37   2.471   0.739   1.800  0.5128  0.4555  0.3586
   13SOL    HW1   38   2.392   0.698   1.859 -1.7422 -2.1685  2.3458
   13SOL    HW2   39   2.477   0.703   1.701  2.6330  1.6377 -0.7851
   14SOL     OW   40   1.962   3.096   0.606 -0.1007  0.5143  0.3600
   14SOL    HW1   41   1.869   3.131   0.594  3.3862 -1.3069 -2.0229
   14SOL    HW2   42   1.972   3.054   0.703 -0.4555 -1.8022  0.3565
   15SOL     OW   43   1.904   2.077   2.666  0.4661  0.0207  0.2117
   15SOL    HW1   44   1.823   2.062   2.726  1.7385  0.9974  0.2896
   15SOL    HW2   45   1.905   2.020   2.578  0.9485  0.5683  1.8296
   16SOL     OW   46   1.634   1.722   3.036  0.1890 -0.3667  0.2562
   16SOL    HW1   47   1.618   1.625   3.065 -1.4425  0.0970  1.4172
   16SOL    HW2   48   1.724   1.760   3.061 -2.6778 -0.4014  0.7045
   17SOL     OW   49   0.124   0.457   0.174 -0.2408  0.2529  0.6719
   17SOL    HW1   50   0.212   0.487   0.127  0.5788  0.5940 -0.6628
   17SOL    HW2   51   0.048   0.464   0.108 -0.9011  1.1151 -1.7687
   18SOL     OW   52   0.906   2.925   2.138  0.3888 -0.6430  0.0786
   18SOL    HW1   53   0.857   2.840   2.172 -1.3817  0.6521 -1.2667
   18SOL    HW2   54   0.988   2.900   2.077  2.3930  2.1396 -2.8593
   19SOL     OW   55   0.613   0.890   1.930 -0.4580  0.6329 -0.1081
   19SOL    HW1   56   0.681   0.869   2.005 -1.4591 -1.0624  0.6460
   19SOL    HW2   57   0.644   0.963   1.862  0.7146 -3.0456 -0.7538
   20SOL     OW   58   0.188   2.840   0.828  0.3409 -0.2975 -0.6208
   20SOL    HW1   59   0.081   2.859   0.828 -2.6629 -0.4709 -2.2298
   20SOL    HW2   60   0.221   2.754   0.786  0.0151  2.6797 -1.0461
   21SOL     OW   61   2.703   0.314   2.042  0.3232 -0.2486  0.2616
   21SOL    HW1   62   2.687   0.248   1.963  1.7723 -0.3172  2.3763
   21SOL    HW2   63   2.804   0.309   2.073  1.2393 -1.9000  0.7053
   22SOL     OW   64   2.344   0.208   0.128  0.0536  0.1557  0.3292
   22SOL    HW1   65   2.388   0.135   0.060  0.4151 -0.9424  0.1875
   22SOL    HW2   66   2.275   0.274   0.084  0.4996  0.5224 -2.8607
   23SOL     OW   67   2.797   0.560   0.669  0.2189 -0.1323  0.1987
   23SOL    HW1   68   2.848   0.488   0.612  0.9230  0.1085  0.9331
   23SOL    HW2   69   2.796   0.648   0.616 -0.6284 -1.0321 -0.7671
   24SOL     OW   70   0.302   1.853   0.434  0.5865  0.4128  0.6498
   24SOL    HW1   71   0.279   1.937   0.379  1.0689 -2.0121  1.0975
   24SOL    HW2   72   0.398   1.824   0.427  1.6472 -0.2192 -1.2128
   25SOL     OW   73   2.300   0.605   0.181 -0.0151  0.0333 -0.0546
   25SOL    HW1   74   2.284   0.593   0.077 -0.2167 -0.5431 -0.8576
   25SOL    HW2   75   2.365   0.536   0.221 -0.6488 -1.0022 -2.6436
   26SOL     OW   76   2.443   2.131   2.100  0.2233 -0.3952 -0.1283
   26SOL    HW1   77   2.530   2.178   2.131  0.8124 -0.1428 -0.1542
   26SOL    HW2   78   2.455   2.060   2.027 -0.0124 -0.8828  0.3315
   27SOL     OW   79   0.612   2.958   0.183  0.0827  0.6228 -0.0962
   27SOL    HW1   80   0.701   3.001   0.151 -3.5162 -0.4079 -3.2965
   27SOL    HW2   81   0.545   2.961   0.101 -0.6099 -0.8845  0.3188
   28SOL     OW   82   1.578   0.145   0.292 -0.3542  0.0933  0.5532
   28SOL    HW1   83   1.618   0.081   0.225 -2.1299 -0.4779 -0.8377
   28SOL    HW2   84   1.617   0.244   0.292  0.0316 -0.7958 -1.6842
   29SOL     OW   85   2.010   0.616   0.290 -0.0579 -0.0004 -0.0149
   29SOL    HW1   86   2.013   0.662   0.382  2.3739 -1.7077 -1.0794
   29SOL    HW2   87   2.102   0.617   0.246  0.9815 -2.4879  1.5936
   30SOL     OW   88   0.189   2.090   0.933 -0.0668 -0.4871 -0.3924
   30SOL    HW1   89   0.239   2.024   0.873 -1.1790  0.1121 -0.8986
   30SOL    HW2   90   0.090   2.073   0.927  2.0590  1.0094  0.7428
   31SOL     OW   91   2.142   0.052   2.380 -0.1897 -0.1237  0.3492
   31SOL    HW1   92   2.114   0.014   2.473 -0.4479 -0.1620  1.5565
   31SOL    HW2   93   2.069   0.038   2.307 -0.4423  0.0699  1.0757
   32SOL     OW   94   3.080   3.056   0.292  0.5329 -0.0529 -0.5011
   32SOL    HW1   95   3.056   2.954   0.278 -0.9905 -0.8499 -0.5176
   32SOL    HW2   96   3.172   3.077   0.257 -0.0308  0.3235 -2.4905
   33SOL     OW   97   0.919   0.195   0.637  0.3337  0.0396  0.3782
   33SOL    HW1   98   0.912   0.135   0.551 -0.5911  2.2894  0.8833
   33SOL    HW2   99   0.997   0.259   0.640  0.5013 -0.0905  1.9842
   34SOL     OW  100   0.341   2.690   1.030  0.3595 -0.3517  0.4537
   34SOL    HW1  101   0.291   2.763   0.970 -2.0840 -0.7346 -2.0312
   34SOL    HW2  102   0.435   2.730   1.062 -0.0782  2.2656  1.2529
   35SOL     OW  103   0.044   0.129   1.919  0.0611  0.3653  0.3089
   35SOL    HW1  104   0.091   0.036   1.944 -1.5353  1.7829  0.8469
   35SOL    HW2  105  -0.010   0.133   1.828  0.5132 -0.6984 -0.2168
   36SOL     OW  106   1.933   1.152   1.518  0.5578 -0.3221  0.0199
   36SOL    HW1  107   2.026   1.108   1.533 -0.5731 -3.0231  0.2043
   36SOL    HW2  108   1.929   1.219   1.441 -1.1642 -3.0037  1.1419
   37SOL     OW  109   1.121   0.240   0.993 -0.1629 -0.0889 -0.2715
   37SOL    HW1  110   1.122   0.334   0.949  0.6130  0.9744 -0.3568
   37SOL    HW2  111   1.185   0.180   0.939 -1.5915  2.8794 -0.0206
   38SOL     OW  112   1.164   2.875   2.444  0.2199 -0.6945 -0.3981
   38SOL    HW1  113   1.090   2.815   2.492  0.2042 -1.4179  0.4992
   38SOL    HW2  114   1.117   2.960   2.413 -2.4901 -0.1146 -0.0469
   39SOL     OW  115   2.475   1.398   3.028 -0.0020  0.4129 -0.5949
   39SOL    HW1  116   2.549   1.326   3.053  1.0611  1.2315  2.2108
   39SOL    HW2  117   2.398   1.397   3.093 -1.7573  2.2874 -2.6153
   40SOL     OW  118   2.005   2.546   2.570  0.2964  0.2066 -0.4288
   40SOL    HW1  119   1.955   2.632   2.574  0.1375  1.5814 -0.6083
   40SOL    HW2  120   1.947   2.466   2.542 -2.0382  2.2395  0.4797
   41SOL     OW  121   3.038   0.766   2.807  0.0047 -0.0207 -0.3029
   41SOL    HW1  122   2.989   0.835   2.871  2.1913 -0.2176 -1.6859
   41SOL    HW2  123   2.970   0.717   2.750  2.2680 -1.2840 -2.6412
   42SOL     OW  124   1.792   1.710   0.542 -0.0900  0.0382 -0.6800
   42SOL    HW1  125   1.751   1.613   0.528  0.2598 -0.8742 -0.3807
   42SOL    HW2  126   1.825   1.758   0.456 -1.2026  3.0988  0.4978
   43SOL     OW  127   0.458   1.667   1.137  0.0979 -0.2139 -0.3706
   43SOL    HW1  128   0.487   1.567   1.150 -0.2267 -1.7059  0.5874
   43SOL    HW2  129   0.395   1.688   1.214  0.6287 -1.7798 -2.5264
   44SOL     OW  130   1.656   2.350   2.973  0.0267 -0.4253  0.3238
   44SOL    HW1  131   1.564   2.394   2.993 -0.7798 -2.1541 -0.0079
   44SOL    HW2  132   1.698   2.403   2.890  0.0477 -0.5242 -2.0495
   45SOL     OW  133   0.354   1.893   2.563  0.0905  0.2110  0.1805
   45SOL    HW1  134   0.294   1.885   2.474 -0.9789 -0.8651 -3.9116
   45SOL    HW2  135   0.427   1.816   2.566  1.9116 -0.1082  2.0575
   46SOL     OW  136   1.231   0.759   0.277  0.8132 -0.3533 -0.2486
   46SOL    HW1  137   1.233   0.827   0.202 -0.9636 -0.1512 -0.1176
   46SOL    HW2  138   1.199   0.670   0.248 -0.6271  2.1975  1.9122
   47SOL     OW  139   0.136   2.424   1.575 -0.5153  0.1244  0.0333
   47SOL    HW1  140   0.125   2.353   1.655 -1.3537 -0.3854  0.5065
   47SOL    HW2  141   0.159   2.378   1.482 -2.3989 -1.1580  0.9125
   48SOL     OW  142   2.658   0.681   0.131 -0.0184  0.1317 -0.3234
   48SOL    HW1  143   2.621   0.671   0.231  1.3310  1.3497  0.4336
   48SOL    HW2  144   2.765   0.666   0.119  0.5410  1.7017 -0.8322
   49SOL     OW  145   0.369   0.825   1.783 -0.1328 -0.5182 -0.3213
   49SOL    HW1  146   0.443   0.840   1.854  1.7424 -0.4987 -0.6059
   49SOL    HW2  147   0.395   0.761   1.707  0.0129  0.1464  0.1605
   50SOL     OW  148   1.745   1.111   0.304 -0.3310 -0.6184  0.2909
   50SOL    HW1  149   1.761   1.009   0.301 -0.3586 -1.5553 -0.3950
   50SOL    HW2  150   1.690   1.144   0.387 -0.4199 -1.0495  0.8952
   51SOL     OW  151   3.001   1.781   0.333 -0.7796  0.5119  0.4310
   51SOL    HW1  152   2.915   1.726   0.337  0.1544  0.2635  1.6095
   51SOL    HW2  153   3.072   1.731   0.392 -1.2430 -0.0807 -0.0442
   52SOL     OW  154   0.759   2.164   0.559 -0.3701  0.3774 -0.7888
   52SOL    HW1  155   0.675   2.220   0.547 -1.0763  1.3061 -1.0937
   52SOL    HW2  156   0.773   2.118   0.655 -1.3749  1.7215  0.8871
   53SOL     OW  157   0.268   0.400   1.493  0.3395 -0.5146 -0.6791
   53SOL    HW1  158   0.308   0.497   1.504 -1.3443  1.3664  1.3499
   53SOL    HW2  159   0.231   0.389   1.399  2.1241  1.3046 -1.4769
   54SOL     OW  160   1.738   0.447   0.006 -0.2278 -0.7231 -0.2976
   54SOL    HW1  161   1.802   0.398   0.080 -0.3758  0.2484  0.6753
   54SOL    HW2  162   1.635   0.446   0.025 -0.8577 -0.2383  0.4615
   55SOL     OW  163   0.722   2.928   0.604  0.1965  1.1738 -0.1947
   55SOL    HW1  164   0.669   3.016   0.605  0.8427  0.9753  0.9179
   55SOL    HW2  165   0.826   2.935   0.610  0.0789  2.8509  4.1985
   56SOL     OW  166   0.572   1.541   3.060  0.2666 -0.2402  0.5389
   56SOL    HW1  167   0.498   1.548   3.138 -0.4096  1.4508  1.0042
   56SOL    HW2  168   0.546   1.472   2.983  0.0390 -1.3839 -2.1310
   57SOL     OW  169   1.694   2.478   2.342 -0.9268 -0.2474  0.1174
   57SOL    HW1  170   1.784   2.429   2.358 -1.1599 -2.7737 -1.3215
   57SOL    HW2  171   1.632   2.474   2.424  2.0854  1.1030  0.2504
   58SOL     OW  172   0.674   0.237   1.083 -0.1073 -0.4035 -0.6032
   58SOL    HW1  173   0.587   0.251   1.140 -0.6806  1.9879  2.1685
   58SOL    HW2  174   0.703   0.138   1.098 -1.4203 -0.1615  1.5605
   59SOL     OW  175   0.448   2.394   2.701 -0.3605 -0.8389 -0.7038
   59SOL    HW1  176   0.459   2.293   2.717 -1.0515  3.0360 -0.7522
   59SOL    HW2  177   0.534   2.443   2.676  0.3510 -0.0234 -0.3041
   60SOL     OW  178   2.295   2.041   2.345 -0.4359 -0.0864 -0.5720
   60SOL    HW1  179   2.331   2.076   2.251 -2.3469  1.6453 -2.2966
   60SOL    HW2  180   2.349   2.086   2.423 -2.0346  1.6682 -0.2538
   61SOL     OW  181   1.184   0.636   0.510 -0.3764 -0.0792 -0.0400
   61SOL    HW1  182   1.096   0.680   0.546 -0.0601  2.3164 -0.1982
   61SOL    HW2  183   1.213   0.700   0.425  1.9683  1.7577 -3.1229
   62SOL     OW  184   2.765   1.730   2.707  0.2506  0.3737 -0.1741
   62SOL    HW1  185   2.698   1.664   2.666  2.2068 -1.9051 -1.3783
   62SOL    HW2  186   2.823   1.684   2.777 -0.3518  2.9403 -2.3857
   63SOL     OW  187   0.518   0.931   0.198  0.7618  0.5457  0.4582
   63SOL    HW1  188   0.549   0.981   0.113  0.2228 -0.5649 -0.0243
   63SOL    HW2  189   0.519   0.990   0.283  0.9050 -0.0137 -0.5028
   64SOL     OW  190   3.001   0.563   2.317 -0.0855 -0.0721  0.1683
   64SOL    HW1  191   2.922   0.599   2.376 -2.3730  2.5687  1.6884
   64SOL    HW2  192   3.014   0.608   2.223 -2.4035  1.5389 -0.5444
   65SOL     OW  193   0.232   1.441   0.741  0.1410  0.0176  0.0906
   65SOL    HW1  194   0.241   1.527   0.800 -2.5330 -0.4348 -2.0757
   65SOL    HW2  195   0.285   1.448   0.654  0.1261 -0.8617 -1.0372
   66SOL     OW  196   2.576   0.333   0.554 -0.4484  0.0767  0.3201
   66SOL    HW1  197   2.681   0.326   0.555 -0.1838  0.2675 -1.6391
   66SOL    HW2  198   2.535   0.293   0.635  2.2059  0.1487 -0.1733
   67SOL     OW  199   0.612   2.528   1.467 -0.1861  0.0667  0.5049
   67SOL    HW1  200   0.695   2.495   1.517 -1.5103  1.0289 -0.8632
   67SOL    HW2  201   0.529   2.465   1.472 -2.4146 -1.3061  0.2164
   68SOL     OW  202   0.903   0.985   2.431 -0.2175 -0.0741 -0.0181
   68SOL    HW1  203   0.994   0.951   2.400 -0.0697 -2.8171  0.9620
   68SOL    HW2  204   0.873   1.075   2.390 -2.3194 -3.4314 -1.4458
   69SOL     OW  205   0.801   2.696   2.334 -0.0958 -1.0899  0.2026
   69SOL    HW1  206   0.841   2.647   2.249  0.7412  0.9636 -1.4042
   69SOL    HW2  207   0.696   2.683   2.332 -1.6862 -0.7362 -0.8949
   70SOL     OW  208   0.445   0.144   2.532  0.0260  0.4357  0.2951
   70SOL    HW1  209   0.381   0.124   2.609  0.7796  0.9714  2.6044
   70SOL    HW2  210   0.522   0.080   2.529 -1.5352 -2.0472  1.5472
   71SOL     OW  211   1.071   1.776   0.334  0.2775 -0.2742 -0.2121
   71SOL    HW1  212   1.006   1.741   0.412  0.4411 -0.6789  0.3914
   71SOL    HW2  213   1.017   1.776   0.247 -0.0667  0.3902  2.6367
   72SOL     OW  214   1.856   0.250   2.162 -0.0326  0.5650  0.3456
   72SOL    HW1  215   1.917   0.328   2.130  1.1789  0.7675 -1.6217
   72SOL    HW2  216   1.905   0.153   2.163 -2.7610 -1.4063 -1.2750
   73SOL     OW  217   2.784   2.181   2.505 -0.0120  0.4973  0.1872
   73SOL    HW1  218   2.760   2.085   2.469  1.8045 -1.7725 -0.6815
   73SOL    HW2  219   2.825   2.178   2.601  0.3056 -2.1803  0.7167
   74SOL     OW  220   2.697   2.891   2.145 -0.2387  0.5171 -0.3461
   74SOL    HW1  221   2.620   2.868   2.206  1.2447 -0.7841  2.7874
   74SOL    HW2  222   2.769   2.944   2.194 -1.6717 -3.3947  0.4885
   75SOL     OW  223   0.965   0.810   1.144 -0.0028 -0.1506  0.6927
   75SOL    HW1  224   0.863   0.838   1.131 -0.4945  0.2905 -0.5464
   75SOL    HW2  225   1.012   0.849   1.229  1.6419 -1.2985  2.4698
   76SOL     OW  226   1.855   1.275   2.566  0.1576 -0.0923 -0.1529
   76SOL    HW1  227   1.761   1.270   2.614 -2.3776 -0.7102  0.9468
   76SOL    HW2  228   1.902   1.366   2.586  0.4004  2.7352  0.0639
   77SOL     OW  229   2.908   0.962   1.045  0.0938  0.5159 -0.2090
   77SOL    HW1  230   2.865   0.866   1.042  0.9068  1.6311  3.9465
   77SOL    HW2  231   2.987   0.973   1.118  0.1183  1.3317 -0.4277
   78SOL     OW  232   2.004   1.360   1.334  0.0777  0.8747 -0.2359
   78SOL    HW1  233   2.083   1.404   1.282  0.7281  1.4726  0.7493
   78SOL    HW2  234   1.915   1.403   1.303 -0.9202  4.2897 -0.5429
   79SOL     OW  235   0.707   1.433   0.828  0.0746  0.6338  0.2793
   79SOL    HW1  236   0.606   1.396   0.819 -1.1489 -2.4101 -0.7128
   79SOL    HW2  237   0.777   1.358   0.829  1.8148 -0.1553 -0.9417
   80SOL     OW  238   0.573   0.453   1.557  0.1786 -0.5036  0.4630
   80SOL    HW1  239   0.610   0.520   1.489  0.8027  1.1719 -0.7352
   80SOL    HW2  240   0.626   0.366   1.571  0.2378 -2.4307  2.2231
   81SOL     OW  241   1.070   1.253   2.550  0.3969  0.1711 -0.5114
   81SOL    HW1  242   1.021   1.159   2.556 -1.2424 -0.9032  2.4621
   81SOL    HW2  243   1.001   1.329   2.573 -0.2764  0.4040 -0.3376
   82SOL     OW  244   0.917   2.884   1.519  0.1050  0.4916 -0.1919
   82SOL    HW1  245   0.961   2.816   1.457 -3.1545 -1.3904 -2.1989
   82SOL    HW2  246   0.890   2.967   1.463 -2.5113  0.4325 -1.0514
   83SOL     OW  247   2.610   2.335   0.889  0.5714  0.1797 -0.1849
   83SOL    HW1  248   2.531   2.286   0.837 -2.9051 -2.2016 -1.1888
   83SOL    HW2  249   2.599   2.436   0.877  1.3137 -2.1372 -1.4822
   84SOL     OW  250   0.767   0.044   2.280 -0.0300  0.4352 -0.1619
   84SOL    HW1  251   0.729  -0.003   2.363  1.0647 -1.7056 -0.9282
   84SOL    HW2  252   0.820  -0.019   2.213  2.4388  2.4242 -0.2393
   85SOL     OW  253   0.296   1.687   1.379 -0.0940 -0.1605 -0.2486
   85SOL    HW1  254   0.245   1.763   1.428  0.3244 -0.8517 -0.9673
   85SOL    HW2  255   0.339   1.619   1.453  0.1070 -2.7378 -0.4835
   86SOL     OW  256   0.395   1.042   1.498  0.0108  0.2660 -0.5020
   86SOL    HW1  257   0.368   0.967   1.436 -0.2255 -0.8919  0.6337
   86SOL    HW2  258   0.425   1.013   1.593  1.0429  2.7546  1.4654
   87SOL     OW  259   1.618   0.651   0.298  0.5688  0.5512 -0.4673
   87SOL    HW1  260   1.682   0.729   0.290  0.4488  1.0519  0.5988
   87SOL    HW2  261   1.585   0.607   0.215 -0.7334  1.5752  3.9875
   88SOL     OW  262   1.595   1.365   0.269 -0.0556 -0.6044  0.1100
   88SOL    HW1  263   1.666   1.297   0.245 -2.0465  1.4370  1.3091
   88SOL    HW2  264   1.500   1.333   0.240  0.5981  1.0397 -1.0258
   89SOL     OW  265   0.023   0.392   0.612  0.0519  0.4477  0.1424
   89SOL    HW1  266   0.082   0.310   0.604 -0.1305  3.5683  0.7766
   89SOL    HW2  267  -0.078   0.368   0.603 -0.4615 -0.0785  3.2101
   90SOL     OW  268   0.772   1.507   0.152  0.0845 -0.0521 -0.0358
   90SOL    HW1  269   0.856   1.448   0.154 -1.7890 -0.3326  0.8025
   90SOL    HW2  270   0.719   1.505   0.060 -1.9012 -0.0393 -0.0056
   91SOL     OW  271   1.244   1.485   1.767  0.9207  0.0376 -0.2968
   91SOL    HW1  272   1.208   1.558   1.833 -2.8071 -2.0474  1.3853
   91SOL    HW2  273   1.207   1.388   1.775  1.0687 -0.6533  1.4677
   92SOL     OW  274  -0.000   0.999   1.216  0.3809  0.3366  0.1984
   92SOL    HW1  275   0.068   1.069   1.179 -0.2605  0.2953 -1.0064
   92SOL    HW2  276   0.005   0.996   1.321 -3.0936  2.5621  1.5971
   93SOL     OW  277   0.011   2.692   0.082  0.4204  0.2642 -0.0750
   93SOL    HW1  278  -0.015   2.703  -0.015  0.6093 -0.7605 -0.4600
   93SOL    HW2  279   0.011   2.597   0.113 -0.0135 -0.2555  1.1019
   94SOL     OW  280   1.515   1.285   1.673 -0.0721 -0.0113 -0.0054
   94SOL    HW1  281   1.594   1.216   1.687 -0.0119 -1.9818  1.7008
   94SOL    HW2  282   1.521   1.371   1.728  1.8893 -0.7963 -1.7013
   95SOL     OW  283   1.331   2.472   2.915 -0.3091  0.0700  0.3221
   95SOL    HW1  284   1.258   2.464   2.991 -1.9970 -0.7852 -3.5620
   95SOL    HW2  285   1.332   2.387   2.856  0.3315 -2.5983  0.1626
   96SOL     OW  286   0.597   2.187   1.319  0.4060  0.0963  0.4633
   96SOL    HW1  287   0.536   2.165   1.236  0.7976  0.4807 -0.8389
   96SOL    HW2  288   0.591   2.112   1.391  1.0015  0.6484  0.6021
   97SOL     OW  289   0.252   1.611   2.435 -0.4882 -0.5368 -0.3021
   97SOL    HW1  290   0.201   1.698   2.402 -2.4086  1.8687 -2.9220
   97SOL    HW2  291   0.230   1.592   2.538  0.8633 -0.6876  0.7063
   98SOL     OW  292   2.167   1.669   1.216 -0.3002 -0.0307 -0.0528
   98SOL    HW1  293   2.116   1.724   1.149 -0.0212 -0.2343 -0.9558
   98SOL    HW2  294   2.262   1.632   1.193  0.2360 -0.0410  3.3945
   99SOL     OW  295   2.645   2.071   1.244  0.8745 -0.4189  0.1059
   99SOL    HW1  296   2.718   2.091   1.315 -1.7048 -3.1649 -0.2968
   99SOL    HW2  297   2.565   2.012   1.278 -1.1455  0.9629  1.4619
  100SOL     OW  298   2.329   0.366   2.121  0.1744  0.1267  0.5367
  100SOL    HW1  299   2.271   0.347   2.204  1.4345  0.3552  0.4680
  100SOL    HW2  300   2.419   0.406   2.150  0.4546  1.8681  1.1902
  101SOL     OW  301   0.366   1.523   0.510 -0.3772 -0.3425 -0.6940
  101SOL    HW1  302   0.396   1.616   0.534 -0.4921 -2.5154  0.8474
  101SOL    HW2  303   0.426   1.489   0.436 -2.1831  0.3653  1.8917
  102SOL     OW  304   2.238   1.069   0.822 -0.0701  0.1402 -0.0698
  102SOL    HW1  305   2.221   0.965   0.833  0.0771 -3.2298  1.6348
  102SOL    HW2  306   2.310   1.091   0.750 -2.9052 -0.4715  0.5790
  103SOL     OW  307   2.281   0.060   0.353  0.3623  0.4096  0.3781
  103SOL    HW1  308   2.293   0.120   0.268 -0.5568  1.7741  0.2301
  103SOL    HW2  309   2.363   0.051   0.414  0.7233  2.6812 -2.4238
  104SOL     OW  310   3.078   1.793   2.216 -0.0168 -0.0843  0.0010
  104SOL    HW1  311   3.135   1.738   2.148  0.5242 -2.3115  2.5553
  104SOL    HW2  312   2.978   1.810   2.187 -3.6301  1.4515  1.5300
  105SOL     OW  313   1.386   2.111   0.766 -0.4686 -0.0474  0.3135
  105SOL    HW1  314   1.358   2.147   0.676 -0.2391 -1.3187  0.8403
  105SOL    HW2  315   1.398   2.007   0.773 -0.2967 -0.0681 -0.9291
  106SOL     OW  316   2.153   0.407   1.412  0.0438  0.0794  0.1178
  106SOL    HW1  317   2.086   0.326   1.417  0.8800  1.8221 -1.8535
  106SOL    HW2  318   2.148   0.453   1.507  0.5113 -1.2507 -0.5628
  107SOL     OW  319   1.935   2.892   1.189 -0.5187 -0.3397 -0.2912
  107SOL    HW1  320   1.867   2.948   1.238 -0.0790 -2.4032 -0.0899
  107SOL    HW2  321   1.892   2.821   1.127 -1.9047  0.3750 -2.3648
  108SOL     OW  322   0.825   2.813   1.191 -0.1438 -0.0868 -0.2259
  108SOL    HW1  323   0.826   2.716   1.152  2.8420  1.0583 -1.4512
  108SOL    HW2  324   0.922   2.844   1.217 -0.4117  1.5431 -0.1640
  109SOL     OW  325   2.139   0.207   0.719  0.4033 -0.4250 -0.1548
  109SOL    HW1  326   2.069   0.137   0.688  1.0557 -0.1655  1.5545
  109SOL    HW2  327   2.122   0.243   0.816  2.0501 -1.7402  0.7629
  110SOL     OW  328   0.512   2.761   2.769  0.6674  0.1101 -0.7376
  110SOL    HW1  329   0.510   2.784   2.666 -2.2511 -0.3081 -1.1659
  110SOL    HW2  330   0.595   2.712   2.792 -1.9166 -1.1107 -1.0627
  111SOL     OW  331   1.300   0.524   2.286 -0.3792  0.3911 -0.1377
  111SOL    HW1  332   1.208   0.554   2.320  1.6698  0.2845  0.5999
  111SOL    HW2  333   1.348   0.446   2.336  2.2469 -1.4296  0.8464
  112SOL     OW  334   1.743   0.413   1.513  0.6088  0.3346  0.2704
  112SOL    HW1  335   1.713   0.473   1.433  2.1829 -0.2309  2.6011
  112SOL    HW2  336   1.664   0.407   1.579 -4.6425  0.5040 -1.0504
  113SOL     OW  337   2.376   1.734   1.785  0.3583 -0.6109 -0.1682
  113SOL    HW1  338   2.398   1.636   1.754 -0.4723 -0.8453 -0.7657
  113SOL    HW2  339   2.361   1.740   1.888 -1.9543  1.7441  1.5540
  114SOL     OW  340   0.319   0.427   1.155 -0.1654 -0.1010  0.2649
  114SOL    HW1  341   0.321   0.529   1.153 -3.2689 -3.8508 -0.9259
  114SOL    HW2  342   0.304   0.384   1.064  4.1835 -1.5471 -0.1612
  115SOL     OW  343   2.713   1.560   1.230  0.2917 -0.1428  0.4960
  115SOL    HW1  344   2.677   1.462   1.238  0.6730 -0.6704 -2.2831
  115SOL    HW2  345   2.813   1.559   1.208  1.7047 -1.7340  0.4780
  116SOL     OW  346   1.921   0.916   0.759 -0.2196 -0.8259 -0.2637
  116SOL    HW1  347   1.831   0.880   0.730  1.9333  0.8013  1.4296
  116SOL    HW2  348   1.928   1.019   0.760  0.7543 -2.7398  1.3866
  117SOL     OW  349   1.127   0.359   0.553  0.3424 -0.2825  0.4969
  117SOL    HW1  350   1.143   0.464   0.564  1.2088  1.9996  0.3622
  117SOL    HW2  351   1.091   0.329   0.462 -2.3125  2.5027 -2.7251
  118SOL     OW  352   1.128   1.218   1.072  0.0399  0.1354  0.3452
  118SOL    HW1  353   1.055   1.177   1.136 -0.3469  0.9565 -0.2127
  118SOL    HW2  354   1.136   1.317   1.084 -1.2013 -1.8486 -0.3571
  119SOL     OW  355   1.843   1.580   2.197  0.3888 -0.1013 -0.0067
  119SOL    HW1  356   1.806   1.643   2.121 -1.7171  0.6860  0.1567
  119SOL    HW2  357   1.941   1.557   2.186 -1.2598 -1.5610 -0.2242
  120SOL     OW  358   2.941   2.824   0.258  0.3952  0.1067 -0.0671
  120SOL    HW1  359   3.005   2.772   0.192  2.4625 -0.7118 -0.9562
  120SOL    HW2  360   2.844   2.833   0.228  0.6327  1.6038  2.4162
  121SOL     OW  361   2.004   0.791   2.312 -0.2854  0.7097  0.1493
  121SOL    HW1  362   2.058   0.848   2.247  0.6653  0.9123 -1.0147
  121SOL    HW2  363   2.042   0.694   2.316 -1.7688  0.9319  1.4060
  122SOL     OW  364   2.636   2.496   1.327 -0.0361  0.1911 -0.1399
  122SOL    HW1  365   2.691   2.433   1.265 -2.8798 -0.6453  2.2879
  122SOL    HW2  366   2.618   2.467   1.422 -1.3875  3.9417  1.0300
  123SOL     OW  367   1.669   0.130   1.717 -0.6298  0.1327 -0.4444
  123SOL    HW1  368   1.701   0.071   1.637  3.2757 -1.0916  0.6086
  123SOL    HW2  369   1.738   0.192   1.757 -0.5850 -0.7443 -1.0283
  124SOL     OW  370   3.065   0.387   1.116 -0.3284 -0.0685  0.0092
  124SOL    HW1  371   3.058   0.478   1.168  0.8942 -0.2368  2.4421
  124SOL    HW2  372   3.065   0.401   1.013  2.0879  0.7829  1.2132
  125SOL     OW  373   0.844   1.991   0.766  0.1973  0.4070 -0.3206
  125SOL    HW1  374   0.937   1.949   0.769 -1.3882  1.0192  1.7778
  125SOL    HW2  375   0.809   2.024   0.861 -0.0393  2.4950  3.4728
  126SOL     OW  376   1.896   2.320   2.478 -0.0641  0.2337 -0.5901
  126SOL    HW1  377   1.943   2.275   2.399  0.8358 -3.1135  2.2611
  126SOL    HW2  378   1.906   2.259   2.562  0.8496  0.3396 -1.0549
  127SOL     OW  379   0.895   0.976   0.203  0.1700 -0.1135  0.2533
  127SOL    HW1  380   0.944   0.992   0.290 -1.6995 -0.8564  0.7560
  127SOL    HW2  381   0.877   0.874   0.183  0.0073  0.1830 -0.2165
  128SOL     OW  382   0.949   0.245   1.429 -0.3632  0.2899 -0.2223
  128SOL    HW1  383   0.875   0.315   1.409 -4.2263  1.1488  1.3624
  128SOL    HW2  384   0.930   0.154   1.381  2.0859 -4.8484 -0.5863
  129SOL     OW  385   1.873   0.725   1.825 -0.1936 -0.1959 -0.5154
  129SOL    HW1  386   1.873   0.719   1.720  1.0499  1.1667 -2.1387
  129SOL    HW2  387   1.896   0.819   1.853 -0.7989 -2.6961  0.2387
  130SOL     OW  388   1.336   2.288   0.981  0.5722 -0.3307  0.2435
  130SOL    HW1  389   1.340   2.242   0.889 -0.0970 -0.8362  0.0425
  130SOL    HW2  390   1.418   2.353   0.994  1.4276  1.2109 -1.4074
  131SOL     OW  391   3.074   1.433   1.391 -0.1039  0.8010 -0.0476
  131SOL    HW1  392   3.001   1.364   1.415 -0.1925 -1.8250 -0.6715
  131SOL    HW2  393   3.166   1.395   1.358 -2.0105 -1.1645 -0.3460
  132SOL     OW  394   2.051   2.396   0.563  0.3888  0.3673  0.5151
  132SOL    HW1  395   1.950   2.396   0.545 -0.4957  0.8887 -0.7322
  132SOL    HW2  396   2.083   2.317   0.626  0.2506  0.5971 -1.7658
  133SOL     OW  397   1.729   2.491   2.752  0.6849  0.6682  0.4487
  133SOL    HW1  398   1.647   2.485   2.685 -1.2675 -1.0316 -2.0832
  133SOL    HW2  399   1.750   2.589   2.774  1.8892 -0.5019 -1.8594
  134SOL     OW  400   2.681   2.385   1.588 -0.2748  0.1107 -0.0919
  134SOL    HW1  401   2.640   2.367   1.682  3.2029  1.9594  1.4209
  134SOL    HW2  402   2.697   2.485   1.583 -1.3494 -0.3039 -0.7541
  135SOL     OW  403   0.801   1.453   2.671  0.2369 -0.5854 -0.5388
  135SOL    HW1  404   0.769   1.369   2.725  0.0475  1.4916  1.0576
  135SOL    HW2  405   0.779   1.455   2.572 -0.0989 -1.9345 -1.4574
  136SOL     OW  406   1.173   2.000   0.398 -0.0222 -0.3931  0.0496
  136SOL    HW1  407   1.105   2.071   0.440 -0.5049  0.3698  1.1500
  136SOL    HW2  408   1.123   1.913   0.364 -0.6722  2.0230 -1.1266
  137SOL     OW  409   0.419   1.216   2.309  0.0797 -0.0448  0.7930
  137SOL    HW1  410   0.322   1.201   2.340  2.4671  0.0414 -0.2271
  137SOL    HW2  411   0.465   1.126   2.288  0.3739 -1.0900  1.5284
  138SOL     OW  412   2.426   1.527   0.251  0.7112 -0.2114 -0.5955
  138SOL    HW1  413   2.348   1.477   0.206  0.7571 -0.3632 -0.9551
  138SOL    HW2  414   2.472   1.478   0.330 -2.7987  1.9853  0.1576
  139SOL     OW  415   1.890   2.664   1.580  0.1710  0.3855  0.8746
  139SOL    HW1  416   1.808   2.727   1.598 -1.2084 -0.3530 -0.8377
  139SOL    HW2  417   1.858   2.593   1.512 -1.6699  0.6235  0.7730
  140SOL     OW  418   2.952   2.951   2.571 -0.0545  0.0713 -0.2875
  140SOL    HW1  419   3.034   2.885   2.589  0.0532  0.6116 -1.7372
  140SOL    HW2  420   2.980   3.029   2.510  0.3219 -3.0698  0.1282
  141SOL     OW  421   1.301   1.659   1.521 -0.1282 -0.0086 -0.6972
  141SOL    HW1  422   1.215   1.723   1.533  0.0696  0.9752 -1.8862
  141SOL    HW2  423   1.291   1.578   1.584 -0.2742  1.1465 -0.1872
  142SOL     OW  424   1.540   0.678   2.244  0.8099  0.8064  0.3273
  142SOL    HW1  425   1.538   0.729   2.156  1.4165 -0.2243 -1.9883
  142SOL    HW2  426   1.452   0.634   2.270  1.1359 -0.1170 -1.5073
  143SOL     OW  427   2.756   0.823   0.562 -0.2511  0.0387 -0.2715
  143SOL    HW1  428   2.809   0.858   0.483  3.5763  0.4572  1.6706
  143SOL    HW2  429   2.782   0.880   0.644 -1.5665 -3.7219 -0.5742
  144SOL     OW  430   2.896   1.182   1.460 -0.3303 -1.0969  0.0372
  144SOL    HW1  431   2.861   1.163   1.558 -1.7883  1.1107 -0.1362
  144SOL    HW2  432   2.963   1.110   1.432  2.0924  1.7601  0.2819
  145SOL     OW  433   0.869   1.811   0.099  0.0530 -0.8521  0.0395
  145SOL    HW1  434   0.855   1.834  -0.001  1.1553 -0.1189 -2.1440
  145SOL    HW2  435   0.839   1.715   0.119 -0.7684 -0.4927 -0.4170
  146SOL     OW  436   2.467   0.658   1.522 -0.4731  0.2873 -0.5055
  146SOL    HW1  437   2.446   0.571   1.472 -1.4997 -0.2647 -0.1207
  146SOL    HW2  438   2.399   0.735   1.498 -1.5697  1.0044 -0.7744
  147SOL     OW  439   1.087   2.502   0.566 -0.4223 -0.2298 -0.3768
  147SOL    HW1  440   1.021   2.568   0.516 -3.3204 -1.4824  1.3544
  147SOL    HW2  441   1.161   2.463   0.507 -0.3185  2.0990 -0.0459
  148SOL     OW  442   1.576   1.469   0.009 -0.1727  0.1967 -0.1940
  148SOL    HW1  443   1.594   1.380  -0.039  2.2147  0.0420 -1.5701
  148SOL    HW2  444   1.561   1.465   0.110 -0.2069 -2.0603 -0.3468
  149SOL     OW  445   0.652   1.493   1.982 -0.1849  0.2381  0.2454
  149SOL    HW1  446   0.582   1.452   2.048 -0.8770  0.9576  1.0074
  149SOL    HW2  447   0.676   1.438   1.894 -0.4620 -0.4074 -3.1108
  150SOL     OW  448   3.058   1.207   0.932 -0.5822 -0.6625 -0.3397
  150SOL    HW1  449   3.130   1.210   1.005  0.8617  1.0226  1.4372
  150SOL    HW2  450   2.989   1.128   0.948  0.0114 -2.5670 -2.0284
  151SOL     OW  451   0.169   0.909   2.078 -0.4342  0.4456  0.5484
  151SOL    HW1  452   0.178   0.985   2.008 -2.3742  2.0350 -1.0156
  151SOL    HW2  453   0.234   0.833   2.070 -3.0582  0.3141  1.6580
  152SOL     OW  454   1.479   1.855   1.090 -0.6249  0.3730 -0.0802
  152SOL    HW1  455   1.528   1.946   1.092 -1.7707 -1.1364  1.2379
  152SOL    HW2  456   1.381   1.863   1.071 -0.0061  2.1922 -0.1356
  153SOL     OW  457   0.158   1.498   0.228  0.2626 -0.2086 -0.0029
  153SOL    HW1  458   0.167   1.398   0.206 -0.3332 -0.6217  0.6989
  153SOL    HW2  459   0.126   1.511   0.329  1.2321  1.4040 -0.5752
  154SOL     OW  460   2.328   1.783   2.758 -0.0533  0.6143  0.4796
  154SOL    HW1  461   2.351   1.683   2.769 -0.2785 -2.7107 -0.7822
  154SOL    HW2  462   2.395   1.835   2.698 -2.4195  1.3874  0.3227
  155SOL     OW  463   2.423   1.304   0.426  0.8975  0.5776  0.1206
  155SOL    HW1  464   2.508   1.253   0.393  1.5940 -0.6592  0.0290
  155SOL    HW2  465   2.333   1.255   0.411  1.7318  1.8991  2.1827
  156SOL     OW  466   2.472   0.830   0.734 -0.2687  0.0197  1.3487
  156SOL    HW1  467   2.374   0.848   0.757  1.9807  0.3321  2.9484
  156SOL    HW2  468   2.510   0.864   0.643 -1.2282 -0.0997 -2.7897
  157SOL     OW  469   1.252   3.059   3.079  0.0221  0.4452  0.1194
  157SOL    HW1  470   1.318   3.011   3.015  3.7830  2.5965 -0.1609
  157SOL    HW2  471   1.297   3.144   3.116  2.0128 -1.4478 -1.3479
  158SOL     OW  472   1.097   1.919   1.811  0.2145  0.1663  0.1524
  158SOL    HW1  473   1.136   2.004   1.768  2.0069 -0.4204 -0.1199
  158SOL    HW2  474   1.020   1.938   1.884 -1.0393  1.5069 -1.9242
  159SOL     OW  475   0.794   0.403   1.290 -0.0776 -0.2731  0.1680
  159SOL    HW1  476   0.732   0.483   1.320 -1.4055  3.1692 -0.8384
  159SOL    HW2  477   0.773   0.367   1.194  1.6202  0.1906  0.7008
  160SOL     OW  478   1.414   2.472   1.441  0.2035  0.3260 -0.0409
  160SOL    HW1  479   1.357   2.402   1.491 -2.3541  3.2087  1.2570
  160SOL    HW2  480   1.497   2.428   1.395  1.3603  0.1094  2.1864
  161SOL     OW  481   3.094   2.629   0.452  0.8367 -0.4862  0.2468
  161SOL    HW1  482   3.051   2.537   0.437 -0.2241 -0.7780  0.4102
  161SOL    HW2  483   3.056   2.702   0.393 -0.4658  1.1360 -3.4081
  162SOL     OW  484   2.534   1.891   0.486 -0.1616  0.0488  0.6967
  162SOL    HW1  485   2.587   1.918   0.403 -2.3811 -4.1813  0.0422
  162SOL    HW2  486   2.474   1.808   0.475  2.9491  1.6979 -0.8311
  163SOL     OW  487   1.967   2.750   0.758  0.1532  0.6002  0.0683
  163SOL    HW1  488   1.942   2.765   0.662  0.6471 -0.5890  1.3469
  163SOL    HW2  489   2.013   2.660   0.769  0.6551  1.1970 -0.7111
  164SOL     OW  490   3.078   0.132   1.214 -0.0222 -0.5283  0.1810
  164SOL    HW1  491   3.051   0.223   1.178 -0.9341 -1.5078  0.2711
  164SOL    HW2  492   3.157   0.128   1.275 -0.2544  3.1896 -1.8347
  165SOL     OW  493   1.121   1.452   0.642  0.0461  0.0427 -0.5400
  165SOL    HW1  494   1.104   1.513   0.723  0.3841 -2.2303  1.7522
  165SOL    HW2  495   1.061   1.462   0.556  1.4575  0.2563 -1.6573
  166SOL     OW  496   1.512   0.989   1.810 -0.4263  0.0376  0.7252
  166SOL    HW1  497   1.430   1.043   1.840  0.7323  1.8311  1.0913
  166SOL    HW2  498   1.587   1.053   1.782  0.1873 -1.1334 -2.4206
  167SOL     OW  499   0.660   2.004   1.524 -0.0840  0.4846 -0.0130
  167SOL    HW1  500   0.735   2.064   1.567  0.7372  1.2546  0.0119
  167SOL    HW2  501   0.617   1.937   1.590 -2.0645 -2.2781 -0.5507
  168SOL     OW  502   1.611   2.303   0.138  0.7180 -0.2053 -0.0717
  168SOL    HW1  503   1.670   2.310   0.051  1.0801  0.3559  0.1149
  168SOL    HW2  504   1.655   2.296   0.231 -0.9047 -1.6417  1.6181
  169SOL     OW  505   0.008   2.568   2.203 -0.3101  0.1881 -0.7349
  169SOL    HW1  506   0.026   2.511   2.121  3.2853 -2.2009  1.2712
  169SOL    HW2  507   0.075   2.540   2.279 -1.5774  0.9053 -0.5555
  170SOL     OW  508   1.149   0.149   2.057  0.1300 -0.1282  0.4061
  170SOL    HW1  509   1.239   0.173   2.100 -0.7424  0.0025  0.0633
  170SOL    HW2  510   1.155   0.143   1.952 -0.5446  0.5042 -2.1051
  171SOL     OW  511   0.187   0.857   2.422 -0.5085  0.1767 -0.2255
  171SOL    HW1  512   0.099   0.848   2.472 -2.3053 -0.5101  1.2782
  171SOL    HW2  513   0.186   0.924   2.341  3.0896  1.5804  1.9711
  172SOL     OW  514   1.000   1.023   2.856  0.3470 -0.7550 -0.4478
  172SOL    HW1  515   0.947   1.048   2.940 -1.2558 -1.2349 -2.8413
  172SOL    HW2  516   0.939   1.014   2.774  0.7283  0.8930  2.0529
  173SOL     OW  517   0.408   2.573   0.042 -0.6219  0.3739 -0.6684
  173SOL    HW1  518   0.484   2.529  -0.014  2.7120 -3.1528 -0.0719
  173SOL    HW2  519   0.387   2.522   0.132  2.0748  0.0017  4.8266
  174SOL     OW  520   1.482   2.876   1.050 -0.5106 -0.2002 -0.2702
  174SOL    HW1  521   1.555   2.904   0.985 -0.1893 -3.1984 -0.2894
  174SOL    HW2  522   1.421   2.799   1.011 -0.6331 -1.2431  1.1979
  175SOL     OW  523   0.445   3.062   1.716  0.7764 -0.2654 -0.0322
  175SOL    HW1  524   0.492   3.073   1.811 -0.7469  0.4105  0.6368
  175SOL    HW2  525   0.406   3.156   1.688  0.8571 -0.5558 -0.7630
  176SOL     OW  526   2.663   0.407   3.077 -0.1929  0.4386 -0.5987
  176SOL    HW1  527   2.671   0.495   3.133 -0.7627  2.0331 -0.8197
  176SOL    HW2  528   2.638   0.329   3.140  0.9481  0.7169  0.2645
  177SOL     OW  529   0.377   0.285   0.893  0.3599 -0.1228 -0.4028
  177SOL    HW1  530   0.333   0.187   0.886 -1.0384 -1.2022  1.7661
  177SOL    HW2  531   0.482   0.273   0.902 -0.6493 -0.4077 -1.2428
  178SOL     OW  532   0.042   2.726   2.624 -0.5057 -0.4724  0.8046
  178SOL    HW1  533  -0.000   2.634   2.603  0.1244  1.0393 -0.3272
  178SOL    HW2  534   0.115   2.719   2.697  0.4117  2.1456  1.6297
  179SOL     OW  535   2.979   1.577   1.185  0.3165  0.2626  0.4823
  179SOL    HW1  536   3.041   1.597   1.101  2.4988  2.0840  0.0538
  179SOL    HW2  537   3.039   1.533   1.255  0.2479 -0.4121  0.8791
  180SOL     OW  538   0.247   1.368   1.769  0.6615 -0.3155 -0.3550
  180SOL    HW1  539   0.328   1.316   1.797 -0.0904 -0.5653 -0.7714
  180SOL    HW2  540   0.185   1.398   1.850  0.0889 -0.2730  0.2375
  181SOL     OW  541   2.976   1.827   2.509  0.1105 -0.7268 -0.3924
  181SOL    HW1  542   3.036   1.848   2.422  2.6179 -3.8205 -1.9363
  181SOL    HW2  543   2.877   1.845   2.488 -0.4973 -0.5587  0.1060
  182SOL     OW  544   2.258   1.367   1.186 -0.3606 -0.1769  0.2362
  182SOL    HW1  545   2.246   1.274   1.140  0.9003  1.2001  0.9674
  182SOL    HW2  546   2.279   1.445   1.127  1.6860 -1.9668 -1.7695
  183SOL     OW  547   1.419   2.254   2.422 -0.4127 -0.2108  0.1077
  183SOL    HW1  548   1.367   2.180   2.475  1.6307 -1.8509 -0.8104
  183SOL    HW2  549   1.512   2.215   2.389 -0.4562  0.2088 -2.8051
  184SOL     OW  550   2.170   0.801   0.765  0.2485 -0.7104 -0.4335
  184SOL    HW1  551   2.066   0.831   0.769 -0.2771 -0.1564 -0.2410
  184SOL    HW2  552   2.188   0.695   0.746 -0.4900 -1.5943  0.4537
  185SOL     OW  553   1.574   2.793   1.989  0.1560  0.0036  0.1034
  185SOL    HW1  554   1.497   2.858   2.018 -0.0939 -0.5322  2.3502
  185SOL    HW2  555   1.626   2.762   2.077  1.2585 -1.5921 -0.3442
  186SOL     OW  556   0.099   2.217   1.749 -0.3517 -0.3902  0.7900
  186SOL    HW1  557   0.048   2.252   1.836 -0.5280  2.2761  0.3211
  186SOL    HW2  558   0.167   2.141   1.768  1.1727  0.8911 -3.2618
  187SOL     OW  559   1.344   0.679   1.664 -0.1100  0.1205 -0.0805
  187SOL    HW1  560   1.441   0.715   1.677 -2.0321  0.2735  1.3437
  187SOL    HW2  561   1.323   0.618   1.741  1.3727  2.0307  0.7950
  188SOL     OW  562   2.711   2.677   1.533  0.1596 -0.4762  0.6717
  188SOL    HW1  563   2.725   2.780   1.538 -2.0301 -0.8797  1.2894
  188SOL    HW2  564   2.673   2.650   1.445 -0.1474  0.4707  0.7221
  189SOL     OW  565   0.951   1.218   1.342  0.1855 -0.6422 -0.0422
  189SOL    HW1  566   0.975   1.257   1.435  3.1537  0.7706 -0.6573
  189SOL    HW2  567   0.876   1.270   1.293 -0.0992 -1.9198 -1.6957
  190SOL     OW  568   1.465   1.871   1.503  0.5573  0.6154 -0.3544
  190SOL    HW1  569   1.439   1.772   1.500 -0.6797  1.1544  0.8546
  190SOL    HW2  570   1.444   1.902   1.600  1.1179  1.9557 -1.2991
  191SOL     OW  571   0.852   0.763   1.513 -0.4690 -0.1617  0.0760
  191SOL    HW1  572   0.913   0.697   1.560  1.0468  0.2673  4.0277
  191SOL    HW2  573   0.908   0.837   1.464 -2.0024  2.8264 -1.6378
  192SOL     OW  574   1.840   2.440   1.122 -0.9600  0.0235 -0.8867
  192SOL    HW1  575   1.750   2.420   1.081  1.1253  0.1497 -0.6961
  192SOL    HW2  576   1.906   2.398   1.053 -0.3806 -0.2738 -1.0023
  193SOL     OW  577   0.572   0.580   0.453 -0.1487 -0.1403 -0.2710
  193SOL    HW1  578   0.494   0.508   0.454 -0.6695 -2.3788 -0.7035
  193SOL    HW2  579   0.631   0.582   0.371 -0.4485  0.8889 -0.9310
  194SOL     OW  580   0.367   0.833   1.321  0.5502 -0.5810  0.3101
  194SOL    HW1  581   0.287   0.817   1.250 -2.8838 -3.8811 -0.0955
  194SOL    HW2  582   0.457   0.847   1.279  0.1585 -2.8838  1.6281
  195SOL     OW  583   1.029   2.940   0.518  0.1174  0.2114 -0.9979
  195SOL    HW1  584   1.016   2.840   0.496  0.1504 -0.8424  1.5294
  195SOL    HW2  585   1.123   2.976   0.496  1.9287 -3.7264  1.1813
  196SOL     OW  586   0.257   1.408   1.300 -0.3830  1.0230 -0.1353
  196SOL    HW1  587   0.246   1.505   1.333 -0.0176  2.3154  0.6141
  196SOL    HW2  588   0.233   1.339   1.377  0.7784 -0.0367  0.9190
  197SOL     OW  589   0.842   2.009   0.321 -0.2800 -0.1233 -0.2754
  197SOL    HW1  590   0.848   1.952   0.404  0.4857  0.3582 -2.6692
  197SOL    HW2  591   0.899   1.969   0.243  1.7069 -0.1288 -1.4460
  198SOL     OW  592   0.289   1.228   0.347 -0.0944 -0.3701 -0.0957
  198SOL    HW1  593   0.194   1.219   0.314 -0.6296  0.5476  3.0815
  198SOL    HW2  594   0.299   1.292   0.423 -0.4362 -2.1135  0.5719
  199SOL     OW  595   2.206   0.466   2.599  1.0282 -0.4676 -0.0260
  199SOL    HW1  596   2.152   0.464   2.687  1.1511 -1.5777 -0.2836
  199SOL    HW2  597   2.306   0.454   2.621 -1.8425  0.4199  2.0850
  200SOL     OW  598   3.032   2.912   0.797 -0.1649 -0.4739  0.6418
  200SOL    HW1  599   3.047   2.998   0.858 -0.8646 -1.2778 -0.7990
  200SOL    HW2  600   3.004   2.936   0.700  2.0625 -2.5830  0.1805
  201SOL     OW  601   0.900   0.688   0.510  0.4353  0.3455 -0.4947
  201SOL    HW1  602   0.885   0.781   0.548 -1.9830  0.7740  0.1687
  201SOL    HW2  603   0.860   0.610   0.569 -1.2318 -0.6216  1.4828
  202SOL     OW  604   0.454   1.234   1.839 -0.0634  0.1366 -0.0791
  202SOL    HW1  605   0.547   1.190   1.818 -1.2295  1.6906 -1.2076
  202SOL    HW2  606   0.453   1.273   1.939 -0.3683 -1.0435 -0.5271
  203SOL     OW  607   0.678   0.200   1.598 -0.3411  0.1962  0.0224
  203SOL    HW1  608   0.721   0.173   1.503 -1.1292  0.6116 -1.1217
  203SOL    HW2  609   0.743   0.175   1.675  2.1117 -0.9473 -1.3333
  204SOL     OW  610   2.106   1.822   2.918  0.3506  0.2414 -0.2799
  204SOL    HW1  611   2.067   1.724   2.940 -0.5475  0.4347 -2.4594
  204SOL    HW2  612   2.200   1.807   2.866  2.0810 -1.9328  2.5742
  205SOL     OW  613   1.837   1.901   3.079 -0.0386 -0.1889 -0.0383
  205SOL    HW1  614   1.932   1.883   3.046 -0.2343 -0.8927 -1.7216
  205SOL    HW2  615   1.781   1.971   3.023  0.7632  1.1883 -3.0799
  206SOL     OW  616   2.362   2.721   0.269 -0.4345 -0.1066  0.2902
  206SOL    HW1  617   2.337   2.646   0.337  0.8722  0.9251  0.5946
  206SOL    HW2  618   2.462   2.714   0.250 -3.3642  0.6200 -0.7752
  207SOL     OW  619   0.696   1.747   2.908  0.5758 -0.0023  0.2698
  207SOL    HW1  620   0.795   1.727   2.886 -1.4627 -0.1820 -1.7676
  207SOL    HW2  621   0.653   1.676   2.969 -0.5785  0.4494 -0.1391
  208SOL     OW  622   1.004   1.550   1.270 -0.2258 -0.1790  0.3106
  208SOL    HW1  623   0.949   1.580   1.190 -0.6397 -0.3873 -0.1968
  208SOL    HW2  624   0.949   1.550   1.356  0.0323  2.1044  0.0274
  209SOL     OW  625   0.267   0.963   3.058  0.0991  0.3410 -0.5578
  209SOL    HW1  626   0.292   0.905   2.975 -2.4293 -2.9325 -1.7702
  209SOL    HW2  627   0.210   0.906   3.123  0.0572  0.1212 -2.6389
  210SOL     OW  628   1.699   0.557   1.260  0.2358  0.2769  0.0291
  210SOL    HW1  629   1.633   0.587   1.181 -0.7261  0.9307 -2.6333
  210SOL    HW2  630   1.797   0.555   1.229 -0.7924  0.0888  1.9262
  211SOL     OW  631   2.168   1.025   1.579  0.8665  0.3145  0.2044
  211SOL    HW1  632   2.182   1.010   1.677  2.7726 -0.4125 -0.3416
  211SOL    HW2  633   2.234   1.090   1.524 -0.2445 -0.1785 -2.3773
  212SOL     OW  634   0.055   1.027   1.478  0.0677  0.2587  0.0864
  212SOL    HW1  635   0.112   1.117   1.493  1.4106 -1.0653 -2.8354
  212SOL    HW2  636   0.082   0.949   1.542 -2.5273  0.4757 -0.5211
  213SOL     OW  637   2.815   0.100   0.344 -0.1882 -1.0688  0.4945
  213SOL    HW1  638   2.900   0.048   0.335  0.5186  2.0872  2.0968
  213SOL    HW2  639   2.740   0.060   0.287  2.2199  0.1227  1.6456
  214SOL     OW  640   2.156   0.318   2.351  0.0987  0.2975  0.1455
  214SOL    HW1  641   2.181   0.375   2.435  0.0649  0.7435 -0.2965
  214SOL    HW2  642   2.159   0.223   2.373 -0.3539  2.3831 -1.2730
  215SOL     OW  643   1.654   2.221   2.041  0.1939  0.4113  0.3084
  215SOL    HW1  644   1.751   2.261   2.051  2.5680  1.8277  2.1079
  215SOL    HW2  645   1.583   2.298   2.056 -0.9118  2.7370  1.1885
  216SOL     OW  646   2.208   0.535   0.727  0.0918  0.0210 -0.1625
  216SOL    HW1  647   2.166   0.485   0.640  0.8123 -1.9835  3.1758
  216SOL    HW2  648   2.275   0.479   0.781  2.3049  0.9064 -0.9820
  217SOL     OW  649   0.925   2.739   2.576  0.3486 -0.7772  0.0377
  217SOL    HW1  650   0.925   2.658   2.641 -2.6645  1.1356 -2.5187
  217SOL    HW2  651   0.883   2.714   2.487  0.8881  1.8691 -1.1724
  218SOL     OW  652   1.862   1.448   0.035  0.2270 -0.2953 -0.1788
  218SOL    HW1  653   1.763   1.474   0.043  1.2991 -0.2367  1.5150
  218SOL    HW2  654   1.872   1.350   0.067 -2.2352 -2.0974 -2.2333
  219SOL     OW  655   2.463   1.280   2.521 -0.0704  0.5463  0.0370
  219SOL    HW1  656   2.510   1.233   2.439  4.1519  2.1672 -0.0141
  219SOL    HW2  657   2.452   1.213   2.598 -1.8354 -0.7596 -1.4817
  220SOL     OW  658   1.387   1.031   1.341 -0.1312 -0.4422 -0.6719
  220SOL    HW1  659   1.475   0.981   1.366  0.3663  0.7868  0.7638
  220SOL    HW2  660   1.379   1.054   1.239 -1.4405  1.5102 -0.5257
  221SOL     OW  661   1.397   0.977   2.176  0.1151 -0.4074  0.4390
  221SOL    HW1  662   1.346   1.018   2.098 -1.3764  0.0978  0.1931
  221SOL    HW2  663   1.486   1.031   2.203 -1.6864 -0.2786 -1.8834
  222SOL     OW  664   1.165   0.075   1.226  0.4139  0.2255  0.1827
  222SOL    HW1  665   1.198   0.130   1.306  0.2522 -0.2571  1.2549
  222SOL    HW2  666   1.146   0.136   1.141  1.3518  0.6170 -0.4570
  223SOL     OW  667   2.717   0.960   2.110  0.4162 -0.3169  0.4667
  223SOL    HW1  668   2.676   1.052   2.083 -0.3915  1.7804  1.0223
  223SOL    HW2  669   2.805   0.965   2.167  0.3086 -0.7661  1.1959
  224SOL     OW  670   1.560   1.021   2.769 -0.2149 -0.0332 -0.2992
  224SOL    HW1  671   1.605   0.942   2.730 -0.1584  1.2913  0.0247
  224SOL    HW2  672   1.587   1.118   2.733 -0.6787  1.9259 -0.3605
  225SOL     OW  673   2.947   2.671   2.918  0.0618  0.0810  0.2280
  225SOL    HW1  674   2.877   2.623   2.857 -1.6326 -3.3696 -0.0278
  225SOL    HW2  675   3.005   2.741   2.860  1.6443  0.9148 -1.0207
  226SOL     OW  676   2.393   1.524   2.790  0.4767  0.3878 -0.6409
  226SOL    HW1  677   2.471   1.493   2.734  1.1975  2.6507 -0.3870
  226SOL    HW2  678   2.391   1.468   2.875  0.3460  3.3112 -0.1009
  227SOL     OW  679   0.841   0.240   3.066  0.2110  0.0582 -0.7365
  227SOL    HW1  680   0.906   0.319   3.057 -1.9376  0.2516  1.6030
  227SOL    HW2  681   0.799   0.210   2.975  2.8261  1.3088  1.0120
  228SOL     OW  682   2.453   0.665   2.849  0.0042  0.1396 -0.3450
  228SOL    HW1  683   2.456   0.735   2.774  1.7658  1.7439  2.6477
  228SOL    HW2  684   2.516   0.583   2.836  1.7581 -0.8173 -2.7212
  229SOL     OW  685   0.462   0.522   1.824  0.9664  1.0527 -0.1497
  229SOL    HW1  686   0.547   0.580   1.811  0.0060  0.0455  0.2370
  229SOL    HW2  687   0.449   0.453   1.754 -0.1911 -0.5432  1.0664
  230SOL     OW  688   1.880   1.210   1.952 -0.8308 -0.2023 -0.4639
  230SOL    HW1  689   1.955   1.278   1.923  2.1732 -1.5517  0.3073
  230SOL    HW2  690   1.824   1.236   2.033 -0.2207  0.9472 -2.3607
  231SOL     OW  691   0.620   1.068   3.088  0.1761 -0.1576 -0.2750
  231SOL    HW1  692   0.720   1.092   3.094 -4.4334  1.4732  1.4397
  231SOL    HW2  693   0.559   1.154   3.104 -0.3661  4.0476 -0.5234
  232SOL     OW  694   2.410   3.059   2.792 -0.5116 -0.2741 -0.2929
  232SOL    HW1  695   2.490   2.992   2.787 -1.3693 -0.6061  0.3696
  232SOL    HW2  696   2.424   3.140   2.724  1.8961  1.4210  0.2248
  233SOL     OW  697   1.769   1.162   1.084  0.6054 -0.1661 -0.2774
  233SOL    HW1  698   1.845   1.233   1.082  1.1098  1.5221  1.0713
  233SOL    HW2  699   1.779   1.085   1.152  1.9643 -1.9872  0.1103
  234SOL     OW  700   1.651   2.552   1.836 -0.6018 -1.0082  0.2016
  234SOL    HW1  701   1.628   2.599   1.921  1.3764  1.5378 -0.8177
  234SOL    HW2  702   1.591   2.473   1.812  3.2010  0.3309  0.5401
  235SOL     OW  703   3.093   2.974   2.852 -0.0513  0.1054 -0.5169
  235SOL    HW1  704   3.059   2.980   2.759 -0.6268  1.1135  1.9381
  235SOL    HW2  705   3.053   3.046   2.915  2.7413  1.2292 -0.4449
  236SOL     OW  706   2.923   0.684   0.052 -1.1002  0.3366  0.2611
  236SOL    HW1  707   2.982   0.709   0.138  0.8361  1.5560 -0.0782
  236SOL    HW2  708   2.962   0.603  -0.003  2.3225 -1.4491 -0.2468
  237SOL     OW  709   1.459   1.663   0.895  0.2052  0.5752 -0.0929
  237SOL    HW1  710   1.533   1.589   0.911  1.7295 -0.1174 -1.7314
  237SOL    HW2  711   1.455   1.728   0.972 -0.7239 -0.9389 -2.0502
  238SOL     OW  712   1.897   1.200   0.767 -0.1642  0.3352 -0.7669
  238SOL    HW1  713   1.939   1.215   0.862  0.0600 -0.3464  2.2701
  238SOL    HW2  714   1.787   1.196   0.767 -1.7912  0.2241  0.9679
  239SOL     OW  715   2.017   0.212   2.750 -0.0486 -0.2283  0.4731
  239SOL    HW1  716   2.067   0.174   2.826 -1.3083 -1.7024 -1.8316
  239SOL    HW2  717   1.952   0.293   2.772 -0.2138  1.4746 -0.4730
  240SOL     OW  718   0.942   0.709   0.232  0.2048 -0.2620  0.0196
  240SOL    HW1  719   1.015   0.637   0.206  0.0306 -3.2092 -0.5558
  240SOL    HW2  720   0.916   0.700   0.336  0.5283  0.7879  3.2809
  241SOL     OW  721   0.557   0.133   0.328  0.2606 -0.0317 -0.5804
  241SOL    HW1  722   0.641   0.169   0.286  1.2262 -0.3029 -2.6136
  241SOL    HW2  723   0.517   0.055   0.269 -1.8263  0.6273 -0.2570
  242SOL     OW  724   0.647   2.565   1.180  0.1520 -0.1214 -0.4445
  242SOL    HW1  725   0.660   2.541   1.286 -0.1080  1.3136  1.4565
  242SOL    HW2  726   0.608   2.661   1.178 -0.8197 -0.5676  0.6765
  243SOL     OW  727   1.057   0.603   2.375  0.2618  0.2089  0.3472
  243SOL    HW1  728   0.969   0.606   2.309  0.3917 -0.2106 -1.0883
  243SOL    HW2  729   1.046   0.552   2.463  0.0345  2.3888 -1.6878
  244SOL     OW  730   2.678   1.955   2.351 -0.4490  0.3587  0.0545
  244SOL    HW1  731   2.718   1.934   2.261  0.3756 -0.4964  1.0709
  244SOL    HW2  732   2.608   1.884   2.377 -0.6990 -1.4940  1.2555
  245SOL     OW  733   2.157   1.010   2.205 -0.8408  0.1681  0.4287
  245SOL    HW1  734   2.247   0.965   2.232 -1.3993  0.6130  0.8809
  245SOL    HW2  735   2.136   1.097   2.258 -0.5313  0.2766  2.4350
  246SOL     OW  736   0.297   2.840   1.802  0.1814 -0.1621 -0.1179
  246SOL    HW1  737   0.226   2.824   1.731  1.6238  1.2370  0.9661
  246SOL    HW2  738   0.370   2.901   1.759  2.5839 -0.2433 -2.4289
  247SOL     OW  739   2.232   0.587   3.012  0.1958 -0.3410 -0.2788
  247SOL    HW1  740   2.305   0.623   2.948  1.2917  1.3191  1.9346
  247SOL    HW2  741   2.152   0.660   3.018  1.5934 -1.5916 -2.0351
  248SOL     OW  742   2.200   1.804   1.591 -0.3415 -0.2461 -0.2524
  248SOL    HW1  743   2.266   1.769   1.667 -0.5037 -3.5506  2.1490
  248SOL    HW2  744   2.105   1.762   1.611  2.7738  0.0373 -2.7826
  249SOL     OW  745   1.870   1.899   1.804 -0.3040  0.0488 -0.0544
  249SOL    HW1  746   1.885   1.822   1.736  0.5252  1.4207 -2.5292
  249SOL    HW2  747   1.962   1.929   1.847 -0.0315  1.4678 -0.8805
  250SOL     OW  748   0.957   0.723   1.889 -0.5218  0.1174 -0.4374
  250SOL    HW1  749   1.000   0.662   1.964  0.4292  0.0024  1.9128
  250SOL    HW2  750   0.981   0.689   1.798 -0.5502  3.0587 -1.0510
  251SOL     OW  751   3.037   1.544   2.529 -0.4194  0.2756  0.3653
  251SOL    HW1  752   3.015   1.645   2.519  1.6629 -0.0477 -2.5497
  251SOL    HW2  753   2.955   1.482   2.502 -0.2904 -2.3558 -0.2764
  252SOL     OW  754   1.562   0.859   1.581  0.5722 -0.2254 -0.1980
  252SOL    HW1  755   1.624   0.921   1.523  0.6180  0.9252  0.2167
  252SOL    HW2  756   1.525   0.914   1.661 -0.9777 -0.3412 -0.9236
  253SOL     OW  757   0.931   1.524   0.431 -0.0784  0.3267 -0.3791
  253SOL    HW1  758   0.887   1.535   0.337 -3.3495 -2.3269 -0.1582
  253SOL    HW2  759   0.856   1.511   0.500 -0.2178  0.0988 -3.9064
  254SOL     OW  760   2.054   2.198   1.606  0.6174 -0.2183  0.8257
  254SOL    HW1  761   2.015   2.128   1.536  0.8238  0.0584  0.0914
  254SOL    HW2  762   1.976   2.251   1.655 -1.8303  1.2596  0.1963
  255SOL     OW  763   0.129   1.155   2.908 -0.3237  0.1237 -0.1726
  255SOL    HW1  764   0.151   1.260   2.902  2.1207  0.9238  0.9677
  255SOL    HW2  765   0.212   1.110   2.938 -1.4770  1.8749 -1.8521
  256SOL     OW  766   2.825   1.419   1.777 -0.2178  0.1238 -0.3421
  256SOL    HW1  767   2.796   1.488   1.711  0.0777  1.2502  1.1140
  256SOL    HW2  768   2.805   1.320   1.744 -0.6909  0.5598 -0.2343
  257SOL     OW  769   0.858   0.249   1.882  0.8212 -0.0970  0.3327
  257SOL    HW1  770   0.909   0.302   1.808  1.3616  2.7774 -1.3594
  257SOL    HW2  771   0.855   0.152   1.862  2.9790  3.7254  1.6095
  258SOL     OW  772   2.967   1.157   0.532  0.5272  0.0532 -0.1792
  258SOL    HW1  773   2.873   1.186   0.565 -0.3523 -2.4312 -0.8896
  258SOL    HW2  774   3.048   1.207   0.572 -1.1362  0.9186 -4.4862
  259SOL     OW  775   0.472   2.940   2.990  0.3091  0.4527  0.3730
  259SOL    HW1  776   0.394   2.917   3.052 -0.1994 -2.0272 -1.4316
  259SOL    HW2  777   0.496   2.862   2.920 -2.6244  0.3669  0.5229
  260SOL     OW  778   2.722   0.752   2.743 -0.0482 -0.0055 -0.2617
  260SOL    HW1  779   2.635   0.794   2.716  1.6031  3.0896  1.6876
  260SOL    HW2  780   2.718   0.657   2.774  1.7962 -0.0619 -3.8310
  261SOL     OW  781   2.697   1.301   1.307 -0.1946 -0.2071  0.4652
  261SOL    HW1  782   2.665   1.229   1.238 -0.8186 -0.7474 -0.2386
  261SOL    HW2  783   2.781   1.278   1.362  3.0087  2.7677  0.3649
  262SOL     OW  784   1.370   2.972   2.074 -0.4732 -0.1855 -0.4696
  262SOL    HW1  785   1.400   3.059   2.028  2.4930 -0.8051  0.1655
  262SOL    HW2  786   1.279   2.933   2.036 -1.2629 -2.3697 -0.6115
  263SOL     OW  787   0.809   0.634   2.280  0.1368  0.2654  0.8240
  263SOL    HW1  788   0.745   0.562   2.240 -3.0037  1.0866 -1.2696
  263SOL    HW2  789   0.812   0.723   2.224  1.9869 -2.0205  1.9839
  264SOL     OW  790   2.268   0.810   0.376 -0.0637  0.4522  0.5508
  264SOL    HW1  791   2.267   0.760   0.286  1.0665  0.5231  3.4245
  264SOL    HW2  792   2.356   0.860   0.396 -0.1303 -0.2630 -1.9078
  265SOL     OW  793   0.924   2.403   2.590 -0.2540  0.0702 -0.4832
  265SOL    HW1  794   0.977   2.471   2.655  1.7286  0.4460  0.5393
  265SOL    HW2  795   0.882   2.326   2.639 -0.0259  0.5787  0.4333
  266SOL     OW  796   1.296   1.771   3.046  0.0600  0.1095 -0.1909
  266SOL    HW1  797   1.284   1.840   3.125 -1.7387 -0.0877  1.0598
  266SOL    HW2  798   1.396   1.731   3.047  0.8884  1.0268  2.7287
  267SOL     OW  799   1.058   0.049   2.326  0.1985 -0.1219  0.6484
  267SOL    HW1  800   0.961   0.069   2.307  2.8204  1.3290 -4.9427
  267SOL    HW2  801   1.109   0.054   2.235 -1.1231 -0.0719  0.7698
  268SOL     OW  802   0.846   1.250   1.041  0.1233 -0.0082 -0.0240
  268SOL    HW1  803   0.783   1.320   1.080  1.4949  1.4775  1.0386
  268SOL    HW2  804   0.921   1.293   0.982 -1.0325  0.5533  0.9134
  269SOL     OW  805   2.372   2.532   1.606 -0.0264  0.4392 -0.9162
  269SOL    HW1  806   2.418   2.440   1.622 -0.8001  1.6114 -0.6972
  269SOL    HW2  807   2.346   2.591   1.689 -0.1037  0.6349 -2.7803
  270SOL     OW  808   0.162   2.995   1.987  0.2600 -0.1486 -0.3646
  270SOL    HW1  809   0.207   2.942   1.911 -0.2010  2.6057  0.6664
  270SOL    HW2  810   0.091   2.938   2.036 -2.1378 -2.8491 -3.2763
  271SOL     OW  811   0.491   1.389   1.128 -0.2198  0.6495 -0.5036
  271SOL    HW1  812   0.491   1.345   1.036  5.1685 -5.1919  2.8451
  271SOL    HW2  813   0.407   1.361   1.185 -0.8794 -2.4924  2.2585
  272SOL     OW  814   1.910  -0.002   1.924 -0.2204 -0.1426 -0.1698
  272SOL    HW1  815   1.835  -0.058   1.885  1.0780 -0.9063  0.3522
  272SOL    HW2  816   1.904   0.094   1.883 -1.0981 -0.2216  0.9875
  273SOL     OW  817   1.488   1.491   2.807 -0.7818 -0.1238  0.0242
  273SOL    HW1  818   1.389   1.491   2.772 -1.0335 -2.0799  0.6133
  273SOL    HW2  819   1.495   1.508   2.910 -1.8284  2.3240  0.5394
  274SOL     OW  820   1.103   0.517   2.017  0.2914 -0.1679 -0.2629
  274SOL    HW1  821   1.064   0.433   2.056  1.6841  4.3304  0.2903
  274SOL    HW2  822   1.175   0.552   2.084 -2.0257  0.8066  0.4889
  275SOL     OW  823   0.647   2.142   1.896  0.0864 -0.2867 -0.2798
  275SOL    HW1  824   0.625   2.241   1.912  1.3097 -2.1778 -1.0287
  275SOL    HW2  825   0.581   2.084   1.952 -0.8618  1.2605  0.2930
  276SOL     OW  826   2.242   0.936   2.846 -0.2321 -0.3493  0.0460
  276SOL    HW1  827   2.182   0.993   2.784 -0.3965 -1.4824  1.5679
  276SOL    HW2  828   2.190   0.885   2.921  2.5266 -0.7837 -0.5472
  277SOL     OW  829   3.083   0.779   0.271  0.0156 -0.2972 -0.0967
  277SOL    HW1  830   3.169   0.834   0.253 -0.4004 -0.5720 -0.5839
  277SOL    HW2  831   3.089   0.724   0.357 -0.0268 -0.9968 -0.0252
  278SOL     OW  832   0.258   0.232   3.061  0.0822  0.2403 -0.6654
  278SOL    HW1  833   0.333   0.189   3.000  1.9631  0.6932  0.2007
  278SOL    HW2  834   0.282   0.326   3.094 -2.8059  1.0891  0.7968
  279SOL     OW  835   0.256   0.022   0.882  0.2526 -0.9244  0.0116
  279SOL    HW1  836   0.275  -0.012   0.977  0.5129 -0.7171 -2.5077
  279SOL    HW2  837   0.261  -0.063   0.819  0.8483 -2.3991 -1.0305
  280SOL     OW  838   1.635   2.926   2.442  0.2070 -0.0393  0.1736
  280SOL    HW1  839   1.699   2.993   2.498  3.4362 -1.1176 -0.8400
  280SOL    HW2  840   1.551   2.969   2.408 -0.2251 -1.3980  1.2254
  281SOL     OW  841   0.517   0.953   2.277  0.1465 -0.4505  0.1035
  281SOL    HW1  842   0.560   0.860   2.248  0.8503 -0.8669  3.5923
  281SOL    HW2  843   0.468   0.940   2.370 -1.4298 -0.0752  0.0845
  282SOL     OW  844   1.789   2.452   0.519  0.2129 -0.1071  0.7203
  282SOL    HW1  845   1.722   2.393   0.476  3.9486  1.8632 -1.4411
  282SOL    HW2  846   1.754   2.547   0.534 -1.1953 -0.3463 -0.4106
  283SOL     OW  847   1.160   0.879   0.737 -0.0227  0.3211  0.5609
  283SOL    HW1  848   1.186   0.852   0.834  1.6866  2.4691 -0.6075
  283SOL    HW2  849   1.136   0.980   0.729  1.2281 -1.8394 -1.9242
  284SOL     OW  850   2.228   2.812   2.473  0.1799 -0.2305 -0.5578
  284SOL    HW1  851   2.320   2.802   2.442 -1.9768  0.3977  1.8667
  284SOL    HW2  852   2.227   2.826   2.575  0.6428 -2.5777  0.5251
  285SOL     OW  853   1.325   3.083   2.609 -0.0033 -0.3202  0.2803
  285SOL    HW1  854   1.361   3.059   2.515 -0.8651 -1.6358 -0.2922
  285SOL    HW2  855   1.240   3.140   2.594 -0.6031 -2.4157  1.9223
  286SOL     OW  856   0.345   0.460   0.686 -0.9763 -0.0143 -1.2083
  286SOL    HW1  857   0.355   0.387   0.761  3.0234 -4.1767 -2.5070
  286SOL    HW2  858   0.364   0.415   0.595  1.1567 -0.0709  1.9265
  287SOL     OW  859   0.089   1.302   2.615  0.1026  0.4716 -0.2647
  287SOL    HW1  860   0.049   1.230   2.674  1.8638 -2.5717  1.1596
  287SOL    HW2  861   0.029   1.383   2.585  0.7392  0.8666 -0.5165
  288SOL     OW  862   1.522   2.744   1.659  0.2217  0.0670  0.4063
  288SOL    HW1  863   1.567   2.678   1.727 -0.8400  2.0479  1.0719
  288SOL    HW2  864   1.553   2.739   1.561 -0.3516 -2.2184 -0.5506
  289SOL     OW  865   0.637   2.765   0.824  0.0973  0.1526 -0.3863
  289SOL    HW1  866   0.664   2.809   0.733  0.4395  2.4018  1.1264
  289SOL    HW2  867   0.590   2.823   0.900 -1.5151 -0.1540  1.9608
  290SOL     OW  868   2.824   1.162   1.727  0.5311 -0.0663 -0.2583
  290SOL    HW1  869   2.749   1.086   1.726 -1.2485 -1.4240  0.8659
  290SOL    HW2  870   2.917   1.117   1.750 -0.5767  1.3463 -3.2854
  291SOL     OW  871   1.941   3.071   0.048  0.1688 -0.2727 -0.3430
  291SOL    HW1  872   1.962   3.118   0.138  0.1216  3.8744 -4.2559
  291SOL    HW2  873   2.005   3.098  -0.029 -1.8198  1.6076  2.0834
  292SOL     OW  874   2.986   1.165   3.063 -0.2085  0.1639  0.1314
  292SOL    HW1  875   2.941   1.245   3.012  1.9819  1.4082  0.0413
  292SOL    HW2  876   3.079   1.142   3.020  3.9318 -0.9613 -1.1109
  293SOL     OW  877   0.582   2.067   0.296  0.2901 -0.0755 -0.3085
  293SOL    HW1  878   0.555   2.137   0.367  2.6954  0.1433  0.0732
  293SOL    HW2  879   0.686   2.047   0.307 -1.4401  0.4817  0.6781
  294SOL     OW  880   1.878   2.340   1.755 -0.0367  0.1765 -0.3377
  294SOL    HW1  881   1.902   2.339   1.856  1.4819 -0.8933 -2.1439
  294SOL    HW2  882   1.858   2.432   1.718  2.1633 -0.6052 -0.7888
  295SOL     OW  883   1.013   1.043   0.442 -0.8825  0.1889  0.0527
  295SOL    HW1  884   1.112   1.028   0.465 -0.8495  3.3555  3.2810
  295SOL    HW2  885   0.952   1.034   0.531  0.0264 -2.1684  0.8310
  296SOL     OW  886   1.089   2.163   2.738 -0.2936  0.1883  0.0532
  296SOL    HW1  887   0.996   2.175   2.776 -0.1860  0.0365 -0.2119
  296SOL    HW2  888   1.086   2.121   2.643  1.0319  3.1209 -0.3698
  297SOL     OW  889   1.274   0.532   1.167 -0.0023 -0.2013 -0.1739
  297SOL    HW1  890   1.310   0.490   1.252 -1.3952  2.7890  0.1600
  297SOL    HW2  891   1.324   0.610   1.127 -4.1588 -0.7408  0.2083
  298SOL     OW  892   0.495   1.326   2.918 -0.4786 -0.6777 -0.3126
  298SOL    HW1  893   0.441   1.264   2.983  1.9692 -0.3078 -0.0152
  298SOL    HW2  894   0.552   1.275   2.847  1.1607 -0.2260  1.3787
  299SOL     OW  895   0.439   0.206   1.262  0.0549 -0.2430 -0.0959
  299SOL    HW1  896   0.399   0.301   1.250  0.2059  0.4145  1.6329
  299SOL    HW2  897   0.438   0.181   1.365  1.1183  1.2914 -0.9816
  300SOL     OW  898   1.353   1.799   2.577  0.6596  0.2200  0.4213
  300SOL    HW1  899   1.332   1.715   2.516 -0.5977  3.6644 -0.2300
  300SOL    HW2  900   1.422   1.779   2.652 -3.6314 -0.5356  1.3084
  301SOL     OW  901   0.406   0.365   0.438  0.2223  0.0473  0.0512
  301SOL    HW1  902   0.306   0.350   0.415  0.1625  0.0566 -3.5510
  301SOL    HW2  903   0.466   0.288   0.399  1.1913 -0.4999 -2.8772
  302SOL     OW  904   1.255   2.459   2.301  0.5586 -0.1864  0.3646
  302SOL    HW1  905   1.163   2.431   2.334  1.2778 -0.7126  0.9482
  302SOL    HW2  906   1.315   2.377   2.278  1.1032  0.3804 -1.7843
  303SOL     OW  907   0.955   2.442   0.836 -0.6972  0.5430  0.3731
  303SOL    HW1  908   1.026   2.465   0.760  0.3460 -1.3402 -1.5538
  303SOL    HW2  909   0.967   2.514   0.912  0.3139  1.7147  0.3508
  304SOL     OW  910   0.148   1.921   0.671 -0.2867  0.2252  0.1515
  304SOL    HW1  911   0.218   1.882   0.607  2.5347  1.0611 -1.1208
  304SOL    HW2  912   0.058   1.934   0.617  2.0907  2.3388 -0.9543
  305SOL     OW  913   1.609   0.864   0.685  0.3590  0.5314 -0.1081
  305SOL    HW1  914   1.555   0.889   0.600 -2.2556  2.4301  0.3174
  305SOL    HW2  915   1.659   0.770   0.691  5.1992  1.6484  1.4952
  306SOL     OW  916   0.398   1.848   1.958  0.1340 -0.0790 -0.0506
  306SOL    HW1  917   0.491   1.799   1.943 -0.0009 -2.9692  1.5779
  306SOL    HW2  918   0.399   1.898   2.050 -0.7073  1.2333  0.0112
  307SOL     OW  919   2.997   0.899   2.506  0.1176 -0.4021  0.5878
  307SOL    HW1  920   3.021   0.930   2.602 -1.8185 -0.5549  1.2992
  307SOL    HW2  921   2.942   0.812   2.510  1.4242  0.8604  1.3207
  308SOL     OW  922   1.499   2.684   2.823 -0.7276  0.2717 -0.4131
  308SOL    HW1  923   1.486   2.690   2.720 -0.1061 -2.3159 -2.0422
  308SOL    HW2  924   1.422   2.619   2.866 -1.0031 -1.6064  0.7434
  309SOL     OW  925   1.262   0.173   1.776 -0.1925 -0.0621  0.0952
  309SOL    HW1  926   1.347   0.128   1.817 -1.3375  0.5873 -0.3392
  309SOL    HW2  927   1.249   0.160   1.673 -2.0930 -1.5013  1.7790
  310SOL     OW  928   1.473   2.559   0.677  0.5226 -0.8714 -0.1855
  310SOL    HW1  929   1.448   2.589   0.779 -0.7617  1.1660  2.0558
  310SOL    HW2  930   1.558   2.604   0.643  0.3482 -2.1204 -2.1110
  311SOL     OW  931   1.045   0.969   1.754 -0.1420 -0.1802 -0.1551
  311SOL    HW1  932   0.995   0.883   1.786 -1.0803  1.1444  1.8946
  311SOL    HW2  933   1.119   0.944   1.682 -0.8063 -1.1014 -1.0892
  312SOL     OW  934   1.548   0.632   1.050 -0.1507 -0.1168  0.1257
  312SOL    HW1  935   1.581   0.723   1.015 -0.5072 -0.0902 -1.5778
  312SOL    HW2  936   1.510   0.579   0.965  0.5735 -1.6377 -0.2440
  313SOL     OW  937   1.622   1.234   0.761 -0.2506  0.1754  0.3388
  313SOL    HW1  938   1.527   1.257   0.793 -0.2297 -1.8286  0.1450
  313SOL    HW2  939   1.613   1.180   0.671 -0.2335  0.1901 -2.8270
  314SOL     OW  940   2.970   3.082   3.077  0.2324  0.2132 -0.3748
  314SOL    HW1  941   2.988   3.090   3.179  3.1448  0.4445  1.5930
  314SOL    HW2  942   2.888   3.018   3.054 -0.6806 -0.7590  0.3617
  315SOL     OW  943   1.185   0.206   2.792  0.0998  0.0715  0.1664
  315SOL    HW1  944   1.112   0.181   2.722  3.0254 -1.1246 -0.1022
  315SOL    HW2  945   1.179   0.142   2.873 -1.4961 -0.7442  1.3603
  316SOL     OW  946   1.737   2.085   0.881  0.5156 -0.3988  0.1937
  316SOL    HW1  947   1.675   2.076   0.961  3.4442  0.0173 -2.3555
  316SOL    HW2  948   1.757   2.180   0.842 -0.2899  2.0943  0.9348
  317SOL     OW  949   1.170   0.699   2.769 -0.0411  0.3298  0.0210
  317SOL    HW1  950   1.133   0.718   2.866 -2.7642 -0.5915 -0.8144
  317SOL    HW2  951   1.126   0.611   2.728  2.2453  0.3545 -2.0558
  318SOL     OW  952   1.432   3.084   2.322 -0.5037  0.2718  0.2043
  318SOL    HW1  953   1.481   3.171   2.287  0.2391 -0.4135 -0.9592
  318SOL    HW2  954   1.383   3.030   2.242 -2.7940  3.1002 -1.6927
  319SOL     OW  955   0.675   2.394   3.020 -0.2577  0.1684  0.2379
  319SOL    HW1  956   0.637   2.309   3.060 -0.9855  1.8144 -1.4190
  319SOL    HW2  957   0.732   2.378   2.938  1.0797  1.0008  0.5566
  320SOL     OW  958   1.680   2.225   0.405 -0.2507  0.1888 -0.1323
  320SOL    HW1  959   1.770   2.178   0.418  0.8473 -2.8496 -1.0918
  320SOL    HW2  960   1.595   2.166   0.391 -0.1973 -0.3078 -3.8415
  321SOL     OW  961   1.680   2.712   0.564 -0.6104 -0.0343  0.1087
  321SOL    HW1  962   1.591   2.757   0.539  0.3226 -0.5924  1.7100
  321SOL    HW2  963   1.755   2.776   0.534 -0.9716  1.6544 -3.1638
  322SOL     OW  964   2.573   1.139   2.319 -0.0408 -0.0122  0.2274
  322SOL    HW1  965   2.643   1.090   2.369 -2.8476  0.2024 -0.6963
  322SOL    HW2  966   2.528   1.078   2.246  1.5126 -2.2910 -2.1879
  323SOL     OW  967   1.150   2.681   0.798 -0.3150  0.5429 -0.1258
  323SOL    HW1  968   1.142   2.654   0.699  1.5537  3.3936  1.4089
  323SOL    HW2  969   1.147   2.788   0.809  0.4069  2.1542 -3.0733
  324SOL     OW  970   0.161   2.536   2.431 -0.4600  0.1661 -0.1635
  324SOL    HW1  971   0.082   2.489   2.482 -0.2427  0.6797  0.1474
  324SOL    HW2  972   0.161   2.637   2.447  0.9362  0.0714 -2.3944
  325SOL     OW  973   1.250   3.082   0.451 -0.0331 -0.3988  0.1352
  325SOL    HW1  974   1.247   3.134   0.360  0.8317  1.7200  0.4045
  325SOL    HW2  975   1.293   3.134   0.532 -2.2106  0.2142 -0.9351
  326SOL     OW  976   2.492   0.858   0.007 -0.4394  0.4994  0.7378
  326SOL    HW1  977   2.413   0.824  -0.048  1.3862  2.4733  0.0865
  326SOL    HW2  978   2.554   0.777   0.034 -0.6514 -1.9794 -0.0991
  327SOL     OW  979   2.868   0.294   0.562  0.4148  0.0084 -0.2069
  327SOL    HW1  980   2.863   0.245   0.475  0.7326  3.5339  0.0023
  327SOL    HW2  981   2.879   0.226   0.636 -0.0439 -1.1544  0.1567
  328SOL     OW  982   2.582   0.635   0.395  0.1696 -0.7724 -0.1994
  328SOL    HW1  983   2.607   0.675   0.488  1.4927 -1.1234 -0.0457
  328SOL    HW2  984   2.515   0.557   0.405  0.0466 -1.1288 -1.8457
  329SOL     OW  985   2.939   3.012   2.202  0.3092 -0.3313  0.6524
  329SOL    HW1  986   3.016   2.940   2.203 -0.2298 -1.6508  0.2374
  329SOL    HW2  987   2.974   3.110   2.215  1.1241  2.1667  0.6562
  330SOL     OW  988   0.533   0.196   1.846  0.3413  0.3178  0.2615
  330SOL    HW1  989   0.626   0.236   1.825 -1.1158 -0.2913 -0.0006
  330SOL    HW2  990   0.515   0.183   1.942 -0.5710  0.9221 -1.7486
  331SOL     OW  991   3.066   1.867   1.137  0.3905 -0.3984 -0.3958
  331SOL    HW1  992   3.045   1.945   1.071  0.0594  1.7643 -1.1981
  331SOL    HW2  993   3.001   1.852   1.219  2.3668 -0.5340  2.5086
  332SOL     OW  994   0.376   1.191   0.056 -0.2169 -0.0311 -0.1607
  332SOL    HW1  995   0.323   1.109   0.018  0.0352 -0.8136  2.2408
  332SOL    HW2  996   0.346   1.214   0.151 -0.1418  0.2753 -3.1623
  333SOL     OW  997   2.887   0.954   0.362  0.4827  0.5320  0.0362
  333SOL    HW1  998   2.936   1.034   0.406 -1.3110 -4.1813 -2.0263
  333SOL    HW2  999   2.951   0.886   0.335 -0.1834  2.5563  2.4426
  334SOL     OW 1000   1.743   1.146   1.718 -0.1048 -0.0786  0.3005
  334SOL    HW1 1001   1.823   1.148   1.645  2.2940  1.5520  1.2769
  334SOL    HW2 1002   1.787   1.140   1.814  0.9054  0.4890  0.4266
  335SOL     OW 1003   1.889   2.785   2.628  0.5492 -0.3550 -0.4135
  335SOL    HW1 1004   1.808   2.795   2.691  0.2897  3.2111 -1.9466
  335SOL    HW2 1005   1.977   2.822   2.671  2.6012  1.2671 -1.3186
  336SOL     OW 1006   0.279   0.039   2.728  0.1065  0.6569  0.6926
  336SOL    HW1 1007   0.336   0.099   2.792 -0.6257 -2.4358 -0.0231
  336SOL    HW2 1008   0.245  -0.048   2.775 -1.5075 -0.8832 -1.6358
  337SOL     OW 1009   0.904   2.863   2.988  0.2083 -0.0453  0.6744
  337SOL    HW1 1010   0.888   2.789   3.052  1.6761  3.1857 -2.1488
  337SOL    HW2 1011   0.979   2.931   3.020  1.2435  2.0883  2.6856
  338SOL     OW 1012   3.089   0.937   0.714  0.0262  0.2784  0.5250
  338SOL    HW1 1013   2.990   0.934   0.747  0.9274  0.5303  2.0979
  338SOL    HW2 1014   3.112   1.027   0.668  2.0814  1.9117  0.6524
  339SOL     OW 1015   1.747   1.313   2.176  0.3164 -0.0524  0.3323
  339SOL    HW1 1016   1.668   1.340   2.118 -0.6057 -0.1439  1.3552
  339SOL    HW2 1017   1.785   1.405   2.197  2.9917  0.6360 -1.8035
  340SOL     OW 1018   2.228   0.815   1.074  0.0527  0.4206 -0.3239
  340SOL    HW1 1019   2.150   0.858   1.127  0.8442 -1.1651  0.3015
  340SOL    HW2 1020   2.202   0.715   1.042  1.4763  0.6793 -2.8691
  341SOL     OW 1021   1.928   2.107   0.395  0.3573  0.1745  0.1404
  341SOL    HW1 1022   1.924   2.134   0.299  0.1169  0.8111  1.5617
  341SOL    HW2 1023   1.997   2.031   0.418 -1.6896 -2.6467  0.2345
  342SOL     OW 1024   2.173   2.102   2.719 -0.1227  0.0939  0.0105
  342SOL    HW1 1025   2.214   2.013   2.753  0.4098  0.8858  2.4877
  342SOL    HW2 1026   2.072   2.095   2.704 -2.6449 -1.1915  1.7982
  343SOL     OW 1027   0.371   0.872   2.794 -0.2956  0.6092  0.8203
  343SOL    HW1 1028   0.357   0.924   2.702 -1.4601  0.4968  0.1686
  343SOL    HW2 1029   0.472   0.876   2.823 -1.7605  0.2776  1.9596
  344SOL     OW 1030   1.941   1.466   0.376 -0.2271 -0.3263 -0.7520
  344SOL    HW1 1031   1.970   1.384   0.315  0.3509 -2.4787 -0.0491
  344SOL    HW2 1032   1.863   1.442   0.439  1.2641  1.5464 -0.2648
  345SOL     OW 1033   1.346   2.197   2.842 -0.3133  0.2021 -0.0885
  345SOL    HW1 1034   1.245   2.177   2.816 -1.2384 -1.3067  4.0282
  345SOL    HW2 1035   1.419   2.168   2.779 -1.5830  0.7396  1.2314
  346SOL     OW 1036   2.294   0.851   1.394 -0.0884 -0.3105  0.3209
  346SOL    HW1 1037   2.238   0.916   1.448  0.6610  0.6138 -2.8244
  346SOL    HW2 1038   2.277   0.862   1.293 -0.9169 -5.0776  1.3952
  347SOL     OW 1039   0.725   2.770   1.657  0.5469 -0.3444  0.3517
  347SOL    HW1 1040   0.796   2.819   1.603  0.0064  1.2520  3.5312
  347SOL    HW2 1041   0.627   2.797   1.626  0.1073  0.3650 -0.4646
  348SOL     OW 1042   0.180   0.681   2.917  0.0086 -0.5335 -0.4541
  348SOL    HW1 1043   0.091   0.719   2.874  0.7618  0.6425  1.9647
  348SOL    HW2 1044   0.268   0.716   2.874  0.3868 -1.9722 -1.8683
  349SOL     OW 1045   1.820   0.433   2.831 -0.7984  0.3394  0.3746
  349SOL    HW1 1046   1.785   0.519   2.785 -1.2599  2.2963 -0.4024
  349SOL    HW2 1047   1.801   0.431   2.934 -1.4751 -1.3072  0.1664
  350SOL     OW 1048   1.682   0.392   0.364 -0.0274 -0.4194 -0.0137
  350SOL    HW1 1049   1.743   0.378   0.448 -1.6485  0.7074  0.1967
  350SOL    HW2 1050   1.671   0.490   0.324 -1.8039  0.3323 -1.1072
  351SOL     OW 1051   0.826   0.848   2.103  0.2453  0.0873  0.7681
  351SOL    HW1 1052   0.857   0.946   2.108 -2.1704 -2.3882  1.1821
  351SOL    HW2 1053   0.849   0.794   2.015  1.5129 -1.5836  0.4174
  352SOL     OW 1054   2.062   1.323   0.589  0.1045 -0.1897  0.2332
  352SOL    HW1 1055   2.035   1.400   0.525  0.4156 -1.0817 -0.3535
  352SOL    HW2 1056   1.987   1.277   0.644  1.0275 -2.4805  2.1157
  353SOL     OW 1057   2.215   2.742   1.101  0.3838 -0.3475 -0.0492
  353SOL    HW1 1058   2.255   2.658   1.157  1.5197 -0.0625  0.0679
  353SOL    HW2 1059   2.134   2.794   1.145  0.0162 -2.0109  2.2282
  354SOL     OW 1060   0.214   1.441   2.892  0.5207 -0.5743  0.0188
  354SOL    HW1 1061   0.191   1.515   2.821  0.4476  0.8779  1.1511
  354SOL    HW2 1062   0.312   1.410   2.894 -0.9732 -0.7224 -2.5988
  355SOL     OW 1063   0.701   1.558   0.591  0.3035  0.6360 -0.1405
  355SOL    HW1 1064   0.695   1.512   0.686  2.7890 -2.7250 -1.6907
  355SOL    HW2 1065   0.652   1.515   0.512  1.9010  4.0104  0.2382
  356SOL     OW 1066   0.927   0.291   2.133 -0.1647 -0.0084  0.2090
  356SOL    HW1 1067   1.013   0.230   2.134 -1.0591  0.7080  0.7750
  356SOL    HW2 1068   0.894   0.302   2.037  0.6502  1.5483  1.2996
  357SOL     OW 1069   0.998   1.377   0.189 -0.6746 -0.0095 -0.8133
  357SOL    HW1 1070   1.062   1.311   0.145 -1.4466  0.6319  0.2864
  357SOL    HW2 1071   1.045   1.416   0.270  1.2406  1.4926 -2.7658
  358SOL     OW 1072   1.703   1.457   0.503 -0.2694 -0.3012 -0.3971
  358SOL    HW1 1073   1.655   1.419   0.583 -1.3789 -0.2381 -0.3126
  358SOL    HW2 1074   1.663   1.428   0.414 -0.9530  2.6564  1.2519
  359SOL     OW 1075   1.589   2.591   0.220  0.1192 -0.0549 -0.3988
  359SOL    HW1 1076   1.555   2.501   0.186 -1.1448  0.9071 -0.7642
  359SOL    HW2 1077   1.515   2.643   0.271 -0.4716  0.9332 -0.8484
  360SOL     OW 1078   0.770   0.450   0.584 -0.7810  0.2615 -0.1664
  360SOL    HW1 1079   0.690   0.492   0.544 -2.5732 -1.2357  3.4104
  360SOL    HW2 1080   0.816   0.376   0.529  0.5250  0.0363 -1.1501
  361SOL     OW 1081   1.337   1.304   0.619 -0.3228 -0.8392 -0.0742
  361SOL    HW1 1082   1.361   1.328   0.715 -0.1432  0.3481 -1.1247
  361SOL    HW2 1083   1.257   1.365   0.582  0.5308  1.3797 -0.3113
  362SOL     OW 1084   1.371   1.823   0.694  0.3398  0.0868 -0.2368
  362SOL    HW1 1085   1.396   1.758   0.773  0.1494 -2.5009 -0.6639
  362SOL    HW2 1086   1.446   1.840   0.626  0.0513  0.7381 -1.6968
  363SOL     OW 1087   1.304   1.326   2.048 -0.2458  0.2263 -0.8435
  363SOL    HW1 1088   1.377   1.373   1.989  1.6490  0.8127  0.8316
  363SOL    HW2 1089   1.286   1.377   2.138 -1.4266 -0.9622  0.2475
  364SOL     OW 1090   0.531   2.375   1.986 -0.3507  0.2909 -0.3877
  364SOL    HW1 1091   0.428   2.347   1.984  0.2769 -0.4508 -1.3527
  364SOL    HW2 1092   0.555   2.461   1.928 -0.2655 -0.8448 -2.5443
  365SOL     OW 1093   0.923   1.976   1.411  0.4370  0.1758  0.1771
  365SOL    HW1 1094   0.822   1.966   1.432 -1.0831  1.1412  0.5910
  365SOL    HW2 1095   0.930   1.996   1.308 -0.6312  0.4079  0.1422
  366SOL     OW 1096   2.767   1.952   0.229 -0.2077 -0.4930 -0.1314
  366SOL    HW1 1097   2.704   1.877   0.202  0.4043  2.0651  2.4987
  366SOL    HW2 1098   2.863   1.922   0.227 -0.4376 -0.3496 -1.3048
  367SOL     OW 1099   0.877   1.139   3.087 -0.0111  0.2308 -0.3653
  367SOL    HW1 1100   0.895   1.080   3.172  1.0212 -0.5642 -3.1794
  367SOL    HW2 1101   0.951   1.210   3.080  0.8412 -0.1418  1.4723
  368SOL     OW 1102   1.466   0.558   0.533 -0.2208  0.1696 -0.7160
  368SOL    HW1 1103   1.366   0.566   0.515  2.3083 -0.4353 -2.1589
  368SOL    HW2 1104   1.521   0.572   0.446 -2.6526 -2.7380 -0.0374
  369SOL     OW 1105   0.404   1.563   0.162 -0.3352 -0.0961  0.3354
  369SOL    HW1 1106   0.452   1.643   0.213  3.8474  0.4268  0.5271
  369SOL    HW2 1107   0.312   1.539   0.200  1.6512 -0.1183  0.7695
  370SOL     OW 1108   0.402   2.178   1.077  0.6793  0.4792  0.3357
  370SOL    HW1 1109   0.417   2.272   1.036 -0.0150 -0.8675  0.9137
  370SOL    HW2 1110   0.305   2.141   1.052 -0.6021 -0.4520 -0.6252
  371SOL     OW 1111   2.921   2.220   2.749 -0.3126 -0.2396 -0.0034
  371SOL    HW1 1112   2.969   2.134   2.768 -1.3897 -0.2303 -2.7602
  371SOL    HW2 1113   2.938   2.291   2.822  1.1420 -0.8635  0.8808
  372SOL     OW 1114   1.017   2.052   1.149 -0.6660 -0.3583  0.4882
  372SOL    HW1 1115   0.949   2.093   1.081  0.1792 -1.2126  0.7615
  372SOL    HW2 1116   1.081   2.129   1.179  0.9152  0.7405 -0.0934
  373SOL     OW 1117   1.935   1.916   1.022  0.6113 -0.1791  0.0611
  373SOL    HW1 1118   2.027   1.948   1.052 -0.1974 -1.4008  1.9090
  373SOL    HW2 1119   1.870   1.989   0.984 -2.7498  0.3471 -1.7293
  374SOL     OW 1120   1.889   0.400   0.582  0.3947  0.1396  0.2736
  374SOL    HW1 1121   1.874   0.325   0.646  0.1329 -2.2013 -2.7080
  374SOL    HW2 1122   1.989   0.392   0.542  2.2134 -2.6970  0.5857
  375SOL     OW 1123   2.431   2.180   1.105 -0.2426 -0.2443  0.1328
  375SOL    HW1 1124   2.446   2.243   1.024 -0.9536  0.2989 -0.1608
  375SOL    HW2 1125   2.519   2.165   1.160  2.7213  1.4588  2.8125
  376SOL     OW 1126   0.009   0.647   1.412  0.3571  0.0286  0.3227
  376SOL    HW1 1127  -0.014   0.722   1.474 -0.6089  1.2616 -1.7559
  376SOL    HW2 1128  -0.000   0.554   1.452 -1.5811 -3.6649  0.7977
  377SOL     OW 1129   2.174   2.917   0.222  0.3545 -0.1123 -0.2920
  377SOL    HW1 1130   2.202   2.992   0.287 -2.1483 -1.7388  1.8384
  377SOL    HW2 1131   2.241   2.838   0.227  1.5878  0.4980  2.7583
  378SOL     OW 1132   1.881   1.906   2.431  0.6229 -0.0797  0.5306
  378SOL    HW1 1133   1.931   1.934   2.346  0.2292 -0.5885  2.9424
  378SOL    HW2 1134   1.850   1.806   2.436  2.6745 -0.2541  1.8796
  379SOL     OW 1135   0.769   0.145   2.836  0.0879  0.4093  0.2753
  379SOL    HW1 1136   0.793   0.050   2.807  2.1727  1.1223  1.1306
  379SOL    HW2 1137   0.752   0.223   2.763 -0.1215  3.3715 -0.7750
  380SOL     OW 1138   1.569   1.176   0.513  0.1705  0.3522  0.1002
  380SOL    HW1 1139   1.496   1.244   0.549  0.2929 -1.5162 -0.7271
  380SOL    HW2 1140   1.525   1.090   0.471 -2.6360 -1.4269 -1.0991
  381SOL     OW 1141   1.282   1.242   1.521 -0.1062  0.9124 -0.0011
  381SOL    HW1 1142   1.317   1.192   1.441 -0.3020  1.5012 -2.3151
  381SOL    HW2 1143   1.355   1.284   1.581 -2.1053  0.0011  1.3732
  382SOL     OW 1144   1.825   0.841   0.261 -0.1617 -0.5855 -0.2397
  382SOL    HW1 1145   1.849   0.803   0.168 -1.5619 -1.5814 -0.1800
  382SOL    HW2 1146   1.906   0.846   0.329 -1.4435  1.3147 -0.3836
  383SOL     OW 1147   2.560   0.997   1.457  0.6196 -0.5111 -0.0404
  383SOL    HW1 1148   2.465   0.956   1.436 -3.0864 -0.8616 -1.3242
  383SOL    HW2 1149   2.625   1.001   1.370 -0.3086 -0.6868 -1.5506
  384SOL     OW 1150   0.893   2.315   0.209  0.0958 -0.0881  0.8310
  384SOL    HW1 1151   0.826   2.390   0.223  1.3073  1.0992  1.9719
  384SOL    HW2 1152   0.889   2.249   0.288  1.9462  1.7171  0.4272
  385SOL     OW 1153   2.974   2.084   1.672  0.3581 -0.2575 -0.1069
  385SOL    HW1 1154   3.063   2.140   1.690 -1.9854 -0.0273  0.4204
  385SOL    HW2 1155   2.996   1.982   1.666 -0.3282 -1.3128  0.8875
  386SOL     OW 1156   0.458   1.021   0.446  0.1240 -0.0459 -0.2362
  386SOL    HW1 1157   0.444   0.935   0.500 -0.1487 -1.0567 -0.5226
  386SOL    HW2 1158   0.364   1.068   0.431  1.5128 -1.2341  2.8087
  387SOL     OW 1159   1.017   0.363   1.682 -0.0519 -0.1563 -0.1503
  387SOL    HW1 1160   1.086   0.439   1.683 -1.0232 -2.3213  0.6960
  387SOL    HW2 1161   0.984   0.330   1.590 -1.0759 -1.4671  0.6034
  388SOL     OW 1162   1.192   2.681   1.737  0.0462  0.2091  0.0881
  388SOL    HW1 1163   1.228   2.714   1.647  1.1501  1.9506  2.3192
  388SOL    HW2 1164   1.268   2.636   1.787 -0.1438 -0.3702 -0.2440
  389SOL     OW 1165   0.168   2.917   1.358 -0.0824 -0.4738  0.1188
  389SOL    HW1 1166   0.070   2.901   1.335  1.2948  0.8373  0.3260
  389SOL    HW2 1167   0.225   2.833   1.334  0.6698  0.1636 -4.4863
  390SOL     OW 1168   1.031   0.942   1.386 -0.0268  0.6767 -0.5266
  390SOL    HW1 1169   1.110   0.929   1.451 -1.4402 -1.1364 -1.1476
  390SOL    HW2 1170   1.029   1.038   1.344  0.1904  0.9987 -0.2592
  391SOL     OW 1171   2.181   1.140   1.075  0.0080 -0.6040  0.2450
  391SOL    HW1 1172   2.114   1.075   1.113  3.1319  2.4589  0.8848
  391SOL    HW2 1173   2.192   1.124   0.973 -1.6752 -0.5476 -0.2197
  392SOL     OW 1174   0.900   2.644   0.050 -0.3901  0.2261  0.8169
  392SOL    HW1 1175   0.989   2.590   0.022 -1.1783 -2.7957 -0.3111
  392SOL    HW2 1176   0.843   2.589   0.115 -1.2500 -2.4639 -0.0873
  393SOL     OW 1177   0.280   0.631   2.020  0.1718  0.5044 -0.4731
  393SOL    HW1 1178   0.190   0.591   2.040  1.9720 -0.2071 -1.8174
  393SOL    HW2 1179   0.321   0.592   1.930 -1.0571  1.0245 -0.7780
  394SOL     OW 1180   3.019   1.967   2.740  0.4372  0.4285 -0.2956
  394SOL    HW1 1181   3.122   1.958   2.755 -1.0028  0.6170 -2.2073
  394SOL    HW2 1182   2.989   1.911   2.657 -0.0495 -2.1610 -2.4439
  395SOL     OW 1183   1.621   1.943   0.557  0.0733 -0.1409  0.6171
  395SOL    HW1 1184   1.678   1.857   0.537  0.1582 -0.3529  1.1522
  395SOL    HW2 1185   1.660   1.999   0.634 -0.5874  1.6742 -1.5308
  396SOL     OW 1186   2.835   1.841   1.296 -0.2960  0.2907 -0.0244
  396SOL    HW1 1187   2.856   1.742   1.272  2.2722 -1.3008  1.2504
  396SOL    HW2 1188   2.766   1.843   1.372 -0.3768  0.4255 -2.2085
  397SOL     OW 1189   1.014   2.211   0.513 -0.2777 -0.2079  0.1006
  397SOL    HW1 1190   0.913   2.200   0.525  0.8800  3.5275 -2.4952
  397SOL    HW2 1191   1.050   2.303   0.541 -0.6071  0.4748 -0.0244
  398SOL     OW 1192   2.120   0.001   1.092  0.0729 -0.4862  0.0084
  398SOL    HW1 1193   2.044  -0.037   1.149  0.5059 -0.8825 -1.7881
  398SOL    HW2 1194   2.126   0.105   1.086 -1.2345  0.7350  0.8782
  399SOL     OW 1195   3.040   2.476   2.589  0.0110 -0.0257  1.0434
  399SOL    HW1 1196   2.946   2.440   2.571  0.3218  0.0051  0.1179
  399SOL    HW2 1197   3.103   2.404   2.636  0.8685 -2.4950 -0.1772
  400SOL     OW 1198   0.733   1.671   1.380 -0.8733 -0.5639 -0.3033
  400SOL    HW1 1199   0.657   1.676   1.446  2.1187 -0.7840  0.8251
  400SOL    HW2 1200   0.723   1.744   1.306  0.4299  0.5515  0.9880
  401SOL     OW 1201   1.885   0.234   1.154 -0.4945  0.4432 -0.1819
  401SOL    HW1 1202   1.909   0.215   1.258  0.6351  2.2636  2.5748
  401SOL    HW2 1203   1.796   0.286   1.136 -0.4713  1.0374  0.0380
  402SOL     OW 1204   1.349   0.225   3.082 -0.0922  0.6295 -0.0057
  402SOL    HW1 1205   1.432   0.200   3.026  0.2141  0.1757  2.0246
  402SOL    HW2 1206   1.295   0.300   3.037 -0.7447 -0.8155  1.7507
  403SOL     OW 1207   2.294   1.804   0.912  0.0350  0.4635 -0.1156
  403SOL    HW1 1208   2.375   1.840   0.858  1.0325  1.2131 -3.2495
  403SOL    HW2 1209   2.258   1.883   0.977 -1.4637  2.0856  2.5680
  404SOL     OW 1210   0.200   2.467   2.768 -0.0927  0.4001 -0.4523
  404SOL    HW1 1211   0.302   2.447   2.743  0.5162 -4.2499  1.6720
  404SOL    HW2 1212   0.184   2.569   2.791 -2.0042  0.6690 -3.1409
  405SOL     OW 1213   0.079   2.475   0.741  0.5171 -0.1155  0.0929
  405SOL    HW1 1214   0.120   2.402   0.676 -2.7321 -1.2241  1.4015
  405SOL    HW2 1215   0.141   2.559   0.755 -0.8016 -2.3910  1.0175
  406SOL     OW 1216   0.043   1.578   3.084 -0.1477  0.3169  0.2399
  406SOL    HW1 1217   0.116   1.539   3.021  1.4156 -0.7300  0.1918
  406SOL    HW2 1218   0.066   1.547   3.182 -0.5664 -0.0143 -1.1603
  407SOL     OW 1219   1.555   0.892   0.966  0.0373 -0.5960 -0.0083
  407SOL    HW1 1220   1.540   0.880   0.864  2.3039  0.7214 -1.7724
  407SOL    HW2 1221   1.507   0.976   0.997  0.6531 -3.4969 -1.9605
  408SOL     OW 1222   1.587   2.417   0.985 -0.1081 -0.3250  0.2529
  408SOL    HW1 1223   1.654   2.407   0.905  0.2861 -0.3453 -0.6152
  408SOL    HW2 1224   1.556   2.512   0.997  0.1719 -1.8666 -0.4879
  409SOL     OW 1225   0.657   0.767   0.770 -0.5991  0.3250  0.2731
  409SOL    HW1 1226   0.570   0.786   0.718  1.0440  1.7290 -2.7912
  409SOL    HW2 1227   0.661   0.673   0.811  1.3185  1.5318 -2.0914
  410SOL     OW 1228   1.246   2.034   1.417  0.4268 -0.4240  0.1741
  410SOL    HW1 1229   1.324   1.980   1.456  0.6358  1.1003 -5.2259
  410SOL    HW2 1230   1.160   1.977   1.393 -3.8565  1.7597 -0.8529
  411SOL     OW 1231   2.565   1.839   3.009 -0.8911 -0.4713  0.7775
  411SOL    HW1 1232   2.586   1.933   3.046 -1.8004  0.0268  0.0361
  411SOL    HW2 1233   2.488   1.842   2.939 -0.5419  0.8273 -0.0032
  412SOL     OW 1234   1.506   2.461   2.141 -0.4018 -0.1809  0.4100
  412SOL    HW1 1235   1.593   2.460   2.198 -0.2665  0.8937 -1.9432
  412SOL    HW2 1236   1.426   2.498   2.197 -1.2675 -0.2189 -2.4387
  413SOL     OW 1237   0.009   0.187   2.932 -0.4176  0.1841  0.3584
  413SOL    HW1 1238  -0.044   0.124   2.996 -0.7649 -2.4562 -0.3691
  413SOL    HW2 1239   0.100   0.218   2.975  1.6646 -1.9484  2.7460
  414SOL     OW 1240   1.795   1.502   1.197 -0.9123 -0.3188  0.2073
  414SOL    HW1 1241   1.811   1.600   1.228 -0.8519  0.7315 -0.9234
  414SOL    HW2 1242   1.763   1.498   1.099  3.0462  0.6573  1.1254
  415SOL     OW 1243   0.338   2.238   0.692  0.0590 -0.2947 -0.3474
  415SOL    HW1 1244   0.315   2.246   0.796 -0.7777 -1.0891 -1.6562
  415SOL    HW2 1245   0.255   2.188   0.650 -0.5221 -0.5252  1.0647
  416SOL     OW 1246   0.352   1.050   1.060 -0.4432 -0.1058 -0.3315
  416SOL    HW1 1247   0.329   0.970   1.000 -0.5192 -0.7039 -1.5045
  416SOL    HW2 1248   0.453   1.067   1.078  0.2221 -0.4594 -0.0175
  417SOL     OW 1249   2.296   2.401   2.047  0.1874  0.5600  0.2799
  417SOL    HW1 1250   2.353   2.317   2.029  1.6209  1.2197 -2.5233
  417SOL    HW2 1251   2.268   2.402   2.148  0.2541  2.2786 -0.0794
  418SOL     OW 1252   1.063   0.529   1.348  0.1922 -0.4799  0.0194
  418SOL    HW1 1253   0.973   0.474   1.333  0.2368 -2.0014 -0.1458
  418SOL    HW2 1254   1.141   0.518   1.272 -0.6646 -1.4359 -0.6673
  419SOL     OW 1255   0.932   0.527   2.965  0.0057 -0.2759 -0.3076
  419SOL    HW1 1256   0.885   0.507   2.878 -0.1816  3.0165  0.3030
  419SOL    HW2 1257   0.947   0.623   2.991 -3.6750  0.4248  5.0258
  420SOL     OW 1258   0.113   2.207   0.545  0.4074 -0.2810 -0.4722
  420SOL    HW1 1259   0.117   2.185   0.440  1.8443  3.8767 -1.8828
  420SOL    HW2 1260   0.030   2.158   0.586 -0.1545 -0.1887 -0.0118
  421SOL     OW 1261   0.339   2.950   0.596  0.1012 -0.2172  0.0210
  421SOL    HW1 1262   0.323   2.909   0.688 -2.8445 -1.5367 -0.6006
  421SOL    HW2 1263   0.396   3.038   0.597 -1.7386  1.2846  1.1137
  422SOL     OW 1264   0.989   2.626   1.036 -0.2377 -0.4173 -0.3999
  422SOL    HW1 1265   1.035   2.650   0.947  0.3951 -0.9094  1.0376
  422SOL    HW2 1266   1.056   2.632   1.119  3.3668 -0.1633  1.7999
  423SOL     OW 1267   0.149   0.757   1.188 -0.3190  0.0793  0.5927
  423SOL    HW1 1268   0.121   0.703   1.275 -2.2227 -0.6074 -1.1332
  423SOL    HW2 1269   0.093   0.849   1.180 -0.4164  1.4107  0.7158
  424SOL     OW 1270   1.162   2.195   2.031  0.1965  0.6124  0.0831
  424SOL    HW1 1271   1.144   2.298   2.022 -0.5080  2.5198 -0.2003
  424SOL    HW2 1272   1.160   2.153   2.128  0.6499  0.1853  1.3503
  425SOL     OW 1273   1.996   1.310   0.999  0.6673 -0.2635  0.0534
  425SOL    HW1 1274   2.072   1.271   1.058  1.0974 -1.6312 -3.0826
  425SOL    HW2 1275   2.010   1.407   0.972 -0.0511 -1.5475 -3.6355
  426SOL     OW 1276   1.424   1.615   1.245 -0.1621 -0.2082 -0.2362
  426SOL    HW1 1277   1.434   1.700   1.181  2.3136 -0.2023 -1.4492
  426SOL    HW2 1278   1.390   1.629   1.337 -0.8512  2.2593 -2.7589
  427SOL     OW 1279   1.901   2.334   2.047  0.3048  0.4386  0.2092
  427SOL    HW1 1280   1.941   2.295   2.141  0.7586 -1.8153  1.7993
  427SOL    HW2 1281   1.902   2.437   2.048 -1.5916  1.7006  2.4127
  428SOL     OW 1282   0.852   3.087   0.107  0.3439  0.4925 -0.2698
  428SOL    HW1 1283   0.875   3.167   0.048  3.1885 -0.0082  0.0578
  428SOL    HW2 1284   0.944   3.033   0.117  1.2956 -1.8184 -0.1063
  429SOL     OW 1285   1.316   0.140   0.238  0.2445  0.3411 -0.2002
  429SOL    HW1 1286   1.402   0.133   0.295 -0.7608 -2.9514  0.3768
  429SOL    HW2 1287   1.330   0.166   0.139  0.3051  1.0790  2.5073
  430SOL     OW 1288   2.911   1.390   0.299  0.1561  0.1774  0.2218
  430SOL    HW1 1289   2.887   1.439   0.209 -3.5663  1.1561 -4.0698
  430SOL    HW2 1290   2.884   1.441   0.382  2.9483 -1.3168  1.6787
  431SOL     OW 1291   2.060   1.602   0.944 -0.4172  0.0451 -0.5585
  431SOL    HW1 1292   2.144   1.663   0.951 -1.7299  0.7996 -0.9166
  431SOL    HW2 1293   1.981   1.650   0.899 -1.2254  0.4395  0.3620
  432SOL     OW 1294   2.945   2.149   1.195  0.0314 -0.0489  0.4516
  432SOL    HW1 1295   2.924   2.077   1.268 -0.7579  1.6937  3.7276
  432SOL    HW2 1296   2.975   2.238   1.235  1.3631 -0.7299 -0.1635
  433SOL     OW 1297   1.842   0.240   0.816  0.1193 -1.1560 -0.7695
  433SOL    HW1 1298   1.802   0.339   0.836 -1.9299  4.0580  1.5090
  433SOL    HW2 1299   1.886   0.193   0.896 -3.4002 -1.9508  0.3978
  434SOL     OW 1300   1.597   0.340   0.675  0.5682 -0.2765  0.1079
  434SOL    HW1 1301   1.552   0.417   0.614 -2.0000  0.7262 -1.7461
  434SOL    HW2 1302   1.622   0.367   0.772  0.7623 -3.0470  0.7040
  435SOL     OW 1303   1.566   1.445   2.032  0.5100 -0.5147  0.2291
  435SOL    HW1 1304   1.533   1.485   2.125 -2.5177 -1.9075 -1.2211
  435SOL    HW2 1305   1.552   1.516   1.954  2.0850  2.3801 -1.2854
  436SOL     OW 1306   1.706   2.738   2.228 -0.2502 -0.1016 -0.1461
  436SOL    HW1 1307   1.700   2.814   2.299 -0.5497  0.2805 -0.1770
  436SOL    HW2 1308   1.716   2.638   2.271  0.8689 -0.3151  0.6406
  437SOL     OW 1309   1.090   2.947   0.934 -0.0857 -0.6242 -0.2445
  437SOL    HW1 1310   1.025   3.025   0.916  1.8618 -1.1360  1.4678
  437SOL    HW2 1311   1.103   2.937   1.035 -1.2639 -2.7226 -1.0198
  438SOL     OW 1312   1.002   2.666   1.374  0.9302  0.5220  1.1122
  438SOL    HW1 1313   1.098   2.665   1.415 -0.4778  1.8466 -2.7550
  438SOL    HW2 1314   0.980   2.569   1.336 -2.4910 -0.5678  1.1569
  439SOL     OW 1315   0.679   1.824   1.082 -0.2586  0.4711 -0.8547
  439SOL    HW1 1316   0.643   1.902   1.023 -0.5705  3.2601  2.3449
  439SOL    HW2 1317   0.600   1.768   1.117 -0.5058  0.8699  0.1554
  440SOL     OW 1318   1.091   2.457   1.979  0.5458  0.1293  0.1197
  440SOL    HW1 1319   1.022   2.490   1.908 -1.4615 -0.1924 -1.6514
  440SOL    HW2 1320   1.190   2.480   1.952  0.9356 -0.0844 -0.4062
  441SOL     OW 1321   0.409   2.708   1.529 -0.2909 -0.4451  0.1159
  441SOL    HW1 1322   0.492   2.646   1.534  3.5323  0.4186 -1.4122
  441SOL    HW2 1323   0.355   2.695   1.438 -0.7469  0.9552  0.6691
  442SOL     OW 1324   2.235   0.735   2.500  0.5375 -0.2390  0.5621
  442SOL    HW1 1325   2.222   0.642   2.539 -1.2145  0.1582  0.8004
  442SOL    HW2 1326   2.158   0.799   2.520 -0.8240 -1.5356  0.3487
  443SOL     OW 1327   1.189   2.684   2.185 -0.1279 -0.0193  0.5751
  443SOL    HW1 1328   1.238   2.753   2.239  1.8251 -0.4348 -0.2519
  443SOL    HW2 1329   1.206   2.591   2.232 -0.5648 -1.6416 -0.8574
  444SOL     OW 1330   1.018   1.326   1.585 -0.8913 -0.3698  0.2944
  444SOL    HW1 1331   1.114   1.301   1.551 -0.4325  0.8035  1.0379
  444SOL    HW2 1332   0.997   1.428   1.577  0.1882  0.8135  1.3912
  445SOL     OW 1333   3.068   2.366   1.967 -0.1019  0.1687  0.5757
  445SOL    HW1 1334   3.080   2.459   1.923 -0.8064 -0.3452  1.0057
  445SOL    HW2 1335   2.973   2.341   1.998 -0.4011  1.1320 -0.2076
  446SOL     OW 1336   0.185   1.913   2.343  0.6008  0.1907  0.4033
  446SOL    HW1 1337   0.158   2.015   2.343  1.9880  0.5389 -1.8956
  446SOL    HW2 1338   0.115   1.857   2.289  0.2590 -3.2422  1.2385
  447SOL     OW 1339   1.201   1.704   1.967 -0.2424 -0.4825 -0.4449
  447SOL    HW1 1340   1.151   1.788   1.926 -2.1522  0.6213  0.2015
  447SOL    HW2 1341   1.301   1.716   1.980 -1.3059 -0.8146  0.3807
  448SOL     OW 1342   0.099   1.463   1.966 -0.6908  0.3076 -0.0365
  448SOL    HW1 1343   0.091   1.570   1.959 -0.5615  1.8485 -0.1419
  448SOL    HW2 1344   0.134   1.428   2.057  1.0929  0.8893 -4.0555
  449SOL     OW 1345   1.996   2.997   0.856 -0.2011 -0.1604 -0.1390
  449SOL    HW1 1346   2.054   3.009   0.942  1.1475 -0.4482  1.8973
  449SOL    HW2 1347   1.994   2.891   0.833 -0.4587 -0.3113 -1.0426
  450SOL     OW 1348   2.266   1.361   0.835  0.0584  0.1299  0.7092
  450SOL    HW1 1349   2.221   1.267   0.843  1.3171  1.1798  2.3985
  450SOL    HW2 1350   2.203   1.418   0.772 -0.4380  3.0661  0.8926
  451SOL     OW 1351   1.443   0.028   1.464 -0.0825  0.1455 -0.3585
  451SOL    HW1 1352   1.360   0.092   1.453 -0.8769  1.4762  0.4935
  451SOL    HW2 1353   1.443  -0.021   1.554  0.7810 -0.4893  0.7300
  452SOL     OW 1354   2.658   2.320   2.244  0.2359 -0.2369  0.1370
  452SOL    HW1 1355   2.640   2.416   2.289  0.3094  3.5024  0.9771
  452SOL    HW2 1356   2.687   2.249   2.313  0.8267  0.4707  1.4727
  453SOL     OW 1357   2.433   2.614   3.055 -0.1137  0.1407  0.2176
  453SOL    HW1 1358   2.343   2.664   3.069  1.2446 -0.0882  2.2397
  453SOL    HW2 1359   2.429   2.546   2.974  1.5582  0.1704 -0.8092
  454SOL     OW 1360   0.969   1.115   2.105 -0.8560 -0.1975 -0.3688
  454SOL    HW1 1361   0.958   1.165   2.012 -0.3623  1.1178 -2.3380
  454SOL    HW2 1362   1.071   1.114   2.131  2.0109  0.5771 -1.4588
  455SOL     OW 1363   0.735   2.657   2.884 -0.2506 -0.3761  0.2996
  455SOL    HW1 1364   0.811   2.718   2.908 -2.4567 -1.7476  2.0142
  455SOL    HW2 1365   0.704   2.597   2.964 -1.7196 -1.8918  1.4494
  456SOL     OW 1366   0.540   1.783   0.284  0.3772 -0.1717 -0.6842
  456SOL    HW1 1367   0.593   1.754   0.361 -2.3204 -0.8165  0.1216
  456SOL    HW2 1368   0.554   1.886   0.273  0.0126 -1.3181  1.1531
  457SOL     OW 1369   0.318   2.606   0.744 -0.1655 -0.5194 -0.5546
  457SOL    HW1 1370   0.318   2.602   0.641 -0.8509  0.0507  1.0676
  457SOL    HW2 1371   0.392   2.562   0.795 -0.0845  0.1491 -0.8839
  458SOL     OW 1372   2.971   3.005   1.263  0.2264 -0.1253 -0.4258
  458SOL    HW1 1373   3.015   3.096   1.272  0.0465 -2.6986  0.4339
  458SOL    HW2 1374   2.922   2.992   1.173 -2.8711  2.9622  1.6303
  459SOL     OW 1375   2.095   2.523   0.920  0.2923 -0.1121 -0.4990
  459SOL    HW1 1376   2.102   2.598   0.990  1.9665 -1.0893  0.4486
  459SOL    HW2 1377   2.179   2.521   0.860 -2.0943 -3.6758  2.2728
  460SOL     OW 1378   1.094   1.929   2.923 -0.5055  0.0254 -0.3946
  460SOL    HW1 1379   1.110   2.031   2.932 -0.9913 -2.0089 -0.9587
  460SOL    HW2 1380   1.178   1.875   2.945 -2.9549  0.9463  1.0889
  461SOL     OW 1381   0.480   2.108   2.703  0.6397  0.0960  0.4106
  461SOL    HW1 1382   0.446   2.030   2.639  1.0263  2.0668 -1.4612
  461SOL    HW2 1383   0.522   2.072   2.792  0.0611  0.6564  1.0147
  462SOL     OW 1384   0.938   1.208   1.852  0.0140 -0.5195  0.4261
  462SOL    HW1 1385   0.982   1.126   1.811 -0.9644 -0.1448  0.5785
  462SOL    HW2 1386   0.940   1.293   1.788 -0.0149  2.8527 -4.1592
  463SOL     OW 1387   0.462   0.793   0.592  0.2889  0.4099 -0.4069
  463SOL    HW1 1388   0.501   0.715   0.533 -2.6343  1.5178 -2.9525
  463SOL    HW2 1389   0.361   0.792   0.583  1.5173  0.4377  0.2344
  464SOL     OW 1390   0.517   2.231   2.257 -0.6344 -0.0584 -0.7432
  464SOL    HW1 1391   0.474   2.302   2.321  1.5330 -2.6863  2.2683
  464SOL    HW2 1392   0.530   2.273   2.159 -1.1117  2.2720 -0.9752
  465SOL     OW 1393   0.226   0.877   0.863  0.0092 -0.5374  0.6157
  465SOL    HW1 1394   0.137   0.898   0.818  2.1684  0.2561  0.5719
  465SOL    HW2 1395   0.238   0.776   0.879  0.7616  2.6920  1.3335
  466SOL     OW 1396   1.378   1.109   1.075 -0.1293 -0.2979 -0.2721
  466SOL    HW1 1397   1.443   1.188   1.094  1.1512 -1.7993 -3.7905
  466SOL    HW2 1398   1.277   1.140   1.066 -0.6754  0.8940 -0.8429
  467SOL     OW 1399   0.456   0.365   2.368 -0.0521  0.2778  0.3527
  467SOL    HW1 1400   0.450   0.455   2.419 -0.6414 -0.2885 -0.8983
  467SOL    HW2 1401   0.454   0.285   2.432  0.0780 -0.5644  0.3236
  468SOL     OW 1402   0.472   2.251   1.669  0.1163 -0.2569  0.3926
  468SOL    HW1 1403   0.539   2.307   1.724 -0.0740 -0.7025  0.4052
  468SOL    HW2 1404   0.443   2.293   1.579  2.7262  1.0274  0.4332
  469SOL     OW 1405   1.543   1.328   1.123  0.2190 -0.0512  0.2404
  469SOL    HW1 1406   1.631   1.273   1.103  0.3221 -2.5953 -2.8366
  469SOL    HW2 1407   1.567   1.411   1.181 -1.3539 -2.5137  0.8005
  470SOL     OW 1408   3.021   1.670   0.725  0.2868 -0.0543  0.3085
  470SOL    HW1 1409   3.109   1.694   0.767  0.3220 -1.0516 -1.6062
  470SOL    HW2 1410   2.938   1.708   0.770 -1.7645 -2.3175  1.7293
  471SOL     OW 1411   2.690   1.308   2.121  0.2541 -0.2321 -0.3288
  471SOL    HW1 1412   2.660   1.256   2.207 -0.9528  1.3392 -1.7008
  471SOL    HW2 1413   2.751   1.391   2.144 -0.3360  0.1943  2.0182
  472SOL     OW 1414   1.097   2.468   3.084  0.1689  0.1512  0.1919
  472SOL    HW1 1415   1.166   2.449   3.161  0.3488 -1.0284  0.0549
  472SOL    HW2 1416   1.043   2.382   3.065 -0.0886 -0.8938  0.8891
  473SOL     OW 1417   1.090   1.574   0.902  0.0418  0.0313 -0.1116
  473SOL    HW1 1418   0.997   1.590   0.942 -1.0237  2.3303  0.9139
  473SOL    HW2 1419   1.158   1.567   0.980 -0.4364 -0.0440 -2.0740
  474SOL     OW 1420   0.832   1.203   0.724 -0.0905 -0.4856  0.1325
  474SOL    HW1 1421   0.782   1.220   0.635 -0.5693 -0.8117 -0.2789
  474SOL    HW2 1422   0.877   1.109   0.731  1.2409 -1.8627  0.6358
  475SOL     OW 1423   2.888   0.080   0.752 -0.1672 -0.0938 -0.5950
  475SOL    HW1 1424   2.969   0.090   0.811 -2.0564 -0.9386 -0.2523
  475SOL    HW2 1425   2.804   0.105   0.807  1.9178  0.6366 -1.0445
  476SOL     OW 1426   0.891   3.066   1.814 -0.3699  0.5655  0.2175
  476SOL    HW1 1427   0.988   3.041   1.843  1.0660 -2.9069  0.9113
  476SOL    HW2 1428   0.870   3.020   1.724 -1.2563  1.2765 -1.5329
  477SOL     OW 1429   1.412   0.326   2.431  0.4222 -0.2271  0.0743
  477SOL    HW1 1430   1.390   0.315   2.532 -0.5009 -0.4125 -0.0809
  477SOL    HW2 1431   1.513   0.309   2.411  0.3063  1.8376  1.0687
  478SOL     OW 1432   2.293   1.804   0.234  1.1619  0.3183 -0.0746
  478SOL    HW1 1433   2.235   1.723   0.216  1.5390 -0.6462  0.4172
  478SOL    HW2 1434   2.392   1.782   0.207 -0.2137  0.7351  0.2900
  479SOL     OW 1435   1.312   1.068   2.883 -0.4330  0.6261  0.4912
  479SOL    HW1 1436   1.393   1.065   2.817 -0.2147 -1.3643 -1.3138
  479SOL    HW2 1437   1.220   1.029   2.843 -3.3280 -1.7500  2.4081
  480SOL     OW 1438   2.471   2.347   0.383  0.1284  0.2876  0.1964
  480SOL    HW1 1439   2.421   2.282   0.448  1.4263 -0.3501  0.1529
  480SOL    HW2 1440   2.422   2.364   0.291 -0.6212  1.2652 -3.0610
  481SOL     OW 1441   1.131   1.156   0.772  0.4193  0.4041 -0.0373
  481SOL    HW1 1442   1.138   1.239   0.713 -0.8934 -0.3943  0.1676
  481SOL    HW2 1443   1.128   1.186   0.870 -1.7592 -2.4923  0.2980
  482SOL     OW 1444   1.601   0.315   2.051  0.0166  0.1093 -0.3617
  482SOL    HW1 1445   1.604   0.382   1.973 -1.1963 -1.1203  1.4502
  482SOL    HW2 1446   1.699   0.285   2.080  4.2510 -3.2378 -1.1872
  483SOL     OW 1447   0.138   2.331   1.289  0.3595  0.2910  0.2362
  483SOL    HW1 1448   0.047   2.339   1.339 -1.4704  0.8142 -2.3421
  483SOL    HW2 1449   0.143   2.390   1.208  0.2005 -1.7325  1.0450
  484SOL     OW 1450   1.734   0.989   1.400  0.1157  0.1139 -0.2394
  484SOL    HW1 1451   1.764   0.895   1.363 -2.5036 -1.5126  0.1502
  484SOL    HW2 1452   1.808   1.034   1.463  0.1936 -1.0453  0.6341
  485SOL     OW 1453   0.692   1.101   1.788  0.5832  0.1902 -0.2582
  485SOL    HW1 1454   0.710   1.089   1.683  0.4046 -0.0215 -3.8002
  485SOL    HW2 1455   0.775   1.142   1.832  0.0975 -0.9679  1.3908
  486SOL     OW 1456   0.913   1.953   2.461 -0.2786 -0.7192  0.4685
  486SOL    HW1 1457   0.953   1.899   2.540  3.0204  0.4160  0.3314
  486SOL    HW2 1458   0.832   2.007   2.489 -2.3891 -1.6204 -0.7362
  487SOL     OW 1459   1.734   1.493   0.930  0.6425 -0.0286 -0.4142
  487SOL    HW1 1460   1.739   1.402   0.873 -0.5387 -3.8678 -0.4079
  487SOL    HW2 1461   1.797   1.568   0.886  3.0755  1.6970 -0.1409
  488SOL     OW 1462   2.972   0.936   2.232  0.2785 -0.4568 -0.3885
  488SOL    HW1 1463   2.984   0.865   2.157 -1.2310  0.3404  2.3747
  488SOL    HW2 1464   2.998   0.904   2.329  2.6035  0.1036  1.1947
  489SOL     OW 1465   2.758   0.274   1.329  0.5852 -0.1549 -0.3392
  489SOL    HW1 1466   2.706   0.223   1.403 -0.4908 -0.3292 -1.7576
  489SOL    HW2 1467   2.860   0.252   1.322  3.8168 -0.8475 -0.8775
  490SOL     OW 1468   1.416   2.967   2.845 -0.1846  0.1838  0.8794
  490SOL    HW1 1469   1.482   2.886   2.845  2.5346 -0.3802 -3.0294
  490SOL    HW2 1470   1.381   2.999   2.751 -0.3209 -3.1027 -0.2939
  491SOL     OW 1471   1.863   1.583   2.706  0.1157  0.0046 -0.3123
  491SOL    HW1 1472   1.812   1.529   2.775 -2.0568  3.2752 -1.0636
  491SOL    HW2 1473   1.963   1.574   2.691  1.2765  0.3524  0.1561
  492SOL     OW 1474   0.460   1.985   0.748 -0.2512 -0.9819 -0.4422
  492SOL    HW1 1475   0.518   2.025   0.823 -0.3638 -3.2107 -0.6769
  492SOL    HW2 1476   0.429   2.052   0.680  1.8412 -0.3867 -0.7967
  493SOL     OW 1477   0.421   1.389   2.099  0.1773  0.3002  0.1836
  493SOL    HW1 1478   0.362   1.473   2.101  1.2106  1.8036 -1.1551
  493SOL    HW2 1479   0.415   1.337   2.190 -0.1340  4.9300  2.9845
  494SOL     OW 1480   2.645   2.660   0.127 -0.2912 -0.2497 -0.4769
  494SOL    HW1 1481   2.667   2.577   0.183 -0.2965 -0.8089  1.8923
  494SOL    HW2 1482   2.575   2.645   0.050 -0.0626  0.1830 -0.2026
  495SOL     OW 1483   2.738   2.673   2.687 -0.0870  0.0689 -0.0717
  495SOL    HW1 1484   2.740   2.591   2.627  2.9792  1.8429  0.5457
  495SOL    HW2 1485   2.767   2.754   2.626  1.6067  1.5507 -0.5744
  496SOL     OW 1486   2.104   2.205   0.742  0.3020  0.0872  0.0019
  496SOL    HW1 1487   2.092   2.248   0.841 -2.0978  1.4376 -0.7463
  496SOL    HW2 1488   2.139   2.111   0.737 -0.2193  2.2282 -1.8655
  497SOL     OW 1489   0.222   2.983   2.401  0.3802 -0.0272  0.0108
  497SOL    HW1 1490   0.168   3.050   2.456  2.2706  1.2878 -1.3854
  497SOL    HW2 1491   0.282   3.025   2.329 -1.3309  0.8430 -2.3439
  498SOL     OW 1492   1.222   1.478   1.131 -0.4440  0.3759 -0.2853
  498SOL    HW1 1493   1.307   1.528   1.139 -1.3657 -0.7341  0.9820
  498SOL    HW2 1494   1.147   1.508   1.200 -2.0757 -1.4144  0.0749
  499SOL     OW 1495   0.847   1.812   0.542  0.1370 -0.8316 -0.1204
  499SOL    HW1 1496   0.806   1.727   0.574 -0.2067 -1.2043 -1.0603
  499SOL    HW2 1497   0.829   1.891   0.605 -0.1836 -2.0522 -0.5164
  500SOL     OW 1498   1.397   2.980   1.747  0.3421  0.0860  0.2670
  500SOL    HW1 1499   1.437   3.032   1.828  0.6022  0.2203  0.4069
  500SOL    HW2 1500   1.425   2.883   1.744  1.0147  2.1315  2.0456
  501SOL     OW 1501   0.737   1.146   2.257  0.4763 -0.0572 -0.6540
  501SOL    HW1 1502   0.669   1.066   2.242  0.3910  1.0407  0.5295
  501SOL    HW2 1503   0.814   1.145   2.192 -0.1218 -2.1150  1.6973
  502SOL     OW 1504   2.617   0.954   1.735 -0.4852 -0.2404 -0.1261
  502SOL    HW1 1505   2.584   0.991   1.648 -0.1850 -0.5025  0.4233
  502SOL    HW2 1506   2.568   0.865   1.755  2.5695  0.1723  0.2611
  503SOL     OW 1507   1.358   0.193   0.606 -0.3758 -0.3164  0.0527
  503SOL    HW1 1508   1.277   0.258   0.611  1.1489 -1.2241  2.6627
  503SOL    HW2 1509   1.447   0.243   0.632 -2.3522  1.4997  0.9872
  504SOL     OW 1510   2.985   2.359   1.385 -0.7501  0.4286  0.3533
  504SOL    HW1 1511   2.985   2.430   1.455 -0.2025 -2.8748 -0.6221
  504SOL    HW2 1512   2.914   2.287   1.414 -1.6830 -3.6786  0.0854
  505SOL     OW 1513   2.285   1.228   1.449  0.0507  0.5013 -0.4054
  505SOL    HW1 1514   2.275   1.270   1.353 -1.5009 -0.4892  1.4385
  505SOL    HW2 1515   2.365   1.265   1.499 -0.7204 -1.8553 -1.8961
  506SOL     OW 1516   1.907   0.263   1.816 -0.1714  0.0629  0.3608
  506SOL    HW1 1517   1.999   0.225   1.781  0.9447  1.4238  2.6243
  506SOL    HW2 1518   1.928   0.361   1.841 -2.4158  2.8072  0.0428
  507SOL     OW 1519   0.493   0.638   2.174  0.4293  0.2224  0.0465
  507SOL    HW1 1520   0.405   0.652   2.117 -0.3135 -0.6628 -1.3312
  507SOL    HW2 1521   0.547   0.560   2.138 -1.1990 -2.2590 -1.0507
  508SOL     OW 1522   0.241   1.676   0.872 -0.9355 -0.2069 -0.1057
  508SOL    HW1 1523   0.322   1.722   0.823 -0.8366  1.1179  0.1332
  508SOL    HW2 1524   0.244   1.691   0.975  3.0581 -0.5591  1.2759
  509SOL     OW 1525   1.343   1.194   2.526  0.3383  0.0716  0.6164
  509SOL    HW1 1526   1.241   1.184   2.521  2.2432 -1.8507  2.1447
  509SOL    HW2 1527   1.403   1.104   2.513  0.8609  1.5129  1.6486
  510SOL     OW 1528   1.337   1.961   2.071  0.2851  0.5487 -0.6561
  510SOL    HW1 1529   1.276   2.044   2.044  1.8251 -1.0204  0.2165
  510SOL    HW2 1530   1.281   1.898   2.134  0.0953 -1.8494  1.4917
  511SOL     OW 1531   0.027   2.643   1.329  0.2752  0.1726 -0.0863
  511SOL    HW1 1532  -0.040   2.615   1.255  0.4089 -0.7600 -2.4359
  511SOL    HW2 1533  -0.010   2.630   1.424 -0.2366  0.6419 -0.9840
  512SOL     OW 1534   2.418   0.433   1.352 -0.3514  0.0699  0.0108
  512SOL    HW1 1535   2.314   0.432   1.349 -0.4693 -0.8152 -2.8680
  512SOL    HW2 1536   2.452   0.354   1.291 -0.2585 -2.0401  0.1854
  513SOL     OW 1537   2.489   1.992   0.843  0.4527  0.0607 -0.0131
  513SOL    HW1 1538   2.433   2.077   0.814 -1.0542 -0.2621 -1.7869
  513SOL    HW2 1539   2.562   1.970   0.772 -0.1802 -1.2655  1.0191
  514SOL     OW 1540   0.684   2.771   0.376 -0.1902 -0.0003 -0.0448
  514SOL    HW1 1541   0.670   2.829   0.294 -1.9806 -1.8206  0.4378
  514SOL    HW2 1542   0.706   2.830   0.457 -0.6858  0.2524 -1.2252
  515SOL     OW 1543   1.979   1.197   2.316 -0.4588  0.4317  0.8257
  515SOL    HW1 1544   1.920   1.217   2.231 -0.1020  1.1291  0.4424
  515SOL    HW2 1545   1.932   1.204   2.412 -2.1347  1.5508 -1.2311
  516SOL     OW 1546   0.267   0.299   1.946 -0.2846 -0.2065  0.3299
  516SOL    HW1 1547   0.360   0.297   1.896 -1.0879  0.1423  0.7225
  516SOL    HW2 1548   0.188   0.266   1.886 -2.1092 -0.4713 -0.5830
  517SOL     OW 1549   0.346   3.043   1.185 -0.0505 -0.3096 -0.2293
  517SOL    HW1 1550   0.378   3.134   1.225  1.7152  0.9229 -1.5083
  517SOL    HW2 1551   0.274   3.002   1.241  3.0428 -1.5889  0.9100
  518SOL     OW 1552   2.141   0.128   1.732  0.3192  0.8647 -1.2824
  518SOL    HW1 1553   2.236   0.151   1.762  0.3963  1.5348 -0.5069
  518SOL    HW2 1554   2.131   0.022   1.720  0.5058 -0.5340 -1.6827
  519SOL     OW 1555   2.411   2.184   2.573 -0.2691  0.4541 -0.4949
  519SOL    HW1 1556   2.328   2.189   2.636 -2.2906 -1.7625 -0.0285
  519SOL    HW2 1557   2.463   2.273   2.574  2.3373 -0.7153 -0.0414
  520SOL     OW 1558   1.769   2.889   1.811 -0.2393 -0.3010 -0.3609
  520SOL    HW1 1559   1.703   2.840   1.868  1.8693  3.6654  2.1474
  520SOL    HW2 1560   1.856   2.840   1.795  0.3182  0.5562 -0.1059
  521SOL     OW 1561   0.549   0.127   2.126  0.2847  0.6123  0.6287
  521SOL    HW1 1562   0.454   0.095   2.149 -1.0139  1.4269 -0.0163
  521SOL    HW2 1563   0.620   0.105   2.196  0.8435  0.2885 -0.2902
  522SOL     OW 1564   0.187   1.912   1.563  0.6556  0.1020  0.7273
  522SOL    HW1 1565   0.243   1.960   1.639 -0.0616  1.3323  2.6653
  522SOL    HW2 1566   0.188   1.961   1.471  0.9371  0.7735 -0.3327
  523SOL     OW 1567   2.190   2.942   1.617 -0.1483  0.3567  0.0532
  523SOL    HW1 1568   2.246   2.863   1.582  0.0916  0.9851  0.4018
  523SOL    HW2 1569   2.095   2.943   1.577  2.3976 -1.2053  0.2329
  524SOL     OW 1570   0.231   2.733   2.834  0.2843 -0.0166  0.3049
  524SOL    HW1 1571   0.226   2.767   2.933 -1.4445  2.2331  1.2724
  524SOL    HW2 1572   0.323   2.743   2.796  2.2564 -1.6076  1.7065
  525SOL     OW 1573   2.165   1.920   0.454 -0.6893  0.7301  0.2477
  525SOL    HW1 1574   2.151   1.850   0.528 -1.5335 -0.7782  1.1416
  525SOL    HW2 1575   2.220   1.883   0.368 -1.3787 -0.3154 -2.4385
  526SOL     OW 1576   0.394   1.519   1.550  0.0518  0.3870 -1.0144
  526SOL    HW1 1577   0.339   1.493   1.631 -0.5088  1.2375 -1.7222
  526SOL    HW2 1578   0.487   1.473   1.548  1.2133 -0.7698 -0.6122
  527SOL     OW 1579   1.115   2.912   1.196 -0.4220 -0.6813 -0.5638
  527SOL    HW1 1580   1.185   2.845   1.238  1.0225 -1.6945  1.4536
  527SOL    HW2 1581   1.146   3.009   1.214 -2.4959 -1.3517  1.2357
  528SOL     OW 1582   1.340   2.375   0.456  0.1252  0.0303 -0.0527
  528SOL    HW1 1583   1.375   2.279   0.472  0.7621 -0.4665  1.3825
  528SOL    HW2 1584   1.365   2.440   0.535  0.3535  1.2464 -1.0786
  529SOL     OW 1585   1.857   1.730   0.815 -0.3232  0.5452  0.0881
  529SOL    HW1 1586   1.801   1.744   0.727  0.3239  0.4598 -1.7920
  529SOL    HW2 1587   1.857   1.815   0.874 -1.0339 -1.3461 -1.8495
  530SOL     OW 1588   0.309   2.446   0.340  0.6371  0.0587 -0.3077
  530SOL    HW1 1589   0.304   2.532   0.392 -1.9701 -2.6191 -3.7521
  530SOL    HW2 1590   0.320   2.357   0.393 -0.1999 -0.4197  2.0966
  531SOL     OW 1591   1.818   0.845   1.050  0.5353 -0.8718 -0.5342
  531SOL    HW1 1592   1.864   0.870   0.956 -0.8018 -1.7355  2.0965
  531SOL    HW2 1593   1.712   0.859   1.037 -0.8267 -0.5654  0.6114
  532SOL     OW 1594   0.495   1.072   0.722  0.0296  0.2758  0.1186
  532SOL    HW1 1595   0.532   1.066   0.622 -2.1548 -0.0376 -2.8588
  532SOL    HW2 1596   0.415   1.007   0.738  0.7549  0.5066  0.1426
  533SOL     OW 1597   1.775   0.043   2.550 -0.1120 -0.0236 -0.1270
  533SOL    HW1 1598   1.870   0.007   2.578  3.3062 -0.1276 -2.4734
  533SOL    HW2 1599   1.737   0.107   2.626 -0.5767  2.0129  0.8010
  534SOL     OW 1600   0.412   0.180   1.533 -0.1510 -0.2275  0.1688
  534SOL    HW1 1601   0.513   0.191   1.562 -0.7797 -1.3436 -0.7823
  534SOL    HW2 1602   0.363   0.272   1.524 -2.2319 -1.4480 -0.6525
  535SOL     OW 1603   1.916   0.362   0.184  0.2313 -0.2718  0.6616
  535SOL    HW1 1604   1.919   0.461   0.218 -2.4086 -1.4090 -0.4474
  535SOL    HW2 1605   1.915   0.283   0.253 -1.6204 -2.6791 -0.7371
  536SOL     OW 1606   1.380   2.638   0.925 -0.0397  0.2038 -0.0374
  536SOL    HW1 1607   1.359   2.605   1.021  2.2263 -1.3215  1.5197
  536SOL    HW2 1608   1.287   2.641   0.873 -3.6280 -0.1942 -1.7579
  537SOL     OW 1609   0.842   0.272   2.394 -0.1717  0.4709  0.3621
  537SOL    HW1 1610   0.905   0.308   2.318 -1.0413  2.2459 -1.7916
  537SOL    HW2 1611   0.796   0.182   2.361 -2.9081 -3.0409 -1.6629
  538SOL     OW 1612   1.626   2.334   1.346  0.1039  0.4622  0.1767
  538SOL    HW1 1613   1.610   2.232   1.368  0.2513 -1.0442  0.8002
  538SOL    HW2 1614   1.730   2.357   1.349  1.5123  2.7701 -0.3067
  539SOL     OW 1615   0.136   1.622   2.690  0.8905 -0.2155  0.0263
  539SOL    HW1 1616   0.051   1.596   2.631  1.1573 -2.4014 -0.2668
  539SOL    HW2 1617   0.134   1.722   2.719 -3.1289  0.7918 -1.8438
  540SOL     OW 1618   2.674   1.704   1.939 -0.1645  0.1041 -0.2435
  540SOL    HW1 1619   2.655   1.629   2.011 -1.7038 -0.1651 -0.4537
  540SOL    HW2 1620   2.601   1.779   1.929  0.7410  2.5426 -0.1438
  541SOL     OW 1621   0.558   2.153   0.017 -0.0258 -0.3984 -0.0678
  541SOL    HW1 1622   0.563   2.131   0.120 -0.4860 -0.7222 -0.2001
  541SOL    HW2 1623   0.462   2.135  -0.020  1.1130  3.9359  0.9566
  542SOL     OW 1624   2.237   2.603   0.506 -0.0579  0.2346 -0.0099
  542SOL    HW1 1625   2.233   2.707   0.511  0.6905  0.8862  1.4111
  542SOL    HW2 1626   2.145   2.556   0.515 -1.2025 -1.4677 -0.9996
  543SOL     OW 1627   1.091   1.810   1.568  0.5144  0.0773  0.1158
  543SOL    HW1 1628   1.088   1.840   1.667 -2.2759 -2.2480 -3.1443
  543SOL    HW2 1629   1.017   1.854   1.508 -1.1464  0.0245 -2.6261
  544SOL     OW 1630   1.110   0.513   0.173  0.2684  0.1680 -0.2846
  544SOL    HW1 1631   1.096   0.433   0.235  1.3180  0.2676  2.8105
  544SOL    HW2 1632   1.114   0.482   0.076  1.5640 -0.9904  0.5118
  545SOL     OW 1633   1.091   1.824   0.791  0.1908  0.2988 -0.3714
  545SOL    HW1 1634   1.170   1.844   0.727 -0.6355  2.3342 -1.5545
  545SOL    HW2 1635   1.091   1.727   0.832 -0.0909 -1.1127  0.5075
  546SOL     OW 1636   2.697   1.580   2.975  0.2677  0.2573 -0.4642
  546SOL    HW1 1637   2.656   1.681   2.975  0.4681  2.2149  0.9754
  546SOL    HW2 1638   2.618   1.512   2.984  1.6079 -2.6538  1.9866
  547SOL     OW 1639   0.654   3.061   2.518  0.2385 -0.4304  0.0721
  547SOL    HW1 1640   0.704   3.018   2.602  0.3751 -2.5136  2.1079
  547SOL    HW2 1641   0.579   2.996   2.490  3.3389  2.0373  0.4040
  548SOL     OW 1642   2.053   0.794   3.077 -0.3747 -0.2226 -0.0463
  548SOL    HW1 1643   1.952   0.771   3.071  0.9980 -1.6581  0.7897
  548SOL    HW2 1644   2.076   0.892   3.105  0.6562 -0.9135  0.9133
  549SOL     OW 1645   0.700   0.588   0.218 -0.0036  0.0471  0.0611
  549SOL    HW1 1646   0.644   0.623   0.139 -0.7774 -2.7865 -1.8005
  549SOL    HW2 1647   0.792   0.645   0.219  1.2526 -0.9353  0.0842
  550SOL     OW 1648   2.563   2.827   2.854 -0.0542 -0.4232 -0.4530
  550SOL    HW1 1649   2.509   2.751   2.904 -2.2338 -0.8580  0.0119
  550SOL    HW2 1650   2.629   2.787   2.784  2.9407  0.1607 -1.2682
  551SOL     OW 1651   0.240   0.894   0.265 -0.3526 -0.1344  0.0982
  551SOL    HW1 1652   0.333   0.921   0.224  0.2097 -1.9211  2.1899
  551SOL    HW2 1653   0.241   0.855   0.359  0.1247  0.3838 -0.1594
  552SOL     OW 1654   0.582   2.991   1.963 -0.4014 -0.3127  0.1748
  552SOL    HW1 1655   0.572   3.081   2.015 -0.9383  1.5541 -1.0910
  552SOL    HW2 1656   0.673   2.980   1.914 -1.3257  0.0733  1.1142
  553SOL     OW 1657   2.940   2.400   0.348  0.1659  0.1903  0.2707
  553SOL    HW1 1658   2.933   2.307   0.397 -0.9171 -2.6920  1.8641
  553SOL    HW2 1659   2.850   2.453   0.341  2.1668 -1.2118  3.9233
  554SOL     OW 1660   2.161   0.377   0.488  0.9437  0.5548  0.6739
  554SOL    HW1 1661   2.241   0.388   0.423  1.2301 -0.7112 -1.4861
  554SOL    HW2 1662   2.180   0.299   0.557  1.0578  0.4251 -1.1115
  555SOL     OW 1663   0.457   2.843   2.497  0.7129  0.0176 -0.0196
  555SOL    HW1 1664   0.365   2.886   2.484 -2.7720 -1.0631 -1.3149
  555SOL    HW2 1665   0.470   2.784   2.412  0.2806  1.4851  0.7132
  556SOL     OW 1666   0.841   2.431   1.610 -0.7403 -0.3419  0.1462
  556SOL    HW1 1667   0.907   2.496   1.659  0.8949  1.5732  1.4270
  556SOL    HW2 1668   0.885   2.404   1.522 -0.8269  2.0433  0.6103
  557SOL     OW 1669   0.205   2.081   0.251  0.5259  0.4770  0.6457
  557SOL    HW1 1670   0.134   2.024   0.189 -0.1529 -0.8936 -2.0139
  557SOL    HW2 1671   0.265   2.140   0.189  2.3746  0.3573  1.4911
  558SOL     OW 1672   2.813   2.161   0.410  0.3609 -0.1215 -0.3069
  558SOL    HW1 1673   2.750   2.215   0.468  3.8811  0.1954  2.2760
  558SOL    HW2 1674   2.775   2.088   0.353 -0.8070  0.4484 -2.8771
  559SOL     OW 1675   0.398   2.347   1.420 -0.1887  0.0947  0.3526
  559SOL    HW1 1676   0.309   2.338   1.378  2.6587  3.6403 -0.9123
  559SOL    HW2 1677   0.474   2.302   1.363  0.9033 -2.7375  0.1530
  560SOL     OW 1678   2.137   1.056   3.085  0.2747  0.2455  1.1930
  560SOL    HW1 1679   2.172   1.065   3.186  0.1855 -2.2415  1.4607
  560SOL    HW2 1680   2.205   1.095   3.015  0.1336 -2.5463 -3.6177
  561SOL     OW 1681   0.049   1.905   0.096 -0.3541  0.1425  0.9331
  561SOL    HW1 1682   0.012   1.830   0.155  0.4373  0.1499 -0.8665
  561SOL    HW2 1683  -0.026   1.946   0.041  3.4656  2.0428  1.0220
  562SOL     OW 1684   1.114   2.122   2.287 -0.0321 -0.2113 -0.2080
  562SOL    HW1 1685   1.058   2.218   2.299 -0.8363  2.3811 -1.0495
  562SOL    HW2 1686   1.055   2.042   2.312  1.0544  1.2600 -1.0310
  563SOL     OW 1687   0.693   2.531   2.644  0.0192  0.1615  0.0725
  563SOL    HW1 1688   0.773   2.500   2.588 -3.0482  0.0516 -1.9625
  563SOL    HW2 1689   0.717   2.568   2.738  0.1990  0.0042 -0.3892
  564SOL     OW 1690   2.897   1.386   2.889 -0.8663  0.2103  0.3032
  564SOL    HW1 1691   2.832   1.454   2.927  0.1392 -0.4746 -2.9423
  564SOL    HW2 1692   2.938   1.426   2.801  0.1880 -0.5044 -2.4907
  565SOL     OW 1693   2.515   1.945   2.634  0.3636  0.2906 -0.0660
  565SOL    HW1 1694   2.491   2.040   2.602  1.6944 -0.1966  0.8249
  565SOL    HW2 1695   2.593   1.950   2.703 -0.8180  2.2434 -1.3088
  566SOL     OW 1696   1.969   2.890   1.446 -0.1524  0.3039  0.3944
  566SOL    HW1 1697   1.960   2.802   1.498 -1.5132  0.3417  1.6317
  566SOL    HW2 1698   1.995   2.872   1.345  1.3836  2.5359 -0.3298
  567SOL     OW 1699   2.404   0.030   2.312 -0.4846  0.2660  0.0564
  567SOL    HW1 1700   2.305   0.028   2.332 -0.0076 -2.0866 -0.5211
  567SOL    HW2 1701   2.419   0.037   2.210 -1.7261 -2.1219 -0.7391
  568SOL     OW 1702   1.481   1.747   0.302 -0.0664 -0.2590 -0.4070
  568SOL    HW1 1703   1.418   1.819   0.267  0.0273 -1.9827  0.6708
  568SOL    HW2 1704   1.577   1.778   0.292 -1.2427 -0.9525 -1.0450
  569SOL     OW 1705   0.258   0.623   0.885  0.1123  0.3598  0.0207
  569SOL    HW1 1706   0.297   0.568   0.808  0.3827 -1.2820 -1.0405
  569SOL    HW2 1707   0.160   0.585   0.902  1.1547 -2.1789  2.0591
  570SOL     OW 1708   0.618   0.877   2.895  0.8316  0.4976 -0.3072
  570SOL    HW1 1709   0.685   0.891   2.813  1.5401 -0.0893 -4.7864
  570SOL    HW2 1710   0.624   0.951   2.968  0.5189  0.8066 -1.4404
  571SOL     OW 1711   0.774   3.080   1.106 -0.3946 -0.2959 -0.4968
  571SOL    HW1 1712   0.824   3.103   1.018 -1.3143  1.9470  1.0872
  571SOL    HW2 1713   0.786   2.981   1.135  0.6687  2.6681 -0.2005
  572SOL     OW 1714   1.627   2.695   1.404 -0.1804 -0.2701 -0.0126
  572SOL    HW1 1715   1.593   2.605   1.373  2.8977  2.9446 -0.3477
  572SOL    HW2 1716   1.561   2.769   1.373 -1.8694 -1.4728 -1.2678
  573SOL     OW 1717   0.010   0.501   1.973 -1.0982  0.0641  0.1595
  573SOL    HW1 1718  -0.040   0.408   1.970 -1.5898  1.0587  0.8127
  573SOL    HW2 1719   0.073   0.514   1.887  0.9169  1.2839 -2.8738
  574SOL     OW 1720   0.137   1.666   1.142  0.4474 -1.0674  0.0586
  574SOL    HW1 1721   0.211   1.671   1.214 -0.8533  0.7864 -0.4273
  574SOL    HW2 1722   0.086   1.754   1.130 -1.0885 -3.4492 -0.0406
  575SOL     OW 1723   0.889   2.216   0.971 -0.2140  0.4756  0.6609
  575SOL    HW1 1724   0.877   2.272   1.060 -0.1477  2.1627  0.9830
  575SOL    HW2 1725   0.928   2.274   0.897 -1.6878 -1.5710  1.7006
  576SOL     OW 1726   2.913   2.996   1.718  0.6515  0.0933  0.2624
  576SOL    HW1 1727   2.807   2.990   1.698  2.9045  0.8076 -0.0900
  576SOL    HW2 1728   2.948   3.092   1.699  0.3914  0.2445 -0.2329
  577SOL     OW 1729   2.662   1.227  -0.001  0.4041 -0.2383  0.5904
  577SOL    HW1 1730   2.698   1.147  -0.060 -1.0773 -0.1958 -1.3092
  577SOL    HW2 1731   2.701   1.213   0.098  2.9574  0.9608 -0.2016
  578SOL     OW 1732   1.435   2.757   2.547 -0.6414 -0.0279  0.2488
  578SOL    HW1 1733   1.347   2.811   2.555 -1.6992  1.4550  1.6565
  578SOL    HW2 1734   1.517   2.817   2.517 -1.1558 -0.5694  0.3331
  579SOL     OW 1735   0.061   2.405   0.180 -0.2139 -0.1733 -0.0840
  579SOL    HW1 1736  -0.023   2.380   0.236  1.6203 -1.4601  0.2679
  579SOL    HW2 1737   0.143   2.437   0.237  1.2684  0.3346 -1.5707
  580SOL     OW 1738   0.941   2.689   0.430  0.1550  0.6345  0.3020
  580SOL    HW1 1739   1.021   2.683   0.361  3.3784  4.0339 -0.4622
  580SOL    HW2 1740   0.850   2.727   0.395  1.5414  0.8609 -1.1803
  581SOL     OW 1741   1.271   2.692   1.429 -0.3785 -0.8425 -0.0123
  581SOL    HW1 1742   1.316   2.605   1.450 -2.2608  0.2968 -0.2265
  581SOL    HW2 1743   1.340   2.765   1.402 -0.3577  0.2346 -1.1015
  582SOL     OW 1744   1.482   0.075   1.926  0.0318 -0.1220 -0.0984
  582SOL    HW1 1745   1.512   0.140   1.995  1.3659 -0.9987 -1.6005
  582SOL    HW2 1746   1.547   0.080   1.843 -2.4610 -1.7919 -0.5566
  583SOL     OW 1747   2.481   3.065   0.551 -0.1913 -0.3625 -0.0569
  583SOL    HW1 1748   2.538   2.997   0.490  1.0376 -2.0388  0.3330
  583SOL    HW2 1749   2.401   3.014   0.596 -0.4390 -0.9909  1.2017
  584SOL     OW 1750   1.613   1.085   2.302  0.3885 -0.6114 -0.6910
  584SOL    HW1 1751   1.677   1.162   2.277 -3.3525 -3.2750  2.4532
  584SOL    HW2 1752   1.658   0.990   2.317  0.6710  1.1485  0.5116
  585SOL     OW 1753   2.060   2.661   2.877 -0.1449 -0.1160 -0.2766
  585SOL    HW1 1754   2.072   2.565   2.841 -2.1996  0.4242 -3.3707
  585SOL    HW2 1755   1.961   2.688   2.870  3.0771  0.4526  0.5926
  586SOL     OW 1756   2.924   0.393   1.574  0.5193 -0.1399  0.5695
  586SOL    HW1 1757   2.921   0.474   1.638  0.7318 -1.8624 -0.3781
  586SOL    HW2 1758   2.840   0.383   1.524 -1.9556  0.9515  1.5271
  587SOL     OW 1759   2.142   1.470   2.702  0.3735 -0.3175 -0.1056
  587SOL    HW1 1760   2.152   1.386   2.643  0.9542 -1.3927  2.3507
  587SOL    HW2 1761   2.236   1.498   2.736 -1.6061 -1.6217  2.4006
  588SOL     OW 1762   0.504   2.650   2.271 -0.1411 -0.4613 -0.0800
  588SOL    HW1 1763   0.479   2.668   2.168  0.2111 -0.1109  1.5295
  588SOL    HW2 1764   0.475   2.555   2.304 -2.6646 -3.0034  1.2848
  589SOL     OW 1765   2.179   1.298   2.481  0.4470  0.5760  0.1975
  589SOL    HW1 1766   2.123   1.259   2.404 -1.2233  0.7344  0.9620
  589SOL    HW2 1767   2.282   1.289   2.471 -2.9908 -0.2673 -0.0842
  590SOL     OW 1768   2.316   1.702   2.069 -0.3105 -0.2278  0.0016
  590SOL    HW1 1769   2.382   1.623   2.068 -1.0078  2.3819  3.5913
  590SOL    HW2 1770   2.310   1.752   2.158 -1.0430 -1.9659  0.0451
  591SOL     OW 1771   1.269   2.395   0.186  0.8020  0.7640 -0.1844
  591SOL    HW1 1772   1.308   2.304   0.142  2.2350 -2.5941 -3.6488
  591SOL    HW2 1773   1.288   2.395   0.287  0.5361 -0.7276 -2.1281
  592SOL     OW 1774   1.795   2.365   0.792 -0.4024  0.3509 -0.2114
  592SOL    HW1 1775   1.766   2.376   0.694 -0.2260  0.6928  1.2448
  592SOL    HW2 1776   1.898   2.346   0.806  1.6207  0.7496  0.5004
  593SOL     OW 1777   0.775   0.303   0.253  0.3166 -0.5890 -0.2277
  593SOL    HW1 1778   0.781   0.279   0.153 -2.0023  2.2038  1.1942
  593SOL    HW2 1779   0.770   0.406   0.273  1.2054  0.8710  0.3288
  594SOL     OW 1780   1.057   1.800   2.651  0.0207 -0.3456 -0.3622
  594SOL    HW1 1781   1.156   1.773   2.629  0.1944 -1.0674  0.7519
  594SOL    HW2 1782   1.060   1.859   2.741  2.8923 -0.3014  2.0529
  595SOL     OW 1783   1.510   0.113   0.983  0.0871  0.0994  0.0403
  595SOL    HW1 1784   1.585   0.040   0.972  0.9031  0.8240  1.6030
  595SOL    HW2 1785   1.412   0.085   0.949 -2.0054  2.4871  2.2680
  596SOL     OW 1786   0.112   1.475   2.250  0.9136 -0.1584 -0.1195
  596SOL    HW1 1787   0.044   1.398   2.271  0.8115 -1.6080 -0.5229
  596SOL    HW2 1788   0.158   1.509   2.333 -3.3794  0.3849 -0.0229
  597SOL     OW 1789   2.020   2.667   1.823  0.7088 -0.0741  0.0820
  597SOL    HW1 1790   1.972   2.674   1.724 -0.1047  2.5650 -4.1106
  597SOL    HW2 1791   2.124   2.683   1.821  0.1955  1.5211  0.9523
  598SOL     OW 1792   2.511   2.851   1.267 -0.7428 -0.4427  0.7421
  598SOL    HW1 1793   2.582   2.920   1.299 -3.5446 -2.2546  2.9164
  598SOL    HW2 1794   2.546   2.795   1.189  1.5099  2.8560  1.0993
  599SOL     OW 1795   2.846   0.246   2.516  0.7681  0.3247 -0.0009
  599SOL    HW1 1796   2.933   0.254   2.462  2.2864  0.7074 -0.7252
  599SOL    HW2 1797   2.766   0.307   2.490 -0.9527 -0.8992 -5.2793
  600SOL     OW 1798   2.786   1.153   2.769  0.0633 -0.0569  0.4252
  600SOL    HW1 1799   2.735   1.088   2.829 -0.9609  0.3868 -0.9453
  600SOL    HW2 1800   2.830   1.230   2.827 -0.9276 -0.5295  0.3684
  601SOL     OW 1801   2.964   1.343   2.003 -0.1765  0.0787 -0.0651
  601SOL    HW1 1802   2.902   1.367   1.923  2.2622  1.7112  1.5176
  601SOL    HW2 1803   3.061   1.389   2.001  3.0083 -1.2164 -1.4064
  602SOL     OW 1804   1.534   1.553   2.281  0.7505  0.2384  0.3861
  602SOL    HW1 1805   1.460   1.570   2.348  1.6559 -1.9663  0.9007
  602SOL    HW2 1806   1.623   1.581   2.329 -0.6120 -2.9907  1.9949
  603SOL     OW 1807   0.628   1.204   2.715 -0.7582  0.4908 -0.0531
  603SOL    HW1 1808   0.554   1.259   2.668  0.1230 -0.6935  0.3836
  603SOL    HW2 1809   0.635   1.111   2.672  1.0155  0.9463  0.5884
  604SOL     OW 1810   2.496   1.037   0.207  0.0540  0.8886 -0.2956
  604SOL    HW1 1811   2.584   1.095   0.216  0.3967  1.5289 -0.6295
  604SOL    HW2 1812   2.501   0.973   0.127 -0.5644 -0.3971  1.3860
  605SOL     OW 1813   2.550   1.136   1.961  0.5635  0.7477 -0.6419
  605SOL    HW1 1814   2.564   1.086   1.870  3.1718 -0.9018  1.5380
  605SOL    HW2 1815   2.630   1.201   1.980 -0.8509 -1.3677 -0.8000
  606SOL     OW 1816   1.508   2.472   2.554  0.3108 -0.8425 -0.4897
  606SOL    HW1 1817   1.458   2.565   2.558 -0.0706  1.3256 -1.6818
  606SOL    HW2 1818   1.457   2.396   2.506  1.4690 -1.9506  3.3480
  607SOL     OW 1819   1.267   1.591   0.225 -0.7104  0.2613  0.2861
  607SOL    HW1 1820   1.190   1.651   0.259  0.6321 -0.4573  0.9831
  607SOL    HW2 1821   1.357   1.639   0.242  0.2132  2.9569  0.1703
  608SOL     OW 1822   1.385   2.832   0.368 -0.5470 -0.8508 -0.6303
  608SOL    HW1 1823   1.444   2.849   0.284 -0.5218 -0.7570 -0.2984
  608SOL    HW2 1824   1.344   2.918   0.414  1.8363 -0.3378 -0.6160
  609SOL     OW 1825   1.345   1.325   0.172 -0.4689 -0.3640  0.1287
  609SOL    HW1 1826   1.302   1.413   0.211 -0.0218  1.2969  0.8673
  609SOL    HW2 1827   1.309   1.305   0.083  0.6375  1.7807  0.4821
  610SOL     OW 1828   3.008   1.225   2.262  0.0250  0.0633 -0.1213
  610SOL    HW1 1829   2.986   1.126   2.245 -1.7113 -1.2598 -0.7865
  610SOL    HW2 1830   2.968   1.291   2.190 -1.7934  1.1828 -1.0583
  611SOL     OW 1831   2.556   0.245   1.124  0.6340 -0.4511  0.4662
  611SOL    HW1 1832   2.490   0.173   1.151  1.8441  1.1025 -2.9007
  611SOL    HW2 1833   2.624   0.273   1.196 -1.5625 -1.0081 -1.9558
  612SOL     OW 1834   0.794   2.335   1.217 -0.3505  0.0423  0.0891
  612SOL    HW1 1835   0.729   2.272   1.264 -2.9585 -0.9872 -2.8709
  612SOL    HW2 1836   0.747   2.424   1.183 -0.1709  1.1483  0.9447
  613SOL     OW 1837   0.788   1.395   2.371 -0.3631  0.1528  0.6318
  613SOL    HW1 1838   0.834   1.456   2.304  0.9515 -1.0323  0.4118
  613SOL    HW2 1839   0.761   1.307   2.329 -0.9899 -0.7735  3.4611
  614SOL     OW 1840   1.540   1.666   1.846 -0.2508 -0.2012  0.5466
  614SOL    HW1 1841   1.490   1.714   1.775 -1.7309 -2.0163 -0.3101
  614SOL    HW2 1842   1.603   1.726   1.898 -3.3181  0.8276  0.4684
  615SOL     OW 1843   0.724   1.422   1.708  0.0960  0.6821  0.0076
  615SOL    HW1 1844   0.689   1.375   1.618  1.7649 -0.5848  0.4542
  615SOL    HW2 1845   0.775   1.505   1.686  0.1025 -0.1747 -1.0594
  616SOL     OW 1846   1.136   1.565   2.220 -0.1358 -0.2379  0.3812
  616SOL    HW1 1847   1.033   1.558   2.227  1.4398  2.5148  0.7274
  616SOL    HW2 1848   1.170   1.581   2.123  0.5716  0.2576 -0.4099
  617SOL     OW 1849   3.037   1.543   1.630  0.0567  0.4698 -0.0895
  617SOL    HW1 1850   2.981   1.472   1.682 -1.5050  1.6205 -0.0906
  617SOL    HW2 1851   3.078   1.511   1.539 -1.6619  0.2190  1.3383
  618SOL     OW 1852   1.930   1.975   1.476 -0.9109 -0.2288  0.2148
  618SOL    HW1 1853   2.005   1.965   1.401 -1.8172 -0.5218  0.3276
  618SOL    HW2 1854   1.915   1.887   1.529 -0.2625  0.7688  1.1132
  619SOL     OW 1855   1.740   0.502   2.342  0.7971 -0.3706  0.1360
  619SOL    HW1 1856   1.660   0.531   2.284  0.1363 -0.5794  2.4333
  619SOL    HW2 1857   1.725   0.402   2.366  0.4893 -2.6047 -0.8820
  620SOL     OW 1858   2.249   2.924   0.649  0.2365 -0.1741  0.6623
  620SOL    HW1 1859   2.147   2.950   0.654 -0.0109  0.9935 -0.4632
  620SOL    HW2 1860   2.286   2.888   0.738 -0.9156 -0.4049 -1.2234
  621SOL     OW 1861   2.187   1.899   1.345 -0.3162  0.1248 -0.2081
  621SOL    HW1 1862   2.189   1.892   1.450  1.2421  0.8115 -0.8730
  621SOL    HW2 1863   2.178   1.803   1.299 -0.8818  0.5075  1.2048
  622SOL     OW 1864   2.209   0.979   1.840  0.1881  0.8412 -0.0501
  622SOL    HW1 1865   2.296   0.928   1.852 -1.3508  1.3847 -0.1161
  622SOL    HW2 1866   2.126   0.961   1.905 -0.3117  0.5381  0.7029
  623SOL     OW 1867   1.280   0.857   2.571 -0.3605  0.7254 -0.1361
  623SOL    HW1 1868   1.247   0.798   2.654  1.5786 -0.4727 -1.6105
  623SOL    HW2 1869   1.207   0.855   2.495  2.1947  1.6392  0.0603
  624SOL     OW 1870   0.520   0.710   0.052  0.6363 -0.6744 -0.0526
  624SOL    HW1 1871   0.541   0.754  -0.038 -3.7157  3.1983  0.5557
  624SOL    HW2 1872   0.504   0.766   0.138 -1.2617  0.6384  2.6181
  625SOL     OW 1873   2.753   1.715   0.840  0.4729  0.4744 -0.6805
  625SOL    HW1 1874   2.706   1.766   0.919  2.2992 -0.9175  0.3156
  625SOL    HW2 1875   2.704   1.629   0.810 -2.5053  2.3916 -0.1884
  626SOL     OW 1876   0.485   2.755   2.031 -0.3991  0.4864  0.4668
  626SOL    HW1 1877   0.532   2.847   2.031 -1.2702  2.2338  0.9289
  626SOL    HW2 1878   0.403   2.754   1.969  0.7524  0.6888 -1.1165
  627SOL     OW 1879   0.751   1.064   1.517  0.0328 -0.2703  0.3649
  627SOL    HW1 1880   0.737   0.972   1.483  0.9286  0.0138 -0.0749
  627SOL    HW2 1881   0.836   1.110   1.478 -3.2058 -2.0831 -0.4208
  628SOL     OW 1882   2.433   0.175   0.733 -0.0416 -0.3450 -0.1567
  628SOL    HW1 1883   2.457   0.099   0.666  1.4805  1.6093  0.3791
  628SOL    HW2 1884   2.334   0.188   0.730  0.4294  0.2890  0.0148
  629SOL     OW 1885   1.989   0.950   1.996 -0.1924  0.0761 -0.3422
  629SOL    HW1 1886   2.053   0.951   2.079 -2.1202  1.1211  3.5129
  629SOL    HW2 1887   1.921   1.028   1.999  2.0162 -0.4363  0.1007
  630SOL     OW 1888   2.815   2.208   0.746 -0.1208  0.1372 -0.0368
  630SOL    HW1 1889   2.753   2.243   0.822  0.1778 -3.0353 -1.6247
  630SOL    HW2 1890   2.777   2.118   0.716 -1.8578 -1.3506 -1.2182
  631SOL     OW 1891   3.024   0.232   2.124 -0.6531 -0.2490 -0.0910
  631SOL    HW1 1892   3.074   0.304   2.180 -1.6675  0.4003 -0.4387
  631SOL    HW2 1893   3.079   0.194   2.040  3.3936  1.4787 -1.9432
  632SOL     OW 1894   2.297   2.547   0.762 -0.2578 -0.8653  0.4507
  632SOL    HW1 1895   2.348   2.628   0.796 -2.6095  2.4281 -2.6937
  632SOL    HW2 1896   2.276   2.557   0.660  0.9620 -0.2043  2.8767
  633SOL     OW 1897   1.594   1.259   2.661 -0.0660 -0.6949  0.4828
  633SOL    HW1 1898   1.573   1.349   2.711  1.8832 -0.8559  0.7275
  633SOL    HW2 1899   1.544   1.248   2.571 -1.1544 -0.8773  1.2005
  634SOL     OW 1900   0.628   2.063   0.981  0.9159 -0.3050 -0.6054
  634SOL    HW1 1901   0.545   2.107   1.033 -1.7744  1.5929  1.6531
  634SOL    HW2 1902   0.719   2.113   0.990 -1.5731  0.2715 -0.9450
  635SOL     OW 1903   0.074   2.240   3.048 -0.1687 -0.1009 -0.6173
  635SOL    HW1 1904   0.025   2.322   2.998  0.7898  1.6606  0.3723
  635SOL    HW2 1905   0.088   2.259   3.151  4.6894 -2.0808 -1.4383
  636SOL     OW 1906   2.322   2.869   2.040  0.2304  0.5198  0.1391
  636SOL    HW1 1907   2.294   2.968   2.072  0.5809 -0.3264  0.5594
  636SOL    HW2 1908   2.276   2.801   2.103  0.2669  1.6978  0.7940
  637SOL     OW 1909   2.600   0.713   2.057  0.3737 -0.1435  0.0102
  637SOL    HW1 1910   2.565   0.712   1.960 -0.4889 -3.1630  0.8456
  637SOL    HW2 1911   2.650   0.803   2.071  0.2040  0.4858 -2.0779
  638SOL     OW 1912   2.487   1.894   1.397 -0.4577 -0.2488  0.5999
  638SOL    HW1 1913   2.391   1.889   1.356 -0.8125  1.7861  1.3913
  638SOL    HW2 1914   2.528   1.805   1.425 -1.1968  5.8853  0.4502
  639SOL     OW 1915   1.302   2.241   1.568  0.4152  0.6254 -0.2419
  639SOL    HW1 1916   1.289   2.171   1.490  0.0563  1.3118 -1.5508
  639SOL    HW2 1917   1.218   2.237   1.628  1.6337 -0.4766  1.7347
  640SOL     OW 1918   0.214   1.235   1.533  0.1883 -0.2574  0.2871
  640SOL    HW1 1919   0.234   1.302   1.614  2.0216  0.0367 -0.8837
  640SOL    HW2 1920   0.288   1.163   1.517 -1.8924  1.2053  2.8291
  641SOL     OW 1921   1.933   0.222   1.450 -0.3006  0.2167 -0.1188
  641SOL    HW1 1922   1.865   0.296   1.472 -1.5523  4.4471  0.6892
  641SOL    HW2 1923   1.957   0.166   1.534 -0.9994  1.4364 -0.8962
  642SOL     OW 1924   1.988   0.095   0.294 -0.0407  0.1033  0.0563
  642SOL    HW1 1925   2.089   0.074   0.277  1.9792 -0.0572 -0.3767
  642SOL    HW2 1926   1.955   0.074   0.388 -0.7351  0.8862 -0.8263
  643SOL     OW 1927   2.821   1.835   2.110 -0.4274  0.3487  0.0312
  643SOL    HW1 1928   2.787   1.771   2.034 -0.7554  1.5748  0.4749
  643SOL    HW2 1929   2.847   1.922   2.064 -0.0306 -0.5342  0.2497
  644SOL     OW 1930   2.165   2.265   1.237  0.1643 -0.3497 -0.0668
  644SOL    HW1 1931   2.233   2.192   1.219 -0.2641 -0.2207  2.4286
  644SOL    HW2 1932   2.186   2.321   1.319 -1.4665 -1.7848  1.8859
  645SOL     OW 1933   0.641   0.881   1.163  0.4123 -0.5376 -0.0960
  645SOL    HW1 1934   0.591   0.803   1.114  2.6981 -2.3439 -0.5676
  645SOL    HW2 1935   0.649   0.975   1.116  2.1099  0.6033  1.0243
  646SOL     OW 1936   1.458   1.959   1.774 -0.2835 -0.3722  0.1204
  646SOL    HW1 1937   1.556   1.994   1.763  1.9923  2.0494  0.5593
  646SOL    HW2 1938   1.423   1.963   1.869  0.3323 -0.1390 -0.0109
  647SOL     OW 1939   0.873   0.918   0.658  0.5155  0.7570  0.0711
  647SOL    HW1 1940   0.944   0.880   0.719 -0.7700 -1.4926  0.4179
  647SOL    HW2 1941   0.781   0.888   0.701 -0.3398  2.2751  1.5896
  648SOL     OW 1942   0.196   0.226   0.330 -1.0829  0.2899  0.0064
  648SOL    HW1 1943   0.241   0.156   0.270  2.2362 -3.5368 -0.1828
  648SOL    HW2 1944   0.149   0.298   0.270 -0.5663  2.3331 -0.3710
  649SOL     OW 1945   3.089   0.037   0.933  0.0355 -0.5547  0.7708
  649SOL    HW1 1946   3.180   0.035   0.887  0.5030 -0.0937 -2.0512
  649SOL    HW2 1947   3.088   0.080   1.028 -2.3946  1.9987  0.3616
  650SOL     OW 1948   2.724   0.725   1.439  0.0281  0.3731  0.3766
  650SOL    HW1 1949   2.632   0.688   1.483  0.4320 -1.9650 -2.5975
  650SOL    HW2 1950   2.714   0.808   1.371 -0.6151  1.0273  0.9994
  651SOL     OW 1951   0.910   1.592   1.572  0.0932 -0.0349 -0.5364
  651SOL    HW1 1952   0.994   1.643   1.583 -1.0656 -2.7339  2.8453
  651SOL    HW2 1953   0.845   1.636   1.505  0.0545  0.3337 -2.4935
  652SOL     OW 1954   2.311   2.518   2.390 -0.2601 -0.2045  0.1133
  652SOL    HW1 1955   2.226   2.536   2.450  1.5138  1.6588 -0.3297
  652SOL    HW2 1956   2.332   2.600   2.336  0.5478  0.9179  0.6501
  653SOL     OW 1957   2.725   1.162   0.283  0.3791  0.0134 -0.2065
  653SOL    HW1 1958   2.783   1.245   0.302  3.1804 -2.3874 -1.3405
  653SOL    HW2 1959   2.770   1.071   0.318 -1.0807 -2.4009  0.6433
  654SOL     OW 1960   1.208   2.247   1.216  0.1157 -0.1836  0.4230
  654SOL    HW1 1961   1.236   2.167   1.276 -0.8429 -2.6060 -0.3628
  654SOL    HW2 1962   1.257   2.250   1.120 -0.7398 -2.4604 -1.3467
  655SOL     OW 1963   0.229   1.050   1.838 -0.2888 -0.1828  0.0473
  655SOL    HW1 1964   0.278   0.958   1.842  0.0937  1.6684  1.3422
  655SOL    HW2 1965   0.298   1.134   1.830  2.7506  0.9762  0.7209
  656SOL     OW 1966   2.506   2.455   2.561  0.0217 -0.6065  0.0686
  656SOL    HW1 1967   2.600   2.464   2.517 -0.4176 -1.0434 -1.7906
  656SOL    HW2 1968   2.431   2.481   2.500 -0.1290 -0.8935  2.9826
  657SOL     OW 1969   3.068   1.114   1.843 -0.0344  0.3450  0.2352
  657SOL    HW1 1970   3.066   1.190   1.913  1.6005  1.2324  0.5274
  657SOL    HW2 1971   3.165   1.083   1.818 -1.0539 -0.4993  0.5991
  658SOL     OW 1972   1.689   0.243   2.380  0.1712  0.5784  0.1996
  658SOL    HW1 1973   1.724   0.184   2.452  0.6530  0.9549 -2.5682
  658SOL    HW2 1974   1.751   0.230   2.295  2.1468 -2.2651 -0.4608
  659SOL     OW 1975   1.412   0.582   2.869 -0.1381  0.1134 -0.0574
  659SOL    HW1 1976   1.483   0.640   2.914 -2.3483  0.5845  0.5887
  659SOL    HW2 1977   1.354   0.634   2.802  1.2746 -0.6823 -3.0809
  660SOL     OW 1978   1.411   0.392   1.391 -0.2128  0.0935  0.2481
  660SOL    HW1 1979   1.449   0.417   1.483  0.3823  0.0624  2.4008
  660SOL    HW2 1980   1.480   0.359   1.320 -2.4246  0.6250 -0.0703
  661SOL     OW 1981   2.464   1.160   0.678  0.3324 -0.2789 -0.1333
  661SOL    HW1 1982   2.451   1.105   0.593 -1.1751  0.7408  0.6877
  661SOL    HW2 1983   2.433   1.258   0.663 -0.0307  0.2043  0.0128
  662SOL     OW 1984   1.284   0.456   1.828 -0.1419  0.3289  0.0729
  662SOL    HW1 1985   1.267   0.350   1.824  1.4877  1.1834  0.9455
  662SOL    HW2 1986   1.219   0.496   1.904 -0.1197 -0.7286  0.8098
  663SOL     OW 1987   0.834   1.588   2.166  0.1661 -0.0931 -0.2356
  663SOL    HW1 1988   0.823   1.692   2.184  3.7042 -1.9670 -2.5050
  663SOL    HW2 1989   0.778   1.556   2.083 -1.0142 -2.1427  1.4073
  664SOL     OW 1990   1.663   2.051   1.403 -0.3621  0.1649  0.2428
  664SOL    HW1 1991   1.585   1.992   1.437  0.6340  0.0190  2.5642
  664SOL    HW2 1992   1.753   2.017   1.444  0.4434  2.9313  0.1270
  665SOL     OW 1993   2.293   0.622   1.989 -0.1601 -0.4946  0.0935
  665SOL    HW1 1994   2.311   0.531   2.032  1.7089  0.6780 -0.5193
  665SOL    HW2 1995   2.214   0.661   2.041  0.7643  0.0170  1.0850
  666SOL     OW 1996   0.510   2.277   0.487 -0.0253 -0.7212  1.0997
  666SOL    HW1 1997   0.534   2.377   0.484 -0.9762  0.4804 -0.5272
  666SOL    HW2 1998   0.455   2.255   0.570 -0.7088  0.4542 -2.8801
  667SOL     OW 1999   2.084   0.267   0.981  0.1195 -0.3850  0.0627
  667SOL    HW1 2000   2.108   0.368   0.998 -0.5297 -0.3335 -1.5167
  667SOL    HW2 2001   2.019   0.237   1.057  0.6634  1.7960  0.4533
  668SOL     OW 2002   1.957   0.508   1.212 -0.8826  0.9405  0.7550
  668SOL    HW1 2003   2.033   0.497   1.136  0.6559  1.1415  0.7534
  668SOL    HW2 2004   1.987   0.485   1.307 -1.5228  1.6759  1.1559
  669SOL     OW 2005   2.989   2.076   0.941 -0.1893  0.0240  0.1439
  669SOL    HW1 2006   2.936   2.122   0.872  1.0489  2.4076  0.8978
  669SOL    HW2 2007   2.966   2.104   1.035 -1.5616 -0.9925 -0.3329
  670SOL     OW 2008   2.788   2.346   2.011 -0.4558 -0.3072 -0.0461
  670SOL    HW1 2009   2.728   2.330   2.094  1.5726  2.7989 -0.5989
  670SOL    HW2 2010   2.777   2.444   1.978  0.5121  0.9931 -1.3435
  671SOL     OW 2011   1.704   1.667   1.457 -0.1778  0.7258  0.2516
  671SOL    HW1 2012   1.686   1.721   1.363 -0.7690  0.0364 -2.5744
  671SOL    HW2 2013   1.685   1.566   1.446 -2.4442 -0.0007 -0.4792
  672SOL     OW 2014   0.426   0.685   2.438 -0.0630 -0.2184  0.2672
  672SOL    HW1 2015   0.444   0.666   2.338  0.3249 -0.3110  2.0297
  672SOL    HW2 2016   0.352   0.761   2.449 -2.6415  2.4576 -0.1461
  673SOL     OW 2017   0.159   1.214   1.147 -0.1111 -0.0954  0.3400
  673SOL    HW1 2018   0.197   1.306   1.173 -0.7230 -2.5358 -1.5270
  673SOL    HW2 2019   0.237   1.148   1.122 -1.4955  2.2623  1.5253
  674SOL     OW 2020   1.535   2.851   0.137  0.0357  0.6190  0.2814
  674SOL    HW1 2021   1.581   2.938   0.114 -2.2359 -0.4740 -1.3918
  674SOL    HW2 2022   1.606   2.774   0.142  0.0224  0.9812  0.4166
  675SOL     OW 2023   1.738   0.864   2.332  0.1994  0.8596 -0.2035
  675SOL    HW1 2024   1.840   0.835   2.308  2.7258 -0.8890  0.9657
  675SOL    HW2 2025   1.674   0.782   2.317 -0.7490  0.4210  2.2619
  676SOL     OW 2026   2.514   1.496   2.036  0.0934 -0.3180  0.1345
  676SOL    HW1 2027   2.499   1.478   1.936 -0.6928  0.1134  1.0723
  676SOL    HW2 2028   2.576   1.431   2.081  0.2383 -0.1566  1.5366
  677SOL     OW 2029   1.847   0.540   0.951  0.7878  0.3464  0.1545
  677SOL    HW1 2030   1.861   0.607   1.029  0.6828  2.4695  1.3901
  677SOL    HW2 2031   1.763   0.480   0.968 -0.8339  0.0986 -0.7567
  678SOL     OW 2032   0.105   0.822   1.673 -0.0413  0.4015 -0.2854
  678SOL    HW1 2033   0.200   0.829   1.708 -2.0358  1.5077 -1.1678
  678SOL    HW2 2034   0.037   0.845   1.747  0.5277  4.0693 -0.7694
  679SOL     OW 2035   2.537   1.147   1.136 -0.6346 -0.1069  0.1042
  679SOL    HW1 2036   2.454   1.195   1.162 -0.2708 -0.2481 -1.1113
  679SOL    HW2 2037   2.520   1.066   1.075 -0.5763 -0.0695 -0.4102
  680SOL     OW 2038   2.840   0.649   1.673  0.0864 -0.0926 -0.0496
  680SOL    HW1 2039   2.793   0.682   1.584 -0.8709  0.8493 -2.8600
  680SOL    HW2 2040   2.882   0.727   1.726 -0.4486  0.5004  0.5437
  681SOL     OW 2041   3.050   0.137   1.647 -0.1348 -0.3918  0.0126
  681SOL    HW1 2042   3.131   0.099   1.591  1.6282 -1.9835  1.1057
  681SOL    HW2 2043   3.018   0.232   1.619  1.2837 -1.3817  0.9662
  682SOL     OW 2044   0.709   0.026   1.364  0.1913 -0.7799 -0.2709
  682SOL    HW1 2045   0.638  -0.047   1.395 -2.6470 -2.1421  1.9413
  682SOL    HW2 2046   0.725   0.019   1.263  1.9397 -1.1519 -0.1174
  683SOL     OW 2047   1.373   0.241   2.173 -0.3963 -0.3976 -0.2296
  683SOL    HW1 2048   1.365   0.262   2.272  1.0747  2.4039 -3.3899
  683SOL    HW2 2049   1.451   0.293   2.129 -1.0848  1.1258 -0.6053
  684SOL     OW 2050   1.417   2.109   0.474 -0.3525 -0.2448 -0.4436
  684SOL    HW1 2051   1.489   2.049   0.520  1.4143 -1.1292 -2.1871
  684SOL    HW2 2052   1.329   2.058   0.450 -0.2719 -0.3807 -0.7110
  685SOL     OW 2053   2.128   1.921   1.958 -0.2573  0.7202  0.0839
  685SOL    HW1 2054   2.181   1.995   1.899  1.2694  0.6111 -1.6790
  685SOL    HW2 2055   2.176   1.830   1.964  1.3436  1.6792 -1.1992
  686SOL     OW 2056   1.548   1.762   2.775 -0.4963 -0.3677 -0.5738
  686SOL    HW1 2057   1.551   1.660   2.757 -1.6121 -2.0025  3.1066
  686SOL    HW2 2058   1.586   1.783   2.874  1.2324  0.9825  0.6912
  687SOL     OW 2059   1.346   2.500   1.908  0.2546  0.0839  0.0485
  687SOL    HW1 2060   1.393   2.406   1.885  1.4650  0.4699 -1.8408
  687SOL    HW2 2061   1.384   2.536   1.999 -1.9953 -1.5847 -1.9252
  688SOL     OW 2062   2.085   1.486   1.610  0.2676  1.0218 -0.2624
  688SOL    HW1 2063   2.173   1.514   1.558  0.4317  1.5253 -2.1201
  688SOL    HW2 2064   2.035   1.413   1.560  0.8163  1.9143 -0.3271
  689SOL     OW 2065   2.444   1.103   2.745 -0.1364 -0.0034 -0.6002
  689SOL    HW1 2066   2.365   1.053   2.790 -1.0729  0.6865  0.0260
  689SOL    HW2 2067   2.529   1.101   2.812  1.8597  1.1353 -0.8384
  690SOL     OW 2068   2.204   2.757   3.087  0.0365 -0.5741 -0.4500
  690SOL    HW1 2069   2.132   2.725   3.017  0.8157 -1.8406 -1.4127
  690SOL    HW2 2070   2.174   2.822   3.164  1.7930  3.7441  2.0569
  691SOL     OW 2071   2.561   0.484   2.189  0.3029 -0.4554  0.8467
  691SOL    HW1 2072   2.592   0.407   2.124 -1.9276 -0.8861 -1.0695
  691SOL    HW2 2073   2.574   0.576   2.142 -3.6648  1.1060 -0.8924
  692SOL     OW 2074   2.735   1.227   0.687 -0.0830 -0.2198  0.1609
  692SOL    HW1 2075   2.635   1.227   0.711 -2.0160 -2.0345 -0.7549
  692SOL    HW2 2076   2.785   1.310   0.726  0.0468 -0.7046 -1.5234
  693SOL     OW 2077   2.860   2.961   0.569  0.0784  0.0546  0.1247
  693SOL    HW1 2078   2.870   3.043   0.629  0.0448  2.2065  0.1764
  693SOL    HW2 2079   2.763   2.951   0.536 -2.4840 -3.3335 -0.4576
  694SOL     OW 2080   2.362   2.123   0.070 -0.4377 -0.0641  0.2423
  694SOL    HW1 2081   2.339   2.217   0.100  1.4647 -3.4884  2.0478
  694SOL    HW2 2082   2.286   2.061   0.042 -2.0051 -2.3335 -2.4240
  695SOL     OW 2083   0.551   2.957   1.490 -0.0056 -0.8276  0.0157
  695SOL    HW1 2084   0.523   2.860   1.484 -0.5900  0.0210  1.0196
  695SOL    HW2 2085   0.506   3.004   1.573 -0.1038  2.9374  1.1186
  696SOL     OW 2086   2.693   1.957   0.686  0.0905  0.1321 -0.3664
  696SOL    HW1 2087   2.754   1.885   0.725 -2.3509  1.7054 -1.3610
  696SOL    HW2 2088   2.653   1.927   0.597  0.4776  1.6906  0.0847
  697SOL     OW 2089   1.694   2.113   1.750 -0.4624 -0.9487 -0.3676
  697SOL    HW1 2090   1.762   2.031   1.771  1.1152 -2.3014 -0.1369
  697SOL    HW2 2091   1.747   2.202   1.764 -2.3081  0.3633  0.0589
  698SOL     OW 2092   2.926   0.335   2.771  0.3017 -0.6582  0.9402
  698SOL    HW1 2093   2.889   0.302   2.677 -1.0385 -0.2743 -2.1778
  698SOL    HW2 2094   2.997   0.269   2.817 -0.5690  1.8349  0.3120
  699SOL     OW 2095   1.558   0.100   2.938 -0.5420  0.4643  0.1086
  699SOL    HW1 2096   1.509   0.017   2.893 -3.1047  0.0919 -1.4032
  699SOL    HW2 2097   1.606   0.151   2.860  2.0852 -0.4096 -1.6401
  700SOL     OW 2098   0.981   2.362   1.392 -0.1995 -0.1963  0.4039
  700SOL    HW1 2099   1.064   2.306   1.372 -2.2300 -2.1050 -2.3316
  700SOL    HW2 2100   0.906   2.355   1.314 -1.0471 -1.4457  0.8068
  701SOL     OW 2101   1.849   2.798   0.052  0.1870  0.2137 -0.3778
  701SOL    HW1 2102   1.887   2.720   0.110  1.3236 -0.5209  0.7441
  701SOL    HW2 2103   1.897   2.887   0.069 -0.8465 -1.5194  3.6932
  702SOL     OW 2104   2.086   1.398   1.886  0.6365  0.0011 -0.8878
  702SOL    HW1 2105   2.169   1.348   1.917  0.6873  1.0288  3.7156
  702SOL    HW2 2106   2.095   1.444   1.793 -0.9095 -0.4470 -0.4108
  703SOL     OW 2107   1.968   0.842   1.475  0.2065  0.0558  0.0104
  703SOL    HW1 2108   1.945   0.744   1.503 -1.4892 -0.6034  0.0298
  703SOL    HW2 2109   2.040   0.890   1.527 -1.0249 -0.3386 -1.5479
  704SOL     OW 2110   0.341   2.023   1.752 -0.2097  0.2880  0.2120
  704SOL    HW1 2111   0.377   1.967   1.830  0.8571 -2.4503 -0.4438
  704SOL    HW2 2112   0.398   2.102   1.732 -1.8743 -2.8669 -1.0875
  705SOL     OW 2113   2.550   1.404   0.871 -0.2004  0.1138 -0.4066
  705SOL    HW1 2114   2.448   1.379   0.867 -0.9347 -0.3298  0.5834
  705SOL    HW2 2115   2.606   1.340   0.933  1.6398 -0.2064  4.0104
  706SOL     OW 2116   0.640   1.749   1.891 -0.7226 -0.0434  0.3970
  706SOL    HW1 2117   0.642   1.649   1.919 -0.0666 -0.5490 -1.8953
  706SOL    HW2 2118   0.733   1.795   1.899  2.2308  2.9981  2.4609
  707SOL     OW 2119   2.295   1.227   1.938 -0.1481  0.2190  0.4293
  707SOL    HW1 2120   2.396   1.202   1.963  2.6420  0.4162 -1.0688
  707SOL    HW2 2121   2.236   1.142   1.930  1.1699  0.9940  1.2909
  708SOL     OW 2122   3.073   0.461   3.028  0.0596 -0.1326  0.1918
  708SOL    HW1 2123   3.150   0.514   2.984 -1.9858  4.2749 -4.2800
  708SOL    HW2 2124   3.017   0.408   2.962 -0.6867  1.5275 -1.4739
  709SOL     OW 2125   1.792   1.866   0.300 -0.5652 -0.1195 -0.1383
  709SOL    HW1 2126   1.833   1.960   0.320 -1.1228  2.7544 -1.3729
  709SOL    HW2 2127   1.795   1.847   0.202  0.2116 -0.8427  2.8234
  710SOL     OW 2128   1.757   1.625   2.452 -0.0747  0.2653  0.1545
  710SOL    HW1 2129   1.829   1.605   2.378  0.1522 -1.2926 -2.2466
  710SOL    HW2 2130   1.799   1.636   2.551  2.7621  0.0871  0.8751
  711SOL     OW 2131   2.624   2.940   0.967  1.1928  0.1898 -0.1605
  711SOL    HW1 2132   2.639   3.039   0.922 -0.5040  3.0776  0.5903
  711SOL    HW2 2133   2.712   2.903   1.017  2.6222  3.1831  1.2489
  712SOL     OW 2134   1.466   2.301   1.798 -0.5333 -0.4472 -0.3110
  712SOL    HW1 2135   1.533   2.222   1.805 -0.8120  1.2874 -1.6153
  712SOL    HW2 2136   1.419   2.298   1.705  0.3031 -1.9487 -1.9150
  713SOL     OW 2137   2.826   1.377   2.500 -0.1727 -1.1540 -0.3572
  713SOL    HW1 2138   2.842   1.275   2.491 -1.0933 -4.5633  1.5434
  713SOL    HW2 2139   2.739   1.406   2.542 -0.2072 -1.9777 -2.0923
  714SOL     OW 2140   2.639   0.479   2.448 -0.1514 -0.7036 -0.6895
  714SOL    HW1 2141   2.556   0.455   2.506 -1.8663  0.8240 -0.1073
  714SOL    HW2 2142   2.612   0.487   2.346 -0.9525  0.5456 -1.0200
  715SOL     OW 2143   1.594   2.097   1.137  0.3692  0.6205 -0.1727
  715SOL    HW1 2144   1.553   2.192   1.134  0.3913  0.4287 -2.5505
  715SOL    HW2 2145   1.637   2.081   1.230  2.0911 -0.0985  0.4173
  716SOL     OW 2146   1.225   0.209   1.460  0.1693  0.2943 -0.2279
  716SOL    HW1 2147   1.127   0.241   1.442 -0.6224  0.2279 -0.4877
  716SOL    HW2 2148   1.290   0.289   1.471 -1.0041 -0.5110 -1.1847
  717SOL     OW 2149   1.088   0.627   1.591 -0.4060 -0.1428 -0.2366
  717SOL    HW1 2150   1.184   0.656   1.612 -3.0027 -0.1814  0.0732
  717SOL    HW2 2151   1.075   0.599   1.489 -0.3032 -0.6187  0.8230
  718SOL     OW 2152   0.634   1.076   0.978  0.7059  0.5578 -0.1532
  718SOL    HW1 2153   0.619   1.045   0.879  2.6322  0.2836  1.2658
  718SOL    HW2 2154   0.714   1.144   0.987  0.4421 -2.9969  0.1255
  719SOL     OW 2155   0.786   1.848   2.249 -0.9543 -0.0285  0.2400
  719SOL    HW1 2156   0.856   1.885   2.320 -2.0581 -0.6494 -0.3505
  719SOL    HW2 2157   0.692   1.855   2.276  4.2238 -1.6236  0.5783
  720SOL     OW 2158   2.236   1.110   0.224  0.4417 -0.0135 -0.4935
  720SOL    HW1 2159   2.327   1.062   0.214  1.4811 -0.3154 -0.2831
  720SOL    HW2 2160   2.208   1.108   0.324 -0.2820  0.0174  0.2324
  721SOL     OW 2161   2.211   0.061   2.089 -0.5722 -0.0927 -0.3484
  721SOL    HW1 2162   2.239   0.126   2.011 -0.9845  0.2692 -1.2519
  721SOL    HW2 2163   2.121   0.014   2.077 -1.1207  0.9106  0.1526
  722SOL     OW 2164   2.340   1.657   0.507 -0.2625  0.3973  0.3457
  722SOL    HW1 2165   2.328   1.590   0.426  1.3802  1.2221 -3.4299
  722SOL    HW2 2166   2.258   1.657   0.574 -1.3772 -0.8190 -2.6515
  723SOL     OW 2167   2.584   2.836   1.895 -0.3916 -0.1674 -0.3137
  723SOL    HW1 2168   2.641   2.868   1.972  0.2787 -1.3867  1.7340
  723SOL    HW2 2169   2.479   2.852   1.911 -0.9615  0.6726 -0.0238
  724SOL     OW 2170   0.405   2.427   2.403 -0.5954  0.2445 -0.2071
  724SOL    HW1 2171   0.302   2.449   2.406  0.0837  1.5285  1.4641
  724SOL    HW2 2172   0.439   2.443   2.502 -1.9298  2.0560  2.3397
  725SOL     OW 2173   2.295   2.757   1.428 -0.2194 -0.0365  0.1419
  725SOL    HW1 2174   2.360   2.809   1.367 -3.1006 -1.3652  3.4368
  725SOL    HW2 2175   2.333   2.662   1.450 -3.1626 -0.1668  0.7019
  726SOL     OW 2176   2.385   2.260   0.768  0.4285 -0.1072  0.8960
  726SOL    HW1 2177   2.348   2.354   0.758 -1.1728 -0.0924  1.5423
  726SOL    HW2 2178   2.386   2.212   0.673 -3.6565  0.5185  0.5873
  727SOL     OW 2179   0.221   0.030   0.138 -0.1257 -0.7309  0.5286
  727SOL    HW1 2180   0.251  -0.061   0.099  0.4275 -1.4941  3.8408
  727SOL    HW2 2181   0.239   0.108   0.071 -1.2658 -0.5903 -1.4950
  728SOL     OW 2182   2.770   0.720   1.041  0.6319  0.1622  0.1727
  728SOL    HW1 2183   2.701   0.712   0.962  0.1619 -1.3301  1.5173
  728SOL    HW2 2184   2.773   0.634   1.100 -1.3630 -0.5865  0.8128
  729SOL     OW 2185   2.919   2.464   0.729 -0.4333  0.1366  0.6252
  729SOL    HW1 2186   2.901   2.361   0.727 -0.7123  2.7001  1.2589
  729SOL    HW2 2187   3.024   2.490   0.741  0.9781 -0.2897 -2.0862
  730SOL     OW 2188   2.604   0.577   0.862 -0.0766 -0.8767  0.9147
  730SOL    HW1 2189   2.523   0.640   0.840 -1.6539  0.6778  3.4985
  730SOL    HW2 2190   2.669   0.550   0.779  1.5075 -2.0666 -3.0540
  731SOL     OW 2191   0.039   2.119   2.450  0.4662  0.2958 -0.1382
  731SOL    HW1 2192   0.114   2.120   2.525 -0.7273 -0.1449  0.9105
  731SOL    HW2 2193  -0.060   2.117   2.488 -2.7599 -4.0912  3.7268
  732SOL     OW 2194   1.135   2.849   1.945  0.2827 -0.3529 -0.0092
  732SOL    HW1 2195   1.140   2.780   2.021  0.5782  0.0803 -0.6047
  732SOL    HW2 2196   1.159   2.810   1.851 -1.1619 -0.1431 -0.0723
  733SOL     OW 2197   3.042   0.724   2.084 -1.0060 -0.3541  0.5935
  733SOL    HW1 2198   3.126   0.782   2.074  1.1669 -1.8018  1.2802
  733SOL    HW2 2199   3.056   0.631   2.040  1.3544  0.3226  2.8008
  734SOL     OW 2200   1.388   0.355   2.701  0.3528  0.4631 -0.0353
  734SOL    HW1 2201   1.408   0.440   2.754  0.1929 -1.6426 -1.2627
  734SOL    HW2 2202   1.324   0.289   2.754 -1.9346 -0.8101 -0.6538
  735SOL     OW 2203   2.841   2.600   2.273 -0.6351 -0.3594  0.2213
  735SOL    HW1 2204   2.770   2.605   2.196 -0.8076 -0.7680 -1.7717
  735SOL    HW2 2205   2.943   2.602   2.239 -1.7823  1.2314  1.6191
  736SOL     OW 2206   0.800   0.388   2.644 -0.0354 -1.0601 -0.8902
  736SOL    HW1 2207   0.739   0.476   2.656 -1.6728 -1.3523 -0.9092
  736SOL    HW2 2208   0.799   0.356   2.544  0.3034  2.1045  0.3491
  737SOL     OW 2209   2.684   0.469   2.799 -0.1508 -0.3763  0.2107
  737SOL    HW1 2210   2.668   0.435   2.892  1.5382 -0.1585 -2.6379
  737SOL    HW2 2211   2.771   0.426   2.764 -1.6432 -0.5615  0.4339
  738SOL     OW 2212   1.651   1.218   3.028  0.4090 -0.0738  0.4482
  738SOL    HW1 2213   1.754   1.206   3.016 -1.6324 -1.8632 -1.6407
  738SOL    HW2 2214   1.594   1.139   2.990  1.1536 -1.4520 -1.6118
  739SOL     OW 2215   1.767   0.629   0.703 -0.7356 -0.2348 -0.2251
  739SOL    HW1 2216   1.807   0.625   0.801  1.1744  0.7945 -0.7161
  739SOL    HW2 2217   1.811   0.560   0.638  1.5792  0.4810  0.0097
  740SOL     OW 2218   1.944   1.938   2.175 -0.3662  0.8194 -0.4440
  740SOL    HW1 2219   2.005   1.940   2.089 -0.2191  4.0422  1.2126
  740SOL    HW2 2220   1.857   1.878   2.166 -2.1267  0.3711 -1.6313
  741SOL     OW 2221   2.493   0.118   2.581  0.4089  0.3074 -0.2893
  741SOL    HW1 2222   2.581   0.069   2.613  0.4427  1.8316  0.2243
  741SOL    HW2 2223   2.467   0.092   2.485  0.0458 -0.6158 -2.0923
  742SOL     OW 2224   2.246   1.370   0.112  0.0910  0.2308 -0.0575
  742SOL    HW1 2225   2.173   1.445   0.118  1.4189 -1.4483 -1.2556
  742SOL    HW2 2226   2.203   1.277   0.117  2.0077  0.2684 -1.5454
  743SOL     OW 2227   1.746   0.595   2.607  0.0449  0.5491 -0.2491
  743SOL    HW1 2228   1.737   0.567   2.505 -0.2810  1.3857 -0.8358
  743SOL    HW2 2229   1.663   0.652   2.630  0.7590 -1.9740 -0.6317
  744SOL     OW 2230   2.641   2.093   0.043  0.1554 -0.0229 -0.1996
  744SOL    HW1 2231   2.537   2.100   0.050 -0.6611  0.0552 -1.5632
  744SOL    HW2 2232   2.688   2.050   0.122  0.1766 -0.8654 -3.0981
  745SOL     OW 2233   2.158   2.714   2.217 -0.0815  0.1236  0.1592
  745SOL    HW1 2234   2.079   2.673   2.159 -1.1744 -1.8495  0.9717
  745SOL    HW2 2235   2.132   2.773   2.302  0.4513  0.7150 -1.4310
  746SOL     OW 2236   3.084   2.612   1.822  0.0834  0.5426  0.3375
  746SOL    HW1 2237   3.183   2.608   1.793  1.2482 -1.9114  0.5589
  746SOL    HW2 2238   3.052   2.694   1.873 -0.2627  2.4861 -1.4560
  747SOL     OW 2239   3.074   1.807   1.707  0.4497 -0.1846  0.2478
  747SOL    HW1 2240   3.049   1.709   1.677  0.2342 -0.9026 -1.3637
  747SOL    HW2 2241   3.152   1.844   1.649  1.6713 -1.3424  1.1925
  748SOL     OW 2242   1.742   2.770   2.871  0.0261 -0.0336  0.6726
  748SOL    HW1 2243   1.787   2.782   2.963 -0.3603  3.6212 -1.8980
  748SOL    HW2 2244   1.642   2.736   2.875 -2.2081  3.4505 -1.2253
  749SOL     OW 2245   1.267   0.066   0.841  0.0883  0.4315  0.2620
  749SOL    HW1 2246   1.228  -0.025   0.811  0.0921 -0.6834  0.7395
  749SOL    HW2 2247   1.296   0.116   0.757 -0.8744  0.9287 -1.2507
  750SOL     OW 2248   2.375   0.212   1.903 -0.1967  0.3054 -0.2398
  750SOL    HW1 2249   2.400   0.266   1.817 -0.6000 -1.3859 -2.7557
  750SOL    HW2 2250   2.383   0.271   1.996  2.7454  2.2285  2.4412
  751SOL     OW 2251   0.841   2.234   2.834  0.5862  0.1860  0.7772
  751SOL    HW1 2252   0.873   2.243   2.930 -1.4916 -0.8494 -0.1296
  751SOL    HW2 2253   0.782   2.150   2.818  0.3575 -1.1973  0.9170
  752SOL     OW 2254   1.238   0.915   1.570 -0.0503  0.6329 -0.3169
  752SOL    HW1 2255   1.308   0.976   1.521  0.3008 -0.4218 -2.4730
  752SOL    HW2 2256   1.283   0.827   1.606 -1.2901  0.5946  0.7345
  753SOL     OW 2257   0.942   2.629   1.778 -0.2132  0.1748  0.3069
  753SOL    HW1 2258   1.040   2.652   1.751 -1.5927 -2.8581  0.3179
  753SOL    HW2 2259   0.884   2.715   1.762 -2.0442  0.3736 -0.6987
  754SOL     OW 2260   1.124   1.248   3.067 -0.0154  0.1479  0.0552
  754SOL    HW1 2261   1.173   1.176   3.004  2.2818 -1.0436 -0.7814
  754SOL    HW2 2262   1.138   1.348   3.041 -2.6251 -0.5618  0.9520
  755SOL     OW 2263   1.996   0.515   2.227  0.0639  0.3752 -0.0127
  755SOL    HW1 2264   2.057   0.447   2.278 -0.9298  0.7680 -3.0431
  755SOL    HW2 2265   1.911   0.536   2.283 -0.8334  1.2093  1.1434
  756SOL     OW 2266   2.638   1.000   2.923 -0.4717 -0.3131 -0.3674
  756SOL    HW1 2267   2.722   0.938   2.900  1.0059 -0.6425 -0.6066
  756SOL    HW2 2268   2.577   0.948   2.991  2.0125  0.3624 -1.9221
  757SOL     OW 2269   0.130   0.545   1.721 -0.0426  0.2583 -0.9507
  757SOL    HW1 2270   0.123   0.638   1.682 -1.7181  0.9588 -1.0987
  757SOL    HW2 2271   0.165   0.474   1.654 -0.4263  0.0172  0.8911
  758SOL     OW 2272   2.407   3.085   1.543  0.2716  0.1949  0.0304
  758SOL    HW1 2273   2.333   3.034   1.598  0.0333 -0.2035  1.0231
  758SOL    HW2 2274   2.384   3.087   1.443 -1.8902 -0.6461 -1.5065
  759SOL     OW 2275   1.675   3.088   0.064  0.1333  0.2750  0.1415
  759SOL    HW1 2276   1.633   3.135  -0.025 -2.4038 -0.7656  1.5314
  759SOL    HW2 2277   1.780   3.080   0.060 -0.6316 -2.8089  0.6373
  760SOL     OW 2278   2.716   2.010   2.809  0.2434 -0.3925  0.1592
  760SOL    HW1 2279   2.765   1.920   2.790  3.2731  1.5318 -3.2908
  760SOL    HW2 2280   2.772   2.099   2.807  0.8536  3.5085  1.5416
  761SOL     OW 2281   1.935   1.697   1.604 -0.2260  0.2634 -0.0625
  761SOL    HW1 2282   1.998   1.612   1.615 -1.1427  0.6831 -2.5023
  761SOL    HW2 2283   1.844   1.670   1.562  0.0738  1.2034 -0.9145
  762SOL     OW 2284   0.527   2.399   0.944  0.1084  0.3540  0.0210
  762SOL    HW1 2285   0.593   2.418   0.868  0.8319 -1.0780  1.0422
  762SOL    HW2 2286   0.536   2.479   1.011  2.3375 -1.6450 -0.9758
  763SOL     OW 2287   2.066   1.551   2.975 -0.7725  0.1735 -0.3197
  763SOL    HW1 2288   2.101   1.504   2.890  1.8785  1.2847 -0.8262
  763SOL    HW2 2289   1.990   1.494   3.017 -4.1755 -0.5431 -0.9626
  764SOL     OW 2290   0.686   0.530   0.887 -0.4257  0.2644 -0.1437
  764SOL    HW1 2291   0.694   0.479   0.800  2.3698  1.2791 -0.1962
  764SOL    HW2 2292   0.777   0.570   0.911 -1.3645 -3.0071 -0.0104
  765SOL     OW 2293   0.669   0.237   0.780 -0.1223 -0.5947  0.2081
  765SOL    HW1 2294   0.751   0.235   0.719 -0.1711  0.3103  1.3190
  765SOL    HW2 2295   0.691   0.263   0.877 -2.2697 -0.2091  1.6632
  766SOL     OW 2296   2.941   2.057   0.007  0.1549 -0.2237 -0.4440
  766SOL    HW1 2297   2.842   2.048  -0.020 -0.7962 -3.7746 -1.5937
  766SOL    HW2 2298   2.993   2.133  -0.037 -2.4660 -2.0372 -2.2585
  767SOL     OW 2299   2.864   1.567   0.509 -0.3884 -0.1992 -0.2519
  767SOL    HW1 2300   2.770   1.557   0.548 -1.1119  0.4404 -1.6424
  767SOL    HW2 2301   2.923   1.637   0.558 -0.4252  1.6809  1.5947
  768SOL     OW 2302   1.075   0.275   0.304 -1.2355 -0.1776 -0.5532
  768SOL    HW1 2303   0.985   0.218   0.305  1.8654 -0.2763 -3.1129
  768SOL    HW2 2304   1.161   0.218   0.303 -0.7397  1.7340  0.8261
  769SOL     OW 2305   1.208   1.824   2.255 -0.1958 -0.2695  0.7077
  769SOL    HW1 2306   1.283   1.808   2.325  3.8309 -2.2744  2.7203
  769SOL    HW2 2307   1.162   1.736   2.241  1.1058  1.5418  2.8432
  770SOL     OW 2308   0.159   1.151   2.391 -0.2382 -0.6785 -0.7237
  770SOL    HW1 2309   0.126   1.203   2.477 -1.2396 -0.5750 -1.5618
  770SOL    HW2 2310   0.076   1.144   2.318 -3.5488 -1.3845 -0.8213
  771SOL     OW 2311   2.916   2.836   1.951  0.4918  0.0364 -0.1445
  771SOL    HW1 2312   2.919   2.898   1.863 -2.0833  0.6956 -0.7926
  771SOL    HW2 2313   2.879   2.878   2.033 -1.4758 -0.3780  0.1061
  772SOL     OW 2314   2.144   0.115   2.975 -0.0178 -0.3768  0.3197
  772SOL    HW1 2315   2.228   0.058   3.003 -0.3630 -1.0101  0.1303
  772SOL    HW2 2316   2.126   0.196   3.033 -0.8189 -0.0725 -2.5187
  773SOL     OW 2317   0.670   2.079   2.466  0.1705  0.5270  0.3475
  773SOL    HW1 2318   0.643   2.145   2.390 -1.1846 -1.4806 -1.2639
  773SOL    HW2 2319   0.603   2.092   2.543 -2.7526 -1.9216  0.1781
  774SOL     OW 2320   2.041   3.084   2.613 -0.4422 -0.3732  0.3296
  774SOL    HW1 2321   2.041   3.183   2.657 -0.0796  1.3521  3.4190
  774SOL    HW2 2322   2.092   3.019   2.675 -0.2539  2.7726 -0.3741
  775SOL     OW 2323   2.492   2.845   2.327  0.1377  0.5600  0.4470
  775SOL    HW1 2324   2.457   2.944   2.317  2.9324  0.4060  2.2044
  775SOL    HW2 2325   2.562   2.825   2.403  0.2671 -1.7854  0.7503
  776SOL     OW 2326   0.036   1.243   0.216 -0.5520 -0.4385 -0.0870
  776SOL    HW1 2327   0.014   1.215   0.121 -0.0313 -4.1755  3.2069
  776SOL    HW2 2328  -0.038   1.298   0.260 -0.1103  1.1880  1.7231
  777SOL     OW 2329   0.261   2.687   0.456  0.2018  0.7332 -0.2431
  777SOL    HW1 2330   0.159   2.668   0.448 -0.4804 -1.9557 -0.6200
  777SOL    HW2 2331   0.281   2.787   0.481 -0.9399  0.6195  0.9070
  778SOL     OW 2332   1.355   1.942   0.189  0.1617  0.1158  0.0846
  778SOL    HW1 2333   1.296   1.967   0.270  0.8144  0.9228  0.5154
  778SOL    HW2 2334   1.372   2.020   0.125 -1.2109 -0.2742 -1.5675
  779SOL     OW 2335   0.189   0.810   0.546  0.1542 -0.5151 -0.2857
  779SOL    HW1 2336   0.177   0.715   0.502 -0.9767  0.8661  1.0328
  779SOL    HW2 2337   0.105   0.839   0.609 -0.9447  1.2414 -1.0332
  780SOL     OW 2338   0.007   0.334   2.388 -0.2190 -0.6165 -0.1343
  780SOL    HW1 2339  -0.040   0.428   2.374 -1.2085  0.6353  1.3112
  780SOL    HW2 2340   0.097   0.318   2.334 -0.2045  1.2637  1.0107
  781SOL     OW 2341   0.591   1.711   1.627 -0.0201  0.5165  0.4409
  781SOL    HW1 2342   0.604   1.729   1.727  1.2497 -2.6116  2.3317
  781SOL    HW2 2343   0.501   1.662   1.598 -1.2810  0.8410 -2.0413
  782SOL     OW 2344   2.642   0.108   0.897 -0.1828 -0.2877 -0.4648
  782SOL    HW1 2345   2.550   0.139   0.858 -0.7478  1.4174 -0.8788
  782SOL    HW2 2346   2.654   0.153   0.992 -2.2774 -0.8429  2.9331
  783SOL     OW 2347   2.816   0.674   2.487 -0.0755  0.2504  0.2573
  783SOL    HW1 2348   2.776   0.736   2.564  2.7204  0.5042  2.8083
  783SOL    HW2 2349   2.758   0.588   2.461 -1.0853 -2.4777 -2.2736
  784SOL     OW 2350   1.402   2.176   0.045 -0.4237 -0.3617  0.3011
  784SOL    HW1 2351   1.487   2.209   0.088 -0.2474 -2.0089  1.0001
  784SOL    HW2 2352   1.389   2.198  -0.058  1.3315  0.1229 -1.0291
  785SOL     OW 2353   2.128   0.342   0.016 -0.1115 -0.0240  0.1409
  785SOL    HW1 2354   2.038   0.340   0.073  3.0728  0.0661 -1.7008
  785SOL    HW2 2355   2.145   0.438  -0.026 -2.5069 -0.8375  1.8595
  786SOL     OW 2356   2.023   2.152   2.314  0.5216 -0.1356  0.0535
  786SOL    HW1 2357   1.986   2.066   2.263 -2.0271 -3.6050 -1.1938
  786SOL    HW2 2358   2.116   2.133   2.361  2.5486  1.2040  0.9674
  787SOL     OW 2359   1.412   0.614   0.813  0.5690 -0.2489  0.0551
  787SOL    HW1 2360   1.388   0.707   0.841 -0.0855  1.9296 -3.0704
  787SOL    HW2 2361   1.417   0.609   0.709  1.8643 -0.0510  1.4135
  788SOL     OW 2362   1.213   0.454   3.026  0.3322  0.2435 -0.1634
  788SOL    HW1 2363   1.123   0.486   2.987  1.7038 -2.7694  2.9568
  788SOL    HW2 2364   1.294   0.496   2.970 -0.1149  1.9336 -2.3442
  789SOL     OW 2365   2.635   0.112   1.873  0.1018 -0.1726  0.4085
  789SOL    HW1 2366   2.535   0.127   1.898  3.0340 -2.8047  0.0563
  789SOL    HW2 2367   2.654   0.016   1.838  4.4226 -1.0012 -1.0649
  790SOL     OW 2368   2.598   2.667   0.803  0.5030  0.3096 -0.1542
  790SOL    HW1 2369   2.666   2.661   0.726  1.1691 -1.6352  3.5500
  790SOL    HW2 2370   2.555   2.761   0.812 -1.3385  2.0062  2.0396
  791SOL     OW 2371   1.981   1.244   0.241 -0.0933 -0.0842  0.1418
  791SOL    HW1 2372   1.892   1.182   0.246 -1.3901  2.9705 -0.0901
  791SOL    HW2 2373   2.060   1.193   0.277 -0.9194  0.8334 -1.3955
  792SOL     OW 2374   0.427   1.993   2.196  0.1387 -0.2247 -0.3536
  792SOL    HW1 2375   0.471   2.084   2.212  1.9984 -0.3564 -0.3674
  792SOL    HW2 2376   0.345   1.971   2.256 -0.6888  1.5258  1.3492
  793SOL     OW 2377   2.102   1.519   2.159 -0.5942  0.1845 -0.1789
  793SOL    HW1 2378   2.182   1.584   2.170 -1.0731 -5.3415  1.7238
  793SOL    HW2 2379   2.079   1.486   2.064 -3.4448 -3.8835 -0.8288
  794SOL     OW 2380   0.508   1.488   2.471  0.6350  0.1094 -0.4258
  794SOL    HW1 2381   0.551   1.414   2.412  0.7758  2.0685  0.7997
  794SOL    HW2 2382   0.423   1.535   2.432 -0.1768  3.0230  3.4503
  795SOL     OW 2383   2.522   2.312   1.800 -0.4940 -0.2380 -0.2743
  795SOL    HW1 2384   2.576   2.296   1.890 -0.5102 -1.8070  2.1682
  795SOL    HW2 2385   2.443   2.248   1.793 -0.0400  0.6760  0.6830
  796SOL     OW 2386   3.054   1.073   2.717  0.1043 -0.0351  0.0897
  796SOL    HW1 2387   2.959   1.105   2.742 -2.4405  0.0057  0.1764
  796SOL    HW2 2388   3.125   1.091   2.793  0.4491  4.4608  2.3003
  797SOL     OW 2389   0.661   0.653   1.350 -0.6334  0.2120 -0.2023
  797SOL    HW1 2390   0.728   0.705   1.409  1.9248  1.2349 -3.3993
  797SOL    HW2 2391   0.633   0.712   1.272  0.3282  1.0799  0.5011
  798SOL     OW 2392   1.165   0.500   0.914  0.0764  0.4373 -0.1102
  798SOL    HW1 2393   1.217   0.505   1.004 -1.3680  3.1902 -1.4690
  798SOL    HW2 2394   1.216   0.549   0.841 -0.0436  0.1053 -1.9172
  799SOL     OW 2395   1.819   2.694   1.003  0.2121 -0.1421  0.0385
  799SOL    HW1 2396   1.805   2.605   1.054  1.6168  0.7745 -2.3902
  799SOL    HW2 2397   1.810   2.696   0.902  0.7233 -1.7056 -0.1842
  800SOL     OW 2398   2.959   0.852   1.833  0.7137 -0.3207  0.6889
  800SOL    HW1 2399   2.978   0.951   1.847 -0.0091  0.0839 -1.0549
  800SOL    HW2 2400   2.945   0.799   1.918 -1.0089 -0.1495 -0.6336
  801SOL     OW 2401   1.961   2.162   0.115  0.1733  0.3693 -0.3911
  801SOL    HW1 2402   1.887   2.165   0.041 -1.1271  0.2826  2.3089
  801SOL    HW2 2403   2.027   2.084   0.100  0.3689  0.9232 -3.5056
  802SOL     OW 2404   0.660   0.606   2.523  0.3961  0.1635 -0.4037
  802SOL    HW1 2405   0.729   0.607   2.448  1.3445 -0.7639  1.1097
  802SOL    HW2 2406   0.563   0.632   2.499  0.9039  0.5710 -0.9276
  803SOL     OW 2407   0.936   0.059   0.895 -0.0449  0.2993  0.1329
  803SOL    HW1 2408   0.995   0.134   0.934  0.8598 -0.0831  1.7976
  803SOL    HW2 2409   0.888   0.094   0.806 -0.3087  0.3677 -2.0016
  804SOL     OW 2410   0.314   0.026   2.186 -0.3995 -0.3074  0.1010
  804SOL    HW1 2411   0.268   0.117   2.209  0.4135 -1.5211  0.3135
  804SOL    HW2 2412   0.269  -0.032   2.113  0.7638 -1.0484  2.5481
  805SOL     OW 2413   2.421   0.375   0.347 -0.0671 -0.1433  0.0259
  805SOL    HW1 2414   2.480   0.346   0.428  0.7783 -0.8925  1.1285
  805SOL    HW2 2415   2.419   0.309   0.272  2.0773 -0.1580 -1.4366
  806SOL     OW 2416   0.599   2.588   1.827 -0.5299  0.6010  0.3346
  806SOL    HW1 2417   0.576   2.667   1.885 -2.3193  1.1742 -0.7656
  806SOL    HW2 2418   0.673   2.613   1.757 -2.2179  0.2629 -0.0766
  807SOL     OW 2419   2.514   0.939   0.470 -0.0321  0.0943 -0.1256
  807SOL    HW1 2420   2.615   0.912   0.501  3.4724 -1.3067 -0.6009
  807SOL    HW2 2421   2.504   0.967   0.370 -0.7508  1.6722  0.0311
  808SOL     OW 2422   0.648   2.014   2.898 -0.1064  0.0165  0.3217
  808SOL    HW1 2423   0.620   2.056   2.993 -1.8127  0.1320 -0.0676
  808SOL    HW2 2424   0.649   1.909   2.907  0.3708 -0.1708 -1.0270
  809SOL     OW 2425   2.576   1.974   1.899  0.1950 -0.1267  0.2749
  809SOL    HW1 2426   2.672   2.001   1.911  0.0409  1.0583  0.1003
  809SOL    HW2 2427   2.531   1.977   1.805  0.8448  0.5484  1.5663
  810SOL     OW 2428   2.214   1.124   0.496 -0.2601 -0.1970 -0.1035
  810SOL    HW1 2429   2.228   1.031   0.537 -0.4742  1.3465 -0.9244
  810SOL    HW2 2430   2.168   1.201   0.553 -1.0075  0.1155  0.0811
  811SOL     OW 2431   1.295   2.539   1.185 -0.0541 -0.6585 -0.3291
  811SOL    HW1 2432   1.256   2.443   1.196 -0.3609 -0.4940 -1.3146
  811SOL    HW2 2433   1.282   2.583   1.277  3.5371 -2.0391  0.5407
  812SOL     OW 2434   1.454   0.742   1.924  0.1278  0.0622 -0.2753
  812SOL    HW1 2435   1.399   0.761   2.005  0.3584  1.5470 -0.3884
  812SOL    HW2 2436   1.482   0.821   1.864  2.4562 -0.8826  0.9717
  813SOL     OW 2437   1.642   2.076   2.377  0.6659 -0.0824  0.3213
  813SOL    HW1 2438   1.733   2.062   2.423  0.5611 -0.1118  0.1505
  813SOL    HW2 2439   1.645   2.032   2.281  0.2298  1.5271 -2.1670
  814SOL     OW 2440   3.005   1.700   2.869 -0.3007 -1.2435  0.8253
  814SOL    HW1 2441   3.057   1.688   2.955  0.7237 -0.1575 -2.9965
  814SOL    HW2 2442   3.003   1.797   2.832 -1.1232 -0.9126  1.5526
  815SOL     OW 2443   2.175   2.873   2.738  0.0561 -0.2896  0.3259
  815SOL    HW1 2444   2.159   2.783   2.789  0.8296  0.7384  1.3051
  815SOL    HW2 2445   2.263   2.921   2.762  1.7244 -0.0539 -2.0390
  816SOL     OW 2446   1.508   0.340   1.682 -0.6803  0.3606 -0.0367
  816SOL    HW1 2447   1.572   0.258   1.689 -1.5925 -0.1378 -1.9694
  816SOL    HW2 2448   1.449   0.366   1.762 -0.2509 -0.2822  0.7592
  817SOL     OW 2449   0.378   1.318   2.627 -0.3976  0.7343 -0.6252
  817SOL    HW1 2450   0.273   1.309   2.620 -0.6336 -1.0245  3.4649
  817SOL    HW2 2451   0.418   1.398   2.573  2.0890 -0.4071  1.0005
  818SOL     OW 2452   2.016   0.858   0.466  0.0005  0.5103 -0.0286
  818SOL    HW1 2453   2.119   0.832   0.448  0.9006 -3.8032  0.3184
  818SOL    HW2 2454   1.994   0.862   0.568  0.4338 -2.4211  1.6509
  819SOL     OW 2455   2.784   2.882   3.042  0.7266  0.5271 -0.2693
  819SOL    HW1 2456   2.844   2.803   3.016 -0.4691 -1.0154 -0.1430
  819SOL    HW2 2457   2.704   2.881   2.976 -2.0930 -0.4386 -2.1208
  820SOL     OW 2458   1.268   1.043   0.530 -0.0872  0.1725  0.2754
  820SOL    HW1 2459   1.316   1.128   0.574  0.9474  0.7763 -0.9799
  820SOL    HW2 2460   1.239   0.970   0.601 -0.3193 -2.8421 -2.5467
  821SOL     OW 2461   0.077   1.212   0.695 -0.4648  0.4097 -0.3339
  821SOL    HW1 2462   0.032   1.204   0.784  0.5321  4.4567  0.8005
  821SOL    HW2 2463   0.153   1.286   0.693 -1.2583 -1.4281  0.2836
  822SOL     OW 2464   2.522   1.744   2.467  0.4665 -0.7049  0.5621
  822SOL    HW1 2465   2.517   1.817   2.540  1.3301 -0.3553  0.2689
  822SOL    HW2 2466   2.433   1.728   2.415 -0.5683 -1.7077 -0.2008
  823SOL     OW 2467   2.015   0.937   1.214  0.1660 -0.6041  0.5572
  823SOL    HW1 2468   2.018   0.913   1.315  0.9724  0.7958 -2.3659
  823SOL    HW2 2469   1.934   0.897   1.163 -1.0258  3.0560 -1.3240
  824SOL     OW 2470   0.186   1.891   2.783 -0.1153 -0.3496  0.1465
  824SOL    HW1 2471   0.244   1.882   2.869 -1.1512 -0.2978  3.5364
  824SOL    HW2 2472   0.250   1.911   2.701 -0.3034 -1.2288 -1.1968
  825SOL     OW 2473   1.304   1.080   0.271 -0.2124 -0.2314 -0.1021
  825SOL    HW1 2474   1.317   1.171   0.228  1.3462 -0.1894  1.8551
  825SOL    HW2 2475   1.248   1.092   0.362  1.4841  0.9724 -0.5754
  826SOL     OW 2476   1.935   0.595   1.589  0.0744  0.1456  0.1711
  826SOL    HW1 2477   2.021   0.568   1.643 -0.4157  0.8952  0.4332
  826SOL    HW2 2478   1.866   0.519   1.572 -0.2002  1.5355  1.2583
  827SOL     OW 2479   0.707   1.196   0.434 -0.2820 -0.0691  0.5050
  827SOL    HW1 2480   0.782   1.159   0.374  1.1383 -0.1917  1.6883
  827SOL    HW2 2481   0.626   1.128   0.450 -2.2157  1.6855 -0.6188
  828SOL     OW 2482   2.630   0.149   1.527  0.3213  0.4361  0.0299
  828SOL    HW1 2483   2.545   0.087   1.539  1.0300 -0.4028 -0.7471
  828SOL    HW2 2484   2.660   0.187   1.615 -0.8893 -0.6442 -2.0780
  829SOL     OW 2485   2.934   2.395   2.966 -0.2257 -0.4636  0.2149
  829SOL    HW1 2486   2.836   2.375   2.983  0.0834  2.1238  0.7668
  829SOL    HW2 2487   2.964   2.496   2.975 -0.1363  0.2880  1.4220
  830SOL     OW 2488   2.890   0.894   2.976  0.8608  0.0133  0.2899
  830SOL    HW1 2489   2.904   0.982   3.031  2.6957 -0.7617  0.1244
  830SOL    HW2 2490   2.920   0.811   3.032  2.8568  2.9197  0.1768
  831SOL     OW 2491   0.129   0.569   0.424  0.0334 -0.2627  0.6591
  831SOL    HW1 2492   0.085   0.495   0.484 -0.6291 -0.4750 -0.2565
  831SOL    HW2 2493   0.148   0.528   0.328 -0.6968 -0.7896  0.0236
  832SOL     OW 2494   1.790   0.699   3.047  0.1331  0.3626  0.3515
  832SOL    HW1 2495   1.716   0.757   3.001  0.4707 -1.6807 -2.3466
  832SOL    HW2 2496   1.765   0.605   3.078  0.6537  0.3121  1.8561
  833SOL     OW 2497   2.361   2.113   0.513 -0.2189  0.0653  0.2186
  833SOL    HW1 2498   2.287   2.068   0.455  0.4363  1.7259 -1.3646
  833SOL    HW2 2499   2.442   2.054   0.517 -0.9149 -1.7019  0.4138
  834SOL     OW 2500   0.160   0.064   0.563 -0.2463 -0.6777 -0.2258
  834SOL    HW1 2501   0.217  -0.022   0.571 -2.6311  1.1076 -1.7381
  834SOL    HW2 2502   0.152   0.102   0.467  0.5992  2.1310  0.1497
  835SOL     OW 2503   2.429   1.602   1.130  0.2064  0.6313  0.4561
  835SOL    HW1 2504   2.500   1.543   1.168  0.4754 -1.5756 -0.1609
  835SOL    HW2 2505   2.461   1.670   1.060  1.2295 -1.3335  1.8682
  836SOL     OW 2506   1.557   0.813   2.588 -0.3002 -0.1086  0.0691
  836SOL    HW1 2507   1.461   0.842   2.576  1.0068 -0.1509 -0.4091
  836SOL    HW2 2508   1.617   0.846   2.509  3.5281  2.9491  0.8762
  837SOL     OW 2509   1.703   0.121   0.532 -0.4312  0.2323 -0.6991
  837SOL    HW1 2510   1.689   0.207   0.589  0.9626  1.2817  0.0010
  837SOL    HW2 2511   1.642   0.115   0.450 -0.5737 -0.4206  2.8150
  838SOL     OW 2512   1.225   1.458   2.683  0.4173  0.6220  0.3045
  838SOL    HW1 2513   1.162   1.456   2.763 -2.5921 -0.1759 -0.8325
  838SOL    HW2 2514   1.209   1.375   2.622 -0.5911  0.7214  0.3874
  839SOL     OW 2515   1.619   0.369   0.968  0.7707  0.3802  0.0615
  839SOL    HW1 2516   1.568   0.427   1.036 -1.8896 -0.2143 -2.1326
  839SOL    HW2 2517   1.568   0.284   0.959 -1.3488  3.0617  1.5491
  840SOL     OW 2518   2.655   2.959   1.662  0.4927  0.3444 -0.6485
  840SOL    HW1 2519   2.580   2.957   1.593 -1.0329 -0.2972  1.8676
  840SOL    HW2 2520   2.632   2.909   1.751 -2.2194  2.1337  0.9407
  841SOL     OW 2521   1.517   0.824   2.970  0.2906  0.2528  0.9265
  841SOL    HW1 2522   1.443   0.869   3.019  5.0457 -0.4723  0.0612
  841SOL    HW2 2523   1.539   0.882   2.885 -3.9216 -1.0434  2.1098
  842SOL     OW 2524   0.853   1.623   1.005 -0.7183  0.0565 -0.2382
  842SOL    HW1 2525   0.803   1.715   1.028  0.8315 -0.0944  1.4301
  842SOL    HW2 2526   0.807   1.569   0.933  1.2618  2.1308 -1.2122
  843SOL     OW 2527   0.141   0.066   1.472  0.0956 -0.4698 -0.0911
  843SOL    HW1 2528   0.224   0.111   1.514  0.0354 -1.3072  1.6028
  843SOL    HW2 2529   0.147  -0.035   1.451  2.8653 -0.1049 -0.2059
  844SOL     OW 2530   0.712   2.504   0.213 -0.2669 -0.6596 -0.2117
  844SOL    HW1 2531   0.686   2.512   0.314  0.8071  1.6688  0.2838
  844SOL    HW2 2532   0.630   2.508   0.150  0.7966 -0.1555 -1.6264
  845SOL     OW 2533   1.723   3.049   1.269 -0.1536  1.4342 -0.6621
  845SOL    HW1 2534   1.739   3.042   1.372 -2.5234  1.5176 -1.2979
  845SOL    HW2 2535   1.723   3.144   1.233  0.5533  0.9914 -0.7837
  846SOL     OW 2536   1.697   3.017   0.918  0.2436  0.2921  0.3739
  846SOL    HW1 2537   1.725   3.089   0.850 -0.2800  2.7919 -0.4491
  846SOL    HW2 2538   1.771   2.943   0.927  1.6307 -0.9153  0.2261
  847SOL     OW 2539   2.096   1.614   0.205  0.0729  0.1492  0.0642
  847SOL    HW1 2540   2.021   1.597   0.280 -3.0794  0.6712 -0.2221
  847SOL    HW2 2541   2.054   1.617   0.113  2.3737 -2.9937 -2.0574
  848SOL     OW 2542   2.488   0.841   2.614  0.4782 -0.6945 -0.0890
  848SOL    HW1 2543   2.482   0.944   2.615 -0.9570 -2.6287  1.1494
  848SOL    HW2 2544   2.396   0.807   2.579 -0.8289 -3.9506  0.6956
  849SOL     OW 2545   2.357   0.835   2.265  0.3963 -0.2594  0.4783
  849SOL    HW1 2546   2.431   0.786   2.217 -1.4724 -2.0046  0.5332
  849SOL    HW2 2547   2.315   0.783   2.350 -0.8694 -0.8118 -0.3994
  850SOL     OW 2548   1.561   0.199   1.245  0.1271 -0.3963 -0.1479
  850SOL    HW1 2549   1.540   0.178   1.144  1.2418  0.7861 -0.6536
  850SOL    HW2 2550   1.535   0.120   1.304  0.5625 -0.3184 -1.3585
  851SOL     OW 2551   0.478   1.728   0.652 -0.4470 -0.0229 -0.0576
  851SOL    HW1 2552   0.484   1.817   0.703  0.5461 -0.8900 -2.9235
  851SOL    HW2 2553   0.570   1.679   0.643 -0.7805  1.6826  0.8845
  852SOL     OW 2554   0.843   2.196   1.718  0.0562  1.1800 -0.7065
  852SOL    HW1 2555   0.833   2.292   1.683 -1.7611 -0.7429  2.2343
  852SOL    HW2 2556   0.785   2.178   1.800 -0.6585  0.3603  2.9062
  853SOL     OW 2557   2.616   1.510   2.577  0.0655 -0.1903  0.1822
  853SOL    HW1 2558   2.550   1.434   2.552 -2.1867  1.1351 -1.0389
  853SOL    HW2 2559   2.588   1.596   2.537  0.1594 -2.3780  1.3971
  854SOL     OW 2560   2.406   1.444   1.775  0.2689 -0.1499  0.4946
  854SOL    HW1 2561   2.470   1.394   1.715  1.4329  0.0054  2.0664
  854SOL    HW2 2562   2.330   1.392   1.814 -0.2505  1.3333  0.4725
  855SOL     OW 2563   2.019   2.267   0.995 -0.2358  0.2306  0.1953
  855SOL    HW1 2564   2.058   2.359   0.973 -0.5162 -1.8466 -1.6798
  855SOL    HW2 2565   2.047   2.233   1.083  0.2967  0.3206 -2.6768
  856SOL     OW 2566   1.401   1.380   0.892  0.1659  0.8442 -0.1533
  856SOL    HW1 2567   1.372   1.480   0.889  0.0656  0.3457  2.0853
  856SOL    HW2 2568   1.452   1.361   0.979 -3.3009  3.0331 -1.6288
  857SOL     OW 2569   2.893   2.556   1.022 -0.0192 -0.0558 -0.3993
  857SOL    HW1 2570   2.837   2.487   1.073 -2.6413  3.4415  0.3930
  857SOL    HW2 2571   2.886   2.556   0.921 -0.5284 -1.3291  0.2182
  858SOL     OW 2572   2.256   2.091   1.787 -0.0429 -0.4081  0.1149
  858SOL    HW1 2573   2.178   2.129   1.726 -2.3268  0.8797  1.0496
  858SOL    HW2 2574   2.326   2.030   1.744  1.5514 -0.4387  1.2900
  859SOL     OW 2575   2.397   0.434   0.977  0.4222 -0.2599 -0.5798
  859SOL    HW1 2576   2.477   0.463   0.921 -4.1437 -1.9116  1.5433
  859SOL    HW2 2577   2.433   0.351   1.029 -0.1989 -0.7118 -2.0009
  860SOL     OW 2578   1.957   2.818   0.485  0.3444  0.7165  0.3768
  860SOL    HW1 2579   1.946   2.770   0.398 -2.8396 -1.0143  0.3492
  860SOL    HW2 2580   1.968   2.918   0.475 -0.8325  1.1040  0.5070
  861SOL     OW 2581   1.019   2.563   2.795  0.0474  0.0679  0.3364
  861SOL    HW1 2582   1.086   2.638   2.780  0.4130 -0.0400  1.0904
  861SOL    HW2 2583   1.042   2.501   2.871 -1.0139  3.2782  1.1109
  862SOL     OW 2584   2.972   2.597   1.549  0.1202  0.3438  0.1920
  862SOL    HW1 2585   3.015   2.573   1.641 -0.8055 -0.4184  0.6990
  862SOL    HW2 2586   2.877   2.642   1.555 -2.3880  1.3744  1.9229
  863SOL     OW 2587   1.923   2.646   0.270  0.1164 -0.4756  0.0826
  863SOL    HW1 2588   1.971   2.551   0.266 -1.7672 -0.7163  1.8194
  863SOL    HW2 2589   1.820   2.647   0.279 -2.5588  2.9934  0.5891
  864SOL     OW 2590   1.908   1.125   2.957 -0.0155 -0.0458  0.1919
  864SOL    HW1 2591   1.915   1.134   2.858  0.5283  0.7181  0.6672
  864SOL    HW2 2592   1.997   1.097   3.002 -2.2951  1.9008 -1.7228
  865SOL     OW 2593   2.130   1.684   0.666 -0.3924 -0.3902  0.1156
  865SOL    HW1 2594   2.176   1.693   0.755 -2.5871  1.8723 -2.9166
  865SOL    HW2 2595   2.038   1.636   0.672  0.4804  0.8816 -0.6778
  866SOL     OW 2596   2.859   2.818   1.005 -0.2249 -0.1226  0.0293
  866SOL    HW1 2597   2.919   2.832   0.921 -0.7307  0.5175 -2.3249
  866SOL    HW2 2598   2.862   2.714   1.037  0.2737 -1.0251 -2.1701
  867SOL     OW 2599   0.457   1.314   0.865 -0.3166  0.7825 -0.1906
  867SOL    HW1 2600   0.473   1.217   0.839  2.1718  0.0736 -0.9524
  867SOL    HW2 2601   0.362   1.353   0.838  1.0626 -0.3985 -1.0762
  868SOL     OW 2602   0.840   1.963   1.997 -0.1243  0.0639  0.0314
  868SOL    HW1 2603   0.826   1.936   2.096  1.2949 -2.0254 -0.0837
  868SOL    HW2 2604   0.792   2.049   1.966  1.4518 -3.8894  0.1345
  869SOL     OW 2605   2.527   2.039   1.632 -0.1817  0.0392  0.3748
  869SOL    HW1 2606   2.605   2.096   1.593  2.2982  1.2082 -0.1520
  869SOL    HW2 2607   2.505   1.952   1.575 -1.3490 -2.0775  1.5874
  870SOL     OW 2608   2.388   2.520   1.180  0.2135  0.4591 -0.0871
  870SOL    HW1 2609   2.328   2.439   1.174  1.3818 -1.2391  1.1519
  870SOL    HW2 2610   2.481   2.499   1.221 -1.6277 -0.1836 -0.0294
  871SOL     OW 2611   3.006   2.008   0.520  0.1363 -0.7871 -0.3160
  871SOL    HW1 2612   2.928   2.064   0.490 -0.2176  1.5827 -0.6306
  871SOL    HW2 2613   3.022   1.928   0.451  1.6638  0.0676 -2.4354
  872SOL     OW 2614   2.171   0.502   1.687 -0.0751 -0.5326 -0.3731
  872SOL    HW1 2615   2.155   0.481   1.789  0.0919 -0.4124 -2.1103
  872SOL    HW2 2616   2.272   0.497   1.663 -1.4314  1.7885  0.7284
  873SOL     OW 2617   1.705   2.087   2.888  0.4598 -0.0883 -0.1135
  873SOL    HW1 2618   1.681   2.173   2.940 -1.6144  0.2163  1.9936
  873SOL    HW2 2619   1.651   2.071   2.803 -0.0845 -1.1200 -2.7076
  874SOL     OW 2620   0.712   2.515   0.744 -0.1090 -0.4890  0.1786
  874SOL    HW1 2621   0.685   2.613   0.767 -4.4366  2.3414 -2.4998
  874SOL    HW2 2622   0.808   2.484   0.775  0.2746 -0.1473 -2.5142
  875SOL     OW 2623   2.316   1.519   1.454 -0.2232  0.3403 -0.2984
  875SOL    HW1 2624   2.414   1.564   1.457 -1.4475  0.0287  0.1669
  875SOL    HW2 2625   2.279   1.527   1.359 -1.2582  1.1506  0.7263
  876SOL     OW 2626   0.173   2.211   2.709  0.2140  0.0731 -0.2430
  876SOL    HW1 2627   0.215   2.142   2.770 -1.3632 -0.8308 -0.1185
  876SOL    HW2 2628   0.186   2.308   2.742  1.2398  2.7966  1.9995
  877SOL     OW 2629   2.797   2.658   0.586  0.0693 -0.3392 -0.0988
  877SOL    HW1 2630   2.837   2.749   0.574 -2.7910 -0.2721 -0.4020
  877SOL    HW2 2631   2.856   2.587   0.639  1.7926 -2.3789  1.0729
  878SOL     OW 2632   2.763   1.544   2.233 -0.2217 -0.0503  0.6667
  878SOL    HW1 2633   2.785   1.646   2.237 -2.0475 -2.0393 -0.0446
  878SOL    HW2 2634   2.772   1.492   2.323  1.4013  1.3284 -0.1505
  879SOL     OW 2635   2.381   0.006   1.221  0.5801  0.2529  0.1371
  879SOL    HW1 2636   2.420  -0.089   1.224 -1.4911 -0.4567  2.1473
  879SOL    HW2 2637   2.290   0.002   1.172 -0.5646 -1.9434  2.3413
  880SOL     OW 2638   0.673   0.420   2.191 -0.1967 -0.2148  0.0478
  880SOL    HW1 2639   0.611   0.384   2.264 -3.4206  1.5801  0.8618
  880SOL    HW2 2640   0.736   0.343   2.167 -1.7525  0.3118 -3.1229
  881SOL     OW 2641   0.917   0.057   0.369  0.4104 -0.1436  0.3803
  881SOL    HW1 2642   0.976  -0.022   0.402  1.3403 -1.9345  1.1140
  881SOL    HW2 2643   0.887   0.048   0.272 -0.7201  0.6761  1.2486
  882SOL     OW 2644   2.756   1.660   1.662 -0.2210  0.9119 -0.5023
  882SOL    HW1 2645   2.856   1.640   1.658  1.4407 -0.0537  0.0975
  882SOL    HW2 2646   2.715   1.684   1.755 -0.3824 -1.6096 -3.7828
  883SOL     OW 2647   0.927   0.614   0.947 -0.2630  0.1379  0.0870
  883SOL    HW1 2648   0.946   0.675   1.033  2.6220  2.5584 -0.4689
  883SOL    HW2 2649   1.012   0.560   0.930 -0.2018  0.7708  2.3330
  884SOL     OW 2650   1.222   1.856   1.040  0.1121 -0.6636  0.6840
  884SOL    HW1 2651   1.182   1.855   0.944  2.3291  0.8953 -1.0511
  884SOL    HW2 2652   1.164   1.916   1.098  0.8928 -0.7058  1.8308
  885SOL     OW 2653   2.281   1.766   2.345 -0.5074 -0.8645  0.5021
  885SOL    HW1 2654   2.212   1.719   2.410 -0.2737 -1.4329 -2.3115
  885SOL    HW2 2655   2.270   1.874   2.340  1.6254  2.2010 -1.5959
  886SOL     OW 2656   2.661   0.469   1.778  0.1725  0.1292 -0.0055
  886SOL    HW1 2657   2.676   0.430   1.870  0.7756 -0.2666  2.9232
  886SOL    HW2 2658   2.727   0.547   1.750  1.0450  1.4511  2.6721
  887SOL     OW 2659   0.168   2.043   1.304  0.5408 -0.7061  0.0387
  887SOL    HW1 2660   0.108   1.979   1.254 -1.4958  1.9170  0.5560
  887SOL    HW2 2661   0.154   2.143   1.278  1.3323 -0.0939  2.4637
  888SOL     OW 2662   0.607   1.335   1.479 -0.2081  0.1834  0.3668
  888SOL    HW1 2663   0.662   1.312   1.392  0.4765  0.5364 -2.7672
  888SOL    HW2 2664   0.548   1.262   1.514 -0.3901 -0.1007 -2.1744
  889SOL     OW 2665   0.870   2.515   2.139 -0.4154 -0.2946  0.3479
  889SOL    HW1 2666   0.795   2.540   2.078 -0.5236  0.9968  2.5041
  889SOL    HW2 2667   0.961   2.492   2.093  3.1141 -0.3320  0.9940
  890SOL     OW 2668   2.335   2.388   0.141 -0.4987 -0.8807 -0.9033
  890SOL    HW1 2669   2.396   2.445   0.085  0.4167  1.0169  0.9390
  890SOL    HW2 2670   2.255   2.443   0.175  2.1591  0.9567  0.4452
  891SOL     OW 2671   2.581   1.536   0.603  0.7276 -0.0366 -0.0604
  891SOL    HW1 2672   2.577   1.482   0.694 -0.5197 -0.6589  0.8025
  891SOL    HW2 2673   2.485   1.567   0.568  1.7905  2.3374 -2.8244
  892SOL     OW 2674   0.228   0.304   2.219 -0.0194  0.5581 -0.3997
  892SOL    HW1 2675   0.234   0.312   2.116 -2.1081  1.3571  2.2170
  892SOL    HW2 2676   0.323   0.336   2.257 -0.4739  0.2388  2.4426
  893SOL     OW 2677   1.672   0.245   2.705 -0.2335 -0.0604 -0.0634
  893SOL    HW1 2678   1.740   0.320   2.732 -1.4552 -0.0068 -1.6686
  893SOL    HW2 2679   1.576   0.278   2.684  0.9289  0.2214 -2.2930
  894SOL     OW 2680   2.143   1.965   0.050  0.0041  0.1693 -0.0071
  894SOL    HW1 2681   2.138   1.921  -0.044 -0.8083  0.4763  3.4756
  894SOL    HW2 2682   2.206   1.908   0.112  0.6970  0.3252  0.1058
  895SOL     OW 2683   2.893   1.398   0.814 -0.2961  0.7595  0.0380
  895SOL    HW1 2684   2.943   1.326   0.873 -0.0553  0.5518 -1.5005
  895SOL    HW2 2685   2.935   1.491   0.818  2.0508 -0.7519 -0.5467
  896SOL     OW 2686   1.733   1.788   1.204  0.2725 -0.5836  0.5192
  896SOL    HW1 2687   1.816   1.835   1.164 -0.5030  0.6969  0.8406
  896SOL    HW2 2688   1.644   1.826   1.168  2.1998 -0.8461  2.1288
  897SOL     OW 2689   0.332   0.520   3.085 -0.1570 -0.6943 -0.6593
  897SOL    HW1 2690   0.273   0.576   3.017 -0.3459 -0.6760 -0.4823
  897SOL    HW2 2691   0.421   0.570   3.114 -0.8604  3.9029  1.2045
  898SOL     OW 2692   0.544   2.835   1.150 -0.3103  0.7007 -0.1620
  898SOL    HW1 2693   0.498   2.924   1.180  1.5155  0.8173  2.4960
  898SOL    HW2 2694   0.649   2.849   1.142 -0.3480  2.3434  1.0772
  899SOL     OW 2695   2.691   0.917   1.227  0.1336  0.0334  0.0079
  899SOL    HW1 2696   2.630   0.889   1.151 -0.1134  0.8125 -0.4231
  899SOL    HW2 2697   2.786   0.951   1.199 -1.1846  0.4627  0.5571
  900SOL     OW 2698   1.007   2.348   2.324 -0.3083 -0.6810 -0.2446
  900SOL    HW1 2699   0.926   2.388   2.268 -3.3762 -0.4026 -1.9521
  900SOL    HW2 2700   0.992   2.362   2.426  0.4313  0.2015  1.1894
  901SOL     OW 2701   1.900   2.450   1.380  0.0465 -0.7046  0.0078
  901SOL    HW1 2702   1.903   2.457   1.275 -1.0948  0.7540 -0.2957
  901SOL    HW2 2703   1.996   2.441   1.427  1.1344 -2.0104  3.7280
  902SOL     OW 2704   2.563   1.631   1.474 -0.4029  0.2047  0.4510
  902SOL    HW1 2705   2.635   1.665   1.544  0.1207 -1.4377 -1.0354
  902SOL    HW2 2706   2.612   1.606   1.388 -1.6361 -1.4401 -1.3490
  903SOL     OW 2707   0.270   2.322   1.965  0.4094 -0.0546 -0.1220
  903SOL    HW1 2708   0.198   2.304   2.036  1.1898 -0.3441 -0.8616
  903SOL    HW2 2709   0.240   2.382   1.890 -0.3685  4.3425  1.1775
  904SOL     OW 2710   1.968   0.785   2.590 -0.0577 -0.1607  0.0252
  904SOL    HW1 2711   1.919   0.702   2.621  0.1323  1.4327  0.3481
  904SOL    HW2 2712   1.970   0.801   2.484 -1.1529 -0.8934  1.3140
  905SOL     OW 2713   2.736   0.030   2.647 -0.1757  0.3611 -0.0169
  905SOL    HW1 2714   2.804  -0.044   2.628 -0.9576 -1.3841  0.1311
  905SOL    HW2 2715   2.762   0.119   2.598  0.4755 -1.5390  0.5611
  906SOL     OW 2716   0.115   1.743   1.973 -0.5906 -0.2927  0.4446
  906SOL    HW1 2717   0.055   1.781   1.899 -0.5805 -1.3396 -0.9431
  906SOL    HW2 2718   0.215   1.764   1.956  2.8495 -1.1312  1.1543
  907SOL     OW 2719   0.179   2.463   1.051  0.2645  0.1569 -0.0791
  907SOL    HW1 2720   0.256   2.529   1.051 -1.4520  1.0269 -0.4349
  907SOL    HW2 2721   0.142   2.441   0.958  0.8818 -0.0007  1.5946
  908SOL     OW 2722   2.636   2.879   0.422 -0.2967 -0.4528 -0.2058
  908SOL    HW1 2723   2.669   2.934   0.341 -2.3787 -0.3821  2.4342
  908SOL    HW2 2724   2.681   2.786   0.433 -1.2661  1.8440  2.8432
  909SOL     OW 2725   0.736   0.898   2.655 -0.8144  0.1779  0.1958
  909SOL    HW1 2726   0.697   0.799   2.647 -0.7484 -1.5873 -0.9767
  909SOL    HW2 2727   0.774   0.943   2.568 -3.5860 -0.0964 -1.2818
  910SOL     OW 2728   1.761   1.789   2.006  0.2732 -0.1089 -0.1624
  910SOL    HW1 2729   1.803   1.844   1.926  1.6763 -0.3471  0.7469
  910SOL    HW2 2730   1.703   1.842   2.075  0.7128  0.2049  0.5243
  911SOL     OW 2731   1.757   3.052   1.550  0.6030 -0.7239 -0.2926
  911SOL    HW1 2732   1.835   3.010   1.501  0.1602  0.2117 -1.1725
  911SOL    HW2 2733   1.730   3.006   1.635 -0.4695  0.6069  1.1811
  912SOL     OW 2734   2.811   0.946   0.791 -0.2595  0.6021  0.0489
  912SOL    HW1 2735   2.841   0.938   0.891  2.7541  0.6720  0.1380
  912SOL    HW2 2736   2.785   1.044   0.764 -3.6998  0.0856  0.6917
  913SOL     OW 2737   2.548   1.259   1.550  0.3136  0.1036 -0.0947
  913SOL    HW1 2738   2.555   1.158   1.523  0.0916  2.3478 -0.7162
  913SOL    HW2 2739   2.590   1.320   1.477  0.4938  1.5149 -2.2052
  914SOL     OW 2740   2.800   0.523   1.251 -0.1970 -0.6641  0.1351
  914SOL    HW1 2741   2.772   0.431   1.285 -2.0589 -0.3768  0.0204
  914SOL    HW2 2742   2.764   0.591   1.316  1.5479  1.7706  0.0736
  915SOL     OW 2743   1.232   0.834   1.002 -0.5521  0.6806 -0.2681
  915SOL    HW1 2744   1.301   0.897   1.045  0.9398  0.0505  0.9173
  915SOL    HW2 2745   1.141   0.827   1.050  0.5635  1.2160 -1.3325
  916SOL     OW 2746   0.520   0.044   0.591  0.4396 -0.2960  0.2483
  916SOL    HW1 2747   0.541   0.118   0.658  0.3557 -1.1972 -0.2413
  916SOL    HW2 2748   0.517   0.073   0.493  0.3132 -2.8853 -0.0973
  917SOL     OW 2749   2.767   2.609   1.926  0.2956 -0.9909  0.0060
  917SOL    HW1 2750   2.675   2.649   1.890  0.4952  2.5440 -0.0040
  917SOL    HW2 2751   2.838   2.680   1.925 -0.1843 -0.5341 -2.2440
  918SOL     OW 2752   0.983   2.213   3.075  0.1912  0.1501 -0.3394
  918SOL    HW1 2753   0.947   2.257   3.163 -1.3591  0.7946 -1.1932
  918SOL    HW2 2754   0.982   2.110   3.076 -0.2096 -0.5420  1.2227
  919SOL     OW 2755   0.946   1.634   2.842 -0.1331  0.6182  0.6389
  919SOL    HW1 2756   0.974   1.688   2.755 -1.9822 -0.7365 -0.0465
  919SOL    HW2 2757   0.884   1.552   2.819  2.0364  0.2945 -2.3020
  920SOL     OW 2758   1.260   2.064   2.521  0.6296  0.1080 -0.1809
  920SOL    HW1 2759   1.228   2.092   2.431 -0.0192 -2.1765  1.9567
  920SOL    HW2 2760   1.291   1.968   2.535 -1.8517  0.6465 -1.9871
  921SOL     OW 2761   1.034   0.150   2.573 -0.3792 -0.3020  0.2891
  921SOL    HW1 2762   1.055   0.111   2.479  1.3239 -0.7381  0.5227
  921SOL    HW2 2763   0.939   0.179   2.575  4.6936  2.4762 -1.5465
  922SOL     OW 2764   2.139   2.412   2.770 -0.9797  0.3568  0.3220
  922SOL    HW1 2765   2.155   2.310   2.777 -0.6748 -0.2542 -3.2658
  922SOL    HW2 2766   2.095   2.441   2.683 -0.0136 -0.2306  0.8023
  923SOL     OW 2767   1.178   2.680   0.256 -0.3990  0.6468 -0.3715
  923SOL    HW1 2768   1.257   2.733   0.293 -1.7500  0.6952 -2.7867
  923SOL    HW2 2769   1.204   2.600   0.202  0.6216  0.2176 -1.3230
  924SOL     OW 2770   2.894   1.571   0.093 -0.4487 -0.2983  0.5534
  924SOL    HW1 2771   2.818   1.557   0.020 -1.9876  2.4831 -0.3464
  924SOL    HW2 2772   2.987   1.583   0.047 -0.1024 -0.5908  0.4928
  925SOL     OW 2773   0.063   2.850   1.669  0.1060  0.1449 -0.3816
  925SOL    HW1 2774  -0.016   2.920   1.678  2.4172  2.0692  0.1561
  925SOL    HW2 2775   0.039   2.766   1.615  0.7374  1.3078 -2.1029
  926SOL     OW 2776   1.434   2.883   1.328  0.4236 -0.6244 -0.0569
  926SOL    HW1 2777   1.444   2.895   1.223  1.1835  1.0647  1.2658
  926SOL    HW2 2778   1.442   2.967   1.387 -1.6036 -0.9206  0.4364
  927SOL     OW 2779   0.294   2.529   1.764  0.0915  0.0293  0.0553
  927SOL    HW1 2780   0.252   2.500   1.672  0.7496  0.8009  0.2004
  927SOL    HW2 2781   0.377   2.591   1.749  0.6134  1.2835  2.8076
  928SOL     OW 2782   1.610   1.963   2.130  0.0481  0.0178 -0.1783
  928SOL    HW1 2783   1.654   2.045   2.084  0.6645 -1.8550 -0.4387
  928SOL    HW2 2784   1.506   1.947   2.108  0.0176 -1.9644 -2.5017
  929SOL     OW 2785   2.401   2.470   2.819 -0.2585 -0.2004  0.0293
  929SOL    HW1 2786   2.297   2.460   2.817 -5.0669  0.5483 -0.5417
  929SOL    HW2 2787   2.444   2.471   2.723 -2.8890  1.9046 -1.3633
  930SOL     OW 2788   2.221   1.996   1.095  0.0081  0.5840  0.2100
  930SOL    HW1 2789   2.210   1.962   1.194  1.8212  0.0159 -2.6561
  930SOL    HW2 2790   2.302   2.060   1.079 -1.6854 -1.3075 -0.8410
  931SOL     OW 2791   0.559   1.721   2.604  0.4198 -0.2198  0.1923
  931SOL    HW1 2792   0.604   1.724   2.698 -2.4346 -0.0119 -0.9010
  931SOL    HW2 2793   0.574   1.623   2.570  0.3994  1.0318  0.3581
  932SOL     OW 2794   0.459   0.103   2.937  0.0023  0.0410 -0.4677
  932SOL    HW1 2795   0.558   0.137   2.932 -0.4935  1.2530 -0.3166
  932SOL    HW2 2796   0.465   0.002   2.958  0.9942  1.4462 -1.0917
  933SOL     OW 2797   1.056   0.782   3.011  0.0986 -0.0691  0.2383
  933SOL    HW1 2798   1.121   0.788   3.092  1.9458 -0.0730  1.7282
  933SOL    HW2 2799   1.029   0.876   2.974 -1.1655  0.8712 -1.9195
  934SOL     OW 2800   0.810   2.974   2.743 -0.5859 -0.3596 -0.0787
  934SOL    HW1 2801   0.864   2.913   2.673 -1.5470  1.0556 -0.0269
  934SOL    HW2 2802   0.791   2.933   2.836 -1.3953  0.1743  0.7526
  935SOL     OW 2803   3.082   0.497   0.868 -0.1147 -0.0902  0.2561
  935SOL    HW1 2804   3.112   0.457   0.780 -0.5902  3.1970  4.4087
  935SOL    HW2 2805   2.992   0.549   0.863  0.4744  1.2894  1.3219
  936SOL     OW 2806   1.065   2.955   0.153  0.3699  0.0402 -0.4516
  936SOL    HW1 2807   1.155   2.979   0.108  2.1350  1.0589  1.1319
  936SOL    HW2 2808   1.069   2.855   0.189  1.4064 -2.0132 -0.7816
  937SOL     OW 2809   1.936   2.623   2.066  0.3943 -0.1350 -0.2418
  937SOL    HW1 2810   1.846   2.672   2.084 -0.2535 -0.8569 -0.4025
  937SOL    HW2 2811   1.967   2.639   1.969  1.2383 -0.4788  0.8539
  938SOL     OW 2812   2.788   2.167   1.470 -0.3253  0.5240 -0.1251
  938SOL    HW1 2813   2.737   2.238   1.532 -0.3842 -2.5663  2.4705
  938SOL    HW2 2814   2.873   2.125   1.517  0.1762 -0.4886 -0.4329
  939SOL     OW 2815   2.777   1.086   2.494 -0.7405  0.6516 -0.0516
  939SOL    HW1 2816   2.866   1.030   2.507 -0.9566 -1.5273  1.9203
  939SOL    HW2 2817   2.734   1.111   2.583 -0.6510  0.7677  0.9254
  940SOL     OW 2818   1.070   0.481   2.629  0.3237 -0.3702 -0.3469
  940SOL    HW1 2819   1.132   0.403   2.630 -0.6158 -1.4959 -1.4697
  940SOL    HW2 2820   0.977   0.452   2.625 -1.6565  1.3624  1.0610
  941SOL     OW 2821   0.044   2.848   2.198 -0.1592  0.5723  0.1972
  941SOL    HW1 2822   0.032   2.740   2.199 -1.7019 -2.8537 -0.3816
  941SOL    HW2 2823   0.130   2.882   2.246  1.3071 -0.8304 -0.4440
  942SOL     OW 2824   0.057   0.081   2.532  0.1361  0.2115  0.6689
  942SOL    HW1 2825   0.102   0.083   2.627 -1.4186  0.8232 -0.8407
  942SOL    HW2 2826   0.044   0.173   2.487 -0.7976  0.4090  1.4717
  943SOL     OW 2827   2.067   1.590   2.409  0.0739  0.1005 -0.1767
  943SOL    HW1 2828   2.074   1.552   2.318 -0.5819  3.4729  2.3060
  943SOL    HW2 2829   2.105   1.528   2.481 -4.5108 -0.3512  1.2488
  944SOL     OW 2830   2.150   2.416   1.485 -0.0523 -0.0092  0.0014
  944SOL    HW1 2831   2.229   2.466   1.527  3.1795  0.4352 -0.1293
  944SOL    HW2 2832   2.128   2.333   1.537  1.7083  1.1674 -2.9595
  945SOL     OW 2833   0.603   1.417   0.350  0.4148  0.0083 -0.0630
  945SOL    HW1 2834   0.638   1.465   0.265  2.6637  0.5535  0.7653
  945SOL    HW2 2835   0.655   1.332   0.372  0.3185  0.8594 -0.0468
  946SOL     OW 2836   0.383   1.010   2.540 -0.3553  0.3786  0.1746
  946SOL    HW1 2837   0.282   0.978   2.534 -1.0952 -2.3934  1.5960
  946SOL    HW2 2838   0.395   1.110   2.524  0.5428 -2.0702  0.1547
  947SOL     OW 2839   1.470   0.488   0.119 -0.4024 -0.6116 -0.3068
  947SOL    HW1 2840   1.375   0.527   0.127  2.0565 -2.9074  1.2836
  947SOL    HW2 2841   1.469   0.385   0.120  0.2782 -2.3522 -0.9576
  948SOL     OW 2842   1.944   3.093   2.194  0.2977  0.3919  0.0484
  948SOL    HW1 2843   1.927   3.069   2.091 -0.8113  0.8056  0.8821
  948SOL    HW2 2844   1.937   3.008   2.249 -0.8505  0.3003 -3.3411
  949SOL     OW 2845   0.629   2.531   0.482  0.1703 -0.3899  0.0493
  949SOL    HW1 2846   0.639   2.622   0.431 -0.1005 -1.0299 -0.8489
  949SOL    HW2 2847   0.653   2.532   0.583 -1.4611  0.8452  1.0777
  950SOL     OW 2848   0.305   2.090   3.054 -0.2608  0.1604 -0.5973
  950SOL    HW1 2849   0.209   2.129   3.036  1.1247  0.9742 -3.1702
  950SOL    HW2 2850   0.308   1.986   3.058  1.2857  0.6060  2.7437
  951SOL     OW 2851   1.205   2.767   2.769 -0.2763 -0.3519 -0.0026
  951SOL    HW1 2852   1.141   2.825   2.722  0.1940 -2.5629 -0.4462
  951SOL    HW2 2853   1.253   2.816   2.846 -1.2469 -1.0704  2.0548
  952SOL     OW 2854   0.088   1.652   0.473 -0.5054 -0.1192  0.2901
  952SOL    HW1 2855   0.184   1.692   0.463  3.3476  1.8649  0.5555
  952SOL    HW2 2856   0.045   1.648   0.571 -1.7990 -1.7088  1.8527
  953SOL     OW 2857   2.573   1.739   0.152 -0.5858 -0.7022 -0.5623
  953SOL    HW1 2858   2.524   1.655   0.175 -0.0498 -0.4594 -0.2930
  953SOL    HW2 2859   2.569   1.761   0.048  0.2925  0.0884 -2.3762
  954SOL     OW 2860   2.153   0.553   1.021  0.4044 -0.1838 -0.0735
  954SOL    HW1 2861   2.107   0.543   0.934  1.6061  1.4555  2.0629
  954SOL    HW2 2862   2.250   0.512   1.026  0.7333 -0.3138  0.9135
  955SOL     OW 2863   0.283   2.682   1.292  0.1373  0.1275 -0.0224
  955SOL    HW1 2864   0.189   2.647   1.315 -1.5747 -1.6659 -0.6462
  955SOL    HW2 2865   0.312   2.673   1.191  1.4228  0.3747 -0.2633
  956SOL     OW 2866   2.762   2.456   2.504  0.2732  0.1354 -0.2473
  956SOL    HW1 2867   2.764   2.347   2.506 -2.0763  0.5860  0.8779
  956SOL    HW2 2868   2.794   2.500   2.415  0.6581  0.5675 -0.1508
  957SOL     OW 2869   1.533   2.052   2.663 -0.2745  0.7426 -1.2081
  957SOL    HW1 2870   1.530   1.953   2.698  1.1234 -1.5762  3.7247
  957SOL    HW2 2871   1.526   2.061   2.562 -0.0501  0.4161 -0.5212
  958SOL     OW 2872   2.655   2.342   3.001  0.6064 -0.1477  0.2361
  958SOL    HW1 2873   2.575   2.385   2.959 -0.8216 -0.3725  0.8566
  958SOL    HW2 2874   2.630   2.259   3.055 -2.0239  2.7739 -0.2159
  959SOL     OW 2875   0.240   2.799   0.005 -1.0573  0.1698 -0.2014
  959SOL    HW1 2876   0.158   2.788   0.070 -2.4049 -0.2588  0.7897
  959SOL    HW2 2877   0.298   2.709   0.009 -1.8988 -2.2562 -0.4893
  960SOL     OW 2878   2.003   0.497   1.918  0.6003  0.1793  0.0664
  960SOL    HW1 2879   1.962   0.589   1.894  1.6177 -2.9577  1.7394
  960SOL    HW2 2880   1.997   0.473   2.019 -0.3651 -0.1859  0.5388
  961SOL     OW 2881   2.578   1.834   1.074  0.1226  0.3555 -0.6161
  961SOL    HW1 2882   2.543   1.927   1.039 -0.1688  1.1034 -0.4893
  961SOL    HW2 2883   2.660   1.853   1.138  1.0390  1.7008  0.8618
  962SOL     OW 2884   1.256   0.925   0.049 -0.2831  1.0673 -0.3156
  962SOL    HW1 2885   1.268   0.978  -0.037  0.6243  0.2717 -3.4616
  962SOL    HW2 2886   1.268   0.979   0.137 -0.6260 -1.2957  0.4579
  963SOL     OW 2887   2.309   2.630   1.859 -0.4747  0.1716  0.4281
  963SOL    HW1 2888   2.307   2.539   1.912  0.7687 -0.7537  0.2587
  963SOL    HW2 2889   2.318   2.719   1.919  0.4503  1.4166 -0.1119
  964SOL     OW 2890   2.439   0.381   1.657 -0.5024  0.2174  0.2645
  964SOL    HW1 2891   2.525   0.435   1.680  0.1340 -1.7074 -1.5433
  964SOL    HW2 2892   2.429   0.349   1.557  2.5576 -2.0255  2.6147
  965SOL     OW 2893   2.627   2.997   0.156  0.0012  0.2483 -1.5617
  965SOL    HW1 2894   2.671   2.938   0.080 -0.6267  1.0753  2.2890
  965SOL    HW2 2895   2.533   3.014   0.135  3.2419 -2.0337  3.4295
  966SOL     OW 2896   2.567   2.583   2.203  0.2032  0.2032 -0.4808
  966SOL    HW1 2897   2.489   2.534   2.155  1.5029 -1.8868 -2.7505
  966SOL    HW2 2898   2.540   2.673   2.245 -1.2947 -2.0716 -0.1100
  967SOL     OW 2899   2.760   2.799   2.438  0.0817  0.6092  0.0635
  967SOL    HW1 2900   2.800   2.736   2.365 -1.1266  0.9575  1.5039
  967SOL    HW2 2901   2.826   2.868   2.468 -2.1968  2.0897 -1.4069
  968SOL     OW 2902   2.031   1.062   2.669  0.2499 -0.6070 -0.2444
  968SOL    HW1 2903   1.994   1.145   2.621  0.8721 -2.6405  0.9207
  968SOL    HW2 2904   1.985   0.977   2.653 -1.3337  2.0769  1.4924
  969SOL     OW 2905   2.741   2.334   1.111 -0.2480 -0.1833  0.0600
  969SOL    HW1 2906   2.697   2.342   1.018  0.8552  0.7146  0.1426
  969SOL    HW2 2907   2.800   2.250   1.124  2.1391  0.8848 -1.4684
  970SOL     OW 2908   1.104   2.206   1.742  0.1665  0.4624 -0.2483
  970SOL    HW1 2909   1.002   2.220   1.735 -0.1431 -1.5926  1.0478
  970SOL    HW2 2910   1.140   2.253   1.825 -0.8781  1.9638 -1.6207
  971SOL     OW 2911   2.825   2.091   1.938  0.0691  0.3394  0.2649
  971SOL    HW1 2912   2.803   2.190   1.956  0.0418 -1.7167  2.1143
  971SOL    HW2 2913   2.908   2.087   1.878 -1.5012  1.3522  0.9238
  972SOL     OW 2914   2.012   2.389   0.257 -0.1436  0.2471 -0.2209
  972SOL    HW1 2915   1.993   2.303   0.198 -1.2166  0.4862 -0.6598
  972SOL    HW2 2916   2.044   2.367   0.356  3.0313  0.3917 -2.2764
  973SOL     OW 2917   1.233   1.077   1.982  0.5025  0.0483 -0.1095
  973SOL    HW1 2918   1.145   1.044   1.943 -1.7278  2.0227 -0.2287
  973SOL    HW2 2919   1.252   1.177   1.995 -1.8614 -0.8973  0.8273
  974SOL     OW 2920   1.657   0.540   1.897  0.2610 -0.2510 -0.0146
  974SOL    HW1 2921   1.740   0.588   1.855  0.8088 -1.8918  0.2095
  974SOL    HW2 2922   1.583   0.609   1.921  2.7223 -2.6552 -0.9574
  975SOL     OW 2923   2.328   3.054   3.080  0.2301  0.1041 -0.2374
  975SOL    HW1 2924   2.263   2.985   3.131 -2.1726 -2.5228  1.1322
  975SOL    HW2 2925   2.365   3.019   2.989  0.4202 -0.4286 -1.8385
  976SOL     OW 2926   1.928   2.877   2.354 -0.3270  0.0914 -0.0009
  976SOL    HW1 2927   1.900   2.805   2.293 -0.0199 -0.1197 -1.8653
  976SOL    HW2 2928   1.910   2.853   2.456  0.0834 -1.8937  0.5023
  977SOL     OW 2929   0.507   0.679   1.037 -0.1330  0.6358 -0.0377
  977SOL    HW1 2930   0.408   0.673   1.000  2.3913  1.0264  1.5392
  977SOL    HW2 2931   0.578   0.619   0.985  2.4855  0.8166 -0.0516
   3.10000   3.10000   3.10000
