1000 SPC/Fw water molecules t=   0.09000 step= 90
 2931
    1SOL     OW    1   2.517   0.383   2.590 -0.0188 -1.2788  0.0534
    1SOL    HW1    2   2.503   0.279   2.583  4.5634  0.2099  1.4993
    1SOL    HW2    3   2.580   0.413   2.671 -0.0322  1.5464 -0.5264
    2SOL     OW    4   2.734   3.011   1.431  0.2082  0.5070 -0.2440
    2SOL    HW1    5   2.812   3.062   1.382  0.6794  3.1147 -2.0674
    2SOL    HW2    6   2.666   3.071   1.482  1.0286 -2.8996  0.3776
    3SOL     OW    7   2.699   2.616   0.430 -0.1423 -0.8150  0.5824
    3SOL    HW1    8   2.629   2.549   0.471 -1.1200 -1.1410  0.3294
    3SOL    HW2    9   2.782   2.621   0.495  0.9379  0.6809 -1.8000
    4SOL     OW   10   1.318   1.443   2.323  0.2744  0.3082 -0.2941
    4SOL    HW1   11   1.265   1.528   2.346 -1.4175  1.0644  1.7633
    4SOL    HW2   12   1.305   1.370   2.392  0.3480 -1.7158 -1.5307
    5SOL     OW   13   1.194   1.490   3.057  0.3062  0.0190  0.2554
    5SOL    HW1   14   1.218   1.589   3.082  1.3738  1.6837  0.5486
    5SOL    HW2   15   1.090   1.474   3.056 -1.9197  0.0595  0.0502
    6SOL     OW   16   0.142   1.879   2.951 -0.2820 -0.1905  0.0359
    6SOL    HW1   17   0.162   1.941   3.030 -1.6182 -1.9393  1.2804
    6SOL    HW2   18   0.085   1.797   2.970 -0.2162 -2.1712 -1.4820
    7SOL     OW   19   2.603   0.815   1.177  0.1993 -0.2822 -0.4252
    7SOL    HW1   20   2.545   0.768   1.247 -1.9879 -1.0860 -1.4967
    7SOL    HW2   21   2.614   0.776   1.082  1.1070 -1.4444  1.4623
    8SOL     OW   22   0.450   0.679   1.554  0.1731  0.2077 -0.3218
    8SOL    HW1   23   0.490   0.598   1.601  0.7652 -1.5162 -2.4281
    8SOL    HW2   24   0.417   0.660   1.455 -2.6469 -1.3269 -1.3400
    9SOL     OW   25   1.145   0.899   2.271  0.2203  0.0212  0.0632
    9SOL    HW1   26   1.213   0.974   2.241  3.2716 -0.2609  2.2218
    9SOL    HW2   27   1.078   0.881   2.201  1.8275  2.4929 -0.4587
   10SOL     OW   28   0.619   1.360   1.312  0.3923 -0.3879 -0.2867
   10SOL    HW1   29   0.532   1.380   1.261 -4.5500 -2.4590  2.9531
   10SOL    HW2   30   0.696   1.426   1.284 -3.1436  1.3569 -0.5872
   11SOL     OW   31   2.309   2.557   0.912 -0.4474  0.2453  0.1941
   11SOL    HW1   32   2.355   2.628   0.976 -0.5505  1.8188 -1.9090
   11SOL    HW2   33   2.347   2.464   0.918  1.1938  0.7647 -0.0433
   12SOL     OW   34   1.412   0.897   0.484  0.3204 -0.0619 -0.1721
   12SOL    HW1   35   1.397   0.950   0.395 -3.4175 -1.6685  0.8840
   12SOL    HW2   36   1.373   0.798   0.481  1.6515 -0.0068  0.7687
   13SOL     OW   37   2.451   0.663   1.779  0.2726 -0.3312  0.1026
   13SOL    HW1   38   2.355   0.644   1.813  0.8420 -2.0297  0.2424
   13SOL    HW2   39   2.473   0.607   1.690  0.6011 -0.7702  0.3461
   14SOL     OW   40   1.802   0.008   0.543  0.5124 -0.5429 -0.0300
   14SOL    HW1   41   1.702   0.020   0.519  0.1326  2.4026  1.0747
   14SOL    HW2   42   1.826   0.025   0.640  1.6547 -3.4481  0.4155
   15SOL     OW   43   1.966   2.057   2.812  0.0766  0.0747  0.1957
   15SOL    HW1   44   1.909   2.128   2.866 -1.0962  3.0595 -1.1974
   15SOL    HW2   45   1.909   1.989   2.756  0.6728  0.2338  2.4484
   16SOL     OW   46   1.560   1.691   0.027 -0.2598  1.0832  0.3403
   16SOL    HW1   47   1.580   1.594  -0.008  0.1796 -1.6319  1.0574
   16SOL    HW2   48   1.582   1.700   0.129 -0.1459  1.3466  0.7589
   17SOL     OW   49   0.102   0.438   0.167  0.6150 -0.8952  0.4335
   17SOL    HW1   50   0.186   0.441   0.109 -1.8159 -1.1172  0.8841
   17SOL    HW2   51   0.014   0.449   0.113  4.0870 -0.4277 -0.1306
   18SOL     OW   52   1.096   2.891   2.156  0.0463  0.1555 -0.0247
   18SOL    HW1   53   1.025   2.848   2.097  1.9369  1.0293  2.6632
   18SOL    HW2   54   1.185   2.905   2.106  0.3261 -2.0145 -1.4058
   19SOL     OW   55   0.584   1.000   1.952 -0.5252 -0.4513 -0.0671
   19SOL    HW1   56   0.515   1.036   2.024 -0.8489  2.6193 -1.0360
   19SOL    HW2   57   0.619   0.902   1.973  0.5267  0.1866  0.0376
   20SOL     OW   58   0.268   2.751   0.850  0.0326  0.4512 -0.0750
   20SOL    HW1   59   0.176   2.808   0.840 -1.3364  2.1325  2.2380
   20SOL    HW2   60   0.309   2.730   0.756 -0.0972 -0.6174 -0.0141
   21SOL     OW   61   2.826   0.212   2.150 -0.6524  0.2096  0.3060
   21SOL    HW1   62   2.893   0.150   2.100  1.9191 -0.1437  0.5897
   21SOL    HW2   63   2.797   0.177   2.245 -4.6469  0.9330  2.6835
   22SOL     OW   64   2.352   0.201   0.070  0.0420  0.3235 -0.4622
   22SOL    HW1   65   2.356   0.099   0.083  2.2493  4.2309  2.0998
   22SOL    HW2   66   2.254   0.242   0.058  1.3748  0.4301  1.8562
   23SOL     OW   67   2.762   0.662   0.697  0.2468 -0.2538  0.1266
   23SOL    HW1   68   2.775   0.565   0.670  0.0776  2.0664  2.2182
   23SOL    HW2   69   2.773   0.724   0.616  0.2546  1.1390  1.7019
   24SOL     OW   70   0.160   1.886   0.452  0.4226  0.0987  0.0833
   24SOL    HW1   71   0.063   1.900   0.425 -0.6369  1.8193 -0.9087
   24SOL    HW2   72   0.220   1.908   0.368 -0.3006  2.3548 -1.6601
   25SOL     OW   73   2.263   0.506   0.186  0.0085 -0.2203  0.0084
   25SOL    HW1   74   2.351   0.467   0.221  4.9156 -2.5148 -0.8441
   25SOL    HW2   75   2.244   0.490   0.085 -2.3925  2.3042 -3.4727
   26SOL     OW   76   2.564   2.176   2.071  0.6725  0.5251  0.4132
   26SOL    HW1   77   2.604   2.231   2.150 -1.5839 -0.6966  0.6167
   26SOL    HW2   78   2.630   2.105   2.029 -0.1588 -0.3039 -0.7578
   27SOL     OW   79   0.678   2.983   0.121  0.1475  0.0673 -0.6108
   27SOL    HW1   80   0.765   3.036   0.106 -0.6418 -0.8687  1.1548
   27SOL    HW2   81   0.633   2.974   0.025  2.2430 -1.2124 -0.8463
   28SOL     OW   82   1.461   0.238   0.198  0.2226 -0.1722 -0.1412
   28SOL    HW1   83   1.547   0.196   0.174 -2.3727 -0.3014 -0.5393
   28SOL    HW2   84   1.479   0.327   0.249 -0.4507  0.4996  2.3030
   29SOL     OW   85   2.018   0.600   0.303 -0.3508  0.6103 -0.2037
   29SOL    HW1   86   2.018   0.698   0.339 -1.3459 -1.0562  1.5108
   29SOL    HW2   87   2.118   0.564   0.281  0.5054  3.0859 -3.4361
   30SOL     OW   88   0.210   2.061   0.909  0.4664 -0.0633  0.1415
   30SOL    HW1   89   0.190   2.040   0.809  3.9363 -1.7095 -1.3677
   30SOL    HW2   90   0.122   2.089   0.957 -1.5922  2.1548  2.0347
   31SOL     OW   91   2.076   0.044   2.322 -0.8169 -0.0669  0.0495
   31SOL    HW1   92   2.052   0.037   2.423  0.5123 -0.1431  1.1871
   31SOL    HW2   93   2.012  -0.018   2.266 -1.1910 -0.2260 -1.3137
   32SOL     OW   94   2.993   0.120   0.236 -0.2110  0.1295 -0.0729
   32SOL    HW1   95   2.966   0.059   0.318 -1.4023 -2.5544 -0.7413
   32SOL    HW2   96   3.072   0.083   0.180  0.1888 -0.1303  3.2945
   33SOL     OW   97   0.965   0.324   0.441  0.1208  0.2385 -0.2296
   33SOL    HW1   98   0.921   0.228   0.449 -2.9340 -2.3354  2.6343
   33SOL    HW2   99   1.026   0.349   0.520 -2.8379 -2.7342 -0.0752
   34SOL     OW  100   0.394   2.877   1.055  0.6264 -0.1113  0.7845
   34SOL    HW1  101   0.349   2.836   0.972  0.7478  2.8994 -1.8227
   34SOL    HW2  102   0.495   2.859   1.063  0.7859  0.3178 -2.5877
   35SOL     OW  103   0.039   3.101   1.811 -0.1881  0.0131  0.0494
   35SOL    HW1  104  -0.016   3.013   1.831  1.6724  2.3934  0.6807
   35SOL    HW2  105   0.032   3.129   1.711  0.7202 -0.7220  1.9639
   36SOL     OW  106   1.899   1.157   1.783  0.4927 -0.1009  0.0381
   36SOL    HW1  107   1.970   1.112   1.721  0.1727  2.5179  1.6991
   36SOL    HW2  108   1.931   1.239   1.830 -2.4931 -3.3950 -0.8770
   37SOL     OW  109   1.117   0.320   1.010 -0.1395  0.0884 -0.1578
   37SOL    HW1  110   1.142   0.362   1.103  1.9345  0.0289 -0.5622
   37SOL    HW2  111   1.178   0.239   0.988  0.6097 -1.8429  1.2527
   38SOL     OW  112   1.145   2.713   2.365  0.0731  0.2319  0.6385
   38SOL    HW1  113   1.070   2.659   2.418 -2.6975 -1.5794  2.8283
   38SOL    HW2  114   1.117   2.781   2.296  0.6578 -0.2046  1.8024
   39SOL     OW  115   2.409   1.502   3.066 -0.5134 -0.5632 -0.2638
   39SOL    HW1  116   2.444   1.399   3.058 -1.4190  0.0446  1.2902
   39SOL    HW2  117   2.352   1.516   3.156 -1.3779 -0.2672 -0.0688
   40SOL     OW  118   2.046   2.493   2.578 -0.1723  0.2107 -0.4801
   40SOL    HW1  119   2.006   2.589   2.601  1.7553 -1.3462 -3.2239
   40SOL    HW2  120   1.978   2.439   2.517  1.3614  3.7155  1.1964
   41SOL     OW  121   2.926   0.711   2.755 -0.5202 -0.2307  0.3423
   41SOL    HW1  122   2.820   0.727   2.751 -2.2849  0.2769 -2.3339
   41SOL    HW2  123   2.944   0.608   2.737 -0.3224 -3.9018  1.8213
   42SOL     OW  124   1.705   1.752   0.589  0.1278 -0.0834  0.2924
   42SOL    HW1  125   1.641   1.680   0.555  0.3607  1.3274 -0.3362
   42SOL    HW2  126   1.767   1.791   0.511 -1.8857  1.7583 -1.7690
   43SOL     OW  127   0.481   1.747   1.204 -0.0314 -0.0732 -0.0620
   43SOL    HW1  128   0.453   1.715   1.298  2.2851  0.3107  1.4492
   43SOL    HW2  129   0.401   1.734   1.140 -0.1002 -0.8065  1.7044
   44SOL     OW  130   1.754   2.461   0.025 -0.4215  0.9313 -0.1801
   44SOL    HW1  131   1.764   2.537  -0.045  0.9031 -0.2197  0.2719
   44SOL    HW2  132   1.816   2.453   0.114  0.0374 -0.6600  0.7258
   45SOL     OW  133   0.382   1.883   2.533  0.2144 -0.0614 -0.8179
   45SOL    HW1  134   0.308   1.865   2.462  2.6547 -0.0808  1.5925
   45SOL    HW2  135   0.423   1.793   2.568 -2.6319  0.5679  2.0974
   46SOL     OW  136   1.173   0.669   0.190 -0.5006 -0.4510  0.0987
   46SOL    HW1  137   1.239   0.731   0.141 -0.9424 -1.2161  1.8888
   46SOL    HW2  138   1.074   0.685   0.178  1.1250  1.2687  1.1841
   47SOL     OW  139   0.236   2.441   1.596  0.4846  0.3670  0.5715
   47SOL    HW1  140   0.305   2.373   1.572 -1.9089  2.4495  2.0806
   47SOL    HW2  141   0.218   2.509   1.512 -0.2616  2.3153 -1.9173
   48SOL     OW  142   2.626   0.547   0.094 -0.2162 -0.0224 -0.1845
   48SOL    HW1  143   2.566   0.566   0.173 -2.2782 -4.3041  2.5316
   48SOL    HW2  144   2.709   0.605   0.085 -1.5142 -1.1415 -0.9902
   49SOL     OW  145   0.356   0.839   1.770  0.2611 -0.3519  0.0019
   49SOL    HW1  146   0.447   0.872   1.806 -0.8427 -3.0720 -0.9010
   49SOL    HW2  147   0.366   0.769   1.690 -0.1377  0.4332 -0.4571
   50SOL     OW  148   1.743   1.087   0.293  0.9808 -0.0777  0.9475
   50SOL    HW1  149   1.731   0.986   0.261  0.9419 -1.8976 -2.5085
   50SOL    HW2  150   1.723   1.100   0.397 -0.8564  0.2480 -0.6021
   51SOL     OW  151   2.988   1.889   0.356  0.2961 -0.0895  0.2871
   51SOL    HW1  152   2.996   1.942   0.265 -2.8476 -0.7473  1.4801
   51SOL    HW2  153   2.986   1.785   0.342  1.4845  0.5031 -0.7205
   52SOL     OW  154   0.820   1.922   0.486  0.4613  0.5347  0.2595
   52SOL    HW1  155   0.745   1.987   0.529 -2.0662  0.8693  0.7606
   52SOL    HW2  156   0.849   1.846   0.553 -0.8236  2.8602 -0.1608
   53SOL     OW  157   3.090   0.386   1.524 -0.2149 -0.2890 -0.0365
   53SOL    HW1  158   3.094   0.377   1.627  0.9286  0.0549 -1.2037
   53SOL    HW2  159   3.082   0.488   1.493 -2.4228  2.2964 -1.8860
   54SOL     OW  160   1.773   0.489   3.005 -0.2793  0.0761  0.0661
   54SOL    HW1  161   1.825   0.446   3.081  1.5315  3.2455 -2.3711
   54SOL    HW2  162   1.670   0.501   3.018  2.4795 -1.0154 -0.0695
   55SOL     OW  163   0.699   2.928   0.662  0.5308  0.2103  0.0259
   55SOL    HW1  164   0.655   3.019   0.676 -2.6935  1.5257 -1.7361
   55SOL    HW2  165   0.797   2.944   0.620  1.7115 -0.8256  2.6853
   56SOL     OW  166   0.499   1.544   3.095  0.5477 -0.2683 -0.0677
   56SOL    HW1  167   0.405   1.587   3.124  0.3696 -0.4341  1.5729
   56SOL    HW2  168   0.497   1.488   3.012  1.4765  0.8999  2.3074
   57SOL     OW  169   1.768   2.387   2.665  0.2240 -0.0090 -0.4595
   57SOL    HW1  170   1.814   2.409   2.578 -1.5905  1.1879 -0.9315
   57SOL    HW2  171   1.691   2.317   2.650 -0.1198 -0.4810  4.3003
   58SOL     OW  172   0.641   0.488   1.097 -0.3606  0.2705 -0.1149
   58SOL    HW1  173   0.573   0.559   1.058 -2.0154  5.0401 -0.8838
   58SOL    HW2  174   0.599   0.390   1.108  3.8822 -2.9242  0.8405
   59SOL     OW  175   0.468   2.385   2.671 -0.0560 -0.3415 -0.5478
   59SOL    HW1  176   0.441   2.282   2.685  1.9766  0.8989 -1.3659
   59SOL    HW2  177   0.520   2.423   2.755 -0.9162 -0.0860 -4.0218
   60SOL     OW  178   2.327   2.175   2.251  0.1544  0.3211 -0.1253
   60SOL    HW1  179   2.402   2.203   2.182  0.7182  0.2323  0.5731
   60SOL    HW2  180   2.348   2.192   2.355  0.0432 -0.7941 -0.1856
   61SOL     OW  181   1.343   0.650   0.416  0.1383 -0.7630 -0.4420
   61SOL    HW1  182   1.242   0.641   0.448  0.7116 -0.3317  0.3120
   61SOL    HW2  183   1.362   0.613   0.322  0.3118  0.2728  0.8871
   62SOL     OW  184   2.711   1.894   3.096 -0.5316  0.4495  0.5881
   62SOL    HW1  185   2.729   1.795   3.119 -1.3936  0.6190  1.6305
   62SOL    HW2  186   2.756   1.915   3.004 -0.7992  0.4092 -0.1282
   63SOL     OW  187   0.539   0.805   0.140 -0.5894 -0.2586 -0.1324
   63SOL    HW1  188   0.493   0.896   0.110 -0.4934  1.1768 -0.8721
   63SOL    HW2  189   0.634   0.814   0.179 -0.1387 -0.7705 -1.3061
   64SOL     OW  190   0.068   0.561   2.505  0.0201 -0.0077  0.3525
   64SOL    HW1  191   0.084   0.628   2.586 -3.4415  2.5221  0.0077
   64SOL    HW2  192   0.044   0.604   2.415  2.9333  0.5345  2.6268
   65SOL     OW  193   0.172   1.487   0.601  0.2665 -0.3555 -0.3165
   65SOL    HW1  194   0.207   1.550   0.675 -0.2945 -1.6354  2.9120
   65SOL    HW2  195   0.254   1.435   0.563 -1.1517 -2.1698  3.5473
   66SOL     OW  196   2.463   0.331   0.654 -0.2785 -0.0628  0.6835
   66SOL    HW1  197   2.386   0.397   0.664  0.1077  0.2752  0.0564
   66SOL    HW2  198   2.435   0.230   0.669 -2.1794 -2.2103  2.6532
   67SOL     OW  199   0.468   2.581   1.309 -0.0241  0.1390  0.3532
   67SOL    HW1  200   0.569   2.599   1.318  2.6326  2.0233 -0.3211
   67SOL    HW2  201   0.450   2.483   1.293  1.5577  1.0347 -0.6651
   68SOL     OW  202   1.005   1.100   2.398  0.2828 -0.0613  0.2685
   68SOL    HW1  203   1.031   1.019   2.341  2.9398  1.5663  0.6304
   68SOL    HW2  204   0.944   1.156   2.337  1.5591 -0.2473  0.8320
   69SOL     OW  205   0.770   2.717   2.151 -0.5948 -0.1701  0.0051
   69SOL    HW1  206   0.806   2.623   2.183 -2.5467 -3.2559  0.0430
   69SOL    HW2  207   0.674   2.727   2.184  2.4307 -0.9662 -2.1686
   70SOL     OW  208   0.582   0.220   2.709  0.6803  0.1103  0.0754
   70SOL    HW1  209   0.562   0.231   2.810 -1.4558  1.2547 -1.1292
   70SOL    HW2  210   0.546   0.128   2.675  3.6506 -2.2955  0.5956
   71SOL     OW  211   1.117   1.808   0.358 -0.0296  0.8145 -0.0495
   71SOL    HW1  212   1.085   1.715   0.396 -1.1081 -1.1716  2.0222
   71SOL    HW2  213   1.067   1.832   0.271 -1.0590 -1.1067 -0.0285
   72SOL     OW  214   1.772   0.074   2.089 -0.0117 -0.4644  0.3754
   72SOL    HW1  215   1.839   0.105   2.016  1.2191 -0.0965 -2.0937
   72SOL    HW2  216   1.766  -0.032   2.103 -1.6421 -0.5097  0.2965
   73SOL     OW  217   2.856   2.224   2.512 -0.1494  0.4592  0.4691
   73SOL    HW1  218   2.826   2.144   2.457  0.1698  1.1548  2.3864
   73SOL    HW2  219   2.891   2.203   2.609  0.7948  0.8474  0.3118
   74SOL     OW  220   2.719   2.981   2.079  0.2560  0.8938 -0.2337
   74SOL    HW1  221   2.639   2.955   2.146 -0.1770 -0.3802 -0.1789
   74SOL    HW2  222   2.816   2.978   2.115 -1.7038  0.5481 -2.7079
   75SOL     OW  223   0.922   0.751   0.955  0.3356 -0.4110  0.2451
   75SOL    HW1  224   0.826   0.789   0.938 -4.6370  0.1593  0.0196
   75SOL    HW2  225   0.957   0.768   1.050 -1.8016 -2.0018 -0.1344
   76SOL     OW  226   1.737   1.239   2.584  0.0970 -0.3053  0.1015
   76SOL    HW1  227   1.634   1.236   2.566 -1.9815  1.1703  0.3309
   76SOL    HW2  228   1.754   1.309   2.659  1.3291  0.0922  0.9718
   77SOL     OW  229   2.992   1.014   0.990  0.2502  0.0977 -0.5168
   77SOL    HW1  230   2.961   0.915   0.978 -3.2419  0.5693  1.0803
   77SOL    HW2  231   3.055   1.037   1.072  1.0492 -0.4591  0.2645
   78SOL     OW  232   1.978   1.402   1.453 -0.1058  0.1476  0.3981
   78SOL    HW1  233   2.019   1.394   1.358 -1.7417 -0.2957 -0.6108
   78SOL    HW2  234   1.878   1.400   1.465  1.5378  0.0329  1.8615
   79SOL     OW  235   0.634   1.277   0.848  0.5386  0.1029  0.5203
   79SOL    HW1  236   0.548   1.330   0.869 -2.0975  1.7742  2.5168
   79SOL    HW2  237   0.628   1.233   0.756 -0.1892  0.7818  0.8252
   80SOL     OW  238   0.641   0.483   1.610 -0.3053 -0.5374  0.1353
   80SOL    HW1  239   0.730   0.515   1.563  0.5306 -0.2378  2.2002
   80SOL    HW2  240   0.609   0.382   1.589  0.4671 -1.8262 -2.0722
   81SOL     OW  241   1.109   1.446   2.592 -0.3272 -0.5326 -0.4320
   81SOL    HW1  242   1.051   1.392   2.657 -1.1685 -0.1672 -1.9558
   81SOL    HW2  243   1.060   1.452   2.499 -3.4878 -0.2274 -0.5235
   82SOL     OW  244   0.902   3.023   1.530  0.1104  0.2633 -0.0712
   82SOL    HW1  245   0.973   2.944   1.526  1.0416 -0.7898  1.6550
   82SOL    HW2  246   0.801   2.991   1.524 -2.0918  0.9393 -1.6398
   83SOL     OW  247   2.751   2.419   0.825  0.6497  0.0786  0.1011
   83SOL    HW1  248   2.656   2.381   0.799 -2.0226 -0.0942 -0.6145
   83SOL    HW2  249   2.775   2.488   0.754 -1.9963 -2.0072 -0.0117
   84SOL     OW  250   0.657   0.013   2.413  0.1227  0.2128  0.0418
   84SOL    HW1  251   0.565   0.024   2.456  0.5778 -1.1355 -1.8669
   84SOL    HW2  252   0.723  -0.043   2.466 -0.3496 -2.1493  1.4562
   85SOL     OW  253   0.355   1.659   1.466  0.6145  0.0701 -0.0607
   85SOL    HW1  254   0.304   1.747   1.496  0.4029  3.0230 -0.0326
   85SOL    HW2  255   0.364   1.601   1.549 -1.1358  0.9520 -0.1879
   86SOL     OW  256   0.357   1.030   1.487 -0.0244  0.8471 -0.0395
   86SOL    HW1  257   0.320   0.975   1.408  1.6708  0.2139  0.5147
   86SOL    HW2  258   0.425   0.977   1.546 -1.1332  0.5882  0.2052
   87SOL     OW  259   1.559   0.579   0.193  0.0363  0.3455 -0.2812
   87SOL    HW1  260   1.605   0.671   0.205  2.3750  0.0851  0.4914
   87SOL    HW2  261   1.539   0.564   0.092  1.4317  1.1486 -1.2862
   88SOL     OW  262   1.616   1.307   0.196 -0.3984 -0.2689 -0.6909
   88SOL    HW1  263   1.648   1.210   0.225  1.3723 -1.2797 -2.7799
   88SOL    HW2  264   1.512   1.308   0.181 -1.2228 -1.1109 -2.5560
   89SOL     OW  265   2.984   0.418   0.582 -0.7329 -0.1342 -0.0096
   89SOL    HW1  266   3.035   0.329   0.590  0.8583 -1.9874 -2.2101
   89SOL    HW2  267   2.885   0.417   0.594  0.8365  0.8201 -2.2790
   90SOL     OW  268   0.888   1.632   3.060  0.7963  0.3394 -0.4833
   90SOL    HW1  269   0.811   1.634   3.130  1.8117 -1.4920 -0.0196
   90SOL    HW2  270   0.852   1.616   2.964  2.3232 -1.8151 -1.0029
   91SOL     OW  271   1.242   1.377   1.809  0.1307  0.5643 -0.8829
   91SOL    HW1  272   1.263   1.468   1.859  1.1683  0.2222  0.2321
   91SOL    HW2  273   1.329   1.329   1.783 -0.8438  1.3761  3.4931
   92SOL     OW  274   0.074   1.082   1.193 -0.3826 -0.5878 -0.1605
   92SOL    HW1  275   0.161   1.069   1.141 -0.9636  0.8862  0.6266
   92SOL    HW2  276   0.077   1.052   1.289  0.7246  2.1289 -2.7410
   93SOL     OW  277   0.106   2.839   3.067 -0.1131  0.3222  0.8864
   93SOL    HW1  278   0.015   2.831   3.012  0.9095 -2.6900  0.1583
   93SOL    HW2  279   0.111   2.759   3.138 -1.0339 -0.5038  0.6700
   94SOL     OW  280   1.518   1.291   1.669 -0.0899  0.3893 -0.1808
   94SOL    HW1  281   1.558   1.220   1.735 -0.3590  0.6213  0.8498
   94SOL    HW2  282   1.556   1.385   1.702  3.5369  0.7148  0.2889
   95SOL     OW  283   1.403   2.473   2.908 -0.2326 -0.8284  0.1721
   95SOL    HW1  284   1.358   2.465   3.005 -2.5781 -0.5398 -2.0102
   95SOL    HW2  285   1.417   2.375   2.873 -2.0998  1.2410  1.5698
   96SOL     OW  286   0.510   2.022   1.230 -0.2546 -0.2178 -0.1602
   96SOL    HW1  287   0.500   2.054   1.130  1.9994 -0.5299  0.3139
   96SOL    HW2  288   0.511   1.918   1.230 -2.5783  0.5090 -2.0647
   97SOL     OW  289   0.294   1.437   2.463 -0.2051  0.2513  0.5849
   97SOL    HW1  290   0.206   1.388   2.486  1.0191  0.4241 -2.8129
   97SOL    HW2  291   0.337   1.483   2.541 -1.1802 -0.5972 -1.3583
   98SOL     OW  292   2.091   1.650   1.258 -0.4640 -0.0691  0.2995
   98SOL    HW1  293   2.061   1.576   1.190 -2.1901 -1.4562 -3.1847
   98SOL    HW2  294   2.169   1.610   1.316 -0.5362 -0.4497 -1.9974
   99SOL     OW  295   2.503   2.170   1.353 -0.4597 -0.0045 -0.4245
   99SOL    HW1  296   2.419   2.156   1.411  0.2255 -1.1636  0.0836
   99SOL    HW2  297   2.563   2.088   1.370 -4.3468 -1.7184 -3.4692
  100SOL     OW  298   2.292   0.407   2.066  0.5293  0.2325  0.1554
  100SOL    HW1  299   2.236   0.354   2.140 -0.0088 -0.7432 -0.5982
  100SOL    HW2  300   2.386   0.422   2.096 -0.9062 -0.8306 -1.9813
  101SOL     OW  301   0.415   1.417   0.266  0.3692  0.1051  0.9024
  101SOL    HW1  302   0.410   1.484   0.347 -0.0192  1.9547  0.6669
  101SOL    HW2  303   0.452   1.453   0.178  1.4845 -1.1661  0.7390
  102SOL     OW  304   2.238   1.090   0.859  0.3949 -0.3267 -0.4844
  102SOL    HW1  305   2.188   1.020   0.798 -0.6122 -1.3396  0.1602
  102SOL    HW2  306   2.276   1.169   0.807 -1.2502 -2.3329 -1.5998
  103SOL     OW  307   2.283   0.081   0.393  0.1289 -0.1911  0.0619
  103SOL    HW1  308   2.347   0.156   0.377 -0.0949 -1.6071 -0.9064
  103SOL    HW2  309   2.334   0.008   0.445  1.0279  0.4830  1.0733
  104SOL     OW  310   0.085   1.855   2.145 -0.2539  0.2443  0.4160
  104SOL    HW1  311   0.125   1.792   2.068  0.7289 -1.2957 -3.1130
  104SOL    HW2  312  -0.010   1.895   2.133 -0.6884  0.2875  1.4690
  105SOL     OW  313   1.089   1.962   0.814  0.2991 -0.1511  0.0283
  105SOL    HW1  314   1.050   2.025   0.741 -1.4011 -1.4658  0.1449
  105SOL    HW2  315   1.131   1.877   0.775  3.7022  2.1671  0.2697
  106SOL     OW  316   2.053   0.494   1.332 -0.2510 -0.3178  0.2325
  106SOL    HW1  317   2.045   0.411   1.397 -1.6725 -0.7058 -1.4852
  106SOL    HW2  318   2.050   0.585   1.383  0.3516  0.0973 -1.2527
  107SOL     OW  319   1.832   3.004   1.132 -0.7922  0.0991 -0.1430
  107SOL    HW1  320   1.869   3.072   1.203  1.1105 -0.6758  0.6642
  107SOL    HW2  321   1.794   2.918   1.176 -0.2839 -1.0186  1.7046
  108SOL     OW  322   0.745   2.633   1.320 -0.1501 -0.6111 -0.5285
  108SOL    HW1  323   0.721   2.689   1.409 -0.1210  1.3983 -0.0066
  108SOL    HW2  324   0.838   2.591   1.327 -0.9027  0.9912  0.6390
  109SOL     OW  325   2.034   0.133   0.681  0.5732 -0.3877 -0.2702
  109SOL    HW1  326   2.086   0.084   0.751  0.9452 -1.3651 -1.5367
  109SOL    HW2  327   1.958   0.187   0.727  1.4912  0.0483  2.4294
  110SOL     OW  328   0.500   2.700   2.772 -0.2420  0.3120 -0.8175
  110SOL    HW1  329   0.507   2.720   2.673  3.3962  1.7776 -1.5082
  110SOL    HW2  330   0.590   2.655   2.808  1.4072  2.9204  0.6921
  111SOL     OW  331   1.288   0.531   2.347  0.1918  0.0049 -0.6730
  111SOL    HW1  332   1.220   0.593   2.403  0.6334 -0.2526  1.3825
  111SOL    HW2  333   1.317   0.448   2.408  1.3026 -0.4019  2.1357
  112SOL     OW  334   1.691   0.506   1.451 -0.3562 -0.2637  0.5104
  112SOL    HW1  335   1.725   0.474   1.358 -0.0861  1.7856 -0.4158
  112SOL    HW2  336   1.709   0.450   1.538  0.1520 -2.0954  0.1422
  113SOL     OW  337   2.284   1.647   1.745  0.3968 -0.3043 -0.8213
  113SOL    HW1  338   2.355   1.569   1.749 -1.7276  1.1909  2.4962
  113SOL    HW2  339   2.302   1.724   1.810 -1.2776  1.7597  0.6352
  114SOL     OW  340   0.401   0.571   1.299 -0.2103  0.1098  0.0384
  114SOL    HW1  341   0.338   0.652   1.274 -2.4714 -2.7161  0.8061
  114SOL    HW2  342   0.479   0.557   1.229 -0.4652  1.2884 -1.8882
  115SOL     OW  343   2.693   1.557   1.276 -0.4328 -0.0588 -0.0663
  115SOL    HW1  344   2.711   1.452   1.283 -0.7573  0.4327 -0.2761
  115SOL    HW2  345   2.764   1.599   1.216 -2.6176 -0.8020 -0.6772
  116SOL     OW  346   1.825   1.062   0.765  0.0983  0.1394  0.1504
  116SOL    HW1  347   1.735   1.014   0.749  0.1622  0.1343 -1.1243
  116SOL    HW2  348   1.813   1.161   0.752 -2.4990 -0.3089 -0.6067
  117SOL     OW  349   1.089   0.422   0.673  0.5001 -0.1300 -0.7611
  117SOL    HW1  350   1.111   0.418   0.774  0.4974 -1.2733  1.4700
  117SOL    HW2  351   1.105   0.518   0.635 -0.3861  1.1529  1.2059
  118SOL     OW  352   1.074   1.082   1.008 -0.2250  1.4109  0.6882
  118SOL    HW1  353   1.070   0.987   1.053 -0.3065 -2.3381 -0.1999
  118SOL    HW2  354   1.130   1.155   1.061  0.7363  3.0183 -1.4752
  119SOL     OW  355   1.829   1.632   1.992 -0.3288 -0.0839  0.2920
  119SOL    HW1  356   1.793   1.722   2.017 -0.1383 -1.8516 -0.9733
  119SOL    HW2  357   1.932   1.624   2.025  2.1334  1.5339  3.3206
  120SOL     OW  358   2.946   2.770   0.240 -0.5057  0.0042  0.3894
  120SOL    HW1  359   2.844   2.749   0.215 -0.0755 -2.4026 -1.3636
  120SOL    HW2  360   2.984   2.688   0.296 -1.2256 -1.9599  1.9339
  121SOL     OW  361   2.085   0.720   2.233 -0.9014  0.5584  0.1492
  121SOL    HW1  362   2.165   0.704   2.162  1.1184 -1.1468 -0.8685
  121SOL    HW2  363   2.007   0.656   2.217 -0.7270  1.3797  0.4391
  122SOL     OW  364   2.701   2.539   1.338 -0.0297 -0.1718  0.0733
  122SOL    HW1  365   2.712   2.547   1.239  1.0924  0.5330  1.8029
  122SOL    HW2  366   2.669   2.441   1.370  1.2134 -0.0521  0.9021
  123SOL     OW  367   1.728   0.040   1.695  0.2263  0.0617 -0.0585
  123SOL    HW1  368   1.715  -0.043   1.630 -1.1076  1.8775 -0.3457
  123SOL    HW2  369   1.817   0.088   1.682 -1.3618 -0.0334 -0.5245
  124SOL     OW  370   0.191   0.485   0.972 -0.0110  0.4684  0.7321
  124SOL    HW1  371   0.186   0.525   1.068  1.5478 -2.4400 -1.0868
  124SOL    HW2  372   0.136   0.526   0.888  0.9709 -0.7501  1.0423
  125SOL     OW  373   0.867   1.724   0.672  0.0511  0.8619 -0.5356
  125SOL    HW1  374   0.969   1.737   0.666  1.2543  1.4487  0.3587
  125SOL    HW2  375   0.840   1.643   0.735 -1.6839 -0.6740 -0.3381
  126SOL     OW  376   1.893   2.383   2.408 -0.3419  0.4140 -0.5248
  126SOL    HW1  377   1.955   2.319   2.351  1.2570  0.9500  0.1060
  126SOL    HW2  378   1.812   2.424   2.359 -1.4761 -3.3645  1.8090
  127SOL     OW  379   0.969   0.983   0.176 -1.0711  0.0596  0.1701
  127SOL    HW1  380   1.062   1.014   0.213 -0.2206  2.0951 -2.1620
  127SOL    HW2  381   0.932   0.894   0.211 -1.0445 -0.6899 -1.1516
  128SOL     OW  382   0.992   0.193   1.457  0.6429 -0.0693  0.5721
  128SOL    HW1  383   0.958   0.266   1.393  1.7748 -2.7275  1.9822
  128SOL    HW2  384   0.942   0.104   1.442 -0.6817  3.3081  0.8086
  129SOL     OW  385   1.759   0.716   1.821  0.0333  0.1172  0.2792
  129SOL    HW1  386   1.784   0.735   1.720  0.0629  0.1030 -2.8209
  129SOL    HW2  387   1.787   0.801   1.868  3.0262 -1.5347  0.7242
  130SOL     OW  388   1.269   2.091   0.995  0.6022 -0.1036 -0.2241
  130SOL    HW1  389   1.204   2.060   0.920  1.2253  1.0032 -0.5103
  130SOL    HW2  390   1.337   2.169   0.969 -1.0549  0.6620  1.4323
  131SOL     OW  391   3.046   1.510   1.330  0.3868  0.0165 -0.1105
  131SOL    HW1  392   3.001   1.418   1.334  0.8236  0.8758 -1.2649
  131SOL    HW2  393   3.148   1.502   1.317  0.7933 -0.8141  0.4964
  132SOL     OW  394   1.922   2.482   0.509  0.2663  0.1776  0.2433
  132SOL    HW1  395   1.822   2.511   0.526 -0.5262  0.4994  0.8698
  132SOL    HW2  396   1.969   2.441   0.595  2.7056  0.1818  0.2593
  133SOL     OW  397   1.791   2.287   2.924  0.1515 -0.2887 -0.4941
  133SOL    HW1  398   1.768   2.350   3.004 -2.0603  3.1095 -1.1902
  133SOL    HW2  399   1.785   2.336   2.831  0.9555  0.0633  0.6528
  134SOL     OW  400   2.619   2.368   1.617 -0.1847  0.8333  0.2454
  134SOL    HW1  401   2.565   2.329   1.699 -2.9221  0.8942  1.0125
  134SOL    HW2  402   2.667   2.454   1.643 -0.2100  1.3972 -1.5817
  135SOL     OW  403   0.768   1.504   2.553 -0.2549 -0.0477  0.0333
  135SOL    HW1  404   0.735   1.402   2.535  0.9440 -1.7864  0.5975
  135SOL    HW2  405   0.838   1.530   2.491 -1.5462  0.5700  1.6677
  136SOL     OW  406   1.148   2.078   0.461  0.2677  0.3629 -0.0203
  136SOL    HW1  407   1.091   2.128   0.533  0.6521 -0.0572  0.4005
  136SOL    HW2  408   1.116   1.979   0.449  0.8756 -0.9839 -2.9101
  137SOL     OW  409   0.370   1.025   2.143  0.0424 -0.2215  0.1475
  137SOL    HW1  410   0.301   1.071   2.212 -1.8456  0.5999  2.0250
  137SOL    HW2  411   0.399   0.932   2.172  1.1928  2.1536  0.6444
  138SOL     OW  412   2.436   1.465   0.344  0.2592  0.4084 -0.5133
  138SOL    HW1  413   2.345   1.454   0.291  1.1491 -1.1392 -1.0411
  138SOL    HW2  414   2.481   1.372   0.363 -2.6584 -2.0972 -2.0724
  139SOL     OW  415   1.760   2.512   1.216  0.7528  0.1868  0.5927
  139SOL    HW1  416   1.666   2.497   1.170 -1.6521  1.8521 -0.7231
  139SOL    HW2  417   1.777   2.462   1.306 -0.1211  2.3373  0.4531
  140SOL     OW  418   2.985   3.003   2.507 -0.0538  0.1064  0.4023
  140SOL    HW1  419   2.983   2.923   2.569 -1.1068  0.4393  2.2015
  140SOL    HW2  420   3.078   3.047   2.483  0.8642  1.6011 -0.2899
  141SOL     OW  421   1.147   1.550   1.595 -0.1725  0.5312  0.0999
  141SOL    HW1  422   1.161   1.626   1.665  1.1709  4.4811  0.5576
  141SOL    HW2  423   1.175   1.456   1.633  3.7479 -0.4306  1.4586
  142SOL     OW  424   1.539   0.591   2.251  0.3278 -0.1442  0.0754
  142SOL    HW1  425   1.548   0.593   2.148 -3.2987  0.3320  0.5851
  142SOL    HW2  426   1.434   0.584   2.277 -2.3890  0.8608 -1.2038
  143SOL     OW  427   2.777   0.846   0.488 -0.1114  0.4343 -0.3461
  143SOL    HW1  428   2.818   0.897   0.403  1.1882 -0.0032 -2.7205
  143SOL    HW2  429   2.799   0.891   0.578  1.9066  1.6744 -1.8271
  144SOL     OW  430   2.965   1.237   1.365 -0.5228  0.2831  0.1993
  144SOL    HW1  431   2.979   1.207   1.464  1.6753 -0.3987  1.6148
  144SOL    HW2  432   3.033   1.209   1.296 -0.0575  0.5794 -2.5392
  145SOL     OW  433   1.007   1.871   0.105  0.6352  0.2762  0.5848
  145SOL    HW1  434   1.033   1.935   0.029 -0.9355  0.1909 -0.3136
  145SOL    HW2  435   0.970   1.783   0.065 -0.8291 -1.2636 -0.1593
  146SOL     OW  436   2.515   0.625   1.498 -0.2606  0.0097 -0.6107
  146SOL    HW1  437   2.450   0.563   1.444 -0.1353 -1.0092  0.6889
  146SOL    HW2  438   2.476   0.723   1.511  1.0878  2.2927  1.9909
  147SOL     OW  439   1.068   2.602   0.619 -0.6910 -0.1194 -0.0638
  147SOL    HW1  440   1.016   2.644   0.536 -0.5164  0.7769 -2.0943
  147SOL    HW2  441   1.154   2.553   0.596 -2.7512 -0.6973 -1.2027
  148SOL     OW  442   1.660   1.419   3.029 -0.3673 -0.2113  0.6973
  148SOL    HW1  443   1.700   1.356   2.961  2.8662  1.7985  0.3648
  148SOL    HW2  444   1.657   1.375   3.126  0.1926 -1.0960  1.3807
  149SOL     OW  445   0.634   1.400   1.937  0.6551  0.0379 -0.0976
  149SOL    HW1  446   0.546   1.376   1.984  1.1616  0.1045 -1.1471
  149SOL    HW2  447   0.674   1.326   1.877 -0.3260 -0.9925  1.2376
  150SOL     OW  448   2.961   1.275   0.935 -0.3926 -0.0903  0.2394
  150SOL    HW1  449   3.044   1.318   0.985 -0.0216  0.6116  2.4096
  150SOL    HW2  450   2.958   1.174   0.951  1.3915  0.4496 -0.8090
  151SOL     OW  451   0.184   0.772   2.085  0.1399 -0.0745 -0.2050
  151SOL    HW1  452   0.153   0.852   2.034 -2.0766 -1.9855  1.8040
  151SOL    HW2  453   0.250   0.708   2.034 -0.9437 -1.0173 -2.7708
  152SOL     OW  454   1.414   1.773   1.265 -0.2044  0.1503  0.3094
  152SOL    HW1  455   1.409   1.859   1.326  2.6966 -0.3561  0.2932
  152SOL    HW2  456   1.319   1.746   1.227 -0.5556  0.2318  0.7688
  153SOL     OW  457   0.046   1.506   0.177  0.1225 -0.3003 -0.3998
  153SOL    HW1  458   0.065   1.400   0.168  0.3654 -0.6935 -1.1079
  153SOL    HW2  459   0.033   1.531   0.274 -2.7612  0.9293 -2.8543
  154SOL     OW  460   2.408   1.966   2.835  0.0855 -0.4560  0.0220
  154SOL    HW1  461   2.406   1.863   2.849 -2.0449  2.6853  1.5308
  154SOL    HW2  462   2.459   1.995   2.749 -1.5563  0.1735  0.9827
  155SOL     OW  463   2.525   1.206   0.420 -0.0436  0.0284 -0.4875
  155SOL    HW1  464   2.608   1.237   0.367  1.1913 -0.9768  0.3825
  155SOL    HW2  465   2.507   1.105   0.424 -1.6791  1.4179 -1.5936
  156SOL     OW  466   2.509   0.993   0.891  0.4529  0.1501 -0.1630
  156SOL    HW1  467   2.407   1.004   0.891  1.5731 -1.5338 -2.4231
  156SOL    HW2  468   2.563   1.083   0.867 -0.7202  0.3517  0.5019
  157SOL     OW  469   1.377   2.980   3.103  0.2508  0.4816 -0.0091
  157SOL    HW1  470   1.408   2.923   3.021  1.0155 -0.5916  1.2100
  157SOL    HW2  471   1.363   3.078   3.081 -2.7595 -0.6729  3.2267
  158SOL     OW  472   1.071   1.855   2.021 -0.3561 -0.5890 -0.0137
  158SOL    HW1  473   1.130   1.843   2.102 -1.8432  0.6086  0.1326
  158SOL    HW2  474   0.972   1.873   2.043  1.5042 -0.9470 -0.9263
  159SOL     OW  475   0.875   0.432   1.316 -0.1454 -0.6592  0.2991
  159SOL    HW1  476   0.852   0.489   1.401 -1.5682 -0.8020  0.1927
  159SOL    HW2  477   0.800   0.431   1.243  1.2272 -2.9201 -0.8458
  160SOL     OW  478   1.479   2.347   1.644  0.4029  0.4628 -0.2409
  160SOL    HW1  479   1.459   2.437   1.596  2.1712  1.9154 -2.1996
  160SOL    HW2  480   1.579   2.338   1.662 -0.4721 -1.5629 -1.7154
  161SOL     OW  481   0.125   2.945   0.376  1.1366  0.4481  0.1676
  161SOL    HW1  482   0.044   2.885   0.395 -1.7155 -2.7359 -0.6750
  161SOL    HW2  483   0.116   2.993   0.283 -0.6586  1.6097  0.1388
  162SOL     OW  484   2.612   1.900   0.510 -0.2164 -0.3441 -0.4964
  162SOL    HW1  485   2.581   1.844   0.430 -2.0160  1.3667  1.3845
  162SOL    HW2  486   2.616   1.835   0.592 -1.2148 -0.0366  0.2415
  163SOL     OW  487   1.967   2.765   0.759  0.2192 -0.1077  0.1291
  163SOL    HW1  488   1.931   2.800   0.667 -0.5588 -0.9074 -1.3145
  163SOL    HW2  489   2.004   2.669   0.757  1.4196  0.4590  1.0296
  164SOL     OW  490   0.028   0.242   1.216 -0.6773  0.1506  0.7004
  164SOL    HW1  491   0.108   0.184   1.185  0.1314 -0.8388 -0.7237
  164SOL    HW2  492   0.057   0.315   1.283  0.2251  2.3903 -0.5033
  165SOL     OW  493   1.003   1.386   0.648 -0.4700 -1.1688  0.1427
  165SOL    HW1  494   0.962   1.466   0.706 -0.4983  1.3375 -2.6547
  165SOL    HW2  495   0.986   1.404   0.546 -0.8825  0.2943 -0.5928
  166SOL     OW  496   1.377   1.021   1.788 -0.0051  0.4314 -0.4323
  166SOL    HW1  497   1.287   0.965   1.796 -0.3905  0.7850  1.5886
  166SOL    HW2  498   1.423   1.037   1.875 -0.8389 -1.3003  1.2006
  167SOL     OW  499   0.901   1.835   1.591 -0.7434  0.1295 -0.5546
  167SOL    HW1  500   0.893   1.936   1.614  1.9273 -1.0111  3.2507
  167SOL    HW2  501   0.808   1.791   1.565 -2.6882  0.8568  0.2969
  168SOL     OW  502   1.537   2.366   0.169 -0.0856  0.2299  0.0246
  168SOL    HW1  503   1.613   2.409   0.110 -0.1772 -0.2764 -0.4960
  168SOL    HW2  504   1.575   2.311   0.248 -0.4316  1.4192 -0.2565
  169SOL     OW  505   0.167   2.559   2.167  0.0117 -0.1826  0.2721
  169SOL    HW1  506   0.205   2.478   2.111  0.7626 -0.0156 -1.0030
  169SOL    HW2  507   0.139   2.534   2.263  0.2328  0.8431 -0.4610
  170SOL     OW  508   1.272   0.314   1.927  0.1590 -0.4679 -0.3029
  170SOL    HW1  509   1.324   0.294   2.014  0.1934 -0.9213  1.0787
  170SOL    HW2  510   1.201   0.245   1.905  2.3963  0.5377  1.5111
  171SOL     OW  511   0.243   0.826   2.417 -0.0895  0.3024  0.3545
  171SOL    HW1  512   0.148   0.818   2.455 -1.2748 -1.9902 -3.3985
  171SOL    HW2  513   0.252   0.809   2.313  2.0686 -3.4234 -3.9205
  172SOL     OW  514   0.895   1.125   2.918 -0.3630  0.0304  0.1551
  172SOL    HW1  515   0.990   1.158   2.955  2.8797 -2.7127 -1.6023
  172SOL    HW2  516   0.906   1.071   2.829  1.2764 -1.9122  2.6908
  173SOL     OW  517   0.688   2.714   0.165  0.0183 -0.3671  0.2220
  173SOL    HW1  518   0.668   2.812   0.133 -0.6165 -1.4875 -0.4006
  173SOL    HW2  519   0.612   2.646   0.142 -0.0678 -0.3894  1.9569
  174SOL     OW  520   1.302   2.751   1.045  0.2342 -0.1482 -0.2867
  174SOL    HW1  521   1.303   2.821   0.969  0.8352  0.1773  2.2052
  174SOL    HW2  522   1.221   2.687   1.042  0.4481  1.4567 -1.4049
  175SOL     OW  523   0.370   0.028   1.689  0.3831 -0.2313  0.0256
  175SOL    HW1  524   0.438   0.080   1.748  3.5106  0.3418 -0.3543
  175SOL    HW2  525   0.287   0.085   1.654 -0.7263 -0.1344  1.3261
  176SOL     OW  526   2.634   0.353   3.018  0.0120  0.1880  0.3343
  176SOL    HW1  527   2.640   0.437   3.087  0.0575  4.8625 -1.0210
  176SOL    HW2  528   2.536   0.317   3.002 -0.9462  2.9158 -0.1533
  177SOL     OW  529   0.368   0.319   0.857 -0.1706  0.3691 -0.0127
  177SOL    HW1  530   0.428   0.264   0.920  0.4801 -0.6979 -1.8628
  177SOL    HW2  531   0.301   0.378   0.909  1.2562  3.1368  0.0215
  178SOL     OW  532   3.078   2.691   2.603  0.1852  0.4687  0.4125
  178SOL    HW1  533   3.004   2.634   2.651 -0.5409  0.1379 -1.8362
  178SOL    HW2  534   3.150   2.707   2.678 -0.7117 -2.3434 -0.4475
  179SOL     OW  535   3.098   1.775   1.181 -0.3372 -0.0115 -0.1616
  179SOL    HW1  536   3.020   1.840   1.163 -2.6130 -0.7925  2.6845
  179SOL    HW2  537   3.059   1.685   1.227 -1.6918  0.0123  2.0985
  180SOL     OW  538   0.168   1.260   1.831  0.5160  0.1353  0.2307
  180SOL    HW1  539   0.272   1.234   1.810 -1.3317 -3.6929  0.0815
  180SOL    HW2  540   0.149   1.337   1.895  0.4609 -1.6373 -0.7049
  181SOL     OW  541   2.998   1.829   2.535  0.0804 -0.0724  0.0675
  181SOL    HW1  542   3.064   1.890   2.501 -4.4960 -3.1130 -1.8546
  181SOL    HW2  543   2.949   1.775   2.454 -0.6306  0.4278 -0.2858
  182SOL     OW  544   2.319   1.232   1.253 -0.6282 -0.3343 -0.2924
  182SOL    HW1  545   2.236   1.210   1.197 -0.1033  0.9568 -0.2177
  182SOL    HW2  546   2.337   1.335   1.245 -2.6303 -2.5673  0.5288
  183SOL     OW  547   1.510   2.258   2.511  0.1140 -0.2072  0.0609
  183SOL    HW1  548   1.428   2.197   2.528 -1.5081 -0.1849 -1.2104
  183SOL    HW2  549   1.597   2.200   2.502 -0.1519 -0.8031  1.6010
  184SOL     OW  550   2.061   0.934   0.726  0.0435 -0.2435 -0.2087
  184SOL    HW1  551   1.973   0.984   0.740  1.0923  1.0242  0.6036
  184SOL    HW2  552   2.057   0.834   0.748 -3.0992  1.6495 -0.7749
  185SOL     OW  553   1.650   2.750   2.167  0.2279  0.2034 -0.3382
  185SOL    HW1  554   1.587   2.819   2.128  0.1778 -1.3853 -0.1982
  185SOL    HW2  555   1.652   2.751   2.274 -0.5370 -2.2554  0.1962
  186SOL     OW  556   0.102   2.225   1.690  0.6852  0.3046  0.6089
  186SOL    HW1  557   0.118   2.312   1.633 -0.7276  2.2383  0.5091
  186SOL    HW2  558   0.190   2.187   1.724  0.0376  0.4939  1.0737
  187SOL     OW  559   1.423   0.657   1.736 -0.1133 -0.2046  0.2493
  187SOL    HW1  560   1.477   0.734   1.696  0.9131 -2.9516  1.5163
  187SOL    HW2  561   1.386   0.686   1.828 -0.3978 -0.7266  1.0715
  188SOL     OW  562   2.753   2.746   1.529 -0.0243 -0.2840 -0.0315
  188SOL    HW1  563   2.763   2.840   1.483 -0.0197  0.0421 -3.4433
  188SOL    HW2  564   2.718   2.672   1.462 -1.3462 -2.1446  1.0975
  189SOL     OW  565   0.721   0.995   1.485 -0.4455  0.6198  0.1600
  189SOL    HW1  566   0.785   1.071   1.457 -0.7100  2.9306 -0.3941
  189SOL    HW2  567   0.674   0.944   1.406  1.4083  0.3822 -0.4743
  190SOL     OW  568   1.472   1.767   1.658 -0.0655  0.2515 -0.0134
  190SOL    HW1  569   1.440   1.853   1.602 -0.6339  1.3437  1.3041
  190SOL    HW2  570   1.544   1.793   1.728 -2.1479  1.8133 -0.7319
  191SOL     OW  571   1.021   0.815   1.533  0.4918 -0.1299 -0.1573
  191SOL    HW1  572   1.072   0.739   1.578  0.7248  0.4665  1.9007
  191SOL    HW2  573   1.091   0.878   1.498  1.6962 -1.9519  0.1594
  192SOL     OW  574   1.889   2.196   1.213  0.0111  0.2229 -0.2672
  192SOL    HW1  575   1.785   2.184   1.196  0.0757 -2.7695 -0.7243
  192SOL    HW2  576   1.940   2.275   1.156  1.5882  0.4011  0.3058
  193SOL     OW  577   0.507   0.565   0.337 -0.0131 -0.3075  0.5363
  193SOL    HW1  578   0.483   0.488   0.398 -1.1707  0.4497 -2.2563
  193SOL    HW2  579   0.535   0.530   0.241  0.9043  0.3104  3.4549
  194SOL     OW  580   0.287   0.811   1.248  0.3821  0.0188 -0.1474
  194SOL    HW1  581   0.200   0.756   1.235  1.0868 -2.2051  2.0756
  194SOL    HW2  582   0.301   0.881   1.173  1.5541 -0.0595 -0.6009
  195SOL     OW  583   0.927   2.941   0.504 -0.2854 -0.3075 -0.4237
  195SOL    HW1  584   0.922   2.846   0.456  1.4049 -0.9330  0.6700
  195SOL    HW2  585   1.030   2.974   0.515 -0.2720  0.9931  0.0013
  196SOL     OW  586   0.211   1.459   1.349  0.9945  0.3802 -0.2092
  196SOL    HW1  587   0.249   1.540   1.397 -1.2439  0.9933  1.0727
  196SOL    HW2  588   0.203   1.372   1.409 -1.2031 -2.2395 -1.7093
  197SOL     OW  589   0.796   2.005   0.209  0.4141 -0.1352 -0.4476
  197SOL    HW1  590   0.778   1.965   0.302 -0.1029 -0.0665  0.6560
  197SOL    HW2  591   0.874   1.954   0.162 -1.2126  0.8213 -1.6271
  198SOL     OW  592   0.283   1.192   0.223 -0.0431  0.0121  0.0935
  198SOL    HW1  593   0.179   1.199   0.213  1.1971  0.0840  1.4962
  198SOL    HW2  594   0.331   1.283   0.242  0.8589  0.3973 -0.7159
  199SOL     OW  595   2.270   0.428   2.469  0.1139 -0.1636  0.4175
  199SOL    HW1  596   2.204   0.390   2.544 -2.2593 -0.1680  0.2364
  199SOL    HW2  597   2.370   0.420   2.501 -0.8394  2.5283 -1.5166
  200SOL     OW  598   0.045   2.890   0.818 -0.6295  0.1222 -0.3829
  200SOL    HW1  599  -0.029   2.880   0.749  2.0087 -2.6459  0.8842
  200SOL    HW2  600   0.063   2.992   0.850  3.1418 -0.1482  0.9291
  201SOL     OW  601   1.100   0.665   0.550  0.6117  0.6342 -0.0074
  201SOL    HW1  602   1.099   0.765   0.574  2.4464 -1.6796 -0.5142
  201SOL    HW2  603   1.010   0.637   0.510 -2.6264 -0.1552  0.0612
  202SOL     OW  604   0.435   1.220   1.776 -0.3701  0.0486 -0.0087
  202SOL    HW1  605   0.474   1.221   1.678  1.2064  1.6062 -0.5730
  202SOL    HW2  606   0.483   1.163   1.842 -1.1731 -1.5469 -0.7724
  203SOL     OW  607   0.589   0.230   1.530 -0.0285  0.1664  0.1888
  203SOL    HW1  608   0.608   0.157   1.458  0.8993 -2.5853  0.8121
  203SOL    HW2  609   0.599   0.188   1.622  1.3353 -1.0569  0.5455
  204SOL     OW  610   2.084   1.890   3.001 -0.2504  0.3147  0.4815
  204SOL    HW1  611   2.100   1.786   2.996 -2.4311 -3.0777  1.7521
  204SOL    HW2  612   2.046   1.938   2.917 -3.3805 -0.0634  1.6058
  205SOL     OW  613   1.891   1.853   0.141 -0.0758  0.0766 -0.4506
  205SOL    HW1  614   1.966   1.857   0.069  1.4012  1.8982 -1.1879
  205SOL    HW2  615   1.808   1.894   0.104 -0.2826  1.1559  0.7114
  206SOL     OW  616   2.513   2.804   0.384 -0.5476 -0.2624  0.7025
  206SOL    HW1  617   2.589   2.736   0.415  0.6468 -1.6013 -1.4161
  206SOL    HW2  618   2.550   2.873   0.317  1.6414 -1.3106  0.5465
  207SOL     OW  619   0.522   1.729   2.878  0.4134  0.6217 -0.8890
  207SOL    HW1  620   0.615   1.726   2.833  0.2929  0.2783  0.9149
  207SOL    HW2  621   0.523   1.667   2.962 -0.8536 -2.9934 -0.3080
  208SOL     OW  622   1.053   1.430   1.346  0.0400 -0.1024  0.3317
  208SOL    HW1  623   0.972   1.495   1.331  0.4863 -1.2181  1.1005
  208SOL    HW2  624   1.102   1.457   1.432 -0.1076  0.4207 -0.9219
  209SOL     OW  625   0.150   0.893   3.085  0.4095  0.3186 -0.2612
  209SOL    HW1  626   0.195   0.868   2.998 -2.3919 -0.2257  2.6619
  209SOL    HW2  627   0.200   0.859   3.171 -0.5018 -0.1833  0.8874
  210SOL     OW  628   1.724   0.424   1.164 -0.2934  0.7382 -0.0002
  210SOL    HW1  629   1.674   0.504   1.122  0.3591 -2.2042  0.0891
  210SOL    HW2  630   1.832   0.438   1.158  0.6922  1.2685 -2.6976
  211SOL     OW  631   2.122   1.043   1.645 -0.7154  0.0762 -0.0309
  211SOL    HW1  632   2.156   0.988   1.733 -0.4293  0.1787  2.4189
  211SOL    HW2  633   2.192   1.105   1.600 -1.0391  2.8435 -1.8155
  212SOL     OW  634   0.043   1.015   1.461  0.0180 -0.1244 -0.6609
  212SOL    HW1  635   0.087   1.103   1.493  2.1307 -1.1050 -1.0847
  212SOL    HW2  636   0.067   0.936   1.530 -1.0501  1.5860  0.7336
  213SOL     OW  637   2.762   0.284   0.298 -0.5682 -0.1518 -0.5090
  213SOL    HW1  638   2.855   0.228   0.293  0.2310  0.3999 -0.2451
  213SOL    HW2  639   2.733   0.318   0.208 -1.2102 -0.1694  1.2382
  214SOL     OW  640   2.127   0.290   2.260  0.7808  0.1860 -0.2809
  214SOL    HW1  641   2.181   0.332   2.335  2.3154 -1.9075 -1.9235
  214SOL    HW2  642   2.103   0.188   2.280 -1.4776 -0.8190  0.8559
  215SOL     OW  643   1.701   2.277   2.039 -0.2107  0.1937  0.0286
  215SOL    HW1  644   1.800   2.301   2.004  0.6225 -1.6143  1.8238
  215SOL    HW2  645   1.664   2.363   2.086  0.6071  0.3537 -1.5166
  216SOL     OW  646   2.251   0.533   0.649  0.1386  0.5672  0.4667
  216SOL    HW1  647   2.188   0.473   0.586 -0.8155 -0.0066 -3.6282
  216SOL    HW2  648   2.275   0.623   0.599 -0.4945 -1.9119  0.4775
  217SOL     OW  649   0.800   2.794   2.438 -0.1599  0.0561  0.2602
  217SOL    HW1  650   0.753   2.708   2.480 -0.7853 -0.4421  1.6830
  217SOL    HW2  651   0.809   2.786   2.332  0.5598  1.1181 -1.3672
  218SOL     OW  652   1.932   1.425   3.085  0.0431 -0.0418  0.3330
  218SOL    HW1  653   1.833   1.448   3.066  1.0071 -0.3978  0.9899
  218SOL    HW2  654   1.929   1.327   3.113 -0.6462  2.3363  2.2459
  219SOL     OW  655   2.372   1.288   2.593  0.0804 -0.0027 -0.2504
  219SOL    HW1  656   2.462   1.261   2.545  0.0493  1.4329 -0.6587
  219SOL    HW2  657   2.353   1.227   2.670  0.6861  2.4750  0.2765
  220SOL     OW  658   1.463   1.015   1.272 -0.7178  0.2213 -0.8433
  220SOL    HW1  659   1.551   1.017   1.217 -1.5118  1.6474  1.2693
  220SOL    HW2  660   1.437   1.106   1.313 -0.6571 -3.0618 -2.0489
  221SOL     OW  661   1.296   1.109   2.161  0.0746 -0.1745 -0.4278
  221SOL    HW1  662   1.239   1.166   2.098  0.5022  0.8555  0.4791
  221SOL    HW2  663   1.383   1.072   2.122  0.2131  1.2212  0.5297
  222SOL     OW  664   1.330   0.161   1.125 -0.1198 -0.0057  0.5265
  222SOL    HW1  665   1.414   0.111   1.084  0.4618 -1.1157 -2.2870
  222SOL    HW2  666   1.351   0.246   1.178 -1.9255  0.5066 -0.1578
  223SOL     OW  667   2.876   0.784   1.995 -0.4336  0.0037 -0.3803
  223SOL    HW1  668   2.891   0.796   2.098 -2.0435  1.2391  0.7438
  223SOL    HW2  669   2.896   0.870   1.941 -0.9125  0.7394 -2.2442
  224SOL     OW  670   1.562   1.048   2.799  0.0931 -0.1413 -0.7186
  224SOL    HW1  671   1.559   0.979   2.717 -1.3148 -0.7234 -2.0994
  224SOL    HW2  672   1.525   1.137   2.775  1.7607 -3.2490  2.0206
  225SOL     OW  673   2.961   2.823   2.942  0.0145 -0.0930 -0.2824
  225SOL    HW1  674   2.957   2.736   2.891 -0.8637 -1.2382  0.4223
  225SOL    HW2  675   3.020   2.893   2.891  0.7665 -0.6504  2.0898
  226SOL     OW  676   2.457   1.666   2.855  0.1052  0.5476 -0.4960
  226SOL    HW1  677   2.515   1.622   2.778  0.0469  2.4360 -0.7404
  226SOL    HW2  678   2.444   1.608   2.941 -2.7879  2.8877 -1.3092
  227SOL     OW  679   0.777   0.137   2.947 -0.1401 -0.1329  0.4453
  227SOL    HW1  680   0.825   0.077   3.019 -0.6011 -2.0746  0.6493
  227SOL    HW2  681   0.828   0.133   2.857 -2.1033  1.2462  1.9521
  228SOL     OW  682   2.356   0.539   2.780  0.1386 -0.1109  0.2907
  228SOL    HW1  683   2.317   0.592   2.702  0.8362  2.7392  1.3748
  228SOL    HW2  684   2.442   0.489   2.751  0.8352  1.6782 -0.0068
  229SOL     OW  685   0.604   0.497   1.868  0.3897  0.3517 -0.2867
  229SOL    HW1  686   0.633   0.510   1.768 -2.2814  1.9938  0.9812
  229SOL    HW2  687   0.688   0.484   1.935 -3.5509 -0.0324 -1.5764
  230SOL     OW  688   1.925   1.228   2.126 -0.2416 -0.4364  0.3829
  230SOL    HW1  689   2.002   1.259   2.067  0.7243  0.7467  0.2156
  230SOL    HW2  690   1.832   1.263   2.093  0.4842  0.4545  5.2192
  231SOL     OW  691   0.626   1.100   2.950  0.5997 -0.4906  0.0284
  231SOL    HW1  692   0.724   1.105   2.980  1.1354  3.8133 -1.6809
  231SOL    HW2  693   0.562   1.075   3.021  1.2940 -0.9373 -1.4903
  232SOL     OW  694   2.531   0.017   2.724  0.2681  0.3822  0.3621
  232SOL    HW1  695   2.535  -0.076   2.766 -0.6709  0.7212  0.2256
  232SOL    HW2  696   2.538   0.012   2.619 -1.4687 -1.2433 -0.8133
  233SOL     OW  697   1.736   1.293   1.066  0.0782  0.0680 -0.2889
  233SOL    HW1  698   1.720   1.288   0.962 -1.4438  2.1094 -0.7951
  233SOL    HW2  699   1.744   1.192   1.102 -0.1591 -2.3642 -2.1880
  234SOL     OW  700   1.629   2.585   1.923 -0.4508 -0.2058 -0.1101
  234SOL    HW1  701   1.653   2.627   2.016 -2.0278  1.3423  1.4374
  234SOL    HW2  702   1.535   2.534   1.927 -1.9145  1.6590 -4.4516
  235SOL     OW  703   3.098   3.028   2.825 -0.0308 -0.6638 -0.0355
  235SOL    HW1  704   3.169   3.069   2.756  1.7682 -1.5992  0.0472
  235SOL    HW2  705   3.059   3.094   2.891  1.8514 -1.7901  0.4003
  236SOL     OW  706   2.866   0.700   0.038 -0.5961  0.5311  0.1613
  236SOL    HW1  707   2.902   0.740   0.126  0.6658  0.9549 -1.3606
  236SOL    HW2  708   2.921   0.620   0.008  0.3025  0.4593  0.5517
  237SOL     OW  709   1.484   1.629   1.021  0.0338  0.6319 -0.7707
  237SOL    HW1  710   1.588   1.616   1.031 -1.8138  2.2802 -1.5786
  237SOL    HW2  711   1.441   1.681   1.099 -0.8391  1.5722 -0.8888
  238SOL     OW  712   1.776   1.358   0.750  0.4922 -0.4504  0.1942
  238SOL    HW1  713   1.865   1.361   0.687  2.1324  1.1735 -0.7010
  238SOL    HW2  714   1.706   1.426   0.712 -2.6037  0.4060  0.7085
  239SOL     OW  715   2.141   0.280   2.679  0.0129  0.0310  0.2941
  239SOL    HW1  716   2.231   0.260   2.737 -0.6794 -1.3191  0.1694
  239SOL    HW2  717   2.082   0.358   2.715 -0.2321  0.8028  1.4615
  240SOL     OW  718   0.874   0.729   0.238 -0.2009 -0.2923 -0.0293
  240SOL    HW1  719   0.848   0.644   0.185  0.5550 -0.2129 -0.6541
  240SOL    HW2  720   0.891   0.693   0.339  0.1234  0.2622 -0.6616
  241SOL     OW  721   0.577   0.021   0.355 -0.5093  0.1939 -0.0295
  241SOL    HW1  722   0.614  -0.008   0.255  0.1347 -0.9162 -0.5588
  241SOL    HW2  723   0.490  -0.022   0.380  0.5958 -0.1716 -0.6193
  242SOL     OW  724   0.683   2.435   1.143  0.2015 -0.2605  0.2324
  242SOL    HW1  725   0.692   2.510   1.216  0.2118 -0.6232  1.4380
  242SOL    HW2  726   0.773   2.431   1.091  2.1377 -0.6378 -1.4403
  243SOL     OW  727   1.077   0.624   2.500 -0.3179 -0.4666 -0.0390
  243SOL    HW1  728   1.012   0.663   2.432 -0.4394  0.2212  0.4336
  243SOL    HW2  729   1.028   0.571   2.574 -1.0147 -1.1417 -1.5722
  244SOL     OW  730   2.831   1.998   2.340 -0.2604  0.2125  0.8195
  244SOL    HW1  731   2.869   1.972   2.248 -0.0249  0.0359 -2.4845
  244SOL    HW2  732   2.747   1.944   2.363  0.7399 -0.0401  2.3457
  245SOL     OW  733   2.476   0.714   2.188  0.3479 -0.0971 -0.1473
  245SOL    HW1  734   2.504   0.790   2.255  0.2412 -0.4669  0.3263
  245SOL    HW2  735   2.513   0.619   2.215 -0.6730 -1.6744 -0.7631
  246SOL     OW  736   0.294   2.851   1.768 -1.1622  0.2271 -0.3113
  246SOL    HW1  737   0.202   2.859   1.717 -1.5955 -2.1021  1.5160
  246SOL    HW2  738   0.338   2.943   1.770  0.1573 -1.6956 -0.8749
  247SOL     OW  739   2.202   0.504   2.994  0.1882  0.1357 -0.0000
  247SOL    HW1  740   2.254   0.498   2.903  0.4748  1.0502  1.8098
  247SOL    HW2  741   2.176   0.604   3.013 -0.4078  2.4763 -1.1268
  248SOL     OW  742   2.181   1.869   1.598  0.3405  0.4490  0.3766
  248SOL    HW1  743   2.229   1.781   1.626  1.2956  1.8410  2.6287
  248SOL    HW2  744   2.087   1.878   1.644  0.0532 -1.3355 -0.9953
  249SOL     OW  745   1.999   1.956   1.922  0.1257 -0.6204  0.3402
  249SOL    HW1  746   2.004   1.898   1.840  0.4515  0.3957  0.8754
  249SOL    HW2  747   2.093   1.997   1.940  1.2816 -0.9533 -0.8215
  250SOL     OW  748   1.019   0.646   1.890 -0.5020  0.3566 -0.2566
  250SOL    HW1  749   1.059   0.569   1.949  3.9221 -2.3648 -2.0571
  250SOL    HW2  750   0.998   0.610   1.798 -0.2821 -0.3131  2.2210
  251SOL     OW  751   3.039   1.547   2.601  0.2083  0.6114 -0.2716
  251SOL    HW1  752   3.056   1.640   2.560  0.4114 -2.2000 -0.7822
  251SOL    HW2  753   2.938   1.516   2.599  0.4324  1.4631  1.7947
  252SOL     OW  754   1.544   0.899   1.617  0.2440 -0.6780 -0.4164
  252SOL    HW1  755   1.612   0.961   1.566 -0.9251  0.6793 -0.5030
  252SOL    HW2  756   1.474   0.958   1.667 -0.6477 -0.4088  2.1510
  253SOL     OW  757   0.999   1.522   0.365  0.6110  0.2899  0.6509
  253SOL    HW1  758   1.085   1.490   0.329 -2.1157 -0.2007 -2.0529
  253SOL    HW2  759   0.910   1.485   0.313 -4.0633 -1.7810 -1.2274
  254SOL     OW  760   2.001   2.116   1.605 -0.1437  0.6479  0.3501
  254SOL    HW1  761   1.926   2.073   1.543 -0.1640  0.3535 -0.1031
  254SOL    HW2  762   1.968   2.139   1.698  0.1217  0.7960 -2.1868
  255SOL     OW  763   0.119   1.167   2.956  0.2896  0.0817 -0.7331
  255SOL    HW1  764   0.200   1.231   2.952 -0.9814 -2.2681 -1.2327
  255SOL    HW2  765   0.132   1.094   3.032 -2.3852 -1.8554  1.8259
  256SOL     OW  766   2.709   1.302   1.839  0.2467  0.0212  0.4147
  256SOL    HW1  767   2.678   1.299   1.737 -1.4359 -0.5404 -0.4194
  256SOL    HW2  768   2.656   1.233   1.902  0.2300  0.4247 -0.9971
  257SOL     OW  769   0.838   0.224   1.864  0.1471  0.8734  0.0525
  257SOL    HW1  770   0.904   0.282   1.807  2.4540 -0.7497  0.5779
  257SOL    HW2  771   0.877   0.129   1.882 -0.7696  0.5730 -0.6039
  258SOL     OW  772   2.944   1.278   0.402 -0.2172  0.1984 -0.1553
  258SOL    HW1  773   2.895   1.370   0.371 -1.3099  1.2750 -0.2405
  258SOL    HW2  774   2.987   1.285   0.498  0.4027  0.3870  0.5791
  259SOL     OW  775   0.504   2.877   2.994  0.4163 -0.6179  0.2319
  259SOL    HW1  776   0.446   2.848   3.075  0.3574  1.5652  2.1369
  259SOL    HW2  777   0.500   2.797   2.927 -1.9790 -0.3574 -0.9054
  260SOL     OW  778   2.664   0.738   2.698  0.1763 -0.1834 -0.0797
  260SOL    HW1  779   2.573   0.789   2.682 -1.8937 -1.7453 -1.8738
  260SOL    HW2  780   2.643   0.640   2.738  0.0102 -0.4993  2.3388
  261SOL     OW  781   2.715   1.309   1.328  0.3459 -0.4232 -0.5752
  261SOL    HW1  782   2.650   1.249   1.270  0.1183  0.9036 -1.6071
  261SOL    HW2  783   2.813   1.267   1.335 -0.3295 -1.5341  1.0063
  262SOL     OW  784   1.495   2.957   2.044  0.1242 -0.3871 -0.2460
  262SOL    HW1  785   1.537   3.034   1.981 -0.5093  2.3919  0.1260
  262SOL    HW2  786   1.418   2.905   1.999 -1.3670  0.1898  2.0264
  263SOL     OW  787   0.873   0.745   2.344  0.6625  0.1464 -0.0051
  263SOL    HW1  788   0.832   0.657   2.314  2.2217 -0.9091 -0.6958
  263SOL    HW2  789   0.921   0.791   2.264  0.3924  3.4122 -1.0958
  264SOL     OW  790   2.303   0.757   0.483 -0.8984 -0.0659  0.5235
  264SOL    HW1  791   2.216   0.813   0.469  1.4624  0.3195 -1.4812
  264SOL    HW2  792   2.394   0.815   0.486  1.3384  0.6675  1.0209
  265SOL     OW  793   0.915   2.309   2.699 -0.0985  0.7401  0.1150
  265SOL    HW1  794   0.964   2.376   2.758  1.1218 -1.9115 -1.1181
  265SOL    HW2  795   0.865   2.236   2.757 -1.4695 -1.8038  0.0145
  266SOL     OW  796   1.283   1.737   0.024 -0.0093  0.0668  0.1574
  266SOL    HW1  797   1.233   1.801   0.086  0.4351 -0.7874 -0.2558
  266SOL    HW2  798   1.384   1.742   0.040  1.3591  1.3375  0.0002
  267SOL     OW  799   1.101   0.020   2.315 -0.2439 -0.1120 -0.2581
  267SOL    HW1  800   1.061  -0.062   2.266  2.6396 -0.8721 -1.1509
  267SOL    HW2  801   1.205   0.014   2.306  1.3962  0.6291  0.1996
  268SOL     OW  802   0.648   1.151   1.092 -0.7692 -0.4096 -0.1599
  268SOL    HW1  803   0.636   1.213   1.174  0.0685  2.0776 -2.6977
  268SOL    HW2  804   0.649   1.209   1.000  1.7254  4.3367 -0.7202
  269SOL     OW  805   2.420   2.558   1.579  0.8303  0.1070  0.0142
  269SOL    HW1  806   2.496   2.486   1.574  0.7579  1.0016  0.8338
  269SOL    HW2  807   2.379   2.560   1.676  0.6729  2.0948 -1.0367
  270SOL     OW  808   0.302   2.766   2.060  0.2015 -0.3470 -0.7010
  270SOL    HW1  809   0.271   2.798   1.966  0.3033 -0.5210 -0.0276
  270SOL    HW2  810   0.252   2.676   2.086 -2.2820  0.7991 -0.0282
  271SOL     OW  811   0.417   1.368   1.153  0.4779 -0.0681  0.0723
  271SOL    HW1  812   0.391   1.400   1.054 -0.7789  2.2156 -2.4587
  271SOL    HW2  813   0.339   1.396   1.214 -1.9399 -2.3395 -0.7164
  272SOL     OW  814   1.973   2.814   1.883 -0.2155  0.1609 -0.0201
  272SOL    HW1  815   1.916   2.804   1.800  1.0694 -0.0294 -0.0465
  272SOL    HW2  816   2.065   2.860   1.865  3.0723  0.8291 -1.7411
  273SOL     OW  817   1.408   1.425   2.874 -0.1438  0.0857  0.0475
  273SOL    HW1  818   1.496   1.417   2.929 -0.9938  0.7749  2.2549
  273SOL    HW2  819   1.326   1.417   2.941 -3.0062 -2.5319  0.1308
  274SOL     OW  820   1.111   0.482   2.096  0.3554  0.3825 -0.2733
  274SOL    HW1  821   1.162   0.416   2.029 -1.4853  0.3292 -0.3574
  274SOL    HW2  822   1.162   0.489   2.183  0.7133 -1.3656 -3.5060
  275SOL     OW  823   0.660   2.092   1.901 -0.5107  0.1281  0.3752
  275SOL    HW1  824   0.639   2.193   1.920 -0.9180  1.9160  0.2671
  275SOL    HW2  825   0.579   2.037   1.934  0.1075 -1.6315  1.8302
  276SOL     OW  826   2.157   0.907   2.759  0.3232  0.2822  0.1433
  276SOL    HW1  827   2.092   0.957   2.691  0.2527  1.5108  2.6985
  276SOL    HW2  828   2.150   0.806   2.753  1.0284  0.5846  0.7976
  277SOL     OW  829   3.038   0.846   0.214 -1.0913 -0.5574  0.2076
  277SOL    HW1  830   3.129   0.867   0.157 -1.1885 -1.6041 -1.4523
  277SOL    HW2  831   3.040   0.777   0.298  0.0703 -0.8897 -0.5930
  278SOL     OW  832   0.240   0.286   2.921 -0.7696  0.1290  0.2735
  278SOL    HW1  833   0.335   0.253   2.931 -1.5019  2.7277 -1.3658
  278SOL    HW2  834   0.230   0.375   2.979 -2.9465  0.0869  4.4074
  279SOL     OW  835   0.118   0.046   0.888  0.3266 -0.5891 -0.5886
  279SOL    HW1  836   0.138   0.036   0.991  0.6824 -1.8271  0.1907
  279SOL    HW2  837   0.204   0.060   0.833 -0.6383 -0.1728  2.6732
  280SOL     OW  838   1.655   2.945   2.491  0.3394 -0.7762 -0.2500
  280SOL    HW1  839   1.706   3.009   2.560 -0.8369  2.9006  1.9466
  280SOL    HW2  840   1.553   2.947   2.487  1.2209  1.6779 -0.7004
  281SOL     OW  841   0.654   1.016   2.336 -0.0002 -0.6286  0.0342
  281SOL    HW1  842   0.652   0.977   2.240  0.4100  1.2500 -1.6518
  281SOL    HW2  843   0.647   0.942   2.409 -3.3199 -2.1094 -0.6605
  282SOL     OW  844   1.653   2.493   0.573 -0.3605  0.0444  0.6245
  282SOL    HW1  845   1.612   2.423   0.505 -0.3948 -0.4837 -0.8090
  282SOL    HW2  846   1.636   2.595   0.555 -0.1027 -0.2752 -1.0664
  283SOL     OW  847   1.099   0.890   0.713 -0.2066  0.2427 -0.5284
  283SOL    HW1  848   1.128   0.824   0.791 -1.8970  1.4006  0.8098
  283SOL    HW2  849   1.015   0.951   0.736 -4.7156  1.9414 -1.4243
  284SOL     OW  850   2.215   2.829   2.428 -0.0270  0.2029  0.1769
  284SOL    HW1  851   2.199   2.878   2.521  0.1024  4.9563 -0.6736
  284SOL    HW2  852   2.198   2.885   2.350  1.5743 -0.3075 -2.3578
  285SOL     OW  853   1.376   3.060   2.531  0.1620  0.2183 -0.1947
  285SOL    HW1  854   1.402   3.081   2.433  0.2490 -2.9920  0.7983
  285SOL    HW2  855   1.283   3.111   2.561 -2.4866 -0.1653 -0.4944
  286SOL     OW  856   0.421   0.461   0.638 -0.6138  0.6995  0.2634
  286SOL    HW1  857   0.402   0.414   0.723  2.3259  0.0240 -1.5814
  286SOL    HW2  858   0.426   0.401   0.557  2.0883  1.0809  1.7597
  287SOL     OW  859   0.075   1.296   2.532 -0.3838 -0.3401 -0.0675
  287SOL    HW1  860   0.066   1.216   2.590  1.7357  0.2702 -0.3879
  287SOL    HW2  861   0.007   1.369   2.552 -2.3737  0.1654  0.8329
  288SOL     OW  862   1.586   2.572   1.482 -0.3144 -0.4504  0.0620
  288SOL    HW1  863   1.666   2.590   1.538 -2.1151  1.9168  2.5597
  288SOL    HW2  864   1.604   2.576   1.381 -0.0994  1.6588  4.9519
  289SOL     OW  865   0.627   2.738   0.838  0.0342  0.3270 -0.4424
  289SOL    HW1  866   0.670   2.815   0.777 -0.5420  2.6033 -1.0945
  289SOL    HW2  867   0.623   2.773   0.934  1.0366 -0.5039 -0.4723
  290SOL     OW  868   2.968   1.275   1.667 -0.9372 -0.3152  0.5264
  290SOL    HW1  869   2.898   1.231   1.731  0.9546 -1.5185 -0.5339
  290SOL    HW2  870   3.066   1.247   1.692  0.4597 -3.8301 -0.6174
  291SOL     OW  871   1.993   0.032   0.093  0.1951 -0.3119  0.2147
  291SOL    HW1  872   2.005   0.007   0.193  0.2065 -2.7267 -1.8814
  291SOL    HW2  873   2.033   0.125   0.065 -3.4800  1.2925 -0.3870
  292SOL     OW  874   2.962   1.185   3.064  0.7348 -0.0327 -0.0538
  292SOL    HW1  875   2.892   1.257   3.040  1.4083 -1.4783 -0.6798
  292SOL    HW2  876   3.051   1.192   3.009 -0.3386 -3.2897 -1.8572
  293SOL     OW  877   0.552   2.081   0.154  0.2439 -0.5835  0.0307
  293SOL    HW1  878   0.538   2.144   0.234 -0.3607 -2.1455  0.7587
  293SOL    HW2  879   0.650   2.049   0.161 -0.8801 -0.3364 -0.2810
  294SOL     OW  880   1.621   2.113   1.853  0.3440  0.2538  0.4472
  294SOL    HW1  881   1.636   2.177   1.930 -0.1805  0.4604 -1.0667
  294SOL    HW2  882   1.658   2.163   1.767 -0.5662 -0.5070  0.9731
  295SOL     OW  883   0.970   1.187   0.397 -0.3864  0.7067 -0.4536
  295SOL    HW1  884   1.051   1.133   0.445  1.0428 -1.8747  0.9563
  295SOL    HW2  885   0.878   1.135   0.405  1.1864 -1.9198  0.0721
  296SOL     OW  886   1.290   2.106   2.529  0.0236 -0.3450  0.5447
  296SOL    HW1  887   1.249   2.174   2.454 -0.1427 -1.7207  0.6533
  296SOL    HW2  888   1.301   2.009   2.495  0.0669  3.2507 -2.4999
  297SOL     OW  889   1.515   0.710   1.371  0.5783 -0.1534 -0.0480
  297SOL    HW1  890   1.572   0.627   1.390 -1.2160  0.1703  2.4853
  297SOL    HW2  891   1.506   0.775   1.453 -0.4624  2.2948 -1.8381
  298SOL     OW  892   0.543   1.330   2.831  0.1983 -0.7724 -0.2186
  298SOL    HW1  893   0.561   1.248   2.891  0.0566  0.7876 -0.6685
  298SOL    HW2  894   0.617   1.339   2.757  0.3983 -1.3121 -1.4439
  299SOL     OW  895   0.356   0.381   1.504 -0.0038  0.0121 -0.1586
  299SOL    HW1  896   0.358   0.464   1.443 -0.8647 -1.1267 -1.9093
  299SOL    HW2  897   0.449   0.333   1.503  0.6019  1.0207 -1.2524
  300SOL     OW  898   1.283   1.809   2.840 -0.4039 -0.3140 -0.1914
  300SOL    HW1  899   1.293   1.725   2.775 -0.6194  1.0394 -2.1901
  300SOL    HW2  900   1.258   1.787   2.938 -3.4997 -1.3210  0.1225
  301SOL     OW  901   0.430   0.281   0.428  0.0581  0.2505 -0.5491
  301SOL    HW1  902   0.327   0.269   0.409 -1.8962  1.9930 -1.1479
  301SOL    HW2  903   0.487   0.199   0.394  0.3360  0.1318  1.7602
  302SOL     OW  904   1.184   2.305   2.366  0.1789 -0.0887 -0.1796
  302SOL    HW1  905   1.135   2.383   2.402 -1.2598 -2.6765  0.4902
  302SOL    HW2  906   1.124   2.242   2.300 -1.5272 -2.0904 -1.4437
  303SOL     OW  907   0.933   2.408   0.755  0.4684 -0.0386 -0.1754
  303SOL    HW1  908   0.981   2.494   0.721  0.7799  0.5441 -0.5036
  303SOL    HW2  909   0.930   2.400   0.859 -1.5111 -0.0454  0.4050
  304SOL     OW  910   0.075   1.995   0.678 -0.0817  0.3616  0.2912
  304SOL    HW1  911   0.109   1.943   0.586  1.7268  1.3410  1.2595
  304SOL    HW2  912  -0.007   2.058   0.676 -0.7393  0.0077 -0.0237
  305SOL     OW  913   1.612   0.886   0.681  0.3937 -0.1758  0.0677
  305SOL    HW1  914   1.532   0.882   0.615 -2.3296  1.5209  0.7885
  305SOL    HW2  915   1.677   0.806   0.679  0.7626 -1.2648  0.1795
  306SOL     OW  916   0.428   1.921   1.946  0.2770 -0.3800  0.0429
  306SOL    HW1  917   0.460   1.839   1.888 -0.7037 -3.6533 -0.6879
  306SOL    HW2  918   0.415   1.887   2.045 -2.0450 -0.6264  0.4561
  307SOL     OW  919   3.095   0.870   2.539 -0.0303 -0.3409 -0.3855
  307SOL    HW1  920   3.122   0.937   2.613 -1.4235 -1.3461 -0.8879
  307SOL    HW2  921   2.999   0.840   2.549  1.4446  2.1485  0.3158
  308SOL     OW  922   1.570   2.681   2.808  0.2163 -0.2900  0.4877
  308SOL    HW1  923   1.579   2.613   2.726  1.8419  0.6526  1.1161
  308SOL    HW2  924   1.496   2.649   2.868  0.9690 -1.0009 -0.4735
  309SOL     OW  925   1.249   0.012   1.812 -0.3409 -0.0605 -0.4839
  309SOL    HW1  926   1.344   0.009   1.863 -1.5355 -2.3506  2.0325
  309SOL    HW2  927   1.253   0.057   1.715 -4.0983  2.2470 -2.8299
  310SOL     OW  928   1.430   2.663   0.695 -0.5567  0.7664 -0.4444
  310SOL    HW1  929   1.396   2.732   0.763  1.5639 -0.5861 -1.8002
  310SOL    HW2  930   1.495   2.703   0.624 -1.0196 -2.8697  0.2835
  311SOL     OW  931   1.218   0.985   1.462 -0.2737 -0.3286 -0.1833
  311SOL    HW1  932   1.300   0.961   1.398 -0.8284  3.0550  0.3697
  311SOL    HW2  933   1.248   1.072   1.509  0.0615 -1.0890  2.7131
  312SOL     OW  934   1.633   0.641   1.011  0.0371  0.1286  0.1155
  312SOL    HW1  935   1.607   0.741   1.037 -0.4089  0.7246 -0.6175
  312SOL    HW2  936   1.554   0.592   0.957  0.0405  0.5715 -1.0098
  313SOL     OW  937   1.584   1.446   0.482  0.0075 -0.2096  0.2104
  313SOL    HW1  938   1.494   1.402   0.450 -1.6360 -0.1826 -0.3721
  313SOL    HW2  939   1.669   1.385   0.478  0.4957  2.6316 -0.3002
  314SOL     OW  940   2.918   0.074   3.058 -0.2323  0.5209 -0.7833
  314SOL    HW1  941   2.925   0.113   3.155  0.6876 -0.1526 -1.2635
  314SOL    HW2  942   2.831   0.024   3.038  1.1070  0.3024  0.2703
  315SOL     OW  943   1.280   0.238   2.763 -0.3013 -0.0384  0.3934
  315SOL    HW1  944   1.264   0.181   2.679 -0.3542 -2.2984  1.3680
  315SOL    HW2  945   1.302   0.180   2.848  0.4608  2.2049  2.7226
  316SOL     OW  946   1.715   2.086   0.911  0.0144 -0.3373  0.2785
  316SOL    HW1  947   1.704   2.099   1.011 -0.2555 -2.1973 -2.3883
  316SOL    HW2  948   1.698   2.177   0.848 -1.3726  3.4141  0.7955
  317SOL     OW  949   1.161   0.705   2.816 -0.0734  0.2900  0.2010
  317SOL    HW1  950   1.106   0.764   2.884 -1.2763  1.9594  0.4259
  317SOL    HW2  951   1.116   0.619   2.785  2.0183 -1.1197 -0.2321
  318SOL     OW  952   1.407  -0.000   2.262 -0.0535 -0.8463  0.3116
  318SOL    HW1  953   1.399   0.097   2.219 -1.1009  1.8384 -0.3374
  318SOL    HW2  954   1.450  -0.063   2.194  0.6409 -0.1417  1.1713
  319SOL     OW  955   0.648   2.394   2.936 -0.3034 -0.6615  0.2194
  319SOL    HW1  956   0.568   2.367   2.999 -4.4374 -0.2831  0.1998
  319SOL    HW2  957   0.716   2.316   2.918  3.5055  1.0443  1.8004
  320SOL     OW  958   1.614   2.273   0.424  0.6388 -0.2263 -0.8794
  320SOL    HW1  959   1.708   2.256   0.459 -0.7630  0.8843 -0.2405
  320SOL    HW2  960   1.540   2.209   0.461  0.6776  0.4292 -0.6895
  321SOL     OW  961   1.608   2.764   0.544 -0.4155 -0.4037  0.8139
  321SOL    HW1  962   1.543   2.803   0.473  0.5675 -0.2475  0.4269
  321SOL    HW2  963   1.707   2.797   0.523 -2.8941  2.3211  1.2472
  322SOL     OW  964   2.681   1.093   2.255 -0.1134 -0.8362 -0.2802
  322SOL    HW1  965   2.753   1.117   2.327  1.4424  2.7728 -4.1221
  322SOL    HW2  966   2.602   1.031   2.290  2.2267  0.0868 -0.4637
  323SOL     OW  967   1.005   2.723   0.871  0.1480 -0.4804 -0.1803
  323SOL    HW1  968   1.026   2.692   0.769 -0.8972  0.1138 -2.0467
  323SOL    HW2  969   0.981   2.823   0.886  1.1052 -1.6773  0.3277
  324SOL     OW  970   0.086   2.495   2.427  0.3170 -0.0842  0.2173
  324SOL    HW1  971   0.070   2.400   2.460  3.9203  1.1799 -1.7303
  324SOL    HW2  972   0.059   2.569   2.495  1.4836  0.2061 -1.0683
  325SOL     OW  973   1.192   3.064   0.475 -0.6075 -0.0485  0.3895
  325SOL    HW1  974   1.204   3.125   0.391  1.7272  1.4512 -2.2779
  325SOL    HW2  975   1.233   3.110   0.555  1.9106  0.4987 -0.6379
  326SOL     OW  976   2.307   0.793   0.065 -0.1113 -0.4312 -0.3432
  326SOL    HW1  977   2.212   0.829   0.053 -0.4084 -2.0391 -1.2085
  326SOL    HW2  978   2.306   0.696   0.099  0.2265 -0.3531 -2.4878
  327SOL     OW  979   2.700   0.433   0.533  0.6121 -0.0619 -0.2677
  327SOL    HW1  980   2.720   0.390   0.441 -1.2708 -0.8109  0.2743
  327SOL    HW2  981   2.612   0.393   0.576  0.2397  0.0603  1.8383
  328SOL     OW  982   2.532   0.622   0.354 -0.3709  0.2189  0.1031
  328SOL    HW1  983   2.444   0.613   0.402  0.7129  1.6157  0.0562
  328SOL    HW2  984   2.600   0.629   0.427 -0.8407  0.5456 -0.9342
  329SOL     OW  985   2.983   2.938   2.126 -0.4251 -0.1132  0.1322
  329SOL    HW1  986   3.053   2.906   2.193 -2.7053 -1.1776 -1.1745
  329SOL    HW2  987   2.990   3.028   2.079 -0.2892  1.4700  1.0579
  330SOL     OW  988   0.503   0.228   1.844  0.4295 -0.0645 -0.5959
  330SOL    HW1  989   0.526   0.331   1.854  1.2600  0.8916 -0.6535
  330SOL    HW2  990   0.576   0.166   1.883 -0.0923 -1.2960 -0.2722
  331SOL     OW  991   2.883   1.920   1.090  0.8478 -0.2555 -0.0810
  331SOL    HW1  992   2.935   2.003   1.063 -0.3767 -0.9635 -0.4689
  331SOL    HW2  993   2.839   1.927   1.186 -1.3602  0.7095  2.7102
  332SOL     OW  994   0.439   1.037   0.030  0.2551 -0.0804  0.4708
  332SOL    HW1  995   0.370   1.006  -0.038 -2.1787  0.3459 -0.6534
  332SOL    HW2  996   0.384   1.085   0.106  2.1392  2.8310  0.6567
  333SOL     OW  997   2.855   1.024   0.303  0.0098 -0.0055 -0.4113
  333SOL    HW1  998   2.886   1.118   0.337 -1.5414  1.2824 -1.9488
  333SOL    HW2  999   2.936   0.965   0.264 -2.4515  0.8231 -1.4503
  334SOL     OW 1000   1.640   1.156   1.904  0.5333  0.6923  0.2653
  334SOL    HW1 1001   1.733   1.157   1.857 -2.7967 -0.0120  3.0543
  334SOL    HW2 1002   1.637   1.227   1.976 -2.6126 -2.8530  0.8092
  335SOL     OW 1003   1.968   2.799   2.618  0.8152 -0.3080  0.0134
  335SOL    HW1 1004   2.041   2.800   2.695  1.4828 -1.7979 -1.7275
  335SOL    HW2 1005   1.883   2.857   2.638  0.8365  0.8305 -2.5608
  336SOL     OW 1006   0.212   0.066   2.693  0.2416  0.1424  0.1595
  336SOL    HW1 1007   0.299   0.007   2.716  0.6058 -1.1656 -2.6145
  336SOL    HW2 1008   0.212   0.151   2.750  0.6315 -0.1181  0.5519
  337SOL     OW 1009   0.997   2.809   2.824 -0.1547 -0.2492  0.6739
  337SOL    HW1 1010   0.967   2.802   2.919 -1.2333  0.0783 -2.1077
  337SOL    HW2 1011   1.092   2.775   2.814 -1.8222 -2.5077  1.2495
  338SOL     OW 1012   3.104   1.005   0.602 -0.3351 -0.1192  0.1475
  338SOL    HW1 1013   3.019   0.960   0.643 -0.3370 -2.6908 -3.2639
  338SOL    HW2 1014   3.101   1.111   0.611  0.6933 -1.0780 -2.3898
  339SOL     OW 1015   1.717   1.392   2.063 -0.2552 -0.3285  0.2335
  339SOL    HW1 1016   1.614   1.412   2.079 -0.1841 -0.2403 -2.1840
  339SOL    HW2 1017   1.769   1.484   2.047  1.0779  1.6194 -0.3158
  340SOL     OW 1018   2.283   0.783   1.279 -0.1718 -0.5319 -0.5370
  340SOL    HW1 1019   2.201   0.825   1.235  1.0477  0.5802  1.1567
  340SOL    HW2 1020   2.337   0.726   1.209 -0.8303 -0.3642  0.4737
  341SOL     OW 1021   1.871   2.191   0.468 -0.3051  1.1911 -0.3049
  341SOL    HW1 1022   1.875   2.176   0.369 -0.5266 -0.1712 -1.3001
  341SOL    HW2 1023   1.958   2.161   0.519 -1.2959 -0.6760  0.3710
  342SOL     OW 1024   2.228   2.197   2.813 -0.4994 -0.2513  0.3296
  342SOL    HW1 1025   2.299   2.120   2.843  1.7398 -1.4805  0.1276
  342SOL    HW2 1026   2.134   2.164   2.827  0.9136  2.3828  1.2599
  343SOL     OW 1027   0.311   0.899   2.862  0.1141  0.3548 -0.1113
  343SOL    HW1 1028   0.311   0.961   2.779  2.4107  0.0841  0.9960
  343SOL    HW2 1029   0.407   0.854   2.874 -0.9634  0.9227 -0.5691
  344SOL     OW 1030   1.866   1.467   0.315 -0.6159  0.1567  0.7270
  344SOL    HW1 1031   1.863   1.403   0.237  0.2718  0.1415  0.3860
  344SOL    HW2 1032   1.840   1.562   0.281 -1.8922  1.1845 -1.0385
  345SOL     OW 1033   1.440   2.213   2.855 -0.6351  0.2019  0.0595
  345SOL    HW1 1034   1.345   2.175   2.831 -1.3105  0.3022 -1.3466
  345SOL    HW2 1035   1.517   2.169   2.800 -1.5066 -0.0943 -0.4378
  346SOL     OW 1036   2.426   0.890   1.481  0.4238  0.1549 -0.9166
  346SOL    HW1 1037   2.370   0.970   1.521  0.2681 -0.2989 -1.9830
  346SOL    HW2 1038   2.385   0.858   1.391  2.9314  1.6052 -1.7727
  347SOL     OW 1039   0.679   2.780   1.515 -0.1204 -0.5891  0.1844
  347SOL    HW1 1040   0.662   2.739   1.607  2.3318 -0.2280  0.5159
  347SOL    HW2 1041   0.616   2.857   1.493  2.7875  2.0288  0.1901
  348SOL     OW 1042   0.088   0.686   2.805 -0.5322  0.1139 -0.3874
  348SOL    HW1 1043  -0.009   0.712   2.766 -0.6769 -0.7587 -1.4805
  348SOL    HW2 1044   0.161   0.761   2.792  0.5585 -1.4384  0.4635
  349SOL     OW 1045   1.923   0.465   2.749 -0.1760 -0.2413  0.7239
  349SOL    HW1 1046   1.909   0.542   2.684 -0.1298  0.2384  0.3632
  349SOL    HW2 1047   1.868   0.473   2.838  1.8107  0.1789  1.3195
  350SOL     OW 1048   1.663   0.360   0.358 -0.3195 -0.2992  0.3295
  350SOL    HW1 1049   1.715   0.420   0.425  0.1610  0.2384  0.4200
  350SOL    HW2 1050   1.621   0.426   0.295  0.8116  0.6061  2.5538
  351SOL     OW 1051   0.924   0.902   2.114  0.0301 -0.4037  0.4958
  351SOL    HW1 1052   0.909   1.002   2.078 -0.0933  1.7270 -2.1462
  351SOL    HW2 1053   0.864   0.839   2.057 -0.3481 -1.2929 -0.3659
  352SOL     OW 1054   1.966   1.376   0.567  0.0070  0.5735  0.0049
  352SOL    HW1 1055   1.941   1.407   0.476  0.3583 -2.6149  0.7438
  352SOL    HW2 1056   2.052   1.422   0.603  2.6506  0.0597  0.7617
  353SOL     OW 1057   2.141   2.815   1.193 -0.2231  0.4498 -0.1904
  353SOL    HW1 1058   2.245   2.788   1.178  1.1392 -1.6997  1.2998
  353SOL    HW2 1059   2.081   2.754   1.135  1.2462 -0.4857  0.6638
  354SOL     OW 1060   0.304   1.358   2.924 -0.5666 -0.2010  0.1114
  354SOL    HW1 1061   0.231   1.418   2.875 -0.7986 -2.0420  1.1144
  354SOL    HW2 1062   0.391   1.341   2.866  0.8464  2.9053 -0.0411
  355SOL     OW 1063   0.449   1.480   0.532  0.0498 -0.4462  0.2789
  355SOL    HW1 1064   0.474   1.579   0.539 -2.8414 -0.2388  2.0749
  355SOL    HW2 1065   0.525   1.413   0.516 -0.9381  0.2460 -0.4441
  356SOL     OW 1066   0.813   0.401   2.073  0.4651  0.2088  0.0399
  356SOL    HW1 1067   0.901   0.450   2.104  2.3782  2.4042 -2.2598
  356SOL    HW2 1068   0.833   0.328   2.002  0.9053 -2.2470 -0.4816
  357SOL     OW 1069   1.066   1.301   0.171 -0.3282 -0.5154 -0.0440
  357SOL    HW1 1070   1.001   1.283   0.091 -1.6974 -0.9266  0.6286
  357SOL    HW2 1071   1.027   1.286   0.266 -0.0143 -3.3610 -1.1871
  358SOL     OW 1072   1.615   1.651   0.294  0.0052  0.1358  0.8167
  358SOL    HW1 1073   1.610   1.565   0.350 -0.0407  3.1006  1.5064
  358SOL    HW2 1074   1.563   1.723   0.342  2.1613  0.4993 -0.1236
  359SOL     OW 1075   1.569   2.709   0.128 -0.0360 -0.1359  0.2243
  359SOL    HW1 1076   1.589   2.664   0.035  0.1151 -1.2606 -2.3399
  359SOL    HW2 1077   1.478   2.693   0.165  0.1812  0.9494  1.3096
  360SOL     OW 1078   0.876   0.581   0.466  0.3518 -0.3700  0.0135
  360SOL    HW1 1079   0.777   0.583   0.505 -3.1396 -0.0584  3.7481
  360SOL    HW2 1080   0.913   0.490   0.441 -1.4996  0.1413 -1.2969
  361SOL     OW 1081   1.289   1.368   0.644 -0.0227 -0.1738  0.5596
  361SOL    HW1 1082   1.323   1.396   0.740  0.2756  0.3705 -0.5212
  361SOL    HW2 1083   1.186   1.371   0.649 -0.0303  1.9189 -0.8077
  362SOL     OW 1084   1.384   1.728   0.783  0.0496 -0.1020  0.0653
  362SOL    HW1 1085   1.422   1.709   0.881 -0.6459 -0.1915 -0.9402
  362SOL    HW2 1086   1.449   1.780   0.719  0.8543 -1.9015  0.0192
  363SOL     OW 1087   1.122   1.304   2.037 -0.1945  0.3893  0.0978
  363SOL    HW1 1088   1.100   1.400   2.070  1.9523  0.3876  0.1265
  363SOL    HW2 1089   1.187   1.309   1.956 -1.8356 -0.0429  1.3483
  364SOL     OW 1090   0.582   2.341   2.013  0.1153 -0.7311  0.0068
  364SOL    HW1 1091   0.483   2.362   1.990 -0.5629 -1.6225 -0.4370
  364SOL    HW2 1092   0.653   2.410   1.983  3.2247  0.0077  3.1770
  365SOL     OW 1093   1.145   1.782   1.443  0.3064  0.8120  0.1209
  365SOL    HW1 1094   1.046   1.809   1.470 -0.9111 -0.4220 -0.6831
  365SOL    HW2 1095   1.170   1.692   1.491  0.3474  2.1811 -0.2892
  366SOL     OW 1096   2.830   2.065   0.475 -0.3499  0.2174 -0.3409
  366SOL    HW1 1097   2.739   2.023   0.496  0.7982 -0.7664 -0.7072
  366SOL    HW2 1098   2.895   1.989   0.441  3.8612 -0.9316  1.7188
  367SOL     OW 1099   0.822   1.172   0.074 -0.3645  0.3002  0.1398
  367SOL    HW1 1100   0.886   1.116   0.139 -1.9799  3.4701 -0.8743
  367SOL    HW2 1101   0.837   1.151  -0.028  1.8220  0.2874  2.3728
  368SOL     OW 1102   1.509   0.476   0.618  0.3712 -0.2038  0.4292
  368SOL    HW1 1103   1.446   0.529   0.559 -0.7698 -1.5577  2.2031
  368SOL    HW2 1104   1.607   0.498   0.594 -1.8979  0.0332 -0.1389
  369SOL     OW 1105   0.298   1.669   0.100  0.3911  0.3011 -0.2689
  369SOL    HW1 1106   0.306   1.749   0.163 -2.0914 -3.8371 -0.1751
  369SOL    HW2 1107   0.197   1.636   0.091 -0.8446  2.5819  0.6143
  370SOL     OW 1108   0.460   2.121   0.982 -0.0676  0.3685 -0.0540
  370SOL    HW1 1109   0.472   2.226   0.974  0.7101 -0.3415  0.8751
  370SOL    HW2 1110   0.366   2.085   0.953 -0.1338  0.1551 -0.6869
  371SOL     OW 1111   2.957   2.197   2.782 -0.8394  0.3538 -0.1024
  371SOL    HW1 1112   2.968   2.168   2.877 -0.3222  2.5123 -1.6823
  371SOL    HW2 1113   3.048   2.215   2.731  1.3360 -0.7103 -3.4199
  372SOL     OW 1114   0.870   1.896   1.018  0.0608 -0.6047  0.1941
  372SOL    HW1 1115   0.838   1.990   1.049  1.8287  1.4756 -1.7743
  372SOL    HW2 1116   0.951   1.894   0.956 -1.2274 -2.3274  0.9205
  373SOL     OW 1117   1.934   1.944   0.938  0.4272 -0.0070  0.2910
  373SOL    HW1 1118   2.012   1.980   0.996  0.0438  3.4122  0.3886
  373SOL    HW2 1119   1.859   2.015   0.915  1.2886 -0.0220 -2.0886
  374SOL     OW 1120   1.833   0.451   0.578  0.5445 -0.4568  0.0129
  374SOL    HW1 1121   1.799   0.389   0.659 -0.8888  2.7511 -1.2064
  374SOL    HW2 1122   1.926   0.428   0.533  1.9985 -2.6008 -1.2725
  375SOL     OW 1123   2.475   2.300   1.119  0.2206 -0.5122 -0.3809
  375SOL    HW1 1124   2.522   2.239   1.050 -0.3295 -0.3934 -2.7129
  375SOL    HW2 1125   2.485   2.258   1.217 -2.2003 -0.9757  0.7689
  376SOL     OW 1126   3.065   0.649   1.466  0.5439 -0.0138 -0.1238
  376SOL    HW1 1127   3.114   0.708   1.533  0.0435 -1.6880 -1.1973
  376SOL    HW2 1128   2.964   0.680   1.456  0.4396 -0.3421  1.6823
  377SOL     OW 1129   2.186   2.811   0.324  0.4292  0.5027  0.1358
  377SOL    HW1 1130   2.107   2.882   0.330  1.8646  1.0861 -2.2155
  377SOL    HW2 1131   2.278   2.855   0.323 -0.1436  0.6902  1.4736
  378SOL     OW 1132   1.873   1.837   2.668 -0.2417  0.6359 -0.4964
  378SOL    HW1 1133   1.951   1.769   2.695 -0.0977 -1.3655  0.0001
  378SOL    HW2 1134   1.795   1.789   2.619  1.8290 -0.8562 -0.5712
  379SOL     OW 1135   0.877   0.121   2.701 -0.0018  0.2311  0.0422
  379SOL    HW1 1136   0.866   0.019   2.679 -0.7394 -0.5289  0.3532
  379SOL    HW2 1137   0.792   0.176   2.679  0.5055  2.2413  1.0794
  380SOL     OW 1138   1.576   1.147   0.538 -0.0434  0.7684  0.2952
  380SOL    HW1 1139   1.503   1.074   0.542 -1.0805  1.1048  0.8250
  380SOL    HW2 1140   1.579   1.211   0.622 -2.2355 -0.0465  1.5079
  381SOL     OW 1141   1.291   1.256   1.505 -0.2496 -0.6003 -0.0945
  381SOL    HW1 1142   1.311   1.318   1.422 -1.2830 -2.4279 -0.5208
  381SOL    HW2 1143   1.374   1.249   1.567  0.4924  3.0490 -1.1765
  382SOL     OW 1144   1.729   0.791   0.258  0.2640 -0.1310 -0.0891
  382SOL    HW1 1145   1.784   0.779   0.173  0.7780  0.5447 -0.4843
  382SOL    HW2 1146   1.774   0.745   0.342 -0.8668  2.0450  1.8426
  383SOL     OW 1147   2.667   1.006   1.540  0.2592  0.2147  0.3257
  383SOL    HW1 1148   2.588   0.950   1.510  2.0497 -0.1955 -0.7347
  383SOL    HW2 1149   2.745   1.018   1.461  2.8803 -2.2679  0.1364
  384SOL     OW 1150   1.012   2.303   0.132 -0.1784 -0.0158  0.2204
  384SOL    HW1 1151   0.952   2.389   0.136  3.8407 -0.1575  1.4038
  384SOL    HW2 1152   1.011   2.248   0.216 -0.0103 -1.4042  1.4404
  385SOL     OW 1153   2.975   2.057   1.688 -0.1093 -0.0123  0.1846
  385SOL    HW1 1154   3.064   2.110   1.697  1.3907 -1.9363  0.7997
  385SOL    HW2 1155   2.992   1.964   1.711  1.2273  4.0362 -0.2740
  386SOL     OW 1156   0.430   1.042   0.455  0.2778 -0.0127  0.2000
  386SOL    HW1 1157   0.437   0.939   0.467  1.0117  0.0470  2.2291
  386SOL    HW2 1158   0.363   1.067   0.388 -0.1523 -0.2836  0.6226
  387SOL     OW 1159   1.008   0.361   1.689 -0.4466 -0.2951 -0.3664
  387SOL    HW1 1160   1.072   0.439   1.667  0.5160  1.5949 -1.3343
  387SOL    HW2 1161   0.996   0.290   1.611 -0.7130  2.6744 -0.3647
  388SOL     OW 1162   1.268   2.558   1.749 -0.1392 -0.1220 -0.2648
  388SOL    HW1 1163   1.264   2.551   1.647 -2.3440  0.5719 -0.1832
  388SOL    HW2 1164   1.336   2.496   1.801  1.1155  2.7099 -0.0603
  389SOL     OW 1165   0.237   0.006   1.138  0.0806  0.3531  0.2120
  389SOL    HW1 1166   0.199  -0.004   1.232 -0.2461 -0.3917 -0.4390
  389SOL    HW2 1167   0.316  -0.060   1.124  1.2119 -0.5218 -1.1507
  390SOL     OW 1168   1.075   0.847   1.161  0.2383 -0.4789 -0.0641
  390SOL    HW1 1169   1.172   0.819   1.159 -0.5201  1.8342  0.8506
  390SOL    HW2 1170   1.055   0.900   1.252 -0.1326 -0.6589  0.5057
  391SOL     OW 1171   2.078   1.150   1.073  0.1738  0.3862 -0.5778
  391SOL    HW1 1172   2.046   1.065   1.126 -0.1495 -0.8768 -1.4436
  391SOL    HW2 1173   2.159   1.129   1.012  2.0082 -0.7113 -1.9729
  392SOL     OW 1174   0.910   2.706   3.093 -0.1379 -0.1450  0.5435
  392SOL    HW1 1175   0.821   2.709   3.145  0.1215  0.2651 -1.6093
  392SOL    HW2 1176   0.993   2.751   3.138 -1.1017 -0.0164 -0.9635
  393SOL     OW 1177   0.359   0.578   1.986  0.0258 -0.2980 -0.2433
  393SOL    HW1 1178   0.286   0.504   1.988 -0.4217  0.1582 -0.8835
  393SOL    HW2 1179   0.452   0.550   1.945  0.4577 -0.7330  1.1214
  394SOL     OW 1180   2.824   1.797   2.748  0.2097 -0.6560  0.0358
  394SOL    HW1 1181   2.908   1.810   2.689  2.2762 -1.9159  0.7190
  394SOL    HW2 1182   2.765   1.882   2.749 -2.8518  2.1626  1.4585
  395SOL     OW 1183   1.556   1.955   0.707  0.0687  0.1488 -0.1701
  395SOL    HW1 1184   1.621   1.883   0.660  0.1872 -0.6390 -0.1548
  395SOL    HW2 1185   1.596   1.982   0.804  1.8637 -1.4927 -1.1676
  396SOL     OW 1186   2.730   1.966   1.316  0.3666  0.2193 -0.5782
  396SOL    HW1 1187   2.769   1.988   1.408 -0.2562  2.0581 -2.1405
  396SOL    HW2 1188   2.638   1.915   1.318  0.0240 -1.1956  0.4980
  397SOL     OW 1189   0.970   2.157   0.648  0.2301  0.1791  0.3364
  397SOL    HW1 1190   0.876   2.139   0.605  1.8856  1.6586  2.9627
  397SOL    HW2 1191   0.977   2.254   0.694  0.0510  0.1497  1.5651
  398SOL     OW 1192   2.218   3.080   1.094 -0.5584  0.3361 -0.7770
  398SOL    HW1 1193   2.198   2.978   1.121 -1.4145 -2.3366 -0.8737
  398SOL    HW2 1194   2.133   3.134   1.080  1.5433 -0.5051  2.8246
  399SOL     OW 1195   2.887   2.585   2.774  0.0179  0.1205  0.5567
  399SOL    HW1 1196   2.846   2.546   2.684 -2.1911  0.5509 -1.5046
  399SOL    HW2 1197   2.835   2.558   2.861 -1.7811 -3.1134  1.3859
  400SOL     OW 1198   0.797   1.571   1.297 -0.0216  0.1659 -0.1810
  400SOL    HW1 1199   0.757   1.625   1.374 -0.6229  1.1530 -1.3141
  400SOL    HW2 1200   0.777   1.610   1.201 -0.6371  2.2330 -0.8200
  401SOL     OW 1201   1.852   0.149   1.285 -0.2622 -0.1307  0.3135
  401SOL    HW1 1202   1.899   0.184   1.374 -0.5531 -0.0013 -0.6943
  401SOL    HW2 1203   1.749   0.159   1.284  0.0863 -2.0343  3.5741
  402SOL     OW 1204   1.344   0.137   3.015 -0.3772  0.0387  0.0091
  402SOL    HW1 1205   1.439   0.155   2.993 -1.2566  1.9136  2.1661
  402SOL    HW2 1206   1.322   0.217   3.074  0.2640  0.0077 -4.5627
  403SOL     OW 1207   2.250   1.863   0.955 -0.4090  0.0003  0.1025
  403SOL    HW1 1208   2.351   1.858   0.946 -1.5007  2.4613 -0.8492
  403SOL    HW2 1209   2.217   1.944   1.016 -0.9469  1.2391  1.0386
  404SOL     OW 1210   0.229   2.472   2.774 -0.1261 -0.1211 -0.0576
  404SOL    HW1 1211   0.329   2.452   2.756  1.0945  0.3629  3.6037
  404SOL    HW2 1212   0.218   2.577   2.786  0.4450 -0.0824  0.6239
  405SOL     OW 1213   0.191   2.516   0.567  0.3191  0.3412 -0.2863
  405SOL    HW1 1214   0.219   2.420   0.601 -2.1790  2.0731  1.6929
  405SOL    HW2 1215   0.264   2.584   0.592 -2.2349 -0.2021  1.3164
  406SOL     OW 1216   0.033   1.634   3.015 -0.2336 -0.4926 -0.3529
  406SOL    HW1 1217   0.099   1.608   2.933  1.3630 -0.3671 -1.4878
  406SOL    HW2 1218   0.041   1.571   3.093 -1.6543  0.4251  1.7760
  407SOL     OW 1219   1.566   0.942   0.961  0.1237  0.6465  0.6188
  407SOL    HW1 1220   1.569   0.904   0.865  0.2807  2.7678  0.7570
  407SOL    HW2 1221   1.511   1.029   0.972  2.8643  0.9787  0.0618
  408SOL     OW 1222   1.463   2.315   0.918 -0.2480 -0.2502  0.4158
  408SOL    HW1 1223   1.550   2.311   0.863 -1.3655 -1.3074 -0.0379
  408SOL    HW2 1224   1.448   2.409   0.952 -0.5595  0.5880 -1.7411
  409SOL     OW 1225   0.612   0.855   0.687 -0.0570 -0.0658 -0.2276
  409SOL    HW1 1226   0.526   0.837   0.630  1.4538 -0.5088 -0.0406
  409SOL    HW2 1227   0.696   0.801   0.651 -0.1708  3.0037  1.6452
  410SOL     OW 1228   1.364   1.957   1.488  0.4238  0.1521  0.3242
  410SOL    HW1 1229   1.330   2.061   1.500  0.7492  0.8072 -0.3202
  410SOL    HW2 1230   1.287   1.884   1.489 -0.4201  1.7844  0.3516
  411SOL     OW 1231   2.380   1.850   0.068  0.4907 -0.2320  0.2105
  411SOL    HW1 1232   2.315   1.853  -0.008  0.3852 -0.6020  0.6200
  411SOL    HW2 1233   2.468   1.901   0.044 -0.6108 -1.2887  0.5038
  412SOL     OW 1234   1.622   2.444   2.267 -0.0097 -0.0504  0.3869
  412SOL    HW1 1235   1.615   2.544   2.298  1.6244 -0.8241 -1.8550
  412SOL    HW2 1236   1.543   2.384   2.299  2.0777 -1.7216 -0.7349
  413SOL     OW 1237   3.069   0.283   2.878 -0.0888  0.5339  0.1383
  413SOL    HW1 1238   3.019   0.212   2.938 -1.4150 -0.4565 -1.2165
  413SOL    HW2 1239   3.176   0.269   2.876  1.7867  1.5082 -2.2847
  414SOL     OW 1240   1.708   1.353   1.361  0.1068 -0.2854 -0.5643
  414SOL    HW1 1241   1.656   1.436   1.406  0.7856  0.5950 -0.4225
  414SOL    HW2 1242   1.716   1.366   1.263 -0.8186 -1.0003 -2.1363
  415SOL     OW 1243   0.218   2.276   0.672  0.3497 -0.4735  0.6249
  415SOL    HW1 1244   0.272   2.199   0.714  3.9518 -0.8490  0.9616
  415SOL    HW2 1245   0.127   2.246   0.646 -0.9233 -2.5086 -1.5029
  416SOL     OW 1246   0.329   1.060   1.070  0.5927 -0.6486 -0.2540
  416SOL    HW1 1247   0.288   1.063   0.975 -2.4622  0.7753  0.3323
  416SOL    HW2 1248   0.407   1.125   1.086 -2.9740 -0.9271 -0.6869
  417SOL     OW 1249   2.198   2.341   1.870 -0.0737  0.0853  0.1515
  417SOL    HW1 1250   2.246   2.248   1.877 -0.1145 -0.1998 -0.9803
  417SOL    HW2 1251   2.106   2.349   1.926 -0.4417 -1.0368 -0.8004
  418SOL     OW 1252   1.136   0.544   1.350  0.0364 -0.4492 -0.1601
  418SOL    HW1 1253   1.029   0.532   1.333  2.6889 -0.8799  0.8556
  418SOL    HW2 1254   1.190   0.522   1.267 -1.7821  0.6263  1.8363
  419SOL     OW 1255   0.960   0.381   2.989  0.0658 -0.3022 -0.1867
  419SOL    HW1 1256   0.989   0.417   2.895  0.5423 -2.3663 -1.1038
  419SOL    HW2 1257   0.901   0.297   2.978 -1.1849  0.6202  2.0614
  420SOL     OW 1258   0.173   2.253   0.365 -0.4000  0.7330  0.5030
  420SOL    HW1 1259   0.158   2.182   0.290 -2.7376 -2.5567 -0.7042
  420SOL    HW2 1260   0.106   2.262   0.439  1.0375 -1.2694  0.9518
  421SOL     OW 1261   0.328   0.076   0.715  0.1705  0.0675  0.0248
  421SOL    HW1 1262   0.329   0.013   0.629 -1.4690  2.1077 -0.1743
  421SOL    HW2 1263   0.406   0.144   0.725  0.0515 -0.8184  0.0492
  422SOL     OW 1264   0.923   2.523   1.029 -0.0529 -0.2102 -0.1089
  422SOL    HW1 1265   0.929   2.618   0.982  2.3290 -1.0915  1.5425
  422SOL    HW2 1266   0.983   2.525   1.120 -0.3053 -1.4054  1.5807
  423SOL     OW 1267   0.054   0.693   1.216 -0.5161 -0.0077 -0.4080
  423SOL    HW1 1268  -0.005   0.666   1.303 -2.6409  0.2005 -2.2657
  423SOL    HW2 1269  -0.002   0.710   1.131  0.9208  4.0457 -1.3076
  424SOL     OW 1270   0.988   2.148   2.227 -0.1480 -0.1317  0.4149
  424SOL    HW1 1271   0.953   2.165   2.133 -0.4365 -0.2746 -0.2164
  424SOL    HW2 1272   0.915   2.159   2.302 -1.8604 -0.8784  0.2318
  425SOL     OW 1273   2.056   1.407   1.132 -0.4611  0.7982 -0.1115
  425SOL    HW1 1274   2.024   1.313   1.115  1.0390 -0.2629  2.9443
  425SOL    HW2 1275   2.074   1.462   1.046 -0.6907  0.6524  2.0546
  426SOL     OW 1276   1.493   1.534   1.417  0.7131 -0.1097 -0.5382
  426SOL    HW1 1277   1.462   1.613   1.359  0.5025  1.6302 -1.6057
  426SOL    HW2 1278   1.478   1.551   1.519 -0.1766 -2.0056 -0.1208
  427SOL     OW 1279   1.975   2.326   2.032 -0.7801 -0.0804  0.9662
  427SOL    HW1 1280   1.989   2.269   2.117  0.0023  1.5615 -3.4359
  427SOL    HW2 1281   1.966   2.431   2.047  0.1489 -0.2552 -0.1868
  428SOL     OW 1282   0.912   0.002   0.042 -0.0088 -0.5084 -0.2418
  428SOL    HW1 1283   0.933   0.094   0.085  0.3024  1.7401  0.3815
  428SOL    HW2 1284   0.982  -0.074   0.067 -0.5012 -1.6392 -0.0594
  429SOL     OW 1285   1.246   0.060   0.218  0.3524 -0.1249 -0.1591
  429SOL    HW1 1286   1.304   0.149   0.215 -1.4015  1.6632 -2.5508
  429SOL    HW2 1287   1.289  -0.027   0.186  2.0300 -1.2126 -0.9631
  430SOL     OW 1288   2.773   1.483   0.311 -0.3292  0.0033  0.1808
  430SOL    HW1 1289   2.750   1.534   0.220  1.4539 -0.1694  2.4785
  430SOL    HW2 1290   2.768   1.542   0.397  0.2873  0.6292 -1.1425
  431SOL     OW 1291   2.093   1.623   0.929 -0.8029  0.3850  0.1101
  431SOL    HW1 1292   2.131   1.706   0.978  1.5623  0.1768  0.1630
  431SOL    HW2 1293   2.000   1.642   0.890  0.1088 -0.5494  1.9890
  432SOL     OW 1294   2.927   2.199   1.258 -0.2593  0.9807 -0.1466
  432SOL    HW1 1295   2.844   2.153   1.298  1.6124  0.4971 -0.1778
  432SOL    HW2 1296   2.953   2.270   1.327 -0.2988 -0.8946  0.8709
  433SOL     OW 1297   1.850   0.278   0.828 -0.4501 -0.5706  0.0551
  433SOL    HW1 1298   1.773   0.232   0.883  0.7460  1.5770 -0.7682
  433SOL    HW2 1299   1.918   0.332   0.881 -0.8923 -1.3867 -1.9098
  434SOL     OW 1300   1.479   0.241   0.723  0.4010  0.6031  0.0866
  434SOL    HW1 1301   1.492   0.337   0.672  0.1992  2.5107 -0.3777
  434SOL    HW2 1302   1.520   0.250   0.816 -0.4606  1.8357  0.1830
  435SOL     OW 1303   1.428   1.417   2.067 -0.1364  0.8728  0.1434
  435SOL    HW1 1304   1.368   1.397   2.149 -0.2147 -0.0881 -1.4310
  435SOL    HW2 1305   1.387   1.493   2.015 -0.5496 -2.4586 -0.0353
  436SOL     OW 1306   1.670   2.681   2.441  0.1728 -0.1028 -0.4593
  436SOL    HW1 1307   1.694   2.772   2.487 -0.9024  0.5764  2.2016
  436SOL    HW2 1308   1.605   2.612   2.494 -2.4435  0.0677 -0.7623
  437SOL     OW 1309   1.004   3.000   0.874 -0.6219 -0.3795  0.2328
  437SOL    HW1 1310   0.946   3.072   0.835  0.1469 -0.7213 -1.2900
  437SOL    HW2 1311   1.058   3.020   0.962 -1.7608 -0.6160  1.0014
  438SOL     OW 1312   1.001   2.545   1.302 -0.1470 -0.6771  0.3983
  438SOL    HW1 1313   1.064   2.593   1.372 -0.4783 -2.2702  2.5686
  438SOL    HW2 1314   0.997   2.442   1.316 -0.4024  0.6122  1.8432
  439SOL     OW 1315   0.702   1.691   1.060 -0.0143  0.1289 -0.1464
  439SOL    HW1 1316   0.752   1.780   1.040  0.1412 -0.2302  0.8299
  439SOL    HW2 1317   0.612   1.707   1.115  0.3096 -0.8985  1.8405
  440SOL     OW 1318   0.961   2.330   1.975 -0.1117  0.3710 -0.3387
  440SOL    HW1 1319   0.982   2.421   1.935  0.8439 -1.2657 -0.7898
  440SOL    HW2 1320   1.002   2.251   1.917  3.2920 -0.7872  2.0151
  441SOL     OW 1321   0.369   2.833   1.321 -0.1884 -0.0721  0.1410
  441SOL    HW1 1322   0.427   2.749   1.295 -0.8900  0.2564  0.8912
  441SOL    HW2 1323   0.306   2.868   1.247  0.4222  1.4702 -1.5813
  442SOL     OW 1324   2.227   0.681   2.567  0.2527  0.0926 -0.0906
  442SOL    HW1 1325   2.246   0.598   2.507 -0.4618  0.2296 -1.1117
  442SOL    HW2 1326   2.174   0.756   2.517 -1.5296 -1.9305 -0.8843
  443SOL     OW 1327   1.313   2.502   2.223 -0.1346  0.6947 -0.6627
  443SOL    HW1 1328   1.273   2.419   2.275 -0.1612  0.5712 -1.6648
  443SOL    HW2 1329   1.288   2.589   2.274 -1.6992 -1.4354  0.4008
  444SOL     OW 1330   0.958   1.188   1.442  0.3373  0.4848  0.1089
  444SOL    HW1 1331   1.038   1.126   1.473 -0.2518  1.2044  3.7104
  444SOL    HW2 1332   0.987   1.274   1.386 -0.4247  2.9247 -1.1280
  445SOL     OW 1333   0.152   2.137   2.044  0.0007  0.9442  0.7219
  445SOL    HW1 1334   0.181   2.040   2.017  1.2375 -0.0770 -1.6736
  445SOL    HW2 1335   0.099   2.142   2.129  0.3805  2.5391 -0.7667
  446SOL     OW 1336   0.119   1.995   2.402 -0.1407 -0.5863  0.5499
  446SOL    HW1 1337   0.079   2.092   2.412 -1.1411  1.7494  1.4477
  446SOL    HW2 1338   0.109   1.962   2.306  0.1608 -1.0360 -0.9151
  447SOL     OW 1339   1.291   1.631   1.931  0.0134  0.7602  0.3449
  447SOL    HW1 1340   1.233   1.685   1.865 -1.8412  1.2313  2.6534
  447SOL    HW2 1341   1.373   1.687   1.959  1.2889 -0.2867 -1.0266
  448SOL     OW 1342   0.159   1.476   2.006 -0.1613  0.2068 -0.4287
  448SOL    HW1 1343   0.136   1.555   1.947  0.3550 -0.2096  1.3893
  448SOL    HW2 1344   0.102   1.480   2.096 -0.3651 -0.3234 -0.3248
  449SOL     OW 1345   1.881   3.033   0.838  0.0713 -0.2606  0.3316
  449SOL    HW1 1346   1.904   3.056   0.944  0.4870  0.5963  0.9139
  449SOL    HW2 1347   1.913   2.941   0.802  0.0191 -0.8129 -0.5152
  450SOL     OW 1348   2.194   1.504   0.681  0.5553 -0.5906  0.0263
  450SOL    HW1 1349   2.179   1.531   0.784 -3.0123  2.2150 -0.6735
  450SOL    HW2 1350   2.254   1.578   0.629  0.5682 -0.7221 -0.0491
  451SOL     OW 1351   1.387   2.980   1.466 -0.1666 -0.2166  0.0452
  451SOL    HW1 1352   1.335   3.057   1.519 -0.8762  1.7610  0.9113
  451SOL    HW2 1353   1.407   2.902   1.532 -1.1689 -1.5795 -3.3659
  452SOL     OW 1354   2.679   2.301   2.287  0.5008 -0.5493  0.3358
  452SOL    HW1 1355   2.616   2.383   2.288  0.5514  1.4779  0.7807
  452SOL    HW2 1356   2.736   2.283   2.372  1.9148 -0.0818  0.0543
  453SOL     OW 1357   2.489   2.685   3.099 -0.1478  0.0472 -0.7468
  453SOL    HW1 1358   2.396   2.713   3.125  1.9432 -1.3971  2.5190
  453SOL    HW2 1359   2.487   2.604   3.036 -3.0314  0.9410  1.7343
  454SOL     OW 1360   0.893   1.163   2.032  0.2717  0.5333  0.1255
  454SOL    HW1 1361   0.828   1.162   1.951 -0.8640 -1.4009  1.6122
  454SOL    HW2 1362   0.981   1.217   2.020  1.6822  0.2605 -1.4934
  455SOL     OW 1363   0.757   2.613   2.802 -1.0135  0.4992 -0.0021
  455SOL    HW1 1364   0.852   2.656   2.805  2.2520  0.6367 -1.3791
  455SOL    HW2 1365   0.738   2.527   2.865 -3.3660 -2.3444  0.7076
  456SOL     OW 1366   0.308   1.934   0.219  0.1436  0.3388  0.4678
  456SOL    HW1 1367   0.408   1.964   0.218  0.2303 -2.0157 -1.2939
  456SOL    HW2 1368   0.248   1.999   0.163 -2.1210 -1.9417 -0.1323
  457SOL     OW 1369   0.414   2.652   0.641  0.3423 -0.6043 -0.0376
  457SOL    HW1 1370   0.447   2.711   0.559  3.0927 -1.6587  0.5495
  457SOL    HW2 1371   0.464   2.664   0.729  0.2016 -1.2713  0.0242
  458SOL     OW 1372   2.933   0.016   1.293 -0.6168  0.2359  0.1880
  458SOL    HW1 1373   2.993   0.091   1.256 -0.1020  1.0962  1.3276
  458SOL    HW2 1374   2.925  -0.059   1.220 -0.1168 -0.3255 -0.1256
  459SOL     OW 1375   2.098   2.511   0.729 -0.2461 -0.4069 -0.2027
  459SOL    HW1 1376   2.165   2.514   0.815  0.3917 -1.1348  0.3671
  459SOL    HW2 1377   2.145   2.513   0.635 -0.3338  1.3405  2.1508
  460SOL     OW 1378   1.219   2.072   2.794 -0.3319 -0.0826 -0.1191
  460SOL    HW1 1379   1.254   2.107   2.704  3.3866 -2.6647  1.7933
  460SOL    HW2 1380   1.245   1.970   2.806 -0.8935 -0.9222  0.9605
  461SOL     OW 1381   0.478   2.122   2.775 -0.0948  0.1847  0.6406
  461SOL    HW1 1382   0.450   2.047   2.710  3.0006  0.8548 -1.7038
  461SOL    HW2 1383   0.520   2.088   2.869 -0.2838  1.5976  0.5931
  462SOL     OW 1384   0.960   1.023   1.722 -0.4108 -0.0375 -0.0612
  462SOL    HW1 1385   0.965   0.948   1.648 -0.8732 -0.8216  1.3345
  462SOL    HW2 1386   0.906   1.108   1.694 -0.1546 -1.2248 -0.0330
  463SOL     OW 1387   0.424   0.772   0.476 -0.0678 -0.1900 -0.4763
  463SOL    HW1 1388   0.474   0.701   0.420  0.6364  0.3088 -0.5862
  463SOL    HW2 1389   0.321   0.760   0.490 -0.2335  2.6162 -1.8896
  464SOL     OW 1390   0.533   2.335   2.274  0.2149 -0.2799 -0.0514
  464SOL    HW1 1391   0.462   2.408   2.302 -2.0351 -0.3058 -0.4196
  464SOL    HW2 1392   0.538   2.313   2.172  0.5692  1.1369 -1.8200
  465SOL     OW 1393   0.247   1.003   0.810  0.2934  0.5418 -0.3710
  465SOL    HW1 1394   0.154   1.016   0.769  0.2824  0.1175  0.9737
  465SOL    HW2 1395   0.266   0.903   0.814 -2.4826 -0.3296  0.0778
  466SOL     OW 1396   1.334   1.152   0.866 -0.5435 -0.0898  0.7571
  466SOL    HW1 1397   1.326   1.254   0.888 -2.2832 -0.0274  0.5074
  466SOL    HW2 1398   1.246   1.100   0.873  0.6262 -0.3771 -1.1294
  467SOL     OW 1399   0.633   0.462   2.570  0.3279  0.1779  0.1119
  467SOL    HW1 1400   0.564   0.536   2.602  0.5436  1.8525  0.5520
  467SOL    HW2 1401   0.599   0.370   2.606 -0.7203  3.6454  0.9556
  468SOL     OW 1402   0.479   2.273   1.593 -0.1347  0.4179 -0.2987
  468SOL    HW1 1403   0.577   2.304   1.619  0.9957 -1.1828  0.1220
  468SOL    HW2 1404   0.462   2.265   1.490  0.9332  0.9546 -0.5852
  469SOL     OW 1405   1.425   1.328   1.246  0.2871 -0.2534  0.8110
  469SOL    HW1 1406   1.483   1.332   1.159  0.1960  0.8598 -1.0774
  469SOL    HW2 1407   1.451   1.409   1.306 -0.6056 -2.1879  1.5113
  470SOL     OW 1408   2.979   1.847   0.799  0.0594 -0.1667  0.3287
  470SOL    HW1 1409   3.048   1.881   0.732 -1.9091  2.0854 -0.0173
  470SOL    HW2 1410   3.014   1.842   0.895  0.1452 -1.0750 -1.9889
  471SOL     OW 1411   2.686   1.401   2.182  0.0101  0.0203  0.2474
  471SOL    HW1 1412   2.664   1.306   2.217  0.1832  0.3493 -1.2549
  471SOL    HW2 1413   2.774   1.441   2.205 -2.3693  0.1923  0.0503
  472SOL     OW 1414   1.291   2.401   0.044 -0.1857  0.4032 -0.9486
  472SOL    HW1 1415   1.372   2.391   0.107  0.3077 -0.3514  0.0633
  472SOL    HW2 1416   1.203   2.361   0.077 -0.5802  2.1675 -0.4038
  473SOL     OW 1417   1.073   1.490   0.980 -0.1817 -0.0502  0.7024
  473SOL    HW1 1418   0.975   1.487   0.946 -0.4335  1.7337  3.0351
  473SOL    HW2 1419   1.097   1.413   1.046  0.4514 -1.6324 -0.2006
  474SOL     OW 1420   0.629   1.286   0.451 -0.2263  0.6115  0.5494
  474SOL    HW1 1421   0.573   1.260   0.368 -2.1516 -1.1640  1.0572
  474SOL    HW2 1422   0.654   1.207   0.517 -0.1148  1.1873 -0.6372
  475SOL     OW 1423   2.890   0.034   0.837 -0.2608  0.0257 -0.7984
  475SOL    HW1 1424   2.924   0.110   0.899  0.6557 -1.0635 -1.3946
  475SOL    HW2 1425   2.786   0.035   0.834  0.9458 -0.3012 -0.1690
  476SOL     OW 1426   0.987   3.047   1.807  0.1513 -0.3050 -0.1011
  476SOL    HW1 1427   1.093   3.063   1.815  1.1843  2.6013  2.1633
  476SOL    HW2 1428   0.950   3.062   1.708 -0.3126 -3.7045 -1.3904
  477SOL     OW 1429   1.438   0.320   2.443 -0.7364  0.1279 -0.1055
  477SOL    HW1 1430   1.462   0.379   2.524  2.4871 -2.4939 -0.9297
  477SOL    HW2 1431   1.517   0.260   2.417 -1.4189  1.6770 -2.0274
  478SOL     OW 1432   2.262   1.952   0.318 -0.1123 -0.0218 -0.5644
  478SOL    HW1 1433   2.217   1.884   0.376 -0.0630  1.5655 -1.1317
  478SOL    HW2 1434   2.342   1.910   0.261  0.0064  0.7172 -2.5211
  479SOL     OW 1435   1.278   0.997   2.868 -0.1783 -0.5650 -0.5052
  479SOL    HW1 1436   1.373   1.008   2.844 -0.3123 -2.8128  0.6976
  479SOL    HW2 1437   1.223   0.934   2.809 -0.0517 -1.7562  0.8454
  480SOL     OW 1438   2.651   2.282   0.431  0.3563  0.6730 -0.0579
  480SOL    HW1 1439   2.741   2.234   0.446  0.9091 -0.1476  0.3133
  480SOL    HW2 1440   2.572   2.239   0.474  2.2836 -2.0915 -0.5615
  481SOL     OW 1441   0.963   1.132   0.764  0.1967  0.9885  0.6651
  481SOL    HW1 1442   0.980   1.228   0.734 -0.7297 -3.0714  1.0725
  481SOL    HW2 1443   1.008   1.107   0.858  1.1291  0.6425 -0.2136
  482SOL     OW 1444   1.575   0.283   2.036  0.6750  0.1343 -0.1226
  482SOL    HW1 1445   1.590   0.378   1.996 -0.5038 -0.4307  1.3474
  482SOL    HW2 1446   1.660   0.231   2.067  0.9958 -0.9970  0.1688
  483SOL     OW 1447   0.166   2.380   1.225 -0.7640  0.6423  0.4672
  483SOL    HW1 1448   0.156   2.462   1.284 -0.5819  0.6147 -2.5841
  483SOL    HW2 1449   0.172   2.411   1.122 -1.9028 -2.3277 -0.2857
  484SOL     OW 1450   1.727   1.044   1.467 -0.2201  0.3830  0.4732
  484SOL    HW1 1451   1.823   0.996   1.461  0.3809 -2.1837  0.1900
  484SOL    HW2 1452   1.726   1.147   1.450 -0.1351  0.4639  0.3450
  485SOL     OW 1453   0.782   0.754   1.964  0.1738 -0.0044  1.0732
  485SOL    HW1 1454   0.748   0.811   1.881 -0.1831 -0.9853  1.1216
  485SOL    HW2 1455   0.872   0.707   1.940 -2.4583  0.2830  0.0901
  486SOL     OW 1456   0.909   1.866   2.460 -0.2442  0.2342 -0.8259
  486SOL    HW1 1457   0.943   1.828   2.552  2.8593 -0.6397  0.1742
  486SOL    HW2 1458   0.885   1.963   2.468  0.0204 -1.3634  2.2622
  487SOL     OW 1459   1.746   1.579   1.032 -0.1455  0.1967  0.7152
  487SOL    HW1 1460   1.769   1.480   1.050 -0.0907 -0.0372 -0.9983
  487SOL    HW2 1461   1.791   1.622   0.948  0.3587 -1.8677 -0.2674
  488SOL     OW 1462   2.936   0.835   2.256  0.5582  0.1556  0.3274
  488SOL    HW1 1463   3.017   0.770   2.262 -0.2561  0.0967 -0.4905
  488SOL    HW2 1464   2.848   0.790   2.296 -0.7074 -1.4103 -1.4439
  489SOL     OW 1465   2.844   0.329   1.291 -0.0403  0.1634  0.2771
  489SOL    HW1 1466   2.819   0.303   1.390  1.3369  2.4840  0.4498
  489SOL    HW2 1467   2.939   0.308   1.265 -2.4983 -0.7312 -2.5138
  490SOL     OW 1468   1.489   3.007   2.799 -0.3263 -0.1672  0.3019
  490SOL    HW1 1469   1.527   2.911   2.796 -1.9964 -1.2357 -0.1048
  490SOL    HW2 1470   1.457   3.045   2.709 -1.8896 -0.0438  0.5873
  491SOL     OW 1471   1.787   1.480   2.742 -0.1568 -0.3271 -0.8046
  491SOL    HW1 1472   1.802   1.399   2.799  0.1563 -2.2998 -1.5428
  491SOL    HW2 1473   1.878   1.520   2.719  1.4916 -1.0268 -0.5019
  492SOL     OW 1474   0.666   2.100   0.594 -0.3044 -0.8158 -0.3062
  492SOL    HW1 1475   0.671   2.139   0.693 -3.8811 -0.3682  3.7397
  492SOL    HW2 1476   0.588   2.127   0.540  2.0342 -1.8847  0.2804
  493SOL     OW 1477   0.384   1.331   2.095  0.4936 -0.4021 -0.2448
  493SOL    HW1 1478   0.301   1.391   2.071  0.8791  1.1809  0.7899
  493SOL    HW2 1479   0.353   1.240   2.132 -2.1107  2.5566  1.5134
  494SOL     OW 1480   2.720   2.653   0.158  0.3171 -0.1662 -0.7510
  494SOL    HW1 1481   2.718   2.613   0.251  0.5501 -1.3639  0.3426
  494SOL    HW2 1482   2.631   2.655   0.106 -0.7687  1.0498  1.0180
  495SOL     OW 1483   2.533   2.806   2.645 -0.3904 -0.3383 -0.2213
  495SOL    HW1 1484   2.535   2.706   2.663  0.9335  2.4559 -0.8721
  495SOL    HW2 1485   2.625   2.825   2.597 -0.8572 -0.6130  0.1409
  496SOL     OW 1486   1.961   2.277   0.831 -0.9511  0.7574 -0.5875
  496SOL    HW1 1487   2.019   2.191   0.811 -0.6569  1.3158  1.3821
  496SOL    HW2 1488   2.021   2.365   0.827  1.8747  1.2499 -2.7932
  497SOL     OW 1489   0.341   2.976   2.349 -0.6843  0.5409 -0.0168
  497SOL    HW1 1490   0.268   3.042   2.372 -0.3271 -3.7048  1.2966
  497SOL    HW2 1491   0.367   2.981   2.251 -3.6889 -0.6438  2.8061
  498SOL     OW 1492   1.171   1.296   1.151 -0.4622 -0.0862 -0.4658
  498SOL    HW1 1493   1.270   1.277   1.177 -0.6294 -0.9684  0.4957
  498SOL    HW2 1494   1.119   1.349   1.228  3.3718 -0.4919  1.5155
  499SOL     OW 1495   0.617   1.731   0.428 -0.2291  0.6614 -0.2021
  499SOL    HW1 1496   0.629   1.718   0.324 -0.5068  2.0262 -0.8458
  499SOL    HW2 1497   0.680   1.800   0.468 -3.4843  2.2156  1.9859
  500SOL     OW 1498   1.467   2.765   1.665  0.4371 -0.2260 -0.0891
  500SOL    HW1 1499   1.496   2.749   1.761  0.4452 -1.7494 -2.4829
  500SOL    HW2 1500   1.502   2.684   1.604 -0.9394  1.4280 -0.7505
  501SOL     OW 1501   0.794   1.262   2.276 -0.4312 -0.3269 -0.7374
  501SOL    HW1 1502   0.738   1.181   2.310  1.2303 -0.3944  0.8897
  501SOL    HW2 1503   0.804   1.259   2.173 -0.0975  0.5520  2.5030
  502SOL     OW 1504   2.544   0.918   1.796  0.6826  0.0301  0.1577
  502SOL    HW1 1505   2.568   0.945   1.700 -2.6683 -0.1029  1.3231
  502SOL    HW2 1506   2.509   0.815   1.801 -1.0371 -4.3658 -0.2180
  503SOL     OW 1507   1.228   0.131   0.712  0.0800  0.0247  0.1864
  503SOL    HW1 1508   1.162   0.202   0.673  0.9344 -1.3039 -1.5852
  503SOL    HW2 1509   1.325   0.166   0.733  3.5906 -2.0619  0.1855
  504SOL     OW 1510   2.951   2.375   1.505  0.0815 -0.4712 -0.4478
  504SOL    HW1 1511   2.881   2.424   1.558  0.4402 -2.5757 -1.9918
  504SOL    HW2 1512   3.008   2.307   1.562  3.6456  2.5757 -1.4553
  505SOL     OW 1513   2.328   1.155   1.518  0.5187 -0.0461  0.4603
  505SOL    HW1 1514   2.292   1.190   1.425 -3.4775 -3.0385 -0.7058
  505SOL    HW2 1515   2.422   1.190   1.552  3.0790  2.1636 -0.9340
  506SOL     OW 1516   1.939   0.251   1.872 -0.0236 -0.0049 -0.3765
  506SOL    HW1 1517   2.041   0.223   1.854  2.3593 -0.6682  1.1022
  506SOL    HW2 1518   1.931   0.355   1.894  1.6370 -1.6534  0.5002
  507SOL     OW 1519   0.479   0.768   2.152  0.1414 -0.1717  0.2996
  507SOL    HW1 1520   0.433   0.699   2.086 -0.5903  0.9330 -1.9564
  507SOL    HW2 1521   0.549   0.725   2.213 -1.7460  0.6986 -2.6143
  508SOL     OW 1522   0.329   1.642   0.783  0.0013  0.0388 -0.0432
  508SOL    HW1 1523   0.421   1.663   0.744  0.2804  0.3968 -2.6621
  508SOL    HW2 1524   0.307   1.680   0.880  0.6290  1.0365  1.5904
  509SOL     OW 1525   1.272   1.192   2.474 -0.0268  0.3783  0.4584
  509SOL    HW1 1526   1.342   1.167   2.401  0.8090 -2.3357  1.6658
  509SOL    HW2 1527   1.180   1.155   2.437 -0.2335  2.3828 -2.0985
  510SOL     OW 1528   1.402   2.043   2.203 -0.5790  0.0279 -0.0442
  510SOL    HW1 1529   1.385   2.105   2.117 -3.3363  0.6464  0.8051
  510SOL    HW2 1530   1.313   2.006   2.231 -0.8669  0.6981  1.8622
  511SOL     OW 1531   3.010   2.647   1.365  0.5752 -0.2976 -0.2329
  511SOL    HW1 1532   2.964   2.666   1.273  0.1291  1.8977 -0.0810
  511SOL    HW2 1533   2.974   2.557   1.408  0.0597  0.4811  0.8578
  512SOL     OW 1534   2.366   0.431   1.385 -0.1319 -0.1639  0.7280
  512SOL    HW1 1535   2.276   0.436   1.335 -0.3218  0.6370 -1.0332
  512SOL    HW2 1536   2.435   0.382   1.321 -1.3977  1.1970 -1.4983
  513SOL     OW 1537   2.555   2.131   0.904 -0.4882 -0.1671 -0.8567
  513SOL    HW1 1538   2.521   2.201   0.840  1.0189 -2.0302  0.0601
  513SOL    HW2 1539   2.621   2.061   0.859 -1.9263 -0.2244 -1.0948
  514SOL     OW 1540   0.565   2.772   0.436 -0.0026 -0.4833 -0.0985
  514SOL    HW1 1541   0.607   2.773   0.342  1.5165  1.1107 -0.1407
  514SOL    HW2 1542   0.595   2.847   0.501 -0.2002 -3.3349 -0.5048
  515SOL     OW 1543   1.961   1.340   2.396  0.0471 -0.3660 -0.5201
  515SOL    HW1 1544   1.977   1.296   2.303 -1.4132  0.8356  1.5496
  515SOL    HW2 1545   1.893   1.287   2.450  0.0128  1.7397  0.0451
  516SOL     OW 1546   0.246   0.163   1.956  0.1881  0.4165  0.4592
  516SOL    HW1 1547   0.327   0.188   1.892  2.1326  0.5063  0.3037
  516SOL    HW2 1548   0.170   0.113   1.905  0.8448  0.1299  3.5909
  517SOL     OW 1549   0.503   0.254   1.101 -0.4019  0.0611 -0.4695
  517SOL    HW1 1550   0.548   0.195   1.177 -2.6566  0.9985  0.0227
  517SOL    HW2 1551   0.403   0.229   1.097  1.4762  1.1706 -0.2378
  518SOL     OW 1552   2.213   3.022   1.844 -0.4317 -0.0350 -1.0562
  518SOL    HW1 1553   2.238   3.122   1.849  0.2174 -0.1118  0.7092
  518SOL    HW2 1554   2.228   2.983   1.751 -0.5056 -1.0452  1.9891
  519SOL     OW 1555   2.359   2.237   2.538 -0.6720  0.1313  0.1559
  519SOL    HW1 1556   2.310   2.219   2.627 -1.0707  0.1568 -1.1824
  519SOL    HW2 1557   2.333   2.329   2.498  0.2806  1.1604  0.2286
  520SOL     OW 1558   1.777   2.634   1.683  0.4265  0.3075 -0.8035
  520SOL    HW1 1559   1.732   2.599   1.770  0.6164 -0.3702  1.6746
  520SOL    HW2 1560   1.873   2.600   1.675 -2.8660 -0.8379 -0.6093
  521SOL     OW 1561   0.650   0.077   2.139  0.2426 -0.3658  0.0758
  521SOL    HW1 1562   0.572   0.024   2.101 -0.6227  0.4426 -1.5634
  521SOL    HW2 1563   0.676   0.055   2.237  0.0610  3.5130 -1.6616
  522SOL     OW 1564   0.247   1.886   1.526  0.3825 -0.2977 -0.5756
  522SOL    HW1 1565   0.282   1.935   1.609 -0.9818 -1.6708 -1.7918
  522SOL    HW2 1566   0.212   1.950   1.448  0.1956  0.5294  0.7674
  523SOL     OW 1567   2.234   2.956   1.585  0.5952 -0.5336  0.2665
  523SOL    HW1 1568   2.323   2.901   1.553  1.7082 -2.1250 -3.3971
  523SOL    HW2 1569   2.143   2.921   1.557 -0.3248  1.6840 -0.7323
  524SOL     OW 1570   0.219   2.762   2.789  0.3818 -0.2544 -0.7793
  524SOL    HW1 1571   0.170   2.809   2.864  0.7510  1.7566 -1.2694
  524SOL    HW2 1572   0.326   2.769   2.794 -0.1909 -0.2198  1.4680
  525SOL     OW 1573   2.141   2.117   0.509  0.8288 -0.4421  0.5897
  525SOL    HW1 1574   2.149   2.058   0.589  0.2058 -0.3872 -2.2679
  525SOL    HW2 1575   2.170   2.073   0.418  0.5986 -0.0048 -1.9716
  526SOL     OW 1576   0.393   1.504   1.699 -0.0392  0.2239  0.3159
  526SOL    HW1 1577   0.444   1.587   1.745 -2.0988  0.2786  2.0412
  526SOL    HW2 1578   0.414   1.416   1.744 -2.5706  3.0034  2.7820
  527SOL     OW 1579   1.150   3.037   1.102  0.2504 -0.7641 -0.3811
  527SOL    HW1 1580   1.210   2.953   1.123 -0.8739 -0.6309  2.1499
  527SOL    HW2 1581   1.210   3.117   1.123 -0.4165 -2.6466  0.7065
  528SOL     OW 1582   1.285   2.421   0.606 -0.1462  0.7613 -0.1309
  528SOL    HW1 1583   1.311   2.315   0.606  1.1073 -3.8037 -2.6790
  528SOL    HW2 1584   1.351   2.482   0.656 -1.3568 -2.8505  0.2690
  529SOL     OW 1585   1.849   1.698   0.813 -0.0326  0.3650 -0.3263
  529SOL    HW1 1586   1.784   1.693   0.733  1.0360  1.9161 -1.9413
  529SOL    HW2 1587   1.868   1.795   0.835 -1.5452 -1.4682  2.0950
  530SOL     OW 1588   0.441   2.538   0.148 -0.6365 -0.5851  0.4932
  530SOL    HW1 1589   0.471   2.492   0.232 -2.4174 -1.2482 -0.7198
  530SOL    HW2 1590   0.435   2.470   0.068  0.7888 -1.0940 -0.2291
  531SOL     OW 1591   1.818   0.999   1.037  0.2687  0.6229  0.1591
  531SOL    HW1 1592   1.877   1.012   0.952  0.2008 -1.5806  0.2298
  531SOL    HW2 1593   1.716   0.982   1.020  0.2855 -1.7744 -0.1650
  532SOL     OW 1594   0.405   1.196   0.696 -0.2304  0.3697 -0.2406
  532SOL    HW1 1595   0.434   1.180   0.595 -0.5510 -0.8512 -1.2961
  532SOL    HW2 1596   0.338   1.123   0.719  1.9978  0.8578  0.5271
  533SOL     OW 1597   1.822  -0.005   2.639  0.6438  0.4469 -0.2588
  533SOL    HW1 1598   1.926  -0.015   2.640 -1.0546  0.3553 -2.5570
  533SOL    HW2 1599   1.784   0.094   2.653  0.0358  1.7831  1.2074
  534SOL     OW 1600   0.193   0.175   1.553  0.2755  0.0446 -0.0669
  534SOL    HW1 1601   0.256   0.260   1.527 -0.1755 -0.5156 -1.4824
  534SOL    HW2 1602   0.091   0.203   1.555  2.5588  1.0567 -0.5941
  535SOL     OW 1603   1.884   0.381   0.158  0.0422  0.1206 -0.3583
  535SOL    HW1 1604   1.929   0.457   0.208 -0.8396  1.7413 -1.7364
  535SOL    HW2 1605   1.813   0.322   0.215 -6.4482 -1.9676  0.9471
  536SOL     OW 1606   1.234   2.488   0.933  0.0346  0.0299  0.4573
  536SOL    HW1 1607   1.301   2.447   0.870  0.2959  2.1627  1.4352
  536SOL    HW2 1608   1.156   2.536   0.882 -0.3313 -0.1946  1.7138
  537SOL     OW 1609   0.878   0.244   2.316 -0.6222  0.4620 -0.1978
  537SOL    HW1 1610   0.842   0.235   2.223  1.4753  1.7605 -0.6813
  537SOL    HW2 1611   0.962   0.188   2.335  0.7579  0.6793  2.7894
  538SOL     OW 1612   1.731   2.243   1.638 -0.5834  0.5815  0.2563
  538SOL    HW1 1613   1.676   2.184   1.574 -0.7795  1.3412  2.0959
  538SOL    HW2 1614   1.805   2.309   1.598  0.9165  2.4915  0.6891
  539SOL     OW 1615   0.146   1.550   2.782 -0.4585  0.1610 -0.2629
  539SOL    HW1 1616   0.059   1.528   2.726  0.8921 -1.3837  2.3914
  539SOL    HW2 1617   0.201   1.630   2.739 -0.4349  0.5626  1.2674
  540SOL     OW 1618   2.644   1.789   2.130 -0.5584 -0.0208 -0.0747
  540SOL    HW1 1619   2.636   1.714   2.056  2.3254 -1.0999  2.3358
  540SOL    HW2 1620   2.614   1.885   2.109  0.4774  0.1425  0.6382
  541SOL     OW 1621   0.418   2.311   3.092  0.1663  0.1785 -0.5509
  541SOL    HW1 1622   0.437   2.221   3.143 -3.2431  0.3510 -0.9842
  541SOL    HW2 1623   0.339   2.300   3.027  2.0397 -2.6082  0.5278
  542SOL     OW 1624   2.179   2.575   0.466  0.1272 -0.6530 -0.3553
  542SOL    HW1 1625   2.200   2.662   0.406  0.6263  1.8476 -0.3856
  542SOL    HW2 1626   2.076   2.551   0.465  1.5308  0.2601  2.8074
  543SOL     OW 1627   1.113   1.776   1.776  0.0430  0.6532 -0.2403
  543SOL    HW1 1628   1.103   1.813   1.875 -0.7060  1.1078  1.3576
  543SOL    HW2 1629   1.023   1.788   1.724  2.3885  3.3115  2.0304
  544SOL     OW 1630   0.842   0.471   0.122  0.0256 -0.3261  0.6643
  544SOL    HW1 1631   0.894   0.422   0.199  0.8569  1.0546 -0.7942
  544SOL    HW2 1632   0.887   0.447   0.029 -1.1131  0.7141 -1.6156
  545SOL     OW 1633   1.149   1.728   0.651 -0.0267  0.4101  0.4736
  545SOL    HW1 1634   1.239   1.725   0.708 -0.4581  0.1142  0.9863
  545SOL    HW2 1635   1.163   1.761   0.554 -0.0774  0.7551  2.7669
  546SOL     OW 1636   2.726   1.590   0.037  0.7657  0.0220  0.2056
  546SOL    HW1 1637   2.751   1.589  -0.063 -4.2781 -3.1432  0.5574
  546SOL    HW2 1638   2.624   1.562   0.054 -0.5951 -2.9995 -1.7881
  547SOL     OW 1639   0.474   3.058   2.716  0.0081 -0.1762 -0.0154
  547SOL    HW1 1640   0.494   2.976   2.651  0.8420 -1.1379 -1.8207
  547SOL    HW2 1641   0.516   3.032   2.808 -1.0474 -0.0104 -1.3744
  548SOL     OW 1642   2.063   0.778   2.999  0.2001  0.2306  0.7370
  548SOL    HW1 1643   1.969   0.766   3.041 -3.4734 -1.4405  2.3187
  548SOL    HW2 1644   2.087   0.871   2.970  2.0223 -1.3395  1.1877
  549SOL     OW 1645   0.564   0.457   0.092 -0.2476  0.0867 -0.2977
  549SOL    HW1 1646   0.518   0.531   0.030 -0.2130 -2.8659 -1.6908
  549SOL    HW2 1647   0.669   0.458   0.098 -0.9673 -1.5249  0.8060
  550SOL     OW 1648   2.520   2.885   2.911  0.2879 -0.9948  0.3639
  550SOL    HW1 1649   2.508   2.822   2.994 -1.8889  0.6905  1.5350
  550SOL    HW2 1650   2.534   2.839   2.820 -1.3818  0.2246  0.9912
  551SOL     OW 1651   0.265   0.830   0.230 -0.2258  0.0165 -0.0468
  551SOL    HW1 1652   0.368   0.806   0.235 -1.4103  0.1001 -2.5783
  551SOL    HW2 1653   0.219   0.835   0.322  0.8816  0.9683  1.7260
  552SOL     OW 1654   0.857   2.811   1.925  0.3457 -0.3508 -0.4498
  552SOL    HW1 1655   0.828   2.779   2.020  1.7447 -0.6664  0.3794
  552SOL    HW2 1656   0.886   2.908   1.923 -4.8347 -1.0991 -0.3021
  553SOL     OW 1657   3.092   2.563   0.359  0.0770  0.1499  0.0027
  553SOL    HW1 1658   3.043   2.475   0.332 -1.4930 -0.3007 -0.2105
  553SOL    HW2 1659   3.178   2.548   0.413  0.2248  0.4904 -0.6010
  554SOL     OW 1660   2.094   0.340   0.491 -0.2757 -0.7394  0.2775
  554SOL    HW1 1661   2.138   0.302   0.402 -3.1393 -0.8105 -2.0526
  554SOL    HW2 1662   2.058   0.262   0.546  1.4927  2.7880  1.0688
  555SOL     OW 1663   0.526   2.855   2.522 -0.3199  0.1035  0.4035
  555SOL    HW1 1664   0.459   2.874   2.448  1.5137  0.8921 -0.2853
  555SOL    HW2 1665   0.616   2.815   2.481  0.4972 -1.2541 -2.2817
  556SOL     OW 1666   0.967   2.357   1.642 -0.0583 -0.0681  0.1547
  556SOL    HW1 1667   0.978   2.438   1.706  0.9722  0.6573  0.6744
  556SOL    HW2 1668   1.031   2.353   1.564  0.3705 -3.5160  1.5558
  557SOL     OW 1669   0.135   2.121   0.107  0.3917 -0.0387  0.3359
  557SOL    HW1 1670   0.040   2.085   0.110  0.4999 -0.2732 -0.9720
  557SOL    HW2 1671   0.158   2.180   0.024 -1.8872 -0.3133  0.3517
  558SOL     OW 1672   2.989   2.305   0.270 -0.4006  0.0895 -0.3124
  558SOL    HW1 1673   2.898   2.263   0.261 -0.2760  2.1938 -1.5354
  558SOL    HW2 1674   3.027   2.341   0.182 -1.1537 -0.6052  1.9164
  559SOL     OW 1675   0.385   2.289   1.308 -0.0873  0.0916 -0.5091
  559SOL    HW1 1676   0.290   2.307   1.268 -0.8679 -0.6078 -0.1376
  559SOL    HW2 1677   0.418   2.191   1.300  0.1652  0.3433 -0.9877
  560SOL     OW 1678   2.050   1.058   3.018 -0.6783 -0.3123  0.2148
  560SOL    HW1 1679   2.051   1.112   2.929 -0.5073 -0.5621  1.0504
  560SOL    HW2 1680   1.991   1.106   3.087  2.7811 -0.4356  0.3155
  561SOL     OW 1681   3.009   1.960   0.085  0.4921  0.0966  0.5054
  561SOL    HW1 1682   2.987   1.858   0.108 -0.4834  0.2137 -1.0363
  561SOL    HW2 1683   2.937   2.007   0.026  0.1703  3.7814  2.0581
  562SOL     OW 1684   0.843   2.147   2.463 -0.0803  0.9376 -0.2328
  562SOL    HW1 1685   0.741   2.135   2.469  0.6223  2.0031  3.0605
  562SOL    HW2 1686   0.883   2.211   2.528 -2.7059 -2.9037 -2.5607
  563SOL     OW 1687   0.651   2.566   2.552  0.1152 -0.1678  0.1626
  563SOL    HW1 1688   0.583   2.487   2.563 -1.3636  0.2697 -1.2340
  563SOL    HW2 1689   0.718   2.580   2.632  2.6909  2.2466 -1.6568
  564SOL     OW 1690   2.764   1.308   2.926 -0.1103 -0.5433 -0.6668
  564SOL    HW1 1691   2.671   1.314   2.968 -1.8552 -0.0768  0.4871
  564SOL    HW2 1692   2.799   1.394   2.882  1.3380 -0.3829  0.0821
  565SOL     OW 1693   2.547   2.027   2.568 -0.1836 -0.0445 -0.1594
  565SOL    HW1 1694   2.468   2.096   2.545 -1.5004  0.3028  0.4839
  565SOL    HW2 1695   2.612   2.052   2.645 -0.1120 -1.0731  2.5300
  566SOL     OW 1696   2.028   2.816   1.447 -0.3061 -0.1026 -0.3647
  566SOL    HW1 1697   2.028   2.712   1.481 -0.8785  0.6052  0.7285
  566SOL    HW2 1698   2.070   2.828   1.352 -1.6974 -0.1544 -0.0929
  567SOL     OW 1699   2.394   0.110   2.219  0.2979  0.3162 -0.1138
  567SOL    HW1 1700   2.425   0.162   2.134  0.2997  1.8882  1.1899
  567SOL    HW2 1701   2.350   0.016   2.207 -0.7807  0.8380  1.0774
  568SOL     OW 1702   1.438   1.807   0.481  0.3465  0.0706 -0.1351
  568SOL    HW1 1703   1.381   1.873   0.427  3.7639 -0.1000  0.7539
  568SOL    HW2 1704   1.506   1.860   0.546  3.8274 -0.9534  2.5066
  569SOL     OW 1705   0.295   0.683   0.754  0.1447  0.1464 -0.1140
  569SOL    HW1 1706   0.352   0.653   0.680 -2.4679  0.3594  1.9806
  569SOL    HW2 1707   0.201   0.657   0.723  2.3168 -2.5342  1.5870
  570SOL     OW 1708   0.595   0.855   2.815  0.0204 -0.7090  0.5054
  570SOL    HW1 1709   0.661   0.829   2.742 -2.7001  0.1527 -0.5899
  570SOL    HW2 1710   0.607   0.951   2.858  1.0697 -1.0843  2.1793
  571SOL     OW 1711   0.835   3.083   1.178 -0.6069  0.2348 -0.3214
  571SOL    HW1 1712   0.857   3.153   1.104 -0.8067  0.6353 -0.1709
  571SOL    HW2 1713   0.916   3.020   1.193  1.5990  0.6303 -1.8524
  572SOL     OW 1714   1.477   2.575   1.183 -0.2957 -0.1114  0.0750
  572SOL    HW1 1715   1.432   2.490   1.212 -2.4648 -1.2550  1.9988
  572SOL    HW2 1716   1.427   2.629   1.113  0.4858  1.2962 -0.3738
  573SOL     OW 1717   2.939   0.490   2.070 -0.0731  0.1278 -0.0176
  573SOL    HW1 1718   2.900   0.412   2.127  2.4822 -0.1098  1.9174
  573SOL    HW2 1719   2.873   0.540   2.015  0.9804 -3.8106  1.5768
  574SOL     OW 1720   0.233   1.759   1.021 -0.3432  0.0218 -0.2766
  574SOL    HW1 1721   0.253   1.859   1.013  0.5432  2.3011 -0.1195
  574SOL    HW2 1722   0.148   1.745   1.078  1.2205 -0.2247  3.3150
  575SOL     OW 1723   0.945   2.215   1.025 -0.4930  0.6604 -0.3625
  575SOL    HW1 1724   0.951   2.168   1.117 -3.7202 -2.9007 -1.1272
  575SOL    HW2 1725   1.034   2.236   0.979 -0.2367 -0.7114  3.7263
  576SOL     OW 1726   2.881   2.922   1.744  0.3217  0.2469 -0.1100
  576SOL    HW1 1727   2.821   2.844   1.712  1.7978  1.7350 -0.0010
  576SOL    HW2 1728   2.825   3.008   1.772 -0.3908  0.1316 -0.4991
  577SOL     OW 1729   2.519   1.250   3.075 -0.1757 -0.3438 -0.1341
  577SOL    HW1 1730   2.498   1.160   3.033 -1.4198  0.7928 -0.3007
  577SOL    HW2 1731   2.595   1.248   3.152  0.6570  0.2289  4.5932
  578SOL     OW 1732   1.335   2.780   2.564  0.1238  0.1249 -0.2469
  578SOL    HW1 1733   1.263   2.770   2.488 -1.2197 -1.0347  2.5010
  578SOL    HW2 1734   1.360   2.884   2.581 -0.9599  2.3107  0.7726
  579SOL     OW 1735   0.129   2.579   0.127 -0.1573  0.1206  0.3818
  579SOL    HW1 1736   0.079   2.583   0.216  0.8273 -1.0662 -0.1896
  579SOL    HW2 1737   0.217   2.520   0.135 -0.0558  1.9523 -0.5032
  580SOL     OW 1738   0.932   2.692   0.399  0.3531  0.2168  0.2635
  580SOL    HW1 1739   1.024   2.707   0.361 -0.4365  3.3684  0.7023
  580SOL    HW2 1740   0.895   2.601   0.358  1.7144 -0.7757 -2.1938
  581SOL     OW 1741   1.227   2.515   1.446  0.9950  0.4812  0.5209
  581SOL    HW1 1742   1.252   2.430   1.394  0.4904  3.8391 -0.0530
  581SOL    HW2 1743   1.258   2.609   1.405  0.2041  0.3028  1.1086
  582SOL     OW 1744   1.524   0.062   1.862  0.2356  0.4950  0.2867
  582SOL    HW1 1745   1.522   0.154   1.912 -0.6011 -1.0327  1.0782
  582SOL    HW2 1746   1.613   0.047   1.800  1.8675 -1.7261 -5.0279
  583SOL     OW 1747   2.378   2.955   0.563  0.0525  0.3786  0.3115
  583SOL    HW1 1748   2.436   2.889   0.503  2.2152 -0.1633  1.0823
  583SOL    HW2 1749   2.351   2.916   0.657  0.6842 -0.1088  0.9650
  584SOL     OW 1750   1.531   0.966   2.073 -0.2675  0.2230  0.2936
  584SOL    HW1 1751   1.600   1.011   2.015 -0.0082 -0.8135 -0.7109
  584SOL    HW2 1752   1.568   0.934   2.163  0.0725 -2.8234 -0.3673
  585SOL     OW 1753   2.081   2.713   2.848  0.1864  0.0711  0.3297
  585SOL    HW1 1754   2.132   2.625   2.855 -0.3391 -3.4690 -1.4032
  585SOL    HW2 1755   1.983   2.703   2.888 -2.5759 -2.0571 -1.8282
  586SOL     OW 1756   2.786   0.278   1.568 -0.5700 -0.2506  0.0820
  586SOL    HW1 1757   2.782   0.376   1.605  0.7050 -2.4919  0.9949
  586SOL    HW2 1758   2.708   0.213   1.587  0.7716 -2.3335 -1.2164
  587SOL     OW 1759   2.031   1.613   2.735 -0.0376  0.1723  0.6174
  587SOL    HW1 1760   2.087   1.576   2.653 -1.4091  0.9565 -0.6030
  587SOL    HW2 1761   2.076   1.633   2.830 -1.1200 -2.1645 -1.5802
  588SOL     OW 1762   0.517   2.692   2.248  0.6049 -0.0509 -0.1940
  588SOL    HW1 1763   0.451   2.714   2.175 -0.9258 -1.6601 -0.0446
  588SOL    HW2 1764   0.474   2.632   2.321  1.1270  0.5632  0.1667
  589SOL     OW 1765   2.173   1.482   2.515  0.0919 -0.1136  0.2553
  589SOL    HW1 1766   2.094   1.431   2.468  0.3272 -0.4766  1.4410
  589SOL    HW2 1767   2.254   1.422   2.550  1.2938  0.3093 -0.2529
  590SOL     OW 1768   2.348   1.778   2.032  0.4625 -0.1552 -0.5178
  590SOL    HW1 1769   2.412   1.696   2.033  0.3224 -0.7927 -1.2685
  590SOL    HW2 1770   2.348   1.828   2.127  2.8586  1.6484  2.0331
  591SOL     OW 1771   1.308   2.477   0.344  0.0240 -0.4467  0.3507
  591SOL    HW1 1772   1.392   2.428   0.311  1.7258 -1.6927  0.6225
  591SOL    HW2 1773   1.287   2.447   0.443  1.1409 -1.3838  0.8725
  592SOL     OW 1774   1.700   2.320   0.776  0.2246  0.1111 -0.0078
  592SOL    HW1 1775   1.690   2.386   0.692 -1.4493 -1.0603 -3.4685
  592SOL    HW2 1776   1.795   2.312   0.806  0.9055  0.1070 -1.4670
  593SOL     OW 1777   0.520   0.263   2.990  0.0702 -0.3157  0.4749
  593SOL    HW1 1778   0.619   0.221   2.981  0.4488 -3.0290  0.9402
  593SOL    HW2 1779   0.528   0.341   3.060 -1.9800  0.4241 -2.0928
  594SOL     OW 1780   0.931   1.874   2.752 -0.3081  0.1667  0.1563
  594SOL    HW1 1781   1.007   1.878   2.821  1.1792  0.4463  1.4305
  594SOL    HW2 1782   0.896   1.969   2.738 -1.2820 -1.0715 -0.5528
  595SOL     OW 1783   1.553   3.069   1.029  0.4530  0.3547 -0.2902
  595SOL    HW1 1784   1.619   2.994   1.048 -0.2074 -1.5121 -0.4124
  595SOL    HW2 1785   1.502   3.055   0.937 -2.7702  1.0365  0.5847
  596SOL     OW 1786   3.075   1.478   2.228  0.3089 -0.1466 -0.0517
  596SOL    HW1 1787   3.009   1.551   2.245  3.0080 -3.6957 -1.8854
  596SOL    HW2 1788   3.118   1.428   2.310 -3.6372  0.8659 -0.6235
  597SOL     OW 1789   2.040   2.579   1.596  0.1832  0.0541 -0.1374
  597SOL    HW1 1790   2.098   2.508   1.542 -1.9920  1.1570 -0.1552
  597SOL    HW2 1791   2.088   2.605   1.688 -1.9259  0.7492  1.0064
  598SOL     OW 1792   2.606   2.856   1.228 -0.2514  0.1645 -0.0932
  598SOL    HW1 1793   2.648   2.928   1.290 -1.3721  0.3267  1.4688
  598SOL    HW2 1794   2.647   2.857   1.133 -1.7157  1.2278 -2.2330
  599SOL     OW 1795   2.939   0.347   2.421 -0.1734 -0.3402 -0.1236
  599SOL    HW1 1796   3.026   0.356   2.362 -1.0792 -1.5308 -1.0384
  599SOL    HW2 1797   2.856   0.401   2.387  0.5049  1.2611 -2.7629
  600SOL     OW 1798   2.790   1.084   2.757  0.6310  0.0803 -0.1412
  600SOL    HW1 1799   2.747   1.007   2.814  1.2902 -1.8440  0.1500
  600SOL    HW2 1800   2.795   1.172   2.811 -4.6060 -1.2670 -2.2336
  601SOL     OW 1801   2.952   1.302   2.042 -0.0839 -0.3071 -0.1126
  601SOL    HW1 1802   2.865   1.327   1.992 -3.7667  2.0787 -0.6357
  601SOL    HW2 1803   3.010   1.382   2.069 -1.3240  1.7705  0.3153
  602SOL     OW 1804   1.542   1.671   2.283 -0.1292  0.3152  0.2285
  602SOL    HW1 1805   1.482   1.591   2.300  1.6758  3.4064  0.9992
  602SOL    HW2 1806   1.634   1.638   2.311 -2.1901  1.7971  2.6546
  603SOL     OW 1807   0.717   1.243   2.604 -0.2086  0.1114  0.4450
  603SOL    HW1 1808   0.618   1.238   2.563  1.1040 -0.4130 -1.0897
  603SOL    HW2 1809   0.760   1.152   2.616 -1.0292  3.5503  1.1263
  604SOL     OW 1810   2.410   1.041   0.189  0.0259 -0.2576 -0.5503
  604SOL    HW1 1811   2.441   1.119   0.134 -1.0283  0.1244 -0.5055
  604SOL    HW2 1812   2.378   0.957   0.137  1.4818 -2.2737 -0.1263
  605SOL     OW 1813   2.601   1.118   1.976  0.2498  0.0703 -0.2057
  605SOL    HW1 1814   2.586   1.026   1.931 -1.9447  0.4088  0.5692
  605SOL    HW2 1815   2.614   1.104   2.081 -0.9377  0.6352  0.7968
  606SOL     OW 1816   1.482   2.529   2.557  0.3653 -0.2381  0.3660
  606SOL    HW1 1817   1.397   2.593   2.576  0.5650 -0.0954 -0.0434
  606SOL    HW2 1818   1.471   2.425   2.562  1.3911 -2.2715  2.8009
  607SOL     OW 1819   1.312   1.545   0.439  0.2262  0.0699  0.1122
  607SOL    HW1 1820   1.306   1.482   0.522  0.1116 -1.9340 -1.1551
  607SOL    HW2 1821   1.346   1.645   0.455  0.9538  1.9481 -1.7757
  608SOL     OW 1822   1.380   2.876   0.383  0.0594  0.0639  0.2315
  608SOL    HW1 1823   1.463   2.933   0.342  1.7627  0.0060  1.7722
  608SOL    HW2 1824   1.311   2.933   0.438 -1.1423  2.7452 -1.5404
  609SOL     OW 1825   1.327   1.331   0.203  0.0741 -0.0316  0.1642
  609SOL    HW1 1826   1.342   1.420   0.259 -1.7241 -0.7954  0.6349
  609SOL    HW2 1827   1.226   1.314   0.177  1.1190 -3.4232 -4.0162
  610SOL     OW 1828   3.008   1.099   2.278  0.3500 -0.9000  0.4120
  610SOL    HW1 1829   2.969   1.001   2.276  0.0853 -1.2107 -1.2921
  610SOL    HW2 1830   3.004   1.149   2.186  1.5770 -1.0928 -0.5132
  611SOL     OW 1831   2.559   0.312   1.234 -1.1000 -0.1798  0.3079
  611SOL    HW1 1832   2.531   0.215   1.213 -0.4606  0.9124  0.3533
  611SOL    HW2 1833   2.664   0.320   1.233  0.0370  1.9695  0.4871
  612SOL     OW 1834   0.756   2.179   1.257  0.1836 -0.2299 -0.2955
  612SOL    HW1 1835   0.673   2.111   1.270 -1.1170  0.3191  1.8444
  612SOL    HW2 1836   0.725   2.265   1.211  2.9092 -1.1107  0.0237
  613SOL     OW 1837   0.976   1.436   2.346  0.7022 -0.3862  0.1338
  613SOL    HW1 1838   1.011   1.471   2.259 -0.0474 -0.8364  1.8796
  613SOL    HW2 1839   0.910   1.356   2.332  0.8794  1.1331  4.3513
  614SOL     OW 1840   1.624   1.522   1.736  0.6718  0.0910  0.1045
  614SOL    HW1 1841   1.558   1.594   1.764  0.8499 -1.7251  0.5434
  614SOL    HW2 1842   1.709   1.528   1.796 -1.0926 -1.6619  1.9525
  615SOL     OW 1843   0.793   1.272   1.746 -0.1802  0.2873 -0.3433
  615SOL    HW1 1844   0.733   1.244   1.667  3.2901  1.3088  1.6842
  615SOL    HW2 1845   0.844   1.367   1.729 -1.2838  1.0593  1.1626
  616SOL     OW 1846   1.063   1.566   2.119 -0.6269 -0.0787  1.0546
  616SOL    HW1 1847   1.005   1.598   2.036 -1.0558  2.8704  0.3400
  616SOL    HW2 1848   1.122   1.644   2.149 -1.6474 -2.1897  1.3602
  617SOL     OW 1849   2.966   1.547   1.593 -0.6762 -0.0653  0.2135
  617SOL    HW1 1850   2.971   1.453   1.641  2.6771  1.2617  2.1097
  617SOL    HW2 1851   2.999   1.548   1.494 -0.6281  1.2845  0.5124
  618SOL     OW 1852   1.866   1.986   1.381  0.1780  0.8171 -0.5736
  618SOL    HW1 1853   1.875   2.056   1.309 -0.0498 -1.4265  1.3023
  618SOL    HW2 1854   1.875   1.890   1.338  1.3881 -0.0621 -1.0128
  619SOL     OW 1855   1.736   0.435   2.353  0.5572  0.8361  0.7297
  619SOL    HW1 1856   1.640   0.484   2.335 -0.7622  1.8371  0.8437
  619SOL    HW2 1857   1.726   0.332   2.338 -0.1331 -1.6910  0.4356
  620SOL     OW 1858   2.250   2.820   0.768  0.0779 -0.1082 -0.3248
  620SOL    HW1 1859   2.152   2.800   0.751 -0.3186  0.0320  1.0126
  620SOL    HW2 1860   2.294   2.758   0.841  0.6657  0.7392  1.5599
  621SOL     OW 1861   2.186   1.927   1.314 -0.2441  0.2510  0.9697
  621SOL    HW1 1862   2.167   1.944   1.415  0.7594  1.1855  0.5010
  621SOL    HW2 1863   2.161   1.829   1.288  0.7493  0.0702  1.4067
  622SOL     OW 1864   2.237   0.935   1.869  0.2134 -0.3160  0.0270
  622SOL    HW1 1865   2.324   0.911   1.821  0.7237  1.1291  2.1714
  622SOL    HW2 1866   2.224   0.861   1.946  2.6082 -1.5468  2.2177
  623SOL     OW 1867   1.271   0.845   2.518 -0.3207  0.1597 -0.5395
  623SOL    HW1 1868   1.209   0.769   2.555  0.8353  0.2818 -0.8050
  623SOL    HW2 1869   1.228   0.897   2.433 -0.5754 -0.7236  1.2032
  624SOL     OW 1870   0.487   0.656   3.004  0.2785  0.1918 -0.1724
  624SOL    HW1 1871   0.540   0.691   2.923  1.5689 -2.2217  0.7586
  624SOL    HW2 1872   0.504   0.717   3.089 -0.0488  0.3517  1.2056
  625SOL     OW 1873   2.735   1.715   1.004  0.0657  0.2542 -0.0046
  625SOL    HW1 1874   2.642   1.743   1.035 -0.3526  2.2651 -1.0994
  625SOL    HW2 1875   2.807   1.786   1.022  0.9547 -1.1218  0.7961
  626SOL     OW 1876   0.645   2.668   1.752 -0.1787  1.0271 -0.2897
  626SOL    HW1 1877   0.692   2.724   1.822 -0.0079 -0.1308  1.9340
  626SOL    HW2 1878   0.546   2.648   1.778 -2.3225 -1.0759  1.1527
  627SOL     OW 1879   0.652   0.829   1.726 -0.3044  0.1270 -0.5976
  627SOL    HW1 1880   0.587   0.762   1.682 -0.1958  0.9594  0.3930
  627SOL    HW2 1881   0.698   0.891   1.661 -1.0830 -1.3331  1.7424
  628SOL     OW 1882   2.364   0.076   0.746 -0.4398  0.6562  0.1391
  628SOL    HW1 1883   2.336   0.007   0.677  1.5402  2.4175 -0.5329
  628SOL    HW2 1884   2.292   0.095   0.820  0.6835  1.4257 -2.5901
  629SOL     OW 1885   1.870   0.928   1.973  0.3788 -0.1754  0.2692
  629SOL    HW1 1886   1.868   1.001   1.897 -1.2428  0.4253  0.6177
  629SOL    HW2 1887   1.889   0.958   2.072  1.9360  0.7016  0.8446
  630SOL     OW 1888   2.914   2.204   0.794  0.3842  0.0056 -0.0364
  630SOL    HW1 1889   2.856   2.294   0.801 -1.4556 -0.9616  1.9231
  630SOL    HW2 1890   2.853   2.121   0.798  1.6843 -0.1146  1.3564
  631SOL     OW 1891   3.033   0.103   2.029  0.1443 -0.0726 -0.4579
  631SOL    HW1 1892   3.107   0.165   2.068 -0.8854 -0.2134  0.3712
  631SOL    HW2 1893   3.061   0.048   1.951 -1.5848  0.8854  2.2643
  632SOL     OW 1894   2.494   2.577   0.605 -0.0572  0.1280 -0.7297
  632SOL    HW1 1895   2.537   2.650   0.670 -0.2141 -0.0136  0.0017
  632SOL    HW2 1896   2.418   2.612   0.550  0.2635  1.5229  2.6608
  633SOL     OW 1897   1.461   1.265   2.680  0.2741  0.1447 -0.3277
  633SOL    HW1 1898   1.430   1.334   2.757 -1.1234 -1.0117  0.4763
  633SOL    HW2 1899   1.381   1.245   2.618  0.9043  0.8114  0.3108
  634SOL     OW 1900   0.720   2.161   0.864  0.0145 -0.6215  0.1900
  634SOL    HW1 1901   0.633   2.147   0.921 -0.9589 -0.6245 -0.1870
  634SOL    HW2 1902   0.809   2.169   0.917  1.4519 -0.3571 -2.0677
  635SOL     OW 1903   3.031   2.434   3.101  0.1915 -0.1329 -0.0983
  635SOL    HW1 1904   2.958   2.482   3.045  0.8702 -1.1229 -0.8474
  635SOL    HW2 1905   3.108   2.499   3.125  0.1750  1.3721 -1.5644
  636SOL     OW 1906   2.378   2.695   2.056 -0.1780  0.7061 -0.0404
  636SOL    HW1 1907   2.364   2.791   2.090 -1.3008  0.8398 -0.1223
  636SOL    HW2 1908   2.296   2.643   2.090  1.7353  1.3383 -0.4113
  637SOL     OW 1909   2.678   0.619   1.951  0.0058 -0.1189 -0.0908
  637SOL    HW1 1910   2.613   0.645   1.878 -1.1958  0.2740  2.3965
  637SOL    HW2 1911   2.749   0.689   1.981  2.6686 -0.2159  0.2374
  638SOL     OW 1912   2.484   1.882   1.346  0.1834  0.3167 -0.0868
  638SOL    HW1 1913   2.387   1.916   1.355  0.4204  2.7703  1.2029
  638SOL    HW2 1914   2.508   1.794   1.397 -0.4722 -0.6960  0.4333
  639SOL     OW 1915   1.263   2.194   1.562 -0.2446  0.5742  0.5981
  639SOL    HW1 1916   1.340   2.243   1.608  1.8668  0.1342  1.6909
  639SOL    HW2 1917   1.175   2.221   1.603  2.1987 -1.9206  1.0737
  640SOL     OW 1918   0.178   1.234   1.530 -0.1812 -0.3980  0.5511
  640SOL    HW1 1919   0.172   1.281   1.622  2.2590 -1.2199 -0.6602
  640SOL    HW2 1920   0.250   1.155   1.525  0.5056  0.9110  1.3180
  641SOL     OW 1921   1.980   0.276   1.509  0.2369 -0.4635  0.2903
  641SOL    HW1 1922   1.897   0.309   1.566  0.4099  1.3154  1.6247
  641SOL    HW2 1923   2.048   0.241   1.572 -1.2871  0.3244 -0.3376
  642SOL     OW 1924   2.030   3.064   0.372 -0.1076 -0.0968 -1.0469
  642SOL    HW1 1925   2.124   3.090   0.401  0.7281 -0.6071  1.5705
  642SOL    HW2 1926   1.957   3.110   0.428 -1.6609 -0.1903  0.7531
  643SOL     OW 1927   2.933   1.932   2.088 -0.2856 -0.0297 -0.5947
  643SOL    HW1 1928   2.838   1.896   2.062 -0.0437  0.8245 -1.4340
  643SOL    HW2 1929   2.957   2.020   2.034  1.2318  0.8477  3.2528
  644SOL     OW 1930   2.277   2.423   1.289  0.2745 -0.3807 -0.3491
  644SOL    HW1 1931   2.341   2.380   1.220  1.1914 -1.5917  0.0213
  644SOL    HW2 1932   2.284   2.394   1.385 -1.5213 -1.7945 -1.5620
  645SOL     OW 1933   0.664   0.797   1.271  0.7065  0.3288  0.0481
  645SOL    HW1 1934   0.569   0.763   1.238  0.2386  1.1057 -2.2823
  645SOL    HW2 1935   0.718   0.848   1.200 -1.3431  1.1045 -0.4160
  646SOL     OW 1936   1.525   1.749   2.032  0.0746  0.2371  0.2501
  646SOL    HW1 1937   1.611   1.776   1.986  0.0627 -0.1980 -1.7714
  646SOL    HW2 1938   1.531   1.735   2.134 -1.9052  0.3034  0.1671
  647SOL     OW 1939   0.752   1.073   0.584  0.3631  0.0640  0.6766
  647SOL    HW1 1940   0.831   1.091   0.649 -0.1387  1.9052  1.4037
  647SOL    HW2 1941   0.681   1.006   0.624  1.0227 -1.8569  0.7908
  648SOL     OW 1942   0.158   0.235   0.374  0.6982  0.2789 -0.1576
  648SOL    HW1 1943   0.085   0.168   0.410  2.4559 -0.2535  1.3541
  648SOL    HW2 1944   0.139   0.287   0.284  0.4903 -1.4819  2.0672
  649SOL     OW 1945   3.009   0.262   0.940 -0.4169  0.3840 -0.1989
  649SOL    HW1 1946   3.073   0.300   0.867  0.3815 -0.9290 -1.8030
  649SOL    HW2 1947   3.048   0.272   1.038  0.5123 -0.4957 -0.1122
  650SOL     OW 1948   2.781   0.707   1.431  0.9835 -0.2027  0.2164
  650SOL    HW1 1949   2.683   0.701   1.452  0.5791  2.3686 -1.3364
  650SOL    HW2 1950   2.805   0.801   1.404  0.9183 -1.4284 -0.4464
  651SOL     OW 1951   0.871   1.521   1.695 -0.0206  0.3697  0.0706
  651SOL    HW1 1952   0.853   1.540   1.797  0.1457  0.6232  1.0177
  651SOL    HW2 1953   0.968   1.538   1.665 -0.4540 -1.5786  0.0929
  652SOL     OW 1954   2.312   2.561   2.516  0.8840 -0.4390 -0.1367
  652SOL    HW1 1955   2.219   2.534   2.557  0.6915  1.2555 -0.8429
  652SOL    HW2 1956   2.309   2.646   2.450  2.8176 -0.0089 -2.1157
  653SOL     OW 1957   2.686   1.238   0.183  0.3124  0.3917 -0.0916
  653SOL    HW1 1958   2.751   1.310   0.210  0.3353  0.3549  0.8214
  653SOL    HW2 1959   2.727   1.142   0.195 -0.2212 -1.1542 -0.3658
  654SOL     OW 1960   1.193   2.070   1.255  0.1883  0.6790  0.1391
  654SOL    HW1 1961   1.208   1.981   1.302 -1.1005  0.6974 -0.1104
  654SOL    HW2 1962   1.204   2.057   1.151 -1.1108 -0.9984 -3.3673
  655SOL     OW 1963   0.170   0.984   1.898  0.6814  0.1127  0.5242
  655SOL    HW1 1964   0.251   0.929   1.860  1.6462 -1.5547  2.1193
  655SOL    HW2 1965   0.186   1.084   1.875  2.0433  0.8707 -0.2938
  656SOL     OW 1966   2.553   2.535   2.633  0.1384  0.0353  0.1549
  656SOL    HW1 1967   2.646   2.534   2.582  0.5946  0.3297 -2.1459
  656SOL    HW2 1968   2.467   2.539   2.573 -1.4480 -0.7948  3.3008
  657SOL     OW 1969   3.008   1.023   1.953  0.0745  0.7254  0.0741
  657SOL    HW1 1970   2.988   1.120   1.976  2.4536  1.0189  0.4480
  657SOL    HW2 1971   3.110   1.000   1.935  1.1414 -0.4543  0.3222
  658SOL     OW 1972   1.678   0.161   2.336 -0.1735 -0.5155 -0.3279
  658SOL    HW1 1973   1.667   0.071   2.394 -0.7688  2.5214  0.7679
  658SOL    HW2 1974   1.710   0.141   2.237 -1.1301 -0.3220 -0.1620
  659SOL     OW 1975   1.430   0.685   2.809 -0.1390  0.1254  0.2410
  659SOL    HW1 1976   1.469   0.729   2.720 -1.0617 -0.2400 -0.4423
  659SOL    HW2 1977   1.328   0.698   2.814  3.2623  0.6194  0.9639
  660SOL     OW 1978   1.440   0.276   1.405 -0.0136 -0.0283 -0.2770
  660SOL    HW1 1979   1.489   0.320   1.486  1.2645 -2.0315  1.0594
  660SOL    HW2 1980   1.490   0.195   1.374  0.2445  2.7696 -1.3674
  661SOL     OW 1981   2.379   1.285   0.675  0.3080 -0.1049 -0.1398
  661SOL    HW1 1982   2.403   1.218   0.600  1.3814 -3.3566 -1.7400
  661SOL    HW2 1983   2.319   1.359   0.643  0.9308  0.1905  2.1574
  662SOL     OW 1984   1.472   0.386   1.674 -0.2018  0.0974 -0.1992
  662SOL    HW1 1985   1.417   0.328   1.737  0.9612  1.1674  1.1495
  662SOL    HW2 1986   1.450   0.491   1.693  0.8658  0.7242  1.5415
  663SOL     OW 1987   0.789   1.629   1.933  0.4087 -0.2910  0.1948
  663SOL    HW1 1988   0.789   1.707   1.995 -0.5257  1.1346 -0.6353
  663SOL    HW2 1989   0.715   1.556   1.950 -2.6928 -0.7353 -1.6099
  664SOL     OW 1990   1.618   2.067   1.437 -0.1471  0.5945 -0.6011
  664SOL    HW1 1991   1.532   2.011   1.441  0.7982 -1.3173 -1.0324
  664SOL    HW2 1992   1.705   2.011   1.419 -1.8034  1.5881  2.3982
  665SOL     OW 1993   2.255   0.669   2.017 -0.5468  0.3785 -0.5135
  665SOL    HW1 1994   2.246   0.566   2.026  1.7198 -1.6412 -1.4712
  665SOL    HW2 1995   2.341   0.696   2.067 -1.5236 -0.3286 -2.6412
  666SOL     OW 1996   0.452   2.245   0.384  0.2195 -0.1473 -0.3465
  666SOL    HW1 1997   0.498   2.340   0.392  1.5488  1.0188 -1.4230
  666SOL    HW2 1998   0.352   2.255   0.407  1.7278  0.9689  1.6851
  667SOL     OW 1999   2.041   0.196   1.087 -0.0234  0.5466  0.1040
  667SOL    HW1 2000   2.063   0.298   1.082  0.3686  0.4407  0.9390
  667SOL    HW2 2001   1.970   0.168   1.163 -2.0586 -1.0797 -1.6610
  668SOL     OW 2002   1.983   0.488   1.080 -0.1435  0.4607 -0.3909
  668SOL    HW1 2003   2.062   0.513   1.020 -0.2633 -2.4323  0.1121
  668SOL    HW2 2004   2.011   0.512   1.182 -0.0215 -0.6064  2.1783
  669SOL     OW 2005   3.056   2.135   1.022 -0.6423  0.1042 -0.1469
  669SOL    HW1 2006   3.001   2.180   0.943  1.7724  0.5415 -0.8474
  669SOL    HW2 2007   3.033   2.177   1.112 -2.5019 -0.6121 -0.8814
  670SOL     OW 2008   2.939   2.392   2.168  0.0691 -0.3391 -0.4354
  670SOL    HW1 2009   2.858   2.344   2.214  3.0128  0.0386  0.6056
  670SOL    HW2 2010   2.906   2.482   2.124  1.8321 -1.9352  0.3060
  671SOL     OW 2011   1.801   1.648   1.537 -0.9598 -0.1124 -0.1105
  671SOL    HW1 2012   1.782   1.667   1.437 -1.7125  0.2958  2.5085
  671SOL    HW2 2013   1.725   1.610   1.591  0.5647 -0.6247 -3.2521
  672SOL     OW 2014   0.487   0.719   2.581 -0.0156 -0.7506  0.5123
  672SOL    HW1 2015   0.410   0.692   2.514 -0.6703  0.8674 -1.2019
  672SOL    HW2 2016   0.471   0.808   2.627  0.2311  1.6086  2.7862
  673SOL     OW 2017   0.074   1.420   1.035  0.0191 -0.7886  0.8113
  673SOL    HW1 2018   0.082   1.495   1.105  0.1295  1.1645 -0.5329
  673SOL    HW2 2019   0.162   1.375   1.015 -1.4009  3.9313  0.4990
  674SOL     OW 2020   1.558   3.016   0.236 -0.1453 -0.2778  0.0468
  674SOL    HW1 2021   1.653   3.046   0.198  0.5990  0.9085  0.1440
  674SOL    HW2 2022   1.497   3.005   0.152  2.4697 -2.2184 -0.0512
  675SOL     OW 2023   1.640   0.851   2.307 -0.1827  0.1398  0.2058
  675SOL    HW1 2024   1.745   0.856   2.291  1.6140  0.3553  0.7187
  675SOL    HW2 2025   1.600   0.757   2.281 -0.1042  3.0143 -1.2324
  676SOL     OW 2026   2.556   1.557   2.008  0.4439 -0.1916 -0.0460
  676SOL    HW1 2027   2.504   1.517   1.934 -1.9557  0.0900  4.1786
  676SOL    HW2 2028   2.604   1.488   2.075  0.5573 -1.6398 -0.1391
  677SOL     OW 2029   1.852   0.707   0.882 -0.9499  0.4981  0.1052
  677SOL    HW1 2030   1.752   0.689   0.908  0.1361 -1.5187  1.5459
  677SOL    HW2 2031   1.917   0.644   0.934 -0.6566  1.2018 -0.5322
  678SOL     OW 2032   0.091   0.822   1.643 -0.6022  0.1426  0.0120
  678SOL    HW1 2033   0.170   0.866   1.695 -0.7727  0.4096  1.5187
  678SOL    HW2 2034   0.047   0.739   1.693 -1.4611 -0.2576 -0.5164
  679SOL     OW 2035   2.568   1.107   1.222  0.3778 -0.0915  0.1869
  679SOL    HW1 2036   2.472   1.147   1.222 -1.4061  0.7362  1.0270
  679SOL    HW2 2037   2.577   1.020   1.170 -0.9350  3.2613 -0.6014
  680SOL     OW 2038   2.820   0.527   1.678 -0.3222  0.5871  0.4542
  680SOL    HW1 2039   2.782   0.606   1.620 -0.4260  0.4101 -0.1682
  680SOL    HW2 2040   2.912   0.550   1.719  1.1472 -1.1795 -1.3884
  681SOL     OW 2041   3.009   0.061   1.566 -0.2351 -1.2570 -0.5799
  681SOL    HW1 2042   3.014   0.013   1.475  0.4658 -3.5871  2.0198
  681SOL    HW2 2043   2.915   0.113   1.578  0.0885 -1.4774  2.0582
  682SOL     OW 2044   0.614   0.085   1.284  0.7158 -0.5392 -0.4729
  682SOL    HW1 2045   0.568   0.012   1.342  0.9106 -0.5914  3.1258
  682SOL    HW2 2046   0.704   0.050   1.247 -0.7542 -2.3537 -1.2886
  683SOL     OW 2047   1.354   0.263   2.193 -0.4897  0.8285  0.2243
  683SOL    HW1 2048   1.355   0.288   2.292 -0.1811  1.2508 -0.4752
  683SOL    HW2 2049   1.444   0.284   2.144  3.7960 -0.1801  0.1856
  684SOL     OW 2050   1.378   2.163   0.580  0.2937 -0.3649  0.0698
  684SOL    HW1 2051   1.431   2.080   0.607 -0.7256  1.3512  0.2144
  684SOL    HW2 2052   1.295   2.137   0.521  0.6370 -2.1094  1.4484
  685SOL     OW 2053   2.252   2.079   1.975 -0.4791  0.0580 -0.2414
  685SOL    HW1 2054   2.343   2.029   1.964 -1.1913 -0.8138  1.5113
  685SOL    HW2 2055   2.240   2.117   2.073  1.7259 -0.4696  0.8766
  686SOL     OW 2056   1.542   1.852   2.902  0.5530  0.7388  0.1199
  686SOL    HW1 2057   1.569   1.798   2.988 -0.1933 -0.6287 -0.5873
  686SOL    HW2 2058   1.452   1.819   2.869  1.1220  1.3344 -0.5591
  687SOL     OW 2059   1.404   2.446   1.974 -0.3073  0.1371  0.0950
  687SOL    HW1 2060   1.407   2.347   1.949  1.0269  0.0934 -1.5297
  687SOL    HW2 2061   1.382   2.465   2.078 -0.0014  1.5147  0.9624
  688SOL     OW 2062   2.051   1.511   1.715 -0.2194 -0.2705  0.2068
  688SOL    HW1 2063   2.141   1.564   1.715  1.8109 -0.0619 -0.4339
  688SOL    HW2 2064   2.038   1.462   1.623  2.4464 -1.2494  0.2583
  689SOL     OW 2065   2.340   1.117   2.802  0.7322 -0.0487  0.0320
  689SOL    HW1 2066   2.267   1.043   2.810  2.1857 -0.0418  0.6714
  689SOL    HW2 2067   2.419   1.093   2.867 -0.7464  1.7945 -0.9888
  690SOL     OW 2068   2.221   2.770   0.032 -0.4025 -0.6547  0.1217
  690SOL    HW1 2069   2.192   2.767  -0.063  0.3341 -1.9700  2.1458
  690SOL    HW2 2070   2.186   2.682   0.077  0.6988  2.3254  0.8176
  691SOL     OW 2071   2.573   0.403   2.090 -0.3226 -0.1514 -0.1503
  691SOL    HW1 2072   2.622   0.311   2.091  0.0868 -1.9072  0.6719
  691SOL    HW2 2073   2.607   0.467   2.019 -1.3658 -1.1488 -0.2474
  692SOL     OW 2074   2.668   1.217   0.734  0.2850 -0.9951  0.2593
  692SOL    HW1 2075   2.610   1.244   0.655  0.1843 -0.9808  0.9166
  692SOL    HW2 2076   2.721   1.297   0.770  1.0536  0.8322  0.7481
  693SOL     OW 2077   2.890   2.907   0.658 -0.4231  0.4640 -0.0595
  693SOL    HW1 2078   2.917   2.992   0.717  0.4127  0.2532  0.9627
  693SOL    HW2 2079   2.894   2.926   0.554  0.0382 -0.7992 -2.2579
  694SOL     OW 2080   2.388   2.266   0.120 -0.0636 -0.7474 -0.1596
  694SOL    HW1 2081   2.391   2.347   0.184 -2.0205 -2.1717  2.7175
  694SOL    HW2 2082   2.287   2.237   0.096 -3.5469  0.9842 -0.8899
  695SOL     OW 2083   0.495   3.014   1.453 -0.3391  0.1219  0.0364
  695SOL    HW1 2084   0.431   2.955   1.398  0.3835  1.7055 -1.6400
  695SOL    HW2 2085   0.442   3.053   1.530  1.2085 -2.7430 -0.3245
  696SOL     OW 2086   2.749   1.985   0.769  0.2629 -0.0499  0.2681
  696SOL    HW1 2087   2.838   1.936   0.787  0.3882 -2.0729  1.7391
  696SOL    HW2 2088   2.692   1.940   0.694 -3.1531 -0.2610 -1.6919
  697SOL     OW 2089   1.705   1.845   1.847 -0.1979 -0.0846 -0.6253
  697SOL    HW1 2090   1.778   1.839   1.771  0.3046 -0.7255 -0.0499
  697SOL    HW2 2091   1.681   1.942   1.870  2.6736 -1.2127 -0.0713
  698SOL     OW 2092   2.908   0.393   2.685 -0.1205  0.1973 -0.5829
  698SOL    HW1 2093   2.930   0.379   2.585 -1.0082 -0.6135 -0.4296
  698SOL    HW2 2094   2.984   0.352   2.748  1.2599 -0.8771 -1.1407
  699SOL     OW 2095   1.657   0.110   2.925  0.0808 -0.5832  0.0009
  699SOL    HW1 2096   1.623   0.021   2.887  0.3570 -0.9115  0.1599
  699SOL    HW2 2097   1.732   0.157   2.869 -1.3888  2.7324  0.5477
  700SOL     OW 2098   1.005   2.276   1.353  0.6341  0.1085 -0.4583
  700SOL    HW1 2099   1.081   2.212   1.343 -2.0420 -0.9717 -0.7684
  700SOL    HW2 2100   0.910   2.231   1.330  2.7030 -4.6298 -0.5261
  701SOL     OW 2101   1.885   2.894   0.018  0.5997 -0.1861 -0.0097
  701SOL    HW1 2102   1.897   2.844   0.109 -0.0993  0.2941 -2.4988
  701SOL    HW2 2103   1.910   2.992   0.038  0.2243 -0.7728 -2.6852
  702SOL     OW 2104   2.109   1.376   1.950  0.0571 -0.0580  0.0716
  702SOL    HW1 2105   2.193   1.315   1.940  2.9143  1.0919 -0.0301
  702SOL    HW2 2106   2.089   1.429   1.863 -1.9766 -0.3049 -1.0086
  703SOL     OW 2107   1.991   0.928   1.450  0.1805 -0.2647  0.1328
  703SOL    HW1 2108   1.973   0.834   1.494 -1.0350 -1.0046  0.5501
  703SOL    HW2 2109   2.030   0.993   1.522 -0.0611 -0.5426  0.5150
  704SOL     OW 2110   0.331   2.075   1.725 -0.2528  0.0542  0.7680
  704SOL    HW1 2111   0.370   2.022   1.807  0.4990  1.3197 -0.4936
  704SOL    HW2 2112   0.397   2.142   1.685  0.0895  0.0914 -1.5893
  705SOL     OW 2113   2.481   1.409   0.915  0.0835  0.0879 -0.7043
  705SOL    HW1 2114   2.449   1.376   0.824  2.6750 -0.8989 -1.1085
  705SOL    HW2 2115   2.585   1.417   0.917 -0.4579 -1.6312  2.0306
  706SOL     OW 2116   0.545   1.727   1.786  0.6656  0.2025  0.1256
  706SOL    HW1 2117   0.604   1.736   1.706 -0.8937 -2.8441 -0.3540
  706SOL    HW2 2118   0.601   1.699   1.870 -0.4252 -1.0955 -1.8624
  707SOL     OW 2119   2.322   1.198   1.900  0.3030  0.5840  0.7234
  707SOL    HW1 2120   2.423   1.176   1.900  0.9485  2.3507  4.4752
  707SOL    HW2 2121   2.263   1.110   1.902 -0.3986 -1.1380  1.8802
  708SOL     OW 2122   3.037   0.523   2.997  0.1787 -0.6764  0.8272
  708SOL    HW1 2123   3.090   0.587   2.943  0.3865 -0.7170 -1.5462
  708SOL    HW2 2124   3.038   0.424   2.963 -2.2587 -1.9562 -0.7079
  709SOL     OW 2125   1.854   1.909   0.426  0.3238 -0.2918 -0.6188
  709SOL    HW1 2126   1.849   2.009   0.453  0.6430 -0.5569 -0.5459
  709SOL    HW2 2127   1.883   1.893   0.325  2.1967  0.0433  0.1088
  710SOL     OW 2128   1.755   1.541   2.447  0.2270 -0.2473  0.6348
  710SOL    HW1 2129   1.828   1.483   2.408  0.3242 -0.4684  1.7264
  710SOL    HW2 2130   1.735   1.522   2.551  0.9810 -1.5930  0.8096
  711SOL     OW 2131   2.703   2.857   0.972 -0.0390  0.3645 -0.2139
  711SOL    HW1 2132   2.645   2.939   0.945 -0.6057  1.4675 -1.8521
  711SOL    HW2 2133   2.803   2.879   0.977  2.0701 -0.5745 -0.4633
  712SOL     OW 2134   1.356   2.148   1.933  0.7871 -0.9646  0.4473
  712SOL    HW1 2135   1.458   2.117   1.918  2.8853 -2.7273  0.8001
  712SOL    HW2 2136   1.290   2.105   1.866 -0.7300  0.4073 -1.0512
  713SOL     OW 2137   2.786   1.445   2.537 -0.1338 -0.4949 -0.4728
  713SOL    HW1 2138   2.798   1.345   2.502 -0.8201 -0.7079  0.5762
  713SOL    HW2 2139   2.687   1.461   2.570  0.7564  2.8530  1.6424
  714SOL     OW 2140   2.668   0.450   2.351 -0.0021  0.7664  0.3235
  714SOL    HW1 2141   2.588   0.439   2.425  2.9227 -0.4623  2.4214
  714SOL    HW2 2142   2.642   0.415   2.256  2.1436  1.2583  0.8206
  715SOL     OW 2143   1.635   2.167   1.177 -0.2308 -0.3229 -0.0173
  715SOL    HW1 2144   1.551   2.209   1.127 -0.3656 -0.3646 -1.8433
  715SOL    HW2 2145   1.608   2.140   1.273  0.6089  0.6690 -1.3717
  716SOL     OW 2146   1.252   0.109   1.547  0.0191 -0.5656  0.7440
  716SOL    HW1 2147   1.155   0.144   1.520 -3.2759  0.0833 -0.4484
  716SOL    HW2 2148   1.323   0.171   1.498  0.5833  1.3113 -2.9683
  717SOL     OW 2149   1.170   0.587   1.626  0.1019 -0.2025  0.0034
  717SOL    HW1 2150   1.256   0.605   1.677 -0.4537 -1.4040  0.3054
  717SOL    HW2 2151   1.183   0.571   1.523 -2.4324  1.1023  1.1227
  718SOL     OW 2152   0.650   0.895   0.959 -0.0438  0.5859 -0.1303
  718SOL    HW1 2153   0.640   0.895   0.853  0.9548 -2.7319 -1.0905
  718SOL    HW2 2154   0.641   0.991   0.999 -2.8938  0.6598  0.1164
  719SOL     OW 2155   0.730   1.719   2.275 -0.4622 -0.6219 -0.0374
  719SOL    HW1 2156   0.793   1.754   2.347  1.2817  1.8681 -1.1279
  719SOL    HW2 2157   0.658   1.648   2.309 -0.3808 -0.3598  1.4588
  720SOL     OW 2158   2.157   1.182   0.286 -0.5434 -0.4929 -0.0072
  720SOL    HW1 2159   2.230   1.112   0.262 -0.7448 -2.0809  0.7541
  720SOL    HW2 2160   2.127   1.166   0.382 -1.2023 -1.7002  0.4605
  721SOL     OW 2161   2.238   2.926   2.140  0.6889  0.5267  0.3545
  721SOL    HW1 2162   2.248   2.983   2.059  0.2007  1.2679  1.3560
  721SOL    HW2 2163   2.136   2.918   2.159 -0.7354 -2.5798  0.0566
  722SOL     OW 2164   2.334   1.693   0.550  0.0276  0.3328 -0.5181
  722SOL    HW1 2165   2.394   1.665   0.467  1.6727 -0.6507 -1.3425
  722SOL    HW2 2166   2.245   1.742   0.521  1.3840 -0.0288 -0.8130
  723SOL     OW 2167   2.628   2.763   1.948  0.5011 -0.1719 -0.3771
  723SOL    HW1 2168   2.663   2.853   1.988  3.0427 -1.7441 -1.9707
  723SOL    HW2 2169   2.533   2.726   1.979  0.1774  0.4107  1.8381
  724SOL     OW 2170   0.381   2.526   2.412 -0.3496  0.1239 -0.0744
  724SOL    HW1 2171   0.277   2.516   2.392 -2.1685 -1.5332  0.3210
  724SOL    HW2 2172   0.410   2.475   2.495 -0.6726  0.9850 -1.3429
  725SOL     OW 2173   2.453   2.826   1.461  0.3312  0.1159 -0.7125
  725SOL    HW1 2174   2.483   2.837   1.369  1.2161 -0.3206  1.9592
  725SOL    HW2 2175   2.437   2.725   1.485  0.2906 -0.0177 -2.9084
  726SOL     OW 2176   2.488   2.335   0.729  0.3992  0.0684  0.1188
  726SOL    HW1 2177   2.488   2.426   0.678  1.3827 -0.2522  0.4455
  726SOL    HW2 2178   2.483   2.256   0.660 -0.2602 -1.0320 -3.8917
  727SOL     OW 2179   0.116   3.084   0.122 -0.0840 -0.2891 -0.2995
  727SOL    HW1 2180   0.199   3.144   0.088  0.0023 -1.5011  1.9906
  727SOL    HW2 2181   0.120   2.985   0.090  0.6369 -0.2507 -0.6291
  728SOL     OW 2182   2.928   0.741   0.953 -0.4853  0.0277  0.2048
  728SOL    HW1 2183   2.864   0.751   0.873 -0.6893 -1.2365 -0.0295
  728SOL    HW2 2184   2.892   0.692   1.038  0.1034  1.4408  2.7517
  729SOL     OW 2185   0.014   2.545   0.781  0.2514  0.6333  0.0360
  729SOL    HW1 2186   0.062   2.507   0.870 -1.9892 -0.9548  0.5999
  729SOL    HW2 2187   0.070   2.524   0.692  0.2835 -0.7273  0.0094
  730SOL     OW 2188   2.562   0.729   0.912  0.0141 -0.0735 -0.5478
  730SOL    HW1 2189   2.526   0.827   0.892 -0.2463  0.2115  0.5766
  730SOL    HW2 2190   2.617   0.692   0.830 -3.2518 -1.6330 -3.1908
  731SOL     OW 2191   3.085   2.238   2.349 -0.2970 -0.0240  0.2011
  731SOL    HW1 2192   3.013   2.206   2.411 -0.1192  1.1543 -1.4275
  731SOL    HW2 2193   3.049   2.322   2.298 -0.0113  0.4070  0.6557
  732SOL     OW 2194   1.330   2.749   1.981 -0.1698  0.3269 -0.1724
  732SOL    HW1 2195   1.321   2.666   2.040 -2.1383  0.2659  0.8069
  732SOL    HW2 2196   1.327   2.729   1.878 -0.2810 -2.1950 -0.4172
  733SOL     OW 2197   0.008   0.636   2.237  0.4704 -0.8478  0.4386
  733SOL    HW1 2198   0.084   0.679   2.179  0.2909  0.0244  1.2421
  733SOL    HW2 2199  -0.053   0.577   2.175 -0.7391  1.1133 -1.4213
  734SOL     OW 2200   1.498   0.388   2.710 -0.5232  0.1001 -0.1508
  734SOL    HW1 2201   1.491   0.465   2.781  1.2482 -1.4487  0.6367
  734SOL    HW2 2202   1.419   0.319   2.706 -0.5335  0.5256 -0.3432
  735SOL     OW 2203   2.898   2.652   2.326  1.2106 -0.6658 -0.4600
  735SOL    HW1 2204   2.864   2.644   2.225 -1.2329  0.4351  0.0116
  735SOL    HW2 2205   2.996   2.682   2.333  0.1261 -4.5220  0.7896
  736SOL     OW 2206   0.900   0.403   2.526  0.6163 -0.1363  0.3087
  736SOL    HW1 2207   0.806   0.442   2.550 -1.3549 -2.8666 -0.4321
  736SOL    HW2 2208   0.888   0.336   2.445 -1.4958 -1.4451 -0.0344
  737SOL     OW 2209   2.675   0.493   2.787 -0.2195 -0.1230 -0.2582
  737SOL    HW1 2210   2.649   0.455   2.878  1.9428  1.8448 -0.4616
  737SOL    HW2 2211   2.775   0.467   2.755 -0.8085  2.9171  0.6850
  738SOL     OW 2212   1.767   1.228   2.873  0.0087 -0.4667  0.9584
  738SOL    HW1 2213   1.873   1.227   2.856  0.7251 -1.4979 -2.3917
  738SOL    HW2 2214   1.721   1.137   2.857  0.2998 -0.5808  0.7577
  739SOL     OW 2215   1.845   0.712   0.619 -0.0911 -0.0861 -0.3295
  739SOL    HW1 2216   1.858   0.720   0.728  0.6512 -1.5332  1.1317
  739SOL    HW2 2217   1.840   0.616   0.595 -1.8245  1.8277 -0.8613
  740SOL     OW 2218   1.965   1.941   2.346 -0.5105  0.5234 -0.1385
  740SOL    HW1 2219   2.026   1.865   2.390  2.3532  0.8625  0.4625
  740SOL    HW2 2220   1.922   1.905   2.265 -0.4779  1.5490 -0.6837
  741SOL     OW 2221   2.543   0.111   2.456 -0.3020 -0.0960 -0.0715
  741SOL    HW1 2222   2.640   0.122   2.426 -0.4398  0.7771  1.1163
  741SOL    HW2 2223   2.476   0.129   2.379  1.0617  1.6100  0.5850
  742SOL     OW 2224   2.208   1.465   0.183  0.2204 -0.0920 -0.0504
  742SOL    HW1 2225   2.126   1.535   0.193 -0.1161  0.9459  0.7636
  742SOL    HW2 2226   2.184   1.366   0.202  0.7571 -1.2184 -1.4296
  743SOL     OW 2227   1.788   0.636   2.554  0.8421 -0.3724  0.0687
  743SOL    HW1 2228   1.781   0.543   2.509 -0.9563  1.5319 -0.8795
  743SOL    HW2 2229   1.699   0.662   2.597  0.2207 -0.1120 -3.2369
  744SOL     OW 2230   2.673   2.131   0.158 -0.6110 -0.1874 -0.9442
  744SOL    HW1 2231   2.604   2.163   0.229 -1.0281 -1.3406 -1.0947
  744SOL    HW2 2232   2.666   2.032   0.131 -2.4081  3.0877  0.7409
  745SOL     OW 2233   2.196   2.499   2.215 -0.8360 -0.1316 -0.1749
  745SOL    HW1 2234   2.107   2.518   2.170  1.0207 -0.9061  0.8069
  745SOL    HW2 2235   2.197   2.489   2.319 -1.5158  0.3303  1.3255
  746SOL     OW 2236   3.087   2.550   1.787  0.1247 -0.1250 -0.2982
  746SOL    HW1 2237   3.160   2.521   1.723  0.4826  1.5660 -0.0272
  746SOL    HW2 2238   3.111   2.631   1.850 -1.0640  1.6571 -1.2981
  747SOL     OW 2239   3.089   1.783   1.670  0.2335 -0.4938 -0.0946
  747SOL    HW1 2240   3.036   1.698   1.637 -3.9207  3.5903  3.6505
  747SOL    HW2 2241   3.161   1.820   1.603  2.6427 -0.3295  1.3286
  748SOL     OW 2242   1.820   2.695   2.943 -0.4325  0.7104  0.0990
  748SOL    HW1 2243   1.840   2.772   3.009 -3.0986 -2.4621  0.9852
  748SOL    HW2 2244   1.734   2.713   2.892  5.7108 -0.4588 -0.9227
  749SOL     OW 2245   1.277   2.906   0.813  0.4201  0.6021 -0.0312
  749SOL    HW1 2246   1.198   2.961   0.824 -1.0813 -1.2606  1.0387
  749SOL    HW2 2247   1.363   2.955   0.772 -0.0366  0.8483 -2.1974
  750SOL     OW 2248   2.275   0.226   1.863 -0.1265 -0.2368  0.5683
  750SOL    HW1 2249   2.321   0.271   1.778  0.7146  1.5014 -3.1490
  750SOL    HW2 2250   2.292   0.285   1.947 -1.4837 -1.3728  2.2422
  751SOL     OW 2251   0.813   2.137   2.916 -0.1452  0.6138 -0.1127
  751SOL    HW1 2252   0.892   2.140   2.987 -1.3391  1.2705  1.0765
  751SOL    HW2 2253   0.741   2.067   2.938 -0.3206  0.5738 -0.0692
  752SOL     OW 2254   1.360   0.797   1.136  0.1077  0.6807  0.1553
  752SOL    HW1 2255   1.413   0.882   1.167  0.3418  1.2153 -1.1489
  752SOL    HW2 2256   1.391   0.711   1.182  1.9833 -0.4374 -2.0156
  753SOL     OW 2257   1.004   2.584   1.815 -0.1653  0.6396 -0.4016
  753SOL    HW1 2258   1.104   2.599   1.803  3.4100  3.0719 -1.5884
  753SOL    HW2 2259   0.954   2.665   1.857 -2.3899  3.1182  2.2106
  754SOL     OW 2260   1.137   1.189   2.996  0.2073 -0.5090 -0.1334
  754SOL    HW1 2261   1.192   1.131   2.931  0.6991  1.3741  0.7054
  754SOL    HW2 2262   1.181   1.281   3.017  0.2629 -2.7851  2.7715
  755SOL     OW 2263   1.937   0.485   2.195  0.3061 -0.0865  0.1522
  755SOL    HW1 2264   2.019   0.418   2.223 -0.6115  0.0197  2.5075
  755SOL    HW2 2265   1.851   0.454   2.239  3.6292 -1.2305 -1.4883
  756SOL     OW 2266   2.504   0.982   2.968  0.1664 -0.0564  0.1740
  756SOL    HW1 2267   2.607   0.963   2.982 -0.5616  0.8355 -0.5837
  756SOL    HW2 2268   2.454   0.902   3.006 -0.9183  1.2578 -1.5384
  757SOL     OW 2269   0.127   0.421   1.963  0.0164  0.2945  0.1994
  757SOL    HW1 2270   0.160   0.327   1.970 -2.0948 -0.6358  0.9793
  757SOL    HW2 2271   0.024   0.435   1.986 -1.4391 -1.9120 -1.4720
  758SOL     OW 2272   2.314   0.076   1.422 -0.3074 -0.0562  0.6000
  758SOL    HW1 2273   2.293  -0.010   1.473  1.2273 -2.3593  0.7646
  758SOL    HW2 2274   2.296   0.077   1.319  0.0185  0.5310  0.0933
  759SOL     OW 2275   1.722   0.120   0.086 -0.1331 -0.0188 -0.0973
  759SOL    HW1 2276   1.681   0.142  -0.010 -2.7653  0.4446 -0.0425
  759SOL    HW2 2277   1.827   0.111   0.088 -1.1224 -0.5464  1.3788
  760SOL     OW 2278   2.718   2.069   2.833  0.1460 -0.9824  0.2619
  760SOL    HW1 2279   2.654   2.102   2.911  1.0103 -0.9791  0.7626
  760SOL    HW2 2280   2.800   2.131   2.830 -3.3758 -0.2078  0.4487
  761SOL     OW 2281   1.946   1.775   1.709 -0.2579  0.4724 -0.2390
  761SOL    HW1 2282   1.944   1.717   1.793 -0.6863 -0.1384 -0.7859
  761SOL    HW2 2283   1.910   1.730   1.621  2.0579 -1.4886  0.2402
  762SOL     OW 2284   0.509   2.393   0.936 -0.2364 -0.1167 -0.0590
  762SOL    HW1 2285   0.562   2.416   0.852  0.9067  2.5007  1.3263
  762SOL    HW2 2286   0.566   2.407   1.021  0.5428 -0.7655  1.5275
  763SOL     OW 2287   2.123   1.605   3.004 -0.2234 -0.1612  0.2491
  763SOL    HW1 2288   2.222   1.564   3.021  1.3662 -2.5121 -0.0578
  763SOL    HW2 2289   2.047   1.544   3.039  0.9937  2.5506  1.1095
  764SOL     OW 2290   0.669   0.577   0.628  0.3184  0.3312 -0.0677
  764SOL    HW1 2291   0.574   0.540   0.629  3.4372  0.6483 -0.2498
  764SOL    HW2 2292   0.722   0.545   0.716 -1.1918  0.8445 -1.2617
  765SOL     OW 2293   0.821   0.270   0.713 -0.3938  0.2745 -0.4750
  765SOL    HW1 2294   0.873   0.296   0.633  0.8735 -2.0457  0.0271
  765SOL    HW2 2295   0.818   0.353   0.786 -1.1978  1.3446 -0.5021
  766SOL     OW 2296   2.901   2.187   3.056  0.1000 -0.8704  0.0257
  766SOL    HW1 2297   2.810   2.204   3.106  1.3797  1.0979 -1.4348
  766SOL    HW2 2298   2.964   2.269   3.061 -0.0758  0.1062  1.9030
  767SOL     OW 2299   2.835   1.617   0.541 -0.2293 -0.0169  0.8492
  767SOL    HW1 2300   2.782   1.643   0.628 -1.9665  1.7613 -0.3573
  767SOL    HW2 2301   2.912   1.684   0.515  1.6676 -0.7895  0.5364
  768SOL     OW 2302   1.025   0.226   0.181  0.0683  0.1377 -0.1859
  768SOL    HW1 2303   1.013   0.248   0.283 -0.4668 -1.9331  0.5857
  768SOL    HW2 2304   1.105   0.160   0.167 -3.3777 -1.0727 -1.5751
  769SOL     OW 2305   1.125   1.806   2.288 -0.2076  0.1532  0.4706
  769SOL    HW1 2306   1.043   1.816   2.343  2.9598  0.5687  0.7517
  769SOL    HW2 2307   1.216   1.824   2.337  1.3767  1.8054 -0.3580
  770SOL     OW 2308   0.192   1.151   2.290 -0.5805 -0.0586  0.2337
  770SOL    HW1 2309   0.180   1.199   2.383  0.3796 -1.0559  2.3521
  770SOL    HW2 2310   0.099   1.143   2.248  0.0851  1.9305  2.9297
  771SOL     OW 2311   3.069   2.800   1.906 -0.2770 -0.0509  0.4148
  771SOL    HW1 2312   2.991   2.812   1.836  2.1306 -0.5552 -1.5354
  771SOL    HW2 2313   3.033   2.822   2.005 -0.8803  0.0990  0.5061
  772SOL     OW 2314   2.360   0.209   2.830  0.5016 -0.0733 -0.3389
  772SOL    HW1 2315   2.423   0.133   2.790 -1.3554 -0.0043  2.0531
  772SOL    HW2 2316   2.342   0.194   2.929  0.8269 -1.5140 -0.1681
  773SOL     OW 2317   0.575   2.097   2.415 -0.0014  0.0824 -0.3597
  773SOL    HW1 2318   0.580   2.199   2.385  2.2913  1.5679 -2.6602
  773SOL    HW2 2319   0.487   2.067   2.454 -3.0867  0.9627 -2.4602
  774SOL     OW 2320   2.095   0.010   2.632 -0.2041  0.1133 -0.6554
  774SOL    HW1 2321   2.117   0.109   2.666 -2.5652  1.1074  1.6014
  774SOL    HW2 2322   2.167  -0.063   2.648 -2.1013 -1.3673  3.7565
  775SOL     OW 2323   2.540   2.876   2.274  0.5778  0.2166 -0.2231
  775SOL    HW1 2324   2.458   2.902   2.326 -1.6336 -0.4646 -0.4616
  775SOL    HW2 2325   2.609   2.818   2.332  1.1089 -0.4627  0.2015
  776SOL     OW 2326   0.016   1.218   0.197 -0.2282 -0.1607  0.2325
  776SOL    HW1 2327  -0.041   1.177   0.120  3.2141  1.6180 -1.1744
  776SOL    HW2 2328  -0.037   1.225   0.288  0.1451  1.2952  2.1988
  777SOL     OW 2329   0.354   2.992   0.492 -0.6988 -0.3578 -0.2253
  777SOL    HW1 2330   0.251   2.968   0.467 -1.8252  1.6325  0.7113
  777SOL    HW2 2331   0.425   2.916   0.471 -0.3070  0.8762 -2.3400
  778SOL     OW 2332   1.365   1.994   0.285  0.7745 -0.3801  0.6310
  778SOL    HW1 2333   1.269   2.022   0.317 -2.0784 -0.4913 -0.1470
  778SOL    HW2 2334   1.375   2.019   0.182 -2.4898 -1.0456 -0.2434
  779SOL     OW 2335   0.150   0.819   0.480  0.2793  0.1436 -0.6411
  779SOL    HW1 2336   0.082   0.739   0.464 -0.9875 -1.2491  0.2502
  779SOL    HW2 2337   0.103   0.899   0.522  0.2344  1.5817 -1.1149
  780SOL     OW 2338   0.106   0.340   2.345 -0.2547 -0.2383  0.0353
  780SOL    HW1 2339   0.086   0.417   2.411 -0.5592 -0.8317 -1.0270
  780SOL    HW2 2340   0.203   0.346   2.304 -1.8700  0.7609 -1.7485
  781SOL     OW 2341   0.689   1.662   1.546 -0.2197  0.0360  0.1845
  781SOL    HW1 2342   0.761   1.601   1.595 -0.1842 -2.1453 -0.5935
  781SOL    HW2 2343   0.598   1.613   1.536  0.0770 -1.1050 -0.6941
  782SOL     OW 2344   2.605   3.093   0.902 -0.2001  0.1205  0.2084
  782SOL    HW1 2345   2.533   3.127   0.836 -2.7136 -0.3334  0.3116
  782SOL    HW2 2346   2.589   3.134   0.998  1.6931 -0.0792  2.5226
  783SOL     OW 2347   2.707   0.702   2.413  0.1097  0.0691  0.3325
  783SOL    HW1 2348   2.695   0.709   2.517 -2.2800  2.1015  0.4351
  783SOL    HW2 2349   2.709   0.603   2.383  2.5695 -0.4085 -0.7813
  784SOL     OW 2350   1.429   2.109   0.038 -0.1264 -0.1535 -0.6343
  784SOL    HW1 2351   1.504   2.161   0.088  1.8921  0.7525  0.4885
  784SOL    HW2 2352   1.414   2.141  -0.055 -1.0108 -2.7657  0.7438
  785SOL     OW 2353   2.107   0.283   0.016  0.1210 -0.5574 -0.4898
  785SOL    HW1 2354   2.044   0.315   0.090 -0.5813 -0.7913 -1.1706
  785SOL    HW2 2355   2.113   0.347  -0.069  0.3345  1.8017 -1.4029
  786SOL     OW 2356   2.038   2.189   2.283 -0.0446  0.0227 -0.3399
  786SOL    HW1 2357   2.007   2.099   2.320 -0.6455 -1.7501 -0.8461
  786SOL    HW2 2358   2.146   2.187   2.269  1.0540  0.8771  0.7059
  787SOL     OW 2359   1.426   0.528   0.895 -0.3851  0.0528 -0.2009
  787SOL    HW1 2360   1.344   0.590   0.916 -1.6787 -1.2066  0.3265
  787SOL    HW2 2361   1.447   0.513   0.789  1.3623 -0.4716 -1.8640
  788SOL     OW 2362   1.213   0.443   0.011 -0.5620  0.2580  0.4685
  788SOL    HW1 2363   1.120   0.422  -0.030 -0.0569  0.3331 -0.2776
  788SOL    HW2 2364   1.203   0.497   0.100  1.4064 -0.6128 -0.4859
  789SOL     OW 2365   2.574   0.121   1.959  0.0955  0.4140 -0.1641
  789SOL    HW1 2366   2.500   0.092   1.885 -3.0361  0.8126 -1.5997
  789SOL    HW2 2367   2.625   0.039   2.002  1.2326 -1.7862 -0.7230
  790SOL     OW 2368   2.623   2.808   0.713  0.6806 -0.6428 -0.0748
  790SOL    HW1 2369   2.684   2.875   0.670 -1.8082  0.4336  0.6611
  790SOL    HW2 2370   2.634   2.805   0.819  1.2213 -0.0876 -0.6418
  791SOL     OW 2371   1.925   1.194   0.112 -0.1036 -0.0409  0.0722
  791SOL    HW1 2372   1.839   1.147   0.148  2.8192 -0.5531  0.7311
  791SOL    HW2 2373   2.001   1.209   0.176 -2.6339 -0.4566 -3.6484
  792SOL     OW 2374   0.439   1.853   2.199 -0.3297 -0.8668 -0.3346
  792SOL    HW1 2375   0.491   1.935   2.238  0.6785  0.9101 -1.5191
  792SOL    HW2 2376   0.477   1.754   2.220 -0.4539 -2.1681 -0.0591
  793SOL     OW 2377   2.095   1.617   2.083 -0.0468 -0.2461 -0.3189
  793SOL    HW1 2378   2.170   1.668   2.037 -2.5119  0.6772  0.3479
  793SOL    HW2 2379   2.095   1.513   2.065 -0.5707  1.5711  0.4982
  794SOL     OW 2380   0.466   1.570   2.254  0.6228 -0.1862  0.1412
  794SOL    HW1 2381   0.481   1.492   2.187 -0.0253 -0.6728  0.1078
  794SOL    HW2 2382   0.383   1.558   2.315 -0.7520 -4.4339  0.2945
  795SOL     OW 2383   2.473   2.236   1.799  0.1547 -0.0443  0.1121
  795SOL    HW1 2384   2.484   2.213   1.900 -1.4484  1.5316 -1.7047
  795SOL    HW2 2385   2.402   2.186   1.749  2.4379  1.1098  0.6646
  796SOL     OW 2386   3.085   1.081   2.712 -0.0846  0.6555  0.1790
  796SOL    HW1 2387   2.994   1.037   2.731  0.3332  0.0927 -0.2257
  796SOL    HW2 2388   3.129   1.114   2.797 -1.9598 -0.9112  0.4595
  797SOL     OW 2389   0.810   0.651   1.464 -0.3207 -0.5651 -0.2045
  797SOL    HW1 2390   0.890   0.700   1.508  1.3255 -0.3262  0.0019
  797SOL    HW2 2391   0.765   0.714   1.395  0.8325  1.7989 -0.8897
  798SOL     OW 2392   1.357   0.469   1.184 -0.5343 -0.4900  0.4295
  798SOL    HW1 2393   1.416   0.442   1.268 -0.4166  0.1641 -0.6544
  798SOL    HW2 2394   1.409   0.483   1.094 -1.6619  0.6743  0.6624
  799SOL     OW 2395   1.943   2.640   1.055  0.2443  0.2402 -0.1934
  799SOL    HW1 2396   1.850   2.620   1.099 -1.4620  0.2342  0.1871
  799SOL    HW2 2397   1.932   2.698   0.972  0.4479 -0.9686  0.2555
  800SOL     OW 2398   3.073   0.628   1.806  0.3441  0.0968 -0.5485
  800SOL    HW1 2399   3.024   0.699   1.861 -0.2108  2.1789 -1.2641
  800SOL    HW2 2400   3.116   0.547   1.857 -1.3021 -0.9420  1.3445
  801SOL     OW 2401   1.894   2.175   0.188  0.0756 -0.7105 -0.5142
  801SOL    HW1 2402   1.829   2.160   0.111 -0.4213  0.9242  1.3197
  801SOL    HW2 2403   1.989   2.127   0.174  1.0559 -1.3244  1.1284
  802SOL     OW 2404   0.729   0.812   2.572  0.0341 -0.2761  0.4828
  802SOL    HW1 2405   0.783   0.769   2.492  0.8367  0.4535 -0.6908
  802SOL    HW2 2406   0.634   0.774   2.566  2.8770  1.7769 -1.1633
  803SOL     OW 2407   0.908   0.160   0.977  0.0530 -0.5617  0.1998
  803SOL    HW1 2408   0.982   0.231   1.000  1.0872  0.2345  0.7562
  803SOL    HW2 2409   0.863   0.185   0.886 -0.3887  1.5730 -1.6096
  804SOL     OW 2410   0.408   3.045   2.078  0.5811 -0.6889 -0.0061
  804SOL    HW1 2411   0.336   3.103   2.034 -1.0354 -0.2773 -0.0329
  804SOL    HW2 2412   0.388   2.944   2.071 -0.2867 -1.6993  1.3632
  805SOL     OW 2413   2.457   0.316   0.303  0.1664  0.0885 -0.1012
  805SOL    HW1 2414   2.555   0.328   0.333 -2.5551  0.3157  0.6012
  805SOL    HW2 2415   2.429   0.284   0.210  0.0962 -0.2614 -0.3174
  806SOL     OW 2416   0.707   2.404   1.673 -0.3885 -0.6995 -0.0883
  806SOL    HW1 2417   0.698   2.508   1.695 -0.5043 -0.1732 -1.6156
  806SOL    HW2 2418   0.801   2.383   1.631 -0.6244 -0.2082 -0.6179
  807SOL     OW 2419   2.515   0.956   0.442  0.5727 -0.0249 -0.2586
  807SOL    HW1 2420   2.600   0.901   0.453 -0.4356  0.0274  2.5557
  807SOL    HW2 2421   2.495   0.956   0.340  2.8694 -1.7229  0.3597
  808SOL     OW 2422   0.563   1.989   2.977 -0.5204  0.2866 -0.1364
  808SOL    HW1 2423   0.554   2.004   3.078 -1.7889 -0.3977 -3.0206
  808SOL    HW2 2424   0.546   1.888   2.947 -0.4742  0.8281 -1.8169
  809SOL     OW 2425   2.689   1.992   1.913 -0.0975 -0.1167 -0.1877
  809SOL    HW1 2426   2.785   2.033   1.906  0.7752 -0.4071 -1.0449
  809SOL    HW2 2427   2.655   1.956   1.819  0.6085 -0.6564 -0.8891
  810SOL     OW 2428   2.103   1.128   0.545  0.0863 -0.2561  0.1204
  810SOL    HW1 2429   2.115   1.056   0.612 -1.3575 -1.9473  0.0584
  810SOL    HW2 2430   2.058   1.211   0.585 -2.5905  0.0438  1.5384
  811SOL     OW 2431   1.316   2.339   1.218 -0.3985  0.8663  0.0682
  811SOL    HW1 2432   1.308   2.235   1.229 -2.4734 -0.3509 -0.1391
  811SOL    HW2 2433   1.256   2.371   1.140 -1.6453 -1.0035 -1.3380
  812SOL     OW 2434   1.369   0.759   1.977  0.1283  0.3647 -0.2268
  812SOL    HW1 2435   1.440   0.822   2.016  2.5380 -1.1570  0.6555
  812SOL    HW2 2436   1.276   0.807   1.968 -1.2621 -1.2054 -1.1101
  813SOL     OW 2437   1.705   2.022   2.488  1.0059 -0.0644  0.2378
  813SOL    HW1 2438   1.797   2.000   2.515 -3.0292 -0.3558 -2.2451
  813SOL    HW2 2439   1.697   2.039   2.386 -2.5451 -0.2103 -1.2206
  814SOL     OW 2440   2.883   1.576   2.898  0.4844  0.2121 -0.2795
  814SOL    HW1 2441   2.972   1.603   2.945 -0.9412 -1.3060 -0.2080
  814SOL    HW2 2442   2.841   1.651   2.835 -1.3096  1.8288  0.8482
  815SOL     OW 2443   2.268   2.884   2.699 -0.4461 -0.2396  0.1924
  815SOL    HW1 2444   2.221   2.826   2.770 -0.2809 -1.9284  1.7239
  815SOL    HW2 2445   2.367   2.858   2.686 -1.0169  1.9648  0.8987
  816SOL     OW 2446   1.748   0.332   1.666  0.3902  0.4750  0.4481
  816SOL    HW1 2447   1.649   0.367   1.677  0.9064  0.7637  2.0733
  816SOL    HW2 2448   1.781   0.297   1.754 -2.1122 -3.5260 -2.1052
  817SOL     OW 2449   0.476   1.234   2.473 -0.0326  0.2633 -0.0595
  817SOL    HW1 2450   0.414   1.317   2.458  0.5072  2.0400 -0.1204
  817SOL    HW2 2451   0.501   1.197   2.382 -2.1557 -1.0983  1.3256
  818SOL     OW 2452   2.016   0.848   0.438  0.1762  0.4166 -0.3190
  818SOL    HW1 2453   1.997   0.945   0.406 -0.3959 -1.4647  1.2067
  818SOL    HW2 2454   1.949   0.813   0.508  0.3308  1.8173 -0.6559
  819SOL     OW 2455   2.745   2.958   3.061 -0.1569 -0.6879 -0.3732
  819SOL    HW1 2456   2.837   2.925   3.037 -1.3685 -0.1362  1.8841
  819SOL    HW2 2457   2.674   2.931   2.988 -1.7833 -0.0533 -1.2945
  820SOL     OW 2458   1.204   1.098   0.545  0.0529  0.3666 -0.3238
  820SOL    HW1 2459   1.257   1.181   0.583  2.0290  1.3303 -0.4510
  820SOL    HW2 2460   1.190   1.018   0.606  0.4407 -0.9947 -1.7530
  821SOL     OW 2461   3.075   1.283   0.661 -0.0170 -0.0828  0.1305
  821SOL    HW1 2462   3.037   1.272   0.761  0.4601 -2.0910  1.8912
  821SOL    HW2 2463   3.142   1.360   0.646  3.4417  0.6523  1.1374
  822SOL     OW 2464   2.564   1.766   2.458 -0.1553 -0.2193 -0.4092
  822SOL    HW1 2465   2.587   1.850   2.513  1.8089 -1.6686  0.5267
  822SOL    HW2 2466   2.488   1.786   2.391 -2.9049 -0.1526 -0.6419
  823SOL     OW 2467   2.045   0.892   1.183  0.4741 -0.3046  0.3565
  823SOL    HW1 2468   2.011   0.901   1.281 -0.5795  1.3365 -0.3848
  823SOL    HW2 2469   1.967   0.891   1.117  0.9919 -0.7697  1.4947
  824SOL     OW 2470   0.192   2.045   2.713  0.0065 -0.4053 -0.2693
  824SOL    HW1 2471   0.144   1.984   2.785  0.1022  0.1838  1.9768
  824SOL    HW2 2472   0.220   1.982   2.631  0.9086 -1.4740 -1.0693
  825SOL     OW 2473   1.246   1.042   0.266 -0.1612 -0.1429  0.1943
  825SOL    HW1 2474   1.251   1.046   0.369 -2.5410 -1.2010  0.3125
  825SOL    HW2 2475   1.259   1.142   0.234  1.1575  1.1118 -1.1710
  826SOL     OW 2476   1.917   0.670   1.552  0.1085 -0.5724 -0.0792
  826SOL    HW1 2477   1.970   0.604   1.608 -0.4989  1.0856 -1.8292
  826SOL    HW2 2478   1.834   0.626   1.509  0.9853 -0.5018  3.2533
  827SOL     OW 2479   0.772   1.407   0.239  0.0010 -0.3979 -0.2546
  827SOL    HW1 2480   0.769   1.331   0.173 -0.1434  1.5794 -0.5214
  827SOL    HW2 2481   0.725   1.376   0.329 -4.1949 -0.8995 -1.5380
  828SOL     OW 2482   2.578   0.065   1.590 -0.5462  0.5716  0.0786
  828SOL    HW1 2483   2.493   0.100   1.539  1.1102 -0.5495 -0.7449
  828SOL    HW2 2484   2.569  -0.016   1.657  0.3853  0.6361 -2.5645
  829SOL     OW 2485   2.775   2.491   3.027  0.9458  0.3538  0.5316
  829SOL    HW1 2486   2.702   2.417   3.030  0.8893 -0.2057 -0.0067
  829SOL    HW2 2487   2.779   2.561   3.102  0.9716  0.9436 -2.4184
  830SOL     OW 2488   2.775   0.923   3.000  0.0636 -0.2731  0.7065
  830SOL    HW1 2489   2.849   0.991   2.983 -2.0814  0.5916  0.6012
  830SOL    HW2 2490   2.809   0.839   3.051 -1.2148  1.4155 -0.3569
  831SOL     OW 2491   3.076   0.584   0.381 -0.0105  0.2861 -0.3389
  831SOL    HW1 2492   3.021   0.528   0.443 -1.1483  2.7217  0.6379
  831SOL    HW2 2493   3.140   0.528   0.318 -0.1114 -2.0887 -0.3579
  832SOL     OW 2494   1.800   0.755   3.055 -0.2458  0.1159  0.2607
  832SOL    HW1 2495   1.714   0.813   3.046  2.1482  1.1578 -0.1117
  832SOL    HW2 2496   1.790   0.665   3.007 -0.2100  0.5649 -0.1624
  833SOL     OW 2497   2.445   2.124   0.537  0.2617  0.2595 -0.7383
  833SOL    HW1 2498   2.358   2.095   0.485  1.2766 -1.8804 -0.2584
  833SOL    HW2 2499   2.506   2.037   0.550  1.7730  0.0231 -1.1208
  834SOL     OW 2500   0.067   0.232   0.663  0.6506  0.1332 -0.4005
  834SOL    HW1 2501   0.114   0.175   0.733 -2.7070  0.5433 -1.3345
  834SOL    HW2 2502   0.121   0.247   0.571 -1.3687  0.6966 -2.8183
  835SOL     OW 2503   2.432   1.481   1.189  0.1306  0.7835  0.2746
  835SOL    HW1 2504   2.528   1.512   1.199 -0.7873  0.9441  1.5686
  835SOL    HW2 2505   2.397   1.456   1.092 -0.7918  1.4969 -0.8653
  836SOL     OW 2506   1.526   0.862   2.596 -0.0566 -0.0956  0.1651
  836SOL    HW1 2507   1.431   0.850   2.556  0.1251 -0.5276  2.3439
  836SOL    HW2 2508   1.598   0.860   2.523 -1.8104  0.1396  0.1338
  837SOL     OW 2509   1.530   0.040   0.490  0.3510 -0.8991  0.2819
  837SOL    HW1 2510   1.488   0.127   0.526 -1.8476  0.5093  0.4585
  837SOL    HW2 2511   1.528   0.033   0.386 -1.3753  1.9027  0.3031
  838SOL     OW 2512   1.307   1.600   2.682 -0.1834 -0.1648  0.0277
  838SOL    HW1 2513   1.368   1.548   2.748 -2.2551 -0.6756 -0.2612
  838SOL    HW2 2514   1.224   1.552   2.644 -0.5359 -0.1920  0.3521
  839SOL     OW 2515   1.600   0.249   0.981 -0.0716 -0.4198 -0.3563
  839SOL    HW1 2516   1.638   0.310   1.057  0.5029  0.4445 -1.5466
  839SOL    HW2 2517   1.610   0.142   0.999  0.4493 -1.5299  2.7555
  840SOL     OW 2518   2.553   2.929   1.732 -0.1768  0.6814 -0.0327
  840SOL    HW1 2519   2.506   2.882   1.656 -1.5938  0.0109  0.2676
  840SOL    HW2 2520   2.568   2.854   1.806  0.4372  1.0137  3.6948
  841SOL     OW 2521   1.595   0.921   3.040  0.0696 -0.3711  0.6227
  841SOL    HW1 2522   1.500   0.921   3.088  0.8597 -0.4603 -2.0732
  841SOL    HW2 2523   1.590   0.977   2.950  1.3985  1.7255 -2.1604
  842SOL     OW 2524   0.822   1.525   0.868  0.1739  0.1595 -0.3379
  842SOL    HW1 2525   0.778   1.595   0.927 -0.2731 -0.5290 -0.2123
  842SOL    HW2 2526   0.772   1.436   0.858 -1.5611 -0.2658 -0.9842
  843SOL     OW 2527   0.175   3.063   1.388  0.8770 -0.2720 -0.0325
  843SOL    HW1 2528   0.190   3.152   1.446 -0.5190 -0.4120 -1.0637
  843SOL    HW2 2529   0.153   2.977   1.442 -0.6297  0.1106 -2.1053
  844SOL     OW 2530   0.798   2.466   0.245 -0.0898  0.4424  0.0135
  844SOL    HW1 2531   0.736   2.437   0.321  1.6630 -0.2203  0.5928
  844SOL    HW2 2532   0.780   2.565   0.219 -1.0801  0.6667  2.9884
  845SOL     OW 2533   1.655   2.828   1.260  0.1717  0.1438 -0.6402
  845SOL    HW1 2534   1.599   2.744   1.247 -1.8290 -1.7617 -0.0036
  845SOL    HW2 2535   1.634   2.864   1.356  1.1944  0.2994  1.2563
  846SOL     OW 2536   1.526   3.009   0.740  0.2587 -0.2971 -0.0703
  846SOL    HW1 2537   1.513   3.069   0.655  1.1363 -1.6050 -1.3848
  846SOL    HW2 2538   1.625   2.993   0.773 -0.3635 -0.9074  1.0205
  847SOL     OW 2539   2.081   1.763   0.462 -0.4325 -0.5105  0.5874
  847SOL    HW1 2540   2.075   1.670   0.493  3.3864  2.0817 -2.3672
  847SOL    HW2 2541   1.987   1.814   0.466  1.8149 -3.1003 -0.4351
  848SOL     OW 2542   2.418   0.890   2.645 -0.5436 -0.0085  0.6778
  848SOL    HW1 2543   2.414   0.951   2.729 -0.5675  0.7087 -0.3260
  848SOL    HW2 2544   2.342   0.821   2.637  0.3872  0.8066 -1.0033
  849SOL     OW 2545   2.517   0.894   2.391 -0.0162  0.3154 -0.2562
  849SOL    HW1 2546   2.595   0.830   2.411  0.7992 -0.5144  0.1520
  849SOL    HW2 2547   2.458   0.915   2.479  1.5845 -0.9457  2.5410
  850SOL     OW 2548   1.572   0.076   1.319  0.3291  0.4701 -1.0612
  850SOL    HW1 2549   1.589   0.027   1.229  0.2270  0.0126 -0.1317
  850SOL    HW2 2550   1.533   0.022   1.402  0.0918 -2.4056 -0.5243
  851SOL     OW 2551   0.580   1.713   0.700 -0.4820  0.2548 -0.1706
  851SOL    HW1 2552   0.658   1.763   0.745  1.0811  1.0279  0.8100
  851SOL    HW2 2553   0.580   1.721   0.597 -1.5975  0.7376 -4.2093
  852SOL     OW 2554   0.863   2.100   1.665  0.3473  0.2221  0.4541
  852SOL    HW1 2555   0.881   2.193   1.626  2.2090 -1.8237 -0.6912
  852SOL    HW2 2556   0.785   2.106   1.735  1.4288  2.0347  0.2259
  853SOL     OW 2557   2.539   1.526   2.626 -0.0949  0.0788 -0.1651
  853SOL    HW1 2558   2.443   1.493   2.609 -0.4566  1.0183 -0.5224
  853SOL    HW2 2559   2.555   1.616   2.580  0.3701 -1.3469 -1.1642
  854SOL     OW 2560   2.414   1.428   1.787  0.6266  0.1881 -0.0907
  854SOL    HW1 2561   2.475   1.390   1.712 -0.9477 -0.8691  0.9011
  854SOL    HW2 2562   2.374   1.355   1.845 -0.2424  0.6008  0.1206
  855SOL     OW 2563   2.068   2.386   1.117  0.0845  0.0814 -0.2981
  855SOL    HW1 2564   2.010   2.462   1.078  1.8450  2.0483 -1.9670
  855SOL    HW2 2565   2.142   2.422   1.182  1.4679 -0.3158 -0.0298
  856SOL     OW 2566   1.329   1.434   0.907  0.4584  0.3454 -0.3794
  856SOL    HW1 2567   1.392   1.503   0.950  0.0060 -2.9134 -0.4360
  856SOL    HW2 2568   1.226   1.455   0.925  0.1342  0.6564 -0.6967
  857SOL     OW 2569   0.006   2.733   1.089 -0.3323 -0.0151  0.3092
  857SOL    HW1 2570   0.040   2.721   0.994 -0.6094  1.4843  1.2895
  857SOL    HW2 2571   0.060   2.673   1.159  0.8547 -0.0324  1.8488
  858SOL     OW 2572   2.391   2.032   1.590  0.0695  0.1612 -0.9266
  858SOL    HW1 2573   2.301   1.975   1.602 -3.7314 -0.9612  3.1308
  858SOL    HW2 2574   2.476   1.987   1.626 -1.2636 -0.4590  2.1522
  859SOL     OW 2575   2.457   0.550   1.091  0.1538 -0.5055  0.0801
  859SOL    HW1 2576   2.489   0.614   1.010  0.3084 -1.0576 -0.7459
  859SOL    HW2 2577   2.513   0.461   1.094  0.0187  0.5735 -1.8805
  860SOL     OW 2578   1.900   2.833   0.502  0.3472  0.0134  0.3973
  860SOL    HW1 2579   1.902   2.772   0.421 -0.3413  1.3432 -0.2528
  860SOL    HW2 2580   1.933   2.930   0.469 -0.1688  1.0882 -1.5596
  861SOL     OW 2581   1.031   2.498   2.862 -0.4275  0.0321 -0.4978
  861SOL    HW1 2582   1.107   2.563   2.832  0.3208  1.3158  0.0508
  861SOL    HW2 2583   0.991   2.519   2.955  0.6040  0.0437  2.0906
  862SOL     OW 2584   2.825   2.538   1.689 -0.0812 -0.0123  0.0004
  862SOL    HW1 2585   2.916   2.537   1.747 -0.3418  2.3714  1.3387
  862SOL    HW2 2586   2.810   2.614   1.620 -1.9974 -0.7782  1.5827
  863SOL     OW 2587   1.827   2.724   0.232 -0.1818 -0.2077  0.3699
  863SOL    HW1 2588   1.854   2.628   0.214 -0.0206 -2.3810  1.5009
  863SOL    HW2 2589   1.726   2.743   0.216  0.1922 -1.4087  2.0266
  864SOL     OW 2590   2.032   1.225   2.805 -0.2954  0.3858  0.1269
  864SOL    HW1 2591   2.024   1.191   2.707  0.3417  1.7193 -1.3246
  864SOL    HW2 2592   2.093   1.304   2.808 -2.4433  1.1087 -1.3110
  865SOL     OW 2593   2.124   1.957   0.725  0.6098 -0.3611  0.9813
  865SOL    HW1 2594   2.212   1.917   0.758 -0.4119 -0.1749 -0.9676
  865SOL    HW2 2595   2.046   1.949   0.794 -1.5389  0.9723 -0.9429
  866SOL     OW 2596   2.954   2.948   1.066 -0.4111  0.0862 -0.5268
  866SOL    HW1 2597   2.978   3.020   0.989 -0.6441  3.3683 -1.1524
  866SOL    HW2 2598   3.018   2.869   1.075 -1.1528  1.0882 -1.4794
  867SOL     OW 2599   0.312   1.378   0.865 -0.0413  0.4430 -0.1914
  867SOL    HW1 2600   0.342   1.316   0.788 -0.5078  1.5612  0.5941
  867SOL    HW2 2601   0.305   1.477   0.837 -1.3815 -1.2091  0.7899
  868SOL     OW 2602   0.798   1.873   2.051  0.4526 -0.7164 -0.4719
  868SOL    HW1 2603   0.775   1.866   2.151  1.5857  0.5268 -1.7986
  868SOL    HW2 2604   0.742   1.944   2.005 -2.3787  1.3792  0.6054
  869SOL     OW 2605   2.615   1.903   1.653 -0.1582 -0.0524  0.0315
  869SOL    HW1 2606   2.668   1.985   1.607 -1.4997  0.4957  0.7986
  869SOL    HW2 2607   2.612   1.815   1.603  3.5448  1.2600  1.3414
  870SOL     OW 2608   2.388   2.706   1.138 -0.0761  0.1446 -0.0393
  870SOL    HW1 2609   2.386   2.620   1.199  4.1403  0.1636  2.0127
  870SOL    HW2 2610   2.477   2.750   1.151  2.1905 -0.1619  0.3524
  871SOL     OW 2611   3.066   2.267   0.536 -0.6727 -0.0278 -0.1477
  871SOL    HW1 2612   2.993   2.270   0.610 -0.5065  2.3014 -1.3044
  871SOL    HW2 2613   3.029   2.302   0.446 -2.0688 -4.4821  1.4463
  872SOL     OW 2614   2.087   0.467   1.708  0.3248 -0.3025 -0.1916
  872SOL    HW1 2615   2.037   0.498   1.797 -0.3119  1.1752  1.0329
  872SOL    HW2 2616   2.189   0.458   1.702 -0.8788 -0.9854  0.7313
  873SOL     OW 2617   1.710   2.090   3.071  0.1020 -0.0890  0.4195
  873SOL    HW1 2618   1.619   2.048   3.053  0.6831  0.5555  0.6171
  873SOL    HW2 2619   1.741   2.163   2.999  0.3421  1.4123  0.8986
  874SOL     OW 2620   0.678   2.483   0.709  0.0346 -0.2893  0.2907
  874SOL    HW1 2621   0.657   2.571   0.768  0.8373  0.9531 -0.3669
  874SOL    HW2 2622   0.772   2.448   0.716  0.3679  0.6124 -2.1986
  875SOL     OW 2623   2.300   1.614   1.403 -0.7917 -0.7161  0.5223
  875SOL    HW1 2624   2.339   1.624   1.499  1.2042 -0.7116 -0.9697
  875SOL    HW2 2625   2.363   1.570   1.338 -2.8721  0.7699  1.1139
  876SOL     OW 2626   0.069   2.280   2.626  0.1759 -0.1999 -0.1370
  876SOL    HW1 2627   0.112   2.190   2.639 -2.1637 -0.0324 -1.0691
  876SOL    HW2 2628   0.127   2.357   2.666 -1.3497 -1.5671 -3.1511
  877SOL     OW 2629   2.874   2.632   0.677 -0.0278 -0.2020 -0.0691
  877SOL    HW1 2630   2.844   2.728   0.704  3.5442  1.5746  0.0235
  877SOL    HW2 2631   2.976   2.614   0.702 -0.9626  2.3370 -1.2874
  878SOL     OW 2632   2.839   1.616   2.309 -0.1096  0.0872  0.2703
  878SOL    HW1 2633   2.773   1.689   2.276  1.9416  0.5694  0.6768
  878SOL    HW2 2634   2.792   1.566   2.386 -1.2725 -0.1543 -1.2217
  879SOL     OW 2635   2.481   0.026   1.154  0.0391  0.4403  0.3403
  879SOL    HW1 2636   2.535  -0.051   1.194  1.1278  2.4088  3.4329
  879SOL    HW2 2637   2.381   0.001   1.138 -1.1058 -2.9466  0.2068
  880SOL     OW 2638   0.629   0.539   2.257  0.2372  0.2604  0.0898
  880SOL    HW1 2639   0.618   0.513   2.357 -1.5069 -0.5232  1.2883
  880SOL    HW2 2640   0.669   0.465   2.195  2.5401  0.3055 -1.1535
  881SOL     OW 2641   0.835   0.079   0.431  0.8695  0.4108 -0.8791
  881SOL    HW1 2642   0.864  -0.019   0.440  1.7486  1.0277  0.7686
  881SOL    HW2 2643   0.731   0.077   0.422  0.0732 -0.3170 -1.2911
  882SOL     OW 2644   2.737   1.607   1.713  0.2020 -0.5588 -0.1214
  882SOL    HW1 2645   2.827   1.583   1.670 -1.8949  0.0159  1.1610
  882SOL    HW2 2646   2.731   1.578   1.814  1.2784 -1.2801  2.6572
  883SOL     OW 2647   0.802   0.508   0.874 -0.5157  0.1317  0.6240
  883SOL    HW1 2648   0.888   0.571   0.874  1.8272 -0.9417  0.5477
  883SOL    HW2 2649   0.746   0.505   0.963 -1.1949  0.8177  0.8094
  884SOL     OW 2650   1.198   1.716   1.101  0.2986 -0.1069  0.2818
  884SOL    HW1 2651   1.149   1.623   1.064 -0.6478 -2.4944  0.3014
  884SOL    HW2 2652   1.223   1.782   1.028 -1.3002  1.5686 -0.8725
  885SOL     OW 2653   2.315   1.891   2.275 -0.3813  0.5138 -0.0351
  885SOL    HW1 2654   2.269   1.811   2.324  1.1085  1.4201  1.6103
  885SOL    HW2 2655   2.272   1.985   2.282 -0.9291 -1.1780  0.2042
  886SOL     OW 2656   2.604   0.344   1.796  0.0575 -0.8254 -0.0078
  886SOL    HW1 2657   2.598   0.284   1.878 -0.2988  2.1356  0.3666
  886SOL    HW2 2658   2.688   0.410   1.801 -0.2229  0.4999  3.3837
  887SOL     OW 2659   0.129   2.069   1.308  0.2776  0.0335 -0.6654
  887SOL    HW1 2660   0.126   2.018   1.215  1.2484  2.2038 -2.4074
  887SOL    HW2 2661   0.096   2.167   1.298  0.8975 -0.7295 -0.9157
  888SOL     OW 2662   0.583   1.234   1.548  0.1808 -0.4361 -0.7752
  888SOL    HW1 2663   0.581   1.300   1.461 -0.0463 -0.6540 -1.1077
  888SOL    HW2 2664   0.597   1.137   1.526 -1.6182  2.2002  1.0699
  889SOL     OW 2665   0.827   2.444   2.234  0.1575  0.0744  0.4293
  889SOL    HW1 2666   0.728   2.417   2.262 -0.3543 -0.9954  1.6587
  889SOL    HW2 2667   0.869   2.375   2.171  1.1175  1.1718 -1.1147
  890SOL     OW 2668   2.394   2.477   0.285 -0.1544  0.6670 -0.2160
  890SOL    HW1 2669   2.434   2.568   0.265 -3.5930  0.5797 -1.2153
  890SOL    HW2 2670   2.314   2.476   0.355 -0.0867  3.2235  0.6060
  891SOL     OW 2671   2.619   1.699   0.703 -0.1200 -0.3241 -0.3157
  891SOL    HW1 2672   2.652   1.692   0.800  2.2331 -3.4442  0.9367
  891SOL    HW2 2673   2.547   1.630   0.690  1.3630 -0.9540 -0.2067
  892SOL     OW 2674   0.375   0.318   2.228  0.2511  0.2206 -0.4401
  892SOL    HW1 2675   0.474   0.336   2.248 -2.8070  1.8317 -0.3136
  892SOL    HW2 2676   0.359   0.253   2.149  1.2714 -0.6936 -0.4901
  893SOL     OW 2677   1.744   0.264   2.687 -0.1236 -0.2820  0.2464
  893SOL    HW1 2678   1.815   0.342   2.708 -0.1934  4.2027 -1.5956
  893SOL    HW2 2679   1.644   0.303   2.701 -3.0886 -1.1530  1.1676
  894SOL     OW 2680   2.139   2.063   0.104 -0.0449 -0.4861 -0.1203
  894SOL    HW1 2681   2.130   2.009   0.012  1.2983  0.0935  0.5628
  894SOL    HW2 2682   2.202   2.015   0.173  1.0333  1.9796 -0.8820
  895SOL     OW 2683   2.765   1.439   0.865 -0.4244  0.0590  0.2190
  895SOL    HW1 2684   2.839   1.374   0.897 -2.5021 -0.4787  2.2635
  895SOL    HW2 2685   2.774   1.539   0.902 -1.9457  1.5244  2.5691
  896SOL     OW 2686   1.856   1.743   1.253 -0.1698  0.6602 -0.3626
  896SOL    HW1 2687   1.956   1.712   1.267 -2.0352 -1.4505 -1.5984
  896SOL    HW2 2688   1.818   1.719   1.161 -1.0013 -0.2646 -0.1858
  897SOL     OW 2689   0.227   0.555   3.005 -0.0828  0.0307  0.3457
  897SOL    HW1 2690   0.182   0.604   2.921 -4.1481 -1.4338 -1.3514
  897SOL    HW2 2691   0.322   0.595   3.028 -0.1870  0.6084  0.7012
  898SOL     OW 2692   0.668   2.830   1.097 -0.2001 -0.0922  0.1723
  898SOL    HW1 2693   0.720   2.920   1.097  1.2107 -3.3898 -3.5671
  898SOL    HW2 2694   0.699   2.765   1.172  1.6946  1.5258  1.0546
  899SOL     OW 2695   2.880   0.953   1.346 -0.3967  0.2017 -0.4529
  899SOL    HW1 2696   2.881   0.968   1.244  1.8640  1.9125 -0.3011
  899SOL    HW2 2697   2.980   0.961   1.385  3.2159  0.7507 -1.0646
  900SOL     OW 2698   0.977   2.498   2.472  0.4202 -0.5689 -0.0050
  900SOL    HW1 2699   0.930   2.477   2.384 -0.1637  2.6447  1.4067
  900SOL    HW2 2700   0.933   2.456   2.556  1.6910  0.2523  0.6166
  901SOL     OW 2701   1.883   2.381   1.426 -0.0848  0.3435  0.3025
  901SOL    HW1 2702   1.900   2.306   1.357  0.0961 -2.6584 -0.3328
  901SOL    HW2 2703   1.968   2.408   1.475 -0.8931  1.7660 -0.4118
  902SOL     OW 2704   2.568   1.632   1.504 -0.8211 -0.3532 -0.4331
  902SOL    HW1 2705   2.623   1.614   1.588 -0.4609  3.3195  0.0732
  902SOL    HW2 2706   2.614   1.601   1.414  0.4200 -2.5315 -1.1253
  903SOL     OW 2707   0.312   2.373   1.983 -0.0526 -0.0736 -0.3009
  903SOL    HW1 2708   0.251   2.290   2.008 -1.0370  0.9632 -0.3812
  903SOL    HW2 2709   0.300   2.410   1.887  2.5920  2.2708  2.0582
  904SOL     OW 2710   1.977   0.825   2.457 -0.0652 -0.0782 -0.1857
  904SOL    HW1 2711   1.902   0.764   2.491 -0.2607 -2.1475  1.0458
  904SOL    HW2 2712   2.022   0.786   2.369  0.4293 -2.6003 -0.3597
  905SOL     OW 2713   2.816   0.107   2.403  0.4251 -0.6600  0.1153
  905SOL    HW1 2714   2.884   0.028   2.410  0.1453 -1.2602  1.6716
  905SOL    HW2 2715   2.844   0.198   2.439 -2.0677 -0.3094 -0.1262
  906SOL     OW 2716   0.143   1.746   1.901 -0.0166 -0.3104 -0.7685
  906SOL    HW1 2717   0.077   1.758   1.826  0.8968  0.4242 -0.3540
  906SOL    HW2 2718   0.240   1.747   1.869  1.4830  1.8650  1.0106
  907SOL     OW 2719   0.227   2.490   0.961 -0.0733 -0.2259 -0.3412
  907SOL    HW1 2720   0.299   2.427   0.920 -1.5784 -0.9920  1.0211
  907SOL    HW2 2721   0.240   2.592   0.938 -1.8306  0.5158 -1.0828
  908SOL     OW 2722   2.860   2.982   0.395  0.0319  0.8884 -0.1834
  908SOL    HW1 2723   2.769   3.013   0.351 -3.8087 -2.8504  0.2774
  908SOL    HW2 2724   2.898   2.901   0.346 -1.8981  0.7704  1.5926
  909SOL     OW 2725   0.892   1.027   2.660 -0.1368  0.0116  0.4958
  909SOL    HW1 2726   0.834   0.938   2.648 -1.5485 -0.6458  0.2940
  909SOL    HW2 2727   0.946   1.051   2.574 -0.0447  1.3274  3.2143
  910SOL     OW 2728   1.818   1.872   2.127  0.0959 -0.1816 -0.2807
  910SOL    HW1 2729   1.874   1.901   2.042 -0.5267  0.2759  0.7545
  910SOL    HW2 2730   1.754   1.954   2.145 -0.0964 -0.4522  1.0237
  911SOL     OW 2731   1.752   2.889   1.536  0.1298  0.7528 -0.2664
  911SOL    HW1 2732   1.843   2.886   1.485  1.4273  0.7721 -0.5964
  911SOL    HW2 2733   1.748   2.807   1.601 -0.3174 -0.9878 -0.7505
  912SOL     OW 2734   2.860   1.003   0.745  0.3831  0.6476  0.8002
  912SOL    HW1 2735   2.917   1.018   0.830  1.7454  1.1456  0.7197
  912SOL    HW2 2736   2.773   1.059   0.738  1.0981  0.8054  2.2818
  913SOL     OW 2737   2.576   1.265   1.572 -0.3531 -0.5983 -0.3716
  913SOL    HW1 2738   2.601   1.161   1.567 -0.5841  0.4182  2.5898
  913SOL    HW2 2739   2.613   1.320   1.490 -0.7552 -0.5772 -1.7269
  914SOL     OW 2740   2.873   0.595   1.183 -0.2468  0.8307  0.5673
  914SOL    HW1 2741   2.855   0.491   1.193  0.2153  0.8521  0.2632
  914SOL    HW2 2742   2.839   0.640   1.271 -2.7620 -2.5034  0.3055
  915SOL     OW 2743   1.204   0.722   0.917  0.2968  0.3750  0.0673
  915SOL    HW1 2744   1.257   0.765   0.994 -1.3799  1.4604 -0.1922
  915SOL    HW2 2745   1.103   0.704   0.948  0.9001  0.5066  2.2355
  916SOL     OW 2746   0.613   0.081   0.682  0.8179  0.0103  0.2246
  916SOL    HW1 2747   0.686   0.152   0.669  1.6413  2.3726 -1.0754
  916SOL    HW2 2748   0.560   0.059   0.596 -2.3845  0.5883 -0.0479
  917SOL     OW 2749   2.850   2.622   2.036  0.4375  0.0716 -0.0778
  917SOL    HW1 2750   2.759   2.671   2.012  0.6720 -0.3320  3.1354
  917SOL    HW2 2751   2.924   2.620   1.964 -0.9226 -2.6611  1.1381
  918SOL     OW 2752   1.075   2.092   3.044 -0.3115 -0.0641 -0.2691
  918SOL    HW1 2753   1.042   2.156   3.119  0.4161 -0.3617  1.1395
  918SOL    HW2 2754   1.139   2.137   2.975 -1.7818 -0.6858  0.2482
  919SOL     OW 2755   0.781   1.637   2.791  0.4647 -0.4496  0.3464
  919SOL    HW1 2756   0.850   1.713   2.778 -2.1201 -1.3976  1.4875
  919SOL    HW2 2757   0.781   1.572   2.710 -0.0055  4.2371 -0.0667
  920SOL     OW 2758   1.338   1.820   2.463 -0.3155  0.0424 -0.4024
  920SOL    HW1 2759   1.435   1.830   2.430  1.4145  0.2887 -0.7588
  920SOL    HW2 2760   1.328   1.752   2.542 -0.7199 -0.8060  1.6713
  921SOL     OW 2761   1.137   0.096   2.580  0.3217 -0.7644  0.3004
  921SOL    HW1 2762   1.098   0.050   2.491 -1.2232 -1.6647  1.5420
  921SOL    HW2 2763   1.062   0.118   2.644  0.8451  1.2927  0.7966
  922SOL     OW 2764   2.189   2.459   2.814  0.3740 -0.5530  0.0388
  922SOL    HW1 2765   2.203   2.359   2.822 -1.9650  0.2342 -3.2883
  922SOL    HW2 2766   2.129   2.480   2.731  0.2193  1.4217 -2.0397
  923SOL     OW 2767   1.196   2.705   0.285 -0.0641  0.8874  0.0239
  923SOL    HW1 2768   1.254   2.786   0.315 -0.9782  0.8635 -2.8038
  923SOL    HW2 2769   1.238   2.615   0.319 -0.4794  3.0859 -0.9922
  924SOL     OW 2770   2.946   1.700   0.148 -0.1577  0.1293  0.3345
  924SOL    HW1 2771   2.868   1.648   0.102 -0.4996 -0.6349 -0.1415
  924SOL    HW2 2772   3.026   1.636   0.148  2.0483 -1.6002 -0.7108
  925SOL     OW 2773   0.027   2.879   1.563  0.5032 -0.3944 -0.5143
  925SOL    HW1 2774  -0.061   2.912   1.611 -0.5058 -2.0088  0.3803
  925SOL    HW2 2775   0.007   2.816   1.489 -0.3215 -0.4680 -1.8419
  926SOL     OW 2776   1.267   2.765   1.344  0.1394  0.4238  0.1402
  926SOL    HW1 2777   1.298   2.761   1.245  0.4400  0.4411  2.5553
  926SOL    HW2 2778   1.290   2.856   1.392  2.7699 -1.8191 -0.8310
  927SOL     OW 2779   0.352   2.591   1.784 -0.0536  0.1285 -0.0389
  927SOL    HW1 2780   0.310   2.530   1.709  0.0306 -1.8608 -0.4085
  927SOL    HW2 2781   0.333   2.693   1.776 -0.0877  0.4911  0.2797
  928SOL     OW 2782   1.673   2.082   2.226 -0.3460  0.7084  0.1266
  928SOL    HW1 2783   1.688   2.167   2.168  0.1652 -0.8547  1.6309
  928SOL    HW2 2784   1.574   2.044   2.215 -1.1026  0.5300  2.3761
  929SOL     OW 2785   2.452   2.504   2.888  0.5792  0.0152 -0.0909
  929SOL    HW1 2786   2.353   2.506   2.886  2.9213  0.7484 -1.5458
  929SOL    HW2 2787   2.484   2.488   2.787  1.6744 -0.4337 -3.8089
  930SOL     OW 2788   2.122   2.086   1.080  0.2981  0.0887 -0.2407
  930SOL    HW1 2789   2.150   2.062   1.178  0.8792 -2.3987 -0.2733
  930SOL    HW2 2790   2.110   2.187   1.069  1.7239 -2.3425  1.0930
  931SOL     OW 2791   0.470   1.607   2.624  0.1534  0.1735 -0.2904
  931SOL    HW1 2792   0.490   1.643   2.721 -2.9171  1.4055 -1.4327
  931SOL    HW2 2793   0.549   1.556   2.581 -2.1658 -0.7865 -1.0516
  932SOL     OW 2794   0.356   0.054   3.097  0.2729  0.6050 -0.0760
  932SOL    HW1 2795   0.424   0.129   3.070  0.9833 -1.7956  2.5452
  932SOL    HW2 2796   0.359  -0.029   3.041  0.1620  0.5982  3.3843
  933SOL     OW 2797   1.022   0.824   3.009  0.2222 -0.0562  0.5852
  933SOL    HW1 2798   1.059   0.915   3.030  2.0059 -1.6601 -0.6203
  933SOL    HW2 2799   0.925   0.804   3.040  0.1101  0.0422 -0.2955
  934SOL     OW 2800   0.896   2.950   2.628 -0.0308  0.0532 -0.3538
  934SOL    HW1 2801   0.872   2.891   2.546 -0.5243 -0.1350  0.0655
  934SOL    HW2 2802   0.933   2.892   2.711  1.5202 -0.0392  4.6337
  935SOL     OW 2803   0.013   0.598   0.766  0.4812 -0.5700  0.3153
  935SOL    HW1 2804  -0.034   0.535   0.707  2.3465 -0.7266 -0.8913
  935SOL    HW2 2805  -0.049   0.631   0.844 -1.1403 -1.8907  0.5523
  936SOL     OW 2806   1.113   2.887   0.085  0.2013  0.1029 -0.1836
  936SOL    HW1 2807   1.203   2.917   0.044  0.5297  0.2530  1.3029
  936SOL    HW2 2808   1.125   2.821   0.165 -2.4379  0.0474  0.6493
  937SOL     OW 2809   1.971   2.592   2.080 -0.4840 -0.1271 -0.0356
  937SOL    HW1 2810   1.933   2.632   2.165 -0.9445 -0.5522 -0.8665
  937SOL    HW2 2811   1.950   2.653   1.995 -0.1317  0.7299  0.4342
  938SOL     OW 2812   2.761   2.112   1.548  0.3442  0.2570  0.6159
  938SOL    HW1 2813   2.727   2.206   1.558  1.5942 -1.2241 -0.7081
  938SOL    HW2 2814   2.855   2.105   1.592 -0.2787 -0.9498  0.0297
  939SOL     OW 2815   2.830   1.169   2.491 -0.0592 -1.0658  0.1196
  939SOL    HW1 2816   2.899   1.114   2.437 -0.5573 -0.7092  0.3628
  939SOL    HW2 2817   2.812   1.149   2.592 -1.5253  0.5664  0.8947
  940SOL     OW 2818   1.056   0.451   2.734  0.2420  0.4673 -0.2305
  940SOL    HW1 2819   1.131   0.381   2.761  0.4257  1.4768  0.9974
  940SOL    HW2 2820   1.012   0.427   2.644  1.4991  2.1213  0.5235
  941SOL     OW 2821   0.083   2.812   2.282 -0.1854  0.2354 -0.0161
  941SOL    HW1 2822   0.112   2.719   2.249 -0.3044  0.2819  4.7001
  941SOL    HW2 2823   0.165   2.863   2.322  0.8949 -0.9606 -1.6363
  942SOL     OW 2824   0.113   0.063   2.439 -0.6340  0.3492  0.0880
  942SOL    HW1 2825   0.163   0.060   2.529  1.6692  1.2196 -0.0557
  942SOL    HW2 2826   0.112   0.156   2.392  1.2685  0.8578 -2.2716
  943SOL     OW 2827   2.144   1.690   2.339  0.0644  0.1619  0.0510
  943SOL    HW1 2828   2.096   1.666   2.244  0.8455  0.6089 -2.1892
  943SOL    HW2 2829   2.159   1.613   2.406  1.8662  1.5132 -2.9316
  944SOL     OW 2830   2.192   2.311   1.576 -0.1197  0.6461  0.0536
  944SOL    HW1 2831   2.227   2.343   1.667 -1.1702 -0.6338 -0.0227
  944SOL    HW2 2832   2.124   2.230   1.577 -2.3008 -1.0608  1.3867
  945SOL     OW 2833   0.675   1.639   0.175  0.3559 -0.4867 -0.7143
  945SOL    HW1 2834   0.600   1.621   0.103 -1.4043 -1.0911 -1.5184
  945SOL    HW2 2835   0.710   1.548   0.214 -0.8572  0.2612 -0.7508
  946SOL     OW 2836   0.353   0.993   2.617 -0.4862  0.0047  0.3452
  946SOL    HW1 2837   0.313   0.934   2.541 -1.9417  1.2933 -0.2313
  946SOL    HW2 2838   0.392   1.085   2.591  1.9015  1.2272  3.0841
  947SOL     OW 2839   1.464   0.534   3.030  0.1923 -0.0087  0.3211
  947SOL    HW1 2840   1.451   0.610   2.960 -1.4019 -2.8882 -0.1675
  947SOL    HW2 2841   1.372   0.490   3.054  1.5502 -1.3897 -1.3225
  948SOL     OW 2842   1.965   2.944   2.165 -0.4385  0.0088  0.0453
  948SOL    HW1 2843   1.964   2.896   2.075  1.6877 -0.3785  3.7237
  948SOL    HW2 2844   1.913   2.893   2.242 -0.8133  0.0465  0.2772
  949SOL     OW 2845   0.574   2.484   0.426 -0.2691 -0.2120 -0.2665
  949SOL    HW1 2846   0.557   2.578   0.398  2.0992  0.2768  0.4128
  949SOL    HW2 2847   0.613   2.488   0.525  3.1527 -0.7976 -0.3659
  950SOL     OW 2848   0.196   2.255   2.934 -0.8269 -0.2149 -0.3628
  950SOL    HW1 2849   0.167   2.344   2.876  1.0857  2.3157 -2.5163
  950SOL    HW2 2850   0.225   2.176   2.875 -1.1309  3.2732 -0.3513
  951SOL     OW 2851   1.233   2.669   2.810 -0.7640 -0.0316  0.0226
  951SOL    HW1 2852   1.279   2.585   2.841  0.8120  1.1916  0.0478
  951SOL    HW2 2853   1.283   2.716   2.729 -1.6669  0.9040  0.7640
  952SOL     OW 2854   0.034   1.621   0.427  0.2206 -0.3189  0.6732
  952SOL    HW1 2855   0.087   1.708   0.409 -2.0733  0.8772 -1.2819
  952SOL    HW2 2856   0.094   1.568   0.503  0.6401  0.5568  2.5514
  953SOL     OW 2857   2.491   1.731   0.304  0.1401  0.2016 -0.3839
  953SOL    HW1 2858   2.483   1.629   0.316  2.7238  0.5290 -1.5190
  953SOL    HW2 2859   2.451   1.763   0.209  2.7296 -0.1745 -0.5324
  954SOL     OW 2860   2.208   0.520   0.931 -0.0639  0.1397  0.0716
  954SOL    HW1 2861   2.240   0.530   0.829  2.4673  0.9606  0.8869
  954SOL    HW2 2862   2.282   0.528   1.003  0.6127  1.5717 -1.8504
  955SOL     OW 2863   0.182   2.598   1.384 -0.0747 -0.5056  0.1509
  955SOL    HW1 2864   0.086   2.642   1.383 -0.7309  0.3378 -0.6283
  955SOL    HW2 2865   0.255   2.671   1.358  0.5749  0.4191 -0.1970
  956SOL     OW 2866   2.797   2.505   2.521  0.4598 -0.3776 -0.8939
  956SOL    HW1 2867   2.818   2.406   2.511 -0.1940 -1.3233 -0.4875
  956SOL    HW2 2868   2.834   2.555   2.436  0.4418 -0.9917 -0.3811
  957SOL     OW 2869   1.625   2.065   2.738 -0.4775  0.0439  0.8011
  957SOL    HW1 2870   1.593   1.993   2.806  1.6005  2.0656  1.3284
  957SOL    HW2 2871   1.663   2.033   2.645 -0.7658 -0.5450 -2.4719
  958SOL     OW 2872   2.609   2.269   3.037 -0.0795  0.1105 -0.2798
  958SOL    HW1 2873   2.519   2.319   3.010  2.3386  0.7933 -0.3789
  958SOL    HW2 2874   2.609   2.232   3.131  1.1881  3.2294  0.8233
  959SOL     OW 2875   0.396   2.810   0.132  0.2873 -0.1167  0.2806
  959SOL    HW1 2876   0.315   2.864   0.172 -0.6030  1.0640 -0.0414
  959SOL    HW2 2877   0.385   2.712   0.147 -0.1105  1.3794 -0.1659
  960SOL     OW 2878   1.904   0.513   1.932 -0.1153 -0.4547  0.1785
  960SOL    HW1 2879   1.845   0.598   1.904  0.0230  0.6186 -1.0118
  960SOL    HW2 2880   1.923   0.505   2.033 -0.1630  0.7115  0.1014
  961SOL     OW 2881   2.511   1.896   1.066  0.2640 -0.3253  0.1713
  961SOL    HW1 2882   2.538   1.991   1.036  0.0789 -0.6595 -0.8539
  961SOL    HW2 2883   2.482   1.896   1.168  0.8612  2.5994 -0.3176
  962SOL     OW 2884   1.311   0.907   0.040 -0.3861 -0.5462  0.1279
  962SOL    HW1 2885   1.289   0.955  -0.051  1.1480  0.6400 -0.6619
  962SOL    HW2 2886   1.274   0.954   0.128  2.8046 -1.5209 -0.9813
  963SOL     OW 2887   2.322   2.582   1.823  0.2561 -0.0498 -0.1742
  963SOL    HW1 2888   2.288   2.486   1.850 -1.2780  0.0213  0.8976
  963SOL    HW2 2889   2.355   2.642   1.904  1.6919  0.8084 -2.2417
  964SOL     OW 2890   2.373   0.423   1.664  0.4267  0.1618 -0.1575
  964SOL    HW1 2891   2.463   0.395   1.718  1.4672 -0.5351  0.6346
  964SOL    HW2 2892   2.385   0.416   1.559  1.5438  2.5739 -3.3691
  965SOL     OW 2893   2.633   3.010   0.189 -0.3209  0.3875 -0.2859
  965SOL    HW1 2894   2.702   2.987   0.113 -1.8950 -1.4562 -2.6810
  965SOL    HW2 2895   2.544   3.048   0.150 -1.1562 -0.8863 -0.9098
  966SOL     OW 2896   2.470   2.496   2.246 -0.2683  0.1861  0.3353
  966SOL    HW1 2897   2.504   2.582   2.207 -0.0602 -0.2707 -0.4664
  966SOL    HW2 2898   2.370   2.476   2.219 -1.9466 -0.4883 -0.7363
  967SOL     OW 2899   2.744   2.834   2.473  0.0248  0.6295 -0.3830
  967SOL    HW1 2900   2.806   2.771   2.420 -2.3943  3.1267 -1.6694
  967SOL    HW2 2901   2.769   2.931   2.461 -1.3601  0.6420 -0.6512
  968SOL     OW 2902   1.975   1.059   2.581 -0.0492  0.0952  0.2306
  968SOL    HW1 2903   1.874   1.082   2.590  1.2804 -1.0667  1.0115
  968SOL    HW2 2904   1.980   0.965   2.531  1.0981  2.5326  0.7270
  969SOL     OW 2905   2.756   2.558   1.051  0.8345 -0.2783  0.2720
  969SOL    HW1 2906   2.756   2.647   1.001  1.6520  0.8677  0.9638
  969SOL    HW2 2907   2.733   2.479   0.986  2.4992 -0.2239  0.7454
  970SOL     OW 2908   1.075   2.111   1.850 -0.0282 -0.2865 -0.5565
  970SOL    HW1 2909   1.068   2.036   1.925  2.8736 -1.0015 -1.0941
  970SOL    HW2 2910   1.006   2.103   1.773 -1.7044  2.2990  1.7569
  971SOL     OW 2911   2.905   2.179   1.946 -0.4935 -0.2984 -0.2776
  971SOL    HW1 2912   2.945   2.250   2.009 -1.0044 -0.8995  0.6718
  971SOL    HW2 2913   2.941   2.189   1.849  1.3141 -0.6466 -1.6529
  972SOL     OW 2914   1.892   2.451   0.243  0.8067 -0.1063 -0.4215
  972SOL    HW1 2915   1.887   2.356   0.213 -4.0265  3.3225  0.5087
  972SOL    HW2 2916   1.929   2.464   0.343  1.9754  2.4842  1.5429
  973SOL     OW 2917   1.150   0.912   1.884 -0.0263  0.0177 -0.0087
  973SOL    HW1 2918   1.103   0.832   1.933 -0.0466 -0.1397  0.4483
  973SOL    HW2 2919   1.090   0.969   1.821 -0.4064  0.2492  0.4927
  974SOL     OW 2920   1.592   0.570   1.968  0.4147  0.2786 -0.0265
  974SOL    HW1 2921   1.640   0.646   1.914  0.6373 -1.4856 -0.8175
  974SOL    HW2 2922   1.502   0.546   1.920 -0.4210 -0.3950  1.8987
  975SOL     OW 2923   2.367   3.024   0.034  0.2711  0.2066 -0.0385
  975SOL    HW1 2924   2.291   2.960   0.066 -1.1761  1.0649 -2.1306
  975SOL    HW2 2925   2.406   3.005  -0.061  0.8226  0.8461 -2.9247
  976SOL     OW 2926   1.915   2.716   2.339  0.4151 -0.3895  0.4197
  976SOL    HW1 2927   1.822   2.694   2.383  0.0015 -0.3063 -0.3518
  976SOL    HW2 2928   1.994   2.737   2.404 -1.6377 -1.9180  1.1568
  977SOL     OW 2929   0.474   0.686   0.991 -0.5569 -0.0723  0.4690
  977SOL    HW1 2930   0.394   0.684   0.924  1.2954 -2.5157  1.9853
  977SOL    HW2 2931   0.540   0.763   0.975 -1.8490 -1.9631 -0.7198
   3.10000   3.10000   3.10000
