1000 SPC/Fw water molecules t=   1.16000 step= 1160
 2931
    1SOL     OW    1   2.565   0.345   2.600 -0.2362  0.3644 -0.6429
    1SOL    HW1    2   2.532   0.248   2.610 -1.6464  0.4205 -1.9094
    1SOL    HW2    3   2.622   0.378   2.685  0.7343 -1.3191  1.6316
    2SOL     OW    4   2.762   3.017   1.379  0.2116 -0.4240 -0.3009
    2SOL    HW1    5   2.856   3.030   1.331  2.0839  0.8532  1.2900
    2SOL    HW2    6   2.734   3.091   1.444  0.0353 -0.8592  2.0287
    3SOL     OW    7   2.620   2.610   0.432  0.2829  0.1341 -0.0681
    3SOL    HW1    8   2.584   2.509   0.429  0.8458  0.3514 -0.8681
    3SOL    HW2    9   2.715   2.622   0.475  1.6385 -0.1997 -0.1271
    4SOL     OW   10   1.232   1.531   2.362  0.3979 -0.2792  0.4031
    4SOL    HW1   11   1.176   1.570   2.286 -0.2591  0.6898 -3.2354
    4SOL    HW2   12   1.204   1.433   2.385 -1.1297 -0.4551  0.9992
    5SOL     OW   13   1.129   1.568   3.034 -0.0115  0.2094 -0.1276
    5SOL    HW1   14   1.193   1.647   3.006  1.4748  0.0410 -1.5803
    5SOL    HW2   15   1.054   1.595   3.097  2.3728  1.3967  1.1089
    6SOL     OW   16   0.206   1.758   2.999  0.3915  0.5875  0.3907
    6SOL    HW1   17   0.120   1.799   3.046 -0.7713  2.1849 -1.9476
    6SOL    HW2   18   0.279   1.718   3.065  3.3676  0.5338  4.1054
    7SOL     OW   19   2.550   0.883   1.056 -0.4011 -0.7503 -0.2737
    7SOL    HW1   20   2.469   0.825   1.091 -0.5245  0.2291  0.9267
    7SOL    HW2   21   2.537   0.909   0.956 -1.2158 -1.7201 -0.3798
    8SOL     OW   22   0.435   0.607   1.470  0.0850 -0.1090 -0.3605
    8SOL    HW1   23   0.519   0.559   1.516  0.8861 -0.5864 -0.8929
    8SOL    HW2   24   0.415   0.570   1.376  1.8121  1.0514  1.4567
    9SOL     OW   25   1.204   0.906   2.432 -0.2892 -0.5461  0.0069
    9SOL    HW1   26   1.233   0.953   2.342 -0.8840 -1.0481 -4.4084
    9SOL    HW2   27   1.174   0.808   2.420 -2.0116  0.1437 -1.6963
   10SOL     OW   28   0.664   1.364   1.319  0.4928  0.0780  0.2563
   10SOL    HW1   29   0.565   1.371   1.280  1.2410  0.7918 -1.1287
   10SOL    HW2   30   0.718   1.448   1.308 -1.5352 -3.0727  1.1647
   11SOL     OW   31   2.318   2.814   0.856 -0.4455 -0.3940  0.3372
   11SOL    HW1   32   2.270   2.817   0.941  1.6252  1.7326 -0.9477
   11SOL    HW2   33   2.417   2.786   0.860  1.0551 -0.1393 -1.5206
   12SOL     OW   34   1.476   0.849   0.417 -0.8835 -0.1872 -0.1962
   12SOL    HW1   35   1.409   0.907   0.364 -0.1868  2.2674 -0.4948
   12SOL    HW2   36   1.523   0.777   0.355 -1.8227 -2.4138 -0.1528
   13SOL     OW   37   2.464   0.725   1.784 -0.4290  0.3734  0.0095
   13SOL    HW1   38   2.402   0.664   1.844 -1.9724  1.8282 -4.8985
   13SOL    HW2   39   2.448   0.702   1.685 -1.0691  0.7707  1.0095
   14SOL     OW   40   1.851   0.091   0.690  0.3865 -0.3483  0.1379
   14SOL    HW1   41   1.763   0.097   0.633  0.1155 -1.7162  0.0733
   14SOL    HW2   42   1.847   0.008   0.753  0.8499  1.1027  1.9969
   15SOL     OW   43   1.873   2.097   2.735 -0.6199  0.3560 -0.1823
   15SOL    HW1   44   1.834   2.192   2.747 -2.2073 -0.4285 -0.6641
   15SOL    HW2   45   1.866   2.062   2.640 -1.5740 -2.0984  0.2867
   16SOL     OW   46   1.596   1.690   3.008 -0.5901 -0.3574  0.2921
   16SOL    HW1   47   1.606   1.593   3.033 -1.3328  1.5396  0.2028
   16SOL    HW2   48   1.681   1.739   3.037 -0.7313 -0.1885 -0.6589
   17SOL     OW   49   0.062   0.460   0.148  0.0492  0.4204 -0.3407
   17SOL    HW1   50   0.132   0.452   0.076 -2.1899 -0.4401  2.7480
   17SOL    HW2   51  -0.030   0.488   0.109  1.9348 -2.3608  1.0292
   18SOL     OW   52   0.931   2.961   2.142  0.4057  0.1554 -0.2116
   18SOL    HW1   53   0.839   2.913   2.152  0.1547 -0.0513  1.3510
   18SOL    HW2   54   0.971   2.949   2.051 -0.7840  2.2574  3.6849
   19SOL     OW   55   0.495   0.823   1.874 -0.7377  0.2559  0.1674
   19SOL    HW1   56   0.513   0.795   1.968  1.5683  2.5768 -2.5716
   19SOL    HW2   57   0.560   0.901   1.851  0.4048  1.3099  1.0589
   20SOL     OW   58   0.192   2.805   0.856  0.0648  0.5410  0.0430
   20SOL    HW1   59   0.112   2.865   0.842  2.3448 -0.8007  0.1451
   20SOL    HW2   60   0.202   2.729   0.787  1.0269  0.7179  1.5406
   21SOL     OW   61   2.703   0.249   1.982  0.6603  0.0233 -0.3162
   21SOL    HW1   62   2.648   0.162   1.965 -1.1559 -0.7263 -1.8218
   21SOL    HW2   63   2.792   0.230   2.027 -0.9980  0.7147  1.1736
   22SOL     OW   64   2.325   0.211   0.126 -0.1706 -1.3076 -0.2555
   22SOL    HW1   65   2.341   0.112   0.099 -0.0983 -0.2556 -0.5502
   22SOL    HW2   66   2.273   0.261   0.051 -0.3525 -2.6149  2.9736
   23SOL     OW   67   2.786   0.592   0.652  0.0818 -0.1423  0.5603
   23SOL    HW1   68   2.787   0.495   0.619 -2.4925  3.3963  1.6204
   23SOL    HW2   69   2.817   0.656   0.576  1.1157 -0.5465  1.5728
   24SOL     OW   70   0.226   1.927   0.437  0.0978 -0.4793  0.1383
   24SOL    HW1   71   0.174   1.997   0.384  0.1827 -1.9495  0.3471
   24SOL    HW2   72   0.319   1.911   0.396 -4.8624  2.3608  0.5841
   25SOL     OW   73   2.242   0.651   0.213 -0.2019 -0.3527 -0.4835
   25SOL    HW1   74   2.240   0.638   0.111 -0.6851  0.5486 -0.6252
   25SOL    HW2   75   2.281   0.566   0.262 -2.0167 -1.3011 -3.0167
   26SOL     OW   76   2.460   2.176   2.042 -0.5774  0.3290 -0.4894
   26SOL    HW1   77   2.556   2.206   2.055 -1.5354 -2.5013 -2.4138
   26SOL    HW2   78   2.462   2.101   1.971 -1.3081 -0.0414  2.5065
   27SOL     OW   79   0.614   2.903   0.250  0.7346  0.3846  1.0742
   27SOL    HW1   80   0.710   2.941   0.227  1.2934 -0.4362 -1.7814
   27SOL    HW2   81   0.547   2.928   0.174  2.6178  0.1892  1.5296
   28SOL     OW   82   1.580   0.171   0.285  0.0118 -0.2066 -0.3051
   28SOL    HW1   83   1.630   0.133   0.201 -0.9324  0.4867 -0.3321
   28SOL    HW2   84   1.613   0.270   0.308  3.3568 -0.4313  0.8027
   29SOL     OW   85   1.973   0.578   0.316  0.0527  0.1518 -0.1202
   29SOL    HW1   86   1.898   0.618   0.380 -0.7780 -2.2111 -2.3202
   29SOL    HW2   87   2.052   0.644   0.291 -1.0789 -1.1934 -3.3647
   30SOL     OW   88   0.178   2.070   0.917  0.2398  0.3181 -0.2578
   30SOL    HW1   89   0.141   2.014   0.837  1.9218 -0.5094  0.1368
   30SOL    HW2   90   0.110   2.139   0.951  2.2122  1.6327  0.5787
   31SOL     OW   91   2.124   0.046   2.395 -0.2954  1.2134  0.6189
   31SOL    HW1   92   2.076   0.033   2.488 -3.3150  2.1740 -0.6197
   31SOL    HW2   93   2.065   0.019   2.313  0.0904  0.3320 -2.6188
   32SOL     OW   94   2.996   0.021   0.212 -0.1117 -0.1105  0.3357
   32SOL    HW1   95   2.975  -0.067   0.253 -0.1360  3.3642  0.4880
   32SOL    HW2   96   3.095   0.060   0.222 -0.6100 -0.0555  2.7545
   33SOL     OW   97   0.886   0.336   0.619  0.2886 -0.2689  0.6793
   33SOL    HW1   98   0.875   0.242   0.574 -1.0922 -0.5855 -0.7005
   33SOL    HW2   99   0.988   0.366   0.628 -0.1651 -1.4433 -0.9284
   34SOL     OW  100   0.342   2.714   1.081  0.0958 -0.0873  0.1176
   34SOL    HW1  101   0.298   2.751   0.996 -0.7364 -1.0949 -0.7984
   34SOL    HW2  102   0.420   2.766   1.122 -0.7811  0.4695 -0.9234
   35SOL     OW  103   0.058   0.106   1.892  0.0134  0.6462 -0.3073
   35SOL    HW1  104   0.111   0.019   1.922  2.9488 -0.1300 -1.7154
   35SOL    HW2  105  -0.022   0.091   1.828 -0.7109 -1.2392  1.0380
   36SOL     OW  106   1.904   1.253   1.609 -0.7876  0.2243 -0.4054
   36SOL    HW1  107   1.973   1.181   1.628 -0.6780 -1.6476  1.1173
   36SOL    HW2  108   1.938   1.346   1.579 -2.8742  1.1242 -0.6680
   37SOL     OW  109   1.177   0.249   0.967  0.3038  0.0369 -0.2398
   37SOL    HW1  110   1.245   0.322   1.008  0.2558 -0.2451 -1.8086
   37SOL    HW2  111   1.225   0.182   0.899 -0.5838  1.1527  0.2962
   38SOL     OW  112   1.148   2.811   2.391 -0.1618 -0.0456  0.1283
   38SOL    HW1  113   1.090   2.729   2.403  3.6004  0.1965  0.0783
   38SOL    HW2  114   1.105   2.887   2.329  1.9140  0.0395 -1.9550
   39SOL     OW  115   2.331   1.422   3.061  0.4525 -0.8062 -0.0386
   39SOL    HW1  116   2.379   1.332   3.065 -0.3399 -0.8423 -0.7742
   39SOL    HW2  117   2.299   1.455   3.151  1.5269 -1.3145 -1.7219
   40SOL     OW  118   2.006   2.455   2.618  0.1117  0.1179  1.2689
   40SOL    HW1  119   1.981   2.555   2.601  4.2119 -0.1521  1.3419
   40SOL    HW2  120   1.966   2.390   2.546 -0.8035 -1.8721  0.7830
   41SOL     OW  121   3.021   0.655   2.799 -0.4429 -0.6426 -0.1499
   41SOL    HW1  122   2.923   0.688   2.798 -0.0827 -1.9430 -1.8415
   41SOL    HW2  123   3.021   0.556   2.762 -1.4624  3.1363 -1.6091
   42SOL     OW  124   1.754   1.796   0.486 -0.5014 -0.2744  0.3785
   42SOL    HW1  125   1.687   1.717   0.471 -3.0713 -1.6955 -2.0915
   42SOL    HW2  126   1.755   1.863   0.403 -1.5820  1.8052  1.1726
   43SOL     OW  127   0.419   1.686   1.167  0.0609 -0.0127  0.3941
   43SOL    HW1  128   0.402   1.597   1.211  2.5863  0.3604  0.1644
   43SOL    HW2  129   0.334   1.724   1.116 -1.2640  1.6615  0.8424
   44SOL     OW  130   1.700   2.352   2.990 -0.5273 -0.6336 -0.2521
   44SOL    HW1  131   1.624   2.421   2.992  0.8213 -0.9503  0.0749
   44SOL    HW2  132   1.726   2.330   2.896  0.5864  1.1156  1.1349
   45SOL     OW  133   0.348   1.886   2.609 -0.2071 -0.4812 -0.5439
   45SOL    HW1  134   0.317   1.861   2.514  0.6468 -0.5683 -0.2695
   45SOL    HW2  135   0.404   1.808   2.653  2.5586  0.8216  1.3676
   46SOL     OW  136   1.287   0.618   0.144  0.0672  0.0288 -0.0683
   46SOL    HW1  137   1.315   0.706   0.100 -0.0961 -0.2017  2.4960
   46SOL    HW2  138   1.187   0.615   0.169 -1.7329 -1.0083  1.1738
   47SOL     OW  139   0.223   2.514   1.571 -0.2983 -0.3579  0.1751
   47SOL    HW1  140   0.255   2.415   1.561  0.7684 -0.9671  1.6615
   47SOL    HW2  141   0.209   2.565   1.486 -0.7615  2.2917  0.3902
   48SOL     OW  142   2.630   0.633   0.139 -0.3943 -0.2441  0.2208
   48SOL    HW1  143   2.625   0.617   0.241  0.3879  1.2953 -2.6479
   48SOL    HW2  144   2.711   0.688   0.106 -1.4324  1.0269 -2.2091
   49SOL     OW  145   0.332   0.742   1.689  0.3101  0.0585 -1.3139
   49SOL    HW1  146   0.400   0.782   1.756 -0.2843 -1.6620  0.1821
   49SOL    HW2  147   0.370   0.707   1.597  0.3437 -1.7399 -0.4399
   50SOL     OW  148   1.673   1.112   0.346  0.1727 -0.6330 -0.1420
   50SOL    HW1  149   1.712   1.029   0.308 -0.4304  1.9695  0.3225
   50SOL    HW2  150   1.665   1.108   0.446 -0.7591 -0.8820 -2.1688
   51SOL     OW  151   2.984   1.735   0.273  0.4028 -0.4351 -0.0888
   51SOL    HW1  152   2.960   1.666   0.198 -2.0039  1.4625  1.3967
   51SOL    HW2  153   3.056   1.704   0.337  1.3334  0.7726 -0.9085
   52SOL     OW  154   0.801   2.133   0.600  0.0926  0.2461  0.5785
   52SOL    HW1  155   0.711   2.146   0.655 -0.3603  1.5888  0.0978
   52SOL    HW2  156   0.862   2.064   0.640 -1.4594  0.0432 -0.4869
   53SOL     OW  157   0.209   0.454   1.597 -0.5993  0.6021 -0.1684
   53SOL    HW1  158   0.275   0.529   1.578 -4.0007  2.3002  0.7874
   53SOL    HW2  159   0.113   0.473   1.566 -0.9185  1.4151 -0.8162
   54SOL     OW  160   1.814   0.494   3.037 -0.6749 -0.0519 -0.7193
   54SOL    HW1  161   1.893   0.451   3.091 -0.5957  2.4148  0.1392
   54SOL    HW2  162   1.722   0.486   3.085  3.9502  1.9623 -0.6590
   55SOL     OW  163   0.778   2.889   0.667 -0.2986 -0.1603 -0.5194
   55SOL    HW1  164   0.728   2.981   0.671  1.1252  0.1426  1.8196
   55SOL    HW2  165   0.877   2.906   0.641 -1.9243  4.8253 -0.2889
   56SOL     OW  166   0.602   1.606   0.020 -0.6075  0.4871  0.3584
   56SOL    HW1  167   0.522   1.633   0.079 -0.4029  0.0640 -1.2672
   56SOL    HW2  168   0.580   1.526  -0.043  1.8476  0.4307 -1.3434
   57SOL     OW  169   1.718   2.516   2.346 -0.5944  0.2016  0.5166
   57SOL    HW1  170   1.766   2.431   2.349 -1.0266  0.4441 -0.0435
   57SOL    HW2  171   1.646   2.516   2.424 -1.6910  1.1867  0.0232
   58SOL     OW  172   0.687   0.296   1.064  0.0175 -0.0083 -0.1705
   58SOL    HW1  173   0.605   0.309   1.129  0.4710 -0.2040  1.6671
   58SOL    HW2  174   0.707   0.194   1.051 -1.4272 -3.0772 -1.3930
   59SOL     OW  175   0.398   2.319   2.726 -0.2328  0.7075 -0.0265
   59SOL    HW1  176   0.434   2.227   2.695 -0.8215 -1.4659 -1.5254
   59SOL    HW2  177   0.451   2.367   2.804  0.9852 -0.2238 -0.8549
   60SOL     OW  178   2.317   2.096   2.304  0.0892  0.0360  0.1434
   60SOL    HW1  179   2.367   2.132   2.225  1.2716 -1.7506  1.9785
   60SOL    HW2  180   2.361   2.124   2.391 -3.3957 -0.9833 -0.5843
   61SOL     OW  181   1.260   0.587   0.431 -0.1966  0.3274 -0.8420
   61SOL    HW1  182   1.180   0.653   0.453  0.1474 -1.0092 -0.3949
   61SOL    HW2  183   1.289   0.582   0.335  0.8908 -1.8909  3.0582
   62SOL     OW  184   2.724   1.758   2.916  0.0625 -0.4666 -0.3791
   62SOL    HW1  185   2.678   1.782   2.828  1.9579  0.3919  0.4787
   62SOL    HW2  186   2.774   1.668   2.920  2.9675 -0.3929 -0.7892
   63SOL     OW  187   0.529   0.816   0.209  0.4880  0.1430 -0.0454
   63SOL    HW1  188   0.579   0.891   0.154 -0.2443 -1.2520 -1.9389
   63SOL    HW2  189   0.548   0.822   0.312  0.9785  0.7491  0.3293
   64SOL     OW  190   0.015   0.462   2.463 -0.4528  0.5455  0.3104
   64SOL    HW1  191   0.058   0.520   2.537 -3.0457  2.2399  1.5070
   64SOL    HW2  192   0.018   0.514   2.378  0.7069  2.1834  0.7396
   65SOL     OW  193   0.187   1.504   0.632  0.2142 -0.0395  0.2928
   65SOL    HW1  194   0.215   1.567   0.715  1.6706  2.5145  2.2666
   65SOL    HW2  195   0.266   1.500   0.568  0.9939 -0.3764  1.5369
   66SOL     OW  196   2.533   0.375   0.560 -0.1754  0.3650  0.0067
   66SOL    HW1  197   2.634   0.348   0.554  1.7484  1.7394 -1.7794
   66SOL    HW2  198   2.483   0.339   0.648 -1.5749 -1.6679 -1.1908
   67SOL     OW  199   0.579   2.467   1.418  0.5297 -0.2366 -0.9595
   67SOL    HW1  200   0.679   2.442   1.443  2.7577  0.6540 -0.1608
   67SOL    HW2  201   0.510   2.389   1.428  1.4700 -0.1132 -0.1417
   68SOL     OW  202   0.967   1.033   2.529  0.0274 -0.1565 -0.3638
   68SOL    HW1  203   1.057   0.996   2.504 -2.6108 -1.7274  2.4079
   68SOL    HW2  204   0.916   1.057   2.445  2.7901 -0.3362  0.8772
   69SOL     OW  205   0.699   2.803   2.165  0.1235  0.2169  0.4098
   69SOL    HW1  206   0.752   2.713   2.161  1.3012  0.2128  1.3871
   69SOL    HW2  207   0.600   2.785   2.158 -1.6787 -3.7798  0.3180
   70SOL     OW  208   0.488   0.168   2.582 -0.1129 -0.3031 -0.3404
   70SOL    HW1  209   0.388   0.166   2.611 -0.2286 -1.3315 -0.8102
   70SOL    HW2  210   0.540   0.081   2.618  1.0144 -1.3182  0.3494
   71SOL     OW  211   1.106   1.812   0.382 -0.2028  0.4023 -0.1898
   71SOL    HW1  212   1.058   1.752   0.447  2.7428  0.1758  1.3532
   71SOL    HW2  213   1.065   1.826   0.283 -1.7902 -1.6891  0.4665
   72SOL     OW  214   1.810   0.205   2.161  0.1036  0.1865 -0.0022
   72SOL    HW1  215   1.876   0.285   2.144 -0.4583 -3.7356  1.6103
   72SOL    HW2  216   1.861   0.121   2.184  1.9748  1.3588 -1.1750
   73SOL     OW  217   2.818   2.198   2.392  0.0421  0.0202 -0.0588
   73SOL    HW1  218   2.800   2.097   2.371  0.8615 -2.2658 -0.5852
   73SOL    HW2  219   2.863   2.204   2.487 -2.5594  0.4107 -0.6388
   74SOL     OW  220   2.652   2.857   2.190 -0.7755 -0.0101  0.3035
   74SOL    HW1  221   2.602   2.820   2.273  0.7176  2.0881 -1.6487
   74SOL    HW2  222   2.754   2.839   2.199  1.5025 -0.1863  0.8203
   75SOL     OW  223   0.969   0.841   1.088 -0.3342  0.3134 -0.6045
   75SOL    HW1  224   0.887   0.887   1.042 -1.8375 -1.9974 -4.7947
   75SOL    HW2  225   0.993   0.891   1.176  0.4927 -0.6932 -0.8664
   76SOL     OW  226   1.771   1.199   2.483 -0.0096  0.5343 -0.0888
   76SOL    HW1  227   1.668   1.205   2.463  2.1338  0.6577  1.8674
   76SOL    HW2  228   1.816   1.293   2.478  1.9325 -0.6062 -1.0982
   77SOL     OW  229   2.939   0.942   1.021  0.1695 -0.1699  0.0056
   77SOL    HW1  230   2.924   0.840   1.002 -0.8967 -1.5491  1.6667
   77SOL    HW2  231   3.011   0.957   1.098 -0.2576  0.6024  1.8620
   78SOL     OW  232   1.993   1.487   1.488  0.0463  0.0265  0.5845
   78SOL    HW1  233   2.086   1.461   1.446 -0.2936 -2.7311  1.4392
   78SOL    HW2  234   1.945   1.555   1.423 -0.2747  0.5770 -1.4506
   79SOL     OW  235   0.628   1.418   0.791  0.2274 -0.1812 -0.1589
   79SOL    HW1  236   0.531   1.404   0.819  0.3073  2.5018  2.8128
   79SOL    HW2  237   0.659   1.351   0.717  1.5445  2.0579  2.9311
   80SOL     OW  238   0.666   0.452   1.538 -0.0715 -0.1828 -0.0476
   80SOL    HW1  239   0.681   0.513   1.453 -0.5666  0.5364 -1.6056
   80SOL    HW2  240   0.655   0.351   1.517  0.5485  0.0872  2.0752
   81SOL     OW  241   1.043   1.297   2.622 -0.6676 -0.5526 -0.2399
   81SOL    HW1  242   1.038   1.194   2.630 -0.1633 -1.9705  0.0030
   81SOL    HW2  243   0.972   1.343   2.558  0.4627  2.4166 -1.9395
   82SOL     OW  244   0.931   3.005   1.515 -0.5058 -0.1328 -0.1081
   82SOL    HW1  245   0.839   2.955   1.507 -0.4461 -0.8689  1.3333
   82SOL    HW2  246   0.991   2.984   1.433 -1.4518 -0.7743 -1.6677
   83SOL     OW  247   2.623   2.385   0.850 -0.3044 -0.0485  0.8387
   83SOL    HW1  248   2.524   2.417   0.865  1.2086  0.6926 -0.2895
   83SOL    HW2  249   2.629   2.344   0.752 -1.7452 -0.5555 -3.4567
   84SOL     OW  250   0.688   3.078   2.381  0.6836  0.5820 -0.4276
   84SOL    HW1  251   0.619   3.068   2.458  0.8772 -1.0458 -1.9059
   84SOL    HW2  252   0.739   2.990   2.376  0.9761 -2.3517  0.3097
   85SOL     OW  253   0.275   1.609   1.437 -0.2206  0.7562  0.4483
   85SOL    HW1  254   0.245   1.708   1.441  1.9175 -0.7503 -0.7735
   85SOL    HW2  255   0.333   1.589   1.517 -2.9694 -0.1371 -1.4919
   86SOL     OW  256   0.471   1.076   1.475  0.1681  0.6071 -0.6106
   86SOL    HW1  257   0.414   1.022   1.404 -2.1146  1.2442 -1.1749
   86SOL    HW2  258   0.565   1.033   1.490  0.9856 -0.9596  0.4938
   87SOL     OW  259   1.646   0.658   0.265  0.6092  0.2497  0.7244
   87SOL    HW1  260   1.707   0.741   0.239 -0.5333 -0.1819  0.1362
   87SOL    HW2  261   1.592   0.620   0.181  1.1010 -0.1535 -4.2240
   88SOL     OW  262   1.583   1.368   0.275  0.5784 -0.2663 -0.5828
   88SOL    HW1  263   1.634   1.281   0.304  0.3508  1.5087  2.7678
   88SOL    HW2  264   1.479   1.364   0.303  1.7847  2.2371  2.4521
   89SOL     OW  265   3.098   0.410   0.587  0.0200 -0.6374  0.1935
   89SOL    HW1  266   3.148   0.324   0.550  0.6401 -4.3241 -0.7634
   89SOL    HW2  267   2.997   0.391   0.590 -1.0545  0.3705  1.5527
   90SOL     OW  268   0.888   1.575   0.060 -0.4554  0.2435  0.3010
   90SOL    HW1  269   0.920   1.474   0.067  0.6440 -0.8496 -0.0327
   90SOL    HW2  270   0.786   1.591   0.057  0.5581  1.1469  0.7112
   91SOL     OW  271   1.223   1.469   1.780 -0.1166 -0.3954  0.1295
   91SOL    HW1  272   1.180   1.550   1.829 -0.0547 -2.2766 -0.2398
   91SOL    HW2  273   1.321   1.457   1.797 -1.3463 -0.5905 -1.1874
   92SOL     OW  274   3.095   0.956   1.238  0.0466 -0.3035  0.4983
   92SOL    HW1  275   3.155   1.028   1.190 -0.3144  1.4814 -0.4732
   92SOL    HW2  276   3.098   0.958   1.343 -0.4704  2.7689  1.3346
   93SOL     OW  277   3.073   2.725   0.052 -0.3573 -0.4111 -0.0774
   93SOL    HW1  278   3.036   2.717  -0.043 -1.0532  2.3092 -0.6388
   93SOL    HW2  279   3.092   2.636   0.099 -0.4054 -0.6170  0.1542
   94SOL     OW  280   1.508   1.471   1.823  0.0136 -0.2892  0.0267
   94SOL    HW1  281   1.575   1.396   1.802  0.5102  1.0276 -2.5182
   94SOL    HW2  282   1.541   1.563   1.867 -0.8915  2.7160 -0.2594
   95SOL     OW  283   1.480   2.507   2.973  0.5332 -0.1549 -0.5311
   95SOL    HW1  284   1.408   2.543   3.035  0.3620  0.0356  0.4004
   95SOL    HW2  285   1.456   2.413   2.936  0.9998  2.0238  1.4119
   96SOL     OW  286   0.561   2.095   1.304  0.0353 -0.1084 -0.4235
   96SOL    HW1  287   0.498   2.036   1.248 -0.7541  0.8272  0.1098
   96SOL    HW2  288   0.625   2.045   1.371  0.5063 -0.5897 -2.0679
   97SOL     OW  289   0.308   1.627   2.447  0.0419 -0.0673 -0.0770
   97SOL    HW1  290   0.233   1.660   2.380 -0.9644  0.1267  0.8285
   97SOL    HW2  291   0.288   1.641   2.549 -1.1921  0.4238  1.9818
   98SOL     OW  292   2.103   1.607   1.192 -0.3044 -0.5799  0.5572
   98SOL    HW1  293   2.003   1.570   1.198  1.2548 -2.0075  0.1168
   98SOL    HW2  294   2.169   1.548   1.135 -0.6204 -0.3279 -1.2391
   99SOL     OW  295   2.551   2.067   1.303  0.1241  0.1225 -0.4495
   99SOL    HW1  296   2.637   2.032   1.352  0.0955  1.2401  0.2375
   99SOL    HW2  297   2.478   1.995   1.289  0.5681  1.8429  1.3433
  100SOL     OW  298   2.296   0.418   2.091  0.0458  0.2235 -0.5442
  100SOL    HW1  299   2.271   0.345   2.165 -1.2066 -2.3352 -1.9095
  100SOL    HW2  300   2.400   0.446   2.106  0.0610 -1.9667  2.6700
  101SOL     OW  301   0.441   1.501   0.466  0.4834  0.6079 -0.0262
  101SOL    HW1  302   0.470   1.570   0.539  1.5014  0.0717 -1.0277
  101SOL    HW2  303   0.509   1.491   0.389  0.9440 -1.4848 -1.8122
  102SOL     OW  304   2.262   1.065   0.822  0.0018  0.5970  0.5184
  102SOL    HW1  305   2.189   1.027   0.766  1.1036  0.9914  0.3095
  102SOL    HW2  306   2.344   1.106   0.771  0.8949 -1.6689 -1.8643
  103SOL     OW  307   2.214   0.104   0.384  0.2527  0.6589  0.1975
  103SOL    HW1  308   2.234   0.140   0.287  1.4387 -3.0711 -2.2277
  103SOL    HW2  309   2.294   0.085   0.442 -1.8933 -0.5281  1.2767
  104SOL     OW  310   0.082   1.849   2.122 -0.3161  0.8374 -0.4658
  104SOL    HW1  311   0.106   1.829   2.023 -0.3938 -1.0256  1.7672
  104SOL    HW2  312  -0.017   1.860   2.134 -1.2528  0.2533  2.0501
  105SOL     OW  313   1.275   2.110   0.792 -0.0149  0.1312  0.2456
  105SOL    HW1  314   1.340   2.183   0.754  0.7368  2.9057  2.0462
  105SOL    HW2  315   1.199   2.086   0.727 -0.3993 -0.3599  0.6206
  106SOL     OW  316   2.134   0.358   1.403  0.0522 -0.2626  0.3489
  106SOL    HW1  317   2.096   0.262   1.412 -0.0180 -2.0596  1.2268
  106SOL    HW2  318   2.107   0.420   1.480  0.1750  0.5589  1.1601
  107SOL     OW  319   1.913   2.943   1.230 -0.1895  0.0879 -0.0412
  107SOL    HW1  320   1.865   3.024   1.275 -1.3948 -2.6474 -0.6915
  107SOL    HW2  321   1.848   2.885   1.175  2.9403 -1.0638  2.3350
  108SOL     OW  322   0.813   2.803   1.263  0.3588  0.0692 -0.5173
  108SOL    HW1  323   0.823   2.706   1.294 -0.3900  0.7347  1.5905
  108SOL    HW2  324   0.900   2.855   1.252  0.8949  0.1460 -1.6146
  109SOL     OW  325   2.107   0.132   0.753 -0.1145  0.2037 -0.1159
  109SOL    HW1  326   2.011   0.126   0.711  0.2165  0.3489 -0.7195
  109SOL    HW2  327   2.117   0.075   0.840  0.5222  0.1407 -0.4678
  110SOL     OW  328   0.477   2.805   2.757 -0.5170 -0.3340  0.5119
  110SOL    HW1  329   0.454   2.755   2.667  0.5796 -2.3235 -0.5516
  110SOL    HW2  330   0.535   2.748   2.821 -0.8696  2.1005 -2.4140
  111SOL     OW  331   1.250   0.470   2.343 -0.1630  0.0128  0.0423
  111SOL    HW1  332   1.186   0.523   2.406  2.3709 -0.9132 -1.4616
  111SOL    HW2  333   1.323   0.416   2.398  1.0474 -0.5243  0.8457
  112SOL     OW  334   1.758   0.479   1.493 -0.0740 -0.5244  0.1045
  112SOL    HW1  335   1.744   0.474   1.392  2.0574  0.5433  1.0908
  112SOL    HW2  336   1.685   0.440   1.549  3.9989  0.2763 -0.3352
  113SOL     OW  337   2.386   1.621   1.745 -0.5372 -0.1295 -0.5604
  113SOL    HW1  338   2.451   1.537   1.739  1.2001 -2.2199  0.2528
  113SOL    HW2  339   2.393   1.669   1.839  1.8034  2.2804  1.6501
  114SOL     OW  340   0.329   0.542   1.227  0.0260  0.6228 -0.2700
  114SOL    HW1  341   0.371   0.608   1.160 -0.2550  0.7931 -4.2459
  114SOL    HW2  342   0.233   0.571   1.238  2.4744 -1.6320 -0.1953
  115SOL     OW  343   2.758   1.622   1.243  0.2851 -0.4340  1.2403
  115SOL    HW1  344   2.718   1.526   1.275  0.5961 -1.2844  0.3840
  115SOL    HW2  345   2.853   1.616   1.205 -2.5447  2.3438  0.9772
  116SOL     OW  346   1.811   1.037   0.621  0.4633  0.1940  0.0718
  116SOL    HW1  347   1.724   0.990   0.647 -2.5144  2.7621  2.6244
  116SOL    HW2  348   1.833   1.118   0.681  2.2588  1.1614  3.4323
  117SOL     OW  349   1.158   0.372   0.574 -0.9027 -0.7292  0.4614
  117SOL    HW1  350   1.206   0.457   0.551  1.9195 -0.3539  1.7262
  117SOL    HW2  351   1.141   0.313   0.489  1.4037  1.4855  1.8488
  118SOL     OW  352   1.074   1.184   1.133 -0.4145 -0.0614  0.0426
  118SOL    HW1  353   1.061   1.107   1.208  0.4932 -0.8286  2.6745
  118SOL    HW2  354   1.110   1.274   1.175 -1.5460  2.6404 -0.1724
  119SOL     OW  355   1.819   1.572   2.169  0.2673  0.0671  0.4626
  119SOL    HW1  356   1.801   1.674   2.153  0.5313  0.3295 -0.0999
  119SOL    HW2  357   1.901   1.538   2.112 -0.8825  0.0615 -0.1195
  120SOL     OW  358   2.908   2.851   0.244 -0.6858 -0.5503 -0.3990
  120SOL    HW1  359   2.983   2.814   0.179 -1.4175  2.0302 -1.8721
  120SOL    HW2  360   2.823   2.795   0.228  0.0527  2.3854  0.1379
  121SOL     OW  361   1.918   0.728   2.213 -0.3695 -0.4261 -0.1444
  121SOL    HW1  362   1.950   0.784   2.132 -1.4874 -1.3753 -0.5207
  121SOL    HW2  363   1.941   0.626   2.203 -1.3497 -0.7686  1.0286
  122SOL     OW  364   2.676   2.576   1.330 -0.9182 -0.3542 -0.3774
  122SOL    HW1  365   2.702   2.529   1.242 -2.1793 -0.4772  2.3317
  122SOL    HW2  366   2.607   2.528   1.394  1.5007 -2.0702  1.5685
  123SOL     OW  367   1.736   0.044   1.705 -0.7929  0.2510 -0.2079
  123SOL    HW1  368   1.750  -0.047   1.660  1.7780  1.2342  0.3441
  123SOL    HW2  369   1.832   0.097   1.712  1.2409  2.5024 -0.7833
  124SOL     OW  370   0.035   0.449   1.093 -0.8037 -0.2136 -0.7118
  124SOL    HW1  371   0.063   0.512   1.176 -0.2535 -1.5650  1.0221
  124SOL    HW2  372   0.016   0.501   1.008  0.5065 -1.5823 -0.4457
  125SOL     OW  373   0.903   1.898   0.746  0.1972  0.5254  0.3208
  125SOL    HW1  374   0.984   1.831   0.758  1.5702  1.6942 -0.6510
  125SOL    HW2  375   0.825   1.877   0.805  1.9417 -0.8712 -1.6376
  126SOL     OW  376   1.835   2.280   2.414  0.2755  0.2203 -0.1692
  126SOL    HW1  377   1.887   2.238   2.332  2.6800  0.7280  0.8482
  126SOL    HW2  378   1.756   2.216   2.433 -0.7499 -1.5551 -1.0969
  127SOL     OW  379   0.923   0.944   0.177 -0.2642  0.8563  0.0614
  127SOL    HW1  380   0.968   0.990   0.259  1.0798  0.8184 -0.7265
  127SOL    HW2  381   0.939   0.844   0.174  0.0440 -0.4214  1.0964
  128SOL     OW  382   0.907   0.259   1.406 -0.0041  0.7714  0.3079
  128SOL    HW1  383   0.918   0.340   1.345  0.3867  2.9683  1.8364
  128SOL    HW2  384   0.837   0.198   1.372  3.3755  1.7533  2.1871
  129SOL     OW  385   1.865   0.674   1.867 -0.3404 -0.4351 -0.3399
  129SOL    HW1  386   1.857   0.687   1.768  1.8257  0.9808 -1.1652
  129SOL    HW2  387   1.884   0.765   1.918  1.3169  1.7577  1.4793
  130SOL     OW  388   1.423   2.148   1.034 -0.0525  0.2224 -0.4116
  130SOL    HW1  389   1.363   2.125   0.952  0.2127  1.7057  1.1376
  130SOL    HW2  390   1.482   2.231   1.024 -0.7368 -0.3352  0.3464
  131SOL     OW  391   3.024   1.357   1.384  0.6590 -1.2312  0.3587
  131SOL    HW1  392   2.972   1.288   1.441 -1.2929  2.0223 -2.1295
  131SOL    HW2  393   3.126   1.343   1.377 -1.5228 -0.0201 -0.4379
  132SOL     OW  394   2.036   2.418   0.459 -0.1271 -0.1399 -0.0760
  132SOL    HW1  395   1.940   2.445   0.471  0.0001  1.6037 -0.8284
  132SOL    HW2  396   2.082   2.391   0.551 -1.2438 -1.7198 -0.3762
  133SOL     OW  397   1.756   2.343   2.727 -0.1059  0.1732 -0.0892
  133SOL    HW1  398   1.680   2.380   2.669 -0.8575 -2.4812  0.5282
  133SOL    HW2  399   1.839   2.398   2.712 -2.8010  1.4211 -2.7739
  134SOL     OW  400   2.680   2.270   1.594 -0.0408 -0.0051  0.2671
  134SOL    HW1  401   2.605   2.282   1.665 -0.7335  1.0703 -0.3308
  134SOL    HW2  402   2.743   2.353   1.587  1.5081 -1.1788 -2.9737
  135SOL     OW  403   0.724   1.467   2.676 -0.0153  0.2519 -0.1721
  135SOL    HW1  404   0.667   1.390   2.714  1.7022 -0.6963 -1.0182
  135SOL    HW2  405   0.769   1.446   2.581 -1.3663  1.0130 -1.9302
  136SOL     OW  406   1.230   2.031   0.492 -0.3679  0.0396 -0.0983
  136SOL    HW1  407   1.152   2.095   0.476 -1.2279 -1.3948  0.3894
  136SOL    HW2  408   1.209   1.935   0.453  1.9832 -1.1742 -0.3950
  137SOL     OW  409   0.433   1.198   2.249 -0.1611 -0.1079 -0.4075
  137SOL    HW1  410   0.328   1.197   2.275 -3.4004 -0.1782  0.3821
  137SOL    HW2  411   0.476   1.109   2.280  2.6044  1.8985  2.1108
  138SOL     OW  412   2.504   1.506   0.269  0.2081 -0.2258  0.0300
  138SOL    HW1  413   2.415   1.459   0.236 -0.4997 -1.1214  1.0488
  138SOL    HW2  414   2.586   1.438   0.269  0.3211 -1.5785  0.2374
  139SOL     OW  415   1.911   2.625   1.447  0.2508 -0.2597  1.2296
  139SOL    HW1  416   1.833   2.666   1.395  0.0031 -1.7345  3.1663
  139SOL    HW2  417   1.909   2.523   1.443  0.3061  1.6036  1.3597
  140SOL     OW  418   3.024   2.990   2.540  0.0354  0.3619  0.3284
  140SOL    HW1  419   3.077   2.903   2.536  0.3919 -1.0555  1.1895
  140SOL    HW2  420   3.079   3.073   2.508  1.0519  1.7050 -1.3277
  141SOL     OW  421   1.309   1.704   1.647 -0.0798 -0.3609  0.2742
  141SOL    HW1  422   1.215   1.743   1.630  0.6350  3.0823  1.4157
  141SOL    HW2  423   1.310   1.635   1.722  0.5983  0.8474  0.4071
  142SOL     OW  424   1.548   0.585   2.244  0.0948 -0.3838 -0.1177
  142SOL    HW1  425   1.575   0.582   2.144  0.7098  0.7583 -1.1725
  142SOL    HW2  426   1.446   0.572   2.272 -1.2268  0.3402  0.3457
  143SOL     OW  427   2.771   0.908   0.509  0.1506 -0.3730 -0.3784
  143SOL    HW1  428   2.836   0.940   0.435  0.5819  1.9644  0.6691
  143SOL    HW2  429   2.808   0.929   0.609  2.5888  0.9418  1.4952
  144SOL     OW  430   2.888   1.159   1.518  0.6351 -0.5546 -0.2243
  144SOL    HW1  431   2.814   1.152   1.584  1.8136 -0.0063  0.8833
  144SOL    HW2  432   2.967   1.096   1.533 -0.2809  0.6372 -1.7341
  145SOL     OW  433   1.021   1.799   0.118 -0.2082 -0.3689 -0.3326
  145SOL    HW1  434   1.092   1.824   0.051 -2.7442 -0.4586 -0.3464
  145SOL    HW2  435   0.956   1.729   0.081 -2.7260  1.6044  0.7784
  146SOL     OW  436   2.452   0.662   1.513 -0.1520 -0.2871 -0.4611
  146SOL    HW1  437   2.399   0.595   1.450 -2.0636 -0.9195 -2.9400
  146SOL    HW2  438   2.443   0.759   1.485  0.0780  1.6635  1.5730
  147SOL     OW  439   1.102   2.573   0.620 -0.5325 -0.1445 -0.4530
  147SOL    HW1  440   1.043   2.610   0.541 -2.6030  0.8750  0.6777
  147SOL    HW2  441   1.186   2.521   0.589  2.5894 -0.4658 -1.5224
  148SOL     OW  442   1.628   1.439   0.009  0.1742  0.1239  0.0489
  148SOL    HW1  443   1.617   1.352  -0.048 -2.1238 -0.5241 -0.6211
  148SOL    HW2  444   1.614   1.427   0.112  0.4840  0.5416 -0.3496
  149SOL     OW  445   0.645   1.471   1.925  0.2903  0.0381 -0.4884
  149SOL    HW1  446   0.565   1.428   1.975 -0.6662  1.0431 -2.9504
  149SOL    HW2  447   0.696   1.399   1.871 -1.5878  0.9290  1.1548
  150SOL     OW  448   3.028   1.225   0.986 -0.5914  0.3853  0.1429
  150SOL    HW1  449   3.110   1.200   1.047 -1.2897  0.9304  1.0323
  150SOL    HW2  450   2.949   1.158   0.988  1.9635 -3.5121  2.4890
  151SOL     OW  451   0.163   0.704   2.105  0.7152  0.4456 -0.5097
  151SOL    HW1  452   0.151   0.793   2.057  2.3481 -1.1805 -1.1062
  151SOL    HW2  453   0.250   0.653   2.076  0.1430 -0.8325  1.0366
  152SOL     OW  454   1.455   1.783   1.162  0.3700 -0.2251 -0.2001
  152SOL    HW1  455   1.502   1.872   1.183  0.4584  2.4698  1.8935
  152SOL    HW2  456   1.350   1.794   1.165  0.3843 -1.4071 -2.4748
  153SOL     OW  457   0.156   1.555   0.222  0.5022 -0.2855  0.1769
  153SOL    HW1  458   0.112   1.464   0.205 -0.8091  2.5136  0.7490
  153SOL    HW2  459   0.116   1.604   0.304  1.9959 -0.8778 -0.8485
  154SOL     OW  460   2.360   1.909   2.846  0.1445  0.0778 -0.4150
  154SOL    HW1  461   2.386   1.814   2.867  1.4127  0.6533 -2.8197
  154SOL    HW2  462   2.419   1.947   2.767 -0.2566  2.7593 -1.9253
  155SOL     OW  463   2.525   1.137   0.399  0.0576  0.1139  0.2426
  155SOL    HW1  464   2.580   1.155   0.315 -1.6021  1.5816 -0.0987
  155SOL    HW2  465   2.443   1.078   0.380 -2.1366 -1.6369  0.8347
  156SOL     OW  466   2.470   0.847   0.752  0.0298 -0.6240 -0.6772
  156SOL    HW1  467   2.370   0.868   0.765 -0.7654  1.6544 -0.9133
  156SOL    HW2  468   2.500   0.883   0.658  3.7512  1.3490  1.4284
  157SOL     OW  469   1.229   3.004   2.984 -0.0970 -0.3061  0.3844
  157SOL    HW1  470   1.295   2.957   2.919 -2.6471  0.4386  2.2163
  157SOL    HW2  471   1.269   3.091   3.021 -0.3508  1.9927 -0.3908
  158SOL     OW  472   0.978   1.869   1.871  0.3323 -0.6070 -0.5894
  158SOL    HW1  473   1.013   1.964   1.850 -2.0895 -0.5389  1.0588
  158SOL    HW2  474   0.906   1.870   1.947  0.7833 -0.2557 -0.6488
  159SOL     OW  475   0.887   0.451   1.196 -0.4196  0.0107  0.1456
  159SOL    HW1  476   0.841   0.531   1.231  3.1303 -2.0092 -1.7925
  159SOL    HW2  477   0.822   0.390   1.144  0.1721 -1.8277 -0.8935
  160SOL     OW  478   1.367   2.459   1.571  0.2979 -0.4503 -0.0676
  160SOL    HW1  479   1.344   2.370   1.620 -0.4662  0.7521 -1.4469
  160SOL    HW2  480   1.465   2.479   1.577 -2.9890  1.4537 -0.3214
  161SOL     OW  481   3.085   2.870   0.456  0.0596 -1.1068  0.2136
  161SOL    HW1  482   3.049   2.785   0.509 -0.5441 -1.5868  1.4290
  161SOL    HW2  483   3.017   2.883   0.372 -0.3824 -3.4483  0.2896
  162SOL     OW  484   2.587   1.833   0.491 -0.4293 -0.0908  0.1866
  162SOL    HW1  485   2.563   1.813   0.391  2.0895 -1.2140 -1.3680
  162SOL    HW2  486   2.632   1.758   0.543  1.5831 -1.6186 -2.2153
  163SOL     OW  487   1.973   2.717   0.723 -0.1905 -0.0761 -0.1720
  163SOL    HW1  488   1.930   2.718   0.629 -1.0307 -0.1624 -1.1088
  163SOL    HW2  489   2.024   2.629   0.739  0.5657  2.0677  0.3714
  164SOL     OW  490   3.065   0.197   1.275  0.6563  0.6605  0.4760
  164SOL    HW1  491   3.073   0.274   1.209 -1.0950 -2.4930  3.0123
  164SOL    HW2  492   3.146   0.190   1.340 -0.4991  4.1403 -2.0596
  165SOL     OW  493   1.024   1.399   0.752  0.2044  0.3342 -0.4906
  165SOL    HW1  494   0.998   1.457   0.836  3.3907 -0.9971  2.3509
  165SOL    HW2  495   1.031   1.456   0.669  1.4815 -1.0823 -0.6534
  166SOL     OW  496   1.599   1.008   1.807 -0.0435 -0.0392 -0.3572
  166SOL    HW1  497   1.501   1.017   1.837  0.1693  0.7454  0.1321
  166SOL    HW2  498   1.642   1.099   1.822  3.1819 -0.9393 -0.2482
  167SOL     OW  499   0.748   1.975   1.462 -0.6854 -0.2719 -0.2934
  167SOL    HW1  500   0.766   2.051   1.531 -0.5716 -1.1855 -2.1579
  167SOL    HW2  501   0.704   1.892   1.505  2.9327  2.1059 -1.5415
  168SOL     OW  502   1.608   2.346   0.170 -0.2162 -0.2035  0.3843
  168SOL    HW1  503   1.681   2.340   0.098  0.4161 -0.0299  2.3548
  168SOL    HW2  504   1.653   2.311   0.256 -0.7640 -0.3638  0.2784
  169SOL     OW  505   0.187   2.569   2.238 -0.1083 -0.1444 -0.0472
  169SOL    HW1  506   0.216   2.495   2.168  2.0491 -0.2433  1.8833
  169SOL    HW2  507   0.187   2.523   2.332  0.3064  1.2193  2.1693
  170SOL     OW  508   1.111   0.240   2.006 -0.3474  0.5419  0.1908
  170SOL    HW1  509   1.186   0.211   2.075  0.9859  1.9034  2.1357
  170SOL    HW2  510   1.133   0.225   1.908  0.0880 -1.9984 -1.5162
  171SOL     OW  511   0.174   0.793   2.365  0.0870  0.2472  0.3800
  171SOL    HW1  512   0.095   0.840   2.424 -1.8252  1.8475  1.0370
  171SOL    HW2  513   0.152   0.773   2.266 -0.2024 -0.2755 -1.9083
  172SOL     OW  514   0.973   0.979   2.884  0.6762  0.3664  0.3064
  172SOL    HW1  515   0.942   1.041   2.961  1.4783  1.6944 -1.7282
  172SOL    HW2  516   0.913   0.991   2.797  2.0871 -3.6401  0.8979
  173SOL     OW  517   0.555   2.521   0.117 -0.5016 -0.3788 -0.0365
  173SOL    HW1  518   0.538   2.455   0.040  0.0099 -1.8816  1.5700
  173SOL    HW2  519   0.482   2.576   0.162 -0.6963 -1.5959 -2.3710
  174SOL     OW  520   1.518   2.804   1.021 -0.3099  0.2924  0.1588
  174SOL    HW1  521   1.576   2.864   0.954  1.0130  2.0137 -0.1765
  174SOL    HW2  522   1.502   2.715   0.981 -1.0630  4.0418  0.6844
  175SOL     OW  523   0.479   3.056   1.719 -0.2844 -0.2907 -0.2608
  175SOL    HW1  524   0.547   3.024   1.792 -3.0290 -1.4886  0.0311
  175SOL    HW2  525   0.448   3.153   1.729  0.5006 -1.8756 -1.0083
  176SOL     OW  526   2.537   0.379   0.021  0.3047 -0.0348 -0.2382
  176SOL    HW1  527   2.588   0.463   0.066  1.0373  2.1803  1.5728
  176SOL    HW2  528   2.462   0.337   0.077 -1.5204 -1.5406 -0.4421
  177SOL     OW  529   0.301   0.313   0.936 -0.0208 -0.5003  0.2333
  177SOL    HW1  530   0.257   0.223   0.911  0.7021 -0.5690  0.1709
  177SOL    HW2  531   0.229   0.376   0.971 -0.5152 -0.3234  0.8500
  178SOL     OW  532   0.038   2.736   2.597  0.0005 -0.4498  0.4432
  178SOL    HW1  533   0.018   2.637   2.561 -2.8744  0.2571  1.0961
  178SOL    HW2  534   0.087   2.734   2.688 -0.2158 -0.5673  1.9078
  179SOL     OW  535   3.018   1.577   1.160  0.3788 -0.3401 -0.3783
  179SOL    HW1  536   3.039   1.550   1.064  0.4948  0.5058  1.6592
  179SOL    HW2  537   3.027   1.498   1.229  2.3087 -0.3155  1.4977
  180SOL     OW  538   0.188   1.302   1.805  0.1586 -0.1984 -0.3701
  180SOL    HW1  539   0.264   1.248   1.851  0.7587  0.3732 -1.6889
  180SOL    HW2  540   0.176   1.401   1.832  0.5894  2.8830  2.3419
  181SOL     OW  541   3.068   1.918   2.481 -0.6583  0.2736  0.3871
  181SOL    HW1  542   3.109   2.004   2.452 -0.0638  0.8301  1.8820
  181SOL    HW2  543   2.974   1.891   2.437 -3.0243 -0.4239  2.1822
  182SOL     OW  544   2.346   1.219   1.222 -0.3096  0.1895  0.5753
  182SOL    HW1  545   2.281   1.169   1.153  0.3909  0.5910 -3.0345
  182SOL    HW2  546   2.341   1.325   1.211 -2.0818 -2.5770 -1.6842
  183SOL     OW  547   1.413   2.255   2.541  0.4602 -0.2551 -0.1030
  183SOL    HW1  548   1.325   2.204   2.573  1.2082  3.2409  2.6560
  183SOL    HW2  549   1.482   2.193   2.501  0.8561  0.4484 -1.6701
  184SOL     OW  550   2.041   0.951   0.730  0.6512  0.0399  0.2169
  184SOL    HW1  551   1.954   0.968   0.679 -0.3698 -0.2987 -0.8076
  184SOL    HW2  552   2.047   0.849   0.743  2.5851 -2.0138 -1.4777
  185SOL     OW  553   1.574   2.736   1.953  0.0594 -0.2648  0.1675
  185SOL    HW1  554   1.502   2.813   1.942 -0.4594 -0.5466  0.4238
  185SOL    HW2  555   1.614   2.736   2.051  0.3761 -0.6290  1.6185
  186SOL     OW  556   0.106   2.214   1.641 -0.0901 -0.6180 -0.5187
  186SOL    HW1  557   0.082   2.278   1.717 -2.2106  1.5761  0.2424
  186SOL    HW2  558   0.188   2.151   1.655 -0.8998 -0.4524 -0.3575
  187SOL     OW  559   1.386   0.649   1.652 -0.1533 -0.7584  0.0364
  187SOL    HW1  560   1.475   0.709   1.645  3.1195  1.0652  0.6968
  187SOL    HW2  561   1.403   0.572   1.722 -0.3461  0.1496  3.5859
  188SOL     OW  562   2.827   2.760   1.458  0.9353  0.1271  0.8557
  188SOL    HW1  563   2.790   2.853   1.473 -1.7254  0.5380  0.0535
  188SOL    HW2  564   2.765   2.702   1.394  1.1897  1.7988  0.4968
  189SOL     OW  565   0.883   1.212   1.437 -0.9405  0.4838 -0.3557
  189SOL    HW1  566   0.948   1.261   1.499  0.8854  0.0724 -0.9701
  189SOL    HW2  567   0.855   1.279   1.361  0.9939  1.9879 -1.0212
  190SOL     OW  568   1.470   1.919   1.601  0.1479 -0.2131 -0.2548
  190SOL    HW1  569   1.425   1.830   1.628 -1.1686 -1.3489 -1.3252
  190SOL    HW2  570   1.473   1.977   1.685  1.3487  0.5790 -3.2249
  191SOL     OW  571   0.917   0.758   1.495  0.5410  0.1916 -0.1092
  191SOL    HW1  572   0.984   0.706   1.556  0.0592  1.9825  1.3587
  191SOL    HW2  573   0.955   0.827   1.426  0.9161 -1.4859  1.4622
  192SOL     OW  574   1.838   2.341   1.116  0.0191  0.5695 -0.1925
  192SOL    HW1  575   1.751   2.345   1.060 -1.3062  0.7272  0.8792
  192SOL    HW2  576   1.924   2.321   1.066 -1.0240  1.2275  2.7482
  193SOL     OW  577   0.504   0.514   0.421  0.0745 -0.9826 -0.3058
  193SOL    HW1  578   0.448   0.426   0.433  0.4646 -2.3092 -1.5810
  193SOL    HW2  579   0.578   0.504   0.343 -0.9591 -0.2570  0.2154
  194SOL     OW  580   0.349   0.910   1.317  0.0874  0.1331  0.7010
  194SOL    HW1  581   0.311   0.814   1.330 -1.2229  1.3009 -1.1638
  194SOL    HW2  582   0.339   0.947   1.218 -2.5579  3.8449  0.7698
  195SOL     OW  583   1.008   2.908   0.547 -0.3300 -0.0790 -0.1679
  195SOL    HW1  584   0.997   2.815   0.505  4.4086 -0.1915 -0.9969
  195SOL    HW2  585   1.103   2.938   0.536 -0.2588 -1.7157  1.2818
  196SOL     OW  586   0.199   1.373   1.365 -0.1168  0.0264 -0.0207
  196SOL    HW1  587   0.190   1.473   1.392 -1.7653 -1.2051 -1.8777
  196SOL    HW2  588   0.202   1.310   1.448  0.2690  0.2564  0.6567
  197SOL     OW  589   0.817   2.040   0.242 -0.3392 -0.1967  0.2695
  197SOL    HW1  590   0.822   1.975   0.328  4.0028 -2.0808  0.2017
  197SOL    HW2  591   0.790   1.982   0.162  0.4057 -2.7296  2.3511
  198SOL     OW  592   0.328   1.271   0.358  0.8384 -0.7972 -0.2814
  198SOL    HW1  593   0.236   1.288   0.308 -0.4584  1.9844 -1.1383
  198SOL    HW2  594   0.364   1.363   0.403  0.9829 -0.9043 -0.1422
  199SOL     OW  595   2.287   0.436   2.583 -0.0851  0.3144  0.5546
  199SOL    HW1  596   2.234   0.393   2.655  1.8493  2.8171 -2.2563
  199SOL    HW2  597   2.385   0.401   2.584 -1.0804 -0.4122 -0.5595
  200SOL     OW  598   3.077   2.957   0.743  0.2671  0.5796 -0.4827
  200SOL    HW1  599   3.072   3.062   0.749  1.1468 -0.2071  2.1165
  200SOL    HW2  600   3.058   2.913   0.648 -4.3593  2.7347  0.2947
  201SOL     OW  601   1.020   0.685   0.527 -0.0543  0.1086 -0.0722
  201SOL    HW1  602   1.041   0.743   0.610 -2.0349  0.3503 -1.5871
  201SOL    HW2  603   0.924   0.652   0.542 -1.7520 -2.2517  0.4290
  202SOL     OW  604   0.407   1.145   1.925  0.3831  0.2342 -0.6235
  202SOL    HW1  605   0.502   1.120   1.885  3.2467  1.6935  1.2164
  202SOL    HW2  606   0.423   1.216   2.000  2.3116  2.8926 -2.0866
  203SOL     OW  607   0.625   0.192   1.488  0.1415 -0.1602  0.5161
  203SOL    HW1  608   0.642   0.131   1.403  0.9113 -0.9855  3.0153
  203SOL    HW2  609   0.686   0.158   1.567 -2.6734 -2.8436 -0.9041
  204SOL     OW  610   2.105   1.810   2.923  0.1922  0.1486  0.1445
  204SOL    HW1  611   2.091   1.707   2.918  0.1351  0.5239  1.0438
  204SOL    HW2  612   2.183   1.851   2.880 -0.4176  1.1356  3.7790
  205SOL     OW  613   1.847   1.821   3.042 -0.3211  0.3066  0.2736
  205SOL    HW1  614   1.941   1.803   2.998 -0.1742 -0.7976  0.4257
  205SOL    HW2  615   1.815   1.920   3.037  0.2893 -0.6650 -2.3046
  206SOL     OW  616   2.416   2.809   0.353 -0.2209  0.0719  0.2487
  206SOL    HW1  617   2.466   2.723   0.377 -0.4833  0.0290 -0.7874
  206SOL    HW2  618   2.480   2.882   0.324 -0.0674  1.7176 -1.0552
  207SOL     OW  619   0.682   1.809   2.944  0.1528 -0.8803  0.3111
  207SOL    HW1  620   0.767   1.754   2.920  0.8785  0.4489  1.2493
  207SOL    HW2  621   0.621   1.755   3.006  0.4954 -2.4723 -3.3420
  208SOL     OW  622   1.165   1.632   1.365  0.1848  0.8230 -1.1508
  208SOL    HW1  623   1.161   1.682   1.273  0.3593 -1.3689 -1.4952
  208SOL    HW2  624   1.139   1.695   1.442 -2.0269  1.0701 -2.2816
  209SOL     OW  625   0.250   0.952   3.073  0.2947  0.4021  0.5082
  209SOL    HW1  626   0.221   0.875   3.009  0.0935 -0.1702 -0.5488
  209SOL    HW2  627   0.279   0.914   3.169  1.2468 -0.6238  2.4332
  210SOL     OW  628   1.711   0.502   1.178 -0.6193 -0.0500  0.4265
  210SOL    HW1  629   1.670   0.593   1.172  1.3765  0.8360  1.0223
  210SOL    HW2  630   1.815   0.515   1.184 -0.3995  0.4081 -0.8516
  211SOL     OW  631   2.089   1.017   1.597  0.2459 -0.6370 -0.0550
  211SOL    HW1  632   2.149   0.958   1.665  0.2420 -3.4670  1.1881
  211SOL    HW2  633   2.146   1.094   1.554  0.1589 -0.3431 -1.5216
  212SOL     OW  634   0.004   0.980   1.514 -0.3963  0.1577 -0.0358
  212SOL    HW1  635   0.089   1.038   1.533 -3.1549  3.0117  0.5474
  212SOL    HW2  636  -0.000   0.895   1.573  1.9414  1.7425  1.3572
  213SOL     OW  637   2.729   0.163   0.380 -0.7584 -0.2608 -0.4355
  213SOL    HW1  638   2.796   0.126   0.301  0.8722 -1.2689  1.1711
  213SOL    HW2  639   2.635   0.120   0.386 -2.5548  0.5834  0.4244
  214SOL     OW  640   2.198   0.320   2.320 -0.0625  0.0119  0.2470
  214SOL    HW1  641   2.238   0.386   2.389 -1.4072  2.1651  1.1445
  214SOL    HW2  642   2.144   0.247   2.373  0.4136 -0.7626  0.3362
  215SOL     OW  643   1.626   2.298   2.088  0.1802 -0.7027  0.1199
  215SOL    HW1  644   1.729   2.311   2.075  0.9067 -2.3550  1.4298
  215SOL    HW2  645   1.579   2.378   2.139 -0.0879  2.1918  0.1068
  216SOL     OW  646   2.222   0.639   0.670  0.7751 -0.2541 -0.1205
  216SOL    HW1  647   2.196   0.544   0.660 -2.6366  2.7652 -1.0884
  216SOL    HW2  648   2.208   0.689   0.582 -0.1806 -1.0798  0.8455
  217SOL     OW  649   0.773   2.789   2.443  0.3728  0.0342  0.0720
  217SOL    HW1  650   0.780   2.707   2.503  1.0872 -0.7343  0.1849
  217SOL    HW2  651   0.727   2.775   2.350 -0.0540  2.1182 -0.6470
  218SOL     OW  652   1.892   1.442   0.037  0.1376  0.0492  0.6526
  218SOL    HW1  653   1.790   1.461   0.027  1.9146  1.1117 -1.0985
  218SOL    HW2  654   1.918   1.382   0.112 -0.0297  3.3474 -1.2520
  219SOL     OW  655   2.450   1.300   2.514 -0.1284  0.1026 -0.1392
  219SOL    HW1  656   2.466   1.278   2.413  2.1515 -1.0398 -1.7046
  219SOL    HW2  657   2.451   1.216   2.578 -0.7051 -1.7617 -1.5133
  220SOL     OW  658   1.457   1.034   1.321 -0.1864 -0.7590  0.3179
  220SOL    HW1  659   1.554   1.064   1.338 -2.2167 -1.2112 -1.0564
  220SOL    HW2  660   1.417   1.068   1.232 -0.4503  1.5045  2.0267
  221SOL     OW  661   1.278   0.991   2.176 -0.1024  0.1581  0.0822
  221SOL    HW1  662   1.239   0.969   2.083  1.8432  0.3392 -0.1929
  221SOL    HW2  663   1.370   1.041   2.163  1.8223  1.7806 -0.5385
  222SOL     OW  664   1.130   0.099   1.198  0.3015  0.5649  0.0101
  222SOL    HW1  665   1.097   0.155   1.278 -2.2138 -3.0138  0.2451
  222SOL    HW2  666   1.158   0.151   1.114  1.9436  0.7691  1.5924
  223SOL     OW  667   2.705   0.929   2.138 -0.0148  0.4445 -0.1706
  223SOL    HW1  668   2.655   1.001   2.193  1.0585 -1.1520  0.8713
  223SOL    HW2  669   2.799   0.906   2.177 -0.3022 -1.3353  2.2158
  224SOL     OW  670   1.503   1.075   2.734 -0.3099 -0.1032 -0.4030
  224SOL    HW1  671   1.557   0.994   2.688  1.3818 -2.2569 -2.1445
  224SOL    HW2  672   1.475   1.145   2.671 -3.0668 -2.1370  1.6952
  225SOL     OW  673   2.977   2.723   2.881 -0.4176 -0.7749  0.1736
  225SOL    HW1  674   2.908   2.722   2.796 -1.0769 -1.5136 -2.7392
  225SOL    HW2  675   3.077   2.726   2.857  0.2904 -0.4131  1.6771
  226SOL     OW  676   2.447   1.627   2.895 -0.3620  0.0801 -0.4121
  226SOL    HW1  677   2.464   1.592   2.796 -3.6820  3.9935  1.2643
  226SOL    HW2  678   2.396   1.557   2.953 -1.4597  0.0648  1.4902
  227SOL     OW  679   0.829   0.184   3.092 -0.0677  0.5873 -0.2636
  227SOL    HW1  680   0.878   0.265   3.047 -2.3475 -0.2916 -0.3450
  227SOL    HW2  681   0.768   0.140   3.018  2.0785  0.1968  1.0592
  228SOL     OW  682   2.440   0.573   2.873  0.5287 -0.1272 -0.2464
  228SOL    HW1  683   2.464   0.626   2.781 -0.8928 -1.7233 -0.3751
  228SOL    HW2  684   2.503   0.491   2.885  2.0210 -0.7795 -1.2647
  229SOL     OW  685   0.560   0.499   1.819  0.0927 -0.3652 -0.4342
  229SOL    HW1  686   0.587   0.404   1.849  2.7934 -1.2365 -1.1925
  229SOL    HW2  687   0.616   0.520   1.735  1.3797 -1.8848  1.6207
  230SOL     OW  688   1.930   1.161   2.077 -0.2819  0.1147 -0.4225
  230SOL    HW1  689   1.993   1.196   2.002 -1.7123  0.6564  0.5292
  230SOL    HW2  690   1.839   1.211   2.079 -0.2510 -0.1020  0.0614
  231SOL     OW  691   0.634   1.043   0.038 -0.7069  0.1410 -0.5238
  231SOL    HW1  692   0.725   1.098   0.025  2.1967  1.2982  0.0475
  231SOL    HW2  693   0.555   1.105   0.052  0.8002  0.1374 -3.1777
  232SOL     OW  694   2.448   3.080   2.873  0.0179 -0.0639 -0.5099
  232SOL    HW1  695   2.497   2.989   2.885 -1.2695  0.1385  1.3454
  232SOL    HW2  696   2.471   3.114   2.777  0.6815 -2.3040  0.7291
  233SOL     OW  697   1.754   1.209   1.137  1.0922 -0.0470  0.1411
  233SOL    HW1  698   1.782   1.142   1.064  0.5828  1.1601 -0.3926
  233SOL    HW2  699   1.731   1.157   1.225 -0.9786 -2.6081  0.7012
  234SOL     OW  700   1.581   2.485   1.839  0.5858 -0.4882 -0.2897
  234SOL    HW1  701   1.575   2.575   1.888 -1.4666  0.3766 -2.0661
  234SOL    HW2  702   1.599   2.403   1.903 -3.4105 -2.5600  0.9367
  235SOL     OW  703   3.089   3.041   2.801  0.0356 -0.1731 -0.0356
  235SOL    HW1  704   3.036   3.014   2.713 -0.2643 -0.0493  0.7150
  235SOL    HW2  705   3.037   3.078   2.880  1.8095  0.2536 -1.9464
  236SOL     OW  706   2.872   0.742   0.055  0.4382 -0.1220 -0.3008
  236SOL    HW1  707   2.947   0.772   0.123 -0.5476  0.1520 -0.9283
  236SOL    HW2  708   2.891   0.652   0.014 -1.3108 -0.2764  1.9286
  237SOL     OW  709   1.563   1.631   0.965 -0.2453 -0.2522  0.2660
  237SOL    HW1  710   1.667   1.634   0.971  2.1701  2.1884 -1.1185
  237SOL    HW2  711   1.510   1.663   1.048  0.6703 -0.2000 -1.0535
  238SOL     OW  712   1.811   1.247   0.790  0.8455  0.3392 -0.3457
  238SOL    HW1  713   1.842   1.290   0.877  0.7653 -1.0120 -0.8942
  238SOL    HW2  714   1.732   1.298   0.738  0.1977 -1.1690 -3.3076
  239SOL     OW  715   2.110   0.301   2.748  0.3365 -0.5690 -0.0733
  239SOL    HW1  716   2.131   0.240   2.835 -1.1819 -0.2067  1.2059
  239SOL    HW2  717   2.017   0.348   2.748  0.2200 -1.1518 -0.6871
  240SOL     OW  718   0.935   0.683   0.259  0.0665  0.2581 -0.3251
  240SOL    HW1  719   0.969   0.589   0.238  0.1351  1.6352  2.0281
  240SOL    HW2  720   0.929   0.707   0.358 -0.5756  1.3891 -2.5911
  241SOL     OW  721   0.610   0.040   0.398  0.0172  0.3737 -0.5039
  241SOL    HW1  722   0.624   0.108   0.319 -3.5573 -0.6187 -0.7272
  241SOL    HW2  723   0.588  -0.060   0.364 -0.5517 -2.1523 -1.5188
  242SOL     OW  724   0.596   2.476   1.148 -0.3162  0.1091  0.5346
  242SOL    HW1  725   0.606   2.484   1.251  2.4435 -1.2150  0.9401
  242SOL    HW2  726   0.577   2.568   1.102  1.4441 -0.0379 -2.2623
  243SOL     OW  727   1.075   0.600   2.486 -0.3905 -0.0132 -0.0321
  243SOL    HW1  728   0.999   0.621   2.419  0.5713  1.7307 -1.7912
  243SOL    HW2  729   1.048   0.548   2.570  1.0282 -1.0569 -1.2117
  244SOL     OW  730   2.847   1.865   2.347 -0.0731 -0.1530  0.1616
  244SOL    HW1  731   2.862   1.863   2.243 -2.1120  1.1446 -1.9888
  244SOL    HW2  732   2.753   1.836   2.380 -2.2627 -2.1362  4.2430
  245SOL     OW  733   2.220   0.871   2.137 -0.8224  0.2832 -0.3030
  245SOL    HW1  734   2.299   0.883   2.198 -3.6641  0.9435  0.7710
  245SOL    HW2  735   2.144   0.929   2.173 -1.5875  4.2087  0.1968
  246SOL     OW  736   0.225   2.914   1.701  0.4523 -0.2989 -0.0765
  246SOL    HW1  737   0.165   2.943   1.619 -2.8616  1.7485 -2.2044
  246SOL    HW2  738   0.317   2.961   1.697  0.3566  2.1154 -1.7672
  247SOL     OW  739   2.207   0.634   3.001 -0.2464 -0.1396 -0.1608
  247SOL    HW1  740   2.280   0.620   2.923 -0.0271  3.4705  0.0779
  247SOL    HW2  741   2.156   0.726   2.993  0.6438  1.8675 -0.8928
  248SOL     OW  742   2.181   1.831   1.585  0.4207  0.1278 -0.4423
  248SOL    HW1  743   2.252   1.773   1.628 -3.3093 -0.1278  0.6296
  248SOL    HW2  744   2.085   1.820   1.633 -0.2420 -0.0381  0.7779
  249SOL     OW  745   1.894   1.971   1.923  0.4100 -0.2283 -0.1138
  249SOL    HW1  746   1.894   1.919   1.832  0.5086  0.5255 -0.6863
  249SOL    HW2  747   1.993   1.987   1.959  0.1438  2.0243 -2.6621
  250SOL     OW  748   1.081   0.685   1.870 -0.1312 -0.0716  0.1822
  250SOL    HW1  749   1.109   0.623   1.946 -0.5784  0.2617  2.1838
  250SOL    HW2  750   1.084   0.639   1.774  1.3557 -0.4759 -1.8003
  251SOL     OW  751   0.020   1.640   2.548 -0.6283  0.7486 -0.0645
  251SOL    HW1  752  -0.014   1.722   2.490 -0.8798  0.9799 -0.1151
  251SOL    HW2  753  -0.055   1.566   2.549 -1.3941 -0.6583  0.8510
  252SOL     OW  754   1.614   0.805   1.606 -0.0865 -0.2454  1.1743
  252SOL    HW1  755   1.699   0.800   1.541  1.2122 -0.6240 -0.3378
  252SOL    HW2  756   1.628   0.879   1.683 -0.4223  1.7789  0.4373
  253SOL     OW  757   0.986   1.578   0.538 -0.1585  0.0254 -0.7030
  253SOL    HW1  758   0.999   1.519   0.458  0.3946  0.8532  1.1395
  253SOL    HW2  759   0.883   1.604   0.552 -1.4799 -1.2267 -1.6012
  254SOL     OW  760   2.033   2.173   1.623  0.1195 -0.2475 -0.1575
  254SOL    HW1  761   1.984   2.125   1.542 -1.3636 -0.6442 -0.1007
  254SOL    HW2  762   1.968   2.220   1.689 -0.0660 -0.5306 -1.4896
  255SOL     OW  763   0.140   1.146   2.926  0.2055  0.6358 -0.1483
  255SOL    HW1  764   0.179   1.242   2.917 -2.5845 -0.7846 -0.7070
  255SOL    HW2  765   0.204   1.080   2.985 -0.4734 -2.2345 -0.8563
  256SOL     OW  766   2.861   1.419   1.780  0.5535  0.3783  0.6217
  256SOL    HW1  767   2.770   1.471   1.791  0.4674  1.5044 -2.1432
  256SOL    HW2  768   2.851   1.323   1.743 -0.1630 -1.3446 -2.3655
  257SOL     OW  769   0.762   0.140   1.712  0.5644 -0.1749 -0.6938
  257SOL    HW1  770   0.835   0.211   1.695  0.0750  1.2514 -1.3266
  257SOL    HW2  771   0.796   0.056   1.769 -0.7270 -1.2927 -0.6111
  258SOL     OW  772   3.011   1.220   0.434  0.2115  0.2670 -0.4985
  258SOL    HW1  773   2.923   1.273   0.449 -2.6706 -2.9877 -0.5814
  258SOL    HW2  774   3.075   1.220   0.519  0.0715 -2.9634  2.9923
  259SOL     OW  775   0.461   2.920   3.048 -0.2634 -0.3041  0.1615
  259SOL    HW1  776   0.371   2.882   3.074  3.0083  1.1110 -0.6136
  259SOL    HW2  777   0.515   2.862   2.984  0.8895 -1.4185 -1.3922
  260SOL     OW  778   2.739   0.705   2.800  0.3512 -0.6774  0.0963
  260SOL    HW1  779   2.661   0.747   2.747 -2.9199  0.5242  4.6177
  260SOL    HW2  780   2.709   0.649   2.880  0.3705 -0.6673 -1.4805
  261SOL     OW  781   2.681   1.365   1.299 -0.5138 -0.7250  0.7148
  261SOL    HW1  782   2.636   1.294   1.241 -0.9752  1.3789 -1.1031
  261SOL    HW2  783   2.776   1.339   1.333  3.1318  1.5210 -2.5586
  262SOL     OW  784   1.390   2.964   1.966 -0.0388  0.0042 -0.6062
  262SOL    HW1  785   1.441   3.042   1.914  1.8430  1.3796  0.2873
  262SOL    HW2  786   1.286   2.961   1.970 -1.2643 -2.3697 -0.6535
  263SOL     OW  787   0.858   0.662   2.333  0.4060  0.0363 -0.4569
  263SOL    HW1  788   0.795   0.581   2.324  2.0078  0.2608 -1.3486
  263SOL    HW2  789   0.905   0.698   2.249 -1.5748 -0.5278 -3.1720
  264SOL     OW  790   2.237   0.805   0.466 -0.2184 -0.2080  0.2390
  264SOL    HW1  791   2.225   0.755   0.377  0.0600  1.3410  1.2335
  264SOL    HW2  792   2.334   0.838   0.483 -2.4161 -1.0945 -1.5509
  265SOL     OW  793   0.943   2.453   2.609 -0.3900  0.1729  0.5522
  265SOL    HW1  794   1.015   2.511   2.660  1.0475 -1.7593  1.2842
  265SOL    HW2  795   0.936   2.353   2.650 -1.0744  1.9393 -1.8010
  266SOL     OW  796   1.335   1.790   3.031  0.3176  0.8035 -0.3671
  266SOL    HW1  797   1.360   1.828   3.126  1.6672 -0.3949  0.4275
  266SOL    HW2  798   1.422   1.751   2.991 -0.1115 -0.5400 -2.8923
  267SOL     OW  799   1.036   0.026   2.350 -0.1931  0.1446  0.2426
  267SOL    HW1  800   1.022  -0.035   2.267 -2.8532 -1.9575  3.3889
  267SOL    HW2  801   0.973   0.103   2.352  0.6617 -0.3900 -1.8662
  268SOL     OW  802   0.602   1.151   1.052 -0.4208 -0.0352  0.0319
  268SOL    HW1  803   0.639   1.198   1.141  2.0956 -1.1337  1.4902
  268SOL    HW2  804   0.560   1.218   0.992 -0.3100  0.5531  0.1935
  269SOL     OW  805   2.288   2.550   1.615 -0.2354 -0.2262  0.1405
  269SOL    HW1  806   2.349   2.471   1.650 -0.1927 -2.8050  1.2481
  269SOL    HW2  807   2.232   2.603   1.687 -1.8864  0.1487 -0.5938
  270SOL     OW  808   0.152   2.978   1.963 -0.1329 -0.1630  0.0251
  270SOL    HW1  809   0.189   2.940   1.870 -0.0605 -0.7083 -1.2513
  270SOL    HW2  810   0.088   2.910   2.010 -1.8139  0.5121 -1.0435
  271SOL     OW  811   0.419   1.396   1.192 -0.4359 -0.4520 -0.1332
  271SOL    HW1  812   0.369   1.384   1.098 -0.7401  0.6191 -2.0285
  271SOL    HW2  813   0.354   1.382   1.272  0.2138 -2.2501  2.1982
  272SOL     OW  814   2.035   2.922   1.928  0.1532  0.4433 -0.0792
  272SOL    HW1  815   1.949   2.897   1.872 -2.4700  0.1096 -0.2800
  272SOL    HW2  816   2.100   2.971   1.871 -1.8126 -0.4229  3.1606
  273SOL     OW  817   1.491   1.455   2.740  0.0238  0.0718  0.1444
  273SOL    HW1  818   1.391   1.437   2.752  0.7082  0.4351  1.2018
  273SOL    HW2  819   1.543   1.436   2.827  0.6963  2.1320 -1.8946
  274SOL     OW  820   1.196   0.500   2.064 -0.0243  0.1612  0.3006
  274SOL    HW1  821   1.152   0.411   2.031  1.6103 -0.9803  0.5541
  274SOL    HW2  822   1.217   0.490   2.166 -3.2644 -1.4325  0.1079
  275SOL     OW  823   0.619   2.093   1.889 -0.2068  0.1700 -0.2011
  275SOL    HW1  824   0.586   2.184   1.921  3.6785 -0.1435 -1.1199
  275SOL    HW2  825   0.543   2.026   1.867 -0.4546  2.9615  2.1945
  276SOL     OW  826   2.217   1.051   2.756 -0.0059  0.3359  0.3204
  276SOL    HW1  827   2.152   1.123   2.716 -0.6330  1.2956  3.7087
  276SOL    HW2  828   2.168   0.984   2.819 -0.3774  0.4882  2.4374
  277SOL     OW  829   3.082   0.786   0.240 -0.4582 -0.4465  0.2414
  277SOL    HW1  830   3.176   0.803   0.202  0.2055  0.1641 -1.2265
  277SOL    HW2  831   3.074   0.699   0.294  0.7949 -2.1550  1.4092
  278SOL     OW  832   0.244   0.302   2.961 -0.1966 -0.3985 -0.9765
  278SOL    HW1  833   0.321   0.233   2.964  0.2898 -3.0434 -1.5931
  278SOL    HW2  834   0.262   0.397   3.004 -1.2449 -0.8613  0.7040
  279SOL     OW  835   0.221   0.036   0.896  0.7928 -0.6287 -0.3601
  279SOL    HW1  836   0.222   0.007   0.996  1.5327 -1.6091  1.0009
  279SOL    HW2  837   0.260  -0.035   0.832 -1.7004  0.0226 -0.3499
  280SOL     OW  838   1.595   2.944   2.429  0.0330 -0.3924 -0.4648
  280SOL    HW1  839   1.630   2.994   2.512 -1.2598  0.4836  1.3426
  280SOL    HW2  840   1.545   2.997   2.354 -0.5289  0.1261 -1.3356
  281SOL     OW  841   0.587   0.958   2.289  0.2706  0.2198  0.3799
  281SOL    HW1  842   0.570   0.873   2.234  0.0754 -1.1966 -0.8109
  281SOL    HW2  843   0.533   0.959   2.378  0.9646  0.5163  0.6578
  282SOL     OW  844   1.772   2.500   0.507 -0.0017 -0.5152 -0.1742
  282SOL    HW1  845   1.726   2.430   0.441 -0.9310  0.9096 -0.9271
  282SOL    HW2  846   1.745   2.598   0.489  2.1945 -1.5073  0.4954
  283SOL     OW  847   1.230   0.938   0.810  0.0346  0.0493 -0.2682
  283SOL    HW1  848   1.236   0.890   0.903 -3.6385  1.1324  1.7951
  283SOL    HW2  849   1.162   1.018   0.801 -0.5052 -0.5977 -1.0735
  284SOL     OW  850   2.226   2.848   2.521 -0.1180  0.3102 -0.1642
  284SOL    HW1  851   2.326   2.813   2.498  1.6760 -2.4633 -3.8894
  284SOL    HW2  852   2.221   2.915   2.597  1.7380  0.4777 -1.4352
  285SOL     OW  853   1.348   3.036   2.577  0.4086  0.0040  0.6600
  285SOL    HW1  854   1.375   3.020   2.475  1.1837 -0.2371 -3.1194
  285SOL    HW2  855   1.250   3.062   2.596  0.4456  0.5063 -1.0120
  286SOL     OW  856   0.440   0.433   0.724 -0.0518 -0.0804  0.4411
  286SOL    HW1  857   0.412   0.362   0.793  0.6971  2.6888 -1.0041
  286SOL    HW2  858   0.419   0.418   0.625  0.7141 -0.5241  0.0421
  287SOL     OW  859   0.091   1.258   2.489 -0.2341  0.1997  0.2242
  287SOL    HW1  860   0.047   1.178   2.545 -0.0829 -0.8790  1.0131
  287SOL    HW2  861   0.093   1.350   2.528  0.9719 -2.7418 -0.4168
  288SOL     OW  862   1.584   2.638   1.613 -0.1206  1.1239 -0.7290
  288SOL    HW1  863   1.588   2.564   1.694 -1.8938 -2.1876  3.0486
  288SOL    HW2  864   1.621   2.600   1.522 -0.4286 -0.7286  1.6170
  289SOL     OW  865   0.613   2.748   0.862 -0.2347  0.1060 -0.1118
  289SOL    HW1  866   0.653   2.823   0.796 -1.4611 -0.3877 -1.7753
  289SOL    HW2  867   0.583   2.784   0.954 -1.9411 -0.3265  0.4968
  290SOL     OW  868   2.798   1.133   1.802  0.2225  0.2145  0.4390
  290SOL    HW1  869   2.734   1.053   1.785  0.6085 -0.7411  0.4350
  290SOL    HW2  870   2.884   1.098   1.855  2.8672 -3.4659 -0.4994
  291SOL     OW  871   1.992   0.017   0.026 -0.8001 -0.2011  0.4567
  291SOL    HW1  872   2.007   0.055   0.122  2.7693  1.9477 -2.1530
  291SOL    HW2  873   2.055   0.052  -0.048  2.6191 -2.3044  1.0671
  292SOL     OW  874   3.008   1.212   3.075  0.2905  0.0995  0.0882
  292SOL    HW1  875   2.936   1.265   3.022 -1.8378  2.2844 -1.0705
  292SOL    HW2  876   3.082   1.166   3.014  1.0026 -0.9043 -2.6201
  293SOL     OW  877   0.560   2.166   0.281 -0.3631  0.6956  0.4807
  293SOL    HW1  878   0.513   2.255   0.323  0.9378  1.6945 -1.0611
  293SOL    HW2  879   0.658   2.156   0.315  1.0199  0.5940 -0.8516
  294SOL     OW  880   1.818   2.287   1.772 -0.7234  0.2744  0.2143
  294SOL    HW1  881   1.850   2.308   1.867  2.1630  1.7100 -1.0864
  294SOL    HW2  882   1.753   2.354   1.725  3.0060  0.1771  1.1320
  295SOL     OW  883   0.980   1.049   0.420  0.0883 -0.2528 -0.4187
  295SOL    HW1  884   1.078   1.033   0.453 -0.8963 -0.6649 -1.3227
  295SOL    HW2  885   0.914   1.060   0.507 -0.9932 -0.1519  2.4982
  296SOL     OW  886   1.195   2.117   2.624 -0.2040  0.4404  1.0803
  296SOL    HW1  887   1.091   2.139   2.643 -1.4430 -0.6433 -0.0822
  296SOL    HW2  888   1.199   2.035   2.559 -1.3172  0.2740  2.1988
  297SOL     OW  889   1.367   0.626   1.307 -0.7553  0.0193 -0.2334
  297SOL    HW1  890   1.396   0.559   1.382  0.5858 -3.4704 -0.3205
  297SOL    HW2  891   1.447   0.658   1.246 -2.2356 -0.5073  0.1569
  298SOL     OW  892   0.488   1.373   2.982 -0.2684  0.2308  0.3436
  298SOL    HW1  893   0.455   1.308   3.058  0.3577  1.1239 -1.3386
  298SOL    HW2  894   0.546   1.330   2.912 -2.0177 -1.3703 -2.3799
  299SOL     OW  895   0.462   0.286   1.239 -0.3640  0.1636  0.4896
  299SOL    HW1  896   0.396   0.359   1.202  2.4018 -0.4051  0.3925
  299SOL    HW2  897   0.468   0.293   1.343  0.3814 -0.6203  2.7032
  300SOL     OW  898   1.271   1.685   2.658  0.3180 -0.0112 -0.3188
  300SOL    HW1  899   1.263   1.589   2.627  1.7575 -0.5074 -1.7500
  300SOL    HW2  900   1.327   1.698   2.747 -1.2238 -1.2349 -1.1224
  301SOL     OW  901   0.364   0.299   0.476  0.0791  0.4132 -0.0475
  301SOL    HW1  902   0.263   0.267   0.493 -0.4667 -2.9652 -0.8093
  301SOL    HW2  903   0.434   0.220   0.494 -0.9606 -0.9779 -0.4347
  302SOL     OW  904   1.263   2.423   2.363 -1.0193  0.1022  0.0475
  302SOL    HW1  905   1.162   2.434   2.389  0.8510 -0.3714 -2.0399
  302SOL    HW2  906   1.319   2.382   2.438 -0.8483 -1.0210  0.7647
  303SOL     OW  907   0.933   2.412   0.783 -0.6454  0.3071 -0.0366
  303SOL    HW1  908   0.968   2.478   0.715 -0.4786  2.7709 -0.1738
  303SOL    HW2  909   0.967   2.436   0.877 -2.1743 -0.4603 -1.5860
  304SOL     OW  910   0.096   1.954   0.688 -0.1011 -0.3221  0.3811
  304SOL    HW1  911   0.181   1.962   0.628 -3.2618  1.1754 -0.4364
  304SOL    HW2  912   0.009   2.001   0.648 -1.2368 -0.0207 -0.8168
  305SOL     OW  913   1.581   0.841   0.667  0.2571  0.6020  0.7833
  305SOL    HW1  914   1.544   0.835   0.566 -0.3704 -1.4532  1.4166
  305SOL    HW2  915   1.626   0.750   0.679 -1.1229  0.1461 -0.0726
  306SOL     OW  916   0.433   1.873   1.875 -0.8788  0.1559 -0.7086
  306SOL    HW1  917   0.513   1.805   1.855 -0.1559 -0.9152 -0.8646
  306SOL    HW2  918   0.429   1.897   1.980 -0.0717  1.4665  0.8042
  307SOL     OW  919   3.079   0.886   2.517  0.1019  0.0903  0.2054
  307SOL    HW1  920   3.105   0.931   2.606 -0.1678  0.7885 -0.9945
  307SOL    HW2  921   3.018   0.806   2.530 -1.2397  0.9665 -0.5268
  308SOL     OW  922   1.589   2.696   2.795  0.6450  0.2076  0.2965
  308SOL    HW1  923   1.579   2.626   2.716  2.3299  0.9157 -2.5612
  308SOL    HW2  924   1.526   2.666   2.870  0.8759 -1.0464  0.3221
  309SOL     OW  925   1.249   0.189   1.772 -0.1131 -0.4091 -0.0464
  309SOL    HW1  926   1.334   0.134   1.795  1.5443  0.9207 -0.1481
  309SOL    HW2  927   1.216   0.167   1.678  0.1071  1.0353  1.7139
  310SOL     OW  928   1.541   2.565   0.694  0.4855  0.4616 -0.2382
  310SOL    HW1  929   1.493   2.595   0.779 -0.3764 -1.4146  0.0759
  310SOL    HW2  930   1.592   2.643   0.643 -0.0802 -2.4881  0.3964
  311SOL     OW  931   1.144   0.908   1.729 -0.2400  0.1900  0.5762
  311SOL    HW1  932   1.121   0.822   1.786  0.2010  1.7178 -0.1281
  311SOL    HW2  933   1.170   0.886   1.631 -2.5833  0.4812  1.5002
  312SOL     OW  934   1.566   0.745   1.135  0.0245 -0.2758 -0.3814
  312SOL    HW1  935   1.620   0.836   1.119  0.2141  1.9760 -0.8119
  312SOL    HW2  936   1.510   0.718   1.047 -1.8397 -1.4332 -1.1068
  313SOL     OW  937   1.596   1.400   0.709  0.0529 -0.4467 -0.0315
  313SOL    HW1  938   1.524   1.420   0.782  1.1050  1.6697  1.8835
  313SOL    HW2  939   1.582   1.316   0.654 -0.1293  2.2952  3.8221
  314SOL     OW  940   2.966   0.029   3.046  0.1386 -0.1526 -0.4277
  314SOL    HW1  941   2.966   0.054   3.147  1.9052  2.9507 -1.3137
  314SOL    HW2  942   2.892  -0.039   3.024 -0.1509 -1.2532 -1.1538
  315SOL     OW  943   1.108   0.235   2.798  0.2002  0.1354 -0.2700
  315SOL    HW1  944   1.112   0.150   2.733  2.4474 -1.2108 -0.1708
  315SOL    HW2  945   1.151   0.219   2.890 -1.6003  0.1243 -1.6295
  316SOL     OW  946   1.748   2.059   0.938 -0.4820 -0.0092 -0.6858
  316SOL    HW1  947   1.723   2.078   1.036 -1.1031  1.3124  1.3678
  316SOL    HW2  948   1.727   2.144   0.882 -1.5653 -1.7618  0.8685
  317SOL     OW  949   1.203   0.653   2.835  0.1847 -0.3111 -0.2099
  317SOL    HW1  950   1.128   0.681   2.906  2.3873 -1.6065 -1.5079
  317SOL    HW2  951   1.176   0.575   2.781  0.0943 -2.0263  2.8472
  318SOL     OW  952   1.427   3.040   2.238  0.1151  0.8452  0.2298
  318SOL    HW1  953   1.408   3.143   2.239  0.0898  0.9456 -0.4631
  318SOL    HW2  954   1.425   3.006   2.139  1.6817  1.4241 -0.5963
  319SOL     OW  955   0.579   2.394   2.907 -0.1272 -0.7458  0.4534
  319SOL    HW1  956   0.544   2.319   2.970 -1.0830 -4.2541  0.3830
  319SOL    HW2  957   0.670   2.372   2.859  3.0755  0.1858 -2.6114
  320SOL     OW  958   1.707   2.235   0.420  0.6578  0.4106 -0.2428
  320SOL    HW1  959   1.777   2.164   0.379 -0.0607 -0.0773  0.6428
  320SOL    HW2  960   1.625   2.191   0.461 -0.7040 -2.4454 -0.4837
  321SOL     OW  961   1.677   2.776   0.556  0.0592 -0.4438 -0.1621
  321SOL    HW1  962   1.601   2.827   0.510 -1.3276  0.0658 -2.2546
  321SOL    HW2  963   1.766   2.813   0.527 -1.7731  0.0829  1.7453
  322SOL     OW  964   2.600   1.125   2.322  0.0969 -0.3281  0.7025
  322SOL    HW1  965   2.651   1.173   2.406  0.9587  0.2704  2.2569
  322SOL    HW2  966   2.541   1.043   2.354  0.4464 -1.2003 -0.7737
  323SOL     OW  967   1.165   2.683   0.844 -0.3774 -0.1779  0.3397
  323SOL    HW1  968   1.140   2.640   0.751  1.6588  0.7199 -1.7316
  323SOL    HW2  969   1.111   2.763   0.865  1.8664 -0.2110 -0.9095
  324SOL     OW  970   0.267   2.487   2.510  0.1390  0.4499 -0.1199
  324SOL    HW1  971   0.262   2.438   2.599 -0.2814  1.1110  1.2742
  324SOL    HW2  972   0.309   2.582   2.515 -0.0277  2.6049 -0.0247
  325SOL     OW  973   1.247   3.007   0.447 -0.2091 -1.0094  0.0307
  325SOL    HW1  974   1.280   3.058   0.363  0.0866  0.7059  1.0420
  325SOL    HW2  975   1.265   3.059   0.533 -1.7423 -0.8958  1.5143
  326SOL     OW  976   2.438   0.776   3.096  0.2628  0.0530  0.1497
  326SOL    HW1  977   2.400   0.708   3.028 -0.9179 -0.7770  0.2745
  326SOL    HW2  978   2.508   0.732   3.150  0.1164  2.8923  0.4030
  327SOL     OW  979   2.816   0.322   0.579  0.3303  0.3440 -0.5824
  327SOL    HW1  980   2.776   0.257   0.501  0.8593 -2.2778 -0.7796
  327SOL    HW2  981   2.821   0.259   0.660 -2.1727 -0.6345 -0.3370
  328SOL     OW  982   2.597   0.598   0.408 -0.0071  0.5512  0.1137
  328SOL    HW1  983   2.544   0.674   0.454  1.9126  0.8490  1.2879
  328SOL    HW2  984   2.600   0.516   0.465  0.5922  1.8054  0.0612
  329SOL     OW  985   2.922   2.949   2.159 -0.1752  0.4450  0.0482
  329SOL    HW1  986   3.011   2.909   2.197 -1.5909 -1.0367 -2.0175
  329SOL    HW2  987   2.908   3.048   2.181  0.9116 -2.3952  2.4351
  330SOL     OW  988   0.556   0.199   1.905  0.4119 -0.2469  0.7089
  330SOL    HW1  989   0.629   0.195   1.825  0.5341  0.8052  0.5553
  330SOL    HW2  990   0.591   0.183   2.005 -0.3099  0.8010  0.6768
  331SOL     OW  991   3.009   1.944   1.096  0.0433 -0.2025 -0.1347
  331SOL    HW1  992   2.969   1.964   1.004  1.8927 -1.9369 -0.1470
  331SOL    HW2  993   2.943   1.942   1.180 -1.3725 -0.8545  0.0671
  332SOL     OW  994   0.402   1.198   0.090  0.0335  0.2039  0.0342
  332SOL    HW1  995   0.327   1.126   0.099 -2.6565 -1.5904  2.8678
  332SOL    HW2  996   0.410   1.239   0.183  1.9307  0.1056 -0.3549
  333SOL     OW  997   2.939   1.024   0.256  0.2175 -0.5757  0.0829
  333SOL    HW1  998   2.962   1.106   0.316  0.6403 -1.4192  5.0057
  333SOL    HW2  999   3.000   0.939   0.277 -0.1805 -4.1082  1.4408
  334SOL     OW 1000   1.694   1.272   1.806 -0.0950 -0.0953 -0.2690
  334SOL    HW1 1001   1.764   1.268   1.729 -3.6096 -3.0123 -0.2329
  334SOL    HW2 1002   1.736   1.293   1.900 -0.1054 -0.9622 -1.6690
  335SOL     OW 1003   1.981   2.732   2.570 -1.0566  0.3602 -0.2757
  335SOL    HW1 1004   1.947   2.744   2.671 -0.1367 -1.4910  1.6661
  335SOL    HW2 1005   2.083   2.760   2.560  1.8409 -0.7705  0.6249
  336SOL     OW 1006   0.244   0.077   2.727 -0.3632 -0.2888  0.3875
  336SOL    HW1 1007   0.300   0.093   2.813  2.0381 -1.4246 -0.3310
  336SOL    HW2 1008   0.169   0.011   2.750  0.9240  1.7397  0.2859
  337SOL     OW 1009   0.985   2.872   2.901 -0.2163  0.3615  0.4008
  337SOL    HW1 1010   0.911   2.834   2.966 -1.3258 -1.0172  1.2825
  337SOL    HW2 1011   1.046   2.935   2.947  0.2651 -0.3112 -0.0783
  338SOL     OW 1012   0.074   1.017   0.679 -0.0233 -0.2828  0.2796
  338SOL    HW1 1013  -0.027   0.994   0.689 -0.2852 -1.3205 -0.5313
  338SOL    HW2 1014   0.099   1.118   0.691 -0.0522 -1.5484  1.1540
  339SOL     OW 1015   1.709   1.310   2.115 -0.2709 -0.5484  0.3206
  339SOL    HW1 1016   1.616   1.359   2.100  0.3497 -0.6749  3.3161
  339SOL    HW2 1017   1.770   1.374   2.174 -2.6528  3.9641 -1.2489
  340SOL     OW 1018   2.287   0.757   1.160  0.0628 -0.5915  0.0002
  340SOL    HW1 1019   2.188   0.752   1.126 -2.6509 -0.5363 -0.2769
  340SOL    HW2 1020   2.342   0.673   1.137  0.7078  0.5554  0.8459
  341SOL     OW 1021   1.922   2.089   0.294  0.1280  0.1086  0.1606
  341SOL    HW1 1022   1.965   2.134   0.208  0.2216  0.1303 -0.7555
  341SOL    HW2 1023   1.984   2.095   0.377  0.6236 -0.1578 -0.4188
  342SOL     OW 1024   2.179   2.143   2.790 -0.3375  0.1829 -0.2105
  342SOL    HW1 1025   2.219   2.060   2.834 -0.8428 -1.1006  1.1317
  342SOL    HW2 1026   2.076   2.145   2.802  0.0072  3.1735  2.4484
  343SOL     OW 1027   0.383   0.822   2.793  0.5807 -0.2035 -0.3385
  343SOL    HW1 1028   0.433   0.824   2.703 -0.4547  1.9597  0.5468
  343SOL    HW2 1029   0.453   0.830   2.871  0.1657 -1.4481  3.3046
  344SOL     OW 1030   1.908   1.479   0.438 -0.2434  0.4454  0.3600
  344SOL    HW1 1031   1.912   1.403   0.366 -1.3936  1.8185  0.2143
  344SOL    HW2 1032   1.809   1.505   0.460 -1.4910 -1.7684 -0.5484
  345SOL     OW 1033   1.398   2.253   2.885 -0.7358  0.0746 -0.2899
  345SOL    HW1 1034   1.326   2.267   2.812  0.8140  0.7178 -0.9887
  345SOL    HW2 1035   1.474   2.180   2.868  1.2823 -0.1917 -0.8184
  346SOL     OW 1036   2.357   0.891   1.388 -0.2206  0.1001  0.0242
  346SOL    HW1 1037   2.292   0.962   1.421  1.3862 -0.6320 -2.8968
  346SOL    HW2 1038   2.319   0.851   1.299 -1.0550  0.0883 -0.9045
  347SOL     OW 1039   0.754   2.736   1.614  0.0683  0.1195  0.0385
  347SOL    HW1 1040   0.691   2.721   1.698 -0.2327 -0.3447  0.8990
  347SOL    HW2 1041   0.702   2.779   1.540  0.8591 -0.3306  0.6160
  348SOL     OW 1042   0.157   0.720   2.920 -0.2619  0.1403  0.3773
  348SOL    HW1 1043   0.064   0.717   2.871 -3.3154 -0.2573  0.2663
  348SOL    HW2 1044   0.236   0.730   2.859 -1.2601  0.7848 -1.5300
  349SOL     OW 1045   1.872   0.439   2.775 -0.4145  0.6538 -0.1967
  349SOL    HW1 1046   1.871   0.515   2.706  0.8120 -0.8339  0.7816
  349SOL    HW2 1047   1.862   0.471   2.872  0.4509 -2.3933  1.5523
  350SOL     OW 1048   1.647   0.411   0.393 -0.0395 -0.0769  0.0479
  350SOL    HW1 1049   1.700   0.387   0.482 -0.9421 -2.1353 -0.5877
  350SOL    HW2 1050   1.661   0.510   0.362  1.7992  0.1046  0.6792
  351SOL     OW 1051   0.984   0.818   2.103 -0.1812  0.1940 -0.3025
  351SOL    HW1 1052   0.954   0.917   2.119 -1.2311  1.4244  1.8687
  351SOL    HW2 1053   1.000   0.787   2.006  1.2040  1.0315  1.1069
  352SOL     OW 1054   2.074   1.341   0.654  0.0279 -0.2691 -0.2507
  352SOL    HW1 1055   2.034   1.411   0.593  3.1253  1.1423 -1.4685
  352SOL    HW2 1056   2.010   1.316   0.730  4.8027  1.1169  1.0051
  353SOL     OW 1057   2.165   2.807   1.096  0.9500 -0.3426 -0.2340
  353SOL    HW1 1058   2.231   2.776   1.170  0.5270  2.0930 -1.1863
  353SOL    HW2 1059   2.081   2.747   1.083 -0.4120  2.1671 -3.0438
  354SOL     OW 1060   0.243   1.378   2.858  0.6637  0.0509 -0.3083
  354SOL    HW1 1061   0.231   1.466   2.803  0.4443  2.9778  0.3674
  354SOL    HW2 1062   0.338   1.372   2.908  2.4191  3.5077  0.3060
  355SOL     OW 1063   0.727   1.602   0.560  0.2352 -0.0643  0.2445
  355SOL    HW1 1064   0.742   1.534   0.637 -1.4110  1.9038  2.7020
  355SOL    HW2 1065   0.716   1.558   0.466 -0.2927  1.7692  1.0784
  356SOL     OW 1066   0.799   0.329   2.048  0.4256 -0.2758 -0.2162
  356SOL    HW1 1067   0.860   0.247   2.064 -0.9136  1.2495 -0.1616
  356SOL    HW2 1068   0.830   0.387   1.967 -0.5808 -2.6390  3.5327
  357SOL     OW 1069   0.977   1.324   0.325 -0.8659  0.0980  0.4811
  357SOL    HW1 1070   1.073   1.342   0.286  0.3755 -1.2147 -0.3617
  357SOL    HW2 1071   0.966   1.227   0.371 -0.0929 -2.2496  0.2903
  358SOL     OW 1072   1.649   1.540   0.468 -0.1287  0.5544  0.0374
  358SOL    HW1 1073   1.605   1.510   0.557  0.1693 -1.1888  2.8040
  358SOL    HW2 1074   1.615   1.489   0.381  0.3131 -3.4977 -1.5366
  359SOL     OW 1075   1.576   2.619   0.223  0.3534  0.0723  0.1118
  359SOL    HW1 1076   1.575   2.519   0.183  0.7076 -2.2616  1.7648
  359SOL    HW2 1077   1.517   2.630   0.304  0.1275 -1.3380  0.7676
  360SOL     OW 1078   0.776   0.567   0.531 -0.8965 -0.1799 -0.1470
  360SOL    HW1 1079   0.674   0.575   0.535  0.3485  1.7580  1.9587
  360SOL    HW2 1080   0.808   0.480   0.564 -0.3575  1.2812  2.2506
  361SOL     OW 1081   1.279   1.298   0.667  0.5418 -0.2794  0.1382
  361SOL    HW1 1082   1.334   1.362   0.727  0.4127 -0.1395  0.9340
  361SOL    HW2 1083   1.185   1.336   0.657  0.7212  0.3143 -1.2655
  362SOL     OW 1084   1.383   1.785   0.797  0.0233 -0.4646 -0.3785
  362SOL    HW1 1085   1.449   1.737   0.860  0.4710 -1.1407 -2.1232
  362SOL    HW2 1086   1.421   1.873   0.760 -1.0841 -0.5904 -1.3845
  363SOL     OW 1087   1.241   1.347   2.049  0.3900  0.1174 -0.0713
  363SOL    HW1 1088   1.331   1.393   2.069 -1.5971 -0.0801 -1.1881
  363SOL    HW2 1089   1.186   1.417   1.999  0.2392  0.6943  4.5881
  364SOL     OW 1090   0.511   2.351   1.993  0.0634  0.5137  0.1037
  364SOL    HW1 1091   0.424   2.407   1.971 -1.9946 -0.4103 -0.3026
  364SOL    HW2 1092   0.597   2.380   1.943 -2.8513 -0.9673 -2.4970
  365SOL     OW 1093   0.992   1.978   1.324  0.6228 -0.0975 -0.1550
  365SOL    HW1 1094   0.896   1.971   1.363  2.3192 -2.0246  1.2191
  365SOL    HW2 1095   0.995   2.016   1.227 -0.8323  0.3730 -1.6549
  366SOL     OW 1096   2.848   1.962   0.394  0.2350  0.0037  0.1310
  366SOL    HW1 1097   2.748   1.948   0.390 -0.1496  0.9962 -2.9058
  366SOL    HW2 1098   2.900   1.887   0.345 -1.0250  0.3957  4.9228
  367SOL     OW 1099   0.899   1.140  -0.003  0.5242 -0.0267  0.6374
  367SOL    HW1 1100   0.901   1.062   0.066  3.1557 -1.6086  2.5005
  367SOL    HW2 1101   0.976   1.206   0.014  2.3137 -1.9140 -0.9337
  368SOL     OW 1102   1.456   0.545   0.638 -0.4831  0.3416 -0.5458
  368SOL    HW1 1103   1.403   0.574   0.557  2.8358  3.9024 -1.0512
  368SOL    HW2 1104   1.550   0.578   0.644 -0.7082 -0.1674 -0.5468
  369SOL     OW 1105   0.373   1.675   0.127  0.1244  0.1110  0.6081
  369SOL    HW1 1106   0.408   1.746   0.198  1.3089  0.7018 -2.4022
  369SOL    HW2 1107   0.280   1.634   0.156 -0.1272  1.1853 -0.7227
  370SOL     OW 1108   0.441   2.043   1.058  0.3805  0.6096  0.7345
  370SOL    HW1 1109   0.452   2.147   1.065 -0.8993 -0.9999  1.6649
  370SOL    HW2 1110   0.344   2.024   1.038  0.3805  3.0116 -0.1488
  371SOL     OW 1111   2.911   2.214   2.632  0.1888  0.3784 -0.5257
  371SOL    HW1 1112   2.853   2.177   2.706  1.8584  0.3179  0.8956
  371SOL    HW2 1113   3.004   2.231   2.665  0.1877 -0.9281 -1.3537
  372SOL     OW 1114   1.030   2.018   1.059 -0.3030  0.3630 -0.2343
  372SOL    HW1 1115   0.958   2.082   1.019  0.5286 -0.2856  0.5294
  372SOL    HW2 1116   1.106   1.996   0.990 -0.4617 -0.9865 -0.3127
  373SOL     OW 1117   1.968   1.941   0.835 -0.2276  0.0396  0.7887
  373SOL    HW1 1118   2.039   1.953   0.910  0.2066  0.8502 -0.4549
  373SOL    HW2 1119   1.887   2.001   0.866 -0.0867  0.5408 -2.3597
  374SOL     OW 1120   1.862   0.385   0.563  0.2898 -0.0164  0.1321
  374SOL    HW1 1121   1.887   0.348   0.661  0.2692 -0.4643 -2.2052
  374SOL    HW2 1122   1.940   0.415   0.509 -3.0774 -0.8575  1.3106
  375SOL     OW 1123   2.406   2.151   1.072  0.5995 -0.0817  0.2956
  375SOL    HW1 1124   2.444   2.127   0.980  0.3740  0.9108  0.9119
  375SOL    HW2 1125   2.472   2.129   1.148 -1.6142 -1.4148 -0.9618
  376SOL     OW 1126   3.029   0.554   1.501 -0.3415 -0.4055 -0.5968
  376SOL    HW1 1127   3.058   0.615   1.582 -2.6844 -1.3968  2.9014
  376SOL    HW2 1128   2.925   0.546   1.489  0.7198 -1.7537 -0.4444
  377SOL     OW 1129   2.158   2.913   0.293 -0.0804 -0.4093  0.2220
  377SOL    HW1 1130   2.117   3.008   0.277 -1.0960  1.4071  0.6231
  377SOL    HW2 1131   2.257   2.912   0.320 -0.5525 -0.9331  2.8513
  378SOL     OW 1132   1.769   1.844   2.596 -0.5404 -0.3981 -0.8512
  378SOL    HW1 1133   1.794   1.828   2.696 -0.6724 -0.9000 -0.6021
  378SOL    HW2 1134   1.765   1.767   2.530 -0.5073 -0.4244 -0.4924
  379SOL     OW 1135   0.691   0.101   2.860 -0.2885  0.4261 -0.7109
  379SOL    HW1 1136   0.657   0.020   2.801 -1.3812 -1.5886 -2.0925
  379SOL    HW2 1137   0.748   0.170   2.810  0.4805  0.2317  1.3441
  380SOL     OW 1138   1.518   1.151   0.624 -0.0404  0.0968  0.0609
  380SOL    HW1 1139   1.424   1.192   0.612 -0.6878  2.7377 -2.0487
  380SOL    HW2 1140   1.512   1.052   0.656 -0.8560 -0.4748 -0.9574
  381SOL     OW 1141   1.348   1.166   1.531  0.0376 -0.1170  0.3591
  381SOL    HW1 1142   1.384   1.119   1.446 -1.3791 -1.3999  2.0581
  381SOL    HW2 1143   1.427   1.189   1.593  1.2224  2.9635 -0.0924
  382SOL     OW 1144   1.786   0.875   0.183  0.1795  0.1790  0.1100
  382SOL    HW1 1145   1.830   0.868   0.088  2.2993  3.0811  0.4459
  382SOL    HW2 1146   1.858   0.868   0.260  1.0731  0.7562 -1.1877
  383SOL     OW 1147   2.587   1.006   1.466 -0.1079 -0.2522  0.7391
  383SOL    HW1 1148   2.496   0.958   1.444 -1.6684  2.5545 -0.2331
  383SOL    HW2 1149   2.655   1.003   1.382  1.8975  0.7324 -3.3579
  384SOL     OW 1150   0.982   2.245   0.147 -0.3244 -0.5047  0.6703
  384SOL    HW1 1151   0.952   2.336   0.188  1.1040 -1.8711  0.9755
  384SOL    HW2 1152   0.932   2.164   0.188 -2.5048  1.2261 -2.0425
  385SOL     OW 1153   3.002   2.044   1.644 -0.9664 -0.4914 -0.0386
  385SOL    HW1 1154   3.084   2.107   1.626 -0.2136  1.9234 -1.9410
  385SOL    HW2 1155   3.043   1.951   1.654  0.5618  0.4403  0.0803
  386SOL     OW 1156   0.497   1.073   0.428  0.4689 -0.0166  0.0317
  386SOL    HW1 1157   0.465   0.978   0.447  1.3486  1.2325  0.4642
  386SOL    HW2 1158   0.424   1.144   0.414 -1.2399  1.2590  1.4056
  387SOL     OW 1159   0.975   0.306   1.683 -0.3818  0.6125 -0.2185
  387SOL    HW1 1160   1.025   0.397   1.693  1.6286  1.9325  0.1088
  387SOL    HW2 1161   0.947   0.283   1.586  0.1628  1.5626  1.1434
  388SOL     OW 1162   1.209   2.687   1.743  0.2485  0.0488  0.3708
  388SOL    HW1 1163   1.239   2.701   1.647  1.3827  1.8421  1.9418
  388SOL    HW2 1164   1.255   2.610   1.792  0.3782 -0.9096 -2.8540
  389SOL     OW 1165   0.185   3.031   1.145 -0.7835 -0.0928  0.4692
  389SOL    HW1 1166   0.151   3.063   1.241 -1.0690  3.6866  2.0558
  389SOL    HW2 1167   0.141   2.944   1.105 -0.9302  0.7495  1.5643
  390SOL     OW 1168   1.023   0.994   1.326  0.2869  0.3398 -0.3734
  390SOL    HW1 1169   1.121   0.979   1.365  1.4258  0.5698  0.1954
  390SOL    HW2 1170   0.974   1.081   1.355  0.2215 -1.3238 -1.7865
  391SOL     OW 1171   2.154   1.096   1.071  0.3901  0.3063 -0.3028
  391SOL    HW1 1172   2.097   1.009   1.102 -2.3880  0.2885  0.1222
  391SOL    HW2 1173   2.179   1.097   0.972  0.5561  1.8167 -0.9365
  392SOL     OW 1174   0.849   2.726   3.090  0.0163 -0.7430 -0.0162
  392SOL    HW1 1175   0.905   2.664   3.147  1.3468  0.4434  1.0408
  392SOL    HW2 1176   0.800   2.801   3.150 -1.8564  1.9893  1.4316
  393SOL     OW 1177   0.369   0.535   2.003 -0.1791  0.7651  0.2636
  393SOL    HW1 1178   0.303   0.461   1.959  1.5983 -0.4097 -3.2689
  393SOL    HW2 1179   0.443   0.546   1.933  0.5201 -1.1288  1.3703
  394SOL     OW 1180   3.030   1.825   2.794 -0.6310  0.7568 -0.6345
  394SOL    HW1 1181   3.047   1.907   2.854  0.1139  2.6450 -1.9180
  394SOL    HW2 1182   3.069   1.838   2.701 -3.6503 -1.5321  0.4372
  395SOL     OW 1183   1.649   1.965   0.679  0.0748  0.0542 -0.0255
  395SOL    HW1 1184   1.691   1.896   0.613  0.7111  1.7023 -0.1487
  395SOL    HW2 1185   1.689   1.963   0.774  0.8259  2.2594 -2.1815
  396SOL     OW 1186   2.841   1.885   1.301  0.0305  0.2431  0.1168
  396SOL    HW1 1187   2.806   1.785   1.298 -0.3060  2.4040 -1.9817
  396SOL    HW2 1188   2.819   1.932   1.384 -0.5741 -0.4710 -1.8713
  397SOL     OW 1189   1.041   2.227   0.504  0.2062 -0.2183 -0.0723
  397SOL    HW1 1190   0.948   2.189   0.538  0.1231 -0.7367 -1.0828
  397SOL    HW2 1191   1.041   2.325   0.493  0.2768 -2.3349 -1.1634
  398SOL     OW 1192   2.125   3.081   1.009 -0.2835  0.6789  0.2917
  398SOL    HW1 1193   2.124   2.989   1.064  0.2903  2.1738  0.6695
  398SOL    HW2 1194   2.093   3.158   1.066  1.2591  1.6709 -1.0301
  399SOL     OW 1195   3.040   2.482   2.518  0.3481 -0.6255 -0.0223
  399SOL    HW1 1196   2.941   2.457   2.493 -1.3644  1.4512  0.8940
  399SOL    HW2 1197   3.072   2.436   2.602  0.3070 -0.8607 -4.9997
  400SOL     OW 1198   0.765   1.615   1.332  0.0318 -0.1014 -0.6412
  400SOL    HW1 1199   0.738   1.650   1.429 -1.2028 -3.6235  3.3574
  400SOL    HW2 1200   0.743   1.684   1.260 -4.8435 -1.6112  2.4964
  401SOL     OW 1201   1.787   0.092   1.332  0.0378 -0.0266 -0.3131
  401SOL    HW1 1202   1.838   0.111   1.419  1.9331 -0.9615 -1.3097
  401SOL    HW2 1203   1.685   0.104   1.344  2.7421  0.1655  0.1419
  402SOL     OW 1204   1.324   0.153   3.060  0.0983  0.7172  0.0764
  402SOL    HW1 1205   1.422   0.156   3.029  0.7725 -2.0234 -0.2411
  402SOL    HW2 1206   1.277   0.250   3.063 -1.1155  0.8306  1.6596
  403SOL     OW 1207   2.324   1.771   0.892 -0.0519 -0.3795  0.3718
  403SOL    HW1 1208   2.426   1.788   0.916 -0.0070  1.1980  3.2708
  403SOL    HW2 1209   2.266   1.837   0.944  0.7801  2.9714 -0.5789
  404SOL     OW 1210   0.183   2.529   2.787 -0.0062  0.0763 -0.2053
  404SOL    HW1 1211   0.249   2.461   2.832 -1.8563 -0.1540 -2.0654
  404SOL    HW2 1212   0.183   2.627   2.825 -0.9237  0.5027  0.0643
  405SOL     OW 1213   0.159   2.388   0.672 -0.5159 -0.6578 -0.1773
  405SOL    HW1 1214   0.110   2.319   0.613 -1.0193  0.8584  3.2518
  405SOL    HW2 1215   0.202   2.464   0.619  0.7511 -0.3674 -0.9531
  406SOL     OW 1216   0.040   1.516   3.028  0.1950  0.0184 -0.1432
  406SOL    HW1 1217   0.091   1.433   2.999  2.3609  5.4824 -0.1115
  406SOL    HW2 1218   0.097   1.600   3.039 -0.6693  3.5731 -0.1469
  407SOL     OW 1219   1.574   0.960   0.908 -0.1602 -0.3126  0.3477
  407SOL    HW1 1220   1.582   0.893   0.834 -0.0944  0.7423  3.5628
  407SOL    HW2 1221   1.478   0.983   0.939 -2.7128  1.9535  2.4355
  408SOL     OW 1222   1.603   2.344   0.939  0.7028  0.6383 -0.0508
  408SOL    HW1 1223   1.648   2.318   0.848  1.4843  0.5013 -0.2204
  408SOL    HW2 1224   1.575   2.441   0.941  1.8138 -2.8117 -0.1926
  409SOL     OW 1225   0.630   0.849   0.698  0.3387  0.0016  1.1713
  409SOL    HW1 1226   0.581   0.831   0.607 -1.7539 -1.6535 -0.8702
  409SOL    HW2 1227   0.651   0.755   0.743 -1.4625  0.1991 -0.6563
  410SOL     OW 1228   1.285   2.051   1.423  0.4387 -0.4252  0.1476
  410SOL    HW1 1229   1.358   1.989   1.465  1.4993 -1.0280  0.5066
  410SOL    HW2 1230   1.199   1.998   1.385  3.0504  1.9871 -0.3598
  411SOL     OW 1231   2.537   1.866   3.083  0.8279  0.6587 -0.3168
  411SOL    HW1 1232   2.480   1.935   3.031 -0.5999  0.7263 -1.3033
  411SOL    HW2 1233   2.610   1.817   3.024  0.2287 -0.4509 -0.3226
  412SOL     OW 1234   1.466   2.496   2.189  0.1426 -0.0569 -0.2023
  412SOL    HW1 1235   1.491   2.596   2.187 -1.2317  0.6409 -2.0568
  412SOL    HW2 1236   1.389   2.474   2.252  2.5315 -0.4701 -0.4949
  413SOL     OW 1237   3.073   0.260   2.985 -0.3622 -0.6381  0.1540
  413SOL    HW1 1238   3.044   0.164   3.013  2.9573 -0.0615 -0.1878
  413SOL    HW2 1239   3.176   0.262   2.979 -1.1100 -0.4020  3.4580
  414SOL     OW 1240   1.835   1.522   1.238  0.3207  0.5749 -0.1128
  414SOL    HW1 1241   1.760   1.591   1.232  4.8997 -0.8376 -2.5563
  414SOL    HW2 1242   1.811   1.430   1.195 -1.8954  0.7511 -1.3854
  415SOL     OW 1243   0.338   2.179   0.709  0.3253  0.1990 -0.2351
  415SOL    HW1 1244   0.309   2.277   0.709  0.5161  1.6671 -2.3856
  415SOL    HW2 1245   0.305   2.132   0.798  1.3710  0.9365  0.0039
  416SOL     OW 1246   0.358   1.017   1.049  1.0708  0.0091 -0.4975
  416SOL    HW1 1247   0.336   1.002   0.952  1.7493 -1.2422 -0.0412
  416SOL    HW2 1248   0.450   1.063   1.062  0.7285  2.5122  1.3668
  417SOL     OW 1249   2.208   2.288   1.949  1.0108  0.3930  0.8538
  417SOL    HW1 1250   2.298   2.262   1.997  0.7900 -2.1338  0.4639
  417SOL    HW2 1251   2.151   2.204   1.944  4.3211 -0.0118 -1.2387
  418SOL     OW 1252   1.100   0.512   1.366  0.0431  0.0544  0.6703
  418SOL    HW1 1253   1.045   0.493   1.277 -0.5110  2.9067  1.0693
  418SOL    HW2 1254   1.189   0.555   1.348 -3.3643 -0.7820 -0.0344
  419SOL     OW 1255   0.925   0.441   3.007 -0.0709  0.4529 -0.2297
  419SOL    HW1 1256   0.958   0.465   2.910  2.2887  3.4661  0.1407
  419SOL    HW2 1257   0.833   0.487   3.031 -3.1771  0.0587  2.2413
  420SOL     OW 1258   0.068   2.256   0.447  0.5936  0.7206  0.6717
  420SOL    HW1 1259   0.118   2.220   0.364  0.9124 -0.9047 -0.3837
  420SOL    HW2 1260  -0.012   2.197   0.479 -0.1017  1.3855 -0.7354
  421SOL     OW 1261   0.356   2.996   0.677 -0.5537  0.3797 -0.1828
  421SOL    HW1 1262   0.385   2.901   0.707  1.6936  0.4979  0.2761
  421SOL    HW2 1263   0.435   3.060   0.681  0.7124  1.4551 -0.1949
  422SOL     OW 1264   1.060   2.491   1.012  0.4732 -0.0231 -0.0357
  422SOL    HW1 1265   1.106   2.561   0.954  2.5323 -0.9192 -2.9059
  422SOL    HW2 1266   1.031   2.529   1.104 -1.6257 -1.3478 -0.0209
  423SOL     OW 1267   0.075   0.666   1.276 -0.2473  0.2939  0.8293
  423SOL    HW1 1268   0.022   0.648   1.367 -0.5206  0.7263 -0.3985
  423SOL    HW2 1269   0.041   0.746   1.223  1.8426 -2.1937  2.5229
  424SOL     OW 1270   0.994   2.209   2.043 -0.3422 -0.1952  0.2895
  424SOL    HW1 1271   0.999   2.301   1.999  1.0563 -2.9227  1.2636
  424SOL    HW2 1272   0.972   2.206   2.145 -2.1450 -0.1324  0.1000
  425SOL     OW 1273   2.004   1.346   0.984  0.3831 -0.6843  0.0138
  425SOL    HW1 1274   2.048   1.271   1.040 -1.0257 -1.4242  1.2101
  425SOL    HW2 1275   2.068   1.425   0.958 -1.4295 -1.6669  0.8525
  426SOL     OW 1276   1.511   1.616   1.374 -0.7240  0.1209  0.0551
  426SOL    HW1 1277   1.523   1.679   1.298 -1.3102 -1.4985 -0.4821
  426SOL    HW2 1278   1.426   1.636   1.431  0.3254 -1.5710  0.5047
  427SOL     OW 1279   1.893   2.372   2.040  0.0770 -0.3944  0.0306
  427SOL    HW1 1280   1.949   2.304   2.095  1.0776  1.2042 -0.9948
  427SOL    HW2 1281   1.921   2.475   2.054 -0.9369  0.8864 -2.3885
  428SOL     OW 1282   0.876   3.011   0.211 -0.1352  0.5467 -0.0754
  428SOL    HW1 1283   0.867   3.098   0.158 -1.4154  0.8737 -0.8455
  428SOL    HW2 1284   0.969   2.973   0.201 -1.6022 -0.9168 -0.1387
  429SOL     OW 1285   1.345   0.063   0.240 -0.5969 -0.1860  0.9276
  429SOL    HW1 1286   1.440   0.100   0.254  0.8654 -0.7178 -1.6597
  429SOL    HW2 1287   1.315   0.072   0.143 -1.4181  0.6665  1.2766
  430SOL     OW 1288   2.798   1.404   0.314 -0.5776  0.3946  0.2286
  430SOL    HW1 1289   2.835   1.450   0.231 -0.9522 -1.7065 -0.6510
  430SOL    HW2 1290   2.828   1.457   0.402  0.4799  0.4988 -0.6764
  431SOL     OW 1291   2.125   1.562   0.861 -0.3257 -0.3582  0.1804
  431SOL    HW1 1292   2.209   1.622   0.880 -0.1023 -0.0096 -0.2739
  431SOL    HW2 1293   2.068   1.589   0.775  0.4570  1.9199  0.9703
  432SOL     OW 1294   2.862   2.240   1.263 -0.3693 -0.1889  0.8787
  432SOL    HW1 1295   2.807   2.168   1.311 -2.1717 -0.2994 -2.7903
  432SOL    HW2 1296   2.929   2.292   1.323 -1.4890 -1.0181  0.5359
  433SOL     OW 1297   1.925   0.387   0.839 -0.8779 -0.3276 -0.7927
  433SOL    HW1 1298   1.844   0.344   0.888 -1.0263  0.7314 -0.9893
  433SOL    HW2 1299   2.016   0.361   0.886  0.8933 -1.7598  3.3732
  434SOL     OW 1300   1.493   0.282   0.736 -0.2622 -1.0630  0.1274
  434SOL    HW1 1301   1.458   0.374   0.714  0.7486 -1.0297 -2.6026
  434SOL    HW2 1302   1.561   0.282   0.819  0.8808 -3.3056  3.4775
  435SOL     OW 1303   1.487   1.477   2.118  0.4088  0.6249 -0.4755
  435SOL    HW1 1304   1.441   1.523   2.202  2.5283 -1.1659  0.2303
  435SOL    HW2 1305   1.520   1.534   2.042  2.2624 -0.9459  0.8921
  436SOL     OW 1306   1.679   2.756   2.208  0.0552  0.2296  0.4982
  436SOL    HW1 1307   1.653   2.823   2.283  3.0471 -0.7936  0.9774
  436SOL    HW2 1308   1.684   2.657   2.248  2.3494 -1.8557 -1.6432
  437SOL     OW 1309   1.039   2.924   0.936 -0.0004  0.3356 -0.0615
  437SOL    HW1 1310   1.001   3.020   0.925  0.7014  3.0877 -0.5342
  437SOL    HW2 1311   1.050   2.889   1.034  3.3892 -2.6565 -0.7140
  438SOL     OW 1312   1.015   2.597   1.288 -0.3138  0.2194  0.1678
  438SOL    HW1 1313   1.050   2.661   1.367  0.6016 -0.1747  0.7194
  438SOL    HW2 1314   1.017   2.501   1.321 -1.2482  0.6642  1.2284
  439SOL     OW 1315   0.688   1.737   1.087  0.4012  0.3338  0.1928
  439SOL    HW1 1316   0.692   1.827   1.036  0.0093  0.2959 -0.3887
  439SOL    HW2 1317   0.588   1.715   1.114 -0.2138 -1.4972  0.1894
  440SOL     OW 1318   0.990   2.489   1.977  0.0673  0.3679  0.2181
  440SOL    HW1 1319   0.945   2.509   1.888  1.7193  0.4202  1.7839
  440SOL    HW2 1320   1.094   2.506   1.980  2.2945 -0.6493  0.9192
  441SOL     OW 1321   0.495   2.728   1.401  0.4399  0.2610  0.6444
  441SOL    HW1 1322   0.522   2.631   1.412  0.3318  4.0811  2.9073
  441SOL    HW2 1323   0.409   2.743   1.345 -1.4723 -1.9122 -2.3910
  442SOL     OW 1324   2.337   0.659   2.427 -0.0270  0.5330  0.0551
  442SOL    HW1 1325   2.335   0.574   2.486 -1.0767  0.9873  1.7361
  442SOL    HW2 1326   2.241   0.706   2.438 -0.7311  0.7588  1.2028
  443SOL     OW 1327   1.244   2.727   2.142  0.4370 -0.3529  0.4061
  443SOL    HW1 1328   1.267   2.806   2.211 -0.6282  1.0615 -0.8526
  443SOL    HW2 1329   1.238   2.636   2.185 -1.0850  2.4960 -2.7222
  444SOL     OW 1330   1.081   1.288   1.607 -0.0695  0.1119  0.0638
  444SOL    HW1 1331   1.150   1.231   1.557 -1.2056 -0.5433  2.8939
  444SOL    HW2 1332   1.132   1.352   1.675  1.0244  0.7520 -2.2229
  445SOL     OW 1333   0.014   2.395   1.843 -0.1508 -0.2300 -0.0036
  445SOL    HW1 1334   0.004   2.491   1.803  1.2092  2.5686 -0.9637
  445SOL    HW2 1335  -0.067   2.369   1.906 -1.5601  0.5356 -0.0824
  446SOL     OW 1336   0.251   1.929   2.336  0.0441 -0.5113 -0.3023
  446SOL    HW1 1337   0.205   2.012   2.376  2.6521  1.9138  0.6260
  446SOL    HW2 1338   0.188   1.899   2.258 -3.8447  0.1270 -1.7607
  447SOL     OW 1339   1.182   1.709   1.915 -0.4192  0.0086 -0.2287
  447SOL    HW1 1340   1.093   1.761   1.895 -0.3040 -0.5002 -1.9258
  447SOL    HW2 1341   1.256   1.772   1.955  0.2556 -0.4039  3.4167
  448SOL     OW 1342   0.127   1.526   1.967  0.3412  0.1827  0.2569
  448SOL    HW1 1343   0.122   1.617   1.922  1.9753  1.1247 -2.7970
  448SOL    HW2 1344   0.105   1.523   2.068  0.7041  1.7074  1.1564
  449SOL     OW 1345   1.941   2.946   0.851  0.4781 -0.0046 -0.3255
  449SOL    HW1 1346   2.020   2.994   0.900  0.6623 -1.6110 -3.3824
  449SOL    HW2 1347   1.973   2.856   0.806 -2.1609  0.3239  1.4481
  450SOL     OW 1348   2.336   1.384   0.734 -0.4719 -0.4271 -0.0135
  450SOL    HW1 1349   2.234   1.370   0.710 -2.2794  1.7554  1.0534
  450SOL    HW2 1350   2.366   1.472   0.691 -0.6911  0.0866  2.6441
  451SOL     OW 1351   1.347   3.020   1.460 -0.5743  0.9128 -0.1727
  451SOL    HW1 1352   1.265   3.084   1.480 -2.8612  1.5289 -0.7435
  451SOL    HW2 1353   1.384   2.970   1.545  0.9786  1.0675  0.3335
  452SOL     OW 1354   2.688   2.296   2.156 -0.7009  0.0642 -0.0820
  452SOL    HW1 1355   2.610   2.361   2.180  2.0444  2.6451 -0.0369
  452SOL    HW2 1356   2.746   2.272   2.234 -0.1339  3.1559 -1.7690
  453SOL     OW 1357   2.488   2.648   3.084  0.0849 -0.1857 -0.1686
  453SOL    HW1 1358   2.416   2.709   3.116  3.5793  0.0860  0.2841
  453SOL    HW2 1359   2.460   2.583   3.012 -1.5956  0.7261  0.1673
  454SOL     OW 1360   1.025   1.159   2.087  0.0732 -0.3585 -0.3836
  454SOL    HW1 1361   0.999   1.131   1.988  1.0120  0.0077 -0.9783
  454SOL    HW2 1362   1.113   1.216   2.093  0.3867  0.7274 -1.9957
  455SOL     OW 1363   0.645   2.668   2.923 -0.2460 -0.5729 -0.7835
  455SOL    HW1 1364   0.721   2.704   2.986 -0.2762 -0.5632  1.8306
  455SOL    HW2 1365   0.623   2.567   2.949  0.6308 -0.1196 -0.7635
  456SOL     OW 1366   0.462   1.869   0.307  0.3044  0.3156  0.6081
  456SOL    HW1 1367   0.541   1.831   0.367  2.2218 -0.2964 -0.5823
  456SOL    HW2 1368   0.483   1.964   0.269  0.6532  1.5984 -1.3527
  457SOL     OW 1369   0.273   2.644   0.657  0.3407 -0.8212  0.4923
  457SOL    HW1 1370   0.264   2.714   0.580 -0.4772  1.7355  0.0488
  457SOL    HW2 1371   0.376   2.618   0.675  2.9036  0.0643  2.4785
  458SOL     OW 1372   2.967   3.054   1.213  0.1246  0.3607  0.2076
  458SOL    HW1 1373   3.005   3.151   1.207  4.1051 -0.6623 -0.3185
  458SOL    HW2 1374   2.951   3.002   1.126  1.7452  1.7029 -1.7753
  459SOL     OW 1375   2.176   2.546   0.783  0.3853 -0.3328  0.4603
  459SOL    HW1 1376   2.187   2.645   0.812 -0.7911 -2.4373  0.6071
  459SOL    HW2 1377   2.257   2.505   0.734  1.0583  0.3046  1.3191
  460SOL     OW 1378   1.166   1.996   2.870 -0.2406 -0.4935  0.3041
  460SOL    HW1 1379   1.208   2.032   2.785 -0.6229  0.6512  3.3747
  460SOL    HW2 1380   1.233   1.944   2.928 -0.1875  0.0120 -0.2216
  461SOL     OW 1381   0.539   2.074   2.684 -0.3406  0.1930 -0.5013
  461SOL    HW1 1382   0.485   1.992   2.645  0.7653 -2.5617 -1.4374
  461SOL    HW2 1383   0.587   2.062   2.778 -0.0960 -1.6318 -0.6467
  462SOL     OW 1384   0.951   1.112   1.837 -0.6471 -0.6672 -0.3175
  462SOL    HW1 1385   1.009   1.049   1.778 -0.0576 -0.9788  1.1118
  462SOL    HW2 1386   0.926   1.199   1.789  2.7087 -2.6571  5.3745
  463SOL     OW 1387   0.457   0.770   0.488 -0.3334  0.1283  0.4264
  463SOL    HW1 1388   0.469   0.667   0.472 -0.6318 -2.2594 -1.5973
  463SOL    HW2 1389   0.358   0.796   0.487  0.6822 -3.8001 -3.3336
  464SOL     OW 1390   0.607   2.273   2.235 -0.3879  0.0286 -0.1602
  464SOL    HW1 1391   0.586   2.343   2.311  0.3275 -2.1969 -0.6225
  464SOL    HW2 1392   0.574   2.304   2.142 -1.4420  3.4368  1.8281
  465SOL     OW 1393   0.311   0.917   0.786  0.0339  0.5493  0.2607
  465SOL    HW1 1394   0.220   0.932   0.733  1.1692  0.8106  1.0050
  465SOL    HW2 1395   0.336   0.815   0.796  1.0179 -3.1072  4.1845
  466SOL     OW 1396   1.348   1.132   1.073 -0.4961 -0.0565 -0.0179
  466SOL    HW1 1397   1.380   1.196   0.999 -1.4921  4.1884  0.7369
  466SOL    HW2 1398   1.246   1.124   1.085  0.0032  1.8850  2.3350
  467SOL     OW 1399   0.455   0.356   2.373  0.3629 -0.3752  0.1225
  467SOL    HW1 1400   0.416   0.449   2.399  2.1936 -1.8888  0.4588
  467SOL    HW2 1401   0.467   0.300   2.458 -1.1860 -2.5517 -2.0348
  468SOL     OW 1402   0.456   2.293   1.657  0.1354 -0.2595  0.4466
  468SOL    HW1 1403   0.484   2.375   1.714 -0.3966  2.8084 -0.2360
  468SOL    HW2 1404   0.423   2.318   1.558  1.4468 -1.1122 -0.6640
  469SOL     OW 1405   1.509   1.381   1.197  0.1326 -0.5993  0.1022
  469SOL    HW1 1406   1.593   1.329   1.171 -0.8160  3.2539  1.4669
  469SOL    HW2 1407   1.521   1.426   1.292 -0.7824  1.7338  0.1541
  470SOL     OW 1408   3.038   1.667   0.782  0.0384  0.2297  0.3275
  470SOL    HW1 1409   3.118   1.722   0.751  1.8452 -0.8433  0.3760
  470SOL    HW2 1410   2.975   1.719   0.841  2.3093 -0.8259  0.6033
  471SOL     OW 1411   2.659   1.310   2.147 -0.4914  0.5037 -0.2618
  471SOL    HW1 1412   2.647   1.232   2.219  1.6113 -0.9438 -1.0709
  471SOL    HW2 1413   2.735   1.373   2.166 -2.6806 -0.5914  0.5454
  472SOL     OW 1414   1.134   2.480   3.071  0.3989  0.0303  0.0105
  472SOL    HW1 1415   1.161   2.469   3.172 -1.9132 -1.6598 -1.4181
  472SOL    HW2 1416   1.128   2.392   3.015 -1.8040  2.8301  0.0377
  473SOL     OW 1417   1.104   1.530   0.995 -0.1107  0.0366  0.1183
  473SOL    HW1 1418   1.001   1.513   1.004  4.4599 -1.3833 -2.0561
  473SOL    HW2 1419   1.155   1.502   1.081  3.5791 -2.5130 -0.1597
  474SOL     OW 1420   0.705   1.287   0.563 -0.1354 -0.4769  0.4615
  474SOL    HW1 1421   0.690   1.291   0.459  3.1541  0.8386 -0.3326
  474SOL    HW2 1422   0.745   1.196   0.594 -1.6253  0.2595  0.1467
  475SOL     OW 1423   2.827   0.096   0.802  0.0500  0.4320  0.0833
  475SOL    HW1 1424   2.905   0.144   0.849 -2.8325 -0.4482 -0.5650
  475SOL    HW2 1425   2.732   0.108   0.845  1.4942 -0.9872 -2.0386
  476SOL     OW 1426   0.933   3.035   1.797 -0.7867 -0.0212 -1.3582
  476SOL    HW1 1427   1.002   2.972   1.843 -2.2167  1.1636 -0.1700
  476SOL    HW2 1428   0.954   3.051   1.695 -1.1660  1.2734 -0.4842
  477SOL     OW 1429   1.462   0.334   2.471 -0.7894  0.5388  0.1918
  477SOL    HW1 1430   1.442   0.355   2.570  1.0815 -0.2994 -2.4884
  477SOL    HW2 1431   1.554   0.281   2.474 -0.9315 -2.2221  1.0046
  478SOL     OW 1432   2.211   1.849   0.261 -0.4368 -0.1111 -0.2887
  478SOL    HW1 1433   2.145   1.770   0.255  1.2615  2.6782  1.9407
  478SOL    HW2 1434   2.311   1.824   0.235  0.8698 -0.0491 -2.2670
  479SOL     OW 1435   1.240   1.078   2.919 -0.9171 -0.1267 -0.1876
  479SOL    HW1 1436   1.318   1.093   2.848  3.2787  2.2979  0.9489
  479SOL    HW2 1437   1.157   1.025   2.892 -1.1376  0.5418  2.6859
  480SOL     OW 1438   2.542   2.340   0.366 -0.9800 -0.4683 -0.3096
  480SOL    HW1 1439   2.525   2.238   0.380 -1.1897  0.1072  1.7825
  480SOL    HW2 1440   2.467   2.370   0.301  0.3002 -0.8008 -2.5169
  481SOL     OW 1441   1.025   1.126   0.820  0.5788  0.4792 -0.3989
  481SOL    HW1 1442   1.019   1.226   0.795 -1.5976 -0.7732 -0.1306
  481SOL    HW2 1443   1.013   1.109   0.923  1.3579 -2.8461 -1.2434
  482SOL     OW 1444   1.580   0.279   2.048  0.0674 -0.2087 -0.3312
  482SOL    HW1 1445   1.577   0.387   2.043  1.6205  2.4789 -0.8964
  482SOL    HW2 1446   1.668   0.244   2.085 -1.1109 -0.4730 -0.4419
  483SOL     OW 1447   0.125   2.305   1.276  0.0793  0.2277 -0.1051
  483SOL    HW1 1448   0.046   2.333   1.340 -1.4417 -0.1541 -0.1464
  483SOL    HW2 1449   0.124   2.357   1.185 -0.4001 -1.3431 -2.7620
  484SOL     OW 1450   1.741   1.062   1.367  0.1504  0.1744  0.2438
  484SOL    HW1 1451   1.815   0.988   1.356  1.4679  2.4904  2.4682
  484SOL    HW2 1452   1.774   1.136   1.433 -1.3883 -1.4949  1.1435
  485SOL     OW 1453   0.660   1.039   1.804 -0.3109  0.1265  0.3285
  485SOL    HW1 1454   0.680   1.027   1.702 -0.7436  3.0779  0.3704
  485SOL    HW2 1455   0.742   1.068   1.865  0.0642  0.3740  4.4344
  486SOL     OW 1456   0.860   1.952   2.454  0.4816 -0.7265 -0.4254
  486SOL    HW1 1457   0.912   1.925   2.542  0.6831  1.7721  3.5852
  486SOL    HW2 1458   0.841   2.058   2.458  0.6809  0.3889  2.3463
  487SOL     OW 1459   1.828   1.620   0.940 -0.9405 -0.5732  0.0537
  487SOL    HW1 1460   1.904   1.565   0.978 -0.9993  0.8539 -1.2553
  487SOL    HW2 1461   1.842   1.627   0.834 -0.7931  1.0214 -0.4285
  488SOL     OW 1462   2.950   0.870   2.258 -0.0923  0.0709 -0.0120
  488SOL    HW1 1463   2.939   0.767   2.252  0.2931 -0.8924  2.4157
  488SOL    HW2 1464   3.005   0.898   2.342 -1.6844 -0.1871 -0.0890
  489SOL     OW 1465   2.759   0.223   1.311  0.3241  0.4891 -0.3382
  489SOL    HW1 1466   2.720   0.161   1.390  0.5919 -0.8233 -0.3250
  489SOL    HW2 1467   2.859   0.210   1.307 -1.8437  0.3087  1.3219
  490SOL     OW 1468   1.458   2.926   2.814  0.2827 -0.3558 -0.4602
  490SOL    HW1 1469   1.531   2.855   2.809 -1.7679  1.1534 -0.4201
  490SOL    HW2 1470   1.429   2.963   2.722  1.2579 -0.1807 -1.4870
  491SOL     OW 1471   1.830   1.458   2.600  0.1421  0.0896 -0.5431
  491SOL    HW1 1472   1.810   1.419   2.693 -0.8116 -0.5653  0.0952
  491SOL    HW2 1473   1.924   1.508   2.597  2.1600 -0.8377  1.7173
  492SOL     OW 1474   0.532   1.969   0.678  0.0968 -0.1070 -0.4138
  492SOL    HW1 1475   0.575   1.951   0.770 -0.1182 -2.0284 -4.5635
  492SOL    HW2 1476   0.461   2.045   0.683  0.6780  1.6000 -2.4955
  493SOL     OW 1477   0.382   1.401   2.064 -0.0505  0.2336  0.3423
  493SOL    HW1 1478   0.305   1.469   2.048  0.2594  0.1661  1.2832
  493SOL    HW2 1479   0.373   1.347   2.151 -0.0517 -0.6031  3.2335
  494SOL     OW 1480   2.696   2.704   0.171 -0.6085  0.3599  0.4183
  494SOL    HW1 1481   2.679   2.660   0.260 -2.4250  3.5401  2.4334
  494SOL    HW2 1482   2.633   2.668   0.099 -0.9150 -1.3983  0.2926
  495SOL     OW 1483   2.764   2.662   2.711  0.9963 -0.1203 -0.3190
  495SOL    HW1 1484   2.675   2.607   2.707  0.3239 -0.2246 -1.4640
  495SOL    HW2 1485   2.795   2.687   2.614  0.6180 -0.9015  0.0144
  496SOL     OW 1486   2.055   2.243   0.705  0.1151 -0.1900  0.0579
  496SOL    HW1 1487   2.073   2.272   0.802 -0.4306 -1.3384 -0.0822
  496SOL    HW2 1488   2.104   2.154   0.688  0.9576 -2.7074  1.4562
  497SOL     OW 1489   0.253   2.964   2.456  0.0318 -0.3286  0.5144
  497SOL    HW1 1490   0.228   3.043   2.520  1.2460  0.3972  1.3274
  497SOL    HW2 1491   0.293   3.005   2.369 -0.9278 -0.0619  0.8339
  498SOL     OW 1492   1.234   1.406   1.219  0.2869  0.1690  0.2910
  498SOL    HW1 1493   1.340   1.394   1.210  2.0162 -2.2983  1.1222
  498SOL    HW2 1494   1.212   1.477   1.291  1.3573  0.2117 -0.7978
  499SOL     OW 1495   0.705   1.858   0.449  0.1619  0.4845  0.3874
  499SOL    HW1 1496   0.721   1.760   0.488 -3.0597 -1.2561  1.1560
  499SOL    HW2 1497   0.683   1.927   0.521 -0.1336  3.2438 -1.3908
  500SOL     OW 1498   1.453   2.884   1.678  0.3294  0.2093 -0.5080
  500SOL    HW1 1499   1.415   2.878   1.771  3.8221 -1.1128  0.0880
  500SOL    HW2 1500   1.522   2.808   1.660 -0.7742  1.4059  1.8619
  501SOL     OW 1501   0.817   1.119   2.284  0.3253 -0.0231  0.2714
  501SOL    HW1 1502   0.733   1.057   2.265  2.1835  1.3167 -0.0242
  501SOL    HW2 1503   0.878   1.128   2.202 -0.4886 -1.3864 -0.5543
  502SOL     OW 1504   2.623   0.952   1.728  0.4012 -0.1335 -0.3983
  502SOL    HW1 1505   2.606   0.967   1.626  2.1461 -0.2640  0.4537
  502SOL    HW2 1506   2.602   0.854   1.758 -3.2137 -1.5584  1.3881
  503SOL     OW 1507   1.285   0.125   0.664 -0.2290  0.5121 -0.1691
  503SOL    HW1 1508   1.204   0.160   0.610  0.7381  2.1429  0.4214
  503SOL    HW2 1509   1.352   0.200   0.674 -4.2098  1.0603  0.0551
  504SOL     OW 1510   3.022   2.336   1.456  0.8226 -0.0435 -0.5982
  504SOL    HW1 1511   2.957   2.381   1.526 -0.8371  0.3398 -0.0937
  504SOL    HW2 1512   3.101   2.303   1.511 -1.5783  3.6790 -1.0239
  505SOL     OW 1513   2.281   1.163   1.485 -0.5270 -0.0857  0.4305
  505SOL    HW1 1514   2.297   1.169   1.383 -0.5586  0.1532  3.3049
  505SOL    HW2 1515   2.329   1.245   1.539 -2.3322  0.2936  1.4389
  506SOL     OW 1516   1.982   0.168   1.806  0.7180 -0.2656  0.1081
  506SOL    HW1 1517   2.057   0.128   1.864 -1.3690  0.4514 -0.4307
  506SOL    HW2 1518   1.963   0.270   1.832  1.5726 -2.0662 -0.1296
  507SOL     OW 1519   0.527   0.700   2.146  0.3805  0.0755 -0.0797
  507SOL    HW1 1520   0.480   0.646   2.077  2.1445  1.1513  1.3569
  507SOL    HW2 1521   0.604   0.639   2.183 -2.9684 -1.0755 -2.0425
  508SOL     OW 1522   0.242   1.644   0.855 -0.3862  0.4655  0.8838
  508SOL    HW1 1523   0.299   1.709   0.798 -3.7136  3.3354 -1.1045
  508SOL    HW2 1524   0.196   1.700   0.928 -0.0159 -1.7517  0.4192
  509SOL     OW 1525   1.245   1.252   2.335  0.7793 -0.3551 -0.0912
  509SOL    HW1 1526   1.230   1.309   2.245  0.9806 -0.7066 -2.1157
  509SOL    HW2 1527   1.219   1.157   2.331  2.1312  5.2785 -2.3675
  510SOL     OW 1528   1.277   2.009   2.098  0.3070  0.3325 -0.8027
  510SOL    HW1 1529   1.275   2.104   2.057  0.9222  1.7529  1.6016
  510SOL    HW2 1530   1.188   1.977   2.139  4.1394  1.4603  1.3397
  511SOL     OW 1531   3.052   2.791   1.309  0.2933  0.3550 -0.4550
  511SOL    HW1 1532   3.044   2.737   1.219  1.5337 -1.3294  0.3915
  511SOL    HW2 1533   2.967   2.774   1.376 -0.8237 -0.8761  2.6246
  512SOL     OW 1534   2.383   0.456   1.347 -0.1877  0.3092 -0.0484
  512SOL    HW1 1535   2.298   0.397   1.366 -2.4412 -2.9539 -0.0217
  512SOL    HW2 1536   2.441   0.409   1.272 -0.0446  0.8121 -0.4291
  513SOL     OW 1537   2.540   2.038   0.838 -0.1952  0.3084 -0.1390
  513SOL    HW1 1538   2.464   2.083   0.787 -0.5819 -1.6920 -1.6002
  513SOL    HW2 1539   2.628   2.009   0.783  0.3565 -0.4417  0.8577
  514SOL     OW 1540   0.594   2.759   0.487 -0.1738  0.4597  0.6248
  514SOL    HW1 1541   0.592   2.795   0.389 -0.7708 -2.0985  0.4165
  514SOL    HW2 1542   0.673   2.799   0.542  1.0969  0.2627  1.1483
  515SOL     OW 1543   2.002   1.138   2.332  0.6568 -0.6741 -0.5815
  515SOL    HW1 1544   1.985   1.152   2.234  3.2213  0.1381 -4.0217
  515SOL    HW2 1545   1.919   1.141   2.388  1.0394  0.8214  2.3589
  516SOL     OW 1546   0.214   0.324   1.899 -0.5873  0.5610  0.0656
  516SOL    HW1 1547   0.276   0.323   1.819  0.5634  0.4771 -0.5151
  516SOL    HW2 1548   0.155   0.234   1.907 -1.6967 -1.1405  0.0600
  517SOL     OW 1549   0.459   3.092   1.176  0.5232 -0.3115 -0.4170
  517SOL    HW1 1550   0.484   3.191   1.193  1.8921 -1.3259  2.9831
  517SOL    HW2 1551   0.355   3.078   1.159 -2.1897 -3.1239  1.8935
  518SOL     OW 1552   2.249  -0.001   1.827  0.0282 -0.0335 -0.2982
  518SOL    HW1 1553   2.311   0.086   1.847 -1.3980  2.3874  1.5129
  518SOL    HW2 1554   2.223  -0.003   1.726  0.6462  1.5336  1.5400
  519SOL     OW 1555   2.348   2.214   2.577  0.3010  0.3609  0.1161
  519SOL    HW1 1556   2.280   2.181   2.647  1.5853  4.2115  0.1378
  519SOL    HW2 1557   2.327   2.310   2.551  1.3164 -0.2839  2.1662
  520SOL     OW 1558   1.815   2.801   1.815 -0.0516 -0.2495  0.7608
  520SOL    HW1 1559   1.726   2.782   1.867  1.2688  1.5481 -0.1771
  520SOL    HW2 1560   1.846   2.714   1.772 -1.4383  0.6542  2.5248
  521SOL     OW 1561   0.588   0.002   2.140 -0.0017  0.4212  0.3173
  521SOL    HW1 1562   0.489  -0.003   2.164  1.0541  1.1617  1.1925
  521SOL    HW2 1563   0.651  -0.000   2.227 -0.1059  0.6516  2.6402
  522SOL     OW 1564   0.197   1.897   1.468  0.2068 -0.1562 -0.7417
  522SOL    HW1 1565   0.228   1.961   1.545 -1.9067 -1.1984  1.4085
  522SOL    HW2 1566   0.189   1.946   1.378 -1.8585 -0.9870  1.0099
  523SOL     OW 1567   2.241   3.008   1.557  0.3800 -0.0394  0.2714
  523SOL    HW1 1568   2.327   2.958   1.560 -0.9952  2.0145 -2.3626
  523SOL    HW2 1569   2.175   2.959   1.494 -0.4967 -0.9389  3.0174
  524SOL     OW 1570   0.161   2.810   2.848  0.4322  0.8775 -0.1531
  524SOL    HW1 1571   0.103   2.895   2.852  0.5558 -0.2179  1.2894
  524SOL    HW2 1572   0.257   2.823   2.816  0.6355 -3.9993  0.6158
  525SOL     OW 1573   2.159   2.033   0.461  0.0667 -0.1320  0.6957
  525SOL    HW1 1574   2.166   1.975   0.546  0.4221  1.4738  0.0981
  525SOL    HW2 1575   2.174   1.968   0.377 -1.0510  1.4100 -0.2267
  526SOL     OW 1576   0.432   1.569   1.662 -0.3839 -0.2690  0.3239
  526SOL    HW1 1577   0.464   1.605   1.754 -0.4284  2.2084  1.1546
  526SOL    HW2 1578   0.462   1.474   1.642 -0.8517  0.2944 -0.9802
  527SOL     OW 1579   1.063   2.923   1.223  0.3916  0.1840  0.2236
  527SOL    HW1 1580   1.150   2.869   1.237  0.3568  0.3459  1.1377
  527SOL    HW2 1581   1.080   3.029   1.215  1.3257  1.0991  1.5815
  528SOL     OW 1582   1.324   2.426   0.554 -0.0640 -0.4303 -0.1809
  528SOL    HW1 1583   1.365   2.334   0.550 -2.6281 -0.4923  0.3064
  528SOL    HW2 1584   1.383   2.490   0.609  0.5968 -0.4293  1.2207
  529SOL     OW 1585   1.939   1.741   0.673  0.1623 -0.2037 -0.2234
  529SOL    HW1 1586   1.879   1.742   0.592  3.2349 -0.7444  0.3866
  529SOL    HW2 1587   1.927   1.815   0.745 -4.3392 -0.2467  0.6933
  530SOL     OW 1588   0.304   2.616   0.296 -0.2952 -0.1067  0.2433
  530SOL    HW1 1589   0.310   2.698   0.360 -1.7110 -1.5543  0.0947
  530SOL    HW2 1590   0.328   2.527   0.338  1.8396 -1.9604 -2.8974
  531SOL     OW 1591   1.839   0.989   0.969 -0.4410  0.3027  1.1873
  531SOL    HW1 1592   1.894   1.034   0.893  0.9414 -2.1275 -2.3585
  531SOL    HW2 1593   1.733   0.990   0.953 -0.0757 -0.3230 -0.2703
  532SOL     OW 1594   0.426   1.174   0.711  0.5511 -0.5871  0.1454
  532SOL    HW1 1595   0.485   1.168   0.630 -2.3268 -0.0112  2.5793
  532SOL    HW2 1596   0.393   1.084   0.747  0.8217  0.9518  2.2393
  533SOL     OW 1597   1.731   0.010   2.590  0.1918  0.2254  0.0722
  533SOL    HW1 1598   1.831   0.004   2.622  2.3591  0.3189 -1.2935
  533SOL    HW2 1599   1.680   0.084   2.646 -1.5866  1.1305  1.1625
  534SOL     OW 1600   0.369   0.206   1.644 -0.1107  0.0751  0.2039
  534SOL    HW1 1601   0.462   0.194   1.602 -2.6158 -1.7408  1.3071
  534SOL    HW2 1602   0.328   0.294   1.617  2.7687 -1.8211  1.0391
  535SOL     OW 1603   1.966   0.361   0.137  0.3278 -0.5744  0.0828
  535SOL    HW1 1604   1.959   0.443   0.200  1.1815  0.1120  2.0171
  535SOL    HW2 1605   1.938   0.275   0.189 -1.2602 -2.4149 -1.0367
  536SOL     OW 1606   1.407   2.562   0.933 -0.2872  0.1564 -0.1121
  536SOL    HW1 1607   1.406   2.545   1.036 -0.7800 -0.1773 -1.1804
  536SOL    HW2 1608   1.311   2.586   0.899 -1.6920  1.7690 -0.4286
  537SOL     OW 1609   0.785   0.244   2.400  0.0052  0.2814  0.5870
  537SOL    HW1 1610   0.777   0.301   2.315 -2.4348 -2.2815  0.5319
  537SOL    HW2 1611   0.764   0.144   2.391  2.1106  1.7250  1.3003
  538SOL     OW 1612   1.648   2.373   1.557 -0.0861 -0.0065  0.3992
  538SOL    HW1 1613   1.627   2.272   1.531  1.0265  0.5383  0.6234
  538SOL    HW2 1614   1.710   2.427   1.494 -1.0357 -2.0788  1.0498
  539SOL     OW 1615   0.214   1.611   2.730 -0.1783  0.3223 -0.0766
  539SOL    HW1 1616   0.128   1.603   2.676  1.0338 -1.1564  0.0169
  539SOL    HW2 1617   0.206   1.664   2.819  0.9896 -0.2310  0.9716
  540SOL     OW 1618   2.685   1.717   1.922 -0.6509  0.7375  0.0115
  540SOL    HW1 1619   2.655   1.638   1.983 -0.5897  1.3415 -1.5406
  540SOL    HW2 1620   2.635   1.808   1.925  2.3249 -2.4718 -0.7835
  541SOL     OW 1621   0.470   2.200   0.019 -0.1200 -0.0111  0.0531
  541SOL    HW1 1622   0.511   2.184   0.113  0.8250 -1.8897 -1.0139
  541SOL    HW2 1623   0.370   2.167   0.002 -2.7419 -0.9287  0.9973
  542SOL     OW 1624   2.258   2.583   0.445 -0.1430 -0.0039 -0.0238
  542SOL    HW1 1625   2.247   2.686   0.459 -1.1768  0.9714 -0.2946
  542SOL    HW2 1626   2.168   2.529   0.460 -2.4387  2.5893 -0.3433
  543SOL     OW 1627   1.085   1.853   1.555 -0.0832  0.0075  0.2034
  543SOL    HW1 1628   1.064   1.919   1.632  0.4732  2.4122  1.3307
  543SOL    HW2 1629   1.041   1.883   1.464  1.4449  1.1427 -0.0399
  544SOL     OW 1630   1.014   0.417   0.172  0.4562  0.1917  0.4611
  544SOL    HW1 1631   1.041   0.329   0.215  3.1639  0.9236  2.5884
  544SOL    HW2 1632   0.983   0.406   0.077  1.8296 -0.3778 -1.6881
  545SOL     OW 1633   1.101   1.725   0.805 -0.0995 -0.1120  0.3031
  545SOL    HW1 1634   1.191   1.728   0.761 -2.5487  0.2809  0.9087
  545SOL    HW2 1635   1.098   1.652   0.880  0.6851 -0.5175 -1.8887
  546SOL     OW 1636   2.636   1.468   3.016 -1.3519  0.1768 -0.2491
  546SOL    HW1 1637   2.587   1.540   2.959 -0.8658 -2.4950  1.2974
  546SOL    HW2 1638   2.579   1.423   3.091  1.6184 -1.7034  2.3466
  547SOL     OW 1639   0.602   3.038   2.679  0.7346 -0.1563  0.0409
  547SOL    HW1 1640   0.696   3.013   2.689 -2.2955  0.5968  0.5106
  547SOL    HW2 1641   0.544   2.952   2.689  1.1428  0.9122  0.5809
  548SOL     OW 1642   2.084   0.912   2.954 -0.0663  0.7096 -0.8870
  548SOL    HW1 1643   1.981   0.877   2.958 -1.6934 -0.1218 -0.2380
  548SOL    HW2 1644   2.105   0.988   3.020  0.5269  1.0071  2.5473
  549SOL     OW 1645   0.697   0.521   0.203 -0.0761  0.5631 -0.4524
  549SOL    HW1 1646   0.661   0.546   0.110 -2.2472 -1.1693  2.3770
  549SOL    HW2 1647   0.773   0.575   0.231  0.8690 -1.3051 -2.0108
  550SOL     OW 1648   2.580   2.830   2.905  0.6905  0.1822  0.0827
  550SOL    HW1 1649   2.539   2.761   2.967 -0.2221  2.3408  2.9619
  550SOL    HW2 1650   2.645   2.781   2.838  1.3492  1.5551 -0.3999
  551SOL     OW 1651   0.266   0.873   0.230  0.3303 -0.2061  0.0259
  551SOL    HW1 1652   0.365   0.841   0.218  0.5128 -1.6709 -1.7767
  551SOL    HW2 1653   0.230   0.875   0.330  1.4826  0.1567  0.5461
  552SOL     OW 1654   0.654   2.945   1.897 -0.6612  0.4863  0.5636
  552SOL    HW1 1655   0.629   2.996   1.984  0.2310 -2.3710 -2.1902
  552SOL    HW2 1656   0.756   2.950   1.873 -0.8689  0.6074  0.7749
  553SOL     OW 1657   2.961   2.507   0.363 -0.5472 -0.5816  0.1044
  553SOL    HW1 1658   2.916   2.412   0.364 -0.2911  3.0379  0.5466
  553SOL    HW2 1659   2.920   2.575   0.431  1.4749 -1.1038  3.0833
  554SOL     OW 1660   2.149   0.388   0.569 -0.2787  0.0780 -0.1246
  554SOL    HW1 1661   2.217   0.391   0.489 -1.1640  0.3398  0.1432
  554SOL    HW2 1662   2.144   0.291   0.607  0.0060  0.1848  1.7973
  555SOL     OW 1663   0.383   2.730   2.516 -0.3794  0.3388 -0.6190
  555SOL    HW1 1664   0.330   2.817   2.501  1.4839 -1.9464  1.1785
  555SOL    HW2 1665   0.431   2.704   2.424 -0.7485  1.7737 -0.3479
  556SOL     OW 1666   0.839   2.396   1.513 -0.0450 -0.4445  0.4709
  556SOL    HW1 1667   0.898   2.449   1.574 -0.4770 -1.9533 -0.2191
  556SOL    HW2 1668   0.886   2.350   1.430 -1.1125  2.3824 -1.0607
  557SOL     OW 1669   0.113   2.102   0.225  0.7153 -0.1228  0.0608
  557SOL    HW1 1670   0.010   2.116   0.218  0.0544  2.0141  3.0359
  557SOL    HW2 1671   0.157   2.080   0.132  1.8627 -0.4904 -0.8458
  558SOL     OW 1672   2.807   2.284   0.344  0.1547  0.0155  0.6191
  558SOL    HW1 1673   2.708   2.316   0.328 -2.2019 -2.0349 -1.3293
  558SOL    HW2 1674   2.834   2.206   0.278  0.5566  0.4493  0.2970
  559SOL     OW 1675   0.372   2.277   1.407 -0.1171 -0.0981 -0.0528
  559SOL    HW1 1676   0.284   2.301   1.353  1.2169  0.6808  1.2890
  559SOL    HW2 1677   0.435   2.203   1.366 -0.2019 -1.4867  0.6568
  560SOL     OW 1678   2.116   1.183   3.067  0.3065  0.5426  0.1911
  560SOL    HW1 1679   2.115   1.186   3.170  0.0543  0.8231  0.8354
  560SOL    HW2 1680   2.159   1.268   3.029  0.6769 -0.1092  1.7636
  561SOL     OW 1681   3.062   1.856   0.031  0.3587  0.0624 -0.4400
  561SOL    HW1 1682   3.048   1.807   0.124 -1.3473 -1.9896 -1.2180
  561SOL    HW2 1683   2.994   1.938   0.021 -0.1253  0.9829  1.0363
  562SOL     OW 1684   0.958   2.221   2.331 -0.3790  0.0380  0.0570
  562SOL    HW1 1685   0.888   2.250   2.397  0.3561  0.6131 -3.0426
  562SOL    HW2 1686   1.061   2.207   2.355  1.9221 -2.0858  2.8032
  563SOL     OW 1687   0.701   2.586   2.620 -0.5218  0.0701  0.1462
  563SOL    HW1 1688   0.795   2.545   2.616  0.1758  0.3771 -1.4459
  563SOL    HW2 1689   0.678   2.614   2.718 -0.2820 -1.0518  1.0588
  564SOL     OW 1690   2.823   1.330   2.904  0.0995  0.3570 -0.2030
  564SOL    HW1 1691   2.733   1.360   2.953 -1.1044  0.0421  2.1307
  564SOL    HW2 1692   2.871   1.409   2.858  1.6480 -0.4269  1.4554
  565SOL     OW 1693   2.535   2.009   2.642 -0.1952 -0.3652  0.2132
  565SOL    HW1 1694   2.481   2.078   2.590  2.3480 -2.2905  0.7022
  565SOL    HW2 1695   2.609   2.050   2.706 -0.0172 -0.1570 -2.9389
  566SOL     OW 1696   2.081   2.824   1.424 -0.1511 -0.6830 -0.4530
  566SOL    HW1 1697   2.063   2.722   1.440 -1.2611  1.5191 -1.0478
  566SOL    HW2 1698   2.025   2.862   1.344 -1.4582 -0.6652 -0.5156
  567SOL     OW 1699   2.421   3.065   2.383  0.4692 -0.6349  0.6137
  567SOL    HW1 1700   2.325   3.020   2.372 -2.0132 -0.3363 -2.9746
  567SOL    HW2 1701   2.460   3.080   2.290 -0.5067  0.2617  1.8389
  568SOL     OW 1702   1.533   1.741   0.211  0.3984 -0.1229 -0.5132
  568SOL    HW1 1703   1.449   1.798   0.185 -0.8263 -1.8556  0.2435
  568SOL    HW2 1704   1.624   1.797   0.221  0.2370  1.4121  2.3911
  569SOL     OW 1705   0.289   0.633   0.845 -0.4928 -0.0124 -0.4794
  569SOL    HW1 1706   0.346   0.551   0.810  0.8167 -0.9287  2.6859
  569SOL    HW2 1707   0.189   0.616   0.871 -4.0598  0.1022  0.3981
  570SOL     OW 1708   0.621   0.863   2.931  0.6621  0.1010  0.0224
  570SOL    HW1 1709   0.686   0.901   2.861 -2.3850  0.5635  1.4663
  570SOL    HW2 1710   0.619   0.927   3.018  0.0424 -0.6731  1.4974
  571SOL     OW 1711   0.790   3.066   1.041  0.0575 -0.1436  0.6331
  571SOL    HW1 1712   0.866   3.111   0.997 -1.2747 -0.9639  1.6719
  571SOL    HW2 1713   0.767   2.970   1.014 -1.2616  1.3667 -0.2550
  572SOL     OW 1714   1.636   2.584   1.332  0.4073  0.2460  0.2105
  572SOL    HW1 1715   1.551   2.530   1.307 -2.6900 -1.8675  0.0469
  572SOL    HW2 1716   1.629   2.687   1.310 -0.0224  0.9949  1.4699
  573SOL     OW 1717   2.908   0.501   1.999 -0.0995 -0.2734 -0.0949
  573SOL    HW1 1718   2.819   0.444   1.989 -0.9889 -1.2191 -0.5444
  573SOL    HW2 1719   2.987   0.464   1.944 -1.1334  0.6235  2.7166
  574SOL     OW 1720   0.140   1.782   1.082 -0.2887  0.4191  0.0305
  574SOL    HW1 1721   0.141   1.877   1.115  0.8307 -2.6528  0.4540
  574SOL    HW2 1722   0.070   1.730   1.136 -1.4070  2.5387 -1.2455
  575SOL     OW 1723   0.832   2.182   0.923 -0.1725  0.4229 -0.0618
  575SOL    HW1 1724   0.806   2.209   1.016  1.8435 -1.5055  0.1047
  575SOL    HW2 1725   0.871   2.261   0.869  0.1559 -0.8754 -1.7166
  576SOL     OW 1726   2.869   3.000   1.681 -0.2195 -0.2355 -0.0478
  576SOL    HW1 1727   2.768   3.008   1.709 -0.8168  0.4893 -1.0412
  576SOL    HW2 1728   2.902   3.096   1.655 -0.3456 -0.5187  4.0245
  577SOL     OW 1729   2.493   1.210  -0.000  0.4017  0.2651 -0.1496
  577SOL    HW1 1730   2.509   1.127  -0.061  0.5457 -0.8707  0.8309
  577SOL    HW2 1731   2.570   1.206   0.072  1.7648 -0.1000  0.3553
  578SOL     OW 1732   1.446   2.715   2.437  0.4846 -0.2451  0.0600
  578SOL    HW1 1733   1.355   2.758   2.417  1.6002 -0.3620  1.3924
  578SOL    HW2 1734   1.526   2.781   2.439  1.5178  2.4457  1.1316
  579SOL     OW 1735   0.057   2.500   0.166  0.3115  0.0061  0.2642
  579SOL    HW1 1736  -0.011   2.504   0.248 -1.8189  0.3881 -1.5972
  579SOL    HW2 1737   0.153   2.493   0.199 -0.6037 -2.1483  2.4045
  580SOL     OW 1738   0.954   2.674   0.380  0.1507 -0.0659  0.1531
  580SOL    HW1 1739   1.019   2.728   0.326 -2.7895 -0.2398  1.7893
  580SOL    HW2 1740   0.883   2.617   0.324 -0.8804 -2.4129 -3.3277
  581SOL     OW 1741   1.225   2.668   1.457 -0.1954  0.0418 -0.2029
  581SOL    HW1 1742   1.281   2.582   1.481  1.3480 -0.5970 -0.5831
  581SOL    HW2 1743   1.269   2.709   1.371 -2.6359  1.3298  0.6525
  582SOL     OW 1744   1.513   0.082   1.850 -0.0762  0.6591  0.1710
  582SOL    HW1 1745   1.524   0.147   1.930 -2.6684  0.7095  0.7384
  582SOL    HW2 1746   1.598   0.070   1.793 -0.7178 -0.8460  0.3395
  583SOL     OW 1747   2.450   3.068   0.543 -0.1983 -0.0041 -0.8846
  583SOL    HW1 1748   2.534   3.018   0.505  1.2240  0.8053  1.9519
  583SOL    HW2 1749   2.356   3.012   0.559 -1.4360 -0.7403 -1.4112
  584SOL     OW 1750   1.543   1.073   2.165 -0.0624  0.4745  0.6443
  584SOL    HW1 1751   1.581   1.167   2.141 -1.7769  3.3517 -0.8498
  584SOL    HW2 1752   1.601   1.002   2.215 -0.5734  2.6205  1.5023
  585SOL     OW 1753   2.158   2.679   2.932  0.0112  0.3347  0.1586
  585SOL    HW1 1754   2.157   2.575   2.912  1.6866  1.4575  0.6670
  585SOL    HW2 1755   2.065   2.717   2.953 -1.6226  1.4082 -0.5790
  586SOL     OW 1756   2.823   0.360   1.627 -0.2364 -0.3126  0.1575
  586SOL    HW1 1757   2.813   0.453   1.658  2.5958 -2.0928  0.3592
  586SOL    HW2 1758   2.745   0.315   1.574  0.3039 -1.4635  0.6127
  587SOL     OW 1759   2.086   1.544   2.649  0.2022 -0.0599  0.4476
  587SOL    HW1 1760   2.127   1.473   2.588 -1.0788 -1.9047  2.9526
  587SOL    HW2 1761   2.086   1.513   2.750  1.4970 -2.0492  0.4508
  588SOL     OW 1762   0.447   2.653   2.237 -0.1870 -0.1108 -0.2787
  588SOL    HW1 1763   0.360   2.619   2.193 -0.7912  0.3654 -2.2676
  588SOL    HW2 1764   0.496   2.579   2.292 -0.8005  3.0187 -0.4004
  589SOL     OW 1765   2.139   1.340   2.472  0.0577 -0.0733 -0.0726
  589SOL    HW1 1766   2.082   1.266   2.427  1.1009  1.5131 -0.7589
  589SOL    HW2 1767   2.236   1.344   2.441 -0.9978 -1.2603 -0.6319
  590SOL     OW 1768   2.338   1.705   2.041 -0.2615  0.3744 -0.0080
  590SOL    HW1 1769   2.408   1.622   2.049  0.0783 -0.8503 -1.3163
  590SOL    HW2 1770   2.330   1.772   2.125  0.2366  1.0402  0.4327
  591SOL     OW 1771   1.273   2.421   0.205 -0.4970  0.0554 -0.4540
  591SOL    HW1 1772   1.266   2.327   0.164  0.0262  2.0036  0.4503
  591SOL    HW2 1773   1.290   2.413   0.310  0.6237 -1.4868  0.4642
  592SOL     OW 1774   1.770   2.284   0.734 -0.3836  0.3601  0.1461
  592SOL    HW1 1775   1.744   2.372   0.684 -3.2885  1.1285 -0.9333
  592SOL    HW2 1776   1.866   2.253   0.710 -0.8029  3.1613 -0.5862
  593SOL     OW 1777   0.705   0.233   0.217 -0.0243 -0.1692  0.1202
  593SOL    HW1 1778   0.747   0.192   0.130 -0.7314 -0.2680 -1.5888
  593SOL    HW2 1779   0.722   0.334   0.235  1.6316  0.7561 -2.8003
  594SOL     OW 1780   1.019   1.827   2.682 -0.4481 -0.4496  0.2247
  594SOL    HW1 1781   1.112   1.792   2.647  1.3239  1.1427 -1.6358
  594SOL    HW2 1782   1.035   1.878   2.769 -0.1157  0.9845  2.3138
  595SOL     OW 1783   1.546   0.034   1.082  0.3201  0.4550  0.1340
  595SOL    HW1 1784   1.607  -0.020   1.013  0.4691  0.8299 -1.0948
  595SOL    HW2 1785   1.446   0.018   1.058 -0.0328  0.7344  2.2229
  596SOL     OW 1786   0.039   1.501   2.265  0.1484  0.9856  0.2450
  596SOL    HW1 1787   0.086   1.412   2.259  0.7629  1.9405 -2.0374
  596SOL    HW2 1788   0.038   1.532   2.361 -0.9886  0.3915  1.4835
  597SOL     OW 1789   1.931   2.574   1.727 -0.5171  1.0619  0.1622
  597SOL    HW1 1790   1.944   2.601   1.628  2.1572  0.0876  0.1165
  597SOL    HW2 1791   2.004   2.514   1.770  2.2695 -0.0559 -1.6069
  598SOL     OW 1792   2.553   2.930   1.222 -0.0704 -0.5232  0.0113
  598SOL    HW1 1793   2.635   2.949   1.282  0.2231 -2.1061  0.3350
  598SOL    HW2 1794   2.586   2.924   1.122 -1.2428  0.9802 -0.1072
  599SOL     OW 1795   2.872   0.330   2.492  0.0261 -0.2856 -0.0382
  599SOL    HW1 1796   2.967   0.375   2.488 -0.2467  2.2969 -4.6446
  599SOL    HW2 1797   2.811   0.354   2.413 -0.6084 -1.1575 -0.6230
  600SOL     OW 1798   2.794   1.122   2.736  0.2151 -0.4709 -0.0889
  600SOL    HW1 1799   2.791   1.023   2.769 -0.1481 -0.9948 -1.5633
  600SOL    HW2 1800   2.811   1.185   2.814 -1.5992  0.2151 -1.3194
  601SOL     OW 1801   3.025   1.315   2.001  0.7211 -0.1621  0.4261
  601SOL    HW1 1802   2.947   1.372   1.957 -1.7514  1.2485 -0.2051
  601SOL    HW2 1803   3.117   1.357   1.980 -0.8920  0.4729  1.3112
  602SOL     OW 1804   1.429   1.745   2.288  0.1827 -0.4772 -0.1870
  602SOL    HW1 1805   1.361   1.689   2.334  3.2304  0.8724  0.4595
  602SOL    HW2 1806   1.525   1.719   2.316  0.5700  1.0185  0.5918
  603SOL     OW 1807   0.608   1.213   2.789  0.3322 -0.4575  0.5448
  603SOL    HW1 1808   0.534   1.191   2.718 -0.8961  3.3824  0.0234
  603SOL    HW2 1809   0.681   1.139   2.795  0.0963  2.0058  1.2634
  604SOL     OW 1810   2.392   1.005   0.160  0.2897  0.0141  0.3467
  604SOL    HW1 1811   2.446   1.087   0.121  0.9240 -0.8644 -0.7572
  604SOL    HW2 1812   2.408   0.918   0.101 -0.4554 -2.2615 -2.7011
  605SOL     OW 1813   2.517   1.128   1.929 -0.4755 -0.2787 -0.5024
  605SOL    HW1 1814   2.558   1.076   1.854 -0.8422  3.4520  0.3687
  605SOL    HW2 1815   2.579   1.151   2.008  0.0141 -0.8856  1.4377
  606SOL     OW 1816   1.554   2.482   2.565  0.6793 -0.8350  0.2909
  606SOL    HW1 1817   1.509   2.563   2.522  1.8940  0.5828 -1.7239
  606SOL    HW2 1818   1.484   2.405   2.579 -3.5383  3.9080 -0.4009
  607SOL     OW 1819   1.328   1.577   0.329  0.0971 -0.1327 -0.4766
  607SOL    HW1 1820   1.244   1.642   0.347  0.0222  2.0516  0.9940
  607SOL    HW2 1821   1.411   1.633   0.294 -0.0566 -0.0286  0.9303
  608SOL     OW 1822   1.443   2.810   0.402  0.1108  0.1670  0.1097
  608SOL    HW1 1823   1.521   2.843   0.338 -0.9096 -1.1031 -0.8118
  608SOL    HW2 1824   1.379   2.888   0.437  1.5626  0.3905  1.2775
  609SOL     OW 1825   1.272   1.329   0.266 -0.0111 -0.2831  0.1748
  609SOL    HW1 1826   1.290   1.430   0.285  1.7778  0.5975 -1.6921
  609SOL    HW2 1827   1.272   1.307   0.161 -0.3281 -0.5516  2.1859
  610SOL     OW 1828   2.944   1.155   2.228 -0.0186 -0.2311 -0.5368
  610SOL    HW1 1829   2.963   1.053   2.221 -0.3367 -0.0724  0.7501
  610SOL    HW2 1830   2.946   1.203   2.136  1.6246 -2.2175 -1.2283
  611SOL     OW 1831   2.522   0.292   1.166 -0.5433  0.2382  0.0824
  611SOL    HW1 1832   2.463   0.211   1.141  0.8081 -1.1825  0.4575
  611SOL    HW2 1833   2.610   0.261   1.215  0.4982  0.7350  0.7971
  612SOL     OW 1834   0.757   2.257   1.172 -0.6114 -0.2851  0.6621
  612SOL    HW1 1835   0.694   2.212   1.242  1.8992  0.5055  0.9270
  612SOL    HW2 1836   0.722   2.350   1.153  2.9769  1.9331 -1.4045
  613SOL     OW 1837   0.807   1.382   2.399 -0.3825 -0.6445 -0.4469
  613SOL    HW1 1838   0.807   1.449   2.319  0.3911 -0.3045  0.8543
  613SOL    HW2 1839   0.816   1.283   2.368 -1.7825 -0.5290  1.4116
  614SOL     OW 1840   1.558   1.690   1.971  0.1190 -0.2875  0.3111
  614SOL    HW1 1841   1.508   1.775   1.930 -2.9518 -0.0970  0.2419
  614SOL    HW2 1842   1.603   1.709   2.063  1.4443 -1.0080 -0.4778
  615SOL     OW 1843   0.806   1.357   1.730 -0.6900  0.2843  0.5722
  615SOL    HW1 1844   0.720   1.357   1.675  0.9476  0.1028  0.5833
  615SOL    HW2 1845   0.872   1.438   1.709 -2.6730 -2.0770  0.3141
  616SOL     OW 1846   1.064   1.621   2.146  0.4425  0.6094  0.6034
  616SOL    HW1 1847   0.976   1.560   2.144  0.2170 -0.3820  0.5369
  616SOL    HW2 1848   1.100   1.658   2.054  0.4812  1.0591 -1.8174
  617SOL     OW 1849   2.959   1.577   1.559  0.0650  0.4738 -0.3437
  617SOL    HW1 1850   2.964   1.528   1.649  1.1668 -2.2968 -1.3006
  617SOL    HW2 1851   2.984   1.511   1.481 -1.1262 -2.3383 -3.4771
  618SOL     OW 1852   1.917   2.038   1.429  0.5763  0.5393 -0.0799
  618SOL    HW1 1853   1.948   2.023   1.329 -0.1167  0.7909  0.5252
  618SOL    HW2 1854   1.863   1.957   1.467 -1.9085  2.5173 -0.6870
  619SOL     OW 1855   1.743   0.501   2.410  0.0743 -0.0717 -0.3234
  619SOL    HW1 1856   1.656   0.530   2.354 -2.6129 -0.4827  0.0002
  619SOL    HW2 1857   1.724   0.405   2.447 -0.0814 -0.0484 -0.4613
  620SOL     OW 1858   2.207   2.983   0.628 -0.3390  0.1735 -0.6048
  620SOL    HW1 1859   2.167   3.063   0.672  0.6953  0.0976 -2.5482
  620SOL    HW2 1860   2.248   2.918   0.702  0.5240 -0.4680  0.5638
  621SOL     OW 1861   2.128   1.861   1.312  0.3975  0.0999 -0.2599
  621SOL    HW1 1862   2.143   1.854   1.415 -0.7024 -0.7713 -0.4341
  621SOL    HW2 1863   2.104   1.766   1.261  0.1860 -2.1962  0.1772
  622SOL     OW 1864   2.227   0.882   1.786 -0.6050 -0.2561  0.0336
  622SOL    HW1 1865   2.319   0.881   1.744 -2.2707 -2.1752 -0.2017
  622SOL    HW2 1866   2.204   0.793   1.833 -0.5556  0.4642 -1.1999
  623SOL     OW 1867   1.361   0.807   2.623  0.2336 -0.2188  0.2578
  623SOL    HW1 1868   1.307   0.753   2.687  3.0449  0.1205 -0.1415
  623SOL    HW2 1869   1.303   0.866   2.560  0.8396 -0.4484 -0.6946
  624SOL     OW 1870   0.566   0.635   3.086 -0.8313 -0.2488  0.8655
  624SOL    HW1 1871   0.595   0.686   2.999  2.2363  2.6723 -1.4589
  624SOL    HW2 1872   0.557   0.699   3.167 -1.5550  1.6144 -1.0023
  625SOL     OW 1873   2.821   1.753   0.955 -0.1405  0.0521 -0.4098
  625SOL    HW1 1874   2.717   1.765   0.946 -1.9386 -0.8635  0.2493
  625SOL    HW2 1875   2.852   1.774   1.053 -0.3193 -2.1420  0.2559
  626SOL     OW 1876   0.598   2.678   1.862 -0.4623 -0.3548  0.0773
  626SOL    HW1 1877   0.624   2.774   1.892 -1.2393  0.1488  0.2878
  626SOL    HW2 1878   0.499   2.674   1.831 -0.6496  0.6638 -3.0998
  627SOL     OW 1879   0.712   0.983   1.557 -0.3220  0.0433  0.1245
  627SOL    HW1 1880   0.747   0.890   1.519  3.3673 -2.4469  2.6396
  627SOL    HW2 1881   0.769   1.059   1.512  0.9778 -1.5397 -3.1009
  628SOL     OW 1882   2.394   0.164   0.729 -0.0673  0.3100  0.2301
  628SOL    HW1 1883   2.416   0.090   0.656 -0.7701 -1.8649  1.0079
  628SOL    HW2 1884   2.302   0.202   0.722  1.7284 -3.2163 -2.3344
  629SOL     OW 1885   1.964   0.894   2.013  0.5335  0.2396  0.4887
  629SOL    HW1 1886   2.054   0.881   1.965  0.3221  2.2057  0.6908
  629SOL    HW2 1887   1.941   0.989   2.041  0.6591  0.7017 -1.7903
  630SOL     OW 1888   2.829   2.210   0.795  0.0309 -0.2910 -0.8675
  630SOL    HW1 1889   2.763   2.283   0.836 -0.7702  3.9673 -3.2024
  630SOL    HW2 1890   2.794   2.113   0.818  0.8558  1.3921  1.8296
  631SOL     OW 1891   2.935   0.138   2.117  0.3715 -0.0499 -0.2584
  631SOL    HW1 1892   2.987   0.189   2.190 -1.2086  1.1390  2.8803
  631SOL    HW2 1893   2.996   0.109   2.042  0.6427  0.7384  3.4467
  632SOL     OW 1894   2.420   2.521   0.662 -0.0012  0.0254 -0.2255
  632SOL    HW1 1895   2.507   2.554   0.702 -2.1767  0.1279 -1.4389
  632SOL    HW2 1896   2.395   2.568   0.572  3.2673 -2.3360 -3.0537
  633SOL     OW 1897   1.474   1.277   2.517  0.0175  0.2107  0.1199
  633SOL    HW1 1898   1.470   1.359   2.583 -1.1464 -0.6001  0.0768
  633SOL    HW2 1899   1.394   1.270   2.450  0.3937  2.4076  1.3688
  634SOL     OW 1900   0.651   1.974   0.913 -0.1279  0.4596 -0.0455
  634SOL    HW1 1901   0.564   2.002   0.965  0.7951 -2.5013  0.8078
  634SOL    HW2 1902   0.721   2.053   0.914 -0.3907  1.1732 -0.0194
  635SOL     OW 1903   3.092   2.323   3.054 -0.0711 -0.0024 -0.1968
  635SOL    HW1 1904   3.045   2.375   2.979  1.0103  0.1015  4.0520
  635SOL    HW2 1905   3.095   2.377   3.143  1.2380 -3.7452  0.6628
  636SOL     OW 1906   2.283   2.716   2.079  0.2234  0.2175 -0.2156
  636SOL    HW1 1907   2.290   2.816   2.061  2.2886 -2.9081 -0.2128
  636SOL    HW2 1908   2.225   2.691   2.165  0.5641 -0.4230 -0.2863
  637SOL     OW 1909   2.583   0.728   2.012 -0.2208 -0.4983  0.3597
  637SOL    HW1 1910   2.537   0.742   1.923  0.9672 -2.5083  0.9320
  637SOL    HW2 1911   2.630   0.815   2.048 -0.0140 -1.9594 -0.4232
  638SOL     OW 1912   2.389   1.817   1.273 -0.0599  0.5281  0.0514
  638SOL    HW1 1913   2.291   1.830   1.299 -0.5211  0.6832  2.1143
  638SOL    HW2 1914   2.436   1.751   1.342 -0.5424  0.0365  2.5775
  639SOL     OW 1915   1.318   2.205   1.706 -0.0333  0.5431 -0.1179
  639SOL    HW1 1916   1.345   2.158   1.619  2.4105  1.7431 -1.9626
  639SOL    HW2 1917   1.226   2.168   1.742  0.0195  0.6565  0.9209
  640SOL     OW 1918   0.202   1.173   1.557 -0.2839  0.6988  0.1610
  640SOL    HW1 1919   0.201   1.210   1.655 -0.4116  1.0997  0.9354
  640SOL    HW2 1920   0.300   1.158   1.519 -0.6599 -1.0005 -2.1179
  641SOL     OW 1921   2.044   0.113   1.545  0.3314 -0.4438 -0.4903
  641SOL    HW1 1922   2.011   0.146   1.641 -4.1689 -3.0082  0.3845
  641SOL    HW2 1923   2.089   0.022   1.547  0.9002 -0.0773  0.8490
  642SOL     OW 1924   1.950   0.117   0.294  0.0185  0.2196 -0.4940
  642SOL    HW1 1925   2.039   0.123   0.351  2.3621 -1.8929  1.0505
  642SOL    HW2 1926   1.871   0.075   0.348 -1.6513 -3.5597  1.3706
  643SOL     OW 1927   2.881   1.862   2.074  0.0147  0.1783 -0.1040
  643SOL    HW1 1928   2.840   1.770   2.053 -0.3591 -0.5368  0.3799
  643SOL    HW2 1929   2.875   1.921   1.987  2.8711  0.5996 -1.7804
  644SOL     OW 1930   2.265   2.358   1.202 -0.0921 -0.5951 -0.0268
  644SOL    HW1 1931   2.317   2.278   1.159 -1.5605  1.7953 -0.0681
  644SOL    HW2 1932   2.223   2.352   1.295  1.4270  3.3413  0.1837
  645SOL     OW 1933   0.640   0.869   1.240 -0.1933  0.2914 -0.8275
  645SOL    HW1 1934   0.538   0.861   1.255 -0.5918 -3.1492 -0.6118
  645SOL    HW2 1935   0.668   0.858   1.144  1.8364 -0.7506 -0.5080
  646SOL     OW 1936   1.430   1.938   1.885 -0.1867 -0.0259 -0.3443
  646SOL    HW1 1937   1.515   1.997   1.870 -0.2119  1.1825  0.0888
  646SOL    HW2 1938   1.364   1.982   1.956  0.3500 -0.0170 -0.3943
  647SOL     OW 1939   0.812   1.057   0.648 -0.1343 -0.8823  0.0577
  647SOL    HW1 1940   0.874   1.094   0.725 -1.3623 -0.9847 -0.2681
  647SOL    HW2 1941   0.744   0.991   0.689  0.1829  1.7666  1.1965
  648SOL     OW 1942   0.134   0.184   0.229  0.4569 -0.3599 -0.0813
  648SOL    HW1 1943   0.161   0.124   0.151 -0.1799  1.2537  2.2157
  648SOL    HW2 1944   0.127   0.286   0.206 -1.7677  0.6609  0.1504
  649SOL     OW 1945   3.057   0.245   0.887 -0.0191  0.1032  0.0502
  649SOL    HW1 1946   3.147   0.197   0.876 -1.8227 -2.2800  1.7646
  649SOL    HW2 1947   3.052   0.299   0.976  2.5538 -0.1767  0.2923
  650SOL     OW 1948   2.716   0.654   1.445  0.5243  0.5704 -0.4056
  650SOL    HW1 1949   2.613   0.654   1.458 -1.4771 -1.7136 -2.0410
  650SOL    HW2 1950   2.744   0.739   1.397 -4.1678  1.3825  1.4852
  651SOL     OW 1951   0.942   1.553   1.599  0.2360 -0.2246  0.4713
  651SOL    HW1 1952   0.971   1.650   1.616  0.1135  2.3617 -1.4572
  651SOL    HW2 1953   0.978   1.522   1.505 -0.2453  2.0943  0.1076
  652SOL     OW 1954   2.263   2.474   2.520 -0.1373  0.6303 -0.5383
  652SOL    HW1 1955   2.173   2.443   2.557 -1.6151  2.3526  1.7597
  652SOL    HW2 1956   2.249   2.538   2.435 -2.0019  3.4612 -0.6886
  653SOL     OW 1957   2.709   1.202   0.177  0.2840  0.0548 -0.4170
  653SOL    HW1 1958   2.752   1.272   0.241  0.0822 -0.8965 -1.5340
  653SOL    HW2 1959   2.777   1.129   0.160  1.3079  0.4343  4.4956
  654SOL     OW 1960   1.287   2.262   1.240 -0.3285  0.1086 -0.4412
  654SOL    HW1 1961   1.309   2.206   1.322 -1.0046  1.7341 -1.5199
  654SOL    HW2 1962   1.328   2.222   1.157 -0.6190  0.6962 -1.4462
  655SOL     OW 1963   0.205   0.966   1.859  0.1533 -0.3753 -0.1231
  655SOL    HW1 1964   0.233   0.871   1.823  0.6016 -1.1768  0.7684
  655SOL    HW2 1965   0.280   1.035   1.882  0.2032  0.5977 -2.0443
  656SOL     OW 1966   2.545   2.514   2.646 -0.1042 -0.0287 -0.6918
  656SOL    HW1 1967   2.600   2.499   2.563 -0.5274 -2.6968 -1.9798
  656SOL    HW2 1968   2.440   2.498   2.636 -0.8476 -0.6996 -1.9433
  657SOL     OW 1969   3.062   1.059   1.932  0.0919 -0.2792 -0.1869
  657SOL    HW1 1970   3.067   1.159   1.947  0.0521 -0.1522 -2.1897
  657SOL    HW2 1971   3.156   1.024   1.902 -0.1321 -1.9065  0.1010
  658SOL     OW 1972   1.722   0.237   2.429 -0.1259 -0.1174  0.1692
  658SOL    HW1 1973   1.750   0.151   2.477  0.9269  0.4157  1.3249
  658SOL    HW2 1974   1.715   0.224   2.329  1.3956 -2.8574  0.5369
  659SOL     OW 1975   1.453   0.649   2.945 -0.0099 -0.2804  0.0137
  659SOL    HW1 1976   1.511   0.733   2.931 -0.1701  2.0958  0.1238
  659SOL    HW2 1977   1.357   0.651   2.904 -0.7855 -2.1455  1.8688
  660SOL     OW 1978   1.422   0.331   1.451  0.5424 -0.3314  0.1297
  660SOL    HW1 1979   1.464   0.343   1.549 -0.1234 -2.3591  0.5053
  660SOL    HW2 1980   1.462   0.249   1.400  2.4712 -0.4348 -3.1626
  661SOL     OW 1981   2.495   1.177   0.685 -0.2630 -0.3738  0.1401
  661SOL    HW1 1982   2.519   1.163   0.583 -0.5095 -2.3347  1.0569
  661SOL    HW2 1983   2.433   1.257   0.697  0.6905 -2.5041 -1.6579
  662SOL     OW 1984   1.372   0.446   1.850  0.2466 -0.2348 -0.5592
  662SOL    HW1 1985   1.337   0.351   1.825 -0.8129 -0.5974 -1.4218
  662SOL    HW2 1986   1.329   0.483   1.935  0.2439 -0.2850  0.2799
  663SOL     OW 1987   0.774   1.557   2.168  0.3005  0.5100 -0.6694
  663SOL    HW1 1988   0.756   1.654   2.207  2.6750 -2.1104 -1.6137
  663SOL    HW2 1989   0.717   1.533   2.087  0.1608 -2.1349  1.5487
  664SOL     OW 1990   1.635   2.116   1.485 -0.0876  0.0110 -0.6713
  664SOL    HW1 1991   1.590   2.032   1.517  0.6140  0.4641  0.8628
  664SOL    HW2 1992   1.735   2.111   1.458  0.0174  1.5250 -0.0869
  665SOL     OW 1993   2.253   0.644   1.953 -0.4213  0.3669 -0.0849
  665SOL    HW1 1994   2.263   0.545   1.987  2.1087 -0.8418 -3.5095
  665SOL    HW2 1995   2.246   0.713   2.033 -0.1405  1.1292  1.9277
  666SOL     OW 1996   0.391   2.351   0.432  0.3726  0.0667  0.2179
  666SOL    HW1 1997   0.477   2.404   0.456  0.1628  0.3034 -2.0337
  666SOL    HW2 1998   0.364   2.277   0.504 -1.1273 -2.2230  2.9101
  667SOL     OW 1999   2.004   0.167   1.147  0.1161  0.9673 -0.3235
  667SOL    HW1 2000   2.029   0.263   1.137  2.7285 -1.8424 -0.0330
  667SOL    HW2 2001   1.913   0.155   1.194 -0.6584 -0.3362 -2.9489
  668SOL     OW 2002   1.994   0.473   1.197 -0.1647 -0.5380 -0.3843
  668SOL    HW1 2003   2.050   0.522   1.124  3.1793 -0.1277 -0.8468
  668SOL    HW2 2004   2.054   0.440   1.279  0.5599 -0.5811 -0.8323
  669SOL     OW 2005   3.035   2.247   0.996 -1.0715  0.6203  0.0633
  669SOL    HW1 2006   2.983   2.213   0.912  3.3786 -0.8891  0.8672
  669SOL    HW2 2007   2.984   2.254   1.086  3.0297  0.8140 -0.5664
  670SOL     OW 2008   2.866   2.342   1.951  0.2779  0.1720  0.3122
  670SOL    HW1 2009   2.798   2.311   2.027  0.5761 -1.2580  0.3351
  670SOL    HW2 2010   2.850   2.439   1.929 -2.5736 -2.3081  0.5466
  671SOL     OW 2011   1.772   1.732   1.449  0.5463  0.1680 -0.1396
  671SOL    HW1 2012   1.793   1.779   1.360 -1.6569 -1.2212  1.9865
  671SOL    HW2 2013   1.702   1.660   1.432 -0.0903 -1.0468  1.2764
  672SOL     OW 2014   0.374   0.605   2.367  0.0337 -0.2856  0.2248
  672SOL    HW1 2015   0.432   0.654   2.296  0.7855 -0.0850  2.0324
  672SOL    HW2 2016   0.286   0.652   2.389  1.3760 -3.4708 -0.9106
  673SOL     OW 2017   0.149   1.163   1.142 -0.0681  0.5612 -0.5727
  673SOL    HW1 2018   0.179   1.251   1.191  0.8386 -0.7734 -0.9423
  673SOL    HW2 2019   0.234   1.108   1.109  1.2686 -3.7260  1.3508
  674SOL     OW 2020   1.600   2.939   0.215  0.1609 -0.2147 -0.4358
  674SOL    HW1 2021   1.655   3.024   0.190 -2.2436  3.3018 -0.2266
  674SOL    HW2 2022   1.599   2.877   0.139 -1.5736  1.2378  0.4594
  675SOL     OW 2023   1.661   0.859   2.310  0.4156  0.2806 -0.6991
  675SOL    HW1 2024   1.757   0.851   2.279 -2.9614  1.2052 -0.5218
  675SOL    HW2 2025   1.593   0.787   2.284 -2.7529  2.0359  1.0710
  676SOL     OW 2026   2.484   1.471   2.034  0.0302  0.7047  0.6978
  676SOL    HW1 2027   2.497   1.468   1.927  0.3374  2.0026 -2.1777
  676SOL    HW2 2028   2.543   1.397   2.077 -0.5200  1.2535 -0.8322
  677SOL     OW 2029   1.943   0.677   0.817 -0.6440 -0.2230  0.4371
  677SOL    HW1 2030   1.942   0.729   0.904 -0.7809 -2.9802 -0.2375
  677SOL    HW2 2031   1.945   0.574   0.829 -1.0259  2.1321  0.8384
  678SOL     OW 2032   0.044   0.737   1.660  0.0585 -0.1097 -0.0903
  678SOL    HW1 2033   0.149   0.737   1.682  2.5638 -0.9333  0.4157
  678SOL    HW2 2034  -0.016   0.751   1.741 -1.0097 -1.0024 -0.8428
  679SOL     OW 2035   2.604   1.154   1.120  0.1289  0.0608  0.3605
  679SOL    HW1 2036   2.509   1.170   1.163  1.1380  1.7376 -0.5203
  679SOL    HW2 2037   2.618   1.050   1.117  0.6483 -0.5496  1.4814
  680SOL     OW 2038   2.780   0.628   1.698  0.3224  0.1606  0.2196
  680SOL    HW1 2039   2.759   0.665   1.603  2.3387  0.6177 -0.1235
  680SOL    HW2 2040   2.795   0.708   1.765 -1.7651  0.2621 -0.4629
  681SOL     OW 2041   2.992   0.142   1.621 -0.0860 -0.7546 -0.5142
  681SOL    HW1 2042   3.075   0.167   1.570  1.1292  0.7402 -0.2932
  681SOL    HW2 2043   2.926   0.223   1.627 -0.5892  2.7422 -2.4593
  682SOL     OW 2044   0.728   0.041   1.304  1.1756 -0.1406  0.3442
  682SOL    HW1 2045   0.688  -0.046   1.340 -2.1067 -0.9119 -0.6193
  682SOL    HW2 2046   0.763   0.034   1.208  0.5873  0.9051 -1.8669
  683SOL     OW 2047   1.325   0.216   2.180  0.3700 -0.1679 -0.3344
  683SOL    HW1 2048   1.286   0.277   2.255 -1.3389  0.2583 -3.8288
  683SOL    HW2 2049   1.407   0.259   2.138  1.0891 -1.1089  1.3294
  684SOL     OW 2050   1.473   2.157   0.567  0.2020  0.5644  0.3486
  684SOL    HW1 2051   1.531   2.096   0.625  0.9168  3.3293  1.4522
  684SOL    HW2 2052   1.393   2.109   0.523  1.2847 -0.5030  1.1890
  685SOL     OW 2053   2.159   2.009   1.938  0.0568 -0.1382 -0.1361
  685SOL    HW1 2054   2.200   2.000   1.846  0.7183 -0.2453  0.3137
  685SOL    HW2 2055   2.194   1.933   2.000 -0.1701 -0.8768 -3.2111
  686SOL     OW 2056   1.510   1.792   2.765 -0.2803 -0.3511 -0.2506
  686SOL    HW1 2057   1.557   1.737   2.840 -2.4206 -0.4705 -0.1921
  686SOL    HW2 2058   1.535   1.748   2.674  1.3506 -1.0190  1.5713
  687SOL     OW 2059   1.267   2.510   1.952  0.1882 -0.2826 -0.9598
  687SOL    HW1 2060   1.281   2.414   1.978  1.0999  0.6619  0.2281
  687SOL    HW2 2061   1.311   2.581   2.015 -1.2322  0.1871  4.5394
  688SOL     OW 2062   2.070   1.543   1.722  0.5048 -0.3340 -0.7188
  688SOL    HW1 2063   2.170   1.565   1.710  0.1586  1.2042 -0.2501
  688SOL    HW2 2064   2.017   1.534   1.631 -2.3374 -2.3570 -1.1082
  689SOL     OW 2065   2.479   1.084   2.688  0.0738 -0.0702  1.0959
  689SOL    HW1 2066   2.383   1.072   2.726  3.6377  2.1085 -0.5852
  689SOL    HW2 2067   2.540   1.081   2.771 -0.2162  1.1456  1.7749
  690SOL     OW 2068   2.259   2.796   0.050 -0.6767 -0.2646 -0.0954
  690SOL    HW1 2069   2.204   2.731  -0.012 -1.6910 -1.3002 -1.7762
  690SOL    HW2 2070   2.234   2.803   0.152  1.4422  1.8646  0.7473
  691SOL     OW 2071   2.554   0.463   2.107 -0.3558 -0.1099 -0.2946
  691SOL    HW1 2072   2.611   0.392   2.062  0.2752 -1.6154  0.6539
  691SOL    HW2 2073   2.573   0.560   2.075  1.3039 -2.7574 -0.4629
  692SOL     OW 2074   2.777   1.225   0.720  0.1881 -0.2552 -0.0220
  692SOL    HW1 2075   2.678   1.197   0.721  0.8972 -0.0858 -2.1848
  692SOL    HW2 2076   2.805   1.301   0.791 -2.1459  3.8585  0.1227
  693SOL     OW 2077   2.781   2.934   0.638  0.2492 -0.2319 -0.0128
  693SOL    HW1 2078   2.798   3.016   0.702 -1.0717 -0.0266 -0.7115
  693SOL    HW2 2079   2.725   2.960   0.555 -2.1676  0.8863 -0.1377
  694SOL     OW 2080   2.425   2.217   0.088  0.3152 -0.0549  0.1217
  694SOL    HW1 2081   2.395   2.316   0.111  1.2140  3.0533 -0.4744
  694SOL    HW2 2082   2.351   2.160   0.045  0.0825 -0.7079  0.3678
  695SOL     OW 2083   0.607   2.956   1.478  0.2162  0.2618 -0.3119
  695SOL    HW1 2084   0.570   2.869   1.438  1.6621 -0.5518  0.0084
  695SOL    HW2 2085   0.561   2.988   1.562  2.2572 -0.3869 -0.6090
  696SOL     OW 2086   2.781   1.944   0.749 -1.0682 -0.4420 -0.2052
  696SOL    HW1 2087   2.778   1.851   0.793 -3.6243 -0.6312  0.4501
  696SOL    HW2 2088   2.841   1.944   0.666 -1.5139 -0.5153  2.3044
  697SOL     OW 2089   1.652   2.075   1.838  0.5001 -0.2252  0.6019
  697SOL    HW1 2090   1.740   2.048   1.882 -0.2665  3.0037 -0.8947
  697SOL    HW2 2091   1.659   2.170   1.789  1.6470 -1.4609 -0.3186
  698SOL     OW 2092   2.965   0.400   2.743 -0.2635  0.1455 -0.3434
  698SOL    HW1 2093   2.942   0.366   2.649  2.7662  1.5470  0.8239
  698SOL    HW2 2094   3.006   0.323   2.803 -0.0344 -0.0367  0.2662
  699SOL     OW 2095   1.568   0.064   2.931 -0.2579 -0.5629 -0.4905
  699SOL    HW1 2096   1.520  -0.021   2.895  0.8621 -0.1672 -0.0059
  699SOL    HW2 2097   1.600   0.134   2.865 -1.2826 -2.9648 -1.8652
  700SOL     OW 2098   1.010   2.302   1.310 -0.2355  0.2323  0.0147
  700SOL    HW1 2099   1.111   2.286   1.283 -0.0737 -0.4882 -0.9311
  700SOL    HW2 2100   0.948   2.256   1.246  1.7623  1.3389 -0.5861
  701SOL     OW 2101   1.927   2.837   3.058  0.0671 -0.0435  0.1473
  701SOL    HW1 2102   1.901   2.788   3.147 -1.0045  1.4055 -0.9795
  701SOL    HW2 2103   1.921   2.942   3.071 -1.0355 -0.0103  2.5126
  702SOL     OW 2104   2.072   1.354   1.908  0.5056 -0.1986  0.2075
  702SOL    HW1 2105   2.156   1.287   1.898  0.0671  0.6603 -0.0037
  702SOL    HW2 2106   2.076   1.428   1.833  0.0358  0.5107 -4.2107
  703SOL     OW 2107   1.970   0.881   1.399  0.0001 -0.1253 -0.3423
  703SOL    HW1 2108   1.972   0.784   1.438 -0.6274 -1.0264 -0.8208
  703SOL    HW2 2109   2.003   0.951   1.474  1.0752 -0.8965 -1.0073
  704SOL     OW 2110   0.326   2.045   1.664  0.0852  0.2648  0.4058
  704SOL    HW1 2111   0.358   1.991   1.745 -0.5727  2.0905 -0.7307
  704SOL    HW2 2112   0.401   2.117   1.646  1.1694  1.1271 -3.2588
  705SOL     OW 2113   2.511   1.381   0.957  0.3503 -0.1964 -0.1265
  705SOL    HW1 2114   2.437   1.363   0.882 -0.1658 -0.8822 -0.4465
  705SOL    HW2 2115   2.558   1.294   0.983 -1.8431  1.0919 -1.3310
  706SOL     OW 2116   0.654   1.710   1.837  0.6873  0.1524  0.0816
  706SOL    HW1 2117   0.641   1.607   1.861 -2.5159 -0.2874  0.3095
  706SOL    HW2 2118   0.726   1.760   1.889 -0.8079 -2.8166  2.4666
  707SOL     OW 2119   2.247   1.142   1.889  0.1672 -0.7148  0.3001
  707SOL    HW1 2120   2.346   1.162   1.909 -2.2112 -2.1546 -0.3248
  707SOL    HW2 2121   2.234   1.051   1.836 -0.0756 -0.4510 -1.2653
  708SOL     OW 2122   2.968   0.515   3.051 -0.4719  0.2142  0.4128
  708SOL    HW1 2123   3.002   0.571   2.970  2.7665 -0.0149 -0.0656
  708SOL    HW2 2124   2.983   0.414   3.026  1.5239 -4.5629 -3.0565
  709SOL     OW 2125   1.776   1.881   0.191 -0.0962  0.5488  0.0110
  709SOL    HW1 2126   1.843   1.959   0.203 -0.9308 -0.9576  2.6537
  709SOL    HW2 2127   1.798   1.831   0.101  1.4363 -0.9434 -1.1463
  710SOL     OW 2128   1.679   1.622   2.421 -0.2755  0.2927  0.1883
  710SOL    HW1 2129   1.725   1.611   2.326 -0.8392 -3.3032  1.9789
  710SOL    HW2 2130   1.724   1.553   2.489 -0.1111 -0.8242  0.0179
  711SOL     OW 2131   2.640   2.971   0.953 -1.1173  0.2077  0.0424
  711SOL    HW1 2132   2.611   3.070   0.950 -0.3687 -0.0309 -0.9600
  711SOL    HW2 2133   2.738   2.950   0.924  0.1947  0.1115 -2.1092
  712SOL     OW 2134   1.373   2.233   1.975  0.2493  0.2494 -0.4501
  712SOL    HW1 2135   1.470   2.252   2.014  0.9498 -3.2712 -0.0993
  712SOL    HW2 2136   1.379   2.213   1.871 -1.8951  1.6016 -0.0096
  713SOL     OW 2137   2.911   1.470   2.564 -0.5739  0.2620 -0.4787
  713SOL    HW1 2138   2.876   1.376   2.528  1.0092 -2.1767  0.5267
  713SOL    HW2 2139   2.878   1.477   2.662 -2.8872  0.2844  1.3222
  714SOL     OW 2140   2.664   0.482   2.389 -0.3059 -0.3477 -0.8219
  714SOL    HW1 2141   2.618   0.427   2.465  1.3711  1.4827 -0.8851
  714SOL    HW2 2142   2.614   0.484   2.299  1.7175 -0.9591 -0.0481
  715SOL     OW 2143   1.605   2.038   1.211  0.1999  0.0418  0.5144
  715SOL    HW1 2144   1.523   2.077   1.159  2.2695 -0.8887 -2.4026
  715SOL    HW2 2145   1.614   2.077   1.308 -0.9011 -0.6433 -2.0332
  716SOL     OW 2146   1.188   0.178   1.499  0.1621  0.2477  0.0796
  716SOL    HW1 2147   1.101   0.218   1.462  0.1730 -2.2573 -0.6673
  716SOL    HW2 2148   1.272   0.227   1.464  1.0474  0.2188  1.0761
  717SOL     OW 2149   1.128   0.591   1.616  0.1399  0.0263 -0.3897
  717SOL    HW1 2150   1.231   0.622   1.634  2.6880  1.1026 -1.3348
  717SOL    HW2 2151   1.103   0.550   1.520 -1.1829  2.3723 -0.4888
  718SOL     OW 2152   0.745   0.930   0.942  0.7724 -0.0154  0.5435
  718SOL    HW1 2153   0.698   0.888   0.860 -1.1030  1.1664  0.2534
  718SOL    HW2 2154   0.700   1.016   0.978 -2.2951 -0.2135 -0.7547
  719SOL     OW 2155   0.671   1.812   2.270  0.0665  0.0498  0.3702
  719SOL    HW1 2156   0.711   1.861   2.351  1.7791  1.0060  0.1632
  719SOL    HW2 2157   0.571   1.793   2.282 -3.3973  0.7385 -1.1665
  720SOL     OW 2158   2.168   1.154   0.250 -0.2828  0.0410 -0.4260
  720SOL    HW1 2159   2.239   1.096   0.197  1.7947 -0.8679 -0.2049
  720SOL    HW2 2160   2.180   1.142   0.355 -0.7933  1.5880 -0.5863
  721SOL     OW 2161   2.282   2.989   2.084  0.0692 -0.0748 -0.2633
  721SOL    HW1 2162   2.342   3.037   2.018  1.2055 -1.5360  0.6373
  721SOL    HW2 2163   2.187   3.027   2.102  0.0307  1.7912 -0.1057
  722SOL     OW 2164   2.363   1.616   0.580  0.6332 -0.4252  0.2742
  722SOL    HW1 2165   2.374   1.607   0.481 -0.5643 -1.1187  1.0763
  722SOL    HW2 2166   2.331   1.710   0.608 -1.5711  0.2085  0.6079
  723SOL     OW 2167   2.563   2.678   2.012  0.1379 -0.2707  0.3480
  723SOL    HW1 2168   2.603   2.744   2.083 -1.1593 -1.2609 -0.8513
  723SOL    HW2 2169   2.459   2.694   2.011 -0.8781 -0.2140  0.4092
  724SOL     OW 2170   0.535   2.464   2.416  0.2284 -0.1568  0.1380
  724SOL    HW1 2171   0.447   2.432   2.449  1.1591  1.7848 -0.3365
  724SOL    HW2 2172   0.588   2.516   2.487 -0.0368 -0.8149 -2.9454
  725SOL     OW 2173   2.429   2.778   1.513  0.0312  0.0064  0.3307
  725SOL    HW1 2174   2.437   2.785   1.412 -0.0966  0.0576 -1.2225
  725SOL    HW2 2175   2.370   2.696   1.544  0.9877 -2.3929  0.3896
  726SOL     OW 2176   2.394   2.224   0.676 -0.4268  0.2411  0.2686
  726SOL    HW1 2177   2.364   2.321   0.649 -1.0986 -2.1260  1.2696
  726SOL    HW2 2178   2.415   2.163   0.591 -2.5436 -3.7582 -2.5871
  727SOL     OW 2179   0.156   3.066   0.052  0.0527  0.5111  0.0041
  727SOL    HW1 2180   0.179   2.963   0.052  0.4804 -0.0926  1.3762
  727SOL    HW2 2181   0.060   3.081   0.011  1.0337  0.4310  2.2036
  728SOL     OW 2182   2.881   0.688   0.981  0.2757 -0.1165 -0.0826
  728SOL    HW1 2183   2.790   0.679   0.938 -1.1161 -0.5495  2.8810
  728SOL    HW2 2184   2.879   0.652   1.077 -0.8324 -2.4095 -1.5909
  729SOL     OW 2185   2.970   2.515   0.747 -0.4326  0.3615 -0.4144
  729SOL    HW1 2186   2.911   2.435   0.772 -2.1200 -4.0934  1.4396
  729SOL    HW2 2187   3.067   2.486   0.742 -0.2137  0.3852  0.0888
  730SOL     OW 2188   2.607   0.637   0.854  0.0800 -0.4017  0.1402
  730SOL    HW1 2189   2.540   0.719   0.829 -0.4013 -1.5226 -0.2019
  730SOL    HW2 2190   2.674   0.629   0.774 -3.2001  0.0831  3.0294
  731SOL     OW 2191   0.139   2.148   2.436 -0.0981  0.1066  0.1198
  731SOL    HW1 2192   0.108   2.159   2.535 -1.5996 -0.8210 -0.6673
  731SOL    HW2 2193   0.179   2.234   2.393 -1.7702 -2.8480 -0.7786
  732SOL     OW 2194   1.107   2.855   1.943 -0.5941  0.5269 -0.2049
  732SOL    HW1 2195   1.140   2.798   2.022 -2.8847  0.3949 -0.4540
  732SOL    HW2 2196   1.129   2.816   1.849  1.0609  1.6829 -2.4893
  733SOL     OW 2197   3.047   0.577   2.216  0.4177  0.7793 -0.2355
  733SOL    HW1 2198   3.124   0.626   2.178 -4.6748  1.0079 -2.1518
  733SOL    HW2 2199   2.969   0.556   2.149 -2.0612 -1.2102  1.1524
  734SOL     OW 2200   1.414   0.377   2.755 -0.0176  0.2580 -0.2176
  734SOL    HW1 2201   1.428   0.472   2.800  0.5539  1.3227  1.5700
  734SOL    HW2 2202   1.325   0.333   2.772  0.5054  0.9071  0.5489
  735SOL     OW 2203   2.894   2.618   2.246  0.5375 -0.5174 -0.6715
  735SOL    HW1 2204   2.865   2.620   2.147  1.0612  0.6837 -1.6787
  735SOL    HW2 2205   2.994   2.620   2.253 -0.6863 -0.3369  2.1911
  736SOL     OW 2206   0.748   0.310   2.651 -0.1389  0.1118 -0.1622
  736SOL    HW1 2207   0.652   0.343   2.637  2.8295  0.4919  0.0962
  736SOL    HW2 2208   0.792   0.291   2.553 -0.8500  2.3574 -0.1589
  737SOL     OW 2209   2.671   0.379   2.860 -0.0294  0.0055 -0.0212
  737SOL    HW1 2210   2.637   0.360   2.956 -2.6014 -1.0213 -1.4902
  737SOL    HW2 2211   2.760   0.338   2.832 -1.0434 -0.7889  2.0695
  738SOL     OW 2212   1.606   1.248   2.918  0.3541 -0.4282 -0.1659
  738SOL    HW1 2213   1.709   1.221   2.932 -0.2991 -1.7620 -0.6769
  738SOL    HW2 2214   1.561   1.188   2.845  0.4740  0.4287  2.5023
  739SOL     OW 2215   1.722   0.591   0.688 -0.2926 -0.2737 -0.4011
  739SOL    HW1 2216   1.786   0.639   0.758  2.1213  0.6568 -0.9209
  739SOL    HW2 2217   1.767   0.507   0.651 -0.3511  0.0443 -1.4760
  740SOL     OW 2218   1.997   1.932   2.296 -0.9094  0.1545  0.5476
  740SOL    HW1 2219   2.041   1.838   2.305  2.2759 -2.2043  0.7341
  740SOL    HW2 2220   1.897   1.922   2.275  0.7751  1.5705 -0.2958
  741SOL     OW 2221   2.542   0.066   2.637  0.1465 -0.3633 -0.3533
  741SOL    HW1 2222   2.648   0.054   2.620  1.4242  3.4237 -0.6936
  741SOL    HW2 2223   2.485   0.038   2.557 -2.7958  0.7950  0.1253
  742SOL     OW 2224   2.218   1.466   0.203 -0.5277 -0.2370 -0.3909
  742SOL    HW1 2225   2.143   1.540   0.220 -0.1574  1.0546 -0.8487
  742SOL    HW2 2226   2.196   1.369   0.233  1.7547  0.0320 -0.7845
  743SOL     OW 2227   1.838   0.662   2.616  0.6080 -0.4520 -0.0233
  743SOL    HW1 2228   1.792   0.612   2.538  0.7806  0.4257  1.5757
  743SOL    HW2 2229   1.782   0.748   2.639 -0.2305  1.9526  1.6872
  744SOL     OW 2230   2.672   2.099   0.067  0.0783 -0.4512  0.0201
  744SOL    HW1 2231   2.589   2.153   0.096  3.9931  3.7148 -0.3687
  744SOL    HW2 2232   2.654   1.996   0.052  1.8016  2.9010 -0.8508
  745SOL     OW 2233   2.160   2.635   2.328  0.3587 -0.0401 -0.3334
  745SOL    HW1 2234   2.078   2.609   2.269 -0.3040  1.3608 -3.0389
  745SOL    HW2 2235   2.159   2.730   2.367 -0.5347  0.9778 -0.7478
  746SOL     OW 2236   3.063   2.626   1.727  0.0479 -0.1114  0.1488
  746SOL    HW1 2237   3.143   2.618   1.660 -0.8384 -0.1936  1.3190
  746SOL    HW2 2238   3.042   2.726   1.753 -0.2617  0.5249 -2.2090
  747SOL     OW 2239   0.000   1.799   1.631 -0.5613 -0.4135  0.1224
  747SOL    HW1 2240  -0.053   1.722   1.580 -0.6765  1.7690 -0.5181
  747SOL    HW2 2241   0.074   1.842   1.571  3.0790 -0.6108 -0.0214
  748SOL     OW 2242   1.856   2.734   2.806  0.2722 -0.0048 -0.8938
  748SOL    HW1 2243   1.883   2.774   2.897 -1.9191 -0.9526  0.7333
  748SOL    HW2 2244   1.757   2.705   2.820  0.2228  0.2445  3.0152
  749SOL     OW 2245   1.313   3.063   0.919 -0.3197 -0.0311 -0.7800
  749SOL    HW1 2246   1.217   3.031   0.899  1.0607  0.7662  0.7490
  749SOL    HW2 2247   1.356   3.098   0.830  1.6359  4.1497 -0.5927
  750SOL     OW 2248   2.407   0.226   1.885  0.5658  0.7187  0.6882
  750SOL    HW1 2249   2.391   0.276   1.793 -0.9951  0.1990 -0.1562
  750SOL    HW2 2250   2.387   0.290   1.963 -0.6966  0.3061  0.8563
  751SOL     OW 2251   0.941   2.203   2.703  0.3700 -0.7567 -0.0500
  751SOL    HW1 2252   0.956   2.224   2.805  0.9052  0.4465 -0.4339
  751SOL    HW2 2253   0.844   2.182   2.677  0.6553  1.5655  0.1583
  752SOL     OW 2254   1.259   0.878   1.443 -0.0971  0.3556  0.6358
  752SOL    HW1 2255   1.332   0.938   1.404  0.3153 -0.1242  0.9147
  752SOL    HW2 2256   1.299   0.785   1.429  1.6518 -0.1337  0.2895
  753SOL     OW 2257   0.959   2.585   1.717 -0.2681  0.0874 -0.0340
  753SOL    HW1 2258   1.058   2.623   1.739  2.3522 -0.6950 -1.8315
  753SOL    HW2 2259   0.891   2.655   1.677  3.2836  0.2252 -1.9995
  754SOL     OW 2260   1.178   1.305   0.012  0.7335  0.7149 -0.1874
  754SOL    HW1 2261   1.205   1.243  -0.066  2.9888  0.5322  3.5837
  754SOL    HW2 2262   1.160   1.404  -0.018  0.4214  0.3034  0.7281
  755SOL     OW 2263   1.979   0.435   2.196  0.0899 -0.3111 -0.0419
  755SOL    HW1 2264   2.077   0.409   2.221  0.8932  0.6675 -0.9344
  755SOL    HW2 2265   1.915   0.435   2.276 -0.7661  1.1479 -3.8604
  756SOL     OW 2266   2.555   0.980   2.950  0.3942 -0.3362 -0.6153
  756SOL    HW1 2267   2.652   0.977   2.971 -2.3049  0.7323  0.9436
  756SOL    HW2 2268   2.501   0.909   3.005 -0.5142 -3.4361 -1.4502
  757SOL     OW 2269   3.074   0.435   1.805  0.8441 -0.2180  0.5097
  757SOL    HW1 2270   3.167   0.386   1.830  0.6446 -1.9777 -4.2514
  757SOL    HW2 2271   3.027   0.395   1.721 -1.4422  0.9222 -0.7880
  758SOL     OW 2272   2.387   0.094   1.406 -0.2778  0.5422 -0.1547
  758SOL    HW1 2273   2.324   0.052   1.478  3.0374 -1.2356 -0.9259
  758SOL    HW2 2274   2.370   0.067   1.301  1.9035 -0.8911 -0.1568
  759SOL     OW 2275   1.713   0.054   0.077  0.3038 -0.3957  0.2667
  759SOL    HW1 2276   1.659   0.040  -0.010 -2.0002 -0.1029  0.5283
  759SOL    HW2 2277   1.817   0.058   0.060 -0.1177 -3.4167  0.6909
  760SOL     OW 2278   2.734   2.082   2.808  0.2394 -0.3155  0.2064
  760SOL    HW1 2279   2.801   2.012   2.848 -1.5760 -0.9892  0.9591
  760SOL    HW2 2280   2.723   2.165   2.867 -0.4650 -2.2152 -2.0441
  761SOL     OW 2281   1.905   1.781   1.723  0.0727 -0.1508 -0.2243
  761SOL    HW1 2282   1.938   1.695   1.761  0.8128 -0.5916 -0.6250
  761SOL    HW2 2283   1.841   1.768   1.645  1.1509  0.0620 -0.5740
  762SOL     OW 2284   0.459   2.312   0.985 -0.0739 -0.2801  0.1528
  762SOL    HW1 2285   0.484   2.316   0.884 -0.7603 -1.3592 -1.5189
  762SOL    HW2 2286   0.515   2.384   1.034 -0.9008 -1.3398  2.1524
  763SOL     OW 2287   2.081   1.506   2.928  0.1042  0.0796 -0.3133
  763SOL    HW1 2288   2.176   1.495   2.972  0.9589  0.4886  2.7423
  763SOL    HW2 2289   2.001   1.469   2.986 -0.6685  1.5057  1.9281
  764SOL     OW 2290   0.633   0.607   0.840  0.2462  0.3989 -0.7813
  764SOL    HW1 2291   0.580   0.526   0.805 -1.4955  3.1046  0.0778
  764SOL    HW2 2292   0.725   0.581   0.883  1.7532  1.0572 -2.0774
  765SOL     OW 2293   0.717   0.229   0.796  0.2141  0.1686 -0.0327
  765SOL    HW1 2294   0.766   0.287   0.726  0.7888 -2.4195  3.1811
  765SOL    HW2 2295   0.708   0.273   0.889  0.7339  1.9033 -0.1691
  766SOL     OW 2296   2.938   2.089   3.089  0.4781  0.0818 -0.1052
  766SOL    HW1 2297   2.841   2.081   3.115  1.3378  0.3226 -0.9673
  766SOL    HW2 2298   2.962   2.187   3.059 -0.3994  1.0184 -1.7083
  767SOL     OW 2299   2.833   1.561   0.558  0.7339  0.0103 -0.5665
  767SOL    HW1 2300   2.748   1.598   0.602 -2.3956 -0.6854 -2.5718
  767SOL    HW2 2301   2.909   1.571   0.622 -2.4792 -1.4777 -1.4202
  768SOL     OW 2302   1.109   0.196   0.352  0.1577 -0.4910 -0.5108
  768SOL    HW1 2303   1.019   0.147   0.354 -1.3023  0.5500 -0.5202
  768SOL    HW2 2304   1.187   0.133   0.316 -1.6694  0.6111  0.4566
  769SOL     OW 2305   1.065   1.888   2.228  0.8329 -0.1501 -0.0192
  769SOL    HW1 2306   0.974   1.930   2.262 -2.9196 -1.8357 -3.5087
  769SOL    HW2 2307   1.052   1.784   2.220 -1.6293 -3.5667  0.7473
  770SOL     OW 2308   0.158   1.199   2.234 -0.0634  0.4969 -0.4043
  770SOL    HW1 2309   0.120   1.213   2.333 -2.0999  0.0273  0.4092
  770SOL    HW2 2310   0.091   1.158   2.173  0.4009  1.6805 -0.2470
  771SOL     OW 2311   2.955   2.860   1.893 -0.6242 -0.3469 -0.5860
  771SOL    HW1 2312   2.935   2.925   1.816 -0.2459  0.2823 -2.1911
  771SOL    HW2 2313   2.921   2.888   1.989 -0.0210  0.5391  1.1475
  772SOL     OW 2314   2.175   0.128   2.943 -0.0762 -0.4986  0.4642
  772SOL    HW1 2315   2.272   0.102   2.927 -1.0673 -0.0704  0.5079
  772SOL    HW2 2316   2.170   0.218   3.005  2.1824 -1.9578  2.0105
  773SOL     OW 2317   0.700   2.206   2.494  0.4800 -0.3634  0.4579
  773SOL    HW1 2318   0.659   2.213   2.396 -1.0608  1.5318  1.1924
  773SOL    HW2 2319   0.633   2.165   2.562  1.3484  1.4052 -0.3834
  774SOL     OW 2320   2.024   0.042   2.643  0.5074  0.0777 -0.0017
  774SOL    HW1 2321   2.046   0.131   2.682 -2.2652  1.7549 -0.5959
  774SOL    HW2 2322   2.046  -0.038   2.709  0.5563  3.9475  3.1913
  775SOL     OW 2323   2.528   2.816   2.441 -0.0139 -0.2483  0.4010
  775SOL    HW1 2324   2.522   2.922   2.444  0.3942 -0.1842  2.3430
  775SOL    HW2 2325   2.625   2.780   2.460  0.8060  1.9345 -2.9118
  776SOL     OW 2326   0.066   1.273   0.207 -0.6425 -0.8502  0.6780
  776SOL    HW1 2327   0.023   1.238   0.119  0.0702  2.3426 -1.4730
  776SOL    HW2 2328   0.006   1.256   0.285  2.0060 -0.4145 -0.9229
  777SOL     OW 2329   0.254   2.834   0.469 -0.2813  0.2190  0.1211
  777SOL    HW1 2330   0.155   2.832   0.428  0.4685 -0.7218 -3.0628
  777SOL    HW2 2331   0.266   2.914   0.535 -2.7577  0.1296  2.5351
  778SOL     OW 2332   1.338   1.949   0.181  0.3839  0.1294 -0.3983
  778SOL    HW1 2333   1.281   1.969   0.260  0.8516 -1.2736 -0.0439
  778SOL    HW2 2334   1.379   2.034   0.134  0.5654  0.2493  1.4668
  779SOL     OW 2335   0.203   0.850   0.488 -0.3067 -0.2592  0.4319
  779SOL    HW1 2336   0.165   0.753   0.475  0.3163  0.1243 -1.4031
  779SOL    HW2 2337   0.147   0.911   0.552 -0.1480  1.1316 -0.1108
  780SOL     OW 2338   0.084   0.258   2.244 -0.7109 -0.3356 -0.3402
  780SOL    HW1 2339   0.049   0.352   2.262  0.6449  0.2148 -2.5237
  780SOL    HW2 2340   0.182   0.250   2.210  1.3121 -2.9579  1.1425
  781SOL     OW 2341   0.633   1.740   1.553  0.4559  0.0866 -0.1604
  781SOL    HW1 2342   0.668   1.750   1.651 -1.5115 -1.8632  0.5202
  781SOL    HW2 2343   0.548   1.687   1.561  1.4960  1.2097  1.9152
  782SOL     OW 2344   2.594   0.146   0.912 -0.2225 -0.8606 -0.1396
  782SOL    HW1 2345   2.507   0.134   0.855 -0.6662 -1.0772  0.8008
  782SOL    HW2 2346   2.575   0.202   0.998  2.2070 -1.4604 -1.8106
  783SOL     OW 2347   2.845   0.693   2.526 -0.6475 -0.7653 -0.2063
  783SOL    HW1 2348   2.797   0.690   2.613  0.3176  1.0580 -1.2823
  783SOL    HW2 2349   2.819   0.621   2.458  0.5832  0.9873  0.1491
  784SOL     OW 2350   1.397   2.211   0.067 -0.1302  0.0599 -0.2993
  784SOL    HW1 2351   1.468   2.284   0.099 -0.8491 -1.6219  1.1326
  784SOL    HW2 2352   1.373   2.218  -0.036  1.6024  1.6521 -1.5097
  785SOL     OW 2353   2.174   0.374   3.060  0.4729 -0.5782 -0.6674
  785SOL    HW1 2354   2.103   0.379   3.136 -0.9921  2.1955  1.7928
  785SOL    HW2 2355   2.196   0.467   3.021 -0.4862 -1.3281  1.0070
  786SOL     OW 2356   2.014   2.188   2.208  0.3321 -0.3990 -0.5805
  786SOL    HW1 2357   2.002   2.084   2.217 -0.6833  2.1343 -1.4082
  786SOL    HW2 2358   2.109   2.220   2.243  1.4100 -0.0062  0.9812
  787SOL     OW 2359   1.414   0.614   0.920 -0.1829  0.0804 -0.3425
  787SOL    HW1 2360   1.338   0.679   0.961 -0.7633  0.9431 -0.0428
  787SOL    HW2 2361   1.402   0.599   0.817  0.3237  0.0155 -1.4319
  788SOL     OW 2362   1.228   0.424   3.051  0.0430  0.3806 -0.0225
  788SOL    HW1 2363   1.141   0.461   3.007 -0.2012  2.0653  0.9343
  788SOL    HW2 2364   1.253   0.492   3.125 -1.7661 -0.5205 -3.6692
  789SOL     OW 2365   2.597   0.036   1.791  0.2158  0.4544 -0.2357
  789SOL    HW1 2366   2.524   0.099   1.830 -2.1912  2.8820 -0.1412
  789SOL    HW2 2367   2.571  -0.060   1.782  3.7192  3.4740  1.8834
  790SOL     OW 2368   2.587   2.722   0.854  0.1845  0.0163  0.6895
  790SOL    HW1 2369   2.605   2.819   0.890  1.7512 -0.6101  0.6818
  790SOL    HW2 2370   2.647   2.645   0.897 -1.2794  0.4215 -3.4461
  791SOL     OW 2371   1.910   1.268   0.265 -0.0609 -0.0081 -0.4355
  791SOL    HW1 2372   1.821   1.221   0.279  0.7452  1.1459 -0.4555
  791SOL    HW2 2373   1.989   1.204   0.284 -0.0186  2.6112 -0.5805
  792SOL     OW 2374   0.461   1.999   2.137  0.1525  0.2341  0.1541
  792SOL    HW1 2375   0.518   2.079   2.160  1.4585 -1.1452  3.6799
  792SOL    HW2 2376   0.377   1.979   2.193  0.5731  1.7733 -1.2896
  793SOL     OW 2377   2.094   1.564   2.067  0.2114 -0.3285  0.0665
  793SOL    HW1 2378   2.189   1.601   2.057  1.2924 -1.7052 -1.9286
  793SOL    HW2 2379   2.088   1.471   2.023 -1.6025  2.8659  0.0753
  794SOL     OW 2380   0.470   1.364   2.475  0.3958  0.6206  0.2828
  794SOL    HW1 2381   0.474   1.333   2.376  0.4475 -1.2916  0.2769
  794SOL    HW2 2382   0.438   1.460   2.483 -0.6318  1.0252 -0.9009
  795SOL     OW 2383   2.463   2.355   1.751  0.6812  0.7645  0.7326
  795SOL    HW1 2384   2.432   2.415   1.830  0.9667 -0.3058  1.7598
  795SOL    HW2 2385   2.408   2.265   1.744  0.8861 -3.3143 -0.0585
  796SOL     OW 2386   3.100   1.094   2.703 -0.4272 -0.2546  0.2422
  796SOL    HW1 2387   3.008   1.098   2.742  0.9212  2.2224  1.6236
  796SOL    HW2 2388   3.164   1.103   2.784 -1.3029  0.0107  0.2530
  797SOL     OW 2389   0.726   0.628   1.339 -0.1762  0.3292 -0.2172
  797SOL    HW1 2390   0.792   0.653   1.416 -1.6603 -0.8336  0.5738
  797SOL    HW2 2391   0.670   0.705   1.300 -1.0732 -1.0739 -0.8594
  798SOL     OW 2392   1.331   0.419   1.087  0.0035  0.0496 -0.0292
  798SOL    HW1 2393   1.329   0.462   1.180  0.6992  1.6171  1.3768
  798SOL    HW2 2394   1.375   0.488   1.019  0.6204 -0.7961  1.4300
  799SOL     OW 2395   1.942   2.614   1.048 -0.0518  0.4769 -0.1728
  799SOL    HW1 2396   1.926   2.531   1.115 -2.5271 -0.9619  1.6238
  799SOL    HW2 2397   1.874   2.612   0.970  2.0928 -2.9187 -0.0562
  800SOL     OW 2398   2.914   0.828   1.850 -0.3332  0.4646 -0.7579
  800SOL    HW1 2399   2.975   0.912   1.853 -2.0650  1.1300  1.1160
  800SOL    HW2 2400   2.872   0.802   1.943  0.1718  0.9542  0.7209
  801SOL     OW 2401   2.003   2.186   0.031 -0.3267  0.0640  0.0516
  801SOL    HW1 2402   1.937   2.201  -0.042  1.2046 -2.1075  0.3270
  801SOL    HW2 2403   2.089   2.125   0.011 -1.0247 -0.3351  1.0939
  802SOL     OW 2404   0.643   0.821   2.570  0.6495 -0.3020 -0.6452
  802SOL    HW1 2405   0.692   0.775   2.494 -1.3496 -1.7031  2.0245
  802SOL    HW2 2406   0.558   0.870   2.540  2.4011  2.2962 -2.7096
  803SOL     OW 2407   0.985   0.094   0.863 -0.2437 -0.1652  0.6054
  803SOL    HW1 2408   1.050   0.166   0.904  1.0699 -0.7930  0.8497
  803SOL    HW2 2409   0.926   0.129   0.788 -2.5482 -1.8055  0.6853
  804SOL     OW 2410   0.313   3.057   2.204 -0.1762  0.1406 -0.0178
  804SOL    HW1 2411   0.336   3.156   2.178  1.7589 -1.9475  0.8352
  804SOL    HW2 2412   0.255   3.010   2.134  2.2166  1.2231 -0.8149
  805SOL     OW 2413   2.356   0.406   0.350 -0.0787  0.0108 -0.7174
  805SOL    HW1 2414   2.410   0.381   0.433 -2.2108 -0.3741  3.6369
  805SOL    HW2 2415   2.345   0.331   0.281  0.9589 -0.4334 -1.0386
  806SOL     OW 2416   0.722   2.437   1.795  0.1048 -0.3430  0.3209
  806SOL    HW1 2417   0.667   2.518   1.828  1.4460  0.0436  1.6541
  806SOL    HW2 2418   0.814   2.466   1.766 -2.7759  1.1321 -1.7774
  807SOL     OW 2419   2.491   0.868   0.433  0.7934  0.4741  0.6774
  807SOL    HW1 2420   2.593   0.882   0.459 -1.2550  3.8698  1.2497
  807SOL    HW2 2421   2.457   0.905   0.338 -0.4271  1.3862 -1.2902
  808SOL     OW 2422   0.649   2.088   2.940  0.5925  0.0913  0.0522
  808SOL    HW1 2423   0.600   2.129   3.021 -0.1709  0.7461  2.9101
  808SOL    HW2 2424   0.676   1.987   2.952 -0.1256 -1.2695  1.1209
  809SOL     OW 2425   2.577   1.976   1.865 -0.0339 -0.2177 -0.0831
  809SOL    HW1 2426   2.677   2.003   1.867 -1.9855  2.0335 -3.0154
  809SOL    HW2 2427   2.534   1.992   1.770  1.0251 -0.2830 -1.3883
  810SOL     OW 2428   2.210   1.122   0.509  0.1217  0.6011 -0.2856
  810SOL    HW1 2429   2.158   1.031   0.521 -2.5681 -1.8337 -0.5202
  810SOL    HW2 2430   2.174   1.199   0.574 -2.4007  1.8884  1.9333
  811SOL     OW 2431   1.390   2.509   1.199  0.1422  0.1672  0.0667
  811SOL    HW1 2432   1.335   2.428   1.223 -0.2431 -0.1804 -0.0582
  811SOL    HW2 2433   1.344   2.601   1.209  1.7991 -0.3911 -0.7706
  812SOL     OW 2434   1.418   0.729   1.984 -0.1091  0.2041  0.1381
  812SOL    HW1 2435   1.361   0.770   2.062 -1.4374 -0.7757  0.9084
  812SOL    HW2 2436   1.406   0.771   1.892  2.1942 -2.3180 -0.1458
  813SOL     OW 2437   1.652   2.062   2.470 -0.2658  0.1614  0.0314
  813SOL    HW1 2438   1.699   1.979   2.517 -3.2388 -1.5489 -0.4801
  813SOL    HW2 2439   1.608   2.039   2.377  0.1245  1.8671 -2.9468
  814SOL     OW 2440   2.946   1.582   2.852  0.2180 -0.8342  0.2605
  814SOL    HW1 2441   3.023   1.554   2.917 -0.2138 -0.1496  2.8257
  814SOL    HW2 2442   2.962   1.677   2.821 -0.4046  0.4010  1.3782
  815SOL     OW 2443   2.181   2.964   2.798 -0.2252  0.0785  0.3729
  815SOL    HW1 2444   2.160   2.880   2.853  0.9921 -2.9661  2.2394
  815SOL    HW2 2445   2.271   3.013   2.825  1.5700  1.6588 -1.7306
  816SOL     OW 2446   1.583   0.357   1.681 -0.1463  0.6871  0.1161
  816SOL    HW1 2447   1.653   0.291   1.722 -1.3174  0.5283 -0.3973
  816SOL    HW2 2448   1.539   0.411   1.762 -2.3290 -1.5422  3.7606
  817SOL     OW 2449   0.359   1.160   2.638 -0.4015  0.0315  0.2119
  817SOL    HW1 2450   0.296   1.199   2.712  0.5493  0.9716  1.7146
  817SOL    HW2 2451   0.396   1.228   2.569  1.9370  0.4228 -1.2856
  818SOL     OW 2452   1.958   0.863   0.389 -0.1018 -0.9354  0.2026
  818SOL    HW1 2453   2.056   0.847   0.411 -0.0668 -0.2716 -0.8557
  818SOL    HW2 2454   1.909   0.915   0.467 -0.3317 -0.7150 -0.7476
  819SOL     OW 2455   2.769   2.954   3.046 -0.1913 -0.4473  0.6333
  819SOL    HW1 2456   2.784   2.864   3.095 -1.0736  1.8319  1.8720
  819SOL    HW2 2457   2.696   2.942   2.974  0.4161  1.5515  1.7125
  820SOL     OW 2458   1.218   1.041   0.561  0.2195  0.2756 -0.0173
  820SOL    HW1 2459   1.222   1.137   0.586  1.0016 -0.1674 -1.5561
  820SOL    HW2 2460   1.238   0.978   0.644 -0.7799 -0.8715  1.2749
  821SOL     OW 2461   0.036   1.278   0.699 -0.0202 -0.3252  0.6622
  821SOL    HW1 2462   0.000   1.265   0.795 -0.1479 -3.8147 -2.4569
  821SOL    HW2 2463   0.079   1.374   0.680  1.0613  1.1761 -1.3898
  822SOL     OW 2464   2.592   1.795   2.458 -0.4463  0.4915 -0.1838
  822SOL    HW1 2465   2.568   1.858   2.536 -1.4915  1.6131  0.1524
  822SOL    HW2 2466   2.519   1.794   2.384 -0.6649  1.8589 -1.2438
  823SOL     OW 2467   2.004   0.841   1.133 -0.0011  1.0720 -0.3102
  823SOL    HW1 2468   1.968   0.841   1.233  0.3050  2.4544  2.1413
  823SOL    HW2 2469   1.937   0.889   1.072  0.2046 -2.9087  1.6569
  824SOL     OW 2470   0.181   2.003   2.808  0.3137 -0.2286  0.0459
  824SOL    HW1 2471   0.183   1.922   2.875  0.6125 -0.1033 -0.3574
  824SOL    HW2 2472   0.240   1.970   2.731 -0.5491 -1.9046  0.3118
  825SOL     OW 2473   1.305   1.034   0.293  0.5307 -0.0816 -0.4109
  825SOL    HW1 2474   1.344   1.126   0.294 -2.4419 -2.4258  0.7445
  825SOL    HW2 2475   1.252   1.017   0.382  2.3028 -2.6554  2.6862
  826SOL     OW 2476   1.962   0.664   1.557 -0.0976 -0.0750  0.2973
  826SOL    HW1 2477   2.041   0.616   1.611  0.8356 -1.3229  1.1985
  826SOL    HW2 2478   1.888   0.591   1.532 -0.7803  0.4654  0.6652
  827SOL     OW 2479   0.710   1.210   0.282 -0.8999  0.4329  0.1114
  827SOL    HW1 2480   0.810   1.176   0.274 -0.4035 -0.9068  1.2619
  827SOL    HW2 2481   0.644   1.128   0.302 -1.4109  1.2468  1.3062
  828SOL     OW 2482   2.636   0.100   1.538 -0.0026 -0.5516  0.1641
  828SOL    HW1 2483   2.548   0.107   1.484  1.7557  0.7691 -0.3144
  828SOL    HW2 2484   2.613   0.094   1.643 -0.0540 -1.4552  0.6655
  829SOL     OW 2485   2.902   2.442   2.880  0.0547 -0.1538 -0.8451
  829SOL    HW1 2486   2.821   2.399   2.930  1.2943  1.4228  1.6351
  829SOL    HW2 2487   2.880   2.524   2.821  3.0940  0.7293 -2.3021
  830SOL     OW 2488   2.822   1.003   3.044  0.2310  0.5043 -0.2397
  830SOL    HW1 2489   2.900   1.061   3.083 -0.5423  1.4393  1.7864
  830SOL    HW2 2490   2.821   0.912   3.100  1.9178 -0.1774 -0.2597
  831SOL     OW 2491   0.130   0.586   0.409  0.2702 -0.1496  0.3593
  831SOL    HW1 2492   0.089   0.517   0.476 -1.2174 -0.3099 -0.0458
  831SOL    HW2 2493   0.127   0.543   0.314 -0.7778  0.8148 -0.5378
  832SOL     OW 2494   1.844   0.788   3.007 -0.0182 -0.2487  0.2550
  832SOL    HW1 2495   1.758   0.830   2.967 -0.5586 -0.4501 -1.7325
  832SOL    HW2 2496   1.846   0.682   3.018 -0.0580  0.3503  0.4422
  833SOL     OW 2497   2.442   2.074   0.457 -0.2183 -0.6825 -0.2421
  833SOL    HW1 2498   2.340   2.055   0.452 -1.8108  1.1688  3.4899
  833SOL    HW2 2499   2.490   1.986   0.469 -1.1179  2.0485 -0.9531
  834SOL     OW 2500   0.117   0.181   0.504  0.3258 -0.6330  0.1400
  834SOL    HW1 2501   0.090   0.094   0.557 -1.3143  0.6067  0.1479
  834SOL    HW2 2502   0.122   0.173   0.404 -0.5838  0.7730  1.0009
  835SOL     OW 2503   2.375   1.504   1.159  0.6890  0.1958  0.0429
  835SOL    HW1 2504   2.367   1.611   1.161 -1.8031  0.7719  1.2782
  835SOL    HW2 2505   2.451   1.459   1.105  1.2405 -0.1095  0.2361
  836SOL     OW 2506   1.639   0.874   2.580 -0.2710  0.3176  0.0920
  836SOL    HW1 2507   1.546   0.833   2.598 -1.7132  0.1558 -2.0799
  836SOL    HW2 2508   1.656   0.873   2.477 -0.4051  3.6320 -0.5469
  837SOL     OW 2509   1.613   0.099   0.557  0.2751 -0.3940  0.2670
  837SOL    HW1 2510   1.568   0.165   0.623  0.6955 -2.1338  0.2064
  837SOL    HW2 2511   1.602   0.130   0.456 -0.5669 -0.2609 -0.1558
  838SOL     OW 2512   1.212   1.434   2.781  0.4854 -0.5926  0.0542
  838SOL    HW1 2513   1.159   1.484   2.855  0.6249 -1.0854 -0.6934
  838SOL    HW2 2514   1.159   1.365   2.720  0.5344 -0.5494 -1.0434
  839SOL     OW 2515   1.669   0.266   0.992 -0.1829  0.7148  0.2886
  839SOL    HW1 2516   1.648   0.337   1.061  0.0027 -0.0575  0.7405
  839SOL    HW2 2517   1.635   0.174   1.027 -1.5534  1.3424 -1.3369
  840SOL     OW 2518   2.520   2.870   1.760 -0.1481  0.0639  0.1928
  840SOL    HW1 2519   2.502   2.838   1.659  0.1442 -0.4076 -2.9166
  840SOL    HW2 2520   2.526   2.788   1.824  2.0947 -1.8360  0.6901
  841SOL     OW 2521   1.586   0.921   2.971 -0.0277 -0.1605  0.0397
  841SOL    HW1 2522   1.524   0.905   3.055 -0.7803  0.2239  0.1901
  841SOL    HW2 2523   1.560   1.003   2.911  0.6248  0.4045  2.6482
  842SOL     OW 2524   0.841   1.512   0.965 -1.1544 -0.0767  0.0289
  842SOL    HW1 2525   0.803   1.580   1.034 -0.2850 -1.4443 -0.2508
  842SOL    HW2 2526   0.774   1.476   0.898  1.6982  1.1249  0.5073
  843SOL     OW 2527   0.139   0.119   1.473 -0.5445  0.0207 -0.1138
  843SOL    HW1 2528   0.196   0.151   1.555  1.1416 -0.0686 -1.1196
  843SOL    HW2 2529   0.120   0.014   1.471  0.6700 -3.1068 -4.0317
  844SOL     OW 2530   0.767   2.484   0.293  0.0852 -0.3045  0.0679
  844SOL    HW1 2531   0.727   2.445   0.382  0.8519  1.1773 -0.6797
  844SOL    HW2 2532   0.701   2.496   0.210 -0.3664 -0.8117  0.4245
  845SOL     OW 2533   1.650   2.875   1.376  0.4215  0.5817  0.1719
  845SOL    HW1 2534   1.697   2.867   1.468  2.4810 -1.8396  0.5367
  845SOL    HW2 2535   1.602   2.964   1.356  0.7642  0.7747 -0.7697
  846SOL     OW 2536   1.655   2.977   0.855  0.6611 -0.0296  0.5710
  846SOL    HW1 2537   1.627   2.981   0.756  1.8313 -1.8787 -1.7484
  846SOL    HW2 2538   1.750   2.942   0.876 -2.1033 -2.0175  0.2176
  847SOL     OW 2539   2.025   1.653   0.229  0.1105 -0.1837 -0.2643
  847SOL    HW1 2540   1.960   1.629   0.302  2.1754  0.6411 -0.6700
  847SOL    HW2 2541   1.981   1.640   0.135 -0.2389  1.1152 -1.0894
  848SOL     OW 2542   2.517   0.790   2.673 -0.8095 -0.3287 -0.1759
  848SOL    HW1 2543   2.514   0.896   2.677  3.2611  1.8580 -0.5642
  848SOL    HW2 2544   2.446   0.754   2.608  1.7770 -0.0501  0.7444
  849SOL     OW 2545   2.483   0.880   2.351 -0.5323 -0.0207  0.0549
  849SOL    HW1 2546   2.559   0.852   2.283 -0.1092 -1.3668 -0.8782
  849SOL    HW2 2547   2.424   0.800   2.378 -1.0109  0.1223  0.4376
  850SOL     OW 2548   1.505   0.099   1.340 -0.0968 -0.1647 -0.4068
  850SOL    HW1 2549   1.505   0.072   1.243  0.1216 -0.5535  0.6110
  850SOL    HW2 2550   1.441   0.040   1.396  2.9353  0.5018  0.2211
  851SOL     OW 2551   0.462   1.700   0.652  0.1686 -0.3947  0.2820
  851SOL    HW1 2552   0.455   1.805   0.637  0.4954  1.9726  1.8059
  851SOL    HW2 2553   0.561   1.671   0.663  0.8741 -0.3409  0.8699
  852SOL     OW 2554   0.806   2.161   1.665  0.6274  0.0321  0.3437
  852SOL    HW1 2555   0.779   2.257   1.627  0.0045  2.1105 -0.6432
  852SOL    HW2 2556   0.752   2.143   1.749  0.6221  2.6678 -1.9036
  853SOL     OW 2557   2.477   1.566   2.612 -0.0823 -0.2383  0.2188
  853SOL    HW1 2558   2.481   1.465   2.588  2.3685 -1.8201  0.4798
  853SOL    HW2 2559   2.519   1.631   2.538  0.6416  2.3244  1.2703
  854SOL     OW 2560   2.517   1.386   1.774  0.0996  0.4854  0.2999
  854SOL    HW1 2561   2.532   1.361   1.674 -0.1545  1.5892  0.3601
  854SOL    HW2 2562   2.507   1.300   1.832 -2.0777  0.0560 -0.2357
  855SOL     OW 2563   2.115   2.371   0.960 -0.3508  0.0432 -0.3706
  855SOL    HW1 2564   2.126   2.447   0.887  2.1537  0.4981 -1.0939
  855SOL    HW2 2565   2.183   2.376   1.043 -0.0663 -0.9331 -1.0041
  856SOL     OW 2566   1.375   1.460   0.882  1.1209 -0.7459 -0.0467
  856SOL    HW1 2567   1.426   1.544   0.908 -1.6291 -0.8495 -1.1021
  856SOL    HW2 2568   1.281   1.466   0.924 -1.5189 -0.0196  1.0342
  857SOL     OW 2569   2.966   2.653   1.031 -0.0555 -0.3204  0.2024
  857SOL    HW1 2570   2.895   2.580   1.034  0.5588 -0.6029 -0.8764
  857SOL    HW2 2571   3.060   2.619   0.995  3.1416 -0.6193  0.1369
  858SOL     OW 2572   2.315   2.104   1.703  0.2163  0.4178 -0.3525
  858SOL    HW1 2573   2.223   2.120   1.661 -1.3984  2.9272  1.7322
  858SOL    HW2 2574   2.380   2.038   1.654  1.3265  2.9115 -1.3380
  859SOL     OW 2575   2.440   0.549   1.046  0.3206 -0.3065  0.6850
  859SOL    HW1 2576   2.495   0.595   0.968  2.9686 -0.2493 -3.4287
  859SOL    HW2 2577   2.481   0.461   1.079 -1.9068 -0.7876  2.3810
  860SOL     OW 2578   1.941   2.820   0.479 -0.0413 -0.2015  0.0035
  860SOL    HW1 2579   1.936   2.802   0.372  1.9348  1.0521 -0.0262
  860SOL    HW2 2580   2.024   2.870   0.507  0.9866  0.0746 -2.8044
  861SOL     OW 2581   1.092   2.581   2.821  0.4613  0.4835 -0.3376
  861SOL    HW1 2582   1.141   2.656   2.771  1.6092  0.6376 -0.3729
  861SOL    HW2 2583   1.116   2.561   2.920 -1.0291  3.4343  1.6875
  862SOL     OW 2584   2.844   2.502   1.599 -0.1284 -0.1098  0.1054
  862SOL    HW1 2585   2.921   2.521   1.673  1.2542  1.4784 -0.0904
  862SOL    HW2 2586   2.821   2.593   1.557  1.9917 -1.2863  2.7966
  863SOL     OW 2587   1.851   2.681   0.194  0.1439 -0.0399  0.0053
  863SOL    HW1 2588   1.912   2.601   0.162  0.9843 -1.1764  0.3676
  863SOL    HW2 2589   1.749   2.660   0.200  1.9715  0.2645  2.0149
  864SOL     OW 2590   1.866   1.143   2.885 -0.6042  0.1377  0.2770
  864SOL    HW1 2591   1.869   1.121   2.787  0.8535 -1.8505  1.7387
  864SOL    HW2 2592   1.954   1.122   2.932  0.7336 -0.0143  0.6423
  865SOL     OW 2593   2.196   1.852   0.660 -0.4945  0.5797  0.7610
  865SOL    HW1 2594   2.258   1.835   0.737 -1.3815  0.5641  0.1851
  865SOL    HW2 2595   2.104   1.809   0.675  0.4933  0.4732 -0.0615
  866SOL     OW 2596   2.963   2.903   0.985  0.0782 -0.4445  0.0352
  866SOL    HW1 2597   3.003   2.915   0.891  0.1892 -2.4093  2.8859
  866SOL    HW2 2598   2.952   2.800   1.006 -2.0925 -1.3290  0.0797
  867SOL     OW 2599   0.325   1.385   0.936  0.2502 -0.5846 -0.1905
  867SOL    HW1 2600   0.321   1.314   0.859  1.0382  0.0027  1.2117
  867SOL    HW2 2601   0.290   1.478   0.911 -3.8160 -1.6650 -0.5932
  868SOL     OW 2602   0.758   1.904   2.027 -0.0727  0.1653 -0.0327
  868SOL    HW1 2603   0.722   1.882   2.120  0.7515  3.5757  1.0260
  868SOL    HW2 2604   0.701   1.982   1.981  1.5589  2.3468  0.5028
  869SOL     OW 2605   2.515   1.928   1.601 -0.3174 -0.2827  0.1848
  869SOL    HW1 2606   2.603   1.961   1.562 -1.6636  1.4347 -1.6200
  869SOL    HW2 2607   2.496   1.830   1.573 -0.4782 -0.0582  0.9597
  870SOL     OW 2608   2.302   2.630   1.286 -0.4305 -0.5677 -0.3688
  870SOL    HW1 2609   2.311   2.530   1.253  1.3218  2.3922  2.0836
  870SOL    HW2 2610   2.241   2.642   1.365  0.6858 -2.9999 -0.4064
  871SOL     OW 2611   2.992   2.094   0.568 -0.2225 -0.4031 -0.1608
  871SOL    HW1 2612   2.948   2.155   0.643  0.5404 -2.2813  0.1981
  871SOL    HW2 2613   2.933   2.052   0.494  1.1202  1.1712  0.3758
  872SOL     OW 2614   2.126   0.478   1.690  0.1385  0.1772 -0.0335
  872SOL    HW1 2615   2.076   0.450   1.778  0.7190 -0.8594 -0.5871
  872SOL    HW2 2616   2.230   0.468   1.694  0.0338 -2.1954  2.2738
  873SOL     OW 2617   1.732   2.078   2.999  0.0576  0.2890 -0.2002
  873SOL    HW1 2618   1.711   2.177   3.016  0.5738  0.2497 -1.7020
  873SOL    HW2 2619   1.682   2.042   2.918  0.2807  0.9872 -1.2032
  874SOL     OW 2620   0.656   2.464   0.803  0.0672 -0.0604  0.4613
  874SOL    HW1 2621   0.627   2.561   0.822  1.9170 -2.6078 -2.9345
  874SOL    HW2 2622   0.758   2.451   0.815  1.6218 -2.1804 -0.3796
  875SOL     OW 2623   2.293   1.472   1.433  0.3413 -0.2684 -0.2992
  875SOL    HW1 2624   2.344   1.537   1.491  0.6586  0.0221 -0.6212
  875SOL    HW2 2625   2.330   1.473   1.336 -2.5669 -0.8613  1.4889
  876SOL     OW 2626   0.082   2.237   2.682 -0.2782  0.2258 -0.1825
  876SOL    HW1 2627   0.119   2.170   2.752  1.3251 -1.6348  2.4741
  876SOL    HW2 2628   0.083   2.330   2.725 -0.5551 -0.0217 -0.4237
  877SOL     OW 2629   2.870   2.690   0.576 -0.0815 -0.2823  0.6385
  877SOL    HW1 2630   2.835   2.789   0.602 -1.4168  1.5533 -0.0685
  877SOL    HW2 2631   2.890   2.634   0.659 -1.8773  0.1779  0.5306
  878SOL     OW 2632   2.825   1.597   2.183  0.1882  0.2109  0.0778
  878SOL    HW1 2633   2.916   1.546   2.193  0.2001 -1.5160 -1.0028
  878SOL    HW2 2634   2.812   1.656   2.267  2.2898 -1.8133  1.4936
  879SOL     OW 2635   2.368   0.038   1.141  0.2046  0.3184  0.0599
  879SOL    HW1 2636   2.429  -0.045   1.159 -0.2168 -0.0977 -2.8037
  879SOL    HW2 2637   2.292   0.018   1.072  1.4073 -1.2290 -1.1272
  880SOL     OW 2638   0.685   0.486   2.231 -0.0317 -0.2340  0.1133
  880SOL    HW1 2639   0.600   0.441   2.266  0.9075 -0.2496 -2.1884
  880SOL    HW2 2640   0.732   0.431   2.153 -1.0002  0.7452  0.1434
  881SOL     OW 2641   0.876   0.078   0.502  0.6171 -0.1251  0.4969
  881SOL    HW1 2642   0.931  -0.008   0.520  2.0956  1.1730 -1.3999
  881SOL    HW2 2643   0.774   0.068   0.472 -1.9182  0.0172 -1.3546
  882SOL     OW 2644   2.705   1.666   1.626  0.2676 -0.5701  0.5087
  882SOL    HW1 2645   2.793   1.626   1.589  0.2340  2.8711  0.4321
  882SOL    HW2 2646   2.724   1.702   1.719  0.7930 -0.1113  1.3091
  883SOL     OW 2647   0.875   0.591   0.962  0.7126 -0.1924  0.0180
  883SOL    HW1 2648   0.900   0.689   0.976 -0.2710 -1.1784  0.0545
  883SOL    HW2 2649   0.905   0.529   1.044 -0.3714 -0.6630 -1.1751
  884SOL     OW 2650   1.184   1.781   1.141 -0.3712  0.0942  0.0863
  884SOL    HW1 2651   1.170   1.730   1.052 -0.0125 -2.0007 -1.0648
  884SOL    HW2 2652   1.129   1.875   1.151  0.2278  1.0259 -0.3866
  885SOL     OW 2653   2.351   1.820   2.300  0.0622  0.4908  0.2351
  885SOL    HW1 2654   2.268   1.767   2.337 -0.2985  1.0486 -1.2468
  885SOL    HW2 2655   2.342   1.920   2.308  0.6200 -4.6644  2.0562
  886SOL     OW 2656   2.598   0.465   1.814  0.1717  0.1547 -0.1352
  886SOL    HW1 2657   2.655   0.390   1.858  1.8569 -0.8848 -1.7239
  886SOL    HW2 2658   2.654   0.549   1.787  2.8311  0.3746  2.1447
  887SOL     OW 2659   0.146   2.040   1.232  0.3844  0.3772 -0.4960
  887SOL    HW1 2660   0.061   2.002   1.182  2.0533 -2.9014  2.0431
  887SOL    HW2 2661   0.130   2.129   1.278 -0.7957 -1.9871 -2.0961
  888SOL     OW 2662   0.545   1.319   1.556  0.0097  0.0004  0.1323
  888SOL    HW1 2663   0.598   1.349   1.469 -0.6149 -0.1020 -1.1536
  888SOL    HW2 2664   0.519   1.215   1.544 -0.9392 -2.3284 -0.6891
  889SOL     OW 2665   0.816   2.547   2.190 -0.6688 -0.2067 -0.5253
  889SOL    HW1 2666   0.762   2.463   2.215 -0.1911 -2.2191  0.8856
  889SOL    HW2 2667   0.877   2.546   2.105  0.8142  0.2091  0.5106
  890SOL     OW 2668   2.364   2.478   0.219 -0.4280  0.4013  0.1623
  890SOL    HW1 2669   2.408   2.545   0.154  1.0433 -1.0993  1.0109
  890SOL    HW2 2670   2.315   2.524   0.299  0.4440  0.4134 -1.9339
  891SOL     OW 2671   2.603   1.624   0.756  0.1284 -0.7383 -0.4303
  891SOL    HW1 2672   2.615   1.538   0.814 -4.0661 -0.2476 -1.5931
  891SOL    HW2 2673   2.506   1.624   0.725 -0.2871  1.0299 -0.9648
  892SOL     OW 2674   0.333   0.233   2.148 -0.2490 -0.6698  0.2640
  892SOL    HW1 2675   0.328   0.271   2.050 -2.5975  1.1662 -0.8478
  892SOL    HW2 2676   0.382   0.291   2.217 -2.4978  1.7700  0.1068
  893SOL     OW 2677   1.672   0.239   2.752 -0.4302 -0.1218  0.6136
  893SOL    HW1 2678   1.750   0.303   2.772 -1.5065 -0.2369 -0.7858
  893SOL    HW2 2679   1.579   0.288   2.754 -0.7021 -1.8813 -1.5940
  894SOL     OW 2680   2.212   2.014   0.023  1.0125 -0.4679  0.4355
  894SOL    HW1 2681   2.161   1.951  -0.048 -0.6685 -3.5403 -0.8230
  894SOL    HW2 2682   2.198   1.973   0.116 -0.1526  2.4379 -0.0135
  895SOL     OW 2683   2.864   1.423   0.877  0.3204  0.3522  0.2180
  895SOL    HW1 2684   2.928   1.361   0.933  2.3979 -0.3791  0.6329
  895SOL    HW2 2685   2.864   1.524   0.904 -0.2777 -1.1261 -2.7806
  896SOL     OW 2686   1.805   1.862   1.184  0.1541 -0.2196 -0.3762
  896SOL    HW1 2687   1.848   1.861   1.090 -2.8798 -0.2382 -1.2013
  896SOL    HW2 2688   1.724   1.927   1.194  0.3115 -0.6870  0.6371
  897SOL     OW 2689   0.282   0.548   3.089  0.3970 -0.1186 -0.5672
  897SOL    HW1 2690   0.222   0.609   3.027  2.8043 -0.1485  3.0803
  897SOL    HW2 2691   0.380   0.579   3.107 -2.5195  1.6424  2.0648
  898SOL     OW 2692   0.590   2.862   1.116  0.2463  0.0241  0.4304
  898SOL    HW1 2693   0.553   2.958   1.122 -0.4660  0.4231  1.4804
  898SOL    HW2 2694   0.670   2.843   1.180 -0.1097 -1.8740 -0.9743
  899SOL     OW 2695   2.754   0.886   1.278 -0.2455 -0.2844  0.0726
  899SOL    HW1 2696   2.690   0.860   1.201 -0.9837 -0.1388 -1.2809
  899SOL    HW2 2697   2.846   0.915   1.245  0.1190 -0.1760 -3.4106
  900SOL     OW 2698   1.010   2.557   2.389  0.5880  0.1907  0.1609
  900SOL    HW1 2699   0.940   2.562   2.313 -0.5647  0.7448 -1.1646
  900SOL    HW2 2700   0.974   2.514   2.479  0.5638  1.8594 -0.4070
  901SOL     OW 2701   1.885   2.362   1.389 -0.3953  0.4461  0.3414
  901SOL    HW1 2702   1.845   2.353   1.294 -1.2533  0.5012  2.8378
  901SOL    HW2 2703   1.987   2.361   1.396 -1.5738  0.6963  0.4037
  902SOL     OW 2704   2.526   1.661   1.439  0.0429 -0.3253 -0.7667
  902SOL    HW1 2705   2.587   1.667   1.526  1.4474  0.8257 -0.8900
  902SOL    HW2 2706   2.591   1.663   1.353 -1.0895  1.6693 -1.4177
  903SOL     OW 2707   0.277   2.482   1.963  0.5670  0.0298  0.3536
  903SOL    HW1 2708   0.179   2.445   1.949 -2.4662  0.8593 -1.1103
  903SOL    HW2 2709   0.293   2.569   1.908 -1.2035 -2.5005 -1.9267
  904SOL     OW 2710   2.073   0.700   2.448 -0.4242 -0.3832 -0.3203
  904SOL    HW1 2711   2.022   0.663   2.533  0.2518 -0.9642 -0.7687
  904SOL    HW2 2712   2.009   0.725   2.373 -1.4787 -0.9108 -0.3244
  905SOL     OW 2713   2.801   0.061   2.589 -0.3373  0.0701  0.3570
  905SOL    HW1 2714   2.882   0.009   2.552 -1.4239 -1.7867  0.9988
  905SOL    HW2 2715   2.792   0.154   2.539  1.0744 -0.1429  0.1821
  906SOL     OW 2716   0.149   1.787   1.859  0.6000  0.2466  0.1805
  906SOL    HW1 2717   0.073   1.795   1.787  2.0368 -0.2577 -1.3474
  906SOL    HW2 2718   0.242   1.826   1.836 -2.0680  1.0253  1.8075
  907SOL     OW 2719   0.146   2.455   0.997 -0.0027  0.7349  0.3887
  907SOL    HW1 2720   0.240   2.456   0.955  2.7366  0.6585 -0.9129
  907SOL    HW2 2721   0.092   2.371   0.966 -0.4236 -0.6517 -2.6806
  908SOL     OW 2722   2.667   2.956   0.397 -0.2979  0.5400  0.2820
  908SOL    HW1 2723   2.622   2.997   0.310 -0.2219 -0.5658  0.3863
  908SOL    HW2 2724   2.752   2.910   0.367 -0.8204 -1.2102 -1.3536
  909SOL     OW 2725   0.774   0.996   2.714 -0.0376 -0.7922  0.6800
  909SOL    HW1 2726   0.712   0.923   2.670 -0.7205 -0.7810 -1.7333
  909SOL    HW2 2727   0.845   1.024   2.644 -0.0208  3.3814  0.8037
  910SOL     OW 2728   1.741   1.856   2.147 -0.0096  0.3930 -0.0535
  910SOL    HW1 2729   1.799   1.899   2.074  1.0813  1.1441 -0.2899
  910SOL    HW2 2730   1.674   1.923   2.186 -0.0350  3.1152  1.0068
  911SOL     OW 2731   1.871   2.932   1.583 -0.1602  0.2582  0.1547
  911SOL    HW1 2732   1.942   2.890   1.520 -2.1251  1.0785 -0.4937
  911SOL    HW2 2733   1.860   2.881   1.678  1.7828  1.0065  1.6577
  912SOL     OW 2734   2.913   0.982   0.737  0.3350 -0.1172  0.1609
  912SOL    HW1 2735   2.929   0.944   0.832 -0.4386  0.9491 -0.8514
  912SOL    HW2 2736   2.857   1.073   0.746  0.3784 -0.0859 -0.6004
  913SOL     OW 2737   2.552   1.294   1.526  0.3229 -0.0177  0.4528
  913SOL    HW1 2738   2.547   1.190   1.501 -1.0304 -1.5244 -0.7385
  913SOL    HW2 2739   2.582   1.348   1.443 -2.2999 -1.5465  1.6537
  914SOL     OW 2740   2.851   0.556   1.221 -0.9601 -0.1445 -0.0173
  914SOL    HW1 2741   2.919   0.479   1.240  2.1247 -2.2843 -1.2894
  914SOL    HW2 2742   2.787   0.581   1.299 -2.9155  0.7358 -1.1659
  915SOL     OW 2743   1.245   0.785   1.046  0.4175  0.0353 -0.7064
  915SOL    HW1 2744   1.275   0.735   1.133 -0.8780  1.0052 -1.1649
  915SOL    HW2 2745   1.141   0.810   1.045 -0.6986  2.6619  2.8270
  916SOL     OW 2746   0.634   0.015   0.673  0.6161 -0.3448  0.2383
  916SOL    HW1 2747   0.666   0.097   0.733  0.7315 -1.3156 -0.7994
  916SOL    HW2 2748   0.620   0.045   0.572 -1.0948  0.3379 -0.4123
  917SOL     OW 2749   2.809   2.625   1.974 -0.2411  0.3758  0.1443
  917SOL    HW1 2750   2.708   2.650   1.985 -0.2189 -3.2069  0.0551
  917SOL    HW2 2751   2.859   2.678   1.900  0.5077 -1.4061  2.1500
  918SOL     OW 2752   1.063   2.232   2.969 -0.0210 -0.0144  0.0939
  918SOL    HW1 2753   1.032   2.227   3.069  0.9705 -0.1993  1.3184
  918SOL    HW2 2754   1.103   2.147   2.927  2.6754  1.6492  0.0464
  919SOL     OW 2755   0.875   1.651   2.834 -0.0108 -0.3009  0.3648
  919SOL    HW1 2756   0.935   1.708   2.767  1.3877  0.8836 -0.6871
  919SOL    HW2 2757   0.824   1.574   2.781 -1.5209  1.4706  0.1608
  920SOL     OW 2758   1.256   1.904   2.473  0.5902 -0.0977 -0.3265
  920SOL    HW1 2759   1.252   1.879   2.370 -0.4131 -0.7048 -2.8994
  920SOL    HW2 2760   1.271   1.821   2.532  0.9634  0.2461  0.0558
  921SOL     OW 2761   1.094   0.039   2.625 -0.0811  0.3627 -0.2142
  921SOL    HW1 2762   1.100   0.044   2.521  2.1887 -0.0492 -0.6892
  921SOL    HW2 2763   0.995   0.003   2.654 -3.1626 -1.4875 -0.3282
  922SOL     OW 2764   2.179   2.415   2.825 -0.7888  0.0339  0.5173
  922SOL    HW1 2765   2.182   2.309   2.843 -2.3126 -0.3846  0.4041
  922SOL    HW2 2766   2.106   2.439   2.753 -0.4698 -1.6051  1.9432
  923SOL     OW 2767   1.232   2.718   0.243  0.2103  0.7665  0.0031
  923SOL    HW1 2768   1.313   2.756   0.299  0.4060  0.7359 -0.1485
  923SOL    HW2 2769   1.251   2.624   0.202  0.3382  1.9423  1.4551
  924SOL     OW 2770   2.880   1.521   0.071 -0.3896  0.5809 -0.5315
  924SOL    HW1 2771   2.799   1.506   0.007  1.5513 -2.2357  0.1447
  924SOL    HW2 2772   2.967   1.474   0.030 -0.3177 -3.4583  1.8150
  925SOL     OW 2773   0.032   2.974   1.503 -0.7085 -0.0722 -0.2703
  925SOL    HW1 2774  -0.062   2.998   1.539  0.8083 -1.4262  1.0267
  925SOL    HW2 2775   0.017   2.911   1.420 -2.7961 -4.2404  0.7671
  926SOL     OW 2776   1.349   2.819   1.254  0.0631 -0.0095 -0.0785
  926SOL    HW1 2777   1.398   2.830   1.164  0.3187  0.8536  2.0853
  926SOL    HW2 2778   1.348   2.904   1.315  2.0617 -1.8314  1.7276
  927SOL     OW 2779   0.326   2.673   1.783 -0.4333  0.1051  0.1910
  927SOL    HW1 2780   0.324   2.605   1.703  0.7011 -0.0482  2.1314
  927SOL    HW2 2781   0.290   2.765   1.755 -0.9223  0.8773  1.3424
  928SOL     OW 2782   1.548   2.029   2.203  0.1446 -0.1748 -0.6917
  928SOL    HW1 2783   1.555   2.117   2.153  0.6226 -0.9256 -0.1823
  928SOL    HW2 2784   1.460   1.981   2.183 -1.1327 -3.1818 -1.6888
  929SOL     OW 2785   2.431   2.474   2.888 -0.1471 -0.2279  0.7134
  929SOL    HW1 2786   2.330   2.454   2.870  2.9623  0.6612 -0.7989
  929SOL    HW2 2787   2.486   2.500   2.801  1.7822  2.1399  0.9677
  930SOL     OW 2788   2.185   1.961   1.048  0.1506 -0.1674  0.0042
  930SOL    HW1 2789   2.174   1.918   1.142 -0.8180  2.6222  0.8876
  930SOL    HW2 2790   2.249   2.044   1.052  1.6753  1.2544  0.7333
  931SOL     OW 2791   0.546   1.710   2.709 -0.8429  0.2354 -0.5653
  931SOL    HW1 2792   0.574   1.749   2.800  2.9823 -4.0094  2.6283
  931SOL    HW2 2793   0.605   1.632   2.677  0.8754 -0.1136  0.4625
  932SOL     OW 2794   0.405   0.105   2.953 -0.1467  0.0401 -0.1636
  932SOL    HW1 2795   0.503   0.115   2.924  2.7996  1.4009  1.0080
  932SOL    HW2 2796   0.400   0.025   3.020  1.7959  0.2458 -3.0306
  933SOL     OW 2797   1.032   0.735   3.029 -0.2537 -0.4757  0.0888
  933SOL    HW1 2798   1.112   0.778   3.077 -0.4453 -0.2739 -2.9078
  933SOL    HW2 2799   0.973   0.806   2.985 -0.4387 -0.2693  2.0344
  934SOL     OW 2800   0.876   2.972   2.654  0.4917  0.6670  0.2246
  934SOL    HW1 2801   0.864   2.899   2.579 -2.4358 -0.2829 -1.0249
  934SOL    HW2 2802   0.926   2.939   2.742  1.1077  4.3725  0.5226
  935SOL     OW 2803   0.017   0.557   0.837 -0.1134  0.2118  0.3611
  935SOL    HW1 2804   0.023   0.508   0.742 -1.8763 -1.6392 -1.8149
  935SOL    HW2 2805  -0.076   0.594   0.860  2.1443 -1.7586 -0.7892
  936SOL     OW 2806   1.115   2.883   0.094  0.3959  0.4844  0.0032
  936SOL    HW1 2807   1.164   2.919   0.009 -2.2165  2.4171  3.1032
  936SOL    HW2 2808   1.181   2.826   0.156  0.5365 -0.7040  1.6648
  937SOL     OW 2809   1.971   2.650   2.113  0.1638  0.3168 -0.0036
  937SOL    HW1 2810   1.874   2.676   2.113 -1.8850  2.0706 -1.6540
  937SOL    HW2 2811   2.036   2.715   2.066  1.5807  0.2604  2.1507
  938SOL     OW 2812   2.775   2.055   1.489  0.2380 -0.3174 -0.2658
  938SOL    HW1 2813   2.741   2.148   1.521  1.3112 -0.2431 -1.8500
  938SOL    HW2 2814   2.861   2.031   1.538 -1.4532  2.3540 -2.2434
  939SOL     OW 2815   2.818   1.226   2.487 -0.0307  0.1868 -0.2187
  939SOL    HW1 2816   2.875   1.198   2.400  3.0603  2.6559  0.8730
  939SOL    HW2 2817   2.818   1.150   2.560  0.3016  1.3609  0.2044
  940SOL     OW 2818   0.984   0.460   2.716 -0.6483 -0.5678 -0.7197
  940SOL    HW1 2819   1.031   0.369   2.731 -1.1518  0.7866  0.0128
  940SOL    HW2 2820   0.889   0.428   2.694  0.7306  1.4543 -0.4310
  941SOL     OW 2821   0.077   2.832   2.250 -0.0470 -0.0831 -0.6367
  941SOL    HW1 2822   0.128   2.744   2.243  0.4281  4.6039 -1.0387
  941SOL    HW2 2823   0.128   2.897   2.320  1.7533 -1.7401 -1.1824
  942SOL     OW 2824   0.055   0.109   2.476  0.1246 -0.0789  0.6403
  942SOL    HW1 2825   0.069   0.174   2.554  0.8769  0.7230  1.1063
  942SOL    HW2 2826   0.061   0.163   2.386 -2.1471  0.6395 -2.1815
  943SOL     OW 2827   2.102   1.672   2.360  0.1945 -0.5708 -0.2689
  943SOL    HW1 2828   2.099   1.585   2.299 -0.7731 -2.5085 -4.3989
  943SOL    HW2 2829   2.108   1.657   2.464  0.7124 -0.7326 -0.5589
  944SOL     OW 2830   2.146   2.366   1.473  0.0184 -0.0101  0.0749
  944SOL    HW1 2831   2.183   2.444   1.526  1.3097 -0.0860 -2.6248
  944SOL    HW2 2832   2.103   2.296   1.536 -1.8994 -0.2917 -1.1325
  945SOL     OW 2833   0.710   1.495   0.325 -0.5904  0.0092 -0.2423
  945SOL    HW1 2834   0.683   1.536   0.234 -0.6834  0.4759 -1.3620
  945SOL    HW2 2835   0.750   1.399   0.309  0.9771 -2.7593 -0.0143
  946SOL     OW 2836   0.403   0.932   2.487  0.0190 -0.1171  0.2075
  946SOL    HW1 2837   0.317   0.889   2.450  0.5130  1.9549 -0.9455
  946SOL    HW2 2838   0.380   1.010   2.556  1.9865 -0.6801  3.6042
  947SOL     OW 2839   1.550   0.487   0.044 -0.0312  0.3887  0.0748
  947SOL    HW1 2840   1.496   0.547  -0.024 -0.9821  2.8199 -1.3499
  947SOL    HW2 2841   1.489   0.458   0.126  1.5184  3.9429 -1.5028
  948SOL     OW 2842   1.976   3.054   2.173  0.2957 -0.5687 -0.0057
  948SOL    HW1 2843   1.984   3.019   2.076 -3.2676  0.0078 -1.0571
  948SOL    HW2 2844   1.987   2.982   2.249  0.7871  2.9043 -0.8187
  949SOL     OW 2845   0.597   2.490   0.533  0.2948  0.4512 -0.3475
  949SOL    HW1 2846   0.597   2.589   0.506  0.7416 -1.0216 -1.0252
  949SOL    HW2 2847   0.612   2.462   0.632  1.0311 -3.1177 -2.0992
  950SOL     OW 2848   0.209   2.135   3.069  0.2839 -0.1695  0.0709
  950SOL    HW1 2849   0.136   2.209   3.070  1.6752  3.3977  1.5026
  950SOL    HW2 2850   0.218   2.090   2.976 -2.0929 -2.1962  0.2398
  951SOL     OW 2851   1.198   2.781   2.667 -0.5530  0.2533 -0.8168
  951SOL    HW1 2852   1.219   2.815   2.573  1.1341 -0.2464 -0.1555
  951SOL    HW2 2853   1.139   2.847   2.720  2.2958  0.4594 -2.0197
  952SOL     OW 2854   0.075   1.688   0.450  0.9367 -0.0768  0.3537
  952SOL    HW1 2855   0.148   1.762   0.422 -0.6986 -0.6793 -0.4301
  952SOL    HW2 2856   0.092   1.623   0.523  3.3532  1.9459 -2.7299
  953SOL     OW 2857   2.492   1.777   0.227  0.5700  0.2304 -0.4482
  953SOL    HW1 2858   2.506   1.670   0.247 -1.8201 -0.2366  2.0656
  953SOL    HW2 2859   2.518   1.798   0.130  0.6258 -2.8031  0.4177
  954SOL     OW 2860   2.177   0.538   0.963  0.0103 -0.1360  0.0890
  954SOL    HW1 2861   2.166   0.596   0.875 -0.1963  2.7583  0.9558
  954SOL    HW2 2862   2.275   0.525   0.989  0.3095 -0.8081 -0.0639
  955SOL     OW 2863   0.191   2.624   1.307  0.4055 -0.3926  0.6765
  955SOL    HW1 2864   0.114   2.680   1.336  0.4140 -2.2254  1.5303
  955SOL    HW2 2865   0.230   2.649   1.212  0.2863  1.1123  0.1213
  956SOL     OW 2866   2.758   2.464   2.425  0.0912 -0.1667  0.0451
  956SOL    HW1 2867   2.759   2.363   2.407 -2.1976 -1.6997 -1.7190
  956SOL    HW2 2868   2.818   2.520   2.361 -0.0125 -0.1101  5.6495
  957SOL     OW 2869   1.576   2.065   2.776 -0.3370 -0.3110 -0.6914
  957SOL    HW1 2870   1.529   1.971   2.766  1.5714 -1.5844  3.3133
  957SOL    HW2 2871   1.628   2.095   2.689  0.3386  1.5326 -1.7210
  958SOL     OW 2872   2.693   2.318   2.984  0.2009  0.7415 -0.3434
  958SOL    HW1 2873   2.610   2.375   2.961  0.7365  1.6114  0.3637
  958SOL    HW2 2874   2.669   2.245   3.052 -2.9319  2.4626  0.9355
  959SOL     OW 2875   0.227   2.796   0.052 -0.0093 -0.6662  0.0463
  959SOL    HW1 2876   0.124   2.772   0.042  0.7311 -0.1148  0.4749
  959SOL    HW2 2877   0.268   2.750   0.135  0.7281 -0.2267  0.2206
  960SOL     OW 2878   1.952   0.412   1.906  0.0116  0.5633  0.0672
  960SOL    HW1 2879   1.903   0.493   1.857 -0.2933  2.0541  2.3331
  960SOL    HW2 2880   1.957   0.432   2.006 -3.0201 -0.1143  0.1311
  961SOL     OW 2881   2.560   1.833   1.027 -0.7352  0.8972 -0.2111
  961SOL    HW1 2882   2.561   1.924   0.974 -2.5157  0.1902 -0.2485
  961SOL    HW2 2883   2.503   1.839   1.117 -1.7815 -2.9022 -0.7400
  962SOL     OW 2884   1.271   0.899   0.051 -0.3205  0.3490 -0.2291
  962SOL    HW1 2885   1.260   0.956  -0.038  2.0666 -0.0723 -0.5984
  962SOL    HW2 2886   1.285   0.957   0.138  2.2628  0.9874 -0.1187
  963SOL     OW 2887   2.199   2.556   1.872 -0.1703  0.1812 -0.1921
  963SOL    HW1 2888   2.178   2.460   1.907 -2.2455  2.0986  0.6004
  963SOL    HW2 2889   2.224   2.616   1.947 -2.5736 -1.5266 -0.8238
  964SOL     OW 2890   2.392   0.391   1.655  0.2847  0.2097  0.0979
  964SOL    HW1 2891   2.474   0.418   1.710 -0.9644  1.8348 -1.2031
  964SOL    HW2 2892   2.399   0.401   1.553 -0.4011 -0.3192 -0.0144
  965SOL     OW 2893   2.584   3.053   0.164  0.0495 -0.1659  0.3597
  965SOL    HW1 2894   2.657   3.034   0.091  1.6014  0.2586  0.2832
  965SOL    HW2 2895   2.479   3.039   0.132 -3.4503 -0.9657 -0.1170
  966SOL     OW 2896   2.481   2.482   2.207  0.1598 -0.3430  0.1852
  966SOL    HW1 2897   2.391   2.497   2.254 -0.4004  1.4167 -2.4408
  966SOL    HW2 2898   2.496   2.548   2.125  0.4990 -1.1932 -1.7209
  967SOL     OW 2899   2.819   2.781   2.459 -0.0020  0.8561  0.0067
  967SOL    HW1 2900   2.850   2.726   2.376  0.2622 -1.2748 -0.5740
  967SOL    HW2 2901   2.887   2.854   2.495  0.0579  2.4561  0.4082
  968SOL     OW 2902   1.952   1.053   2.632  0.0370  0.3191  0.4359
  968SOL    HW1 2903   1.881   1.095   2.579  0.3587  0.4338  0.4950
  968SOL    HW2 2904   2.003   0.981   2.580  1.9287 -1.1254  2.0537
  969SOL     OW 2905   2.759   2.443   1.080  0.1540 -0.3104 -0.4281
  969SOL    HW1 2906   2.693   2.406   1.010 -0.8419 -1.4409  0.6959
  969SOL    HW2 2907   2.803   2.369   1.143 -0.9239  0.5375  1.1217
  970SOL     OW 2908   1.065   2.118   1.770 -0.0229  0.5766 -0.7253
  970SOL    HW1 2909   0.984   2.153   1.712  0.8936  1.8460  0.4202
  970SOL    HW2 2910   1.072   2.153   1.871  0.8664 -0.4488  0.2011
  971SOL     OW 2911   2.839   2.079   1.862 -0.2235  0.4914  0.2995
  971SOL    HW1 2912   2.826   2.178   1.892 -1.0459  1.8203  3.6743
  971SOL    HW2 2913   2.921   2.072   1.796  0.2682 -2.2103 -0.5993
  972SOL     OW 2914   1.947   2.421   0.171 -0.2724 -0.0373  0.4941
  972SOL    HW1 2915   1.970   2.332   0.122  0.5122  1.0651  0.1218
  972SOL    HW2 2916   2.001   2.422   0.258  0.0071  0.8042 -2.6204
  973SOL     OW 2917   1.318   1.064   1.863  0.3182 -0.1536 -0.2884
  973SOL    HW1 2918   1.241   1.020   1.807  1.2924 -0.3629  0.4451
  973SOL    HW2 2919   1.309   1.167   1.881  0.3419 -0.8852  1.8439
  974SOL     OW 2920   1.628   0.553   1.987 -0.2072  0.0180  0.1778
  974SOL    HW1 2921   1.723   0.596   1.978 -2.6146  1.2893  1.3890
  974SOL    HW2 2922   1.553   0.626   1.968  1.7833 -0.9777  0.2161
  975SOL     OW 2923   2.350   3.065   0.050  0.0359  0.0170  0.0483
  975SOL    HW1 2924   2.294   2.982   0.064  0.6873  0.0943 -0.7730
  975SOL    HW2 2925   2.389   3.071  -0.046  0.0038  0.0135  2.0390
  976SOL     OW 2926   1.920   2.838   2.337 -0.1452  0.0647  0.3631
  976SOL    HW1 2927   1.841   2.787   2.289 -0.1645  1.0261  1.6208
  976SOL    HW2 2928   1.929   2.819   2.440 -1.4687  2.2011  3.2638
  977SOL     OW 2929   0.465   0.714   1.043  0.2121  0.2447  0.4786
  977SOL    HW1 2930   0.381   0.702   0.977 -0.6378  0.6793 -2.2664
  977SOL    HW2 2931   0.551   0.715   0.984 -1.1015 -2.5643  0.3494
   3.10000   3.10000   3.10000
