1000 SPC/Fw water molecules t=   1.56000 step= 1560
 2931
    1SOL     OW    1   2.456   0.365   2.647  0.3105  0.3548 -0.0053
    1SOL    HW1    2   2.424   0.272   2.602 -0.0290 -0.4177  2.1156
    1SOL    HW2    3   2.505   0.353   2.735 -2.3649 -0.6080 -2.0255
    2SOL     OW    4   2.720   2.986   1.390  0.3813 -0.4132 -0.3578
    2SOL    HW1    5   2.812   2.960   1.359  1.6103  0.7849 -0.4091
    2SOL    HW2    6   2.722   3.060   1.466 -1.5617  2.8150  0.5026
    3SOL     OW    7   2.672   2.540   0.375  0.2106 -0.5063 -0.5060
    3SOL    HW1    8   2.609   2.461   0.394 -0.3619  0.5634 -0.6551
    3SOL    HW2    9   2.709   2.586   0.462  0.7580 -1.6914 -1.3329
    4SOL     OW   10   1.263   1.547   2.424  0.5299  0.3615  0.4309
    4SOL    HW1   11   1.202   1.530   2.341 -0.5043  1.3547  0.9870
    4SOL    HW2   12   1.249   1.488   2.507 -1.2225  0.8850  1.3679
    5SOL     OW   13   1.174   1.517   2.986 -0.7420 -0.0458  0.8637
    5SOL    HW1   14   1.242   1.589   3.020  0.3748 -1.4266  0.4076
    5SOL    HW2   15   1.084   1.561   2.952 -1.0801 -2.2897 -0.5368
    6SOL     OW   16   0.280   1.808   3.012 -0.1412  0.4699  0.2926
    6SOL    HW1   17   0.177   1.805   3.049 -4.1380  0.1624  1.9835
    6SOL    HW2   18   0.332   1.719   3.039  2.2660  2.6388  0.8981
    7SOL     OW   19   2.470   0.905   0.997  0.4178  0.3352 -0.2496
    7SOL    HW1   20   2.378   0.885   1.040 -1.0036  0.8933 -1.1138
    7SOL    HW2   21   2.468   0.884   0.898  1.3648  0.6649 -0.6003
    8SOL     OW   22   0.371   0.668   1.559  0.0023 -0.2649  0.2728
    8SOL    HW1   23   0.428   0.584   1.533 -1.9045 -1.6926 -0.1864
    8SOL    HW2   24   0.356   0.738   1.483 -0.8878 -0.3293  0.7307
    9SOL     OW   25   1.164   0.865   2.320  0.1227 -0.0478 -0.3713
    9SOL    HW1   26   1.250   0.886   2.264 -2.8745  0.0614  0.4158
    9SOL    HW2   27   1.135   0.762   2.322 -1.2855  0.0900  0.9076
   10SOL     OW   28   0.741   1.420   1.246 -0.2295  0.0768 -0.2701
   10SOL    HW1   29   0.652   1.436   1.204  2.5297 -2.8846  0.1348
   10SOL    HW2   30   0.806   1.502   1.248 -0.0737  2.5254 -0.0884
   11SOL     OW   31   2.335   2.843   0.862  1.0532  0.7516  0.4892
   11SOL    HW1   32   2.284   2.810   0.951 -1.1732 -1.1375  3.3357
   11SOL    HW2   33   2.417   2.900   0.879  1.0319 -1.1656  0.4932
   12SOL     OW   34   1.516   0.908   0.391 -0.4166  0.2759  0.5593
   12SOL    HW1   35   1.432   0.917   0.331 -0.2261  0.2840  1.3981
   12SOL    HW2   36   1.571   0.828   0.353 -0.3184  2.0458 -1.5069
   13SOL     OW   37   2.446   0.736   1.791  0.1267 -0.6271 -0.0204
   13SOL    HW1   38   2.393   0.678   1.865 -2.8930  0.5096 -0.7869
   13SOL    HW2   39   2.470   0.687   1.701 -1.1199  2.1507 -0.0011
   14SOL     OW   40   1.957   3.086   0.595 -0.5905  0.2117 -0.1604
   14SOL    HW1   41   1.860   3.116   0.587 -1.4643  2.4331  0.4159
   14SOL    HW2   42   1.975   3.062   0.698  2.4711  0.5878  0.0149
   15SOL     OW   43   1.882   2.071   2.647  0.1449  0.1833 -0.1611
   15SOL    HW1   44   1.818   2.051   2.725  0.4229 -0.2099  0.8918
   15SOL    HW2   45   1.864   2.016   2.563 -0.6937  1.4795 -0.4313
   16SOL     OW   46   1.614   1.742   3.025  0.8124 -0.0728  0.0014
   16SOL    HW1   47   1.606   1.646   3.069 -2.3010 -2.8430 -0.5267
   16SOL    HW2   48   1.688   1.801   3.062  0.9394 -0.5908  0.6483
   17SOL     OW   49   0.129   0.433   0.174  0.4688  0.2488 -0.4655
   17SOL    HW1   50   0.214   0.479   0.131 -1.7243  1.4440 -1.9038
   17SOL    HW2   51   0.056   0.431   0.096 -1.4605  1.2372 -2.2895
   18SOL     OW   52   0.880   2.935   2.145  0.0366 -0.1534  0.4936
   18SOL    HW1   53   0.842   2.861   2.205 -0.2023  2.7802 -1.2715
   18SOL    HW2   54   0.950   2.905   2.073 -0.9671  3.0272 -3.1741
   19SOL     OW   55   0.596   0.857   1.917  0.1991  0.4036  0.0705
   19SOL    HW1   56   0.650   0.834   2.004  0.5683  0.1921  1.0919
   19SOL    HW2   57   0.630   0.940   1.869 -0.9508  0.0487  0.6207
   20SOL     OW   58   0.199   2.853   0.855  0.1252 -0.3429  0.0312
   20SOL    HW1   59   0.094   2.857   0.877 -0.0540 -0.8899  0.8028
   20SOL    HW2   60   0.235   2.766   0.815 -1.6634  0.2195 -1.3074
   21SOL     OW   61   2.719   0.318   2.010 -0.7427  0.0337  0.5833
   21SOL    HW1   62   2.693   0.241   1.949  1.8624  2.2656 -1.3418
   21SOL    HW2   63   2.820   0.308   2.036 -0.4013 -0.0638  1.1386
   22SOL     OW   64   2.349   0.197   0.127 -0.2100  0.0595 -0.1532
   22SOL    HW1   65   2.364   0.111   0.072 -1.6734  3.2112  3.1727
   22SOL    HW2   66   2.295   0.266   0.073  1.5348 -0.7598 -1.3361
   23SOL     OW   67   2.808   0.558   0.660 -0.3669  0.4753 -0.2248
   23SOL    HW1   68   2.843   0.476   0.607 -1.2524  0.3539  1.5977
   23SOL    HW2   69   2.811   0.642   0.599 -1.3349  0.9910  0.0367
   24SOL     OW   70   0.253   1.857   0.396  0.3070 -0.1855  0.6289
   24SOL    HW1   71   0.215   1.934   0.339  1.8143 -2.0319 -0.1658
   24SOL    HW2   72   0.351   1.825   0.366  1.8161 -2.6806 -2.3902
   25SOL     OW   73   2.292   0.600   0.196  0.5513  0.2782 -0.0091
   25SOL    HW1   74   2.281   0.577   0.095 -0.2030 -0.1020 -0.1250
   25SOL    HW2   75   2.344   0.524   0.245 -0.3644 -1.0434 -1.6257
   26SOL     OW   76   2.436   2.150   2.118  0.1073  0.0195 -0.5146
   26SOL    HW1   77   2.530   2.186   2.146 -0.0762 -0.9716 -0.0966
   26SOL    HW2   78   2.437   2.084   2.037  1.0145 -1.6595  0.5856
   27SOL     OW   79   0.599   2.935   0.175  1.0464  0.4368  0.2560
   27SOL    HW1   80   0.659   3.004   0.132 -0.8431  1.9320  0.0652
   27SOL    HW2   81   0.524   2.913   0.106  0.2425 -1.0831  1.3688
   28SOL     OW   82   1.605   0.149   0.278 -0.3058  0.4331  0.0422
   28SOL    HW1   83   1.657   0.097   0.204  1.5076 -1.2909 -1.2184
   28SOL    HW2   84   1.652   0.238   0.311  0.8169 -0.9498 -2.1187
   29SOL     OW   85   2.015   0.615   0.286 -0.4004 -0.0556 -0.0610
   29SOL    HW1   86   2.012   0.689   0.359  0.9245 -1.1523  0.8915
   29SOL    HW2   87   2.114   0.592   0.272  1.8866 -0.9669 -0.5776
   30SOL     OW   88   0.168   2.089   0.928  0.0133  0.3138  0.2829
   30SOL    HW1   89   0.198   2.033   0.846 -0.3042 -1.1077 -0.0786
   30SOL    HW2   90   0.064   2.094   0.933 -0.6104  2.4318  3.2183
   31SOL     OW   91   2.163   0.049   2.362 -0.3303  0.0563 -0.1109
   31SOL    HW1   92   2.142  -0.002   2.454 -0.9218  2.1707  2.1172
   31SOL    HW2   93   2.081   0.040   2.294 -0.3692  0.0730  0.0138
   32SOL     OW   94   3.032   3.078   0.301  0.8594 -0.2915  0.3967
   32SOL    HW1   95   2.993   2.979   0.308 -1.4300  0.7750 -0.3648
   32SOL    HW2   96   3.128   3.090   0.337  2.6461 -0.4469 -1.6201
   33SOL     OW   97   0.898   0.183   0.605  0.0177 -0.0743 -0.0417
   33SOL    HW1   98   0.888   0.128   0.516  0.4081  1.8389  0.9712
   33SOL    HW2   99   0.989   0.233   0.611  2.5839 -0.0268  0.1697
   34SOL     OW  100   0.330   2.697   1.036  0.3576  0.3814 -0.6415
   34SOL    HW1  101   0.285   2.775   0.983 -0.7123 -1.6513  0.7945
   34SOL    HW2  102   0.424   2.729   1.065 -1.2962 -0.3974 -3.3202
   35SOL     OW  103   0.047   0.120   1.889 -0.1014 -0.2991 -0.0107
   35SOL    HW1  104   0.084   0.027   1.901 -2.7982  1.7187  0.1939
   35SOL    HW2  105  -0.013   0.140   1.808 -0.7586 -2.3956  0.7534
   36SOL     OW  106   1.898   1.173   1.517  0.2745 -0.3141 -0.2141
   36SOL    HW1  107   1.984   1.118   1.540  2.3781  0.6034  1.3627
   36SOL    HW2  108   1.908   1.238   1.439 -0.5301  1.6230  0.2251
   37SOL     OW  109   1.127   0.214   0.987  0.0235  0.0413  0.6381
   37SOL    HW1  110   1.154   0.316   0.966  0.5681  2.7544  1.7106
   37SOL    HW2  111   1.183   0.157   0.921 -0.3676  1.8633 -0.4273
   38SOL     OW  112   1.149   2.891   2.458 -0.1117  0.0864 -0.3129
   38SOL    HW1  113   1.064   2.871   2.520  2.0847  0.3004 -0.5687
   38SOL    HW2  114   1.153   2.993   2.437  3.2097  1.9797  0.7029
   39SOL     OW  115   2.445   1.399   3.055  0.2553 -0.1472 -0.5724
   39SOL    HW1  116   2.521   1.328   3.070  0.1188  0.8796 -0.4308
   39SOL    HW2  117   2.371   1.398   3.129 -2.6817  0.9832 -0.6376
   40SOL     OW  118   2.020   2.534   2.600 -0.1437 -0.0812 -0.4543
   40SOL    HW1  119   1.978   2.633   2.601 -5.0001  2.1439 -0.6820
   40SOL    HW2  120   1.952   2.463   2.558 -0.6764 -0.3497 -0.7850
   41SOL     OW  121   3.030   0.746   2.811  0.0501  0.6723 -0.0524
   41SOL    HW1  122   2.938   0.786   2.828  2.1114  1.9853  2.0167
   41SOL    HW2  123   3.035   0.664   2.750 -0.1679 -0.8868 -1.1615
   42SOL     OW  124   1.798   1.720   0.560  0.0691 -0.3686 -0.0771
   42SOL    HW1  125   1.742   1.630   0.556 -0.5980  0.6792  1.1964
   42SOL    HW2  126   1.840   1.753   0.472 -1.2540  0.5048 -0.8613
   43SOL     OW  127   0.455   1.682   1.177  0.0011  0.1444 -0.4883
   43SOL    HW1  128   0.454   1.582   1.135 -0.1794 -0.7883 -2.5598
   43SOL    HW2  129   0.409   1.680   1.268 -0.5090  0.3015 -1.2863
   44SOL     OW  130   1.648   2.367   2.975  0.2089  0.0934 -0.5145
   44SOL    HW1  131   1.553   2.402   2.987  1.5094 -2.1310  0.8644
   44SOL    HW2  132   1.680   2.386   2.877  0.5821  1.0315  2.3854
   45SOL     OW  133   0.349   1.905   2.560  0.0370 -0.3851 -0.0159
   45SOL    HW1  134   0.285   1.909   2.475  0.6407  1.0769  0.6694
   45SOL    HW2  135   0.418   1.828   2.554 -1.9571  1.2173  1.4518
   46SOL     OW  136   1.216   0.745   0.284 -0.2948  0.3724 -0.0758
   46SOL    HW1  137   1.259   0.799   0.204  0.5984  2.1637 -1.4857
   46SOL    HW2  138   1.165   0.662   0.251 -3.8220  0.7390 -0.4557
   47SOL     OW  139   0.160   2.435   1.545 -0.1986 -0.4207  0.3148
   47SOL    HW1  140   0.145   2.351   1.600  0.6307 -0.2417 -1.8370
   47SOL    HW2  141   0.187   2.413   1.450 -1.0027  2.0326  3.2851
   48SOL     OW  142   2.662   0.655   0.141  0.1153  0.7643  0.0864
   48SOL    HW1  143   2.623   0.662   0.234  0.5282  0.1517 -1.6000
   48SOL    HW2  144   2.765   0.655   0.134 -4.0206 -1.7962  1.0412
   49SOL     OW  145   0.379   0.839   1.782  0.2338  0.1005  0.6362
   49SOL    HW1  146   0.460   0.827   1.851  0.8681 -1.4024  1.3206
   49SOL    HW2  147   0.376   0.763   1.710  1.8128 -0.8749  1.4391
   50SOL     OW  148   1.747   1.144   0.296  0.3696 -0.0517 -0.1082
   50SOL    HW1  149   1.772   1.045   0.269  0.4276 -1.7687 -1.1831
   50SOL    HW2  150   1.683   1.148   0.379  0.4312 -1.2714  0.1329
   51SOL     OW  151   3.018   1.772   0.282  0.1006  0.3972  0.8779
   51SOL    HW1  152   2.980   1.696   0.223  1.6332 -1.4258  0.8188
   51SOL    HW2  153   3.099   1.736   0.338 -0.6313  1.9508  3.1470
   52SOL     OW  154   0.767   2.148   0.609  0.0003 -0.0080 -0.6660
   52SOL    HW1  155   0.670   2.129   0.586 -1.5743 -0.1695  0.4857
   52SOL    HW2  156   0.807   2.070   0.666 -0.9218  1.2444 -2.5471
   53SOL     OW  157   0.234   0.416   1.521  0.4209  0.2487  0.2187
   53SOL    HW1  158   0.272   0.513   1.545 -1.5789  1.2543  0.8660
   53SOL    HW2  159   0.185   0.419   1.430 -1.0158 -1.7684  0.1408
   54SOL     OW  160   1.726   0.466  -0.002  0.2575 -0.3709  0.3542
   54SOL    HW1  161   1.801   0.423   0.055 -3.3491  1.0501  0.4510
   54SOL    HW2  162   1.632   0.468   0.040  0.3820  0.4899 -1.0679
   55SOL     OW  163   0.723   2.896   0.627 -0.2436 -0.8806 -0.9179
   55SOL    HW1  164   0.661   2.975   0.601  1.1660  1.2988  1.7310
   55SOL    HW2  165   0.823   2.929   0.636 -1.5797  1.5166  1.1634
   56SOL     OW  166   0.579   1.571   3.050 -0.3683 -0.3597 -0.3352
   56SOL    HW1  167   0.523   1.580   3.137  1.7091 -0.9950 -1.8023
   56SOL    HW2  168   0.560   1.484   2.994  2.0636  1.0400 -0.8181
   57SOL     OW  169   1.728   2.492   2.359 -0.2953 -0.2432 -0.6854
   57SOL    HW1  170   1.793   2.410   2.368  1.1040 -0.8329  0.7997
   57SOL    HW2  171   1.686   2.516   2.448  0.8782 -0.1851 -0.1497
   58SOL     OW  172   0.670   0.239   1.107  0.3426  0.3668 -0.0103
   58SOL    HW1  173   0.576   0.248   1.158 -0.4673  0.3705  0.1054
   58SOL    HW2  174   0.713   0.149   1.135  0.6334  0.6193 -0.9613
   59SOL     OW  175   0.465   2.402   2.718  0.0596  0.0319 -0.1121
   59SOL    HW1  176   0.477   2.307   2.744  1.0499  2.3350  0.5955
   59SOL    HW2  177   0.556   2.457   2.707  2.3999  3.6530 -0.5255
   60SOL     OW  178   2.325   2.072   2.366 -0.1681 -0.5484  0.2513
   60SOL    HW1  179   2.370   2.103   2.278 -1.6157 -2.6142  0.6518
   60SOL    HW2  180   2.362   2.120   2.449  0.1340 -2.7168 -1.1013
   61SOL     OW  181   1.197   0.630   0.533 -0.3339 -0.1241 -0.3148
   61SOL    HW1  182   1.100   0.656   0.553  2.2561 -0.0821 -2.2759
   61SOL    HW2  183   1.212   0.662   0.431  1.3116 -0.2752  2.4987
   62SOL     OW  184   2.748   1.714   2.729  0.0281  0.1984 -0.3732
   62SOL    HW1  185   2.701   1.624   2.701 -0.1358 -3.3870  1.1943
   62SOL    HW2  186   2.830   1.703   2.788  1.3861  3.5218 -1.0141
   63SOL     OW  187   0.491   0.929   0.203  0.0616  0.0499 -0.2210
   63SOL    HW1  188   0.523   0.967   0.112 -0.3622  0.9906 -1.0748
   63SOL    HW2  189   0.511   0.998   0.279 -2.5288  0.0671  0.3318
   64SOL     OW  190   3.011   0.581   2.297  0.0277 -0.3475  0.1315
   64SOL    HW1  191   2.957   0.641   2.363 -0.9883 -1.2976 -1.4679
   64SOL    HW2  192   3.024   0.628   2.204 -2.6573  0.2093  3.2124
   65SOL     OW  193   0.244   1.440   0.730 -0.0225  0.0392  0.4254
   65SOL    HW1  194   0.234   1.518   0.795  0.6487 -1.8111  0.0340
   65SOL    HW2  195   0.294   1.469   0.640 -1.8212 -1.4472 -4.1550
   66SOL     OW  196   2.580   0.331   0.545  0.7968 -0.1747  0.3294
   66SOL    HW1  197   2.685   0.311   0.541 -0.0060 -2.2896 -0.8306
   66SOL    HW2  198   2.535   0.294   0.630 -0.0975 -0.6020  1.9054
   67SOL     OW  199   0.628   2.507   1.455  0.1244  0.5221 -0.0619
   67SOL    HW1  200   0.702   2.484   1.522 -1.0085  0.9171 -1.8600
   67SOL    HW2  201   0.544   2.442   1.453 -1.1551 -0.2032 -0.8500
   68SOL     OW  202   0.937   1.014   2.448 -0.9923 -0.2942 -0.3843
   68SOL    HW1  203   1.029   0.986   2.408  2.6865 -0.8359  1.7228
   68SOL    HW2  204   0.871   1.059   2.384 -1.8994 -2.7269 -0.2203
   69SOL     OW  205   0.803   2.745   2.312 -0.1806 -0.4054  0.4250
   69SOL    HW1  206   0.844   2.659   2.267 -0.5560  1.2318  0.1260
   69SOL    HW2  207   0.704   2.724   2.342  0.4961 -0.3704 -0.8286
   70SOL     OW  208   0.433   0.138   2.499  0.2039  0.2160  0.1750
   70SOL    HW1  209   0.380   0.132   2.592  0.4539 -0.9550  2.7300
   70SOL    HW2  210   0.517   0.072   2.503  1.0971 -1.8971  2.2164
   71SOL     OW  211   1.040   1.764   0.316  0.2652  0.0275  0.2228
   71SOL    HW1  212   0.998   1.726   0.405 -1.0055  2.9281  1.0401
   71SOL    HW2  213   0.968   1.768   0.247  1.1485  1.8252 -0.3166
   72SOL     OW  214   1.845   0.232   2.162  0.5150  0.0911 -0.3374
   72SOL    HW1  215   1.916   0.306   2.161  0.0453 -0.4881  1.4067
   72SOL    HW2  216   1.882   0.136   2.171 -2.7333  3.6230  0.8605
   73SOL     OW  217   2.781   2.183   2.481  0.1462  0.1830  0.5898
   73SOL    HW1  218   2.775   2.089   2.433  1.0938 -0.0039  0.9845
   73SOL    HW2  219   2.810   2.165   2.579  0.2566 -1.8293 -0.1662
   74SOL     OW  220   2.709   2.878   2.147  0.1024  0.2513 -0.6003
   74SOL    HW1  221   2.646   2.847   2.226 -3.6846  0.2932  1.6398
   74SOL    HW2  222   2.772   2.954   2.176 -0.9673 -0.8304  2.5858
   75SOL     OW  223   0.966   0.834   1.121 -0.3882 -0.5792  0.2216
   75SOL    HW1  224   0.871   0.870   1.101  1.3281 -0.1727  0.2182
   75SOL    HW2  225   1.000   0.833   1.219 -0.3952  0.1586  0.5923
   76SOL     OW  226   1.869   1.268   2.561 -0.1873 -0.0331  0.4474
   76SOL    HW1  227   1.762   1.269   2.568  1.0166  0.0478 -0.0640
   76SOL    HW2  228   1.905   1.366   2.579 -0.1837  0.6365 -0.3032
   77SOL     OW  229   2.885   0.929   1.050  0.4333  0.3753 -0.0526
   77SOL    HW1  230   2.840   0.839   1.040 -0.3427  1.6280  0.0611
   77SOL    HW2  231   2.967   0.933   1.113 -2.0447 -2.8346  2.0086
   78SOL     OW  232   2.002   1.337   1.318  0.1070 -0.3045  0.7333
   78SOL    HW1  233   2.086   1.340   1.254 -1.1346 -0.8529  0.0066
   78SOL    HW2  234   1.928   1.409   1.285 -2.7140 -0.6220 -0.0818
   79SOL     OW  235   0.695   1.419   0.848  0.2843 -0.2255 -0.1240
   79SOL    HW1  236   0.588   1.406   0.844  2.4056 -0.5385 -1.1428
   79SOL    HW2  237   0.751   1.352   0.788 -0.2287 -1.2721  0.4581
   80SOL     OW  238   0.558   0.485   1.538  0.0808  0.0842 -0.2262
   80SOL    HW1  239   0.606   0.549   1.464 -1.2826  1.6935 -0.5598
   80SOL    HW2  240   0.610   0.395   1.564  0.8849 -0.3041  0.7769
   81SOL     OW  241   1.033   1.234   2.563  0.7966  0.1657 -0.1433
   81SOL    HW1  242   1.005   1.136   2.539  1.0099  1.2535 -0.2626
   81SOL    HW2  243   0.957   1.296   2.531  1.3652 -0.8255  1.9221
   82SOL     OW  244   0.930   2.878   1.521  0.0340  0.1687  0.0848
   82SOL    HW1  245   0.955   2.787   1.474 -1.3942 -1.0061 -2.2472
   82SOL    HW2  246   0.984   2.960   1.481 -2.2965  2.5335 -1.3326
   83SOL     OW  247   2.575   2.366   0.887  0.5440 -0.3590  0.1248
   83SOL    HW1  248   2.502   2.317   0.822 -0.4702 -1.9691  0.9702
   83SOL    HW2  249   2.578   2.464   0.865  0.2644 -3.0507 -0.6462
   84SOL     OW  250   0.752   0.014   2.289  0.6699 -0.2059 -0.4324
   84SOL    HW1  251   0.716  -0.009   2.384  0.4278 -0.0145  0.5168
   84SOL    HW2  252   0.790  -0.068   2.235 -0.3795  0.6509  0.8446
   85SOL     OW  253   0.290   1.697   1.397  0.0598  0.2758 -0.2206
   85SOL    HW1  254   0.231   1.766   1.442  0.5703 -0.0842 -3.1516
   85SOL    HW2  255   0.337   1.632   1.464 -0.1265  1.1654 -1.5381
   86SOL     OW  256   0.389   1.032   1.543  0.1905  0.1875 -0.9947
   86SOL    HW1  257   0.400   0.963   1.464  0.5031 -1.9852 -1.9527
   86SOL    HW2  258   0.428   1.001   1.638 -0.7618 -0.7499  0.4569
   87SOL     OW  259   1.593   0.659   0.329 -0.1618 -0.4949 -0.2875
   87SOL    HW1  260   1.686   0.709   0.322  3.4705  2.7031 -2.2705
   87SOL    HW2  261   1.550   0.626   0.240 -0.7160 -0.3827 -2.4909
   88SOL     OW  262   1.611   1.380   0.273  0.0077 -0.2914  0.0245
   88SOL    HW1  263   1.677   1.303   0.279 -0.2942 -0.6645  2.0120
   88SOL    HW2  264   1.514   1.347   0.255 -1.1348  0.7857 -1.2260
   89SOL     OW  265   0.037   0.337   0.588  0.0170  0.8252  0.2529
   89SOL    HW1  266   0.086   0.248   0.590  0.0581  0.5278  0.4733
   89SOL    HW2  267  -0.069   0.324   0.581 -3.0856  1.5409  1.1292
   90SOL     OW  268   0.778   1.539   0.150 -0.0508 -0.8977 -0.1317
   90SOL    HW1  269   0.859   1.477   0.156  1.0460 -0.2406 -0.0134
   90SOL    HW2  270   0.720   1.530   0.062 -0.1600  0.9103 -0.1786
   91SOL     OW  271   1.209   1.501   1.775  0.4239 -0.3349 -0.5249
   91SOL    HW1  272   1.227   1.567   1.852  0.3885 -4.2964  0.8123
   91SOL    HW2  273   1.136   1.433   1.803 -0.1300  3.0530  0.5444
   92SOL     OW  274   0.011   0.994   1.211 -0.3274  0.0653  0.0758
   92SOL    HW1  275   0.072   1.072   1.183  1.5988 -1.7854 -1.3649
   92SOL    HW2  276  -0.002   0.984   1.314  0.0845 -1.1558  0.5428
   93SOL     OW  277   3.083   2.665   0.078  0.5260  0.6541  0.2030
   93SOL    HW1  278   3.033   2.632  -0.010 -3.3768 -2.9395  1.7665
   93SOL    HW2  279   3.136   2.582   0.121  0.0575 -1.8493  3.6446
   94SOL     OW  280   1.496   1.306   1.676  0.1672 -0.4597 -0.4077
   94SOL    HW1  281   1.588   1.259   1.699  0.5512  0.1995  1.6138
   94SOL    HW2  282   1.492   1.403   1.705  0.1114 -2.0833  1.3320
   95SOL     OW  283   1.365   2.467   2.919 -0.7336  0.6499  0.0522
   95SOL    HW1  284   1.265   2.485   2.910  2.8706  1.1007 -2.5432
   95SOL    HW2  285   1.386   2.376   2.872 -1.7635 -1.7145 -1.0260
   96SOL     OW  286   0.572   2.158   1.292  0.0198  0.5173  0.4749
   96SOL    HW1  287   0.506   2.129   1.217  1.1785  1.5356  0.4755
   96SOL    HW2  288   0.589   2.086   1.363  1.0869  2.2394 -0.1182
   97SOL     OW  289   0.267   1.637   2.442 -0.0897 -0.2812  0.3167
   97SOL    HW1  290   0.263   1.729   2.389  1.7410  0.3448 -0.2767
   97SOL    HW2  291   0.255   1.640   2.545 -0.8057 -2.4601 -2.5987
   98SOL     OW  292   2.189   1.668   1.217 -0.4067  0.2235 -0.4834
   98SOL    HW1  293   2.106   1.641   1.160 -2.0082 -4.6698 -0.9622
   98SOL    HW2  294   2.287   1.647   1.181  1.3619  0.8867 -0.0388
   99SOL     OW  295   2.606   2.099   1.262  0.7906 -0.3791 -0.6425
   99SOL    HW1  296   2.701   2.105   1.294 -2.3936 -1.4349  0.6377
   99SOL    HW2  297   2.551   2.026   1.315  0.3948 -0.1430  1.0876
  100SOL     OW  298   2.306   0.377   2.111  0.1439 -0.5738 -0.2092
  100SOL    HW1  299   2.245   0.358   2.194 -0.1772 -0.6926 -0.8331
  100SOL    HW2  300   2.394   0.428   2.142  1.4134 -1.1194  2.6215
  101SOL     OW  301   0.387   1.523   0.531  0.1156 -0.2478 -0.3608
  101SOL    HW1  302   0.413   1.625   0.537 -0.8868  4.0432  0.7343
  101SOL    HW2  303   0.455   1.478   0.463 -0.3747 -1.2410 -1.3583
  102SOL     OW  304   2.260   1.077   0.821 -0.4691 -0.0224 -0.3609
  102SOL    HW1  305   2.233   0.975   0.808  0.7591 -2.2589  3.1365
  102SOL    HW2  306   2.347   1.100   0.775 -3.2195 -1.1122  0.8476
  103SOL     OW  307   2.264   0.037   0.345 -0.0991 -0.3723 -0.3991
  103SOL    HW1  308   2.274   0.120   0.283  2.9881 -0.0067  0.6150
  103SOL    HW2  309   2.347   0.020   0.401 -0.1120  0.1813 -0.8686
  104SOL     OW  310   3.098   1.781   2.175 -0.7266  0.4087  0.5945
  104SOL    HW1  311   3.158   1.771   2.092 -0.3139 -1.7977  3.4103
  104SOL    HW2  312   2.996   1.810   2.163 -1.5405  1.6935  2.5363
  105SOL     OW  313   1.399   2.115   0.770 -0.1772  0.1889 -0.4169
  105SOL    HW1  314   1.420   2.141   0.674  3.5876 -2.0271 -0.3029
  105SOL    HW2  315   1.376   2.014   0.779  1.1213  0.5015 -2.2623
  106SOL     OW  316   2.146   0.399   1.423 -0.5424 -0.0476 -0.3785
  106SOL    HW1  317   2.083   0.318   1.422  0.1709  1.4155 -0.3711
  106SOL    HW2  318   2.149   0.432   1.520  3.3870  1.8652 -1.5391
  107SOL     OW  319   1.952   2.907   1.159  0.1288 -0.4981  0.4684
  107SOL    HW1  320   1.877   2.954   1.214 -2.1481 -0.4243 -0.0505
  107SOL    HW2  321   1.907   2.830   1.096 -1.5163 -0.2375 -1.3713
  108SOL     OW  322   0.823   2.830   1.201 -0.0208 -0.2105 -0.0636
  108SOL    HW1  323   0.831   2.729   1.184 -1.6366  0.8183 -1.0281
  108SOL    HW2  324   0.914   2.868   1.230  0.7131 -2.0358 -0.2388
  109SOL     OW  325   2.133   0.217   0.708 -0.0555  0.1769 -0.0158
  109SOL    HW1  326   2.075   0.151   0.654 -0.9833  0.3856  1.5335
  109SOL    HW2  327   2.085   0.246   0.795 -0.3342  0.0886  0.7667
  110SOL     OW  328   0.484   2.758   2.779  0.2641  0.2635  0.3864
  110SOL    HW1  329   0.473   2.796   2.680 -0.8619 -0.8436  0.4706
  110SOL    HW2  330   0.578   2.718   2.796  1.5689 -1.1966  3.3983
  111SOL     OW  331   1.283   0.514   2.280  0.2578  0.4887 -0.1018
  111SOL    HW1  332   1.191   0.549   2.317  1.6159  2.8125  1.0763
  111SOL    HW2  333   1.339   0.448   2.348  1.9387  1.6715  2.1347
  112SOL     OW  334   1.735   0.386   1.491 -0.3879  0.7303 -0.1709
  112SOL    HW1  335   1.711   0.437   1.404 -0.7263  1.9049  2.6070
  112SOL    HW2  336   1.652   0.394   1.561 -4.0439  0.0534  1.6455
  113SOL     OW  337   2.374   1.736   1.799 -0.1463  0.1647 -0.0042
  113SOL    HW1  338   2.396   1.638   1.773 -0.4905  2.1517  0.1516
  113SOL    HW2  339   2.384   1.758   1.902 -0.9138  2.7309 -0.3687
  114SOL     OW  340   0.333   0.453   1.166 -0.2413 -0.2764 -0.5359
  114SOL    HW1  341   0.394   0.532   1.147  0.5869 -1.3985 -1.1161
  114SOL    HW2  342   0.251   0.451   1.103 -2.0687 -0.5473 -3.7748
  115SOL     OW  343   2.678   1.558   1.217  0.2532  0.1975  0.5313
  115SOL    HW1  344   2.683   1.457   1.249  1.5628  2.2070  0.3935
  115SOL    HW2  345   2.775   1.587   1.184  1.5856 -0.7297  0.8510
  116SOL     OW  346   1.915   0.926   0.762  0.1719  0.1893  0.2273
  116SOL    HW1  347   1.829   0.897   0.716 -0.8558  0.5833 -1.4644
  116SOL    HW2  348   1.921   1.027   0.781  0.0823  2.7980 -1.2977
  117SOL     OW  349   1.131   0.365   0.576 -0.1184  0.2971 -0.5981
  117SOL    HW1  350   1.152   0.470   0.576  0.0292 -3.2336 -2.2244
  117SOL    HW2  351   1.105   0.333   0.478 -2.5734  4.3503 -2.3836
  118SOL     OW  352   1.132   1.223   1.051 -0.1011 -0.1966 -0.1473
  118SOL    HW1  353   1.085   1.186   1.138  1.2052 -0.2572  0.7717
  118SOL    HW2  354   1.163   1.320   1.066 -0.8289  1.6111  0.8695
  119SOL     OW  355   1.846   1.579   2.179 -0.2220  0.5377 -0.1821
  119SOL    HW1  356   1.793   1.636   2.105 -3.4957  0.4073  2.2897
  119SOL    HW2  357   1.946   1.596   2.181  0.5161 -1.7371 -2.6033
  120SOL     OW  358   2.907   2.799   0.252  0.4898  0.1986 -0.0037
  120SOL    HW1  359   2.980   2.776   0.177  1.7318  1.5750  0.8751
  120SOL    HW2  360   2.813   2.761   0.243  1.2781  0.7464  0.6081
  121SOL     OW  361   1.996   0.764   2.291  0.5924  0.4603  0.6110
  121SOL    HW1  362   2.086   0.813   2.279  1.8512  1.6234  0.4583
  121SOL    HW2  363   2.003   0.664   2.263 -2.1391  1.8183 -0.5666
  122SOL     OW  364   2.632   2.481   1.319  0.5643  0.2744 -0.4302
  122SOL    HW1  365   2.667   2.408   1.252 -3.0276 -1.2740 -0.0895
  122SOL    HW2  366   2.620   2.454   1.420  1.7684 -1.1451  3.3503
  123SOL     OW  367   1.692   0.138   1.774 -0.2020  0.3282 -0.2449
  123SOL    HW1  368   1.704   0.051   1.713  2.3364 -0.1510  0.0783
  123SOL    HW2  369   1.783   0.188   1.792  0.4802 -2.1675 -0.1976
  124SOL     OW  370   3.073   0.416   1.109  0.2620 -0.6311  0.2050
  124SOL    HW1  371   2.991   0.461   1.159 -0.9596 -2.9607  0.3892
  124SOL    HW2  372   3.083   0.438   1.010  0.4186 -0.3189  0.7332
  125SOL     OW  373   0.854   1.949   0.791 -0.4339  0.4488 -1.1458
  125SOL    HW1  374   0.930   1.883   0.780 -1.2745  2.4335  2.6320
  125SOL    HW2  375   0.879   2.016   0.872 -0.6415  0.6847  0.2028
  126SOL     OW  376   1.878   2.307   2.502  0.1527  0.3077 -0.0014
  126SOL    HW1  377   1.928   2.267   2.422  2.9539 -2.4861  1.7186
  126SOL    HW2  378   1.879   2.232   2.574 -1.3979  0.2212  0.2130
  127SOL     OW  379   0.886   0.986   0.211  0.3119 -0.1602 -0.0018
  127SOL    HW1  380   0.953   1.002   0.290  3.0042 -0.5539  0.8677
  127SOL    HW2  381   0.868   0.884   0.193  0.8896  0.7094  0.6918
  128SOL     OW  382   0.965   0.229   1.447  0.0585 -0.0486 -0.4731
  128SOL    HW1  383   0.958   0.301   1.368  1.3050  2.3460  1.3541
  128SOL    HW2  384   0.886   0.154   1.451 -1.3040 -0.5817  2.4791
  129SOL     OW  385   1.871   0.732   1.861  0.2154 -0.2368 -0.6969
  129SOL    HW1  386   1.876   0.753   1.756  1.2879  0.4273 -2.7929
  129SOL    HW2  387   1.903   0.815   1.915  0.2127 -1.4325  2.9099
  130SOL     OW  388   1.326   2.294   0.966 -0.0959 -0.0110  0.2960
  130SOL    HW1  389   1.350   2.227   0.889 -0.2682  0.1308 -0.4591
  130SOL    HW2  390   1.403   2.364   0.980 -0.3946  0.4078 -1.3400
  131SOL     OW  391   3.083   1.398   1.381 -0.2044 -0.0215  0.2294
  131SOL    HW1  392   3.012   1.328   1.413  2.0054 -3.6028  0.5632
  131SOL    HW2  393   3.175   1.354   1.374 -2.8512  0.9965  2.3280
  132SOL     OW  394   2.035   2.381   0.532  0.0857  0.2877  0.4266
  132SOL    HW1  395   1.933   2.407   0.511 -2.1109  0.9752 -0.4852
  132SOL    HW2  396   2.045   2.317   0.611  0.7126  1.7831 -0.3554
  133SOL     OW  397   1.709   2.473   2.726 -0.3831  0.2950 -0.1522
  133SOL    HW1  398   1.618   2.482   2.671 -0.6630 -0.9760  0.6294
  133SOL    HW2  399   1.765   2.556   2.728 -3.3966 -0.9750  3.4412
  134SOL     OW  400   2.694   2.385   1.585 -0.3526 -0.3282  0.2383
  134SOL    HW1  401   2.642   2.362   1.676 -1.9434  0.4671  0.7532
  134SOL    HW2  402   2.736   2.480   1.596  0.6983  1.3518 -2.0202
  135SOL     OW  403   0.769   1.447   2.671  1.0186  0.8089  0.9281
  135SOL    HW1  404   0.733   1.363   2.723 -1.0237  0.7074 -1.4103
  135SOL    HW2  405   0.758   1.439   2.566 -0.5966  0.1442 -1.9444
  136SOL     OW  406   1.195   2.040   0.397 -0.2200 -0.2927  0.1975
  136SOL    HW1  407   1.127   2.112   0.432  1.1846 -0.3462 -0.0873
  136SOL    HW2  408   1.143   1.961   0.361 -0.1816  1.7569  2.0788
  137SOL     OW  409   0.402   1.207   2.274 -0.0113 -0.0353  0.4933
  137SOL    HW1  410   0.319   1.201   2.334 -0.1044  0.8841  1.6027
  137SOL    HW2  411   0.466   1.123   2.284  0.7043 -2.7606  1.5736
  138SOL     OW  412   2.412   1.533   0.269  0.0816 -0.0672  0.1650
  138SOL    HW1  413   2.370   1.523   0.174 -0.9327 -1.7472 -0.9106
  138SOL    HW2  414   2.417   1.445   0.322 -2.7577  0.4003 -0.8067
  139SOL     OW  415   1.861   2.665   1.572  0.9709 -0.7418 -0.4299
  139SOL    HW1  416   1.765   2.701   1.546  1.8914 -1.0642 -1.8212
  139SOL    HW2  417   1.876   2.584   1.508  0.9275 -3.1439  0.1670
  140SOL     OW  418   2.984   2.956   2.587 -0.6779 -0.3780 -0.1820
  140SOL    HW1  419   3.047   2.873   2.576  0.2127 -0.0002  1.0922
  140SOL    HW2  420   3.022   3.033   2.533  1.4780 -2.4364 -0.0369
  141SOL     OW  421   1.305   1.614   1.551 -0.0730  0.4796 -0.1251
  141SOL    HW1  422   1.226   1.678   1.528 -0.2835 -1.4873 -1.0672
  141SOL    HW2  423   1.280   1.554   1.631  1.7468  1.1450  1.0179
  142SOL     OW  424   1.508   0.664   2.217  0.3181 -0.5110  0.6563
  142SOL    HW1  425   1.480   0.726   2.133 -0.8932  3.8472  1.4119
  142SOL    HW2  426   1.423   0.621   2.263 -1.3314 -0.2445 -0.4294
  143SOL     OW  427   2.745   0.799   0.546 -0.0184  0.0664  0.8133
  143SOL    HW1  428   2.794   0.851   0.465  1.7112  1.6945 -3.5019
  143SOL    HW2  429   2.769   0.848   0.636 -3.6881  1.7225 -0.0953
  144SOL     OW  430   2.919   1.214   1.466 -0.1006  0.4495 -0.3388
  144SOL    HW1  431   2.847   1.209   1.540 -0.6239  2.4856 -2.5412
  144SOL    HW2  432   2.994   1.145   1.475  0.0188 -0.1251 -1.9296
  145SOL     OW  433   0.863   1.839   0.119  0.0633 -0.2935 -0.1045
  145SOL    HW1  434   0.911   1.887   0.037 -0.5325  2.0756 -1.1457
  145SOL    HW2  435   0.849   1.737   0.105  0.4347 -0.2529  0.1162
  146SOL     OW  436   2.473   0.656   1.521  0.4464 -0.2174  0.2886
  146SOL    HW1  437   2.442   0.572   1.467  0.5644 -1.7005  0.5441
  146SOL    HW2  438   2.433   0.749   1.487 -3.3480 -0.6560  1.1522
  147SOL     OW  439   1.119   2.505   0.592 -0.0259  0.2640 -0.2716
  147SOL    HW1  440   1.042   2.551   0.540 -1.6247 -0.9639  0.2683
  147SOL    HW2  441   1.198   2.470   0.534 -0.4913 -0.7402  0.0396
  148SOL     OW  442   1.587   1.472   3.091 -0.3712 -0.0241  0.4160
  148SOL    HW1  443   1.589   1.373   3.047 -2.7230 -1.3730  2.0598
  148SOL    HW2  444   1.593   1.466   3.197  1.5369 -2.4991  0.7429
  149SOL     OW  445   0.663   1.489   1.971 -0.4239 -0.2344 -0.2244
  149SOL    HW1  446   0.580   1.441   2.015  1.4305  0.4106  1.1194
  149SOL    HW2  447   0.705   1.445   1.882  1.3645 -1.0592  0.8066
  150SOL     OW  448   3.059   1.218   0.964  0.5193  0.1821 -0.2050
  150SOL    HW1  449   3.147   1.209   1.025  2.6133  0.5780  0.8407
  150SOL    HW2  450   2.991   1.137   0.977  0.3725  3.2150  0.1460
  151SOL     OW  451   0.223   0.865   2.052 -1.5193  0.4151  0.1647
  151SOL    HW1  452   0.239   0.943   1.981 -0.8832  2.7267 -0.3369
  151SOL    HW2  453   0.258   0.770   2.028 -0.7018  0.1383  1.1929
  152SOL     OW  454   1.466   1.843   1.082  1.1268 -0.1688  0.0302
  152SOL    HW1  455   1.509   1.940   1.088 -0.0484  0.8740  0.1973
  152SOL    HW2  456   1.358   1.850   1.069 -2.9290  1.4072 -0.3235
  153SOL     OW  457   0.140   1.526   0.233  0.1207 -0.5481  0.3833
  153SOL    HW1  458   0.114   1.427   0.219 -3.4907 -0.3255 -0.6814
  153SOL    HW2  459   0.125   1.559   0.330  2.2001 -0.0713 -1.8767
  154SOL     OW  460   2.310   1.770   2.746  0.8593  0.1939 -0.2682
  154SOL    HW1  461   2.336   1.666   2.757 -0.4834 -2.6107 -1.2727
  154SOL    HW2  462   2.387   1.828   2.708 -0.6844  0.2800  0.7996
  155SOL     OW  463   2.403   1.281   0.405 -0.3244  0.1106  0.6087
  155SOL    HW1  464   2.496   1.259   0.361  0.8919 -1.3407  0.4495
  155SOL    HW2  465   2.332   1.209   0.398  0.5073  1.2139  0.1147
  156SOL     OW  466   2.455   0.813   0.703  1.2298 -0.1456  0.2927
  156SOL    HW1  467   2.355   0.798   0.713  3.3914 -3.1771 -0.6721
  156SOL    HW2  468   2.480   0.846   0.603 -1.0233 -2.2070 -2.7941
  157SOL     OW  469   1.229   3.027   3.056  0.3015  0.5979  0.7097
  157SOL    HW1  470   1.301   2.969   3.008  1.8088 -1.6711 -0.2384
  157SOL    HW2  471   1.277   3.116   3.073  1.7534 -0.1879 -1.4975
  158SOL     OW  472   1.069   1.911   1.840  0.1608  0.6536 -0.3786
  158SOL    HW1  473   1.126   1.995   1.823  1.7707  0.3320 -0.9236
  158SOL    HW2  474   0.981   1.932   1.895  2.0755  3.8485 -1.6746
  159SOL     OW  475   0.815   0.425   1.264 -1.0004 -0.3992  0.2221
  159SOL    HW1  476   0.752   0.494   1.315 -0.8519  0.8431  0.2251
  159SOL    HW2  477   0.781   0.400   1.171  0.2764  1.1504  3.1403
  160SOL     OW  478   1.411   2.442   1.450 -0.1167 -0.1317 -0.1010
  160SOL    HW1  479   1.352   2.374   1.504 -2.5256  2.3890  2.8320
  160SOL    HW2  480   1.498   2.404   1.406  0.4365 -0.2848  0.3781
  161SOL     OW  481   3.057   2.654   0.438  0.3625 -0.3794  0.4358
  161SOL    HW1  482   3.022   2.559   0.410  1.0526  1.1477 -1.8375
  161SOL    HW2  483   3.005   2.731   0.381 -2.3100  1.4545 -0.8803
  162SOL     OW  484   2.539   1.883   0.442  0.0988  0.5472  0.2702
  162SOL    HW1  485   2.556   1.835   0.355 -2.1305 -3.5754  2.7104
  162SOL    HW2  486   2.467   1.836   0.493  0.6734  0.3358 -1.5605
  163SOL     OW  487   1.954   2.708   0.759  0.1940  0.3851 -0.3997
  163SOL    HW1  488   1.962   2.728   0.656 -0.4365  1.0522 -2.1247
  163SOL    HW2  489   2.038   2.656   0.795  2.8785 -0.4771 -0.0449
  164SOL     OW  490   3.095   0.153   1.214 -0.4593 -0.5108 -0.1059
  164SOL    HW1  491   3.100   0.251   1.171  0.0272  1.4624  0.9355
  164SOL    HW2  492   3.159   0.140   1.297  1.4866  4.0227  0.4675
  165SOL     OW  493   1.109   1.445   0.659 -0.2855  0.5775 -0.3060
  165SOL    HW1  494   1.112   1.499   0.749 -1.9792  0.8097  2.2064
  165SOL    HW2  495   1.026   1.457   0.595  0.2065 -0.9630 -1.8839
  166SOL     OW  496   1.518   1.004   1.810 -0.2240 -0.2494 -0.0794
  166SOL    HW1  497   1.455   1.087   1.821 -1.4221  0.2136  0.0634
  166SOL    HW2  498   1.616   1.034   1.784  1.6158 -1.4377 -1.1761
  167SOL     OW  499   0.673   1.992   1.519  0.0863  0.1962  0.2999
  167SOL    HW1  500   0.728   2.035   1.598 -2.5317 -0.3074  0.5077
  167SOL    HW2  501   0.648   1.891   1.527 -3.6674  0.3442 -0.7190
  168SOL     OW  502   1.599   2.340   0.153  0.1637  0.1260 -0.3151
  168SOL    HW1  503   1.662   2.336   0.068  0.8798 -0.5677  1.2921
  168SOL    HW2  504   1.640   2.313   0.247 -1.3632 -3.9647  0.5195
  169SOL     OW  505   0.032   2.556   2.204 -0.7133  0.3326  0.0869
  169SOL    HW1  506   0.052   2.472   2.151  0.7028 -2.6498  0.9443
  169SOL    HW2  507   0.084   2.550   2.295 -1.5883  3.4799  0.1153
  170SOL     OW  508   1.169   0.151   2.041 -0.5233 -0.0756  0.3122
  170SOL    HW1  509   1.253   0.190   2.090 -0.0321 -1.4889  1.1335
  170SOL    HW2  510   1.173   0.164   1.935 -0.3471  0.6497 -0.7536
  171SOL     OW  511   0.197   0.840   2.407  0.1885 -0.2075  0.1801
  171SOL    HW1  512   0.111   0.873   2.457  0.6089  2.3911  4.6352
  171SOL    HW2  513   0.203   0.856   2.304 -0.5853  0.3381  2.1653
  172SOL     OW  514   0.979   1.040   2.875  0.1947 -0.0252  0.0833
  172SOL    HW1  515   0.931   1.072   2.961 -1.6130  2.3095  0.1206
  172SOL    HW2  516   0.929   1.071   2.794  0.6488 -0.4491  0.5934
  173SOL     OW  517   0.443   2.553   0.070 -0.8999  0.9185 -0.3702
  173SOL    HW1  518   0.501   2.493   0.006 -2.0768  0.2776  0.0196
  173SOL    HW2  519   0.398   2.488   0.142 -0.2615 -2.0207 -2.9575
  174SOL     OW  520   1.505   2.889   1.065 -0.3334  0.0089  0.0162
  174SOL    HW1  521   1.529   2.914   0.969  0.1119  1.1374  0.2959
  174SOL    HW2  522   1.456   2.796   1.068  1.1951 -0.2729 -0.0643
  175SOL     OW  523   0.408   3.060   1.719  0.3033  0.0166  0.1408
  175SOL    HW1  524   0.472   3.082   1.797 -2.5253 -1.3807 -1.2932
  175SOL    HW2  525   0.382   3.146   1.671  1.2349 -2.5110  0.3329
  176SOL     OW  526   2.662   0.398  -0.005  0.2179 -0.2332 -0.1910
  176SOL    HW1  527   2.659   0.489   0.048  0.2775  0.4622 -1.1865
  176SOL    HW2  528   2.643   0.316   0.055 -1.2434 -0.6043 -2.5196
  177SOL     OW  529   0.371   0.292   0.916 -0.1214 -0.5950 -0.1470
  177SOL    HW1  530   0.327   0.201   0.896 -1.6314  2.4893  0.2552
  177SOL    HW2  531   0.456   0.278   0.970 -1.3404 -1.3573 -5.0047
  178SOL     OW  532   0.053   2.754   2.584 -0.1749 -0.3559  0.3551
  178SOL    HW1  533  -0.005   2.670   2.581  0.9719  0.3487 -1.2217
  178SOL    HW2  534   0.123   2.756   2.664  0.4602  3.5332  0.5704
  179SOL     OW  535   2.956   1.560   1.151  0.0991  0.3889  0.4151
  179SOL    HW1  536   3.049   1.607   1.124  0.1605 -1.7768  0.8569
  179SOL    HW2  537   2.976   1.478   1.213 -4.4941  0.7656  2.0636
  180SOL     OW  538   0.224   1.377   1.760  0.4411  0.2387 -0.5745
  180SOL    HW1  539   0.298   1.312   1.796  3.0121 -2.6966 -1.3414
  180SOL    HW2  540   0.173   1.428   1.839 -0.0438 -1.3857  0.2259
  181SOL     OW  541   2.955   1.865   2.523  0.2907 -0.4642 -0.4722
  181SOL    HW1  542   2.975   1.957   2.477  1.0613 -2.2340  1.2053
  181SOL    HW2  543   2.858   1.833   2.525  2.2846 -1.2818  1.8131
  182SOL     OW  544   2.268   1.367   1.216  0.0152  0.2008 -0.7129
  182SOL    HW1  545   2.247   1.280   1.160 -1.9315  2.2350 -2.7556
  182SOL    HW2  546   2.298   1.450   1.160  1.0338  1.1508 -2.9908
  183SOL     OW  547   1.422   2.281   2.424  0.4368 -0.6216 -0.4397
  183SOL    HW1  548   1.371   2.200   2.462  0.9090 -0.2138 -0.1129
  183SOL    HW2  549   1.524   2.265   2.429 -0.3915  0.3546 -0.3933
  184SOL     OW  550   2.166   0.827   0.764 -0.0156  0.1193  0.1682
  184SOL    HW1  551   2.070   0.861   0.781  1.4018 -0.3090 -1.1919
  184SOL    HW2  552   2.171   0.731   0.734  0.2840  4.1297  1.7138
  185SOL     OW  553   1.574   2.784   1.995 -0.3987  0.2841 -0.1843
  185SOL    HW1  554   1.487   2.837   2.018 -1.2433 -1.8168  1.4253
  185SOL    HW2  555   1.619   2.745   2.080  1.5248  0.4863 -2.9469
  186SOL     OW  556   0.109   2.199   1.725 -0.0151  0.6527  0.7896
  186SOL    HW1  557   0.075   2.248   1.808  0.2031  0.6312 -0.2892
  186SOL    HW2  558   0.186   2.135   1.734  1.1765  1.3750 -2.8717
  187SOL     OW  559   1.373   0.661   1.654 -0.4461  0.4423  0.0618
  187SOL    HW1  560   1.465   0.698   1.619  0.2266  0.5083  0.8627
  187SOL    HW2  561   1.388   0.588   1.722  0.3548 -1.3828  3.1097
  188SOL     OW  562   2.724   2.696   1.490 -0.1562 -0.0756  0.8044
  188SOL    HW1  563   2.701   2.797   1.507 -1.4615 -0.2760 -0.5105
  188SOL    HW2  564   2.703   2.669   1.392 -3.3554 -2.0429 -0.9837
  189SOL     OW  565   0.930   1.235   1.351  0.4496  0.1581 -0.4270
  189SOL    HW1  566   0.979   1.264   1.441  2.4646 -2.7858  0.3650
  189SOL    HW2  567   0.859   1.303   1.318 -2.6100 -0.5276  1.1000
  190SOL     OW  568   1.454   1.871   1.524  0.0189  0.0302  0.0405
  190SOL    HW1  569   1.441   1.769   1.541 -1.7697 -0.8450  0.0950
  190SOL    HW2  570   1.440   1.919   1.617 -1.0501  2.7833 -0.9558
  191SOL     OW  571   0.869   0.762   1.513 -0.1452  0.1203 -0.3675
  191SOL    HW1  572   0.934   0.713   1.580  1.2051 -1.0774  0.6394
  191SOL    HW2  573   0.918   0.828   1.442 -3.7773  0.5805 -1.2145
  192SOL     OW  574   1.843   2.440   1.119  0.4762 -0.1710  0.4887
  192SOL    HW1  575   1.746   2.421   1.087 -0.0786  2.3899  1.9155
  192SOL    HW2  576   1.907   2.355   1.095  2.8917 -0.9320  1.9627
  193SOL     OW  577   0.574   0.580   0.471  0.1860  0.1260 -0.0536
  193SOL    HW1  578   0.495   0.506   0.478  0.2945  2.5138 -3.2771
  193SOL    HW2  579   0.633   0.568   0.387  0.9146 -1.2528 -0.3516
  194SOL     OW  580   0.367   0.873   1.312  0.6014 -0.2198 -0.4656
  194SOL    HW1  581   0.291   0.827   1.252 -1.9177 -0.7344  2.3960
  194SOL    HW2  582   0.449   0.905   1.260 -1.4490  2.1380 -1.0882
  195SOL     OW  583   0.998   2.937   0.552  0.4696  0.2466 -0.1888
  195SOL    HW1  584   0.993   2.840   0.514  1.8217  0.4184 -1.0130
  195SOL    HW2  585   1.082   2.986   0.518  1.2221 -0.8828 -0.7512
  196SOL     OW  586   0.283   1.383   1.314 -0.1909 -0.4970 -0.0122
  196SOL    HW1  587   0.276   1.480   1.351  1.1918  0.7895 -3.0239
  196SOL    HW2  588   0.275   1.314   1.394 -2.5548  1.0971  0.0328
  197SOL     OW  589   0.843   2.013   0.320  0.3299 -0.1976  0.3980
  197SOL    HW1  590   0.839   1.953   0.405  0.5200 -1.9554 -0.6442
  197SOL    HW2  591   0.863   1.950   0.236  0.2105 -1.2905 -0.5249
  198SOL     OW  592   0.297   1.244   0.338 -0.0364 -0.6578  0.2139
  198SOL    HW1  593   0.195   1.245   0.311 -2.3487  3.2209 -2.2378
  198SOL    HW2  594   0.323   1.334   0.383 -1.8415  2.9336 -1.2737
  199SOL     OW  595   2.171   0.484   2.585  0.2444  0.0879  0.2415
  199SOL    HW1  596   2.082   0.452   2.629 -0.7080  0.2134  1.1483
  199SOL    HW2  597   2.246   0.466   2.650  0.8238  0.6663  0.5044
  200SOL     OW  598   3.036   2.923   0.784 -0.3051  0.0852 -0.6687
  200SOL    HW1  599   3.045   3.012   0.831  1.6936 -2.8947  0.1763
  200SOL    HW2  600   2.987   2.923   0.694 -2.2382  1.2986  0.6725
  201SOL     OW  601   0.920   0.675   0.505 -0.6837 -0.0548  0.1010
  201SOL    HW1  602   0.882   0.755   0.560 -2.7301 -1.4967  1.3977
  201SOL    HW2  603   0.875   0.583   0.541  1.0303  1.9335  1.1262
  202SOL     OW  604   0.445   1.234   1.861  0.4135 -0.0287  0.4980
  202SOL    HW1  605   0.527   1.181   1.840 -0.7242  0.9728 -0.0246
  202SOL    HW2  606   0.458   1.288   1.948 -2.1950 -1.1262 -0.7787
  203SOL     OW  607   0.688   0.222   1.593  0.6047 -1.2795 -0.1333
  203SOL    HW1  608   0.689   0.150   1.519 -0.8008  1.2587  1.3378
  203SOL    HW2  609   0.722   0.186   1.683  0.6729 -2.8777 -1.2576
  204SOL     OW  610   2.084   1.802   2.936  0.2790  0.3015 -0.2867
  204SOL    HW1  611   2.075   1.705   2.963  1.0339  2.6235 -0.2517
  204SOL    HW2  612   2.169   1.804   2.877 -1.1677  0.0415 -0.0760
  205SOL     OW  613   1.835   1.911   3.086  0.0179  0.0901  0.2483
  205SOL    HW1  614   1.905   1.857   3.033 -1.2968  0.6025 -0.0978
  205SOL    HW2  615   1.790   1.986   3.023  3.9352 -0.5153 -1.9015
  206SOL     OW  616   2.388   2.726   0.261 -0.1016 -0.5542  0.1183
  206SOL    HW1  617   2.376   2.691   0.358 -1.1376  0.9180  0.2419
  206SOL    HW2  618   2.479   2.699   0.224 -1.9520  0.1391 -2.5231
  207SOL     OW  619   0.696   1.753   2.883 -0.5431 -0.5854  0.7912
  207SOL    HW1  620   0.791   1.723   2.860 -0.8140 -0.6345 -1.2233
  207SOL    HW2  621   0.647   1.688   2.949 -0.0640 -0.3326  4.7649
  208SOL     OW  622   1.011   1.561   1.246 -0.0456 -0.4571  0.4358
  208SOL    HW1  623   0.949   1.573   1.161 -1.4860  2.1491 -0.7941
  208SOL    HW2  624   1.017   1.649   1.303 -0.1365 -1.8575  3.8223
  209SOL     OW  625   0.273   0.960   3.083  0.1885  0.3005 -0.1466
  209SOL    HW1  626   0.234   0.877   3.030  0.7882 -1.8793 -2.4998
  209SOL    HW2  627   0.238   0.949   3.180  0.1169 -2.9272 -1.5951
  210SOL     OW  628   1.704   0.522   1.268 -0.2245  0.4178  0.2825
  210SOL    HW1  629   1.628   0.582   1.224 -0.3305 -0.0281 -0.2774
  210SOL    HW2  630   1.795   0.549   1.239 -0.4590 -0.1665  2.0813
  211SOL     OW  631   2.128   1.007   1.581  0.5931 -0.1664 -0.3083
  211SOL    HW1  632   2.128   0.988   1.684 -2.2837  1.3351  2.7287
  211SOL    HW2  633   2.198   1.084   1.547 -1.6965  2.1425 -0.4145
  212SOL     OW  634   0.041   0.992   1.495  0.3918  0.4435 -0.0926
  212SOL    HW1  635   0.118   1.059   1.495 -0.1907  0.2103 -2.6950
  212SOL    HW2  636   0.054   0.910   1.554  1.4922  0.6967 -0.8430
  213SOL     OW  637   2.830   0.149   0.317 -0.2954 -0.9968  0.3797
  213SOL    HW1  638   2.930   0.122   0.311  3.4642  2.8257 -0.3275
  213SOL    HW2  639   2.768   0.073   0.288 -0.2718 -0.9061  0.5628
  214SOL     OW  640   2.162   0.331   2.350 -0.3738 -0.3306  0.0309
  214SOL    HW1  641   2.186   0.392   2.436 -0.0096  1.7179 -0.0607
  214SOL    HW2  642   2.159   0.230   2.377 -0.1194 -3.9783 -0.2698
  215SOL     OW  643   1.636   2.214   2.038  0.0209 -0.5800 -0.3872
  215SOL    HW1  644   1.731   2.256   2.017 -1.3154 -0.1410  0.1723
  215SOL    HW2  645   1.562   2.288   2.020  0.4867 -0.8151  1.2754
  216SOL     OW  646   2.192   0.545   0.720  0.4396 -0.1749  0.3896
  216SOL    HW1  647   2.142   0.545   0.632  3.3744 -1.1883  4.1126
  216SOL    HW2  648   2.231   0.455   0.738 -2.1720 -2.7376  0.7228
  217SOL     OW  649   0.924   2.792   2.584 -0.3083 -0.5053  0.8878
  217SOL    HW1  650   0.920   2.713   2.650  3.0787  0.6592 -0.0557
  217SOL    HW2  651   0.883   2.764   2.493  0.1480  0.1853 -2.4962
  218SOL     OW  652   1.883   1.464   0.044 -0.7052 -0.0482  0.0288
  218SOL    HW1  653   1.781   1.462   0.031 -0.0102 -1.1281 -0.9629
  218SOL    HW2  654   1.912   1.384   0.106  0.5124 -0.2430  1.3877
  219SOL     OW  655   2.453   1.263   2.544  0.3087  0.0744 -0.0818
  219SOL    HW1  656   2.484   1.209   2.458  0.1092  1.7211 -2.1430
  219SOL    HW2  657   2.480   1.213   2.632 -0.3029 -1.4301 -0.5287
  220SOL     OW  658   1.410   1.030   1.371 -0.5633  0.5529 -0.1739
  220SOL    HW1  659   1.505   0.998   1.393 -1.8504  1.0765  1.4069
  220SOL    HW2  660   1.388   1.050   1.272 -0.1397  1.2102  1.1634
  221SOL     OW  661   1.389   0.963   2.185  0.4265  0.5709 -0.0338
  221SOL    HW1  662   1.347   1.004   2.098 -0.0143  0.5532 -3.2704
  221SOL    HW2  663   1.458   1.026   2.226  0.9120 -1.0849 -4.6633
  222SOL     OW  664   1.144   0.093   1.226  0.4215  0.0965 -0.5193
  222SOL    HW1  665   1.174   0.157   1.302 -1.8103 -0.9004  2.0709
  222SOL    HW2  666   1.119   0.143   1.135  0.7433  0.3002  0.5333
  223SOL     OW  667   2.712   0.958   2.102 -0.0479 -0.1145  0.0033
  223SOL    HW1  668   2.647   1.033   2.065 -1.9742 -0.4829  1.0671
  223SOL    HW2  669   2.775   0.988   2.179 -0.2080  0.2824 -2.0877
  224SOL     OW  670   1.590   1.025   2.774 -0.6389 -0.0428  0.2787
  224SOL    HW1  671   1.608   0.960   2.696  1.2803 -1.7118 -0.0352
  224SOL    HW2  672   1.616   1.129   2.757  1.6710  0.5709  0.3290
  225SOL     OW  673   2.950   2.695   2.892 -0.1027 -0.1186  0.4267
  225SOL    HW1  674   2.874   2.701   2.820  0.0855 -0.3738  1.1216
  225SOL    HW2  675   3.011   2.781   2.899 -0.3789 -3.7407  0.9073
  226SOL     OW  676   2.383   1.492   2.809  0.3101 -0.0004  0.5870
  226SOL    HW1  677   2.471   1.485   2.752 -0.2288  1.5446 -2.9397
  226SOL    HW2  678   2.394   1.455   2.906 -1.6119  0.1901  0.8356
  227SOL     OW  679   0.844   0.234   3.100 -0.0552 -0.2725 -0.0510
  227SOL    HW1  680   0.859   0.335   3.089 -2.1200  1.1900  1.0217
  227SOL    HW2  681   0.811   0.192   3.015  0.7454  1.2450 -0.6251
  228SOL     OW  682   2.427   0.659   2.864  0.2948  0.0099  0.0952
  228SOL    HW1  683   2.407   0.718   2.782 -0.3734  0.0926  0.9411
  228SOL    HW2  684   2.499   0.584   2.841  2.3080 -0.3895 -1.4163
  229SOL     OW  685   0.440   0.495   1.822 -0.3402 -0.3212  0.2803
  229SOL    HW1  686   0.520   0.483   1.886 -1.2205  3.1732  0.2455
  229SOL    HW2  687   0.465   0.507   1.723  0.5525  0.0527 -2.8187
  230SOL     OW  688   1.898   1.203   1.976  0.3182  0.3858 -0.1968
  230SOL    HW1  689   1.956   1.282   1.934 -0.5918  1.9573  0.2280
  230SOL    HW2  690   1.824   1.235   2.042  0.4054  0.7743 -0.9392
  231SOL     OW  691   0.614   1.068   3.094  0.3982 -0.3127 -0.0382
  231SOL    HW1  692   0.701   1.112   3.087 -3.9464  3.0535  1.4508
  231SOL    HW2  693   0.541   1.142   3.126 -1.9779  0.9777 -0.4140
  232SOL     OW  694   2.410   3.044   2.839  0.3874  0.4294 -0.8424
  232SOL    HW1  695   2.482   2.971   2.842 -1.8136  1.1263 -1.1072
  232SOL    HW2  696   2.428   3.113   2.764  0.5924  1.3376  0.9526
  233SOL     OW  697   1.730   1.183   1.111  0.1908 -0.3113 -0.7860
  233SOL    HW1  698   1.821   1.236   1.103  0.5785 -1.4101 -2.8301
  233SOL    HW2  699   1.745   1.079   1.119  1.4440  0.0057  3.9120
  234SOL     OW  700   1.655   2.583   1.820  0.1014 -0.6947 -0.2254
  234SOL    HW1  701   1.624   2.663   1.881  0.4156  4.1411  0.9669
  234SOL    HW2  702   1.617   2.491   1.842 -0.5243  0.2133  2.8848
  235SOL     OW  703   3.090   2.945   2.876  0.1819  0.8119 -0.6573
  235SOL    HW1  704   3.029   2.963   2.799 -0.8157  1.3185 -0.3935
  235SOL    HW2  705   3.049   2.976   2.968 -0.2831 -2.9543  1.7208
  236SOL     OW  706   2.957   0.679   0.055 -0.0250 -0.1697 -0.3166
  236SOL    HW1  707   3.012   0.707   0.138 -0.6118 -3.0209 -2.9463
  236SOL    HW2  708   3.004   0.601   0.003 -1.5115 -1.4894  1.5897
  237SOL     OW  709   1.459   1.622   0.907  0.6693  0.4188  0.0870
  237SOL    HW1  710   1.556   1.579   0.908 -0.8821 -0.1682 -0.1107
  237SOL    HW2  711   1.450   1.696   0.977 -0.9500 -0.4870  1.6391
  238SOL     OW  712   1.901   1.209   0.789 -0.5488 -0.4819 -0.0590
  238SOL    HW1  713   1.934   1.263   0.873 -3.6224 -0.4416  1.5793
  238SOL    HW2  714   1.798   1.216   0.781  5.1189 -1.6089 -0.3341
  239SOL     OW  715   2.032   0.229   2.735 -0.8010  0.2295  0.4834
  239SOL    HW1  716   2.078   0.189   2.820  1.8472 -2.2024  1.6714
  239SOL    HW2  717   1.953   0.300   2.754  0.6705  0.4042  0.6827
  240SOL     OW  718   0.913   0.715   0.244  0.5684  0.2501 -0.2201
  240SOL    HW1  719   0.981   0.653   0.198 -0.5669  1.5331  1.9528
  240SOL    HW2  720   0.915   0.701   0.348 -0.5832  1.7908 -2.5080
  241SOL     OW  721   0.570   0.146   0.343 -0.4299 -0.0534 -0.1531
  241SOL    HW1  722   0.646   0.205   0.297  1.2434 -0.6053 -2.9868
  241SOL    HW2  723   0.521   0.083   0.274 -0.4217 -2.5624  4.0763
  242SOL     OW  724   0.638   2.564   1.192  0.0545  0.2909  0.3435
  242SOL    HW1  725   0.641   2.532   1.291 -0.3703  1.8142 -1.5309
  242SOL    HW2  726   0.585   2.649   1.195 -1.2275 -0.6015  0.0587
  243SOL     OW  727   1.050   0.587   2.373  0.4366  0.0484 -0.0661
  243SOL    HW1  728   0.959   0.617   2.328  2.3630 -3.9063 -2.2355
  243SOL    HW2  729   1.046   0.545   2.463 -2.0910 -0.2556 -1.4214
  244SOL     OW  730   2.722   1.934   2.345 -1.0583  0.1387  0.1458
  244SOL    HW1  731   2.770   1.904   2.257 -0.3405  0.1735 -0.6786
  244SOL    HW2  732   2.633   1.876   2.362 -3.4680  1.5118 -0.1796
  245SOL     OW  733   2.174   0.997   2.158 -0.0299  0.1466  0.4772
  245SOL    HW1  734   2.265   0.973   2.198  0.0318  2.0589 -0.1374
  245SOL    HW2  735   2.128   1.074   2.212 -0.9454 -1.3504  1.8238
  246SOL     OW  736   0.272   2.840   1.819  0.5282  0.2858  0.2145
  246SOL    HW1  737   0.178   2.844   1.776  0.5137  0.9817 -0.6179
  246SOL    HW2  738   0.329   2.924   1.779  2.6396  1.3812 -2.4988
  247SOL     OW  739   2.222   0.594   3.029 -0.3514 -0.0669 -0.0365
  247SOL    HW1  740   2.300   0.619   2.965  2.1297  0.1661 -0.4433
  247SOL    HW2  741   2.160   0.676   3.035 -0.3941 -2.1177 -2.7800
  248SOL     OW  742   2.194   1.838   1.620 -0.0562 -0.6884 -0.5324
  248SOL    HW1  743   2.273   1.801   1.683  1.4630 -0.3189  1.0304
  248SOL    HW2  744   2.122   1.770   1.624  3.1006  1.2031 -0.9457
  249SOL     OW  745   1.904   1.898   1.803 -0.1573  0.0804 -0.3827
  249SOL    HW1  746   1.907   1.825   1.729 -1.4621 -0.4602  0.2682
  249SOL    HW2  747   1.990   1.895   1.860 -1.7147 -1.4414 -0.7051
  250SOL     OW  748   0.992   0.710   1.887 -0.6540 -0.1443  0.2536
  250SOL    HW1  749   1.022   0.634   1.956  1.1448 -0.6729  0.3531
  250SOL    HW2  750   0.970   0.679   1.793 -2.9465  2.8421 -0.5122
  251SOL     OW  751   3.063   1.572   2.511 -0.7700 -0.5564  0.1523
  251SOL    HW1  752   3.066   1.663   2.469  0.6006 -2.4698 -0.6753
  251SOL    HW2  753   2.966   1.536   2.525  0.4368 -1.3781 -0.1786
  252SOL     OW  754   1.538   0.846   1.554  0.1104  0.4007  0.5282
  252SOL    HW1  755   1.616   0.888   1.500 -0.9258  1.2298 -0.0870
  252SOL    HW2  756   1.517   0.906   1.637 -0.3893 -0.5936  0.8550
  253SOL     OW  757   0.932   1.514   0.473 -0.0144  0.2044 -0.2039
  253SOL    HW1  758   0.933   1.465   0.382  0.0805 -0.3101 -2.1002
  253SOL    HW2  759   0.842   1.502   0.515 -1.1302 -1.4543 -3.1242
  254SOL     OW  760   2.030   2.203   1.596  0.1498 -0.3043 -0.3864
  254SOL    HW1  761   2.003   2.118   1.543  0.2919  2.2400  1.7245
  254SOL    HW2  762   1.949   2.240   1.652 -0.7432 -0.1757 -1.2024
  255SOL     OW  763   0.130   1.146   2.934  0.0046  0.1617 -0.3279
  255SOL    HW1  764   0.174   1.243   2.919  1.4531  0.4968 -0.3440
  255SOL    HW2  765   0.203   1.082   2.966 -1.1511 -2.1257  1.0332
  256SOL     OW  766   2.828   1.400   1.804  0.1249  0.1155 -0.4936
  256SOL    HW1  767   2.761   1.455   1.748 -1.0546  3.0463 -2.0001
  256SOL    HW2  768   2.812   1.297   1.790 -1.0515  0.7725  1.8439
  257SOL     OW  769   0.808   0.216   1.834  0.0205  0.4327  0.9349
  257SOL    HW1  770   0.882   0.287   1.790  2.2083  4.4289 -0.1979
  257SOL    HW2  771   0.844   0.120   1.836 -0.3511  0.5581 -2.3312
  258SOL     OW  772   2.956   1.146   0.539 -0.0552  0.2272  0.2674
  258SOL    HW1  773   2.866   1.155   0.594 -2.7433 -1.2485  1.5598
  258SOL    HW2  774   3.043   1.181   0.580 -0.2747  3.5827 -0.1567
  259SOL     OW  775   0.466   2.939   2.989  0.0036 -0.1853 -0.3263
  259SOL    HW1  776   0.395   2.900   3.051  0.6987 -0.8262  0.3637
  259SOL    HW2  777   0.494   2.870   2.917 -3.2342 -0.4167  2.4000
  260SOL     OW  778   2.718   0.756   2.732 -0.0556 -0.0271  0.6180
  260SOL    HW1  779   2.638   0.816   2.697 -1.8721  3.4993  1.2425
  260SOL    HW2  780   2.694   0.656   2.754  2.1730 -3.5346  0.0275
  261SOL     OW  781   2.706   1.313   1.306 -0.4641 -0.3212 -0.6253
  261SOL    HW1  782   2.650   1.252   1.237  0.0747 -1.2403  0.1348
  261SOL    HW2  783   2.795   1.274   1.349  2.0272  2.3063  0.6928
  262SOL     OW  784   1.374   2.979   2.072 -0.1697 -0.0014  0.4400
  262SOL    HW1  785   1.416   3.060   2.024  2.5876  0.1467  1.1540
  262SOL    HW2  786   1.271   2.962   2.054  0.6004 -0.5247  0.5257
  263SOL     OW  787   0.805   0.656   2.257 -0.0497 -0.2291  0.0292
  263SOL    HW1  788   0.746   0.579   2.215 -1.3344 -1.1767 -0.7771
  263SOL    HW2  789   0.809   0.739   2.200 -0.2708 -3.3898  0.0028
  264SOL     OW  790   2.273   0.807   0.367 -0.0970 -0.2111 -0.3218
  264SOL    HW1  791   2.271   0.735   0.295  2.2171  1.2639 -2.0483
  264SOL    HW2  792   2.368   0.827   0.399  0.7567 -1.6228 -0.4117
  265SOL     OW  793   0.928   2.376   2.611  0.3307  0.4978 -0.5684
  265SOL    HW1  794   0.993   2.445   2.664 -2.7404  0.7633 -1.0252
  265SOL    HW2  795   0.878   2.314   2.676 -1.5759  1.8368  1.0483
  266SOL     OW  796   1.313   1.763   3.058 -0.4674  0.2154 -0.1230
  266SOL    HW1  797   1.299   1.799   3.154  2.4695 -0.8724 -0.8764
  266SOL    HW2  798   1.412   1.782   3.031 -3.6001  0.2292 -1.9176
  267SOL     OW  799   1.057   0.045   2.290 -0.2563 -0.0287  0.8085
  267SOL    HW1  800   0.980  -0.009   2.256 -2.1154 -0.0477 -1.5502
  267SOL    HW2  801   1.105   0.082   2.204 -0.8181  0.3608 -0.5785
  268SOL     OW  802   0.822   1.236   1.035  0.3284  0.3003 -0.0920
  268SOL    HW1  803   0.795   1.302   1.110  0.7504  3.4677  1.3585
  268SOL    HW2  804   0.904   1.273   0.984 -0.9231 -0.0846 -0.2179
  269SOL     OW  805   2.374   2.496   1.634  0.0177  0.6030 -0.0162
  269SOL    HW1  806   2.439   2.420   1.655  0.0339  2.1728  1.3060
  269SOL    HW2  807   2.347   2.561   1.710 -0.5471 -2.0133  1.3145
  270SOL     OW  808   0.160   2.990   2.012  0.3431  0.3005 -0.2922
  270SOL    HW1  809   0.214   2.928   1.949  1.2238  1.6689 -0.9396
  270SOL    HW2  810   0.111   2.931   2.087 -0.8603 -3.2865 -0.1232
  271SOL     OW  811   0.475   1.376   1.138 -0.3166  0.1363 -0.2384
  271SOL    HW1  812   0.472   1.292   1.079  2.2833 -2.1657  2.0874
  271SOL    HW2  813   0.388   1.387   1.203 -0.4123 -0.9725  1.0300
  272SOL     OW  814   1.909   3.095   1.939  0.4063  0.6030 -0.3872
  272SOL    HW1  815   1.862   3.015   1.892  0.2909 -2.2792  2.5711
  272SOL    HW2  816   1.920   3.177   1.877 -1.2661  0.9038  1.3744
  273SOL     OW  817   1.531   1.484   2.804 -0.4362 -0.0869 -0.1768
  273SOL    HW1  818   1.441   1.439   2.787 -0.4601  2.7945 -0.9249
  273SOL    HW2  819   1.545   1.505   2.905 -0.3589 -0.8575 -0.4368
  274SOL     OW  820   1.107   0.512   2.055 -0.4943 -0.1329 -0.6013
  274SOL    HW1  821   1.035   0.453   2.091 -3.8136  4.4031 -0.5920
  274SOL    HW2  822   1.185   0.510   2.123 -0.3328 -1.4299  0.3175
  275SOL     OW  823   0.644   2.128   1.936 -0.0083  0.7578 -0.5921
  275SOL    HW1  824   0.630   2.221   1.977 -0.5435  1.1650 -1.0559
  275SOL    HW2  825   0.559   2.106   1.879 -0.3804 -1.2530 -0.8666
  276SOL     OW  826   2.231   0.966   2.806  0.3976 -0.4880  0.6174
  276SOL    HW1  827   2.150   1.008   2.758 -1.7377 -2.7573  0.7572
  276SOL    HW2  828   2.210   0.887   2.868  1.4662  1.9636  2.5926
  277SOL     OW  829   3.088   0.790   0.268  0.3139  0.2639  0.1406
  277SOL    HW1  830   3.175   0.837   0.231  0.9290  0.7369  0.7230
  277SOL    HW2  831   3.113   0.717   0.340  0.1785 -1.9219 -0.4662
  278SOL     OW  832   0.274   0.266   3.054 -0.1218 -0.5213  0.5898
  278SOL    HW1  833   0.349   0.230   2.989 -0.9935  0.6824  0.2887
  278SOL    HW2  834   0.288   0.364   3.087 -2.8350  1.1429  0.3926
  279SOL     OW  835   0.267   0.044   0.917  0.0221  0.7523 -0.8595
  279SOL    HW1  836   0.310   0.007   1.002 -1.4232  1.6573 -1.7576
  279SOL    HW2  837   0.276  -0.032   0.843 -4.1002 -0.5184 -0.9435
  280SOL     OW  838   1.642   2.925   2.432 -0.5993  0.1894  0.3753
  280SOL    HW1  839   1.699   2.989   2.494  0.3495 -2.4044 -0.9515
  280SOL    HW2  840   1.582   2.974   2.368 -1.7992 -1.1942 -2.5021
  281SOL     OW  841   0.523   0.967   2.260  0.0084  0.0453  0.4463
  281SOL    HW1  842   0.478   0.905   2.192 -1.0597  3.4577  0.5560
  281SOL    HW2  843   0.509   0.928   2.355 -0.1205 -0.2717 -0.8090
  282SOL     OW  844   1.778   2.457   0.514  0.1110  0.1366 -0.3952
  282SOL    HW1  845   1.716   2.384   0.474  0.1754 -2.0204 -0.5737
  282SOL    HW2  846   1.731   2.553   0.517 -4.1473  0.9179  1.2147
  283SOL     OW  847   1.138   0.878   0.728  0.4677 -0.0409 -0.3410
  283SOL    HW1  848   1.160   0.842   0.821  0.6906 -0.5863 -0.0945
  283SOL    HW2  849   1.108   0.977   0.728  1.6687  1.0034  2.1179
  284SOL     OW  850   2.231   2.822   2.468 -0.0617 -0.0917  0.1687
  284SOL    HW1  851   2.315   2.786   2.423  1.8334  0.2473  0.3261
  284SOL    HW2  852   2.228   2.797   2.572 -2.4009 -1.1998  3.7149
  285SOL     OW  853   1.344   0.010   2.584 -0.5655 -0.0787  0.2970
  285SOL    HW1  854   1.388   0.002   2.491 -0.8916 -3.2379  0.2145
  285SOL    HW2  855   1.296   0.100   2.598 -0.2813 -0.9701  1.8776
  286SOL     OW  856   0.400   0.474   0.716 -0.6640 -0.0913 -0.1632
  286SOL    HW1  857   0.397   0.407   0.797 -2.4495 -4.2576 -1.3747
  286SOL    HW2  858   0.396   0.419   0.632 -3.0272  0.3435  2.4578
  287SOL     OW  859   0.082   1.308   2.642  0.2143 -0.2915 -0.6381
  287SOL    HW1  860   0.035   1.214   2.652 -1.0169 -3.6379  0.8138
  287SOL    HW2  861   0.030   1.389   2.598  0.5951 -0.8942 -1.4684
  288SOL     OW  862   1.514   2.745   1.651  0.1410 -0.1180  0.2388
  288SOL    HW1  863   1.557   2.661   1.698  1.2793  1.7067 -0.1056
  288SOL    HW2  864   1.546   2.764   1.552  1.3896  0.2275 -1.8543
  289SOL     OW  865   0.627   2.763   0.848  0.3220  0.3965 -0.7999
  289SOL    HW1  866   0.638   2.831   0.771  0.1419  0.8300  3.0480
  289SOL    HW2  867   0.688   2.778   0.935 -0.5192  0.9200 -1.4201
  290SOL     OW  868   2.811   1.139   1.721  0.0308  0.0437  0.6078
  290SOL    HW1  869   2.752   1.052   1.735 -1.5222  0.2830  0.4350
  290SOL    HW2  870   2.902   1.121   1.760 -2.9327  0.3951 -0.4578
  291SOL     OW  871   1.949   3.072   0.053 -0.3263 -0.1937  0.0248
  291SOL    HW1  872   1.991   3.111   0.137  1.9601  0.9517 -0.8831
  291SOL    HW2  873   1.988   3.112  -0.031  0.6395  0.6355  2.0293
  292SOL     OW  874   2.994   1.148   3.048 -0.2277  0.4283 -0.0094
  292SOL    HW1  875   2.931   1.223   3.013  0.0726 -2.3654  2.8478
  292SOL    HW2  876   3.090   1.149   2.995  0.9169  2.7449 -0.5850
  293SOL     OW  877   0.571   2.081   0.302 -0.1290 -0.5049 -0.0588
  293SOL    HW1  878   0.544   2.168   0.353 -0.8151  2.4798 -1.6526
  293SOL    HW2  879   0.674   2.074   0.306 -1.0438  0.9657 -1.4840
  294SOL     OW  880   1.870   2.358   1.773 -0.1093 -0.9225  0.2341
  294SOL    HW1  881   1.897   2.340   1.872  3.3643 -1.2223 -0.8572
  294SOL    HW2  882   1.852   2.455   1.749  0.2466  1.4504 -0.2559
  295SOL     OW  883   1.022   1.036   0.431 -0.3026 -0.1181 -0.7275
  295SOL    HW1  884   1.100   1.073   0.484  0.4272 -1.0376  0.8456
  295SOL    HW2  885   0.976   0.964   0.492  1.5147  0.8572 -1.3643
  296SOL     OW  886   1.116   2.153   2.741 -0.7040  0.1303 -0.3558
  296SOL    HW1  887   1.016   2.131   2.751 -1.0536 -1.5507 -0.3966
  296SOL    HW2  888   1.153   2.119   2.648  1.2093  3.5612 -0.0815
  297SOL     OW  889   1.304   0.538   1.187 -0.6815 -0.3801 -0.3846
  297SOL    HW1  890   1.350   0.491   1.270  2.6118  1.5216  2.5677
  297SOL    HW2  891   1.364   0.602   1.132  1.3001 -0.0975 -1.0001
  298SOL     OW  892   0.489   1.332   2.941  0.2753  0.2245 -0.2192
  298SOL    HW1  893   0.455   1.274   3.020 -0.1305 -0.5917 -1.5552
  298SOL    HW2  894   0.526   1.279   2.862  2.0201 -0.0738  0.1869
  299SOL     OW  895   0.433   0.210   1.237  0.2999 -0.3429  0.5078
  299SOL    HW1  896   0.397   0.308   1.229 -0.8176  0.9335  0.6614
  299SOL    HW2  897   0.434   0.187   1.337 -0.4759 -0.1478 -1.0488
  300SOL     OW  898   1.315   1.791   2.557  0.6977  0.0247  0.1573
  300SOL    HW1  899   1.309   1.707   2.499  1.4450  1.8621 -0.9076
  300SOL    HW2  900   1.374   1.781   2.637  0.0312 -1.1007  1.0372
  301SOL     OW  901   0.415   0.362   0.460 -0.2907  0.3888 -0.3941
  301SOL    HW1  902   0.323   0.339   0.417  1.3274 -3.6599  1.6304
  301SOL    HW2  903   0.486   0.287   0.436 -0.9237  0.1914 -0.4444
  302SOL     OW  904   1.272   2.448   2.278 -0.5940  0.0549  0.4583
  302SOL    HW1  905   1.175   2.454   2.314 -1.4025 -0.1437  1.2972
  302SOL    HW2  906   1.325   2.364   2.316  1.7996  2.3161  2.6147
  303SOL     OW  907   0.989   2.413   0.818 -0.1284  0.6561  0.2224
  303SOL    HW1  908   1.041   2.425   0.725 -2.6540 -3.5546  0.4855
  303SOL    HW2  909   1.005   2.499   0.875  0.0671 -0.5244 -0.3270
  304SOL     OW  910   0.143   1.908   0.672 -0.0812  0.2406 -0.3351
  304SOL    HW1  911   0.226   1.889   0.611  2.8932 -0.5966 -0.2131
  304SOL    HW2  912   0.068   1.957   0.620  2.3300 -2.0495  2.5480
  305SOL     OW  913   1.587   0.826   0.687  0.2974  0.2598 -0.2922
  305SOL    HW1  914   1.516   0.842   0.615 -2.6915  2.0620 -0.5550
  305SOL    HW2  915   1.651   0.742   0.687  2.3518  1.1983  1.8329
  306SOL     OW  916   0.394   1.865   1.963 -0.0055 -0.2021  0.2522
  306SOL    HW1  917   0.479   1.806   1.947 -2.8632 -0.8276  0.6045
  306SOL    HW2  918   0.391   1.897   2.062 -0.5516 -0.5366 -1.4976
  307SOL     OW  919   3.024   0.895   2.481 -1.0482  0.3969  0.1415
  307SOL    HW1  920   3.036   0.932   2.580 -1.5258  0.7703  1.3634
  307SOL    HW2  921   2.958   0.815   2.483  0.4978 -0.7127  0.7202
  308SOL     OW  922   1.491   2.692   2.815  0.1777 -0.7071  0.2452
  308SOL    HW1  923   1.501   2.663   2.718  0.4716 -1.5713  1.1655
  308SOL    HW2  924   1.433   2.623   2.869 -0.1696  3.6166 -0.7224
  309SOL     OW  925   1.262   0.170   1.771  0.2791  0.2661  0.2330
  309SOL    HW1  926   1.344   0.114   1.794  0.4809 -0.0199 -1.1246
  309SOL    HW2  927   1.226   0.157   1.676  0.7204  1.5404  0.0484
  310SOL     OW  928   1.454   2.588   0.660  0.1645 -0.1892  0.9842
  310SOL    HW1  929   1.434   2.614   0.760 -0.2920 -0.8043 -2.2321
  310SOL    HW2  930   1.535   2.633   0.620 -0.8391 -0.6052 -0.5582
  311SOL     OW  931   1.060   0.984   1.781 -0.2776 -0.0901 -0.6430
  311SOL    HW1  932   1.042   0.893   1.825 -0.4456  2.3009  1.7357
  311SOL    HW2  933   1.119   0.971   1.697 -3.0822 -0.9200 -0.2199
  312SOL     OW  934   1.534   0.650   1.050  0.7671 -0.5273 -0.1309
  312SOL    HW1  935   1.569   0.746   1.040 -3.6576  1.4822  0.5386
  312SOL    HW2  936   1.474   0.630   0.965  1.3663 -1.3457  1.3424
  313SOL     OW  937   1.645   1.254   0.773  0.1187 -0.3372  0.3865
  313SOL    HW1  938   1.557   1.271   0.825  1.4971 -1.3549  1.0639
  313SOL    HW2  939   1.622   1.183   0.697 -0.9893  1.2663 -2.1844
  314SOL     OW  940   2.958   3.077  -0.003 -0.2704  0.0101 -0.2257
  314SOL    HW1  941   2.985   3.099   0.096  0.6152  1.5425 -0.4230
  314SOL    HW2  942   2.878   3.009  -0.014  1.8690  2.2652 -0.1490
  315SOL     OW  943   1.180   0.200   2.799 -0.2877  0.0116 -0.6350
  315SOL    HW1  944   1.120   0.177   2.717 -2.1493  2.6814  1.3082
  315SOL    HW2  945   1.159   0.136   2.879  1.1290 -1.8183  0.9584
  316SOL     OW  946   1.713   2.089   0.886  0.3457 -0.1588  0.1195
  316SOL    HW1  947   1.647   2.088   0.962  0.6581  0.9809 -4.0735
  316SOL    HW2  948   1.734   2.187   0.845 -3.3229  2.1444  0.9620
  317SOL     OW  949   1.185   0.680   2.784 -0.3571  0.1570 -0.2189
  317SOL    HW1  950   1.127   0.725   2.855  2.5699 -1.8065  1.3363
  317SOL    HW2  951   1.128   0.615   2.726  0.0505  0.1858  2.5183
  318SOL     OW  952   1.437   3.090   2.317  0.3446 -0.5289 -0.0229
  318SOL    HW1  953   1.461   3.184   2.283 -1.0832 -1.8036  0.2577
  318SOL    HW2  954   1.419   3.030   2.235  5.2150  1.4271  0.8583
  319SOL     OW  955   0.675   2.391   2.999 -0.0345 -0.0822  0.5991
  319SOL    HW1  956   0.650   2.327   3.078 -0.0632 -0.9874  2.0042
  319SOL    HW2  957   0.735   2.345   2.925  1.3291 -0.7251 -1.2531
  320SOL     OW  958   1.677   2.225   0.406  0.2818  0.1190  0.1798
  320SOL    HW1  959   1.747   2.146   0.430 -1.4284 -3.1519  0.9081
  320SOL    HW2  960   1.578   2.191   0.421  2.7505 -0.4100  2.5362
  321SOL     OW  961   1.688   2.721   0.550  0.4858 -0.2178  0.2931
  321SOL    HW1  962   1.639   2.796   0.498  1.5574 -1.2881 -0.5646
  321SOL    HW2  963   1.795   2.738   0.542  3.4223 -1.1451  2.0664
  322SOL     OW  964   2.594   1.127   2.323 -0.4371  0.6068 -0.3272
  322SOL    HW1  965   2.679   1.107   2.378 -0.0280 -0.6164  1.3500
  322SOL    HW2  966   2.556   1.036   2.279  0.0769 -1.8090 -2.8049
  323SOL     OW  967   1.156   2.676   0.801 -0.4538 -0.1544 -0.0986
  323SOL    HW1  968   1.135   2.618   0.723  0.2027 -1.9992  1.2017
  323SOL    HW2  969   1.127   2.773   0.778 -0.5562 -0.7796 -3.5979
  324SOL     OW  970   0.184   2.532   2.441 -0.3033 -0.0365  0.0070
  324SOL    HW1  971   0.110   2.498   2.506  0.6879 -1.8036 -1.1968
  324SOL    HW2  972   0.228   2.617   2.474  0.5333  0.1984  0.3544
  325SOL     OW  973   1.257   3.084   0.468  0.0353  0.0793 -0.3322
  325SOL    HW1  974   1.228   3.100   0.369  0.1288  3.0623  0.2818
  325SOL    HW2  975   1.318   3.157   0.505 -1.0210 -0.5171 -2.9707
  326SOL     OW  976   2.500   0.809   3.075 -0.1905  1.1452  0.2178
  326SOL    HW1  977   2.469   0.749   2.997  1.4954  3.5577 -1.7229
  326SOL    HW2  978   2.565   0.754   3.139 -0.7720 -1.6472  2.1043
  327SOL     OW  979   2.847   0.270   0.554 -0.1040  0.1470  0.3837
  327SOL    HW1  980   2.845   0.217   0.463  1.7032  3.1982 -2.5353
  327SOL    HW2  981   2.842   0.205   0.641 -1.3735 -0.9459  2.8062
  328SOL     OW  982   2.572   0.669   0.409  0.0495 -0.2501  0.0318
  328SOL    HW1  983   2.635   0.712   0.482  0.9342  1.4013 -1.0844
  328SOL    HW2  984   2.531   0.578   0.435  1.3282 -0.7129 -0.4020
  329SOL     OW  985   2.931   3.042   2.163 -0.1364 -0.6873  0.6868
  329SOL    HW1  986   3.011   3.002   2.216 -0.7435 -0.2870 -0.7533
  329SOL    HW2  987   2.933   3.145   2.138 -1.8381  0.0936  0.2691
  330SOL     OW  988   0.520   0.212   1.861 -0.1238 -0.5306 -0.1922
  330SOL    HW1  989   0.611   0.232   1.814  0.3303  3.4732  0.7417
  330SOL    HW2  990   0.531   0.177   1.959  1.2290 -1.5462  3.3197
  331SOL     OW  991   3.038   1.918   1.144 -0.0890 -0.1960  0.1228
  331SOL    HW1  992   3.033   1.927   1.037  1.2787 -1.7520 -0.7005
  331SOL    HW2  993   2.973   1.848   1.190  2.9151  0.1673  1.9225
  332SOL     OW  994   0.398   1.205   0.066 -0.2752 -0.3493  0.2783
  332SOL    HW1  995   0.342   1.124   0.035 -1.2884 -0.5047  0.1989
  332SOL    HW2  996   0.349   1.253   0.141 -0.5731  1.4389 -2.5881
  333SOL     OW  997   2.879   0.959   0.363 -0.3807 -0.0717  0.0285
  333SOL    HW1  998   2.925   1.039   0.408  1.0257  1.0001 -2.5383
  333SOL    HW2  999   2.944   0.908   0.301  5.1599 -4.6425  0.2071
  334SOL     OW 1000   1.742   1.154   1.735  0.3693 -0.2914 -1.1149
  334SOL    HW1 1001   1.806   1.160   1.653  1.4650  0.5666  2.1442
  334SOL    HW2 1002   1.802   1.141   1.817 -1.6643  0.2390 -1.7261
  335SOL     OW 1003   1.881   2.806   2.637 -0.6142 -0.3396  0.0531
  335SOL    HW1 1004   1.816   2.770   2.708  1.0668 -0.3714  0.7951
  335SOL    HW2 1005   1.933   2.892   2.670  1.5269 -0.8011 -0.6008
  336SOL     OW 1006   0.263   0.013   2.701  0.5216  0.4825  0.4576
  336SOL    HW1 1007   0.327   0.015   2.777  0.5412  0.6230 -2.7397
  336SOL    HW2 1008   0.188  -0.058   2.709  0.1900 -0.6201  0.8657
  337SOL     OW 1009   0.913   2.872   2.962 -0.8640 -0.4932 -0.0603
  337SOL    HW1 1010   0.915   2.798   3.033  0.1043 -1.8066  0.6511
  337SOL    HW2 1011   1.010   2.922   2.950  1.9184  0.6654  1.7034
  338SOL     OW 1012   3.092   0.912   0.687 -0.2253  0.0629  0.2380
  338SOL    HW1 1013   2.992   0.886   0.698  1.8112 -0.6390  2.7541
  338SOL    HW2 1014   3.105   1.014   0.665 -0.1275  1.2424  0.8377
  339SOL     OW 1015   1.729   1.311   2.162  0.2398 -0.3460  0.3384
  339SOL    HW1 1016   1.630   1.340   2.129 -0.2299 -0.8370 -3.5973
  339SOL    HW2 1017   1.783   1.396   2.201  4.2973 -0.9326  4.2060
  340SOL     OW 1018   2.236   0.810   1.116 -0.5046  0.0139 -0.8443
  340SOL    HW1 1019   2.161   0.873   1.140 -1.1255 -1.3578 -2.3069
  340SOL    HW2 1020   2.208   0.739   1.044  3.5499 -0.7679  0.7646
  341SOL     OW 1021   1.924   2.082   0.388  0.0439  0.3617 -0.2904
  341SOL    HW1 1022   1.952   2.117   0.293 -0.0547 -1.2885 -2.2469
  341SOL    HW2 1023   1.972   2.128   0.471 -0.0250  1.8854  0.1104
  342SOL     OW 1024   2.175   2.104   2.705  0.3895 -0.1035  0.2381
  342SOL    HW1 1025   2.221   2.018   2.745  0.3761  0.9631 -0.8576
  342SOL    HW2 1026   2.075   2.084   2.673 -1.3096 -1.3860 -0.1973
  343SOL     OW 1027   0.363   0.831   2.757  0.2805  0.8257  0.3000
  343SOL    HW1 1028   0.376   0.885   2.670 -1.3914  0.0001  0.6647
  343SOL    HW2 1029   0.445   0.835   2.815 -1.3119 -0.0518 -0.6068
  344SOL     OW 1030   1.956   1.486   0.403  0.0781 -0.0578 -0.3758
  344SOL    HW1 1031   1.971   1.409   0.334 -0.7155 -0.3508  0.3731
  344SOL    HW2 1032   1.866   1.478   0.451  1.2102  1.8697  0.0630
  345SOL     OW 1033   1.366   2.194   2.842 -0.0659 -0.2589 -0.2630
  345SOL    HW1 1034   1.261   2.192   2.815 -1.7117 -0.3965  1.9301
  345SOL    HW2 1035   1.434   2.148   2.779 -2.2003 -0.5099 -4.2767
  346SOL     OW 1036   2.321   0.882   1.394 -0.0924  0.1185  0.0435
  346SOL    HW1 1037   2.235   0.932   1.420 -2.0568 -2.5563  2.6195
  346SOL    HW2 1038   2.303   0.824   1.311  1.3822 -0.2088 -0.1502
  347SOL     OW 1039   0.693   2.778   1.655 -0.0658 -0.1909 -0.0886
  347SOL    HW1 1040   0.769   2.804   1.592  2.2306  1.2488  1.4681
  347SOL    HW2 1041   0.599   2.816   1.625  1.4280  1.1312 -1.4607
  348SOL     OW 1042   0.188   0.712   2.929 -0.2816 -0.5280  0.1994
  348SOL    HW1 1043   0.099   0.752   2.897  1.1572  0.6252  1.0726
  348SOL    HW2 1044   0.270   0.731   2.866 -0.0296 -1.1488 -1.5849
  349SOL     OW 1045   1.866   0.420   2.811 -0.1574 -0.3455  0.3559
  349SOL    HW1 1046   1.829   0.507   2.764 -0.2081 -0.0020 -1.3226
  349SOL    HW2 1047   1.847   0.414   2.912 -0.4309 -1.1146 -1.6237
  350SOL     OW 1048   1.691   0.385   0.374  0.2394 -0.0203  0.4041
  350SOL    HW1 1049   1.765   0.382   0.446 -1.5082  0.1998 -0.2473
  350SOL    HW2 1050   1.656   0.481   0.345  0.4201  0.7682  0.2868
  351SOL     OW 1051   0.854   0.859   2.072 -0.8544  0.0857  0.2689
  351SOL    HW1 1052   0.888   0.952   2.064 -2.0764 -1.6401  1.3842
  351SOL    HW2 1053   0.899   0.785   2.010  0.5293 -0.7157 -1.4878
  352SOL     OW 1054   2.070   1.330   0.604 -0.0894  0.1953 -0.7671
  352SOL    HW1 1055   2.067   1.427   0.563 -0.3009  0.6909  0.0863
  352SOL    HW2 1056   1.990   1.297   0.663 -1.1894 -2.1478 -0.8213
  353SOL     OW 1057   2.187   2.761   1.098 -0.1131 -0.0010  0.3186
  353SOL    HW1 1058   2.256   2.699   1.141 -2.3148  1.7794 -2.7615
  353SOL    HW2 1059   2.119   2.800   1.164  4.9884  0.4552  1.1256
  354SOL     OW 1060   0.206   1.450   2.889 -0.8400  0.1981  0.1850
  354SOL    HW1 1061   0.195   1.522   2.813  0.2011  2.0313  2.0498
  354SOL    HW2 1062   0.302   1.416   2.897 -0.5967  4.1893  0.9431
  355SOL     OW 1063   0.690   1.546   0.584  0.0958 -0.2650 -0.1769
  355SOL    HW1 1064   0.686   1.515   0.684 -1.7182 -0.4229  0.9122
  355SOL    HW2 1065   0.621   1.506   0.519 -1.2396 -0.0588 -1.1093
  356SOL     OW 1066   0.931   0.299   2.100  0.4552 -0.1920  0.8944
  356SOL    HW1 1067   1.020   0.245   2.098 -0.1719  0.7679 -0.3383
  356SOL    HW2 1068   0.875   0.280   2.016 -0.3900  1.2541 -1.1537
  357SOL     OW 1069   1.028   1.367   0.237 -0.1929  0.3371 -1.0045
  357SOL    HW1 1070   1.084   1.373   0.150  0.6676  0.6264 -0.5706
  357SOL    HW2 1071   1.046   1.273   0.281 -0.1655 -0.6995  4.1579
  358SOL     OW 1072   1.694   1.458   0.531  0.1869  0.2481 -0.2878
  358SOL    HW1 1073   1.675   1.378   0.597  1.0485 -5.2871 -0.5868
  358SOL    HW2 1074   1.641   1.446   0.441  0.4681 -1.5234 -2.3535
  359SOL     OW 1075   1.604   2.580   0.257 -0.5344 -0.2872 -0.8546
  359SOL    HW1 1076   1.598   2.486   0.214  0.1639 -0.6015 -0.3644
  359SOL    HW2 1077   1.518   2.602   0.314 -0.7185 -1.2955 -0.9141
  360SOL     OW 1078   0.805   0.447   0.586 -0.3213  0.0458  0.0900
  360SOL    HW1 1079   0.707   0.479   0.598 -3.0544  0.6922 -0.8612
  360SOL    HW2 1080   0.820   0.340   0.590  0.9466 -1.0953 -2.3607
  361SOL     OW 1081   1.368   1.327   0.618 -0.2758  0.0805  0.2466
  361SOL    HW1 1082   1.384   1.315   0.718 -0.8432 -0.4233  1.8857
  361SOL    HW2 1083   1.270   1.361   0.599  0.8017 -1.0535  1.1692
  362SOL     OW 1084   1.350   1.829   0.721  0.0193 -0.1275 -0.2824
  362SOL    HW1 1085   1.390   1.761   0.791  2.0415 -0.5837 -1.3676
  362SOL    HW2 1086   1.355   1.795   0.622  0.8454  1.6277 -1.6848
  363SOL     OW 1087   1.307   1.315   2.088  0.0609  0.4112 -0.5538
  363SOL    HW1 1088   1.384   1.382   2.076 -0.3123 -1.3413  0.4096
  363SOL    HW2 1089   1.231   1.350   2.148  1.7362 -0.2241  0.4130
  364SOL     OW 1090   0.540   2.372   2.031 -0.1019 -0.1978 -0.8833
  364SOL    HW1 1091   0.439   2.351   2.040  1.1250  1.6791  1.0479
  364SOL    HW2 1092   0.564   2.448   1.964 -1.4520 -1.6356 -2.1438
  365SOL     OW 1093   0.928   1.954   1.384 -0.5146  0.1036  0.4152
  365SOL    HW1 1094   0.842   1.986   1.436  1.3946  1.4315  2.7373
  365SOL    HW2 1095   0.919   1.985   1.285 -0.7619  1.0128  2.5199
  366SOL     OW 1096   2.781   1.947   0.266 -0.7566 -0.2395 -0.5472
  366SOL    HW1 1097   2.714   1.871   0.238 -1.5239  0.5383 -2.0441
  366SOL    HW2 1098   2.882   1.920   0.252  2.8036  0.7363 -3.0196
  367SOL     OW 1099   0.883   1.156   0.000 -0.1829 -1.1064 -0.5311
  367SOL    HW1 1100   0.894   1.119   0.097 -0.6454 -2.0517  0.3872
  367SOL    HW2 1101   0.960   1.224  -0.019  1.3209  1.1970  1.0679
  368SOL     OW 1102   1.461   0.581   0.560  0.2807 -0.9073 -0.1019
  368SOL    HW1 1103   1.360   0.589   0.558 -0.2317  1.2189 -1.6899
  368SOL    HW2 1104   1.503   0.611   0.471 -0.9818  0.6180 -0.9305
  369SOL     OW 1105   0.406   1.600   0.153  0.1548 -0.9333 -0.1110
  369SOL    HW1 1106   0.441   1.686   0.206  1.8980 -1.2956  1.9773
  369SOL    HW2 1107   0.306   1.584   0.161  0.7400 -2.7059  0.7618
  370SOL     OW 1108   0.388   2.188   1.084  0.2099 -0.1104 -0.1219
  370SOL    HW1 1109   0.402   2.279   1.043  0.0459 -2.6304  0.2911
  370SOL    HW2 1110   0.301   2.144   1.044  1.2324 -0.8416 -0.2938
  371SOL     OW 1111   2.926   2.227   2.734 -0.0078 -0.1790  0.5260
  371SOL    HW1 1112   2.973   2.142   2.770  1.1331 -1.2396 -0.5821
  371SOL    HW2 1113   2.921   2.305   2.806 -1.2760  0.3576  1.2228
  372SOL     OW 1114   1.048   2.063   1.141  0.0820 -0.4778 -0.4463
  372SOL    HW1 1115   0.972   2.093   1.078  0.3269 -1.0111  2.1293
  372SOL    HW2 1116   1.109   2.146   1.162 -0.3175  0.0667  1.3735
  373SOL     OW 1117   1.902   1.939   1.005  0.4787 -0.1891  0.4803
  373SOL    HW1 1118   1.988   1.973   1.052  1.0533 -2.7561  2.9743
  373SOL    HW2 1119   1.845   2.008   0.942  0.0830  1.5890 -1.4262
  374SOL     OW 1120   1.866   0.408   0.565 -0.0876 -0.0300 -0.5227
  374SOL    HW1 1121   1.867   0.372   0.660 -1.3342 -2.8121 -0.2396
  374SOL    HW2 1122   1.962   0.383   0.522  0.1809 -2.0958  2.1972
  375SOL     OW 1123   2.416   2.201   1.088  0.3295 -0.4480  0.1314
  375SOL    HW1 1124   2.443   2.262   1.008  0.7295 -2.2212  1.6089
  375SOL    HW2 1125   2.498   2.160   1.144  0.3611 -1.0519  1.3359
  376SOL     OW 1126   0.008   0.651   1.401 -0.0029  0.1137  0.0580
  376SOL    HW1 1127   0.081   0.686   1.467  1.0824  1.2274 -0.4305
  376SOL    HW2 1128  -0.082   0.610   1.447 -2.4823 -4.2978  1.5774
  377SOL     OW 1129   2.172   2.904   0.234 -0.2692  1.1068 -0.1027
  377SOL    HW1 1130   2.208   2.987   0.285 -1.1280  0.6534  0.3591
  377SOL    HW2 1131   2.236   2.822   0.249  2.8063  1.8967  0.0459
  378SOL     OW 1132   1.819   1.901   2.439  1.0271  0.4733 -0.2471
  378SOL    HW1 1133   1.871   1.895   2.351  1.8648 -1.4422 -0.7424
  378SOL    HW2 1134   1.775   1.812   2.472  1.9032 -0.2275 -0.1664
  379SOL     OW 1135   0.739   0.128   2.827  0.5660 -0.2103 -0.2243
  379SOL    HW1 1136   0.774   0.036   2.794  2.0572 -1.6818  0.5844
  379SOL    HW2 1137   0.747   0.215   2.763  0.7596 -0.2028 -0.5548
  380SOL     OW 1138   1.559   1.156   0.497 -0.0612  0.1512 -0.0155
  380SOL    HW1 1139   1.488   1.218   0.535  1.4790 -3.8050 -1.4652
  380SOL    HW2 1140   1.514   1.071   0.456 -1.4381  0.5067 -0.6295
  381SOL     OW 1141   1.289   1.214   1.539  0.1772  0.0346 -0.5109
  381SOL    HW1 1142   1.323   1.124   1.494  1.3974 -2.1807 -3.1599
  381SOL    HW2 1143   1.363   1.263   1.593 -0.9192  1.3233 -1.1800
  382SOL     OW 1144   1.822   0.877   0.262  0.2981 -0.3595  0.2291
  382SOL    HW1 1145   1.847   0.815   0.184  2.6405 -0.9485  1.1031
  382SOL    HW2 1146   1.878   0.867   0.347 -2.5834  0.7168 -0.0249
  383SOL     OW 1147   2.536   1.005   1.466  0.0135 -0.0678 -0.5034
  383SOL    HW1 1148   2.445   0.959   1.431  0.0459  0.3790 -1.1306
  383SOL    HW2 1149   2.611   0.999   1.394 -4.0689  0.3171  1.8427
  384SOL     OW 1150   0.878   2.295   0.193  0.4225  0.3888  0.1135
  384SOL    HW1 1151   0.818   2.376   0.217 -0.7540  2.3802  0.8287
  384SOL    HW2 1152   0.909   2.242   0.278  0.7186 -0.4402 -0.9291
  385SOL     OW 1153   2.964   2.073   1.684  0.1175  0.5135 -0.5471
  385SOL    HW1 1154   3.051   2.125   1.691 -3.4236  0.3440  3.0143
  385SOL    HW2 1155   2.985   1.972   1.677 -0.3553 -0.0156  1.1617
  386SOL     OW 1156   0.481   1.044   0.451 -0.5260 -0.3787 -0.3423
  386SOL    HW1 1157   0.444   0.954   0.486 -1.9828 -1.7687  2.7779
  386SOL    HW2 1158   0.402   1.102   0.415  2.5018 -0.7396 -0.6509
  387SOL     OW 1159   0.996   0.373   1.689  0.9082  0.3818 -0.2722
  387SOL    HW1 1160   1.057   0.453   1.706  1.4851 -0.2102 -1.3923
  387SOL    HW2 1161   1.002   0.324   1.596  1.3302 -1.7947 -0.1390
  388SOL     OW 1162   1.224   2.677   1.719 -0.2779 -0.2049 -0.3052
  388SOL    HW1 1163   1.272   2.737   1.648  0.2695  1.0840 -0.8167
  388SOL    HW2 1164   1.294   2.636   1.786  0.7444 -0.3273  3.3484
  389SOL     OW 1165   0.146   2.956   1.367  0.3980 -0.6408 -0.2990
  389SOL    HW1 1166   0.054   2.933   1.326  0.6462 -0.7260 -0.1157
  389SOL    HW2 1167   0.195   2.870   1.406  1.1605 -0.9432  2.2443
  390SOL     OW 1168   1.042   0.936   1.389 -0.3337 -0.4401  0.5714
  390SOL    HW1 1169   1.105   0.907   1.464  1.6131 -1.5435 -1.0629
  390SOL    HW2 1170   1.028   1.040   1.380  0.5381 -0.2839  1.1021
  391SOL     OW 1171   2.171   1.139   1.083  0.3497 -0.3490  0.0226
  391SOL    HW1 1172   2.120   1.064   1.129 -1.4784 -0.3387  0.8950
  391SOL    HW2 1173   2.214   1.107   0.991 -0.9585 -1.0504 -3.0619
  392SOL     OW 1174   0.902   2.644   0.022  0.2402  0.2146  0.0577
  392SOL    HW1 1175   0.990   2.584   0.018 -1.4766  1.1815  2.2494
  392SOL    HW2 1176   0.837   2.607   0.095  0.7787 -0.8451  2.1347
  393SOL     OW 1177   0.269   0.597   2.021 -0.8322  0.3805  0.2839
  393SOL    HW1 1178   0.197   0.538   2.059 -0.9372 -1.3039 -1.2091
  393SOL    HW2 1179   0.316   0.547   1.942  0.7725  0.8778  0.4612
  394SOL     OW 1180   3.034   1.986   2.764 -0.4114 -0.7898  0.0482
  394SOL    HW1 1181   3.131   1.971   2.791 -3.1511 -0.8156 -0.8745
  394SOL    HW2 1182   3.018   1.950   2.665  0.5672 -1.3130 -1.3807
  395SOL     OW 1183   1.620   1.950   0.556  0.0332 -0.1732 -0.3916
  395SOL    HW1 1184   1.698   1.881   0.549  0.0780  0.2258 -1.3749
  395SOL    HW2 1185   1.588   1.962   0.652  0.5754 -0.4428 -0.7179
  396SOL     OW 1186   2.830   1.816   1.299  0.2342  0.4503 -0.0706
  396SOL    HW1 1187   2.784   1.727   1.323  0.0973 -0.5226 -0.8128
  396SOL    HW2 1188   2.877   1.857   1.380  0.0075  0.2846 -2.6964
  397SOL     OW 1189   1.038   2.223   0.507 -0.1238 -0.7444 -0.0955
  397SOL    HW1 1190   0.948   2.211   0.553 -0.1430  1.0781 -0.4344
  397SOL    HW2 1191   1.082   2.314   0.529 -0.4092  0.7998  0.9721
  398SOL     OW 1192   2.128   0.019   1.084 -0.1867  0.2441  0.2932
  398SOL    HW1 1193   2.053  -0.050   1.105  0.3423 -0.0866 -1.1182
  398SOL    HW2 1194   2.091   0.114   1.057 -1.2113 -0.2768 -1.2678
  399SOL     OW 1195   3.042   2.473   2.561 -0.2767  0.1280 -0.0779
  399SOL    HW1 1196   2.952   2.477   2.512 -0.4273 -2.1048 -1.2091
  399SOL    HW2 1197   3.051   2.381   2.615  0.0737  1.2220  2.1870
  400SOL     OW 1198   0.757   1.691   1.374 -0.6177  0.2106 -0.0485
  400SOL    HW1 1199   0.681   1.672   1.439  0.9275  0.2967  2.0094
  400SOL    HW2 1200   0.729   1.747   1.289  0.2450 -0.5554 -0.0236
  401SOL     OW 1201   1.886   0.174   1.185  0.1604  1.0061 -0.4557
  401SOL    HW1 1202   1.920   0.167   1.285 -2.4436 -0.9914 -2.7980
  401SOL    HW2 1203   1.785   0.170   1.174  2.6448  2.6559 -1.0704
  402SOL     OW 1204   1.349   0.186   3.063  0.1694  0.6870  0.4648
  402SOL    HW1 1205   1.442   0.171   3.019  1.7630 -0.6045  3.2651
  402SOL    HW2 1206   1.298   0.267   3.027 -1.6237  0.2996  2.1117
  403SOL     OW 1207   2.277   1.764   0.910 -0.0458  0.3533  0.1599
  403SOL    HW1 1208   2.355   1.821   0.872 -0.6476  0.3790 -1.5856
  403SOL    HW2 1209   2.224   1.815   0.988  1.0322 -3.0625  0.0852
  404SOL     OW 1210   0.202   2.450   2.790  0.0718  0.7240 -0.2554
  404SOL    HW1 1211   0.303   2.439   2.791 -1.6983 -1.4317  0.1319
  404SOL    HW2 1212   0.167   2.544   2.774 -1.2613 -2.6901 -1.9208
  405SOL     OW 1213   0.098   2.465   0.734 -0.1962  0.6038 -0.0283
  405SOL    HW1 1214   0.106   2.382   0.679 -2.3653  2.2809 -1.3091
  405SOL    HW2 1215   0.170   2.534   0.733  0.3055 -2.8414  1.9133
  406SOL     OW 1216   0.056   1.571   3.072  0.0218 -0.0097  0.0668
  406SOL    HW1 1217   0.122   1.527   3.000  2.8425 -0.2404 -0.1127
  406SOL    HW2 1218   0.094   1.558   3.167 -2.8456 -1.0994 -0.8422
  407SOL     OW 1219   1.544   0.938   0.975  0.3821 -0.2674  0.0737
  407SOL    HW1 1220   1.524   0.936   0.871  0.5147 -0.2692 -2.4843
  407SOL    HW2 1221   1.502   1.020   1.018 -1.3741 -1.5890  0.4684
  408SOL     OW 1222   1.596   2.440   0.976 -0.4123 -0.1976  0.2814
  408SOL    HW1 1223   1.653   2.416   0.890  2.4011 -0.7512  0.7975
  408SOL    HW2 1224   1.539   2.524   0.963 -0.3460  0.1010 -0.9328
  409SOL     OW 1225   0.677   0.757   0.768  0.1067  0.2142  0.1685
  409SOL    HW1 1226   0.581   0.773   0.727 -0.5946  1.3909 -2.8026
  409SOL    HW2 1227   0.688   0.665   0.814  2.2093 -0.3888 -1.1201
  410SOL     OW 1228   1.245   2.026   1.390  0.1411 -0.1724  1.0235
  410SOL    HW1 1229   1.321   1.964   1.411 -0.5310 -0.1579 -4.3857
  410SOL    HW2 1230   1.147   1.991   1.409 -2.8841 -0.9855 -1.1609
  411SOL     OW 1231   2.607   1.846   2.983 -0.2321  0.1164 -0.3053
  411SOL    HW1 1232   2.623   1.946   3.006 -0.3343  0.2737 -0.3570
  411SOL    HW2 1233   2.525   1.837   2.921 -1.3322  0.7334  1.4584
  412SOL     OW 1234   1.524   2.471   2.136 -0.1846 -0.0119  0.1813
  412SOL    HW1 1235   1.594   2.519   2.192  0.8932  0.4005 -0.1008
  412SOL    HW2 1236   1.443   2.435   2.187  0.0457 -2.5196 -1.6394
  413SOL     OW 1237   0.007   0.192   2.906  0.2878  0.0343  0.2610
  413SOL    HW1 1238  -0.056   0.129   2.962 -0.1701  0.0607 -0.7254
  413SOL    HW2 1239   0.088   0.224   2.966  1.0077 -3.2044  2.0050
  414SOL     OW 1240   1.842   1.521   1.201 -0.6046 -0.5880 -0.1334
  414SOL    HW1 1241   1.806   1.620   1.192 -1.7392  0.1452 -2.1085
  414SOL    HW2 1242   1.826   1.468   1.117 -0.9675  0.2345  0.7584
  415SOL     OW 1243   0.339   2.266   0.704 -0.3652 -0.4576  0.0084
  415SOL    HW1 1244   0.326   2.323   0.790  0.2965 -2.2148 -0.3728
  415SOL    HW2 1245   0.257   2.203   0.704 -0.8109 -1.3373 -1.9438
  416SOL     OW 1246   0.366   1.037   1.062  0.0409  0.5170  0.6359
  416SOL    HW1 1247   0.311   0.984   0.986 -0.8145 -0.6463 -0.5122
  416SOL    HW2 1248   0.464   1.068   1.033 -0.0233  2.0405  0.1583
  417SOL     OW 1249   2.292   2.381   2.042 -0.2466 -0.3375  0.2855
  417SOL    HW1 1250   2.348   2.298   2.071  0.1745  0.2494  0.4778
  417SOL    HW2 1251   2.193   2.376   2.067  1.9547  4.6067  0.1447
  418SOL     OW 1252   1.050   0.560   1.332  0.1173 -0.4967  0.0892
  418SOL    HW1 1253   0.961   0.511   1.324  2.7659 -0.5058 -0.1897
  418SOL    HW2 1254   1.129   0.530   1.273 -3.0964 -0.5343  2.9866
  419SOL     OW 1255   0.943   0.514   2.957  0.1141 -0.1677 -0.0795
  419SOL    HW1 1256   0.878   0.537   2.878 -1.7373  4.4548  1.0770
  419SOL    HW2 1257   0.980   0.601   3.008 -0.4593  4.1482  1.9873
  420SOL     OW 1258   0.095   2.229   0.566  0.1125 -0.6426 -0.3981
  420SOL    HW1 1259   0.139   2.293   0.498  1.5200 -3.2534  1.6654
  420SOL    HW2 1260   0.029   2.160   0.530 -0.0460 -0.1444  2.0998
  421SOL     OW 1261   0.332   2.948   0.594  0.0825  0.0827 -0.0571
  421SOL    HW1 1262   0.312   2.904   0.685  1.1159 -3.1811 -0.0167
  421SOL    HW2 1263   0.413   3.016   0.594 -0.5978  1.0896  0.5412
  422SOL     OW 1264   0.997   2.629   1.043  0.0220  0.3124 -0.3093
  422SOL    HW1 1265   1.085   2.637   0.994 -1.2789  0.0701  2.0161
  422SOL    HW2 1266   1.013   2.603   1.146  0.4985  1.1852  0.1643
  423SOL     OW 1267   0.151   0.738   1.166 -0.1565  0.2772 -0.0073
  423SOL    HW1 1268   0.090   0.692   1.231  1.3125  3.6036 -1.6199
  423SOL    HW2 1269   0.122   0.834   1.143  2.6884 -1.3471 -0.3189
  424SOL     OW 1270   1.152   2.172   2.033  0.2746 -0.3874 -0.7740
  424SOL    HW1 1271   1.129   2.276   2.037 -0.6291 -0.4490 -0.2770
  424SOL    HW2 1272   1.130   2.116   2.118  2.0578  0.1254 -1.0661
  425SOL     OW 1273   1.960   1.352   1.001  0.2203 -0.2611  0.0329
  425SOL    HW1 1274   2.016   1.292   1.066  1.0699 -2.9431 -2.3758
  425SOL    HW2 1275   2.003   1.445   0.977 -2.0235  3.0365 -0.3673
  426SOL     OW 1276   1.444   1.608   1.290 -0.5223  0.2584 -0.8183
  426SOL    HW1 1277   1.465   1.693   1.224  0.6745  0.9897  0.5215
  426SOL    HW2 1278   1.409   1.633   1.381  0.3118  2.5600 -0.3692
  427SOL     OW 1279   1.901   2.330   2.048 -0.1031 -0.0960 -0.6793
  427SOL    HW1 1280   1.963   2.274   2.113 -1.9410  1.1617 -2.9700
  427SOL    HW2 1281   1.893   2.428   2.076 -0.9863 -0.3876 -0.6386
  428SOL     OW 1282   0.812  -0.000   0.124  0.1422 -0.3924 -0.1757
  428SOL    HW1 1283   0.832   0.087   0.065 -0.2666  0.3259 -1.5714
  428SOL    HW2 1284   0.895  -0.069   0.111 -0.2014 -2.5682  0.2939
  429SOL     OW 1285   1.333   0.128   0.225 -1.1962  0.1699  0.1071
  429SOL    HW1 1286   1.427   0.143   0.270  0.1717 -0.5488  1.4672
  429SOL    HW2 1287   1.332   0.141   0.122  2.1903  2.3333  0.0235
  430SOL     OW 1288   2.886   1.390   0.297  0.6639 -0.0061  0.2671
  430SOL    HW1 1289   2.866   1.452   0.208 -2.6446 -1.1052 -2.6537
  430SOL    HW2 1290   2.887   1.445   0.387 -0.0083 -0.4602  0.3665
  431SOL     OW 1291   2.079   1.576   0.974  0.3656  0.5146 -0.2623
  431SOL    HW1 1292   2.173   1.622   0.966 -2.1518  2.0486  2.3858
  431SOL    HW2 1293   2.007   1.635   0.926 -1.3344  3.4635  1.0498
  432SOL     OW 1294   2.946   2.159   1.183 -0.1244 -0.8677  0.0187
  432SOL    HW1 1295   2.997   2.070   1.211  2.2663  1.5529  2.1442
  432SOL    HW2 1296   2.962   2.232   1.255 -2.3202 -1.2402  0.5094
  433SOL     OW 1297   1.853   0.281   0.827  0.4670 -0.2097  0.4862
  433SOL    HW1 1298   1.760   0.253   0.882 -0.2045  0.6098  2.7373
  433SOL    HW2 1299   1.927   0.308   0.892 -3.2732  0.1638 -0.5173
  434SOL     OW 1300   1.560   0.350   0.684  0.1375  0.1418 -0.3429
  434SOL    HW1 1301   1.526   0.434   0.626  0.6487 -0.2485 -1.8495
  434SOL    HW2 1302   1.598   0.365   0.779  1.6219 -1.6565 -0.5962
  435SOL     OW 1303   1.526   1.476   2.004  0.7325 -0.2018  0.3169
  435SOL    HW1 1304   1.554   1.527   2.087 -1.3367 -1.2432 -1.7949
  435SOL    HW2 1305   1.535   1.540   1.918  1.1230 -0.6984  0.5167
  436SOL     OW 1306   1.715   2.744   2.242  0.1930 -0.3143 -0.1246
  436SOL    HW1 1307   1.662   2.815   2.293  0.1410  0.3442 -1.4877
  436SOL    HW2 1308   1.731   2.656   2.297  0.3982  4.0150  0.0608
  437SOL     OW 1309   1.112   2.945   0.921 -0.5895  0.2334  0.1871
  437SOL    HW1 1310   1.036   3.014   0.912 -1.0236  0.4554  0.7457
  437SOL    HW2 1311   1.128   2.916   1.020  1.4430 -1.0289  1.6753
  438SOL     OW 1312   1.002   2.636   1.325 -0.1210 -0.0640  0.8008
  438SOL    HW1 1313   1.067   2.710   1.330 -2.3291 -2.7593 -1.4319
  438SOL    HW2 1314   1.043   2.544   1.356 -3.5110 -0.2309  1.1732
  439SOL     OW 1315   0.701   1.794   1.135 -0.1273 -0.1519 -0.8988
  439SOL    HW1 1316   0.687   1.875   1.070 -1.3712  1.8590  1.5317
  439SOL    HW2 1317   0.609   1.741   1.149 -0.2628 -2.1631 -1.0682
  440SOL     OW 1318   1.067   2.446   1.949  0.2611  0.2456  0.6768
  440SOL    HW1 1319   0.996   2.502   1.891 -0.7232 -0.3780  0.7139
  440SOL    HW2 1320   1.164   2.481   1.943 -1.4055  1.1114  1.5432
  441SOL     OW 1321   0.439   2.721   1.515 -1.1499 -0.1951  0.2611
  441SOL    HW1 1322   0.520   2.654   1.519  3.0345  1.6356 -1.3855
  441SOL    HW2 1323   0.372   2.701   1.440  1.1794  0.4330  2.8796
  442SOL     OW 1324   2.250   0.744   2.486 -0.4938  0.0682 -0.3892
  442SOL    HW1 1325   2.227   0.648   2.521  0.7464 -0.7840  1.6750
  442SOL    HW2 1326   2.170   0.806   2.508 -3.1456 -2.7435  3.1832
  443SOL     OW 1327   1.194   2.720   2.165  0.0583 -0.3674 -0.3252
  443SOL    HW1 1328   1.164   2.762   2.254 -3.3801 -0.0978 -1.1736
  443SOL    HW2 1329   1.230   2.621   2.178  0.4698  0.0215 -3.0168
  444SOL     OW 1330   1.065   1.344   1.571 -0.6080  0.0709  0.2323
  444SOL    HW1 1331   1.156   1.297   1.553 -2.3518  0.0353 -0.7172
  444SOL    HW2 1332   1.079   1.447   1.569  1.0957 -0.6591  0.7057
  445SOL     OW 1333   3.082   2.353   1.938 -0.0494  0.6137  0.1137
  445SOL    HW1 1334   3.084   2.440   1.879 -1.8198  0.9985  1.1494
  445SOL    HW2 1335   2.986   2.331   1.973 -1.0741  1.3538 -0.8891
  446SOL     OW 1336   0.176   1.915   2.342 -0.1273 -0.1107 -0.3889
  446SOL    HW1 1337   0.117   1.972   2.404  5.0915  0.5034 -1.6375
  446SOL    HW2 1338   0.117   1.853   2.282 -0.4955  0.0416  0.9449
  447SOL     OW 1339   1.236   1.703   1.962 -0.4724  0.2205  0.3547
  447SOL    HW1 1340   1.164   1.757   1.905 -0.2027  0.6992  0.0832
  447SOL    HW2 1341   1.278   1.756   2.038 -0.3076 -0.7758  0.2757
  448SOL     OW 1342   0.130   1.483   2.011 -0.3957 -0.4846 -0.0818
  448SOL    HW1 1343   0.115   1.582   1.976 -0.9943 -1.2155  0.9061
  448SOL    HW2 1344   0.120   1.471   2.109 -3.1024 -2.4706 -2.2637
  449SOL     OW 1345   2.008   3.002   0.849 -0.1836 -0.0505  0.5763
  449SOL    HW1 1346   2.079   3.039   0.917 -1.4481  0.4983  1.2949
  449SOL    HW2 1347   2.021   2.900   0.836 -0.7925  3.1074 -0.7486
  450SOL     OW 1348   2.263   1.349   0.783 -0.2725 -0.4394  0.6649
  450SOL    HW1 1349   2.256   1.260   0.826  1.7296  2.4409 -1.0304
  450SOL    HW2 1350   2.189   1.358   0.709  0.8623  2.6569  1.6527
  451SOL     OW 1351   1.442   0.028   1.487 -0.1368  0.1045 -0.3243
  451SOL    HW1 1352   1.360   0.092   1.467  1.4327  1.1930  1.1286
  451SOL    HW2 1353   1.422  -0.035   1.570 -0.5841 -1.1184 -0.1377
  452SOL     OW 1354   2.630   2.297   2.229  0.4147  0.1543  0.3965
  452SOL    HW1 1355   2.620   2.400   2.257 -0.1546  0.0565 -1.4301
  452SOL    HW2 1356   2.669   2.239   2.307 -0.1861  2.0808  0.5031
  453SOL     OW 1357   2.433   2.628   3.060 -0.2052 -0.6153 -0.5242
  453SOL    HW1 1358   2.349   2.686   3.055  0.0079 -1.3964 -0.8208
  453SOL    HW2 1359   2.448   2.564   2.980  1.7151 -1.4896  2.0582
  454SOL     OW 1360   0.972   1.114   2.130  0.4311  0.0928  0.0861
  454SOL    HW1 1361   0.963   1.197   2.065 -0.9226 -1.2980  0.1632
  454SOL    HW2 1362   1.069   1.072   2.118  0.7036  1.4502 -0.7457
  455SOL     OW 1363   0.736   2.665   2.861  0.4430  0.2865 -0.0721
  455SOL    HW1 1364   0.778   2.748   2.904 -2.6529  0.9432  2.0459
  455SOL    HW2 1365   0.719   2.587   2.935  1.8082 -2.0622  0.8283
  456SOL     OW 1366   0.528   1.798   0.326  0.1414 -0.0999 -0.4646
  456SOL    HW1 1367   0.617   1.770   0.284  1.8089 -2.4563 -1.4131
  456SOL    HW2 1368   0.523   1.904   0.330 -0.8828 -0.0736  0.9090
  457SOL     OW 1369   0.327   2.639   0.746 -0.6477 -0.2598  0.0857
  457SOL    HW1 1370   0.323   2.629   0.641  3.7641 -0.8192 -0.3156
  457SOL    HW2 1371   0.421   2.651   0.785  2.0201 -2.1240  1.2267
  458SOL     OW 1372   2.984   2.977   1.256 -0.4615  0.5135  0.7196
  458SOL    HW1 1373   3.043   3.062   1.249  2.5661  1.1474 -4.2318
  458SOL    HW2 1374   2.922   2.963   1.171  1.0498 -1.2054 -2.0395
  459SOL     OW 1375   2.094   2.541   0.932 -0.8499 -0.4050  0.0836
  459SOL    HW1 1376   2.105   2.607   1.013  1.0550 -1.0736  3.2953
  459SOL    HW2 1377   2.170   2.552   0.866 -0.6320 -0.5933 -0.7023
  460SOL     OW 1378   1.122   1.932   2.935 -0.3544  0.0382 -0.1590
  460SOL    HW1 1379   1.148   2.012   2.877  1.1763 -1.5953 -2.0929
  460SOL    HW2 1380   1.196   1.867   2.957 -0.5315  0.0651  4.1277
  461SOL     OW 1381   0.462   2.111   2.682  0.0226 -0.5264  0.0932
  461SOL    HW1 1382   0.428   2.027   2.635 -0.4798  1.6926 -0.0792
  461SOL    HW2 1383   0.524   2.094   2.761 -1.0512  0.1917  1.1724
  462SOL     OW 1384   0.939   1.217   1.841  0.0733 -0.2723  0.2198
  462SOL    HW1 1385   0.985   1.129   1.811  2.2452  1.6464  0.6774
  462SOL    HW2 1386   0.926   1.286   1.755 -0.0706  0.3890 -3.6383
  463SOL     OW 1387   0.441   0.781   0.615  0.2234 -0.1751 -0.2370
  463SOL    HW1 1388   0.483   0.688   0.585 -1.0278 -1.0471 -2.5126
  463SOL    HW2 1389   0.340   0.778   0.594 -2.7803  0.5818  0.1015
  464SOL     OW 1390   0.572   2.232   2.266 -0.8047 -0.0133  0.1682
  464SOL    HW1 1391   0.519   2.293   2.327  0.0692 -2.1776  1.0842
  464SOL    HW2 1392   0.580   2.270   2.169  0.0352  0.2599  1.5449
  465SOL     OW 1393   0.235   0.924   0.845 -0.6351 -0.5939 -0.1444
  465SOL    HW1 1394   0.162   0.947   0.776 -2.0770 -0.6925 -1.4605
  465SOL    HW2 1395   0.244   0.824   0.864  2.0233 -0.8952  0.7078
  466SOL     OW 1396   1.387   1.108   1.108  0.2744  0.0200 -0.8170
  466SOL    HW1 1397   1.448   1.191   1.117  0.2625 -0.5491  0.8197
  466SOL    HW2 1398   1.288   1.133   1.078 -1.3660  2.4500  2.0027
  467SOL     OW 1399   0.463   0.360   2.353 -0.2126  0.0386  0.4042
  467SOL    HW1 1400   0.444   0.444   2.410  1.1365 -0.6908 -1.1837
  467SOL    HW2 1401   0.452   0.270   2.408  1.0651 -1.2876  0.4352
  468SOL     OW 1402   0.460   2.270   1.660  0.1662 -0.5305  0.0688
  468SOL    HW1 1403   0.483   2.354   1.715  0.6605  0.0830 -1.2567
  468SOL    HW2 1404   0.438   2.294   1.560  0.9085  0.9400 -0.6647
  469SOL     OW 1405   1.523   1.347   1.131  0.7482 -0.2588 -0.2837
  469SOL    HW1 1406   1.608   1.284   1.133 -0.2378 -3.1255 -0.9967
  469SOL    HW2 1407   1.527   1.427   1.192 -1.6499 -0.6857 -4.0766
  470SOL     OW 1408   3.021   1.682   0.727  0.0559 -0.2932 -0.1177
  470SOL    HW1 1409   3.108   1.739   0.724  2.3615 -1.3829 -0.0839
  470SOL    HW2 1410   2.949   1.706   0.801 -4.4197  2.4215 -0.2247
  471SOL     OW 1411   2.656   1.308   2.126  0.7329 -0.5083 -0.0501
  471SOL    HW1 1412   2.642   1.254   2.212  1.5598  1.1314 -0.5004
  471SOL    HW2 1413   2.730   1.380   2.137  0.6684  0.7269  1.1181
  472SOL     OW 1414   1.103   2.440   3.067  0.1051  0.4643  0.3954
  472SOL    HW1 1415   1.147   2.443   3.159 -0.8331  1.9860 -0.3718
  472SOL    HW2 1416   1.049   2.352   3.054  0.4684 -1.5558  2.5758
  473SOL     OW 1417   1.109   1.556   0.908  0.1496  0.1889 -0.2007
  473SOL    HW1 1418   1.017   1.549   0.962 -2.6715  1.0551  0.9650
  473SOL    HW2 1419   1.189   1.544   0.974 -1.3061  1.4453 -1.6624
  474SOL     OW 1420   0.829   1.222   0.687 -0.0335  0.1996  0.8266
  474SOL    HW1 1421   0.795   1.229   0.589  1.0766 -1.7852  1.1693
  474SOL    HW2 1422   0.808   1.129   0.734 -0.0118  0.1006  2.3455
  475SOL     OW 1423   2.873   0.109   0.758  0.0288 -0.3869  0.1513
  475SOL    HW1 1424   2.961   0.104   0.816  2.1082 -1.7848  1.0134
  475SOL    HW2 1425   2.791   0.110   0.824  0.8916 -0.2699  0.8518
  476SOL     OW 1426   0.903   3.044   1.804 -0.2603  0.3265 -0.0186
  476SOL    HW1 1427   0.992   3.015   1.856  0.8010  1.9251  1.6240
  476SOL    HW2 1428   0.908   3.016   1.701 -1.3646 -1.5969  0.2707
  477SOL     OW 1429   1.421   0.320   2.447 -0.2489 -0.0402 -0.2995
  477SOL    HW1 1430   1.408   0.332   2.550 -1.1002 -1.4267  0.5986
  477SOL    HW2 1431   1.522   0.301   2.423 -0.2736  1.2883 -0.4120
  478SOL     OW 1432   2.260   1.795   0.218  0.1334  0.2399 -0.0173
  478SOL    HW1 1433   2.197   1.710   0.224 -1.6122 -0.9225 -0.6957
  478SOL    HW2 1434   2.359   1.768   0.228 -1.7298  1.8802  1.7884
  479SOL     OW 1435   1.315   1.035   2.875  0.0190  0.4546 -0.1593
  479SOL    HW1 1436   1.404   1.046   2.821  1.3439 -1.8970  2.8364
  479SOL    HW2 1437   1.223   1.057   2.824  2.2634  2.2710 -1.8429
  480SOL     OW 1438   2.480   2.327   0.387 -0.7722 -0.0070 -0.1371
  480SOL    HW1 1439   2.431   2.250   0.435  1.0327  2.1707  0.9631
  480SOL    HW2 1440   2.438   2.356   0.294 -0.7415  1.0165  0.5362
  481SOL     OW 1441   1.113   1.149   0.799  0.2886  0.2798 -0.2974
  481SOL    HW1 1442   1.041   1.208   0.754  0.2876 -1.0315 -1.8215
  481SOL    HW2 1443   1.150   1.191   0.887  2.0301 -1.9749  0.7660
  482SOL     OW 1444   1.607   0.336   2.052 -0.0873 -0.3168 -0.0711
  482SOL    HW1 1445   1.606   0.423   1.997 -1.3234 -0.6307  2.4589
  482SOL    HW2 1446   1.709   0.310   2.085  1.7151 -1.5237  0.1488
  483SOL     OW 1447   0.159   2.325   1.267 -0.0590 -0.6626  0.7124
  483SOL    HW1 1448   0.066   2.332   1.320 -1.5665  1.8607  0.2300
  483SOL    HW2 1449   0.152   2.370   1.172 -1.1057  0.3512 -1.3241
  484SOL     OW 1450   1.725   0.979   1.406  0.4355  0.3596 -0.1547
  484SOL    HW1 1451   1.811   0.922   1.404  0.0023  2.3908  3.7943
  484SOL    HW2 1452   1.741   1.080   1.413 -1.0523 -1.8744 -1.2847
  485SOL     OW 1453   0.683   1.101   1.783  0.0106  0.1094  0.2510
  485SOL    HW1 1454   0.698   1.090   1.676 -0.1463  0.8214 -0.5866
  485SOL    HW2 1455   0.766   1.136   1.833 -2.4290  0.4655  1.9381
  486SOL     OW 1456   0.940   1.988   2.449 -0.2091 -0.2539 -0.2523
  486SOL    HW1 1457   0.984   1.961   2.542  3.7199  0.7650 -1.4413
  486SOL    HW2 1458   0.842   2.027   2.464 -0.1256  3.4604 -1.4197
  487SOL     OW 1459   1.688   1.515   0.928  0.1753 -0.1963  0.0357
  487SOL    HW1 1460   1.683   1.419   0.888  0.1239  0.6759  3.7135
  487SOL    HW2 1461   1.763   1.578   0.894 -2.4799 -1.0526  3.3303
  488SOL     OW 1462   2.954   0.970   2.221  0.0984 -0.2095  0.2881
  488SOL    HW1 1463   2.975   0.905   2.145 -2.1965  1.2451  2.1087
  488SOL    HW2 1464   2.984   0.941   2.319  1.2692 -2.4289  1.7876
  489SOL     OW 1465   2.733   0.282   1.338  0.3169 -0.0840 -0.0277
  489SOL    HW1 1466   2.695   0.231   1.423  0.3797  2.7426  1.1596
  489SOL    HW2 1467   2.806   0.224   1.281  0.5218 -3.0754 -0.2389
  490SOL     OW 1468   1.427   2.974   2.825 -0.2627 -0.0742  0.3988
  490SOL    HW1 1469   1.474   2.884   2.803  0.4606  1.7390 -1.8399
  490SOL    HW2 1470   1.398   3.016   2.737 -0.8340 -4.5524  1.4817
  491SOL     OW 1471   1.856   1.559   2.716 -0.2265  0.6258 -0.0976
  491SOL    HW1 1472   1.805   1.575   2.806  2.3497 -1.4309  2.1887
  491SOL    HW2 1473   1.952   1.513   2.722  3.0176 -0.7894 -0.0058
  492SOL     OW 1474   0.485   2.020   0.768 -0.4450 -0.2125  0.1387
  492SOL    HW1 1475   0.532   2.017   0.862  0.4280 -2.3124  0.6829
  492SOL    HW2 1476   0.451   2.114   0.740  0.3166  2.7387  0.2255
  493SOL     OW 1477   0.418   1.381   2.066  0.2554 -0.5307  0.1442
  493SOL    HW1 1478   0.333   1.406   2.013 -0.6322 -3.1243 -2.1485
  493SOL    HW2 1479   0.392   1.319   2.148 -1.0300  0.4712  0.8199
  494SOL     OW 1480   2.651   2.680   0.155 -0.1761 -0.3619 -0.3743
  494SOL    HW1 1481   2.673   2.612   0.235 -0.7128 -0.9003  1.7701
  494SOL    HW2 1482   2.611   2.636   0.070  1.7009  0.0171 -0.3807
  495SOL     OW 1483   2.732   2.672   2.717 -0.0206 -0.2324 -0.8887
  495SOL    HW1 1484   2.751   2.572   2.706  0.0347  0.7570  2.2146
  495SOL    HW2 1485   2.749   2.720   2.623  1.5961 -0.8600 -1.7148
  496SOL     OW 1486   2.073   2.176   0.734  0.5819  0.3476  0.3990
  496SOL    HW1 1487   2.060   2.212   0.832 -1.6630 -0.7978  0.4545
  496SOL    HW2 1488   2.118   2.091   0.719  1.7004  1.0876  0.2020
  497SOL     OW 1489   0.208   2.970   2.396 -0.4129  0.0546  0.4511
  497SOL    HW1 1490   0.141   3.033   2.445  2.2522  2.9166  0.2699
  497SOL    HW2 1491   0.271   3.027   2.330 -0.6457  1.2522 -1.2761
  498SOL     OW 1492   1.238   1.456   1.136 -0.3011  0.1032 -0.1268
  498SOL    HW1 1493   1.334   1.481   1.164  2.0181  3.0011 -2.2693
  498SOL    HW2 1494   1.165   1.467   1.215 -1.3878  0.3680  0.9051
  499SOL     OW 1495   0.833   1.839   0.527  0.3510  0.5028  0.5684
  499SOL    HW1 1496   0.800   1.740   0.534 -1.5064 -2.7847 -0.1881
  499SOL    HW2 1497   0.848   1.884   0.621  0.1467  1.2197  0.9470
  500SOL     OW 1498   1.390   2.976   1.703 -0.2469 -0.1023  0.6127
  500SOL    HW1 1499   1.419   3.013   1.796  2.4794 -0.2016  1.0146
  500SOL    HW2 1500   1.434   2.884   1.684 -2.4573 -2.2036  2.2605
  501SOL     OW 1501   0.733   1.144   2.275 -0.5287 -0.0135 -0.0326
  501SOL    HW1 1502   0.661   1.072   2.254 -2.9868  2.6043 -2.8275
  501SOL    HW2 1503   0.814   1.134   2.214 -0.2609  1.6212 -0.9191
  502SOL     OW 1504   2.608   0.967   1.732  1.2160  0.1447  0.1688
  502SOL    HW1 1505   2.575   0.982   1.634  0.6097  3.5521 -1.6022
  502SOL    HW2 1506   2.571   0.878   1.769 -0.6790  1.9585  1.2055
  503SOL     OW 1507   1.351   0.195   0.596  0.7182  0.1434  0.3015
  503SOL    HW1 1508   1.277   0.263   0.607  1.8456  0.4815  1.9596
  503SOL    HW2 1509   1.441   0.245   0.607  0.4071  1.3542 -1.0512
  504SOL     OW 1510   2.997   2.343   1.391  0.1171  0.7740 -0.3015
  504SOL    HW1 1511   2.975   2.430   1.439  1.7024 -0.8225  0.0094
  504SOL    HW2 1512   2.912   2.275   1.399 -0.1014 -3.3430 -1.2269
  505SOL     OW 1513   2.281   1.198   1.457  0.1459  0.5862 -0.2060
  505SOL    HW1 1514   2.270   1.260   1.375  0.6558  0.8346  1.3762
  505SOL    HW2 1515   2.366   1.213   1.506  1.0728 -0.4232  1.3542
  506SOL     OW 1516   1.933   0.252   1.787 -0.8899 -0.3689  0.1684
  506SOL    HW1 1517   2.013   0.189   1.756 -3.6239 -0.2644  2.0402
  506SOL    HW2 1518   1.973   0.347   1.808 -1.0622  2.0754 -0.5804
  507SOL     OW 1519   0.498   0.641   2.178 -0.1052  0.3504  0.4928
  507SOL    HW1 1520   0.404   0.638   2.129  0.3542 -0.7182  0.6469
  507SOL    HW2 1521   0.553   0.557   2.148 -1.4792 -2.1542 -1.3736
  508SOL     OW 1522   0.272   1.671   0.885 -0.2852  0.3636 -0.3759
  508SOL    HW1 1523   0.318   1.746   0.831  0.2776 -0.0707  1.5118
  508SOL    HW2 1524   0.248   1.707   0.980  1.1445  0.8505  1.1681
  509SOL     OW 1525   1.327   1.189   2.491  0.3315 -0.1220  0.1289
  509SOL    HW1 1526   1.238   1.178   2.531  1.4221  2.4402  0.3438
  509SOL    HW2 1527   1.359   1.121   2.419 -4.1733 -1.1179  3.2013
  510SOL     OW 1528   1.336   1.976   2.047  0.4006  0.2581  0.3966
  510SOL    HW1 1529   1.284   2.045   1.998  3.1831 -3.6674  2.9111
  510SOL    HW2 1530   1.280   1.946   2.132  0.9469 -0.9438  1.4239
  511SOL     OW 1531   3.101   2.645   1.318  0.4418 -0.2685  0.6993
  511SOL    HW1 1532   3.068   2.594   1.231 -0.2597 -0.1876 -0.6237
  511SOL    HW2 1533   3.063   2.609   1.407 -0.7539  1.7220 -0.3962
  512SOL     OW 1534   2.431   0.428   1.378  0.2218  0.1743 -0.4450
  512SOL    HW1 1535   2.330   0.424   1.358 -0.6092  0.2339  0.2010
  512SOL    HW2 1536   2.483   0.448   1.288 -0.2179 -0.1360 -1.0956
  513SOL     OW 1537   2.461   1.994   0.859  0.3725  0.2344 -0.1206
  513SOL    HW1 1538   2.423   2.087   0.828 -0.3176 -0.0228  0.4304
  513SOL    HW2 1539   2.547   1.970   0.809 -0.8795 -0.0212 -1.0046
  514SOL     OW 1540   0.684   2.779   0.375 -0.0290 -0.0143 -0.1064
  514SOL    HW1 1541   0.645   2.842   0.300  2.2877  1.8477 -1.8441
  514SOL    HW2 1542   0.677   2.823   0.471  1.2331 -0.9258  2.2175
  515SOL     OW 1543   2.000   1.181   2.295 -0.3773  0.2113  0.1051
  515SOL    HW1 1544   1.954   1.167   2.203 -1.4449  1.6209  2.5743
  515SOL    HW2 1545   1.940   1.188   2.378  1.8644 -1.0761 -3.6401
  516SOL     OW 1546   0.269   0.282   1.959  0.7907  0.9100 -0.5306
  516SOL    HW1 1547   0.354   0.312   1.907 -0.8502 -0.2709  0.7821
  516SOL    HW2 1548   0.203   0.229   1.898  0.4491 -1.2599 -0.2926
  517SOL     OW 1549   0.355   3.056   1.172 -0.3002  0.1160  0.7675
  517SOL    HW1 1550   0.391   3.151   1.207  0.9307  1.4931  0.5484
  517SOL    HW2 1551   0.267   3.022   1.214 -2.4414 -2.1064 -1.2022
  518SOL     OW 1552   2.146   0.071   1.788 -0.4501  0.8785 -0.2767
  518SOL    HW1 1553   2.232   0.098   1.836 -1.3085  1.0339 -0.6763
  518SOL    HW2 1554   2.155  -0.021   1.739 -1.7934  2.1750  0.1355
  519SOL     OW 1555   2.404   2.196   2.590 -0.0590 -0.2689  0.0619
  519SOL    HW1 1556   2.308   2.180   2.633  0.5254 -2.5971  0.0737
  519SOL    HW2 1557   2.464   2.270   2.631  3.8798 -2.1485 -2.1444
  520SOL     OW 1558   1.782   2.889   1.809 -0.0914  0.3141 -0.0844
  520SOL    HW1 1559   1.713   2.886   1.885 -0.3508  1.2995  2.0631
  520SOL    HW2 1560   1.818   2.794   1.782  1.1793 -2.2976  0.1722
  521SOL     OW 1561   0.570   0.097   2.103 -0.2100  0.5278 -0.4023
  521SOL    HW1 1562   0.469   0.084   2.137 -2.6568  1.0095 -1.0374
  521SOL    HW2 1563   0.644   0.059   2.169  0.8967 -0.9629 -0.5222
  522SOL     OW 1564   0.156   1.905   1.512  0.2590  0.1069  0.3866
  522SOL    HW1 1565   0.207   1.955   1.591 -0.5415  0.8723 -0.3757
  522SOL    HW2 1566   0.135   1.966   1.427  2.0001 -1.1158 -0.9440
  523SOL     OW 1567   2.193   2.920   1.611 -0.7474  0.2762  0.0970
  523SOL    HW1 1568   2.261   2.862   1.557  2.0404  0.0829 -1.3374
  523SOL    HW2 1569   2.103   2.936   1.566  0.5259 -1.2170 -2.0286
  524SOL     OW 1570   0.215   2.747   2.820  0.4816 -0.4037  0.4008
  524SOL    HW1 1571   0.159   2.823   2.870  1.4564 -0.0278  1.3747
  524SOL    HW2 1572   0.322   2.752   2.827  2.5609 -1.4677 -0.1762
  525SOL     OW 1573   2.187   1.906   0.475 -0.1956 -0.0627 -0.8625
  525SOL    HW1 1574   2.173   1.839   0.555  1.4363 -1.6579 -1.0889
  525SOL    HW2 1575   2.195   1.861   0.379  1.2021  2.0387  1.3779
  526SOL     OW 1576   0.409   1.496   1.604 -0.7995 -0.2550 -0.0204
  526SOL    HW1 1577   0.343   1.477   1.683 -0.1978  2.3729  1.3548
  526SOL    HW2 1578   0.481   1.418   1.590  0.4102 -0.0660  0.5002
  527SOL     OW 1579   1.131   2.914   1.231 -0.0448  0.2896 -0.4728
  527SOL    HW1 1580   1.221   2.878   1.278  0.5495  0.0164 -0.3483
  527SOL    HW2 1581   1.125   3.017   1.237 -1.8853 -0.2035 -0.8512
  528SOL     OW 1582   1.335   2.400   0.479 -0.2390 -0.6257 -0.7445
  528SOL    HW1 1583   1.363   2.303   0.508 -0.9633 -1.8634  1.9913
  528SOL    HW2 1584   1.388   2.473   0.535 -0.3285 -0.5012 -2.5386
  529SOL     OW 1585   1.876   1.698   0.835 -0.2201  0.4471 -0.4928
  529SOL    HW1 1586   1.839   1.715   0.738 -3.6136  0.6225 -0.5317
  529SOL    HW2 1587   1.881   1.787   0.885 -1.1149 -2.4166 -0.4225
  530SOL     OW 1588   0.281   2.425   0.332 -0.3787  0.3392 -0.1931
  530SOL    HW1 1589   0.278   2.506   0.392 -2.1786 -0.7821  0.5840
  530SOL    HW2 1590   0.363   2.358   0.351  5.2907  3.1990  0.1815
  531SOL     OW 1591   1.809   0.901   1.042 -0.0715 -0.9790  0.0576
  531SOL    HW1 1592   1.834   0.856   0.957 -1.4495  1.5728  4.0710
  531SOL    HW2 1593   1.710   0.929   1.033 -0.4230 -2.8330  2.9487
  532SOL     OW 1594   0.485   1.049   0.748  0.4566  0.6369 -0.1624
  532SOL    HW1 1595   0.501   1.027   0.646 -0.2253 -0.7024  0.0513
  532SOL    HW2 1596   0.410   0.988   0.782  2.6493  1.4873 -0.3465
  533SOL     OW 1597   1.770   0.035   2.568  0.1813  0.1942  0.1268
  533SOL    HW1 1598   1.867   0.000   2.591  0.0769  0.2021 -2.7611
  533SOL    HW2 1599   1.721   0.086   2.645  0.4220 -0.3290 -2.0013
  534SOL     OW 1600   0.410   0.197   1.545  0.5323 -0.2334 -0.2096
  534SOL    HW1 1601   0.499   0.199   1.592  0.1137 -1.1079 -1.4201
  534SOL    HW2 1602   0.369   0.290   1.528 -0.9526 -0.7580 -0.6479
  535SOL     OW 1603   1.938   0.375   0.179 -0.3394  0.2893 -0.2566
  535SOL    HW1 1604   1.966   0.473   0.198  0.4447  0.7039  2.8349
  535SOL    HW2 1605   1.933   0.307   0.259 -0.5197 -2.6700  0.3165
  536SOL     OW 1606   1.392   2.625   0.955 -0.3973 -0.0555 -0.1098
  536SOL    HW1 1607   1.351   2.599   1.048  4.4536  0.7713 -0.0310
  536SOL    HW2 1608   1.314   2.638   0.882 -0.0712  0.1838  1.0518
  537SOL     OW 1609   0.840   0.274   2.406  0.1207 -0.0781 -0.4412
  537SOL    HW1 1610   0.914   0.308   2.339  0.1679 -0.6383  2.1211
  537SOL    HW2 1611   0.799   0.181   2.371  3.5703 -1.8654 -0.1013
  538SOL     OW 1612   1.639   2.306   1.338 -0.3207  0.1793 -0.1747
  538SOL    HW1 1613   1.643   2.203   1.353  0.0310  1.0890 -1.5250
  538SOL    HW2 1614   1.729   2.356   1.357 -3.1312  1.6213  1.4670
  539SOL     OW 1615   0.147   1.636   2.699 -0.5201 -0.2085  0.1391
  539SOL    HW1 1616   0.072   1.601   2.635  1.8255 -0.7870 -0.1097
  539SOL    HW2 1617   0.127   1.733   2.727 -2.1497 -0.9912 -0.6727
  540SOL     OW 1618   2.677   1.705   1.933  0.2296 -0.8182 -0.0919
  540SOL    HW1 1619   2.621   1.628   1.977 -0.9033  2.2969  0.2834
  540SOL    HW2 1620   2.629   1.797   1.928  0.8560 -0.6588 -0.0460
  541SOL     OW 1621   0.572   2.161   0.036 -0.2650  0.0488 -0.3612
  541SOL    HW1 1622   0.583   2.137   0.137  0.5840 -0.3397  0.2694
  541SOL    HW2 1623   0.474   2.159   0.008 -0.5547 -0.6210  0.3181
  542SOL     OW 1624   2.231   2.606   0.478  0.0535  0.0618  0.5698
  542SOL    HW1 1625   2.151   2.668   0.455 -0.2101 -0.0878  1.1196
  542SOL    HW2 1626   2.212   2.502   0.473  2.0583 -1.3872 -0.8323
  543SOL     OW 1627   1.060   1.812   1.568  0.2442  0.0203  0.1239
  543SOL    HW1 1628   1.069   1.860   1.656  0.1444  0.1566 -1.7973
  543SOL    HW2 1629   0.998   1.864   1.494 -0.2354  1.3867 -1.4927
  544SOL     OW 1630   1.109   0.516   0.179  0.0636  0.0348 -0.0995
  544SOL    HW1 1631   1.089   0.422   0.228  0.6975 -1.8234  3.8211
  544SOL    HW2 1632   1.150   0.503   0.083  1.0001  0.8780 -0.3861
  545SOL     OW 1633   1.087   1.814   0.787  0.2367  0.2208  0.2893
  545SOL    HW1 1634   1.166   1.853   0.730 -1.6225  1.2476 -0.9094
  545SOL    HW2 1635   1.098   1.715   0.821 -0.6165 -0.3435 -0.8936
  546SOL     OW 1636   2.683   1.558   3.004 -0.3030  0.5678 -0.5313
  546SOL    HW1 1637   2.647   1.644   2.957  1.4675 -2.3348 -0.6870
  546SOL    HW2 1638   2.614   1.491   3.034  3.2922 -0.2036  0.9109
  547SOL     OW 1639   0.633   3.035   2.528  0.3252  0.9406 -0.7142
  547SOL    HW1 1640   0.696   3.010   2.611 -0.3385  1.2620  0.9775
  547SOL    HW2 1641   0.561   2.965   2.521  0.0903  4.3536  0.0567
  548SOL     OW 1642   2.050   0.802   3.065  0.3978 -0.2363  0.3740
  548SOL    HW1 1643   1.949   0.779   3.059 -0.2304 -1.6656  1.6178
  548SOL    HW2 1644   2.074   0.899   3.093  0.7958  0.6094  1.2193
  549SOL     OW 1645   0.680   0.580   0.204  0.6737  0.4270  0.1445
  549SOL    HW1 1646   0.620   0.598   0.123  1.1982 -1.6086  0.3640
  549SOL    HW2 1647   0.745   0.659   0.222 -3.2674 -3.1127  2.5226
  550SOL     OW 1648   2.568   2.825   2.884  0.0401  0.3220 -0.0827
  550SOL    HW1 1649   2.510   2.752   2.933  0.6443  1.9958 -0.5379
  550SOL    HW2 1650   2.635   2.788   2.811  1.6771  1.9393  0.3037
  551SOL     OW 1651   0.225   0.895   0.258  0.0856 -0.3615 -0.2394
  551SOL    HW1 1652   0.326   0.901   0.230  0.0763  2.3881  2.5131
  551SOL    HW2 1653   0.213   0.882   0.360  3.5385  1.6794  0.9446
  552SOL     OW 1654   0.635   2.989   1.928 -0.9223  0.5350  0.8607
  552SOL    HW1 1655   0.617   3.067   1.994 -1.8709  1.2700  0.3228
  552SOL    HW2 1656   0.728   2.993   1.884 -1.9121  1.1024  4.5960
  553SOL     OW 1657   2.929   2.409   0.326  0.4593  0.2737  0.1471
  553SOL    HW1 1658   2.907   2.310   0.358 -1.3093 -1.4924 -1.1834
  553SOL    HW2 1659   2.845   2.465   0.320  1.8627 -4.9319  1.2148
  554SOL     OW 1660   2.116   0.353   0.473  0.4332  0.1875  0.2285
  554SOL    HW1 1661   2.182   0.357   0.394  1.8885 -0.7093 -0.4133
  554SOL    HW2 1662   2.149   0.290   0.546 -1.5982  2.4871 -0.3063
  555SOL     OW 1663   0.438   2.847   2.499  0.5521 -0.5046 -0.3650
  555SOL    HW1 1664   0.341   2.894   2.479 -2.9643  2.4433 -1.5825
  555SOL    HW2 1665   0.463   2.795   2.412  0.5044  0.6262  0.7823
  556SOL     OW 1666   0.853   2.425   1.596 -0.0929  0.5738  0.2010
  556SOL    HW1 1667   0.891   2.508   1.656  1.1522  2.1008  1.7901
  556SOL    HW2 1668   0.932   2.389   1.539  0.2213  0.0587 -0.2628
  557SOL     OW 1669   0.176   2.046   0.239  0.4988  0.5176 -0.1225
  557SOL    HW1 1670   0.112   1.996   0.173  1.4656  2.2872  2.0667
  557SOL    HW2 1671   0.248   2.098   0.190 -1.4025  0.2655  1.4651
  558SOL     OW 1672   2.767   2.171   0.423  0.5618 -0.1206  0.0465
  558SOL    HW1 1673   2.684   2.231   0.449  1.9425  2.3027 -0.4000
  558SOL    HW2 1674   2.748   2.088   0.355  1.6318 -3.0360 -2.7153
  559SOL     OW 1675   0.399   2.339   1.396 -0.7676  0.0044  0.4419
  559SOL    HW1 1676   0.322   2.366   1.333  0.3670  3.1745 -0.9770
  559SOL    HW2 1677   0.471   2.276   1.346 -0.2053 -1.3640 -1.0898
  560SOL     OW 1678   2.137   1.075   3.074  0.1244 -0.4135 -0.1350
  560SOL    HW1 1679   2.181   1.088   3.166 -1.4694 -2.6211 -1.2119
  560SOL    HW2 1680   2.185   1.100   2.987 -0.8674 -0.8671 -1.8794
  561SOL     OW 1681   0.028   1.873   0.068  0.1573  0.3477  0.8181
  561SOL    HW1 1682   0.007   1.842   0.165  0.5168 -1.9224  0.4593
  561SOL    HW2 1683  -0.034   1.953   0.041  1.2409  1.0378 -2.6293
  562SOL     OW 1684   1.104   2.116   2.297  0.0489 -0.7952  0.2909
  562SOL    HW1 1685   1.065   2.213   2.296  1.8844 -3.0262  0.8637
  562SOL    HW2 1686   1.037   2.055   2.339  1.4962 -0.0678 -0.1964
  563SOL     OW 1687   0.693   2.522   2.640 -0.1318  0.0167  0.4648
  563SOL    HW1 1688   0.774   2.480   2.591 -1.0444 -0.8755 -1.3947
  563SOL    HW2 1689   0.715   2.572   2.731  0.1857  0.0295  1.6133
  564SOL     OW 1690   2.917   1.387   2.887 -0.0998 -0.1378 -0.2813
  564SOL    HW1 1691   2.852   1.463   2.876 -0.6703 -2.1907  0.3946
  564SOL    HW2 1692   3.006   1.423   2.932  1.1640  0.8855  1.3305
  565SOL     OW 1693   2.506   1.940   2.654  0.1934 -0.2484  0.0511
  565SOL    HW1 1694   2.473   2.026   2.610  2.8358  1.0440 -1.1576
  565SOL    HW2 1695   2.588   1.962   2.712 -1.3925  1.2909  0.7230
  566SOL     OW 1696   1.963   2.895   1.471  0.4310 -0.2232 -0.2696
  566SOL    HW1 1697   1.925   2.811   1.521 -1.8919 -0.0430  0.7012
  566SOL    HW2 1698   2.030   2.874   1.393 -0.6816  1.3198 -0.7576
  567SOL     OW 1699   2.438   0.011   2.328 -0.3556  0.2849 -0.3707
  567SOL    HW1 1700   2.335   0.025   2.320 -1.6376  0.8017 -0.0621
  567SOL    HW2 1701   2.489   0.081   2.269 -1.6989  2.5070 -0.5198
  568SOL     OW 1702   1.510   1.752   0.323 -0.4385 -0.2283 -0.0914
  568SOL    HW1 1703   1.453   1.833   0.292 -1.7651  0.5381  0.1606
  568SOL    HW2 1704   1.611   1.765   0.305  0.7484 -0.7616 -0.1493
  569SOL     OW 1705   0.237   0.623   0.899  0.0861 -0.3508  0.0997
  569SOL    HW1 1706   0.300   0.580   0.824  0.8023 -0.8437 -3.2078
  569SOL    HW2 1707   0.137   0.593   0.878  1.2058 -0.8872  0.7501
  570SOL     OW 1708   0.600   0.849   2.923 -0.1103  0.1105  0.4729
  570SOL    HW1 1709   0.686   0.829   2.863 -0.2928 -0.1833 -1.6121
  570SOL    HW2 1710   0.610   0.931   2.985  0.3061 -1.5384  0.3671
  571SOL     OW 1711   0.803   3.088   1.114 -0.2263 -0.6542 -0.1301
  571SOL    HW1 1712   0.844   3.102   1.021 -2.6518  0.2462 -1.7234
  571SOL    HW2 1713   0.805   2.992   1.145 -2.3444 -1.2506  0.2624
  572SOL     OW 1714   1.632   2.701   1.412 -0.3881 -0.0748 -0.0134
  572SOL    HW1 1715   1.578   2.629   1.368 -0.6921  0.4651  2.7303
  572SOL    HW2 1716   1.659   2.773   1.340  1.2663  0.7408 -2.0748
  573SOL     OW 1717   0.033   0.477   1.995  0.6557  0.0944 -0.8668
  573SOL    HW1 1718   0.007   0.388   2.036  2.8792  3.5494 -0.9512
  573SOL    HW2 1719   0.078   0.470   1.898  2.1800  1.3488 -0.2464
  574SOL     OW 1720   0.144   1.721   1.135 -0.2847 -0.8845  0.1062
  574SOL    HW1 1721   0.205   1.720   1.218  1.3964  0.1062 -0.9466
  574SOL    HW2 1722   0.105   1.813   1.116  0.4450 -0.3090 -1.3340
  575SOL     OW 1723   0.874   2.192   0.951  0.5325  0.2799  0.2260
  575SOL    HW1 1724   0.841   2.245   1.037  1.5142  0.2208  1.4591
  575SOL    HW2 1725   0.919   2.255   0.887 -1.8076 -0.6983 -1.1088
  576SOL     OW 1726   2.914   2.994   1.709 -0.4699 -0.3768  0.3240
  576SOL    HW1 1727   2.824   2.974   1.669  3.0527  0.2962 -1.6343
  576SOL    HW2 1728   2.934   3.093   1.696  1.4230  0.5879 -0.8517
  577SOL     OW 1729   2.671   1.224   0.000 -0.0242 -0.5533 -0.2986
  577SOL    HW1 1730   2.663   1.146  -0.065 -1.9788  1.5294 -0.7685
  577SOL    HW2 1731   2.734   1.197   0.077 -1.1842  0.9738 -3.1842
  578SOL     OW 1732   1.451   2.764   2.542  0.6970 -0.4965  0.2760
  578SOL    HW1 1733   1.368   2.817   2.507 -0.8256 -1.0584 -0.0979
  578SOL    HW2 1734   1.539   2.807   2.510 -1.6572  0.0997  2.5932
  579SOL     OW 1735   0.066   2.442   0.186  0.2317 -0.5369  0.1091
  579SOL    HW1 1736  -0.021   2.431   0.240  0.6522 -3.5764 -1.0301
  579SOL    HW2 1737   0.152   2.457   0.245  0.0157 -1.5738  1.5130
  580SOL     OW 1738   0.946   2.649   0.406 -0.6428  0.3463  0.2566
  580SOL    HW1 1739   1.044   2.671   0.368 -0.0873  1.7821 -1.6821
  580SOL    HW2 1740   0.868   2.668   0.341  0.8916  3.4894  2.9180
  581SOL     OW 1741   1.279   2.703   1.442 -0.2492  0.2196  0.1703
  581SOL    HW1 1742   1.317   2.620   1.491 -0.8848 -1.9536  0.6008
  581SOL    HW2 1743   1.350   2.780   1.416  0.9516  1.9958 -0.8190
  582SOL     OW 1744   1.489   0.085   1.931  0.2060  0.1124 -0.1168
  582SOL    HW1 1745   1.488   0.161   1.998 -0.5953  2.5113  0.0027
  582SOL    HW2 1746   1.575   0.092   1.869 -0.5367 -2.3169 -1.2303
  583SOL     OW 1747   2.455   3.078   0.551  0.3395 -0.0386  0.3321
  583SOL    HW1 1748   2.524   3.017   0.501  0.6819  1.6385  0.9538
  583SOL    HW2 1749   2.372   3.023   0.585  1.8537 -1.1464  0.7612
  584SOL     OW 1750   1.595   1.131   2.325  0.2270 -0.2519 -0.1174
  584SOL    HW1 1751   1.645   1.208   2.286  1.3638 -1.2636 -0.1296
  584SOL    HW2 1752   1.644   1.049   2.357  2.2129 -0.7360 -0.1904
  585SOL     OW 1753   2.062   2.660   2.886 -0.0115  0.3082 -0.0537
  585SOL    HW1 1754   2.083   2.568   2.840  1.9707 -2.8354 -0.2976
  585SOL    HW2 1755   1.962   2.679   2.886  1.2706 -0.6838  2.1586
  586SOL     OW 1756   2.909   0.397   1.540  0.4114 -0.1110  0.8020
  586SOL    HW1 1757   2.884   0.482   1.597 -1.6218 -0.6157 -0.3714
  586SOL    HW2 1758   2.839   0.383   1.463 -3.7788  0.0190 -1.8483
  587SOL     OW 1759   2.121   1.472   2.691  0.1127  0.5968  0.1930
  587SOL    HW1 1760   2.135   1.394   2.621 -2.2592  0.8503 -2.5304
  587SOL    HW2 1761   2.211   1.522   2.706  1.3157 -1.1628  0.1712
  588SOL     OW 1762   0.532   2.696   2.299 -0.6874 -0.5666 -0.5873
  588SOL    HW1 1763   0.491   2.681   2.208  2.4137  1.4988  2.9372
  588SOL    HW2 1764   0.526   2.610   2.359 -0.5107 -2.0450  0.2420
  589SOL     OW 1765   2.181   1.297   2.493  0.0309 -0.2308 -0.3525
  589SOL    HW1 1766   2.137   1.253   2.410 -1.2556 -0.7965 -3.0757
  589SOL    HW2 1767   2.282   1.291   2.498 -0.9558 -0.7264 -0.7635
  590SOL     OW 1768   2.339   1.724   2.068 -0.4544 -0.4870 -0.4306
  590SOL    HW1 1769   2.391   1.635   2.057  1.0241 -0.0745  2.6461
  590SOL    HW2 1770   2.311   1.751   2.166  0.5980 -3.7344  2.0748
  591SOL     OW 1771   1.229   2.377   0.214  0.4515  0.1353 -0.1995
  591SOL    HW1 1772   1.267   2.296   0.152  0.0355  0.1322 -1.6139
  591SOL    HW2 1773   1.259   2.367   0.309 -1.7029 -0.6627 -2.9956
  592SOL     OW 1774   1.796   2.340   0.797  0.2438  0.0380 -0.3385
  592SOL    HW1 1775   1.796   2.378   0.703  0.6971  1.5804  2.8334
  592SOL    HW2 1776   1.892   2.333   0.842  1.0544  0.8010  0.7758
  593SOL     OW 1777   0.739   0.328   0.252  0.6459 -0.2158  0.2842
  593SOL    HW1 1778   0.760   0.290   0.161  0.0958  1.6133  0.8825
  593SOL    HW2 1779   0.712   0.429   0.247  1.7893 -0.0377 -1.7848
  594SOL     OW 1780   1.061   1.840   2.680 -0.1794 -0.9028 -0.6569
  594SOL    HW1 1781   1.149   1.800   2.648  0.0992 -0.6336 -0.1319
  594SOL    HW2 1782   1.078   1.868   2.781  0.9595  1.1500 -0.9559
  595SOL     OW 1783   1.505   0.092   0.979 -0.0870  0.2568 -0.3745
  595SOL    HW1 1784   1.579   0.024   0.963  0.8988  2.2737 -0.2746
  595SOL    HW2 1785   1.414   0.081   0.929 -0.2968  1.0932  1.7231
  596SOL     OW 1786   0.074   1.476   2.272  0.7254  0.0921 -1.1623
  596SOL    HW1 1787   0.019   1.389   2.296 -3.5657  1.4529  2.6447
  596SOL    HW2 1788   0.134   1.504   2.348 -0.2402  0.5670 -0.3347
  597SOL     OW 1789   1.985   2.675   1.810  0.7493 -0.2025  0.0263
  597SOL    HW1 1790   1.948   2.651   1.711  1.8966  2.0850  0.8891
  597SOL    HW2 1791   2.085   2.663   1.820 -2.9659 -1.0278 -1.0108
  598SOL     OW 1792   2.526   2.862   1.230  0.0006 -0.0175  0.2889
  598SOL    HW1 1793   2.573   2.931   1.292  0.5926  2.3223 -1.6061
  598SOL    HW2 1794   2.571   2.860   1.138  1.1011 -3.6990 -0.5156
  599SOL     OW 1795   2.805   0.261   2.507  0.6365 -0.3938  0.6818
  599SOL    HW1 1796   2.870   0.250   2.426 -1.4804  0.1222 -0.8241
  599SOL    HW2 1797   2.738   0.343   2.491  0.4914 -1.8953 -3.4901
  600SOL     OW 1798   2.805   1.176   2.743 -0.3918 -0.3658  0.2607
  600SOL    HW1 1799   2.718   1.140   2.784 -0.5931 -2.4610  1.1867
  600SOL    HW2 1800   2.846   1.251   2.804  1.0735 -2.6513 -0.9409
  601SOL     OW 1801   2.984   1.316   2.017 -1.1188  0.4818 -0.0455
  601SOL    HW1 1802   2.923   1.341   1.940  2.2628 -1.5692  0.6090
  601SOL    HW2 1803   3.071   1.375   2.022  0.0116 -0.4082 -2.6356
  602SOL     OW 1804   1.496   1.562   2.275  0.6551 -0.2755 -0.0731
  602SOL    HW1 1805   1.409   1.561   2.332 -1.9827 -0.2405  0.2821
  602SOL    HW2 1806   1.576   1.577   2.339  1.2289  0.5696 -1.4516
  603SOL     OW 1807   0.654   1.186   2.705 -0.6318  0.1074 -0.0536
  603SOL    HW1 1808   0.559   1.189   2.668 -0.1951  1.2748 -1.8938
  603SOL    HW2 1809   0.710   1.109   2.665  2.2924  1.2898  0.9933
  604SOL     OW 1810   2.483   0.992   0.210  0.4222  0.3696  0.3111
  604SOL    HW1 1811   2.547   1.075   0.193  1.1815  0.0780  1.9947
  604SOL    HW2 1812   2.496   0.920   0.137  0.9451 -0.0982  0.4427
  605SOL     OW 1813   2.532   1.117   1.981  0.3331 -0.0257 -0.0708
  605SOL    HW1 1814   2.547   1.084   1.885 -0.7309  0.6139 -0.3661
  605SOL    HW2 1815   2.576   1.206   1.997  0.2649 -1.9400  1.4908
  606SOL     OW 1816   1.511   2.503   2.565  0.0243 -0.1773  0.1491
  606SOL    HW1 1817   1.475   2.603   2.554 -0.3276  0.2286  1.1480
  606SOL    HW2 1818   1.453   2.433   2.520 -0.4439 -0.7948  3.9196
  607SOL     OW 1819   1.300   1.591   0.229 -0.5093 -0.5316 -0.4956
  607SOL    HW1 1820   1.216   1.632   0.272 -0.2342 -2.9098 -1.4192
  607SOL    HW2 1821   1.389   1.634   0.271 -0.0172  2.0637  0.9957
  608SOL     OW 1822   1.416   2.864   0.389 -0.6988 -0.1355  0.1106
  608SOL    HW1 1823   1.454   2.876   0.294  0.0387  0.8030 -0.2651
  608SOL    HW2 1824   1.357   2.942   0.423  2.5572  0.8510 -1.0566
  609SOL     OW 1825   1.345   1.332   0.150 -0.0296  0.1810  0.4890
  609SOL    HW1 1826   1.358   1.435   0.184  0.5512  0.9135  0.8109
  609SOL    HW2 1827   1.282   1.327   0.069 -0.2114  0.3414 -1.8583
  610SOL     OW 1828   3.026   1.224   2.262 -0.3863 -0.2334 -0.3442
  610SOL    HW1 1829   3.003   1.121   2.261 -2.9195 -0.0924 -1.0219
  610SOL    HW2 1830   2.981   1.270   2.178 -1.6515 -0.1263  2.1528
  611SOL     OW 1831   2.514   0.254   1.152  0.8508  0.1509 -0.5968
  611SOL    HW1 1832   2.440   0.188   1.173 -1.8836  0.6343 -1.2885
  611SOL    HW2 1833   2.584   0.259   1.225 -0.6042  1.1375  0.5789
  612SOL     OW 1834   0.798   2.322   1.173  0.2693  0.4213  0.5931
  612SOL    HW1 1835   0.718   2.266   1.208 -2.7367 -0.5054 -1.7781
  612SOL    HW2 1836   0.777   2.425   1.169  2.0283 -0.1874  2.8158
  613SOL     OW 1837   0.808   1.392   2.369 -0.4388  0.1673 -0.9888
  613SOL    HW1 1838   0.832   1.470   2.300  3.5319  1.4483 -0.6418
  613SOL    HW2 1839   0.760   1.309   2.322 -0.2185 -2.5874 -0.7863
  614SOL     OW 1840   1.565   1.679   1.828 -0.3460 -0.4006  0.3795
  614SOL    HW1 1841   1.503   1.752   1.784 -2.1396  2.2695 -0.1400
  614SOL    HW2 1842   1.625   1.716   1.906  3.2696 -2.0995  0.4202
  615SOL     OW 1843   0.736   1.402   1.726 -0.6530 -0.0552 -0.1223
  615SOL    HW1 1844   0.671   1.357   1.656 -1.2802  2.2980  2.5089
  615SOL    HW2 1845   0.794   1.476   1.684  1.5318  0.6311 -2.4228
  616SOL     OW 1846   1.111   1.558   2.175  0.6733  0.2703  0.8783
  616SOL    HW1 1847   1.012   1.584   2.168  1.3269 -0.3728  0.8101
  616SOL    HW2 1848   1.166   1.572   2.086  0.1887 -1.1580 -1.3558
  617SOL     OW 1849   3.031   1.548   1.647  0.4747 -0.2786 -0.5175
  617SOL    HW1 1850   2.978   1.475   1.700  0.6313  0.6787  0.7144
  617SOL    HW2 1851   3.085   1.514   1.569 -1.7694 -2.3949  1.4581
  618SOL     OW 1852   1.966   1.967   1.453  0.1521  0.2826  0.4834
  618SOL    HW1 1853   2.049   1.951   1.395 -2.2598  1.2568  0.3571
  618SOL    HW2 1854   1.941   1.887   1.508 -0.3472  0.0152 -0.6607
  619SOL     OW 1855   1.717   0.517   2.343 -0.0501  0.4632 -0.0698
  619SOL    HW1 1856   1.641   0.566   2.288  0.2740  0.0523  1.1448
  619SOL    HW2 1857   1.714   0.414   2.315  0.8170 -1.5544 -2.3731
  620SOL     OW 1858   2.258   2.933   0.633 -0.0034 -0.1290  0.3944
  620SOL    HW1 1859   2.167   2.985   0.637  0.3651 -0.2628  0.4419
  620SOL    HW2 1860   2.288   2.894   0.723  0.5429 -0.6554  0.1293
  621SOL     OW 1861   2.217   1.895   1.354 -0.8273  0.1445 -0.0525
  621SOL    HW1 1862   2.221   1.899   1.456 -0.0527 -1.1731  1.0131
  621SOL    HW2 1863   2.204   1.799   1.315 -1.7785  1.1100 -0.2794
  622SOL     OW 1864   2.219   0.929   1.829 -0.4088  0.6192  0.1600
  622SOL    HW1 1865   2.306   0.874   1.839 -1.9104 -0.1189  2.8640
  622SOL    HW2 1866   2.150   0.928   1.910  0.8294  2.9055  1.1835
  623SOL     OW 1867   1.300   0.822   2.575 -0.5594  0.2506  0.1116
  623SOL    HW1 1868   1.262   0.785   2.660  1.7757  1.5960  0.2895
  623SOL    HW2 1869   1.233   0.832   2.502  0.8294  1.1526  1.5537
  624SOL     OW 1870   0.527   0.701   0.026  0.1644  0.4823 -0.1657
  624SOL    HW1 1871   0.549   0.768  -0.054 -3.8506  1.4515  4.3909
  624SOL    HW2 1872   0.521   0.752   0.124 -0.7965  2.5134 -1.4361
  625SOL     OW 1873   2.728   1.694   0.876  0.0640  0.2564 -0.3801
  625SOL    HW1 1874   2.693   1.730   0.965  1.5251 -1.8369 -0.8007
  625SOL    HW2 1875   2.746   1.594   0.877  1.6574  0.6326  0.2150
  626SOL     OW 1876   0.493   2.730   1.974 -0.1505 -0.2736  0.8856
  626SOL    HW1 1877   0.565   2.808   1.972  0.2719  2.0131 -0.3495
  626SOL    HW2 1878   0.408   2.757   1.919 -0.0665  0.4189  0.1482
  627SOL     OW 1879   0.748   1.079   1.510  0.0640  0.0235  0.3671
  627SOL    HW1 1880   0.757   0.977   1.512  1.8968 -2.9161 -4.4767
  627SOL    HW2 1881   0.816   1.122   1.447 -2.8224 -0.7479 -0.5407
  628SOL     OW 1882   2.426   0.178   0.723  0.1377 -0.1813  0.0155
  628SOL    HW1 1883   2.447   0.096   0.660  1.5905  0.4100  2.0984
  628SOL    HW2 1884   2.324   0.199   0.722 -2.5087  2.4181  2.4346
  629SOL     OW 1885   1.975   0.947   1.985  0.5650  0.0592  0.3621
  629SOL    HW1 1886   2.049   0.955   2.057  0.6446  2.2926  1.2438
  629SOL    HW2 1887   1.928   1.037   1.978  2.6884 -1.2646  2.3241
  630SOL     OW 1888   2.812   2.193   0.764  0.2660  0.7891 -0.2331
  630SOL    HW1 1889   2.735   2.225   0.826  0.6911 -2.4727 -0.5076
  630SOL    HW2 1890   2.789   2.090   0.737  2.0658 -4.5067 -2.0660
  631SOL     OW 1891   3.028   0.234   2.121  0.1638  0.4687  0.4473
  631SOL    HW1 1892   3.074   0.260   2.207 -0.2351 -3.0477 -1.1292
  631SOL    HW2 1893   3.090   0.175   2.060  0.1546  2.3101  0.2755
  632SOL     OW 1894   2.327   2.567   0.757  0.2829  0.1374  0.2743
  632SOL    HW1 1895   2.431   2.581   0.769  3.3822  3.1949 -3.4571
  632SOL    HW2 1896   2.302   2.590   0.661  1.2247 -0.4041  0.9608
  633SOL     OW 1897   1.592   1.295   2.615 -0.0809  0.1297  1.0389
  633SOL    HW1 1898   1.574   1.371   2.682  1.1654  1.1282 -0.3900
  633SOL    HW2 1899   1.511   1.256   2.564 -0.8587 -0.5503  3.9087
  634SOL     OW 1900   0.626   2.071   0.996 -0.0825  0.1744 -0.4866
  634SOL    HW1 1901   0.547   2.138   1.025 -2.1328 -1.7363 -0.1458
  634SOL    HW2 1902   0.705   2.115   0.947 -5.5076  2.1111  0.5453
  635SOL     OW 1903   0.060   2.245   3.087  0.3834 -0.3997 -0.3300
  635SOL    HW1 1904   0.029   2.312   3.014 -1.1451 -2.7407 -0.2226
  635SOL    HW2 1905   0.079   2.286   3.178 -2.7622  0.9217 -1.9411
  636SOL     OW 1906   2.311   2.842   2.018  0.1406  0.1545  0.2183
  636SOL    HW1 1907   2.281   2.935   2.048  0.4131 -2.9580  1.0569
  636SOL    HW2 1908   2.292   2.778   2.093 -0.1735 -1.5472 -0.9464
  637SOL     OW 1909   2.568   0.738   2.051  0.9687  0.1503 -0.0613
  637SOL    HW1 1910   2.529   0.736   1.955  1.1358 -0.8553  0.4778
  637SOL    HW2 1911   2.633   0.822   2.061  0.3775  0.5278  2.0633
  638SOL     OW 1912   2.499   1.874   1.365  0.2893  0.3816  0.3418
  638SOL    HW1 1913   2.395   1.872   1.357 -2.3753 -1.7859 -0.0974
  638SOL    HW2 1914   2.546   1.790   1.386  0.3651  0.8906  0.0514
  639SOL     OW 1915   1.294   2.247   1.595  0.0422 -0.0082 -0.8356
  639SOL    HW1 1916   1.314   2.161   1.538  0.6683  1.5571 -0.8359
  639SOL    HW2 1917   1.211   2.228   1.659  0.2062 -0.0161  0.7964
  640SOL     OW 1918   0.210   1.237   1.528 -0.0371  0.4267 -0.2860
  640SOL    HW1 1919   0.206   1.290   1.617  2.1046  2.8351 -2.6908
  640SOL    HW2 1920   0.289   1.177   1.522  1.1075  3.9723  0.6624
  641SOL     OW 1921   1.956   0.205   1.450  0.0769 -0.0994  0.0084
  641SOL    HW1 1922   1.875   0.274   1.465 -1.4788  2.0606  1.3986
  641SOL    HW2 1923   1.945   0.119   1.505  1.1505  2.2111 -1.9325
  642SOL     OW 1924   1.993   0.093   0.315 -0.0014 -0.1192 -0.3455
  642SOL    HW1 1925   2.096   0.062   0.329  1.0345  0.1651  1.6261
  642SOL    HW2 1926   1.932   0.075   0.396 -0.7377  0.3437 -0.9700
  643SOL     OW 1927   2.840   1.857   2.110  0.0747 -0.7881  0.3810
  643SOL    HW1 1928   2.774   1.787   2.072  0.9449 -0.9853  0.5645
  643SOL    HW2 1929   2.846   1.933   2.039  2.8092 -0.0764 -0.2528
  644SOL     OW 1930   2.179   2.286   1.231 -0.6599 -0.2631 -0.3527
  644SOL    HW1 1931   2.247   2.207   1.240  2.4763  1.5542  2.0379
  644SOL    HW2 1932   2.175   2.346   1.320 -3.1241 -0.1883  3.1381
  645SOL     OW 1933   0.600   0.855   1.171  0.3263  0.8938  0.0735
  645SOL    HW1 1934   0.580   0.762   1.130  0.6457 -0.3070  0.1488
  645SOL    HW2 1935   0.632   0.934   1.110 -1.1124  4.4146  1.2965
  646SOL     OW 1936   1.480   1.966   1.781 -0.4354 -0.2274 -0.6549
  646SOL    HW1 1937   1.567   2.026   1.802 -0.9159  2.2821  1.2369
  646SOL    HW2 1938   1.409   1.973   1.856 -1.7842 -0.6644 -2.0200
  647SOL     OW 1939   0.878   0.918   0.659 -0.6668 -0.4568  0.1478
  647SOL    HW1 1940   0.969   0.888   0.703  0.8772 -2.1275  0.3849
  647SOL    HW2 1941   0.800   0.862   0.708 -0.9103 -1.7194 -0.6842
  648SOL     OW 1942   0.210   0.219   0.320 -0.0414  0.2496 -0.2737
  648SOL    HW1 1943   0.216   0.133   0.257  0.5473 -2.0125  2.8092
  648SOL    HW2 1944   0.173   0.306   0.273  1.1932 -1.8823  2.3449
  649SOL     OW 1945   3.090   0.086   0.933 -0.0548 -0.8412 -0.1552
  649SOL    HW1 1946   3.193   0.082   0.903  2.4747 -1.7694 -1.7612
  649SOL    HW2 1947   3.071   0.125   1.030 -1.3665 -0.4951 -0.3180
  650SOL     OW 1948   2.725   0.718   1.431 -0.3251 -0.0616 -0.2714
  650SOL    HW1 1949   2.638   0.688   1.474  2.9876 -0.0129 -3.3038
  650SOL    HW2 1950   2.722   0.803   1.374 -0.8310 -1.1027  1.8191
  651SOL     OW 1951   0.915   1.585   1.597  0.3173  0.2939 -0.2674
  651SOL    HW1 1952   0.979   1.661   1.627  2.5341  0.3464  0.9212
  651SOL    HW2 1953   0.849   1.614   1.517 -2.2008 -0.2352 -1.9334
  652SOL     OW 1954   2.288   2.531   2.369  0.5950 -0.0626  0.3380
  652SOL    HW1 1955   2.210   2.505   2.435  2.3606 -0.3033  0.0497
  652SOL    HW2 1956   2.249   2.596   2.296 -2.1683  1.6353 -1.0482
  653SOL     OW 1957   2.704   1.181   0.278  0.3148 -0.0924  0.0097
  653SOL    HW1 1958   2.769   1.259   0.295 -0.1495 -2.7732  1.0517
  653SOL    HW2 1959   2.725   1.098   0.339 -1.0729  0.0088  0.9667
  654SOL     OW 1960   1.216   2.275   1.219 -0.7309 -0.4846 -0.1053
  654SOL    HW1 1961   1.242   2.196   1.282  2.2548 -1.0074 -2.0546
  654SOL    HW2 1962   1.258   2.269   1.122 -1.5753  1.7421  2.5118
  655SOL     OW 1963   0.243   1.070   1.846  0.0934 -0.0560 -0.3163
  655SOL    HW1 1964   0.281   0.993   1.795  2.4146  3.3929  1.0096
  655SOL    HW2 1965   0.310   1.151   1.847 -2.6717 -0.1450 -0.8259
  656SOL     OW 1966   2.498   2.470   2.565 -0.0533 -0.3564  0.2747
  656SOL    HW1 1967   2.601   2.493   2.558  1.5067 -0.6113  0.6696
  656SOL    HW2 1968   2.448   2.484   2.475 -2.2599  2.6473 -1.2096
  657SOL     OW 1969   3.054   1.104   1.847  0.3683 -0.3337 -0.2862
  657SOL    HW1 1970   3.024   1.165   1.928 -1.1886  3.0212 -1.0175
  657SOL    HW2 1971   3.156   1.112   1.829 -0.1708  1.7883 -0.0338
  658SOL     OW 1972   1.654   0.214   2.368  0.3078  0.5507  0.3848
  658SOL    HW1 1973   1.699   0.154   2.437  1.7476 -1.9642 -0.6496
  658SOL    HW2 1974   1.713   0.207   2.278  2.2233  1.6292 -0.0893
  659SOL     OW 1975   1.402   0.567   2.868  0.0492 -0.0844  0.0025
  659SOL    HW1 1976   1.459   0.639   2.918  0.0185  0.5384  0.6146
  659SOL    HW2 1977   1.323   0.613   2.813  0.4992  1.5793 -2.7272
  660SOL     OW 1978   1.418   0.398   1.381  0.0691  0.0038 -0.7158
  660SOL    HW1 1979   1.454   0.409   1.480 -0.1744 -1.5958  2.8108
  660SOL    HW2 1980   1.469   0.330   1.321  0.0049  0.9883 -0.7323
  661SOL     OW 1981   2.471   1.160   0.672 -0.5285  0.2545  0.4108
  661SOL    HW1 1982   2.481   1.092   0.595  1.1570 -0.1171  0.7249
  661SOL    HW2 1983   2.465   1.257   0.633 -1.1132  1.4762  0.2723
  662SOL     OW 1984   1.297   0.434   1.818 -0.3962  0.0716 -0.1006
  662SOL    HW1 1985   1.283   0.335   1.802  0.8906  1.8093 -0.2287
  662SOL    HW2 1986   1.241   0.460   1.901 -1.4169 -0.8891 -1.2267
  663SOL     OW 1987   0.839   1.591   2.172 -0.3982  0.0461  0.4421
  663SOL    HW1 1988   0.803   1.676   2.212  2.3253  0.5242 -0.6906
  663SOL    HW2 1989   0.775   1.554   2.099 -1.1998 -1.0738  1.3285
  664SOL     OW 1990   1.676   2.029   1.392 -0.2280  0.2960  0.0928
  664SOL    HW1 1991   1.595   1.987   1.442 -0.6066 -0.0065  0.2010
  664SOL    HW2 1992   1.766   1.986   1.419  0.1901  1.6112 -1.7216
  665SOL     OW 1993   2.277   0.631   1.984  0.7439  0.0783  0.2419
  665SOL    HW1 1994   2.282   0.539   2.032  1.1431  0.4009 -1.0604
  665SOL    HW2 1995   2.200   0.689   2.023  0.8371  2.1910 -3.0875
  666SOL     OW 1996   0.500   2.298   0.450  0.3135 -0.1688  0.4612
  666SOL    HW1 1997   0.553   2.392   0.460  2.5652  2.0975  0.4050
  666SOL    HW2 1998   0.447   2.275   0.534  0.4593 -1.8410 -0.3874
  667SOL     OW 1999   2.085   0.281   0.988 -0.0517 -0.0096 -0.3560
  667SOL    HW1 2000   2.138   0.366   1.020  1.2604 -1.1773 -0.2172
  667SOL    HW2 2001   2.013   0.259   1.057  0.5512 -0.6611 -0.4133
  668SOL     OW 2002   1.990   0.478   1.207 -0.1874  0.0714 -0.0087
  668SOL    HW1 2003   2.045   0.527   1.129  0.7528 -2.9123  0.3049
  668SOL    HW2 2004   2.029   0.486   1.301  0.9234 -0.1488  0.0530
  669SOL     OW 2005   3.006   2.073   0.917  0.4764 -0.4101  0.5779
  669SOL    HW1 2006   2.967   2.110   0.823 -1.9201  0.9199 -2.1851
  669SOL    HW2 2007   2.951   2.115   1.000 -2.9872  1.4867  1.6897
  670SOL     OW 2008   2.812   2.364   2.004 -0.4344 -0.0498  0.0683
  670SOL    HW1 2009   2.739   2.330   2.067  1.3210 -1.0349 -1.5489
  670SOL    HW2 2010   2.789   2.465   1.976 -1.6046  2.2195  1.2244
  671SOL     OW 2011   1.733   1.632   1.447 -0.4332  0.2510  0.0764
  671SOL    HW1 2012   1.723   1.699   1.365 -2.2014 -0.3207  2.6423
  671SOL    HW2 2013   1.688   1.546   1.419  0.0398  1.3423 -1.1594
  672SOL     OW 2014   0.415   0.687   2.432 -0.0643  0.2187 -0.4725
  672SOL    HW1 2015   0.442   0.667   2.336 -1.2615  0.9445  1.3493
  672SOL    HW2 2016   0.318   0.735   2.434  0.1637  1.2078 -0.8328
  673SOL     OW 2017   0.175   1.204   1.128 -0.7027  0.0783 -0.1733
  673SOL    HW1 2018   0.199   1.301   1.140 -1.1157  0.9515 -0.2195
  673SOL    HW2 2019   0.257   1.148   1.102 -0.4744  0.8886 -2.3955
  674SOL     OW 2020   1.529   2.843   0.134  0.3686 -0.0505 -0.2534
  674SOL    HW1 2021   1.577   2.930   0.110  0.7225  1.1543 -1.5658
  674SOL    HW2 2022   1.597   2.765   0.155 -1.6082 -2.2799  0.5564
  675SOL     OW 2023   1.714   0.810   2.343  0.4153  0.0349 -0.4444
  675SOL    HW1 2024   1.807   0.788   2.297 -0.6656  0.7603  2.6891
  675SOL    HW2 2025   1.638   0.751   2.306  1.5098  3.0706 -0.6524
  676SOL     OW 2026   2.490   1.505   2.002  0.0318  0.1600  0.6715
  676SOL    HW1 2027   2.454   1.476   1.905  0.7264 -0.3341 -0.4206
  676SOL    HW2 2028   2.551   1.432   2.050  4.9779 -0.4282  2.2182
  677SOL     OW 2029   1.803   0.529   0.955  0.4068 -0.2393 -0.5944
  677SOL    HW1 2030   1.855   0.488   1.036  0.1456 -1.6308 -0.0550
  677SOL    HW2 2031   1.717   0.471   0.931 -0.1892  1.6619 -1.3713
  678SOL     OW 2032   0.091   0.794   1.686  0.8377  0.3177 -0.1082
  678SOL    HW1 2033   0.175   0.832   1.732 -0.1128  2.4937  0.4539
  678SOL    HW2 2034   0.003   0.813   1.741 -2.0681 -1.1865 -0.2877
  679SOL     OW 2035   2.547   1.180   1.113  0.4198 -0.2695  1.0210
  679SOL    HW1 2036   2.454   1.190   1.160 -1.5922 -0.4270  0.0341
  679SOL    HW2 2037   2.552   1.094   1.051  0.7468 -1.4886 -1.7143
  680SOL     OW 2038   2.841   0.645   1.668  0.0960  0.2568  0.3850
  680SOL    HW1 2039   2.795   0.680   1.578  0.3987  0.9997  0.2366
  680SOL    HW2 2040   2.889   0.723   1.719  1.2156 -0.4139  0.5472
  681SOL     OW 2041   3.025   0.171   1.647  0.5039 -0.1465  0.3876
  681SOL    HW1 2042   3.101   0.138   1.581  0.7679 -1.6171  0.0605
  681SOL    HW2 2043   2.980   0.258   1.617  1.6254 -0.9256  0.1469
  682SOL     OW 2044   0.734   0.070   1.379 -0.8016 -0.0124 -0.0433
  682SOL    HW1 2045   0.653   0.001   1.397 -0.4498  0.8572  1.0024
  682SOL    HW2 2046   0.788   0.048   1.294  0.5125  1.0758  1.8282
  683SOL     OW 2047   1.384   0.229   2.184 -0.6273  0.0549 -0.3040
  683SOL    HW1 2048   1.350   0.265   2.273  2.7360  2.6538  0.6551
  683SOL    HW2 2049   1.467   0.286   2.150  2.1125 -0.3408  1.7656
  684SOL     OW 2050   1.430   2.128   0.492 -0.7371 -0.4053 -0.1134
  684SOL    HW1 2051   1.503   2.051   0.501  0.7343  0.3148  0.4097
  684SOL    HW2 2052   1.340   2.096   0.450  0.1388 -1.4432  0.1363
  685SOL     OW 2053   2.141   1.880   1.950 -0.7308  0.4495  0.5402
  685SOL    HW1 2054   2.194   1.942   1.886 -0.2503 -2.8019  0.9798
  685SOL    HW2 2055   2.199   1.803   1.981 -0.1330  1.9417 -0.8171
  686SOL     OW 2056   1.569   1.777   2.761 -0.2624  0.9546  0.6075
  686SOL    HW1 2057   1.618   1.707   2.705 -0.1886  1.6871  1.8755
  686SOL    HW2 2058   1.597   1.763   2.862 -0.7378  0.9441 -2.2440
  687SOL     OW 2059   1.336   2.525   1.925  0.0114 -0.2944 -0.0664
  687SOL    HW1 2060   1.384   2.450   1.872 -0.9348  0.7194 -0.9832
  687SOL    HW2 2061   1.389   2.546   2.006 -2.9350 -0.6197 -1.8751
  688SOL     OW 2062   2.086   1.413   1.630 -0.0692  1.0385 -0.3164
  688SOL    HW1 2063   2.182   1.425   1.586  1.5447 -0.6471  0.2867
  688SOL    HW2 2064   2.025   1.356   1.571  0.0444  0.5720 -0.2809
  689SOL     OW 2065   2.458   1.108   2.763  0.1098 -0.3975  0.3411
  689SOL    HW1 2066   2.363   1.069   2.776 -0.2567  0.2466 -0.2990
  689SOL    HW2 2067   2.526   1.067   2.831 -0.1846  1.6571 -2.4459
  690SOL     OW 2068   2.202   2.787   3.090 -0.4317 -0.9852 -0.0858
  690SOL    HW1 2069   2.125   2.733   3.046 -1.4347  1.3634  0.1818
  690SOL    HW2 2070   2.190   2.834   3.188  2.2884  2.8412  0.4168
  691SOL     OW 2071   2.551   0.492   2.176 -0.1350  0.1354 -0.2778
  691SOL    HW1 2072   2.608   0.420   2.125  0.5969  1.2726  0.7642
  691SOL    HW2 2073   2.576   0.590   2.140  4.1152  0.8262  3.0333
  692SOL     OW 2074   2.737   1.216   0.686  0.0556  0.5496 -0.1936
  692SOL    HW1 2075   2.633   1.226   0.698 -2.5463  0.5706 -2.8314
  692SOL    HW2 2076   2.795   1.293   0.726  0.8486 -1.2876 -1.8218
  693SOL     OW 2077   2.869   2.965   0.580 -0.3127 -0.2093 -0.2242
  693SOL    HW1 2078   2.871   3.053   0.641  2.5985  0.5604 -0.0537
  693SOL    HW2 2079   2.775   2.948   0.527 -0.3733 -0.8084 -2.8462
  694SOL     OW 2080   2.379   2.157   0.063  0.4109 -0.7467  0.1185
  694SOL    HW1 2081   2.358   2.251   0.103  1.8581 -1.0201  0.9567
  694SOL    HW2 2082   2.293   2.097   0.029 -4.6447 -1.9735 -2.4990
  695SOL     OW 2083   0.538   2.984   1.485  0.1503 -0.5864  0.1998
  695SOL    HW1 2084   0.500   2.889   1.484  1.4448  0.2560 -0.7178
  695SOL    HW2 2085   0.497   3.044   1.561  1.5609  0.7342  0.2582
  696SOL     OW 2086   2.709   1.935   0.706  0.0376  0.5295 -0.0948
  696SOL    HW1 2087   2.714   1.844   0.756 -2.3458 -0.1394 -0.7533
  696SOL    HW2 2088   2.712   1.923   0.603 -0.3893  2.5908 -3.9307
  697SOL     OW 2089   1.718   2.128   1.757 -0.1023  0.5317 -0.0150
  697SOL    HW1 2090   1.780   2.043   1.760 -3.7122  0.8376  2.7017
  697SOL    HW2 2091   1.777   2.210   1.773 -0.9739 -1.0632  1.3604
  698SOL     OW 2092   2.935   0.354   2.742  0.1014 -0.5293  0.2767
  698SOL    HW1 2093   2.886   0.327   2.653 -0.9989 -0.2449  0.3910
  698SOL    HW2 2094   3.017   0.304   2.767 -3.6516  1.2904 -0.6437
  699SOL     OW 2095   1.573   0.080   2.923  0.1436  0.2973  0.1903
  699SOL    HW1 2096   1.515   0.002   2.878 -2.4610  2.6413  0.7225
  699SOL    HW2 2097   1.604   0.145   2.844  1.5608 -0.1141 -0.0374
  700SOL     OW 2098   1.034   2.376   1.376 -0.6646  0.2382  0.3647
  700SOL    HW1 2099   1.114   2.336   1.328 -1.8420 -0.2400 -1.9978
  700SOL    HW2 2100   0.947   2.340   1.331  1.6818  0.8242  0.7313
  701SOL     OW 2101   1.841   2.813   0.026 -0.6261 -0.4537  0.2265
  701SOL    HW1 2102   1.888   2.727   0.069  1.9093 -1.0428 -0.3898
  701SOL    HW2 2103   1.889   2.898   0.056  2.6940 -1.9584  0.0019
  702SOL     OW 2104   2.076   1.402   1.913 -0.2257  0.0223 -0.2215
  702SOL    HW1 2105   2.162   1.343   1.917  2.7320  0.7454  1.5254
  702SOL    HW2 2106   2.045   1.424   1.815 -2.8773  0.0695  2.2402
  703SOL     OW 2107   1.964   0.835   1.453  0.4041  0.4181  0.7242
  703SOL    HW1 2108   1.951   0.734   1.488 -0.0470 -1.9846  1.2403
  703SOL    HW2 2109   2.024   0.897   1.513  0.6855  0.1286  2.3005
  704SOL     OW 2110   0.330   2.029   1.725  0.6386 -0.0160  0.7884
  704SOL    HW1 2111   0.375   1.957   1.791  0.6571 -4.1272  2.1644
  704SOL    HW2 2112   0.392   2.108   1.701  0.8977  0.8672 -0.6561
  705SOL     OW 2113   2.545   1.406   0.869  0.3221 -0.1069 -0.1827
  705SOL    HW1 2114   2.445   1.388   0.844  1.3954  3.1125  2.2481
  705SOL    HW2 2115   2.583   1.346   0.950  0.4786 -0.9777  0.4751
  706SOL     OW 2116   0.673   1.758   1.873 -0.4616 -0.5614  0.1879
  706SOL    HW1 2117   0.707   1.664   1.904  0.5798  2.4067 -0.8314
  706SOL    HW2 2118   0.741   1.839   1.901 -0.8735  2.5534  2.9251
  707SOL     OW 2119   2.274   1.216   1.891  0.2037  0.0436  0.9986
  707SOL    HW1 2120   2.365   1.182   1.934  0.3970 -0.0646  1.9940
  707SOL    HW2 2121   2.217   1.140   1.855  1.4298  2.4930  1.1838
  708SOL     OW 2122   3.082   0.465   3.031 -0.0985  0.0102  0.4003
  708SOL    HW1 2123   3.102   0.526   2.947  1.1717 -1.9026 -2.9335
  708SOL    HW2 2124   3.020   0.386   2.999 -1.3531  2.6531 -1.8747
  709SOL     OW 2125   1.820   1.850   0.296 -0.2830  0.7225 -0.0626
  709SOL    HW1 2126   1.860   1.944   0.333  2.0707  2.0407  0.1486
  709SOL    HW2 2127   1.834   1.843   0.197 -1.3771 -1.4792  1.1411
  710SOL     OW 2128   1.741   1.640   2.464  0.3382 -0.5787  0.1471
  710SOL    HW1 2129   1.784   1.607   2.376 -0.8372  1.4362 -0.5333
  710SOL    HW2 2130   1.798   1.613   2.549  1.1315  1.5184 -3.2798
  711SOL     OW 2131   2.622   2.931   0.972 -0.2519  0.2024 -0.1784
  711SOL    HW1 2132   2.591   3.031   0.974 -1.2930 -2.9270  2.7698
  711SOL    HW2 2133   2.724   2.922   0.980 -3.2155  3.0025  3.6458
  712SOL     OW 2134   1.505   2.311   1.795 -0.3347 -0.4950  0.4811
  712SOL    HW1 2135   1.581   2.245   1.775  1.7024  2.6849  1.5212
  712SOL    HW2 2136   1.445   2.321   1.710 -0.5652 -2.7289 -2.1823
  713SOL     OW 2137   2.818   1.413   2.491  0.7590 -0.0164  0.3039
  713SOL    HW1 2138   2.858   1.314   2.482 -1.8393 -3.8986  1.3447
  713SOL    HW2 2139   2.716   1.408   2.510  0.9698 -0.0265  0.3941
  714SOL     OW 2140   2.633   0.470   2.468  0.1757  0.3278  0.4136
  714SOL    HW1 2141   2.562   0.427   2.533 -1.1714  1.5296 -2.0033
  714SOL    HW2 2142   2.595   0.473   2.371  2.4821  1.4785  0.8820
  715SOL     OW 2143   1.575   2.093   1.137  0.4212  0.0806  0.3781
  715SOL    HW1 2144   1.560   2.195   1.128 -0.2176 -1.6619 -2.3677
  715SOL    HW2 2145   1.596   2.059   1.234 -1.5136 -2.3062  0.9083
  716SOL     OW 2146   1.235   0.195   1.482 -0.2510 -0.1532 -0.4497
  716SOL    HW1 2147   1.135   0.221   1.460 -0.0730 -0.1597 -2.8220
  716SOL    HW2 2148   1.301   0.273   1.469 -0.0555 -1.6230 -0.3964
  717SOL     OW 2149   1.087   0.616   1.612  0.1240  0.3453 -0.0386
  717SOL    HW1 2150   1.189   0.615   1.623  1.5339 -2.3510 -0.2106
  717SOL    HW2 2151   1.056   0.613   1.514  1.2139  0.5656 -0.3138
  718SOL     OW 2152   0.620   1.077   0.981 -0.4257 -0.1504 -0.5649
  718SOL    HW1 2153   0.586   1.068   0.887  0.6405 -1.0928 -0.8603
  718SOL    HW2 2154   0.698   1.142   0.991 -0.8962 -0.3238 -1.8853
  719SOL     OW 2155   0.800   1.873   2.232 -0.0389 -0.4178 -0.1039
  719SOL    HW1 2156   0.868   1.901   2.306 -0.4350 -2.5947  1.9319
  719SOL    HW2 2157   0.706   1.875   2.260  1.1699 -0.0751  3.3720
  720SOL     OW 2158   2.217   1.097   0.232 -0.0484  0.4381 -0.0574
  720SOL    HW1 2159   2.305   1.037   0.238  2.5330  1.5577  1.8852
  720SOL    HW2 2160   2.163   1.090   0.323  0.4414  2.6155  1.4466
  721SOL     OW 2161   2.248   0.033   2.063 -0.7556  0.8058  0.9425
  721SOL    HW1 2162   2.308   0.112   2.033 -0.5662 -0.9063  0.5580
  721SOL    HW2 2163   2.154   0.061   2.091 -0.6372  2.9211  0.2053
  722SOL     OW 2164   2.372   1.650   0.506 -0.5327 -0.4852  0.0193
  722SOL    HW1 2165   2.371   1.617   0.405 -1.8281  3.8746 -2.7691
  722SOL    HW2 2166   2.290   1.624   0.561  1.2308 -2.2417 -0.4449
  723SOL     OW 2167   2.565   2.841   1.930  0.6738  0.1223 -0.5678
  723SOL    HW1 2168   2.623   2.870   2.013  1.5309 -0.3243  1.6561
  723SOL    HW2 2169   2.461   2.841   1.954  3.3397 -2.1355 -1.2197
  724SOL     OW 2170   0.436   2.429   2.425 -0.7637 -0.1666 -0.8295
  724SOL    HW1 2171   0.335   2.440   2.414  0.1045 -0.9417  0.9560
  724SOL    HW2 2172   0.453   2.448   2.528 -0.7122  0.3111  0.3520
  725SOL     OW 2173   2.346   2.763   1.426 -1.0231 -0.0333 -0.4686
  725SOL    HW1 2174   2.406   2.789   1.351  0.6369  0.3625  2.6087
  725SOL    HW2 2175   2.341   2.662   1.435 -1.0922 -1.1519  2.6126
  726SOL     OW 2176   2.390   2.268   0.715 -0.0096 -0.0613  0.2919
  726SOL    HW1 2177   2.295   2.307   0.709 -1.0837 -0.4060  0.5976
  726SOL    HW2 2178   2.415   2.220   0.626 -0.4185  2.5543  1.5524
  727SOL     OW 2179   0.218   0.020   0.125  0.3315  0.5155 -0.0033
  727SOL    HW1 2180   0.249  -0.072   0.089 -3.2963  1.0185  0.6705
  727SOL    HW2 2181   0.244   0.102   0.065 -0.3217  0.9112  0.2257
  728SOL     OW 2182   2.755   0.696   1.017  0.0563  0.3879  0.6433
  728SOL    HW1 2183   2.701   0.673   0.934  3.1852  0.2649  2.4486
  728SOL    HW2 2184   2.781   0.610   1.069 -2.0303 -1.9254 -0.6704
  729SOL     OW 2185   2.903   2.462   0.704  0.1770 -0.2554  0.1465
  729SOL    HW1 2186   2.878   2.365   0.704  3.4591  0.2403  2.1049
  729SOL    HW2 2187   3.003   2.484   0.704 -0.6681  0.9263  1.6011
  730SOL     OW 2188   2.578   0.627   0.819  0.1810  0.2654 -0.0664
  730SOL    HW1 2189   2.520   0.701   0.772  1.6132  0.9856  4.3521
  730SOL    HW2 2190   2.663   0.592   0.765 -0.9702 -0.0756  0.5362
  731SOL     OW 2191   0.022   2.119   2.471  0.0343 -0.2020 -0.0343
  731SOL    HW1 2192   0.052   2.123   2.570 -0.0552  3.2221 -5.2947
  731SOL    HW2 2193   0.060   2.204   2.424  1.5704  0.0136 -0.5125
  732SOL     OW 2194   1.124   2.878   1.962  0.3599 -0.9178  0.1920
  732SOL    HW1 2195   1.139   2.831   2.053 -0.0432 -1.2941  0.8855
  732SOL    HW2 2196   1.147   2.819   1.879  1.2483 -0.5859  0.3145
  733SOL     OW 2197   3.070   0.757   2.047  0.1904 -0.2103  0.4574
  733SOL    HW1 2198   3.161   0.809   2.071  3.0196 -0.4613  1.1210
  733SOL    HW2 2199   3.091   0.662   2.014  2.0182  1.6919 -0.2490
  734SOL     OW 2200   1.401   0.349   2.716 -0.3610  0.4206 -0.4187
  734SOL    HW1 2201   1.397   0.446   2.750  1.6959 -0.9077  0.4090
  734SOL    HW2 2202   1.313   0.295   2.746 -0.4136 -0.6750  2.4225
  735SOL     OW 2203   2.864   2.601   2.271  0.0585  0.1098  0.0052
  735SOL    HW1 2204   2.798   2.632   2.198 -0.0898 -1.0450 -1.7629
  735SOL    HW2 2205   2.956   2.579   2.233 -1.5647  0.9167  3.1879
  736SOL     OW 2206   0.801   0.413   2.671  0.1497  0.1010 -0.1838
  736SOL    HW1 2207   0.732   0.490   2.660  0.8614 -1.3012 -0.8728
  736SOL    HW2 2208   0.808   0.364   2.585  1.2212  2.7856  1.0733
  737SOL     OW 2209   2.675   0.480   2.844  0.1512 -0.2420 -0.8687
  737SOL    HW1 2210   2.674   0.472   2.946  2.0803  0.0808  1.5368
  737SOL    HW2 2211   2.766   0.446   2.807  1.5683 -0.7774 -2.4589
  738SOL     OW 2212   1.640   1.220   3.006  0.4030  0.2599  0.4834
  738SOL    HW1 2213   1.733   1.180   2.986 -3.4910 -2.9717  0.6499
  738SOL    HW2 2214   1.566   1.156   2.973  0.6352  0.0575  0.3834
  739SOL     OW 2215   1.797   0.648   0.698 -0.4300 -0.4640  0.4215
  739SOL    HW1 2216   1.795   0.616   0.796 -0.1402 -1.3085 -1.9523
  739SOL    HW2 2217   1.825   0.575   0.630  0.6330  0.4060  0.4115
  740SOL     OW 2218   1.972   1.884   2.168  0.0037  0.8438 -0.3171
  740SOL    HW1 2219   2.039   1.896   2.093  0.1009 -0.1000  1.7840
  740SOL    HW2 2220   1.888   1.826   2.144 -0.5528  0.4895 -1.0396
  741SOL     OW 2221   2.476   0.093   2.586  0.0764  0.7340 -0.1201
  741SOL    HW1 2222   2.571   0.056   2.607 -2.0946  1.5005 -0.1735
  741SOL    HW2 2223   2.440   0.060   2.492 -1.6175  0.0334 -0.8108
  742SOL     OW 2224   2.242   1.377   0.113 -0.1125  0.0098  0.2221
  742SOL    HW1 2225   2.168   1.446   0.096  0.9458 -2.3132 -2.2587
  742SOL    HW2 2226   2.223   1.316   0.192  1.0470 -0.2119  0.7341
  743SOL     OW 2227   1.744   0.585   2.628 -0.0634  0.0683 -0.2391
  743SOL    HW1 2228   1.742   0.560   2.526  0.0606 -0.3624 -0.4011
  743SOL    HW2 2229   1.659   0.636   2.648  1.0748 -1.4210  0.2080
  744SOL     OW 2230   2.646   2.101   0.039 -0.6265  0.0220  0.1089
  744SOL    HW1 2231   2.540   2.116   0.060 -1.5507  2.7725 -0.6826
  744SOL    HW2 2232   2.704   2.078   0.121  0.7381 -2.0669  0.3883
  745SOL     OW 2233   2.168   2.706   2.214  0.2502  0.1622  0.0607
  745SOL    HW1 2234   2.080   2.672   2.169 -0.5560  0.6750  1.6686
  745SOL    HW2 2235   2.153   2.780   2.285  0.0715 -1.0849 -2.6281
  746SOL     OW 2236   3.078   2.587   1.811 -0.1527 -0.2760  0.1691
  746SOL    HW1 2237   3.181   2.575   1.788  2.9285  1.6129  3.1323
  746SOL    HW2 2238   3.048   2.688   1.827 -1.3296  0.6920 -1.1129
  747SOL     OW 2239   3.063   1.822   1.687 -0.2278  0.1198  0.5314
  747SOL    HW1 2240   3.058   1.718   1.676 -0.3926 -0.1299 -1.0440
  747SOL    HW2 2241   3.136   1.861   1.623 -0.2958 -1.4001  1.0129
  748SOL     OW 2242   1.774   2.737   2.894 -0.3399  1.1186 -0.6118
  748SOL    HW1 2243   1.796   2.792   2.978  2.6414 -1.4890  1.9884
  748SOL    HW2 2244   1.673   2.718   2.882 -1.8430 -0.3918  0.7709
  749SOL     OW 2245   1.280   0.052   0.840 -0.2854  0.3900 -0.2400
  749SOL    HW1 2246   1.222  -0.040   0.841  0.8244 -1.1485  3.8501
  749SOL    HW2 2247   1.311   0.078   0.742 -0.6413  0.9972 -2.0113
  750SOL     OW 2248   2.357   0.220   1.872  0.7781 -0.1088  0.7274
  750SOL    HW1 2249   2.403   0.267   1.794 -0.3092 -1.3006  0.5819
  750SOL    HW2 2250   2.324   0.285   1.951  2.4579 -2.7704 -0.1047
  751SOL     OW 2251   0.822   2.218   2.802 -0.0596  0.2859  0.1232
  751SOL    HW1 2252   0.881   2.215   2.889 -0.8814  0.5375  1.0357
  751SOL    HW2 2253   0.743   2.145   2.807 -0.3723 -1.3167  1.5569
  752SOL     OW 2254   1.244   0.903   1.585  0.1503  0.1605  0.0205
  752SOL    HW1 2255   1.294   0.950   1.509 -1.3907  0.2870 -0.3014
  752SOL    HW2 2256   1.285   0.810   1.606 -1.5854  1.0234  1.0477
  753SOL     OW 2257   0.943   2.617   1.774  0.1137  0.4256  0.0244
  753SOL    HW1 2258   1.027   2.662   1.737 -1.1535 -1.7988  0.2538
  753SOL    HW2 2259   0.855   2.674   1.763 -1.2448 -2.6169 -0.8305
  754SOL     OW 2260   1.156   1.270   3.059 -0.7766 -0.1193 -0.0615
  754SOL    HW1 2261   1.181   1.183   3.003 -0.6893  0.2780 -0.4966
  754SOL    HW2 2262   1.163   1.361   3.012  1.4420 -0.6130  2.1755
  755SOL     OW 2263   1.984   0.483   2.213  0.8322  0.2058  0.5816
  755SOL    HW1 2264   2.054   0.430   2.265  0.9396  1.5284 -2.3952
  755SOL    HW2 2265   1.894   0.495   2.266 -0.6775  0.0375  0.2850
  756SOL     OW 2266   2.630   1.016   2.940 -0.2838  0.0910 -0.2460
  756SOL    HW1 2267   2.718   0.960   2.934  2.3405  2.0599  0.4341
  756SOL    HW2 2268   2.565   0.964   2.995  3.3846 -0.7012 -1.3395
  757SOL     OW 2269   0.138   0.520   1.737  0.3434  0.1078 -0.7286
  757SOL    HW1 2270   0.121   0.620   1.709 -0.7047  2.3932 -0.7084
  757SOL    HW2 2271   0.176   0.458   1.662  2.1934 -0.0166  2.4847
  758SOL     OW 2272   2.399   3.077   1.516  0.3044  0.1573  0.8081
  758SOL    HW1 2273   2.316   3.031   1.564  1.1966  0.0740  0.5486
  758SOL    HW2 2274   2.384   3.088   1.412 -0.9617  0.0100 -0.1491
  759SOL     OW 2275   1.671   3.091   0.062 -0.0906  0.0179 -0.3597
  759SOL    HW1 2276   1.642   3.103  -0.035 -0.6026 -0.9787  2.3482
  759SOL    HW2 2277   1.769   3.072   0.079  0.4026  0.0839  1.7285
  760SOL     OW 2278   2.725   2.019   2.792 -0.8546 -0.1760  0.1747
  760SOL    HW1 2279   2.739   1.921   2.825 -2.1671  1.4069  1.1193
  760SOL    HW2 2280   2.798   2.085   2.835  1.7519 -2.1898  1.2278
  761SOL     OW 2281   1.934   1.701   1.617  0.0942  0.0952 -0.0399
  761SOL    HW1 2282   1.980   1.623   1.665 -0.2287  0.7487 -0.0350
  761SOL    HW2 2283   1.872   1.668   1.541 -3.3386 -1.7173  1.4690
  762SOL     OW 2284   0.516   2.398   0.950 -0.0235  0.0415 -0.1177
  762SOL    HW1 2285   0.566   2.415   0.861  0.8735 -1.6480 -2.3836
  762SOL    HW2 2286   0.562   2.456   1.022 -0.5281 -2.4588  0.5346
  763SOL     OW 2287   2.097   1.540   2.996 -0.0574  0.0778 -0.4560
  763SOL    HW1 2288   2.118   1.489   2.907 -0.2551  2.0314 -0.4845
  763SOL    HW2 2289   2.019   1.494   3.055 -0.4556  3.9366  1.6713
  764SOL     OW 2290   0.680   0.504   0.895 -0.1694  0.2928 -0.2325
  764SOL    HW1 2291   0.681   0.407   0.852  2.6452 -2.2186 -1.6736
  764SOL    HW2 2292   0.776   0.530   0.926  1.5299 -0.1556  1.3328
  765SOL     OW 2293   0.672   0.252   0.780  0.1277  0.3409 -0.3890
  765SOL    HW1 2294   0.757   0.208   0.739  0.8923 -0.5735 -0.0473
  765SOL    HW2 2295   0.663   0.241   0.886 -1.2611  0.7302  0.8502
  766SOL     OW 2296   2.947   2.092   0.027  0.2661 -0.4731 -0.4188
  766SOL    HW1 2297   2.844   2.119   0.014 -2.3387  0.8279  1.5545
  766SOL    HW2 2298   3.012   2.170   0.008 -1.2357  1.0762  1.0608
  767SOL     OW 2299   2.858   1.557   0.512  0.5237  0.1753 -0.1515
  767SOL    HW1 2300   2.768   1.535   0.557 -0.4019  1.9178 -1.6389
  767SOL    HW2 2301   2.916   1.627   0.571 -0.2172  2.0838  1.2033
  768SOL     OW 2302   1.104   0.263   0.307 -0.1523  0.0247  0.1742
  768SOL    HW1 2303   1.026   0.199   0.293  3.9925 -0.0380 -1.0227
  768SOL    HW2 2304   1.193   0.226   0.269  2.5555  1.7366  1.7984
  769SOL     OW 2305   1.193   1.818   2.267  0.1137  0.1304 -0.7828
  769SOL    HW1 2306   1.171   1.851   2.369  0.8829  1.3223  4.1842
  769SOL    HW2 2307   1.152   1.725   2.251  0.3247  0.3893  0.4356
  770SOL     OW 2308   0.173   1.200   2.402  0.1990 -0.7595  0.2627
  770SOL    HW1 2309   0.149   1.244   2.488  0.6983 -1.6352 -2.2015
  770SOL    HW2 2310   0.085   1.180   2.350  2.2109  1.5065  1.5280
  771SOL     OW 2311   2.933   2.836   1.938 -0.7555 -0.0224  0.3887
  771SOL    HW1 2312   2.936   2.901   1.852 -0.5194 -0.2696  2.7036
  771SOL    HW2 2313   2.918   2.887   2.027 -0.1705  2.5839  1.4892
  772SOL     OW 2314   2.128   0.126   2.964  0.4581 -0.0090 -0.3182
  772SOL    HW1 2315   2.197   0.054   3.003 -0.7386 -1.3354  0.5054
  772SOL    HW2 2316   2.121   0.217   3.015 -1.2328  3.6860  0.8077
  773SOL     OW 2317   0.670   2.069   2.459 -0.3342  0.4172 -0.2493
  773SOL    HW1 2318   0.655   2.142   2.385 -0.2799  0.6327  1.4337
  773SOL    HW2 2319   0.588   2.066   2.524 -0.2516 -1.9857  1.1253
  774SOL     OW 2320   2.045   3.091   2.604  0.2544 -0.4695 -0.0961
  774SOL    HW1 2321   2.041   3.184   2.657 -0.1702 -1.2505  1.1132
  774SOL    HW2 2322   2.087   3.023   2.663 -0.4961  1.7901  0.8334
  775SOL     OW 2323   2.488   2.841   2.326 -0.5676 -0.1460 -0.7487
  775SOL    HW1 2324   2.473   2.944   2.325  2.3073 -1.5738  0.5869
  775SOL    HW2 2325   2.549   2.806   2.404 -0.8115  0.3452  0.1137
  776SOL     OW 2326   0.044   1.249   0.202  0.3913  0.1475 -0.0535
  776SOL    HW1 2327   0.014   1.202   0.117  1.7896  0.8094 -0.2960
  776SOL    HW2 2328  -0.034   1.295   0.258 -0.5343  0.0766  4.3013
  777SOL     OW 2329   0.249   2.679   0.492  0.6884  0.0218 -0.4043
  777SOL    HW1 2330   0.144   2.684   0.500 -0.4440 -2.5286  1.6024
  777SOL    HW2 2331   0.297   2.771   0.504 -0.2861 -0.5667  0.6363
  778SOL     OW 2332   1.329   1.953   0.165  0.3478 -0.3139  0.3105
  778SOL    HW1 2333   1.311   1.994   0.260  0.7159  0.9414  0.8849
  778SOL    HW2 2334   1.351   2.027   0.091 -1.5821  1.6587 -0.5004
  779SOL     OW 2335   0.183   0.815   0.527 -0.0639 -0.0645  0.9571
  779SOL    HW1 2336   0.183   0.725   0.484  1.0651  2.0523  0.9296
  779SOL    HW2 2337   0.098   0.834   0.585  0.3146 -1.4625 -0.4931
  780SOL     OW 2338   0.037   0.322   2.403 -0.3071  0.3830 -0.0743
  780SOL    HW1 2339   0.004   0.421   2.401 -0.9368 -0.2499 -1.2335
  780SOL    HW2 2340   0.123   0.301   2.350 -0.9712  2.1398  1.5708
  781SOL     OW 2341   0.587   1.706   1.596 -0.0118 -0.3809  0.4733
  781SOL    HW1 2342   0.619   1.749   1.686 -0.1288 -1.5126  2.1939
  781SOL    HW2 2343   0.508   1.632   1.602  0.2159  1.1476 -2.6568
  782SOL     OW 2344   2.649   0.124   0.910  0.7259 -0.4644 -0.5751
  782SOL    HW1 2345   2.569   0.125   0.842  2.1443 -2.8884 -0.9095
  782SOL    HW2 2346   2.615   0.171   1.000 -1.8556 -1.0336 -0.0289
  783SOL     OW 2347   2.832   0.694   2.495 -0.5516 -0.2128 -0.3515
  783SOL    HW1 2348   2.806   0.732   2.590  2.3936 -1.7206 -1.4640
  783SOL    HW2 2349   2.776   0.615   2.455  0.9976 -0.1107 -2.2570
  784SOL     OW 2350   1.375   2.182   0.018  0.6233 -0.3096  0.3797
  784SOL    HW1 2351   1.449   2.239   0.064  1.2313  0.1670  0.8230
  784SOL    HW2 2352   1.374   2.187  -0.090  2.2845 -0.0354  1.7213
  785SOL     OW 2353   2.153   0.361   0.008 -0.7887  0.0146  0.1574
  785SOL    HW1 2354   2.082   0.371   0.078  1.7970  0.5007  1.5814
  785SOL    HW2 2355   2.175   0.453  -0.032 -0.7041  1.2038  0.5951
  786SOL     OW 2356   2.021   2.167   2.282 -0.0484 -0.2953  0.4978
  786SOL    HW1 2357   1.980   2.069   2.272 -1.4048  1.3364  3.6223
  786SOL    HW2 2358   2.125   2.170   2.284 -3.1376 -0.0924  2.9316
  787SOL     OW 2359   1.378   0.623   0.818 -0.0288 -0.2807 -0.0992
  787SOL    HW1 2360   1.351   0.717   0.859  0.9299  3.6980  0.2826
  787SOL    HW2 2361   1.414   0.635   0.720  2.4950 -1.0644  0.2218
  788SOL     OW 2362   1.204   0.446   3.022 -0.1898  0.2773 -0.2897
  788SOL    HW1 2363   1.113   0.446   2.980  0.7801  0.7979  3.5816
  788SOL    HW2 2364   1.278   0.480   2.955 -0.7771  1.3797 -1.4041
  789SOL     OW 2365   2.619   0.107   1.837 -0.6620  0.6000  0.7864
  789SOL    HW1 2366   2.520   0.116   1.854  1.2483 -1.6683  1.5895
  789SOL    HW2 2367   2.654   0.008   1.824  3.2315 -2.1590 -0.6403
  790SOL     OW 2368   2.574   2.634   0.792  0.0278  0.5481 -0.1833
  790SOL    HW1 2369   2.650   2.647   0.727 -1.3696  0.9848  1.1138
  790SOL    HW2 2370   2.541   2.714   0.852 -4.0507  0.1109  1.8474
  791SOL     OW 2371   1.981   1.264   0.227  0.0602 -1.1977  0.4033
  791SOL    HW1 2372   1.900   1.206   0.253  0.5091  2.1999 -1.6209
  791SOL    HW2 2373   2.061   1.210   0.203  1.1270  0.0158  0.5527
  792SOL     OW 2374   0.409   1.977   2.207  0.2016  0.0027 -0.0029
  792SOL    HW1 2375   0.465   2.066   2.213 -0.8171  1.3108 -2.4093
  792SOL    HW2 2376   0.319   1.978   2.265 -1.4560  3.2972 -1.9536
  793SOL     OW 2377   2.145   1.538   2.140 -0.1022  0.0205  0.3894
  793SOL    HW1 2378   2.232   1.587   2.114 -0.5057 -1.1520 -2.4967
  793SOL    HW2 2379   2.090   1.488   2.062 -4.8742 -5.0935 -1.4341
  794SOL     OW 2380   0.487   1.471   2.473  0.4663  0.2241 -0.1935
  794SOL    HW1 2381   0.535   1.434   2.392  0.0126  1.2057  0.4314
  794SOL    HW2 2382   0.404   1.530   2.458 -1.1251  0.4937  1.4672
  795SOL     OW 2383   2.542   2.315   1.804 -0.0572 -0.3062 -0.2441
  795SOL    HW1 2384   2.556   2.383   1.885  0.2963  0.8637 -0.8833
  795SOL    HW2 2385   2.454   2.266   1.814 -0.0134  1.4305  0.4666
  796SOL     OW 2386   3.047   1.062   2.694 -0.1420 -0.1240  0.1476
  796SOL    HW1 2387   2.947   1.100   2.708  0.3099  0.9441  1.7125
  796SOL    HW2 2388   3.100   1.076   2.787  1.3098  3.4485 -1.3171
  797SOL     OW 2389   0.682   0.645   1.363  0.0154 -0.6503  0.1088
  797SOL    HW1 2390   0.757   0.687   1.425  0.3721  0.9421 -0.7404
  797SOL    HW2 2391   0.628   0.722   1.318 -1.3314  0.4151  2.1901
  798SOL     OW 2392   1.189   0.468   0.938 -0.4231  0.3784 -0.6340
  798SOL    HW1 2393   1.233   0.489   1.032 -2.7358  2.7260 -1.0416
  798SOL    HW2 2394   1.232   0.529   0.863  1.7422 -0.7863 -4.4529
  799SOL     OW 2395   1.820   2.718   1.016 -0.4537 -0.3343  0.4460
  799SOL    HW1 2396   1.809   2.628   1.065  0.2011 -0.8470 -4.6893
  799SOL    HW2 2397   1.859   2.706   0.920 -0.2123 -1.1443 -0.5642
  800SOL     OW 2398   2.946   0.854   1.814 -0.3021  0.2417 -0.0006
  800SOL    HW1 2399   2.969   0.957   1.830 -1.6525  2.6471 -1.0974
  800SOL    HW2 2400   2.969   0.793   1.896 -0.6270  1.1322  1.5110
  801SOL     OW 2401   1.964   2.143   0.130 -0.2202 -0.1595 -0.0025
  801SOL    HW1 2402   1.878   2.152   0.072  0.9292  2.9408  0.3216
  801SOL    HW2 2403   2.028   2.068   0.092 -1.3980 -2.1564 -2.9465
  802SOL     OW 2404   0.666   0.618   2.543 -0.1294 -0.7568  0.1625
  802SOL    HW1 2405   0.733   0.618   2.462  0.5175 -1.1917 -1.2127
  802SOL    HW2 2406   0.570   0.659   2.522 -0.7947 -0.4063 -2.0327
  803SOL     OW 2407   0.915   0.079   0.878  0.4310 -0.3737  0.4142
  803SOL    HW1 2408   0.983   0.138   0.931 -0.3848 -0.3532  1.7343
  803SOL    HW2 2409   0.913   0.102   0.774 -0.8322 -0.9230  1.3522
  804SOL     OW 2410   0.296   0.027   2.187  0.2210  0.5222 -0.3066
  804SOL    HW1 2411   0.270   0.125   2.208 -0.8029  0.9626 -0.1538
  804SOL    HW2 2412   0.247  -0.022   2.108 -1.5542 -0.5417  0.7761
  805SOL     OW 2413   2.396   0.395   0.332  0.3560  0.2885  0.2534
  805SOL    HW1 2414   2.450   0.374   0.425  0.0786 -1.6284  0.9590
  805SOL    HW2 2415   2.406   0.317   0.262  1.8187  0.2069 -1.8509
  806SOL     OW 2416   0.630   2.548   1.824 -0.3111  0.7567 -0.3255
  806SOL    HW1 2417   0.602   2.625   1.891  0.3908  0.6720  4.1276
  806SOL    HW2 2418   0.663   2.587   1.733  0.7146  2.3249  1.3545
  807SOL     OW 2419   2.514   0.965   0.480  0.0251 -0.8965 -0.0506
  807SOL    HW1 2420   2.598   0.901   0.508  0.1316 -1.5093 -3.3842
  807SOL    HW2 2421   2.506   0.984   0.378 -1.7354 -0.2409  2.6803
  808SOL     OW 2422   0.650   2.029   2.877  0.3826 -0.2273  0.4044
  808SOL    HW1 2423   0.649   2.074   2.971 -1.5544  0.5772 -2.3250
  808SOL    HW2 2424   0.660   1.926   2.889  1.8633  0.3159  0.0678
  809SOL     OW 2425   2.564   1.982   1.894 -0.1750 -0.1592 -0.0305
  809SOL    HW1 2426   2.664   2.022   1.887  2.0203  2.3333 -2.8342
  809SOL    HW2 2427   2.505   1.992   1.807  2.5111  0.3370 -0.3054
  810SOL     OW 2428   2.199   1.108   0.533  0.8672  0.1982 -1.0670
  810SOL    HW1 2429   2.235   1.065   0.617 -1.7667  3.9761  0.4299
  810SOL    HW2 2430   2.134   1.191   0.552 -1.0572 -0.9184 -1.2214
  811SOL     OW 2431   1.280   2.587   1.189  0.1456 -0.7999 -0.2514
  811SOL    HW1 2432   1.252   2.488   1.204  0.9662  0.0890 -2.1474
  811SOL    HW2 2433   1.297   2.632   1.282  1.9020  1.4742 -2.0872
  812SOL     OW 2434   1.441   0.754   1.963  0.6224 -1.0698 -0.3598
  812SOL    HW1 2435   1.359   0.749   1.899 -2.4684  3.5576 -1.1449
  812SOL    HW2 2436   1.495   0.846   1.954  0.4808 -0.2797 -2.0562
  813SOL     OW 2437   1.614   2.075   2.400  0.3001  0.3950 -0.8876
  813SOL    HW1 2438   1.687   2.009   2.433 -0.6759  0.5526  1.3406
  813SOL    HW2 2439   1.579   2.040   2.307 -0.9720 -0.2903  0.4489
  814SOL     OW 2440   2.997   1.718   2.864  0.3380  0.2920 -0.4591
  814SOL    HW1 2441   3.054   1.665   2.926  2.5986  1.8841 -0.4388
  814SOL    HW2 2442   3.029   1.817   2.852  0.4236  1.3108 -1.8492
  815SOL     OW 2443   2.170   2.894   2.752 -0.1530 -0.4319 -0.7165
  815SOL    HW1 2444   2.144   2.817   2.819 -0.2500  1.8309  1.1638
  815SOL    HW2 2445   2.266   2.932   2.769  0.9245  0.3767 -0.1778
  816SOL     OW 2446   1.529   0.359   1.657  0.0669 -0.3833  0.4508
  816SOL    HW1 2447   1.583   0.280   1.703 -0.5063 -0.0496  0.6974
  816SOL    HW2 2448   1.463   0.407   1.721  0.9649 -1.6091  1.9553
  817SOL     OW 2449   0.384   1.253   2.649 -0.0861  1.2870 -0.2211
  817SOL    HW1 2450   0.298   1.295   2.684  0.9330  0.5184  1.5369
  817SOL    HW2 2451   0.438   1.309   2.586  1.9920 -1.2425  0.0624
  818SOL     OW 2452   2.013   0.832   0.464 -0.3427  0.4249 -0.1119
  818SOL    HW1 2453   2.109   0.856   0.429 -1.3805 -2.1412  0.3016
  818SOL    HW2 2454   1.999   0.869   0.560  2.1327  1.9395 -0.2100
  819SOL     OW 2455   2.762   2.879   3.067  0.0796 -0.3686 -0.8518
  819SOL    HW1 2456   2.747   2.788   3.117  1.0399 -1.4121 -3.1740
  819SOL    HW2 2457   2.688   2.887   2.988  0.0468  0.2767 -2.4292
  820SOL     OW 2458   1.282   1.048   0.553  0.1560 -0.3814 -0.0915
  820SOL    HW1 2459   1.322   1.116   0.618 -2.2884  0.7750 -2.1197
  820SOL    HW2 2460   1.255   0.956   0.586  0.9763 -0.3803 -1.2591
  821SOL     OW 2461   0.098   1.190   0.703  0.1507  0.1122 -0.6074
  821SOL    HW1 2462   0.037   1.215   0.783  0.4450  2.9234  2.9500
  821SOL    HW2 2463   0.168   1.265   0.685 -1.8904 -0.5918  1.3328
  822SOL     OW 2464   2.527   1.758   2.434 -0.1056 -0.0855  0.4093
  822SOL    HW1 2465   2.526   1.835   2.508 -0.1451  1.6391 -0.5739
  822SOL    HW2 2466   2.439   1.755   2.376  0.5804 -1.3932 -0.7039
  823SOL     OW 2467   2.017   0.955   1.206  0.1098  0.0576  0.1089
  823SOL    HW1 2468   1.996   0.923   1.301  1.2296 -1.4865  0.2708
  823SOL    HW2 2469   1.946   0.926   1.133 -1.1758  0.2408 -3.9856
  824SOL     OW 2470   0.187   1.904   2.789  0.4930 -0.1671 -0.1563
  824SOL    HW1 2471   0.239   1.869   2.874 -1.5395  0.6054  0.6355
  824SOL    HW2 2472   0.248   1.915   2.707 -4.4319 -0.1767  0.8487
  825SOL     OW 2473   1.313   1.082   0.260 -0.2745 -0.0915  0.3765
  825SOL    HW1 2474   1.333   1.173   0.215  1.0260  1.0303 -1.5051
  825SOL    HW2 2475   1.292   1.098   0.359 -1.8537  1.4013 -2.3160
  826SOL     OW 2476   1.930   0.592   1.577  0.1135 -0.1650  0.0433
  826SOL    HW1 2477   2.017   0.562   1.623 -0.5294 -1.7643 -0.1817
  826SOL    HW2 2478   1.853   0.524   1.581 -0.4221  0.9987  1.9556
  827SOL     OW 2479   0.727   1.165   0.410 -0.1968  0.3878  0.4574
  827SOL    HW1 2480   0.800   1.110   0.365  0.2091  2.6107 -0.6720
  827SOL    HW2 2481   0.645   1.111   0.446  0.5509  0.2280 -2.2328
  828SOL     OW 2482   2.626   0.130   1.552 -0.2738 -0.0242 -0.4442
  828SOL    HW1 2483   2.540   0.070   1.533 -1.5489  1.3271  1.0963
  828SOL    HW2 2484   2.636   0.148   1.650  1.3492  1.1789 -0.3167
  829SOL     OW 2485   2.923   2.412   2.948  0.6970 -0.3095  0.3413
  829SOL    HW1 2486   2.822   2.392   2.957 -0.4208  1.9841  0.5281
  829SOL    HW2 2487   2.945   2.514   2.939 -1.4820 -2.2766 -0.0186
  830SOL     OW 2488   2.877   0.904   3.018 -0.6573 -0.3384 -0.9688
  830SOL    HW1 2489   2.934   0.983   3.050  0.6240 -1.6355 -1.6056
  830SOL    HW2 2490   2.910   0.817   3.059  1.6448  0.5484 -2.1339
  831SOL     OW 2491   0.111   0.583   0.403  0.4775  0.2510  0.1016
  831SOL    HW1 2492   0.076   0.513   0.470  2.4356  0.7921  1.1828
  831SOL    HW2 2493   0.133   0.533   0.313  0.7663  0.3814  1.0760
  832SOL     OW 2494   1.789   0.742   3.028  0.0296 -0.7401  0.2132
  832SOL    HW1 2495   1.729   0.789   2.956 -0.7605 -1.4935  0.1039
  832SOL    HW2 2496   1.763   0.642   3.050 -0.6072 -2.7215  0.8525
  833SOL     OW 2497   2.375   2.095   0.502 -0.3962  0.6597  0.4333
  833SOL    HW1 2498   2.291   2.031   0.493 -0.4887  1.2261 -0.4898
  833SOL    HW2 2499   2.460   2.039   0.522  2.0385 -1.2736  1.9821
  834SOL     OW 2500   0.169   0.107   0.586 -0.1641 -0.9783  0.0059
  834SOL    HW1 2501   0.164   0.006   0.583  2.2098  0.3105 -2.5555
  834SOL    HW2 2502   0.196   0.153   0.497  0.0524  1.8565 -0.3367
  835SOL     OW 2503   2.425   1.577   1.102 -0.4949  0.4645  0.4445
  835SOL    HW1 2504   2.527   1.574   1.134  3.5903 -2.1031 -2.6452
  835SOL    HW2 2505   2.414   1.623   1.010  0.9807  2.8288  3.2431
  836SOL     OW 2506   1.571   0.811   2.576 -0.6278 -0.2583  0.1217
  836SOL    HW1 2507   1.469   0.820   2.554 -1.9650  1.6661 -0.6299
  836SOL    HW2 2508   1.632   0.805   2.485  2.2583  4.0707 -0.8090
  837SOL     OW 2509   1.724   0.105   0.566  0.3071 -0.3041 -0.4156
  837SOL    HW1 2510   1.715   0.195   0.622  1.1476  2.5125  0.2525
  837SOL    HW2 2511   1.656   0.097   0.491 -0.6969  0.7649  0.0029
  838SOL     OW 2512   1.212   1.424   2.701  0.2971  0.2329 -0.5354
  838SOL    HW1 2513   1.175   1.488   2.775 -0.0150  2.5453 -0.2181
  838SOL    HW2 2514   1.135   1.365   2.661 -0.7856  1.5707  0.2100
  839SOL     OW 2515   1.588   0.343   0.969  0.7630  0.3526 -0.0817
  839SOL    HW1 2516   1.540   0.409   1.035 -1.4129 -0.0457  0.4912
  839SOL    HW2 2517   1.538   0.252   0.971 -1.0789 -2.3631  2.6451
  840SOL     OW 2518   2.614   2.950   1.678  0.9922  0.0757 -0.2713
  840SOL    HW1 2519   2.536   2.970   1.614 -0.9608  0.4019  2.6793
  840SOL    HW2 2520   2.590   2.875   1.747 -1.0888 -0.2017 -0.9048
  841SOL     OW 2521   1.518   0.807   2.938 -0.2929  0.3037  0.2396
  841SOL    HW1 2522   1.457   0.846   3.006 -3.1105  0.9603 -1.7568
  841SOL    HW2 2523   1.553   0.885   2.881  1.8807  1.2464 -0.9977
  842SOL     OW 2524   0.853   1.595   1.019 -0.2194  0.7408  0.0961
  842SOL    HW1 2525   0.798   1.670   1.068  0.5957  0.7903 -2.2975
  842SOL    HW2 2526   0.809   1.558   0.936  3.7281  1.1241 -2.4179
  843SOL     OW 2527   0.146   0.111   1.456 -0.3320 -0.9006  0.4022
  843SOL    HW1 2528   0.237   0.142   1.499  1.0157 -4.7389 -0.9077
  843SOL    HW2 2529   0.147   0.010   1.429  1.9429  0.3764 -1.5690
  844SOL     OW 2530   0.712   2.538   0.209 -0.1705 -0.2381  0.5221
  844SOL    HW1 2531   0.707   2.535   0.313  0.3407 -1.2068 -0.2978
  844SOL    HW2 2532   0.621   2.547   0.162  1.2940 -1.3599 -0.5071
  845SOL     OW 2533   1.727   2.988   1.292  0.1858  0.7964  0.0518
  845SOL    HW1 2534   1.715   3.030   1.388  2.0456  1.4067 -0.1474
  845SOL    HW2 2535   1.655   3.012   1.224 -0.2856  3.3936 -0.1663
  846SOL     OW 2536   1.690   3.002   0.899 -0.1373  0.2532  0.3950
  846SOL    HW1 2537   1.756   3.038   0.825 -0.8034  0.6827 -0.7570
  846SOL    HW2 2538   1.729   2.919   0.953 -0.7867  0.4198  0.5140
  847SOL     OW 2539   2.073   1.596   0.197  0.3549 -0.0906  0.3072
  847SOL    HW1 2540   2.025   1.576   0.292  3.0401 -1.6351 -0.4436
  847SOL    HW2 2541   2.005   1.609   0.121 -0.3212  4.8859  0.5712
  848SOL     OW 2542   2.469   0.866   2.626  0.1792  0.4734 -0.5430
  848SOL    HW1 2543   2.437   0.958   2.656  1.7251 -3.0054  1.6638
  848SOL    HW2 2544   2.398   0.820   2.561 -0.3688 -1.9747 -0.7226
  849SOL     OW 2545   2.385   0.838   2.253 -0.9412  0.0636  0.2112
  849SOL    HW1 2546   2.439   0.774   2.196 -1.3224 -1.3231  1.0393
  849SOL    HW2 2547   2.361   0.801   2.348 -0.2164  0.6145 -1.7892
  850SOL     OW 2548   1.556   0.185   1.254 -0.0968  0.8335 -0.0249
  850SOL    HW1 2549   1.522   0.153   1.161  1.7847  1.7014 -0.2945
  850SOL    HW2 2550   1.513   0.133   1.332  1.6682 -0.6344  0.5858
  851SOL     OW 2551   0.501   1.752   0.669 -0.1858 -0.9838 -0.4927
  851SOL    HW1 2552   0.490   1.841   0.716  0.2763 -0.2602 -0.6943
  851SOL    HW2 2553   0.594   1.713   0.684  0.3696  1.5321 -0.0697
  852SOL     OW 2554   0.820   2.149   1.710  0.7648  0.4378  0.1667
  852SOL    HW1 2555   0.782   2.222   1.649  0.9548 -0.3833  2.9061
  852SOL    HW2 2556   0.752   2.130   1.793 -1.8600  0.8004  3.2120
  853SOL     OW 2557   2.559   1.522   2.579  1.2908  0.0468  0.0525
  853SOL    HW1 2558   2.505   1.438   2.539 -1.1581  0.4052 -1.8813
  853SOL    HW2 2559   2.567   1.600   2.511 -1.2993  1.7060 -1.7851
  854SOL     OW 2560   2.400   1.439   1.756  0.3676  0.1163  0.1366
  854SOL    HW1 2561   2.423   1.454   1.654 -0.1008  0.2355 -2.3738
  854SOL    HW2 2562   2.344   1.353   1.775 -1.3577 -2.5506 -0.6955
  855SOL     OW 2563   2.045   2.284   0.999 -0.2270 -0.4627  0.2104
  855SOL    HW1 2564   2.070   2.385   0.975 -1.5506  2.1895 -1.4412
  855SOL    HW2 2565   2.087   2.255   1.089  0.7753 -2.4168  2.2412
  856SOL     OW 2566   1.412   1.330   0.885 -0.2824  0.2037 -0.0926
  856SOL    HW1 2567   1.386   1.425   0.850 -1.0512  1.9708 -0.6319
  856SOL    HW2 2568   1.439   1.340   0.981  1.6332  2.5957 -0.4597
  857SOL     OW 2569   2.912   2.551   1.032 -0.4069 -0.2209  0.1539
  857SOL    HW1 2570   2.826   2.532   1.088 -1.9087 -1.3399 -1.3568
  857SOL    HW2 2571   2.932   2.478   0.963 -1.7976 -1.5368 -1.3784
  858SOL     OW 2572   2.262   2.111   1.764 -0.2012 -0.2323  0.5076
  858SOL    HW1 2573   2.170   2.129   1.714 -0.0098  1.0989 -0.7057
  858SOL    HW2 2574   2.343   2.076   1.710  1.8308 -1.2123  1.6732
  859SOL     OW 2575   2.398   0.466   0.993 -0.4679 -0.4745 -0.2052
  859SOL    HW1 2576   2.464   0.510   0.933 -3.1251 -0.4168 -0.5817
  859SOL    HW2 2577   2.449   0.404   1.060  0.7328 -3.2872  1.9944
  860SOL     OW 2578   1.954   2.789   0.493 -0.3752  0.5274 -0.1519
  860SOL    HW1 2579   1.970   2.743   0.397  0.7791 -2.8651 -1.7292
  860SOL    HW2 2580   1.962   2.896   0.491 -0.9140  1.5339 -1.4730
  861SOL     OW 2581   1.057   2.572   2.775 -0.8094 -0.8121  0.1550
  861SOL    HW1 2582   1.107   2.665   2.758 -1.3275  2.1634  1.2024
  861SOL    HW2 2583   1.007   2.568   2.864 -0.1383  1.5887  0.1691
  862SOL     OW 2584   2.962   2.575   1.558  0.3638  0.1703 -0.2562
  862SOL    HW1 2585   3.008   2.561   1.651 -0.5191  0.9195 -1.8695
  862SOL    HW2 2586   2.871   2.632   1.567  1.1253  2.1903  1.9269
  863SOL     OW 2587   1.909   2.636   0.255  0.8853  0.5725  0.3226
  863SOL    HW1 2588   1.964   2.548   0.267 -0.0203  2.8731 -0.2316
  863SOL    HW2 2589   1.802   2.629   0.266 -1.5625 -2.0158 -0.9332
  864SOL     OW 2590   1.883   1.137   2.930  0.4847 -0.1581  0.8045
  864SOL    HW1 2591   1.916   1.118   2.832  2.1547 -2.5456 -2.4573
  864SOL    HW2 2592   1.955   1.113   2.996  0.7387  0.8303  0.4281
  865SOL     OW 2593   2.145   1.720   0.676  0.1370 -0.7856 -0.2218
  865SOL    HW1 2594   2.215   1.721   0.748  0.5884  1.6813 -1.0381
  865SOL    HW2 2595   2.053   1.691   0.709 -0.5752 -0.7370  1.4561
  866SOL     OW 2596   2.887   2.842   1.014 -0.7846 -0.6340  0.0502
  866SOL    HW1 2597   2.927   2.866   0.922  0.7810  1.1247  0.1387
  866SOL    HW2 2598   2.892   2.739   1.028  0.1358  2.1773 -2.5169
  867SOL     OW 2599   0.440   1.300   0.853  0.2422  0.2099  0.4010
  867SOL    HW1 2600   0.437   1.200   0.822 -0.3456 -2.0543 -0.1009
  867SOL    HW2 2601   0.351   1.353   0.851  1.7786 -0.7863  1.6929
  868SOL     OW 2602   0.855   1.953   1.979  0.0388  0.3411  0.0290
  868SOL    HW1 2603   0.856   1.919   2.079  1.2493 -0.6397  3.1924
  868SOL    HW2 2604   0.776   2.009   1.954  0.5306 -0.0440  1.0332
  869SOL     OW 2605   2.526   2.033   1.610  0.1921 -0.0337  0.0254
  869SOL    HW1 2606   2.574   2.124   1.593  0.4427  0.4970  2.1376
  869SOL    HW2 2607   2.535   1.960   1.534  2.1040  1.2652  1.2671
  870SOL     OW 2608   2.377   2.516   1.189  0.3801 -0.1171 -0.1699
  870SOL    HW1 2609   2.333   2.427   1.160 -0.3403 -1.7768 -1.3235
  870SOL    HW2 2610   2.476   2.502   1.212 -1.6821 -2.4352  2.8212
  871SOL     OW 2611   2.997   2.015   0.552  0.2883 -0.2647 -0.4622
  871SOL    HW1 2612   2.917   2.075   0.520 -0.9512  2.0762 -0.0935
  871SOL    HW2 2613   3.019   1.934   0.487 -0.1728  0.7846  1.5772
  872SOL     OW 2614   2.181   0.511   1.699  0.1411  0.0966 -0.0168
  872SOL    HW1 2615   2.152   0.499   1.796 -1.2134  1.1865 -0.4818
  872SOL    HW2 2616   2.280   0.494   1.689 -0.1266  0.6196  0.8939
  873SOL     OW 2617   1.712   2.098   2.920 -0.5271 -0.2978 -0.8852
  873SOL    HW1 2618   1.698   2.195   2.963 -2.0376 -1.3388  1.0174
  873SOL    HW2 2619   1.637   2.069   2.848 -0.6781  0.6016 -2.6097
  874SOL     OW 2620   0.717   2.513   0.750  0.4951  0.0387 -0.0658
  874SOL    HW1 2621   0.685   2.608   0.784 -2.9967  1.6123 -2.0765
  874SOL    HW2 2622   0.803   2.472   0.786 -0.4510  2.2584 -2.2572
  875SOL     OW 2623   2.332   1.509   1.477 -0.0651  0.1215 -0.6624
  875SOL    HW1 2624   2.425   1.546   1.460 -2.8776 -1.4270  2.6531
  875SOL    HW2 2625   2.287   1.492   1.387 -1.2178  0.0922 -0.5370
  876SOL     OW 2626   0.142   2.191   2.704  0.5123 -0.0579  0.2005
  876SOL    HW1 2627   0.223   2.128   2.693  0.0678  0.6432 -0.4561
  876SOL    HW2 2628   0.168   2.282   2.759  3.0502  1.2395  1.7168
  877SOL     OW 2629   2.774   2.683   0.593  0.6944 -0.1529 -0.5204
  877SOL    HW1 2630   2.819   2.775   0.599 -2.5654  1.5891  3.8012
  877SOL    HW2 2631   2.837   2.599   0.619  1.6585 -0.8825  0.9485
  878SOL     OW 2632   2.796   1.556   2.219 -0.7348  0.0937  0.1774
  878SOL    HW1 2633   2.855   1.600   2.152 -2.0429  0.6136  2.1138
  878SOL    HW2 2634   2.832   1.562   2.313 -0.0168  0.3794 -1.1146
  879SOL     OW 2635   2.378   3.103   1.213 -0.1517 -0.0104  0.1404
  879SOL    HW1 2636   2.410   3.005   1.198 -0.5640 -1.1233 -1.4103
  879SOL    HW2 2637   2.297   3.121   1.149  0.0563 -0.0709 -1.0523
  880SOL     OW 2638   0.674   0.409   2.180  0.7093 -0.2436  0.4912
  880SOL    HW1 2639   0.605   0.375   2.254 -3.5709  2.2494 -2.6868
  880SOL    HW2 2640   0.762   0.355   2.174 -0.5946  3.2826 -0.4167
  881SOL     OW 2641   0.905   0.057   0.377 -0.1564  0.2393 -0.3357
  881SOL    HW1 2642   0.951  -0.027   0.422  2.2731 -0.1191 -0.0414
  881SOL    HW2 2643   0.845   0.037   0.295  0.0222  1.4628  0.2255
  882SOL     OW 2644   2.758   1.639   1.683 -0.3743  0.1843  0.3526
  882SOL    HW1 2645   2.864   1.635   1.691  3.5966 -0.6342  1.3974
  882SOL    HW2 2646   2.709   1.666   1.769  2.3770 -0.3195 -0.5976
  883SOL     OW 2647   0.945   0.607   0.937 -0.3458  0.1983  0.0855
  883SOL    HW1 2648   0.952   0.677   1.017  2.8777  1.4461 -1.2386
  883SOL    HW2 2649   1.026   0.545   0.945  0.7488 -0.7914  1.7089
  884SOL     OW 2650   1.219   1.903   1.023 -0.4775 -0.3996  0.1429
  884SOL    HW1 2651   1.166   1.876   0.935  0.6769 -0.5192 -0.2739
  884SOL    HW2 2652   1.163   1.967   1.085  0.3881 -0.4620  1.7788
  885SOL     OW 2653   2.264   1.801   2.306  0.4229 -0.5270  0.8181
  885SOL    HW1 2654   2.184   1.753   2.341  1.4245  1.1632 -3.2789
  885SOL    HW2 2655   2.278   1.902   2.330  2.6057 -1.7994  0.4547
  886SOL     OW 2656   2.658   0.461   1.777 -0.0785  0.2504 -0.2405
  886SOL    HW1 2657   2.682   0.416   1.870  2.7446 -0.6121  0.7739
  886SOL    HW2 2658   2.722   0.542   1.756 -0.7514 -2.4009  3.0564
  887SOL     OW 2659   0.132   2.057   1.304  0.5174 -0.1590  0.3383
  887SOL    HW1 2660   0.085   2.017   1.222  1.6666  1.2867 -2.2172
  887SOL    HW2 2661   0.161   2.159   1.292  0.2936  0.2621  2.0980
  888SOL     OW 2662   0.585   1.311   1.490  0.4193  0.2219 -0.1803
  888SOL    HW1 2663   0.601   1.371   1.402  1.3038  1.2216 -0.3445
  888SOL    HW2 2664   0.621   1.215   1.476  1.8823  1.5667 -3.5982
  889SOL     OW 2665   0.865   2.533   2.136  0.5652 -0.4153 -0.5457
  889SOL    HW1 2666   0.777   2.504   2.094 -0.3165 -0.3530  1.8508
  889SOL    HW2 2667   0.956   2.498   2.092  2.6784 -0.3965 -0.6827
  890SOL     OW 2668   2.333   2.436   0.169  0.5041 -0.7864 -0.3419
  890SOL    HW1 2669   2.373   2.518   0.119 -0.2815  3.0166 -0.0299
  890SOL    HW2 2670   2.233   2.455   0.190  1.0152  0.0778  0.9548
  891SOL     OW 2671   2.582   1.525   0.626 -1.2180  0.4452 -0.1969
  891SOL    HW1 2672   2.604   1.490   0.720 -0.0890 -0.6767 -2.7003
  891SOL    HW2 2673   2.486   1.553   0.607  0.8946 -0.7119 -0.8770
  892SOL     OW 2674   0.239   0.289   2.216  0.0375 -0.3850 -0.3514
  892SOL    HW1 2675   0.250   0.292   2.115 -2.5358  0.6720  0.4870
  892SOL    HW2 2676   0.328   0.324   2.261 -0.3682 -3.5588  1.9003
  893SOL     OW 2677   1.657   0.239   2.731  0.2396  0.0957 -0.2884
  893SOL    HW1 2678   1.735   0.305   2.733 -0.8835  0.2698  0.8250
  893SOL    HW2 2679   1.565   0.280   2.708  1.2257  0.6640 -2.7218
  894SOL     OW 2680   2.149   1.966   0.048 -0.1345 -0.5441  0.3568
  894SOL    HW1 2681   2.120   1.911  -0.030  0.6626  0.2912  0.8125
  894SOL    HW2 2682   2.180   1.901   0.127  0.5811 -1.3491  1.0714
  895SOL     OW 2683   2.917   1.398   0.824 -0.4194 -0.6346  0.1799
  895SOL    HW1 2684   2.945   1.348   0.909 -0.1004  0.4847 -0.7998
  895SOL    HW2 2685   2.989   1.461   0.786  1.3638 -1.5265 -0.4191
  896SOL     OW 2686   1.741   1.792   1.182 -0.5101  0.5680  0.2712
  896SOL    HW1 2687   1.825   1.836   1.141  0.3787  0.9818 -0.3710
  896SOL    HW2 2688   1.658   1.822   1.132  1.2849  0.4627 -0.3002
  897SOL     OW 2689   0.314   0.533   3.102  0.1520 -0.3161  0.2878
  897SOL    HW1 2690   0.260   0.591   3.035  4.6345 -3.2445 -2.8595
  897SOL    HW2 2691   0.411   0.571   3.114 -1.7430  0.4243  0.4650
  898SOL     OW 2692   0.547   2.826   1.139  0.0868 -0.9073  0.1059
  898SOL    HW1 2693   0.491   2.909   1.164  0.3141 -0.4259  0.8374
  898SOL    HW2 2694   0.646   2.844   1.163 -0.8002  0.0135 -0.4860
  899SOL     OW 2695   2.683   0.915   1.250  0.4478 -0.0680 -0.1064
  899SOL    HW1 2696   2.619   0.874   1.181  0.2911 -1.5121 -1.1729
  899SOL    HW2 2697   2.778   0.930   1.212 -1.1797 -0.4030 -2.6099
  900SOL     OW 2698   0.989   2.403   2.346 -0.1310 -0.5314 -0.1646
  900SOL    HW1 2699   0.917   2.454   2.284  0.5327 -1.6456  0.9315
  900SOL    HW2 2700   0.954   2.380   2.441  1.9309  0.1244 -1.2015
  901SOL     OW 2701   1.906   2.457   1.384 -0.1089  0.8038 -0.1262
  901SOL    HW1 2702   1.877   2.441   1.287 -0.8482  0.9189  2.1391
  901SOL    HW2 2703   2.009   2.447   1.404 -2.5254  1.5533  3.3623
  902SOL     OW 2704   2.589   1.636   1.454 -0.0768 -0.1221  0.0480
  902SOL    HW1 2705   2.659   1.640   1.532 -0.0210  2.0353 -1.5448
  902SOL    HW2 2706   2.630   1.595   1.365 -0.6747 -1.3863 -3.1154
  903SOL     OW 2707   0.254   2.332   1.978  0.0593 -0.9754  0.0774
  903SOL    HW1 2708   0.159   2.294   1.997 -0.3839  1.0990 -1.6367
  903SOL    HW2 2709   0.249   2.408   1.905  0.2435  1.8192 -2.2402
  904SOL     OW 2710   1.972   0.813   2.576 -0.0738 -0.5651  0.1515
  904SOL    HW1 2711   1.899   0.761   2.624 -1.1624  0.0747  0.7491
  904SOL    HW2 2712   1.973   0.800   2.472  0.0857 -5.0447  1.7119
  905SOL     OW 2713   2.740   0.005   2.640  0.0397  0.5590  0.3235
  905SOL    HW1 2714   2.826  -0.052   2.632  0.6177 -3.3651 -0.0288
  905SOL    HW2 2715   2.759   0.104   2.621  1.6663 -1.4000 -0.6279
  906SOL     OW 2716   0.140   1.763   1.937 -0.3186 -0.0784  0.6340
  906SOL    HW1 2717   0.090   1.783   1.848  0.0427 -1.6920  0.5233
  906SOL    HW2 2718   0.237   1.808   1.945  0.6269 -0.5986  1.7279
  907SOL     OW 2719   0.164   2.459   1.034  0.0656 -0.1447  0.7570
  907SOL    HW1 2720   0.249   2.519   1.032  1.5376  0.9587 -1.5821
  907SOL    HW2 2721   0.125   2.443   0.940 -0.4233 -0.3547  0.2734
  908SOL     OW 2722   2.662   2.897   0.437  0.1758 -0.5646 -0.4989
  908SOL    HW1 2723   2.684   2.944   0.352 -0.4316  0.6696 -0.5456
  908SOL    HW2 2724   2.603   2.816   0.429  0.6716  0.3900  0.3127
  909SOL     OW 2725   0.796   0.899   2.650 -0.7808 -0.0882  0.0071
  909SOL    HW1 2726   0.761   0.801   2.633 -0.0849  2.3189 -3.2126
  909SOL    HW2 2727   0.860   0.936   2.578 -2.6519 -1.0796  1.9641
  910SOL     OW 2728   1.741   1.772   2.020  0.4058 -0.3026 -0.0363
  910SOL    HW1 2729   1.775   1.820   1.934 -3.1389 -0.9592 -0.7554
  910SOL    HW2 2730   1.674   1.827   2.079  0.4100 -0.2887  0.1477
  911SOL     OW 2731   1.764   3.027   1.575 -0.2754  0.7851 -1.0725
  911SOL    HW1 2732   1.852   2.993   1.523  0.3747  0.3473 -3.1033
  911SOL    HW2 2733   1.745   2.977   1.667 -2.6210 -1.8745  0.9450
  912SOL     OW 2734   2.828   0.966   0.775 -0.0293 -0.6020  0.1347
  912SOL    HW1 2735   2.859   0.957   0.876  2.1491 -0.3437  0.2716
  912SOL    HW2 2736   2.768   1.049   0.758 -1.1194 -1.5326  0.3855
  913SOL     OW 2737   2.533   1.274   1.565 -0.1784 -0.6884  0.0285
  913SOL    HW1 2738   2.564   1.179   1.549  0.4527  1.8769  2.1429
  913SOL    HW2 2739   2.572   1.341   1.493  4.5452  0.6873 -1.1374
  914SOL     OW 2740   2.819   0.550   1.230 -0.5813  0.5095  0.3989
  914SOL    HW1 2741   2.783   0.460   1.275 -1.2268 -1.4897 -2.7374
  914SOL    HW2 2742   2.794   0.635   1.290  0.1805  2.5802 -0.1699
  915SOL     OW 2743   1.246   0.793   1.010 -0.1227  0.2535 -0.0416
  915SOL    HW1 2744   1.324   0.850   1.051  0.5492  3.0579 -0.5307
  915SOL    HW2 2745   1.158   0.793   1.064  0.7757 -0.2522  0.7449
  916SOL     OW 2746   0.531   0.065   0.614 -0.6166  0.0496 -0.7910
  916SOL    HW1 2747   0.562   0.135   0.684  1.5188  1.2103 -0.3986
  916SOL    HW2 2748   0.557   0.086   0.513 -1.0325 -2.2365 -3.2835
  917SOL     OW 2749   2.747   2.615   1.935  0.2175 -0.0785 -0.4272
  917SOL    HW1 2750   2.664   2.679   1.948  2.0161  0.1082  0.3470
  917SOL    HW2 2751   2.830   2.673   1.953 -0.3538  1.9370  2.3297
  918SOL     OW 2752   0.973   2.191   3.039  0.1738  0.3122  0.9586
  918SOL    HW1 2753   0.933   2.227   3.131 -0.3192  0.6081  0.5151
  918SOL    HW2 2754   1.048   2.120   3.050  0.4563  0.3348  3.6455
  919SOL     OW 2755   0.942   1.614   2.821  0.0046  0.1228 -0.0087
  919SOL    HW1 2756   0.950   1.678   2.744 -3.7978 -0.9976  1.1235
  919SOL    HW2 2757   0.874   1.542   2.796 -0.3288  1.9146  0.5363
  920SOL     OW 2758   1.242   2.053   2.528 -0.3539  0.3392  0.5342
  920SOL    HW1 2759   1.204   2.072   2.432 -0.1206 -3.2440 -1.9031
  920SOL    HW2 2760   1.275   1.954   2.546  2.0850 -2.0642 -3.8062
  921SOL     OW 2761   1.047   0.147   2.572 -0.2830  0.4485  0.3627
  921SOL    HW1 2762   1.066   0.129   2.470  1.9037  1.7834 -2.7801
  921SOL    HW2 2763   0.974   0.089   2.606 -0.0894  2.2757  0.8594
  922SOL     OW 2764   2.184   2.395   2.765 -0.4851  0.4101  0.2479
  922SOL    HW1 2765   2.188   2.290   2.754  0.4132  0.8425 -2.6342
  922SOL    HW2 2766   2.121   2.436   2.692  0.2128 -1.6413 -1.6730
  923SOL     OW 2767   1.202   2.655   0.290 -0.4683  0.3218 -0.5540
  923SOL    HW1 2768   1.290   2.707   0.306 -0.5197 -0.2861  0.2968
  923SOL    HW2 2769   1.220   2.555   0.256  1.8134 -2.7740 -0.0377
  924SOL     OW 2770   2.904   1.581   0.078  0.0328 -0.1962 -0.1916
  924SOL    HW1 2771   2.823   1.563   0.013  2.0654  1.8065 -0.3545
  924SOL    HW2 2772   2.993   1.590   0.029  0.3218 -2.2646  2.6252
  925SOL     OW 2773   0.030   2.834   1.677  0.3964  0.2525  0.0266
  925SOL    HW1 2774  -0.043   2.904   1.700  1.2109  1.4351 -0.1585
  925SOL    HW2 2775   0.009   2.774   1.597 -0.3623 -0.9213  0.8754
  926SOL     OW 2776   1.405   2.919   1.310  1.0136 -0.5898 -0.1218
  926SOL    HW1 2777   1.452   2.909   1.218  0.1044  2.3409  1.5896
  926SOL    HW2 2778   1.430   3.000   1.370  0.1242 -0.3941 -0.5810
  927SOL     OW 2779   0.287   2.534   1.777  0.3833 -0.1524 -0.6542
  927SOL    HW1 2780   0.265   2.488   1.688 -0.6936 -2.6452  2.0281
  927SOL    HW2 2781   0.313   2.635   1.764 -2.1451  0.1959 -1.6276
  928SOL     OW 2782   1.582   1.969   2.138  0.0945  0.4706 -0.3801
  928SOL    HW1 2783   1.629   2.057   2.119  0.0260 -0.5572  2.0341
  928SOL    HW2 2784   1.479   1.964   2.119  0.6849 -1.1224  2.9457
  929SOL     OW 2785   2.447   2.465   2.831 -0.4679  0.4584 -0.5746
  929SOL    HW1 2786   2.339   2.453   2.827 -0.9707 -2.0441 -1.4883
  929SOL    HW2 2787   2.478   2.476   2.732 -5.0703 -0.3452  1.3186
  930SOL     OW 2788   2.216   1.977   1.084  0.0908  0.1152  0.1036
  930SOL    HW1 2789   2.222   1.954   1.181  1.5920 -0.6068 -0.0986
  930SOL    HW2 2790   2.271   2.055   1.055  0.9821 -0.0671  1.3733
  931SOL     OW 2791   0.548   1.722   2.604  0.3809 -0.0321  0.1508
  931SOL    HW1 2792   0.592   1.727   2.696  0.3550  0.2161 -1.5412
  931SOL    HW2 2793   0.584   1.638   2.557 -3.2721  1.1725 -3.4138
  932SOL     OW 2794   0.472   0.099   2.948 -0.3931 -0.2246  0.3149
  932SOL    HW1 2795   0.567   0.107   2.905 -1.4888  1.0551 -0.5702
  932SOL    HW2 2796   0.458  -0.001   2.970 -1.1857 -1.0903  0.6378
  933SOL     OW 2797   1.040   0.804   2.987  0.2258 -0.4067  0.1837
  933SOL    HW1 2798   1.102   0.819   3.073  0.2407 -3.3370  0.9258
  933SOL    HW2 2799   1.017   0.893   2.932  2.8921 -0.1879 -1.3112
  934SOL     OW 2800   0.842   2.993   2.719 -0.1163 -1.0666  0.0295
  934SOL    HW1 2801   0.892   2.932   2.651 -0.6866  0.1954  1.3426
  934SOL    HW2 2802   0.838   2.959   2.818 -0.7067 -0.2492  1.8337
  935SOL     OW 2803   3.086   0.497   0.821  0.1114 -0.2212  0.7670
  935SOL    HW1 2804   3.119   0.440   0.747 -0.6669  1.4868 -1.0040
  935SOL    HW2 2805   2.996   0.548   0.804 -2.3648  1.5233  0.6783
  936SOL     OW 2806   1.074   2.933   0.175 -0.2121  0.3309 -0.1322
  936SOL    HW1 2807   1.127   2.970   0.093 -0.0317  1.0330  0.0115
  936SOL    HW2 2808   1.094   2.830   0.187 -0.3546  1.9395 -0.2609
  937SOL     OW 2809   1.915   2.622   2.096 -0.0999  0.4383 -0.3617
  937SOL    HW1 2810   1.849   2.695   2.130 -0.1377  0.1084 -0.4874
  937SOL    HW2 2811   1.932   2.630   1.995  1.2367 -2.0941 -1.2016
  938SOL     OW 2812   2.802   2.161   1.480 -0.4592  0.0023 -0.1081
  938SOL    HW1 2813   2.756   2.250   1.501  1.5899 -2.0267  2.2261
  938SOL    HW2 2814   2.853   2.125   1.563  2.5400  0.7535 -2.2894
  939SOL     OW 2815   2.788   1.088   2.486  0.4681 -0.4482  0.0208
  939SOL    HW1 2816   2.850   1.002   2.487 -2.2851 -2.0139  1.0733
  939SOL    HW2 2817   2.768   1.119   2.585  0.0370 -1.6059  1.3482
  940SOL     OW 2818   1.062   0.492   2.645  0.3253  0.1229 -0.2756
  940SOL    HW1 2819   1.085   0.387   2.650  2.5026 -2.7846  2.2349
  940SOL    HW2 2820   0.955   0.507   2.653 -4.6757  3.0367  1.1988
  941SOL     OW 2821   0.064   2.837   2.211  0.0868  0.2058 -0.1895
  941SOL    HW1 2822   0.053   2.729   2.211 -0.0354  1.9815 -2.3295
  941SOL    HW2 2823   0.122   2.874   2.288 -0.4506 -2.4323 -1.5299
  942SOL     OW 2824   0.048   0.067   2.512  0.1342 -0.1813  0.0101
  942SOL    HW1 2825   0.103   0.072   2.599  1.5494  0.5516 -2.7393
  942SOL    HW2 2826   0.041   0.159   2.464 -0.1195  1.7938  0.0648
  943SOL     OW 2827   2.080   1.581   2.431 -0.1315 -0.3047 -0.1201
  943SOL    HW1 2828   2.124   1.550   2.345  1.5279  0.8317 -3.2582
  943SOL    HW2 2829   2.098   1.524   2.517 -1.0930 -2.1194  3.0927
  944SOL     OW 2830   2.157   2.411   1.474 -0.4576  0.1602  0.1655
  944SOL    HW1 2831   2.251   2.456   1.508  3.9003  1.6889 -1.5570
  944SOL    HW2 2832   2.118   2.346   1.544  0.8829 -0.2594  0.9666
  945SOL     OW 2833   0.572   1.428   0.370 -0.4685  0.3931  0.2710
  945SOL    HW1 2834   0.625   1.479   0.294  2.1011  0.5358 -0.1061
  945SOL    HW2 2835   0.617   1.336   0.391  1.2034 -0.9640  0.1848
  946SOL     OW 2836   0.416   1.007   2.542 -0.3811  0.5443 -0.2356
  946SOL    HW1 2837   0.330   0.962   2.502 -0.3466 -2.7656  2.0984
  946SOL    HW2 2838   0.407   1.104   2.560 -0.3746 -1.2986  1.3839
  947SOL     OW 2839   1.475   0.519   0.118  0.2704 -0.2985  0.1529
  947SOL    HW1 2840   1.449   0.531   0.021 -0.8260  1.0903  2.7238
  947SOL    HW2 2841   1.414   0.449   0.167 -1.7163 -2.5185  0.7966
  948SOL     OW 2842   1.947   3.080   2.197 -0.3047  0.1767 -0.5672
  948SOL    HW1 2843   1.935   3.062   2.093  1.7882 -1.8951 -0.0892
  948SOL    HW2 2844   1.938   2.990   2.248 -1.8499 -1.5696  1.5332
  949SOL     OW 2845   0.622   2.540   0.490  0.0655 -0.1216 -0.4608
  949SOL    HW1 2846   0.639   2.637   0.450 -0.2851  0.4375  1.4759
  949SOL    HW2 2847   0.676   2.517   0.578 -2.7009  0.3189  1.0438
  950SOL     OW 2848   0.305   2.119   3.079 -0.1954 -0.5176 -0.4627
  950SOL    HW1 2849   0.211   2.159   3.092  0.6531 -0.0902  1.1130
  950SOL    HW2 2850   0.310   2.018   3.057  1.8323 -2.0425  0.6294
  951SOL     OW 2851   1.189   2.800   2.757  0.2002 -0.2519  0.5489
  951SOL    HW1 2852   1.212   2.832   2.662  0.2773 -1.7930 -1.8271
  951SOL    HW2 2853   1.267   2.816   2.827  3.1192 -2.8948  1.3069
  952SOL     OW 2854   0.112   1.641   0.466  0.1169  0.2024 -0.1242
  952SOL    HW1 2855   0.176   1.727   0.456 -0.6871  1.4364 -0.0662
  952SOL    HW2 2856   0.094   1.606   0.565 -1.2509  1.3857 -2.6744
  953SOL     OW 2857   2.589   1.776   0.202  0.3866  0.0531 -0.5226
  953SOL    HW1 2858   2.570   1.677   0.222 -1.2976 -1.2872  0.5581
  953SOL    HW2 2859   2.614   1.793   0.097 -1.0635  1.3862 -1.3566
  954SOL     OW 2860   2.157   0.566   0.990 -0.4333 -0.6936  0.4198
  954SOL    HW1 2861   2.135   0.558   0.892 -1.0370  0.1326 -0.1715
  954SOL    HW2 2862   2.261   0.557   1.009  1.1482  0.6606  1.4200
  955SOL     OW 2863   0.279   2.658   1.304  0.5092  0.5119 -0.3491
  955SOL    HW1 2864   0.173   2.670   1.316 -1.2793  1.9716 -0.2096
  955SOL    HW2 2865   0.313   2.670   1.206 -0.4277  0.2855  1.1539
  956SOL     OW 2866   2.779   2.448   2.489 -0.2204 -0.2821  0.5267
  956SOL    HW1 2867   2.773   2.345   2.493  1.7904  3.4331  3.2203
  956SOL    HW2 2868   2.787   2.489   2.397 -1.0505 -1.6162 -0.9700
  957SOL     OW 2869   1.542   2.033   2.705  0.1968 -1.0011  0.0458
  957SOL    HW1 2870   1.537   1.930   2.742 -3.9204  0.0163  2.4923
  957SOL    HW2 2871   1.551   2.043   2.604  0.4912  1.2845  1.9758
  958SOL     OW 2872   2.654   2.344   2.984  0.0126 -0.3512  0.4381
  958SOL    HW1 2873   2.570   2.374   2.927 -4.0665  0.5877  0.0625
  958SOL    HW2 2874   2.625   2.262   3.042 -3.2600  0.8063  1.3525
  959SOL     OW 2875   0.292   2.783   0.033  0.1860  0.4435 -1.0233
  959SOL    HW1 2876   0.192   2.760   0.054  0.5137  0.1014 -1.0216
  959SOL    HW2 2877   0.342   2.694   0.009 -1.7298  2.1578  0.3431
  960SOL     OW 2878   1.984   0.495   1.933 -0.0734  0.3815 -0.4424
  960SOL    HW1 2879   1.958   0.590   1.912 -0.0157 -0.0283  1.7406
  960SOL    HW2 2880   1.956   0.464   2.030 -0.2715 -0.0939  0.9631
  961SOL     OW 2881   2.580   1.821   1.064 -0.1424 -0.1175  0.6233
  961SOL    HW1 2882   2.521   1.890   1.013  1.0316 -1.7774  0.8548
  961SOL    HW2 2883   2.583   1.850   1.165  1.5885 -0.2953  0.4519
  962SOL     OW 2884   1.283   0.902   0.053 -0.3740  0.0685  0.5653
  962SOL    HW1 2885   1.278   0.959  -0.036 -2.1572  0.0322 -2.5257
  962SOL    HW2 2886   1.297   0.956   0.142  0.5976 -1.7377  1.0536
  963SOL     OW 2887   2.304   2.620   1.882  0.5352  0.7669 -0.4735
  963SOL    HW1 2888   2.307   2.535   1.940  1.9796  0.3967 -2.5070
  963SOL    HW2 2889   2.318   2.713   1.927  0.3670 -0.7982  0.1656
  964SOL     OW 2890   2.424   0.361   1.656  0.3914  0.1452 -0.2003
  964SOL    HW1 2891   2.508   0.410   1.685  0.4053  1.5160 -3.9812
  964SOL    HW2 2892   2.432   0.317   1.566  0.4162  3.9342  0.4676
  965SOL     OW 2893   2.615   3.001   0.175  0.2539 -0.4799  0.2211
  965SOL    HW1 2894   2.660   2.942   0.104  1.9614 -2.2513  3.3447
  965SOL    HW2 2895   2.525   3.026   0.151 -0.6966  2.1109  0.6400
  966SOL     OW 2896   2.542   2.570   2.232  0.6122  0.8551 -0.5095
  966SOL    HW1 2897   2.449   2.525   2.247  0.7378 -0.5650 -2.0193
  966SOL    HW2 2898   2.537   2.671   2.235  1.4082 -0.7854  3.4746
  967SOL     OW 2899   2.752   2.790   2.454  0.2885 -0.2358 -0.5588
  967SOL    HW1 2900   2.793   2.716   2.393  0.2901  0.4064 -0.6254
  967SOL    HW2 2901   2.821   2.860   2.483  0.4553  3.9666  0.0507
  968SOL     OW 2902   2.006   1.066   2.697  0.6074  0.7526 -0.1654
  968SOL    HW1 2903   1.996   1.153   2.637  1.1018 -0.1135 -2.1659
  968SOL    HW2 2904   1.997   0.976   2.646  0.7669 -1.7970 -4.3702
  969SOL     OW 2905   2.756   2.340   1.123  0.0359  0.0228  0.3073
  969SOL    HW1 2906   2.681   2.316   1.055  1.3925 -1.9332 -1.6541
  969SOL    HW2 2907   2.830   2.267   1.134  2.2760  1.5093 -0.8094
  970SOL     OW 2908   1.108   2.172   1.773  0.0689  0.4219  0.0161
  970SOL    HW1 2909   1.002   2.170   1.759 -1.6701  2.2458  0.9516
  970SOL    HW2 2910   1.130   2.175   1.877  1.9571  0.1656  0.1092
  971SOL     OW 2911   2.827   2.060   1.917  0.0410  0.4437  0.0630
  971SOL    HW1 2912   2.813   2.149   1.967 -0.6620 -0.3575  4.2235
  971SOL    HW2 2913   2.884   2.072   1.831 -0.0924  1.1324 -0.8729
  972SOL     OW 2914   2.046   2.386   0.263 -1.0502 -0.2656  0.3006
  972SOL    HW1 2915   2.019   2.297   0.222 -2.4365  0.0878  2.8174
  972SOL    HW2 2916   2.066   2.380   0.363  1.9879  1.3500 -2.1994
  973SOL     OW 2917   1.230   1.071   1.968 -0.3387 -0.2097  0.2583
  973SOL    HW1 2918   1.171   1.057   1.881  1.1477  3.7000 -1.3858
  973SOL    HW2 2919   1.265   1.168   1.978 -2.2118 -1.8884 -3.1213
  974SOL     OW 2920   1.633   0.569   1.910  0.1012 -0.3215 -0.4294
  974SOL    HW1 2921   1.705   0.619   1.855  2.2231  1.0466  1.1419
  974SOL    HW2 2922   1.558   0.631   1.937  0.6685 -1.3648  0.1271
  975SOL     OW 2923   2.344   3.056   3.091 -0.3336 -0.1246 -0.1497
  975SOL    HW1 2924   2.307   2.955   3.103  0.2125  0.4144 -2.0750
  975SOL    HW2 2925   2.389   3.065   2.997 -1.1197  0.3827  1.3007
  976SOL     OW 2926   1.942   2.857   2.357  0.0036  0.3090  0.1793
  976SOL    HW1 2927   1.843   2.837   2.331 -2.9717  0.1425 -0.2606
  976SOL    HW2 2928   1.963   2.829   2.460 -0.3717  2.2777  0.3256
  977SOL     OW 2929   0.486   0.637   1.043  0.0919  0.7524 -0.1434
  977SOL    HW1 2930   0.391   0.635   1.015  3.3480 -0.4421  1.6162
  977SOL    HW2 2931   0.555   0.579   0.988  2.2927  0.6825 -0.5994
   3.10000   3.10000   3.10000
