1000 SPC/Fw water molecules t=   0.36000 step= 360
 2931
    1SOL     OW    1   2.537   0.311   2.548  0.1869  0.0146  0.7195
    1SOL    HW1    2   2.529   0.207   2.544 -2.4629 -1.5291 -0.7110
    1SOL    HW2    3   2.551   0.349   2.641 -2.4883 -0.1546  0.8684
    2SOL     OW    4   2.706   3.020   1.400 -0.3365  0.0956  0.8016
    2SOL    HW1    5   2.789   3.077   1.360  0.4913  1.0038  1.3592
    2SOL    HW2    6   2.646   3.084   1.458 -2.7464  1.9382  2.2526
    3SOL     OW    7   2.711   2.583   0.413  0.4576  0.3057 -0.6341
    3SOL    HW1    8   2.705   2.478   0.409  0.6674 -0.3042  2.2074
    3SOL    HW2    9   2.787   2.608   0.482  1.5376 -1.2885  0.9142
    4SOL     OW   10   1.342   1.479   2.381  0.1120 -0.4026 -0.2144
    4SOL    HW1   11   1.243   1.486   2.368 -0.5728 -0.1582 -1.3069
    4SOL    HW2   12   1.371   1.392   2.433  0.4145 -1.8761  0.1492
    5SOL     OW   13   1.210   1.491   3.016 -0.3075  0.1356  0.2387
    5SOL    HW1   14   1.271   1.558   3.069 -0.5155 -1.0501 -0.3384
    5SOL    HW2   15   1.114   1.522   3.004  0.0653 -0.9580 -1.2197
    6SOL     OW   16   0.012   1.794   2.892  0.2554 -0.4853 -0.6705
    6SOL    HW1   17  -0.041   1.846   2.966 -0.2779 -3.2529  1.1092
    6SOL    HW2   18   0.008   1.689   2.908 -1.6632  0.0795  0.8397
    7SOL     OW   19   2.554   0.886   1.142 -0.3343  0.1234  0.0975
    7SOL    HW1   20   2.469   0.839   1.183  1.4706 -0.9606 -2.9854
    7SOL    HW2   21   2.549   0.889   1.036  0.6487 -1.7736 -1.9623
    8SOL     OW   22   0.423   0.633   1.553 -0.6355 -0.0870 -0.6697
    8SOL    HW1   23   0.496   0.560   1.577 -1.6861  0.2845  1.5862
    8SOL    HW2   24   0.360   0.604   1.477 -0.3950 -0.2696  2.2734
    9SOL     OW   25   1.175   0.972   2.271 -0.1734  0.1287 -0.1882
    9SOL    HW1   26   1.232   1.047   2.233  0.1790 -2.0930 -1.4439
    9SOL    HW2   27   1.095   0.950   2.200 -1.9950  0.1456 -2.5127
   10SOL     OW   28   0.746   1.326   1.237  0.1463  0.5460  0.1537
   10SOL    HW1   29   0.640   1.326   1.255  1.6035  1.4880  1.6063
   10SOL    HW2   30   0.785   1.420   1.233 -2.9593  2.6711  1.7867
   11SOL     OW   31   2.344   2.630   0.948 -0.1565  0.6780 -0.0429
   11SOL    HW1   32   2.322   2.656   1.045  1.6119  0.9425  3.7956
   11SOL    HW2   33   2.444   2.615   0.926 -1.1236  0.7903  1.1266
   12SOL     OW   34   1.447   0.909   0.422  0.0060  0.6202 -0.2455
   12SOL    HW1   35   1.422   0.935   0.324 -1.7790  0.7127 -0.2052
   12SOL    HW2   36   1.400   0.821   0.448 -0.0857  0.4025  0.6482
   13SOL     OW   37   2.518   0.661   1.845  0.0797  0.1487  0.3969
   13SOL    HW1   38   2.414   0.663   1.859 -1.0006  1.4561  0.2893
   13SOL    HW2   39   2.543   0.588   1.776 -0.3993  1.0729 -2.8519
   14SOL     OW   40   1.935   0.020   0.639 -0.0377  0.4395  0.5957
   14SOL    HW1   41   1.855   0.078   0.599  1.3610 -0.4219 -1.1567
   14SOL    HW2   42   1.903  -0.046   0.717  1.9957 -0.4153  1.0291
   15SOL     OW   43   1.962   2.011   2.858 -0.5071  0.3122 -0.3150
   15SOL    HW1   44   1.926   2.105   2.890 -0.8621 -0.0683 -0.8543
   15SOL    HW2   45   1.908   1.973   2.776 -1.4343 -3.6581  0.0153
   16SOL     OW   46   1.623   1.735   0.003 -0.4369  0.7250 -0.4011
   16SOL    HW1   47   1.639   1.631   0.007 -2.2669 -0.6004 -3.8250
   16SOL    HW2   48   1.700   1.792   0.044  1.0196 -0.6883  2.1061
   17SOL     OW   49   0.112   0.456   0.173 -0.6644  1.0598  0.3209
   17SOL    HW1   50   0.204   0.497   0.151  0.7129 -1.1877 -1.1052
   17SOL    HW2   51   0.046   0.469   0.094 -2.3826 -0.4679  1.7904
   18SOL     OW   52   0.978   2.907   2.198  0.0385 -0.0374 -0.6740
   18SOL    HW1   53   0.906   2.840   2.166 -2.4578 -1.6183 -0.0456
   18SOL    HW2   54   1.068   2.894   2.153 -2.7698 -0.9021  1.9482
   19SOL     OW   55   0.496   0.896   1.964  0.4346 -1.0465  0.3187
   19SOL    HW1   56   0.459   0.935   2.051  1.0064  0.7237 -1.6711
   19SOL    HW2   57   0.595   0.906   1.947  0.7568  0.1874 -0.9451
   20SOL     OW   58   0.211   2.799   0.829 -0.3364  0.3980 -1.0254
   20SOL    HW1   59   0.135   2.835   0.768  2.7754  0.6929 -0.2730
   20SOL    HW2   60   0.303   2.814   0.783 -0.4754 -1.1785 -2.0109
   21SOL     OW   61   2.758   0.204   2.142  0.0915  0.2641  0.1081
   21SOL    HW1   62   2.730   0.128   2.079 -1.7087 -0.1112  0.5720
   21SOL    HW2   63   2.783   0.166   2.233 -0.0343 -0.3729  0.0320
   22SOL     OW   64   2.309   0.200   3.095 -0.2819  0.9599  0.4783
   22SOL    HW1   65   2.319   0.095   3.075 -1.2866 -2.5085  0.8420
   22SOL    HW2   66   2.210   0.229   3.092  0.2793  1.9552 -0.8017
   23SOL     OW   67   2.803   0.662   0.661  0.4193  0.0211  0.5282
   23SOL    HW1   68   2.836   0.574   0.611 -0.9125 -1.8459 -1.3286
   23SOL    HW2   69   2.768   0.733   0.594  0.5611 -3.2177 -1.5894
   24SOL     OW   70   0.171   1.897   0.448 -0.5195 -0.2963  0.2626
   24SOL    HW1   71   0.071   1.905   0.416  0.8536  1.9936 -1.8623
   24SOL    HW2   72   0.247   1.920   0.379 -3.0703  2.8855 -0.5397
   25SOL     OW   73   2.252   0.473   0.189  0.0629 -0.1548  0.6713
   25SOL    HW1   74   2.299   0.384   0.203  0.0555  2.1269 -4.6067
   25SOL    HW2   75   2.244   0.495   0.088  0.4784 -0.9944 -1.3108
   26SOL     OW   76   2.494   2.195   2.099 -0.2177 -0.2777 -0.3853
   26SOL    HW1   77   2.570   2.234   2.159  1.8193 -0.0302  0.9555
   26SOL    HW2   78   2.521   2.100   2.067 -2.1362  0.8749  0.3420
   27SOL     OW   79   0.679   2.944   0.101 -0.3218  0.3562  0.2762
   27SOL    HW1   80   0.774   2.986   0.099  0.7387 -1.5172 -1.6770
   27SOL    HW2   81   0.621   2.961   0.019  0.8671  2.1290  0.7323
   28SOL     OW   82   1.570   0.158   0.279 -0.6055  0.2040 -0.0689
   28SOL    HW1   83   1.632   0.121   0.203  1.1323 -0.4001 -0.6483
   28SOL    HW2   84   1.602   0.250   0.317  1.4436 -2.7432 -0.5091
   29SOL     OW   85   2.048   0.595   0.320  0.2541 -0.5752  0.6414
   29SOL    HW1   86   2.046   0.699   0.352 -0.1190  2.7446  0.1237
   29SOL    HW2   87   2.131   0.565   0.271 -0.6000 -0.9511 -0.5353
   30SOL     OW   88   0.129   2.022   0.943 -0.0170 -0.4836  0.0154
   30SOL    HW1   89   0.123   2.028   0.840  1.0484  2.0935  1.0968
   30SOL    HW2   90   0.047   2.079   0.976 -0.9441 -1.2999 -2.8939
   31SOL     OW   91   2.115   0.003   2.302 -0.1442 -0.1942  0.4376
   31SOL    HW1   92   2.092   0.005   2.405 -1.5257  0.7754  1.3655
   31SOL    HW2   93   2.027  -0.017   2.248 -1.4416 -0.1293  1.0277
   32SOL     OW   94   2.895   0.166   0.141  0.0484  0.5007  0.2792
   32SOL    HW1   95   2.860   0.097   0.207 -1.1053  1.6304 -1.0411
   32SOL    HW2   96   2.988   0.207   0.168  0.7441  2.9769  1.0297
   33SOL     OW   97   0.956   0.315   0.475 -0.3475  0.3497  0.2459
   33SOL    HW1   98   0.884   0.236   0.457 -0.4509  0.7500 -0.3879
   33SOL    HW2   99   1.029   0.300   0.545  1.7233 -1.3080  2.6633
   34SOL     OW  100   0.416   2.861   1.076 -0.5785 -0.6968  0.3211
   34SOL    HW1  101   0.358   2.824   0.997 -1.6339  0.4389 -0.9995
   34SOL    HW2  102   0.520   2.848   1.066  0.9094 -0.4648  3.3070
   35SOL     OW  103   0.051   0.052   1.849 -0.0818  0.2540 -0.0991
   35SOL    HW1  104   0.053  -0.041   1.894  0.0860 -1.1427  1.2165
   35SOL    HW2  105  -0.015   0.054   1.767 -2.5763  0.3227 -1.0598
   36SOL     OW  106   1.934   1.141   1.802 -0.2425 -0.6023 -0.0159
   36SOL    HW1  107   2.009   1.107   1.742  0.4942 -3.1075 -1.8579
   36SOL    HW2  108   1.970   1.227   1.849  0.4881  0.6965  0.7852
   37SOL     OW  109   1.193   0.248   0.940  0.4682 -0.0978  0.6115
   37SOL    HW1  110   1.253   0.317   0.988  0.5970 -1.1727  1.4139
   37SOL    HW2  111   1.186   0.164   1.001  2.1068  0.6702 -1.5216
   38SOL     OW  112   1.084   2.684   2.411 -0.6339  0.2302  0.2280
   38SOL    HW1  113   1.057   2.590   2.443 -1.6167  2.5748 -0.3452
   38SOL    HW2  114   0.997   2.736   2.376 -2.7322  0.1137 -1.2993
   39SOL     OW  115   2.306   1.405   3.011 -0.2112 -0.4318  0.0707
   39SOL    HW1  116   2.395   1.361   3.000 -0.4054  0.3059 -0.2270
   39SOL    HW2  117   2.267   1.386   3.105  1.2801  0.1766 -0.7152
   40SOL     OW  118   2.114   2.538   2.506 -0.8140 -0.0003  0.0520
   40SOL    HW1  119   2.064   2.609   2.555 -0.1945 -1.4981 -0.0174
   40SOL    HW2  120   2.040   2.484   2.463  0.9721 -1.3160  1.1664
   41SOL     OW  121   2.917   0.700   2.746 -0.3347 -0.5566  0.3690
   41SOL    HW1  122   2.842   0.737   2.807  3.7905  1.1153 -0.6255
   41SOL    HW2  123   2.915   0.598   2.736 -0.9728  1.3798  0.3964
   42SOL     OW  124   1.779   1.747   0.594 -0.2800  0.3877 -0.8209
   42SOL    HW1  125   1.749   1.656   0.552  1.4222  2.3209 -3.4941
   42SOL    HW2  126   1.826   1.798   0.520 -0.3742  0.7639 -1.0021
   43SOL     OW  127   0.446   1.763   1.234 -0.0009  0.5660 -0.6399
   43SOL    HW1  128   0.414   1.714   1.321 -0.9395  0.9858 -1.1854
   43SOL    HW2  129   0.377   1.765   1.155  0.1176 -2.4220 -3.2956
   44SOL     OW  130   1.773   2.562   0.018  0.5526 -0.1111  0.0970
   44SOL    HW1  131   1.797   2.590  -0.079 -1.8521 -1.8916 -0.1952
   44SOL    HW2  132   1.854   2.542   0.073 -1.3259  1.4164 -1.9858
   45SOL     OW  133   0.290   1.933   2.586 -0.1170 -0.2341  0.7353
   45SOL    HW1  134   0.242   1.926   2.493  0.0709 -0.0485  0.0640
   45SOL    HW2  135   0.353   1.851   2.602 -1.0459 -1.8455  0.0877
   46SOL     OW  136   1.148   0.637   0.231 -0.1801  0.2867  0.2763
   46SOL    HW1  137   1.215   0.713   0.205  2.6281 -2.5384 -0.6470
   46SOL    HW2  138   1.049   0.665   0.230  0.1145 -0.5167  1.4822
   47SOL     OW  139   0.233   2.452   1.597 -0.5867 -0.1665 -0.3715
   47SOL    HW1  140   0.304   2.376   1.593  0.8876 -2.5494 -1.9710
   47SOL    HW2  141   0.198   2.484   1.502  0.3871  0.5262  3.3474
   48SOL     OW  142   2.567   0.586   0.168  0.2997  0.1372 -0.3064
   48SOL    HW1  143   2.549   0.566   0.274 -1.6937 -1.7116  0.0456
   48SOL    HW2  144   2.656   0.641   0.166  2.7619  4.5942  1.3182
   49SOL     OW  145   0.344   0.813   1.748  0.3524 -0.4957 -0.0243
   49SOL    HW1  146   0.409   0.854   1.822  2.3226  1.4712 -1.2052
   49SOL    HW2  147   0.386   0.738   1.689 -0.3551 -0.7278  0.8522
   50SOL     OW  148   1.712   1.081   0.384 -0.0317  0.0332 -0.1651
   50SOL    HW1  149   1.689   0.987   0.353 -0.8683  4.4917 -0.8215
   50SOL    HW2  150   1.647   1.117   0.453  1.2964 -0.2945  1.0101
   51SOL     OW  151   3.012   1.887   0.359 -0.3130 -0.2207 -0.4368
   51SOL    HW1  152   3.023   1.909   0.256 -2.5570  0.7332 -2.5091
   51SOL    HW2  153   2.957   1.801   0.374  0.1475 -2.0165 -1.5454
   52SOL     OW  154   0.787   1.978   0.508  0.6527 -0.0769 -1.3606
   52SOL    HW1  155   0.698   2.015   0.553 -0.3417 -0.2669 -2.7924
   52SOL    HW2  156   0.828   1.895   0.554 -0.3002 -0.3321  0.5860
   53SOL     OW  157   0.017   0.358   1.555 -0.2641  0.0311  0.0801
   53SOL    HW1  158  -0.075   0.329   1.590 -1.0543 -0.6975  1.3772
   53SOL    HW2  159   0.021   0.449   1.510  0.4224 -1.9261  3.2587
   54SOL     OW  160   1.755   0.464   3.048  0.0171  0.5456 -0.2568
   54SOL    HW1  161   1.809   0.428   3.132  1.3450  0.5914  3.1850
   54SOL    HW2  162   1.662   0.495   3.073 -0.9227  3.0333 -1.7704
   55SOL     OW  163   0.712   2.967   0.582  0.0136 -0.1091 -0.4531
   55SOL    HW1  164   0.677   3.064   0.609  4.5317  2.4704  0.6210
   55SOL    HW2  165   0.802   2.972   0.534  0.5743  1.6318 -2.5637
   56SOL     OW  166   0.462   1.563   3.009  0.0493  0.5320 -0.0167
   56SOL    HW1  167   0.431   1.623   3.082 -1.9244 -0.9747 -3.0813
   56SOL    HW2  168   0.392   1.484   2.995  0.5958 -0.8620  0.9898
   57SOL     OW  169   1.795   2.416   2.675  0.3341  0.1756  0.2904
   57SOL    HW1  170   1.857   2.417   2.592  0.5644  0.8896  0.8687
   57SOL    HW2  171   1.718   2.484   2.660  1.7866  1.9943 -1.2621
   58SOL     OW  172   0.627   0.427   1.130  0.0977 -0.4607 -0.0691
   58SOL    HW1  173   0.573   0.513   1.092  3.7467 -1.1639 -0.6616
   58SOL    HW2  174   0.555   0.351   1.144 -0.0731  1.3673  0.7500
   59SOL     OW  175   0.438   2.408   2.711 -0.2442  0.0764  0.4086
   59SOL    HW1  176   0.448   2.308   2.701 -1.6268  1.0549  3.1926
   59SOL    HW2  177   0.504   2.450   2.780  0.3758  0.2107  1.9607
   60SOL     OW  178   2.293   2.119   2.286 -0.1839 -0.3220 -0.0218
   60SOL    HW1  179   2.363   2.158   2.217  0.2867 -1.5084 -0.9200
   60SOL    HW2  180   2.300   2.165   2.378 -1.0939 -2.2661 -0.1011
   61SOL     OW  181   1.404   0.634   0.501 -0.6629  0.1150  0.9663
   61SOL    HW1  182   1.303   0.652   0.514 -2.4005 -2.3573 -0.4087
   61SOL    HW2  183   1.443   0.636   0.404 -0.3284  2.1216 -1.5597
   62SOL     OW  184   2.637   1.824   3.055  0.0907 -0.2568 -0.8858
   62SOL    HW1  185   2.621   1.722   3.077  3.9720 -1.2719 -0.7499
   62SOL    HW2  186   2.713   1.841   2.991 -1.9935 -0.7367  1.1544
   63SOL     OW  187   0.513   0.855   0.159  0.1207  0.2122  0.1828
   63SOL    HW1  188   0.495   0.957   0.142 -1.3828 -0.4506  0.3421
   63SOL    HW2  189   0.547   0.845   0.257 -0.9318  1.7854  0.4985
   64SOL     OW  190   0.103   0.479   2.520  0.0238  0.8716  0.2013
   64SOL    HW1  191   0.127   0.553   2.581 -5.2432 -0.5650 -1.0755
   64SOL    HW2  192   0.107   0.518   2.423 -0.1305  0.8056  4.0972
   65SOL     OW  193   0.195   1.478   0.639 -0.9384  0.0413 -0.5970
   65SOL    HW1  194   0.226   1.566   0.689 -0.3333 -0.4495  0.2341
   65SOL    HW2  195   0.274   1.433   0.588  4.2186  0.8889  1.6457
   66SOL     OW  196   2.516   0.412   0.661  0.3933  0.0714  0.0166
   66SOL    HW1  197   2.471   0.480   0.726 -3.2088  0.0649  0.7744
   66SOL    HW2  198   2.497   0.315   0.687 -0.9641  2.9492 -3.7344
   67SOL     OW  199   0.494   2.512   1.376 -0.1598  0.1402  0.9822
   67SOL    HW1  200   0.568   2.543   1.442  0.6527 -1.7842 -1.0957
   67SOL    HW2  201   0.486   2.407   1.361 -2.5472 -0.8241 -2.0423
   68SOL     OW  202   1.043   1.099   2.476  0.0236 -0.4087  0.0505
   68SOL    HW1  203   1.077   1.018   2.417  1.4533 -0.0908 -0.3592
   68SOL    HW2  204   0.984   1.161   2.417  0.5881  3.3986  2.4037
   69SOL     OW  205   0.762   2.724   2.128  0.2729  0.4571  0.5293
   69SOL    HW1  206   0.801   2.631   2.156 -3.4000 -0.8099 -0.6897
   69SOL    HW2  207   0.656   2.729   2.137 -5.0638  2.1871 -1.0243
   70SOL     OW  208   0.652   0.267   2.748  0.3252  0.1846  0.1698
   70SOL    HW1  209   0.665   0.334   2.824 -0.0493  1.6685  0.9778
   70SOL    HW2  210   0.606   0.179   2.781 -0.2882 -1.9318 -0.2383
   71SOL     OW  211   1.132   1.795   0.342 -0.1299 -0.2567 -0.0543
   71SOL    HW1  212   1.050   1.734   0.359  0.1069  1.9796  0.9591
   71SOL    HW2  213   1.146   1.816   0.239  2.7652  1.5847 -1.3570
   72SOL     OW  214   1.818   0.148   2.096  0.0701  0.6720 -0.8799
   72SOL    HW1  215   1.877   0.177   2.016 -0.3348 -1.0347 -0.3614
   72SOL    HW2  216   1.833   0.050   2.115 -0.4224  1.4101 -1.8719
   73SOL     OW  217   2.753   2.218   2.513 -0.4555  0.4299  0.5276
   73SOL    HW1  218   2.759   2.124   2.461  0.9873 -2.9450 -4.2945
   73SOL    HW2  219   2.768   2.208   2.617  0.7360  0.6050 -0.1741
   74SOL     OW  220   2.741   2.960   2.029 -0.3933 -0.1296 -0.2896
   74SOL    HW1  221   2.668   2.949   2.102  2.7736 -1.4092 -1.5520
   74SOL    HW2  222   2.833   2.984   2.072 -0.1426  1.1188 -0.7536
   75SOL     OW  223   0.907   0.741   1.028 -0.0847  0.3220  0.0346
   75SOL    HW1  224   0.816   0.791   1.010  2.7198 -2.5830  0.1527
   75SOL    HW2  225   0.953   0.774   1.117  0.3489  0.0285  1.2387
   76SOL     OW  226   1.741   1.247   2.592 -0.0429 -0.1591  0.0464
   76SOL    HW1  227   1.655   1.195   2.615  2.0709 -0.6217 -1.4539
   76SOL    HW2  228   1.741   1.338   2.635 -0.4603  1.1401  1.0782
   77SOL     OW  229   2.930   0.989   0.976  0.2352 -0.0948  1.2049
   77SOL    HW1  230   2.894   0.895   0.947 -0.3899 -1.6325 -3.0790
   77SOL    HW2  231   2.970   0.999   1.070  0.0399  1.0492  2.1719
   78SOL     OW  232   1.965   1.414   1.521  0.2775  0.2955 -0.1008
   78SOL    HW1  233   2.059   1.378   1.490  1.8079  0.3079 -1.2088
   78SOL    HW2  234   1.884   1.375   1.461 -0.7149 -3.3136 -0.6787
   79SOL     OW  235   0.591   1.354   0.816  0.4227  0.3097  0.2287
   79SOL    HW1  236   0.513   1.411   0.849  1.9852 -0.9357  1.0897
   79SOL    HW2  237   0.575   1.318   0.720 -1.3179 -0.5204  0.2340
   80SOL     OW  238   0.656   0.498   1.590 -0.3984  0.0621 -0.0665
   80SOL    HW1  239   0.698   0.557   1.514 -0.8378 -0.6868 -0.1028
   80SOL    HW2  240   0.688   0.400   1.586  0.1344  1.7109  0.9098
   81SOL     OW  241   0.989   1.366   2.618 -0.3437  0.0148 -0.3229
   81SOL    HW1  242   1.029   1.269   2.630  4.0352 -2.1543 -0.9020
   81SOL    HW2  243   0.956   1.391   2.525 -0.6585  0.8414  0.5577
   82SOL     OW  244   0.960   2.966   1.547  0.3518 -0.1554  0.0371
   82SOL    HW1  245   1.020   2.952   1.465 -0.2025 -1.5860 -1.6997
   82SOL    HW2  246   0.870   2.921   1.535 -1.8411  0.8277  0.2049
   83SOL     OW  247   2.719   2.480   0.783 -1.0832 -0.8635 -0.5287
   83SOL    HW1  248   2.635   2.426   0.750 -1.3195  2.2856 -0.3382
   83SOL    HW2  249   2.714   2.587   0.772  2.7008  2.2565  2.4747
   84SOL     OW  250   0.687   3.095   2.407  0.2240 -0.2387 -0.4988
   84SOL    HW1  251   0.589   3.094   2.444 -0.8311 -1.4673 -1.6718
   84SOL    HW2  252   0.734   3.003   2.420 -1.5561  2.1948  0.7091
   85SOL     OW  253   0.431   1.683   1.518  0.3244 -0.0570 -0.0205
   85SOL    HW1  254   0.380   1.775   1.525 -1.3530 -0.1022  1.6255
   85SOL    HW2  255   0.432   1.633   1.612  0.1762  0.1250  2.7873
   86SOL     OW  256   0.362   0.990   1.497  0.1207  0.1391  0.3075
   86SOL    HW1  257   0.343   0.926   1.416 -0.3286 -0.9834  0.9402
   86SOL    HW2  258   0.400   0.936   1.578 -1.3348 -0.2699  0.4814
   87SOL     OW  259   1.522   0.627   0.239  0.1226  0.5966 -0.3781
   87SOL    HW1  260   1.594   0.703   0.240 -1.4831 -0.2746  1.9391
   87SOL    HW2  261   1.492   0.593   0.144 -0.0928 -1.3228 -0.9669
   88SOL     OW  262   1.561   1.296   0.193  0.3594  0.6499 -0.4247
   88SOL    HW1  263   1.607   1.219   0.243 -2.4978  1.1769 -0.8863
   88SOL    HW2  264   1.461   1.318   0.221  1.3195 -0.2264  0.6831
   89SOL     OW  265   3.072   0.437   0.562  1.3329  0.1869 -0.3317
   89SOL    HW1  266   3.135   0.355   0.562 -1.3273  0.2198 -0.7317
   89SOL    HW2  267   2.968   0.409   0.546 -0.8479 -0.2848 -3.1730
   90SOL     OW  268   0.953   1.643   3.012  0.1349 -0.5900  0.0464
   90SOL    HW1  269   0.872   1.631   3.074 -1.2339 -0.3462 -0.7798
   90SOL    HW2  270   0.918   1.650   2.914 -0.2876  1.0362  0.7751
   91SOL     OW  271   1.273   1.482   1.790 -0.4998  0.3332  0.2430
   91SOL    HW1  272   1.275   1.573   1.839 -0.4954 -0.5067 -3.2246
   91SOL    HW2  273   1.366   1.435   1.781  0.7593  0.6784 -0.4983
   92SOL     OW  274   3.074   1.054   1.209 -0.7470 -0.3844 -0.3002
   92SOL    HW1  275   3.154   1.100   1.160 -0.2871 -0.5313  0.4870
   92SOL    HW2  276   3.107   1.018   1.303 -1.5356 -4.4325  0.3256
   93SOL     OW  277   0.007   2.743   0.063 -0.2206 -0.6592 -0.4299
   93SOL    HW1  278  -0.010   2.735  -0.038 -0.5841 -1.3770  0.7107
   93SOL    HW2  279   0.049   2.656   0.096  0.6230  2.7695 -0.1749
   94SOL     OW  280   1.530   1.379   1.685  0.3679  0.6238  0.2080
   94SOL    HW1  281   1.561   1.282   1.687  1.6619  0.6875 -0.4088
   94SOL    HW2  282   1.593   1.450   1.731 -1.9813  1.7058  2.5635
   95SOL     OW  283   1.308   2.477   2.954 -0.1827  0.5232  0.7569
   95SOL    HW1  284   1.240   2.468   3.029 -2.2668  1.8434  0.8776
   95SOL    HW2  285   1.316   2.389   2.899  0.8305 -2.7251  0.2962
   96SOL     OW  286   0.553   1.988   1.205  0.9391  0.1582 -0.4907
   96SOL    HW1  287   0.492   2.029   1.135 -0.2984 -0.2970  1.1767
   96SOL    HW2  288   0.525   1.893   1.236 -0.3046 -0.5643 -1.5177
   97SOL     OW  289   0.379   1.492   2.529  0.0028  0.5584 -0.0058
   97SOL    HW1  290   0.276   1.486   2.548 -1.3949  1.7192  1.9144
   97SOL    HW2  291   0.429   1.575   2.568 -1.2042  0.0462  0.4162
   98SOL     OW  292   1.983   1.649   1.286 -0.1667 -0.8173 -0.7566
   98SOL    HW1  293   1.969   1.583   1.209 -2.6270  2.3863  2.0128
   98SOL    HW2  294   2.023   1.607   1.371  0.3443 -1.7131  0.1391
   99SOL     OW  295   2.504   2.137   1.366  0.0277 -0.2746  0.3568
   99SOL    HW1  296   2.480   2.218   1.429 -1.7354  2.0434 -2.2923
   99SOL    HW2  297   2.457   2.045   1.386 -0.6845 -1.9441 -0.0780
  100SOL     OW  298   2.322   0.375   2.023 -0.4370 -0.0266 -0.0207
  100SOL    HW1  299   2.270   0.340   2.107 -0.2322  2.3463  2.3459
  100SOL    HW2  300   2.425   0.400   2.050  2.7951  1.5202  2.3861
  101SOL     OW  301   0.371   1.513   0.273 -0.1073 -0.3607 -0.2736
  101SOL    HW1  302   0.437   1.555   0.340  2.1421 -0.1990  0.5084
  101SOL    HW2  303   0.312   1.585   0.227  1.6738  2.7022 -0.2966
  102SOL     OW  304   2.303   1.078   0.810 -0.2202 -0.5805  0.0709
  102SOL    HW1  305   2.241   1.005   0.773  0.3638  0.5536  1.8604
  102SOL    HW2  306   2.363   1.125   0.736  1.3482  1.2609 -2.7440
  103SOL     OW  307   2.302   0.039   0.405 -0.4382 -0.0092  0.0142
  103SOL    HW1  308   2.362   0.108   0.348  1.8324  1.0433 -1.9310
  103SOL    HW2  309   2.345  -0.005   0.489 -0.7288  1.5994 -0.5167
  104SOL     OW  310   0.060   1.860   2.107 -0.0667 -0.5820  0.2810
  104SOL    HW1  311   0.096   1.797   2.029  2.3170  3.0435  1.7582
  104SOL    HW2  312  -0.044   1.847   2.116 -2.2601  0.5231  0.0606
  105SOL     OW  313   1.215   1.983   0.817  0.6863  0.1374 -0.5832
  105SOL    HW1  314   1.146   2.012   0.745  1.1444 -1.6682 -1.5294
  105SOL    HW2  315   1.267   1.899   0.790  0.3185  0.1782 -0.1501
  106SOL     OW  316   2.082   0.458   1.375  0.0620  0.6904  0.6386
  106SOL    HW1  317   2.025   0.377   1.406 -2.5155  2.3894 -2.4296
  106SOL    HW2  318   2.059   0.549   1.414  2.0342 -0.3202  0.5431
  107SOL     OW  319   1.802   3.015   1.063  0.0520 -0.3341  0.2869
  107SOL    HW1  320   1.878   3.063   1.113 -0.2561  0.4759 -1.4236
  107SOL    HW2  321   1.748   2.943   1.123 -0.5017 -1.2054  1.3171
  108SOL     OW  322   0.780   2.688   1.281  0.4329  1.4933  0.2260
  108SOL    HW1  323   0.747   2.745   1.365 -0.4525  0.0599  3.1789
  108SOL    HW2  324   0.870   2.640   1.300  1.0245 -1.4998  2.2614
  109SOL     OW  325   2.174   0.110   0.803  0.5704 -0.0650  0.9897
  109SOL    HW1  326   2.080   0.076   0.770 -0.5185  1.2796 -1.1295
  109SOL    HW2  327   2.190   0.096   0.905  1.5022 -1.4994  1.6999
  110SOL     OW  328   0.457   2.818   2.709  0.3874  0.1301 -0.9101
  110SOL    HW1  329   0.501   2.896   2.650 -0.0533 -0.2031 -1.8171
  110SOL    HW2  330   0.523   2.737   2.728 -1.4746 -0.5127 -1.6297
  111SOL     OW  331   1.307   0.542   2.274 -0.6148  0.1128  0.2615
  111SOL    HW1  332   1.215   0.578   2.299  1.4433 -0.6774 -2.7674
  111SOL    HW2  333   1.339   0.462   2.330 -0.2051 -0.6074 -2.6965
  112SOL     OW  334   1.751   0.516   1.411 -0.1479 -0.1144  0.3921
  112SOL    HW1  335   1.754   0.515   1.305  0.9957  0.8839  0.0632
  112SOL    HW2  336   1.736   0.420   1.447  1.1884 -1.8553  0.5904
  113SOL     OW  337   2.328   1.615   1.719 -0.1443  0.3069  0.7656
  113SOL    HW1  338   2.376   1.522   1.718  0.7240 -1.2967 -1.6123
  113SOL    HW2  339   2.312   1.649   1.816 -2.3189  0.0973 -1.7344
  114SOL     OW  340   0.304   0.548   1.317 -0.0373 -0.1615  0.1197
  114SOL    HW1  341   0.347   0.632   1.270  1.4256 -1.0226 -1.3970
  114SOL    HW2  342   0.259   0.491   1.243  0.1123  1.1533  0.9724
  115SOL     OW  343   2.617   1.585   1.217  0.1838 -0.5271 -0.0200
  115SOL    HW1  344   2.648   1.490   1.245  0.2843 -0.8188 -1.8526
  115SOL    HW2  345   2.678   1.628   1.144  2.5593  0.4098 -0.4308
  116SOL     OW  346   1.808   1.041   0.804 -0.2492 -0.2745  0.6048
  116SOL    HW1  347   1.751   0.982   0.738 -0.8365 -1.8310 -2.4596
  116SOL    HW2  348   1.792   1.147   0.801  0.7544  1.2869 -0.2154
  117SOL     OW  349   1.114   0.347   0.702 -0.3612 -0.2707  0.6032
  117SOL    HW1  350   1.135   0.311   0.799  1.2884 -1.0150 -1.1494
  117SOL    HW2  351   1.107   0.450   0.697  0.2284  1.2804 -0.2036
  118SOL     OW  352   1.117   1.099   1.147  0.4105  0.3091 -0.4316
  118SOL    HW1  353   1.077   1.011   1.188  2.0015  1.9447  0.5161
  118SOL    HW2  354   1.096   1.180   1.205 -4.1004 -0.0385  0.5936
  119SOL     OW  355   1.825   1.616   2.087 -0.1263  0.1824  0.5346
  119SOL    HW1  356   1.794   1.712   2.123  0.3561  0.0831  0.0688
  119SOL    HW2  357   1.922   1.597   2.082 -2.5687 -0.4014  3.0325
  120SOL     OW  358   2.975   2.811   0.304 -0.4501 -0.3652  0.4493
  120SOL    HW1  359   3.039   2.801   0.221  2.7460 -0.9335  1.3724
  120SOL    HW2  360   2.962   2.723   0.355 -0.0034  1.6203 -1.3061
  121SOL     OW  361   1.997   0.716   2.209 -0.4113  0.1868  0.7330
  121SOL    HW1  362   2.043   0.763   2.133  1.6940  0.3944  1.3810
  121SOL    HW2  363   1.998   0.610   2.201  0.5000 -0.2706  1.5726
  122SOL     OW  364   2.722   2.596   1.324 -0.0699  0.3355 -1.0343
  122SOL    HW1  365   2.740   2.589   1.216  2.0304  0.4364  0.1967
  122SOL    HW2  366   2.696   2.508   1.366 -2.9635 -0.0051 -0.9183
  123SOL     OW  367   1.729   0.054   1.723  0.4944  0.0751 -0.1005
  123SOL    HW1  368   1.734  -0.022   1.652  1.3300  1.3713  0.2305
  123SOL    HW2  369   1.821   0.074   1.774 -1.1268 -2.0636  0.7699
  124SOL     OW  370   0.108   0.481   1.075 -0.4161  0.2969 -0.6318
  124SOL    HW1  371   0.084   0.570   1.119  1.4692 -1.0631  0.9523
  124SOL    HW2  372   0.081   0.487   0.980  2.0258  0.3794  2.6059
  125SOL     OW  373   0.884   1.790   0.661  0.9227 -0.5754  0.5765
  125SOL    HW1  374   0.983   1.755   0.650  0.6575  1.2978 -0.1847
  125SOL    HW2  375   0.862   1.815   0.757  1.6630 -2.6682 -0.0166
  126SOL     OW  376   1.917   2.381   2.399  0.3368 -0.5828 -0.0290
  126SOL    HW1  377   1.974   2.343   2.323 -1.1528  0.8887 -0.8979
  126SOL    HW2  378   1.831   2.324   2.407  0.7636 -1.3035  0.6318
  127SOL     OW  379   0.778   0.958   0.216 -0.1019  0.1801  0.5337
  127SOL    HW1  380   0.834   0.997   0.294 -0.8714 -1.1108  0.3057
  127SOL    HW2  381   0.807   0.858   0.198 -1.5129 -0.3418  2.8601
  128SOL     OW  382   0.945   0.166   1.437 -0.1804 -0.3367 -0.5083
  128SOL    HW1  383   0.886   0.231   1.378 -2.1511  2.7887 -0.3207
  128SOL    HW2  384   0.941   0.068   1.406  0.2087 -0.4598 -1.5684
  129SOL     OW  385   1.886   0.676   1.855  0.5415 -0.5389 -0.2717
  129SOL    HW1  386   1.903   0.693   1.758  0.3046  3.0363  1.8981
  129SOL    HW2  387   1.882   0.768   1.913 -0.6008  0.9840 -2.5946
  130SOL     OW  388   1.318   2.126   1.013 -0.3416  0.7115  0.3830
  130SOL    HW1  389   1.287   2.055   0.939 -1.9486  0.1579  1.0178
  130SOL    HW2  390   1.347   2.213   0.968  1.8754  1.8604  0.7901
  131SOL     OW  391   0.015   1.524   1.364  0.2226 -0.1304 -0.0466
  131SOL    HW1  392  -0.038   1.436   1.342 -2.0816 -0.8216  0.4057
  131SOL    HW2  393   0.117   1.508   1.390  0.3655  0.3127  2.2449
  132SOL     OW  394   1.986   2.429   0.537  0.9333 -0.4330  0.5160
  132SOL    HW1  395   1.890   2.399   0.552  1.5910  1.0554 -1.1142
  132SOL    HW2  396   2.041   2.414   0.621  0.2670  2.0179 -1.0686
  133SOL     OW  397   1.856   2.268   2.915  0.3592  0.1002 -0.2168
  133SOL    HW1  398   1.839   2.319   3.003  2.1914 -0.5518 -1.2535
  133SOL    HW2  399   1.845   2.323   2.827 -2.0720 -0.5732 -4.0679
  134SOL     OW  400   2.720   2.360   1.622  0.3366 -0.0958  0.5702
  134SOL    HW1  401   2.651   2.356   1.700  0.9411 -2.2000 -0.3804
  134SOL    HW2  402   2.792   2.433   1.636  0.8193 -0.3135 -1.4383
  135SOL     OW  403   0.732   1.524   2.603  0.0975 -0.6276  0.0261
  135SOL    HW1  404   0.694   1.443   2.644  0.4460  3.5941 -2.0856
  135SOL    HW2  405   0.786   1.514   2.510 -2.0424  1.7997  0.4469
  136SOL     OW  406   1.204   2.024   0.466 -0.0633  0.1455 -0.4195
  136SOL    HW1  407   1.133   2.052   0.534  0.5740 -0.1011  0.1413
  136SOL    HW2  408   1.171   1.935   0.420 -1.5437  0.8226  1.1908
  137SOL     OW  409   0.407   1.076   2.163 -0.1057  0.7917 -0.8532
  137SOL    HW1  410   0.319   1.104   2.210  1.9889  3.5683 -3.5600
  137SOL    HW2  411   0.472   1.028   2.227 -0.1330  1.1396 -0.0450
  138SOL     OW  412   2.459   1.502   0.183 -0.3421 -0.2069 -0.3053
  138SOL    HW1  413   2.360   1.512   0.158  0.5948  1.4526  0.4936
  138SOL    HW2  414   2.476   1.422   0.243 -0.0556  0.4272 -1.3074
  139SOL     OW  415   1.801   2.642   1.199  0.0405  0.6779  0.2335
  139SOL    HW1  416   1.706   2.596   1.181 -0.7133 -0.6695  0.1178
  139SOL    HW2  417   1.869   2.569   1.223  1.8038 -1.4034 -0.2046
  140SOL     OW  418   2.993   2.962   2.479 -0.2503  0.4553  0.4838
  140SOL    HW1  419   3.027   2.865   2.510 -1.1510 -0.8786  1.0471
  140SOL    HW2  420   3.064   3.033   2.509  1.2685  1.2019 -1.1368
  141SOL     OW  421   1.231   1.662   1.572  0.1732  0.4027  1.0145
  141SOL    HW1  422   1.185   1.749   1.597  0.0068 -2.2965  1.4582
  141SOL    HW2  423   1.222   1.592   1.644  1.9866  1.6447 -0.6382
  142SOL     OW  424   1.582   0.619   2.237  0.5671  0.1480 -0.5856
  142SOL    HW1  425   1.608   0.589   2.137  1.0646 -0.5759 -1.2704
  142SOL    HW2  426   1.480   0.618   2.263  3.7843 -0.2100  0.6686
  143SOL     OW  427   2.720   0.884   0.507  0.0877 -0.2028 -0.4179
  143SOL    HW1  428   2.772   0.925   0.427  0.2048 -0.8109  1.8386
  143SOL    HW2  429   2.737   0.949   0.590 -0.6590 -1.9116  1.1879
  144SOL     OW  430   2.992   1.272   1.337 -0.8348  0.5645  0.1737
  144SOL    HW1  431   2.974   1.228   1.430  0.4108 -0.6793  0.7846
  144SOL    HW2  432   3.036   1.199   1.274 -1.2481 -1.2194  1.4188
  145SOL     OW  433   1.054   1.857   0.055 -0.5220 -0.3950  0.1422
  145SOL    HW1  434   1.038   1.940  -0.009  0.6181  1.9689  0.0670
  145SOL    HW2  435   1.012   1.767   0.019 -1.1899  0.5781 -0.5262
  146SOL     OW  436   2.486   0.636   1.517 -0.4625  0.0164  0.5595
  146SOL    HW1  437   2.463   0.549   1.468 -0.4748 -0.8257 -1.2637
  146SOL    HW2  438   2.409   0.701   1.493  0.1962 -2.3749  0.4874
  147SOL     OW  439   1.045   2.512   0.600  0.4798 -0.4140 -0.3670
  147SOL    HW1  440   1.020   2.557   0.509  1.7387 -0.7900  2.8954
  147SOL    HW2  441   1.143   2.472   0.597  0.8371 -1.7217  1.5774
  148SOL     OW  442   1.642   1.449   3.087 -0.5376  0.0783 -0.1144
  148SOL    HW1  443   1.659   1.365   3.021 -2.4192 -0.6461 -1.2873
  148SOL    HW2  444   1.628   1.409   3.183  2.0751  2.7597 -0.7781
  149SOL     OW  445   0.695   1.422   1.946  0.1888  0.0649 -0.3787
  149SOL    HW1  446   0.611   1.410   2.002  0.5998 -0.6106  0.2501
  149SOL    HW2  447   0.722   1.342   1.887  1.7960  1.0581 -0.1719
  150SOL     OW  448   2.952   1.269   0.925  0.5695 -0.3467 -0.9079
  150SOL    HW1  449   3.023   1.300   0.994 -3.0507  0.4865  1.4210
  150SOL    HW2  450   2.938   1.165   0.938 -0.9827 -1.2163  2.8823
  151SOL     OW  451   0.199   0.771   2.160 -0.0296 -0.2997 -0.2589
  151SOL    HW1  452   0.165   0.860   2.109 -1.6308  0.6487 -0.7195
  151SOL    HW2  453   0.271   0.717   2.101  1.0103  1.6936  1.5182
  152SOL     OW  454   1.388   1.736   1.260 -0.3743 -0.3933  0.1345
  152SOL    HW1  455   1.410   1.812   1.323 -1.1306  0.6089 -3.1237
  152SOL    HW2  456   1.286   1.738   1.239 -0.4911  2.7009 -0.8613
  153SOL     OW  457   0.036   1.536   0.149 -0.0247 -0.0586  0.2154
  153SOL    HW1  458   0.007   1.439   0.161  1.1400 -0.9451 -1.3440
  153SOL    HW2  459   0.063   1.576   0.246  0.8986 -0.6407  2.7885
  154SOL     OW  460   2.378   1.870   2.817 -0.3560 -0.5511  0.2964
  154SOL    HW1  461   2.400   1.773   2.825  0.8295  1.2471  0.9120
  154SOL    HW2  462   2.404   1.903   2.723 -2.2350 -1.9652  0.4428
  155SOL     OW  463   2.500   1.257   0.330  0.4096  0.0907 -0.2679
  155SOL    HW1  464   2.597   1.252   0.285  0.5515  0.4020 -1.7300
  155SOL    HW2  465   2.440   1.169   0.310 -2.9850  0.5598 -0.2092
  156SOL     OW  466   2.555   0.943   0.879 -0.2782  0.2716  0.1126
  156SOL    HW1  467   2.457   0.982   0.867  0.1049  1.2457 -0.6042
  156SOL    HW2  468   2.617   1.019   0.849  2.0112  0.0372 -0.9927
  157SOL     OW  469   1.216   2.996   2.978 -0.7553 -0.6749 -0.2019
  157SOL    HW1  470   1.286   2.982   2.906 -2.0518  2.4731  1.0905
  157SOL    HW2  471   1.229   3.094   3.010  0.7672 -0.6931 -0.3461
  158SOL     OW  472   1.041   1.855   2.016 -0.0885 -0.5906 -0.2389
  158SOL    HW1  473   1.089   1.875   2.107  0.6323  2.1906 -1.1825
  158SOL    HW2  474   0.937   1.870   2.035 -3.1915  0.0353 -1.2421
  159SOL     OW  475   0.857   0.407   1.281  0.0602  0.4880 -0.0229
  159SOL    HW1  476   0.844   0.500   1.324 -0.1786  2.0213 -1.4354
  159SOL    HW2  477   0.773   0.392   1.218 -0.7210 -0.4527  0.3182
  160SOL     OW  478   1.477   2.481   1.640  0.0493  0.3536 -0.1223
  160SOL    HW1  479   1.491   2.576   1.600 -1.8667  1.2270  1.9639
  160SOL    HW2  480   1.556   2.410   1.615  1.7753  0.3287  1.2753
  161SOL     OW  481   0.172   2.904   0.351  0.1618 -0.0480  0.2270
  161SOL    HW1  482   0.082   2.858   0.375  6.1226 -0.6383 -0.5489
  161SOL    HW2  483   0.171   3.000   0.320  2.6508 -1.3944 -0.7353
  162SOL     OW  484   2.601   1.909   0.521 -0.0350 -0.4212  0.5316
  162SOL    HW1  485   2.579   1.851   0.435  1.5233  1.1638 -2.6532
  162SOL    HW2  486   2.573   1.852   0.603 -1.5146  1.4708 -0.3387
  163SOL     OW  487   1.961   2.662   0.724 -0.1372 -0.2393 -0.5631
  163SOL    HW1  488   1.921   2.690   0.631 -0.9849 -1.5213 -0.0350
  163SOL    HW2  489   2.031   2.586   0.718 -0.4808  1.1845  1.0298
  164SOL     OW  490   3.045   0.302   1.205  0.1194 -0.2664  0.5301
  164SOL    HW1  491   3.103   0.367   1.152 -0.5954 -2.2703  2.0666
  164SOL    HW2  492   3.066   0.300   1.307 -2.7072  0.2523  0.0131
  165SOL     OW  493   0.998   1.462   0.679 -0.1148 -0.2781  0.1637
  165SOL    HW1  494   0.926   1.478   0.749  0.6848  1.0339  1.5409
  165SOL    HW2  495   0.987   1.525   0.600  0.0377 -2.8142 -0.3013
  166SOL     OW  496   1.442   1.072   1.752  0.6853 -0.0954  0.4854
  166SOL    HW1  497   1.372   1.020   1.802  0.2713  2.0979 -0.8862
  166SOL    HW2  498   1.527   1.092   1.809 -1.5285 -0.0215 -1.8390
  167SOL     OW  499   0.850   1.938   1.529 -0.5088 -0.2178 -0.2004
  167SOL    HW1  500   0.823   1.979   1.622 -1.5173  0.2621 -0.0019
  167SOL    HW2  501   0.793   1.857   1.507  2.0428 -0.2434  0.2065
  168SOL     OW  502   1.575   2.377   0.166  0.4972  0.4324  0.2529
  168SOL    HW1  503   1.646   2.405   0.097  1.7310  2.1982  1.2454
  168SOL    HW2  504   1.608   2.305   0.234  1.9889 -3.4561 -0.5022
  169SOL     OW  505   0.178   2.605   2.219  0.2522  0.5144  0.1504
  169SOL    HW1  506   0.247   2.560   2.159 -2.6583  1.6607  0.6833
  169SOL    HW2  507   0.156   2.548   2.300  2.1547 -0.1553 -0.7112
  170SOL     OW  508   1.263   0.287   1.914 -0.1440  0.1309  0.4324
  170SOL    HW1  509   1.283   0.260   2.014 -2.3963  1.2107  0.4093
  170SOL    HW2  510   1.236   0.206   1.854 -0.0617 -0.1378 -2.6872
  171SOL     OW  511   0.244   0.771   2.434 -0.6978 -0.3505 -0.4081
  171SOL    HW1  512   0.149   0.779   2.481  1.3169 -1.8209  2.4706
  171SOL    HW2  513   0.234   0.768   2.328 -0.8944 -2.2333  3.6940
  172SOL     OW  514   0.872   1.156   2.924 -0.1934 -0.2200 -0.0234
  172SOL    HW1  515   0.968   1.184   2.942 -1.9957 -0.2808 -1.5940
  172SOL    HW2  516   0.851   1.127   2.827 -1.6640 -1.0097  0.8120
  173SOL     OW  517   0.651   2.680   0.149 -0.4302 -0.5677 -0.0364
  173SOL    HW1  518   0.646   2.776   0.114 -1.0267  0.1544 -1.9031
  173SOL    HW2  519   0.562   2.632   0.170  0.1230 -1.5395 -0.4822
  174SOL     OW  520   1.398   2.798   1.056  0.1512  0.3912  0.1163
  174SOL    HW1  521   1.402   2.884   0.994 -1.7617  2.5838 -2.7224
  174SOL    HW2  522   1.335   2.724   1.022 -0.6168  1.1925  0.3972
  175SOL     OW  523   0.395  -0.002   1.665  0.7035 -0.4559  0.1017
  175SOL    HW1  524   0.459   0.053   1.728  0.2238 -1.6519 -0.9466
  175SOL    HW2  525   0.327   0.066   1.627  1.2856 -0.1808  3.4465
  176SOL     OW  526   2.500   0.411   3.065 -0.2528  0.4011  0.2277
  176SOL    HW1  527   2.525   0.465   3.150  2.1992  1.7125 -4.2728
  176SOL    HW2  528   2.439   0.335   3.079  1.5084  1.7006 -4.1840
  177SOL     OW  529   0.394   0.362   0.937  0.0060 -0.9031  0.3584
  177SOL    HW1  530   0.444   0.290   0.988 -3.2469 -2.1756  1.6835
  177SOL    HW2  531   0.309   0.377   0.987 -0.6304  2.5264 -1.3806
  178SOL     OW  532   0.033   2.692   2.584  0.6915 -0.0937 -0.3944
  178SOL    HW1  533  -0.049   2.649   2.637  0.1705  2.1438 -0.3535
  178SOL    HW2  534   0.104   2.719   2.656  1.9648 -1.8135  1.0696
  179SOL     OW  535   0.023   1.695   1.173 -0.0622  0.1577  0.1711
  179SOL    HW1  536  -0.029   1.787   1.168 -0.6271  1.4987  1.0864
  179SOL    HW2  537   0.021   1.641   1.258 -0.7006  1.7255 -1.8557
  180SOL     OW  538   0.217   1.266   1.827  0.0425 -0.6013 -0.3706
  180SOL    HW1  539   0.309   1.255   1.793 -3.0281 -1.5400  0.9752
  180SOL    HW2  540   0.220   1.312   1.922 -0.8116 -1.3286  2.6837
  181SOL     OW  541   3.032   1.830   2.564  0.3736  0.2187  0.2006
  181SOL    HW1  542   3.128   1.830   2.512  3.5282 -1.6946  1.4981
  181SOL    HW2  543   2.957   1.872   2.513 -2.1890  1.5213  1.8323
  182SOL     OW  544   2.331   1.226   1.192  0.0246  0.4478 -0.6211
  182SOL    HW1  545   2.266   1.175   1.128 -2.2620  1.0670 -0.4807
  182SOL    HW2  546   2.343   1.328   1.167 -1.0140  3.7452 -3.2096
  183SOL     OW  547   1.492   2.272   2.544  0.2646 -0.1824 -0.4756
  183SOL    HW1  548   1.436   2.181   2.564  0.1514  0.9513  1.8255
  183SOL    HW2  549   1.587   2.259   2.499  1.4682  1.7484 -2.7132
  184SOL     OW  550   2.059   0.929   0.804  0.4935  0.0255  0.4320
  184SOL    HW1  551   1.963   0.973   0.808  1.3258  1.0656 -1.8849
  184SOL    HW2  552   2.063   0.850   0.872 -0.1823 -1.1219  2.0373
  185SOL     OW  553   1.647   2.670   2.101 -0.2254 -0.5013  0.3586
  185SOL    HW1  554   1.600   2.749   2.046  1.6995  2.3706  1.0871
  185SOL    HW2  555   1.627   2.676   2.201 -1.3559 -1.2742 -1.1590
  186SOL     OW  556   0.132   2.206   1.741 -0.6174 -0.1163 -0.3286
  186SOL    HW1  557   0.186   2.288   1.728 -0.2356 -2.1107 -0.1053
  186SOL    HW2  558   0.192   2.119   1.735 -1.8409 -1.7055  1.5443
  187SOL     OW  559   1.400   0.682   1.669 -0.5895  0.0545  0.1004
  187SOL    HW1  560   1.426   0.761   1.603 -2.1287  1.7313 -0.7527
  187SOL    HW2  561   1.430   0.704   1.769 -2.0057  0.9053 -0.5210
  188SOL     OW  562   2.764   2.797   1.541  0.3263  0.4408 -0.5109
  188SOL    HW1  563   2.725   2.888   1.512 -0.0513 -0.4017 -1.8369
  188SOL    HW2  564   2.744   2.726   1.472 -0.3108  1.4022  0.1344
  189SOL     OW  565   0.826   0.993   1.421  0.5701  0.1745 -0.4630
  189SOL    HW1  566   0.888   1.074   1.415 -0.4660 -0.3141  0.6542
  189SOL    HW2  567   0.793   0.958   1.334 -2.6193 -1.5299  1.8317
  190SOL     OW  568   1.504   1.715   1.574  0.0340  1.3263 -0.5408
  190SOL    HW1  569   1.408   1.684   1.560  1.3868 -1.9925  0.7554
  190SOL    HW2  570   1.506   1.774   1.660 -0.3414 -0.1600  3.1882
  191SOL     OW  571   1.002   0.783   1.556 -0.1275 -0.5710 -0.1371
  191SOL    HW1  572   1.030   0.686   1.583  2.2946  0.7768  1.6429
  191SOL    HW2  573   1.085   0.846   1.533  1.3042  0.6352  2.1045
  192SOL     OW  574   1.842   2.302   1.184 -0.0045  0.0913 -0.1235
  192SOL    HW1  575   1.744   2.265   1.179 -0.1402  0.3684 -0.2338
  192SOL    HW2  576   1.898   2.276   1.102 -1.3520 -1.2068 -3.1100
  193SOL     OW  577   0.517   0.555   0.387 -0.2252 -0.0718  0.5445
  193SOL    HW1  578   0.496   0.456   0.417  0.9942 -0.6577 -0.5443
  193SOL    HW2  579   0.564   0.555   0.296 -1.8559  0.0019 -2.1364
  194SOL     OW  580   0.307   0.820   1.236  0.1595  0.1506 -0.2670
  194SOL    HW1  581   0.213   0.777   1.228  0.4835  0.2103 -0.8410
  194SOL    HW2  582   0.320   0.894   1.168 -1.3535 -1.7766  0.7976
  195SOL     OW  583   0.958   2.911   0.444  0.1673  0.2337 -0.2288
  195SOL    HW1  584   0.986   2.821   0.404  1.2818 -1.6685 -2.5143
  195SOL    HW2  585   1.034   2.970   0.483  0.9522  0.3330  2.1153
  196SOL     OW  586   0.270   1.444   1.419  0.2877  0.5283  0.0849
  196SOL    HW1  587   0.349   1.508   1.452  1.3063 -0.0332  2.1158
  196SOL    HW2  588   0.259   1.359   1.479  1.6819 -0.6661 -1.6990
  197SOL     OW  589   0.870   2.027   0.257  0.4697  0.1048 -0.0874
  197SOL    HW1  590   0.853   2.031   0.361  0.9093  1.7100  0.5781
  197SOL    HW2  591   0.932   1.949   0.229  0.4100 -2.8911  1.2674
  198SOL     OW  592   0.264   1.250   0.255 -0.1402  0.0053 -0.3020
  198SOL    HW1  593   0.164   1.237   0.232 -2.6197 -0.9603  2.3077
  198SOL    HW2  594   0.288   1.355   0.265  0.7045  0.7081  1.5315
  199SOL     OW  595   2.270   0.364   2.538 -0.1668 -0.1711 -0.6349
  199SOL    HW1  596   2.226   0.312   2.609  2.2394  3.0597 -1.5154
  199SOL    HW2  597   2.371   0.376   2.555  1.0795  1.4263  0.2130
  200SOL     OW  598   3.096   2.936   0.740  0.1972  0.7850 -0.1100
  200SOL    HW1  599   3.004   2.959   0.700  1.3431  0.0698  0.0761
  200SOL    HW2  600   3.134   3.020   0.784  1.4505 -1.9581 -2.1195
  201SOL     OW  601   1.139   0.715   0.566 -0.0532  0.3621  0.7410
  201SOL    HW1  602   1.112   0.810   0.599  0.4965  0.8294 -1.1799
  201SOL    HW2  603   1.060   0.661   0.522  1.6068  1.6599  2.2522
  202SOL     OW  604   0.475   1.261   1.725  0.4281 -0.0140 -0.1576
  202SOL    HW1  605   0.520   1.241   1.635  0.3885  0.5191  2.5685
  202SOL    HW2  606   0.538   1.225   1.803  2.1106 -0.7582 -0.5718
  203SOL     OW  607   0.680   0.220   1.572  0.0057 -0.5675  0.7610
  203SOL    HW1  608   0.671   0.156   1.486 -2.3507 -0.8467 -0.7567
  203SOL    HW2  609   0.759   0.201   1.642  0.3583 -1.5739 -0.3082
  204SOL     OW  610   2.082   1.833   3.023  0.0302  0.0835  0.2899
  204SOL    HW1  611   2.050   1.731   3.017 -0.1018 -0.3927 -1.6098
  204SOL    HW2  612   2.036   1.883   2.937  1.0129  1.6187  0.4657
  205SOL     OW  613   1.853   1.886   0.076  0.0437 -0.0204 -0.0755
  205SOL    HW1  614   1.948   1.886   0.039 -1.2590 -2.6329  0.0327
  205SOL    HW2  615   1.799   1.976   0.055  1.2429 -0.9303 -0.1433
  206SOL     OW  616   2.562   2.831   0.413 -0.3637 -0.0304  0.4565
  206SOL    HW1  617   2.610   2.738   0.417 -1.2310  2.5146  0.2929
  206SOL    HW2  618   2.582   2.888   0.328 -0.4262  0.3631  1.5434
  207SOL     OW  619   0.634   1.735   2.898 -0.3548 -0.1595  0.1607
  207SOL    HW1  620   0.717   1.701   2.851 -0.8141  1.2383  0.0644
  207SOL    HW2  621   0.586   1.664   2.952  1.1025  2.0565 -0.9742
  208SOL     OW  622   1.024   1.503   1.446 -0.2531  0.6160  0.3531
  208SOL    HW1  623   0.964   1.547   1.369  0.1343  2.6353 -0.2251
  208SOL    HW2  624   1.110   1.564   1.471  0.3301  0.3897 -1.9746
  209SOL     OW  625   0.242   0.940   3.038  0.7874  0.1523 -0.3282
  209SOL    HW1  626   0.278   0.892   2.954  2.1471 -1.8137 -1.6772
  209SOL    HW2  627   0.232   0.876   3.120  0.1698  1.1569  0.0380
  210SOL     OW  628   1.722   0.504   1.126  0.1200 -0.0079  0.2212
  210SOL    HW1  629   1.684   0.590   1.082 -1.6582  1.6544 -0.2932
  210SOL    HW2  630   1.825   0.496   1.112 -0.8777  1.6260  2.3916
  211SOL     OW  631   2.171   1.049   1.667  0.0257  0.2694 -0.7830
  211SOL    HW1  632   2.243   1.015   1.728 -0.6536  3.0880  1.4563
  211SOL    HW2  633   2.222   1.110   1.593  1.5352 -0.8836 -0.8283
  212SOL     OW  634   0.029   0.961   1.467 -0.4407 -0.0096 -0.1764
  212SOL    HW1  635   0.102   1.033   1.486  0.3922 -2.5864  0.5723
  212SOL    HW2  636   0.054   0.869   1.502 -2.0459  3.1693 -1.0580
  213SOL     OW  637   2.729   0.352   0.263 -0.1141 -0.3178 -0.0198
  213SOL    HW1  638   2.780   0.290   0.206  0.2881 -0.2117  1.8132
  213SOL    HW2  639   2.696   0.446   0.227 -0.8358 -0.9744 -1.3333
  214SOL     OW  640   2.216   0.268   2.273 -0.2844 -0.2122  0.0866
  214SOL    HW1  641   2.225   0.309   2.370 -0.6308 -1.3156  0.5069
  214SOL    HW2  642   2.179   0.170   2.273 -0.6502  2.5713  0.9351
  215SOL     OW  643   1.672   2.277   2.069 -0.0232 -0.1777 -0.1149
  215SOL    HW1  644   1.761   2.321   2.040 -4.0930  1.5027  0.9625
  215SOL    HW2  645   1.622   2.336   2.138  1.8852  0.9559 -0.8046
  216SOL     OW  646   2.217   0.528   0.663 -0.4316 -0.2093  0.1929
  216SOL    HW1  647   2.207   0.438   0.608  0.6093  1.8384  1.5454
  216SOL    HW2  648   2.214   0.609   0.601  0.6891  0.5956 -0.5737
  217SOL     OW  649   0.778   2.796   2.418 -0.4537 -0.6429  1.0609
  217SOL    HW1  650   0.758   2.704   2.459  1.9009  0.4192 -2.4155
  217SOL    HW2  651   0.777   2.796   2.316 -1.2659  1.5927  5.2741
  218SOL     OW  652   1.923   1.418   0.082  1.0810 -0.4205 -0.2273
  218SOL    HW1  653   1.844   1.455   0.026  0.4806  0.7971  0.3909
  218SOL    HW2  654   1.899   1.389   0.179 -2.9022  0.4819 -1.3760
  219SOL     OW  655   2.386   1.319   2.530 -0.0505 -0.3754 -0.0886
  219SOL    HW1  656   2.418   1.260   2.455 -4.3163 -3.3261 -1.2443
  219SOL    HW2  657   2.381   1.263   2.621  0.4065 -0.4972 -1.6934
  220SOL     OW  658   1.478   1.037   1.260  0.2550  0.4907 -0.3032
  220SOL    HW1  659   1.575   1.065   1.287  1.5527 -1.3843  1.5768
  220SOL    HW2  660   1.440   1.100   1.184 -1.7154  0.2296  0.0313
  221SOL     OW  661   1.315   1.204   2.191  0.3531 -0.3493  0.1633
  221SOL    HW1  662   1.273   1.256   2.109  1.3552  0.9901 -1.1653
  221SOL    HW2  663   1.406   1.159   2.168  0.4048 -2.8967  1.9519
  222SOL     OW  664   1.216   0.070   1.146 -0.0910  0.4023 -0.0720
  222SOL    HW1  665   1.306   0.028   1.126  2.1869  1.1031  2.1399
  222SOL    HW2  666   1.231   0.158   1.197 -0.6028  2.1398  0.9081
  223SOL     OW  667   2.941   0.834   2.013  0.6384 -0.3178 -0.2800
  223SOL    HW1  668   2.923   0.834   2.115 -0.2143 -1.0863  0.2384
  223SOL    HW2  669   2.968   0.924   1.971  1.1152 -0.4617 -1.8117
  224SOL     OW  670   1.534   0.959   2.819 -0.3283 -0.4141  0.2189
  224SOL    HW1  671   1.550   0.885   2.750 -0.6577 -0.0050  1.7833
  224SOL    HW2  672   1.503   1.054   2.775 -1.0911  3.5420 -0.0358
  225SOL     OW  673   3.045   2.784   2.907 -0.0584 -0.2787  0.1772
  225SOL    HW1  674   2.998   2.722   2.832  0.3226 -1.5721 -1.5775
  225SOL    HW2  675   3.100   2.861   2.862 -2.1869  0.2889 -0.8714
  226SOL     OW  676   2.472   1.611   2.870 -0.1080 -0.0415  0.5157
  226SOL    HW1  677   2.498   1.580   2.775 -0.2632  0.5231  3.2707
  226SOL    HW2  678   2.410   1.551   2.923 -0.0684  0.9841 -0.9192
  227SOL     OW  679   0.863   0.115   2.987  0.0698  0.3826  0.3301
  227SOL    HW1  680   0.925   0.053   3.047  2.6720  1.5861 -2.0887
  227SOL    HW2  681   0.866   0.092   2.883  2.7379  0.9685 -1.1577
  228SOL     OW  682   2.358   0.584   2.838  0.1848  0.1111  0.7287
  228SOL    HW1  683   2.321   0.642   2.757 -2.4400 -1.1405  2.0866
  228SOL    HW2  684   2.416   0.504   2.805  0.3725  0.4678 -0.6609
  229SOL     OW  685   0.575   0.509   1.852 -0.0807  0.3085 -0.5984
  229SOL    HW1  686   0.579   0.455   1.767  1.4572 -0.9003  3.7673
  229SOL    HW2  687   0.628   0.593   1.858 -0.1515 -1.0291  1.8263
  230SOL     OW  688   1.889   1.239   2.159 -0.2813 -0.1872  0.5786
  230SOL    HW1  689   1.960   1.284   2.089  0.7360  2.6036  0.5021
  230SOL    HW2  690   1.796   1.281   2.139 -1.0196 -0.9793 -1.8953
  231SOL     OW  691   0.640   0.995   2.999  0.1524  0.2354 -0.1474
  231SOL    HW1  692   0.718   1.054   2.970 -0.7837 -0.2342  0.7642
  231SOL    HW2  693   0.600   1.017   3.096  2.9882  0.7223  1.0730
  232SOL     OW  694   2.499   0.032   2.730 -0.2262 -0.0795 -0.5805
  232SOL    HW1  695   2.543  -0.041   2.787  0.3552  0.9593 -0.8630
  232SOL    HW2  696   2.511   0.023   2.626 -2.2831  0.6173 -0.9179
  233SOL     OW  697   1.691   1.260   1.068  0.0264 -0.2902  0.4594
  233SOL    HW1  698   1.733   1.293   0.976 -0.4768  1.1444  0.0071
  233SOL    HW2  699   1.714   1.165   1.097  0.3995  0.3952  0.3075
  234SOL     OW  700   1.665   2.602   1.832  0.1456 -0.4323 -0.2508
  234SOL    HW1  701   1.650   2.606   1.933  0.0834 -0.3845 -1.0979
  234SOL    HW2  702   1.605   2.529   1.790  1.6493 -3.1961  0.3781
  235SOL     OW  703   0.132   3.017   2.901  0.3459  0.1909  0.0843
  235SOL    HW1  704   0.183   3.078   2.840  1.7984 -1.6703  1.1895
  235SOL    HW2  705   0.051   3.066   2.943 -1.8097 -0.4701  0.9579
  236SOL     OW  706   2.843   0.672   0.114  0.2399 -0.0828  0.4080
  236SOL    HW1  707   2.915   0.745   0.144 -1.0347  0.7064  2.1164
  236SOL    HW2  708   2.886   0.589   0.061  1.5438 -2.7487 -0.7397
  237SOL     OW  709   1.498   1.615   1.033 -0.1989  0.3091 -0.1806
  237SOL    HW1  710   1.597   1.609   1.013 -0.1522  2.2619 -1.9454
  237SOL    HW2  711   1.480   1.667   1.123 -1.3269 -1.4797 -1.0388
  238SOL     OW  712   1.802   1.343   0.815  0.3127 -0.2041  0.2837
  238SOL    HW1  713   1.878   1.323   0.749 -1.4341 -0.7302  1.1233
  238SOL    HW2  714   1.716   1.383   0.777  2.9848 -0.4808  1.0574
  239SOL     OW  715   2.073   0.247   2.733 -0.0944  0.2896  0.3704
  239SOL    HW1  716   2.155   0.243   2.792 -1.9855  1.6951 -0.8252
  239SOL    HW2  717   2.006   0.320   2.769 -0.5904 -2.0491  0.5325
  240SOL     OW  718   0.866   0.701   0.226  0.1502  0.0592 -0.5652
  240SOL    HW1  719   0.854   0.600   0.196  2.5055 -1.9426  3.2827
  240SOL    HW2  720   0.883   0.705   0.323  0.9718 -1.1285 -1.5674
  241SOL     OW  721   0.547   0.045   0.334  0.4706 -0.1842 -0.3241
  241SOL    HW1  722   0.578   0.021   0.243 -1.6029  1.1108 -0.0083
  241SOL    HW2  723   0.516  -0.037   0.397 -1.5718 -2.0142  1.7516
  242SOL     OW  724   0.694   2.447   1.145  0.0730 -0.0699 -0.0815
  242SOL    HW1  725   0.688   2.531   1.204  0.4300  1.8806  0.7074
  242SOL    HW2  726   0.780   2.447   1.085 -3.3337 -2.6753 -1.5441
  243SOL     OW  727   1.094   0.621   2.411  0.0867  0.7182 -0.2309
  243SOL    HW1  728   1.034   0.702   2.373  1.0543  1.3871 -0.5672
  243SOL    HW2  729   1.033   0.546   2.459 -0.4118  1.5829 -1.6651
  244SOL     OW  730   2.792   1.904   2.426  0.0223 -0.4575 -0.3212
  244SOL    HW1  731   2.812   1.884   2.326 -2.4104 -0.1965  2.5128
  244SOL    HW2  732   2.721   1.843   2.464 -0.2862 -0.2944 -0.5830
  245SOL     OW  733   2.465   0.738   2.131 -0.3085 -0.2641 -0.4521
  245SOL    HW1  734   2.497   0.773   2.226  0.2088 -1.3880  2.8857
  245SOL    HW2  735   2.524   0.766   2.053 -0.1417  0.5447  1.6082
  246SOL     OW  736   0.237   2.903   1.693  0.7677  0.1434 -0.1790
  246SOL    HW1  737   0.165   2.904   1.619 -0.2909  1.8443  1.4359
  246SOL    HW2  738   0.305   2.985   1.679  1.5932  0.6057 -0.4291
  247SOL     OW  739   2.169   0.557   3.029 -0.0464  0.0176  0.2502
  247SOL    HW1  740   2.240   0.551   2.949  1.6727 -0.7468 -1.4471
  247SOL    HW2  741   2.136   0.654   3.051  0.3213 -0.9070  0.2783
  248SOL     OW  742   2.186   1.849   1.623  0.4185  0.0322 -0.5309
  248SOL    HW1  743   2.264   1.787   1.656 -0.0193 -1.8003 -0.5674
  248SOL    HW2  744   2.102   1.842   1.687 -0.7204  0.5427  1.1342
  249SOL     OW  745   1.965   1.977   1.963 -0.3865  0.7385  0.5333
  249SOL    HW1  746   1.944   1.896   1.899 -1.6628 -1.9836  0.0789
  249SOL    HW2  747   2.065   2.009   1.953  0.3730  0.1161  0.9448
  250SOL     OW  748   1.015   0.652   1.844 -0.0362  0.0531 -0.0335
  250SOL    HW1  749   1.062   0.602   1.920 -0.2121  0.3602 -1.3940
  250SOL    HW2  750   1.060   0.634   1.755  2.6306  1.5882  1.3771
  251SOL     OW  751   3.043   1.560   2.574  0.9128 -0.2957 -0.2604
  251SOL    HW1  752   3.049   1.664   2.568  0.5812  0.7517  2.2918
  251SOL    HW2  753   2.947   1.523   2.566  0.9472 -0.2976 -1.3652
  252SOL     OW  754   1.498   0.913   1.534  0.1043 -0.1793  0.0504
  252SOL    HW1  755   1.510   0.961   1.442 -0.6142  0.8659 -1.3044
  252SOL    HW2  756   1.481   0.978   1.617 -1.0838  0.3600 -3.5019
  253SOL     OW  757   0.957   1.575   0.377 -0.0513  1.2413 -0.1083
  253SOL    HW1  758   1.033   1.495   0.382 -1.1328 -1.2520 -0.6742
  253SOL    HW2  759   0.865   1.529   0.358  1.1794 -0.2917 -4.2311
  254SOL     OW  760   2.000   2.180   1.591  0.0986  0.1558 -0.4536
  254SOL    HW1  761   1.950   2.151   1.504 -1.0386  1.2514 -0.6849
  254SOL    HW2  762   1.975   2.118   1.673 -0.9744 -0.3614  1.8883
  255SOL     OW  763   0.109   1.163   2.920 -0.3453 -0.0641  0.1249
  255SOL    HW1  764   0.173   1.246   2.912  1.1246  2.2213  2.4570
  255SOL    HW2  765   0.167   1.084   2.943  0.0255  3.1977 -0.3254
  256SOL     OW  766   2.791   1.370   1.836 -0.0463  0.7958 -0.1628
  256SOL    HW1  767   2.731   1.444   1.875  0.6483  0.3468 -1.3822
  256SOL    HW2  768   2.760   1.274   1.856  1.6525  0.2062  0.4977
  257SOL     OW  769   0.899   0.200   1.932  0.2228  0.0138  0.1318
  257SOL    HW1  770   0.941   0.259   1.857  0.6983 -0.5358  1.6211
  257SOL    HW2  771   0.911   0.097   1.914  0.0399  0.6709 -0.4591
  258SOL     OW  772   2.958   1.251   0.410 -0.2676  0.4795  0.4465
  258SOL    HW1  773   2.912   1.340   0.396  1.6990 -2.4656  2.7190
  258SOL    HW2  774   2.999   1.248   0.507  1.9350  1.6209  0.4600
  259SOL     OW  775   0.424   2.936   2.986  0.2745  0.7018 -0.4579
  259SOL    HW1  776   0.426   2.887   3.078 -0.8368  1.3500 -1.3581
  259SOL    HW2  777   0.383   2.873   2.913 -1.6121 -2.2193  0.9969
  260SOL     OW  778   2.655   0.789   2.780  0.0854  0.5917 -0.2123
  260SOL    HW1  779   2.591   0.812   2.699 -1.4564 -0.3508  0.6399
  260SOL    HW2  780   2.620   0.711   2.837  1.6322  1.9191  2.3007
  261SOL     OW  781   2.720   1.337   1.332  0.8394  0.7868  0.0826
  261SOL    HW1  782   2.680   1.271   1.265  0.5252  2.4146  1.1915
  261SOL    HW2  783   2.822   1.320   1.336  1.4751 -2.4990  0.2680
  262SOL     OW  784   1.466   2.906   2.030  0.1104 -0.2864 -0.2017
  262SOL    HW1  785   1.460   2.977   1.958 -1.9254 -2.5491 -0.3535
  262SOL    HW2  786   1.372   2.861   2.051 -0.3386  1.8124  0.6795
  263SOL     OW  787   0.886   0.774   2.310  0.3557 -0.1827  0.3662
  263SOL    HW1  788   0.841   0.679   2.296 -0.3031 -0.4496  1.4158
  263SOL    HW2  789   0.900   0.828   2.219 -0.7505  1.7926  1.3458
  264SOL     OW  790   2.257   0.744   0.491  0.0127  0.0922 -0.5432
  264SOL    HW1  791   2.168   0.790   0.496 -0.2412 -1.1707 -0.5892
  264SOL    HW2  792   2.330   0.808   0.467 -0.6997 -1.9425  1.4461
  265SOL     OW  793   0.874   2.300   2.693  0.0863 -0.4520 -0.0051
  265SOL    HW1  794   0.918   2.367   2.758  2.3067  0.2718  0.0275
  265SOL    HW2  795   0.801   2.246   2.747  2.0436  0.0847  0.2522
  266SOL     OW  796   1.344   1.706   0.052  0.3218 -0.0814  0.2967
  266SOL    HW1  797   1.291   1.787   0.092 -1.1818  0.3478 -0.0681
  266SOL    HW2  798   1.448   1.725   0.050  1.2378 -3.5894 -1.0695
  267SOL     OW  799   1.085   0.009   2.380  0.0678 -0.3689  0.2957
  267SOL    HW1  800   1.054  -0.071   2.317 -1.4093 -0.2028 -1.5387
  267SOL    HW2  801   1.021   0.092   2.385  1.0298  0.4337  1.9598
  268SOL     OW  802   0.655   1.162   1.018  0.1027  0.2342 -1.0083
  268SOL    HW1  803   0.703   1.211   1.098  0.2270 -1.0851  0.5243
  268SOL    HW2  804   0.635   1.223   0.940  0.8211 -0.2936  2.3157
  269SOL     OW  805   2.433   2.496   1.604 -0.5664 -0.6736 -0.1633
  269SOL    HW1  806   2.514   2.436   1.615  2.3293  0.9223 -1.3490
  269SOL    HW2  807   2.404   2.537   1.695 -0.8702 -1.4800  0.8647
  270SOL     OW  808   0.219   2.944   1.958 -0.2254  0.7994 -0.8320
  270SOL    HW1  809   0.242   2.927   1.858  2.7276 -1.0167 -0.4189
  270SOL    HW2  810   0.135   2.891   1.986  0.0947  1.8645  0.1456
  271SOL     OW  811   0.449   1.402   1.198  0.4602  0.0341  0.0026
  271SOL    HW1  812   0.423   1.403   1.100 -0.5538  0.0311  1.9643
  271SOL    HW2  813   0.366   1.393   1.259 -2.1290 -1.6437 -1.4366
  272SOL     OW  814   1.911   2.909   1.892  0.1358  0.6276 -0.1716
  272SOL    HW1  815   1.874   2.849   1.817 -0.3346 -0.9339 -0.2998
  272SOL    HW2  816   1.990   2.965   1.864 -0.8649 -0.9596  1.3943
  273SOL     OW  817   1.443   1.430   2.845 -0.7716 -0.4754 -0.5289
  273SOL    HW1  818   1.533   1.482   2.841 -1.7557  1.9328 -1.1786
  273SOL    HW2  819   1.415   1.413   2.944  1.8526  1.7661 -0.6599
  274SOL     OW  820   1.159   0.503   2.025 -0.6868 -0.3351 -0.2460
  274SOL    HW1  821   1.193   0.420   1.972  0.6406  0.4436  1.7096
  274SOL    HW2  822   1.228   0.537   2.100  1.5736  0.9978  2.4784
  275SOL     OW  823   0.627   2.061   2.004  0.1532  0.2221  0.1049
  275SOL    HW1  824   0.634   2.162   2.018 -1.7095 -1.3310 -1.2569
  275SOL    HW2  825   0.535   2.029   1.963 -0.4029 -1.1530 -0.3427
  276SOL     OW  826   2.160   0.990   2.805 -0.2503 -0.7500  0.1843
  276SOL    HW1  827   2.093   0.997   2.733 -1.1249  1.7095  1.4664
  276SOL    HW2  828   2.137   0.911   2.870  1.1137 -0.7386 -1.6136
  277SOL     OW  829   3.039   0.837   0.196  0.5460 -0.1904  0.3368
  277SOL    HW1  830   3.120   0.869   0.143 -1.8511  0.4165  2.5929
  277SOL    HW2  831   3.067   0.760   0.263 -0.2202  0.0992 -2.8419
  278SOL     OW  832   0.179   0.246   2.984 -0.3773  0.5876 -0.0700
  278SOL    HW1  833   0.241   0.176   3.044  1.1450 -4.9599 -0.6228
  278SOL    HW2  834   0.190   0.344   3.017  1.3687 -0.5423 -1.7074
  279SOL     OW  835   0.156   0.032   0.864 -0.1265  0.6427  0.4570
  279SOL    HW1  836   0.180   0.029   0.965  0.3254  2.7194 -1.0452
  279SOL    HW2  837   0.235   0.027   0.794  0.9681 -1.6250  0.0216
  280SOL     OW  838   1.661   2.940   2.529 -1.0282  0.6315  0.3772
  280SOL    HW1  839   1.726   3.020   2.505 -0.9259 -3.5058 -0.5545
  280SOL    HW2  840   1.560   2.965   2.518 -0.2807 -1.6325  2.1333
  281SOL     OW  841   0.581   0.966   2.334 -0.0388 -0.4034 -0.0083
  281SOL    HW1  842   0.580   0.876   2.282  1.0654  2.0723 -1.0982
  281SOL    HW2  843   0.548   0.960   2.429 -2.1418 -0.2111 -1.4381
  282SOL     OW  844   1.700   2.445   0.504  0.4732 -0.1418 -0.2175
  282SOL    HW1  845   1.669   2.376   0.431  1.4842  1.5421 -0.4025
  282SOL    HW2  846   1.628   2.524   0.508 -2.5354 -1.1883  0.7001
  283SOL     OW  847   1.186   0.968   0.738  0.2297  0.0508 -0.1342
  283SOL    HW1  848   1.208   0.895   0.806  1.2531 -0.5174  1.7544
  283SOL    HW2  849   1.122   1.038   0.783  1.6644 -0.6006  0.2564
  284SOL     OW  850   2.337   2.798   2.393  1.0432  0.0985  0.0481
  284SOL    HW1  851   2.388   2.881   2.366 -2.0516  3.5798  1.1966
  284SOL    HW2  852   2.346   2.776   2.493  1.0601  1.9386 -2.4094
  285SOL     OW  853   1.348   2.970   2.528 -0.6970 -0.1426  0.4095
  285SOL    HW1  854   1.386   3.011   2.436  1.3677  2.7052 -1.1922
  285SOL    HW2  855   1.281   3.032   2.578  0.5434 -1.8008  1.5327
  286SOL     OW  856   0.475   0.434   0.687  0.0475 -0.2432 -0.0977
  286SOL    HW1  857   0.443   0.378   0.769 -0.6411  0.5555  2.0536
  286SOL    HW2  858   0.439   0.403   0.596 -0.2862 -0.8484 -0.7965
  287SOL     OW  859   0.100   1.346   2.484 -0.0030  0.0632  0.5745
  287SOL    HW1  860   0.096   1.252   2.528  1.8471 -0.7156  2.3828
  287SOL    HW2  861   0.051   1.417   2.543  2.7319  0.8504 -0.0918
  288SOL     OW  862   1.603   2.668   1.464  0.3151  0.7423  0.4566
  288SOL    HW1  863   1.707   2.653   1.483 -1.8274 -0.0981 -1.7626
  288SOL    HW2  864   1.571   2.706   1.371  0.3524  2.9747 -2.4949
  289SOL     OW  865   0.657   2.742   0.764 -0.4557 -0.0747  0.0714
  289SOL    HW1  866   0.703   2.814   0.708 -2.3825 -0.4489 -0.2366
  289SOL    HW2  867   0.661   2.759   0.870  1.7018  1.3790  1.0362
  290SOL     OW  868   2.893   1.203   1.596 -0.3578 -0.4993 -0.7155
  290SOL    HW1  869   2.817   1.255   1.643 -4.6969 -1.1868 -0.9418
  290SOL    HW2  870   2.952   1.147   1.658  2.0268  2.5783 -0.2082
  291SOL     OW  871   1.995   0.059   0.081  0.4219  0.2747  0.9716
  291SOL    HW1  872   2.021   0.070   0.182  2.7048  1.9199  0.1775
  291SOL    HW2  873   2.023   0.137   0.021  0.0595 -0.9247  1.4540
  292SOL     OW  874   2.965   1.163   3.036  0.4818 -0.6598 -0.2173
  292SOL    HW1  875   2.900   1.234   2.998  1.7642  0.1293 -0.4173
  292SOL    HW2  876   3.061   1.171   3.004 -1.8459 -0.7637 -1.6644
  293SOL     OW  877   0.639   2.077   0.127  0.2300  0.5660 -0.2173
  293SOL    HW1  878   0.571   2.109   0.202  0.4143  0.1752  1.6135
  293SOL    HW2  879   0.728   2.040   0.165 -0.6053 -3.2403  0.6635
  294SOL     OW  880   1.673   2.145   1.753 -0.1790  0.2044 -0.6422
  294SOL    HW1  881   1.717   2.182   1.840  1.2571  0.5774 -2.2305
  294SOL    HW2  882   1.684   2.207   1.671 -0.7860  0.6130  2.7968
  295SOL     OW  883   0.984   1.023   0.392  0.6259 -0.5032 -0.0336
  295SOL    HW1  884   1.081   0.994   0.394 -2.2980  0.0146 -0.8025
  295SOL    HW2  885   0.947   1.039   0.484  0.4764 -0.1055  1.6661
  296SOL     OW  886   1.300   2.032   2.518  0.4593 -0.1998 -0.2613
  296SOL    HW1  887   1.268   2.041   2.425 -2.0875  0.8863  3.7589
  296SOL    HW2  888   1.336   1.938   2.533 -1.1624  2.1489 -0.4736
  297SOL     OW  889   1.474   0.650   1.340 -0.3613 -0.5280 -0.1968
  297SOL    HW1  890   1.534   0.568   1.359 -0.4358 -0.2044  1.4183
  297SOL    HW2  891   1.484   0.728   1.407  2.0531 -0.4619  0.0338
  298SOL     OW  892   0.471   1.213   2.859 -0.5844 -0.1855  0.0454
  298SOL    HW1  893   0.515   1.154   2.932 -0.3365  2.2112 -0.2946
  298SOL    HW2  894   0.532   1.245   2.784 -1.0325 -1.1577  0.3434
  299SOL     OW  895   0.429   0.329   1.454  1.0826  0.3824  0.4902
  299SOL    HW1  896   0.384   0.420   1.425  0.8590  0.3909 -3.1422
  299SOL    HW2  897   0.521   0.326   1.502  2.1099 -3.3235  2.1562
  300SOL     OW  898   1.208   1.811   2.884 -0.8188  0.6182  0.1208
  300SOL    HW1  899   1.211   1.738   2.813 -0.9071  1.3034 -2.3885
  300SOL    HW2  900   1.156   1.775   2.968 -0.5330 -1.0955  0.5418
  301SOL     OW  901   0.433   0.283   0.425 -0.0690  0.3788  0.2080
  301SOL    HW1  902   0.335   0.254   0.431  0.1001 -0.4769 -0.0350
  301SOL    HW2  903   0.484   0.222   0.363  0.1660 -1.4519 -0.4268
  302SOL     OW  904   1.230   2.328   2.324  0.4795  0.1955 -0.1300
  302SOL    HW1  905   1.162   2.360   2.402 -1.1368  0.9853  0.6550
  302SOL    HW2  906   1.239   2.229   2.326 -2.2417  3.1121  0.8967
  303SOL     OW  907   0.934   2.360   0.797  0.2873  0.0519  0.0840
  303SOL    HW1  908   0.969   2.429   0.728 -1.2998  0.5335  0.3071
  303SOL    HW2  909   0.914   2.406   0.890  1.8473 -1.4370  0.1472
  304SOL     OW  910   0.144   2.072   0.684 -0.0863 -0.7115 -0.1119
  304SOL    HW1  911   0.156   2.005   0.608 -0.9331 -1.9865 -0.9817
  304SOL    HW2  912   0.076   2.149   0.660 -0.9665  1.0977  2.7597
  305SOL     OW  913   1.615   0.890   0.634 -0.1403 -0.1930 -0.5282
  305SOL    HW1  914   1.560   0.881   0.541  2.4962  0.7141 -0.7461
  305SOL    HW2  915   1.686   0.812   0.630 -1.4784 -3.0404  2.3895
  306SOL     OW  916   0.440   1.867   1.876 -0.1315  0.3518 -0.5243
  306SOL    HW1  917   0.514   1.804   1.839  0.4191  0.5143  3.6061
  306SOL    HW2  918   0.418   1.839   1.977  3.2580  1.6209  2.5508
  307SOL     OW  919   0.028   0.830   2.584  0.0828  0.5364  0.5664
  307SOL    HW1  920   0.042   0.931   2.594  0.3536 -0.0490 -0.7816
  307SOL    HW2  921  -0.047   0.792   2.645 -0.5468 -3.1989 -2.0698
  308SOL     OW  922   1.569   2.624   2.873 -0.5175  0.1512  0.7121
  308SOL    HW1  923   1.569   2.598   2.773 -2.4636  1.3104 -3.3478
  308SOL    HW2  924   1.521   2.554   2.933  3.1346 -0.6568 -1.1549
  309SOL     OW  925   1.221   0.053   1.750 -0.2052  0.5976 -0.4870
  309SOL    HW1  926   1.301   0.030   1.805 -3.1928  1.1416 -2.3622
  309SOL    HW2  927   1.250   0.077   1.654 -0.3346  0.7767  2.0087
  310SOL     OW  928   1.380   2.633   0.707  0.8456 -0.5045 -0.0038
  310SOL    HW1  929   1.359   2.687   0.791  2.0102  0.6743 -0.3894
  310SOL    HW2  930   1.456   2.662   0.644 -0.6757 -0.3621  0.8701
  311SOL     OW  931   1.226   0.926   1.522 -0.6219  0.3947  0.6933
  311SOL    HW1  932   1.281   0.867   1.462  0.7907 -0.8893  0.4566
  311SOL    HW2  933   1.259   1.027   1.529 -0.4536  1.3739 -2.3354
  312SOL     OW  934   1.608   0.687   0.954  0.2849 -0.2221  0.4265
  312SOL    HW1  935   1.578   0.783   0.930  0.5820 -1.7749  0.7340
  312SOL    HW2  936   1.533   0.618   0.949  2.2661  0.6997  2.2205
  313SOL     OW  937   1.553   1.417   0.619 -0.3766 -0.6792  0.1423
  313SOL    HW1  938   1.475   1.478   0.600  0.3193 -0.5309  0.6280
  313SOL    HW2  939   1.528   1.315   0.616 -1.9986 -1.6050 -1.4936
  314SOL     OW  940   2.964   0.019   3.003  0.3797  0.2777  0.3983
  314SOL    HW1  941   2.937   0.053   3.096  0.2599 -0.8429 -0.1267
  314SOL    HW2  942   2.893  -0.046   2.963  0.4254  1.6086  2.1749
  315SOL     OW  943   1.244   0.242   2.782 -0.4621  0.2376  0.1558
  315SOL    HW1  944   1.188   0.167   2.734 -2.6906 -0.4397  2.2468
  315SOL    HW2  945   1.281   0.201   2.870  2.5712  1.0522 -2.8493
  316SOL     OW  946   1.696   2.075   0.906  0.1993  0.5576  0.2304
  316SOL    HW1  947   1.662   2.079   1.006 -0.7248 -2.1559  1.0455
  316SOL    HW2  948   1.676   2.162   0.858 -0.6877 -2.2428  2.2618
  317SOL     OW  949   1.127   0.687   2.848 -0.0732  0.1752 -0.3495
  317SOL    HW1  950   1.063   0.735   2.913  4.0495  0.0483 -0.1862
  317SOL    HW2  951   1.084   0.602   2.808  0.8766 -1.1649  0.0915
  318SOL     OW  952   1.462   3.067   2.295  0.4842 -0.4182 -0.1902
  318SOL    HW1  953   1.411   3.149   2.258  1.0480 -4.4754 -3.0706
  318SOL    HW2  954   1.482   2.993   2.222  0.0513  2.4430 -1.5559
  319SOL     OW  955   0.649   2.407   2.927  0.2280  0.3490 -0.5030
  319SOL    HW1  956   0.567   2.367   2.977  2.9045 -0.2035 -1.4405
  319SOL    HW2  957   0.720   2.334   2.915 -1.4951 -0.0570  1.7441
  320SOL     OW  958   1.635   2.199   0.350  0.3197 -0.5352 -0.3256
  320SOL    HW1  959   1.723   2.142   0.377  2.7040 -1.3748 -1.5522
  320SOL    HW2  960   1.549   2.162   0.395 -0.7522  1.0488  1.3774
  321SOL     OW  961   1.567   2.686   0.536 -0.4889 -0.0564  0.0943
  321SOL    HW1  962   1.508   2.764   0.498  0.5940 -1.4500 -2.2470
  321SOL    HW2  963   1.663   2.717   0.555  2.0210 -0.4536 -1.5170
  322SOL     OW  964   2.585   1.123   2.269 -0.8635 -0.3569 -0.3358
  322SOL    HW1  965   2.625   1.175   2.349 -0.2906 -1.7768 -0.1907
  322SOL    HW2  966   2.579   1.024   2.282 -1.7221  0.1058  0.2397
  323SOL     OW  967   0.972   2.673   0.806 -0.0358 -0.4532 -0.2524
  323SOL    HW1  968   0.984   2.626   0.716  1.0643  0.7697  2.8577
  323SOL    HW2  969   0.962   2.776   0.800  1.5379  0.8721  0.3654
  324SOL     OW  970   0.139   2.484   2.465  0.4929  0.1843  0.0353
  324SOL    HW1  971   0.124   2.398   2.520  2.3994 -0.1196  1.3809
  324SOL    HW2  972   0.094   2.566   2.510  1.2750 -0.8452  1.0075
  325SOL     OW  973   1.186   3.087   0.466 -0.2714 -0.4440 -0.0951
  325SOL    HW1  974   1.224   3.088   0.366 -0.2683 -0.5953 -0.6350
  325SOL    HW2  975   1.237   3.154   0.533  0.0463 -0.9617  2.5946
  326SOL     OW  976   2.428   0.752   3.084  0.5684  0.0653 -0.6933
  326SOL    HW1  977   2.393   0.689   3.009 -1.3512 -2.0592  2.8886
  326SOL    HW2  978   2.480   0.700   3.161  1.1585 -0.1123  1.1070
  327SOL     OW  979   2.807   0.398   0.537  0.9886  0.1169  0.0190
  327SOL    HW1  980   2.797   0.373   0.436  0.4815 -0.9019 -0.7817
  327SOL    HW2  981   2.728   0.364   0.592  2.6815 -2.0483 -1.7556
  328SOL     OW  982   2.479   0.551   0.415 -0.0338 -0.0547 -0.7087
  328SOL    HW1  983   2.383   0.592   0.400 -1.9899  1.6748 -1.5867
  328SOL    HW2  984   2.491   0.495   0.502  1.7413 -2.5580  0.4915
  329SOL     OW  985   2.980   3.001   2.149 -0.0850 -0.3090  0.3312
  329SOL    HW1  986   3.016   2.930   2.216  3.0059 -1.9422 -0.2686
  329SOL    HW2  987   3.029   3.093   2.163 -1.6148 -0.1743 -1.4338
  330SOL     OW  988   0.521   0.163   1.894  0.0327  0.0026 -0.4421
  330SOL    HW1  989   0.564   0.256   1.890  0.2230  0.4740  1.2643
  330SOL    HW2  990   0.564   0.114   1.977  0.7591  1.7686  1.5213
  331SOL     OW  991   2.940   1.922   1.142  0.0899  0.4425 -0.1279
  331SOL    HW1  992   2.996   1.978   1.073  2.8963 -1.9633 -2.0613
  331SOL    HW2  993   2.866   1.979   1.189  2.6101  0.3827 -0.6649
  332SOL     OW  994   0.426   1.116   0.075 -0.3725  0.9873  0.6779
  332SOL    HW1  995   0.348   1.076   0.013  0.3124  1.0576 -0.4424
  332SOL    HW2  996   0.390   1.182   0.145 -0.5230  1.9193 -0.9664
  333SOL     OW  997   2.863   1.020   0.301  0.2603  0.1421 -0.0354
  333SOL    HW1  998   2.880   1.113   0.344 -0.7394  0.7130 -0.6533
  333SOL    HW2  999   2.950   0.965   0.284  1.6512 -0.1515  3.4763
  334SOL     OW 1000   1.648   1.164   1.921 -0.1022  0.3432 -0.1194
  334SOL    HW1 1001   1.728   1.135   1.863  0.9670  1.0478 -1.7836
  334SOL    HW2 1002   1.662   1.254   1.977  2.2090 -0.0156  1.2725
  335SOL     OW 1003   2.009   2.779   2.638  0.6911  0.0120  0.4218
  335SOL    HW1 1004   1.956   2.745   2.719  0.7389 -4.3297 -1.8671
  335SOL    HW2 1005   2.100   2.826   2.648  1.2473 -2.6109 -0.0276
  336SOL     OW 1006   0.254   0.109   2.743 -0.0516  0.0932 -0.0227
  336SOL    HW1 1007   0.349   0.091   2.711 -0.1990  2.1639  1.9214
  336SOL    HW2 1008   0.246   0.167   2.829  1.4941  0.6382  0.6579
  337SOL     OW 1009   0.897   2.765   2.825 -0.3620 -0.1267 -0.6827
  337SOL    HW1 1010   0.879   2.750   2.928 -2.1452 -0.4366  1.0992
  337SOL    HW2 1011   0.999   2.741   2.804  0.3662 -0.2879 -2.4583
  338SOL     OW 1012   0.028   1.005   0.614  0.1635 -0.1003  0.3225
  338SOL    HW1 1013  -0.061   0.954   0.621  0.2314 -0.3085  3.0626
  338SOL    HW2 1014   0.034   1.097   0.657  1.3482  0.8291 -0.1527
  339SOL     OW 1015   1.659   1.399   2.075 -0.4619  0.0571  0.1701
  339SOL    HW1 1016   1.567   1.422   2.108  1.2042  1.0168  0.3434
  339SOL    HW2 1017   1.725   1.472   2.098 -2.8907  0.2822  0.0660
  340SOL     OW 1018   2.295   0.810   1.172 -0.1846  0.2880 -0.0205
  340SOL    HW1 1019   2.195   0.833   1.187 -2.0792 -0.9194 -1.3548
  340SOL    HW2 1020   2.307   0.715   1.134  1.2786 -0.5455  1.2788
  341SOL     OW 1021   1.912   2.137   0.373 -0.4330  0.7213 -0.2670
  341SOL    HW1 1022   1.912   2.215   0.303 -1.6586 -1.8508 -0.4107
  341SOL    HW2 1023   1.999   2.125   0.426 -2.0657  0.0428  1.2235
  342SOL     OW 1024   2.207   2.074   2.758  0.2187  0.1578  0.2883
  342SOL    HW1 1025   2.271   2.030   2.824 -1.2582 -0.3349 -1.6569
  342SOL    HW2 1026   2.107   2.044   2.786 -0.9271 -1.7358  2.2634
  343SOL     OW 1027   0.329   0.823   2.778  0.1356 -0.8831 -0.0991
  343SOL    HW1 1028   0.319   0.892   2.699 -2.7154  0.0173 -2.0742
  343SOL    HW2 1029   0.423   0.802   2.803  0.1344 -0.2487 -0.6080
  344SOL     OW 1030   1.904   1.470   0.394 -0.0271 -0.2529  0.7035
  344SOL    HW1 1031   1.889   1.372   0.355  0.4167 -0.9003 -1.7126
  344SOL    HW2 1032   1.817   1.527   0.384  0.2706  0.7521 -4.0945
  345SOL     OW 1033   1.378   2.219   2.841  0.2515  0.5753 -0.0421
  345SOL    HW1 1034   1.296   2.165   2.810  1.4204  0.4882  1.1541
  345SOL    HW2 1035   1.465   2.179   2.802 -0.9640 -1.4400 -0.3396
  346SOL     OW 1036   2.336   0.852   1.444 -0.6028  0.2066  0.3973
  346SOL    HW1 1037   2.263   0.910   1.486 -1.0247 -1.1829 -1.1096
  346SOL    HW2 1038   2.328   0.838   1.343  0.7876 -0.3505  0.9164
  347SOL     OW 1039   0.730   2.840   1.512 -0.0317  0.2509  0.0544
  347SOL    HW1 1040   0.715   2.770   1.590 -0.7575 -1.7141  0.8062
  347SOL    HW2 1041   0.654   2.911   1.513 -0.0689  0.8479  1.8228
  348SOL     OW 1042   0.108   0.702   2.856 -0.3816 -0.3943 -0.1691
  348SOL    HW1 1043   0.027   0.761   2.832  0.2222 -0.9466 -1.4364
  348SOL    HW2 1044   0.195   0.723   2.804 -2.4888 -0.0997  2.2971
  349SOL     OW 1045   1.891   0.432   2.813 -0.3026 -0.1039  0.0678
  349SOL    HW1 1046   1.898   0.524   2.758  0.4304  1.1423  1.3607
  349SOL    HW2 1047   1.849   0.454   2.908 -0.2247  0.8682  0.8985
  350SOL     OW 1048   1.673   0.391   0.385 -0.5472 -0.5206  0.3153
  350SOL    HW1 1049   1.747   0.419   0.455 -1.7076  1.4289  0.8666
  350SOL    HW2 1050   1.633   0.463   0.318 -2.3408  0.8270 -1.6540
  351SOL     OW 1051   0.924   0.916   2.070  0.5318  0.1075 -0.2691
  351SOL    HW1 1052   0.932   1.020   2.059 -0.3720  0.0293 -0.7402
  351SOL    HW2 1053   0.881   0.860   1.990  0.8216 -3.8548 -0.9315
  352SOL     OW 1054   1.988   1.340   0.611  0.3242 -0.2395  0.5846
  352SOL    HW1 1055   1.955   1.385   0.519  2.3177  0.3760 -3.4671
  352SOL    HW2 1056   2.088   1.370   0.639 -0.9426  0.9542  1.8010
  353SOL     OW 1057   2.122   2.873   1.125 -0.1587  0.5352 -0.3773
  353SOL    HW1 1058   2.208   2.845   1.172 -0.3400  1.1446 -0.7485
  353SOL    HW2 1059   2.089   2.798   1.059 -0.3408 -0.1384 -0.3892
  354SOL     OW 1060   0.243   1.393   2.852  0.0959  0.1109 -0.1510
  354SOL    HW1 1061   0.232   1.487   2.816  0.0163 -1.0342 -0.1468
  354SOL    HW2 1062   0.331   1.345   2.824 -1.6185 -1.4193 -0.5859
  355SOL     OW 1063   0.485   1.520   0.562  0.6143  0.5399 -0.1520
  355SOL    HW1 1064   0.534   1.613   0.567  1.0202  0.4468 -0.7934
  355SOL    HW2 1065   0.553   1.437   0.561  1.7755 -1.1908  0.3918
  356SOL     OW 1066   0.903   0.399   2.122  0.4812 -0.0737 -0.0762
  356SOL    HW1 1067   1.000   0.428   2.118  0.4680 -3.3880 -3.7617
  356SOL    HW2 1068   0.878   0.341   2.037  0.3589 -0.4761  0.5981
  357SOL     OW 1069   1.029   1.270   0.267 -1.2555 -0.3930  0.6133
  357SOL    HW1 1070   0.974   1.275   0.183  1.4213  0.7696  1.9323
  357SOL    HW2 1071   1.018   1.178   0.316  4.7709  0.2342  2.2165
  358SOL     OW 1072   1.651   1.576   0.423 -0.3355 -0.5019  0.7106
  358SOL    HW1 1073   1.602   1.507   0.488 -1.1081 -0.2885  0.8020
  358SOL    HW2 1074   1.587   1.645   0.373  0.1658 -0.7913  0.4731
  359SOL     OW 1075   1.557   2.691   0.159  0.0287 -0.2525 -0.6553
  359SOL    HW1 1076   1.607   2.644   0.085 -0.9995 -0.5532 -1.1063
  359SOL    HW2 1077   1.465   2.736   0.125 -1.9875 -2.6929 -1.9628
  360SOL     OW 1078   0.905   0.607   0.515  0.0879 -0.0908  0.0966
  360SOL    HW1 1079   0.818   0.614   0.576  2.5728 -1.8183  0.1477
  360SOL    HW2 1080   0.932   0.507   0.500  1.0095 -0.5753 -0.1836
  361SOL     OW 1081   1.244   1.379   0.658  0.3250 -0.1116  0.2061
  361SOL    HW1 1082   1.289   1.358   0.749 -1.0859  0.6586 -0.6170
  361SOL    HW2 1083   1.140   1.412   0.667 -0.4850 -1.4108 -0.3120
  362SOL     OW 1084   1.395   1.760   0.773 -0.3016 -0.2271 -0.1629
  362SOL    HW1 1085   1.424   1.720   0.862 -1.8967 -1.4848 -1.5280
  362SOL    HW2 1086   1.461   1.829   0.739  0.3213  0.5864  1.4038
  363SOL     OW 1087   1.158   1.358   2.002  0.2646 -0.5659  0.3286
  363SOL    HW1 1088   1.174   1.425   2.080 -1.2330  0.0743  0.2532
  363SOL    HW2 1089   1.194   1.389   1.910  0.2750  0.7192 -1.4374
  364SOL     OW 1090   0.563   2.330   1.955 -0.7049  0.2655 -0.9044
  364SOL    HW1 1091   0.478   2.391   1.968 -1.7164  1.3126 -2.2726
  364SOL    HW2 1092   0.604   2.345   1.860  1.1638  0.5376  1.4588
  365SOL     OW 1093   1.081   1.936   1.371 -0.2437  0.4391  0.2737
  365SOL    HW1 1094   0.993   1.915   1.424  0.8603  1.6331 -1.2945
  365SOL    HW2 1095   1.087   1.891   1.278  0.4367  0.1189  1.2940
  366SOL     OW 1096   2.828   2.075   0.467  0.2041  0.4464 -0.2618
  366SOL    HW1 1097   2.750   2.008   0.484 -1.0077 -0.8568  0.8537
  366SOL    HW2 1098   2.909   2.026   0.418  0.7898  1.3646  2.2676
  367SOL     OW 1099   0.811   1.219   0.095  0.1452 -0.4601  0.5056
  367SOL    HW1 1100   0.764   1.139   0.132  2.1127 -0.2699  1.4527
  367SOL    HW2 1101   0.831   1.208  -0.002 -1.8157  4.2327  2.0884
  368SOL     OW 1102   1.555   0.544   0.694 -0.2215  0.4800  0.4753
  368SOL    HW1 1103   1.489   0.593   0.624 -2.9218 -0.1076  1.0812
  368SOL    HW2 1104   1.653   0.579   0.694 -1.0865 -0.2932 -1.8348
  369SOL     OW 1105   0.292   1.703   0.105 -0.1597  0.3580 -0.5019
  369SOL    HW1 1106   0.330   1.801   0.125  3.0710  0.8454 -0.2185
  369SOL    HW2 1107   0.195   1.687   0.086  0.8668  1.8057  2.0499
  370SOL     OW 1108   0.395   2.115   0.979 -0.2491 -0.0791  0.3362
  370SOL    HW1 1109   0.406   2.218   0.973 -0.4456 -0.3423  3.2813
  370SOL    HW2 1110   0.298   2.083   0.963  0.2937 -2.7090  1.0812
  371SOL     OW 1111   2.911   2.200   2.747  0.1747  0.2701 -0.4559
  371SOL    HW1 1112   2.924   2.145   2.835 -0.6075 -1.2840  3.1559
  371SOL    HW2 1113   2.994   2.257   2.726  0.2156 -1.8313  1.2421
  372SOL     OW 1114   0.916   1.850   0.923  0.1916 -0.2580 -0.7298
  372SOL    HW1 1115   0.906   1.943   0.969  1.1208  1.6080 -3.5229
  372SOL    HW2 1116   1.009   1.840   0.874 -0.0258  2.4697 -1.6584
  373SOL     OW 1117   1.989   2.002   0.936  0.1447 -0.0871  0.2960
  373SOL    HW1 1118   2.062   2.000   1.009  1.3930 -0.4458 -0.7095
  373SOL    HW2 1119   1.905   2.052   0.965  0.1700  0.7154  0.8360
  374SOL     OW 1120   1.896   0.436   0.547 -0.1191  0.1827  0.3669
  374SOL    HW1 1121   1.883   0.384   0.632 -0.7892 -2.7853  0.9972
  374SOL    HW2 1122   1.986   0.415   0.510 -5.3226  0.9798 -1.7886
  375SOL     OW 1123   2.397   2.184   1.100 -0.4702 -1.1021  0.6777
  375SOL    HW1 1124   2.452   2.155   1.017 -2.0045 -1.5196  0.7861
  375SOL    HW2 1125   2.446   2.168   1.187  2.2618 -1.4763 -0.0940
  376SOL     OW 1126   3.046   0.614   1.453  0.0785  0.2161  0.0293
  376SOL    HW1 1127   3.107   0.671   1.518  3.0437 -1.7645  1.4013
  376SOL    HW2 1128   2.945   0.630   1.469  1.1439  0.3089  0.0400
  377SOL     OW 1129   2.259   2.875   0.347  0.5911 -0.6839 -0.6116
  377SOL    HW1 1130   2.259   2.975   0.358 -0.3444 -1.5102  0.2914
  377SOL    HW2 1131   2.349   2.839   0.380 -2.9996 -0.7076 -0.8136
  378SOL     OW 1132   1.863   1.895   2.631 -0.4337  0.1659  0.0989
  378SOL    HW1 1133   1.912   1.809   2.662 -0.5911  0.7112 -2.2966
  378SOL    HW2 1134   1.875   1.895   2.525  1.1080  0.2561  0.2966
  379SOL     OW 1135   0.841   0.073   2.714 -0.6704 -0.9438  0.0922
  379SOL    HW1 1136   0.823  -0.023   2.682 -2.3433  0.8373 -0.1136
  379SOL    HW2 1137   0.764   0.142   2.690  0.0185 -0.9149 -0.5673
  380SOL     OW 1138   1.523   1.155   0.588 -0.4794  0.2017  0.1273
  380SOL    HW1 1139   1.425   1.144   0.551  3.1261 -1.1661  0.2365
  380SOL    HW2 1140   1.552   1.065   0.629 -3.0096  1.3701  3.5178
  381SOL     OW 1141   1.307   1.211   1.502  0.2677  0.0705  0.0487
  381SOL    HW1 1142   1.344   1.231   1.409  0.6293 -1.3533 -2.1727
  381SOL    HW2 1143   1.360   1.260   1.575  1.7102 -0.9426 -1.0847
  382SOL     OW 1144   1.743   0.815   0.271  0.3590 -0.6336  0.1821
  382SOL    HW1 1145   1.783   0.797   0.175 -0.5685  2.3132  0.8035
  382SOL    HW2 1146   1.811   0.793   0.344 -0.1398  1.7506 -0.3096
  383SOL     OW 1147   2.599   1.015   1.523 -0.4653 -0.4848 -0.6537
  383SOL    HW1 1148   2.520   0.958   1.480  1.9940 -1.6469 -0.2897
  383SOL    HW2 1149   2.688   0.988   1.486 -1.4248 -1.0771  2.4725
  384SOL     OW 1150   0.947   2.269   0.132 -0.3089  0.0371 -0.8534
  384SOL    HW1 1151   0.891   2.336   0.189 -0.1323  1.7670  1.4870
  384SOL    HW2 1152   0.911   2.172   0.149  0.9174  3.2959 -1.0502
  385SOL     OW 1153   3.018   2.012   1.737  0.0286  0.1520  0.5424
  385SOL    HW1 1154   3.087   2.090   1.750  3.0119 -0.5848 -1.1258
  385SOL    HW2 1155   3.050   1.913   1.706 -1.5494 -2.0472  0.9528
  386SOL     OW 1156   0.438   1.123   0.435  0.0942  0.1924 -0.0638
  386SOL    HW1 1157   0.416   1.023   0.444  2.1980  1.0942 -0.1177
  386SOL    HW2 1158   0.364   1.175   0.373 -2.6712 -0.2517 -1.8395
  387SOL     OW 1159   0.973   0.330   1.677 -0.0557 -0.7135 -0.3190
  387SOL    HW1 1160   1.038   0.414   1.681  1.8224 -1.7004  1.0381
  387SOL    HW2 1161   0.959   0.289   1.589 -1.5021 -0.0317  1.8244
  388SOL     OW 1162   1.185   2.611   1.782 -0.8025  0.0850  0.1184
  388SOL    HW1 1163   1.194   2.642   1.678 -2.0680  1.6808 -1.6795
  388SOL    HW2 1164   1.273   2.560   1.812  1.4111  0.6631 -0.3770
  389SOL     OW 1165   0.251   3.081   1.143  0.4985  0.2200 -0.4928
  389SOL    HW1 1166   0.191   3.106   1.231 -1.2311  2.9103  0.8537
  389SOL    HW2 1167   0.322   3.008   1.165 -1.4907  1.2601  1.3137
  390SOL     OW 1168   1.025   0.869   1.254  0.6410  0.0882 -0.1649
  390SOL    HW1 1169   1.131   0.857   1.258  1.3776  1.6574 -2.2202
  390SOL    HW2 1170   0.989   0.869   1.347 -2.0558  3.5825 -1.1787
  391SOL     OW 1171   2.120   1.139   1.019 -0.2179 -0.3273  0.3437
  391SOL    HW1 1172   2.032   1.100   1.050 -1.5436  0.7972  1.7972
  391SOL    HW2 1173   2.163   1.089   0.943 -2.1236  0.5436  1.5343
  392SOL     OW 1174   0.872   2.718   3.092  0.0493  0.2443 -0.1646
  392SOL    HW1 1175   0.792   2.695   3.154 -2.2284  0.1666 -0.1727
  392SOL    HW2 1176   0.957   2.744   3.146  0.3777 -0.5415  1.3526
  393SOL     OW 1177   0.332   0.584   1.985  0.4526  0.1889  0.5112
  393SOL    HW1 1178   0.253   0.516   1.979  0.0466 -0.6598  2.2797
  393SOL    HW2 1179   0.410   0.557   1.923 -1.4065  0.6993  0.4207
  394SOL     OW 1180   2.830   1.796   2.782  0.3310  0.8164  0.1421
  394SOL    HW1 1181   2.922   1.798   2.736 -0.6482  0.4981 -0.9321
  394SOL    HW2 1182   2.786   1.890   2.780  3.1052 -0.9889 -1.4694
  395SOL     OW 1183   1.594   1.925   0.685  0.2145 -0.1970  0.6817
  395SOL    HW1 1184   1.658   1.848   0.658 -1.8894  1.8327  0.6481
  395SOL    HW2 1185   1.629   1.965   0.772  1.2436 -0.9364 -2.1497
  396SOL     OW 1186   2.754   2.062   1.272 -0.0070  0.0131  0.2375
  396SOL    HW1 1187   2.770   2.060   1.376 -0.2377  0.9406  2.4427
  396SOL    HW2 1188   2.653   2.073   1.249  0.5026  1.5698  0.6966
  397SOL     OW 1189   1.000   2.087   0.648 -0.0126 -0.5064  0.0359
  397SOL    HW1 1190   0.913   2.063   0.595 -2.8636 -1.0725 -1.7361
  397SOL    HW2 1191   0.990   2.182   0.691  1.7925 -1.5846 -2.1716
  398SOL     OW 1192   2.148   0.047   1.082  0.5258 -0.2230 -0.5317
  398SOL    HW1 1193   2.114  -0.048   1.106  1.8597  2.8509 -0.0655
  398SOL    HW2 1194   2.071   0.116   1.054 -0.7822  2.5126 -1.6063
  399SOL     OW 1195   2.953   2.586   2.739 -0.0964 -0.8836 -0.2383
  399SOL    HW1 1196   2.900   2.546   2.662  1.0030 -1.4536  1.4257
  399SOL    HW2 1197   2.908   2.558   2.829  1.6207 -1.7216 -1.2301
  400SOL     OW 1198   0.833   1.602   1.269  0.4064  0.0098 -0.2326
  400SOL    HW1 1199   0.765   1.649   1.331  1.1066 -0.9564  0.9237
  400SOL    HW2 1200   0.820   1.629   1.171  1.5449 -0.0842  0.8887
  401SOL     OW 1201   1.841   0.107   1.288 -0.3290  0.1743 -0.0581
  401SOL    HW1 1202   1.900   0.151   1.357  2.0087  0.1846 -2.4071
  401SOL    HW2 1203   1.749   0.081   1.330 -1.0835  0.6978 -0.8645
  402SOL     OW 1204   1.304   0.156   3.044  0.2553 -0.5285 -0.2900
  402SOL    HW1 1205   1.403   0.158   3.033 -0.5094  0.2802 -0.2446
  402SOL    HW2 1206   1.268   0.244   3.079 -2.8774  3.0596  0.2678
  403SOL     OW 1207   2.266   1.797   0.961  0.3692  0.5842 -0.2861
  403SOL    HW1 1208   2.370   1.810   0.952  1.7765  0.4059 -0.7104
  403SOL    HW2 1209   2.224   1.860   1.026  0.3256 -0.2908 -1.7799
  404SOL     OW 1210   0.197   2.447   2.803 -0.1869  0.0064  0.4346
  404SOL    HW1 1211   0.290   2.427   2.760 -2.2531  0.3299  0.1710
  404SOL    HW2 1212   0.186   2.535   2.854  2.2011 -1.2330  2.8565
  405SOL     OW 1213   0.267   2.508   0.595  0.1565  1.4101 -0.0696
  405SOL    HW1 1214   0.233   2.480   0.499 -0.2793  1.1041 -1.1353
  405SOL    HW2 1215   0.354   2.572   0.595  1.2598  0.7902 -0.7849
  406SOL     OW 1216   0.027   1.511   2.964 -0.3068  0.1865 -0.4521
  406SOL    HW1 1217   0.101   1.449   2.927 -0.9711  2.6365 -1.2238
  406SOL    HW2 1218   0.035   1.521   3.067  1.8545 -0.5906  0.2291
  407SOL     OW 1219   1.544   0.944   0.926  0.0910  0.0080 -0.8814
  407SOL    HW1 1220   1.547   0.941   0.820  0.0162  0.7961 -2.0604
  407SOL    HW2 1221   1.481   1.020   0.963 -0.0046 -0.9551 -0.1877
  408SOL     OW 1222   1.456   2.357   0.967  0.4262  0.5369  0.3857
  408SOL    HW1 1223   1.526   2.355   0.889  0.5597  1.3698 -1.5537
  408SOL    HW2 1224   1.472   2.431   1.042  1.9063 -0.1222 -1.0672
  409SOL     OW 1225   0.638   0.888   0.666  0.5968  0.4627  0.3243
  409SOL    HW1 1226   0.562   0.913   0.599 -0.7867 -1.6826 -1.7296
  409SOL    HW2 1227   0.660   0.788   0.661  2.0028 -0.3799  1.0963
  410SOL     OW 1228   1.328   1.998   1.501 -0.0497  0.2021  0.3472
  410SOL    HW1 1229   1.335   2.081   1.563  0.2763 -2.9826 -1.6479
  410SOL    HW2 1230   1.234   1.966   1.464 -0.2242  0.3785 -1.2137
  411SOL     OW 1231   2.369   1.845   0.030  0.1370 -0.2653 -0.0991
  411SOL    HW1 1232   2.282   1.817  -0.026 -0.8161  0.0144  1.8009
  411SOL    HW2 1233   2.458   1.843  -0.025  0.4224  1.8761 -1.7389
  412SOL     OW 1234   1.508   2.406   2.245  0.0550 -0.3804 -0.4042
  412SOL    HW1 1235   1.476   2.500   2.217  2.7187  0.6891  0.3859
  412SOL    HW2 1236   1.453   2.353   2.310  1.6771 -0.7047 -3.7919
  413SOL     OW 1237   3.032   0.258   2.903 -0.1199  0.1247  0.6077
  413SOL    HW1 1238   2.977   0.172   2.936  0.9652 -1.5083  2.4924
  413SOL    HW2 1239   3.134   0.249   2.925  1.2326  0.4274 -3.7323
  414SOL     OW 1240   1.783   1.324   1.312 -0.0371 -0.0238 -0.4724
  414SOL    HW1 1241   1.703   1.366   1.355  2.0301 -1.6461 -0.6176
  414SOL    HW2 1242   1.773   1.325   1.206 -0.8070 -1.2537  1.1884
  415SOL     OW 1243   0.354   2.269   0.664  0.0931  0.2856  0.0860
  415SOL    HW1 1244   0.314   2.363   0.636  1.9435  1.7014  0.0756
  415SOL    HW2 1245   0.286   2.193   0.699  1.4897 -0.9638  0.8606
  416SOL     OW 1246   0.355   1.031   1.044 -0.0130 -0.4687  0.2851
  416SOL    HW1 1247   0.318   1.004   0.950 -0.8789 -1.5708  1.6997
  416SOL    HW2 1248   0.433   1.097   1.037  4.2760 -0.7121  1.2384
  417SOL     OW 1249   2.145   2.334   1.867 -0.1828 -0.1945  0.2975
  417SOL    HW1 1250   2.155   2.231   1.868 -1.9395  2.2533 -0.1566
  417SOL    HW2 1251   2.057   2.358   1.915  4.1743  0.6957  0.3973
  418SOL     OW 1252   1.126   0.411   1.376  0.4028  0.4392 -0.5322
  418SOL    HW1 1253   1.032   0.405   1.353  0.9734 -2.3887 -0.6602
  418SOL    HW2 1254   1.191   0.419   1.295 -0.1107 -0.4691 -0.6233
  419SOL     OW 1255   0.972   0.360   3.004 -0.1432  0.2183 -0.1756
  419SOL    HW1 1256   0.973   0.402   2.908  2.0172 -0.1342  0.4138
  419SOL    HW2 1257   0.932   0.263   3.008  0.0705 -0.0169  1.8245
  420SOL     OW 1258   0.200   2.288   0.368 -0.1876 -0.2547 -0.0622
  420SOL    HW1 1259   0.179   2.250   0.274  1.9066  1.6435  1.4618
  420SOL    HW2 1260   0.118   2.272   0.434  0.6015 -0.1860  2.5089
  421SOL     OW 1261   0.341   0.003   0.656 -0.3980 -0.9687 -0.3393
  421SOL    HW1 1262   0.330  -0.073   0.587  0.5428 -0.8929 -1.3516
  421SOL    HW2 1263   0.443   0.023   0.670 -0.3443 -0.4216  0.3534
  422SOL     OW 1264   0.935   2.515   1.018 -0.0126  0.0217  0.0632
  422SOL    HW1 1265   0.956   2.576   0.934 -0.3851 -1.1540 -0.9153
  422SOL    HW2 1266   0.969   2.544   1.110  0.4282  0.2402 -3.4610
  423SOL     OW 1267   0.015   0.727   1.202  0.0560  0.6562 -0.3806
  423SOL    HW1 1268  -0.016   0.689   1.290 -1.9575  0.4031  0.0691
  423SOL    HW2 1269  -0.050   0.799   1.165  0.3170 -1.9307 -0.9412
  424SOL     OW 1270   1.010   2.145   2.208  0.5611 -0.1713 -0.8077
  424SOL    HW1 1271   1.023   2.234   2.157  1.6926 -1.9551 -1.0129
  424SOL    HW2 1272   0.957   2.157   2.292  1.1609  1.9616 -2.3405
  425SOL     OW 1273   2.034   1.411   1.084 -0.3738  0.0190  0.1981
  425SOL    HW1 1274   2.051   1.309   1.078  1.4602 -0.1207 -2.4548
  425SOL    HW2 1275   2.095   1.459   1.022  2.5265  0.6343 -0.6011
  426SOL     OW 1276   1.563   1.509   1.403 -0.0151  0.4844 -0.0745
  426SOL    HW1 1277   1.517   1.576   1.339 -0.3870 -2.2145  2.9648
  426SOL    HW2 1278   1.577   1.548   1.498 -0.3060  0.4334 -1.6988
  427SOL     OW 1279   1.921   2.353   2.020 -0.1995  0.1512  0.0768
  427SOL    HW1 1280   1.953   2.297   2.099 -2.0177 -1.2859  0.6504
  427SOL    HW2 1281   1.939   2.456   2.034  0.3800 -0.5918 -1.7415
  428SOL     OW 1282   0.939   3.062   0.114  0.0818 -0.3944  0.4194
  428SOL    HW1 1283   0.988   3.140   0.167  0.2730 -1.7032 -1.4396
  428SOL    HW2 1284   0.998   2.982   0.096 -2.6020  0.0412  1.6556
  429SOL     OW 1285   1.330   0.027   0.223  0.1963  0.5235  0.2387
  429SOL    HW1 1286   1.423   0.067   0.254  1.2304  2.4667  2.1580
  429SOL    HW2 1287   1.331   0.021   0.117  0.3767  1.3733 -0.1250
  430SOL     OW 1288   2.815   1.512   0.370 -0.1812 -0.1438  0.0730
  430SOL    HW1 1289   2.785   1.577   0.297  3.2500  1.8099 -2.9048
  430SOL    HW2 1290   2.806   1.550   0.468  0.5976 -1.5893  0.3802
  431SOL     OW 1291   2.107   1.591   0.868 -0.7963  0.2567  0.6677
  431SOL    HW1 1292   2.158   1.662   0.924 -1.1386  0.7746 -1.0254
  431SOL    HW2 1293   2.012   1.624   0.847 -0.8105 -0.0340  0.0756
  432SOL     OW 1294   2.884   2.291   1.237  0.2675 -0.0701 -0.0203
  432SOL    HW1 1295   2.831   2.205   1.223 -0.0118 -1.6779 -0.1752
  432SOL    HW2 1296   2.944   2.301   1.323 -4.0279 -1.1394  3.5018
  433SOL     OW 1297   1.838   0.307   0.784 -0.1243  0.7832 -0.2668
  433SOL    HW1 1298   1.750   0.332   0.832 -1.4093 -2.0316 -0.8721
  433SOL    HW2 1299   1.908   0.274   0.857  1.2785  1.3578  0.6616
  434SOL     OW 1300   1.541   0.269   0.720  0.1239  0.3245 -0.4020
  434SOL    HW1 1301   1.537   0.368   0.699  0.3053 -2.1080  1.2418
  434SOL    HW2 1302   1.552   0.248   0.825 -0.9998 -0.7008  1.4901
  435SOL     OW 1303   1.424   1.530   2.124  0.4858  0.2890 -0.1504
  435SOL    HW1 1304   1.387   1.504   2.222 -2.4130  2.7767  0.6898
  435SOL    HW2 1305   1.352   1.572   2.059  1.2341  1.1113 -1.1897
  436SOL     OW 1306   1.623   2.724   2.379  0.3155 -0.6665 -0.6109
  436SOL    HW1 1307   1.636   2.815   2.433 -0.3311 -1.0952  0.5553
  436SOL    HW2 1308   1.606   2.637   2.438 -0.0883 -2.9485 -1.7408
  437SOL     OW 1309   1.068   2.947   0.824  0.7079 -0.6343  0.1767
  437SOL    HW1 1310   1.017   3.038   0.805  1.0592 -1.0098  1.8124
  437SOL    HW2 1311   1.113   2.938   0.915 -0.7988 -1.1127  0.6644
  438SOL     OW 1312   1.004   2.501   1.303  0.6774 -0.4792 -0.2084
  438SOL    HW1 1313   1.060   2.547   1.374  0.0656 -1.1121 -4.2348
  438SOL    HW2 1314   0.996   2.398   1.319 -2.9819  0.4163 -3.2433
  439SOL     OW 1315   0.707   1.688   1.025  0.2165 -0.3438  0.1567
  439SOL    HW1 1316   0.741   1.779   0.984 -0.5028  1.7672 -1.7510
  439SOL    HW2 1317   0.610   1.684   1.059 -0.0917  0.6235  2.6935
  440SOL     OW 1318   1.037   2.430   2.035  0.0074  0.7199  0.2612
  440SOL    HW1 1319   0.981   2.479   1.958 -0.3555  2.3093 -0.4528
  440SOL    HW2 1320   1.140   2.440   2.023 -0.7472 -1.4143  0.4417
  441SOL     OW 1321   0.340   2.713   1.298  0.3359  0.0363 -0.2345
  441SOL    HW1 1322   0.418   2.647   1.326  4.0435 -1.1256 -1.3890
  441SOL    HW2 1323   0.363   2.767   1.210 -0.5722  2.7075 -0.6238
  442SOL     OW 1324   2.246   0.659   2.577  0.3110  0.1418  0.4372
  442SOL    HW1 1325   2.243   0.554   2.591 -0.1885  0.0592 -2.2708
  442SOL    HW2 1326   2.165   0.700   2.526  0.7706  3.6000  0.9777
  443SOL     OW 1327   1.263   2.560   2.220  0.3304  0.3782  0.0518
  443SOL    HW1 1328   1.269   2.467   2.267  2.2784  1.4889  0.6928
  443SOL    HW2 1329   1.221   2.634   2.284  0.7089  2.5281  2.4306
  444SOL     OW 1330   1.025   1.217   1.459  0.4601 -0.0348 -0.0928
  444SOL    HW1 1331   1.113   1.184   1.489 -2.1596  0.3713 -0.1688
  444SOL    HW2 1332   1.021   1.318   1.447  2.0696 -0.3603 -0.7023
  445SOL     OW 1333   0.186   2.267   2.096 -0.3385  0.0299 -0.4711
  445SOL    HW1 1334   0.092   2.252   2.120  0.6014 -0.4709 -1.5703
  445SOL    HW2 1335   0.252   2.194   2.128 -0.1062  1.0886 -0.9048
  446SOL     OW 1336   0.130   1.956   2.363  0.2337  0.0237 -0.3366
  446SOL    HW1 1337   0.081   2.047   2.358 -1.1918 -1.7253 -1.5487
  446SOL    HW2 1338   0.139   1.926   2.263 -2.8529  1.9688 -3.4703
  447SOL     OW 1339   1.285   1.718   1.922 -0.1142 -0.7036  0.5151
  447SOL    HW1 1340   1.191   1.752   1.945  1.0047  0.6532  0.3939
  447SOL    HW2 1341   1.360   1.776   1.964 -2.1257  1.8652 -0.3702
  448SOL     OW 1342   0.184   1.462   2.039  0.3248 -0.2285  0.5420
  448SOL    HW1 1343   0.187   1.551   1.985 -3.6293  2.0942 -0.2520
  448SOL    HW2 1344   0.125   1.461   2.120  0.5412 -1.7949 -1.9990
  449SOL     OW 1345   1.849   2.940   0.822  0.7562 -0.1523  0.0333
  449SOL    HW1 1346   1.824   2.969   0.915  0.1447  1.0958 -2.1382
  449SOL    HW2 1347   1.891   2.844   0.824 -0.2146 -0.9236  0.7136
  450SOL     OW 1348   2.240   1.451   0.673 -0.3564 -0.6652 -0.2232
  450SOL    HW1 1349   2.186   1.500   0.747  2.6795 -0.0947  2.0759
  450SOL    HW2 1350   2.295   1.509   0.610 -2.1336 -2.2278 -0.4490
  451SOL     OW 1351   1.402   3.016   1.476 -0.4382  0.6042  0.5786
  451SOL    HW1 1352   1.330   3.082   1.507  2.8322 -3.0351  1.3865
  451SOL    HW2 1353   1.449   2.984   1.564  1.3226  1.7375  1.6212
  452SOL     OW 1354   2.696   2.324   2.254 -0.3677 -0.0277  0.2180
  452SOL    HW1 1355   2.638   2.409   2.230  2.5957  1.1048 -1.3290
  452SOL    HW2 1356   2.701   2.305   2.354 -2.5901 -1.4938 -2.4618
  453SOL     OW 1357   2.461   2.650   3.076 -0.0344  0.2693 -0.1220
  453SOL    HW1 1358   2.375   2.706   3.106 -2.5166  0.3408  0.7996
  453SOL    HW2 1359   2.440   2.588   2.993 -2.6447 -6.4708 -1.6704
  454SOL     OW 1360   0.939   1.200   2.004  0.0946  0.1837 -0.4058
  454SOL    HW1 1361   0.930   1.156   1.911  0.5678  1.7143 -0.5125
  454SOL    HW2 1362   1.023   1.262   2.000 -0.9157 -0.2876  0.3214
  455SOL     OW 1363   0.645   2.645   2.818  0.6274  0.3147  0.5105
  455SOL    HW1 1364   0.741   2.689   2.810 -0.5940 -1.5790 -1.2470
  455SOL    HW2 1365   0.658   2.558   2.883 -0.7044 -0.1323  1.3713
  456SOL     OW 1366   0.371   1.947   0.215  0.0723  0.1452 -0.3240
  456SOL    HW1 1367   0.449   1.912   0.273 -1.1512 -1.1016  1.4643
  456SOL    HW2 1368   0.367   2.050   0.203  0.0232  0.1215 -1.6350
  457SOL     OW 1369   0.417   2.773   0.657 -0.2248  0.2556 -0.3934
  457SOL    HW1 1370   0.426   2.817   0.565  4.2087 -0.2880  2.2466
  457SOL    HW2 1371   0.509   2.750   0.708 -0.8277  0.6647  1.9901
  458SOL     OW 1372   2.922   0.041   1.257 -0.3900  0.1086 -0.3008
  458SOL    HW1 1373   2.970   0.134   1.245  1.8530 -1.1311 -3.5675
  458SOL    HW2 1374   2.909  -0.015   1.169 -1.9672 -1.3690  2.1241
  459SOL     OW 1375   2.197   2.484   0.765  0.5609  0.0451  0.2648
  459SOL    HW1 1376   2.252   2.537   0.834 -0.4881 -1.5923 -0.8680
  459SOL    HW2 1377   2.241   2.392   0.754 -0.2850  0.7619  1.2556
  460SOL     OW 1378   1.187   2.054   2.751  0.6792 -0.4472 -0.2624
  460SOL    HW1 1379   1.230   2.057   2.656  1.3203 -1.1582  0.6713
  460SOL    HW2 1380   1.215   1.969   2.807 -1.1289 -0.2399  0.4188
  461SOL     OW 1381   0.458   2.128   2.717 -0.5999 -0.3335 -0.3847
  461SOL    HW1 1382   0.396   2.068   2.662 -0.2664 -1.5884  0.1534
  461SOL    HW2 1383   0.463   2.086   2.806 -0.0003 -0.8502 -1.2519
  462SOL     OW 1384   0.951   1.014   1.754 -0.0883 -0.0265  0.2911
  462SOL    HW1 1385   0.943   0.936   1.688 -0.9881 -0.1209 -1.3214
  462SOL    HW2 1386   0.876   1.084   1.744  0.2967  2.0636 -1.0367
  463SOL     OW 1387   0.434   0.849   0.475 -0.3179  0.5030  0.0582
  463SOL    HW1 1388   0.481   0.754   0.462  2.2938 -1.3940  0.8648
  463SOL    HW2 1389   0.332   0.835   0.470 -0.9970  1.4992 -0.0151
  464SOL     OW 1390   0.608   2.350   2.235  0.3742  0.5237 -0.1947
  464SOL    HW1 1391   0.571   2.414   2.306  2.8812 -0.2615 -1.9010
  464SOL    HW2 1392   0.557   2.355   2.146  1.7743  0.0335  0.8940
  465SOL     OW 1393   0.248   0.944   0.810 -0.1555 -0.1979  0.5108
  465SOL    HW1 1394   0.158   0.963   0.766  0.2404 -0.8669 -1.2993
  465SOL    HW2 1395   0.289   0.850   0.798  1.3890 -0.0021 -0.8498
  466SOL     OW 1396   1.359   1.130   1.029 -0.1754 -0.0528 -0.1228
  466SOL    HW1 1397   1.381   1.221   0.983  1.9995 -1.3602 -0.1239
  466SOL    HW2 1398   1.261   1.134   1.066  0.6840  3.0778  2.6822
  467SOL     OW 1399   0.610   0.422   2.471 -0.5509  0.1095 -0.1080
  467SOL    HW1 1400   0.559   0.503   2.517  0.4738  1.1145 -1.2635
  467SOL    HW2 1401   0.630   0.342   2.532 -0.3246 -0.6808  1.5733
  468SOL     OW 1402   0.437   2.243   1.622 -0.1267 -0.1608  0.3535
  468SOL    HW1 1403   0.515   2.299   1.658 -2.6253  0.3867  1.0992
  468SOL    HW2 1404   0.440   2.231   1.519 -0.3761 -0.2893  0.7939
  469SOL     OW 1405   1.390   1.341   1.241  0.0123 -0.5656  0.2826
  469SOL    HW1 1406   1.428   1.352   1.150 -0.8899 -2.4913  4.8330
  469SOL    HW2 1407   1.440   1.396   1.316 -0.0925  1.2407 -0.2353
  470SOL     OW 1408   3.036   1.791   0.753 -0.1097 -0.4922 -0.5382
  470SOL    HW1 1409   3.110   1.782   0.687  0.5892  0.6778  2.8350
  470SOL    HW2 1410   3.050   1.739   0.841  3.3102 -0.8119  1.2845
  471SOL     OW 1411   2.576   1.395   2.184 -0.6793  0.1951 -0.4542
  471SOL    HW1 1412   2.577   1.293   2.191 -0.6974 -0.2421  0.1500
  471SOL    HW2 1413   2.671   1.441   2.197  0.3267 -0.7617  0.7083
  472SOL     OW 1414   1.140   2.482   0.102 -0.5806 -0.6125 -0.4953
  472SOL    HW1 1415   1.229   2.462   0.154 -1.7014 -2.6860 -1.5207
  472SOL    HW2 1416   1.070   2.406   0.113 -2.0500 -0.1365  1.6983
  473SOL     OW 1417   1.060   1.517   1.011  0.0486 -0.7256  0.2658
  473SOL    HW1 1418   0.972   1.507   0.957 -0.0149 -2.1445 -0.3080
  473SOL    HW2 1419   1.072   1.447   1.089  2.9748  0.0925 -0.5921
  474SOL     OW 1420   0.652   1.284   0.547  0.1035 -0.1716  0.1957
  474SOL    HW1 1421   0.582   1.219   0.508 -0.9157  2.7163 -0.8547
  474SOL    HW2 1422   0.727   1.227   0.593  0.5314 -0.2784  0.2091
  475SOL     OW 1423   2.808   0.061   0.823 -0.2704 -0.5738  0.3257
  475SOL    HW1 1424   2.877   0.139   0.807 -2.8151  0.4911 -2.1503
  475SOL    HW2 1425   2.711   0.095   0.829  0.3095  2.0010 -0.3017
  476SOL     OW 1426   0.959   3.055   1.802  0.3396 -0.3200 -0.1699
  476SOL    HW1 1427   1.059   3.081   1.793 -0.6387 -2.5225  0.5965
  476SOL    HW2 1428   0.927   3.020   1.713  1.0289 -0.4979  0.1941
  477SOL     OW 1429   1.452   0.298   2.406  0.6486 -0.2842  0.3713
  477SOL    HW1 1430   1.438   0.317   2.507 -0.6856  1.3086 -0.7872
  477SOL    HW2 1431   1.539   0.242   2.384  0.1837  0.1919  0.3795
  478SOL     OW 1432   2.248   1.898   0.283  0.0499 -0.1239  0.5764
  478SOL    HW1 1433   2.234   1.818   0.353  1.2258 -1.3690 -0.1703
  478SOL    HW2 1434   2.307   1.864   0.211 -1.4223  2.0705 -0.3334
  479SOL     OW 1435   1.246   0.971   2.901 -0.4411  0.2932  0.0261
  479SOL    HW1 1436   1.327   0.967   2.835 -0.6918 -1.8531 -0.8096
  479SOL    HW2 1437   1.176   0.897   2.881 -0.1840 -0.4271  1.7837
  480SOL     OW 1438   2.667   2.300   0.385  0.4740 -0.2588  0.2115
  480SOL    HW1 1439   2.719   2.229   0.440  1.2263 -2.4934 -1.2379
  480SOL    HW2 1440   2.562   2.293   0.389 -1.3353  2.4525 -1.2885
  481SOL     OW 1441   1.045   1.173   0.884  0.3034  0.4265  0.1323
  481SOL    HW1 1442   1.079   1.268   0.852  1.6164  1.6453 -0.8027
  481SOL    HW2 1443   1.078   1.145   0.978 -2.4039  1.1513 -0.2635
  482SOL     OW 1444   1.564   0.302   1.981 -0.1637  0.0504  0.1907
  482SOL    HW1 1445   1.581   0.408   1.977  1.3465  1.7223  1.5070
  482SOL    HW2 1446   1.651   0.250   2.005 -1.4140 -1.4712 -2.1859
  483SOL     OW 1447   0.224   2.326   1.198  0.1723 -0.2373  0.1232
  483SOL    HW1 1448   0.184   2.394   1.266 -0.7269  1.6364  1.6542
  483SOL    HW2 1449   0.224   2.365   1.105 -1.3333  4.3033  2.3214
  484SOL     OW 1450   1.741   1.057   1.335  0.6851  0.3055 -0.6119
  484SOL    HW1 1451   1.814   0.996   1.372 -0.1345 -0.6924 -1.8770
  484SOL    HW2 1452   1.773   1.157   1.330  3.7004 -0.4860 -0.4131
  485SOL     OW 1453   0.738   0.742   1.835 -0.1392 -0.1508 -0.2475
  485SOL    HW1 1454   0.716   0.796   1.750 -0.0118 -3.5903 -2.2922
  485SOL    HW2 1455   0.830   0.700   1.835  1.2600 -1.2047  1.3682
  486SOL     OW 1456   0.837   1.889   2.421 -0.3228  0.1368 -0.1750
  486SOL    HW1 1457   0.867   1.917   2.515  0.5668 -3.6907 -1.3009
  486SOL    HW2 1458   0.797   1.974   2.371 -0.6051  3.3098  0.5682
  487SOL     OW 1459   1.779   1.610   1.042  0.3049 -0.7681  0.3802
  487SOL    HW1 1460   1.824   1.518   1.040 -0.7496 -0.1736 -0.9791
  487SOL    HW2 1461   1.812   1.678   0.969 -3.8405  0.8941 -1.5228
  488SOL     OW 1462   2.933   0.798   2.284  0.2240  0.6990  0.3293
  488SOL    HW1 1463   2.999   0.722   2.258  0.6096 -1.0380  1.4742
  488SOL    HW2 1464   2.865   0.767   2.355 -0.4083  0.6257 -1.8133
  489SOL     OW 1465   2.769   0.323   1.301 -0.1594 -0.2321  0.0512
  489SOL    HW1 1466   2.778   0.292   1.400 -0.0158  1.6236  1.3084
  489SOL    HW2 1467   2.862   0.317   1.256  0.3176 -1.3868  1.5423
  490SOL     OW 1468   1.436   2.917   2.821 -0.1034 -0.3441  0.2267
  490SOL    HW1 1469   1.512   2.848   2.830 -0.0489  0.7428 -2.4390
  490SOL    HW2 1470   1.392   2.916   2.728  0.9344 -1.5908  0.1870
  491SOL     OW 1471   1.748   1.498   2.720  0.1141  0.2181 -0.0652
  491SOL    HW1 1472   1.739   1.415   2.786 -2.5013  1.0530 -1.9095
  491SOL    HW2 1473   1.838   1.553   2.731 -0.4697 -1.0860  0.8614
  492SOL     OW 1474   0.540   2.064   0.649 -0.2364 -0.9279  0.6527
  492SOL    HW1 1475   0.581   2.055   0.744 -3.5699 -1.5272 -2.3365
  492SOL    HW2 1476   0.481   2.153   0.638 -1.9066  1.3140 -1.9188
  493SOL     OW 1477   0.439   1.348   2.092  0.4681  0.2192  0.1395
  493SOL    HW1 1478   0.344   1.387   2.070 -0.3361 -0.2103  1.1996
  493SOL    HW2 1479   0.444   1.244   2.095  2.7059 -1.4660  3.7412
  494SOL     OW 1480   2.706   2.621   0.105 -0.2298 -0.7400 -0.0609
  494SOL    HW1 1481   2.713   2.601   0.207  1.2523 -1.4596 -1.3124
  494SOL    HW2 1482   2.609   2.641   0.070 -0.9414 -2.4590 -2.1325
  495SOL     OW 1483   2.530   2.830   2.631 -0.2180  0.1428 -0.5391
  495SOL    HW1 1484   2.535   2.726   2.607  0.5708 -2.0081 -0.8266
  495SOL    HW2 1485   2.580   2.888   2.559  2.6174 -0.0230  0.9137
  496SOL     OW 1486   1.974   2.298   0.818  0.6021  0.2866 -0.6075
  496SOL    HW1 1487   2.016   2.363   0.889 -0.8126  3.0926  2.2313
  496SOL    HW2 1488   1.996   2.199   0.834  2.2007  2.3943 -0.3971
  497SOL     OW 1489   0.208   2.999   2.374 -0.4067 -0.6661  0.4515
  497SOL    HW1 1490   0.142   3.062   2.433 -1.8586  2.4694  2.2684
  497SOL    HW2 1491   0.240   3.048   2.285  0.2014  1.8334 -0.3458
  498SOL     OW 1492   1.127   1.377   1.226 -0.3497 -0.0284 -0.1956
  498SOL    HW1 1493   1.233   1.369   1.229 -0.7140 -1.1109 -0.8428
  498SOL    HW2 1494   1.083   1.410   1.311 -2.0408 -1.0032 -1.2155
  499SOL     OW 1495   0.613   1.829   0.342  0.4098 -0.2717  0.2501
  499SOL    HW1 1496   0.654   1.759   0.281  3.6439 -0.4561  0.8268
  499SOL    HW2 1497   0.676   1.873   0.411  0.2718 -0.7709 -1.1969
  500SOL     OW 1498   1.537   2.874   1.680 -0.3229  0.2042 -0.4051
  500SOL    HW1 1499   1.557   2.869   1.784 -0.0935  2.5864  0.3919
  500SOL    HW2 1500   1.541   2.785   1.627  2.4474 -2.2163  0.6719
  501SOL     OW 1501   0.794   1.178   2.293 -0.3115 -0.3284  0.1354
  501SOL    HW1 1502   0.722   1.107   2.302  0.9683  2.3525 -0.9474
  501SOL    HW2 1503   0.846   1.179   2.209 -0.4300 -1.3023 -0.7136
  502SOL     OW 1504   2.589   0.930   1.781 -0.3335 -0.0357  0.6165
  502SOL    HW1 1505   2.604   0.977   1.689 -0.3148  1.2920  1.6257
  502SOL    HW2 1506   2.580   0.828   1.773 -2.2835  4.2767  0.6232
  503SOL     OW 1507   1.299   0.127   0.673 -0.2918 -0.0725 -0.4080
  503SOL    HW1 1508   1.238   0.210   0.665 -0.2702  2.3940 -0.8719
  503SOL    HW2 1509   1.399   0.158   0.684  0.9415  0.7638 -1.4710
  504SOL     OW 1510   3.040   2.310   1.510  0.1104 -0.1467  0.2858
  504SOL    HW1 1511   2.990   2.403   1.524  1.3173  1.0196  1.7297
  504SOL    HW2 1512   3.050   2.260   1.597  1.5665 -0.1675  3.5180
  505SOL     OW 1513   2.306   1.170   1.468  0.1588 -0.1121  0.0709
  505SOL    HW1 1514   2.330   1.175   1.365  0.7816  2.3569  0.1796
  505SOL    HW2 1515   2.347   1.260   1.513  1.1209 -0.6811  1.6597
  506SOL     OW 1516   1.960   0.163   1.837  0.8570 -0.3781  0.4551
  506SOL    HW1 1517   2.047   0.114   1.843 -1.4236 -0.8302  0.0100
  506SOL    HW2 1518   1.967   0.261   1.868  0.3935  0.7576 -0.9991
  507SOL     OW 1519   0.507   0.705   2.202  0.3856  0.7846 -0.2726
  507SOL    HW1 1520   0.494   0.734   2.105  0.4056 -4.8041  0.8305
  507SOL    HW2 1521   0.604   0.665   2.227  1.0671  0.2550  0.5213
  508SOL     OW 1522   0.313   1.698   0.781  0.4213 -0.1237 -0.3193
  508SOL    HW1 1523   0.387   1.745   0.716  3.5147  1.9464 -0.1808
  508SOL    HW2 1524   0.307   1.745   0.876 -0.3597 -1.5170  1.3720
  509SOL     OW 1525   1.280   1.226   2.460 -0.4270  0.4467  0.6167
  509SOL    HW1 1526   1.307   1.223   2.358  1.2490 -1.7942 -0.9130
  509SOL    HW2 1527   1.187   1.181   2.486 -2.5762  3.0939  0.1586
  510SOL     OW 1528   1.291   2.016   2.219  0.0151 -0.0164  0.1362
  510SOL    HW1 1529   1.311   2.045   2.122 -0.8959 -0.0706  0.6906
  510SOL    HW2 1530   1.243   1.921   2.225  0.0936  1.1306 -0.6797
  511SOL     OW 1531   3.003   2.762   1.298  0.1154  0.1243  0.1695
  511SOL    HW1 1532   3.044   2.787   1.204  1.5549 -1.5604  0.7984
  511SOL    HW2 1533   2.900   2.746   1.299 -1.8109  0.0668  1.3558
  512SOL     OW 1534   2.361   0.430   1.371  0.1625 -0.2032 -0.3302
  512SOL    HW1 1535   2.261   0.463   1.358 -0.8984 -2.0331  2.5017
  512SOL    HW2 1536   2.409   0.386   1.285  1.0176 -1.5574 -1.1623
  513SOL     OW 1537   2.581   2.117   0.899  0.3776  0.5876  0.8834
  513SOL    HW1 1538   2.546   2.184   0.825 -2.1345  0.4824 -0.8709
  513SOL    HW2 1539   2.680   2.085   0.884  0.3177  2.2565  0.1502
  514SOL     OW 1540   0.623   2.722   0.432  0.1974  0.0747 -0.2941
  514SOL    HW1 1541   0.662   2.750   0.339  0.8715 -1.9112  0.6144
  514SOL    HW2 1542   0.659   2.782   0.509 -1.5877  2.3431  0.6107
  515SOL     OW 1543   1.937   1.344   2.413 -0.1006  0.3174  0.5531
  515SOL    HW1 1544   1.928   1.294   2.321 -0.1575 -1.0096 -0.5157
  515SOL    HW2 1545   1.880   1.290   2.484 -1.4006 -0.4186 -1.9363
  516SOL     OW 1546   0.245   0.235   1.874  0.1877  0.8328  0.1489
  516SOL    HW1 1547   0.341   0.205   1.879 -2.9293  2.3941 -2.5730
  516SOL    HW2 1548   0.187   0.165   1.823 -0.2328  1.4545 -2.3235
  517SOL     OW 1549   0.477   0.208   1.159  0.1725  0.0647 -0.2564
  517SOL    HW1 1550   0.553   0.155   1.215  2.7146 -2.3180  1.7395
  517SOL    HW2 1551   0.382   0.163   1.170 -1.8357 -2.0466  0.0399
  518SOL     OW 1552   2.148   3.012   1.828 -0.7472  0.3115 -0.2558
  518SOL    HW1 1553   2.203   3.101   1.818  2.0760  1.2282 -1.6590
  518SOL    HW2 1554   2.120   2.973   1.731 -3.7682 -0.4396 -1.8292
  519SOL     OW 1555   2.360   2.207   2.540  0.1577 -0.7910 -0.6155
  519SOL    HW1 1556   2.279   2.178   2.599 -0.5631  1.6757 -1.6334
  519SOL    HW2 1557   2.385   2.307   2.553 -2.9278 -0.6036  1.3716
  520SOL     OW 1558   1.857   2.741   1.687  0.0619  0.2437 -0.0305
  520SOL    HW1 1559   1.792   2.672   1.735 -0.6318  3.7487 -3.0902
  520SOL    HW2 1560   1.946   2.697   1.653  3.0845  0.8376  0.1064
  521SOL     OW 1561   0.588   0.056   2.151 -0.0064 -0.1560  0.0855
  521SOL    HW1 1562   0.484   0.036   2.145 -0.8110 -1.2552 -1.0648
  521SOL    HW2 1563   0.624   0.024   2.242 -1.6767 -2.5323  2.5585
  522SOL     OW 1564   0.242   1.894   1.472 -0.2660 -0.4714 -0.1635
  522SOL    HW1 1565   0.269   1.933   1.567 -0.0954 -0.8282  1.0156
  522SOL    HW2 1566   0.208   1.961   1.402  1.4944 -2.2786 -1.5819
  523SOL     OW 1567   2.147   2.930   1.573  0.0154 -0.6378  0.2773
  523SOL    HW1 1568   2.226   2.866   1.580 -1.9027  1.7070 -1.3135
  523SOL    HW2 1569   2.067   2.885   1.517 -3.0415  1.0337 -0.1632
  524SOL     OW 1570   0.209   2.755   2.795 -0.3653 -0.0327 -0.0216
  524SOL    HW1 1571   0.176   2.837   2.852 -0.9991 -2.0142  0.1315
  524SOL    HW2 1572   0.295   2.769   2.745 -2.1283 -0.9170 -1.1169
  525SOL     OW 1573   2.132   2.056   0.493  0.7210 -0.2835  0.2214
  525SOL    HW1 1574   2.137   2.004   0.583 -0.7995 -2.5478  0.9056
  525SOL    HW2 1575   2.182   2.005   0.414  0.0687 -0.8655  3.1897
  526SOL     OW 1576   0.422   1.544   1.745  0.3021 -0.3767  0.6882
  526SOL    HW1 1577   0.491   1.577   1.809 -2.4907  3.8951  3.3761
  526SOL    HW2 1578   0.408   1.440   1.752 -0.5380 -2.6892  0.6570
  527SOL     OW 1579   1.056   2.954   1.193 -0.4593 -0.3228  0.4139
  527SOL    HW1 1580   1.115   2.875   1.224 -1.2559 -0.8944  2.9173
  527SOL    HW2 1581   1.104   3.048   1.172  1.7625 -0.1972 -1.1763
  528SOL     OW 1582   1.308   2.389   0.576  0.1287 -0.9500 -0.0589
  528SOL    HW1 1583   1.360   2.304   0.578 -0.6175  3.2107 -0.8161
  528SOL    HW2 1584   1.359   2.473   0.615  0.3300  1.5367 -0.2251
  529SOL     OW 1585   1.886   1.761   0.838  0.6605 -0.2718 -0.6739
  529SOL    HW1 1586   1.844   1.764   0.740 -1.6774 -2.8310 -0.0080
  529SOL    HW2 1587   1.907   1.859   0.876  0.5762  1.5791  0.4424
  530SOL     OW 1588   0.434   2.497   0.160  0.4941 -0.2965  0.3194
  530SOL    HW1 1589   0.444   2.442   0.249 -0.6926  1.7695  2.7278
  530SOL    HW2 1590   0.424   2.432   0.083 -0.5551  0.3251  1.5010
  531SOL     OW 1591   1.837   1.004   1.062  0.4824  0.5009  0.9855
  531SOL    HW1 1592   1.821   1.009   0.958 -1.7775 -2.5032 -1.1991
  531SOL    HW2 1593   1.767   0.940   1.108  1.7329 -2.2422  0.9497
  532SOL     OW 1594   0.379   1.151   0.725 -0.2479  0.3655  0.2636
  532SOL    HW1 1595   0.400   1.136   0.626 -1.8432 -0.2490  1.0964
  532SOL    HW2 1596   0.307   1.086   0.762 -1.4669 -1.8845 -2.1200
  533SOL     OW 1597   1.828   0.061   2.530  0.0037  0.7168 -0.4363
  533SOL    HW1 1598   1.921   0.017   2.553  1.3690 -1.0927  0.8942
  533SOL    HW2 1599   1.788   0.108   2.616 -1.1920 -0.4526 -2.5803
  534SOL     OW 1600   0.224   0.196   1.570 -0.0105 -0.1142 -0.3511
  534SOL    HW1 1601   0.303   0.246   1.530 -1.6323 -1.8216 -2.1268
  534SOL    HW2 1602   0.149   0.260   1.592  0.5982 -0.7624 -1.2970
  535SOL     OW 1603   1.896   0.403   0.174  0.3445 -0.3424  0.2337
  535SOL    HW1 1604   1.951   0.466   0.244  1.3183 -1.5091  1.8406
  535SOL    HW2 1605   1.826   0.365   0.235  3.0176  0.6446 -0.1798
  536SOL     OW 1606   1.247   2.554   1.011 -0.1534  0.9109 -0.4834
  536SOL    HW1 1607   1.223   2.455   1.043  0.0274  0.0969 -0.6732
  536SOL    HW2 1608   1.206   2.574   0.920  1.5880  0.1134 -1.9927
  537SOL     OW 1609   0.882   0.219   2.333  0.3524 -0.3792  0.4161
  537SOL    HW1 1610   0.907   0.247   2.235 -2.0590  1.3042 -0.6710
  537SOL    HW2 1611   0.804   0.149   2.332  2.2653 -0.7473 -3.5873
  538SOL     OW 1612   1.700   2.339   1.558  0.2007  0.0659 -0.2504
  538SOL    HW1 1613   1.648   2.289   1.480 -0.3852 -1.1753 -0.9310
  538SOL    HW2 1614   1.783   2.380   1.515 -0.8761  0.7630  1.0892
  539SOL     OW 1615   0.183   1.622   2.697 -0.3860  0.5708 -0.1639
  539SOL    HW1 1616   0.105   1.588   2.636  1.4768 -0.3353  3.4888
  539SOL    HW2 1617   0.169   1.709   2.747  2.7770 -2.3784 -1.7937
  540SOL     OW 1618   2.697   1.732   2.058 -0.0873  0.0090 -0.7398
  540SOL    HW1 1619   2.646   1.645   2.040  0.8896 -1.1582 -2.2545
  540SOL    HW2 1620   2.627   1.807   2.046 -0.2810  0.1538  0.5301
  541SOL     OW 1621   0.442   2.305   3.081  0.0963 -0.1867 -0.5453
  541SOL    HW1 1622   0.514   2.243   3.120  0.3908  2.9371 -0.7285
  541SOL    HW2 1623   0.362   2.260   3.029 -3.2260  1.4554  0.9619
  542SOL     OW 1624   2.190   2.627   0.466 -0.1232 -0.2617  0.7175
  542SOL    HW1 1625   2.166   2.707   0.403  0.9787 -3.0916  1.4849
  542SOL    HW2 1626   2.106   2.578   0.497 -1.1577 -1.5415 -0.4644
  543SOL     OW 1627   1.028   1.793   1.736 -0.5381 -0.2387  0.0058
  543SOL    HW1 1628   1.038   1.811   1.839  0.6077  0.2924 -0.7250
  543SOL    HW2 1629   1.010   1.880   1.684 -0.3719  1.3566 -3.7521
  544SOL     OW 1630   0.866   0.432   0.152  0.5502  0.0584 -0.0409
  544SOL    HW1 1631   0.892   0.357   0.217 -0.2137 -0.2946 -0.2698
  544SOL    HW2 1632   0.924   0.436   0.066 -0.0908  1.5815  2.3622
  545SOL     OW 1633   1.175   1.707   0.620 -0.3328 -0.4836  0.0512
  545SOL    HW1 1634   1.253   1.694   0.687 -1.9493 -2.0455 -0.0041
  545SOL    HW2 1635   1.202   1.758   0.532  0.6844  1.1256  0.0179
  546SOL     OW 1636   2.661   1.572   0.031 -0.4893 -0.6253 -0.4684
  546SOL    HW1 1637   2.679   1.499  -0.044 -1.7677 -1.5838  0.8980
  546SOL    HW2 1638   2.576   1.551   0.076  3.0793  0.7354 -1.6496
  547SOL     OW 1639   0.534   0.017   2.786  0.4898 -0.0461  0.4300
  547SOL    HW1 1640   0.622  -0.040   2.761 -1.4562  1.0260  2.2794
  547SOL    HW2 1641   0.467  -0.031   2.855 -1.4252  1.8786  2.1624
  548SOL     OW 1642   2.073   0.822   3.015 -0.4455  0.1305 -0.6613
  548SOL    HW1 1643   1.984   0.795   3.065  1.6271  0.2202 -0.1450
  548SOL    HW2 1644   2.101   0.919   3.047  1.3379  2.0627  0.9970
  549SOL     OW 1645   0.576   0.410   0.116  0.5662 -0.2314  0.1669
  549SOL    HW1 1646   0.538   0.486   0.059 -2.8398 -3.0966  1.1988
  549SOL    HW2 1647   0.677   0.415   0.121 -2.5024 -1.2515  0.7211
  550SOL     OW 1648   2.515   2.895   2.890 -0.0466 -0.2055 -0.7978
  550SOL    HW1 1649   2.496   2.804   2.926 -0.2064  1.7769  0.1175
  550SOL    HW2 1650   2.525   2.879   2.788 -0.3765 -1.7007 -1.4536
  551SOL     OW 1651   0.240   0.788   0.179 -0.2436  0.2259  0.4393
  551SOL    HW1 1652   0.341   0.803   0.199  0.2277  0.4601  2.4820
  551SOL    HW2 1653   0.188   0.778   0.271 -0.0447 -0.3296 -0.5164
  552SOL     OW 1654   0.838   2.833   1.866 -0.4699 -0.1207 -0.7867
  552SOL    HW1 1655   0.827   2.797   1.968  0.6451 -0.7782  0.5342
  552SOL    HW2 1656   0.899   2.922   1.856  3.2715  1.4366 -2.2986
  553SOL     OW 1657   3.070   2.556   0.419 -0.6534 -0.1812 -0.1219
  553SOL    HW1 1658   3.034   2.467   0.385  0.3411  1.2134 -2.9166
  553SOL    HW2 1659   3.018   2.589   0.501 -0.6359  0.5320 -1.5219
  554SOL     OW 1660   2.129   0.261   0.570  0.1886 -0.2223 -0.2531
  554SOL    HW1 1661   2.132   0.220   0.479  2.7117  0.0444  1.0275
  554SOL    HW2 1662   2.145   0.193   0.651 -0.9057 -0.6814  0.9173
  555SOL     OW 1663   0.477   2.944   2.437 -0.3698 -0.5370 -0.3433
  555SOL    HW1 1664   0.379   2.977   2.436 -0.4789  0.9228  1.8674
  555SOL    HW2 1665   0.492   2.865   2.376 -2.3541 -2.5160  3.2928
  556SOL     OW 1666   0.906   2.269   1.670  0.2419  0.1236  0.7837
  556SOL    HW1 1667   0.914   2.366   1.700 -0.3221 -0.4071  1.2649
  556SOL    HW2 1668   0.937   2.251   1.571  1.5313  1.6951  0.1157
  557SOL     OW 1669   0.166   2.132   0.127  0.2550 -0.0429 -0.4730
  557SOL    HW1 1670   0.109   2.043   0.124  0.1555  0.0119 -0.4890
  557SOL    HW2 1671   0.193   2.163   0.031  1.6079  2.6292  1.2629
  558SOL     OW 1672   2.970   2.335   0.275  0.2255 -0.1903  0.4549
  558SOL    HW1 1673   2.875   2.288   0.283 -0.0877 -0.1734  0.8091
  558SOL    HW2 1674   3.006   2.350   0.178  0.5806  1.7190 -0.4944
  559SOL     OW 1675   0.448   2.215   1.333 -0.0009 -0.0240  0.1289
  559SOL    HW1 1676   0.364   2.237   1.272 -0.4006 -0.5757  1.1425
  559SOL    HW2 1677   0.473   2.115   1.335  0.1306 -1.5270  1.3605
  560SOL     OW 1678   2.052   1.117   0.003  0.3944  0.4354  0.2200
  560SOL    HW1 1679   2.057   1.180  -0.079  1.1804  2.0998 -0.1844
  560SOL    HW2 1680   2.009   1.165   0.082 -0.5355  2.4418 -1.5597
  561SOL     OW 1681   3.040   1.914   0.052  0.2026 -0.0924 -0.6560
  561SOL    HW1 1682   2.979   1.831   0.062 -0.6735 -1.1345  4.4805
  561SOL    HW2 1683   2.997   1.990  -0.007  0.8452  0.9023 -2.4521
  562SOL     OW 1684   0.861   2.176   2.446  0.0431  0.2894 -0.2393
  562SOL    HW1 1685   0.763   2.171   2.412  1.6578 -1.7103  0.5211
  562SOL    HW2 1686   0.878   2.168   2.549  2.5233  0.0082  3.4440
  563SOL     OW 1687   0.730   2.536   2.538 -0.4309  0.2488 -0.0995
  563SOL    HW1 1688   0.810   2.474   2.533  1.0849  1.9051  1.4820
  563SOL    HW2 1689   0.714   2.568   2.638  0.1301  0.4568  2.7234
  564SOL     OW 1690   2.737   1.295   2.838 -0.2876  0.2469 -0.0849
  564SOL    HW1 1691   2.650   1.285   2.895 -1.7939  1.2645 -0.5278
  564SOL    HW2 1692   2.773   1.393   2.842 -0.9277  0.6795  1.9297
  565SOL     OW 1693   2.507   1.978   2.591  0.4920 -0.0004 -0.3113
  565SOL    HW1 1694   2.444   2.054   2.559 -0.9977 -0.8318  2.4148
  565SOL    HW2 1695   2.572   2.007   2.666 -1.7529 -1.3669 -0.7291
  566SOL     OW 1696   1.985   2.865   1.353 -0.3252  0.0919  0.1031
  566SOL    HW1 1697   1.952   2.770   1.358  0.3201  2.3918  2.0130
  566SOL    HW2 1698   2.042   2.881   1.268 -1.7551 -0.0222 -0.7035
  567SOL     OW 1699   2.454   0.157   2.257  0.1315 -0.1463 -0.8212
  567SOL    HW1 1700   2.488   0.156   2.158  0.8495  2.1684  0.6557
  567SOL    HW2 1701   2.358   0.198   2.259 -0.0333  0.5029 -3.0100
  568SOL     OW 1702   1.475   1.821   0.424  0.9542  0.4426 -0.2394
  568SOL    HW1 1703   1.429   1.864   0.337 -2.5244  0.2306 -0.9293
  568SOL    HW2 1704   1.519   1.887   0.486 -1.5245 -3.0524 -2.0384
  569SOL     OW 1705   0.310   0.647   0.796  0.5733 -0.0019  0.0278
  569SOL    HW1 1706   0.363   0.572   0.733  1.0293 -2.9395 -0.8025
  569SOL    HW2 1707   0.226   0.604   0.849 -3.7373 -0.8945 -0.1139
  570SOL     OW 1708   0.604   0.782   2.847 -0.4190 -0.2761 -0.1781
  570SOL    HW1 1709   0.661   0.794   2.756 -1.3603 -1.0023 -3.8005
  570SOL    HW2 1710   0.602   0.866   2.910  1.7947  0.5189  0.2788
  571SOL     OW 1711   0.812   3.040   1.110 -0.0765 -0.4626 -0.2929
  571SOL    HW1 1712   0.827   3.110   1.037 -2.1654 -0.9628 -1.3890
  571SOL    HW2 1713   0.897   2.998   1.150 -0.0721 -0.5825  1.5553
  572SOL     OW 1714   1.545   2.570   1.155  0.1924 -0.0391  0.0673
  572SOL    HW1 1715   1.484   2.517   1.225 -0.0732 -1.4754  1.5925
  572SOL    HW2 1716   1.491   2.647   1.110 -1.6314  0.5940 -0.8696
  573SOL     OW 1717   2.946   0.417   2.092  0.5760  0.1937  0.0860
  573SOL    HW1 1718   2.903   0.334   2.131 -3.1552  1.2813 -0.8371
  573SOL    HW2 1719   2.872   0.484   2.051 -1.7158 -0.3309 -4.0701
  574SOL     OW 1720   0.255   1.807   1.054 -0.2857  0.3345 -0.1932
  574SOL    HW1 1721   0.206   1.898   1.030 -0.2386 -0.4225 -1.3654
  574SOL    HW2 1722   0.189   1.737   1.101 -0.1904 -2.7090  0.5585
  575SOL     OW 1723   0.890   2.139   1.018  0.1508  0.3357  0.0090
  575SOL    HW1 1724   0.849   2.175   1.105  1.1592  0.1607 -0.8235
  575SOL    HW2 1725   0.929   2.210   0.951 -0.1625  0.2971  0.3501
  576SOL     OW 1726   2.920   2.929   1.745  0.0956  0.4265  0.3602
  576SOL    HW1 1727   2.859   2.864   1.683 -1.2178  0.2275  0.7103
  576SOL    HW2 1728   2.946   3.013   1.690 -2.2652 -0.8510 -1.3525
  577SOL     OW 1729   2.567   1.279   3.047  0.3869 -0.4836  0.0582
  577SOL    HW1 1730   2.556   1.173   3.034 -0.7079 -0.8753  0.5830
  577SOL    HW2 1731   2.620   1.300   3.137 -0.8678  0.7955 -2.9332
  578SOL     OW 1732   1.320   2.714   2.548  0.0416 -0.6136  0.1876
  578SOL    HW1 1733   1.230   2.694   2.503 -0.1230 -2.6962  0.1389
  578SOL    HW2 1734   1.355   2.811   2.534 -0.8132 -2.3887 -0.7982
  579SOL     OW 1735   0.116   2.542   0.177  0.1785 -0.6480 -0.1229
  579SOL    HW1 1736   0.067   2.563   0.269 -1.9732  1.0429 -1.1342
  579SOL    HW2 1737   0.180   2.463   0.184 -1.1265  0.0589  0.7932
  580SOL     OW 1738   1.013   2.645   0.357 -0.2169 -0.1605 -0.1635
  580SOL    HW1 1739   1.096   2.673   0.301 -1.6311  0.7214  0.1134
  580SOL    HW2 1740   0.945   2.586   0.307 -0.2926  0.0031  1.7398
  581SOL     OW 1741   1.186   2.619   1.498  0.0906  0.0916  0.3813
  581SOL    HW1 1742   1.260   2.548   1.484 -1.8233 -1.3388  1.2822
  581SOL    HW2 1743   1.205   2.700   1.441 -2.7640 -1.0438  1.6467
  582SOL     OW 1744   1.488   0.039   1.851  0.0860  0.0898  0.0023
  582SOL    HW1 1745   1.454   0.130   1.875 -2.4578 -0.0552 -0.5457
  582SOL    HW2 1746   1.573   0.043   1.795 -2.6784  1.3728  0.8742
  583SOL     OW 1747   2.444   2.987   0.602  0.4068  0.2700 -0.2081
  583SOL    HW1 1748   2.501   2.932   0.536 -2.3546 -0.6228 -0.7033
  583SOL    HW2 1749   2.397   2.937   0.682  0.3240  1.9066  2.9328
  584SOL     OW 1750   1.571   0.996   2.117  0.2169  0.1660  0.1292
  584SOL    HW1 1751   1.618   1.054   2.044  0.3832  1.1970  3.2772
  584SOL    HW2 1752   1.638   0.963   2.192  1.3002 -1.0781 -1.4089
  585SOL     OW 1753   2.119   2.654   2.930  0.0978 -0.1178 -0.0888
  585SOL    HW1 1754   2.132   2.554   2.903 -0.3883  0.8143  0.2472
  585SOL    HW2 1755   2.024   2.680   2.934  2.2909 -0.0900 -0.6360
  586SOL     OW 1756   2.765   0.221   1.553 -0.1868  0.2598 -0.8910
  586SOL    HW1 1757   2.765   0.306   1.608 -1.8232  1.4277  2.3047
  586SOL    HW2 1758   2.678   0.171   1.572  2.0040  0.9801  0.0149
  587SOL     OW 1759   1.987   1.633   2.731 -0.5334  0.3463  0.0529
  587SOL    HW1 1760   2.047   1.590   2.656 -0.9930  3.5218  1.2903
  587SOL    HW2 1761   2.018   1.599   2.821 -1.5686 -0.4944 -0.4062
  588SOL     OW 1762   0.469   2.720   2.244 -0.0037  0.0374  0.3930
  588SOL    HW1 1763   0.386   2.770   2.203  1.7828  0.1740 -0.1639
  588SOL    HW2 1764   0.443   2.638   2.304  1.0333 -1.0236  0.7989
  589SOL     OW 1765   2.147   1.470   2.538  0.0953 -1.3482  0.3472
  589SOL    HW1 1766   2.080   1.410   2.488  0.0531 -0.1744 -1.0336
  589SOL    HW2 1767   2.241   1.443   2.525 -0.5959  1.1981  1.4096
  590SOL     OW 1768   2.329   1.694   1.991  0.6134 -0.0988 -0.4303
  590SOL    HW1 1769   2.407   1.630   1.985  0.1468 -0.8036 -0.3967
  590SOL    HW2 1770   2.358   1.784   2.029 -0.0766 -2.9302 -0.0393
  591SOL     OW 1771   1.339   2.459   0.283  1.0151 -0.3173  0.0554
  591SOL    HW1 1772   1.435   2.446   0.246  0.2218  0.8213  1.6000
  591SOL    HW2 1773   1.322   2.444   0.384  0.2661  0.7185 -1.3079
  592SOL     OW 1774   1.691   2.345   0.788 -0.3775 -0.0275 -0.2467
  592SOL    HW1 1775   1.657   2.362   0.692 -0.4274 -1.0483  3.5765
  592SOL    HW2 1776   1.798   2.332   0.788  1.8408 -1.6470  1.1673
  593SOL     OW 1777   0.610   0.168   3.068  0.7402 -0.1552  0.7198
  593SOL    HW1 1778   0.689   0.144   3.008 -1.9554 -0.5596  3.4189
  593SOL    HW2 1779   0.614   0.261   3.108  0.7351 -0.1927 -1.2733
  594SOL     OW 1780   0.918   1.991   2.676  0.4330  0.5739 -0.2007
  594SOL    HW1 1781   1.021   2.003   2.678 -0.5061  0.6322  1.7494
  594SOL    HW2 1782   0.864   2.066   2.728 -3.5941  0.0057 -0.0227
  595SOL     OW 1783   1.562   0.050   1.092 -0.1181  0.2118  1.0556
  595SOL    HW1 1784   1.653  -0.008   1.095  0.8482 -0.6241  0.2493
  595SOL    HW2 1785   1.507   0.017   1.007  2.0488  0.6029 -0.0620
  596SOL     OW 1786   3.091   1.395   2.243  0.3739 -0.4274  0.4806
  596SOL    HW1 1787   3.003   1.445   2.270 -0.3355  1.7516 -3.0117
  596SOL    HW2 1788   3.140   1.362   2.323  0.8730 -4.8388  0.6081
  597SOL     OW 1789   2.096   2.621   1.642 -0.1008 -0.0326  0.6284
  597SOL    HW1 1790   2.129   2.544   1.582  0.8679 -0.7891  0.5609
  597SOL    HW2 1791   2.157   2.643   1.715 -0.7816  0.3837 -1.1158
  598SOL     OW 1792   2.546   2.906   1.230 -0.6812 -0.2321  1.1698
  598SOL    HW1 1793   2.600   2.940   1.316  1.9555  1.0387  1.1431
  598SOL    HW2 1794   2.605   2.918   1.144  0.1204  1.8419 -0.7244
  599SOL     OW 1795   2.903   0.351   2.462  0.2398  0.6273  0.7326
  599SOL    HW1 1796   2.996   0.386   2.489  0.0120  2.8297  1.0545
  599SOL    HW2 1797   2.847   0.423   2.419 -0.2350 -2.4877 -0.0520
  600SOL     OW 1798   2.824   1.069   2.711 -0.2396  0.4016  0.1609
  600SOL    HW1 1799   2.791   0.984   2.757 -0.8816  1.6884  0.4190
  600SOL    HW2 1800   2.785   1.160   2.748 -0.2515  3.3355  1.6269
  601SOL     OW 1801   3.008   1.248   2.036  0.1670 -0.3075 -0.3718
  601SOL    HW1 1802   2.965   1.310   1.961  0.6444 -1.5216  0.7011
  601SOL    HW2 1803   3.045   1.305   2.112  2.1572 -0.4120 -3.6401
  602SOL     OW 1804   1.543   1.718   2.388 -0.4316  0.4987  0.0262
  602SOL    HW1 1805   1.501   1.645   2.321 -0.9325 -2.2501 -1.9947
  602SOL    HW2 1806   1.634   1.681   2.439  1.8012  1.6502 -0.1325
  603SOL     OW 1807   0.659   1.267   2.670 -0.5356  0.1407  0.6613
  603SOL    HW1 1808   0.607   1.265   2.584 -0.2239  0.9893 -0.3600
  603SOL    HW2 1809   0.720   1.184   2.689  1.7575 -1.6195  1.4117
  604SOL     OW 1810   2.414   0.963   0.194 -0.1136  0.0295 -0.1935
  604SOL    HW1 1811   2.487   1.005   0.129  1.5246  1.1158 -1.2855
  604SOL    HW2 1812   2.370   0.883   0.148  1.1245 -0.2128 -2.8654
  605SOL     OW 1813   2.686   1.133   1.940 -0.0608 -0.5737  0.0020
  605SOL    HW1 1814   2.649   1.064   1.868  0.8692 -0.4585  1.8843
  605SOL    HW2 1815   2.651   1.115   2.035  0.1356 -0.6347 -1.8398
  606SOL     OW 1816   1.554   2.541   2.606 -0.6581 -0.0973  0.3041
  606SOL    HW1 1817   1.484   2.603   2.572  0.7728 -0.4686  0.3124
  606SOL    HW2 1818   1.522   2.441   2.581  1.7082  0.1383 -0.2472
  607SOL     OW 1819   1.356   1.571   0.444  0.3616  0.5495 -0.3499
  607SOL    HW1 1820   1.301   1.575   0.532 -0.6420 -0.3213 -0.6676
  607SOL    HW2 1821   1.380   1.667   0.416 -1.7846 -1.6509  3.1087
  608SOL     OW 1822   1.419   2.901   0.449  0.5686 -0.4071  0.1811
  608SOL    HW1 1823   1.484   2.934   0.380 -0.9791 -1.0906 -0.0473
  608SOL    HW2 1824   1.338   2.962   0.464 -1.3945 -1.9828 -2.0273
  609SOL     OW 1825   1.308   1.354   0.265 -0.4211  0.5513  0.1448
  609SOL    HW1 1826   1.342   1.428   0.327 -0.8499  0.1985  0.9691
  609SOL    HW2 1827   1.201   1.347   0.268  0.6930 -0.5024  1.4894
  610SOL     OW 1828   2.959   1.092   2.299  0.0041  0.6877 -0.3805
  610SOL    HW1 1829   2.939   0.989   2.297  1.0982  0.9632  0.7889
  610SOL    HW2 1830   2.971   1.132   2.206 -0.2282  0.5080  1.9153
  611SOL     OW 1831   2.514   0.322   1.176  0.2276  0.1247 -0.6753
  611SOL    HW1 1832   2.496   0.224   1.208  0.5066 -1.5079 -1.3309
  611SOL    HW2 1833   2.608   0.350   1.209 -0.2838 -1.8677 -1.5703
  612SOL     OW 1834   0.746   2.190   1.255 -0.0379 -0.0766  0.2571
  612SOL    HW1 1835   0.695   2.102   1.252 -0.0433  0.4101  2.7768
  612SOL    HW2 1836   0.685   2.275   1.249  0.7355  2.3317  0.3718
  613SOL     OW 1837   0.897   1.446   2.371  0.3185  0.3178  0.0023
  613SOL    HW1 1838   0.976   1.454   2.304  0.1694 -0.9004 -2.2440
  613SOL    HW2 1839   0.815   1.413   2.324 -1.1405  2.6446  0.0795
  614SOL     OW 1840   1.673   1.586   1.818  0.0139  0.0555 -0.1532
  614SOL    HW1 1841   1.652   1.688   1.804 -0.6628  0.6172  0.0184
  614SOL    HW2 1842   1.671   1.558   1.916 -1.0714  0.3801 -0.4898
  615SOL     OW 1843   0.778   1.255   1.731  0.7195  0.4385 -0.0448
  615SOL    HW1 1844   0.722   1.225   1.648 -2.4980  1.0831 -3.5182
  615SOL    HW2 1845   0.845   1.327   1.710  1.7378  1.5426  0.0600
  616SOL     OW 1846   1.095   1.537   2.195  0.7365 -0.5126 -0.0681
  616SOL    HW1 1847   1.012   1.559   2.135 -0.2557  1.4845 -1.6120
  616SOL    HW2 1848   1.134   1.619   2.245  1.7099  0.2438  2.9744
  617SOL     OW 1849   2.986   1.566   1.635 -0.0985  0.2353  0.0860
  617SOL    HW1 1850   2.980   1.474   1.684 -2.0004 -0.5693 -1.6211
  617SOL    HW2 1851   3.024   1.554   1.539  0.5484 -0.2920 -1.9745
  618SOL     OW 1852   1.872   2.102   1.368  0.1691 -0.0670  0.2362
  618SOL    HW1 1853   1.866   2.179   1.300  3.0304 -0.9248 -1.7005
  618SOL    HW2 1854   1.879   2.007   1.328  1.8817  2.9910  1.4491
  619SOL     OW 1855   1.755   0.460   2.380 -0.0199  0.4632  0.1069
  619SOL    HW1 1856   1.690   0.517   2.321  1.9598 -0.8046  1.0549
  619SOL    HW2 1857   1.733   0.356   2.390 -0.3784  1.9287  1.3352
  620SOL     OW 1858   2.284   2.845   0.785  0.1326  0.1343 -0.1339
  620SOL    HW1 1859   2.190   2.890   0.793  2.3695 -0.0384  0.9981
  620SOL    HW2 1860   2.301   2.774   0.858  0.8131 -1.1827  0.1270
  621SOL     OW 1861   2.157   1.871   1.359 -0.6859  0.0421 -0.1966
  621SOL    HW1 1862   2.167   1.861   1.462  1.0418 -1.1877 -0.3530
  621SOL    HW2 1863   2.088   1.804   1.318  1.1279 -2.4049 -0.6049
  622SOL     OW 1864   2.336   0.956   1.869  0.5009  0.0798 -0.2815
  622SOL    HW1 1865   2.441   0.941   1.839  0.7031  0.5449 -2.0262
  622SOL    HW2 1866   2.278   0.871   1.876  1.8054 -0.3559 -0.3670
  623SOL     OW 1867   1.312   0.803   2.460  0.3309 -0.5228 -0.5492
  623SOL    HW1 1868   1.250   0.721   2.475  1.9703  1.7765  1.2235
  623SOL    HW2 1869   1.259   0.863   2.399  0.3782 -3.3107 -0.7061
  624SOL     OW 1870   0.524   0.636   3.088  0.6156  0.0345  0.2141
  624SOL    HW1 1871   0.550   0.659   2.989  0.8434 -2.8626  0.8015
  624SOL    HW2 1872   0.553   0.709   3.156 -1.0933 -1.4569 -1.6731
  625SOL     OW 1873   2.783   1.715   1.029  0.0267  0.0856 -0.5304
  625SOL    HW1 1874   2.693   1.770   1.020  0.0180  0.9444  0.3980
  625SOL    HW2 1875   2.858   1.772   1.079 -0.2969 -0.4769  0.9041
  626SOL     OW 1876   0.637   2.696   1.714 -0.6538  0.5263 -0.3894
  626SOL    HW1 1877   0.684   2.779   1.757 -1.1418  0.0828 -0.2944
  626SOL    HW2 1878   0.539   2.678   1.743  2.6785 -0.6208  0.7173
  627SOL     OW 1879   0.657   0.874   1.593 -0.3721  0.5329 -0.4194
  627SOL    HW1 1880   0.603   0.798   1.551 -0.6660 -0.9228 -0.5167
  627SOL    HW2 1881   0.743   0.904   1.533  1.7610  0.0675 -2.2902
  628SOL     OW 1882   2.430   0.164   0.713  0.2002 -0.1953 -0.2968
  628SOL    HW1 1883   2.463   0.069   0.675 -0.9157 -3.2778  1.1940
  628SOL    HW2 1884   2.326   0.161   0.735 -0.6819 -0.1364  0.6834
  629SOL     OW 1885   1.901   0.924   1.979 -0.0372  0.0962  0.0720
  629SOL    HW1 1886   1.916   1.006   1.914 -0.1102  0.3261  0.5814
  629SOL    HW2 1887   1.903   0.958   2.076 -0.1332 -3.4317 -0.1488
  630SOL     OW 1888   2.913   2.275   0.785  0.2411  0.7943 -0.2293
  630SOL    HW1 1889   2.869   2.369   0.773  0.1918 -1.2988  1.1215
  630SOL    HW2 1890   2.852   2.189   0.779  1.0796 -0.2014  1.3588
  631SOL     OW 1891   0.030   0.133   2.152 -0.7657 -0.3852  0.2880
  631SOL    HW1 1892   0.067   0.194   2.227 -1.1442 -0.0352  1.7707
  631SOL    HW2 1893   0.048   0.165   2.051 -1.0285  0.4760 -0.2111
  632SOL     OW 1894   2.437   2.561   0.578 -0.2603  0.4343 -0.2158
  632SOL    HW1 1895   2.501   2.635   0.608 -1.3370  0.2053  1.8542
  632SOL    HW2 1896   2.339   2.597   0.546 -2.5622 -2.4070 -1.9642
  633SOL     OW 1897   1.450   1.206   2.682  0.2501 -0.1741  0.0502
  633SOL    HW1 1898   1.433   1.288   2.738  1.7617 -1.3453 -1.0032
  633SOL    HW2 1899   1.397   1.189   2.593  0.0532  1.3930 -0.7198
  634SOL     OW 1900   0.657   2.055   0.889 -0.6262 -0.2206  0.6674
  634SOL    HW1 1901   0.574   2.041   0.953 -2.0286 -0.5840  2.4817
  634SOL    HW2 1902   0.742   2.082   0.946  1.1833 -1.0454  0.8219
  635SOL     OW 1903   3.039   2.390   0.018 -0.6952 -0.1710  0.3551
  635SOL    HW1 1904   2.966   2.440  -0.036  0.9618  2.1096 -0.9602
  635SOL    HW2 1905   3.093   2.458   0.072  0.1221  0.0847  0.2992
  636SOL     OW 1906   2.379   2.740   2.027  0.3630 -0.3666 -1.1553
  636SOL    HW1 1907   2.351   2.839   2.013  0.6438 -1.6700 -1.8875
  636SOL    HW2 1908   2.330   2.689   2.110 -1.6059  0.3815  1.4157
  637SOL     OW 1909   2.750   0.600   1.996  0.4268 -0.1325 -0.2419
  637SOL    HW1 1910   2.682   0.621   1.921 -2.4921  0.6775 -0.6951
  637SOL    HW2 1911   2.816   0.683   2.005  3.3355 -0.8087  0.1893
  638SOL     OW 1912   2.419   1.860   1.297  0.4498 -0.2512 -0.0226
  638SOL    HW1 1913   2.316   1.862   1.317 -0.2121 -0.9724 -0.8296
  638SOL    HW2 1914   2.467   1.783   1.350 -0.2979  0.0856 -0.7506
  639SOL     OW 1915   1.320   2.217   1.674  0.1111 -0.0718  0.1449
  639SOL    HW1 1916   1.364   2.312   1.681  0.7969 -1.6243 -0.4649
  639SOL    HW2 1917   1.229   2.209   1.729 -1.1572  1.6464  2.0612
  640SOL     OW 1918   0.181   1.193   1.545  0.1446 -0.2121 -0.0165
  640SOL    HW1 1919   0.178   1.212   1.649 -1.6246 -0.5663 -0.7564
  640SOL    HW2 1920   0.260   1.127   1.533 -0.7476  1.0173  3.1329
  641SOL     OW 1921   1.946   0.248   1.493  0.4970  0.6863  0.1039
  641SOL    HW1 1922   1.890   0.274   1.575 -0.9142  0.2920 -1.9025
  641SOL    HW2 1923   2.040   0.201   1.516  0.5129  1.7651  0.5494
  642SOL     OW 1924   2.024   0.073   0.362  0.3346  0.2700  0.4808
  642SOL    HW1 1925   2.128   0.074   0.354  0.3833  0.9519 -2.2998
  642SOL    HW2 1926   1.992   0.056   0.459 -1.3420  1.6848 -0.1881
  643SOL     OW 1927   2.884   1.870   2.187  0.2057 -0.6157  0.0153
  643SOL    HW1 1928   2.820   1.812   2.128  1.0478 -1.3925 -1.4655
  643SOL    HW2 1929   2.895   1.966   2.146  0.6352 -0.7335 -1.5093
  644SOL     OW 1930   2.292   2.417   1.250  0.2495  0.4540 -0.1987
  644SOL    HW1 1931   2.325   2.332   1.196 -2.2482 -0.7904  0.9397
  644SOL    HW2 1932   2.239   2.393   1.342 -2.3437 -2.3179 -0.1227
  645SOL     OW 1933   0.629   0.820   1.229 -0.7384 -0.1295 -0.5868
  645SOL    HW1 1934   0.525   0.819   1.244 -0.1585  0.1354 -2.1504
  645SOL    HW2 1935   0.654   0.827   1.125 -1.9107 -0.0466  1.2434
  646SOL     OW 1936   1.488   1.836   2.052  0.0702 -0.2550  0.1269
  646SOL    HW1 1937   1.566   1.866   1.989  0.5456 -1.5015  0.2383
  646SOL    HW2 1938   1.517   1.841   2.150  2.1816 -0.0258 -0.2235
  647SOL     OW 1939   0.824   1.107   0.681  0.2178 -0.0996 -0.1871
  647SOL    HW1 1940   0.892   1.137   0.752 -3.1449 -1.4079  0.3733
  647SOL    HW2 1941   0.757   1.039   0.718  2.6836 -3.0840 -2.9916
  648SOL     OW 1942   0.163   0.231   0.328 -0.3661  0.3040 -0.7384
  648SOL    HW1 1943   0.150   0.149   0.262 -2.0837 -0.4073  0.1584
  648SOL    HW2 1944   0.165   0.317   0.270 -0.8980  1.5971 -2.1121
  649SOL     OW 1945   3.027   0.240   0.765  0.6281 -1.1168  0.1408
  649SOL    HW1 1946   3.111   0.209   0.719  0.3035  1.1192 -0.0046
  649SOL    HW2 1947   3.035   0.325   0.823 -2.7496  0.6194 -0.9725
  650SOL     OW 1948   2.763   0.661   1.521 -1.1967 -0.0533  0.3851
  650SOL    HW1 1949   2.665   0.619   1.502 -0.8750  3.1283 -0.2238
  650SOL    HW2 1950   2.776   0.764   1.493 -0.0942  0.9287 -1.6439
  651SOL     OW 1951   0.870   1.540   1.669  0.0633  0.1819  0.0283
  651SOL    HW1 1952   0.930   1.580   1.741  0.7992 -0.2603 -1.0488
  651SOL    HW2 1953   0.928   1.506   1.587 -0.5162 -2.0870 -0.5566
  652SOL     OW 1954   2.377   2.495   2.460  0.5101 -0.2501 -0.2478
  652SOL    HW1 1955   2.275   2.517   2.453  2.0768 -1.8504  0.6283
  652SOL    HW2 1956   2.420   2.510   2.367 -0.4372  1.3858  0.7161
  653SOL     OW 1957   2.733   1.262   0.193  0.0845 -0.3986  0.2882
  653SOL    HW1 1958   2.790   1.341   0.232 -0.8080  1.6256 -2.6321
  653SOL    HW2 1959   2.778   1.170   0.208  0.2200  0.9853  0.9308
  654SOL     OW 1960   1.274   2.185   1.280  0.0797 -0.0285 -0.3628
  654SOL    HW1 1961   1.294   2.110   1.351  0.9140 -0.1344  0.0133
  654SOL    HW2 1962   1.276   2.142   1.183  0.4913 -0.7799  2.8939
  655SOL     OW 1963   0.151   0.972   1.901 -0.2512 -0.0703 -0.0877
  655SOL    HW1 1964   0.218   0.925   1.838  1.2293 -0.8049 -0.3767
  655SOL    HW2 1965   0.186   1.068   1.921  2.1143  0.4697 -3.5480
  656SOL     OW 1966   2.583   2.552   2.637  0.3232  0.1630  0.3020
  656SOL    HW1 1967   2.677   2.521   2.613 -1.7632  1.2811  0.0199
  656SOL    HW2 1968   2.515   2.504   2.577  0.2350 -0.2693  0.5775
  657SOL     OW 1969   3.019   1.075   1.829  0.3303 -0.3640  0.0815
  657SOL    HW1 1970   2.998   1.138   1.914  0.8623  1.2475  1.6873
  657SOL    HW2 1971   3.108   1.022   1.834 -1.7497  0.5694 -1.7704
  658SOL     OW 1972   1.692   0.193   2.341  0.5072 -0.3208 -0.0545
  658SOL    HW1 1973   1.737   0.126   2.408  0.2913 -6.3769 -0.5546
  658SOL    HW2 1974   1.741   0.192   2.249  0.7025 -0.5429  1.6959
  659SOL     OW 1975   1.425   0.637   2.748  0.0241  0.3499 -0.0583
  659SOL    HW1 1976   1.464   0.708   2.690 -0.3831 -1.9528 -0.8776
  659SOL    HW2 1977   1.327   0.663   2.775 -2.3274  0.2319 -1.1906
  660SOL     OW 1978   1.452   0.331   1.394  0.1070 -0.1685  0.2560
  660SOL    HW1 1979   1.445   0.373   1.487 -2.0889  2.9585 -0.1701
  660SOL    HW2 1980   1.516   0.246   1.379  1.2380 -3.2984 -2.2057
  661SOL     OW 1981   2.425   1.261   0.629  0.5856 -0.4298  0.3409
  661SOL    HW1 1982   2.444   1.246   0.524 -1.3406 -0.1314  1.7579
  661SOL    HW2 1983   2.350   1.333   0.642 -2.0087  0.3075 -2.1385
  662SOL     OW 1984   1.468   0.424   1.689 -0.3884  0.6043  0.2442
  662SOL    HW1 1985   1.474   0.380   1.783 -0.6624  0.8323  3.3432
  662SOL    HW2 1986   1.429   0.517   1.686 -0.0846 -0.5792  0.7303
  663SOL     OW 1987   0.872   1.584   2.055 -0.9018 -0.2320  0.5034
  663SOL    HW1 1988   0.813   1.675   2.044 -1.8920  0.6478  3.2255
  663SOL    HW2 1989   0.827   1.509   2.001 -1.7816  1.5532  1.1602
  664SOL     OW 1990   1.556   2.116   1.428  0.3281  0.2778 -0.3197
  664SOL    HW1 1991   1.481   2.054   1.466  1.2332  1.2557 -0.1287
  664SOL    HW2 1992   1.648   2.073   1.427  2.5390 -0.8090 -4.2216
  665SOL     OW 1993   2.251   0.685   1.954  0.4133 -0.6506  0.0955
  665SOL    HW1 1994   2.218   0.585   1.946  1.0314  1.3085 -0.8866
  665SOL    HW2 1995   2.320   0.703   2.034  2.1698  0.6890  1.5044
  666SOL     OW 1996   0.486   2.226   0.326  0.1473 -0.0270 -0.4995
  666SOL    HW1 1997   0.555   2.274   0.385 -2.1737  2.1487 -0.2421
  666SOL    HW2 1998   0.389   2.221   0.366 -1.0184 -0.0814  0.1150
  667SOL     OW 1999   1.950   0.230   1.057 -0.5522 -0.1716 -0.5267
  667SOL    HW1 2000   1.947   0.334   1.068 -2.7913  0.5418 -0.0254
  667SOL    HW2 2001   1.895   0.188   1.132 -1.1766 -2.4643 -3.3006
  668SOL     OW 2002   1.988   0.485   1.128  0.4817  0.9122  0.1724
  668SOL    HW1 2003   2.058   0.495   1.045  0.3436  0.4087 -2.0624
  668SOL    HW2 2004   2.045   0.469   1.217  0.6672  0.0101 -4.1833
  669SOL     OW 2005   3.014   2.190   1.008 -0.1777 -0.1940 -0.7596
  669SOL    HW1 2006   2.993   2.231   0.913 -0.3923  0.6768 -0.3998
  669SOL    HW2 2007   2.994   2.256   1.091  0.6219  3.4940 -0.2515
  670SOL     OW 2008   2.913   2.292   2.078 -0.3218  0.0493  0.0374
  670SOL    HW1 2009   2.830   2.290   2.137  3.1133  2.9221 -0.7810
  670SOL    HW2 2010   2.931   2.383   2.040 -0.3054 -0.0229  1.3894
  671SOL     OW 2011   1.800   1.774   1.539 -0.6730  0.1226 -0.0611
  671SOL    HW1 2012   1.822   1.701   1.471 -0.1918 -0.4291  1.8315
  671SOL    HW2 2013   1.696   1.773   1.553  0.8683  0.9926  3.2023
  672SOL     OW 2014   0.463   0.651   2.557  0.1263 -0.1404 -0.1931
  672SOL    HW1 2015   0.396   0.654   2.482  1.1151  1.2734 -0.1202
  672SOL    HW2 2016   0.420   0.696   2.641  0.2712  0.3014 -2.6677
  673SOL     OW 2017   0.085   1.328   1.102 -0.6614 -0.5880  0.3751
  673SOL    HW1 2018   0.038   1.405   1.154  3.0142 -0.0497  0.3595
  673SOL    HW2 2019   0.184   1.356   1.077  2.4438 -0.9602  0.5279
  674SOL     OW 2020   1.633   2.964   0.298 -0.2505 -0.2381  0.3652
  674SOL    HW1 2021   1.633   3.031   0.222  2.3309 -0.5237  4.3973
  674SOL    HW2 2022   1.715   2.901   0.296  0.8326  0.3671  1.5661
  675SOL     OW 2023   1.725   0.846   2.348  0.5654  0.1227  0.0976
  675SOL    HW1 2024   1.827   0.840   2.341 -1.0238 -0.5873 -0.8317
  675SOL    HW2 2025   1.671   0.761   2.313 -2.0286 -0.3433 -2.2552
  676SOL     OW 2026   2.567   1.530   1.947  0.0739  0.0685 -0.1842
  676SOL    HW1 2027   2.503   1.494   1.865 -1.7747 -2.7629 -2.4818
  676SOL    HW2 2028   2.565   1.473   2.033  1.2587  1.1458 -1.2101
  677SOL     OW 2029   1.886   0.709   0.912  0.5488  0.2981 -0.0397
  677SOL    HW1 2030   1.792   0.686   0.957  0.4521  5.3388  2.3310
  677SOL    HW2 2031   1.964   0.668   0.971  2.0370 -1.4955 -0.0208
  678SOL     OW 2032   0.111   0.743   1.621 -0.0954 -0.3590 -0.3064
  678SOL    HW1 2033   0.205   0.763   1.663 -0.7055 -1.0165 -0.8606
  678SOL    HW2 2034   0.038   0.730   1.693  0.0387 -1.4510 -1.9479
  679SOL     OW 2035   2.621   1.155   1.165 -0.1675  0.6152 -0.3070
  679SOL    HW1 2036   2.540   1.219   1.161  1.0500 -0.4682  0.2682
  679SOL    HW2 2037   2.595   1.058   1.139 -1.3771 -0.9924  0.9051
  680SOL     OW 2038   2.846   0.477   1.701 -0.0143 -0.1721  0.2773
  680SOL    HW1 2039   2.813   0.548   1.636  0.2019 -0.0378  0.1555
  680SOL    HW2 2040   2.931   0.509   1.755 -0.4591  2.0939 -0.1499
  681SOL     OW 2041   2.993   0.082   1.613  0.2058 -0.2581  0.3163
  681SOL    HW1 2042   3.065   0.074   1.544 -1.5388  1.1309  0.4145
  681SOL    HW2 2043   2.903   0.102   1.575  0.0162 -0.2694 -1.1020
  682SOL     OW 2044   0.668   0.037   1.341 -0.4957 -0.0194  0.6102
  682SOL    HW1 2045   0.594  -0.035   1.360  2.6078 -1.8109 -0.5457
  682SOL    HW2 2046   0.730   0.012   1.258  2.3743  2.3928 -0.5013
  683SOL     OW 2047   1.365   0.208   2.165 -0.1484  0.1363 -0.4025
  683SOL    HW1 2048   1.391   0.252   2.257 -0.4739  1.0440  0.7608
  683SOL    HW2 2049   1.435   0.241   2.093 -1.1244 -1.0367 -0.2565
  684SOL     OW 2050   1.436   2.116   0.544 -0.3749 -0.3362 -0.2527
  684SOL    HW1 2051   1.487   2.055   0.611  2.6199  0.0266  0.8840
  684SOL    HW2 2052   1.343   2.077   0.517  0.1453  0.8957  1.6295
  685SOL     OW 2053   2.213   2.039   1.946 -0.5184 -0.1405  0.1467
  685SOL    HW1 2054   2.291   2.038   1.878  1.4975 -0.2812  3.3093
  685SOL    HW2 2055   2.245   2.082   2.038  0.8024  1.2746  1.2809
  686SOL     OW 2056   1.509   1.836   2.885  0.5422 -0.3121 -0.3395
  686SOL    HW1 2057   1.549   1.801   2.974  0.8481  0.7979 -0.6068
  686SOL    HW2 2058   1.404   1.823   2.878 -0.6348  0.3818 -0.6289
  687SOL     OW 2059   1.303   2.405   1.971  0.4812 -0.1712 -0.0893
  687SOL    HW1 2060   1.332   2.305   1.966 -0.7496 -0.9244  0.5310
  687SOL    HW2 2061   1.307   2.440   2.066  3.1085 -0.7329 -0.8516
  688SOL     OW 2062   2.069   1.515   1.749 -0.4538  0.4011  0.7057
  688SOL    HW1 2063   2.141   1.579   1.712 -0.2862 -0.8956  0.4679
  688SOL    HW2 2064   2.029   1.455   1.674  1.0182 -1.7640 -1.9425
  689SOL     OW 2065   2.380   1.116   2.743 -0.1633 -0.1882 -0.2069
  689SOL    HW1 2066   2.287   1.071   2.756  0.2188 -1.7362  0.6467
  689SOL    HW2 2067   2.447   1.103   2.820  1.8156 -1.7638 -2.1067
  690SOL     OW 2068   2.222   2.766   0.052  0.5956 -0.3657 -0.2548
  690SOL    HW1 2069   2.164   2.716  -0.020 -0.1041  0.5642  3.8808
  690SOL    HW2 2070   2.179   2.797   0.139 -0.2565 -1.1048  1.1964
  691SOL     OW 2071   2.597   0.402   2.103  0.3185 -0.6960  0.2903
  691SOL    HW1 2072   2.658   0.320   2.097  1.1659  0.2870  2.6871
  691SOL    HW2 2073   2.645   0.491   2.074  2.2919 -0.6109 -0.9739
  692SOL     OW 2074   2.649   1.193   0.816 -0.3950  0.4986  0.3720
  692SOL    HW1 2075   2.575   1.235   0.754 -1.5305 -0.1916  2.9116
  692SOL    HW2 2076   2.691   1.265   0.882 -0.5750  0.7653  0.0414
  693SOL     OW 2077   2.845   2.960   0.593  0.0461  0.6917 -0.5195
  693SOL    HW1 2078   2.826   3.025   0.669 -0.3379 -0.0496 -1.7551
  693SOL    HW2 2079   2.843   3.010   0.503  0.5364 -1.4568  0.6071
  694SOL     OW 2080   2.439   2.234   0.161 -0.0789  0.5505  0.0352
  694SOL    HW1 2081   2.419   2.320   0.216  0.3051  0.5390 -2.2131
  694SOL    HW2 2082   2.356   2.184   0.136  2.1868  0.9609  0.6835
  695SOL     OW 2083   0.470   2.960   1.430  0.5787  0.0174  0.0831
  695SOL    HW1 2084   0.397   2.889   1.403 -0.2985 -0.2600 -1.0215
  695SOL    HW2 2085   0.447   3.006   1.524  0.4929  1.0731  0.3121
  696SOL     OW 2086   2.822   2.014   0.753  0.3383  0.7145 -0.4083
  696SOL    HW1 2087   2.872   1.928   0.781  1.1435 -0.0763 -0.4481
  696SOL    HW2 2088   2.843   2.037   0.657  0.9008  2.2689  2.1042
  697SOL     OW 2089   1.672   1.881   1.832 -0.1953 -0.1629 -0.0776
  697SOL    HW1 2090   1.766   1.842   1.825 -0.1251  0.0866  0.1515
  697SOL    HW2 2091   1.673   1.979   1.793  1.5496  2.7507  0.1621
  698SOL     OW 2092   2.894   0.431   2.715  0.6546 -0.3824  0.3611
  698SOL    HW1 2093   2.897   0.373   2.626 -1.6369  0.1162  2.8446
  698SOL    HW2 2094   2.936   0.386   2.798  0.3626  2.0361 -0.9690
  699SOL     OW 2095   1.562   0.063   2.903 -0.1350 -0.0723  0.0931
  699SOL    HW1 2096   1.512  -0.014   2.852  0.4558  0.3349  0.2806
  699SOL    HW2 2097   1.634   0.109   2.845 -1.9830 -1.4462 -0.3146
  700SOL     OW 2098   0.991   2.238   1.355 -0.2153 -0.0451  0.1983
  700SOL    HW1 2099   1.073   2.167   1.347  1.7434  0.6120 -0.7317
  700SOL    HW2 2100   0.895   2.209   1.321 -0.9496  1.4358  0.2814
  701SOL     OW 2101   1.903   2.854   0.021  0.1677 -0.3633 -0.7749
  701SOL    HW1 2102   1.860   2.817   0.105 -0.1145  2.1600  1.9942
  701SOL    HW2 2103   1.956   2.935   0.051 -1.1164  1.1213  0.7551
  702SOL     OW 2104   2.092   1.324   1.970 -0.1144 -0.5502 -0.1942
  702SOL    HW1 2105   2.181   1.270   1.963  0.0188  1.6044 -1.1859
  702SOL    HW2 2106   2.081   1.395   1.894  1.3152  0.5428  1.0538
  703SOL     OW 2107   1.924   0.905   1.497  0.3287 -0.0290 -0.5371
  703SOL    HW1 2108   1.931   0.802   1.508 -0.0211  1.9665 -1.4049
  703SOL    HW2 2109   1.937   0.951   1.587 -0.2777 -1.5169 -0.0358
  704SOL     OW 2110   0.323   2.018   1.707  0.0462  0.0268  0.1942
  704SOL    HW1 2111   0.367   1.969   1.786 -0.6042  0.1897  0.6910
  704SOL    HW2 2112   0.386   2.097   1.671 -1.9309  2.1328  1.7008
  705SOL     OW 2113   2.480   1.491   0.896  0.4840  0.1533 -0.0508
  705SOL    HW1 2114   2.413   1.433   0.840  1.2355 -0.3503 -0.7238
  705SOL    HW2 2115   2.573   1.449   0.913  1.3442  0.1075 -0.7254
  706SOL     OW 2116   0.651   1.723   1.840  0.5353 -0.0604  0.2761
  706SOL    HW1 2117   0.728   1.665   1.790 -1.0694 -0.6938  3.6057
  706SOL    HW2 2118   0.690   1.790   1.912  0.3626  3.1992  1.3098
  707SOL     OW 2119   2.346   1.205   1.958 -0.0275 -0.3213  0.2131
  707SOL    HW1 2120   2.361   1.191   2.061  1.3200 -2.1425  0.6141
  707SOL    HW2 2121   2.330   1.112   1.913 -0.9428 -0.3954 -0.1634
  708SOL     OW 2122   3.010   0.520   3.064 -0.0655  0.2474 -1.0222
  708SOL    HW1 2123   3.061   0.581   2.997  0.7005  0.3343  3.1805
  708SOL    HW2 2124   2.992   0.427   3.027  0.3622  0.5786  2.6831
  709SOL     OW 2125   1.890   1.866   0.368 -0.5222 -0.8773 -0.1053
  709SOL    HW1 2126   1.893   1.972   0.375 -2.9332 -0.2881  1.7308
  709SOL    HW2 2127   1.877   1.834   0.270 -0.6828  1.5109 -1.1535
  710SOL     OW 2128   1.778   1.630   2.477 -0.5265  0.0797 -0.0060
  710SOL    HW1 2129   1.848   1.588   2.414  2.1927  0.5712 -0.0162
  710SOL    HW2 2130   1.779   1.584   2.565 -0.6618 -2.0693 -0.1113
  711SOL     OW 2131   2.627   2.934   0.975 -0.0015  0.3131 -0.1436
  711SOL    HW1 2132   2.573   3.025   0.965  0.2353  0.7498 -1.5379
  711SOL    HW2 2133   2.732   2.951   0.978 -0.9614  0.3666  0.3380
  712SOL     OW 2134   1.396   2.122   1.972  0.3711  0.2718 -0.2576
  712SOL    HW1 2135   1.484   2.155   1.943 -2.0210 -0.1064  1.5931
  712SOL    HW2 2136   1.332   2.106   1.895  2.3051 -0.2345 -0.7892
  713SOL     OW 2137   2.779   1.479   2.534  0.1587  0.7446  0.0745
  713SOL    HW1 2138   2.779   1.380   2.516 -1.8782  1.7966  1.1197
  713SOL    HW2 2139   2.683   1.509   2.556  0.4861 -1.4393  2.7537
  714SOL     OW 2140   2.658   0.471   2.383 -1.0065 -0.0676 -0.0697
  714SOL    HW1 2141   2.615   0.392   2.426 -1.4514 -1.9246  0.9355
  714SOL    HW2 2142   2.640   0.475   2.279  1.1099 -3.0997 -0.8427
  715SOL     OW 2143   1.582   2.185   1.161 -0.3476 -0.6447 -0.0051
  715SOL    HW1 2144   1.494   2.183   1.110 -1.0608 -0.9433  2.1795
  715SOL    HW2 2145   1.570   2.151   1.259 -0.5312  0.4603 -1.5961
  716SOL     OW 2146   1.228   0.158   1.475  0.2237  0.2101 -0.1538
  716SOL    HW1 2147   1.125   0.187   1.499 -3.4451 -1.3908  0.9690
  716SOL    HW2 2148   1.288   0.233   1.431  2.5470 -0.6330 -0.5848
  717SOL     OW 2149   1.149   0.555   1.607  0.3700 -0.0644 -0.5583
  717SOL    HW1 2150   1.239   0.606   1.624  1.4702  0.3433 -0.5042
  717SOL    HW2 2151   1.162   0.502   1.521  2.1501 -0.6922  1.0943
  718SOL     OW 2152   0.646   0.895   0.969 -0.3657 -0.2441  0.0403
  718SOL    HW1 2153   0.618   0.891   0.870  0.0792  0.6676  2.4829
  718SOL    HW2 2154   0.653   0.998   0.994  0.8503 -0.8753  0.0698
  719SOL     OW 2155   0.620   1.739   2.300 -0.5865 -0.2733  0.0667
  719SOL    HW1 2156   0.696   1.787   2.361 -1.7603  1.1764 -0.0973
  719SOL    HW2 2157   0.606   1.638   2.311 -0.3500 -1.6213  0.9328
  720SOL     OW 2158   2.215   1.149   0.300 -0.0850 -0.0263 -0.1231
  720SOL    HW1 2159   2.278   1.074   0.270  1.3319  0.6523  1.4437
  720SOL    HW2 2160   2.180   1.139   0.401 -1.4490 -0.8026  0.7333
  721SOL     OW 2161   2.255   3.001   2.081 -0.3557  0.0902 -0.6592
  721SOL    HW1 2162   2.189   3.000   1.993 -0.1675  1.3271 -4.9215
  721SOL    HW2 2163   2.230   3.056   2.164  0.5160  0.2805  0.2122
  722SOL     OW 2164   2.360   1.639   0.493 -0.1566  0.1898 -0.5894
  722SOL    HW1 2165   2.427   1.670   0.422 -0.9111 -1.5321  0.4771
  722SOL    HW2 2166   2.263   1.642   0.467  0.9281  0.8156 -0.7437
  723SOL     OW 2167   2.664   2.736   1.923  0.2402 -0.6795  0.2131
  723SOL    HW1 2168   2.711   2.825   1.944  1.9098 -0.7548 -1.4600
  723SOL    HW2 2169   2.568   2.746   1.957 -0.1201  0.4655  2.1092
  724SOL     OW 2170   0.457   2.501   2.398 -0.1396  0.2354 -0.1642
  724SOL    HW1 2171   0.377   2.481   2.455  2.4426 -1.9572 -1.5510
  724SOL    HW2 2172   0.543   2.519   2.454  1.7578  1.8370 -1.6615
  725SOL     OW 2173   2.381   2.797   1.555 -0.4903 -0.4767  0.7395
  725SOL    HW1 2174   2.351   2.818   1.454  0.2434 -1.6686 -0.7949
  725SOL    HW2 2175   2.400   2.697   1.578  0.5911 -1.9816 -2.0672
  726SOL     OW 2176   2.508   2.315   0.696  0.0156 -0.2940 -0.0569
  726SOL    HW1 2177   2.468   2.404   0.672  0.7926 -1.4747  3.4628
  726SOL    HW2 2178   2.472   2.232   0.638  1.3749  1.0900 -0.4919
  727SOL     OW 2179   0.098   0.029   0.167 -0.1703 -0.1824 -0.1534
  727SOL    HW1 2180   0.170   0.038   0.098 -2.0461  2.1624  1.7661
  727SOL    HW2 2181   0.033  -0.050   0.146  0.5049 -1.2216  1.4914
  728SOL     OW 2182   2.914   0.715   0.917  0.0090 -0.3651 -0.8313
  728SOL    HW1 2183   2.864   0.725   0.827  1.8575 -0.5522  0.3049
  728SOL    HW2 2184   2.852   0.670   0.990 -1.1290  1.2769 -1.0867
  729SOL     OW 2185   0.036   2.513   0.757  0.0454  0.3095 -0.3862
  729SOL    HW1 2186   0.091   2.466   0.826  1.0703  0.6594 -0.0481
  729SOL    HW2 2187   0.106   2.532   0.683  0.2071 -0.8777  2.1920
  730SOL     OW 2188   2.568   0.650   0.884 -0.4243 -0.2609 -0.5255
  730SOL    HW1 2189   2.570   0.754   0.877  1.3237 -0.4667 -0.4901
  730SOL    HW2 2190   2.616   0.616   0.803 -0.0240  2.8331 -0.0008
  731SOL     OW 2191   3.074   2.171   2.369  0.3012 -0.1252  0.2668
  731SOL    HW1 2192   3.089   2.223   2.460  0.0089  0.6401  0.7530
  731SOL    HW2 2193   3.041   2.235   2.295 -1.7578 -0.6655  1.3069
  732SOL     OW 2194   1.240   2.759   2.014 -0.5205  0.4142  0.2795
  732SOL    HW1 2195   1.253   2.685   2.084 -0.6008 -1.2865 -1.4475
  732SOL    HW2 2196   1.199   2.725   1.928 -1.2416  2.6412  1.5005
  733SOL     OW 2197   0.009   0.578   2.255  0.4022 -0.4010 -0.5261
  733SOL    HW1 2198   0.081   0.632   2.203  0.7020 -1.4790 -0.4670
  733SOL    HW2 2199  -0.040   0.509   2.193 -1.6846 -0.6340 -2.2977
  734SOL     OW 2200   1.456   0.367   2.670 -0.0826  0.0440 -0.3004
  734SOL    HW1 2201   1.440   0.470   2.695  0.9544  0.6643 -0.0667
  734SOL    HW2 2202   1.383   0.305   2.716 -0.4743 -0.4943  0.3400
  735SOL     OW 2203   2.857   2.623   2.284  0.0261 -0.5466 -0.1721
  735SOL    HW1 2204   2.850   2.614   2.185  1.3343 -1.1145  2.1676
  735SOL    HW2 2205   2.941   2.673   2.318 -1.6215 -1.1185  1.5012
  736SOL     OW 2206   0.914   0.432   2.504 -0.1311  0.2871 -0.0116
  736SOL    HW1 2207   0.831   0.495   2.521 -0.3902  2.6241 -0.7442
  736SOL    HW2 2208   0.898   0.348   2.445  1.0954 -2.7060  2.8090
  737SOL     OW 2209   2.610   0.429   2.809 -0.0288  0.3683  0.5548
  737SOL    HW1 2210   2.587   0.391   2.906 -2.6620 -0.6840 -0.1413
  737SOL    HW2 2211   2.709   0.440   2.786 -0.8128  1.9015  0.2487
  738SOL     OW 2212   1.718   1.261   2.880  0.1210  0.0679 -0.4544
  738SOL    HW1 2213   1.818   1.251   2.886 -0.9451  0.0739 -0.1538
  738SOL    HW2 2214   1.673   1.181   2.835 -3.7822  3.8264 -0.9794
  739SOL     OW 2215   1.809   0.679   0.649 -1.0238  0.6021 -0.0162
  739SOL    HW1 2216   1.837   0.684   0.749 -2.4168  0.9743 -3.2171
  739SOL    HW2 2217   1.848   0.593   0.602  0.0007 -0.9792  0.0920
  740SOL     OW 2218   1.937   1.916   2.376 -0.2261  0.0130  0.2707
  740SOL    HW1 2219   2.014   1.857   2.403 -0.0773  0.5998 -2.8476
  740SOL    HW2 2220   1.895   1.895   2.277  0.4000 -1.6864  0.3564
  741SOL     OW 2221   2.556   0.016   2.467 -0.5430  0.4797  0.7273
  741SOL    HW1 2222   2.661   0.034   2.467  0.6737 -0.4084  1.1322
  741SOL    HW2 2223   2.510   0.075   2.396  0.8968  1.6136  1.6718
  742SOL     OW 2224   2.203   1.384   0.165 -0.0869 -0.8352 -0.0134
  742SOL    HW1 2225   2.107   1.406   0.139  2.8230 -2.2009  0.8684
  742SOL    HW2 2226   2.201   1.310   0.240 -1.0073 -0.1317 -1.6665
  743SOL     OW 2227   1.798   0.596   2.608 -0.6900  0.0170 -0.3826
  743SOL    HW1 2228   1.780   0.550   2.511 -0.7624 -2.7571  0.5646
  743SOL    HW2 2229   1.712   0.641   2.645 -1.7769  2.8488  1.8657
  744SOL     OW 2230   2.669   2.113   0.060 -0.2254  0.1996 -0.2084
  744SOL    HW1 2231   2.590   2.165   0.109  0.3983 -2.4884 -1.1173
  744SOL    HW2 2232   2.654   2.011   0.033  1.2668 -2.5731 -1.4203
  745SOL     OW 2233   2.249   2.605   2.205 -0.2350  0.3091 -0.7526
  745SOL    HW1 2234   2.143   2.590   2.210 -2.3537  1.4790 -0.8438
  745SOL    HW2 2235   2.275   2.684   2.272 -0.5878  0.3342 -0.2844
  746SOL     OW 2236   0.052   2.633   1.745  0.0890  0.2121  0.3341
  746SOL    HW1 2237   0.139   2.576   1.736 -0.9272 -1.7543 -2.8141
  746SOL    HW2 2238   0.048   2.690   1.831  0.3049  0.3585 -1.8037
  747SOL     OW 2239   0.042   1.770   1.643  0.0369  0.2724  0.0100
  747SOL    HW1 2240  -0.040   1.710   1.666  0.9713 -0.0370  1.1190
  747SOL    HW2 2241   0.076   1.765   1.554 -2.3985  2.0068  0.6855
  748SOL     OW 2242   1.837   2.735   2.889 -0.5688  0.2129 -0.2644
  748SOL    HW1 2243   1.841   2.817   2.951 -2.0970  1.9323 -0.9754
  748SOL    HW2 2244   1.741   2.711   2.851 -4.8171 -1.4286  1.4017
  749SOL     OW 2245   1.401   3.024   0.890 -0.5081 -0.0021 -0.2583
  749SOL    HW1 2246   1.341   3.081   0.819  1.8190  0.9850 -1.4821
  749SOL    HW2 2247   1.482   2.993   0.839 -1.1930 -1.8013 -1.7076
  750SOL     OW 2248   2.252   0.179   1.839  0.1145  0.1455 -0.4848
  750SOL    HW1 2249   2.273   0.217   1.744 -0.8255 -2.1459  3.5046
  750SOL    HW2 2250   2.297   0.231   1.920 -1.5999  0.2343  0.2244
  751SOL     OW 2251   0.752   2.152   2.873 -0.0999  0.2227 -0.0825
  751SOL    HW1 2252   0.839   2.122   2.915  0.1190  3.4278  1.7800
  751SOL    HW2 2253   0.675   2.085   2.895 -0.0869 -1.0927  0.5178
  752SOL     OW 2254   1.282   0.823   1.257 -0.2722 -0.0660  0.6100
  752SOL    HW1 2255   1.349   0.899   1.240  1.9930 -1.2275  0.0653
  752SOL    HW2 2256   1.332   0.731   1.247 -1.2853 -1.1381  0.5615
  753SOL     OW 2257   0.916   2.538   1.808  0.0037 -0.2574  0.0623
  753SOL    HW1 2258   1.019   2.558   1.801 -1.5851 -0.6068 -1.4887
  753SOL    HW2 2259   0.857   2.623   1.801  0.8428 -2.2898 -1.3168
  754SOL     OW 2260   1.137   1.208   3.034 -0.3352  0.4137  0.2011
  754SOL    HW1 2261   1.202   1.130   3.001  1.9709  0.2327  2.3011
  754SOL    HW2 2262   1.182   1.303   3.032 -0.0554  2.9314  0.6259
  755SOL     OW 2263   1.977   0.432   2.214 -0.0616 -0.2631 -0.6827
  755SOL    HW1 2264   2.053   0.370   2.230  0.2449  2.0431 -2.1237
  755SOL    HW2 2265   1.900   0.422   2.290  0.6908  1.6304  2.5958
  756SOL     OW 2266   2.521   1.005   2.987  0.8967  0.4644  0.4780
  756SOL    HW1 2267   2.616   0.973   2.974 -0.1385 -2.0463 -2.3418
  756SOL    HW2 2268   2.458   0.922   3.002  1.2493 -0.6902 -0.7123
  757SOL     OW 2269   0.105   0.434   1.996 -0.1929  0.0132  0.7225
  757SOL    HW1 2270   0.149   0.357   1.935 -0.1596  1.9051 -1.1456
  757SOL    HW2 2271   0.007   0.421   2.015  0.9965  0.1802 -2.0693
  758SOL     OW 2272   2.195   0.094   1.498  0.0670  0.1623 -0.0999
  758SOL    HW1 2273   2.169  -0.002   1.530  0.2962  0.2787 -2.8747
  758SOL    HW2 2274   2.275   0.091   1.434  0.7143 -0.3548 -0.4908
  759SOL     OW 2275   1.696   0.029   0.075 -0.4045  0.3753 -0.1145
  759SOL    HW1 2276   1.655   0.027  -0.019  1.1001  0.1946 -0.2308
  759SOL    HW2 2277   1.799   0.031   0.076  0.8761  1.4595 -0.4697
  760SOL     OW 2278   2.682   2.026   2.837 -0.6270 -0.2942  0.2867
  760SOL    HW1 2279   2.607   1.994   2.898 -0.2695 -1.3361  1.4856
  760SOL    HW2 2280   2.689   2.130   2.842  1.5153 -0.0864  0.7200
  761SOL     OW 2281   1.930   1.785   1.771 -0.1836  0.1511  0.3230
  761SOL    HW1 2282   1.959   1.689   1.794 -1.2774 -1.1081  1.1139
  761SOL    HW2 2283   1.886   1.783   1.675  0.8095  2.4999  0.4706
  762SOL     OW 2284   0.492   2.399   0.973 -0.3390 -0.3702  0.1020
  762SOL    HW1 2285   0.545   2.374   0.885 -0.0157 -0.1311 -1.5692
  762SOL    HW2 2286   0.554   2.427   1.055 -2.0751 -0.8560  1.1272
  763SOL     OW 2287   2.065   1.541   2.978 -0.0051 -0.2850 -0.2895
  763SOL    HW1 2288   2.145   1.480   2.978 -4.1196 -1.2432  1.5455
  763SOL    HW2 2289   1.996   1.498   3.043 -2.9094  0.0181 -1.3938
  764SOL     OW 2290   0.699   0.619   0.684  0.0383 -0.1803  0.3977
  764SOL    HW1 2291   0.607   0.574   0.668 -0.5437  0.1986 -0.3635
  764SOL    HW2 2292   0.736   0.601   0.779  0.5061 -0.3292  3.8144
  765SOL     OW 2293   0.792   0.306   0.738  0.1691 -0.0157  0.0698
  765SOL    HW1 2294   0.866   0.299   0.656 -0.2970  0.3916 -1.3019
  765SOL    HW2 2295   0.807   0.391   0.795  0.2891  1.0971  2.2953
  766SOL     OW 2296   2.931   2.139   3.044  0.0531  0.3647 -0.2935
  766SOL    HW1 2297   2.839   2.132   3.087  0.8342 -0.2224 -3.3936
  766SOL    HW2 2298   2.980   2.231   3.057  0.6251 -0.4736  1.4260
  767SOL     OW 2299   2.785   1.641   0.609 -0.1376  0.4935 -0.0101
  767SOL    HW1 2300   2.697   1.641   0.662  0.1908 -0.7550  1.7746
  767SOL    HW2 2301   2.847   1.715   0.644 -1.0609  0.7908 -1.2780
  768SOL     OW 2302   1.076   0.168   0.224  0.1790 -0.3376  0.1514
  768SOL    HW1 2303   1.053   0.222   0.307  1.3123 -4.5170  1.3620
  768SOL    HW2 2304   1.164   0.121   0.226  1.1636 -0.1357 -0.2394
  769SOL     OW 2305   1.111   1.812   2.301  0.3843  0.4718  0.0510
  769SOL    HW1 2306   1.012   1.829   2.330 -2.5623 -0.2993 -0.1386
  769SOL    HW2 2307   1.171   1.781   2.382  0.8109  1.8590 -1.2753
  770SOL     OW 2308   0.174   1.121   2.301 -0.2071 -0.0040 -0.1871
  770SOL    HW1 2309   0.172   1.207   2.357  1.7279  0.5342  0.5261
  770SOL    HW2 2310   0.079   1.073   2.298 -1.1999 -0.8292  2.4339
  771SOL     OW 2311   3.047   2.831   1.952 -0.2125  0.0708  0.3301
  771SOL    HW1 2312   2.986   2.863   1.875 -1.3931  2.1433  2.7252
  771SOL    HW2 2313   3.018   2.891   2.029  2.1205  1.5100 -2.5581
  772SOL     OW 2314   2.350   0.230   2.823 -0.3068 -0.5558  0.4270
  772SOL    HW1 2315   2.412   0.162   2.781  0.8047  0.6028 -0.1067
  772SOL    HW2 2316   2.343   0.226   2.927  0.5855 -2.1120 -0.4410
  773SOL     OW 2317   0.602   2.114   2.374 -0.0660 -0.4320  0.1590
  773SOL    HW1 2318   0.616   2.186   2.305 -0.6396  1.9773  1.9169
  773SOL    HW2 2319   0.537   2.145   2.445  1.1550 -0.2251 -0.7175
  774SOL     OW 2320   2.095   0.007   2.582  0.1495  0.0121 -0.3259
  774SOL    HW1 2321   2.091   0.094   2.640 -5.0361 -1.3533 -0.3950
  774SOL    HW2 2322   2.175  -0.058   2.610  1.8960 -0.5976 -0.5869
  775SOL     OW 2323   2.569   2.953   2.235  0.9213 -0.2556  0.5567
  775SOL    HW1 2324   2.498   3.027   2.225  3.6079  0.1577  1.9174
  775SOL    HW2 2325   2.625   2.964   2.318 -0.4238 -1.5418  3.6862
  776SOL     OW 2326   3.097   1.269   0.174  0.3448 -0.2100 -0.2444
  776SOL    HW1 2327   3.047   1.214   0.101  0.1954 -0.9168 -1.1873
  776SOL    HW2 2328   3.039   1.263   0.263  1.2179 -0.1502 -1.4185
  777SOL     OW 2329   0.431   2.900   0.430  0.6703  0.2851  0.3334
  777SOL    HW1 2330   0.343   2.892   0.379  0.2539 -2.4608  0.9730
  777SOL    HW2 2331   0.495   2.821   0.408  1.7985 -0.7517  0.2357
  778SOL     OW 2332   1.318   1.994   0.198 -0.1426 -0.7406 -0.3600
  778SOL    HW1 2333   1.277   2.037   0.283  0.0071 -2.1560  0.6083
  778SOL    HW2 2334   1.346   2.062   0.123 -0.1698 -0.7610 -1.1870
  779SOL     OW 2335   0.170   0.832   0.455  0.2312 -0.1420 -0.9959
  779SOL    HW1 2336   0.106   0.755   0.445 -1.2043  2.5787 -1.9348
  779SOL    HW2 2337   0.121   0.917   0.498 -0.7494 -0.9411  2.2708
  780SOL     OW 2338   0.157   0.276   2.351  1.1322  0.2342  0.3374
  780SOL    HW1 2339   0.117   0.339   2.426 -1.8403  1.1664  0.0769
  780SOL    HW2 2340   0.247   0.316   2.319  1.7524  0.2809  0.8349
  781SOL     OW 2341   0.694   1.703   1.495 -0.5173 -0.2667 -0.0020
  781SOL    HW1 2342   0.722   1.621   1.550  2.4267 -0.3115 -1.1847
  781SOL    HW2 2343   0.589   1.706   1.481  0.0173 -0.9484  0.0856
  782SOL     OW 2344   2.529   0.106   0.955  0.2224 -0.1128  0.1238
  782SOL    HW1 2345   2.485   0.140   0.869 -1.0940  1.8249  1.6552
  782SOL    HW2 2346   2.487   0.142   1.042  1.5712  1.6844  0.3086
  783SOL     OW 2347   2.761   0.700   2.466 -0.5597 -0.2444 -0.4875
  783SOL    HW1 2348   2.788   0.705   2.570 -0.9798 -1.7041  1.7228
  783SOL    HW2 2349   2.734   0.598   2.445 -0.5669 -2.1633  3.8353
  784SOL     OW 2350   1.408   2.212   0.018 -0.0716  0.1092  0.7979
  784SOL    HW1 2351   1.446   2.283   0.081 -0.8290 -2.1933 -0.9114
  784SOL    HW2 2352   1.401   2.248  -0.083 -1.6116  1.5113 -0.9758
  785SOL     OW 2353   2.064   0.302   3.084  0.4123  0.0304 -0.8166
  785SOL    HW1 2354   2.004   0.332   3.161  0.6148  1.9348 -0.9488
  785SOL    HW2 2355   2.088   0.383   3.028 -1.9540  0.0443  2.4454
  786SOL     OW 2356   2.031   2.169   2.238  0.1002  0.2207  0.5594
  786SOL    HW1 2357   1.972   2.089   2.282  0.9402  0.3194  0.0002
  786SOL    HW2 2358   2.128   2.152   2.245 -4.2116 -1.4891  0.5349
  787SOL     OW 2359   1.372   0.540   0.917 -0.0450 -0.7688 -0.2239
  787SOL    HW1 2360   1.284   0.593   0.904  1.3584 -1.0797  2.0448
  787SOL    HW2 2361   1.423   0.534   0.834 -2.9243 -0.4863  2.0972
  788SOL     OW 2362   1.217   0.445   0.046 -0.4802 -0.0170  0.3061
  788SOL    HW1 2363   1.144   0.427  -0.020 -0.4546  1.8772  3.1359
  788SOL    HW2 2364   1.192   0.513   0.117 -0.0300 -2.4855 -0.1273
  789SOL     OW 2365   2.511   0.111   1.970  0.2922 -0.3711  0.2709
  789SOL    HW1 2366   2.425   0.098   1.927 -1.7105  1.6796  2.7315
  789SOL    HW2 2367   2.592   0.097   1.906  0.2517  0.9872 -0.4928
  790SOL     OW 2368   2.648   2.742   0.735  0.3763 -0.1049  0.3235
  790SOL    HW1 2369   2.742   2.769   0.692 -0.1575 -2.3052 -0.9427
  790SOL    HW2 2370   2.620   2.819   0.798  0.5465  1.5568  0.9976
  791SOL     OW 2371   1.922   1.207   0.278 -0.3172 -0.0173  0.7090
  791SOL    HW1 2372   1.850   1.143   0.306 -0.4467 -1.4253  0.6187
  791SOL    HW2 2373   2.014   1.158   0.272  2.4217  0.7523  1.9752
  792SOL     OW 2374   0.376   1.737   2.096 -0.1548 -0.0193 -0.2864
  792SOL    HW1 2375   0.461   1.681   2.121 -0.0010  0.2422  1.2892
  792SOL    HW2 2376   0.326   1.768   2.183 -2.0872 -0.1333  1.3559
  793SOL     OW 2377   2.102   1.587   2.101 -0.1093 -0.1039  0.0931
  793SOL    HW1 2378   2.188   1.648   2.085  1.9740 -0.4987  1.6320
  793SOL    HW2 2379   2.117   1.487   2.081  0.6902 -0.4830  2.7788
  794SOL     OW 2380   0.563   1.480   2.322 -0.1090 -0.3105  0.3855
  794SOL    HW1 2381   0.524   1.441   2.235 -0.2717 -0.7551  1.7884
  794SOL    HW2 2382   0.494   1.480   2.399  0.2770 -0.3209 -2.3944
  795SOL     OW 2383   2.538   2.308   1.809  0.3979 -0.6095 -0.1585
  795SOL    HW1 2384   2.547   2.334   1.911 -1.3670  2.1599  0.5461
  795SOL    HW2 2385   2.457   2.238   1.791 -0.4734 -0.3290  0.2544
  796SOL     OW 2386   0.016   1.105   2.658  0.3807 -0.0674  0.0807
  796SOL    HW1 2387  -0.088   1.108   2.663  0.3534  0.5113  3.2136
  796SOL    HW2 2388   0.064   1.119   2.752 -0.5290 -1.5770  1.9033
  797SOL     OW 2389   0.791   0.653   1.409  0.0337  0.3539  0.3974
  797SOL    HW1 2390   0.861   0.703   1.464 -2.1770 -0.5415  1.4543
  797SOL    HW2 2391   0.748   0.714   1.337  0.6742 -1.2624  1.7353
  798SOL     OW 2392   1.319   0.385   1.156 -0.3362 -0.4535 -0.6755
  798SOL    HW1 2393   1.373   0.363   1.237 -0.6073  0.4018 -1.2019
  798SOL    HW2 2394   1.374   0.446   1.094 -2.6389 -0.5127  0.0077
  799SOL     OW 2395   1.988   2.699   0.983  0.4036  0.3960 -0.2617
  799SOL    HW1 2396   1.902   2.690   1.041 -0.6269  2.3112  0.6415
  799SOL    HW2 2397   1.972   2.682   0.876  2.5179  2.1396 -2.9229
  800SOL     OW 2398   3.066   0.624   1.813 -0.8563  0.9711  0.0241
  800SOL    HW1 2399   3.026   0.710   1.859  0.5480 -0.5951  1.7863
  800SOL    HW2 2400   3.132   0.572   1.876  0.2840  2.1186 -0.7205
  801SOL     OW 2401   1.925   2.264   0.098  0.3246  0.1227 -0.8423
  801SOL    HW1 2402   1.843   2.212   0.060 -0.1176 -2.4674  0.6114
  801SOL    HW2 2403   2.009   2.209   0.081  0.6603  0.2995 -0.5978
  802SOL     OW 2404   0.728   0.802   2.581  0.6416  0.6216 -0.0836
  802SOL    HW1 2405   0.809   0.790   2.519 -3.7027  1.6732 -0.5107
  802SOL    HW2 2406   0.647   0.738   2.558  0.2340 -1.5190 -1.2290
  803SOL     OW 2407   0.940   0.100   0.914  0.1442  0.0379  0.0438
  803SOL    HW1 2408   1.021   0.150   0.946 -0.7658 -1.1888 -0.5963
  803SOL    HW2 2409   0.877   0.160   0.857  2.8311 -2.8606 -1.1713
  804SOL     OW 2410   0.295   0.053   2.150 -0.7590  0.5335  0.0968
  804SOL    HW1 2411   0.270   0.151   2.144  0.1219 -0.3128  0.5227
  804SOL    HW2 2412   0.267  -0.004   2.071 -3.1459 -0.4449  2.4457
  805SOL     OW 2413   2.412   0.236   0.236 -0.0254  0.2264  0.0555
  805SOL    HW1 2414   2.511   0.263   0.242  3.8244  0.4681 -1.4536
  805SOL    HW2 2415   2.373   0.228   0.138 -2.3656  2.1303 -1.7260
  806SOL     OW 2416   0.648   2.402   1.684  0.1428 -0.2783 -0.1143
  806SOL    HW1 2417   0.649   2.504   1.697  1.8618  0.2927  0.3985
  806SOL    HW2 2418   0.731   2.360   1.637  1.5968  1.1776  0.8766
  807SOL     OW 2419   2.443   0.994   0.465 -1.1864  0.0620 -0.1250
  807SOL    HW1 2420   2.521   0.938   0.505  1.0425  2.8161  1.8946
  807SOL    HW2 2421   2.430   0.974   0.368 -2.3590  0.5920 -0.7284
  808SOL     OW 2422   0.522   1.978   2.944  0.2345  0.1829  0.5509
  808SOL    HW1 2423   0.519   1.975   3.049 -0.4730 -1.3890  1.3165
  808SOL    HW2 2424   0.543   1.886   2.908  1.2239  2.2432  1.7821
  809SOL     OW 2425   2.593   1.962   1.979  0.5345  0.2963  0.1589
  809SOL    HW1 2426   2.690   1.995   1.987 -0.7928  3.3735  2.4374
  809SOL    HW2 2427   2.562   1.965   1.882  1.3506  0.2129  1.9073
  810SOL     OW 2428   2.063   1.085   0.508  0.7560 -0.3031 -0.0010
  810SOL    HW1 2429   2.049   1.022   0.596 -0.2013  0.8085  3.2668
  810SOL    HW2 2430   2.027   1.182   0.532  1.3451 -0.2210  1.0875
  811SOL     OW 2431   1.337   2.437   1.290  0.5889 -0.0562  0.4533
  811SOL    HW1 2432   1.307   2.336   1.311 -0.8942  1.5392  2.1869
  811SOL    HW2 2433   1.265   2.498   1.247 -0.4192  1.5106 -0.2576
  812SOL     OW 2434   1.446   0.783   1.942  0.6210  0.1961  0.3654
  812SOL    HW1 2435   1.477   0.811   2.038  0.0811 -0.1522  0.8723
  812SOL    HW2 2436   1.359   0.827   1.909  1.0792  0.2578 -2.1374
  813SOL     OW 2437   1.743   2.167   2.437 -0.1358  0.5460 -0.0539
  813SOL    HW1 2438   1.759   2.093   2.512  0.6038  0.5011  4.0300
  813SOL    HW2 2439   1.678   2.134   2.360 -1.0982  2.5624  0.6577
  814SOL     OW 2440   2.859   1.540   2.916  0.1026 -0.5824 -0.1660
  814SOL    HW1 2441   2.965   1.533   2.922  1.5912 -1.8175  0.5844
  814SOL    HW2 2442   2.827   1.631   2.868 -0.4961 -1.2873 -1.4429
  815SOL     OW 2443   2.264   2.868   2.682  0.0439 -0.9290  0.0213
  815SOL    HW1 2444   2.265   2.805   2.763 -2.1996 -0.3611  0.3705
  815SOL    HW2 2445   2.358   2.882   2.635  2.8619  2.2568 -1.4233
  816SOL     OW 2446   1.702   0.326   1.631 -0.8097 -0.0406 -0.9047
  816SOL    HW1 2447   1.703   0.233   1.674  1.5122 -0.9491 -1.3177
  816SOL    HW2 2448   1.611   0.379   1.650 -2.6008  0.0681 -0.4365
  817SOL     OW 2449   0.453   1.233   2.472 -0.2380  0.7150  0.3353
  817SOL    HW1 2450   0.400   1.321   2.488 -1.0059  1.1490  0.9268
  817SOL    HW2 2451   0.505   1.222   2.380  1.1039  0.6626  0.7362
  818SOL     OW 2452   1.980   0.832   0.431 -0.5055 -0.0361 -0.1063
  818SOL    HW1 2453   1.998   0.933   0.429  1.3030 -0.1831 -3.5966
  818SOL    HW2 2454   1.945   0.795   0.522 -1.5065 -0.2773 -0.9682
  819SOL     OW 2455   2.765   2.913   3.038  0.3389 -0.4391 -0.1236
  819SOL    HW1 2456   2.818   2.824   3.052  2.0258 -2.3678 -0.9907
  819SOL    HW2 2457   2.689   2.903   2.970 -0.1922 -0.6080  0.6195
  820SOL     OW 2458   1.255   1.155   0.524  0.2033 -0.2545  0.2767
  820SOL    HW1 2459   1.258   1.254   0.558 -1.4542 -2.6992  0.7289
  820SOL    HW2 2460   1.227   1.086   0.604 -0.0583 -0.0769  2.9655
  821SOL     OW 2461   3.071   1.275   0.664 -0.0452 -0.3549  0.4921
  821SOL    HW1 2462   3.018   1.281   0.752  2.1595  0.0610 -2.1227
  821SOL    HW2 2463   3.150   1.348   0.660  0.2911 -1.1119 -0.3332
  822SOL     OW 2464   2.517   1.765   2.427  0.0820 -0.3350 -0.3876
  822SOL    HW1 2465   2.492   1.854   2.479  1.5815 -0.0234 -0.7417
  822SOL    HW2 2466   2.486   1.768   2.328  1.0604  1.4293  1.9742
  823SOL     OW 2467   2.028   0.883   1.241 -0.6946  0.0518 -0.3827
  823SOL    HW1 2468   2.011   0.927   1.334  2.0109 -0.1384  0.9698
  823SOL    HW2 2469   1.974   0.926   1.161 -2.2240  0.8443  0.4900
  824SOL     OW 2470   0.114   2.029   2.773 -0.0378  0.1832  0.4897
  824SOL    HW1 2471   0.066   1.949   2.820 -0.0819 -1.8304  1.6272
  824SOL    HW2 2472   0.179   1.994   2.700 -2.6645 -2.8805  0.3596
  825SOL     OW 2473   1.262   1.067   0.214  0.8086 -0.0408  0.0884
  825SOL    HW1 2474   1.262   1.123   0.301 -3.0293  3.4238 -2.0037
  825SOL    HW2 2475   1.223   1.125   0.141 -2.9769 -0.0759  3.6348
  826SOL     OW 2476   1.950   0.641   1.550 -0.0331  0.5870  0.7049
  826SOL    HW1 2477   1.998   0.582   1.622 -0.4549 -0.3489  2.6907
  826SOL    HW2 2478   1.870   0.586   1.509 -0.0919 -1.2299 -0.7841
  827SOL     OW 2479   0.727   1.447   0.308  0.1640 -0.0311 -0.0575
  827SOL    HW1 2480   0.749   1.379   0.231  1.4722 -2.6951  1.2140
  827SOL    HW2 2481   0.698   1.399   0.397  0.9972  1.2497 -0.6945
  828SOL     OW 2482   2.528   0.075   1.581 -0.7139  0.1928 -0.0027
  828SOL    HW1 2483   2.448   0.126   1.608  1.4224  2.1793 -0.6078
  828SOL    HW2 2484   2.530  -0.012   1.636 -0.6252  0.6041 -1.2887
  829SOL     OW 2485   2.815   2.490   2.979  0.0080  0.3351 -0.4205
  829SOL    HW1 2486   2.763   2.404   2.952  1.6598 -1.9557  1.3379
  829SOL    HW2 2487   2.763   2.550   3.045  1.0740  4.5085  0.3609
  830SOL     OW 2488   2.780   0.944   3.018  0.0281  0.2068 -0.2904
  830SOL    HW1 2489   2.855   1.010   3.046  0.5127  0.4432  1.2384
  830SOL    HW2 2490   2.787   0.851   3.064  0.7515 -2.0709  1.6042
  831SOL     OW 2491   0.001   0.624   0.357  0.1904  0.8902 -0.4609
  831SOL    HW1 2492  -0.023   0.548   0.433  0.3131 -2.2996  1.5723
  831SOL    HW2 2493   0.042   0.570   0.276  3.6222 -0.4008  0.6009
  832SOL     OW 2494   1.846   0.718   0.043  0.7339 -0.2649 -0.3118
  832SOL    HW1 2495   1.780   0.785  -0.004 -0.8939 -0.9529 -1.9251
  832SOL    HW2 2496   1.813   0.619   0.023 -2.7788 -0.9232  0.8124
  833SOL     OW 2497   2.399   2.127   0.518 -0.2428 -0.0927  0.1753
  833SOL    HW1 2498   2.300   2.125   0.487 -3.6546 -2.0625  1.4054
  833SOL    HW2 2499   2.461   2.057   0.478  0.1937 -0.9958  1.3441
  834SOL     OW 2500   0.145   0.216   0.584  0.2328 -0.2441 -0.4162
  834SOL    HW1 2501   0.196   0.138   0.630  0.3170 -1.4730 -0.8773
  834SOL    HW2 2502   0.135   0.217   0.486  2.4923  1.5223  2.2907
  835SOL     OW 2503   2.337   1.534   1.132  0.1499 -0.2313 -0.2888
  835SOL    HW1 2504   2.420   1.582   1.172  2.4698 -0.0952 -0.7257
  835SOL    HW2 2505   2.353   1.540   1.033 -1.1666  0.6502  2.2669
  836SOL     OW 2506   1.565   0.802   2.584  0.1218  0.1526  0.1122
  836SOL    HW1 2507   1.476   0.802   2.529  1.7178  1.8203 -0.7650
  836SOL    HW2 2508   1.645   0.828   2.525  1.5637 -1.1378  1.4518
  837SOL     OW 2509   1.726   0.119   0.527  0.8168  0.1064  0.5513
  837SOL    HW1 2510   1.652   0.159   0.587  3.6273 -0.0619 -0.4560
  837SOL    HW2 2511   1.685   0.099   0.434 -0.1106  3.0660 -0.3234
  838SOL     OW 2512   1.212   1.582   2.715 -0.0086 -0.4853  0.3055
  838SOL    HW1 2513   1.285   1.527   2.764  0.9128  1.4763  1.6186
  838SOL    HW2 2514   1.123   1.527   2.707 -1.9939  1.3890 -1.4744
  839SOL     OW 2515   1.597   0.295   0.987 -0.4081  0.2312  0.0380
  839SOL    HW1 2516   1.612   0.358   1.068 -1.1476 -0.6338 -0.8325
  839SOL    HW2 2517   1.588   0.198   1.018  3.2783  0.9551 -3.3963
  840SOL     OW 2518   2.546   2.943   1.737 -0.2499 -0.5895  0.1970
  840SOL    HW1 2519   2.476   2.892   1.674  0.6854 -0.4363 -0.6463
  840SOL    HW2 2520   2.622   2.885   1.772 -1.9688  0.5369 -2.9587
  841SOL     OW 2521   1.601   0.841   3.053  0.1033 -0.4139 -0.3396
  841SOL    HW1 2522   1.510   0.820   3.097 -1.4600 -1.4319  0.2428
  841SOL    HW2 2523   1.602   0.864   2.955 -0.8581 -1.6002  3.8919
  842SOL     OW 2524   0.822   1.477   0.900 -0.3945 -0.5974  0.0856
  842SOL    HW1 2525   0.790   1.573   0.939 -0.3294  2.0723 -1.6975
  842SOL    HW2 2526   0.740   1.413   0.877  1.4267 -1.4852 -0.8419
  843SOL     OW 2527   0.111   0.018   1.381 -0.3028  0.1290  0.2850
  843SOL    HW1 2528   0.157   0.077   1.449 -1.3355  1.3445 -3.2765
  843SOL    HW2 2529   0.072  -0.068   1.419 -0.8652 -0.1914 -1.1979
  844SOL     OW 2530   0.798   2.480   0.269  0.0941  0.7833  0.1410
  844SOL    HW1 2531   0.745   2.441   0.349 -1.4301  0.3502 -0.4388
  844SOL    HW2 2532   0.743   2.557   0.225  3.4858  1.5058 -1.7759
  845SOL     OW 2533   1.675   2.883   1.254 -0.1756  0.1552  0.3182
  845SOL    HW1 2534   1.710   2.781   1.234  0.0675 -1.7124  1.9736
  845SOL    HW2 2535   1.698   2.917   1.348 -0.4140  1.5052 -0.5254
  846SOL     OW 2536   1.570   2.957   0.694  0.2611  0.0056  0.3470
  846SOL    HW1 2537   1.545   2.974   0.593  0.0114 -0.8442  0.6524
  846SOL    HW2 2538   1.674   2.962   0.707  0.7175 -0.6039 -0.5630
  847SOL     OW 2539   2.101   1.673   0.424 -0.1806 -0.4758 -0.5315
  847SOL    HW1 2540   2.038   1.586   0.428  0.8254 -0.0885  3.5357
  847SOL    HW2 2541   2.040   1.752   0.421 -3.8606 -0.7958  0.7711
  848SOL     OW 2542   2.446   0.864   2.609  0.2246 -0.2360  0.2881
  848SOL    HW1 2543   2.416   0.962   2.625  0.9830 -0.4024 -1.0735
  848SOL    HW2 2544   2.365   0.797   2.591 -1.3511 -0.0537 -1.0114
  849SOL     OW 2545   2.575   0.853   2.362  0.0939 -0.2436  0.4330
  849SOL    HW1 2546   2.652   0.784   2.378  0.4788 -0.8763 -0.9270
  849SOL    HW2 2547   2.512   0.857   2.439  3.1300  2.3260 -2.7266
  850SOL     OW 2548   1.578   0.095   1.350 -0.4158  0.1210 -0.4692
  850SOL    HW1 2549   1.558   0.079   1.246 -2.7330  0.2938  0.5840
  850SOL    HW2 2550   1.528   0.022   1.405  1.6624  3.6674  0.8599
  851SOL     OW 2551   0.447   1.820   0.573 -0.1500  0.4492 -0.0747
  851SOL    HW1 2552   0.494   1.911   0.594  0.8446  1.9803 -4.9140
  851SOL    HW2 2553   0.461   1.792   0.476 -0.3379  0.4822  1.1430
  852SOL     OW 2554   0.837   2.045   1.799 -0.2755  0.0245 -0.0291
  852SOL    HW1 2555   0.883   2.140   1.784  0.0065  1.4751  0.3362
  852SOL    HW2 2556   0.762   2.041   1.868 -0.4500  3.3142 -0.1814
  853SOL     OW 2557   2.521   1.539   2.610 -0.1199 -0.3230 -0.4412
  853SOL    HW1 2558   2.467   1.457   2.571  0.6523 -1.0333  1.6007
  853SOL    HW2 2559   2.527   1.626   2.545 -0.9757  1.4154 -1.6387
  854SOL     OW 2560   2.440   1.382   1.761 -0.3875  0.1546 -0.0765
  854SOL    HW1 2561   2.510   1.342   1.694 -1.1022  1.9115 -0.8770
  854SOL    HW2 2562   2.388   1.306   1.816 -0.8682 -1.6409 -1.3800
  855SOL     OW 2563   2.072   2.430   1.072  0.4821  0.7179 -0.3531
  855SOL    HW1 2564   2.050   2.529   1.052  0.5565  0.2408 -0.8432
  855SOL    HW2 2565   2.136   2.413   1.150 -1.3489 -0.4431  0.5032
  856SOL     OW 2566   1.301   1.419   0.944 -0.2149 -0.3626  0.1685
  856SOL    HW1 2567   1.384   1.482   0.959  2.7242  1.9976 -3.1150
  856SOL    HW2 2568   1.211   1.469   0.962 -0.5931  2.9484  0.2310
  857SOL     OW 2569   3.074   2.765   1.012 -0.3312 -0.0694 -0.4526
  857SOL    HW1 2570   3.029   2.669   1.006 -1.6233  1.5492 -1.1189
  857SOL    HW2 2571   3.156   2.779   0.952 -0.8491 -0.5700 -0.1131
  858SOL     OW 2572   2.380   2.083   1.723 -0.1818 -0.1237 -0.3377
  858SOL    HW1 2573   2.290   2.059   1.687  2.7422  2.4823 -0.3661
  858SOL    HW2 2574   2.463   2.030   1.686  3.1548  2.8672  0.7488
  859SOL     OW 2575   2.385   0.556   1.054 -0.3402  0.4380  0.6406
  859SOL    HW1 2576   2.463   0.593   1.000 -1.9530  0.0124 -0.4641
  859SOL    HW2 2577   2.397   0.456   1.077 -2.0080 -0.7839  0.2618
  860SOL     OW 2578   1.809   2.826   0.510 -0.1927 -0.1404 -0.3395
  860SOL    HW1 2579   1.850   2.814   0.411  1.4742 -1.3792 -3.5282
  860SOL    HW2 2580   1.843   2.909   0.558 -0.1948 -1.1916 -0.0972
  861SOL     OW 2581   0.980   2.483   2.867  0.1478 -0.7667 -0.1624
  861SOL    HW1 2582   1.049   2.550   2.830 -4.0819  1.1457 -0.4402
  861SOL    HW2 2583   0.927   2.520   2.948  2.4184 -0.8830 -0.5263
  862SOL     OW 2584   2.917   2.551   1.632  0.5349  0.1000 -0.2214
  862SOL    HW1 2585   3.006   2.595   1.661  1.4208 -1.8768 -2.8058
  862SOL    HW2 2586   2.843   2.616   1.594 -2.0785 -1.8590 -0.5075
  863SOL     OW 2587   1.812   2.728   0.260 -0.0487  0.0783 -0.2252
  863SOL    HW1 2588   1.861   2.633   0.260 -0.1885  1.8490 -2.1996
  863SOL    HW2 2589   1.710   2.724   0.238  1.6705  0.6267  1.5887
  864SOL     OW 2590   2.023   1.260   2.840  0.3588 -0.0748  0.5053
  864SOL    HW1 2591   2.019   1.194   2.761 -2.6332 -3.2438 -0.7672
  864SOL    HW2 2592   2.106   1.322   2.836  1.6791  0.8465 -1.2364
  865SOL     OW 2593   2.184   1.934   0.731  0.0605  0.1847 -0.5477
  865SOL    HW1 2594   2.258   1.876   0.771 -1.0355 -1.2702  0.5157
  865SOL    HW2 2595   2.110   1.948   0.800  0.0989  0.2069 -0.2779
  866SOL     OW 2596   2.895   2.971   1.013 -0.5814 -0.3024 -0.1728
  866SOL    HW1 2597   2.870   3.032   0.935 -1.4547 -0.9735 -1.5731
  866SOL    HW2 2598   2.974   2.897   0.998  1.4431 -1.9742 -1.8353
  867SOL     OW 2599   0.354   1.444   0.922  0.2903  0.2488  0.5637
  867SOL    HW1 2600   0.335   1.358   0.860 -1.6663 -0.5269 -0.6995
  867SOL    HW2 2601   0.326   1.536   0.879 -1.3713  2.6283 -2.1262
  868SOL     OW 2602   0.751   1.836   2.062  0.4769 -0.2839 -0.2678
  868SOL    HW1 2603   0.711   1.782   2.144  0.6547 -2.7452  1.1071
  868SOL    HW2 2604   0.715   1.939   2.063 -1.1636 -0.1910  1.0361
  869SOL     OW 2605   2.578   1.929   1.662 -0.1954  0.3099 -0.5781
  869SOL    HW1 2606   2.672   1.956   1.639  1.0169  1.2194 -0.4359
  869SOL    HW2 2607   2.555   1.833   1.620 -2.7614  0.1800 -0.9994
  870SOL     OW 2608   2.324   2.733   1.246 -0.1472  0.0237 -0.1322
  870SOL    HW1 2609   2.343   2.634   1.266 -0.8526 -4.3833  0.7853
  870SOL    HW2 2610   2.408   2.796   1.260  0.6803  0.2218  2.2849
  871SOL     OW 2611   3.063   2.263   0.564  0.3438  0.4916  0.3191
  871SOL    HW1 2612   3.000   2.271   0.644  2.7468  2.0930  0.7678
  871SOL    HW2 2613   3.012   2.227   0.484 -0.4281 -0.5347 -0.9426
  872SOL     OW 2614   2.093   0.447   1.703 -0.2043 -0.8415  0.2488
  872SOL    HW1 2615   2.056   0.422   1.797 -0.9125  0.2112 -1.3202
  872SOL    HW2 2616   2.194   0.421   1.686  2.2748  1.3275 -0.3575
  873SOL     OW 2617   1.693   2.098   0.012  0.1730  0.2327 -0.1866
  873SOL    HW1 2618   1.602   2.051   0.039 -0.2852 -0.6626  0.8970
  873SOL    HW2 2619   1.693   2.127  -0.088 -2.4279 -3.6050 -1.5630
  874SOL     OW 2620   0.660   2.446   0.761  0.0997  0.5573 -0.2262
  874SOL    HW1 2621   0.652   2.549   0.750 -1.0403 -0.9808 -1.3883
  874SOL    HW2 2622   0.762   2.418   0.769  2.4402 -0.8538 -0.2714
  875SOL     OW 2623   2.248   1.497   1.430  0.4601  0.3045  0.3731
  875SOL    HW1 2624   2.327   1.548   1.462 -0.7698 -0.4994  0.6756
  875SOL    HW2 2625   2.247   1.490   1.327 -0.1926 -1.5248 -1.3688
  876SOL     OW 2626   0.059   2.264   2.649  0.0573  0.5492  0.3984
  876SOL    HW1 2627   0.077   2.160   2.680 -0.5653 -0.0468  0.6593
  876SOL    HW2 2628   0.117   2.336   2.688  2.0281 -1.1261 -0.6315
  877SOL     OW 2629   2.925   2.674   0.627 -0.0435 -0.4163  0.0096
  877SOL    HW1 2630   2.958   2.771   0.638  0.0601 -2.1615 -1.7410
  877SOL    HW2 2631   2.969   2.602   0.686 -1.2147 -2.7203  0.5561
  878SOL     OW 2632   2.826   1.514   2.230 -0.0927 -0.4363  0.0924
  878SOL    HW1 2633   2.805   1.602   2.180 -0.3375  1.3168 -0.2220
  878SOL    HW2 2634   2.799   1.510   2.330  0.1196 -0.5190  0.2090
  879SOL     OW 2635   2.408   0.056   1.220 -0.2580  0.0430  0.0589
  879SOL    HW1 2636   2.464  -0.033   1.230  1.2221  2.9350  4.3614
  879SOL    HW2 2637   2.311   0.047   1.174  0.2035 -1.2093 -1.3936
  880SOL     OW 2638   0.729   0.545   2.277 -0.0051 -0.7790 -0.4007
  880SOL    HW1 2639   0.673   0.483   2.340  2.1072 -1.3582 -0.6231
  880SOL    HW2 2640   0.796   0.488   2.219 -0.5882 -2.0378  0.0283
  881SOL     OW 2641   0.821   0.092   0.417 -0.2568 -0.0439  0.0974
  881SOL    HW1 2642   0.888   0.014   0.385  1.8480 -3.0071  0.5331
  881SOL    HW2 2643   0.720   0.084   0.387 -0.4728  0.7938  0.7686
  882SOL     OW 2644   2.733   1.663   1.696  0.0227 -0.0098  0.4365
  882SOL    HW1 2645   2.835   1.643   1.679  1.9889 -0.2181  0.0605
  882SOL    HW2 2646   2.705   1.655   1.791  0.0182  0.6057 -2.6378
  883SOL     OW 2647   0.816   0.501   0.923  0.1779  0.0150 -0.0627
  883SOL    HW1 2648   0.860   0.579   0.976 -1.4982 -1.3293  0.5263
  883SOL    HW2 2649   0.733   0.462   0.977 -2.6571  0.3478 -0.8483
  884SOL     OW 2650   1.108   1.769   1.120 -0.1785 -0.1963  0.6294
  884SOL    HW1 2651   1.099   1.675   1.085 -0.1659 -0.2906  0.1127
  884SOL    HW2 2652   1.028   1.824   1.076  1.6484 -2.2082 -0.7315
  885SOL     OW 2653   2.335   1.851   2.222  0.1313 -0.0127 -0.1053
  885SOL    HW1 2654   2.255   1.794   2.264 -2.6229  1.4490 -1.7745
  885SOL    HW2 2655   2.310   1.953   2.236 -0.0710  1.4322  0.3818
  886SOL     OW 2656   2.616   0.364   1.807 -0.1871 -0.4477  0.3450
  886SOL    HW1 2657   2.608   0.317   1.900 -1.6241 -0.2116  0.3858
  886SOL    HW2 2658   2.708   0.410   1.796  0.1826 -0.4283 -0.5704
  887SOL     OW 2659   0.151   2.049   1.250  0.0261 -0.1817 -0.1416
  887SOL    HW1 2660   0.052   2.037   1.243 -0.1677  2.6522  1.2870
  887SOL    HW2 2661   0.179   2.140   1.214  1.2364  0.3785  0.9751
  888SOL     OW 2662   0.650   1.215   1.496  0.3487  0.1643 -0.0093
  888SOL    HW1 2663   0.705   1.254   1.421 -0.4773 -0.8924  0.0174
  888SOL    HW2 2664   0.663   1.108   1.495 -1.2100 -3.0893  0.4309
  889SOL     OW 2665   0.862   2.446   2.234 -0.1572  0.1057  0.8028
  889SOL    HW1 2666   0.773   2.394   2.223 -2.2106  2.3557 -1.3262
  889SOL    HW2 2667   0.922   2.447   2.146  0.9809  0.1340 -0.2367
  890SOL     OW 2668   2.334   2.462   0.222  0.7866 -0.5071  0.0296
  890SOL    HW1 2669   2.362   2.529   0.149 -1.6000 -1.6040  1.7473
  890SOL    HW2 2670   2.365   2.488   0.313 -2.4866 -2.6676 -2.1821
  891SOL     OW 2671   2.533   1.699   0.713  0.0391  0.6897 -0.0676
  891SOL    HW1 2672   2.540   1.662   0.810  2.0553 -0.0341  0.1140
  891SOL    HW2 2673   2.451   1.663   0.656  0.6051  0.4094 -2.3064
  892SOL     OW 2674   0.380   0.388   2.217  0.4539 -0.3905  0.2691
  892SOL    HW1 2675   0.381   0.402   2.113  0.7175  1.2025 -1.4765
  892SOL    HW2 2676   0.472   0.398   2.259 -1.6738  0.2147 -0.0952
  893SOL     OW 2677   1.701   0.238   2.712  0.4450 -0.4786 -0.1564
  893SOL    HW1 2678   1.779   0.298   2.745 -2.0236  0.1534 -1.9777
  893SOL    HW2 2679   1.605   0.286   2.708  1.1316 -1.6952  0.8032
  894SOL     OW 2680   2.173   2.091   0.082  0.2046 -0.1484 -0.5254
  894SOL    HW1 2681   2.158   2.027   0.004 -2.7379  0.6484  0.4429
  894SOL    HW2 2682   2.192   2.035   0.165 -0.8065 -0.3865 -0.4465
  895SOL     OW 2683   2.734   1.428   0.942 -0.6563  0.5543 -0.1591
  895SOL    HW1 2684   2.824   1.375   0.941  0.8949 -1.6185 -0.4826
  895SOL    HW2 2685   2.753   1.527   0.960 -0.7268 -1.6967 -3.8882
  896SOL     OW 2686   1.828   1.868   1.223  0.4322  0.0917 -0.1426
  896SOL    HW1 2687   1.889   1.784   1.225  1.5209 -2.1235  2.6841
  896SOL    HW2 2688   1.742   1.847   1.168 -0.4081  0.7373  0.3105
  897SOL     OW 2689   0.252   0.514   3.023  0.0754 -0.3908  0.0286
  897SOL    HW1 2690   0.188   0.568   2.963  1.9920  0.0448  2.6985
  897SOL    HW2 2691   0.347   0.547   3.004  1.0940 -1.6882 -0.0907
  898SOL     OW 2692   0.688   2.796   1.053 -0.0876 -0.1263 -0.9618
  898SOL    HW1 2693   0.707   2.899   1.063 -0.6578  1.2971 -4.8367
  898SOL    HW2 2694   0.725   2.751   1.139  0.8706  2.4313 -0.7809
  899SOL     OW 2695   2.851   0.898   1.427  0.0245 -0.7251  0.0070
  899SOL    HW1 2696   2.830   0.954   1.344 -0.4344  1.3130  1.1713
  899SOL    HW2 2697   2.944   0.914   1.462  0.0616 -1.8226  1.0696
  900SOL     OW 2698   1.010   2.417   2.466 -0.9495 -0.0737  0.0610
  900SOL    HW1 2699   0.947   2.416   2.379 -1.1970  0.1590 -2.2136
  900SOL    HW2 2700   0.980   2.333   2.528 -0.0784 -1.2666  0.1459
  901SOL     OW 2701   1.919   2.459   1.412 -0.1322 -0.0588 -0.0280
  901SOL    HW1 2702   1.905   2.401   1.327  3.4705  1.4778  1.7302
  901SOL    HW2 2703   2.009   2.435   1.457 -0.4686 -1.6388 -1.2586
  902SOL     OW 2704   2.536   1.649   1.460 -0.6684  0.5837  0.2580
  902SOL    HW1 2705   2.600   1.614   1.536 -1.8133  0.1079  2.6784
  902SOL    HW2 2706   2.572   1.621   1.366 -0.4708 -0.5132  1.7556
  903SOL     OW 2707   0.334   2.479   2.004  0.1204  0.3179 -0.0307
  903SOL    HW1 2708   0.277   2.393   2.014  2.7867 -0.3440 -1.7796
  903SOL    HW2 2709   0.354   2.514   1.907  1.1333  1.2068 -0.1769
  904SOL     OW 2710   1.998   0.776   2.467 -0.1939  0.4604  0.0636
  904SOL    HW1 2711   1.927   0.730   2.532  2.1550 -0.1599  0.7753
  904SOL    HW2 2712   2.008   0.733   2.372 -1.3933 -0.1140  0.1355
  905SOL     OW 2713   2.828   0.088   2.393  0.7231 -0.2953 -0.3762
  905SOL    HW1 2714   2.896   0.011   2.416  1.8328  1.3235 -1.7430
  905SOL    HW2 2715   2.855   0.183   2.433  0.0956 -0.7273 -0.1698
  906SOL     OW 2716   0.171   1.693   1.889 -0.2094 -0.1816 -0.3463
  906SOL    HW1 2717   0.138   1.698   1.790  2.0129  1.3056  1.9782
  906SOL    HW2 2718   0.266   1.736   1.897 -1.7718 -0.1257 -2.1470
  907SOL     OW 2719   0.241   2.502   0.952 -0.3582 -0.6678 -0.1189
  907SOL    HW1 2720   0.335   2.456   0.953  1.3924  0.1255 -1.1832
  907SOL    HW2 2721   0.249   2.603   0.936 -2.3904 -1.9094  0.0259
  908SOL     OW 2722   2.833   3.040   0.278 -0.1162  0.2810 -0.3871
  908SOL    HW1 2723   2.742   3.022   0.225  0.6207  0.8791  1.3733
  908SOL    HW2 2724   2.894   2.954   0.294 -0.1543 -0.9164 -2.0135
  909SOL     OW 2725   0.828   1.035   2.685  0.2958 -0.1268  0.4941
  909SOL    HW1 2726   0.796   0.938   2.684 -0.2410  2.3170 -2.0524
  909SOL    HW2 2727   0.896   1.054   2.612  1.8316  1.9027  0.1481
  910SOL     OW 2728   1.775   1.879   2.159  0.4213 -0.6398  0.0286
  910SOL    HW1 2729   1.844   1.928   2.099 -2.0984  3.6809 -0.2826
  910SOL    HW2 2730   1.706   1.944   2.196  0.8714  0.3401 -1.1028
  911SOL     OW 2731   1.774   2.980   1.510  0.0425 -0.3495  0.7788
  911SOL    HW1 2732   1.860   2.978   1.452 -1.5036 -1.2099  1.3706
  911SOL    HW2 2733   1.762   2.902   1.575  2.1714  1.4855  2.7660
  912SOL     OW 2734   2.837   1.013   0.715  0.1792 -0.0423  0.0548
  912SOL    HW1 2735   2.878   0.998   0.810  3.8583  0.0757 -2.2747
  912SOL    HW2 2736   2.783   1.101   0.712 -1.0613  0.8894 -0.3651
  913SOL     OW 2737   2.568   1.288   1.543 -0.3739  0.1859 -0.6286
  913SOL    HW1 2738   2.583   1.187   1.517 -1.6453 -1.1231 -0.0987
  913SOL    HW2 2739   2.620   1.338   1.470 -0.7766 -2.6846 -1.9067
  914SOL     OW 2740   2.777   0.584   1.158 -0.0580  0.2391 -0.2723
  914SOL    HW1 2741   2.791   0.506   1.220  1.3866 -1.2257  0.7693
  914SOL    HW2 2742   2.679   0.612   1.139 -2.6419  2.1184  0.0458
  915SOL     OW 2743   1.184   0.795   0.959  0.0014 -0.2560  0.7855
  915SOL    HW1 2744   1.228   0.809   1.056 -0.4693  1.8261 -0.3420
  915SOL    HW2 2745   1.084   0.778   0.964  0.5447  1.4037  1.0844
  916SOL     OW 2746   0.584   0.141   0.677 -0.0186  0.1311 -0.0800
  916SOL    HW1 2747   0.655   0.210   0.720 -3.4091  0.2572  3.2656
  916SOL    HW2 2748   0.545   0.176   0.592 -0.2732 -3.2658  2.5673
  917SOL     OW 2749   2.864   2.575   2.008 -0.7553  0.0913 -0.1999
  917SOL    HW1 2750   2.776   2.607   1.971  0.1784  0.0179  0.5598
  917SOL    HW2 2751   2.948   2.598   1.950  1.0343 -0.4452 -2.1497
  918SOL     OW 2752   1.009   2.097   3.005  0.0633 -0.8970  0.3036
  918SOL    HW1 2753   0.992   2.186   3.062 -2.3928  0.4504 -0.5937
  918SOL    HW2 2754   1.067   2.110   2.921  0.8087 -0.5287 -1.7875
  919SOL     OW 2755   0.878   1.710   2.755 -0.3068 -0.0164 -0.2557
  919SOL    HW1 2756   0.892   1.803   2.712  2.3641  1.8944  1.5881
  919SOL    HW2 2757   0.838   1.642   2.688 -0.2917 -0.7136 -1.1240
  920SOL     OW 2758   1.305   1.761   2.507 -0.1387 -0.3210  0.3064
  920SOL    HW1 2759   1.399   1.737   2.463  0.0707 -0.9169  0.4199
  920SOL    HW2 2760   1.299   1.702   2.591  0.9805  1.8265  1.4214
  921SOL     OW 2761   1.131   0.031   2.654  0.4465 -0.3815  0.0349
  921SOL    HW1 2762   1.136   0.014   2.555 -0.6570  0.0244  1.1679
  921SOL    HW2 2763   1.041  -0.006   2.698  0.2801 -1.1047 -0.4836
  922SOL     OW 2764   2.183   2.379   2.753 -0.0989 -0.3292 -0.6275
  922SOL    HW1 2765   2.179   2.272   2.761  2.1047 -0.5140 -0.4113
  922SOL    HW2 2766   2.185   2.413   2.659 -1.2059  0.0286  4.3214
  923SOL     OW 2767   1.278   2.750   0.263 -0.3003  0.0320  0.0709
  923SOL    HW1 2768   1.313   2.825   0.328  0.8546 -0.1491  0.4716
  923SOL    HW2 2769   1.316   2.655   0.290  2.0378 -0.2235  0.7958
  924SOL     OW 2770   2.897   1.706   0.140 -0.1181  0.5746  0.0466
  924SOL    HW1 2771   2.817   1.667   0.084 -0.7730 -0.9247  1.6713
  924SOL    HW2 2772   2.977   1.636   0.148 -1.6118  2.5096  3.0811
  925SOL     OW 2773   0.038   2.862   1.512  0.1977  0.1247  0.1264
  925SOL    HW1 2774   0.024   2.803   1.595  1.9640 -0.6687  0.6763
  925SOL    HW2 2775  -0.011   2.828   1.422  1.2036 -0.4403 -0.0962
  926SOL     OW 2776   1.312   2.817   1.313  0.3327  0.3806 -0.2358
  926SOL    HW1 2777   1.362   2.796   1.223  1.0873  2.1427 -1.1057
  926SOL    HW2 2778   1.350   2.888   1.376 -1.8448 -1.2385 -0.1721
  927SOL     OW 2779   0.367   2.647   1.741 -0.1462  0.3624  0.1233
  927SOL    HW1 2780   0.330   2.592   1.657  0.6563  1.3882 -1.1378
  927SOL    HW2 2781   0.325   2.744   1.742  1.9539  2.1179  0.1861
  928SOL     OW 2782   1.591   2.065   2.218  0.2036  0.3272 -0.1088
  928SOL    HW1 2783   1.634   2.146   2.165  0.5265  0.2011 -0.8247
  928SOL    HW2 2784   1.501   2.031   2.182 -1.9780  1.4536  1.1644
  929SOL     OW 2785   2.409   2.502   2.853 -0.1710  0.3291  0.5450
  929SOL    HW1 2786   2.325   2.471   2.793 -0.7471 -0.3536 -1.9999
  929SOL    HW2 2787   2.494   2.517   2.799 -3.3382  0.9597 -0.6661
  930SOL     OW 2788   2.182   2.021   1.133 -0.3435 -0.8837  0.4439
  930SOL    HW1 2789   2.160   1.996   1.230  0.8065  1.8649 -1.5074
  930SOL    HW2 2790   2.264   2.087   1.127 -1.4633  2.7706  1.4948
  931SOL     OW 2791   0.504   1.728   2.637  0.3777  0.1961  0.2411
  931SOL    HW1 2792   0.524   1.756   2.729 -2.4383 -0.5509 -0.1723
  931SOL    HW2 2793   0.581   1.681   2.589 -0.1375  0.0241  1.2924
  932SOL     OW 2794   0.337   0.066   3.072  0.2808  0.8415 -0.1505
  932SOL    HW1 2795   0.430   0.110   3.051  0.2658  1.6967 -1.2517
  932SOL    HW2 2796   0.337  -0.036   3.034  1.1429 -2.1263 -1.4754
  933SOL     OW 2797   0.972   0.846   3.032 -0.3581 -0.0447  0.1156
  933SOL    HW1 2798   0.944   0.824   3.129 -4.1596  1.0641 -2.2973
  933SOL    HW2 2799   0.984   0.944   3.012  0.7657  0.3908 -0.0169
  934SOL     OW 2800   0.732   2.927   2.676  0.0471  0.4770  0.2146
  934SOL    HW1 2801   0.716   2.889   2.579  0.4369 -2.1220 -0.6116
  934SOL    HW2 2802   0.799   2.861   2.729 -2.7749  0.1986  0.2062
  935SOL     OW 2803   0.017   0.532   0.832 -0.3261  0.2493  0.6132
  935SOL    HW1 2804   0.013   0.518   0.726 -0.4967 -0.1470 -1.9122
  935SOL    HW2 2805  -0.060   0.591   0.862 -1.9739  0.0453 -1.3364
  936SOL     OW 2806   1.097   2.828   0.076 -0.2565  0.2505 -0.0911
  936SOL    HW1 2807   1.146   2.865  -0.004  2.1685  0.2564  2.6225
  936SOL    HW2 2808   1.165   2.789   0.146 -1.3499  0.3278 -1.1586
  937SOL     OW 2809   1.949   2.638   2.054 -1.0104  0.2990  0.1418
  937SOL    HW1 2810   1.846   2.622   2.057 -1.0876  1.7639  1.7325
  937SOL    HW2 2811   1.975   2.725   2.011 -0.3859 -0.0623  1.6271
  938SOL     OW 2812   2.785   2.089   1.563 -0.2289  0.1201 -0.2985
  938SOL    HW1 2813   2.744   2.182   1.590  1.7446  1.3491  2.6258
  938SOL    HW2 2814   2.877   2.069   1.610 -0.0329 -2.0957  1.0753
  939SOL     OW 2815   2.788   1.216   2.491 -0.0478  0.5509  0.1213
  939SOL    HW1 2816   2.845   1.177   2.410  0.7141  1.1107  0.6768
  939SOL    HW2 2817   2.804   1.159   2.575 -0.9091  0.1768 -0.3595
  940SOL     OW 2818   1.045   0.442   2.748 -0.4106 -0.2862  1.0270
  940SOL    HW1 2819   1.133   0.390   2.749 -1.8749  0.5405  1.2668
  940SOL    HW2 2820   1.003   0.425   2.651  0.4465 -4.6013 -1.4639
  941SOL     OW 2821   0.006   2.793   2.270 -0.3329 -0.3715 -0.8512
  941SOL    HW1 2822   0.073   2.724   2.233 -0.0319 -1.9153  0.6261
  941SOL    HW2 2823   0.043   2.869   2.327 -0.8367 -1.2419 -2.4824
  942SOL     OW 2824   0.053   0.087   2.540 -0.1241 -0.2446  0.3074
  942SOL    HW1 2825   0.098   0.096   2.633 -1.0172  0.3974  1.1060
  942SOL    HW2 2826   0.081   0.169   2.483 -0.4730  1.4071  1.8400
  943SOL     OW 2827   2.130   1.704   2.360 -0.6728  0.3292 -0.8496
  943SOL    HW1 2828   2.105   1.652   2.275 -0.7386  0.5041 -1.3478
  943SOL    HW2 2829   2.144   1.631   2.433 -0.8040 -0.1790  1.9135
  944SOL     OW 2830   2.183   2.355   1.501  0.3315  0.0124 -0.0899
  944SOL    HW1 2831   2.271   2.352   1.556 -1.5111  0.6336  1.8992
  944SOL    HW2 2832   2.116   2.284   1.540  4.8907  0.5269 -0.8871
  945SOL     OW 2833   0.718   1.591   0.070 -0.5729 -0.0467 -0.0538
  945SOL    HW1 2834   0.649   1.562  -0.001  2.4593 -1.4111 -0.0992
  945SOL    HW2 2835   0.708   1.543   0.160  0.4943 -1.3192 -0.1990
  946SOL     OW 2836   0.343   0.990   2.564  0.7834 -0.2899 -0.3116
  946SOL    HW1 2837   0.296   0.943   2.483 -0.3369  0.4470 -1.4926
  946SOL    HW2 2838   0.376   1.086   2.546  1.1491  0.2090 -2.9290
  947SOL     OW 2839   1.467   0.561   3.079  0.6363 -0.1930  0.1114
  947SOL    HW1 2840   1.457   0.619   2.997 -1.0950  0.9266  0.1430
  947SOL    HW2 2841   1.386   0.506   3.107  1.6475 -0.5057  1.3057
  948SOL     OW 2842   1.896   2.992   2.152 -0.0929  0.0305  0.2906
  948SOL    HW1 2843   1.886   2.965   2.048  1.9898 -0.6358 -2.9815
  948SOL    HW2 2844   1.898   2.905   2.214  1.5698  0.9887 -0.2505
  949SOL     OW 2845   0.611   2.436   0.481 -0.2001 -0.1258  0.3000
  949SOL    HW1 2846   0.595   2.540   0.462 -0.3270  3.3731  0.4374
  949SOL    HW2 2847   0.641   2.410   0.574  1.6166 -2.2237 -0.1310
  950SOL     OW 2848   0.215   2.217   2.958 -0.1567  0.8232  0.0510
  950SOL    HW1 2849   0.204   2.311   2.917 -3.2077 -2.9467  0.7572
  950SOL    HW2 2850   0.174   2.145   2.890 -0.6313  0.6947  3.7725
  951SOL     OW 2851   1.164   2.651   2.777 -0.0082  0.0040 -0.4649
  951SOL    HW1 2852   1.228   2.590   2.836  0.9237  0.2072 -0.0868
  951SOL    HW2 2853   1.219   2.693   2.703  0.7617  0.5115  0.2279
  952SOL     OW 2854   0.137   1.621   0.414 -0.3535  0.4644  0.2991
  952SOL    HW1 2855   0.155   1.723   0.445  1.7699  1.4294 -2.0779
  952SOL    HW2 2856   0.177   1.549   0.471 -0.6770  1.5796 -0.7727
  953SOL     OW 2857   2.523   1.750   0.278  0.1789  0.5338 -0.9385
  953SOL    HW1 2858   2.508   1.663   0.219  1.4903  0.9214 -0.0359
  953SOL    HW2 2859   2.492   1.829   0.225 -1.0063 -0.6569  0.3872
  954SOL     OW 2860   2.144   0.581   0.925  0.8561 -0.3030  0.5503
  954SOL    HW1 2861   2.137   0.567   0.819 -1.1191  2.9883  3.5391
  954SOL    HW2 2862   2.243   0.581   0.965  0.4164  2.2227  0.7203
  955SOL     OW 2863   0.141   2.566   1.367 -0.8829 -0.1665  0.0399
  955SOL    HW1 2864   0.057   2.628   1.369  0.0541 -1.0112  2.5079
  955SOL    HW2 2865   0.231   2.611   1.335  2.3659 -2.5554 -0.0147
  956SOL     OW 2866   2.822   2.485   2.536 -0.1192 -0.0803  0.0087
  956SOL    HW1 2867   2.797   2.382   2.522 -2.1525  1.2177 -1.4990
  956SOL    HW2 2868   2.847   2.529   2.444 -0.1259 -2.2598 -0.8817
  957SOL     OW 2869   1.581   2.044   2.735 -0.3869  0.1000 -0.3288
  957SOL    HW1 2870   1.551   1.955   2.780 -2.0187 -0.7451 -0.3453
  957SOL    HW2 2871   1.679   2.034   2.704 -2.6110  1.6355 -0.0712
  958SOL     OW 2872   2.613   2.276   2.928 -0.5573 -0.0035  0.6744
  958SOL    HW1 2873   2.529   2.333   2.919 -1.1307  0.6841  1.6570
  958SOL    HW2 2874   2.619   2.228   3.024 -2.5384 -3.9906  0.5812
  959SOL     OW 2875   0.360   2.756   0.100 -0.3723  0.3969  0.1946
  959SOL    HW1 2876   0.274   2.764   0.154  0.0275 -0.7194 -1.8053
  959SOL    HW2 2877   0.382   2.653   0.078 -1.9350 -1.9118 -0.6357
  960SOL     OW 2878   1.956   0.417   1.951  0.0361  0.4776 -0.1256
  960SOL    HW1 2879   1.936   0.511   1.916 -0.9734 -1.4017  0.1322
  960SOL    HW2 2880   1.954   0.411   2.056 -1.7229 -2.1806  1.1424
  961SOL     OW 2881   2.546   1.840   1.004  0.1730 -0.1658  0.2413
  961SOL    HW1 2882   2.572   1.926   0.952  0.8381  0.3448  2.4052
  961SOL    HW2 2883   2.512   1.866   1.097 -0.0506 -1.7669  2.0858
  962SOL     OW 2884   1.315   0.845   0.057  0.4012  0.4140  0.0404
  962SOL    HW1 2885   1.272   0.868  -0.036 -0.0826  1.2646 -0.7109
  962SOL    HW2 2886   1.316   0.927   0.115  0.0011  0.7538  0.4923
  963SOL     OW 2887   2.302   2.563   1.837 -0.3920  0.3650  0.3525
  963SOL    HW1 2888   2.236   2.483   1.851  1.1981 -0.2256 -5.1157
  963SOL    HW2 2889   2.316   2.625   1.916 -2.8946  0.2245  0.2047
  964SOL     OW 2890   2.351   0.352   1.639  0.3023  0.6827  0.0031
  964SOL    HW1 2891   2.404   0.411   1.697 -0.8631 -1.5390  0.3269
  964SOL    HW2 2892   2.342   0.383   1.539  0.0762 -1.4431  1.3785
  965SOL     OW 2893   2.600   2.959   0.144 -0.3086  0.6011  0.0825
  965SOL    HW1 2894   2.664   2.922   0.068 -0.4593  1.2062  0.8499
  965SOL    HW2 2895   2.534   3.029   0.105 -1.5678 -1.6240  0.4611
  966SOL     OW 2896   2.500   2.502   2.200  0.5242 -0.1408 -0.0821
  966SOL    HW1 2897   2.561   2.555   2.132  0.1535  1.9822 -0.0542
  966SOL    HW2 2898   2.400   2.519   2.180  1.6519  0.7090 -1.3259
  967SOL     OW 2899   2.725   2.849   2.428 -0.0642  0.5241 -0.1091
  967SOL    HW1 2900   2.748   2.764   2.375 -0.7311  0.5836 -1.2272
  967SOL    HW2 2901   2.807   2.903   2.465 -2.4486 -0.2385  3.8871
  968SOL     OW 2902   1.958   1.038   2.642  0.0685  0.0600 -0.2132
  968SOL    HW1 2903   1.889   1.102   2.600  0.9817 -0.3636 -0.7878
  968SOL    HW2 2904   1.971   0.953   2.586 -3.1848 -1.4941 -1.7213
  969SOL     OW 2905   2.773   2.505   1.062 -0.5057 -0.2944  0.4219
  969SOL    HW1 2906   2.767   2.495   0.959 -0.3540 -1.2225  0.9551
  969SOL    HW2 2907   2.818   2.425   1.111 -1.9589  0.0007  2.3254
  970SOL     OW 2908   1.115   2.135   1.865 -0.7996 -0.5705 -0.4890
  970SOL    HW1 2909   1.051   2.056   1.878 -2.7446  0.1154 -0.0903
  970SOL    HW2 2910   1.091   2.222   1.921 -1.7107  0.6522 -0.7243
  971SOL     OW 2911   2.841   2.051   1.948  0.2286 -0.3078  0.5860
  971SOL    HW1 2912   2.877   2.132   2.000 -0.8377 -2.2136 -1.2091
  971SOL    HW2 2913   2.887   2.037   1.857 -2.4856 -0.9572  1.4214
  972SOL     OW 2914   1.926   2.494   0.260  0.4284  0.0228  0.2680
  972SOL    HW1 2915   1.922   2.404   0.205  1.0975 -2.6925 -0.3721
  972SOL    HW2 2916   1.954   2.467   0.357 -1.4597  3.4295  0.2102
  973SOL     OW 2917   1.197   0.900   1.875  0.2010  0.2253 -0.1214
  973SOL    HW1 2918   1.136   0.823   1.902  1.8718  1.9972 -0.3787
  973SOL    HW2 2919   1.143   0.970   1.817  2.6732  1.1534 -0.4723
  974SOL     OW 2920   1.643   0.577   1.983 -0.1071 -0.4883 -0.3617
  974SOL    HW1 2921   1.733   0.607   1.932  2.2887  0.1696 -1.2483
  974SOL    HW2 2922   1.562   0.636   1.955 -0.0207  1.2335 -1.5420
  975SOL     OW 2923   2.363   3.045   3.055  0.0285  0.3364  0.3364
  975SOL    HW1 2924   2.307   2.967   3.090  0.2126  1.3393  0.3475
  975SOL    HW2 2925   2.417   3.017   2.973 -4.0404  0.1752 -0.5422
  976SOL     OW 2926   1.908   2.794   2.357 -0.3150  0.7115 -0.1773
  976SOL    HW1 2927   1.808   2.765   2.368 -0.7917  1.0416  0.6397
  976SOL    HW2 2928   1.958   2.796   2.448  1.9914  1.2620  0.3461
  977SOL     OW 2929   0.500   0.665   1.025  0.5982 -0.8525 -0.2583
  977SOL    HW1 2930   0.435   0.644   0.943 -1.4262 -0.5166 -1.4638
  977SOL    HW2 2931   0.522   0.770   1.029  0.8858  3.2181  0.5711
   3.10000   3.10000   3.10000
