1000 SPC/Fw water molecules t=   1.51000 step= 1510
 2931
    1SOL     OW    1   2.444   0.349   2.655  0.1074 -0.0261 -0.2623
    1SOL    HW1    2   2.452   0.248   2.658  1.4209 -0.3806  0.0219
    1SOL    HW2    3   2.502   0.404   2.726  2.3496  3.6718  1.7069
    2SOL     OW    4   2.717   2.986   1.401 -0.2365  0.2890  0.0857
    2SOL    HW1    5   2.818   3.004   1.380 -0.7969  0.3278 -1.2303
    2SOL    HW2    6   2.674   3.067   1.444  2.1416 -3.0927  0.4472
    3SOL     OW    7   2.657   2.550   0.396  0.2094  0.2083  0.1680
    3SOL    HW1    8   2.599   2.460   0.407  1.9805 -1.4291 -0.6748
    3SOL    HW2    9   2.696   2.583   0.488  4.1755 -1.9619  0.0132
    4SOL     OW   10   1.237   1.526   2.410  0.5181  0.2405 -0.1289
    4SOL    HW1   11   1.173   1.512   2.332  0.1173  2.9082  1.3897
    4SOL    HW2   12   1.224   1.460   2.491  1.7765  2.2549  0.9807
    5SOL     OW   13   1.193   1.546   2.942  0.1560 -0.5353  0.7846
    5SOL    HW1   14   1.226   1.635   2.988 -1.3894  2.7244 -1.5326
    5SOL    HW2   15   1.099   1.565   2.906 -0.0859 -2.3332 -0.2951
    6SOL     OW   16   0.282   1.784   3.013 -0.1901  0.3002  0.1399
    6SOL    HW1   17   0.219   1.809   3.086  3.8445  0.7476  0.0949
    6SOL    HW2   18   0.340   1.710   3.040 -1.4920 -3.0327 -2.7025
    7SOL     OW   19   2.471   0.900   1.022 -0.3110 -0.2933 -0.4836
    7SOL    HW1   20   2.380   0.882   1.068 -0.3602  2.1496 -3.7730
    7SOL    HW2   21   2.477   0.859   0.927 -1.0592  0.8948 -0.8109
    8SOL     OW   22   0.367   0.687   1.525  0.3384  0.0830  0.7658
    8SOL    HW1   23   0.437   0.610   1.506  0.7320 -0.4904  1.1984
    8SOL    HW2   24   0.370   0.764   1.453 -2.6395 -0.1205  0.5249
    9SOL     OW   25   1.162   0.859   2.340 -0.0216  0.2759 -0.4909
    9SOL    HW1   26   1.244   0.886   2.278  3.3288  1.1181 -1.9148
    9SOL    HW2   27   1.127   0.766   2.318 -0.5042  1.2338 -1.1060
   10SOL     OW   28   0.737   1.403   1.260  0.6796  0.6745 -0.4247
   10SOL    HW1   29   0.662   1.389   1.183 -2.1635 -0.5565 -1.5698
   10SOL    HW2   30   0.743   1.502   1.289 -2.1061 -2.5987 -0.1251
   11SOL     OW   31   2.305   2.826   0.864  0.0731  0.0295  0.2935
   11SOL    HW1   32   2.250   2.804   0.946  1.6100 -0.2803 -3.9410
   11SOL    HW2   33   2.393   2.873   0.887  1.1704  1.5912  1.0210
   12SOL     OW   34   1.514   0.919   0.385 -0.0355 -0.4977 -0.0475
   12SOL    HW1   35   1.467   0.980   0.315  2.8889 -0.6181 -2.5497
   12SOL    HW2   36   1.543   0.829   0.348 -0.2290 -0.2631 -1.8052
   13SOL     OW   37   2.431   0.729   1.794  0.2829  0.8709  0.1434
   13SOL    HW1   38   2.375   0.658   1.846  1.5665  0.8704  2.9792
   13SOL    HW2   39   2.454   0.690   1.698  3.0953  1.2950 -2.2317
   14SOL     OW   40   1.977   3.080   0.595  0.1174 -0.1631 -0.0335
   14SOL    HW1   41   1.877   3.108   0.572 -0.1464 -0.6295  2.7418
   14SOL    HW2   42   1.980   3.037   0.687 -0.8111 -1.1054 -0.6580
   15SOL     OW   43   1.886   2.064   2.661  0.0714 -0.0316 -0.3860
   15SOL    HW1   44   1.843   2.069   2.757 -0.3825  1.3871 -1.2897
   15SOL    HW2   45   1.839   1.995   2.599 -0.9007  1.1484 -0.1425
   16SOL     OW   46   1.592   1.750   3.030 -0.4434 -0.2451  0.2100
   16SOL    HW1   47   1.618   1.652   3.042 -1.1314  1.9943  0.1197
   16SOL    HW2   48   1.676   1.809   3.060  0.7920 -0.0044 -1.2072
   17SOL     OW   49   0.116   0.428   0.178  0.0500 -0.1328  0.4958
   17SOL    HW1   50   0.195   0.476   0.131  0.7105 -1.0107 -1.6590
   17SOL    HW2   51   0.032   0.423   0.117  2.3404  2.5616  0.0855
   18SOL     OW   52   0.895   2.952   2.133 -0.3593 -0.8775 -0.2396
   18SOL    HW1   53   0.879   2.860   2.188  1.1021 -2.8569  3.2357
   18SOL    HW2   54   0.974   2.936   2.067 -0.8693  0.8788  1.3642
   19SOL     OW   55   0.598   0.855   1.910  0.2204 -0.1849  0.4312
   19SOL    HW1   56   0.675   0.803   1.954 -1.5405 -0.4509  0.1001
   19SOL    HW2   57   0.631   0.946   1.867  0.9391  1.1133  0.6091
   20SOL     OW   58   0.215   2.856   0.842 -0.9420  0.4245  0.3420
   20SOL    HW1   59   0.116   2.871   0.849  0.6632  0.8918  1.1329
   20SOL    HW2   60   0.244   2.760   0.803  1.6117  0.3786 -1.9715
   21SOL     OW   61   2.752   0.302   1.990 -0.5996  0.7127  0.3278
   21SOL    HW1   62   2.734   0.223   1.922 -1.6470 -0.9572  0.9204
   21SOL    HW2   63   2.821   0.278   2.063 -1.1546 -0.0535 -1.2759
   22SOL     OW   64   2.359   0.193   0.137 -0.4745  0.4956  0.0513
   22SOL    HW1   65   2.359   0.093   0.100  0.2268 -2.3985 -2.7959
   22SOL    HW2   66   2.292   0.258   0.080 -0.2191 -1.4657 -1.4437
   23SOL     OW   67   2.830   0.526   0.671 -0.2564  0.5304 -0.1053
   23SOL    HW1   68   2.846   0.438   0.619  1.7767 -0.0947 -1.2168
   23SOL    HW2   69   2.841   0.607   0.607 -1.1214 -1.0054 -3.2757
   24SOL     OW   70   0.247   1.847   0.413  0.4929  0.0459 -0.7040
   24SOL    HW1   71   0.213   1.927   0.354 -2.0378  0.5612 -1.8122
   24SOL    HW2   72   0.342   1.817   0.398 -2.3355  1.0649  1.4147
   25SOL     OW   73   2.266   0.602   0.209 -0.0341 -0.2758 -0.1928
   25SOL    HW1   74   2.254   0.603   0.106  2.0445  0.0334  0.4833
   25SOL    HW2   75   2.320   0.519   0.247 -0.0735 -1.1416 -0.8450
   26SOL     OW   76   2.434   2.147   2.112 -0.3082  0.1862  0.4575
   26SOL    HW1   77   2.527   2.186   2.139 -0.8773  2.2316  2.3472
   26SOL    HW2   78   2.439   2.073   2.039  0.7570 -0.8234  1.2411
   27SOL     OW   79   0.559   2.922   0.154  0.2176 -0.3338  0.1825
   27SOL    HW1   80   0.630   2.999   0.162 -1.1075  0.7825 -0.1713
   27SOL    HW2   81   0.530   2.915   0.056  1.9381  4.1343  1.4352
   28SOL     OW   82   1.619   0.125   0.308 -0.6392  0.6285 -0.9819
   28SOL    HW1   83   1.648   0.075   0.221  0.3683 -0.2371  2.1067
   28SOL    HW2   84   1.643   0.225   0.314  0.5372  2.4149 -2.3201
   29SOL     OW   85   2.014   0.617   0.285  0.6334  0.1144 -0.0540
   29SOL    HW1   86   1.999   0.694   0.352  3.2510 -0.6319  0.4744
   29SOL    HW2   87   2.114   0.604   0.259 -1.7846  2.1919 -0.5029
   30SOL     OW   88   0.191   2.071   0.909 -0.6333  0.3861  0.2279
   30SOL    HW1   89   0.209   1.983   0.858  0.4865  0.1020  2.1569
   30SOL    HW2   90   0.088   2.082   0.909 -0.8048 -0.4630 -0.6357
   31SOL     OW   91   2.184   0.055   2.361 -0.5940 -0.4530 -0.3806
   31SOL    HW1   92   2.136   0.039   2.449  0.5561  0.2438 -0.0185
   31SOL    HW2   93   2.123   0.025   2.285 -1.9570 -1.2016 -0.6828
   32SOL     OW   94   3.000   3.065   0.273  0.6286  0.3673  0.6227
   32SOL    HW1   95   2.971   2.972   0.297  0.5794  0.5726  0.6423
   32SOL    HW2   96   3.085   3.092   0.327  0.4847  2.7747  1.2678
   33SOL     OW   97   0.893   0.194   0.626  0.0742 -0.1501 -0.1642
   33SOL    HW1   98   0.879   0.136   0.540  0.8618 -2.2451 -1.3267
   33SOL    HW2   99   0.985   0.249   0.623 -0.3538 -0.7327  1.6477
   34SOL     OW  100   0.324   2.696   1.072 -0.1472 -0.6175 -0.3090
   34SOL    HW1  101   0.273   2.755   1.004  0.0602  1.0916 -1.0462
   34SOL    HW2  102   0.410   2.748   1.108  1.6203  2.3487 -2.6949
   35SOL     OW  103   0.039   0.123   1.881  0.7664  0.4741  0.0654
   35SOL    HW1  104   0.049   0.026   1.923  1.3467  0.4270  4.3494
   35SOL    HW2  105  -0.014   0.136   1.791  1.3312  0.8709  0.0273
   36SOL     OW  106   1.894   1.184   1.517  0.2479 -0.1436 -0.1019
   36SOL    HW1  107   1.963   1.109   1.529 -2.1862  1.2191  1.7280
   36SOL    HW2  108   1.906   1.233   1.424 -1.1567 -1.2423  0.3563
   37SOL     OW  109   1.121   0.197   0.966 -0.3043  0.3125  0.1445
   37SOL    HW1  110   1.147   0.295   0.979  1.1860 -2.4419 -0.0131
   37SOL    HW2  111   1.188   0.143   0.905  1.2926  1.6740 -1.2942
   38SOL     OW  112   1.165   2.889   2.463 -0.3022 -0.3938  0.4405
   38SOL    HW1  113   1.068   2.867   2.461 -2.4075 -0.4337  1.0039
   38SOL    HW2  114   1.184   2.981   2.418 -3.8685 -0.1037 -0.2846
   39SOL     OW  115   2.471   1.403   3.054 -0.3211 -0.1314  0.3921
   39SOL    HW1  116   2.539   1.329   3.075  0.3029  0.3234  1.1641
   39SOL    HW2  117   2.390   1.395   3.121  1.0126 -0.9162 -0.6594
   40SOL     OW  118   2.030   2.528   2.613 -0.0609  0.3265  0.1137
   40SOL    HW1  119   1.986   2.620   2.610 -0.1919 -2.0651 -0.3069
   40SOL    HW2  120   2.007   2.461   2.543 -0.6042  0.9181 -0.7620
   41SOL     OW  121   3.027   0.700   2.810 -0.0927  0.8137 -0.1792
   41SOL    HW1  122   2.964   0.754   2.872  0.5723  1.3442  0.0178
   41SOL    HW2  123   2.979   0.663   2.723  3.2284  1.5716  0.2382
   42SOL     OW  124   1.797   1.729   0.570  0.2022 -0.0953 -0.3455
   42SOL    HW1  125   1.754   1.637   0.578  1.5463 -0.5815  2.6487
   42SOL    HW2  126   1.820   1.750   0.468  0.1317  0.8442 -0.3927
   43SOL     OW  127   0.474   1.671   1.207 -0.4863  0.1398 -0.6380
   43SOL    HW1  128   0.467   1.587   1.157 -2.7047  1.6098  1.5246
   43SOL    HW2  129   0.403   1.677   1.284 -2.6729 -0.1981 -0.4735
   44SOL     OW  130   1.640   2.377   2.982 -0.3191 -0.1092  0.4482
   44SOL    HW1  131   1.537   2.383   2.956 -1.6581 -2.3278 -2.6987
   44SOL    HW2  132   1.698   2.402   2.897 -0.8602 -0.0834 -2.6912
   45SOL     OW  133   0.354   1.915   2.562 -0.4795  0.0911  0.0330
   45SOL    HW1  134   0.296   1.884   2.481 -1.0353 -0.6041  0.8553
   45SOL    HW2  135   0.434   1.842   2.580  0.9662 -2.3934 -0.9462
   46SOL     OW  136   1.251   0.718   0.279 -0.7476  0.6960  0.1703
   46SOL    HW1  137   1.258   0.809   0.237 -2.6520 -1.7255 -0.1727
   46SOL    HW2  138   1.190   0.655   0.224 -1.2587  0.0046  1.7386
   47SOL     OW  139   0.170   2.446   1.548 -0.3092 -0.1510 -0.3225
   47SOL    HW1  140   0.141   2.345   1.571  0.7519 -1.1503  0.4434
   47SOL    HW2  141   0.190   2.458   1.446  1.7226 -1.7391 -2.7428
   48SOL     OW  142   2.679   0.630   0.144 -0.3204  0.0058 -0.4414
   48SOL    HW1  143   2.636   0.636   0.244 -2.5390 -0.5443 -0.3292
   48SOL    HW2  144   2.781   0.658   0.133  2.0155  0.8556 -1.5573
   49SOL     OW  145   0.344   0.827   1.750  0.7322  0.4683  0.1153
   49SOL    HW1  146   0.421   0.805   1.813 -0.6175  0.2116  0.6248
   49SOL    HW2  147   0.336   0.767   1.663 -0.7139 -0.1646 -0.7248
   50SOL     OW  148   1.746   1.150   0.306 -0.2312 -0.1268 -0.1878
   50SOL    HW1  149   1.768   1.052   0.280  0.9896  1.5020  1.3650
   50SOL    HW2  150   1.688   1.155   0.391  0.1679  0.4912 -0.4997
   51SOL     OW  151   3.005   1.744   0.262  0.0403  0.3556 -0.0324
   51SOL    HW1  152   2.972   1.666   0.199  0.8697  0.2110  1.0615
   51SOL    HW2  153   3.009   1.710   0.358  1.2354 -0.5005 -0.7837
   52SOL     OW  154   0.784   2.145   0.642 -0.3207 -0.0255 -0.3517
   52SOL    HW1  155   0.703   2.178   0.583 -0.1798 -2.0208 -1.0833
   52SOL    HW2  156   0.759   2.074   0.710 -1.8973  0.8832  1.1550
   53SOL     OW  157   0.232   0.426   1.496  0.0030 -0.7859  0.2767
   53SOL    HW1  158   0.267   0.520   1.481  1.6822 -1.6471  0.7941
   53SOL    HW2  159   0.144   0.412   1.443  0.5386  0.9755 -2.2084
   54SOL     OW  160   1.743   0.484   3.088 -0.8608 -0.6033  0.1888
   54SOL    HW1  161   1.810   0.446   3.159  2.4228 -1.5132  0.5114
   54SOL    HW2  162   1.642   0.491   3.119 -1.2940  1.9781 -1.0014
   55SOL     OW  163   0.724   2.938   0.664  0.0720 -0.5907 -1.0481
   55SOL    HW1  164   0.664   3.025   0.676  0.3364  0.2620  3.2894
   55SOL    HW2  165   0.824   2.951   0.638  1.4806 -0.0467  0.7088
   56SOL     OW  166   0.585   1.575   3.059 -0.1218 -0.1903 -0.1626
   56SOL    HW1  167   0.514   1.588   3.139 -1.8746  0.4376  1.6323
   56SOL    HW2  168   0.565   1.487   3.006  2.6647 -1.2777 -1.0459
   57SOL     OW  169   1.720   2.511   2.392 -0.0054 -0.1455 -0.6729
   57SOL    HW1  170   1.786   2.437   2.419 -0.6567  3.4747  2.2767
   57SOL    HW2  171   1.628   2.511   2.447 -0.4624  0.8727 -1.5926
   58SOL     OW  172   0.666   0.227   1.096 -0.0275 -0.2225  0.2533
   58SOL    HW1  173   0.566   0.235   1.112  0.5436 -1.9539  1.5143
   58SOL    HW2  174   0.707   0.139   1.133 -0.4632 -1.1157  1.1219
   59SOL     OW  175   0.457   2.386   2.717  0.2167 -0.3250 -0.1263
   59SOL    HW1  176   0.479   2.282   2.718  1.8028 -1.1402  3.4774
   59SOL    HW2  177   0.542   2.442   2.722 -4.4160 -1.1262 -1.2910
   60SOL     OW  178   2.310   2.095   2.350  0.8591 -0.3860  0.0597
   60SOL    HW1  179   2.346   2.130   2.256 -0.9706  0.8994 -1.0859
   60SOL    HW2  180   2.356   2.147   2.432  3.8282 -0.0800  0.3007
   61SOL     OW  181   1.199   0.642   0.541  0.2872 -0.2742  0.4503
   61SOL    HW1  182   1.094   0.665   0.537 -3.0794 -0.7941 -2.4427
   61SOL    HW2  183   1.241   0.655   0.449 -3.2923 -0.4922 -3.1546
   62SOL     OW  184   2.736   1.712   2.739  0.1928 -0.0991 -0.3562
   62SOL    HW1  185   2.689   1.630   2.703  3.1552  1.7650  0.4109
   62SOL    HW2  186   2.823   1.689   2.791  0.4913  1.1525 -1.1025
   63SOL     OW  187   0.508   0.916   0.198 -0.6634  0.3197  0.1878
   63SOL    HW1  188   0.566   0.974   0.135  0.0484 -0.7423  0.7388
   63SOL    HW2  189   0.538   0.926   0.296  1.1635  0.5323 -0.0674
   64SOL     OW  190   3.018   0.589   2.300 -0.0967 -0.2938 -0.4254
   64SOL    HW1  191   2.984   0.642   2.386 -2.1260  2.3970 -0.4142
   64SOL    HW2  192   3.054   0.648   2.224  0.3598  3.4398 -1.4260
   65SOL     OW  193   0.218   1.440   0.728  0.6635  0.0348  0.0868
   65SOL    HW1  194   0.231   1.519   0.799  3.7426  1.7352  1.2063
   65SOL    HW2  195   0.275   1.464   0.646 -2.4447  0.7185  0.3520
   66SOL     OW  196   2.545   0.353   0.528  0.4558 -0.3518  0.0022
   66SOL    HW1  197   2.641   0.329   0.519  0.7856 -1.2478  1.5201
   66SOL    HW2  198   2.501   0.308   0.613 -1.8762 -1.4020 -1.6020
   67SOL     OW  199   0.622   2.488   1.469 -0.0888 -0.1695 -0.2667
   67SOL    HW1  200   0.695   2.441   1.530  1.7662 -1.1908  1.4637
   67SOL    HW2  201   0.544   2.425   1.445 -0.5725  2.1534  0.3733
   68SOL     OW  202   0.969   1.008   2.439 -0.3724  0.2435 -0.1220
   68SOL    HW1  203   1.060   0.962   2.407 -2.2480 -0.0751  2.2021
   68SOL    HW2  204   0.901   0.995   2.361  0.2738  1.3168 -0.3212
   69SOL     OW  205   0.813   2.746   2.315 -0.0038  0.3221 -0.1913
   69SOL    HW1  206   0.840   2.667   2.251 -1.3646 -3.3441  2.8601
   69SOL    HW2  207   0.713   2.737   2.343  0.0229 -1.1408  0.6465
   70SOL     OW  208   0.426   0.124   2.489 -0.1166  0.5200 -0.0277
   70SOL    HW1  209   0.338   0.082   2.513  1.7573  0.3427  0.6136
   70SOL    HW2  210   0.512   0.071   2.507 -1.2400 -0.9482  1.0603
   71SOL     OW  211   1.061   1.743   0.314 -0.8020  0.5813  0.2051
   71SOL    HW1  212   1.005   1.689   0.378 -0.2938 -0.4066 -3.2572
   71SOL    HW2  213   1.000   1.798   0.246 -2.4234  1.0763  0.7681
   72SOL     OW  214   1.826   0.223   2.168  0.1395  0.1839 -0.0016
   72SOL    HW1  215   1.891   0.309   2.164 -0.4649  2.3279 -0.6576
   72SOL    HW2  216   1.878   0.132   2.173  2.0818 -3.3178  0.8461
   73SOL     OW  217   2.768   2.183   2.447 -0.1583 -0.3280  0.6857
   73SOL    HW1  218   2.764   2.094   2.391  1.7712 -0.9251  1.0169
   73SOL    HW2  219   2.823   2.174   2.536  1.8308 -0.9097 -0.4078
   74SOL     OW  220   2.728   2.876   2.162 -0.3943 -0.2221  0.1123
   74SOL    HW1  221   2.647   2.868   2.224  1.6637  2.0650 -3.1497
   74SOL    HW2  222   2.790   2.958   2.173 -0.5086  1.2599 -0.2775
   75SOL     OW  223   0.992   0.852   1.113 -0.7106 -0.1908  0.4083
   75SOL    HW1  224   0.906   0.884   1.069 -0.5191 -1.2233 -2.7279
   75SOL    HW2  225   1.008   0.887   1.210  1.1617 -1.4668 -0.0057
   76SOL     OW  226   1.872   1.267   2.534  0.0967  0.0342  0.4218
   76SOL    HW1  227   1.769   1.269   2.526 -2.4585  1.0548  2.6816
   76SOL    HW2  228   1.906   1.326   2.610 -0.4461 -0.3444  1.9279
   77SOL     OW  229   2.882   0.933   1.052  0.2895 -0.2716 -0.1672
   77SOL    HW1  230   2.841   0.835   1.028 -2.6553  1.6778 -1.8747
   77SOL    HW2  231   2.964   0.938   1.117 -1.7569 -1.0663  1.7942
   78SOL     OW  232   2.002   1.337   1.301  0.0855  0.1274 -0.6099
   78SOL    HW1  233   2.101   1.359   1.300  0.7830  4.1942 -0.3308
   78SOL    HW2  234   1.943   1.419   1.283 -0.8114 -0.4517  0.8312
   79SOL     OW  235   0.681   1.427   0.837  0.0312  0.1905  0.5287
   79SOL    HW1  236   0.582   1.415   0.829 -2.1710  1.4455  0.5474
   79SOL    HW2  237   0.737   1.360   0.780  2.5786  0.0881 -0.1044
   80SOL     OW  238   0.553   0.503   1.543  0.3355 -1.7001  0.2944
   80SOL    HW1  239   0.612   0.545   1.471 -0.1387 -0.7250 -1.3277
   80SOL    HW2  240   0.592   0.409   1.565  0.7570 -2.3503  3.1613
   81SOL     OW  241   1.003   1.263   2.586  0.6522 -0.7093 -0.5024
   81SOL    HW1  242   1.006   1.173   2.535 -1.6195 -1.9818 -0.8461
   81SOL    HW2  243   0.922   1.321   2.554 -0.8876  0.3593 -2.3413
   82SOL     OW  244   0.946   2.869   1.525 -0.4955  0.2051 -0.2291
   82SOL    HW1  245   0.896   2.785   1.496  0.8526 -0.5344  1.2192
   82SOL    HW2  246   1.019   2.886   1.458 -0.4323  0.7184  0.8089
   83SOL     OW  247   2.558   2.366   0.892  0.2571  0.4999 -0.0386
   83SOL    HW1  248   2.490   2.316   0.836  0.8323 -0.2701  1.8843
   83SOL    HW2  249   2.568   2.470   0.859 -1.6939  3.5906 -2.5930
   84SOL     OW  250   0.732   0.022   2.326 -0.1759 -0.0122 -0.8016
   84SOL    HW1  251   0.696  -0.015   2.419  1.4818  0.6261 -0.6632
   84SOL    HW2  252   0.772  -0.052   2.265  0.8883 -0.0663 -2.8825
   85SOL     OW  253   0.279   1.669   1.423  0.4385  0.3985 -0.3635
   85SOL    HW1  254   0.228   1.751   1.474 -1.6514  1.7527  0.8019
   85SOL    HW2  255   0.340   1.620   1.490  2.3356  3.1552 -0.3170
   86SOL     OW  256   0.392   1.022   1.572 -0.3356  0.1125 -0.0549
   86SOL    HW1  257   0.398   0.972   1.484 -3.4028  2.3801 -0.2685
   86SOL    HW2  258   0.372   0.963   1.650  0.2323  1.1193 -0.4481
   87SOL     OW  259   1.611   0.647   0.331 -0.1796  0.1579  0.4157
   87SOL    HW1  260   1.692   0.705   0.315 -3.6822 -1.7363  1.7712
   87SOL    HW2  261   1.562   0.607   0.252 -1.0177  0.9352  2.2092
   88SOL     OW  262   1.603   1.395   0.268 -0.0061 -0.2565 -0.1919
   88SOL    HW1  263   1.631   1.293   0.269 -0.2363 -0.0694 -1.2162
   88SOL    HW2  264   1.510   1.406   0.226  1.6113  0.8657 -0.5114
   89SOL     OW  265   0.017   0.346   0.575  0.1766 -0.5663  0.1719
   89SOL    HW1  266   0.053   0.249   0.586 -0.2336 -0.2137 -0.3362
   89SOL    HW2  267  -0.083   0.346   0.571  3.9686 -0.7741 -1.1749
   90SOL     OW  268   0.779   1.583   0.157 -0.0407 -0.7687 -0.1687
   90SOL    HW1  269   0.833   1.493   0.168  0.5909 -0.9180  0.3535
   90SOL    HW2  270   0.710   1.577   0.080  1.0383  0.0020 -0.6077
   91SOL     OW  271   1.191   1.500   1.786  0.2945  0.4643 -0.0122
   91SOL    HW1  272   1.188   1.587   1.850  1.2063  0.8999  2.1967
   91SOL    HW2  273   1.207   1.408   1.833 -1.2220 -0.5836  0.3640
   92SOL     OW  274   0.021   0.986   1.211 -0.1005  0.4480 -0.0276
   92SOL    HW1  275   0.087   1.058   1.172 -0.1042 -0.8547 -0.7969
   92SOL    HW2  276   0.013   0.998   1.313 -0.2214 -0.5713 -0.8791
   93SOL     OW  277   3.049   2.691   0.040  0.5168 -0.9593  0.8198
   93SOL    HW1  278   2.997   2.661  -0.042  4.8204  1.0030 -1.8645
   93SOL    HW2  279   3.092   2.616   0.089 -0.2203 -0.3164 -0.1415
   94SOL     OW  280   1.506   1.337   1.702 -0.3312 -0.7847 -0.8092
   94SOL    HW1  281   1.588   1.280   1.732 -2.1888 -1.4362  0.2690
   94SOL    HW2  282   1.502   1.435   1.738 -0.5082  1.0453 -0.6241
   95SOL     OW  283   1.391   2.461   2.929 -0.0668 -0.5690 -0.5917
   95SOL    HW1  284   1.329   2.483   3.009 -1.0036 -0.4828  2.2625
   95SOL    HW2  285   1.376   2.366   2.885 -0.5711  0.6738  2.2353
   96SOL     OW  286   0.584   2.129   1.280 -0.3634  0.8389  0.1077
   96SOL    HW1  287   0.491   2.092   1.251 -1.2051  1.5811 -1.8055
   96SOL    HW2  288   0.630   2.063   1.351 -0.8560 -2.1759  0.9784
   97SOL     OW  289   0.276   1.645   2.430 -0.5104  0.2614  0.0062
   97SOL    HW1  290   0.215   1.704   2.373 -0.0253 -1.4003 -0.2132
   97SOL    HW2  291   0.244   1.642   2.530 -0.1622 -2.4854  3.0090
   98SOL     OW  292   2.216   1.659   1.233 -0.5132  0.1360 -0.3048
   98SOL    HW1  293   2.132   1.600   1.216 -0.5438  3.3106 -0.3018
   98SOL    HW2  294   2.293   1.634   1.173 -0.0292  2.0785  2.2540
   99SOL     OW  295   2.578   2.126   1.283  0.5253 -0.8346 -0.4902
   99SOL    HW1  296   2.647   2.171   1.352  1.5061  2.3829  1.7514
   99SOL    HW2  297   2.546   2.032   1.309  0.8448  0.8943 -0.5515
  100SOL     OW  298   2.303   0.399   2.112 -0.2535 -0.2272 -0.0562
  100SOL    HW1  299   2.239   0.371   2.189 -1.2623  1.1056  1.1405
  100SOL    HW2  300   2.398   0.430   2.145 -0.6806 -0.5764  0.5913
  101SOL     OW  301   0.400   1.542   0.529 -0.2860 -0.3490  0.0640
  101SOL    HW1  302   0.434   1.622   0.583 -0.6903 -4.1048  0.5467
  101SOL    HW2  303   0.473   1.503   0.475  0.8130  1.8203  0.1952
  102SOL     OW  304   2.283   1.080   0.851 -0.5534 -0.1811 -0.6417
  102SOL    HW1  305   2.277   0.980   0.872 -0.8620  2.5995 -0.7943
  102SOL    HW2  306   2.373   1.103   0.795  1.9489  0.1893 -1.2213
  103SOL     OW  307   2.259   0.054   0.350  0.3435 -0.3078 -0.0670
  103SOL    HW1  308   2.296   0.120   0.275  3.7005 -0.9633  0.2843
  103SOL    HW2  309   2.328   0.021   0.422 -2.4261 -1.5604  2.4885
  104SOL     OW  310   0.029   1.779   2.140 -0.3120 -0.2779  0.3119
  104SOL    HW1  311   0.084   1.785   2.048  1.2966 -3.0693 -0.5273
  104SOL    HW2  312  -0.066   1.818   2.125  1.5481  0.3369  2.6242
  105SOL     OW  313   1.392   2.099   0.786  0.3699  0.4969 -0.0715
  105SOL    HW1  314   1.395   2.144   0.690 -1.0752  1.4893 -0.2700
  105SOL    HW2  315   1.372   1.997   0.790  0.8786 -0.0928 -0.1762
  106SOL     OW  316   2.157   0.390   1.446  0.5740  0.0393 -0.3684
  106SOL    HW1  317   2.084   0.319   1.464 -1.1460  1.1373  3.8071
  106SOL    HW2  318   2.148   0.460   1.523 -1.6246  1.2935 -2.1901
  107SOL     OW  319   1.952   2.931   1.159  0.0161 -0.5043 -0.6330
  107SOL    HW1  320   1.858   2.969   1.183  0.3284 -1.1711  2.4335
  107SOL    HW2  321   1.951   2.838   1.121 -0.2671  0.1393  0.3884
  108SOL     OW  322   0.828   2.850   1.205 -0.0711 -0.4845 -0.2739
  108SOL    HW1  323   0.839   2.756   1.159  0.6519 -2.3751  3.2957
  108SOL    HW2  324   0.916   2.874   1.257 -1.5155  0.6015  0.6850
  109SOL     OW  325   2.150   0.190   0.709 -0.3033  0.6430 -0.1279
  109SOL    HW1  326   2.090   0.114   0.669 -0.9629  0.3150  1.5123
  109SOL    HW2  327   2.119   0.225   0.801  1.4477 -0.8711 -0.3412
  110SOL     OW  328   0.469   2.769   2.764  0.2696 -0.3409 -0.5306
  110SOL    HW1  329   0.456   2.790   2.666  2.0890 -1.6568 -2.4809
  110SOL    HW2  330   0.569   2.737   2.780  0.0590 -0.3251  0.4061
  111SOL     OW  331   1.279   0.490   2.296 -0.1070  0.1314 -0.6371
  111SOL    HW1  332   1.195   0.535   2.342 -0.1900  1.6846  0.9237
  111SOL    HW2  333   1.328   0.431   2.361  2.2304  0.3142 -2.4596
  112SOL     OW  334   1.771   0.369   1.485 -0.0674 -0.7644  0.3506
  112SOL    HW1  335   1.725   0.407   1.397 -1.2603  3.2939 -0.2421
  112SOL    HW2  336   1.709   0.365   1.564  1.1965  0.5410 -2.8180
  113SOL     OW  337   2.384   1.711   1.776  0.0836  0.5655  0.7683
  113SOL    HW1  338   2.381   1.607   1.761 -0.2332 -1.8511 -0.4483
  113SOL    HW2  339   2.392   1.733   1.877 -2.5592 -0.1746  2.5051
  114SOL     OW  340   0.318   0.463   1.210  0.5788 -0.4465 -0.5910
  114SOL    HW1  341   0.395   0.522   1.172 -0.1189 -1.1120 -0.2930
  114SOL    HW2  342   0.235   0.520   1.233  3.0514 -2.2101 -3.4621
  115SOL     OW  343   2.688   1.556   1.197 -0.3542  0.3534  0.2212
  115SOL    HW1  344   2.684   1.460   1.238  0.2186 -2.9595  1.0160
  115SOL    HW2  345   2.761   1.567   1.124 -1.6018 -0.4947 -1.2708
  116SOL     OW  346   1.909   0.918   0.755  0.0629  0.0749  0.1345
  116SOL    HW1  347   1.847   0.838   0.726  1.4173  2.3755  0.9440
  116SOL    HW2  348   1.883   1.014   0.725  1.8873 -3.0580  1.8679
  117SOL     OW  349   1.123   0.347   0.584  0.5417 -0.2085  0.0898
  117SOL    HW1  350   1.157   0.432   0.628  1.4930  3.5132  1.7686
  117SOL    HW2  351   1.089   0.353   0.484  1.5497  1.3212 -1.4471
  118SOL     OW  352   1.122   1.221   1.071  0.4911  0.2068 -0.4209
  118SOL    HW1  353   1.051   1.187   1.133  0.9364  1.5854 -0.8394
  118SOL    HW2  354   1.151   1.321   1.085  0.2663 -0.4958 -0.5734
  119SOL     OW  355   1.861   1.554   2.198 -0.2744  0.4639 -0.4162
  119SOL    HW1  356   1.803   1.616   2.142 -0.0389 -0.7403 -1.6929
  119SOL    HW2  357   1.957   1.546   2.154  0.9778 -1.8525 -1.1069
  120SOL     OW  358   2.898   2.784   0.245 -0.1864  0.1114 -0.1225
  120SOL    HW1  359   2.952   2.774   0.158  1.8120  0.4589  0.7224
  120SOL    HW2  360   2.799   2.750   0.229 -2.8048  0.9935  1.8624
  121SOL     OW  361   1.970   0.747   2.263  0.6783  0.1608  0.6860
  121SOL    HW1  362   1.988   0.815   2.184  1.6295 -0.7243  0.9240
  121SOL    HW2  363   1.953   0.654   2.222  1.3285 -0.3973 -1.2191
  122SOL     OW  364   2.604   2.484   1.325  1.0600 -0.2978 -0.2021
  122SOL    HW1  365   2.615   2.460   1.228 -2.5284 -1.3682 -0.3589
  122SOL    HW2  366   2.655   2.423   1.388 -2.4942  1.4266 -0.1652
  123SOL     OW  367   1.695   0.144   1.753 -0.0256 -0.3697  0.4151
  123SOL    HW1  368   1.708   0.063   1.692 -0.5862 -3.2048  1.8743
  123SOL    HW2  369   1.780   0.179   1.805  2.0726 -0.7596  3.5301
  124SOL     OW  370   3.070   0.441   1.093 -0.1501  0.0135  0.3616
  124SOL    HW1  371   2.986   0.472   1.144  1.0697  0.7389  2.3264
  124SOL    HW2  372   3.070   0.466   0.991 -0.2193 -2.5236 -0.9342
  125SOL     OW  373   0.866   1.933   0.827 -0.1741  0.5573 -0.2024
  125SOL    HW1  374   0.946   1.861   0.807  2.8022 -0.8182 -1.0642
  125SOL    HW2  375   0.886   2.005   0.894  0.5494  0.5052 -3.0531
  126SOL     OW  376   1.892   2.296   2.479 -0.5616 -0.0196  0.7436
  126SOL    HW1  377   1.940   2.245   2.400 -0.0256 -1.7213  3.5285
  126SOL    HW2  378   1.842   2.235   2.546 -0.3939 -0.2756 -1.6157
  127SOL     OW  379   0.876   0.992   0.222  0.0564 -0.0928 -0.3155
  127SOL    HW1  380   0.937   1.003   0.305 -0.8198  0.5290 -2.1249
  127SOL    HW2  381   0.862   0.895   0.194 -1.0812 -0.6195 -0.2669
  128SOL     OW  382   0.957   0.243   1.451 -0.1540 -0.5162  0.2214
  128SOL    HW1  383   0.917   0.332   1.417  2.5435  2.5235 -0.5784
  128SOL    HW2  384   0.886   0.173   1.426  2.3153 -2.6136 -1.5817
  129SOL     OW  385   1.854   0.709   1.866  0.2390  0.7133 -0.0402
  129SOL    HW1  386   1.834   0.723   1.770  1.2294  2.6601  3.2444
  129SOL    HW2  387   1.889   0.798   1.906 -0.7538  0.6581  0.6034
  130SOL     OW  388   1.348   2.299   0.969 -0.6792 -0.1310 -0.0340
  130SOL    HW1  389   1.351   2.210   0.910 -1.3932 -0.7750  0.3435
  130SOL    HW2  390   1.433   2.355   0.961 -0.3493 -1.1246 -2.0723
  131SOL     OW  391   3.093   1.415   1.365  0.0057 -0.2372  0.1955
  131SOL    HW1  392   3.034   1.330   1.390 -1.8524  1.4632  0.0829
  131SOL    HW2  393   3.194   1.399   1.342  2.0100 -4.8861 -0.1107
  132SOL     OW  394   2.046   2.358   0.522 -0.4710  0.2319  0.4474
  132SOL    HW1  395   1.949   2.387   0.526  1.3518 -0.2815 -1.1092
  132SOL    HW2  396   2.065   2.286   0.597 -0.9843 -1.4044  0.7778
  133SOL     OW  397   1.740   2.449   2.737 -0.6914  0.9326  0.0445
  133SOL    HW1  398   1.668   2.507   2.687 -2.0591  0.1723  0.3237
  133SOL    HW2  399   1.839   2.478   2.714  2.6940  1.1390 -1.7864
  134SOL     OW  400   2.695   2.396   1.585  0.1038 -0.2473 -0.0571
  134SOL    HW1  401   2.646   2.391   1.673  0.7283  0.7017 -0.2860
  134SOL    HW2  402   2.764   2.471   1.587 -3.3276  1.9430 -0.6279
  135SOL     OW  403   0.739   1.423   2.649  0.3254 -0.1193 -0.5478
  135SOL    HW1  404   0.733   1.338   2.702 -0.1226 -0.9067 -0.1155
  135SOL    HW2  405   0.748   1.417   2.547  2.0687  2.8188  0.4088
  136SOL     OW  406   1.187   2.038   0.383  0.4557  0.0072 -0.2788
  136SOL    HW1  407   1.129   2.124   0.399  1.9395  0.7684  1.3400
  136SOL    HW2  408   1.145   1.954   0.434 -2.1750 -0.3013  1.9593
  137SOL     OW  409   0.408   1.221   2.244  0.0579 -0.2628  0.3435
  137SOL    HW1  410   0.323   1.235   2.306  0.9489  0.5599  0.3492
  137SOL    HW2  411   0.436   1.124   2.237 -2.5708  2.6175 -0.2183
  138SOL     OW  412   2.434   1.529   0.266 -0.5682 -0.0294 -0.0169
  138SOL    HW1  413   2.385   1.513   0.176  1.0070  0.5123  0.3024
  138SOL    HW2  414   2.451   1.443   0.323 -1.3969 -0.7849  1.3200
  139SOL     OW  415   1.837   2.674   1.583 -0.0793  0.4455 -0.1174
  139SOL    HW1  416   1.742   2.705   1.570 -0.7822 -2.9874  0.5922
  139SOL    HW2  417   1.851   2.582   1.535 -1.3036  1.4670 -0.2498
  140SOL     OW  418   2.989   2.971   2.602  0.3659  0.2295 -0.4146
  140SOL    HW1  419   3.045   2.887   2.584 -1.8488  0.8375 -1.2253
  140SOL    HW2  420   3.033   3.063   2.570  0.6804 -0.8235 -1.5419
  141SOL     OW  421   1.302   1.611   1.545  0.2387 -0.2651  0.0982
  141SOL    HW1  422   1.229   1.675   1.512  0.5216  0.8740  2.1956
  141SOL    HW2  423   1.265   1.547   1.619 -0.9622  0.8732 -0.2500
  142SOL     OW  424   1.504   0.664   2.206  0.0954  0.3123 -0.2746
  142SOL    HW1  425   1.466   0.733   2.142 -0.1316  0.8071  1.4238
  142SOL    HW2  426   1.441   0.585   2.225 -0.6063 -0.0119  1.1018
  143SOL     OW  427   2.769   0.812   0.552 -0.2076 -0.0455 -0.6965
  143SOL    HW1  428   2.826   0.851   0.480 -0.9292 -2.5138  2.5930
  143SOL    HW2  429   2.790   0.856   0.642  0.4938  2.0034  0.5890
  144SOL     OW  430   2.928   1.181   1.469 -0.2208  0.2663  0.8608
  144SOL    HW1  431   2.886   1.179   1.566 -0.4558 -1.1020  1.1029
  144SOL    HW2  432   2.976   1.088   1.456 -1.2790  0.4107 -1.7277
  145SOL     OW  433   0.858   1.836   0.104  0.0864  0.0420  0.1025
  145SOL    HW1  434   0.914   1.804   0.027  0.0456  0.0420  2.2038
  145SOL    HW2  435   0.833   1.756   0.165 -1.4185 -1.0083  0.3190
  146SOL     OW  436   2.459   0.681   1.517  0.1355 -0.2142 -0.0603
  146SOL    HW1  437   2.460   0.600   1.451  3.1425 -1.2452  1.2908
  146SOL    HW2  438   2.404   0.760   1.480 -2.2119 -3.2641 -0.2336
  147SOL     OW  439   1.101   2.504   0.593  0.2357  0.0480 -0.3965
  147SOL    HW1  440   1.048   2.568   0.527  0.7188 -0.4421 -0.0632
  147SOL    HW2  441   1.193   2.475   0.552 -0.2769 -1.1350  0.4395
  148SOL     OW  442   1.617   1.475   3.075 -0.3575  0.1881  0.2694
  148SOL    HW1  443   1.628   1.373   3.065  1.9383 -0.8774  0.2997
  148SOL    HW2  444   1.553   1.511   3.147 -2.0744 -0.5349  0.3994
  149SOL     OW  445   0.669   1.508   1.974  0.1989 -0.4530  0.2020
  149SOL    HW1  446   0.579   1.462   2.002 -1.4352 -0.8833  1.7233
  149SOL    HW2  447   0.716   1.457   1.897  2.5179  1.0169  0.1464
  150SOL     OW  448   3.040   1.186   0.964  0.3268  0.6082  0.2088
  150SOL    HW1  449   3.101   1.230   1.034 -0.5966  1.6700 -0.4504
  150SOL    HW2  450   2.963   1.140   1.007 -1.4228 -0.5580  0.4332
  151SOL     OW  451   0.268   0.848   2.068 -0.0830  0.3798 -1.0979
  151SOL    HW1  452   0.310   0.918   2.009 -1.8789 -0.2122  0.5525
  151SOL    HW2  453   0.296   0.752   2.043  1.1547 -0.1923  1.6082
  152SOL     OW  454   1.459   1.837   1.098 -0.0927  0.1741 -0.5903
  152SOL    HW1  455   1.510   1.924   1.109  0.5253  0.6649  0.7683
  152SOL    HW2  456   1.365   1.851   1.064  1.5678 -0.6498 -0.1583
  153SOL     OW  457   0.148   1.532   0.213 -0.0838  0.1712  0.1376
  153SOL    HW1  458   0.084   1.449   0.196  2.4862 -0.5348  1.1573
  153SOL    HW2  459   0.122   1.579   0.305 -0.6375  1.1454  1.3674
  154SOL     OW  460   2.276   1.775   2.765  0.4329 -0.5773 -0.3374
  154SOL    HW1  461   2.291   1.677   2.788  2.4918  1.4496  1.4131
  154SOL    HW2  462   2.369   1.817   2.742  2.1196  1.7359 -0.6345
  155SOL     OW  463   2.428   1.278   0.367 -0.3692 -0.0140  0.5920
  155SOL    HW1  464   2.515   1.221   0.366 -1.7688  0.6299  0.9277
  155SOL    HW2  465   2.345   1.240   0.416 -2.4473  0.9266  1.0966
  156SOL     OW  466   2.404   0.834   0.695 -0.2830 -0.2122 -0.0925
  156SOL    HW1  467   2.300   0.832   0.720 -1.2959 -1.5799  1.0122
  156SOL    HW2  468   2.428   0.865   0.602 -0.1574  0.0022  1.5662
  157SOL     OW  469   1.209   2.999   3.020  0.4478  0.5224  0.5701
  157SOL    HW1  470   1.294   2.960   2.978 -0.5770  4.9357  3.6233
  157SOL    HW2  471   1.231   3.091   3.061 -0.1247  0.1033  0.8565
  158SOL     OW  472   1.075   1.865   1.839 -0.0503  0.4378  0.1578
  158SOL    HW1  473   1.137   1.942   1.801  0.4821 -0.1075 -0.2937
  158SOL    HW2  474   0.985   1.896   1.881 -0.4591  1.3469  0.6730
  159SOL     OW  475   0.849   0.427   1.241 -0.2007  0.4221  0.6277
  159SOL    HW1  476   0.807   0.522   1.254  0.4811  0.0662 -0.4971
  159SOL    HW2  477   0.790   0.366   1.178 -2.3710 -3.4730  0.2384
  160SOL     OW  478   1.429   2.451   1.448 -0.4534 -0.4251 -0.0939
  160SOL    HW1  479   1.376   2.404   1.525 -1.4972  1.9984  0.0740
  160SOL    HW2  480   1.508   2.388   1.421 -0.4350  0.1963  0.1683
  161SOL     OW  481   3.052   2.660   0.429  0.2402  0.3281 -0.1164
  161SOL    HW1  482   3.014   2.567   0.440 -1.7951 -1.3359  1.3124
  161SOL    HW2  483   3.000   2.722   0.368 -1.6825 -2.0150  0.4808
  162SOL     OW  484   2.544   1.864   0.456 -0.5648  0.1125 -0.5089
  162SOL    HW1  485   2.585   1.832   0.362 -2.3393  1.1698 -1.9873
  162SOL    HW2  486   2.478   1.797   0.509 -1.1396  0.9817  1.0791
  163SOL     OW  487   1.940   2.703   0.774 -0.0724 -0.1772  0.3377
  163SOL    HW1  488   1.946   2.704   0.673 -0.0220 -0.7001  1.1122
  163SOL    HW2  489   2.019   2.655   0.817 -1.7938  0.5971 -1.9108
  164SOL     OW  490   3.097   0.174   1.214  0.4490 -0.9659  0.2480
  164SOL    HW1  491   3.088   0.266   1.171 -2.2721 -1.6702 -1.8615
  164SOL    HW2  492   3.151   0.164   1.301  1.9693  0.0575  2.0428
  165SOL     OW  493   1.135   1.412   0.668 -0.2483  0.6412 -0.1179
  165SOL    HW1  494   1.137   1.466   0.758  0.7408 -1.6708 -0.1586
  165SOL    HW2  495   1.059   1.447   0.610  1.2203  0.2727 -0.7514
  166SOL     OW  496   1.512   1.006   1.809  0.5041  0.1656  0.1386
  166SOL    HW1  497   1.435   1.070   1.828  0.4286 -0.2972  0.6521
  166SOL    HW2  498   1.594   1.061   1.786 -0.4630  0.8177  0.0961
  167SOL     OW  499   0.678   1.973   1.489  0.0449  0.2479  0.9861
  167SOL    HW1  500   0.729   2.031   1.559  0.4174  3.8972  0.7724
  167SOL    HW2  501   0.615   1.905   1.539 -1.1764  0.0693  0.4329
  168SOL     OW  502   1.577   2.334   0.143  1.0672  0.3674  0.2160
  168SOL    HW1  503   1.647   2.353   0.071  1.7039 -2.7539 -0.8231
  168SOL    HW2  504   1.614   2.290   0.230 -3.0125 -3.3825  0.1909
  169SOL     OW  505   0.054   2.544   2.193 -0.3086 -0.1304  0.4568
  169SOL    HW1  506   0.094   2.507   2.103 -0.0573  2.4010  0.9808
  169SOL    HW2  507   0.124   2.532   2.266  1.2888 -1.5011 -1.9935
  170SOL     OW  508   1.174   0.160   2.038  0.1574 -0.4530 -0.3006
  170SOL    HW1  509   1.261   0.197   2.085  0.2579  1.1641  1.4153
  170SOL    HW2  510   1.189   0.151   1.939  0.1252  1.5625  0.5473
  171SOL     OW  511   0.211   0.855   2.367 -1.1261 -0.3611  1.0094
  171SOL    HW1  512   0.115   0.865   2.409  1.4194  0.3791  1.8998
  171SOL    HW2  513   0.205   0.855   2.265 -0.0414 -0.4401 -0.4196
  172SOL     OW  514   0.966   1.053   2.869  0.0519 -0.2842  0.3272
  172SOL    HW1  515   0.934   1.149   2.892  2.1001 -1.3645 -0.3062
  172SOL    HW2  516   0.929   1.015   2.778  1.6079  2.1472 -1.9025
  173SOL     OW  517   0.482   2.511   0.092  0.0105  1.2376  0.0309
  173SOL    HW1  518   0.508   2.491  -0.006 -2.6439 -3.5389 -0.7760
  173SOL    HW2  519   0.410   2.451   0.135 -0.6308  0.3678 -1.7275
  174SOL     OW  520   1.511   2.871   1.071 -0.3656  0.2489 -0.2826
  174SOL    HW1  521   1.576   2.931   1.012  0.9200  1.4598  0.2126
  174SOL    HW2  522   1.481   2.788   1.019  1.0158  1.5467 -1.8234
  175SOL     OW  523   0.398   3.068   1.725 -0.2513 -0.0862 -0.1474
  175SOL    HW1  524   0.486   3.057   1.782  2.8092  0.4473  0.8630
  175SOL    HW2  525   0.397   3.163   1.677  2.3140  1.5309 -1.6040
  176SOL     OW  526   2.643   0.400   0.027  0.2633  0.5470 -0.3645
  176SOL    HW1  527   2.647   0.491   0.080 -0.4447  0.8710  0.2883
  176SOL    HW2  528   2.718   0.341   0.061 -0.0856 -0.4548  0.6754
  177SOL     OW  529   0.389   0.308   0.939  0.2134 -0.2083 -0.8194
  177SOL    HW1  530   0.348   0.211   0.952 -3.0468 -0.8284  1.2962
  177SOL    HW2  531   0.325   0.380   0.979 -0.4077  0.8857  1.7468
  178SOL     OW  532   0.048   2.741   2.572  0.5835  0.6525  0.6131
  178SOL    HW1  533   0.021   2.639   2.574  1.4706 -1.3791 -0.5458
  178SOL    HW2  534   0.104   2.759   2.658  0.4373  0.6987  1.5511
  179SOL     OW  535   2.967   1.544   1.131 -0.2894  0.1351  0.1126
  179SOL    HW1  536   2.996   1.635   1.105 -2.0683  1.7594  1.1554
  179SOL    HW2  537   3.011   1.517   1.223  2.2203  0.5560  1.8856
  180SOL     OW  538   0.202   1.373   1.786  0.1296  0.1204 -0.3470
  180SOL    HW1  539   0.290   1.320   1.778 -1.8773  1.6718 -1.1389
  180SOL    HW2  540   0.202   1.431   1.867  0.1976 -2.0288  0.8482
  181SOL     OW  541   2.952   1.896   2.542 -0.3779 -0.4424 -0.1435
  181SOL    HW1  542   3.036   1.954   2.526  0.5883  0.1088  2.8671
  181SOL    HW2  543   2.881   1.905   2.461 -3.6796 -1.3898 -0.7552
  182SOL     OW  544   2.279   1.343   1.253 -0.6202  0.3571 -0.3057
  182SOL    HW1  545   2.246   1.265   1.196 -3.1158 -0.1935  0.4051
  182SOL    HW2  546   2.334   1.418   1.206  0.9770 -0.8430  1.5789
  183SOL     OW  547   1.407   2.277   2.453  0.4197  0.0879 -0.6793
  183SOL    HW1  548   1.326   2.222   2.494 -0.1458  2.5142  2.8281
  183SOL    HW2  549   1.484   2.210   2.433 -0.6773 -2.0545 -1.1811
  184SOL     OW  550   2.146   0.816   0.753  1.0803  0.1411  0.1660
  184SOL    HW1  551   2.062   0.873   0.788  1.9107  1.1429 -1.9373
  184SOL    HW2  552   2.116   0.721   0.710  1.8705 -1.9656 -1.5501
  185SOL     OW  553   1.587   2.785   2.016 -0.0547  0.0483 -0.6027
  185SOL    HW1  554   1.493   2.823   2.037  0.0432  0.0056  1.1958
  185SOL    HW2  555   1.631   2.743   2.101  1.8055 -0.6916  0.0353
  186SOL     OW  556   0.088   2.199   1.694  0.6177 -0.5718  0.7278
  186SOL    HW1  557   0.098   2.241   1.790  0.2095 -1.7997 -0.0595
  186SOL    HW2  558   0.180   2.153   1.664 -1.1558 -0.0714 -0.8706
  187SOL     OW  559   1.359   0.652   1.649  0.5538 -0.1147  0.1117
  187SOL    HW1  560   1.437   0.697   1.604 -1.2225 -0.4767  0.8583
  187SOL    HW2  561   1.388   0.567   1.705  1.9039  2.3753 -2.2705
  188SOL     OW  562   2.744   2.704   1.465 -0.0851 -0.1123  0.1934
  188SOL    HW1  563   2.724   2.803   1.462 -3.1786 -0.7879  4.1944
  188SOL    HW2  564   2.666   2.644   1.433  0.3578  0.0613  2.9174
  189SOL     OW  565   0.919   1.220   1.370  0.1744  0.3909 -0.1388
  189SOL    HW1  566   0.974   1.264   1.447  1.5398 -1.5287 -0.3859
  189SOL    HW2  567   0.875   1.298   1.316  0.4011  1.6986  2.6554
  190SOL     OW  568   1.457   1.880   1.523 -0.1398 -0.1452 -0.0040
  190SOL    HW1  569   1.451   1.781   1.548  1.2341  0.3364 -0.5716
  190SOL    HW2  570   1.446   1.934   1.608 -0.7779 -3.8779  2.0013
  191SOL     OW  571   0.875   0.785   1.526 -0.0202 -0.9122  0.0539
  191SOL    HW1  572   0.933   0.712   1.570 -1.2638 -2.4940 -0.0845
  191SOL    HW2  573   0.932   0.839   1.463  0.1590  0.7853 -1.2183
  192SOL     OW  574   1.827   2.453   1.100 -0.1191 -0.3805 -0.0291
  192SOL    HW1  575   1.725   2.437   1.088 -2.3016 -2.8442 -0.7252
  192SOL    HW2  576   1.873   2.377   1.057 -0.7464 -0.0324  1.6453
  193SOL     OW  577   0.567   0.582   0.474  0.0043  0.1945  0.0190
  193SOL    HW1  578   0.517   0.494   0.482  0.1736 -3.5637  0.5428
  193SOL    HW2  579   0.618   0.596   0.381  1.9636  1.9988  0.3999
  194SOL     OW  580   0.352   0.865   1.345 -0.0040  0.0191 -0.3781
  194SOL    HW1  581   0.274   0.846   1.282  0.3891  1.8212  0.5700
  194SOL    HW2  582   0.439   0.878   1.285  2.4509 -1.0314  0.1451
  195SOL     OW  583   0.978   2.918   0.547 -0.1817  0.6123  0.4266
  195SOL    HW1  584   0.972   2.824   0.504  1.9301  0.9611 -1.2990
  195SOL    HW2  585   1.070   2.969   0.537  0.0956  0.6201  0.9609
  196SOL     OW  586   0.280   1.403   1.331  0.0509 -0.2461 -0.4829
  196SOL    HW1  587   0.310   1.502   1.327 -1.1533  1.4974  0.5660
  196SOL    HW2  588   0.288   1.370   1.428  0.2420  1.1603  1.0440
  197SOL     OW  589   0.834   2.031   0.316 -0.4328  0.1178 -0.1418
  197SOL    HW1  590   0.817   1.969   0.399  0.1588 -1.0425  0.3333
  197SOL    HW2  591   0.846   1.983   0.226 -1.3562 -0.7877  1.0858
  198SOL     OW  592   0.307   1.252   0.336  0.0913 -0.0433 -0.0586
  198SOL    HW1  593   0.216   1.235   0.289  1.4725  0.8002 -0.0030
  198SOL    HW2  594   0.319   1.330   0.402 -2.3611 -1.0766  0.3967
  199SOL     OW  595   2.175   0.478   2.579 -0.9136  0.2007 -0.1542
  199SOL    HW1  596   2.114   0.437   2.649  2.8466  0.5839 -0.0963
  199SOL    HW2  597   2.274   0.442   2.596 -0.6908  0.0925  0.2054
  200SOL     OW  598   3.056   2.940   0.816 -0.1703 -0.8818 -0.4124
  200SOL    HW1  599   3.095   3.034   0.846 -2.5189  1.0444  1.0969
  200SOL    HW2  600   2.999   2.948   0.726 -3.5609 -2.9072  1.3106
  201SOL     OW  601   0.935   0.687   0.518  0.4452 -0.3382 -0.4875
  201SOL    HW1  602   0.896   0.775   0.564 -2.6505 -1.3996  1.0165
  201SOL    HW2  603   0.898   0.597   0.558 -0.7813 -2.6254  0.3479
  202SOL     OW  604   0.446   1.241   1.832 -0.0123 -0.3786  0.3089
  202SOL    HW1  605   0.513   1.158   1.812  3.6632  0.3119  2.8341
  202SOL    HW2  606   0.472   1.281   1.924 -0.3994 -0.4963  0.9496
  203SOL     OW  607   0.659   0.260   1.579 -0.3106  0.6745  0.4821
  203SOL    HW1  608   0.698   0.197   1.503  2.1783 -0.9637  0.0307
  203SOL    HW2  609   0.696   0.235   1.675  1.3878  1.9849  1.0036
  204SOL     OW  610   2.074   1.794   2.950  0.2086  0.2283 -0.3244
  204SOL    HW1  611   2.087   1.690   2.978  1.6835 -0.4565  0.7920
  204SOL    HW2  612   2.131   1.812   2.865 -0.6991 -4.1534 -0.6586
  205SOL     OW  613   1.831   1.895   3.081 -0.1720  0.7071  0.1168
  205SOL    HW1  614   1.907   1.835   3.035  0.8072 -1.5980  0.1559
  205SOL    HW2  615   1.804   1.983   3.030 -0.7240  0.9171 -3.8763
  206SOL     OW  616   2.408   2.745   0.279 -0.9322 -0.1653 -0.4718
  206SOL    HW1  617   2.375   2.650   0.297  0.9403 -0.8818 -2.6458
  206SOL    HW2  618   2.505   2.734   0.239  1.6253 -1.8437  1.3606
  207SOL     OW  619   0.715   1.774   2.843 -0.3743 -0.1595  0.6603
  207SOL    HW1  620   0.796   1.719   2.810 -2.1215  0.2308 -0.4993
  207SOL    HW2  621   0.676   1.733   2.929  1.1022 -0.0496 -1.8523
  208SOL     OW  622   1.022   1.594   1.225 -0.2504 -0.9546 -0.1682
  208SOL    HW1  623   0.945   1.557   1.167 -0.3660 -0.9729  2.2875
  208SOL    HW2  624   1.002   1.592   1.324 -0.2307  3.3480 -0.2935
  209SOL     OW  625   0.263   0.961   3.096  0.3480 -0.2444  0.1596
  209SOL    HW1  626   0.252   0.893   3.019 -0.0663  2.1346  2.3061
  209SOL    HW2  627   0.229   0.923   3.186 -1.6307 -2.6711 -1.3698
  210SOL     OW  628   1.711   0.503   1.250 -0.5343  0.5206  0.1715
  210SOL    HW1  629   1.670   0.571   1.188  2.4284 -0.4436 -0.6700
  210SOL    HW2  630   1.818   0.502   1.240  1.2564 -0.0468 -0.6575
  211SOL     OW  631   2.093   1.015   1.588  1.0395 -0.1469  0.0839
  211SOL    HW1  632   2.122   0.974   1.679  0.6871  1.2904 -0.1271
  211SOL    HW2  633   2.172   1.043   1.537 -0.7241  0.5894 -1.2747
  212SOL     OW  634   0.018   0.987   1.494  0.4022 -0.0602  0.3461
  212SOL    HW1  635   0.076   1.075   1.502 -0.4033 -0.6586 -0.3397
  212SOL    HW2  636   0.054   0.909   1.555 -1.1323 -0.2640  0.3250
  213SOL     OW  637   2.809   0.186   0.286  0.8686 -0.9210  0.7693
  213SOL    HW1  638   2.876   0.106   0.271 -1.3909 -0.3814 -0.2953
  213SOL    HW2  639   2.723   0.160   0.235  0.1053  2.4300  0.0121
  214SOL     OW  640   2.172   0.343   2.340  0.1587 -0.1225  0.4292
  214SOL    HW1  641   2.163   0.389   2.428  0.5525 -0.2426 -0.4224
  214SOL    HW2  642   2.189   0.241   2.358  1.0179  1.5528  1.3878
  215SOL     OW  643   1.649   2.233   2.061 -0.5295 -0.5786 -0.4767
  215SOL    HW1  644   1.751   2.255   2.065  1.0993  1.0997 -0.0984
  215SOL    HW2  645   1.591   2.317   2.066  0.8742  1.0940 -1.5938
  216SOL     OW  646   2.163   0.560   0.679  0.5277 -0.1449  0.9692
  216SOL    HW1  647   2.105   0.483   0.641  0.0367 -0.9381 -0.6792
  216SOL    HW2  648   2.262   0.572   0.632  1.0773 -0.7262  2.6115
  217SOL     OW  649   0.915   2.793   2.544  0.1384  0.1200  0.2448
  217SOL    HW1  650   0.945   2.699   2.570  0.2060 -1.0380  0.4774
  217SOL    HW2  651   0.872   2.783   2.446  0.1907 -1.7290  2.0250
  218SOL     OW  652   1.878   1.456   0.032  0.4957 -0.1105  0.4776
  218SOL    HW1  653   1.775   1.447   0.019 -0.5801 -1.4710  3.8070
  218SOL    HW2  654   1.914   1.387   0.099  0.1927  0.9079 -0.9698
  219SOL     OW  655   2.452   1.261   2.524 -0.4731  0.1940  0.6465
  219SOL    HW1  656   2.484   1.212   2.441  2.2414  1.6752  0.4844
  219SOL    HW2  657   2.484   1.213   2.611  0.2237 -1.3410  1.2213
  220SOL     OW  658   1.423   1.010   1.377 -0.0105  0.1696 -0.3945
  220SOL    HW1  659   1.528   1.009   1.387  0.1182  0.1466  2.8987
  220SOL    HW2  660   1.394   1.015   1.276 -0.0485 -0.2733 -1.0108
  221SOL     OW  661   1.368   0.965   2.210  0.0064 -0.3419 -0.6505
  221SOL    HW1  662   1.319   0.999   2.122  1.4797 -1.4000  1.7619
  221SOL    HW2  663   1.447   1.025   2.239  2.1754 -0.4622 -2.3946
  222SOL     OW  664   1.127   0.081   1.237  0.3861  0.1819 -0.1048
  222SOL    HW1  665   1.169   0.124   1.322  0.8712 -0.6292  0.1639
  222SOL    HW2  666   1.119   0.145   1.158 -0.4171  1.2141 -0.5897
  223SOL     OW  667   2.707   0.938   2.096  0.0919  0.5433  0.2982
  223SOL    HW1  668   2.632   1.010   2.091  0.1616  0.4057  0.4689
  223SOL    HW2  669   2.793   0.968   2.144  2.8669  2.7481 -1.5481
  224SOL     OW  670   1.597   1.030   2.752  0.2710 -0.3180  0.1184
  224SOL    HW1  671   1.617   0.939   2.703  1.5285 -1.3536  1.5219
  224SOL    HW2  672   1.613   1.107   2.694 -0.5419 -1.2863  2.1128
  225SOL     OW  673   2.959   2.688   2.882 -0.2322  0.3711  0.2466
  225SOL    HW1  674   2.885   2.694   2.805 -1.2248  0.5118 -1.6955
  225SOL    HW2  675   3.031   2.764   2.873  1.9007  2.7507  0.4390
  226SOL     OW  676   2.366   1.506   2.804  0.2587 -0.3932 -0.3477
  226SOL    HW1  677   2.432   1.513   2.723  0.8355  1.7364 -0.9275
  226SOL    HW2  678   2.419   1.458   2.879  2.9255 -1.6413 -0.3532
  227SOL     OW  679   0.845   0.253   3.083  0.0898 -0.2940  0.4671
  227SOL    HW1  680   0.897   0.343   3.075 -0.1465 -2.1422 -0.0196
  227SOL    HW2  681   0.779   0.233   3.002 -0.7557  0.3708  1.5309
  228SOL     OW  682   2.419   0.651   2.829 -0.1142  0.3108  0.6821
  228SOL    HW1  683   2.423   0.718   2.748  1.3633  0.3522 -0.8730
  228SOL    HW2  684   2.501   0.594   2.833 -1.8959  1.4503  0.1449
  229SOL     OW  685   0.472   0.495   1.811 -0.6599  0.3376  0.4240
  229SOL    HW1  686   0.484   0.396   1.831 -2.8894 -0.4789 -0.7574
  229SOL    HW2  687   0.525   0.528   1.727 -3.0597 -0.6578  0.8825
  230SOL     OW  688   1.878   1.215   1.992  0.2730 -0.6647 -0.6353
  230SOL    HW1  689   1.947   1.282   1.952 -0.1335 -1.3194 -0.4582
  230SOL    HW2  690   1.807   1.256   2.058 -0.6258 -2.8857  1.8751
  231SOL     OW  691   0.631   1.064   3.089 -0.8975  0.0393  0.2496
  231SOL    HW1  692   0.718   1.126   3.065  1.9682  0.9547 -1.3491
  231SOL    HW2  693   0.542   1.112   3.099  4.2100  0.7125 -2.5579
  232SOL     OW  694   2.408   3.022   2.840 -0.3363  0.4401  0.0753
  232SOL    HW1  695   2.473   2.936   2.842 -0.2581 -1.1524 -2.4593
  232SOL    HW2  696   2.430   3.080   2.755  0.3454 -0.4987  0.1592
  233SOL     OW  697   1.724   1.205   1.146  0.0896 -0.5755 -0.6507
  233SOL    HW1  698   1.809   1.258   1.129  0.5901  0.7800  1.9116
  233SOL    HW2  699   1.729   1.104   1.123  1.0764 -0.8161 -3.8453
  234SOL     OW  700   1.649   2.578   1.818 -0.0273  0.6765  0.2607
  234SOL    HW1  701   1.628   2.629   1.905  2.7466 -2.4327 -2.2280
  234SOL    HW2  702   1.582   2.506   1.790  0.9280  0.6821  0.1565
  235SOL     OW  703   3.084   2.927   2.895  0.1599 -0.2355 -0.2170
  235SOL    HW1  704   3.060   2.994   2.816 -0.6715 -1.4450 -0.9084
  235SOL    HW2  705   3.041   2.959   2.984 -0.5616 -0.0989 -2.9404
  236SOL     OW  706   2.937   0.674   0.067  0.6913  0.6512  0.0167
  236SOL    HW1  707   3.004   0.730   0.131  2.9855  1.6889  2.1338
  236SOL    HW2  708   2.978   0.586   0.025 -0.7145 -1.4044  1.9193
  237SOL     OW  709   1.422   1.625   0.907  0.3349  0.0215 -0.1705
  237SOL    HW1  710   1.522   1.602   0.893  0.9416 -0.5955  0.6287
  237SOL    HW2  711   1.412   1.689   0.991 -0.0488 -0.8799  0.2547
  238SOL     OW  712   1.906   1.207   0.785  0.7594  0.3882 -0.0136
  238SOL    HW1  713   1.924   1.244   0.883 -0.5810  1.9398 -0.1456
  238SOL    HW2  714   1.803   1.210   0.755 -4.1969 -0.3982 -3.4648
  239SOL     OW  715   2.061   0.244   2.723 -0.2294 -0.6177 -0.1574
  239SOL    HW1  716   2.097   0.199   2.811 -0.1792 -2.5373 -2.3761
  239SOL    HW2  717   1.979   0.299   2.745 -0.2119  2.0231  0.2811
  240SOL     OW  718   0.901   0.697   0.234 -0.2421  0.3248  0.0923
  240SOL    HW1  719   0.956   0.618   0.185  2.0815 -1.5409 -1.0348
  240SOL    HW2  720   0.921   0.699   0.340 -1.7610  0.0872  3.2679
  241SOL     OW  721   0.569   0.139   0.370  0.1773  0.5563 -0.6150
  241SOL    HW1  722   0.625   0.192   0.301  0.4445  1.1287  0.7856
  241SOL    HW2  723   0.533   0.054   0.333  0.1414  0.3654 -3.5502
  242SOL     OW  724   0.634   2.550   1.173  0.2474 -0.0817  0.2772
  242SOL    HW1  725   0.618   2.556   1.276 -1.0830  2.5564  0.2970
  242SOL    HW2  726   0.638   2.649   1.131 -0.8164  0.4563  1.5272
  243SOL     OW  727   1.035   0.595   2.391 -0.2073 -0.1986 -0.2488
  243SOL    HW1  728   0.956   0.630   2.332  1.8508 -2.5209 -3.6053
  243SOL    HW2  729   1.012   0.568   2.492  0.3600  1.2175  1.7110
  244SOL     OW  730   2.762   1.922   2.350 -0.3798  0.3294  0.0184
  244SOL    HW1  731   2.801   1.889   2.259 -0.4280  2.0009 -1.2316
  244SOL    HW2  732   2.676   1.874   2.373 -0.7158  0.8347 -2.2887
  245SOL     OW  733   2.181   0.965   2.143 -0.2709  0.8618 -0.0026
  245SOL    HW1  734   2.276   0.942   2.180 -1.0128 -0.2311  0.0980
  245SOL    HW2  735   2.127   1.029   2.206  3.1867  2.5260  0.9474
  246SOL     OW  736   0.253   2.824   1.804  0.4719  0.0100  0.5225
  246SOL    HW1  737   0.155   2.827   1.769  0.3519  1.1888 -0.3686
  246SOL    HW2  738   0.312   2.892   1.761 -2.3348 -1.5826  1.1307
  247SOL     OW  739   2.228   0.616   3.035 -0.0156 -0.3016 -0.0941
  247SOL    HW1  740   2.296   0.619   2.957 -2.0752  0.7945  2.3899
  247SOL    HW2  741   2.165   0.699   3.038 -0.0221 -0.3246 -3.5935
  248SOL     OW  742   2.191   1.855   1.630  0.2595  0.1489 -0.0465
  248SOL    HW1  743   2.267   1.809   1.682 -4.5463  1.1783  1.1098
  248SOL    HW2  744   2.100   1.802   1.643 -0.7350 -2.7974  1.6730
  249SOL     OW  745   1.909   1.893   1.830 -0.1104  0.1979 -0.5475
  249SOL    HW1  746   1.909   1.844   1.737 -0.8620 -1.2353 -0.0235
  249SOL    HW2  747   2.003   1.889   1.878  1.6305  0.2988 -1.3942
  250SOL     OW  748   1.037   0.703   1.869 -0.8464  0.0106  0.5078
  250SOL    HW1  749   1.080   0.637   1.931 -4.1775  0.6663  1.1542
  250SOL    HW2  750   1.041   0.664   1.770 -0.8516  0.7094 -0.7931
  251SOL     OW  751   3.051   1.615   2.529  1.0522 -1.0852 -0.4711
  251SOL    HW1  752   3.002   1.703   2.568 -0.2084  1.1319 -1.9063
  251SOL    HW2  753   2.991   1.532   2.538 -0.1404 -0.5125 -0.9486
  252SOL     OW  754   1.555   0.816   1.572 -0.6943  0.7490 -1.3181
  252SOL    HW1  755   1.619   0.858   1.501  0.6844  2.0177  0.0620
  252SOL    HW2  756   1.559   0.865   1.662  1.0780  1.0286 -1.2955
  253SOL     OW  757   0.952   1.522   0.478 -0.7312 -0.2129 -0.0228
  253SOL    HW1  758   0.956   1.461   0.395 -0.0369  0.0430  3.6047
  253SOL    HW2  759   0.866   1.511   0.539 -1.2290 -1.0335 -1.6310
  254SOL     OW  760   2.029   2.207   1.617  0.1889 -0.0142 -0.5494
  254SOL    HW1  761   1.982   2.121   1.579 -4.1337 -1.0312 -1.7158
  254SOL    HW2  762   1.966   2.275   1.664  0.8978 -0.3216 -0.0254
  255SOL     OW  763   0.139   1.154   2.930 -0.3660 -0.1108  0.0558
  255SOL    HW1  764   0.213   1.214   2.908 -0.8579 -2.8690  1.1967
  255SOL    HW2  765   0.174   1.075   2.991  1.6980 -0.3544  0.2972
  256SOL     OW  766   2.832   1.381   1.828 -0.1922  0.1022 -0.6287
  256SOL    HW1  767   2.768   1.461   1.809  1.9569 -0.6595  0.3506
  256SOL    HW2  768   2.801   1.300   1.776 -2.1474  1.2345 -0.6711
  257SOL     OW  769   0.813   0.173   1.822  0.3996  1.1326  0.0397
  257SOL    HW1  770   0.862   0.240   1.769 -1.0732  0.2580  2.7531
  257SOL    HW2  771   0.848   0.074   1.807 -0.1748 -1.4693 -3.7389
  258SOL     OW  772   2.979   1.154   0.529 -0.5065 -0.7129  0.4551
  258SOL    HW1  773   2.900   1.179   0.587  1.1121  0.5987 -4.0952
  258SOL    HW2  774   3.067   1.161   0.582 -0.7377 -0.3429 -1.1411
  259SOL     OW  775   0.456   2.926   3.007  0.4722  0.5892 -0.1342
  259SOL    HW1  776   0.385   2.884   3.077  1.6273 -0.5837 -0.1123
  259SOL    HW2  777   0.463   2.874   2.917  1.7817  0.8874 -2.0107
  260SOL     OW  778   2.711   0.762   2.724 -0.2823 -0.1138 -0.2875
  260SOL    HW1  779   2.619   0.797   2.693  1.0104 -1.6317  0.2046
  260SOL    HW2  780   2.690   0.711   2.810  0.9476  1.4874 -1.1831
  261SOL     OW  781   2.712   1.304   1.327 -0.1084  0.0470 -0.3581
  261SOL    HW1  782   2.714   1.242   1.249 -0.0261  1.2497 -1.8774
  261SOL    HW2  783   2.786   1.277   1.395 -1.6550  2.4512  1.7403
  262SOL     OW  784   1.367   2.966   2.041  0.2471  0.6371  0.4015
  262SOL    HW1  785   1.408   3.058   2.005  1.0771 -0.4284  1.3766
  262SOL    HW2  786   1.266   2.976   2.053 -0.0454 -0.8496 -1.9698
  263SOL     OW  787   0.804   0.674   2.270 -0.0259 -0.2402 -0.1242
  263SOL    HW1  788   0.733   0.603   2.240  3.7568 -1.3013 -0.4900
  263SOL    HW2  789   0.819   0.756   2.202  1.6913  0.8049 -1.8807
  264SOL     OW  790   2.282   0.819   0.393 -0.2143 -0.0269 -0.7278
  264SOL    HW1  791   2.269   0.752   0.311  0.6882  0.4379 -0.4133
  264SOL    HW2  792   2.381   0.843   0.418 -2.3576  1.4773  0.6101
  265SOL     OW  793   0.938   2.376   2.620 -0.5655 -0.5509  0.0842
  265SOL    HW1  794   0.971   2.450   2.680 -1.6912  2.1027 -1.1275
  265SOL    HW2  795   0.895   2.292   2.673 -0.0476 -0.3328  1.6407
  266SOL     OW  796   1.332   1.758   3.062  0.0682 -0.3913 -0.1179
  266SOL    HW1  797   1.338   1.797   3.160  2.9244  2.1199  0.5092
  266SOL    HW2  798   1.427   1.762   3.017  1.5632 -0.0691 -0.4822
  267SOL     OW  799   1.082   0.038   2.262 -0.3547  0.2353  0.2456
  267SOL    HW1  800   0.990  -0.006   2.231  0.6499  2.9793  0.7272
  267SOL    HW2  801   1.132   0.083   2.187 -2.8673 -0.3043  1.4747
  268SOL     OW  802   0.842   1.239   1.051 -0.6928 -0.2039 -0.3188
  268SOL    HW1  803   0.821   1.307   1.127 -1.5224 -2.1443 -3.0890
  268SOL    HW2  804   0.915   1.266   0.989  0.4215  1.4043  1.9491
  269SOL     OW  805   2.373   2.477   1.641 -0.0842  0.1172 -0.3506
  269SOL    HW1  806   2.443   2.412   1.681  1.4449 -1.8645 -2.0790
  269SOL    HW2  807   2.313   2.529   1.705 -2.7647 -0.1430 -1.4053
  270SOL     OW  808   0.133   2.980   2.008  0.4791 -0.0787  0.2576
  270SOL    HW1  809   0.192   2.939   1.933 -0.3645  0.6720 -1.1626
  270SOL    HW2  810   0.105   2.912   2.079  2.0581 -0.5982 -2.5037
  271SOL     OW  811   0.503   1.391   1.128 -0.3749 -0.5339  0.4272
  271SOL    HW1  812   0.477   1.340   1.038 -3.3250  2.2882 -1.8242
  271SOL    HW2  813   0.428   1.387   1.195  0.9775  1.1770  2.3542
  272SOL     OW  814   1.902   3.075   1.951 -0.3853  0.3447 -0.1540
  272SOL    HW1  815   1.814   3.023   1.929 -0.5283  0.7105 -1.5432
  272SOL    HW2  816   1.963   3.058   1.870  0.7467  1.6085 -1.2361
  273SOL     OW  817   1.534   1.473   2.805  0.2695  0.3184  0.4039
  273SOL    HW1  818   1.430   1.485   2.801 -1.2144 -0.1180  0.8585
  273SOL    HW2  819   1.563   1.421   2.891  0.3518  1.5422  1.3326
  274SOL     OW  820   1.138   0.520   2.055 -0.2716  0.1207  0.6001
  274SOL    HW1  821   1.040   0.483   2.069  0.2728 -2.3542 -0.0588
  274SOL    HW2  822   1.195   0.486   2.134 -3.4173 -2.2704 -0.8281
  275SOL     OW  823   0.639   2.112   1.946  0.3743  0.0426  0.0483
  275SOL    HW1  824   0.624   2.194   2.009 -0.4021 -1.3587  1.2933
  275SOL    HW2  825   0.554   2.057   1.943  0.8720  2.3401 -0.7334
  276SOL     OW  826   2.219   0.989   2.789  0.1343 -0.4819 -0.0204
  276SOL    HW1  827   2.120   1.016   2.768  1.5952  1.2060  1.1925
  276SOL    HW2  828   2.242   0.889   2.785  0.5562 -0.4167  0.6779
  277SOL     OW  829   3.074   0.789   0.276 -0.0640 -0.0856 -0.7295
  277SOL    HW1  830   3.156   0.848   0.256  0.6486 -1.5069 -0.3845
  277SOL    HW2  831   3.099   0.705   0.330 -1.3788 -0.8703 -2.0773
  278SOL     OW  832   0.277   0.261   3.015  0.3472  0.3438  0.8758
  278SOL    HW1  833   0.368   0.228   2.980  1.3330 -0.4455  1.5918
  278SOL    HW2  834   0.284   0.356   3.061 -1.8516  1.3563 -1.0631
  279SOL     OW  835   0.266   0.032   0.930  0.1079 -0.5392  0.0067
  279SOL    HW1  836   0.298   0.004   1.027  0.2074 -0.9082  2.1183
  279SOL    HW2  837   0.309  -0.029   0.862  3.1192  0.2140  3.7527
  280SOL     OW  838   1.644   2.944   2.418  0.6357 -0.5370  0.2487
  280SOL    HW1  839   1.685   2.999   2.495  1.4533 -1.8805  0.7347
  280SOL    HW2  840   1.574   3.009   2.366  1.4366 -1.5323  1.1980
  281SOL     OW  841   0.528   0.944   2.253 -0.1270  0.5514 -0.2050
  281SOL    HW1  842   0.546   0.850   2.215  0.9411 -1.6970  1.4055
  281SOL    HW2  843   0.506   0.939   2.356 -0.2007 -0.3996  0.3326
  282SOL     OW  844   1.777   2.451   0.547 -0.0513  0.1265 -0.4534
  282SOL    HW1  845   1.749   2.377   0.477  2.2399  0.5539 -1.5707
  282SOL    HW2  846   1.731   2.539   0.533  1.0845 -2.0290 -1.5840
  283SOL     OW  847   1.136   0.886   0.760 -0.0694  0.2297 -0.3317
  283SOL    HW1  848   1.154   0.814   0.833 -1.3939 -2.2356 -4.1972
  283SOL    HW2  849   1.106   0.981   0.792 -1.6303 -2.0643  0.6338
  284SOL     OW  850   2.239   2.828   2.461 -0.4450 -0.0603  0.1168
  284SOL    HW1  851   2.338   2.842   2.432 -0.6745  0.4088 -0.8003
  284SOL    HW2  852   2.218   2.881   2.540  2.0763 -2.5918 -2.9679
  285SOL     OW  853   1.378   0.019   2.578 -0.4007 -0.0898 -0.2160
  285SOL    HW1  854   1.402   0.027   2.475 -1.1560 -1.0166 -1.3155
  285SOL    HW2  855   1.280   0.048   2.590 -0.1802  1.8234 -0.9874
  286SOL     OW  856   0.423   0.485   0.732 -0.0561 -0.2489 -0.1857
  286SOL    HW1  857   0.444   0.420   0.813 -0.3457 -0.9504 -2.7817
  286SOL    HW2  858   0.449   0.457   0.634 -0.7949  1.0017 -2.8513
  287SOL     OW  859   0.080   1.323   2.651 -0.1348 -0.1767  0.3827
  287SOL    HW1  860   0.052   1.238   2.700  0.3947  1.7174 -1.6831
  287SOL    HW2  861   0.056   1.406   2.700 -1.1412  1.2304 -4.3809
  288SOL     OW  862   1.507   2.740   1.640  0.1031  0.2562 -0.2145
  288SOL    HW1  863   1.567   2.681   1.698  1.1870  2.5739  3.9063
  288SOL    HW2  864   1.518   2.728   1.540 -1.9582 -1.7181  1.8934
  289SOL     OW  865   0.620   2.742   0.870  0.1263  0.2535  0.0673
  289SOL    HW1  866   0.663   2.809   0.800  2.2686  0.6650 -4.4158
  289SOL    HW2  867   0.553   2.781   0.932 -0.7302 -1.3703 -0.0312
  290SOL     OW  868   2.810   1.128   1.712  0.4099  0.7091 -0.6547
  290SOL    HW1  869   2.745   1.050   1.728  2.2720  1.8754 -0.3372
  290SOL    HW2  870   2.899   1.114   1.770  0.3245 -2.9636  2.0404
  291SOL     OW  871   1.956   3.093   0.057  0.0314 -0.5835 -0.3592
  291SOL    HW1  872   1.980   3.117   0.158 -3.4916 -2.1568 -0.3933
  291SOL    HW2  873   2.008   3.140  -0.022  0.5452  2.0345  0.8608
  292SOL     OW  874   2.997   1.156   3.058 -0.1773 -0.8443 -0.2547
  292SOL    HW1  875   2.935   1.239   3.061 -2.7975  1.9998 -1.6814
  292SOL    HW2  876   3.075   1.171   2.993  0.4288 -0.6827 -0.4150
  293SOL     OW  877   0.576   2.089   0.308  0.4251 -0.1872 -0.0858
  293SOL    HW1  878   0.528   2.152   0.377  1.5488 -0.3213 -2.0838
  293SOL    HW2  879   0.674   2.061   0.333  0.7675  0.7732  2.5107
  294SOL     OW  880   1.863   2.385   1.770  0.0682 -0.1489  0.0578
  294SOL    HW1  881   1.906   2.357   1.859  0.3536  0.2054 -1.2655
  294SOL    HW2  882   1.791   2.460   1.784  2.8689 -0.7152 -2.1937
  295SOL     OW  883   1.022   1.051   0.453  0.2483 -0.1694  0.0861
  295SOL    HW1  884   1.119   1.023   0.490 -1.3649 -1.9548 -0.7388
  295SOL    HW2  885   0.944   1.009   0.503  0.8760 -1.2496  2.3185
  296SOL     OW  886   1.141   2.141   2.752 -0.5175  0.0791  0.4628
  296SOL    HW1  887   1.052   2.197   2.746 -0.6804  1.5059 -2.1368
  296SOL    HW2  888   1.171   2.115   2.657 -0.4056 -0.0013 -0.8648
  297SOL     OW  889   1.318   0.549   1.208 -0.0401 -0.4170 -0.5419
  297SOL    HW1  890   1.338   0.495   1.291 -1.9312  0.7025 -2.1061
  297SOL    HW2  891   1.398   0.587   1.154 -2.1958 -2.6904 -3.4900
  298SOL     OW  892   0.476   1.342   2.947 -0.4932 -0.2386 -0.2879
  298SOL    HW1  893   0.441   1.287   3.031 -1.9570  2.3873 -0.7445
  298SOL    HW2  894   0.538   1.292   2.880 -0.8849 -0.9519  1.0306
  299SOL     OW  895   0.420   0.208   1.245  0.1129  0.5105 -0.7947
  299SOL    HW1  896   0.379   0.303   1.237  2.8707 -0.4069  2.0352
  299SOL    HW2  897   0.429   0.180   1.343  0.3998  1.6323  0.6553
  300SOL     OW  898   1.284   1.774   2.563  0.3134  0.5012 -0.1086
  300SOL    HW1  899   1.239   1.686   2.529  0.0807  1.1010  0.9617
  300SOL    HW2  900   1.389   1.762   2.578 -0.3352  1.1503 -1.6692
  301SOL     OW  901   0.425   0.340   0.476  0.0724  0.3247 -0.1159
  301SOL    HW1  902   0.328   0.300   0.471 -3.5095  1.8648 -2.1338
  301SOL    HW2  903   0.500   0.274   0.441 -0.7976 -1.5056 -3.8124
  302SOL     OW  904   1.276   2.459   2.246  0.1241 -0.4914  0.3206
  302SOL    HW1  905   1.180   2.417   2.247  0.3857 -0.0988  1.4249
  302SOL    HW2  906   1.333   2.410   2.316  0.7608  1.4435  1.2873
  303SOL     OW  907   0.982   2.397   0.825  0.0474 -0.3125 -0.0289
  303SOL    HW1  908   1.038   2.428   0.745  1.4024  2.3549 -1.4204
  303SOL    HW2  909   1.008   2.458   0.907  3.6289  1.4604 -0.0724
  304SOL     OW  910   0.126   1.902   0.677  0.7790  0.0587 -0.0261
  304SOL    HW1  911   0.190   1.900   0.594 -1.6120  0.6223 -0.3030
  304SOL    HW2  912   0.046   1.965   0.660 -1.7828  4.9475  2.0647
  305SOL     OW  913   1.579   0.834   0.705 -0.0307 -0.6066 -0.6029
  305SOL    HW1  914   1.542   0.868   0.611  1.6488  0.4149  0.9923
  305SOL    HW2  915   1.635   0.750   0.683  0.5737  0.2097  3.2165
  306SOL     OW  916   0.417   1.884   1.935 -0.8341 -0.4389  0.6436
  306SOL    HW1  917   0.497   1.822   1.908  2.7117 -0.1373  0.7092
  306SOL    HW2  918   0.409   1.895   2.041  0.5906 -1.2189  3.6196
  307SOL     OW  919   3.053   0.881   2.461 -0.0827 -0.1676  0.2579
  307SOL    HW1  920   3.043   0.950   2.537  0.0819  0.6720 -2.0185
  307SOL    HW2  921   2.976   0.809   2.460 -1.4748  0.7641  2.7708
  308SOL     OW  922   1.486   2.712   2.805 -0.0363  0.2138  0.4536
  308SOL    HW1  923   1.449   2.717   2.705 -0.1402  1.3130 -0.8797
  308SOL    HW2  924   1.438   2.637   2.858 -1.7420 -2.6190 -0.1300
  309SOL     OW  925   1.251   0.150   1.775  0.1636  0.1327 -0.3197
  309SOL    HW1  926   1.346   0.113   1.801  0.3575  3.2492  1.2649
  309SOL    HW2  927   1.239   0.162   1.671  0.8740  2.6096  0.7533
  310SOL     OW  928   1.467   2.604   0.641 -0.3132 -0.3786 -0.5178
  310SOL    HW1  929   1.431   2.629   0.731  0.1289 -2.1861  1.6443
  310SOL    HW2  930   1.542   2.677   0.606  1.7651 -0.1879  0.1053
  311SOL     OW  931   1.078   0.972   1.788 -0.2802  0.2362  0.3648
  311SOL    HW1  932   1.039   0.880   1.825 -3.6823 -0.3531 -2.2387
  311SOL    HW2  933   1.132   0.949   1.699 -2.0797 -1.5731 -1.5253
  312SOL     OW  934   1.512   0.663   1.062 -0.1029  0.1836  0.0356
  312SOL    HW1  935   1.599   0.720   1.044  1.5884 -1.7908 -3.5920
  312SOL    HW2  936   1.457   0.649   0.975 -1.1272  1.1345 -1.2174
  313SOL     OW  937   1.645   1.272   0.744 -0.1832 -0.4783  0.6908
  313SOL    HW1  938   1.572   1.286   0.818 -1.5013 -1.1860  0.3031
  313SOL    HW2  939   1.606   1.236   0.655 -2.3228  4.7152  2.1689
  314SOL     OW  940   2.977   3.071   0.001 -0.3786  0.0730  0.1561
  314SOL    HW1  941   3.013   3.090   0.100  0.5052  0.6600  0.4914
  314SOL    HW2  942   2.883   3.025   0.006 -3.6094 -1.6021 -1.2403
  315SOL     OW  943   1.187   0.201   2.801  0.3375 -0.0445  0.6072
  315SOL    HW1  944   1.118   0.158   2.738 -1.1890  0.7426 -0.2476
  315SOL    HW2  945   1.193   0.150   2.891 -3.4836  1.1442 -0.4631
  316SOL     OW  946   1.692   2.089   0.880  0.6381  0.0413  0.4610
  316SOL    HW1  947   1.626   2.067   0.960 -4.2293 -1.3991  2.3369
  316SOL    HW2  948   1.711   2.188   0.858  1.7628 -1.0596 -1.5337
  317SOL     OW  949   1.170   0.687   2.779  0.6180 -0.0418  0.2216
  317SOL    HW1  950   1.116   0.727   2.865 -0.3826 -0.5105  1.5868
  317SOL    HW2  951   1.109   0.626   2.721 -1.5612 -0.8637  0.5715
  318SOL     OW  952   1.430   3.082   2.318 -0.1327  0.6819  0.7077
  318SOL    HW1  953   1.451   3.184   2.296  1.9031  0.6108 -2.7632
  318SOL    HW2  954   1.406   3.026   2.232 -1.6275  0.3150 -0.4089
  319SOL     OW  955   0.668   2.396   2.976  0.4557 -0.1246  0.4868
  319SOL    HW1  956   0.662   2.321   3.045 -0.1629 -0.2140 -1.2948
  319SOL    HW2  957   0.714   2.363   2.892 -1.8694  2.4952 -0.1305
  320SOL     OW  958   1.684   2.237   0.385 -0.4270 -0.0723  0.0577
  320SOL    HW1  959   1.756   2.170   0.418 -0.3366 -0.6135  1.3241
  320SOL    HW2  960   1.586   2.228   0.420 -3.4903 -1.0011  3.7354
  321SOL     OW  961   1.649   2.746   0.528  0.5353 -1.0810  0.5157
  321SOL    HW1  962   1.587   2.810   0.476  0.4363 -0.0060 -1.0840
  321SOL    HW2  963   1.744   2.775   0.522 -1.9870  0.1948 -0.0584
  322SOL     OW  964   2.571   1.117   2.326  0.4860  0.0025 -0.0953
  322SOL    HW1  965   2.662   1.095   2.372 -0.1046 -0.5783 -0.1002
  322SOL    HW2  966   2.520   1.038   2.292  3.7994  1.8732  0.4502
  323SOL     OW  967   1.184   2.695   0.826 -0.2423  0.1479  0.0070
  323SOL    HW1  968   1.153   2.648   0.734  0.6541  1.3683 -1.1422
  323SOL    HW2  969   1.167   2.796   0.824  1.0397 -2.7774 -3.2739
  324SOL     OW  970   0.202   2.531   2.439 -0.5038 -0.0093  0.1462
  324SOL    HW1  971   0.138   2.465   2.485 -2.2830  1.3250 -0.4468
  324SOL    HW2  972   0.185   2.627   2.483 -0.8255  0.5998 -0.8390
  325SOL     OW  973   1.245   3.053   0.468  0.0994  0.6348  0.1987
  325SOL    HW1  974   1.232   3.070   0.366  2.9511  0.7609 -0.6801
  325SOL    HW2  975   1.288   3.130   0.527 -0.1659  0.3054  4.1291
  326SOL     OW  976   2.508   0.780   3.085  0.2325  0.1762 -0.0727
  326SOL    HW1  977   2.453   0.731   3.012 -0.1715  1.2087 -1.4511
  326SOL    HW2  978   2.558   0.712   3.146 -4.4744  0.6992 -1.2215
  327SOL     OW  979   2.848   0.297   0.537  0.2250 -0.5177  0.4503
  327SOL    HW1  980   2.832   0.243   0.449  1.5957 -2.1063 -1.5887
  327SOL    HW2  981   2.843   0.231   0.612 -0.2125 -1.4049 -0.5070
  328SOL     OW  982   2.553   0.662   0.385  0.1573 -0.0103  0.4023
  328SOL    HW1  983   2.614   0.714   0.448 -0.4837  1.9472 -1.0126
  328SOL    HW2  984   2.514   0.579   0.433 -1.1797  1.4979  3.0640
  329SOL     OW  985   2.941   3.058   2.136 -0.0992  0.4891  0.3132
  329SOL    HW1  986   3.022   3.013   2.183  0.2039 -2.8400  1.1047
  329SOL    HW2  987   2.952   3.159   2.126 -1.4288 -0.2409  1.1331
  330SOL     OW  988   0.532   0.230   1.873 -0.1897 -0.2558 -0.5793
  330SOL    HW1  989   0.624   0.242   1.832 -0.6293 -0.2842 -1.2098
  330SOL    HW2  990   0.537   0.175   1.960 -1.3082  2.3117 -2.2296
  331SOL     OW  991   3.028   1.903   1.133  0.6121  0.5745  0.2539
  331SOL    HW1  992   2.986   1.945   1.050  3.3227  0.0002 -2.2581
  331SOL    HW2  993   2.952   1.872   1.200 -1.4558 -1.2472  0.4190
  332SOL     OW  994   0.392   1.212   0.077  0.4099  0.1434 -0.2755
  332SOL    HW1  995   0.332   1.126   0.069  0.0085  1.7718 -0.1485
  332SOL    HW2  996   0.375   1.258   0.169 -2.5649 -0.9401 -0.1331
  333SOL     OW  997   2.866   0.972   0.354  0.3518 -0.3959  0.4061
  333SOL    HW1  998   2.921   1.046   0.397 -1.3061 -1.3178  1.4767
  333SOL    HW2  999   2.917   0.885   0.325 -2.2998  1.3852  4.3842
  334SOL     OW 1000   1.727   1.180   1.771  0.0655 -0.7569 -0.2123
  334SOL    HW1 1001   1.784   1.184   1.683  2.9458 -1.7401  1.0462
  334SOL    HW2 1002   1.784   1.162   1.859  2.7299 -1.1065 -0.3718
  335SOL     OW 1003   1.913   2.814   2.636 -0.6787  0.0222 -0.0062
  335SOL    HW1 1004   1.881   2.777   2.728 -1.3165 -0.4718  1.7392
  335SOL    HW2 1005   1.945   2.910   2.644 -0.1245 -0.0360 -0.3381
  336SOL     OW 1006   0.239   3.092   2.698  0.1815  0.1169 -0.0389
  336SOL    HW1 1007   0.295   3.176   2.730  1.6233  1.3572  1.5564
  336SOL    HW2 1008   0.294   3.003   2.705 -1.8459  0.2293  0.0901
  337SOL     OW 1009   0.949   2.893   2.956 -0.3072 -0.3645  0.0879
  337SOL    HW1 1010   0.905   2.816   3.012 -3.3269  0.5952  0.3646
  337SOL    HW2 1011   1.039   2.920   2.982 -4.0006 -2.8214 -0.1803
  338SOL     OW 1012   3.102   0.922   0.673 -0.1860 -0.0691  0.2057
  338SOL    HW1 1013   3.005   0.909   0.707 -0.9786 -0.6136  2.1893
  338SOL    HW2 1014   3.123   1.023   0.658  0.1775 -0.6945 -1.5623
  339SOL     OW 1015   1.700   1.336   2.146  1.0240 -0.3299  0.1890
  339SOL    HW1 1016   1.650   1.404   2.093 -1.5821 -1.7043 -0.4619
  339SOL    HW2 1017   1.749   1.391   2.214  0.2722  0.3344 -0.1371
  340SOL     OW 1018   2.240   0.805   1.149  0.4121  0.3788  0.0510
  340SOL    HW1 1019   2.142   0.848   1.156 -1.2051  0.1605 -2.2445
  340SOL    HW2 1020   2.231   0.706   1.121 -0.0355  0.3049  0.4933
  341SOL     OW 1021   1.915   2.066   0.411  0.0815  0.5332  0.0655
  341SOL    HW1 1022   1.951   2.134   0.342 -1.2603 -0.2446 -3.0208
  341SOL    HW2 1023   1.991   2.010   0.445 -0.4695 -0.2437 -1.9098
  342SOL     OW 1024   2.145   2.109   2.704  0.5403 -0.0664 -0.2363
  342SOL    HW1 1025   2.194   2.024   2.728  0.1041 -1.9997  1.7871
  342SOL    HW2 1026   2.048   2.090   2.671  1.4443  0.1217 -1.2519
  343SOL     OW 1027   0.381   0.801   2.747 -0.7638  0.6043  0.1491
  343SOL    HW1 1028   0.393   0.856   2.659  0.2405 -0.4182  0.4196
  343SOL    HW2 1029   0.471   0.812   2.804  1.9417 -1.1044 -0.9837
  344SOL     OW 1030   1.934   1.475   0.426  0.6845 -0.0885 -0.0850
  344SOL    HW1 1031   1.927   1.404   0.348 -0.6422  1.2582 -1.2798
  344SOL    HW2 1032   1.842   1.483   0.477 -0.3701  1.2895 -0.2818
  345SOL     OW 1033   1.381   2.202   2.846 -0.3653 -0.1071 -0.1360
  345SOL    HW1 1034   1.284   2.177   2.833  0.5782  0.6071  4.3616
  345SOL    HW2 1035   1.445   2.170   2.769 -0.4495  0.4680 -0.5952
  346SOL     OW 1036   2.319   0.878   1.387 -0.1361 -0.4746 -0.3649
  346SOL    HW1 1037   2.262   0.959   1.418  1.1288 -0.3723 -2.7697
  346SOL    HW2 1038   2.284   0.839   1.297 -0.6015  1.0924  0.3361
  347SOL     OW 1039   0.705   2.777   1.664 -0.5470  0.3798 -0.0768
  347SOL    HW1 1040   0.747   2.870   1.638  1.0002 -0.6686 -2.8684
  347SOL    HW2 1041   0.620   2.753   1.613 -1.0799 -0.4972  1.9112
  348SOL     OW 1042   0.173   0.754   2.929  0.4369 -1.0371 -0.1650
  348SOL    HW1 1043   0.079   0.747   2.887 -0.9323  1.7890  2.7579
  348SOL    HW2 1044   0.251   0.757   2.860 -0.9442 -0.3944  1.4954
  349SOL     OW 1045   1.863   0.433   2.805  0.1203 -0.1505 -0.0784
  349SOL    HW1 1046   1.821   0.507   2.742  0.7455 -1.9323 -1.9239
  349SOL    HW2 1047   1.841   0.454   2.905 -0.3442  1.0819  1.9904
  350SOL     OW 1048   1.682   0.391   0.357 -0.0775  0.0872  0.0713
  350SOL    HW1 1049   1.766   0.388   0.421  1.8023 -0.6482  1.3598
  350SOL    HW2 1050   1.654   0.487   0.336 -1.7135 -1.4678 -0.3050
  351SOL     OW 1051   0.880   0.853   2.066  0.0133  0.1991 -0.1812
  351SOL    HW1 1052   0.915   0.950   2.094 -2.3844  2.7088  2.4514
  351SOL    HW2 1053   0.942   0.806   1.999 -4.1965  3.9745 -1.1940
  352SOL     OW 1054   2.062   1.341   0.615 -0.3213 -0.1817 -0.0553
  352SOL    HW1 1055   2.032   1.422   0.559  0.4426 -0.7348 -0.2894
  352SOL    HW2 1056   1.988   1.314   0.684  2.5106 -0.6092  1.5461
  353SOL     OW 1057   2.188   2.754   1.091 -0.2910 -0.0848 -0.7418
  353SOL    HW1 1058   2.259   2.689   1.138  0.3658 -2.6059  3.1321
  353SOL    HW2 1059   2.165   2.839   1.150 -0.9034  3.4473 -0.2831
  354SOL     OW 1060   0.244   1.429   2.885 -0.0684 -0.1967  0.0946
  354SOL    HW1 1061   0.243   1.502   2.811 -2.3159  0.3899  0.0345
  354SOL    HW2 1062   0.338   1.384   2.902  1.7700  0.8744  0.3593
  355SOL     OW 1063   0.695   1.567   0.604 -0.3698 -0.5494 -0.0959
  355SOL    HW1 1064   0.689   1.547   0.703  1.3428  0.5526 -1.0758
  355SOL    HW2 1065   0.647   1.500   0.544  2.0795  0.6945 -0.2968
  356SOL     OW 1066   0.913   0.289   2.059  0.1437  0.0684  0.8083
  356SOL    HW1 1067   1.002   0.236   2.062  0.1537  0.0413 -0.4907
  356SOL    HW2 1068   0.863   0.275   1.966  2.3618  4.3041  0.8234
  357SOL     OW 1069   1.019   1.351   0.271  0.2003  0.0748 -0.7156
  357SOL    HW1 1070   1.104   1.405   0.273  0.4119  0.6528 -3.0869
  357SOL    HW2 1071   1.045   1.257   0.301  1.4657  1.7788 -1.8686
  358SOL     OW 1072   1.691   1.471   0.539 -0.0266 -0.6056  0.2488
  358SOL    HW1 1073   1.654   1.425   0.621 -0.3848  0.7681 -2.8743
  358SOL    HW2 1074   1.645   1.458   0.449  2.7677 -1.5724  0.4535
  359SOL     OW 1075   1.627   2.602   0.295  0.4262  0.0503 -0.4905
  359SOL    HW1 1076   1.576   2.511   0.295 -0.0607 -1.1581 -0.2879
  359SOL    HW2 1077   1.607   2.662   0.375 -2.1241  0.8124 -1.6272
  360SOL     OW 1078   0.814   0.462   0.587  0.0937 -0.8035  0.1565
  360SOL    HW1 1079   0.724   0.495   0.542  1.4533  1.1329 -0.0113
  360SOL    HW2 1080   0.818   0.363   0.588 -0.7960  0.8822  0.4547
  361SOL     OW 1081   1.372   1.321   0.604 -0.1936  0.1759  0.0758
  361SOL    HW1 1082   1.407   1.326   0.703 -0.4890  0.2335 -1.5580
  361SOL    HW2 1083   1.282   1.369   0.596 -0.4983  1.1501 -0.6067
  362SOL     OW 1084   1.359   1.823   0.731 -0.4926  0.0438  0.2545
  362SOL    HW1 1085   1.379   1.734   0.778  0.4859  0.0076  0.2537
  362SOL    HW2 1086   1.430   1.849   0.661 -3.3934 -0.5121 -2.7758
  363SOL     OW 1087   1.290   1.315   2.104  0.5902 -0.3479 -0.0288
  363SOL    HW1 1088   1.388   1.344   2.072  1.7122 -1.6089 -2.1190
  363SOL    HW2 1089   1.236   1.395   2.144  1.1741  1.2321 -0.6083
  364SOL     OW 1090   0.538   2.379   2.048  0.0251  0.1707 -0.3060
  364SOL    HW1 1091   0.434   2.383   2.060 -0.7764 -0.0841  2.2790
  364SOL    HW2 1092   0.569   2.415   1.954  0.5570 -2.1439 -1.2089
  365SOL     OW 1093   0.956   1.954   1.353 -0.5355 -0.0439  0.4721
  365SOL    HW1 1094   0.863   1.927   1.389 -2.6686 -0.0210 -2.5777
  365SOL    HW2 1095   0.949   2.004   1.263 -1.2160  4.1134  0.4129
  366SOL     OW 1096   2.816   1.953   0.299 -0.2849 -0.2086 -0.5238
  366SOL    HW1 1097   2.743   1.886   0.278 -2.4794  1.2808 -1.5010
  366SOL    HW2 1098   2.899   1.932   0.243 -2.5133  0.6769  1.0669
  367SOL     OW 1099   0.892   1.198   0.019 -0.1003 -0.4621 -0.4606
  367SOL    HW1 1100   0.884   1.127   0.092  1.1981  0.1132 -2.2258
  367SOL    HW2 1101   0.982   1.246   0.019 -2.3747 -2.4042  1.1292
  368SOL     OW 1102   1.465   0.596   0.564 -0.5314  0.3115 -0.4593
  368SOL    HW1 1103   1.360   0.610   0.581  0.0047 -0.4793  0.3995
  368SOL    HW2 1104   1.508   0.624   0.475  0.8739  0.5019  1.6940
  369SOL     OW 1105   0.391   1.659   0.156  0.2568 -0.9494  0.2100
  369SOL    HW1 1106   0.436   1.726   0.219 -1.6704 -0.4105 -1.0068
  369SOL    HW2 1107   0.291   1.642   0.186 -1.1505 -1.8526 -0.7112
  370SOL     OW 1108   0.373   2.199   1.079  0.0304 -0.1973  0.4898
  370SOL    HW1 1109   0.414   2.287   1.032  0.5863  0.8853 -1.8072
  370SOL    HW2 1110   0.296   2.155   1.024  0.7293  1.2016 -0.9433
  371SOL     OW 1111   2.918   2.252   2.705  0.4677 -0.2369  0.6281
  371SOL    HW1 1112   2.977   2.178   2.748 -0.1306 -0.6761  0.7829
  371SOL    HW2 1113   2.889   2.319   2.776 -1.2918 -3.1824  1.4955
  372SOL     OW 1114   1.032   2.103   1.146  0.0931 -1.2558  0.1925
  372SOL    HW1 1115   0.981   2.127   1.058  0.2518  0.4989 -1.2566
  372SOL    HW2 1116   1.108   2.171   1.166 -1.4568  0.4154  1.1450
  373SOL     OW 1117   1.893   1.930   0.979 -0.1974  0.7393  0.4124
  373SOL    HW1 1118   1.979   1.955   1.031  1.1670 -0.8218 -1.3343
  373SOL    HW2 1119   1.843   2.014   0.954 -0.5936 -2.1310 -0.8687
  374SOL     OW 1120   1.874   0.423   0.582 -0.1148 -0.2922  0.1981
  374SOL    HW1 1121   1.868   0.368   0.676 -0.4539 -0.0822  0.5347
  374SOL    HW2 1122   1.947   0.399   0.516 -0.4349 -1.7701  1.9330
  375SOL     OW 1123   2.412   2.218   1.077 -0.3715 -0.2366  0.0500
  375SOL    HW1 1124   2.457   2.288   1.014  0.2688  1.2718 -2.9310
  375SOL    HW2 1125   2.481   2.168   1.135 -1.0003 -0.0962  1.1894
  376SOL     OW 1126   0.021   0.648   1.406 -0.7234 -0.0232 -0.4221
  376SOL    HW1 1127   0.029   0.671   1.504  2.8455  0.6121 -0.5362
  376SOL    HW2 1128  -0.073   0.640   1.377  3.1481  2.4488  1.0458
  377SOL     OW 1129   2.167   2.865   0.260  0.6147  0.3128 -0.6940
  377SOL    HW1 1130   2.142   2.954   0.306 -1.1197 -0.0063  0.7163
  377SOL    HW2 1131   2.260   2.827   0.285  0.1718  0.7373 -0.4752
  378SOL     OW 1132   1.800   1.892   2.451 -0.1819 -0.1861 -0.5414
  378SOL    HW1 1133   1.872   1.892   2.375  0.8681  2.5936  1.8196
  378SOL    HW2 1134   1.754   1.801   2.468  0.3257  0.5614  0.4243
  379SOL     OW 1135   0.724   0.169   2.840 -0.2369 -1.4017 -0.1647
  379SOL    HW1 1136   0.782   0.088   2.809 -2.0397 -2.0654  0.3949
  379SOL    HW2 1137   0.728   0.243   2.774 -1.7090  0.0606  3.3643
  380SOL     OW 1138   1.569   1.157   0.512  0.1119 -0.0704 -0.4519
  380SOL    HW1 1139   1.488   1.224   0.538 -2.3451  1.0045  2.4705
  380SOL    HW2 1140   1.540   1.061   0.476 -1.3472  0.9671 -0.1833
  381SOL     OW 1141   1.308   1.202   1.563 -0.4213 -0.0350 -0.3880
  381SOL    HW1 1142   1.351   1.141   1.491 -1.2260  4.8060 -1.1173
  381SOL    HW2 1143   1.383   1.253   1.614  0.3223 -0.4822  1.2831
  382SOL     OW 1144   1.812   0.883   0.248  0.1082 -0.1205  0.2483
  382SOL    HW1 1145   1.851   0.875   0.152 -1.5655  2.1097 -0.3669
  382SOL    HW2 1146   1.874   0.849   0.325  1.8169  0.9781  1.1239
  383SOL     OW 1147   2.560   1.018   1.481 -0.6055 -0.1223  0.1589
  383SOL    HW1 1148   2.471   0.967   1.463 -1.1594 -0.2784  1.2118
  383SOL    HW2 1149   2.627   1.011   1.400  2.2333 -2.3297 -3.5415
  384SOL     OW 1150   0.867   2.270   0.164  0.1951  0.5862  1.0502
  384SOL    HW1 1151   0.825   2.357   0.202 -0.8828 -0.6275 -0.8954
  384SOL    HW2 1152   0.857   2.193   0.230 -1.2942  0.6369  1.8953
  385SOL     OW 1153   2.966   2.047   1.684  0.0016  0.2374  0.4186
  385SOL    HW1 1154   3.054   2.107   1.693  1.4480  1.0323  1.5816
  385SOL    HW2 1155   2.994   1.946   1.669  3.0950  2.7248 -1.7705
  386SOL     OW 1156   0.491   1.053   0.476  0.2449  0.0680 -0.4722
  386SOL    HW1 1157   0.423   0.987   0.523  1.7679  1.5321  0.4708
  386SOL    HW2 1158   0.438   1.127   0.430 -3.0715  0.2191  0.0624
  387SOL     OW 1159   0.954   0.360   1.699  0.4482 -0.2732 -0.0946
  387SOL    HW1 1160   0.992   0.456   1.682  0.0494  1.0715  0.7959
  387SOL    HW2 1161   0.991   0.291   1.634 -1.0658 -1.5457  1.8969
  388SOL     OW 1162   1.204   2.700   1.746  0.7004 -0.5743 -0.6626
  388SOL    HW1 1163   1.231   2.684   1.650  1.6027 -2.3754  1.2771
  388SOL    HW2 1164   1.266   2.651   1.810 -1.3287  1.4605 -1.2127
  389SOL     OW 1165   0.134   2.969   1.370  0.1272 -0.1894 -0.0304
  389SOL    HW1 1166   0.036   2.990   1.340 -1.3510  0.3532  1.7259
  389SOL    HW2 1167   0.156   2.872   1.352  0.3658  1.4637  0.5274
  390SOL     OW 1168   1.045   0.964   1.362  0.1825 -0.4265  0.5478
  390SOL    HW1 1169   1.131   0.935   1.419  0.9795 -1.1519 -0.1344
  390SOL    HW2 1170   1.007   1.055   1.389 -0.9264 -1.6796 -0.5733
  391SOL     OW 1171   2.170   1.163   1.087 -0.0618 -0.3106 -0.3649
  391SOL    HW1 1172   2.146   1.076   1.140  0.2231  0.6682  0.4543
  391SOL    HW2 1173   2.207   1.144   0.996 -0.7192 -0.9225  2.5667
  392SOL     OW 1174   0.904   2.633   0.006 -0.2537 -0.0096  0.4431
  392SOL    HW1 1175   0.980   2.573  -0.022  2.3370 -0.4536  2.4478
  392SOL    HW2 1176   0.843   2.601   0.088  0.9360  1.3143  1.6943
  393SOL     OW 1177   0.307   0.576   2.002 -0.5413  0.7116  0.5561
  393SOL    HW1 1178   0.221   0.513   1.989  0.2209 -1.0339 -0.8243
  393SOL    HW2 1179   0.377   0.558   1.928 -0.9322 -0.4623  2.5009
  394SOL     OW 1180   3.032   1.992   2.774  0.0122  0.3437 -0.8028
  394SOL    HW1 1181   3.130   1.969   2.811  3.5363  1.6413  0.3621
  394SOL    HW2 1182   3.019   1.974   2.673  2.1668  0.6449  0.9440
  395SOL     OW 1183   1.618   1.953   0.601  0.0400 -0.1297 -1.3154
  395SOL    HW1 1184   1.672   1.870   0.571 -0.7024 -1.0246 -0.1456
  395SOL    HW2 1185   1.668   2.008   0.675  0.5625 -0.8559 -0.2345
  396SOL     OW 1186   2.832   1.806   1.309  0.1294  0.1310 -0.0516
  396SOL    HW1 1187   2.775   1.748   1.243 -1.4423 -0.3298  2.0651
  396SOL    HW2 1188   2.777   1.825   1.394 -0.5542  0.2167  1.8668
  397SOL     OW 1189   1.031   2.248   0.514  0.3463  0.0540 -0.0440
  397SOL    HW1 1190   0.948   2.193   0.552 -0.4782 -0.6569 -1.6278
  397SOL    HW2 1191   1.048   2.339   0.559 -0.5778 -2.4051  0.2360
  398SOL     OW 1192   2.150  -0.000   1.065 -0.4039  0.3344  0.5023
  398SOL    HW1 1193   2.075  -0.056   1.112 -1.5826  0.1549  0.6839
  398SOL    HW2 1194   2.122   0.098   1.048  0.8751  0.3765  0.2044
  399SOL     OW 1195   3.057   2.467   2.566 -0.3410 -0.1978 -0.0741
  399SOL    HW1 1196   2.956   2.453   2.536 -1.8723  2.6631  2.0118
  399SOL    HW2 1197   3.076   2.428   2.656  0.8023 -0.1565 -1.9656
  400SOL     OW 1198   0.776   1.664   1.388 -0.0006  0.4351  0.0262
  400SOL    HW1 1199   0.733   1.722   1.466  1.4981  2.5053  1.3519
  400SOL    HW2 1200   0.768   1.717   1.300 -2.3834  0.1262 -0.7323
  401SOL     OW 1201   1.874   0.133   1.200  0.3388  0.6802 -0.2069
  401SOL    HW1 1202   1.900   0.136   1.302  2.6225  0.4093  2.3673
  401SOL    HW2 1203   1.770   0.126   1.180 -2.3420 -1.3506 -1.0794
  402SOL     OW 1204   1.330   0.157   3.040  0.4508  0.2201 -0.1563
  402SOL    HW1 1205   1.432   0.150   3.016  0.8652  0.4620 -1.1138
  402SOL    HW2 1206   1.304   0.258   3.033  1.4769  1.1403 -0.0245
  403SOL     OW 1207   2.283   1.769   0.907 -0.0768 -0.0310 -0.0816
  403SOL    HW1 1208   2.388   1.768   0.901  1.1097 -1.3295 -1.7228
  403SOL    HW2 1209   2.254   1.842   0.971 -0.3765 -0.8080  3.4031
  404SOL     OW 1210   0.201   2.440   2.808 -0.1076 -0.1959 -0.5727
  404SOL    HW1 1211   0.305   2.428   2.780  1.0202 -1.1464 -1.5874
  404SOL    HW2 1212   0.190   2.526   2.867 -0.1330  0.6660  2.5223
  405SOL     OW 1213   0.094   2.451   0.747  0.4947 -0.2477  0.0436
  405SOL    HW1 1214   0.080   2.375   0.669 -4.1950  1.6320  0.7559
  405SOL    HW2 1215   0.183   2.510   0.742  0.1455  0.9927 -0.5478
  406SOL     OW 1216   0.051   1.565   3.054 -0.0744  0.3449  0.0951
  406SOL    HW1 1217   0.112   1.526   2.982  1.1956  3.0935  3.2912
  406SOL    HW2 1218   0.101   1.578   3.146 -0.9939  0.4006  2.4005
  407SOL     OW 1219   1.548   0.947   0.961 -0.0073 -0.2434  0.0738
  407SOL    HW1 1220   1.526   0.916   0.867 -2.3060 -0.4995  4.8483
  407SOL    HW2 1221   1.468   0.994   1.008 -0.4821 -0.9281  1.7266
  408SOL     OW 1222   1.589   2.444   0.963  0.6515  0.2253  0.5562
  408SOL    HW1 1223   1.666   2.427   0.899 -0.4723 -0.2680  1.6793
  408SOL    HW2 1224   1.540   2.536   0.944  0.7621 -0.4011 -2.4032
  409SOL     OW 1225   0.679   0.761   0.765 -0.2740 -0.3185  0.1864
  409SOL    HW1 1226   0.589   0.764   0.715  0.7087  0.0482 -0.2480
  409SOL    HW2 1227   0.690   0.663   0.800 -0.9836 -1.5532  0.2417
  410SOL     OW 1228   1.258   2.043   1.372 -0.7266 -0.5273  0.0434
  410SOL    HW1 1229   1.338   1.975   1.390  1.0739 -1.0910 -0.5793
  410SOL    HW2 1230   1.167   1.994   1.366  1.3979  3.4232  0.8122
  411SOL     OW 1231   2.618   1.828   3.014 -0.7519  0.2296 -0.7211
  411SOL    HW1 1232   2.601   1.928   3.042  4.5296  1.2867  1.4098
  411SOL    HW2 1233   2.680   1.822   2.931 -0.2400  0.2070 -0.6787
  412SOL     OW 1234   1.529   2.488   2.140 -0.2185 -0.0851  0.0300
  412SOL    HW1 1235   1.585   2.434   2.212 -0.2424 -3.9820 -4.0157
  412SOL    HW2 1236   1.427   2.467   2.155  0.2858  1.0745 -0.6869
  413SOL     OW 1237   3.093   0.203   2.911  0.3564 -0.0514 -0.3748
  413SOL    HW1 1238   3.040   0.133   2.966  2.0151 -1.9449  0.0945
  413SOL    HW2 1239   3.185   0.170   2.881 -0.2657 -0.3596 -0.0812
  414SOL     OW 1240   1.871   1.542   1.184 -0.8483  0.3072  0.6418
  414SOL    HW1 1241   1.824   1.632   1.178  1.4332 -0.3149  1.0550
  414SOL    HW2 1242   1.853   1.473   1.105 -0.7616 -0.5254 -1.7315
  415SOL     OW 1243   0.374   2.282   0.704 -0.5698 -0.3423 -0.1331
  415SOL    HW1 1244   0.381   2.328   0.792 -4.1217  1.6637 -1.7544
  415SOL    HW2 1245   0.276   2.289   0.673 -0.2274  0.7839  1.9288
  416SOL     OW 1246   0.370   1.019   1.062  0.1209 -0.1049 -0.5965
  416SOL    HW1 1247   0.339   0.951   0.995  0.7287  1.5081 -1.9950
  416SOL    HW2 1248   0.464   1.052   1.038 -0.8403  2.9194 -1.0538
  417SOL     OW 1249   2.288   2.372   2.036  0.3665  0.6608  0.2568
  417SOL    HW1 1250   2.311   2.303   2.113  0.9635  0.1037  0.7142
  417SOL    HW2 1251   2.233   2.324   1.962 -2.2955  1.2439 -0.8184
  418SOL     OW 1252   1.065   0.586   1.340 -0.5200 -0.7246 -0.6886
  418SOL    HW1 1253   0.992   0.516   1.303 -2.6810 -2.2276  0.2572
  418SOL    HW2 1254   1.141   0.614   1.277  1.1812  4.3458 -0.1774
  419SOL     OW 1255   0.945   0.497   2.951 -0.0430  0.6809  0.0804
  419SOL    HW1 1256   0.884   0.451   2.884 -0.3314 -1.2056  1.8114
  419SOL    HW2 1257   0.923   0.587   2.994 -1.2306 -1.3859 -1.6555
  420SOL     OW 1258   0.082   2.261   0.562  0.5992 -0.2996  0.4864
  420SOL    HW1 1259   0.093   2.255   0.459 -2.7071  1.9797 -1.5261
  420SOL    HW2 1260   0.064   2.165   0.602 -0.8237 -1.1043  0.2756
  421SOL     OW 1261   0.327   2.951   0.602  0.0695 -0.3247 -0.3010
  421SOL    HW1 1262   0.300   2.895   0.687  0.2336  0.2302 -0.5480
  421SOL    HW2 1263   0.423   2.983   0.605 -0.6684  1.3247 -0.3072
  422SOL     OW 1264   0.994   2.597   1.026 -0.1991  0.5799  0.8842
  422SOL    HW1 1265   1.065   2.635   0.957  2.2127  0.6287 -0.6040
  422SOL    HW2 1266   1.022   2.607   1.125 -0.3521  3.9134  0.0238
  423SOL     OW 1267   0.146   0.741   1.187  0.1621 -0.2030 -0.8605
  423SOL    HW1 1268   0.087   0.704   1.272  1.0435 -3.5030  3.1175
  423SOL    HW2 1269   0.109   0.829   1.143 -1.5594  0.9675  0.5672
  424SOL     OW 1270   1.135   2.211   2.042  0.2388 -0.2866  0.3156
  424SOL    HW1 1271   1.107   2.304   2.002 -0.7778 -1.5342 -0.7835
  424SOL    HW2 1272   1.117   2.206   2.145  0.4507 -2.9918  0.8743
  425SOL     OW 1273   1.957   1.328   1.033  0.1089  0.7628 -0.2337
  425SOL    HW1 1274   2.028   1.275   1.085 -1.0215  1.1094  1.3146
  425SOL    HW2 1275   2.009   1.410   0.994  0.1775 -1.1561 -1.1716
  426SOL     OW 1276   1.466   1.583   1.322 -0.2849  0.4003 -0.7588
  426SOL    HW1 1277   1.440   1.662   1.272 -1.3032 -1.2966 -0.1049
  426SOL    HW2 1278   1.424   1.576   1.422 -0.8380 -1.6851 -0.0101
  427SOL     OW 1279   1.906   2.339   2.086 -0.1091 -0.1973 -0.5057
  427SOL    HW1 1280   1.973   2.280   2.140  2.2888 -1.3967  1.3084
  427SOL    HW2 1281   1.915   2.444   2.115  1.7857  1.3135 -1.4797
  428SOL     OW 1282   0.816   3.096   0.138 -0.1941  0.3354 -0.1151
  428SOL    HW1 1283   0.820   3.172   0.072 -0.3180 -0.1606 -1.1506
  428SOL    HW2 1284   0.879   3.024   0.115  1.1336  2.4062 -1.1426
  429SOL     OW 1285   1.356   0.114   0.224  0.4202  0.1044 -0.2164
  429SOL    HW1 1286   1.449   0.126   0.263 -1.9812  0.8959  2.1967
  429SOL    HW2 1287   1.347   0.116   0.121  0.0492  4.2680 -0.4772
  430SOL     OW 1288   2.867   1.402   0.282  0.3851 -0.1503 -0.1677
  430SOL    HW1 1289   2.845   1.464   0.207 -0.0070 -1.9791  0.2184
  430SOL    HW2 1290   2.882   1.461   0.369 -0.5538  1.7102  2.4220
  431SOL     OW 1291   2.092   1.570   0.969 -0.7563  0.2054  0.2165
  431SOL    HW1 1292   2.176   1.625   0.991  2.9971 -1.3535 -2.1917
  431SOL    HW2 1293   2.015   1.624   0.927  1.7521  1.3445  1.0272
  432SOL     OW 1294   2.949   2.193   1.165  0.1127 -0.8568  0.1708
  432SOL    HW1 1295   2.970   2.097   1.196 -1.2558 -1.6356  2.1777
  432SOL    HW2 1296   2.961   2.267   1.240 -2.0074 -1.3908  2.9152
  433SOL     OW 1297   1.845   0.274   0.804 -0.1355  0.4516 -0.3182
  433SOL    HW1 1298   1.756   0.311   0.823  2.0897 -0.2295  1.3403
  433SOL    HW2 1299   1.906   0.251   0.887  3.2559  0.5140  4.2747
  434SOL     OW 1300   1.547   0.347   0.695  0.1706  0.3150  0.1890
  434SOL    HW1 1301   1.527   0.434   0.647  1.3200 -1.4381 -1.0444
  434SOL    HW2 1302   1.545   0.360   0.798  0.5342 -2.3966  0.6373
  435SOL     OW 1303   1.488   1.485   2.012  0.4680 -0.3988 -0.7253
  435SOL    HW1 1304   1.482   1.527   2.112 -0.1883  1.2814  2.1200
  435SOL    HW2 1305   1.522   1.553   1.943  3.1046  1.0146  1.1428
  436SOL     OW 1306   1.706   2.734   2.249  0.0159  0.4140 -0.0206
  436SOL    HW1 1307   1.675   2.815   2.315 -3.2968  0.3502 -1.3484
  436SOL    HW2 1308   1.715   2.644   2.303 -1.0873 -1.1030  2.4718
  437SOL     OW 1309   1.116   2.933   0.908  0.2679 -0.3604  0.2773
  437SOL    HW1 1310   1.025   2.976   0.885  0.7312  0.4098 -0.9365
  437SOL    HW2 1311   1.126   2.927   1.011 -0.2733  1.0528 -1.0939
  438SOL     OW 1312   1.012   2.652   1.314 -0.1360 -0.0832 -0.2904
  438SOL    HW1 1313   1.109   2.697   1.298  5.0935 -0.5065  0.3109
  438SOL    HW2 1314   1.023   2.549   1.327  0.4730  0.0035  0.6953
  439SOL     OW 1315   0.704   1.812   1.148  0.0056 -0.2786 -0.0222
  439SOL    HW1 1316   0.673   1.903   1.111 -1.3058 -0.1123  0.1507
  439SOL    HW2 1317   0.623   1.747   1.158  0.5835 -1.2555 -0.7546
  440SOL     OW 1318   1.068   2.440   1.938 -0.0405 -0.3264 -0.2456
  440SOL    HW1 1319   1.019   2.495   1.866 -2.6567 -1.6466  0.9922
  440SOL    HW2 1320   1.171   2.465   1.941  1.3402  1.3830  1.7455
  441SOL     OW 1321   0.481   2.721   1.483 -0.7281 -0.0197  0.9046
  441SOL    HW1 1322   0.547   2.640   1.479  0.2049  3.7522 -0.3604
  441SOL    HW2 1323   0.382   2.690   1.461 -3.7524 -1.3158 -1.3111
  442SOL     OW 1324   2.272   0.743   2.497  0.0019  0.1770 -0.0333
  442SOL    HW1 1325   2.264   0.644   2.525 -1.2448  1.2766 -0.7618
  442SOL    HW2 1326   2.183   0.790   2.471 -0.3730  0.1342  0.9156
  443SOL     OW 1327   1.192   2.737   2.197 -0.1082 -0.2491 -0.4046
  443SOL    HW1 1328   1.237   2.790   2.275  2.8746  0.4468 -0.1521
  443SOL    HW2 1329   1.211   2.639   2.214  1.1657 -1.3532 -1.4774
  444SOL     OW 1330   1.052   1.342   1.559 -0.2183  0.3095 -0.2483
  444SOL    HW1 1331   1.143   1.289   1.560  0.8489  0.2066  1.5777
  444SOL    HW2 1332   1.054   1.423   1.624  3.6239 -0.0790  0.3188
  445SOL     OW 1333   3.087   2.320   1.930 -0.3780  0.4931  0.3492
  445SOL    HW1 1334   3.101   2.403   1.871  0.5506 -0.0780 -1.8572
  445SOL    HW2 1335   2.992   2.315   1.974 -0.9731 -0.7984 -0.7730
  446SOL     OW 1336   0.158   1.907   2.358  0.6759  0.1368 -0.1592
  446SOL    HW1 1337   0.101   1.984   2.405 -0.4209  2.3320  2.5451
  446SOL    HW2 1338   0.093   1.848   2.297 -2.9530  1.1230  1.1805
  447SOL     OW 1339   1.246   1.706   1.961 -0.4462  0.2038 -0.0940
  447SOL    HW1 1340   1.171   1.765   1.921  0.9970  1.4687  0.2278
  447SOL    HW2 1341   1.332   1.710   1.901  1.7151  0.4788  1.0050
  448SOL     OW 1342   0.147   1.525   2.023 -0.3682 -0.3914 -0.2103
  448SOL    HW1 1343   0.139   1.622   1.988  3.5480 -1.3790 -2.2399
  448SOL    HW2 1344   0.122   1.513   2.130 -1.4773 -2.9093  0.4759
  449SOL     OW 1345   2.026   2.979   0.838 -0.4633  1.1171 -0.1962
  449SOL    HW1 1346   2.073   3.000   0.929  0.4703 -0.6573  1.3837
  449SOL    HW2 1347   2.023   2.877   0.820 -0.2301 -2.3398  1.0370
  450SOL     OW 1348   2.299   1.363   0.781 -0.1306  0.0325  0.0520
  450SOL    HW1 1349   2.279   1.257   0.788 -1.2790 -2.7882  0.1691
  450SOL    HW2 1350   2.218   1.408   0.733 -1.3727 -0.9187  0.5994
  451SOL     OW 1351   1.455   0.037   1.468 -0.1291 -0.2245  0.1396
  451SOL    HW1 1352   1.399   0.122   1.479 -0.1912  1.7410  0.7325
  451SOL    HW2 1353   1.450  -0.022   1.553 -1.3830 -0.5102 -0.1518
  452SOL     OW 1354   2.640   2.296   2.220 -0.5366 -0.2889 -0.1449
  452SOL    HW1 1355   2.582   2.383   2.228 -0.3650  1.1164 -0.8148
  452SOL    HW2 1356   2.675   2.265   2.314  1.3543  2.6077  2.5617
  453SOL     OW 1357   2.444   2.657   3.082 -0.1577 -0.1684 -0.3035
  453SOL    HW1 1358   2.356   2.718   3.063  0.1910  0.4427  0.5311
  453SOL    HW2 1359   2.449   2.577   3.012  0.9939  0.7617 -2.0557
  454SOL     OW 1360   0.966   1.112   2.103 -0.2430 -0.1291  1.0642
  454SOL    HW1 1361   0.954   1.144   2.006  0.6852 -0.9420 -0.8315
  454SOL    HW2 1362   1.050   1.154   2.145  2.4092 -2.4010 -0.0544
  455SOL     OW 1363   0.718   2.654   2.864  0.3035  0.1651 -0.1066
  455SOL    HW1 1364   0.798   2.709   2.901  1.9552  0.1693  0.6083
  455SOL    HW2 1365   0.702   2.570   2.915 -0.0363  2.8335  0.0795
  456SOL     OW 1366   0.523   1.822   0.335  0.1167 -0.6514 -0.4581
  456SOL    HW1 1367   0.549   1.816   0.436  1.5812 -1.4732 -0.9718
  456SOL    HW2 1368   0.533   1.917   0.305  0.7784  0.2454  1.2859
  457SOL     OW 1369   0.346   2.650   0.738 -0.3344 -0.0711  0.2669
  457SOL    HW1 1370   0.335   2.643   0.637 -1.3812  0.7480  0.3994
  457SOL    HW2 1371   0.441   2.636   0.781 -1.2864  2.8398 -0.3108
  458SOL     OW 1372   2.989   2.976   1.246 -0.1029 -0.5216 -0.3867
  458SOL    HW1 1373   3.002   3.050   1.176 -2.1077  0.2678  2.5404
  458SOL    HW2 1374   2.969   2.882   1.214  4.7929  0.6599 -0.6462
  459SOL     OW 1375   2.132   2.553   0.922 -0.1495  0.0990  0.3110
  459SOL    HW1 1376   2.170   2.608   1.000  1.4465 -3.0248 -1.8115
  459SOL    HW2 1377   2.199   2.542   0.843 -2.0696  2.6034 -0.7155
  460SOL     OW 1378   1.136   1.943   2.954 -0.0672 -0.1851 -0.8291
  460SOL    HW1 1379   1.182   2.014   2.894 -0.8400 -2.6449 -0.9874
  460SOL    HW2 1380   1.204   1.882   3.009 -1.2204  0.4821 -0.1367
  461SOL     OW 1381   0.474   2.131   2.677 -0.4834  0.1437  0.3266
  461SOL    HW1 1382   0.428   2.053   2.621  1.2482  0.1565 -0.6634
  461SOL    HW2 1383   0.528   2.089   2.759 -2.3754  1.5209 -0.1721
  462SOL     OW 1384   0.937   1.218   1.854 -0.2029  0.4220 -0.3701
  462SOL    HW1 1385   0.995   1.152   1.795  1.3006 -1.4367 -1.9559
  462SOL    HW2 1386   0.882   1.283   1.803  3.7808 -1.5784 -0.2726
  463SOL     OW 1387   0.443   0.791   0.607 -0.0861 -0.0997  0.5719
  463SOL    HW1 1388   0.480   0.703   0.576 -2.1904  0.0557  1.8743
  463SOL    HW2 1389   0.340   0.796   0.606  2.3843 -1.8041  0.3454
  464SOL     OW 1390   0.595   2.239   2.280 -0.1081 -0.3730 -0.8413
  464SOL    HW1 1391   0.561   2.309   2.354  1.3640 -0.3260  1.4489
  464SOL    HW2 1392   0.586   2.283   2.185 -1.8269  1.0166 -0.3463
  465SOL     OW 1393   0.245   0.915   0.837  0.1780  0.9172  0.2677
  465SOL    HW1 1394   0.147   0.950   0.834  2.6513  2.0081  2.2928
  465SOL    HW2 1395   0.246   0.810   0.843 -0.3174  1.6387  1.5899
  466SOL     OW 1396   1.366   1.114   1.135  0.2772 -0.1133 -0.1798
  466SOL    HW1 1397   1.432   1.194   1.151  2.2782 -0.4279  0.2854
  466SOL    HW2 1398   1.269   1.143   1.124  2.4365 -1.1948 -1.5964
  467SOL     OW 1399   0.471   0.373   2.361 -0.2015 -0.4694 -0.4466
  467SOL    HW1 1400   0.471   0.465   2.410 -0.0461  1.8207 -0.1825
  467SOL    HW2 1401   0.476   0.295   2.430  0.4167  0.1348  0.3382
  468SOL     OW 1402   0.442   2.282   1.668  0.5240 -0.0524 -0.2089
  468SOL    HW1 1403   0.440   2.364   1.730 -0.1051  0.2001 -0.0172
  468SOL    HW2 1404   0.458   2.301   1.567  0.8849  0.9269  0.4907
  469SOL     OW 1405   1.502   1.360   1.178 -0.2433  0.0367 -1.0852
  469SOL    HW1 1406   1.590   1.305   1.196 -1.4574 -0.4683 -0.1688
  469SOL    HW2 1407   1.517   1.456   1.224  3.8859  3.1734 -2.2025
  470SOL     OW 1408   3.018   1.686   0.735  0.0852  0.2797 -0.0717
  470SOL    HW1 1409   3.105   1.738   0.730 -0.5101  0.0321 -2.6733
  470SOL    HW2 1410   2.949   1.741   0.787  1.9717 -3.7913  1.1399
  471SOL     OW 1411   2.621   1.332   2.136  0.5385 -0.3900 -0.4435
  471SOL    HW1 1412   2.603   1.270   2.218  0.2640 -0.0684  0.8911
  471SOL    HW2 1413   2.694   1.406   2.149 -3.7771  1.8081 -0.1889
  472SOL     OW 1414   1.098   2.427   3.050 -0.0457  0.1117  0.0633
  472SOL    HW1 1415   1.128   2.448   3.148 -1.1105  0.2655  1.6846
  472SOL    HW2 1416   1.066   2.328   3.033  0.1785  1.0152 -0.4632
  473SOL     OW 1417   1.102   1.548   0.917  0.1070  0.4995 -0.3058
  473SOL    HW1 1418   1.019   1.570   0.973  2.6845  1.4605 -1.2218
  473SOL    HW2 1419   1.187   1.545   0.975  1.4738 -2.7244  2.9582
  474SOL     OW 1420   0.825   1.217   0.651  0.2485 -0.1737  0.7100
  474SOL    HW1 1421   0.782   1.208   0.556 -0.0219  3.3047 -1.3723
  474SOL    HW2 1422   0.838   1.127   0.696  0.3211 -0.9975 -1.7924
  475SOL     OW 1423   2.863   0.109   0.769  0.3677 -0.1404 -0.3910
  475SOL    HW1 1424   2.954   0.116   0.818 -0.9741  1.8186  0.0508
  475SOL    HW2 1425   2.783   0.130   0.830 -0.1277  1.5147  0.0441
  476SOL     OW 1426   0.916   3.022   1.793 -0.4305  0.8386  0.7391
  476SOL    HW1 1427   0.988   3.027   1.864  0.0384 -1.8983  0.5954
  476SOL    HW2 1428   0.952   2.971   1.713 -0.1053  0.0142  0.1845
  477SOL     OW 1429   1.423   0.331   2.450 -0.1759 -0.0472 -0.0820
  477SOL    HW1 1430   1.383   0.311   2.542  0.0020 -0.6296 -0.2961
  477SOL    HW2 1431   1.506   0.270   2.431  1.0015 -0.6068  1.8114
  478SOL     OW 1432   2.258   1.794   0.226 -0.0014 -0.0824 -0.3559
  478SOL    HW1 1433   2.182   1.722   0.216  0.6993 -0.1287  0.2233
  478SOL    HW2 1434   2.350   1.749   0.226  1.1623 -3.1740 -0.1562
  479SOL     OW 1435   1.292   1.020   2.888  0.6254  0.1564 -0.1592
  479SOL    HW1 1436   1.345   1.060   2.808  1.9803  1.3668 -1.5810
  479SOL    HW2 1437   1.202   0.986   2.863 -0.2461 -2.2678  2.9807
  480SOL     OW 1438   2.511   2.321   0.383 -0.3575  0.1460  0.0759
  480SOL    HW1 1439   2.472   2.230   0.424 -0.5533 -1.0103  3.6887
  480SOL    HW2 1440   2.442   2.359   0.317 -1.3883  1.1315  1.4305
  481SOL     OW 1441   1.086   1.148   0.795  0.3124 -0.6469 -0.1943
  481SOL    HW1 1442   1.118   1.223   0.731  1.3358  0.4397  0.2234
  481SOL    HW2 1443   1.128   1.169   0.887  0.7146  0.1493 -0.5140
  482SOL     OW 1444   1.602   0.349   2.057  0.1401 -0.5092  0.3213
  482SOL    HW1 1445   1.600   0.436   1.995 -1.4008  2.3484 -0.9146
  482SOL    HW2 1446   1.694   0.315   2.070 -1.5378  0.8318 -1.4182
  483SOL     OW 1447   0.160   2.361   1.258 -0.0818 -0.7303  0.0028
  483SOL    HW1 1448   0.073   2.361   1.309 -1.2117  0.1620 -2.3895
  483SOL    HW2 1449   0.155   2.385   1.158  1.4987 -3.4628  0.3792
  484SOL     OW 1450   1.709   0.968   1.401  0.1253 -0.0322  0.1878
  484SOL    HW1 1451   1.793   0.906   1.383  0.4327 -2.1694 -2.1876
  484SOL    HW2 1452   1.733   1.068   1.419  1.6777  1.3000  2.1972
  485SOL     OW 1453   0.688   1.091   1.779 -0.1327  0.2506 -0.6244
  485SOL    HW1 1454   0.705   1.054   1.685  0.3116 -2.1964  1.7217
  485SOL    HW2 1455   0.779   1.128   1.817  0.9773  1.9249  3.2474
  486SOL     OW 1456   0.936   1.975   2.479 -0.0303  0.4708 -0.3948
  486SOL    HW1 1457   0.963   1.955   2.575 -1.1735 -1.4944  0.2734
  486SOL    HW2 1458   0.836   2.001   2.478 -0.7072  2.3110  0.9959
  487SOL     OW 1459   1.705   1.507   0.904 -0.2226  0.0643  0.4043
  487SOL    HW1 1460   1.722   1.408   0.876 -0.9113 -1.6551  0.3582
  487SOL    HW2 1461   1.789   1.573   0.879  1.4016  3.8944  1.2430
  488SOL     OW 1462   2.977   0.959   2.215 -0.6749  0.2667  0.4127
  488SOL    HW1 1463   3.019   0.903   2.138  0.9260  1.4281 -3.1729
  488SOL    HW2 1464   2.996   0.923   2.310 -2.0055  2.3792 -0.9210
  489SOL     OW 1465   2.724   0.276   1.333  0.3272  0.4929  0.0239
  489SOL    HW1 1466   2.666   0.238   1.411 -1.6740  0.5652  1.8516
  489SOL    HW2 1467   2.817   0.242   1.341 -1.3835 -0.5944 -0.2147
  490SOL     OW 1468   1.423   2.972   2.806  0.2827 -0.4088  0.3308
  490SOL    HW1 1469   1.482   2.882   2.814  2.2636  1.3897 -0.1342
  490SOL    HW2 1470   1.419   3.021   2.709  0.1829 -1.3901 -2.2587
  491SOL     OW 1471   1.843   1.536   2.700  0.2354  0.4609  0.4338
  491SOL    HW1 1472   1.791   1.522   2.785  0.5326  1.3933  1.7610
  491SOL    HW2 1473   1.943   1.514   2.699 -1.3783  0.6496 -0.9315
  492SOL     OW 1474   0.505   2.041   0.759 -0.3795 -0.5474  0.1423
  492SOL    HW1 1475   0.557   2.028   0.846 -1.0942 -1.3952 -0.9744
  492SOL    HW2 1476   0.460   2.133   0.756 -0.9342 -2.7416  0.3805
  493SOL     OW 1477   0.419   1.430   2.071 -0.2398 -0.9301  0.1296
  493SOL    HW1 1478   0.331   1.479   2.044 -0.0661 -0.9673  3.1228
  493SOL    HW2 1479   0.409   1.352   2.138 -0.0779 -1.5904 -1.4141
  494SOL     OW 1480   2.651   2.696   0.157  0.2389 -0.1805  0.0341
  494SOL    HW1 1481   2.662   2.629   0.234  0.1166 -0.0029 -1.7637
  494SOL    HW2 1482   2.581   2.663   0.086  0.5581 -0.3283 -1.5611
  495SOL     OW 1483   2.730   2.673   2.730  0.1579  0.4672  0.3420
  495SOL    HW1 1484   2.726   2.568   2.719  1.0869 -1.2633 -1.8141
  495SOL    HW2 1485   2.747   2.716   2.638 -1.8627 -0.4384  1.1396
  496SOL     OW 1486   2.049   2.169   0.718  0.5868  0.0750  0.4307
  496SOL    HW1 1487   2.070   2.197   0.814 -0.7862  0.5328 -2.1429
  496SOL    HW2 1488   2.020   2.066   0.702  0.3818 -0.2081 -2.5012
  497SOL     OW 1489   0.218   2.970   2.397  0.2530 -0.3530 -0.3520
  497SOL    HW1 1490   0.149   3.022   2.454  0.3069  0.9244  1.4164
  497SOL    HW2 1491   0.273   3.025   2.330 -1.0062 -0.3462 -0.8924
  498SOL     OW 1492   1.240   1.455   1.146  0.0189 -0.0666  0.2188
  498SOL    HW1 1493   1.339   1.444   1.182  1.2017  1.6617 -1.3848
  498SOL    HW2 1494   1.183   1.494   1.216  1.5019  0.2662 -1.3117
  499SOL     OW 1495   0.806   1.820   0.520  0.7080 -0.0107 -0.1386
  499SOL    HW1 1496   0.808   1.720   0.543  0.6994  2.1880 -0.4008
  499SOL    HW2 1497   0.841   1.872   0.598 -0.7516  0.0430 -0.4114
  500SOL     OW 1498   1.403   2.986   1.696 -0.1626 -0.2252  0.0873
  500SOL    HW1 1499   1.365   3.004   1.788 -0.2651 -0.1126 -1.4227
  500SOL    HW2 1500   1.444   2.890   1.682 -2.7208 -1.1692 -0.5473
  501SOL     OW 1501   0.767   1.134   2.296 -0.4582 -0.1002 -0.5499
  501SOL    HW1 1502   0.677   1.117   2.248  0.7699  1.6232 -0.2026
  501SOL    HW2 1503   0.845   1.133   2.225 -1.5061  1.4267 -1.2179
  502SOL     OW 1504   2.568   0.970   1.745  0.2660 -0.5052 -0.6981
  502SOL    HW1 1505   2.572   0.970   1.641  0.8373 -1.2420  1.2502
  502SOL    HW2 1506   2.529   0.880   1.776 -1.8806 -0.9886 -1.4457
  503SOL     OW 1507   1.337   0.185   0.613  0.1134  0.6635 -0.3475
  503SOL    HW1 1508   1.248   0.245   0.594  0.9979  1.5648  1.6195
  503SOL    HW2 1509   1.428   0.238   0.612 -1.2662 -1.1500 -2.2102
  504SOL     OW 1510   3.008   2.330   1.408 -0.3358 -0.1924 -0.3901
  504SOL    HW1 1511   2.990   2.422   1.459 -2.5171  1.4403  4.4561
  504SOL    HW2 1512   2.933   2.270   1.431  0.3501  1.8710 -1.9718
  505SOL     OW 1513   2.279   1.168   1.459 -0.1513  0.8806 -0.1109
  505SOL    HW1 1514   2.279   1.226   1.373  1.9479 -2.3559 -1.6708
  505SOL    HW2 1515   2.355   1.205   1.527 -0.9545  0.1408 -0.7095
  506SOL     OW 1516   1.981   0.259   1.776 -0.9297  0.2978  0.0889
  506SOL    HW1 1517   2.043   0.184   1.804  3.5520  0.5621  0.5000
  506SOL    HW2 1518   2.011   0.349   1.817 -0.6118 -1.1617  0.8335
  507SOL     OW 1519   0.508   0.641   2.173 -0.1601 -0.3148 -0.4492
  507SOL    HW1 1520   0.415   0.622   2.135 -0.4108 -1.5653 -0.5483
  507SOL    HW2 1521   0.587   0.578   2.139 -0.9616 -1.8303  1.3313
  508SOL     OW 1522   0.274   1.647   0.898 -0.1337  0.3665 -0.2877
  508SOL    HW1 1523   0.352   1.696   0.852 -0.9811  2.8319  0.0322
  508SOL    HW2 1524   0.233   1.698   0.980  1.4185  0.2518 -1.5466
  509SOL     OW 1525   1.329   1.196   2.472 -0.3589 -0.0602  0.7321
  509SOL    HW1 1526   1.238   1.137   2.462 -2.6237 -2.6658 -0.6067
  509SOL    HW2 1527   1.408   1.175   2.412  2.2782  3.2648  2.5709
  510SOL     OW 1528   1.306   1.967   2.039  0.7497 -0.4366 -0.0062
  510SOL    HW1 1529   1.245   2.056   2.036 -3.7606  2.2962 -2.7696
  510SOL    HW2 1530   1.249   1.886   2.069 -0.0261  1.9517 -1.2530
  511SOL     OW 1531   3.080   2.646   1.295  0.6937 -0.0173  0.1698
  511SOL    HW1 1532   3.027   2.624   1.210  1.1144  2.1916  0.9909
  511SOL    HW2 1533   3.028   2.614   1.380 -0.8796  0.5007  2.8527
  512SOL     OW 1534   2.414   0.422   1.391  0.3707  0.0649 -0.1166
  512SOL    HW1 1535   2.313   0.447   1.398  0.7935  1.9471 -1.2042
  512SOL    HW2 1536   2.433   0.366   1.310 -3.2406  0.4422  0.7105
  513SOL     OW 1537   2.462   1.986   0.849 -0.1621 -0.2786  0.5218
  513SOL    HW1 1538   2.412   2.075   0.840  0.6621 -0.7709  1.6828
  513SOL    HW2 1539   2.546   1.976   0.785 -1.0766 -0.9417 -1.8712
  514SOL     OW 1540   0.670   2.784   0.392  0.3293 -0.3180 -0.5413
  514SOL    HW1 1541   0.618   2.823   0.312  0.2933  0.7186  0.3567
  514SOL    HW2 1542   0.680   2.858   0.461  1.6715 -1.1602 -0.8615
  515SOL     OW 1543   2.015   1.178   2.306 -0.4031  0.1055 -0.4818
  515SOL    HW1 1544   1.968   1.189   2.213  1.4510 -1.7891 -3.5102
  515SOL    HW2 1545   1.956   1.192   2.392  0.1344 -0.5587  4.4297
  516SOL     OW 1546   0.257   0.255   1.964 -0.5196  0.2805  0.0973
  516SOL    HW1 1547   0.347   0.231   1.922 -0.3214 -0.2478 -2.4966
  516SOL    HW2 1548   0.176   0.211   1.913 -0.0885 -1.0615  3.0755
  517SOL     OW 1549   0.376   3.045   1.178 -0.2812  0.0995 -1.0789
  517SOL    HW1 1550   0.396   3.143   1.194  0.0018 -1.0009 -3.7242
  517SOL    HW2 1551   0.320   3.015   1.262  1.2376 -1.0090 -0.7011
  518SOL     OW 1552   2.156   0.016   1.773  0.1234  0.8559  0.6001
  518SOL    HW1 1553   2.237   0.087   1.780  1.7182  1.9483  0.4504
  518SOL    HW2 1554   2.180  -0.061   1.709 -0.3282  1.1905 -0.5914
  519SOL     OW 1555   2.398   2.213   2.599 -0.2460 -0.1196 -0.0091
  519SOL    HW1 1556   2.306   2.217   2.647 -0.1989 -2.1138  2.0687
  519SOL    HW2 1557   2.435   2.311   2.589  0.8948  0.1194 -0.8373
  520SOL     OW 1558   1.770   2.856   1.837  0.6356  0.4582 -0.8086
  520SOL    HW1 1559   1.689   2.826   1.896  0.5796 -1.3318 -4.0136
  520SOL    HW2 1560   1.855   2.802   1.854 -0.2775  4.5440  0.3806
  521SOL     OW 1561   0.559   0.071   2.107  0.4296  0.5256  0.4605
  521SOL    HW1 1562   0.465   0.051   2.139  0.9518 -0.7688 -1.7436
  521SOL    HW2 1563   0.622   0.057   2.186  0.6407 -0.4316  0.5878
  522SOL     OW 1564   0.168   1.908   1.506 -0.2978 -0.1074  0.2891
  522SOL    HW1 1565   0.220   1.965   1.575 -1.3426 -0.2190  3.7500
  522SOL    HW2 1566   0.132   1.966   1.426 -2.6666  0.3543  0.4798
  523SOL     OW 1567   2.225   2.909   1.614 -0.4894  0.1370  0.3054
  523SOL    HW1 1568   2.294   2.839   1.579 -1.5511  3.7768  0.6337
  523SOL    HW2 1569   2.135   2.908   1.561 -0.9130  1.9915  0.4126
  524SOL     OW 1570   0.183   2.762   2.798 -0.0133 -0.0546  0.1081
  524SOL    HW1 1571   0.146   2.816   2.874 -1.4232 -2.2209  1.3945
  524SOL    HW2 1572   0.285   2.755   2.798  0.4377 -0.8571 -1.1735
  525SOL     OW 1573   2.171   1.922   0.490  0.6615 -0.8643  0.5517
  525SOL    HW1 1574   2.133   1.851   0.559 -0.1055 -0.2273  0.9472
  525SOL    HW2 1575   2.212   1.878   0.406  3.3639  0.1024 -2.4337
  526SOL     OW 1576   0.429   1.506   1.597  0.0244 -0.4343  0.1207
  526SOL    HW1 1577   0.383   1.508   1.690 -3.4403 -1.2954 -0.0045
  526SOL    HW2 1578   0.472   1.414   1.577  1.6815 -0.0387  0.7309
  527SOL     OW 1579   1.111   2.918   1.251  0.9377 -0.5820 -0.2604
  527SOL    HW1 1580   1.210   2.908   1.273  0.7771  2.0681 -1.2930
  527SOL    HW2 1581   1.094   3.021   1.233 -1.2852  1.1041  1.0995
  528SOL     OW 1582   1.358   2.413   0.489 -0.1736  0.0737  0.3072
  528SOL    HW1 1583   1.387   2.318   0.520  3.1199  2.4955 -0.8085
  528SOL    HW2 1584   1.395   2.488   0.550  0.2819  0.8327 -0.0901
  529SOL     OW 1585   1.887   1.707   0.840  0.0092 -0.7740  0.0650
  529SOL    HW1 1586   1.853   1.720   0.742 -1.6581  0.4551  3.2241
  529SOL    HW2 1587   1.890   1.800   0.892  1.1935  0.9894  0.3843
  530SOL     OW 1588   0.286   2.433   0.335  0.1366 -0.9191  0.1149
  530SOL    HW1 1589   0.251   2.518   0.390  1.2222  2.1654  0.2014
  530SOL    HW2 1590   0.367   2.385   0.372 -1.8207 -0.5601 -2.5444
  531SOL     OW 1591   1.812   0.947   1.015 -0.1578 -1.4583  0.7301
  531SOL    HW1 1592   1.845   0.962   0.915 -0.2691  1.0656 -2.6850
  531SOL    HW2 1593   1.706   0.962   1.021  0.5991  2.0671  0.3697
  532SOL     OW 1594   0.474   1.048   0.761 -0.2706 -0.4688 -0.4946
  532SOL    HW1 1595   0.522   1.036   0.671 -2.7227 -1.2119 -0.7639
  532SOL    HW2 1596   0.387   0.988   0.771 -0.4574 -3.0135 -0.0776
  533SOL     OW 1597   1.759   0.038   2.574  0.0754 -0.2187 -0.1758
  533SOL    HW1 1598   1.855   0.011   2.607  2.1541  0.5416 -1.0114
  533SOL    HW2 1599   1.720   0.112   2.639 -1.7718  0.0467  2.5430
  534SOL     OW 1600   0.384   0.209   1.561  0.3069 -0.0517 -0.3826
  534SOL    HW1 1601   0.488   0.232   1.573  0.4004 -1.1328 -1.2456
  534SOL    HW2 1602   0.333   0.298   1.533  0.3575 -0.1410  2.5393
  535SOL     OW 1603   1.953   0.369   0.169 -0.3177  0.3559  0.6912
  535SOL    HW1 1604   1.970   0.445   0.235  0.7744 -1.4261 -0.1751
  535SOL    HW2 1605   1.944   0.275   0.208  0.6587  1.1106 -4.1286
  536SOL     OW 1606   1.401   2.635   0.952 -0.4247 -0.4073 -0.2836
  536SOL    HW1 1607   1.363   2.617   1.053 -0.8717  0.7221  4.4187
  536SOL    HW2 1608   1.317   2.661   0.897 -3.1700 -1.6569 -0.1765
  537SOL     OW 1609   0.822   0.282   2.424  0.3391  0.0459 -0.1258
  537SOL    HW1 1610   0.854   0.341   2.346  2.5246 -0.7447 -3.2111
  537SOL    HW2 1611   0.805   0.185   2.398 -0.3290 -0.6871  0.1443
  538SOL     OW 1612   1.657   2.298   1.360 -0.2159  0.0842 -0.6961
  538SOL    HW1 1613   1.673   2.194   1.370 -0.4828 -1.3103  0.1217
  538SOL    HW2 1614   1.745   2.352   1.381  0.8829  1.8148 -2.3185
  539SOL     OW 1615   0.179   1.644   2.699 -0.4371  0.1838 -0.0761
  539SOL    HW1 1616   0.096   1.623   2.638 -1.3161  0.6015  0.6035
  539SOL    HW2 1617   0.180   1.746   2.730 -1.9572  0.1731  0.9352
  540SOL     OW 1618   2.656   1.735   1.936  0.4232 -0.3078  0.1709
  540SOL    HW1 1619   2.596   1.654   1.962 -0.3265 -2.5341  0.0614
  540SOL    HW2 1620   2.609   1.830   1.925 -0.9415  0.4438 -1.9150
  541SOL     OW 1621   0.580   2.167   0.032 -0.0407 -0.2298  0.5005
  541SOL    HW1 1622   0.613   2.133   0.124 -0.1404  0.9184 -1.1119
  541SOL    HW2 1623   0.475   2.163   0.024  0.4739 -0.1404  1.2908
  542SOL     OW 1624   2.220   2.600   0.463  0.3092  0.2274 -0.0387
  542SOL    HW1 1625   2.201   2.699   0.441 -0.1256  1.3951  0.8215
  542SOL    HW2 1626   2.137   2.542   0.459  2.0483 -0.9749 -0.1472
  543SOL     OW 1627   1.072   1.804   1.579 -0.4792  0.5368 -0.2575
  543SOL    HW1 1628   1.065   1.830   1.683 -0.6889 -0.1110  2.2235
  543SOL    HW2 1629   1.023   1.867   1.517 -1.1765 -2.0588  1.4067
  544SOL     OW 1630   1.106   0.508   0.171  0.0462  0.3039  0.1163
  544SOL    HW1 1631   1.083   0.422   0.222  2.2973  2.3163  0.9148
  544SOL    HW2 1632   1.154   0.479   0.085 -1.5983 -0.0888 -1.5892
  545SOL     OW 1633   1.095   1.785   0.782 -0.2264  0.6473  0.1883
  545SOL    HW1 1634   1.190   1.822   0.757 -0.5014  1.0662 -0.7465
  545SOL    HW2 1635   1.105   1.692   0.830 -1.9303 -0.4724 -1.6907
  546SOL     OW 1636   2.691   1.554   3.025 -0.1054 -0.1513 -0.0851
  546SOL    HW1 1637   2.649   1.637   2.977  0.9549  1.8143 -1.0200
  546SOL    HW2 1638   2.612   1.481   3.046 -2.2431 -1.4782 -1.0186
  547SOL     OW 1639   0.633   3.007   2.549  0.1353  0.0862 -0.4457
  547SOL    HW1 1640   0.688   3.010   2.633 -1.7813 -0.6758 -1.5894
  547SOL    HW2 1641   0.558   2.930   2.552 -3.1259 -0.3984  3.7784
  548SOL     OW 1642   2.054   0.825   3.041 -0.3149 -0.4644  0.6047
  548SOL    HW1 1643   1.951   0.810   3.032  1.0660 -1.4468  2.5300
  548SOL    HW2 1644   2.076   0.925   3.046  0.6794 -2.7574  0.2206
  549SOL     OW 1645   0.660   0.581   0.224  0.3520 -0.6091 -0.3810
  549SOL    HW1 1646   0.597   0.604   0.136  1.4147  1.4381 -2.4507
  549SOL    HW2 1647   0.748   0.639   0.220  2.1438  2.5290 -0.3104
  550SOL     OW 1648   2.560   2.802   2.897  0.1031  0.1026 -0.1905
  550SOL    HW1 1649   2.520   2.732   2.962 -2.7831  0.3471  0.9859
  550SOL    HW2 1650   2.623   2.753   2.826  0.1505  0.2201 -1.3822
  551SOL     OW 1651   0.233   0.917   0.256 -0.1924 -0.4806  0.1361
  551SOL    HW1 1652   0.327   0.946   0.228 -0.1948  0.2986 -1.6314
  551SOL    HW2 1653   0.219   0.881   0.355 -1.9328 -1.1283 -0.1808
  552SOL     OW 1654   0.665   2.964   1.882 -0.1855  0.0524  0.7040
  552SOL    HW1 1655   0.638   3.017   1.969  0.4164  1.1591  0.4341
  552SOL    HW2 1656   0.767   2.972   1.855  2.1255  0.4128 -1.5783
  553SOL     OW 1657   2.904   2.412   0.332  0.5634 -0.2201 -0.3453
  553SOL    HW1 1658   2.874   2.319   0.367  0.8386  0.4182 -1.3416
  553SOL    HW2 1659   2.835   2.493   0.339 -2.3817  3.8083 -0.3332
  554SOL     OW 1660   2.113   0.356   0.463 -0.4530  0.1301 -0.3459
  554SOL    HW1 1661   2.197   0.361   0.399  0.1060 -0.7398  2.4527
  554SOL    HW2 1662   2.123   0.275   0.531  0.6859 -0.1194  2.0383
  555SOL     OW 1663   0.410   2.838   2.517  0.2700  0.9174  0.2398
  555SOL    HW1 1664   0.323   2.873   2.481  4.0985 -1.8391 -2.1271
  555SOL    HW2 1665   0.461   2.781   2.447  1.0199 -0.5158 -1.4054
  556SOL     OW 1666   0.862   2.387   1.587 -0.4181  0.8090  0.0104
  556SOL    HW1 1667   0.905   2.464   1.632 -2.0186 -1.0848 -0.2206
  556SOL    HW2 1668   0.926   2.346   1.515  2.2457  2.5986  0.5725
  557SOL     OW 1669   0.148   2.046   0.208  0.5468 -0.0394  0.6178
  557SOL    HW1 1670   0.076   1.991   0.155 -1.6872 -1.1257  0.6564
  557SOL    HW2 1671   0.210   2.101   0.141  0.2666  1.5604 -2.2714
  558SOL     OW 1672   2.749   2.189   0.434 -0.1078 -0.5417 -0.1050
  558SOL    HW1 1673   2.670   2.235   0.390 -1.4887 -0.1528  0.0649
  558SOL    HW2 1674   2.753   2.096   0.395  3.4428  0.7299 -0.7086
  559SOL     OW 1675   0.434   2.326   1.379 -0.2458  0.2145  0.2725
  559SOL    HW1 1676   0.357   2.362   1.320 -0.5425  0.8000 -0.4900
  559SOL    HW2 1677   0.486   2.251   1.338 -0.6947  0.5373  1.2569
  560SOL     OW 1678   2.117   1.094   3.075  0.8877 -0.2408 -0.0897
  560SOL    HW1 1679   2.152   1.063   3.170 -2.2270 -0.7871  1.5524
  560SOL    HW2 1680   2.190   1.092   3.000 -1.8056  1.0998  0.3210
  561SOL     OW 1681   0.025   1.886   0.017  0.3291 -0.3184  0.7692
  561SOL    HW1 1682  -0.011   1.825   0.092 -1.4218  1.4843  1.4307
  561SOL    HW2 1683  -0.051   1.956   0.002 -0.4058 -0.6929  2.2204
  562SOL     OW 1684   1.079   2.175   2.321  0.8841 -0.8397 -0.9916
  562SOL    HW1 1685   1.039   2.270   2.338 -1.5477 -1.1636 -1.1424
  562SOL    HW2 1686   1.005   2.096   2.341 -1.7437 -0.3797 -1.4135
  563SOL     OW 1687   0.702   2.520   2.622  0.1720  0.0035  0.2510
  563SOL    HW1 1688   0.783   2.477   2.575 -0.1398 -0.3496 -0.4024
  563SOL    HW2 1689   0.733   2.587   2.693 -1.3874  1.9587 -1.0139
  564SOL     OW 1690   2.921   1.397   2.903  0.3175 -0.6314 -0.8107
  564SOL    HW1 1691   2.826   1.411   2.948 -0.9014  2.2367  0.8177
  564SOL    HW2 1692   2.961   1.488   2.881  0.4433 -3.0348  2.0102
  565SOL     OW 1693   2.494   1.945   2.649  0.1891 -0.0493 -0.0166
  565SOL    HW1 1694   2.475   2.043   2.613  0.4310 -0.8686  1.0627
  565SOL    HW2 1695   2.567   1.938   2.726 -0.0891  0.1211  0.9859
  566SOL     OW 1696   1.981   2.891   1.469 -0.5126 -0.0123  0.1609
  566SOL    HW1 1697   1.934   2.806   1.511 -1.3305  0.3672  0.5911
  566SOL    HW2 1698   1.952   2.901   1.372  1.1045  1.4377 -1.1790
  567SOL     OW 1699   2.448   0.003   2.332  0.2149 -0.0769  0.2603
  567SOL    HW1 1700   2.347   0.013   2.359 -0.5197  0.2103 -2.0689
  567SOL    HW2 1701   2.462   0.008   2.232  0.3424 -0.2668  1.5487
  568SOL     OW 1702   1.534   1.771   0.315 -0.4456 -0.6298  0.2364
  568SOL    HW1 1703   1.496   1.842   0.251 -0.2143 -0.8073  1.2108
  568SOL    HW2 1704   1.637   1.774   0.315 -0.8705  0.8539  2.3813
  569SOL     OW 1705   0.239   0.644   0.867 -0.0740 -0.3399  1.2064
  569SOL    HW1 1706   0.306   0.598   0.803 -3.1425  0.6221  0.0423
  569SOL    HW2 1707   0.147   0.603   0.870 -0.8746 -1.0070  0.5824
  570SOL     OW 1708   0.611   0.858   2.890 -0.4682 -0.1816  0.5392
  570SOL    HW1 1709   0.682   0.869   2.817 -0.3336  0.2069  3.0708
  570SOL    HW2 1710   0.637   0.914   2.977 -1.0457 -0.6197  3.4955
  571SOL     OW 1711   0.823   0.014   1.113 -0.5638  0.0555  0.0008
  571SOL    HW1 1712   0.861   0.033   1.017  2.5488 -0.3883  2.7995
  571SOL    HW2 1713   0.831  -0.090   1.131 -0.5673  1.8241  0.0182
  572SOL     OW 1714   1.625   2.707   1.386  0.3900  0.4042  0.8996
  572SOL    HW1 1715   1.661   2.628   1.329  1.3475 -0.5907 -0.9003
  572SOL    HW2 1716   1.673   2.792   1.357 -0.2224 -2.8436  0.2425
  573SOL     OW 1717   3.085   0.483   2.022  1.0699 -0.3073 -0.2228
  573SOL    HW1 1718   3.035   0.398   2.064 -2.7949 -2.8486  0.0850
  573SOL    HW2 1719   3.120   0.466   1.926  3.1289 -0.3598  0.8245
  574SOL     OW 1720   0.157   1.755   1.135 -0.3531 -0.2467  0.0376
  574SOL    HW1 1721   0.165   1.720   1.232 -0.0843 -1.8048 -1.5187
  574SOL    HW2 1722   0.092   1.837   1.127 -1.0931 -1.6442  1.1429
  575SOL     OW 1723   0.878   2.182   0.937 -0.3303 -0.1344  0.1760
  575SOL    HW1 1724   0.848   2.245   1.014  1.7535  0.2653 -1.4912
  575SOL    HW2 1725   0.917   2.244   0.856 -0.6754  0.7965 -1.9412
  576SOL     OW 1726   2.908   3.021   1.700  0.3471 -0.5181  0.2173
  576SOL    HW1 1727   2.803   3.009   1.688 -1.2252  2.2967  0.5704
  576SOL    HW2 1728   2.939   3.114   1.660 -1.2924 -3.3888 -1.1587
  577SOL     OW 1729   2.668   1.248   0.024 -0.0572  0.0812 -0.6156
  577SOL    HW1 1730   2.659   1.154  -0.028  3.1760 -2.1731  0.7746
  577SOL    HW2 1731   2.691   1.228   0.124 -0.8039 -2.5438  1.1205
  578SOL     OW 1732   1.416   2.794   2.520  0.6200 -0.4835  0.2445
  578SOL    HW1 1733   1.325   2.838   2.492  1.2913 -0.2869  0.8504
  578SOL    HW2 1734   1.500   2.847   2.485  2.4886  1.3581  0.7892
  579SOL     OW 1735   0.052   2.445   0.196  0.6203 -0.1643 -0.3464
  579SOL    HW1 1736  -0.033   2.435   0.260  0.3005 -0.5652  0.5627
  579SOL    HW2 1737   0.141   2.454   0.246  0.3372  1.7620 -1.7329
  580SOL     OW 1738   0.978   2.635   0.402  0.1897 -0.1818 -0.0091
  580SOL    HW1 1739   1.069   2.645   0.356 -0.0869  1.9529  0.2273
  580SOL    HW2 1740   0.896   2.638   0.339 -3.8400 -0.6870 -0.4054
  581SOL     OW 1741   1.293   2.693   1.446 -0.1549  0.3378 -0.3695
  581SOL    HW1 1742   1.362   2.618   1.469 -0.7329  0.1849 -0.7630
  581SOL    HW2 1743   1.341   2.776   1.414 -2.5287 -0.8276 -1.0574
  582SOL     OW 1744   1.474   0.090   1.935  0.0415 -0.3930  0.2878
  582SOL    HW1 1745   1.488   0.175   1.995 -0.3761 -1.6691  0.3827
  582SOL    HW2 1746   1.549   0.091   1.864 -0.4713 -0.7418  0.6486
  583SOL     OW 1747   2.454   3.086   0.527  0.4033 -0.4872 -0.1076
  583SOL    HW1 1748   2.538   3.042   0.482  0.8874  0.9368 -0.7076
  583SOL    HW2 1749   2.382   3.014   0.553 -0.5561 -1.1882 -1.1892
  584SOL     OW 1750   1.563   1.129   2.325  1.1221  0.1904  0.3322
  584SOL    HW1 1751   1.609   1.211   2.278 -0.2431  0.0916 -0.0706
  584SOL    HW2 1752   1.613   1.067   2.391 -3.5515 -0.9588 -1.3162
  585SOL     OW 1753   2.058   2.668   2.890 -0.0240 -0.5458 -0.1877
  585SOL    HW1 1754   2.105   2.581   2.859 -2.1837  1.5265 -0.1150
  585SOL    HW2 1755   1.955   2.653   2.890 -0.8315 -0.1764 -0.3939
  586SOL     OW 1756   2.898   0.405   1.522  0.1230 -0.1988 -0.0217
  586SOL    HW1 1757   2.912   0.493   1.571 -0.2973  1.7643 -1.4511
  586SOL    HW2 1758   2.804   0.385   1.487  2.3793  1.0394  2.5969
  587SOL     OW 1759   2.110   1.461   2.702  0.4466  0.2449  0.1254
  587SOL    HW1 1760   2.134   1.396   2.626 -2.0726  0.5726  0.2732
  587SOL    HW2 1761   2.186   1.469   2.772  1.5243 -3.3660 -0.0005
  588SOL     OW 1762   0.541   2.701   2.315  0.1023  0.1261  0.0115
  588SOL    HW1 1763   0.525   2.717   2.212 -0.6143  0.5014 -4.5706
  588SOL    HW2 1764   0.520   2.600   2.341  1.3344  0.9749 -1.3678
  589SOL     OW 1765   2.185   1.292   2.498  0.1549  0.1018 -0.0420
  589SOL    HW1 1766   2.151   1.225   2.425  0.2413  1.1770  3.5639
  589SOL    HW2 1767   2.288   1.289   2.514  0.0793  0.5291  0.2853
  590SOL     OW 1768   2.368   1.749   2.064 -0.4320 -0.5334  0.2428
  590SOL    HW1 1769   2.402   1.654   2.043  1.5999  0.0501 -2.8816
  590SOL    HW2 1770   2.335   1.779   2.158 -0.6585  0.1779 -1.1534
  591SOL     OW 1771   1.228   2.379   0.229  0.0320 -0.2239 -0.6197
  591SOL    HW1 1772   1.231   2.295   0.175  0.6622 -0.8068  2.8568
  591SOL    HW2 1773   1.221   2.360   0.335 -0.7789  0.2126  4.3658
  592SOL     OW 1774   1.782   2.338   0.787  0.3443 -0.1564  0.4026
  592SOL    HW1 1775   1.781   2.408   0.706  0.1095  2.2722 -2.2298
  592SOL    HW2 1776   1.873   2.293   0.799 -1.0565  0.8033  1.1487
  593SOL     OW 1777   0.733   0.318   0.231 -0.1888  0.6881  0.4577
  593SOL    HW1 1778   0.785   0.288   0.143  1.3397  0.5429  0.1887
  593SOL    HW2 1779   0.698   0.417   0.239 -2.4609 -0.3525  0.5819
  594SOL     OW 1780   1.055   1.860   2.690  0.2624  0.1538 -0.0031
  594SOL    HW1 1781   1.148   1.829   2.651  0.3468  1.3007  3.0394
  594SOL    HW2 1782   1.060   1.897   2.784  2.5981  0.3063 -2.9150
  595SOL     OW 1783   1.518   0.066   1.003 -0.5350  0.2904 -0.4442
  595SOL    HW1 1784   1.593   0.005   0.957  0.4318  1.7828 -2.0338
  595SOL    HW2 1785   1.430   0.063   0.944 -2.1040  1.8199  2.0012
  596SOL     OW 1786   0.068   1.474   2.288  0.2604 -0.6958  0.1660
  596SOL    HW1 1787   0.082   1.378   2.319 -2.7208  1.8770 -1.5778
  596SOL    HW2 1788   0.016   1.535   2.356 -0.3256 -0.6481 -0.1669
  597SOL     OW 1789   1.970   2.681   1.832 -0.2746  0.1467 -0.5483
  597SOL    HW1 1790   1.918   2.687   1.742 -1.4649  0.6824 -2.3631
  597SOL    HW2 1791   2.066   2.634   1.824  3.8424 -1.5717 -1.2925
  598SOL     OW 1792   2.523   2.879   1.218  0.0801 -0.3756  0.2224
  598SOL    HW1 1793   2.596   2.932   1.267 -0.0024 -2.5317 -1.8590
  598SOL    HW2 1794   2.557   2.846   1.124 -2.4437  1.8155  0.6385
  599SOL     OW 1795   2.803   0.264   2.498 -0.2379  0.1974  0.1441
  599SOL    HW1 1796   2.873   0.260   2.422  0.3948 -0.2266 -1.5829
  599SOL    HW2 1797   2.731   0.340   2.496 -3.6174  0.6532 -1.8011
  600SOL     OW 1798   2.810   1.207   2.748  0.0146 -0.4548 -0.6086
  600SOL    HW1 1799   2.740   1.157   2.809  0.7464  0.0144  0.5268
  600SOL    HW2 1800   2.844   1.292   2.797 -1.3764  1.7751 -0.0928
  601SOL     OW 1801   3.033   1.332   2.013 -0.7695 -0.6574  0.4441
  601SOL    HW1 1802   2.941   1.371   1.974 -4.0868 -1.6117 -1.9336
  601SOL    HW2 1803   3.116   1.391   1.994 -0.8717 -3.5716 -2.1068
  602SOL     OW 1804   1.485   1.577   2.276 -0.0380 -0.3482  0.0906
  602SOL    HW1 1805   1.406   1.549   2.335  2.7881  1.1022  0.5934
  602SOL    HW2 1806   1.557   1.615   2.337 -0.3571  0.1649  0.3774
  603SOL     OW 1807   0.669   1.157   2.712 -0.1212  0.7094 -0.1502
  603SOL    HW1 1808   0.597   1.177   2.639  0.4358  2.5631 -0.0018
  603SOL    HW2 1809   0.711   1.063   2.693 -1.5671  0.8039 -0.4159
  604SOL     OW 1810   2.467   0.975   0.181  0.1042  0.2898  0.4663
  604SOL    HW1 1811   2.554   1.028   0.177 -0.1879 -0.6513  0.4507
  604SOL    HW2 1812   2.468   0.895   0.112  1.5549 -1.0558  1.2394
  605SOL     OW 1813   2.508   1.131   1.957  0.2529 -0.4801  0.4662
  605SOL    HW1 1814   2.543   1.080   1.872  0.6618  2.1111  1.0636
  605SOL    HW2 1815   2.567   1.216   1.976  1.0609 -0.5021 -0.2738
  606SOL     OW 1816   1.513   2.524   2.535  0.0734 -0.6545  0.1289
  606SOL    HW1 1817   1.461   2.612   2.527  0.7781 -1.0294  1.7881
  606SOL    HW2 1818   1.449   2.439   2.518 -1.5685 -1.7266  2.5945
  607SOL     OW 1819   1.314   1.606   0.254  0.1848 -0.0752 -0.4057
  607SOL    HW1 1820   1.224   1.660   0.261 -1.9178  2.4776 -1.4912
  607SOL    HW2 1821   1.391   1.654   0.300 -1.3445  0.0140  0.0392
  608SOL     OW 1822   1.446   2.848   0.402 -0.5745  0.4674 -0.5133
  608SOL    HW1 1823   1.468   2.854   0.298  1.1321 -0.1662  0.7894
  608SOL    HW2 1824   1.378   2.918   0.438 -0.1060  2.2350  0.3142
  609SOL     OW 1825   1.355   1.343   0.156 -0.2395 -0.7017 -0.5221
  609SOL    HW1 1826   1.345   1.435   0.188  0.8620 -1.1040 -1.2797
  609SOL    HW2 1827   1.283   1.319   0.081 -0.3167 -0.5891 -0.7268
  610SOL     OW 1828   3.029   1.218   2.273  0.5817  0.6712  0.1889
  610SOL    HW1 1829   3.018   1.117   2.247  0.5926 -0.4750  1.2505
  610SOL    HW2 1830   3.028   1.283   2.193  1.6958  1.5717 -1.7964
  611SOL     OW 1831   2.495   0.250   1.179  0.0545 -0.2064 -0.3691
  611SOL    HW1 1832   2.432   0.173   1.212  1.5609  1.4463 -1.6871
  611SOL    HW2 1833   2.586   0.249   1.232 -1.7528  0.1182  1.0471
  612SOL     OW 1834   0.775   2.307   1.165  0.4936  0.3115 -0.1617
  612SOL    HW1 1835   0.700   2.238   1.195  2.4046 -0.0029  0.5314
  612SOL    HW2 1836   0.741   2.402   1.179 -1.0811  0.3676 -0.0288
  613SOL     OW 1837   0.830   1.387   2.408 -0.6130  0.1165  0.1086
  613SOL    HW1 1838   0.817   1.457   2.335 -0.5190 -0.1113 -0.4541
  613SOL    HW2 1839   0.790   1.301   2.371 -1.0073  0.0914  0.3403
  614SOL     OW 1840   1.570   1.689   1.810  0.0900 -0.0350  0.0892
  614SOL    HW1 1841   1.551   1.790   1.805 -1.8345 -2.2642 -0.7333
  614SOL    HW2 1842   1.665   1.679   1.846 -1.2837  1.3118  1.1600
  615SOL     OW 1843   0.757   1.400   1.721 -0.0569  0.3119 -0.2100
  615SOL    HW1 1844   0.676   1.380   1.666 -1.1163  1.1479 -1.0323
  615SOL    HW2 1845   0.825   1.467   1.672 -0.7539  0.5305  2.0556
  616SOL     OW 1846   1.110   1.543   2.143 -0.3621  0.4608  0.2177
  616SOL    HW1 1847   1.005   1.553   2.139 -0.9360 -1.2226  3.0441
  616SOL    HW2 1848   1.163   1.581   2.063 -3.1347 -0.1365  0.1244
  617SOL     OW 1849   3.011   1.550   1.656  0.4215  0.6158  0.2906
  617SOL    HW1 1850   3.017   1.504   1.748 -1.4501 -0.0404 -0.8153
  617SOL    HW2 1851   3.052   1.497   1.573  0.8548  0.6851 -2.2114
  618SOL     OW 1852   1.947   1.951   1.436  0.5835  0.0922  0.2871
  618SOL    HW1 1853   2.034   1.982   1.385  0.8261  0.1950 -0.8333
  618SOL    HW2 1854   1.964   1.861   1.491  0.6223  0.8835  1.3361
  619SOL     OW 1855   1.715   0.479   2.345  0.5324  0.4640 -0.3132
  619SOL    HW1 1856   1.661   0.554   2.305 -1.1536  2.3244  0.5133
  619SOL    HW2 1857   1.659   0.396   2.363 -1.4043  4.2944  1.6223
  620SOL     OW 1858   2.224   2.938   0.601  0.6569 -0.0090  0.7422
  620SOL    HW1 1859   2.146   3.002   0.586  0.6965 -1.5285  1.0074
  620SOL    HW2 1860   2.236   2.914   0.704  1.0322  0.2220  0.5052
  621SOL     OW 1861   2.238   1.893   1.366  0.2716 -0.0827 -0.2087
  621SOL    HW1 1862   2.215   1.909   1.468  0.6235  0.4942 -2.0575
  621SOL    HW2 1863   2.223   1.796   1.334  0.2271  0.4484 -1.0130
  622SOL     OW 1864   2.236   0.908   1.802  0.0786 -0.1200  0.7531
  622SOL    HW1 1865   2.326   0.856   1.820  3.0117  1.6573  1.0340
  622SOL    HW2 1866   2.151   0.866   1.835  0.2122  0.7241 -0.2249
  623SOL     OW 1867   1.322   0.805   2.565 -0.3759  0.3411  0.1644
  623SOL    HW1 1868   1.263   0.773   2.648 -0.7571 -0.2239 -1.5246
  623SOL    HW2 1869   1.256   0.831   2.483 -1.3599  1.5433  0.6089
  624SOL     OW 1870   0.517   0.702   0.012  0.0538 -0.7504  0.7479
  624SOL    HW1 1871   0.566   0.733  -0.075  3.4268 -0.1479 -4.5130
  624SOL    HW2 1872   0.495   0.773   0.082 -2.3925  1.2667 -0.0631
  625SOL     OW 1873   2.741   1.686   0.889 -0.5699  0.0008 -0.2276
  625SOL    HW1 1874   2.682   1.728   0.967  0.1965  0.9805  1.2372
  625SOL    HW2 1875   2.712   1.592   0.853 -0.5881 -0.1533  0.6296
  626SOL     OW 1876   0.501   2.757   1.933 -0.2559 -0.6090  0.6942
  626SOL    HW1 1877   0.570   2.822   1.893 -1.2139 -1.5797  0.2503
  626SOL    HW2 1878   0.403   2.778   1.914 -0.6965  1.6441  3.2466
  627SOL     OW 1879   0.745   1.066   1.513 -0.0407  0.7459 -0.1875
  627SOL    HW1 1880   0.764   0.966   1.482  1.6800  2.2327  1.1848
  627SOL    HW2 1881   0.795   1.144   1.466 -1.6616  2.2624 -0.2344
  628SOL     OW 1882   2.423   0.180   0.717 -0.0578  0.2125  0.4132
  628SOL    HW1 1883   2.449   0.110   0.646 -1.0557 -1.8971 -1.0573
  628SOL    HW2 1884   2.323   0.202   0.697  1.4659 -0.3800 -0.2466
  629SOL     OW 1885   1.965   0.945   1.977 -0.0349  0.0630  0.0934
  629SOL    HW1 1886   2.061   0.959   2.019 -1.2598  0.9722 -0.7258
  629SOL    HW2 1887   1.901   1.030   1.974 -1.9455  1.4415 -2.2555
  630SOL     OW 1888   2.766   2.188   0.771  1.4393 -0.1219 -0.1051
  630SOL    HW1 1889   2.681   2.230   0.803 -0.5036 -0.4461  0.3096
  630SOL    HW2 1890   2.752   2.096   0.735 -0.4349  3.9149  1.7212
  631SOL     OW 1891   3.013   0.216   2.104  0.2217  0.0157  0.1539
  631SOL    HW1 1892   3.087   0.227   2.180  2.8088  1.0504  1.1265
  631SOL    HW2 1893   3.052   0.177   2.014  1.5013  0.3946  0.6504
  632SOL     OW 1894   2.298   2.533   0.716 -0.0174  0.7439  1.8436
  632SOL    HW1 1895   2.358   2.613   0.748 -1.3485 -1.3960  2.5098
  632SOL    HW2 1896   2.269   2.530   0.615 -1.9444  3.2939  0.5516
  633SOL     OW 1897   1.606   1.283   2.576 -0.2706  0.0794  0.2063
  633SOL    HW1 1898   1.601   1.345   2.663 -0.9360  0.4603  0.6347
  633SOL    HW2 1899   1.512   1.257   2.538  0.2158  0.7690 -2.2589
  634SOL     OW 1900   0.641   2.049   1.006 -0.1003  0.6315  0.0375
  634SOL    HW1 1901   0.569   2.092   1.065 -0.4755 -0.4541 -0.5776
  634SOL    HW2 1902   0.714   2.114   0.966  3.3745  3.0582 -0.8664
  635SOL     OW 1903   0.056   2.281   3.085 -0.0192 -0.4610  0.5260
  635SOL    HW1 1904  -0.001   2.292   2.999  0.5686 -3.0433  0.4913
  635SOL    HW2 1905   0.074   2.370   3.141  1.7792 -0.1792  1.6777
  636SOL     OW 1906   2.282   2.842   2.022  0.5325  1.1834 -0.1187
  636SOL    HW1 1907   2.288   2.942   2.051  1.2573  0.1859  2.7587
  636SOL    HW2 1908   2.231   2.780   2.099  0.2302  2.8845 -0.1903
  637SOL     OW 1909   2.539   0.732   2.053 -0.0708  0.4634  0.2244
  637SOL    HW1 1910   2.521   0.706   1.955  0.6037 -0.1726 -0.8228
  637SOL    HW2 1911   2.608   0.810   2.056  1.3384 -0.5886 -2.4355
  638SOL     OW 1912   2.506   1.863   1.344 -1.0059  0.0552  0.6913
  638SOL    HW1 1913   2.407   1.878   1.352  3.2569  0.3196 -0.2652
  638SOL    HW2 1914   2.544   1.771   1.382  1.5931  0.7236 -0.3339
  639SOL     OW 1915   1.306   2.240   1.618 -0.2133  0.3517 -0.0372
  639SOL    HW1 1916   1.298   2.214   1.521 -1.2312 -1.1839 -0.7847
  639SOL    HW2 1917   1.219   2.213   1.668 -0.8485 -1.1958  0.2577
  640SOL     OW 1918   0.194   1.207   1.546  0.8081  0.0325 -0.1956
  640SOL    HW1 1919   0.173   1.263   1.631  0.8275  3.0750 -3.3379
  640SOL    HW2 1920   0.269   1.129   1.555  1.0858 -0.0550 -0.4942
  641SOL     OW 1921   1.964   0.184   1.457 -0.9266  1.2038 -0.4485
  641SOL    HW1 1922   1.881   0.246   1.460 -0.7752  0.0541  1.1592
  641SOL    HW2 1923   1.977   0.136   1.546  0.2063 -3.6626  0.6019
  642SOL     OW 1924   1.991   0.093   0.317  0.2217 -0.1060  0.3094
  642SOL    HW1 1925   2.092   0.090   0.325 -0.6312  2.1764  0.5671
  642SOL    HW2 1926   1.944   0.068   0.405 -1.2245  0.9486  1.4647
  643SOL     OW 1927   2.845   1.875   2.092 -0.4012  0.0989  0.2516
  643SOL    HW1 1928   2.777   1.803   2.064 -0.8859  1.0777 -2.3432
  643SOL    HW2 1929   2.843   1.951   2.022 -1.0522 -0.9895  0.7640
  644SOL     OW 1930   2.195   2.289   1.227 -0.0108 -0.1853  0.5394
  644SOL    HW1 1931   2.287   2.282   1.182  0.7436  2.5585  0.2801
  644SOL    HW2 1932   2.188   2.313   1.325 -0.9900  0.5580 -0.9628
  645SOL     OW 1933   0.598   0.815   1.160  0.0143  0.1474 -0.0373
  645SOL    HW1 1934   0.564   0.737   1.099  2.1074  0.3939  0.2098
  645SOL    HW2 1935   0.602   0.898   1.099 -0.6191 -0.2137  3.0226
  646SOL     OW 1936   1.506   1.963   1.806 -0.1622  0.3646 -0.3840
  646SOL    HW1 1937   1.585   2.023   1.788 -1.4844  1.6586  0.2724
  646SOL    HW2 1938   1.435   2.003   1.871 -1.7401  0.0754  0.7542
  647SOL     OW 1939   0.871   0.930   0.655  0.6951  0.0236 -0.3095
  647SOL    HW1 1940   0.966   0.930   0.697 -0.5518 -0.2845  1.6068
  647SOL    HW2 1941   0.801   0.882   0.710  1.5533 -0.4279  0.6861
  648SOL     OW 1942   0.204   0.194   0.319  0.1323  0.5792  0.1142
  648SOL    HW1 1943   0.218   0.118   0.246  1.3421 -1.2097  0.2850
  648SOL    HW2 1944   0.183   0.285   0.267 -0.7809  5.1768 -1.1335
  649SOL     OW 1945   3.091   0.117   0.939  0.0948 -0.2657  0.1766
  649SOL    HW1 1946   3.188   0.115   0.904 -1.7219 -0.4409 -0.5223
  649SOL    HW2 1947   3.094   0.160   1.031 -2.5987  1.0311  0.3299
  650SOL     OW 1948   2.723   0.720   1.428  0.2951  0.0798  0.4244
  650SOL    HW1 1949   2.624   0.717   1.470 -2.5350 -2.9918  2.1302
  650SOL    HW2 1950   2.740   0.801   1.361  1.8075 -0.2468  0.3659
  651SOL     OW 1951   0.900   1.588   1.606 -0.1567 -0.5239 -0.3234
  651SOL    HW1 1952   0.979   1.653   1.615 -0.3876 -0.2393  0.4293
  651SOL    HW2 1953   0.859   1.608   1.517 -1.0880 -0.7899  2.3857
  652SOL     OW 1954   2.268   2.509   2.377  0.6120  0.3710 -0.4717
  652SOL    HW1 1955   2.214   2.518   2.459 -0.9119 -0.5007 -0.7439
  652SOL    HW2 1956   2.229   2.564   2.296  0.7330 -0.6439  0.8171
  653SOL     OW 1957   2.695   1.185   0.283 -0.0435  0.0619 -0.1833
  653SOL    HW1 1958   2.757   1.273   0.298  1.9087  2.4725  0.8715
  653SOL    HW2 1959   2.740   1.096   0.306 -0.8004  0.0935 -2.6841
  654SOL     OW 1960   1.270   2.276   1.218 -0.8174 -0.0840  0.0368
  654SOL    HW1 1961   1.299   2.189   1.270  2.2927  0.2338 -0.2853
  654SOL    HW2 1962   1.294   2.280   1.114 -3.9146  1.6412 -3.3963
  655SOL     OW 1963   0.218   1.046   1.853  0.5930  0.7048  0.0832
  655SOL    HW1 1964   0.271   0.953   1.831  1.2742 -1.4238 -2.7150
  655SOL    HW2 1965   0.274   1.133   1.847 -0.9029  1.7821 -0.5861
  656SOL     OW 1966   2.508   2.482   2.556  0.0042 -0.2816 -0.1495
  656SOL    HW1 1967   2.604   2.477   2.524 -3.0822  0.5209 -1.8214
  656SOL    HW2 1968   2.467   2.574   2.528 -0.6500 -1.7244  0.5974
  657SOL     OW 1969   3.054   1.095   1.857 -0.0049  0.3992  0.0296
  657SOL    HW1 1970   3.043   1.175   1.922 -0.2093  0.4484 -3.8155
  657SOL    HW2 1971   3.147   1.048   1.867 -0.5783 -0.3621  0.4713
  658SOL     OW 1972   1.644   0.188   2.368  0.1306  0.4972 -0.4748
  658SOL    HW1 1973   1.676   0.106   2.428  0.5542 -0.3212 -3.0707
  658SOL    HW2 1974   1.701   0.207   2.287  1.2124  1.3027  4.0488
  659SOL     OW 1975   1.409   0.564   2.888 -0.1513  0.2390 -0.2918
  659SOL    HW1 1976   1.480   0.628   2.925  1.2683 -1.5983 -1.8209
  659SOL    HW2 1977   1.341   0.617   2.832  1.3759 -1.3871 -1.3973
  660SOL     OW 1978   1.421   0.384   1.402  0.0155  0.5557 -0.0584
  660SOL    HW1 1979   1.456   0.382   1.500 -3.2653  2.7683 -1.3164
  660SOL    HW2 1980   1.478   0.330   1.338 -0.6855 -1.5276  0.1557
  661SOL     OW 1981   2.483   1.165   0.663 -0.1164 -0.5027 -0.3278
  661SOL    HW1 1982   2.488   1.096   0.583 -0.5898  0.7939 -1.0868
  661SOL    HW2 1983   2.417   1.241   0.647  1.7991 -1.6458 -0.0606
  662SOL     OW 1984   1.316   0.427   1.828 -0.1333  0.1503 -0.3767
  662SOL    HW1 1985   1.247   0.349   1.810 -1.4227  1.4516  0.8905
  662SOL    HW2 1986   1.294   0.476   1.917 -1.4888 -1.0768 -1.3986
  663SOL     OW 1987   0.837   1.591   2.162 -0.0307 -0.2730 -0.3075
  663SOL    HW1 1988   0.832   1.697   2.169  0.9090  0.5029 -2.1656
  663SOL    HW2 1989   0.771   1.558   2.088  0.2115  1.5800  0.8331
  664SOL     OW 1990   1.682   2.016   1.386 -0.2593  0.1883  0.3100
  664SOL    HW1 1991   1.609   1.976   1.450  0.9021 -2.8470  0.5452
  664SOL    HW2 1992   1.777   1.985   1.415  0.6725  1.0920 -0.9883
  665SOL     OW 1993   2.236   0.624   1.973  0.4426 -0.2511  0.3148
  665SOL    HW1 1994   2.254   0.536   2.026  4.8068 -0.5634  2.0345
  665SOL    HW2 1995   2.218   0.700   2.042 -0.9785  0.2170  1.2948
  666SOL     OW 1996   0.490   2.294   0.469 -0.2046  0.3281 -0.6678
  666SOL    HW1 1997   0.539   2.379   0.487 -0.6784 -2.1623 -1.2705
  666SOL    HW2 1998   0.443   2.264   0.559 -0.8457 -1.2437  0.6244
  667SOL     OW 1999   2.059   0.282   1.008  0.7458  0.1925 -0.1164
  667SOL    HW1 2000   2.089   0.379   1.002 -0.0872 -1.2197 -1.7712
  667SOL    HW2 2001   2.004   0.267   1.099  0.0612  2.9172  1.1488
  668SOL     OW 2002   1.993   0.500   1.192  0.0188 -0.4006  0.3390
  668SOL    HW1 2003   2.060   0.549   1.135 -0.9672 -0.5931 -0.3122
  668SOL    HW2 2004   2.032   0.467   1.286 -0.4264 -3.1260  0.2263
  669SOL     OW 2005   2.997   2.083   0.909 -0.0679 -0.2905  0.0656
  669SOL    HW1 2006   2.908   2.100   0.867  0.2607 -0.4272  2.0530
  669SOL    HW2 2007   3.025   2.143   0.983  0.4596  1.7649 -3.8488
  670SOL     OW 2008   2.820   2.342   2.011  0.2442  0.8165 -0.4959
  670SOL    HW1 2009   2.761   2.305   2.091  0.5767 -0.7026  2.0620
  670SOL    HW2 2010   2.799   2.441   1.992 -2.1779 -1.7339  2.0579
  671SOL     OW 2011   1.746   1.642   1.449  0.0045 -0.2788 -0.1011
  671SOL    HW1 2012   1.767   1.678   1.356 -1.9747 -3.0078 -1.5806
  671SOL    HW2 2013   1.669   1.570   1.444  0.5089 -2.7880 -2.2894
  672SOL     OW 2014   0.426   0.656   2.441 -0.1993  0.8466  0.4063
  672SOL    HW1 2015   0.453   0.649   2.336 -1.6663  0.8010 -2.8625
  672SOL    HW2 2016   0.344   0.714   2.457  0.9621  1.1072 -0.4955
  673SOL     OW 2017   0.183   1.205   1.143  0.1829 -0.2180 -0.3349
  673SOL    HW1 2018   0.222   1.269   1.217  0.3495 -2.4695 -1.4660
  673SOL    HW2 2019   0.258   1.147   1.098 -0.1842  3.4908 -2.1918
  674SOL     OW 2020   1.524   2.864   0.141 -0.1024 -0.6266  0.0218
  674SOL    HW1 2021   1.596   2.936   0.111 -0.6062 -1.1517 -0.6190
  674SOL    HW2 2022   1.562   2.774   0.120  0.4367  0.9411  0.4615
  675SOL     OW 2023   1.703   0.816   2.334  0.1437 -0.0643  0.2830
  675SOL    HW1 2024   1.792   0.762   2.328  1.9005 -2.6281  1.9307
  675SOL    HW2 2025   1.617   0.759   2.303 -2.1799 -3.0501 -1.4270
  676SOL     OW 2026   2.497   1.514   1.990 -0.3574 -0.6923  0.2221
  676SOL    HW1 2027   2.438   1.483   1.915  0.1791  0.4249 -1.6815
  676SOL    HW2 2028   2.541   1.433   2.036  0.9146  0.9591 -3.0778
  677SOL     OW 2029   1.789   0.559   0.982  0.0213 -0.7568 -0.0155
  677SOL    HW1 2030   1.866   0.538   1.048  2.4672 -0.8954 -1.7655
  677SOL    HW2 2031   1.723   0.482   0.975  0.7695 -2.2195 -1.8646
  678SOL     OW 2032   0.077   0.765   1.676  0.0634  0.6909  0.5414
  678SOL    HW1 2033   0.155   0.816   1.721 -0.1695  2.2287  0.9680
  678SOL    HW2 2034  -0.011   0.784   1.723  1.4320 -0.8051  0.1919
  679SOL     OW 2035   2.527   1.199   1.068  0.5586 -0.3824  0.9384
  679SOL    HW1 2036   2.474   1.221   1.151 -1.1268 -0.1394 -0.3752
  679SOL    HW2 2037   2.502   1.109   1.029 -0.6489  2.7197 -0.5184
  680SOL     OW 2038   2.841   0.630   1.660 -0.2276 -0.0465 -0.3492
  680SOL    HW1 2039   2.794   0.678   1.581 -0.2055  1.8814  0.3466
  680SOL    HW2 2040   2.887   0.697   1.725  1.0149  0.3452  0.4018
  681SOL     OW 2041   3.013   0.167   1.623 -0.1092  0.2776  0.5337
  681SOL    HW1 2042   3.101   0.149   1.574 -1.1165 -0.2016  1.6156
  681SOL    HW2 2043   2.977   0.263   1.602 -0.1874  1.7188  1.3227
  682SOL     OW 2044   0.766   0.050   1.390 -0.3125  0.4448 -0.4250
  682SOL    HW1 2045   0.678   0.000   1.411 -1.1731  0.2194  2.2242
  682SOL    HW2 2046   0.795   0.034   1.289 -0.8865 -0.5321 -2.7987
  683SOL     OW 2047   1.408   0.238   2.174 -0.0481 -0.2146  0.2721
  683SOL    HW1 2048   1.365   0.282   2.259  0.6374 -0.5682  0.6706
  683SOL    HW2 2049   1.494   0.281   2.133 -1.8550 -0.7501 -1.7113
  684SOL     OW 2050   1.438   2.144   0.490 -0.1049 -0.0798 -0.0038
  684SOL    HW1 2051   1.493   2.061   0.523  0.5899  1.0441  0.1286
  684SOL    HW2 2052   1.355   2.115   0.433  0.1848 -0.1604 -1.5011
  685SOL     OW 2053   2.170   1.888   1.926 -0.6228 -0.6734  0.3812
  685SOL    HW1 2054   2.190   1.970   1.865  0.2029  0.2723 -0.1200
  685SOL    HW2 2055   2.253   1.844   1.981  0.4491 -1.9228  0.1938
  686SOL     OW 2056   1.577   1.746   2.723  0.2332  0.3934  0.2570
  686SOL    HW1 2057   1.590   1.641   2.733 -0.1156 -1.3758  3.5910
  686SOL    HW2 2058   1.613   1.797   2.804 -2.1804 -1.2481  4.6680
  687SOL     OW 2059   1.348   2.521   1.920 -0.2293 -0.0724  0.3494
  687SOL    HW1 2060   1.392   2.455   1.851  2.1660  0.4342  2.1537
  687SOL    HW2 2061   1.424   2.548   1.992  1.7269  2.3056  1.4988
  688SOL     OW 2062   2.084   1.388   1.638  0.1629  0.0216  0.2837
  688SOL    HW1 2063   2.176   1.408   1.596 -1.4466  1.2281  0.5075
  688SOL    HW2 2064   2.028   1.325   1.578  0.6129 -0.9536 -0.2440
  689SOL     OW 2065   2.454   1.115   2.764 -0.2333  0.0572 -0.2599
  689SOL    HW1 2066   2.349   1.097   2.776  0.4057 -1.3194  2.3253
  689SOL    HW2 2067   2.506   1.086   2.850  1.6976  1.0623  1.4357
  690SOL     OW 2068   2.219   2.815   3.070 -0.2129 -0.3572  0.6804
  690SOL    HW1 2069   2.144   2.761   3.022  1.0668 -0.1114 -3.1684
  690SOL    HW2 2070   2.205   2.810   3.171  0.7765  1.2939 -1.2560
  691SOL     OW 2071   2.561   0.477   2.173 -0.6326  0.1221  0.3266
  691SOL    HW1 2072   2.622   0.416   2.117  3.0801  0.9129  0.8581
  691SOL    HW2 2073   2.550   0.572   2.131 -0.5867  1.2614  0.7191
  692SOL     OW 2074   2.758   1.221   0.712 -0.6340 -0.5433 -0.3775
  692SOL    HW1 2075   2.656   1.235   0.704  0.3194 -3.1612 -1.5635
  692SOL    HW2 2076   2.804   1.308   0.748 -0.6933  0.8281  1.8461
  693SOL     OW 2077   2.881   2.985   0.599 -0.1768 -0.4844 -0.3582
  693SOL    HW1 2078   2.889   3.075   0.646  1.4830  1.0672  0.0289
  693SOL    HW2 2079   2.808   2.995   0.530 -0.1097 -1.0438 -1.4385
  694SOL     OW 2080   2.376   2.194   0.065 -0.6918 -0.8487 -0.2048
  694SOL    HW1 2081   2.358   2.277   0.120  0.8844  1.0953  0.4770
  694SOL    HW2 2082   2.294   2.148   0.034  3.0430  0.1554  1.6193
  695SOL     OW 2083   0.531   3.008   1.469 -0.0333 -0.2079  0.4130
  695SOL    HW1 2084   0.508   2.904   1.461  0.6099 -2.0831 -1.0624
  695SOL    HW2 2085   0.468   3.050   1.541  0.5427 -1.0999  0.7964
  696SOL     OW 2086   2.698   1.907   0.725  0.5395  0.2553 -0.2505
  696SOL    HW1 2087   2.708   1.816   0.774  2.0602  1.1182 -0.6144
  696SOL    HW2 2088   2.667   1.892   0.627 -3.0223  0.9120  4.2425
  697SOL     OW 2089   1.735   2.098   1.748 -0.5842  0.1581 -0.1567
  697SOL    HW1 2090   1.793   2.026   1.795  1.6477  2.0864  3.6738
  697SOL    HW2 2091   1.789   2.189   1.738  0.5029  1.9697  0.9229
  698SOL     OW 2092   2.931   0.378   2.734  0.4203 -0.4088 -0.1676
  698SOL    HW1 2093   2.887   0.342   2.647 -0.7613  1.7920  1.0821
  698SOL    HW2 2094   2.994   0.305   2.782 -0.0626 -4.2450  3.6285
  699SOL     OW 2095   1.564   0.063   2.933  0.2110  0.1729  0.1219
  699SOL    HW1 2096   1.501  -0.001   2.881 -0.2419  2.3959 -2.1858
  699SOL    HW2 2097   1.609   0.135   2.876 -0.1580 -2.1549 -2.3199
  700SOL     OW 2098   1.027   2.370   1.367  0.5213 -0.0081  0.4962
  700SOL    HW1 2099   1.125   2.323   1.361  0.2376 -0.1780 -0.8654
  700SOL    HW2 2100   0.961   2.345   1.292  0.3988  0.8085 -0.4569
  701SOL     OW 2101   1.870   2.830   0.045 -0.3882 -0.1230 -0.2577
  701SOL    HW1 2102   1.877   2.769   0.127 -1.1188  4.3796  1.0901
  701SOL    HW2 2103   1.916   2.925   0.049 -1.1452  0.9950 -2.4073
  702SOL     OW 2104   2.089   1.391   1.908 -0.2041  0.5355 -0.2302
  702SOL    HW1 2105   2.169   1.323   1.898  0.1157  1.3509  0.7153
  702SOL    HW2 2106   2.058   1.410   1.813 -1.8351 -0.8178 -1.7179
  703SOL     OW 2107   1.951   0.819   1.423  0.0568  0.2531  0.2940
  703SOL    HW1 2108   1.946   0.730   1.471 -0.7888  1.8635 -1.6359
  703SOL    HW2 2109   2.005   0.890   1.475  1.1177  0.7005 -0.9152
  704SOL     OW 2110   0.311   2.026   1.692 -0.1049 -0.0732  0.4798
  704SOL    HW1 2111   0.338   1.973   1.772 -1.3796  2.0159 -1.6696
  704SOL    HW2 2112   0.383   2.100   1.683  1.3392 -1.3547 -0.5957
  705SOL     OW 2113   2.518   1.404   0.888  0.2253 -0.0243 -0.4749
  705SOL    HW1 2114   2.423   1.395   0.839 -3.3359  1.3027 -0.7079
  705SOL    HW2 2115   2.556   1.314   0.913 -0.7479  0.5305 -0.4029
  706SOL     OW 2116   0.665   1.760   1.849  0.6495  0.5574  0.3494
  706SOL    HW1 2117   0.700   1.668   1.883  0.8073 -3.1357  3.1696
  706SOL    HW2 2118   0.719   1.839   1.883 -0.1498 -1.6919  0.9079
  707SOL     OW 2119   2.275   1.187   1.848  0.1383  0.8711  0.7490
  707SOL    HW1 2120   2.363   1.171   1.900 -0.9617  1.5325  0.0543
  707SOL    HW2 2121   2.234   1.095   1.816 -2.1196 -1.2172 -1.1442
  708SOL     OW 2122   3.077   0.465   3.024  0.2335  0.1414  0.2660
  708SOL    HW1 2123   3.073   0.538   2.951  1.4701 -2.1382 -0.0872
  708SOL    HW2 2124   3.113   0.372   2.996 -0.0700 -0.5217 -3.2247
  709SOL     OW 2125   1.827   1.815   0.296  0.0801  0.7328  0.0752
  709SOL    HW1 2126   1.858   1.910   0.309 -0.4204 -1.2897 -0.3947
  709SOL    HW2 2127   1.815   1.796   0.193  0.6539  0.7664 -3.0177
  710SOL     OW 2128   1.724   1.624   2.464  0.1235  0.9096  0.2203
  710SOL    HW1 2129   1.780   1.586   2.382  0.2978  0.4507 -1.8029
  710SOL    HW2 2130   1.767   1.597   2.555  3.1796  0.7386  2.8901
  711SOL     OW 2131   2.639   2.928   0.966 -0.4737  0.0814  0.0015
  711SOL    HW1 2132   2.604   3.022   0.945  1.6044  2.5543 -0.9912
  711SOL    HW2 2133   2.738   2.925   1.008  1.4840 -2.7929  4.3738
  712SOL     OW 2134   1.511   2.348   1.771 -0.2044 -0.8025  0.0677
  712SOL    HW1 2135   1.586   2.298   1.824 -0.6742 -2.1994  0.8142
  712SOL    HW2 2136   1.461   2.284   1.706  2.7386  0.5220  0.0329
  713SOL     OW 2137   2.807   1.433   2.465  0.2397 -0.5370  0.5463
  713SOL    HW1 2138   2.797   1.332   2.452 -1.2091  1.7547 -1.8139
  713SOL    HW2 2139   2.757   1.475   2.544 -3.0100 -4.0865  1.6756
  714SOL     OW 2140   2.613   0.474   2.438  0.7660 -0.3496  0.8733
  714SOL    HW1 2141   2.536   0.430   2.494 -2.9686  1.4962 -0.0834
  714SOL    HW2 2142   2.591   0.479   2.334 -0.7945  0.5869 -0.0536
  715SOL     OW 2143   1.570   2.098   1.131  0.1108  0.0913 -0.2631
  715SOL    HW1 2144   1.509   2.182   1.136 -1.4080  1.3577  1.2567
  715SOL    HW2 2145   1.608   2.080   1.228  2.0319 -2.2201 -0.9063
  716SOL     OW 2146   1.233   0.217   1.502  0.2442 -0.6550 -0.0981
  716SOL    HW1 2147   1.133   0.243   1.486  0.8204 -0.7193 -1.4968
  716SOL    HW2 2148   1.299   0.287   1.457  1.1835 -0.9451 -1.8764
  717SOL     OW 2149   1.090   0.598   1.614  0.0467  0.6751 -0.0015
  717SOL    HW1 2150   1.192   0.588   1.633 -1.9169  0.8332 -0.6683
  717SOL    HW2 2151   1.068   0.615   1.513 -1.9069 -0.1103  1.5583
  718SOL     OW 2152   0.631   1.042   1.008 -0.4548  1.1751 -0.4337
  718SOL    HW1 2153   0.607   1.009   0.910 -1.4975  0.6572  1.0221
  718SOL    HW2 2154   0.704   1.118   1.016  0.0081 -1.7928 -0.2846
  719SOL     OW 2155   0.794   1.884   2.239  0.2438  0.0171 -0.4850
  719SOL    HW1 2156   0.858   1.867   2.316  0.1103  0.5375 -2.4292
  719SOL    HW2 2157   0.691   1.909   2.258 -1.7878  0.8190 -1.9258
  720SOL     OW 2158   2.210   1.079   0.246  0.1685 -0.1125 -0.3698
  720SOL    HW1 2159   2.304   1.043   0.228  0.9339  3.1263  1.0789
  720SOL    HW2 2160   2.176   1.053   0.337  0.7519  1.3797 -0.7882
  721SOL     OW 2161   2.294   0.006   2.038 -0.8961 -0.4942  0.0534
  721SOL    HW1 2162   2.312   0.063   1.954 -1.4340 -0.2656 -0.8504
  721SOL    HW2 2163   2.193  -0.020   2.044 -0.7855 -0.6631  0.0129
  722SOL     OW 2164   2.397   1.671   0.532 -0.1358 -0.1223 -1.1306
  722SOL    HW1 2165   2.369   1.640   0.438  0.0260  0.2970  0.5792
  722SOL    HW2 2166   2.317   1.663   0.599 -1.6145  3.8220 -0.5855
  723SOL     OW 2167   2.549   2.831   1.939  0.1393  0.3475 -0.2508
  723SOL    HW1 2168   2.613   2.874   2.010 -0.5279 -0.7263  0.7930
  723SOL    HW2 2169   2.449   2.852   1.956 -2.5465  0.2574  1.5882
  724SOL     OW 2170   0.474   2.442   2.445 -0.4147 -0.4630  0.1294
  724SOL    HW1 2171   0.373   2.464   2.433 -0.3912  1.3107  2.8413
  724SOL    HW2 2172   0.495   2.427   2.544 -2.4633 -0.0531 -1.8872
  725SOL     OW 2173   2.386   2.761   1.440 -0.7971 -0.0507 -0.4375
  725SOL    HW1 2174   2.431   2.784   1.346 -0.2748 -0.0057  0.3436
  725SOL    HW2 2175   2.409   2.662   1.462 -0.5080  2.1531 -2.5030
  726SOL     OW 2176   2.390   2.257   0.704 -0.1898  0.1131  0.0664
  726SOL    HW1 2177   2.370   2.362   0.691  3.1212  1.1486 -0.5369
  726SOL    HW2 2178   2.394   2.204   0.616 -0.8622 -0.4751 -2.0497
  727SOL     OW 2179   0.220   0.006   0.121 -0.2935  0.2351 -0.0455
  727SOL    HW1 2180   0.263  -0.088   0.117  2.3005 -1.2439  1.7546
  727SOL    HW2 2181   0.223   0.055   0.029 -0.7386  0.4823 -0.4138
  728SOL     OW 2182   2.766   0.687   0.997 -0.4150  0.0803  0.1603
  728SOL    HW1 2183   2.717   0.647   0.911 -1.7588 -0.9397 -1.5902
  728SOL    HW2 2184   2.794   0.620   1.076 -1.6816 -0.0894 -1.2772
  729SOL     OW 2185   2.906   2.462   0.690 -0.2795  0.2555  0.2831
  729SOL    HW1 2186   2.872   2.360   0.685 -1.7804 -0.7359 -2.0289
  729SOL    HW2 2187   3.001   2.477   0.731 -1.0044  0.8897 -1.4178
  730SOL     OW 2188   2.576   0.590   0.803 -0.2438  0.5345  0.8571
  730SOL    HW1 2189   2.535   0.672   0.747 -1.3668  3.2251  0.1941
  730SOL    HW2 2190   2.655   0.546   0.750  2.1081  0.3973  3.1121
  731SOL     OW 2191   0.013   2.110   2.466  0.0305 -0.1836 -0.0383
  731SOL    HW1 2192   0.069   2.160   2.544  3.0286  3.4693  2.7412
  731SOL    HW2 2193  -0.066   2.167   2.423  2.7280  2.7102  0.7149
  732SOL     OW 2194   1.107   2.898   1.950  0.1379 -0.1171  0.0983
  732SOL    HW1 2195   1.115   2.831   2.030  0.3212 -0.1135  0.1718
  732SOL    HW2 2196   1.153   2.861   1.866  1.3349  4.1812 -0.8825
  733SOL     OW 2197   3.072   0.745   2.046 -0.5534  0.4427 -0.3533
  733SOL    HW1 2198   3.166   0.781   2.061 -3.0602  0.7900 -1.3829
  733SOL    HW2 2199   3.064   0.637   2.035  0.0868 -1.9332 -1.1939
  734SOL     OW 2200   1.408   0.334   2.736  0.0979  0.0273 -0.4272
  734SOL    HW1 2201   1.404   0.427   2.786 -1.6156  1.5909  0.7850
  734SOL    HW2 2202   1.326   0.277   2.758  0.4872  1.3260 -0.6829
  735SOL     OW 2203   2.864   2.607   2.260 -0.3536 -0.2933  0.5152
  735SOL    HW1 2204   2.835   2.629   2.161  0.0294 -1.5859  1.2785
  735SOL    HW2 2205   2.965   2.581   2.263  1.2813  0.7473  0.3939
  736SOL     OW 2206   0.781   0.397   2.663  0.5409  0.4691  0.5498
  736SOL    HW1 2207   0.750   0.496   2.666  0.3563  0.6823 -1.8003
  736SOL    HW2 2208   0.766   0.352   2.563  1.3382 -0.6162 -2.3951
  737SOL     OW 2209   2.657   0.499   2.859  0.5572 -0.6195  0.0445
  737SOL    HW1 2210   2.661   0.468   2.958  2.8188  1.8837 -1.7040
  737SOL    HW2 2211   2.737   0.469   2.803 -1.4201  1.9185  0.8234
  738SOL     OW 2212   1.618   1.221   2.983  0.4521 -0.0768  0.4904
  738SOL    HW1 2213   1.719   1.187   2.965  2.8381  0.6991 -1.0650
  738SOL    HW2 2214   1.541   1.178   2.926  0.2555 -2.1993  1.1217
  739SOL     OW 2215   1.810   0.662   0.699 -0.0914 -0.4349 -0.5578
  739SOL    HW1 2216   1.793   0.626   0.796  0.6732 -1.1907  1.4183
  739SOL    HW2 2217   1.839   0.587   0.630  1.2850  0.9454 -1.5959
  740SOL     OW 2218   1.964   1.867   2.188  0.1460 -0.0733 -0.6634
  740SOL    HW1 2219   2.053   1.839   2.140  1.2629 -0.7424 -1.6559
  740SOL    HW2 2220   1.879   1.842   2.134  0.5728 -2.3476  2.7280
  741SOL     OW 2221   2.481   0.049   2.614 -0.1692  0.6711 -0.8815
  741SOL    HW1 2222   2.587   0.038   2.623  2.6209  0.9392  0.6728
  741SOL    HW2 2223   2.455   0.040   2.515  0.4183  0.5437 -0.3635
  742SOL     OW 2224   2.231   1.375   0.127 -0.1880  0.2371 -0.3236
  742SOL    HW1 2225   2.137   1.422   0.135 -1.2787  0.5859 -0.1887
  742SOL    HW2 2226   2.239   1.292   0.192  0.4467  0.3173 -0.7557
  743SOL     OW 2227   1.746   0.596   2.621 -0.0734 -0.4053  0.5310
  743SOL    HW1 2228   1.726   0.548   2.532 -0.8438  1.6049  0.7257
  743SOL    HW2 2229   1.675   0.673   2.638 -0.9396  1.6846 -0.9262
  744SOL     OW 2230   2.665   2.100   0.029 -0.0633  0.0216  0.1293
  744SOL    HW1 2231   2.574   2.123   0.061  1.2336  2.0512  0.0715
  744SOL    HW2 2232   2.719   2.056   0.108  1.1289 -0.6384  0.1735
  745SOL     OW 2233   2.146   2.712   2.201  0.3381  0.0245  0.1499
  745SOL    HW1 2234   2.059   2.669   2.160  0.9661 -1.3264 -0.0339
  745SOL    HW2 2235   2.134   2.783   2.275  0.6596  1.8719  1.2864
  746SOL     OW 2236   3.080   2.577   1.817  0.3918  0.5919 -0.2256
  746SOL    HW1 2237   3.160   2.589   1.755 -2.2802 -1.5106 -2.2303
  746SOL    HW2 2238   3.029   2.663   1.841 -0.6406  0.0100 -1.0663
  747SOL     OW 2239   3.079   1.806   1.677 -0.7348  0.2778  0.1017
  747SOL    HW1 2240   3.045   1.706   1.668  2.0276  0.1376  0.0810
  747SOL    HW2 2241   3.139   1.842   1.599  0.6208  1.1741 -0.5116
  748SOL     OW 2242   1.784   2.692   2.882 -0.4273  0.2173  0.0919
  748SOL    HW1 2243   1.772   2.748   2.970 -0.2792 -1.3672 -0.3032
  748SOL    HW2 2244   1.692   2.690   2.834  1.4688  1.6907  1.4372
  749SOL     OW 2245   1.305   0.035   0.830 -0.3682  0.5368 -0.1913
  749SOL    HW1 2246   1.257  -0.052   0.840  0.8795 -0.2252  2.0322
  749SOL    HW2 2247   1.316   0.058   0.730 -3.8772 -1.3985 -1.1032
  750SOL     OW 2248   2.318   0.231   1.885  0.3317 -0.0869 -0.5794
  750SOL    HW1 2249   2.370   0.292   1.811  3.9084 -1.0228 -0.9922
  750SOL    HW2 2250   2.319   0.282   1.975  4.5472 -0.3952  1.0641
  751SOL     OW 2251   0.825   2.203   2.797  0.2823  0.2982  0.4113
  751SOL    HW1 2252   0.895   2.196   2.874  1.9763  0.2586 -0.1799
  751SOL    HW2 2253   0.745   2.142   2.809  1.4919  0.0208  0.3274
  752SOL     OW 2254   1.248   0.894   1.568  0.0003  0.1008  0.5902
  752SOL    HW1 2255   1.324   0.947   1.516 -0.4543 -0.3828 -0.5251
  752SOL    HW2 2256   1.285   0.799   1.592  1.0064 -0.2308  1.1240
  753SOL     OW 2257   0.946   2.616   1.755  0.0126 -0.0763  0.8515
  753SOL    HW1 2258   1.037   2.672   1.743  2.9987  1.4373 -1.7625
  753SOL    HW2 2259   0.865   2.673   1.722 -0.3174  0.2246  0.4291
  754SOL     OW 2260   1.180   1.262   3.050 -0.4481 -0.2029  0.2481
  754SOL    HW1 2261   1.189   1.188   2.982  1.4470  1.1311  1.0768
  754SOL    HW2 2262   1.156   1.357   3.008 -1.0341  2.6863  2.7565
  755SOL     OW 2263   1.948   0.471   2.213  0.2232  0.4099 -0.3878
  755SOL    HW1 2264   2.030   0.430   2.265  1.7091 -0.9940  1.5169
  755SOL    HW2 2265   1.864   0.469   2.276  0.3373 -0.8295 -1.0697
  756SOL     OW 2266   2.641   0.990   2.956 -0.2317  0.5965 -0.5312
  756SOL    HW1 2267   2.740   0.964   2.980 -3.3239  3.0128  0.6049
  756SOL    HW2 2268   2.574   0.913   2.992  0.9272 -2.7587  0.4959
  757SOL     OW 2269   0.092   0.505   1.782  0.9645  0.6150 -0.6270
  757SOL    HW1 2270   0.092   0.601   1.743 -0.2516 -0.6531  0.0977
  757SOL    HW2 2271   0.169   0.452   1.737  1.0247 -0.5404 -3.8384
  758SOL     OW 2272   2.404   3.083   1.475 -0.3167 -0.4670  0.3997
  758SOL    HW1 2273   2.324   3.040   1.520 -0.7717 -1.9364  1.0257
  758SOL    HW2 2274   2.390   3.102   1.373 -0.5233  0.4986 -0.3980
  759SOL     OW 2275   1.674   3.092   0.066  0.1546  0.0891 -0.1849
  759SOL    HW1 2276   1.641   3.110  -0.033 -1.3682 -0.9701 -1.0038
  759SOL    HW2 2277   1.779   3.073   0.065 -2.3766 -1.6455 -0.8051
  760SOL     OW 2278   2.753   2.023   2.772 -0.3982 -0.0410  0.6474
  760SOL    HW1 2279   2.841   1.968   2.767  1.3922 -1.4664 -0.2381
  760SOL    HW2 2280   2.761   2.119   2.743  1.9908 -1.3351 -0.9810
  761SOL     OW 2281   1.950   1.698   1.621 -0.5732 -0.1134 -0.1109
  761SOL    HW1 2282   2.021   1.624   1.625 -1.4353  0.4054  0.5208
  761SOL    HW2 2283   1.876   1.681   1.545  2.1096  2.4707 -0.4639
  762SOL     OW 2284   0.518   2.409   0.961  0.0767 -0.2680 -0.3208
  762SOL    HW1 2285   0.610   2.410   0.910  0.0756  3.2262  3.0991
  762SOL    HW2 2286   0.537   2.455   1.049 -0.0567  1.5425 -1.2998
  763SOL     OW 2287   2.107   1.523   2.984 -0.1673  0.4244  0.1129
  763SOL    HW1 2288   2.170   1.441   2.978  0.2283 -2.1317 -1.9761
  763SOL    HW2 2289   2.024   1.494   3.039 -1.3325  0.8636  2.4001
  764SOL     OW 2290   0.685   0.514   0.908 -0.1874 -0.4429 -0.3579
  764SOL    HW1 2291   0.665   0.420   0.875 -0.4281  0.8929  2.0074
  764SOL    HW2 2292   0.782   0.537   0.932 -0.8985 -2.1062 -0.1005
  765SOL     OW 2293   0.667   0.234   0.806  0.1775  0.1037 -0.4333
  765SOL    HW1 2294   0.761   0.219   0.769 -1.5434 -1.6877 -3.4095
  765SOL    HW2 2295   0.661   0.242   0.906  1.9666  2.0248 -1.2783
  766SOL     OW 2296   2.950   2.090   0.036 -0.5573  0.0937 -0.0060
  766SOL    HW1 2297   2.856   2.106   0.005  2.5777  0.8597 -0.2287
  766SOL    HW2 2298   3.011   2.174   0.038  0.9028  0.0941 -0.4412
  767SOL     OW 2299   2.853   1.541   0.516 -0.8959  0.3795  0.3469
  767SOL    HW1 2300   2.763   1.514   0.566 -1.2687 -2.0869  1.6661
  767SOL    HW2 2301   2.919   1.584   0.578 -0.6983 -2.0220 -0.2658
  768SOL     OW 2302   1.095   0.257   0.310  0.1200  0.2626 -0.2031
  768SOL    HW1 2303   1.026   0.180   0.297 -0.8883 -1.5589  0.2926
  768SOL    HW2 2304   1.192   0.229   0.276 -1.2803 -1.1946 -0.2295
  769SOL     OW 2305   1.188   1.812   2.270  0.1182  0.3129  0.5215
  769SOL    HW1 2306   1.143   1.828   2.355  1.8924 -1.9395 -3.7704
  769SOL    HW2 2307   1.188   1.716   2.240 -1.9813 -1.8698  0.8106
  770SOL     OW 2308   0.166   1.227   2.411 -0.2129 -0.3784 -0.7210
  770SOL    HW1 2309   0.128   1.273   2.503 -2.2473 -0.4028  0.8245
  770SOL    HW2 2310   0.087   1.188   2.353 -2.2308 -0.8655  0.7075
  771SOL     OW 2311   2.968   2.820   1.909 -0.4848  0.4223  0.4981
  771SOL    HW1 2312   2.950   2.875   1.828  1.5662  1.2882 -1.0052
  771SOL    HW2 2313   2.965   2.872   2.002 -0.4130  0.4765  0.9798
  772SOL     OW 2314   2.117   0.109   2.977  0.1289  0.5581  0.3916
  772SOL    HW1 2315   2.206   0.067   2.969 -1.1608  0.7758 -2.2611
  772SOL    HW2 2316   2.126   0.196   3.031 -1.5519 -1.6915 -1.4381
  773SOL     OW 2317   0.680   2.061   2.466  0.0717 -0.1643 -0.2636
  773SOL    HW1 2318   0.647   2.122   2.389 -2.0300  0.6566 -0.7643
  773SOL    HW2 2319   0.616   2.065   2.546  1.7725  0.9329  0.1839
  774SOL     OW 2320   2.035   3.080   2.614  0.0440  0.4817 -0.4907
  774SOL    HW1 2321   2.039   3.181   2.638 -1.4064 -0.2390  1.3328
  774SOL    HW2 2322   2.094   3.012   2.679 -0.1596 -0.0806  1.4815
  775SOL     OW 2323   2.512   2.840   2.371 -0.2311 -0.0519 -0.9667
  775SOL    HW1 2324   2.499   2.943   2.385 -1.1721  2.5795 -0.7709
  775SOL    HW2 2325   2.589   2.795   2.423 -1.0581 -1.2997 -1.5401
  776SOL     OW 2326   0.015   1.251   0.204  0.2923 -0.2383 -0.0327
  776SOL    HW1 2327  -0.024   1.203   0.118  2.0132 -2.0572 -1.6018
  776SOL    HW2 2328  -0.061   1.270   0.269  2.4178  0.2457 -2.2072
  777SOL     OW 2329   0.216   2.689   0.492  0.7738 -0.3138  0.3435
  777SOL    HW1 2330   0.113   2.675   0.498  0.9856 -1.9802 -0.8115
  777SOL    HW2 2331   0.240   2.786   0.517 -1.4029  2.0092 -1.2608
  778SOL     OW 2332   1.323   1.960   0.154 -0.1487  0.0604  0.2100
  778SOL    HW1 2333   1.279   1.964   0.246  0.9023 -0.8342  0.5303
  778SOL    HW2 2334   1.315   2.047   0.100  0.9104  0.4028  1.2025
  779SOL     OW 2335   0.183   0.803   0.492  0.0922  0.5304  0.2276
  779SOL    HW1 2336   0.166   0.704   0.451  0.3812  0.4686 -2.8984
  779SOL    HW2 2337   0.103   0.836   0.550 -0.4751 -0.3954 -0.8759
  780SOL     OW 2338   0.036   0.313   2.392  0.8188 -0.1806  0.1828
  780SOL    HW1 2339  -0.010   0.406   2.390 -0.8243 -1.3383  2.3638
  780SOL    HW2 2340   0.122   0.305   2.331  1.9940 -0.8815  0.3638
  781SOL     OW 2341   0.594   1.734   1.590 -0.2842 -0.7833 -0.1476
  781SOL    HW1 2342   0.632   1.738   1.689  1.2883 -0.1250  0.0444
  781SOL    HW2 2343   0.532   1.655   1.579 -2.5208 -0.2460 -2.9699
  782SOL     OW 2344   2.608   0.148   0.926  0.8994 -0.3291 -0.0019
  782SOL    HW1 2345   2.549   0.145   0.840 -3.3413 -0.7374  0.4185
  782SOL    HW2 2346   2.556   0.182   1.008  2.1892  0.5263 -0.4724
  783SOL     OW 2347   2.856   0.690   2.501 -0.5626  0.3168  0.0883
  783SOL    HW1 2348   2.800   0.738   2.577  0.3227  2.3256  1.4747
  783SOL    HW2 2349   2.796   0.614   2.459  1.9108 -0.2474 -1.9335
  784SOL     OW 2350   1.349   2.201   0.024  0.1961 -0.4093 -0.6753
  784SOL    HW1 2351   1.411   2.265   0.082  1.6128 -1.5411  1.2580
  784SOL    HW2 2352   1.373   2.198  -0.075 -0.4230 -0.0485 -3.7646
  785SOL     OW 2353   2.174   0.340   0.009 -0.1837 -0.0546 -0.2158
  785SOL    HW1 2354   2.092   0.354   0.074  1.9883  0.6088  0.1369
  785SOL    HW2 2355   2.193   0.424  -0.049 -0.7987 -1.4809  3.4825
  786SOL     OW 2356   2.036   2.168   2.243 -0.5801  0.3758  0.2960
  786SOL    HW1 2357   2.009   2.074   2.206 -1.3543 -0.9292 -1.2251
  786SOL    HW2 2358   2.125   2.162   2.299  1.3594  2.9778  4.7304
  787SOL     OW 2359   1.376   0.630   0.834 -0.2799  0.0543 -0.1702
  787SOL    HW1 2360   1.321   0.713   0.859  2.3421 -0.7497 -0.2898
  787SOL    HW2 2361   1.418   0.635   0.742 -0.2481  1.2391  0.5159
  788SOL     OW 2362   1.218   0.425   3.030  0.2689  0.0767 -0.0794
  788SOL    HW1 2363   1.118   0.443   2.990 -3.3477  3.3988  1.6029
  788SOL    HW2 2364   1.288   0.460   2.962 -2.8891  2.7123 -0.1678
  789SOL     OW 2365   2.624   0.094   1.819  0.1600 -0.3821 -0.1068
  789SOL    HW1 2366   2.534   0.132   1.853  0.1347  3.9331 -0.3807
  789SOL    HW2 2367   2.616  -0.004   1.789 -1.7111  5.0007  0.5055
  790SOL     OW 2368   2.593   2.629   0.811  0.1855 -0.1415 -0.5430
  790SOL    HW1 2369   2.664   2.657   0.736 -1.6039 -1.3959 -3.3833
  790SOL    HW2 2370   2.598   2.692   0.893 -2.2500 -1.6377 -3.2385
  791SOL     OW 2371   1.957   1.289   0.227  0.6536  0.3142 -0.2686
  791SOL    HW1 2372   1.880   1.219   0.251  0.1337 -1.1466 -0.6537
  791SOL    HW2 2373   2.047   1.234   0.202  0.6777 -0.6088 -1.6391
  792SOL     OW 2374   0.413   1.976   2.214 -0.1408  0.1407 -0.0061
  792SOL    HW1 2375   0.451   2.068   2.237  0.2943 -0.0935  1.5192
  792SOL    HW2 2376   0.326   1.951   2.261  0.0995 -1.7577 -0.7482
  793SOL     OW 2377   2.143   1.547   2.147  0.3167 -0.2578 -0.2296
  793SOL    HW1 2378   2.209   1.617   2.124 -1.1119  1.4891  1.1825
  793SOL    HW2 2379   2.122   1.486   2.070  1.5980  3.6989  3.8681
  794SOL     OW 2380   0.460   1.440   2.480  0.7030  0.7572 -0.2598
  794SOL    HW1 2381   0.459   1.364   2.409  1.1832  0.8697  0.6245
  794SOL    HW2 2382   0.400   1.522   2.450  3.8220 -0.0760  1.3895
  795SOL     OW 2383   2.535   2.323   1.806  0.1211  0.1360  0.1182
  795SOL    HW1 2384   2.547   2.358   1.899  0.7940 -0.7882 -0.5694
  795SOL    HW2 2385   2.499   2.224   1.805  0.0311 -2.4010  1.4345
  796SOL     OW 2386   3.055   1.060   2.693  0.0778  0.4193 -0.0620
  796SOL    HW1 2387   2.972   1.106   2.732 -1.4323 -1.1579  3.3129
  796SOL    HW2 2388   3.099   0.992   2.751 -2.8320 -1.8527 -0.0043
  797SOL     OW 2389   0.684   0.662   1.359 -0.2157  0.1301 -0.3252
  797SOL    HW1 2390   0.749   0.702   1.430  0.0887  0.7112  0.8727
  797SOL    HW2 2391   0.629   0.729   1.302 -1.5465  0.1417  0.7937
  798SOL     OW 2392   1.205   0.458   0.978 -0.0655  0.1866 -0.7311
  798SOL    HW1 2393   1.225   0.516   1.058 -1.2644  3.2647 -1.4229
  798SOL    HW2 2394   1.266   0.478   0.899  2.2778 -2.0011  2.4473
  799SOL     OW 2395   1.833   2.733   1.007  0.0848  0.0709 -0.3282
  799SOL    HW1 2396   1.812   2.643   1.058 -0.0374 -3.0331  1.7177
  799SOL    HW2 2397   1.888   2.726   0.918  1.6853  1.4270  0.2620
  800SOL     OW 2398   2.953   0.841   1.816  0.0575  0.4517  0.1328
  800SOL    HW1 2399   2.986   0.937   1.806  0.3028 -1.0312 -2.8836
  800SOL    HW2 2400   2.989   0.800   1.904  0.8556 -0.1390  0.1934
  801SOL     OW 2401   1.970   2.156   0.138  0.1677 -0.2685 -0.3431
  801SOL    HW1 2402   1.878   2.131   0.103 -0.0055 -2.5200  0.3769
  801SOL    HW2 2403   2.051   2.115   0.084 -0.5248  3.1188 -0.7769
  802SOL     OW 2404   0.688   0.666   2.541 -0.8385 -1.0917 -0.0021
  802SOL    HW1 2405   0.747   0.679   2.458 -1.5515  0.2706  0.6133
  802SOL    HW2 2406   0.587   0.671   2.525 -0.5714 -0.8088  2.4547
  803SOL     OW 2407   0.909   0.076   0.862 -0.2956  0.6017 -0.1031
  803SOL    HW1 2408   0.985   0.122   0.919  1.7371  0.1474  0.2091
  803SOL    HW2 2409   0.902   0.126   0.772  0.0972  2.5544 -0.8118
  804SOL     OW 2410   0.315   0.024   2.196 -0.3534 -0.0150  0.1422
  804SOL    HW1 2411   0.300   0.124   2.218  1.3400 -0.7396  0.9639
  804SOL    HW2 2412   0.255  -0.014   2.122  1.0395 -2.3089  1.1015
  805SOL     OW 2413   2.374   0.371   0.326  0.8906  0.2374  0.0615
  805SOL    HW1 2414   2.438   0.372   0.402  0.0526  0.0694  1.7815
  805SOL    HW2 2415   2.392   0.293   0.258  0.7697 -0.2101  0.2308
  806SOL     OW 2416   0.635   2.503   1.837 -0.0508  0.9820 -0.1897
  806SOL    HW1 2417   0.604   2.592   1.879  1.1795 -0.2539 -0.7275
  806SOL    HW2 2418   0.695   2.517   1.757 -0.1433 -0.2443 -0.8708
  807SOL     OW 2419   2.534   0.987   0.458 -0.2442 -0.0067  1.2858
  807SOL    HW1 2420   2.624   0.945   0.465  0.0023  0.5096  0.6153
  807SOL    HW2 2421   2.496   1.000   0.359 -4.5507  1.4338 -1.3934
  808SOL     OW 2422   0.620   2.032   2.877  0.6968  0.0235 -0.4126
  808SOL    HW1 2423   0.592   2.062   2.971 -1.8791 -1.5716  0.7076
  808SOL    HW2 2424   0.641   1.929   2.874  2.2888  0.0339  1.9473
  809SOL     OW 2425   2.553   1.985   1.903  0.4100 -0.4178  0.0549
  809SOL    HW1 2426   2.648   2.020   1.916 -1.1289  0.5444  2.4186
  809SOL    HW2 2427   2.509   1.995   1.812 -0.1039  0.8047 -2.7069
  810SOL     OW 2428   2.172   1.082   0.545  0.2150  0.3480  0.0041
  810SOL    HW1 2429   2.176   1.032   0.637  3.6761 -1.0961  1.8915
  810SOL    HW2 2430   2.116   1.168   0.539  0.7177  1.0101  1.8745
  811SOL     OW 2431   1.275   2.589   1.190 -0.3626  0.6726  0.2343
  811SOL    HW1 2432   1.274   2.487   1.213 -0.1740 -1.4981  1.6534
  811SOL    HW2 2433   1.298   2.638   1.279 -0.2331  0.0413  2.6934
  812SOL     OW 2434   1.419   0.785   1.961  0.5688 -0.2765  0.6222
  812SOL    HW1 2435   1.380   0.735   1.879  2.0631 -0.3326  0.4812
  812SOL    HW2 2436   1.436   0.884   1.954 -2.4287 -0.3933  0.1405
  813SOL     OW 2437   1.579   2.065   2.428  0.6690  0.1861  0.0861
  813SOL    HW1 2438   1.674   2.029   2.456  0.6821 -0.4773  0.6750
  813SOL    HW2 2439   1.562   2.048   2.328  3.2171 -1.6235 -0.2281
  814SOL     OW 2440   2.980   1.696   2.895  0.3756  0.3121 -0.3308
  814SOL    HW1 2441   3.049   1.653   2.964  1.5642  1.4289 -1.3824
  814SOL    HW2 2442   2.985   1.797   2.889 -1.3999 -2.1731 -1.4939
  815SOL     OW 2443   2.169   2.905   2.774  0.5819 -0.0905 -0.0657
  815SOL    HW1 2444   2.132   2.816   2.805 -1.3155  0.0089 -1.5166
  815SOL    HW2 2445   2.267   2.927   2.803 -0.8556 -0.5468  2.8223
  816SOL     OW 2446   1.522   0.368   1.659 -0.1096  0.2247 -0.7150
  816SOL    HW1 2447   1.594   0.303   1.695  1.5304  0.4181 -0.1634
  816SOL    HW2 2448   1.460   0.411   1.732 -1.4971  1.2166  0.2150
  817SOL     OW 2449   0.386   1.227   2.653 -0.0799  0.4127  0.1322
  817SOL    HW1 2450   0.284   1.243   2.672 -0.3290 -2.5145 -2.0017
  817SOL    HW2 2451   0.426   1.322   2.623 -1.3735  0.2093  0.6226
  818SOL     OW 2452   2.009   0.816   0.463  0.1552  0.2463 -0.0361
  818SOL    HW1 2453   2.102   0.853   0.436  3.2781 -1.9162  1.9395
  818SOL    HW2 2454   1.991   0.826   0.566  0.1020 -0.2444  0.4778
  819SOL     OW 2455   2.759   2.898   3.097  0.0573 -0.1917 -0.0969
  819SOL    HW1 2456   2.713   2.820   3.148 -1.5865 -1.0633  1.0072
  819SOL    HW2 2457   2.728   2.903   3.001 -0.0906 -4.0106 -0.0043
  820SOL     OW 2458   1.273   1.052   0.548  0.2232  0.2107  0.4659
  820SOL    HW1 2459   1.257   1.153   0.562 -0.3753 -0.4197 -0.8270
  820SOL    HW2 2460   1.270   0.996   0.639 -0.1611 -2.3357 -1.4933
  821SOL     OW 2461   0.080   1.184   0.726  0.5275 -0.2193 -0.4778
  821SOL    HW1 2462   0.018   1.175   0.812  0.4949 -0.2638 -2.1078
  821SOL    HW2 2463   0.137   1.268   0.717  0.9221  1.6109 -1.5882
  822SOL     OW 2464   2.522   1.772   2.426  0.2778 -0.6161  0.0862
  822SOL    HW1 2465   2.514   1.832   2.508  1.3186  0.3548 -0.0425
  822SOL    HW2 2466   2.439   1.780   2.366  0.9029  1.4067 -1.8199
  823SOL     OW 2467   2.014   0.957   1.199 -0.1445 -0.2037  0.4828
  823SOL    HW1 2468   1.993   0.906   1.286  1.7822 -1.9956 -0.5344
  823SOL    HW2 2469   1.934   0.942   1.135  1.6778  2.4998  4.6397
  824SOL     OW 2470   0.206   1.908   2.779 -0.7475 -0.2224  0.0054
  824SOL    HW1 2471   0.254   1.858   2.862  1.3804 -0.3098  0.5387
  824SOL    HW2 2472   0.279   1.918   2.699  2.0041 -1.2493 -2.4513
  825SOL     OW 2473   1.325   1.073   0.261 -0.2678  0.1905 -0.1956
  825SOL    HW1 2474   1.343   1.171   0.226  0.7507 -1.3237  2.6830
  825SOL    HW2 2475   1.293   1.070   0.359 -0.4697  1.2634  0.5615
  826SOL     OW 2476   1.929   0.598   1.579  0.0556  0.0679 -0.0318
  826SOL    HW1 2477   2.012   0.560   1.628 -0.4952  0.6763  0.8225
  826SOL    HW2 2478   1.846   0.536   1.571 -0.0420 -0.9446 -1.9583
  827SOL     OW 2479   0.730   1.163   0.389  0.0387 -0.3914  0.5927
  827SOL    HW1 2480   0.773   1.108   0.309  0.9158 -1.2436  0.7273
  827SOL    HW2 2481   0.655   1.107   0.438 -0.9004  1.2582  2.4678
  828SOL     OW 2482   2.640   0.129   1.543 -0.1768 -0.0481  0.6995
  828SOL    HW1 2483   2.543   0.102   1.529  0.3618  0.7762  1.4733
  828SOL    HW2 2484   2.663   0.139   1.647  0.2794 -0.7467  0.3915
  829SOL     OW 2485   2.920   2.431   2.921 -0.5502 -0.3078  0.7934
  829SOL    HW1 2486   2.820   2.406   2.952 -2.3593 -0.5387 -3.1484
  829SOL    HW2 2487   2.942   2.533   2.910  1.2753  1.8328 -0.6131
  830SOL     OW 2488   2.873   0.915   3.046  0.2685 -0.0372  0.0270
  830SOL    HW1 2489   2.941   0.989   3.078  1.0829 -1.0232 -2.2234
  830SOL    HW2 2490   2.882   0.820   3.096  3.0949 -0.3956 -2.5647
  831SOL     OW 2491   0.070   0.556   0.421  0.8254  0.6580 -0.4984
  831SOL    HW1 2492   0.050   0.495   0.504  2.9398 -0.2675 -0.1148
  831SOL    HW2 2493   0.093   0.497   0.340  1.2364 -1.4977  0.5402
  832SOL     OW 2494   1.784   0.769   3.025 -0.4063 -0.2050 -0.3485
  832SOL    HW1 2495   1.704   0.783   2.964  0.5739  0.5105 -0.7628
  832SOL    HW2 2496   1.800   0.671   3.049  1.0069  1.4306 -0.2366
  833SOL     OW 2497   2.394   2.090   0.483 -0.1422 -0.4251  0.0154
  833SOL    HW1 2498   2.303   2.043   0.478 -0.0795 -1.3122  3.4083
  833SOL    HW2 2499   2.468   2.016   0.473 -3.2349  0.6169  3.1875
  834SOL     OW 2500   0.192   0.113   0.584 -0.5947  0.2954  0.0067
  834SOL    HW1 2501   0.255   0.031   0.595 -1.8744 -1.2087  2.3509
  834SOL    HW2 2502   0.190   0.153   0.487  1.4267 -0.9250  1.9759
  835SOL     OW 2503   2.418   1.539   1.092  0.1971  1.2749 -0.2367
  835SOL    HW1 2504   2.510   1.574   1.126 -0.4561 -0.2799 -0.0770
  835SOL    HW2 2505   2.420   1.488   1.003 -1.0718 -1.9018 -1.0200
  836SOL     OW 2506   1.594   0.821   2.598 -0.3767  0.0582 -0.3328
  836SOL    HW1 2507   1.491   0.816   2.590  0.3843 -1.0021 -1.4242
  836SOL    HW2 2508   1.637   0.812   2.509 -0.3317  0.4275  0.9258
  837SOL     OW 2509   1.705   0.113   0.573  0.1876  0.1460  0.2077
  837SOL    HW1 2510   1.653   0.182   0.624  0.3243 -2.4141 -2.2672
  837SOL    HW2 2511   1.675   0.101   0.474  1.9085 -1.8225 -0.0774
  838SOL     OW 2512   1.208   1.401   2.708 -0.1676  0.6674  0.2584
  838SOL    HW1 2513   1.198   1.449   2.799 -0.8987 -2.4281  0.4445
  838SOL    HW2 2514   1.123   1.352   2.674  0.4106 -1.7525  0.8575
  839SOL     OW 2515   1.573   0.348   0.969 -0.0180 -0.1949 -0.1591
  839SOL    HW1 2516   1.532   0.424   1.021  0.8036 -1.7345 -0.2273
  839SOL    HW2 2517   1.543   0.250   0.991  0.9352  2.0929 -0.5480
  840SOL     OW 2518   2.585   2.947   1.698  0.5217 -0.1182 -0.5727
  840SOL    HW1 2519   2.510   2.945   1.625 -0.7978  0.0543 -0.4193
  840SOL    HW2 2520   2.581   2.878   1.775 -0.5649  0.4329  0.0203
  841SOL     OW 2521   1.541   0.806   2.939 -0.0924 -0.3097 -0.2798
  841SOL    HW1 2522   1.476   0.822   3.021  2.6143 -1.0231  0.6486
  841SOL    HW2 2523   1.544   0.893   2.884 -4.3740 -2.2679  3.7996
  842SOL     OW 2524   0.843   1.561   1.012  0.3618  0.3942  0.6022
  842SOL    HW1 2525   0.816   1.659   1.025  0.7952  0.9657 -0.5168
  842SOL    HW2 2526   0.783   1.514   0.934  1.8556 -0.9910 -1.0906
  843SOL     OW 2527   0.135   0.148   1.445  0.4255  0.0543  0.1992
  843SOL    HW1 2528   0.223   0.178   1.490  2.4164  0.2840 -1.8582
  843SOL    HW2 2529   0.126   0.047   1.417  0.2509 -2.4589 -1.1036
  844SOL     OW 2530   0.724   2.543   0.197 -0.7756  0.2267 -0.2595
  844SOL    HW1 2531   0.692   2.554   0.296 -0.2301 -0.8108  0.9922
  844SOL    HW2 2532   0.643   2.511   0.139 -0.5345 -0.6194 -2.1732
  845SOL     OW 2533   1.701   2.941   1.294  0.6034  0.9217 -0.0533
  845SOL    HW1 2534   1.667   3.003   1.368  1.1849 -0.3223  0.9293
  845SOL    HW2 2535   1.624   2.902   1.235  1.3774 -0.6192  0.6202
  846SOL     OW 2536   1.711   2.984   0.890 -0.2166  0.2575  0.0430
  846SOL    HW1 2537   1.734   3.032   0.802 -0.0990  1.8888  0.4838
  846SOL    HW2 2538   1.752   2.892   0.894 -1.2167 -0.1818 -0.3884
  847SOL     OW 2539   2.066   1.608   0.188  0.3727 -0.3790 -0.2507
  847SOL    HW1 2540   2.031   1.586   0.280 -1.2353  2.1122  0.9426
  847SOL    HW2 2541   1.986   1.606   0.119 -0.8920 -1.2178 -0.3611
  848SOL     OW 2542   2.470   0.836   2.659 -0.0703  0.0376 -0.5002
  848SOL    HW1 2543   2.470   0.940   2.668  0.5368  4.2150 -1.6212
  848SOL    HW2 2544   2.419   0.809   2.573  0.0121  0.7682  0.1037
  849SOL     OW 2545   2.416   0.855   2.253 -0.0750 -0.8826 -0.2330
  849SOL    HW1 2546   2.461   0.784   2.184 -1.5028  0.1507 -2.9098
  849SOL    HW2 2547   2.379   0.817   2.339 -1.0503 -1.9133 -0.3606
  850SOL     OW 2548   1.552   0.145   1.257 -0.1028  0.4731  0.1796
  850SOL    HW1 2549   1.524   0.101   1.166 -1.3207  0.1823  0.5271
  850SOL    HW2 2550   1.509   0.089   1.336 -0.3036 -0.3096 -0.9390
  851SOL     OW 2551   0.493   1.776   0.684  0.2970  0.1008 -0.0837
  851SOL    HW1 2552   0.462   1.873   0.710  1.5641 -0.5279  0.1440
  851SOL    HW2 2553   0.596   1.763   0.678  0.0278 -0.3439 -0.0546
  852SOL     OW 2554   0.794   2.141   1.689  0.3254 -0.4491  0.3920
  852SOL    HW1 2555   0.797   2.232   1.637  0.1357  4.1472  0.4383
  852SOL    HW2 2556   0.729   2.136   1.766  2.1036  0.3182 -1.4665
  853SOL     OW 2557   2.520   1.515   2.582  0.4066 -0.0690  0.0654
  853SOL    HW1 2558   2.493   1.423   2.551  0.4250 -0.5184  1.7438
  853SOL    HW2 2559   2.506   1.596   2.516 -2.0960 -0.0605  0.0388
  854SOL     OW 2560   2.372   1.435   1.758  0.5477  0.2881 -0.1591
  854SOL    HW1 2561   2.426   1.417   1.674 -0.8447  0.8629  1.0302
  854SOL    HW2 2562   2.297   1.367   1.775  1.3114  2.2431  1.0713
  855SOL     OW 2563   2.054   2.310   0.975  0.0381 -0.0573  0.4519
  855SOL    HW1 2564   2.087   2.406   0.964  0.6944 -1.7237  0.2989
  855SOL    HW2 2565   2.099   2.275   1.062 -1.3235 -0.6370  0.5435
  856SOL     OW 2566   1.412   1.339   0.888  0.0338 -0.0935 -0.0974
  856SOL    HW1 2567   1.362   1.428   0.889  1.3346 -4.0053  1.6036
  856SOL    HW2 2568   1.432   1.300   0.985  1.3630 -0.7178 -0.8679
  857SOL     OW 2569   2.940   2.577   1.044 -0.7411 -0.7047 -0.3668
  857SOL    HW1 2570   2.875   2.501   1.031  1.2124 -1.1255  0.4897
  857SOL    HW2 2571   3.016   2.596   0.974 -2.7735  2.4313 -1.1319
  858SOL     OW 2572   2.271   2.126   1.745 -0.1664 -0.5045 -0.1277
  858SOL    HW1 2573   2.190   2.135   1.685  0.4357  2.8893  2.0505
  858SOL    HW2 2574   2.348   2.074   1.699 -0.9466 -1.0900  2.7147
  859SOL     OW 2575   2.430   0.491   1.003 -0.1700 -0.4382 -0.1220
  859SOL    HW1 2576   2.498   0.512   0.925  1.5411 -0.5037 -0.5604
  859SOL    HW2 2577   2.468   0.416   1.059 -1.9295  0.7583 -6.1795
  860SOL     OW 2578   1.968   2.774   0.501  0.0230  0.3206 -0.0681
  860SOL    HW1 2579   1.957   2.704   0.428  0.2057  1.7674 -0.1740
  860SOL    HW2 2580   1.990   2.862   0.463  0.5915  1.4209  2.3211
  861SOL     OW 2581   1.075   2.573   2.767 -0.2400  0.2516  0.2307
  861SOL    HW1 2582   1.094   2.674   2.769 -0.7592 -0.5945 -2.2766
  861SOL    HW2 2583   1.127   2.511   2.830  0.6753 -0.4107  1.5659
  862SOL     OW 2584   2.949   2.561   1.552  0.1250  0.2064  0.1459
  862SOL    HW1 2585   2.994   2.557   1.647  0.8819  1.6501  3.5913
  862SOL    HW2 2586   2.870   2.627   1.538 -0.5443  0.2659  0.1414
  863SOL     OW 2587   1.882   2.621   0.243 -0.8144 -0.0827  0.1000
  863SOL    HW1 2588   1.940   2.540   0.217  5.0986 -0.1067  0.8481
  863SOL    HW2 2589   1.780   2.606   0.242 -0.1120 -1.7775  0.5380
  864SOL     OW 2590   1.876   1.154   2.929 -0.1400 -0.6415 -0.7431
  864SOL    HW1 2591   1.898   1.112   2.839  1.0108  1.4760  3.3617
  864SOL    HW2 2592   1.958   1.177   2.989 -1.4001 -0.5018  0.7043
  865SOL     OW 2593   2.133   1.741   0.683  0.1377 -0.0463 -0.0532
  865SOL    HW1 2594   2.198   1.754   0.766 -0.7371 -0.7126 -1.0527
  865SOL    HW2 2595   2.051   1.681   0.706  2.0584  0.8970 -2.6246
  866SOL     OW 2596   2.912   2.843   1.017  0.0998  0.4903 -0.2794
  866SOL    HW1 2597   2.960   2.878   0.929 -2.2928  0.5666  0.4363
  866SOL    HW2 2598   2.876   2.746   1.011 -0.6235 -1.3878 -1.7460
  867SOL     OW 2599   0.434   1.299   0.849  0.0946 -0.3746 -0.2465
  867SOL    HW1 2600   0.444   1.197   0.823 -0.0385  1.0103  0.4883
  867SOL    HW2 2601   0.343   1.340   0.825  0.6707  2.9152 -1.7714
  868SOL     OW 2602   0.843   1.934   1.982  0.0348  0.4032  0.4722
  868SOL    HW1 2603   0.850   1.927   2.083 -0.1612  0.9573 -4.1008
  868SOL    HW2 2604   0.779   2.014   1.954 -2.6131 -2.0449 -1.4134
  869SOL     OW 2605   2.505   2.033   1.604  0.5379  0.1611 -0.1665
  869SOL    HW1 2606   2.591   2.071   1.560  0.3916  1.5394 -0.9500
  869SOL    HW2 2607   2.469   1.949   1.559 -1.8236 -1.0990  0.7970
  870SOL     OW 2608   2.356   2.543   1.194  0.5611 -0.8149 -0.2296
  870SOL    HW1 2609   2.268   2.486   1.198  2.7957 -1.4328 -0.7284
  870SOL    HW2 2610   2.435   2.504   1.250  1.1610  0.6245  1.0699
  871SOL     OW 2611   2.998   2.026   0.556 -0.1329 -0.2769 -0.2473
  871SOL    HW1 2612   2.918   2.085   0.589 -0.1288 -0.9882  0.1795
  871SOL    HW2 2613   2.968   1.961   0.485  0.9606 -3.3525 -0.2758
  872SOL     OW 2614   2.172   0.503   1.693  0.2936 -0.1050 -0.2114
  872SOL    HW1 2615   2.121   0.522   1.784  0.8529  0.6442 -1.3472
  872SOL    HW2 2616   2.248   0.432   1.709 -0.4913  1.1340  2.9203
  873SOL     OW 2617   1.730   2.115   2.951  0.0411 -0.4058 -0.1655
  873SOL    HW1 2618   1.704   2.209   2.982 -1.0370  0.3178  1.5352
  873SOL    HW2 2619   1.669   2.081   2.877 -0.8326 -2.4359  0.3505
  874SOL     OW 2620   0.703   2.491   0.767  0.2263  0.6396 -0.2099
  874SOL    HW1 2621   0.683   2.589   0.801 -0.2955 -1.2208 -0.0848
  874SOL    HW2 2622   0.805   2.475   0.754  1.9684 -1.4669 -3.4340
  875SOL     OW 2623   2.335   1.508   1.489  0.1297 -0.4142  0.0049
  875SOL    HW1 2624   2.430   1.545   1.509  2.3413  3.4461 -0.2953
  875SOL    HW2 2625   2.319   1.527   1.387  3.1537  0.3583 -0.1403
  876SOL     OW 2626   0.141   2.211   2.701 -0.2025 -0.1659  0.1611
  876SOL    HW1 2627   0.164   2.118   2.738  2.3393 -1.1410  2.2674
  876SOL    HW2 2628   0.184   2.291   2.748 -2.6022 -0.2397 -1.2159
  877SOL     OW 2629   2.763   2.678   0.611 -0.2806 -0.2610 -0.0355
  877SOL    HW1 2630   2.823   2.764   0.595  0.0442  0.4895 -5.3267
  877SOL    HW2 2631   2.822   2.597   0.631 -2.6004  1.2525  2.2710
  878SOL     OW 2632   2.835   1.535   2.205 -0.6944  0.6701  0.1057
  878SOL    HW1 2633   2.937   1.562   2.198  0.4236  1.2899  0.9775
  878SOL    HW2 2634   2.796   1.536   2.304 -0.4216  0.2414  0.0297
  879SOL     OW 2635   2.381   0.007   1.215  0.0439 -0.0183  0.2612
  879SOL    HW1 2636   2.425  -0.086   1.218  0.2904  1.3676 -0.4267
  879SOL    HW2 2637   2.297   0.014   1.153  1.2990 -2.2838 -1.1444
  880SOL     OW 2638   0.668   0.430   2.160 -0.3471 -0.1764  0.5300
  880SOL    HW1 2639   0.594   0.382   2.219 -4.1812 -1.9057 -0.7536
  880SOL    HW2 2640   0.733   0.354   2.127  2.0690 -3.6252 -0.9313
  881SOL     OW 2641   0.908   0.040   0.392 -0.0877 -0.1287 -0.3413
  881SOL    HW1 2642   0.953  -0.048   0.421  0.5828  2.2972 -0.3454
  881SOL    HW2 2643   0.860   0.025   0.297 -0.8154  0.9320 -2.9486
  882SOL     OW 2644   2.752   1.636   1.670  0.2211 -0.1895 -0.0762
  882SOL    HW1 2645   2.850   1.603   1.665 -3.8197  0.8215 -2.5907
  882SOL    HW2 2646   2.726   1.694   1.751  0.5251  2.3408  1.1358
  883SOL     OW 2647   0.950   0.591   0.937 -0.3299  0.3746 -0.2002
  883SOL    HW1 2648   0.963   0.684   0.973  0.3653 -1.4054  0.6919
  883SOL    HW2 2649   1.034   0.527   0.947  0.3912  2.8573  1.0820
  884SOL     OW 2650   1.199   1.917   1.002  0.6261 -0.2842  0.3505
  884SOL    HW1 2651   1.154   1.865   0.927  0.5877  0.2111 -2.3451
  884SOL    HW2 2652   1.129   1.975   1.052  0.2396  1.4392  0.4289
  885SOL     OW 2653   2.244   1.831   2.310 -0.0062 -0.1172 -0.1329
  885SOL    HW1 2654   2.163   1.770   2.346 -0.6065 -3.5730 -0.9771
  885SOL    HW2 2655   2.251   1.926   2.358  1.5086 -0.6675 -0.8583
  886SOL     OW 2656   2.646   0.458   1.773  0.1549 -0.2318 -0.0014
  886SOL    HW1 2657   2.684   0.407   1.856 -0.5296  0.7592  0.0693
  886SOL    HW2 2658   2.699   0.540   1.739  1.4392  3.4199  0.0883
  887SOL     OW 2659   0.102   2.058   1.282  0.3921  0.2269  0.2444
  887SOL    HW1 2660   0.047   2.022   1.200 -0.4140 -0.8967  1.0785
  887SOL    HW2 2661   0.145   2.149   1.270  2.2559 -1.8644 -1.6208
  888SOL     OW 2662   0.571   1.297   1.497  0.2930  0.5092 -0.1597
  888SOL    HW1 2663   0.630   1.312   1.415 -0.5428 -1.4860 -0.5926
  888SOL    HW2 2664   0.539   1.199   1.517  0.1430 -1.6457  0.7720
  889SOL     OW 2665   0.842   2.542   2.141  0.4034  0.1087  0.0435
  889SOL    HW1 2666   0.743   2.525   2.111 -1.4663  2.3884  0.7656
  889SOL    HW2 2667   0.907   2.506   2.070  0.8477  1.5804  3.0398
  890SOL     OW 2668   2.328   2.454   0.180 -0.3949 -0.1778 -0.2497
  890SOL    HW1 2669   2.327   2.532   0.111 -3.5982 -2.0371  0.2309
  890SOL    HW2 2670   2.237   2.407   0.191  0.2611  0.3480  1.8136
  891SOL     OW 2671   2.627   1.507   0.642  0.1251  0.3520 -0.5723
  891SOL    HW1 2672   2.609   1.447   0.728 -0.8042 -1.9337 -1.2193
  891SOL    HW2 2673   2.543   1.565   0.611  1.3693  4.3062 -1.9385
  892SOL     OW 2674   0.244   0.307   2.231 -0.6390 -0.1034 -0.0078
  892SOL    HW1 2675   0.257   0.311   2.124  1.1142  1.8994  0.1286
  892SOL    HW2 2676   0.330   0.342   2.276  0.1567 -2.0877 -1.8409
  893SOL     OW 2677   1.668   0.240   2.728 -0.6252  0.2665  0.0458
  893SOL    HW1 2678   1.718   0.311   2.786 -1.2959 -0.9491  2.4515
  893SOL    HW2 2679   1.569   0.265   2.700 -0.1913 -1.3036 -2.1738
  894SOL     OW 2680   2.176   1.990   0.031 -0.8903 -0.3742  0.4155
  894SOL    HW1 2681   2.156   1.931  -0.055  0.3676 -1.1342 -0.6797
  894SOL    HW2 2682   2.208   1.932   0.108 -1.6511 -1.0242 -2.5617
  895SOL     OW 2683   2.918   1.430   0.807  0.1518 -0.2881  0.4424
  895SOL    HW1 2684   2.954   1.365   0.879  1.3894 -2.9472 -0.8155
  895SOL    HW2 2685   2.979   1.514   0.789 -0.5608 -1.9749 -1.3716
  896SOL     OW 2686   1.751   1.771   1.173  0.5494 -0.2853  0.3470
  896SOL    HW1 2687   1.803   1.845   1.122 -1.5012 -0.5080 -0.1803
  896SOL    HW2 2688   1.649   1.764   1.149 -0.8366 -2.2830  0.2671
  897SOL     OW 2689   0.293   0.542   3.096  0.6279  0.1582  0.1693
  897SOL    HW1 2690   0.264   0.603   3.014  0.4816  0.0287 -2.8108
  897SOL    HW2 2691   0.385   0.568   3.141  2.6083  0.7767  1.9393
  898SOL     OW 2692   0.553   2.860   1.139 -0.2739 -0.0196  0.1610
  898SOL    HW1 2693   0.491   2.941   1.165 -0.5065 -1.7965  0.2806
  898SOL    HW2 2694   0.651   2.871   1.175 -1.4872  0.7744  2.9811
  899SOL     OW 2695   2.670   0.926   1.244  0.1203 -0.3323  0.5032
  899SOL    HW1 2696   2.578   0.889   1.206  1.1336  0.6633  0.0562
  899SOL    HW2 2697   2.750   0.930   1.178  0.8089  0.3875  1.7405
  900SOL     OW 2698   1.011   2.420   2.350 -0.2873 -0.3008 -0.2016
  900SOL    HW1 2699   0.935   2.450   2.288 -2.0694 -1.3744 -1.7001
  900SOL    HW2 2700   0.979   2.392   2.450 -2.2750 -1.2940  2.7813
  901SOL     OW 2701   1.903   2.432   1.372  0.1417  0.1499  0.2751
  901SOL    HW1 2702   1.897   2.427   1.263  0.0674 -1.0553 -2.6098
  901SOL    HW2 2703   2.005   2.432   1.399  1.6976  1.3641  1.7230
  902SOL     OW 2704   2.581   1.635   1.466  0.2904  0.0421 -0.1074
  902SOL    HW1 2705   2.642   1.631   1.550  2.6334 -0.0927 -0.3568
  902SOL    HW2 2706   2.627   1.587   1.387 -1.3676  0.0555  1.7282
  903SOL     OW 2707   0.274   2.373   1.989 -0.1078 -0.6161 -0.4402
  903SOL    HW1 2708   0.182   2.330   2.000 -2.0829  0.6407 -2.2603
  903SOL    HW2 2709   0.281   2.447   1.916  0.5571 -4.2752  0.2057
  904SOL     OW 2710   1.968   0.834   2.552 -0.0407  0.1228  0.9007
  904SOL    HW1 2711   1.973   0.737   2.594  0.5946 -0.3945 -0.2098
  904SOL    HW2 2712   1.949   0.841   2.453 -0.9878  3.2340  1.5351
  905SOL     OW 2713   2.743   0.005   2.619 -0.4330 -0.3217  0.6843
  905SOL    HW1 2714   2.823  -0.056   2.648 -2.5823  0.3762 -1.9538
  905SOL    HW2 2715   2.779   0.091   2.573  1.5278 -1.2545 -1.3975
  906SOL     OW 2716   0.152   1.766   1.892 -0.5716  0.0084  0.9481
  906SOL    HW1 2717   0.100   1.781   1.803 -0.1327  1.0485 -0.5536
  906SOL    HW2 2718   0.238   1.824   1.897  1.3337 -2.6442  2.5857
  907SOL     OW 2719   0.161   2.473   0.996 -0.0780 -0.2004  0.1054
  907SOL    HW1 2720   0.244   2.531   1.013 -2.1468 -0.0940  0.4843
  907SOL    HW2 2721   0.137   2.445   0.899  2.5253 -2.0653  1.4571
  908SOL     OW 2722   2.638   2.929   0.435 -0.0824 -0.4640  0.2787
  908SOL    HW1 2723   2.602   2.950   0.335 -1.8074  1.1017  2.8506
  908SOL    HW2 2724   2.622   2.831   0.470  0.5422  0.2741  1.9845
  909SOL     OW 2725   0.821   0.897   2.658 -0.2074 -0.1506 -0.0017
  909SOL    HW1 2726   0.767   0.820   2.614 -1.4916 -0.6370 -2.3234
  909SOL    HW2 2727   0.896   0.941   2.595  2.7880  3.3869  0.6848
  910SOL     OW 2728   1.746   1.797   2.016 -0.4962 -0.1662 -0.0641
  910SOL    HW1 2729   1.795   1.848   1.940 -0.8646  0.2298 -0.8441
  910SOL    HW2 2730   1.666   1.849   2.060  0.3275 -1.5752  2.2589
  911SOL     OW 2731   1.759   3.028   1.612  0.2276 -0.2726 -0.2317
  911SOL    HW1 2732   1.852   3.011   1.577 -0.1209 -0.5649 -1.8154
  911SOL    HW2 2733   1.739   2.957   1.681 -1.0401  1.7975 -0.0684
  912SOL     OW 2734   2.830   0.962   0.765 -0.1118  0.6133  0.1623
  912SOL    HW1 2735   2.857   0.954   0.865 -4.5051  0.5712  0.2068
  912SOL    HW2 2736   2.805   1.061   0.741  1.9037  1.3656 -1.6980
  913SOL     OW 2737   2.530   1.286   1.548  0.1553  0.2244  0.1744
  913SOL    HW1 2738   2.535   1.182   1.536  0.8034 -2.3780 -0.1139
  913SOL    HW2 2739   2.594   1.336   1.486 -2.2741 -1.0974  2.6070
  914SOL     OW 2740   2.838   0.526   1.230  0.0448  0.3398 -0.0066
  914SOL    HW1 2741   2.791   0.435   1.226 -0.1190 -1.6127 -1.5448
  914SOL    HW2 2742   2.799   0.572   1.313  0.4208  0.0716  0.6221
  915SOL     OW 2743   1.229   0.796   0.999  0.7485 -0.1407  0.0995
  915SOL    HW1 2744   1.288   0.745   1.064  0.3631 -0.0297 -2.1748
  915SOL    HW2 2745   1.145   0.838   1.044 -0.5397 -1.3652 -0.1445
  916SOL     OW 2746   0.554   0.042   0.640 -0.0987  0.7448 -0.3315
  916SOL    HW1 2747   0.581   0.125   0.697 -0.1153  0.2041 -1.1717
  916SOL    HW2 2748   0.573   0.061   0.542 -1.5770 -2.3137  0.2277
  917SOL     OW 2749   2.740   2.624   1.945 -0.0687 -0.2985 -0.1385
  917SOL    HW1 2750   2.651   2.668   1.923  0.2626  0.6963 -0.5578
  917SOL    HW2 2751   2.823   2.691   1.957 -1.1258  1.8192 -1.5949
  918SOL     OW 2752   0.967   2.178   3.020 -0.2073  0.2324 -0.6519
  918SOL    HW1 2753   0.933   2.215   3.110  0.6642  1.3226  0.4537
  918SOL    HW2 2754   1.003   2.081   3.020 -1.6516 -0.4069 -1.1930
  919SOL     OW 2755   0.949   1.607   2.811 -0.2326  0.1148  0.6102
  919SOL    HW1 2756   0.969   1.689   2.743  2.5779  0.0315 -0.1362
  919SOL    HW2 2757   0.894   1.526   2.769 -1.1789  0.8646 -1.1140
  920SOL     OW 2758   1.259   2.063   2.504 -0.0650 -0.3397  0.3001
  920SOL    HW1 2759   1.202   2.102   2.427  0.3844  0.3123 -1.1254
  920SOL    HW2 2760   1.288   1.967   2.508  2.2178  1.0201  1.4395
  921SOL     OW 2761   1.064   0.101   2.567 -0.2180  1.0653 -0.2789
  921SOL    HW1 2762   1.075   0.108   2.466 -2.4042  1.9557  3.2799
  921SOL    HW2 2763   0.978   0.042   2.583 -2.2026  0.8208  0.2081
  922SOL     OW 2764   2.208   2.376   2.770 -0.1993  0.4508 -0.0563
  922SOL    HW1 2765   2.185   2.276   2.752 -0.7698 -0.3207 -1.4266
  922SOL    HW2 2766   2.147   2.447   2.724 -0.5587  0.9719 -1.8049
  923SOL     OW 2767   1.224   2.658   0.301 -1.0060 -0.5371  0.1074
  923SOL    HW1 2768   1.288   2.704   0.368  0.3288 -0.0382  0.0345
  923SOL    HW2 2769   1.252   2.564   0.271 -0.2934  2.0814 -0.1490
  924SOL     OW 2770   2.890   1.584   0.091  0.1302  0.3052  0.3547
  924SOL    HW1 2771   2.801   1.604   0.037 -0.1620 -0.9097 -2.5506
  924SOL    HW2 2772   2.975   1.573   0.028  2.2319 -0.3129 -0.4004
  925SOL     OW 2773   0.025   2.828   1.652 -0.2530 -0.0943  0.9866
  925SOL    HW1 2774  -0.059   2.887   1.664  1.9272 -0.2795  1.3922
  925SOL    HW2 2775   0.061   2.830   1.555  0.1312 -1.9111  1.0843
  926SOL     OW 2776   1.371   2.926   1.319  0.4827  0.2021  0.0323
  926SOL    HW1 2777   1.419   2.898   1.230  0.2335  0.3487 -2.7123
  926SOL    HW2 2778   1.413   3.009   1.371 -2.2612  0.8999  2.7409
  927SOL     OW 2779   0.276   2.544   1.789 -0.0698 -0.1863  0.2860
  927SOL    HW1 2780   0.243   2.489   1.703 -0.2875  0.3453 -1.6044
  927SOL    HW2 2781   0.257   2.644   1.777  1.3540 -0.2633  2.3252
  928SOL     OW 2782   1.577   1.976   2.143  0.3258 -0.5796 -0.4074
  928SOL    HW1 2783   1.616   2.069   2.103  0.4027  0.5873  1.7622
  928SOL    HW2 2784   1.474   1.967   2.116  0.2580 -2.7609  3.0088
  929SOL     OW 2785   2.457   2.459   2.851  0.2136 -0.3977  0.0697
  929SOL    HW1 2786   2.360   2.423   2.858 -0.0867 -0.7821 -3.4316
  929SOL    HW2 2787   2.484   2.493   2.755 -0.4183  2.3069 -4.2366
  930SOL     OW 2788   2.207   1.980   1.076  0.0379 -0.0384  0.1911
  930SOL    HW1 2789   2.189   1.969   1.180 -0.3319 -0.9609 -1.8633
  930SOL    HW2 2790   2.258   2.068   1.044  2.2434 -2.5560  0.1719
  931SOL     OW 2791   0.543   1.721   2.619 -0.0105  0.2623 -0.2809
  931SOL    HW1 2792   0.639   1.722   2.658  1.3596 -1.1773 -0.7291
  931SOL    HW2 2793   0.530   1.626   2.580  1.9258 -1.1439  0.8742
  932SOL     OW 2794   0.480   0.111   2.933  0.1847  0.1885  0.1935
  932SOL    HW1 2795   0.578   0.122   2.906  0.3614 -1.9551 -1.2965
  932SOL    HW2 2796   0.462   0.017   2.976  3.1375  0.4557 -1.2758
  933SOL     OW 2797   1.039   0.806   2.982 -0.2233  0.0644 -0.0469
  933SOL    HW1 2798   1.078   0.805   3.075  1.7878 -0.2733 -0.1856
  933SOL    HW2 2799   0.990   0.895   2.965  0.3566  1.2536 -1.4267
  934SOL     OW 2800   0.855   3.039   2.721 -0.4071 -0.7071 -0.0772
  934SOL    HW1 2801   0.869   2.971   2.644 -0.3420 -0.0418 -1.4428
  934SOL    HW2 2802   0.884   2.994   2.811 -2.4419  2.5622  0.0810
  935SOL     OW 2803   3.085   0.501   0.799 -0.1667  0.0036 -0.0384
  935SOL    HW1 2804   3.113   0.440   0.717  1.2716 -0.5055  0.9740
  935SOL    HW2 2805   2.996   0.550   0.790  3.4899 -2.0213  0.8604
  936SOL     OW 2806   1.080   2.914   0.171 -0.2350  0.3693  0.1346
  936SOL    HW1 2807   1.137   2.933   0.085  2.5307 -0.7529  0.4993
  936SOL    HW2 2808   1.124   2.847   0.230 -0.1085 -0.6288  1.0581
  937SOL     OW 2809   1.926   2.606   2.095 -0.0900  0.3069  0.2397
  937SOL    HW1 2810   1.830   2.626   2.123  0.7732 -0.0533  0.8018
  937SOL    HW2 2811   1.938   2.629   1.991 -1.5324 -1.1811  0.6690
  938SOL     OW 2812   2.801   2.156   1.490  0.2808  0.1010 -0.4218
  938SOL    HW1 2813   2.765   2.244   1.541  1.7119  2.7460  0.7727
  938SOL    HW2 2814   2.864   2.094   1.550  1.1532  0.2452 -1.4664
  939SOL     OW 2815   2.810   1.105   2.494 -0.5890 -0.3158  0.2052
  939SOL    HW1 2816   2.901   1.101   2.453 -0.3750 -2.2531  0.6159
  939SOL    HW2 2817   2.808   1.137   2.593  1.1273 -2.5235  1.0977
  940SOL     OW 2818   1.051   0.476   2.640 -0.1376  0.0098  0.0445
  940SOL    HW1 2819   1.124   0.413   2.618 -0.0491  3.3306 -0.1199
  940SOL    HW2 2820   0.972   0.417   2.651  2.7150  2.3741 -0.5461
  941SOL     OW 2821   0.042   2.826   2.227  0.6743  0.2751 -0.2587
  941SOL    HW1 2822   0.040   2.724   2.225 -0.0271 -1.5251 -0.6081
  941SOL    HW2 2823   0.089   2.868   2.315  2.1274  1.8716  3.5767
  942SOL     OW 2824   0.047   0.077   2.520 -0.3789  0.0935 -0.1403
  942SOL    HW1 2825   0.105   0.058   2.603  2.6359  0.0065 -1.7098
  942SOL    HW2 2826   0.042   0.177   2.487 -1.7431 -2.7454 -0.8503
  943SOL     OW 2827   2.087   1.613   2.423 -0.0962 -1.1558  0.1776
  943SOL    HW1 2828   2.143   1.544   2.369 -1.7690  0.2531  0.9530
  943SOL    HW2 2829   2.093   1.589   2.520 -1.7338  0.7013 -3.6329
  944SOL     OW 2830   2.175   2.394   1.480 -0.0620  0.6681 -0.0405
  944SOL    HW1 2831   2.252   2.446   1.514 -2.1249 -0.3770 -1.9176
  944SOL    HW2 2832   2.132   2.342   1.559  1.9738 -1.5463  1.6492
  945SOL     OW 2833   0.603   1.405   0.357 -0.7267  0.2563 -0.0082
  945SOL    HW1 2834   0.584   1.425   0.260 -0.8664  0.4520  1.4873
  945SOL    HW2 2835   0.658   1.320   0.376 -0.2566  1.1312 -1.3064
  946SOL     OW 2836   0.420   0.967   2.525  0.0228  0.8034  0.5675
  946SOL    HW1 2837   0.325   0.953   2.483  1.1536  2.1433  1.9048
  946SOL    HW2 2838   0.422   1.069   2.563  1.8701  1.5383  1.5217
  947SOL     OW 2839   1.473   0.535   0.102 -0.1176 -0.5329  0.5725
  947SOL    HW1 2840   1.440   0.571   0.011 -0.4539 -0.7461 -1.2048
  947SOL    HW2 2841   1.396   0.504   0.163  1.4246 -0.0011 -2.0411
  948SOL     OW 2842   1.971   3.083   2.214 -0.3654 -0.0445  0.1021
  948SOL    HW1 2843   1.954   3.087   2.112 -0.0325 -1.0489  0.6187
  948SOL    HW2 2844   1.958   2.986   2.257 -0.9782  1.6892 -1.7035
  949SOL     OW 2845   0.625   2.534   0.493  0.0657  0.3752 -0.0501
  949SOL    HW1 2846   0.651   2.625   0.453  0.6082  1.2976 -1.2205
  949SOL    HW2 2847   0.662   2.520   0.590 -2.6978 -0.3689  2.4401
  950SOL     OW 2848   0.310   2.137   3.094 -0.0051 -0.4752 -0.2838
  950SOL    HW1 2849   0.221   2.192   3.102  0.6477 -0.6690  2.6400
  950SOL    HW2 2850   0.291   2.046   3.049  1.1227  0.7479  0.2843
  951SOL     OW 2851   1.187   2.846   2.730  0.5427 -1.0193  0.4165
  951SOL    HW1 2852   1.170   2.872   2.631 -3.2859  0.5712  1.6807
  951SOL    HW2 2853   1.261   2.902   2.771 -4.4002  0.2139  0.6455
  952SOL     OW 2854   0.093   1.629   0.475  0.5334  0.0872  0.0874
  952SOL    HW1 2855   0.159   1.710   0.457 -0.9779  3.4057 -2.5128
  952SOL    HW2 2856   0.086   1.606   0.573  1.9518 -1.3591  2.2846
  953SOL     OW 2857   2.575   1.759   0.190  0.4833  0.3973  0.4460
  953SOL    HW1 2858   2.547   1.659   0.207 -2.3442  0.5060  1.0649
  953SOL    HW2 2859   2.560   1.781   0.096 -0.9042  0.0702  1.7942
  954SOL     OW 2860   2.170   0.591   0.985 -0.3037 -0.1085 -0.2181
  954SOL    HW1 2861   2.134   0.603   0.885 -0.9563 -0.3153 -0.2865
  954SOL    HW2 2862   2.263   0.550   0.984 -2.0289  2.6964  0.5945
  955SOL     OW 2863   0.256   2.650   1.334  0.4108 -0.2222 -0.9179
  955SOL    HW1 2864   0.154   2.647   1.327  1.7512  0.3682  1.1434
  955SOL    HW2 2865   0.302   2.652   1.239  1.7745  1.2314 -2.7820
  956SOL     OW 2866   2.773   2.466   2.471  0.3033  0.0287 -0.2825
  956SOL    HW1 2867   2.773   2.361   2.461  1.4266 -2.0018  1.6529
  956SOL    HW2 2868   2.793   2.515   2.376 -1.0935 -1.2578  1.5606
  957SOL     OW 2869   1.554   2.056   2.698 -0.6656 -0.1278 -0.0264
  957SOL    HW1 2870   1.543   1.953   2.694  0.6077 -0.9952  0.5572
  957SOL    HW2 2871   1.582   2.089   2.600  1.5986  3.2485 -1.6808
  958SOL     OW 2872   2.671   2.346   2.976 -0.1199  0.2111 -0.0896
  958SOL    HW1 2873   2.593   2.389   2.923  1.2608  0.3628  3.0715
  958SOL    HW2 2874   2.659   2.251   3.014 -2.7424  0.6432 -0.6672
  959SOL     OW 2875   0.286   2.763   0.070 -0.0724  0.3457 -0.8493
  959SOL    HW1 2876   0.191   2.734   0.099  0.3929 -0.3798  1.1903
  959SOL    HW2 2877   0.362   2.710   0.117  0.3318 -1.3391  2.1105
  960SOL     OW 2878   1.990   0.479   1.933  0.0056  0.1340  0.4587
  960SOL    HW1 2879   1.939   0.569   1.908 -1.0798  0.3327 -1.2143
  960SOL    HW2 2880   1.979   0.450   2.030  2.9233  1.4472 -1.6320
  961SOL     OW 2881   2.575   1.846   1.047  0.2470 -0.4993 -0.1403
  961SOL    HW1 2882   2.535   1.909   0.973 -2.4895  3.0573  1.5292
  961SOL    HW2 2883   2.539   1.873   1.139  0.0674 -0.8777 -0.4273
  962SOL     OW 2884   1.300   0.909   0.028 -0.3402 -0.0692  0.2184
  962SOL    HW1 2885   1.283   0.974  -0.052  1.7116 -1.9673 -0.1662
  962SOL    HW2 2886   1.306   0.968   0.114 -0.0537  1.0531  0.7812
  963SOL     OW 2887   2.268   2.588   1.880  0.9556  0.3199  0.5988
  963SOL    HW1 2888   2.288   2.508   1.949  0.7792 -2.5959 -2.4599
  963SOL    HW2 2889   2.264   2.682   1.924  0.3382 -0.9427  1.9938
  964SOL     OW 2890   2.426   0.370   1.658 -0.1038 -0.5384 -0.1116
  964SOL    HW1 2891   2.522   0.398   1.699 -2.8042  0.0065  3.8722
  964SOL    HW2 2892   2.414   0.381   1.554 -0.1852  1.0111 -0.8312
  965SOL     OW 2893   2.590   3.038   0.179  0.8197 -0.9200 -0.4405
  965SOL    HW1 2894   2.661   2.981   0.134  0.0519  1.6819 -1.3394
  965SOL    HW2 2895   2.509   3.042   0.106  1.5668 -2.9929 -0.3715
  966SOL     OW 2896   2.511   2.527   2.255  0.2190  0.8365 -0.1632
  966SOL    HW1 2897   2.412   2.519   2.288  0.9553  3.2966  1.3554
  966SOL    HW2 2898   2.531   2.624   2.216  2.0126  1.6555 -3.4067
  967SOL     OW 2899   2.748   2.793   2.485 -0.3223  0.1538 -0.6431
  967SOL    HW1 2900   2.780   2.730   2.411 -0.6425 -0.7720  0.1730
  967SOL    HW2 2901   2.816   2.872   2.495 -0.4744 -2.8051  0.1568
  968SOL     OW 2902   1.964   1.061   2.688  0.7061 -0.4549  0.2671
  968SOL    HW1 2903   1.946   1.146   2.642  1.0145  0.3194  1.6054
  968SOL    HW2 2904   1.952   0.973   2.634  4.2278  1.1563  1.4397
  969SOL     OW 2905   2.735   2.362   1.104  0.3509 -0.8296  0.5505
  969SOL    HW1 2906   2.681   2.357   1.015  0.6347 -1.3424  0.8999
  969SOL    HW2 2907   2.817   2.299   1.112  2.0095  1.4808  1.9144
  970SOL     OW 2908   1.079   2.143   1.767  0.7579  0.8027  0.0962
  970SOL    HW1 2909   0.980   2.140   1.744  1.5873  0.8651 -0.6895
  970SOL    HW2 2910   1.094   2.164   1.866 -0.9422 -1.0614  1.4496
  971SOL     OW 2911   2.817   2.078   1.915  0.5523 -1.2358  0.0811
  971SOL    HW1 2912   2.818   2.174   1.955 -2.0130 -1.8287 -0.1716
  971SOL    HW2 2913   2.865   2.084   1.823 -1.1339 -0.1707  0.0985
  972SOL     OW 2914   2.078   2.397   0.239  0.2769  0.0023  0.0709
  972SOL    HW1 2915   2.022   2.313   0.200 -1.8817  0.0273  1.8967
  972SOL    HW2 2916   2.099   2.383   0.342 -0.3970  0.8972  1.0028
  973SOL     OW 2917   1.273   1.071   1.989 -0.9464  0.0135 -0.3906
  973SOL    HW1 2918   1.210   1.046   1.908 -3.2889  0.5543 -1.2021
  973SOL    HW2 2919   1.279   1.171   2.029 -1.4873  3.3607  2.7085
  974SOL     OW 2920   1.623   0.589   1.922  0.3994 -0.4303 -0.3858
  974SOL    HW1 2921   1.709   0.646   1.902 -1.4502 -0.6851  3.0541
  974SOL    HW2 2922   1.538   0.651   1.935  0.2943 -0.6050 -1.8661
  975SOL     OW 2923   2.358   3.052   0.025 -0.6108  0.4186 -0.4379
  975SOL    HW1 2924   2.294   2.973   0.016 -0.2020 -0.2009  0.3047
  975SOL    HW2 2925   2.411   3.071  -0.066  1.3901 -1.2027 -2.5399
  976SOL     OW 2926   1.949   2.841   2.347  0.1564  0.1085  0.1074
  976SOL    HW1 2927   1.888   2.776   2.293  1.0808  0.4017  0.8291
  976SOL    HW2 2928   1.939   2.832   2.443 -0.5733  2.1576 -0.3263
  977SOL     OW 2929   0.471   0.617   1.032  0.5384  0.4778  0.5250
  977SOL    HW1 2930   0.374   0.621   0.985 -1.9847 -0.0404 -2.0424
  977SOL    HW2 2931   0.542   0.571   0.971  0.4450  2.0168  4.4519
   3.10000   3.10000   3.10000
