1000 SPC/Fw water molecules t=   0.00000 step= 0
 2931
    1SOL     OW    1   2.521   0.398   2.573 -0.1369  0.6855  0.2217
    1SOL    HW1    2   2.491   0.308   2.538  0.7523 -0.0766  0.5321
    1SOL    HW2    3   2.579   0.397   2.661 -1.0818 -0.0290  3.1386
    2SOL     OW    4   2.757   3.014   1.413 -0.0425 -0.1949  0.1813
    2SOL    HW1    5   2.848   3.062   1.384 -0.0915 -0.5030 -0.2145
    2SOL    HW2    6   2.688   3.082   1.441  1.2493  0.2979 -2.5191
    3SOL     OW    7   2.733   2.627   0.447  0.0635  0.2429  0.3382
    3SOL    HW1    8   2.679   2.543   0.464 -0.5094  1.1190 -1.7692
    3SOL    HW2    9   2.800   2.643   0.520 -0.7112 -0.1207 -1.1159
    4SOL     OW   10   1.310   1.439   2.326  0.2140 -0.0826 -0.0927
    4SOL    HW1   11   1.244   1.517   2.358 -0.6646 -0.8935 -0.5591
    4SOL    HW2   12   1.300   1.350   2.381  2.5507  0.7689 -0.3434
    5SOL     OW   13   1.167   1.527   3.023  0.4063 -0.7336  0.3379
    5SOL    HW1   14   1.208   1.611   3.067 -1.0195 -1.4241 -2.4488
    5SOL    HW2   15   1.064   1.520   3.034  1.9306 -2.4774  0.7664
    6SOL     OW   16   0.160   1.921   2.955  0.3915  0.2496 -0.5013
    6SOL    HW1   17   0.223   1.877   3.026 -5.0234 -0.5037  1.1130
    6SOL    HW2   18   0.078   1.856   2.938 -0.9285 -0.6638  0.1695
    7SOL     OW   19   2.605   0.838   1.214 -0.1702  0.3612 -0.3644
    7SOL    HW1   20   2.579   0.769   1.286  1.8261 -1.2742 -0.9538
    7SOL    HW2   21   2.618   0.791   1.124 -1.8570 -1.6824  3.7759
    8SOL     OW   22   0.440   0.671   1.607  0.4403  0.7285 -0.6848
    8SOL    HW1   23   0.528   0.620   1.611 -0.6552 -0.6479 -1.1297
    8SOL    HW2   24   0.366   0.600   1.582  1.9071  0.1843 -0.0841
    9SOL     OW   25   1.142   0.888   2.277  0.0883  0.5764 -0.2219
    9SOL    HW1   26   1.209   0.972   2.263  0.8288 -1.6192 -0.4891
    9SOL    HW2   27   1.107   0.857   2.184  0.0021 -0.4117 -2.0975
   10SOL     OW   28   0.610   1.365   1.330  0.4505  0.2425  0.1995
   10SOL    HW1   29   0.527   1.384   1.267 -0.6298 -0.4044 -3.0201
   10SOL    HW2   30   0.690   1.428   1.319 -0.8363 -1.9465  2.7620
   11SOL     OW   31   2.349   2.552   0.912 -0.4664 -0.2959 -0.4556
   11SOL    HW1   32   2.390   2.596   0.998 -0.4677 -0.8273 -2.1951
   11SOL    HW2   33   2.396   2.466   0.883  3.6442 -0.3238 -1.1936
   12SOL     OW   34   1.447   0.906   0.448 -0.1140  0.3398  0.6217
   12SOL    HW1   35   1.362   0.961   0.443  1.2245 -0.1988  0.2962
   12SOL    HW2   36   1.432   0.804   0.451 -3.6884 -0.0950  1.8812
   13SOL     OW   37   2.445   0.690   1.808 -0.9064 -0.3480  0.0237
   13SOL    HW1   38   2.376   0.651   1.873 -1.7295  0.1518  1.2767
   13SOL    HW2   39   2.434   0.654   1.713  0.9470 -1.2511  2.0821
   14SOL     OW   40   1.787   0.032   0.546  0.1282  0.0873 -0.3324
   14SOL    HW1   41   1.705   0.079   0.498  0.2971 -2.2515 -2.3551
   14SOL    HW2   42   1.769   0.000   0.643 -0.1128  0.3836  0.1319
   15SOL     OW   43   1.995   2.049   2.799 -0.3191 -0.0119 -0.3127
   15SOL    HW1   44   1.929   2.117   2.848 -0.5061  0.9891  1.9146
   15SOL    HW2   45   1.947   1.971   2.753 -2.6745  2.2805 -0.2598
   16SOL     OW   46   1.559   1.646  -0.001 -0.2539  0.0884 -0.4053
   16SOL    HW1   47   1.590   1.553  -0.037 -2.3364  1.0590  1.4765
   16SOL    HW2   48   1.560   1.650   0.102  1.4342  1.2027 -2.2871
   17SOL     OW   49   0.037   0.517   0.111  0.5231 -0.9838  0.9552
   17SOL    HW1   50   0.135   0.503   0.093  2.9784  1.6804 -1.0852
   17SOL    HW2   51  -0.013   0.529   0.024  1.0322 -0.1314 -0.6287
   18SOL     OW   52   1.085   2.868   2.130 -0.1439  0.4328  0.3144
   18SOL    HW1   53   0.984   2.877   2.122 -0.0642  1.5034 -0.6282
   18SOL    HW2   54   1.128   2.823   2.045  1.2156 -1.3134 -1.4004
   19SOL     OW   55   0.591   1.059   1.936  0.3217 -0.3676  0.0472
   19SOL    HW1   56   0.547   1.029   2.024 -1.2886  1.5354  0.1889
   19SOL    HW2   57   0.681   1.018   1.910 -0.5914 -2.4452  2.0883
   20SOL     OW   58   0.239   2.735   0.834 -0.2678 -0.3138  0.4900
   20SOL    HW1   59   0.163   2.805   0.829  0.0233  0.1586  1.7152
   20SOL    HW2   60   0.291   2.724   0.748  0.3230 -0.3300  1.4526
   21SOL     OW   61   2.827   0.233   2.112 -0.0893  0.4349  0.0667
   21SOL    HW1   62   2.903   0.173   2.077 -1.6769  0.9681 -0.7699
   21SOL    HW2   63   2.794   0.219   2.210 -0.0540  2.4715 -1.6556
   22SOL     OW   64   2.355   0.166   0.074 -0.0425  0.0764  0.5394
   22SOL    HW1   65   2.370   0.065   0.051 -0.0555 -2.5433 -0.9124
   22SOL    HW2   66   2.256   0.199   0.068 -0.4879  0.2511  0.3719
   23SOL     OW   67   2.733   0.641   0.734  0.5107  0.1032 -0.2757
   23SOL    HW1   68   2.715   0.542   0.720 -0.7184 -0.8398  1.2004
   23SOL    HW2   69   2.739   0.694   0.643 -3.0410  2.6697 -1.5620
   24SOL     OW   70   0.154   1.892   0.398 -0.0784 -0.4436  0.2922
   24SOL    HW1   71   0.054   1.896   0.364 -1.0501 -0.4633 -1.6569
   24SOL    HW2   72   0.223   1.900   0.319 -0.1489 -1.7841  2.6530
   25SOL     OW   73   2.281   0.539   0.199 -0.0725 -0.4472 -0.1841
   25SOL    HW1   74   2.338   0.474   0.261 -2.3181  0.8847 -0.6856
   25SOL    HW2   75   2.255   0.499   0.105 -0.7439  0.3578  3.6395
   26SOL     OW   76   2.518   2.150   2.086 -0.3213  0.2748  0.1054
   26SOL    HW1   77   2.575   2.206   2.152 -0.9434  3.2049 -1.4861
   26SOL    HW2   78   2.576   2.087   2.026  0.8476 -1.0681 -0.1026
   27SOL     OW   79   0.663   3.013   0.127 -0.3017 -0.0317  0.3974
   27SOL    HW1   80   0.752   3.058   0.103  3.0095 -3.0952  2.0889
   27SOL    HW2   81   0.586   3.054   0.072  1.2012 -1.7530 -0.4845
   28SOL     OW   82   1.464   0.244   0.175  0.2015 -0.5957  0.3897
   28SOL    HW1   83   1.552   0.193   0.172  0.6850 -3.3012 -0.1798
   28SOL    HW2   84   1.472   0.350   0.175 -3.2122 -0.7970 -1.7771
   29SOL     OW   85   2.025   0.582   0.323 -0.1222 -0.3274  0.0222
   29SOL    HW1   86   2.039   0.681   0.341  0.7643  0.9467 -2.1900
   29SOL    HW2   87   2.108   0.540   0.281 -2.1401 -0.0575  2.0821
   30SOL     OW   88   0.211   2.030   0.909 -0.2609 -0.2318  0.0748
   30SOL    HW1   89   0.174   1.978   0.832  2.1943  0.2668  1.5291
   30SOL    HW2   90   0.142   2.082   0.968  2.4560  1.1573 -0.5803
   31SOL     OW   91   2.125   3.099   2.348 -0.4692  0.0768  0.0547
   31SOL    HW1   92   2.091   3.108   2.445  1.6364  1.3083 -1.7272
   31SOL    HW2   93   2.055   3.070   2.279  1.1385 -0.8513  0.2396
   32SOL     OW   94   3.003   0.089   0.282 -0.4466  0.6544 -1.0935
   32SOL    HW1   95   2.997   0.018   0.358  0.2621  0.4490 -0.8897
   32SOL    HW2   96   3.073   0.057   0.215  2.6760 -0.9089  0.8408
   33SOL     OW   97   0.964   0.335   0.466 -0.1008 -0.6666 -0.4214
   33SOL    HW1   98   0.921   0.240   0.480 -0.1145  0.2519  3.1268
   33SOL    HW2   99   1.002   0.367   0.552  1.9394 -2.4069 -3.0049
   34SOL     OW  100   0.379   2.909   1.045 -0.2914 -0.3149 -0.2462
   34SOL    HW1  101   0.361   2.873   0.949  0.8823 -0.7600 -0.4440
   34SOL    HW2  102   0.478   2.894   1.072 -1.9040 -0.0437 -0.9170
   35SOL     OW  103   0.058   3.098   1.760 -0.0071 -0.0668  0.7496
   35SOL    HW1  104   0.035   2.999   1.749 -2.2236  0.7988 -0.8755
   35SOL    HW2  105   0.012   3.158   1.688 -0.8913  3.2012 -1.4793
   36SOL     OW  106   1.900   1.161   1.763  0.2604 -0.4966  0.9279
   36SOL    HW1  107   1.948   1.088   1.704  1.5675 -0.3491 -2.3162
   36SOL    HW2  108   1.923   1.255   1.734 -0.5762  1.3029 -3.4244
   37SOL     OW  109   1.128   0.340   1.007 -0.1617 -0.1102  0.3846
   37SOL    HW1  110   1.195   0.411   1.039 -1.7439 -0.0031 -2.2746
   37SOL    HW2  111   1.180   0.252   1.006  1.5520  0.1137  0.4620
   38SOL     OW  112   1.159   2.670   2.326  0.1525  0.2896  0.8287
   38SOL    HW1  113   1.072   2.608   2.353  0.9806  3.0027  0.7585
   38SOL    HW2  114   1.141   2.746   2.258  0.4347 -0.4278 -0.4241
   39SOL     OW  115   2.426   1.494   0.048  0.0773  0.4214 -0.4492
   39SOL    HW1  116   2.451   1.404   0.014  0.1673  0.4312 -0.8105
   39SOL    HW2  117   2.335   1.492   0.096 -0.9665 -0.5388  0.8686
   40SOL     OW  118   1.988   2.524   2.625  1.0906 -0.5477  0.0027
   40SOL    HW1  119   1.914   2.593   2.626  0.0217  0.8150 -0.3738
   40SOL    HW2  120   1.964   2.446   2.569  1.0328 -2.9045 -2.0648
   41SOL     OW  121   2.958   0.707   2.696 -0.1956  0.6619  0.6467
   41SOL    HW1  122   2.863   0.731   2.728  2.1583 -1.5565 -1.1522
   41SOL    HW2  123   2.968   0.602   2.697  3.3871  2.1096  1.4351
   42SOL     OW  124   1.693   1.707   0.604  0.2040  0.8163 -0.3950
   42SOL    HW1  125   1.640   1.631   0.561  0.4932  0.0965 -1.9975
   42SOL    HW2  126   1.746   1.759   0.530 -1.0888  1.8098  0.3060
   43SOL     OW  127   0.453   1.746   1.222 -0.5298 -0.1537 -0.4066
   43SOL    HW1  128   0.418   1.717   1.316  0.7610  2.1190  0.4923
   43SOL    HW2  129   0.379   1.745   1.150  1.3212  0.3243 -0.7446
   44SOL     OW  130   1.736   2.486   0.012  0.2755 -0.2592 -0.1117
   44SOL    HW1  131   1.769   2.562  -0.055  0.8041  0.6984  0.7995
   44SOL    HW2  132   1.784   2.471   0.106  0.0446 -0.6337 -2.3603
   45SOL     OW  133   0.319   1.891   2.566  0.3028  0.7042  0.0820
   45SOL    HW1  134   0.257   1.908   2.488  2.4317  1.8094 -0.9213
   45SOL    HW2  135   0.404   1.840   2.537  3.8736 -1.8616  2.0843
   46SOL     OW  136   1.215   0.689   0.128 -0.2332  0.0183  0.5543
   46SOL    HW1  137   1.278   0.775   0.119 -1.2593  1.3029  0.2996
   46SOL    HW2  138   1.116   0.709   0.104 -0.9339  3.9504  0.5790
   47SOL     OW  139   0.235   2.426   1.571 -0.1851 -0.2399 -0.1088
   47SOL    HW1  140   0.325   2.390   1.559  0.1384 -2.0224  0.8236
   47SOL    HW2  141   0.206   2.497   1.498 -0.3490 -1.1437  0.3773
   48SOL     OW  142   2.676   0.531   0.111 -0.5540  1.0309 -0.3789
   48SOL    HW1  143   2.613   0.550   0.197  0.2271 -1.7107  3.6879
   48SOL    HW2  144   2.737   0.610   0.083 -0.5224 -1.4325 -0.7489
   49SOL     OW  145   0.372   0.894   1.771 -0.0712 -0.5631 -0.3378
   49SOL    HW1  146   0.457   0.945   1.778  1.2680 -1.2966  0.2333
   49SOL    HW2  147   0.390   0.798   1.740 -0.4925 -0.8471 -2.0805
   50SOL     OW  148   1.682   1.067   0.255 -0.0092 -0.3041  1.1859
   50SOL    HW1  149   1.680   0.971   0.216  0.5588 -1.3017 -0.8487
   50SOL    HW2  150   1.647   1.079   0.347  0.1093 -1.5147 -0.0241
   51SOL     OW  151   2.990   1.922   0.322  0.3380 -0.5423  0.5726
   51SOL    HW1  152   3.012   1.966   0.234 -0.8366 -1.5793 -0.3474
   51SOL    HW2  153   2.931   1.839   0.310  0.8400 -0.7089  0.5469
   52SOL     OW  154   0.802   1.885   0.527  0.2230 -0.0003 -1.0298
   52SOL    HW1  155   0.789   1.983   0.559  0.6812 -0.0984 -0.9588
   52SOL    HW2  156   0.829   1.826   0.601  1.0461  1.6226 -1.9468
   53SOL     OW  157   3.089   0.416   1.520 -0.1183 -0.0803  0.2551
   53SOL    HW1  158   3.005   0.369   1.544  2.9194  1.4402  0.7785
   53SOL    HW2  159   3.078   0.521   1.516  0.3966 -0.1489  0.9800
   54SOL     OW  160   1.769   0.460   3.015  0.0794  0.0775 -0.5039
   54SOL    HW1  161   1.810   0.413   3.098 -0.3495 -1.1978  1.5533
   54SOL    HW2  162   1.665   0.472   3.019 -0.0149  2.1804  4.1183
   55SOL     OW  163   0.694   2.906   0.648 -0.0597 -0.2367 -0.2083
   55SOL    HW1  164   0.642   2.992   0.674 -2.2288  0.0167  0.8460
   55SOL    HW2  165   0.791   2.922   0.624 -3.6499 -2.1986 -0.4703
   56SOL     OW  166   0.453   1.547   3.092  0.6221 -0.4443  0.3208
   56SOL    HW1  167   0.381   1.608   3.141 -0.1730 -0.6837  0.7642
   56SOL    HW2  168   0.439   1.449   3.107  1.0941 -1.3803  0.4211
   57SOL     OW  169   1.712   2.387   2.664  0.5227 -0.1504  0.1574
   57SOL    HW1  170   1.773   2.372   2.583  2.3186  1.2210 -1.3932
   57SOL    HW2  171   1.635   2.454   2.651  0.0340 -0.7943  1.6496
   58SOL     OW  172   0.659   0.472   1.093 -0.1377  0.1693  0.2207
   58SOL    HW1  173   0.610   0.550   1.042  0.4176  1.7979 -0.0019
   58SOL    HW2  174   0.613   0.385   1.098  2.2564  0.4443  2.6462
   59SOL     OW  175   0.482   2.398   2.715 -0.0388  0.0828  0.0018
   59SOL    HW1  176   0.486   2.301   2.686 -1.4652 -1.5669 -2.8740
   59SOL    HW2  177   0.535   2.416   2.800  2.1306 -2.7921  0.9958
   60SOL     OW  178   2.332   2.144   2.283 -0.1292  0.5135 -1.0359
   60SOL    HW1  179   2.398   2.164   2.208  2.2660  2.1021  0.1288
   60SOL    HW2  180   2.339   2.198   2.370 -0.6444  0.4297 -0.9620
   61SOL     OW  181   1.343   0.651   0.438 -0.3163  0.1749  0.3895
   61SOL    HW1  182   1.251   0.621   0.479 -1.4209  0.4548 -1.3657
   61SOL    HW2  183   1.369   0.607   0.349  0.7572 -0.8677  0.2286
   62SOL     OW  184   2.721   1.890   3.052  0.4779 -0.5476  0.2944
   62SOL    HW1  185   2.682   1.813   3.109  0.2749 -0.4477  0.1600
   62SOL    HW2  186   2.727   1.869   2.951 -2.3153  3.4172 -0.4460
   63SOL     OW  187   0.592   0.838   0.138 -0.5120 -0.7921 -0.6255
   63SOL    HW1  188   0.531   0.916   0.108  0.8493 -1.0021  0.6936
   63SOL    HW2  189   0.676   0.865   0.188 -2.1300 -0.9285  1.9356
   64SOL     OW  190   0.075   0.565   2.470 -0.0857 -0.2690  0.5584
   64SOL    HW1  191   0.094   0.641   2.538 -0.1390  1.1927 -0.5682
   64SOL    HW2  192   0.053   0.606   2.380 -1.8390  0.4060 -0.5024
   65SOL     OW  193   0.192   1.495   0.611 -0.8857 -0.2041  0.1081
   65SOL    HW1  194   0.229   1.579   0.662  2.0953 -1.5943  0.6084
   65SOL    HW2  195   0.265   1.454   0.552 -1.4083 -1.2884  1.7174
   66SOL     OW  196   2.451   0.311   0.626 -0.2687  0.5027 -0.1766
   66SOL    HW1  197   2.390   0.388   0.656  0.4121 -0.1467  0.7655
   66SOL    HW2  198   2.408   0.215   0.638  1.1738  1.2434  1.4445
   67SOL     OW  199   0.486   2.531   1.311 -0.4737  0.4356 -0.2386
   67SOL    HW1  200   0.573   2.589   1.341 -1.2956  1.8988 -2.0465
   67SOL    HW2  201   0.479   2.437   1.353  0.3302  1.9716 -0.4967
   68SOL     OW  202   1.006   1.107   2.380 -0.6638 -0.2827 -0.2094
   68SOL    HW1  203   1.032   1.021   2.324  0.1030  0.4629  2.5517
   68SOL    HW2  204   0.941   1.170   2.324 -0.4662  1.2549  3.4816
   69SOL     OW  205   0.764   2.714   2.153  0.1623 -0.0888  0.9189
   69SOL    HW1  206   0.811   2.617   2.152  0.9365 -1.1567 -1.4403
   69SOL    HW2  207   0.669   2.703   2.191  0.0512 -0.0169  2.9675
   70SOL     OW  208   0.527   0.230   2.697  0.3026 -0.1693  0.1779
   70SOL    HW1  209   0.599   0.230   2.769 -1.1634  2.3684  1.1599
   70SOL    HW2  210   0.467   0.144   2.695  0.6749 -1.7253 -2.9856
   71SOL     OW  211   1.082   1.790   0.335  0.8282 -0.8763  0.6945
   71SOL    HW1  212   1.062   1.689   0.353 -1.2792  1.6804 -0.9670
   71SOL    HW2  213   1.063   1.816   0.237  0.2315 -0.1035  1.9751
   72SOL     OW  214   1.800   0.133   2.101 -0.4910 -0.2804 -0.8616
   72SOL    HW1  215   1.854   0.182   2.025 -0.2690  2.2644 -0.8752
   72SOL    HW2  216   1.816   0.031   2.106  0.3010  2.7959 -3.2175
   73SOL     OW  217   2.850   2.201   2.506  0.0073  0.1554 -0.0325
   73SOL    HW1  218   2.819   2.106   2.477  2.2349 -1.0660 -1.1414
   73SOL    HW2  219   2.881   2.205   2.606 -1.7321 -0.3429 -1.0542
   74SOL     OW  220   2.705   2.956   2.126 -0.3253  0.1749 -0.4203
   74SOL    HW1  221   2.661   2.936   2.221  1.7237  1.3035  0.7351
   74SOL    HW2  222   2.803   2.927   2.114  0.5285  1.1899  3.2041
   75SOL     OW  223   0.933   0.766   0.972 -0.5663 -0.2471 -0.5202
   75SOL    HW1  224   0.833   0.798   0.945 -0.4506 -0.0292 -1.1608
   75SOL    HW2  225   0.958   0.798   1.066 -0.9517  0.2179 -2.8989
   76SOL     OW  226   1.741   1.264   2.542  0.4296 -0.2789  0.2951
   76SOL    HW1  227   1.643   1.243   2.518  1.9769 -0.3944  0.1761
   76SOL    HW2  228   1.751   1.345   2.607  1.6136 -2.8440 -0.9849
   77SOL     OW  229   2.985   1.004   1.036  0.0089 -0.3813 -0.2494
   77SOL    HW1  230   2.989   0.901   1.023  3.0772  0.4350  0.0581
   77SOL    HW2  231   3.059   1.048   1.097 -1.1609  0.3650 -1.4300
   78SOL     OW  232   1.995   1.390   1.434 -0.2307  0.0931  0.3001
   78SOL    HW1  233   2.050   1.404   1.346 -2.4786 -0.4283 -0.6752
   78SOL    HW2  234   1.896   1.367   1.419  1.6887 -0.5488 -2.1477
   79SOL     OW  235   0.650   1.274   0.820 -0.1533  0.6533  0.4134
   79SOL    HW1  236   0.556   1.265   0.771 -1.0471 -0.3446  0.2944
   79SOL    HW2  237   0.725   1.218   0.779 -1.1031  3.5697  1.4111
   80SOL     OW  238   0.664   0.511   1.628 -0.2029 -0.4178 -0.5010
   80SOL    HW1  239   0.728   0.577   1.586 -0.7899 -2.1058 -1.6675
   80SOL    HW2  240   0.636   0.432   1.569  1.2443  0.8285  0.3975
   81SOL     OW  241   1.109   1.474   2.596  0.0120 -0.5987  0.3744
   81SOL    HW1  242   1.047   1.429   2.664 -0.1710 -0.4773  0.1751
   81SOL    HW2  243   1.059   1.476   2.503  0.2712 -0.3550 -0.2106
   82SOL     OW  244   0.909   3.004   1.535 -0.4663 -0.4851 -0.0086
   82SOL    HW1  245   0.907   3.005   1.434 -0.2828  0.1154  1.6405
   82SOL    HW2  246   0.832   2.953   1.580 -0.4710  1.6230 -1.4500
   83SOL     OW  247   2.720   2.428   0.801 -0.5426 -0.3108 -0.4145
   83SOL    HW1  248   2.632   2.388   0.753 -0.5262 -0.9259  0.5313
   83SOL    HW2  249   2.757   2.506   0.743  1.2771  0.6577  0.7889
   84SOL     OW  250   0.673   3.104   2.417 -0.4726  0.6204 -0.2988
   84SOL    HW1  251   0.578   3.089   2.456  0.9342 -1.0188  0.4718
   84SOL    HW2  252   0.745   3.046   2.471  0.3183 -4.2356 -0.9585
   85SOL     OW  253   0.332   1.651   1.453  0.3776 -0.0449  0.2629
   85SOL    HW1  254   0.295   1.745   1.491  1.5156 -1.9777 -0.4784
   85SOL    HW2  255   0.370   1.593   1.532 -1.2211 -0.7855 -0.4970
   86SOL     OW  256   0.338   0.974   1.488  0.3370  0.0422 -0.2412
   86SOL    HW1  257   0.335   0.948   1.388 -0.6894 -1.2749 -1.1234
   86SOL    HW2  258   0.360   0.892   1.545 -0.4955 -0.1492  0.1790
   87SOL     OW  259   1.528   0.555   0.205  0.4224 -0.3726 -0.5383
   87SOL    HW1  260   1.592   0.637   0.215 -1.2703 -0.7329  0.5135
   87SOL    HW2  261   1.494   0.549   0.105 -2.0257  1.0440  1.4193
   88SOL     OW  262   1.634   1.344   0.201 -0.7965  0.4354 -0.2642
   88SOL    HW1  263   1.654   1.244   0.211 -0.4571  2.1337  0.7753
   88SOL    HW2  264   1.535   1.365   0.222 -1.2876  2.0417 -0.7451
   89SOL     OW  265   2.993   0.449   0.596  0.0102 -0.3860  0.1184
   89SOL    HW1  266   3.034   0.360   0.648  1.0449 -0.4381  0.7202
   89SOL    HW2  267   2.891   0.447   0.573  1.7714 -0.5623  0.2557
   90SOL     OW  268   0.843   1.651   3.077 -0.1933 -0.3865  0.4967
   90SOL    HW1  269   0.765   1.651   3.144  0.3141  2.2859  0.2753
   90SOL    HW2  270   0.818   1.629   2.979  0.9429 -3.5097  0.3541
   91SOL     OW  271   1.261   1.310   1.798  0.1398  1.3640  0.0084
   91SOL    HW1  272   1.290   1.408   1.823  0.8366  2.4240 -0.3462
   91SOL    HW2  273   1.339   1.265   1.752  0.2892  1.5167 -1.1608
   92SOL     OW  274   0.061   1.100   1.235  0.1396  0.1997 -0.5604
   92SOL    HW1  275   0.153   1.099   1.179  2.7658 -0.3563  0.9635
   92SOL    HW2  276   0.071   1.051   1.328 -0.8033 -0.3473  0.7761
   93SOL     OW  277   0.092   2.812   3.074  0.6754 -0.0956 -0.2338
   93SOL    HW1  278   0.000   2.815   3.030  0.9290  2.2791 -0.5313
   93SOL    HW2  279   0.110   2.716   3.105 -2.4489 -1.3936 -1.4048
   94SOL     OW  280   1.502   1.275   1.681  0.1376  0.2512  0.2591
   94SOL    HW1  281   1.523   1.231   1.774 -0.8076 -1.1132  0.3053
   94SOL    HW2  282   1.569   1.359   1.677  1.6630 -1.0110  0.0569
   95SOL     OW  283   1.450   2.497   2.951 -0.7887 -0.5056 -0.0655
   95SOL    HW1  284   1.384   2.470   3.027 -0.5003 -1.2266  0.3173
   95SOL    HW2  285   1.493   2.412   2.916 -1.7759 -0.7987 -3.0790
   96SOL     OW  286   0.530   2.030   1.231 -0.1829  0.4600  0.4841
   96SOL    HW1  287   0.500   2.057   1.134 -0.9411  1.1448 -0.2125
   96SOL    HW2  288   0.532   1.926   1.236  2.1024 -0.3610  1.2385
   97SOL     OW  289   0.337   1.455   2.455 -0.4703 -0.1723  0.1046
   97SOL    HW1  290   0.266   1.388   2.497  0.7997 -1.8307  0.3555
   97SOL    HW2  291   0.375   1.528   2.522  2.3280  3.1651 -1.0765
   98SOL     OW  292   2.123   1.659   1.239  0.1477 -0.0778 -0.4472
   98SOL    HW1  293   2.098   1.570   1.184 -0.2009  0.1506 -1.2733
   98SOL    HW2  294   2.202   1.636   1.299 -4.5824 -0.8505  0.0586
   99SOL     OW  295   2.520   2.219   1.413  0.3799 -0.4897 -0.9171
   99SOL    HW1  296   2.508   2.116   1.408 -1.5142 -2.1171 -1.9818
   99SOL    HW2  297   2.568   2.249   1.500  0.2850  0.2121 -0.2355
  100SOL     OW  298   2.279   0.369   2.061 -0.0879  0.4155  0.2597
  100SOL    HW1  299   2.226   0.353   2.151 -0.8761 -0.1183 -1.1939
  100SOL    HW2  300   2.380   0.352   2.067  0.8712 -1.0083 -0.1060
  101SOL     OW  301   0.374   1.399   0.228  1.3157  0.5684  0.5482
  101SOL    HW1  302   0.400   1.420   0.328 -1.6123  0.1924 -2.2378
  101SOL    HW2  303   0.324   1.477   0.183  1.7299  1.7534  0.7626
  102SOL     OW  304   2.234   1.136   0.882  0.3380  0.1753 -0.4717
  102SOL    HW1  305   2.182   1.056   0.835  1.2971  0.2538  0.2123
  102SOL    HW2  306   2.259   1.209   0.812  1.2741 -0.8156 -1.5180
  103SOL     OW  307   2.271   0.101   0.413  0.7461 -0.2729 -0.3752
  103SOL    HW1  308   2.338   0.179   0.387 -0.9488  1.4843 -0.0548
  103SOL    HW2  309   2.316   0.024   0.470 -1.2943 -0.8103 -2.6217
  104SOL     OW  310   0.106   1.850   2.159 -0.2085  0.2353  0.2141
  104SOL    HW1  311   0.144   1.754   2.132 -1.1318  3.2747 -0.8563
  104SOL    HW2  312   0.009   1.873   2.137  1.1607 -1.5975 -0.2465
  105SOL     OW  313   1.061   1.966   0.795 -0.2381  0.2850  0.5723
  105SOL    HW1  314   1.025   2.057   0.753 -0.7812  2.0445 -0.0548
  105SOL    HW2  315   1.068   1.893   0.719  2.6832  0.2810 -0.0769
  106SOL     OW  316   2.091   0.515   1.346 -0.4884 -0.0160  0.3678
  106SOL    HW1  317   2.046   0.438   1.396  0.3079 -0.4974  0.2653
  106SOL    HW2  318   2.078   0.606   1.388 -1.0676 -0.3275  2.1982
  107SOL     OW  319   1.839   3.005   1.119  0.4194 -0.0442  0.3640
  107SOL    HW1  320   1.879   3.086   1.168 -0.0973 -0.5491 -0.2790
  107SOL    HW2  321   1.803   2.936   1.187  0.1968  0.7508  0.5973
  108SOL     OW  322   0.713   2.676   1.319  0.3127 -0.6511 -0.2746
  108SOL    HW1  323   0.700   2.738   1.404  2.8836 -2.3315 -0.8857
  108SOL    HW2  324   0.811   2.654   1.301  0.0175 -0.2897 -2.8178
  109SOL     OW  325   2.022   0.178   0.686  0.3011  0.1552 -1.0444
  109SOL    HW1  326   1.999   0.079   0.709  0.7676 -1.3936 -1.9531
  109SOL    HW2  327   1.948   0.243   0.730 -0.6431 -0.4846 -0.8580
  110SOL     OW  328   0.516   2.715   2.813 -0.3700 -0.7432  0.5020
  110SOL    HW1  329   0.513   2.764   2.721 -0.8063 -0.2274 -2.1533
  110SOL    HW2  330   0.589   2.641   2.814 -1.6473  2.9137  0.2694
  111SOL     OW  331   1.276   0.516   2.348  0.4407  0.4481  0.0469
  111SOL    HW1  332   1.214   0.575   2.404  1.2403  2.6376 -4.3414
  111SOL    HW2  333   1.317   0.446   2.413  0.2379  0.7871  0.6946
  112SOL     OW  334   1.742   0.530   1.410 -0.2339 -0.0231  0.4019
  112SOL    HW1  335   1.724   0.460   1.334 -0.5587  1.4743  1.9131
  112SOL    HW2  336   1.745   0.488   1.508  2.1465 -3.2861 -1.9727
  113SOL     OW  337   2.258   1.681   1.763  0.3484 -0.0738  0.8123
  113SOL    HW1  338   2.317   1.598   1.763  0.2951  3.3143 -1.9405
  113SOL    HW2  339   2.270   1.741   1.849  1.4538 -0.0328  3.3913
  114SOL     OW  340   0.428   0.579   1.305 -0.1856 -0.2096  0.2106
  114SOL    HW1  341   0.374   0.661   1.281  0.6236 -0.1509 -0.0527
  114SOL    HW2  342   0.482   0.540   1.226  1.6801  1.1626  1.0424
  115SOL     OW  343   2.711   1.586   1.264  0.1248 -0.0203  0.1967
  115SOL    HW1  344   2.745   1.488   1.274 -1.9165 -0.0984  2.0266
  115SOL    HW2  345   2.735   1.625   1.171  0.4302  1.9077  0.1254
  116SOL     OW  346   1.806   1.066   0.759  0.0466  0.1843 -0.5239
  116SOL    HW1  347   1.724   1.017   0.712 -1.1530  2.3274  1.8562
  116SOL    HW2  348   1.781   1.168   0.770  0.3966  0.9287  3.8269
  117SOL     OW  349   1.075   0.397   0.718 -0.1133  0.9900 -0.2329
  117SOL    HW1  350   1.095   0.392   0.821  1.1442 -0.3132  0.0090
  117SOL    HW2  351   1.070   0.496   0.689  3.1729 -0.7940  0.2589
  118SOL     OW  352   1.121   1.067   0.957 -0.4258 -0.3953  0.3570
  118SOL    HW1  353   1.111   0.981   1.015 -0.4018 -1.3397 -1.1256
  118SOL    HW2  354   1.104   1.156   1.003  2.5498 -0.3179 -0.3236
  119SOL     OW  355   1.851   1.609   2.006  0.2298  0.3577 -0.7311
  119SOL    HW1  356   1.835   1.699   2.047  1.0524  0.8620  1.3031
  119SOL    HW2  357   1.941   1.566   2.047  0.7714  1.1147 -3.2374
  120SOL     OW  358   2.991   2.766   0.213  0.0124  0.1660  0.2760
  120SOL    HW1  359   2.921   2.716   0.157 -0.2774  0.4438  3.0144
  120SOL    HW2  360   3.052   2.690   0.247  2.2105  0.8732 -2.1410
  121SOL     OW  361   2.108   0.690   2.254 -0.0697  0.2163 -0.4506
  121SOL    HW1  362   2.200   0.702   2.204 -1.1328 -0.5388  2.0708
  121SOL    HW2  363   2.057   0.609   2.223 -0.5862 -0.6103 -0.2094
  122SOL     OW  364   2.706   2.573   1.331 -0.0477 -0.4867  0.1296
  122SOL    HW1  365   2.681   2.591   1.232  1.6664  0.9218 -3.9390
  122SOL    HW2  366   2.665   2.486   1.374 -0.3268  1.7757 -1.4477
  123SOL     OW  367   1.721   3.083   1.690  0.1023  0.6214  0.2758
  123SOL    HW1  368   1.734   2.981   1.700 -1.1275  0.9479 -0.6521
  123SOL    HW2  369   1.764   3.122   1.608  2.7214  1.1721 -0.8403
  124SOL     OW  370   0.147   0.457   0.927  0.3815  0.4137  0.1497
  124SOL    HW1  371   0.136   0.486   1.026 -0.7809  2.3459 -0.2353
  124SOL    HW2  372   0.112   0.518   0.845 -1.1185  3.7450  2.3275
  125SOL     OW  373   0.886   1.692   0.714  0.3601 -0.3401 -0.6314
  125SOL    HW1  374   0.985   1.691   0.683  1.6046 -1.6484  0.0745
  125SOL    HW2  375   0.859   1.613   0.777  0.2046  2.0894 -2.9623
  126SOL     OW  376   1.866   2.355   2.416  0.5228  0.2473 -0.1418
  126SOL    HW1  377   1.918   2.264   2.402  2.2021 -0.1343 -0.7411
  126SOL    HW2  378   1.818   2.390   2.332 -0.6207 -0.3929 -1.7578
  127SOL     OW  379   1.048   0.956   0.128 -0.0330  0.2091  0.6945
  127SOL    HW1  380   1.110   1.001   0.201 -1.7104  0.2355  0.4718
  127SOL    HW2  381   0.985   0.877   0.161 -2.7299 -0.3439  0.8916
  128SOL     OW  382   0.960   0.214   1.444  0.2193 -0.4880 -0.0832
  128SOL    HW1  383   0.942   0.298   1.386  1.4703  0.9261 -3.1624
  128SOL    HW2  384   0.889   0.142   1.429 -1.6506 -3.5068  1.4283
  129SOL     OW  385   1.760   0.729   1.824  0.3121  0.4144 -0.3913
  129SOL    HW1  386   1.770   0.739   1.717 -2.2140 -1.8724  1.3041
  129SOL    HW2  387   1.799   0.810   1.873 -0.2358 -2.7083  0.1232
  130SOL     OW  388   1.243   2.108   0.971  0.1933  0.0570  0.4920
  130SOL    HW1  389   1.174   2.066   0.908 -0.1630 -2.9870  0.3970
  130SOL    HW2  390   1.313   2.163   0.921 -1.6878 -2.9329 -1.0249
  131SOL     OW  391   3.019   1.535   1.275 -0.1318 -0.2487  0.7175
  131SOL    HW1  392   2.971   1.444   1.290  0.6799  0.0271  0.2814
  131SOL    HW2  393   3.123   1.517   1.272 -0.1186 -1.7094 -0.2829
  132SOL     OW  394   1.950   2.459   0.562  0.1591  0.5569 -0.5124
  132SOL    HW1  395   1.852   2.486   0.573 -0.2036 -0.3174 -2.2199
  132SOL    HW2  396   2.007   2.479   0.645 -0.3179  1.0049 -0.8302
  133SOL     OW  397   1.827   2.245   2.904 -0.5189  0.5269 -0.0929
  133SOL    HW1  398   1.810   2.337   2.949  0.1224  1.1959  0.2851
  133SOL    HW2  399   1.811   2.255   2.805 -0.4376  3.5851  1.6833
  134SOL     OW  400   2.633   2.365   1.617  0.4886 -0.6658 -0.2435
  134SOL    HW1  401   2.565   2.311   1.682 -0.1584  0.1617 -2.3701
  134SOL    HW2  402   2.705   2.413   1.675 -0.6131 -1.4135  0.2974
  135SOL     OW  403   0.769   1.515   2.552  0.2483 -0.8140 -0.1547
  135SOL    HW1  404   0.749   1.409   2.550 -0.1140  2.1195 -0.1667
  135SOL    HW2  405   0.845   1.547   2.487  2.5363  0.1535 -4.0822
  136SOL     OW  406   1.131   2.030   0.456  0.3830  0.2192 -0.4580
  136SOL    HW1  407   1.064   2.067   0.525  2.6526  2.4788  1.2493
  136SOL    HW2  408   1.117   1.929   0.430  0.6852  0.6360  1.9887
  137SOL     OW  409   0.402   1.032   2.144 -0.4533 -0.0224 -0.6324
  137SOL    HW1  410   0.322   1.083   2.193  0.7821 -0.7693  0.5166
  137SOL    HW2  411   0.403   0.931   2.160  0.7021 -0.7478 -0.1465
  138SOL     OW  412   2.405   1.482   0.381  0.2337 -0.2481 -0.6558
  138SOL    HW1  413   2.330   1.458   0.318  0.2631 -2.1028  1.1699
  138SOL    HW2  414   2.434   1.396   0.429  1.4579 -1.6670  0.8843
  139SOL     OW  415   1.751   2.496   1.183  0.0038  0.0565 -0.0062
  139SOL    HW1  416   1.648   2.517   1.187  1.2212 -1.0983 -0.1438
  139SOL    HW2  417   1.786   2.431   1.249 -0.5610  1.1696 -0.7281
  140SOL     OW  418   3.003   2.981   2.452 -0.5315  0.1784  0.9513
  140SOL    HW1  419   2.981   2.884   2.483  0.7991 -1.1475 -1.4612
  140SOL    HW2  420   3.105   3.008   2.463 -1.7147 -2.5977 -2.6159
  141SOL     OW  421   1.131   1.479   1.600  0.3617  0.5743 -0.1538
  141SOL    HW1  422   1.165   1.547   1.674  0.3756 -0.5799  0.1101
  141SOL    HW2  423   1.164   1.379   1.613 -0.7768  1.3116 -1.1084
  142SOL     OW  424   1.510   0.612   2.233  0.1006 -0.1882  0.4274
  142SOL    HW1  425   1.490   0.607   2.134  2.2008 -1.9263 -2.6415
  142SOL    HW2  426   1.424   0.577   2.283 -2.6906 -1.1373 -2.2739
  143SOL     OW  427   2.748   0.848   0.491  0.4266 -0.0228  0.2454
  143SOL    HW1  428   2.794   0.897   0.410  0.6828 -1.4641  0.4112
  143SOL    HW2  429   2.762   0.902   0.576  3.6098  0.1547 -1.7313
  144SOL     OW  430   2.981   1.268   1.352  0.2124 -0.5704 -0.1762
  144SOL    HW1  431   2.965   1.247   1.454  2.8053 -0.3045 -2.3091
  144SOL    HW2  432   3.059   1.205   1.312 -0.1693 -0.0568  1.0758
  145SOL     OW  433   0.993   1.853   0.077 -0.1462  0.0656 -0.5509
  145SOL    HW1  434   1.016   1.935   0.016  0.7409 -1.6238  0.6407
  145SOL    HW2  435   0.943   1.775   0.023  0.8394  0.0782 -0.0578
  146SOL     OW  436   2.499   0.642   1.514 -0.0460 -0.5389 -0.1563
  146SOL    HW1  437   2.445   0.570   1.467 -0.3219 -0.1647  0.8063
  146SOL    HW2  438   2.453   0.733   1.533  2.1969  0.1537  1.3838
  147SOL     OW  439   1.103   2.594   0.662  0.0746  0.6553 -0.0480
  147SOL    HW1  440   1.055   2.642   0.582 -1.1458 -2.4235 -0.2637
  147SOL    HW2  441   1.177   2.534   0.627 -0.5839 -0.8393 -1.1907
  148SOL     OW  442   1.655   1.386   3.043  0.0152  0.6787 -0.2190
  148SOL    HW1  443   1.709   1.308   3.001  0.7355 -0.7581 -0.1664
  148SOL    HW2  444   1.623   1.359   3.139  2.7970  0.8274 -2.0969
  149SOL     OW  445   0.608   1.434   1.972 -0.4414 -0.3215 -0.2911
  149SOL    HW1  446   0.528   1.389   2.023 -0.1922 -2.5977 -0.3268
  149SOL    HW2  447   0.648   1.369   1.903 -0.1283 -1.7901  0.7378
  150SOL     OW  448   2.997   1.272   0.888  0.0338  0.1253  0.0353
  150SOL    HW1  449   3.070   1.331   0.938 -0.7051 -0.0887  0.5153
  150SOL    HW2  450   2.999   1.178   0.927 -0.2941  0.7045  1.8077
  151SOL     OW  451   0.175   0.809   2.091  0.1549 -0.4099 -0.0344
  151SOL    HW1  452   0.170   0.892   2.029  1.5747 -0.5514 -1.1781
  151SOL    HW2  453   0.258   0.746   2.066  0.1272  0.7448 -0.1686
  152SOL     OW  454   1.387   1.738   1.253  0.4923  0.3687  0.4635
  152SOL    HW1  455   1.382   1.818   1.315  0.0601 -0.0190  0.8986
  152SOL    HW2  456   1.307   1.731   1.188  1.0920 -0.4356 -1.3396
  153SOL     OW  457   0.047   1.500   0.159  0.6641 -0.0196 -0.0375
  153SOL    HW1  458   0.034   1.395   0.156  0.5557  1.8401  0.6527
  153SOL    HW2  459   0.042   1.534   0.255  3.0658  3.1511  1.3356
  154SOL     OW  460   2.429   1.943   2.817 -0.4603  0.6980  0.1192
  154SOL    HW1  461   2.455   1.850   2.851  0.6773 -0.9620  1.5394
  154SOL    HW2  462   2.478   1.978   2.734  2.9583 -0.3335 -0.6511
  155SOL     OW  463   2.534   1.240   0.486  0.4587  0.1470  0.0287
  155SOL    HW1  464   2.617   1.246   0.421 -0.5695 -2.2665  0.0970
  155SOL    HW2  465   2.479   1.154   0.463  0.8055  0.6593 -2.0262
  156SOL     OW  466   2.480   0.998   0.886  0.2737 -0.1792  0.1456
  156SOL    HW1  467   2.385   1.030   0.900 -2.2850  0.3087  2.0136
  156SOL    HW2  468   2.550   1.073   0.896 -3.1828  0.2316  0.0358
  157SOL     OW  469   1.349   2.966   3.086  0.0592 -0.3912  0.3301
  157SOL    HW1  470   1.378   2.893   3.016  2.0959 -0.3632  0.0922
  157SOL    HW2  471   1.385   3.064   3.067 -0.2529  2.4279  0.2976
  158SOL     OW  472   1.064   1.889   2.029 -0.3051  0.7031 -0.4481
  158SOL    HW1  473   1.105   1.880   2.125 -2.2695  0.6011  1.6922
  158SOL    HW2  474   0.960   1.901   2.036 -0.1281 -0.7910  1.2097
  159SOL     OW  475   0.874   0.473   1.272 -0.0581 -0.2964  0.4589
  159SOL    HW1  476   0.841   0.541   1.344 -0.0601 -0.3151  0.5543
  159SOL    HW2  477   0.813   0.464   1.189 -1.4894  0.0230 -0.7872
  160SOL     OW  478   1.453   2.326   1.653  0.2400 -0.0248  0.1082
  160SOL    HW1  479   1.517   2.404   1.618 -0.3216  0.5972  0.9009
  160SOL    HW2  480   1.489   2.283   1.739 -0.6651  0.6501 -0.7095
  161SOL     OW  481   0.097   2.939   0.363 -0.5759 -0.0417 -0.1134
  161SOL    HW1  482   0.038   2.856   0.335 -1.9503 -0.4831 -0.3833
  161SOL    HW2  483   0.125   2.992   0.280 -0.9488 -2.2964  1.6190
  162SOL     OW  484   2.600   1.888   0.516  0.3788 -0.0011  0.0995
  162SOL    HW1  485   2.570   1.854   0.424  0.7719  1.2971 -0.9023
  162SOL    HW2  486   2.578   1.816   0.590 -0.7085  0.7797 -0.5303
  163SOL     OW  487   1.942   2.769   0.740  0.2391 -0.0065  0.3748
  163SOL    HW1  488   1.917   2.786   0.638  0.3040  0.1771  1.2757
  163SOL    HW2  489   1.986   2.676   0.755 -0.0057 -0.6240 -1.4477
  164SOL     OW  490   0.062   0.215   1.212 -0.1017 -0.0129 -0.4513
  164SOL    HW1  491   0.143   0.149   1.221 -1.0082  0.8724 -2.3141
  164SOL    HW2  492   0.074   0.309   1.254 -0.2124 -0.7218  0.1002
  165SOL     OW  493   1.019   1.433   0.643  0.0438  0.2959  0.0542
  165SOL    HW1  494   0.925   1.464   0.678  0.8529 -0.2323  1.7378
  165SOL    HW2  495   1.016   1.455   0.541  0.2083  0.7974 -0.9328
  166SOL     OW  496   1.385   1.014   1.809 -0.0758  0.4803 -0.0124
  166SOL    HW1  497   1.295   0.972   1.840  3.0937 -1.5797 -0.8792
  166SOL    HW2  498   1.446   1.017   1.892  0.8493  0.0288  3.0129
  167SOL     OW  499   0.927   1.833   1.589  0.1827  0.0133  0.0270
  167SOL    HW1  500   0.904   1.925   1.632  0.5111  1.1759  2.3860
  167SOL    HW2  501   0.846   1.790   1.537 -0.4388  0.0025  0.4379
  168SOL     OW  502   1.566   2.323   0.207 -0.4644  0.5328 -0.2175
  168SOL    HW1  503   1.639   2.364   0.147  0.2344 -0.2848  1.1928
  168SOL    HW2  504   1.590   2.319   0.308 -0.9877 -0.2079 -0.3130
  169SOL     OW  505   0.177   2.564   2.147 -0.3552 -0.6327  0.1230
  169SOL    HW1  506   0.223   2.489   2.089  1.2519  1.4025 -0.6020
  169SOL    HW2  507   0.149   2.535   2.244  0.6823 -1.1039  2.1982
  170SOL     OW  508   1.228   0.347   1.918  0.5231 -0.2603  0.1352
  170SOL    HW1  509   1.267   0.278   1.988  3.1124 -1.6126  0.9359
  170SOL    HW2  510   1.155   0.304   1.863  0.8948 -1.3818  1.5740
  171SOL     OW  511   0.235   0.816   2.382 -0.2814 -0.0466  1.0275
  171SOL    HW1  512   0.150   0.827   2.434  2.2791 -0.8370 -0.9282
  171SOL    HW2  513   0.219   0.843   2.280 -2.8879 -0.4593  2.4768
  172SOL     OW  514   0.884   1.133   2.896 -0.1624 -0.3530 -0.3126
  172SOL    HW1  515   0.978   1.144   2.936  1.3462 -1.1198 -1.8626
  172SOL    HW2  516   0.892   1.094   2.804  2.2811 -0.4704  0.8480
  173SOL     OW  517   0.706   2.718   0.128 -0.2634  0.0884  0.6368
  173SOL    HW1  518   0.706   2.821   0.118 -3.0532  0.8395  3.1069
  173SOL    HW2  519   0.613   2.676   0.109  0.7553 -1.0647 -1.7583
  174SOL     OW  520   1.264   2.726   1.054  0.2085  0.6802  0.2714
  174SOL    HW1  521   1.284   2.787   0.971  1.3617 -1.8789 -1.8745
  174SOL    HW2  522   1.224   2.634   1.024 -2.6100  1.3855  0.0936
  175SOL     OW  523   0.381   0.042   1.703 -0.5289 -0.1769 -0.6076
  175SOL    HW1  524   0.435   0.102   1.772 -0.4622 -0.0873  0.8933
  175SOL    HW2  525   0.296   0.085   1.662 -0.2375 -2.0787  0.8165
  176SOL     OW  526   2.605   0.318   3.034  0.2647 -0.0919 -0.2936
  176SOL    HW1  527   2.583   0.381   3.113  1.6874 -2.3708 -1.3707
  176SOL    HW2  528   2.576   0.223   3.045  3.5335  2.0156  0.8927
  177SOL     OW  529   0.387   0.303   0.873  0.4129  0.2194  0.1753
  177SOL    HW1  530   0.430   0.280   0.965  2.0713  0.3772 -2.6247
  177SOL    HW2  531   0.291   0.345   0.878 -0.0395 -2.6364 -2.7107
  178SOL     OW  532   0.000   2.706   2.607 -0.1811 -0.4268  0.1178
  178SOL    HW1  533  -0.075   2.674   2.671 -2.9658 -0.1239 -2.8689
  178SOL    HW2  534   0.079   2.733   2.670 -1.7212  1.0152 -2.0975
  179SOL     OW  535   0.010   1.758   1.170 -0.2029 -0.1046  0.5466
  179SOL    HW1  536  -0.037   1.843   1.197 -1.5210  1.0693 -1.3347
  179SOL    HW2  537  -0.048   1.681   1.208  0.8566  1.3715 -0.2478
  180SOL     OW  538   0.174   1.271   1.801 -0.0492 -0.3698 -0.4930
  180SOL    HW1  539   0.280   1.255   1.803 -2.0355  0.2243  2.9675
  180SOL    HW2  540   0.132   1.324   1.881 -2.5092  0.4230  3.5576
  181SOL     OW  541   3.024   1.836   2.519 -0.3503 -0.2900  0.4392
  181SOL    HW1  542   3.091   1.898   2.483  2.6708  0.8609 -2.9314
  181SOL    HW2  543   2.931   1.853   2.468 -0.8579  1.1931  1.4610
  182SOL     OW  544   2.317   1.221   1.246 -0.2040  0.2315 -0.1288
  182SOL    HW1  545   2.235   1.180   1.195 -0.8332 -1.2358 -2.0887
  182SOL    HW2  546   2.329   1.318   1.212 -0.3969  1.9137  2.1396
  183SOL     OW  547   1.514   2.268   2.490  0.6040  0.1002  0.2431
  183SOL    HW1  548   1.434   2.200   2.494 -1.3007  0.5991 -0.5375
  183SOL    HW2  549   1.597   2.238   2.544 -1.1874 -0.4522  0.9427
  184SOL     OW  550   2.080   0.956   0.770  0.3570 -0.5586 -0.5565
  184SOL    HW1  551   1.977   0.981   0.757 -1.0624  0.1050 -0.2969
  184SOL    HW2  552   2.087   0.861   0.810 -2.2708 -0.3588 -1.7628
  185SOL     OW  553   1.628   2.742   2.173  0.1422 -0.1394 -0.2354
  185SOL    HW1  554   1.588   2.835   2.158 -1.1219  1.4573  0.5643
  185SOL    HW2  555   1.656   2.722   2.272  2.1125 -0.9529 -1.7947
  186SOL     OW  556   0.084   2.196   1.646  0.3017  0.0066  0.3141
  186SOL    HW1  557   0.143   2.279   1.624 -1.8254 -0.7448 -1.1875
  186SOL    HW2  558   0.135   2.117   1.684 -1.2283 -0.6297  0.5795
  187SOL     OW  559   1.411   0.685   1.708  0.5762  0.2200 -0.1150
  187SOL    HW1  560   1.460   0.741   1.637 -1.1219  1.5034  0.8817
  187SOL    HW2  561   1.448   0.702   1.806 -0.0765 -3.1173  1.9462
  188SOL     OW  562   2.760   2.738   1.535  0.2533  0.0791  0.5075
  188SOL    HW1  563   2.752   2.833   1.491  1.1009 -0.1438  1.0553
  188SOL    HW2  564   2.736   2.662   1.467  0.8016  1.5750  0.3203
  189SOL     OW  565   0.723   0.981   1.460  0.3452 -0.5351  1.0582
  189SOL    HW1  566   0.814   1.030   1.429 -0.4738  3.4707  1.4731
  189SOL    HW2  567   0.684   0.923   1.382  2.3470  2.9716 -0.8188
  190SOL     OW  568   1.491   1.763   1.655  0.1267  0.3292  0.3621
  190SOL    HW1  569   1.448   1.822   1.582  1.0683  1.4922 -0.2878
  190SOL    HW2  570   1.562   1.814   1.710  1.2866  1.4780  1.4813
  191SOL     OW  571   1.037   0.849   1.546 -0.2521 -0.0861 -0.2773
  191SOL    HW1  572   1.054   0.743   1.558 -1.3899 -0.6382  1.7369
  191SOL    HW2  573   1.131   0.900   1.552 -0.7760  0.5952 -0.0597
  192SOL     OW  574   1.884   2.167   1.240  0.5845  0.4818 -0.0971
  192SOL    HW1  575   1.782   2.173   1.229 -1.5966  1.3113 -2.2836
  192SOL    HW2  576   1.949   2.226   1.185 -0.1854  0.4702  0.8862
  193SOL     OW  577   0.493   0.568   0.344  0.6411  0.0942 -0.2813
  193SOL    HW1  578   0.436   0.497   0.389 -1.1640 -2.6665  1.6129
  193SOL    HW2  579   0.532   0.533   0.255 -0.2500 -1.0620 -1.3622
  194SOL     OW  580   0.304   0.863   1.236 -0.1944  0.3645  0.0113
  194SOL    HW1  581   0.214   0.812   1.239 -0.3926 -0.6495  3.0908
  194SOL    HW2  582   0.315   0.936   1.162  1.1802  0.7645  0.1549
  195SOL     OW  583   0.955   2.922   0.529  0.5922  0.4594 -0.2047
  195SOL    HW1  584   0.976   2.832   0.490 -0.2480  0.0109 -2.1919
  195SOL    HW2  585   1.039   2.972   0.551 -1.2892 -0.8912  0.9528
  196SOL     OW  586   0.178   1.449   1.318  0.2138 -0.3081  0.4679
  196SOL    HW1  587   0.217   1.530   1.371  1.0049  1.7141 -2.3970
  196SOL    HW2  588   0.166   1.359   1.370  0.9368  0.9255  0.1562
  197SOL     OW  589   0.783   1.997   0.245  0.1434  0.2645 -0.3764
  197SOL    HW1  590   0.767   1.944   0.334 -4.0005  0.2375  0.6051
  197SOL    HW2  591   0.860   1.962   0.186  0.5290  1.2490  2.0815
  198SOL     OW  592   0.262   1.166   0.214  0.6926 -0.3934  0.3055
  198SOL    HW1  593   0.161   1.177   0.196  0.9238  0.7947  1.8591
  198SOL    HW2  594   0.313   1.259   0.215  0.6173 -0.1908  1.8049
  199SOL     OW  595   2.259   0.429   2.459 -0.3339 -0.3921 -0.0777
  199SOL    HW1  596   2.216   0.363   2.527 -2.9253  1.2824  1.3877
  199SOL    HW2  597   2.353   0.457   2.482  0.0732 -0.0575 -1.8740
  200SOL     OW  598   0.035   2.897   0.828  0.5569  0.3222 -0.1645
  200SOL    HW1  599  -0.049   2.883   0.774 -1.4961 -4.3229 -1.5708
  200SOL    HW2  600   0.054   2.998   0.855 -0.1623  2.6530  1.6238
  201SOL     OW  601   1.088   0.645   0.579  0.7074  0.6527 -0.1066
  201SOL    HW1  602   1.117   0.733   0.617  2.4365 -1.7107 -1.0249
  201SOL    HW2  603   0.983   0.640   0.552 -1.4216  0.8534  0.0723
  202SOL     OW  604   0.425   1.202   1.789  0.0614 -0.0691  0.6479
  202SOL    HW1  605   0.446   1.173   1.689 -0.9927  1.2995  2.8910
  202SOL    HW2  606   0.491   1.153   1.857  2.2937 -3.0215 -1.3561
  203SOL     OW  607   0.607   0.255   1.552 -0.6592 -0.3344 -0.6765
  203SOL    HW1  608   0.624   0.182   1.476 -0.3448  0.1938  0.6698
  203SOL    HW2  609   0.646   0.219   1.641  0.0613  0.0196  0.2260
  204SOL     OW  610   2.133   1.899   3.019 -0.3003 -0.2938 -0.7131
  204SOL    HW1  611   2.137   1.799   2.980 -1.0251  0.7613 -0.4998
  204SOL    HW2  612   2.108   1.971   2.951 -0.5684 -2.2407 -0.0749
  205SOL     OW  613   1.875   1.857   0.159  0.0062 -0.1506  0.5622
  205SOL    HW1  614   1.970   1.849   0.110  0.0972 -0.4122  2.1479
  205SOL    HW2  615   1.809   1.922   0.111 -1.0754  1.1950  1.9513
  206SOL     OW  616   2.494   2.799   0.368  0.3157  0.5093 -0.5495
  206SOL    HW1  617   2.571   2.754   0.419  1.2886  0.7063 -1.5226
  206SOL    HW2  618   2.533   2.848   0.287  1.1931  0.5617 -1.1959
  207SOL     OW  619   0.533   1.728   2.896  0.2262 -0.3998 -0.2893
  207SOL    HW1  620   0.625   1.707   2.850  1.3924  0.9039  2.3170
  207SOL    HW2  621   0.500   1.642   2.953 -0.2764 -1.0015 -0.8041
  208SOL     OW  622   1.034   1.415   1.350  0.1501  0.8825  0.1514
  208SOL    HW1  623   0.950   1.474   1.328 -0.5803  2.0567  0.1690
  208SOL    HW2  624   1.074   1.443   1.442  1.9036  2.0253  0.2996
  209SOL     OW  625   0.146   0.904   0.007 -0.1420 -0.3122  0.1933
  209SOL    HW1  626   0.147   0.850  -0.078  1.8501  1.2671 -2.1938
  209SOL    HW2  627   0.208   0.859   0.084  0.9160 -1.5797  0.0022
  210SOL     OW  628   1.728   0.428   1.150 -0.2258 -0.3619  0.4864
  210SOL    HW1  629   1.703   0.521   1.117  1.1667  2.8768  0.2074
  210SOL    HW2  630   1.830   0.406   1.138 -0.9259 -0.2767  0.6488
  211SOL     OW  631   2.109   1.047   1.634 -0.1497  0.0372  0.3451
  211SOL    HW1  632   2.143   0.985   1.709 -0.3007  0.0806 -2.4415
  211SOL    HW2  633   2.176   1.107   1.582 -0.3728 -0.5301 -1.6890
  212SOL     OW  634   0.030   0.998   1.488 -0.2696  0.1437 -0.4158
  212SOL    HW1  635   0.067   1.087   1.528  1.8366  2.5002  2.6093
  212SOL    HW2  636   0.052   0.922   1.553 -1.4044  0.7053 -2.2459
  213SOL     OW  637   2.795   0.338   0.305 -0.4126 -1.0158  0.5513
  213SOL    HW1  638   2.879   0.277   0.307  0.2663  1.6274  0.4542
  213SOL    HW2  639   2.764   0.363   0.212  1.4842  2.8097 -0.7370
  214SOL     OW  640   2.100   0.306   2.269  0.1367  0.4969  0.2103
  214SOL    HW1  641   2.143   0.367   2.342  2.1059  1.5679  1.1433
  214SOL    HW2  642   2.105   0.204   2.297  0.7624  1.0491  1.0460
  215SOL     OW  643   1.727   2.287   2.040 -0.1562  0.1823  0.7946
  215SOL    HW1  644   1.827   2.317   2.024 -0.5092 -0.8390 -1.1563
  215SOL    HW2  645   1.685   2.347   2.114 -1.1001 -0.4968  2.3345
  216SOL     OW  646   2.262   0.520   0.648 -0.0066  0.3340 -0.1830
  216SOL    HW1  647   2.194   0.458   0.594 -1.9814  0.9485 -2.7707
  216SOL    HW2  648   2.293   0.589   0.584  1.5029 -0.2362  0.1943
  217SOL     OW  649   0.779   2.782   2.429  0.6894 -0.2088  0.7522
  217SOL    HW1  650   0.738   2.700   2.475 -0.0886 -1.1104  0.5334
  217SOL    HW2  651   0.775   2.783   2.328  1.1652  1.6137  1.7589
  218SOL     OW  652   1.950   1.449   3.058 -0.3319 -0.3936 -0.1159
  218SOL    HW1  653   1.845   1.469   3.058  0.6719  4.0366  0.5636
  218SOL    HW2  654   1.973   1.355   3.100  1.5429 -0.6524 -0.2495
  219SOL     OW  655   2.369   1.295   2.597 -0.1553  0.3065 -0.0314
  219SOL    HW1  656   2.417   1.272   2.505 -5.1979  0.6378 -0.2681
  219SOL    HW2  657   2.390   1.231   2.675  1.6087 -0.9404  2.7819
  220SOL     OW  658   1.502   1.006   1.297  0.0053 -0.2253  0.3060
  220SOL    HW1  659   1.593   1.018   1.345  1.8950  4.0065  0.8641
  220SOL    HW2  660   1.466   1.093   1.264 -1.3240  0.3215  0.1666
  221SOL     OW  661   1.315   1.108   2.183 -0.6727  0.1363  0.6582
  221SOL    HW1  662   1.262   1.185   2.131 -0.9659  1.5350  0.7691
  221SOL    HW2  663   1.388   1.058   2.126  0.2597  2.2538  0.8190
  222SOL     OW  664   1.351   0.154   1.116 -0.0791 -0.1514 -0.1793
  222SOL    HW1  665   1.430   0.086   1.091 -0.1203  1.2363 -2.6375
  222SOL    HW2  666   1.364   0.219   1.193  1.2519  0.0443 -0.8227
  223SOL     OW  667   2.898   0.768   2.010  0.2385 -0.3689 -0.2258
  223SOL    HW1  668   2.936   0.742   2.103  1.4390 -1.8973 -2.7951
  223SOL    HW2  669   2.893   0.870   1.987  0.9566 -1.6492  0.9672
  224SOL     OW  670   1.561   1.046   2.784 -0.3498  0.0179  0.5258
  224SOL    HW1  671   1.585   0.960   2.720 -0.5875  0.9167  1.5143
  224SOL    HW2  672   1.528   1.130   2.731  0.8155  2.0550 -0.6429
  225SOL     OW  673   2.963   2.839   2.922 -0.2593 -0.3972 -0.1745
  225SOL    HW1  674   2.915   2.759   2.869  0.1253 -2.1941 -2.0140
  225SOL    HW2  675   2.980   2.923   2.859  1.2951 -0.4072  1.3021
  226SOL     OW  676   2.463   1.682   2.882 -0.1713 -0.2802 -0.6726
  226SOL    HW1  677   2.485   1.625   2.795  0.6050 -0.9802 -1.7831
  226SOL    HW2  678   2.454   1.635   2.974  0.3062 -2.6159  3.3842
  227SOL     OW  679   0.807   0.168   2.953 -0.6768  0.2564 -0.0894
  227SOL    HW1  680   0.859   0.106   3.021 -0.7795  0.6498  2.2462
  227SOL    HW2  681   0.834   0.158   2.856 -1.3532 -0.3288 -0.5359
  228SOL     OW  682   2.329   0.542   2.763  0.4186  0.0983 -0.0459
  228SOL    HW1  683   2.286   0.585   2.677 -1.2603  0.2714 -0.6872
  228SOL    HW2  684   2.426   0.507   2.743 -0.7235 -2.1896  0.2545
  229SOL     OW  685   0.570   0.466   1.897  0.2356  0.3283  0.3631
  229SOL    HW1  686   0.621   0.480   1.812  2.5607  0.6672 -3.7864
  229SOL    HW2  687   0.626   0.466   1.979  0.1700 -0.4436 -0.0493
  230SOL     OW  688   1.936   1.268   2.122 -0.0751 -0.6040 -0.2047
  230SOL    HW1  689   2.010   1.276   2.046  2.3679  0.5109 -1.3281
  230SOL    HW2  690   1.846   1.303   2.095  0.6197  0.2318  2.8527
  231SOL     OW  691   0.590   1.129   2.937  0.3853 -0.3881  0.2381
  231SOL    HW1  692   0.691   1.099   2.921  0.1379 -0.9115 -3.2810
  231SOL    HW2  693   0.539   1.093   3.023 -1.8762  0.2852  1.6508
  232SOL     OW  694   2.487   0.068   2.703  0.7195 -0.5071 -0.1259
  232SOL    HW1  695   2.554   0.004   2.747 -2.3594 -2.5176  2.4825
  232SOL    HW2  696   2.496   0.070   2.597  1.2975 -0.6054  0.5173
  233SOL     OW  697   1.735   1.278   1.097  0.2423  0.5034 -0.3810
  233SOL    HW1  698   1.706   1.276   1.000 -1.7576  1.3911  2.0212
  233SOL    HW2  699   1.825   1.228   1.108 -2.0116  1.3947 -0.8718
  234SOL     OW  700   1.670   2.591   1.959 -0.4753  0.1722  0.1179
  234SOL    HW1  701   1.663   2.663   2.033  1.5207  2.2961 -2.3947
  234SOL    HW2  702   1.592   2.527   1.952  1.2195  0.5175  2.8923
  235SOL     OW  703   3.053   3.065   2.824  0.2293  0.0031  0.5319
  235SOL    HW1  704   3.150   3.068   2.784  0.3627  0.1591  0.6365
  235SOL    HW2  705   3.026   3.150   2.874  0.6783  1.0464  1.8238
  236SOL     OW  706   2.886   0.716   0.043 -0.1523 -0.6318 -0.0847
  236SOL    HW1  707   2.948   0.746   0.121 -2.8364 -2.8135  2.9205
  236SOL    HW2  708   2.939   0.667  -0.036  1.7074  0.1099  0.0607
  237SOL     OW  709   1.500   1.583   1.049 -0.4717 -0.0275  0.3647
  237SOL    HW1  710   1.604   1.589   1.055  0.2406 -0.5122  0.5034
  237SOL    HW2  711   1.451   1.644   1.123 -0.1788  2.6046  2.8515
  238SOL     OW  712   1.728   1.331   0.744  0.3992  0.6500 -0.1060
  238SOL    HW1  713   1.807   1.342   0.682 -2.6128 -0.4149  3.1135
  238SOL    HW2  714   1.664   1.409   0.738  1.3053  0.3028  1.1690
  239SOL     OW  715   2.141   0.290   2.672  0.3630  0.0123 -0.5153
  239SOL    HW1  716   2.211   0.282   2.746 -0.0282 -0.3705 -2.3664
  239SOL    HW2  717   2.067   0.361   2.692  0.4625  2.3891  1.3247
  240SOL     OW  718   0.902   0.736   0.226 -0.5093 -0.3340  0.2096
  240SOL    HW1  719   0.858   0.663   0.166 -1.4331 -0.6002 -1.8465
  240SOL    HW2  720   0.889   0.701   0.322  1.1674  2.1872 -1.8760
  241SOL     OW  721   0.580   0.042   0.360 -0.5282 -0.2074 -0.3954
  241SOL    HW1  722   0.601  -0.008   0.272 -1.1111  0.8117  2.1485
  241SOL    HW2  723   0.513  -0.003   0.422 -2.0978 -2.6374  2.8419
  242SOL     OW  724   0.693   2.430   1.098  0.1011  0.1874  0.5420
  242SOL    HW1  725   0.640   2.506   1.145  2.6947 -1.2793  1.1832
  242SOL    HW2  726   0.764   2.466   1.028  0.7349 -1.7275  0.2981
  243SOL     OW  727   1.047   0.658   2.499  0.8120 -0.2190  0.5423
  243SOL    HW1  728   1.000   0.727   2.435  1.6260  3.1920  0.1341
  243SOL    HW2  729   0.989   0.572   2.511 -0.4366  0.9870  0.4209
  244SOL     OW  730   2.821   1.967   2.352 -0.0021  0.7183 -0.6467
  244SOL    HW1  731   2.859   1.945   2.254 -0.4211  1.0596 -1.0947
  244SOL    HW2  732   2.721   1.943   2.364  2.2666  1.6791  0.1494
  245SOL     OW  733   2.475   0.719   2.189 -0.0551  0.0235  0.5947
  245SOL    HW1  734   2.502   0.793   2.254  0.0163  0.7397 -0.5057
  245SOL    HW2  735   2.551   0.656   2.163 -0.7355  1.1286 -1.6234
  246SOL     OW  736   0.333   2.867   1.777  0.1666  0.4409 -0.0295
  246SOL    HW1  737   0.231   2.880   1.773  0.0640 -3.4119 -0.7809
  246SOL    HW2  738   0.384   2.949   1.746  0.8744  0.8287 -1.7891
  247SOL     OW  739   2.190   0.536   3.001  0.0801 -0.5286 -0.3018
  247SOL    HW1  740   2.237   0.537   2.912 -1.1068  1.9082  0.6896
  247SOL    HW2  741   2.119   0.612   3.002  0.3129 -1.0468  0.5759
  248SOL     OW  742   2.195   1.831   1.519 -0.4293  0.2209  0.3401
  248SOL    HW1  743   2.218   1.764   1.593  1.5916  0.2382  0.2601
  248SOL    HW2  744   2.147   1.912   1.559 -1.1919 -1.2388  0.9000
  249SOL     OW  745   1.985   2.028   1.917  0.0478 -0.9912  0.0492
  249SOL    HW1  746   1.989   1.946   1.850  1.0978 -1.8998  0.7604
  249SOL    HW2  747   2.082   2.050   1.958 -0.7918  2.4072  0.4612
  250SOL     OW  748   1.062   0.617   1.907 -0.3573  0.7766  0.1240
  250SOL    HW1  749   1.085   0.559   1.997  3.6372 -2.4858  0.6235
  250SOL    HW2  750   1.074   0.554   1.828 -0.7806  0.6006 -0.0636
  251SOL     OW  751   3.060   1.556   2.616 -0.1693 -0.9572  0.0839
  251SOL    HW1  752   3.057   1.651   2.573 -0.2904 -0.8250 -2.3005
  251SOL    HW2  753   2.967   1.507   2.624 -3.4025  1.1705  2.0408
  252SOL     OW  754   1.542   0.903   1.578  0.0052 -0.3471  0.2721
  252SOL    HW1  755   1.560   0.975   1.508  1.5071 -4.1921 -0.4670
  252SOL    HW2  756   1.492   0.943   1.662  1.4397  1.6553  0.2406
  253SOL     OW  757   1.001   1.519   0.389  0.4977  0.6247 -0.2802
  253SOL    HW1  758   1.052   1.464   0.326 -1.7656  1.8567 -0.5746
  253SOL    HW2  759   0.900   1.519   0.349  1.8716  1.0780  0.7583
  254SOL     OW  760   2.026   2.066   1.592 -0.5059  0.2256 -0.0106
  254SOL    HW1  761   1.961   2.010   1.532 -0.5932 -1.0380  0.6753
  254SOL    HW2  762   1.976   2.110   1.666  0.4121  1.9577 -0.5205
  255SOL     OW  763   0.087   1.155   2.986  0.3958  0.2455 -0.1660
  255SOL    HW1  764   0.159   1.226   2.973 -1.8032  0.8701 -2.9245
  255SOL    HW2  765   0.129   1.061   3.021 -0.5728 -0.9702 -0.0573
  256SOL     OW  766   2.775   1.317   1.838 -0.6744 -0.1380 -0.5765
  256SOL    HW1  767   2.729   1.324   1.747 -3.2664 -0.2267 -0.4048
  256SOL    HW2  768   2.711   1.295   1.911 -0.0040  1.1354 -0.3835
  257SOL     OW  769   0.812   0.196   1.852  0.3589 -0.6111  0.1393
  257SOL    HW1  770   0.859   0.278   1.809  0.0671  0.7952  1.1611
  257SOL    HW2  771   0.881   0.137   1.898  1.6583  0.3913 -0.5871
  258SOL     OW  772   2.955   1.264   0.412  0.0218 -0.0748 -0.1019
  258SOL    HW1  773   2.895   1.333   0.366  2.9140  0.9794  1.2628
  258SOL    HW2  774   3.004   1.292   0.498 -2.7090 -3.0770  1.4485
  259SOL     OW  775   0.467   2.920   2.966  0.2555  0.0454  0.0013
  259SOL    HW1  776   0.424   2.889   3.056 -2.4664  3.4707 -2.6455
  259SOL    HW2  777   0.492   2.834   2.911  1.7760  3.2086  1.3098
  260SOL     OW  778   2.685   0.749   2.686 -0.3504  0.4255 -0.1810
  260SOL    HW1  779   2.596   0.794   2.657  0.1983  0.8048 -0.9477
  260SOL    HW2  780   2.656   0.666   2.740  0.9368  0.5484 -1.3115
  261SOL     OW  781   2.723   1.306   1.351 -0.6077 -0.6600 -0.0225
  261SOL    HW1  782   2.654   1.234   1.324 -0.1596 -1.6670  0.6180
  261SOL    HW2  783   2.819   1.271   1.356 -1.2551  0.2560 -0.3930
  262SOL     OW  784   1.488   2.949   2.057  0.3689  0.0973  0.0075
  262SOL    HW1  785   1.493   3.022   1.980  0.5295 -0.0640  1.3278
  262SOL    HW2  786   1.430   2.865   2.039 -0.8958 -0.7548 -0.9445
  263SOL     OW  787   0.833   0.714   2.312 -0.4898 -0.4108 -0.3423
  263SOL    HW1  788   0.776   0.638   2.272 -0.2717  0.5766  2.4139
  263SOL    HW2  789   0.856   0.790   2.243 -0.0419 -1.0158  1.7187
  264SOL     OW  790   2.294   0.713   0.471  0.0981  0.0217  0.2750
  264SOL    HW1  791   2.199   0.741   0.481 -0.1443  0.1232 -1.6342
  264SOL    HW2  792   2.367   0.784   0.490 -0.8049  0.7416  0.4049
  265SOL     OW  793   0.912   2.272   2.712  0.1797  0.1226  0.1471
  265SOL    HW1  794   0.976   2.345   2.742 -0.8961  1.5841 -1.7574
  265SOL    HW2  795   0.884   2.205   2.791 -1.9432  1.3310 -0.4952
  266SOL     OW  796   1.309   1.730   0.009 -0.2369 -0.0968  0.0673
  266SOL    HW1  797   1.302   1.794   0.089 -1.5271 -1.2223 -1.6069
  266SOL    HW2  798   1.407   1.689  -0.002 -0.5541 -1.2024  0.5199
  267SOL     OW  799   1.122   0.019   2.286 -0.4399  0.3404  0.7296
  267SOL    HW1  800   1.079  -0.060   2.236  1.2189  0.9894 -0.5858
  267SOL    HW2  801   1.226   0.003   2.283 -0.1863  2.0070  1.6670
  268SOL     OW  802   0.690   1.141   1.091 -0.2175 -0.1433  0.0065
  268SOL    HW1  803   0.676   1.179   1.182  1.0824 -1.1752  1.2330
  268SOL    HW2  804   0.626   1.196   1.030 -2.2385  0.4215  0.6593
  269SOL     OW  805   2.382   2.536   1.557  0.0471  0.4340 -0.1987
  269SOL    HW1  806   2.458   2.467   1.555 -0.9339  0.5033 -0.2723
  269SOL    HW2  807   2.348   2.546   1.653 -1.1412  1.4750  0.7279
  270SOL     OW  808   0.311   2.820   2.051 -0.0346 -0.2393  0.4924
  270SOL    HW1  809   0.314   2.811   1.949 -0.4755 -2.1750  0.9783
  270SOL    HW2  810   0.269   2.735   2.094 -0.3209  1.8610  2.7437
  271SOL     OW  811   0.377   1.375   1.158 -0.4218  0.4655 -0.2968
  271SOL    HW1  812   0.372   1.409   1.058 -1.7325 -0.8998  2.2990
  271SOL    HW2  813   0.303   1.423   1.210  1.1012  1.1119 -0.3705
  272SOL     OW  814   1.975   2.808   1.905  0.0719  0.0028  0.1572
  272SOL    HW1  815   1.907   2.770   1.839 -0.1679  1.7793  1.7598
  272SOL    HW2  816   2.048   2.868   1.855 -0.0402  0.9232 -0.2844
  273SOL     OW  817   1.413   1.474   2.877  0.1546 -0.4090  0.3426
  273SOL    HW1  818   1.466   1.400   2.923 -0.1540 -0.4325 -1.0775
  273SOL    HW2  819   1.322   1.483   2.927  0.6370 -1.0444 -0.0597
  274SOL     OW  820   1.080   0.462   2.139  0.2186  0.2843 -0.4606
  274SOL    HW1  821   1.153   0.407   2.089  0.3634  1.2787 -1.2339
  274SOL    HW2  822   1.113   0.492   2.229  0.4719  0.7985  2.0501
  275SOL     OW  823   0.673   2.098   1.880 -0.0558 -0.3177 -0.0556
  275SOL    HW1  824   0.685   2.199   1.905  1.8771 -2.4227 -0.2549
  275SOL    HW2  825   0.585   2.054   1.911  0.9860  0.3566 -2.2016
  276SOL     OW  826   2.103   0.916   2.725  0.4670 -0.1915  0.1251
  276SOL    HW1  827   2.032   0.938   2.653  1.4323  1.2807 -0.0089
  276SOL    HW2  828   2.105   0.818   2.756  1.4953 -1.5705  1.6990
  277SOL     OW  829   3.065   0.870   0.209  0.3657 -0.1019  0.1742
  277SOL    HW1  830   3.121   0.892   0.125  1.9811 -1.6250  1.6178
  277SOL    HW2  831   3.109   0.851   0.298  1.3606  0.8623 -3.4727
  278SOL     OW  832   0.279   0.283   2.859  0.0683 -0.2486  0.3141
  278SOL    HW1  833   0.375   0.254   2.875 -0.7603 -2.1135  0.3050
  278SOL    HW2  834   0.263   0.383   2.894 -0.4321 -0.0178 -0.6715
  279SOL     OW  835   0.115   0.037   0.909 -0.1726  0.1207 -0.2711
  279SOL    HW1  836   0.145   0.050   1.012  1.6986  1.8006 -1.7692
  279SOL    HW2  837   0.195   0.022   0.844  3.1055  2.5471  0.2729
  280SOL     OW  838   1.630   2.991   2.493 -0.0669 -0.2480 -0.2321
  280SOL    HW1  839   1.701   3.011   2.567 -4.2393 -1.7037  1.9381
  280SOL    HW2  840   1.544   3.038   2.513  0.3599 -2.1231  0.2089
  281SOL     OW  841   0.643   1.025   2.346  0.1311  0.3431  0.2372
  281SOL    HW1  842   0.585   0.980   2.274 -1.1624  0.9184  1.5318
  281SOL    HW2  843   0.663   0.960   2.424  0.8495  1.4071 -1.1643
  282SOL     OW  844   1.657   2.527   0.563 -0.3447 -0.2391 -0.0585
  282SOL    HW1  845   1.628   2.440   0.514 -1.4597  2.2524 -2.1906
  282SOL    HW2  846   1.629   2.616   0.520  0.9507 -1.9999  0.0994
  283SOL     OW  847   1.164   0.873   0.719 -0.4783  0.1827 -0.2262
  283SOL    HW1  848   1.237   0.832   0.775 -4.4818  1.7098 -1.4411
  283SOL    HW2  849   1.086   0.909   0.781 -3.2972 -1.5805  0.4224
  284SOL     OW  850   2.201   2.832   2.402  0.0665 -0.4189  0.5908
  284SOL    HW1  851   2.232   2.839   2.503  1.0674  0.9626 -3.4192
  284SOL    HW2  852   2.213   2.926   2.361  3.1637  0.7737 -2.5521
  285SOL     OW  853   1.346   3.056   2.551  0.9080  0.0054 -0.5730
  285SOL    HW1  854   1.354   3.042   2.451  0.8883 -1.1396 -3.6067
  285SOL    HW2  855   1.264   3.113   2.584  1.1578 -1.3929 -0.2637
  286SOL     OW  856   0.426   0.415   0.632 -0.0460  0.2842  0.5464
  286SOL    HW1  857   0.417   0.362   0.727 -3.1882 -0.9576 -1.6969
  286SOL    HW2  858   0.380   0.359   0.552  0.9842 -1.4633  2.4123
  287SOL     OW  859   0.097   1.312   2.549 -0.5790 -0.1315 -0.3969
  287SOL    HW1  860   0.051   1.232   2.599  1.3511  0.4297  0.3254
  287SOL    HW2  861   0.043   1.406   2.560 -0.9726 -1.4266  1.2030
  288SOL     OW  862   1.565   2.600   1.478  0.3847 -0.2701 -0.4228
  288SOL    HW1  863   1.666   2.629   1.491  6.4482  1.0789  1.2460
  288SOL    HW2  864   1.532   2.601   1.381  0.9560  0.9719  0.9505
  289SOL     OW  865   0.627   2.712   0.858 -0.0714 -0.2411 -0.5515
  289SOL    HW1  866   0.649   2.784   0.785 -0.7511 -1.4637  1.5059
  289SOL    HW2  867   0.653   2.751   0.950 -1.3995 -0.6699  1.7629
  290SOL     OW  868   3.017   1.283   1.666 -0.4256 -0.0130 -0.1623
  290SOL    HW1  869   2.946   1.300   1.734  1.6273  0.7357 -0.3080
  290SOL    HW2  870   3.113   1.291   1.707  0.3349 -3.9254  1.9121
  291SOL     OW  871   1.987   0.049   0.135  0.1125  0.0221 -0.5919
  291SOL    HW1  872   2.009   0.026   0.234  1.9930 -3.7677 -0.9779
  291SOL    HW2  873   2.055   0.109   0.083  0.6278  0.6144 -2.2977
  292SOL     OW  874   2.922   1.154   3.072  0.2643  0.3691  0.2596
  292SOL    HW1  875   2.860   1.215   3.015 -0.1361  0.0961 -0.8543
  292SOL    HW2  876   3.023   1.151   3.043  2.0558  2.3883  1.2595
  293SOL     OW  877   0.554   2.111   0.183 -0.4122  0.5401 -0.1040
  293SOL    HW1  878   0.530   2.164   0.272 -1.2371  3.3606 -2.1785
  293SOL    HW2  879   0.643   2.054   0.199 -0.5772 -0.3650  0.1021
  294SOL     OW  880   1.594   2.154   1.821  0.3319 -0.9240 -0.5913
  294SOL    HW1  881   1.668   2.177   1.892  2.0327 -2.2058  2.4162
  294SOL    HW2  882   1.634   2.160   1.723 -1.5713 -0.4024  0.2182
  295SOL     OW  883   0.966   1.175   0.417  0.4153  0.1866  0.4732
  295SOL    HW1  884   1.049   1.149   0.468 -1.0552 -1.4822  0.4537
  295SOL    HW2  885   0.892   1.115   0.449 -0.3869  0.2781 -1.3442
  296SOL     OW  886   1.286   2.102   2.529 -0.0256  0.0428 -0.2094
  296SOL    HW1  887   1.228   2.171   2.478  0.0272  0.9227 -0.4382
  296SOL    HW2  888   1.287   2.016   2.479 -0.4306 -3.1617 -1.2845
  297SOL     OW  889   1.488   0.691   1.407 -0.0787  0.7600 -0.1939
  297SOL    HW1  890   1.580   0.662   1.374 -0.2024 -0.9979 -0.5315
  297SOL    HW2  891   1.491   0.777   1.467  2.5598  0.6609 -1.2968
  298SOL     OW  892   0.584   1.384   2.822 -0.2953 -0.1983  0.1965
  298SOL    HW1  893   0.597   1.290   2.863 -1.8296 -1.0709 -1.7179
  298SOL    HW2  894   0.665   1.419   2.764 -0.0712 -2.3322 -0.9453
  299SOL     OW  895   0.363   0.394   1.504 -0.3015 -0.5297  0.4567
  299SOL    HW1  896   0.358   0.458   1.422 -1.5417 -0.3077 -0.7337
  299SOL    HW2  897   0.458   0.353   1.517 -1.3115 -1.2800 -1.2060
  300SOL     OW  898   1.229   1.828   2.860  0.9914 -0.3009 -0.2968
  300SOL    HW1  899   1.227   1.761   2.782 -2.9617  0.9187  1.8468
  300SOL    HW2  900   1.243   1.790   2.957 -1.3786  0.6496  0.8297
  301SOL     OW  901   0.396   0.223   0.420  1.0270 -0.2708 -0.4253
  301SOL    HW1  902   0.297   0.218   0.388  0.3270 -0.4859  0.4177
  301SOL    HW2  903   0.468   0.180   0.363  0.3094  0.8626  1.2165
  302SOL     OW  904   1.146   2.317   2.398 -0.1120 -0.2633 -0.8506
  302SOL    HW1  905   1.079   2.377   2.448 -3.0750  0.8010 -0.1234
  302SOL    HW2  906   1.099   2.255   2.327  0.8280  2.1009  1.0646
  303SOL     OW  907   0.935   2.401   0.759 -0.3401  0.3169  0.7735
  303SOL    HW1  908   0.980   2.479   0.705 -1.5946  0.0794  1.5044
  303SOL    HW2  909   0.910   2.430   0.855  0.8235 -1.4962  1.8113
  304SOL     OW  910   0.066   1.986   0.650  0.6897 -0.0506  0.4728
  304SOL    HW1  911   0.123   1.958   0.566 -1.6942  3.4321  1.6981
  304SOL    HW2  912   0.002   2.067   0.645 -0.9086  2.5611 -1.1746
  305SOL     OW  913   1.623   0.861   0.673  0.3149  0.0354  0.2260
  305SOL    HW1  914   1.548   0.875   0.601  1.1748 -0.4613  0.1428
  305SOL    HW2  915   1.710   0.814   0.637 -0.9746 -1.0565  1.8783
  306SOL     OW  916   0.446   1.960   1.946 -0.3922 -0.1331 -0.5793
  306SOL    HW1  917   0.459   1.868   1.895 -0.6950  0.7562  1.2843
  306SOL    HW2  918   0.475   1.949   2.043 -1.8513  0.9574 -1.9711
  307SOL     OW  919   0.021   0.871   2.545 -0.3397 -0.5775 -0.4155
  307SOL    HW1  920   0.021   0.970   2.582 -0.4116  0.7562  3.2247
  307SOL    HW2  921  -0.050   0.817   2.599  0.6836 -3.3993  2.4981
  308SOL     OW  922   1.578   2.724   2.777 -0.0805 -0.2704 -0.2462
  308SOL    HW1  923   1.572   2.665   2.690 -3.2584  1.7565  0.1067
  308SOL    HW2  924   1.544   2.674   2.860 -0.4226 -2.1390  3.0411
  309SOL     OW  925   1.232   0.039   1.784  0.5038 -0.8327  1.0601
  309SOL    HW1  926   1.323   0.033   1.825  1.9567  0.0581  2.0646
  309SOL    HW2  927   1.217   0.085   1.691  0.2374  1.1360 -1.9337
  310SOL     OW  928   1.447   2.629   0.760 -0.9019 -0.0967 -1.0059
  310SOL    HW1  929   1.399   2.713   0.801  2.7533  3.0203  2.1102
  310SOL    HW2  930   1.531   2.651   0.703  2.2874  0.7459 -1.9589
  311SOL     OW  931   1.212   1.031   1.456  0.3587 -0.5906  0.1702
  311SOL    HW1  932   1.279   0.993   1.387 -1.7036 -0.5654  2.0353
  311SOL    HW2  933   1.235   1.135   1.464 -1.1795  1.6762  0.2264
  312SOL     OW  934   1.645   0.646   1.041 -0.0201 -0.3334  0.1084
  312SOL    HW1  935   1.626   0.746   1.059  1.1683  0.9952 -0.4254
  312SOL    HW2  936   1.569   0.605   0.987 -0.9845 -0.8443  2.5614
  313SOL     OW  937   1.598   1.465   0.490  0.1322 -0.3364 -0.1418
  313SOL    HW1  938   1.499   1.433   0.475 -0.5367 -1.4270  2.1266
  313SOL    HW2  939   1.672   1.394   0.481 -2.7666 -1.0077 -3.4064
  314SOL     OW  940   2.965   0.091   0.008  0.1823  0.2244 -1.0094
  314SOL    HW1  941   2.985   0.097   0.111  1.8569 -2.4575 -0.3073
  314SOL    HW2  942   2.904   0.011  -0.021 -1.3504 -0.9021 -0.2856
  315SOL     OW  943   1.298   0.268   2.757 -0.2934 -0.4258 -0.1044
  315SOL    HW1  944   1.254   0.205   2.686 -0.6715  1.8279 -2.3618
  315SOL    HW2  945   1.322   0.224   2.849  0.5198 -1.2269 -2.5350
  316SOL     OW  946   1.655   2.076   0.935  0.7480 -0.1442 -0.5107
  316SOL    HW1  947   1.632   2.123   1.017 -0.7471  0.5622 -0.3815
  316SOL    HW2  948   1.713   2.132   0.867 -0.5069  0.6848  0.4387
  317SOL     OW  949   1.172   0.675   2.802 -0.4931  0.0014  0.1659
  317SOL    HW1  950   1.118   0.745   2.861  1.0604  0.6029 -1.0548
  317SOL    HW2  951   1.117   0.603   2.749  0.4945 -0.1084 -1.3903
  318SOL     OW  952   1.385   3.076   2.283  0.0560  0.2626  0.0225
  318SOL    HW1  953   1.412   3.177   2.270  0.6810 -1.9125  0.0832
  318SOL    HW2  954   1.430   3.019   2.212 -0.0613 -0.6342  0.2269
  319SOL     OW  955   0.664   2.392   2.929 -0.1201  0.2107 -0.3520
  319SOL    HW1  956   0.596   2.372   3.008 -2.4632 -0.7172  0.0777
  319SOL    HW2  957   0.745   2.332   2.911  0.9560  2.1754  1.0931
  320SOL     OW  958   1.582   2.264   0.462  0.1938 -0.0609 -0.5543
  320SOL    HW1  959   1.676   2.220   0.447  0.1098 -1.1148 -1.6283
  320SOL    HW2  960   1.513   2.201   0.512  0.5630 -0.3702  1.0457
  321SOL     OW  961   1.600   2.771   0.498  0.7788  0.1790 -0.0808
  321SOL    HW1  962   1.521   2.806   0.439 -1.4393  0.4287 -1.6472
  321SOL    HW2  963   1.680   2.835   0.492  2.2316 -0.0669  0.4221
  322SOL     OW  964   2.637   1.164   2.297  0.4648 -0.8921 -0.5591
  322SOL    HW1  965   2.704   1.206   2.366  1.9431 -0.9058  2.7080
  322SOL    HW2  966   2.599   1.071   2.320 -0.3206 -1.4600 -0.5614
  323SOL     OW  967   0.989   2.768   0.851  0.2607 -0.7647  0.3885
  323SOL    HW1  968   1.046   2.726   0.773  2.4063  1.6161  1.9503
  323SOL    HW2  969   0.979   2.869   0.857  0.9916  0.4143 -1.0180
  324SOL     OW  970   0.097   2.521   2.406  0.0110 -0.2942 -0.3774
  324SOL    HW1  971   0.047   2.431   2.401 -1.3716 -2.5478  1.9829
  324SOL    HW2  972   0.069   2.583   2.487  1.2896  1.2824  0.8314
  325SOL     OW  973   1.198   3.038   0.492 -0.2712  0.3617  0.0344
  325SOL    HW1  974   1.218   3.080   0.395  0.1544 -0.9834  1.2123
  325SOL    HW2  975   1.219   3.112   0.561  1.0280  1.1778 -1.9706
  326SOL     OW  976   2.316   0.828   0.089 -0.1105  0.2772  0.0198
  326SOL    HW1  977   2.228   0.835   0.034 -1.5522 -2.8527 -0.2824
  326SOL    HW2  978   2.328   0.730   0.123  0.2742  1.9852  4.4849
  327SOL     OW  979   2.706   0.421   0.547 -0.2256  0.4136 -0.5541
  327SOL    HW1  980   2.740   0.381   0.457 -0.4206 -0.6368 -0.7754
  327SOL    HW2  981   2.619   0.372   0.578  1.4170  0.4172 -0.2059
  328SOL     OW  982   2.560   0.613   0.363 -0.2814  0.0085  0.1415
  328SOL    HW1  983   2.473   0.571   0.405 -1.5863  3.3207 -2.7259
  328SOL    HW2  984   2.645   0.610   0.424  0.5088 -0.4961 -2.9245
  329SOL     OW  985   3.013   2.943   2.130  0.0561 -0.0239 -0.0310
  329SOL    HW1  986   3.058   2.884   2.206 -0.3517  1.6574 -0.5853
  329SOL    HW2  987   3.051   3.047   2.122  1.2274 -0.2664  0.8786
  330SOL     OW  988   0.488   0.197   1.901 -0.1497  0.5955 -0.4480
  330SOL    HW1  989   0.516   0.292   1.867  1.8638 -0.7288 -1.3505
  330SOL    HW2  990   0.553   0.158   1.972 -0.8538  0.3794 -1.9275
  331SOL     OW  991   2.886   1.910   1.067 -0.4515  0.7072  0.6284
  331SOL    HW1  992   2.926   2.002   1.050 -1.8835  0.4586  0.3903
  331SOL    HW2  993   2.850   1.894   1.168 -1.9001  0.9757 -1.6180
  332SOL     OW  994   0.413   1.014   0.016 -0.7842  0.4127  0.3583
  332SOL    HW1  995   0.354   0.945  -0.038 -0.2730 -0.7742  0.1183
  332SOL    HW2  996   0.356   1.076   0.076  3.9533 -1.4943 -0.0033
  333SOL     OW  997   2.874   1.018   0.309  0.0241  0.0013  0.5340
  333SOL    HW1  998   2.920   1.104   0.345  0.4805  3.9241  0.3518
  333SOL    HW2  999   2.937   0.958   0.258 -0.5031  0.3149 -2.7570
  334SOL     OW 1000   1.635   1.153   1.899  0.0919 -0.0536 -0.4872
  334SOL    HW1 1001   1.713   1.115   1.844 -0.3418 -1.2418 -0.3516
  334SOL    HW2 1002   1.662   1.244   1.945 -1.9031  1.2851  4.4849
  335SOL     OW 1003   1.893   2.813   2.632  0.4205 -0.2128 -0.4424
  335SOL    HW1 1004   1.992   2.827   2.622  0.8411  0.3344  0.8187
  335SOL    HW2 1005   1.837   2.897   2.654 -0.1589  1.9418 -1.0048
  336SOL     OW 1006   0.219   0.066   2.711  0.4081  0.3406  0.2074
  336SOL    HW1 1007   0.307   0.018   2.722 -2.5601 -0.0490  0.1639
  336SOL    HW2 1008   0.217   0.157   2.758 -1.6668  1.0687  0.6066
  337SOL     OW 1009   1.022   2.805   2.818  0.2008 -0.2023  0.5265
  337SOL    HW1 1010   0.986   2.808   2.917 -2.0052 -2.3077  0.4306
  337SOL    HW2 1011   1.124   2.772   2.809  2.3036  1.6762 -0.0268
  338SOL     OW 1012   0.017   1.027   0.667  0.2217  0.1563 -1.0380
  338SOL    HW1 1013  -0.084   1.023   0.684 -2.1071 -0.7242 -0.8735
  338SOL    HW2 1014   0.056   1.113   0.634 -0.9766  0.6727  0.4955
  339SOL     OW 1015   1.707   1.376   2.012 -0.0773  0.1928  0.4996
  339SOL    HW1 1016   1.613   1.386   2.052  1.1511 -2.1408  1.3149
  339SOL    HW2 1017   1.761   1.466   2.019 -0.8203  0.6381  0.2167
  340SOL     OW 1018   2.268   0.791   1.274  0.6020  0.0405  0.1642
  340SOL    HW1 1019   2.171   0.807   1.237 -1.5713  0.4327  0.4427
  340SOL    HW2 1020   2.328   0.739   1.207  1.5441  1.3365  1.6467
  341SOL     OW 1021   1.826   2.178   0.446  0.4606  0.0306  0.7027
  341SOL    HW1 1022   1.833   2.182   0.339 -0.1378  0.4187 -0.4075
  341SOL    HW2 1023   1.909   2.226   0.491 -1.6006 -1.2144 -0.7672
  342SOL     OW 1024   2.240   2.157   2.763 -0.0240  0.4302  0.8461
  342SOL    HW1 1025   2.292   2.085   2.823  1.1056  1.2311 -0.9835
  342SOL    HW2 1026   2.142   2.134   2.754 -0.5847  0.4150 -1.3074
  343SOL     OW 1027   0.318   0.903   2.842 -0.0760 -0.6477  0.5448
  343SOL    HW1 1028   0.304   0.941   2.747  1.6659  1.0061 -1.7402
  343SOL    HW2 1029   0.419   0.888   2.853 -1.2325  0.4080  0.9623
  344SOL     OW 1030   1.919   1.470   0.281 -0.2967 -0.4736  0.4656
  344SOL    HW1 1031   1.864   1.388   0.244 -1.4212  0.1574  0.7902
  344SOL    HW2 1032   1.906   1.553   0.214  1.6298 -0.4552  0.1494
  345SOL     OW 1033   1.475   2.222   2.890 -0.2383  0.0527 -0.0922
  345SOL    HW1 1034   1.398   2.179   2.832  0.7807 -2.4501  0.7079
  345SOL    HW2 1035   1.566   2.180   2.864 -0.5211  0.7117 -0.1940
  346SOL     OW 1036   2.346   0.872   1.522  1.2028  0.1928  0.4038
  346SOL    HW1 1037   2.370   0.971   1.537  0.3659 -1.5967 -1.2060
  346SOL    HW2 1038   2.304   0.850   1.427  0.2907  0.5127 -1.8919
  347SOL     OW 1039   0.698   2.844   1.560 -0.3304  0.0293 -0.7882
  347SOL    HW1 1040   0.678   2.770   1.631  3.0706  1.9423  0.8557
  347SOL    HW2 1041   0.615   2.903   1.536 -0.1443  2.0662  0.9522
  348SOL     OW 1042   0.129   0.708   2.832 -0.1064 -0.0324 -0.3739
  348SOL    HW1 1043   0.053   0.722   2.767  1.3738  0.7354 -0.7454
  348SOL    HW2 1044   0.202   0.779   2.831  1.4858  0.1953 -0.0411
  349SOL     OW 1045   1.937   0.472   2.715 -0.0028 -0.1908 -0.0015
  349SOL    HW1 1046   1.925   0.563   2.665 -0.2241  1.6570  0.4057
  349SOL    HW2 1047   1.902   0.476   2.813  0.6531  0.2673 -0.1867
  350SOL     OW 1048   1.678   0.363   0.344  0.6028  0.7676 -0.2304
  350SOL    HW1 1049   1.718   0.392   0.438 -0.0480 -2.1668 -1.1481
  350SOL    HW2 1050   1.628   0.446   0.304  0.4443  1.2714  0.0262
  351SOL     OW 1051   0.879   0.885   2.122  0.7700  0.3331 -0.0491
  351SOL    HW1 1052   0.880   0.984   2.091  2.3456 -3.5704  1.9611
  351SOL    HW2 1053   0.853   0.823   2.043  0.2354  1.1538  1.0493
  352SOL     OW 1054   1.948   1.373   0.537  0.7739  0.3211  0.2422
  352SOL    HW1 1055   1.932   1.413   0.443  0.1292 -1.6263 -0.1628
  352SOL    HW2 1056   2.022   1.428   0.590  1.0446 -1.7046  0.3853
  353SOL     OW 1057   2.119   2.798   1.195  0.0557 -0.1752 -0.3086
  353SOL    HW1 1058   2.206   2.765   1.149 -0.4882  1.6397  1.3470
  353SOL    HW2 1059   2.041   2.755   1.147 -0.3273  0.6664 -2.2871
  354SOL     OW 1060   0.284   1.359   2.937  0.2168  0.3974  0.0115
  354SOL    HW1 1061   0.228   1.426   2.883  0.7553  1.1956 -1.2066
  354SOL    HW2 1062   0.383   1.357   2.906  1.9193  0.2194  1.6728
  355SOL     OW 1063   0.444   1.467   0.466  0.0871  0.7724 -0.1025
  355SOL    HW1 1064   0.498   1.559   0.476  2.0812  1.3049  2.5694
  355SOL    HW2 1065   0.506   1.384   0.440  1.5512  0.1605 -0.7108
  356SOL     OW 1066   0.767   0.385   2.081  0.0741  0.2665 -0.2203
  356SOL    HW1 1067   0.847   0.452   2.089 -1.4938 -0.1891  1.0502
  356SOL    HW2 1068   0.793   0.307   2.016  4.0446 -0.9837  2.9166
  357SOL     OW 1069   1.093   1.312   0.183 -0.5168  0.2442 -0.5124
  357SOL    HW1 1070   1.055   1.305   0.085 -2.4697 -3.7427  0.7550
  357SOL    HW2 1071   1.040   1.257   0.252 -0.6478  0.8412 -1.0210
  358SOL     OW 1072   1.592   1.654   0.273  0.3712 -0.7970  0.0584
  358SOL    HW1 1073   1.609   1.567   0.327  1.2172 -1.4588 -0.0699
  358SOL    HW2 1074   1.535   1.724   0.326  0.6315  3.1704 -0.2622
  359SOL     OW 1075   1.567   2.704   0.119  0.0282  0.2706 -0.1516
  359SOL    HW1 1076   1.594   2.616   0.064 -0.0540  0.4729  1.6005
  359SOL    HW2 1077   1.491   2.688   0.186  1.2130 -0.0723  1.1480
  360SOL     OW 1078   0.825   0.573   0.442  0.2802 -0.2095 -0.0968
  360SOL    HW1 1079   0.745   0.589   0.513  0.8605 -0.1057 -1.0898
  360SOL    HW2 1080   0.860   0.479   0.441 -2.9373  2.0500  0.3452
  361SOL     OW 1081   1.285   1.374   0.638 -0.1263  0.1973  0.0991
  361SOL    HW1 1082   1.336   1.399   0.725  0.6468 -3.0078 -1.0796
  361SOL    HW2 1083   1.183   1.396   0.650 -0.4268 -0.6803 -1.4941
  362SOL     OW 1084   1.367   1.739   0.808  0.1326 -0.0910 -0.1585
  362SOL    HW1 1085   1.401   1.722   0.902  2.7807  0.6540 -2.0408
  362SOL    HW2 1086   1.428   1.798   0.751  2.0405  0.7662 -0.2238
  363SOL     OW 1087   1.134   1.271   2.054 -0.1648  0.0392  0.3040
  363SOL    HW1 1088   1.104   1.365   2.088 -2.3755 -0.2377  0.8714
  363SOL    HW2 1089   1.155   1.270   1.952 -0.6452 -0.6896 -0.8835
  364SOL     OW 1090   0.566   2.391   1.965  0.2132 -0.0400  0.4565
  364SOL    HW1 1091   0.465   2.408   1.987 -0.6659 -0.4999  1.0228
  364SOL    HW2 1092   0.607   2.437   1.880  0.7947 -1.8431 -0.6910
  365SOL     OW 1093   1.131   1.742   1.433  0.3699  0.1943  0.1950
  365SOL    HW1 1094   1.047   1.784   1.478  0.7909  2.4586  0.3808
  365SOL    HW2 1095   1.124   1.642   1.433 -1.4879  1.4092  0.7092
  366SOL     OW 1096   2.833   2.068   0.484 -0.1146  0.3235  0.1347
  366SOL    HW1 1097   2.777   1.999   0.537  0.5262  0.6925 -0.6888
  366SOL    HW2 1098   2.909   2.018   0.428  0.1686  2.7891  0.2311
  367SOL     OW 1099   0.840   1.169   0.079 -0.3660  0.2857  0.1840
  367SOL    HW1 1100   0.871   1.093   0.138 -0.5710  0.4664  0.7626
  367SOL    HW2 1101   0.874   1.165  -0.019  3.4785 -4.6017 -1.5296
  368SOL     OW 1102   1.500   0.494   0.610 -0.0467  0.4177 -0.3771
  368SOL    HW1 1103   1.438   0.558   0.552 -2.7395  1.4409 -2.3816
  368SOL    HW2 1104   1.597   0.494   0.578  0.4001 -1.6238 -0.1974
  369SOL     OW 1105   0.260   1.666   0.147 -0.3792 -0.2499 -0.5164
  369SOL    HW1 1106   0.252   1.762   0.177 -2.0090  2.1003  1.2710
  369SOL    HW2 1107   0.183   1.605   0.182  0.9839 -0.9357  3.8870
  370SOL     OW 1108   0.457   2.119   0.983  0.0282  0.0096 -0.2251
  370SOL    HW1 1109   0.468   2.222   0.984 -0.4268 -0.9320  0.6425
  370SOL    HW2 1110   0.376   2.081   0.928 -1.6946  1.3393 -1.2319
  371SOL     OW 1111   2.969   2.149   2.780  0.1861  0.5525  0.3459
  371SOL    HW1 1112   2.972   2.162   2.881  1.4658 -2.3120  0.6230
  371SOL    HW2 1113   3.046   2.207   2.728 -0.2212 -0.9740  0.5235
  372SOL     OW 1114   0.851   1.935   1.008  0.0566 -0.1821  0.2538
  372SOL    HW1 1115   0.905   2.022   1.032  1.1530  0.3307 -2.4595
  372SOL    HW2 1116   0.893   1.894   0.925  0.0901 -0.0304 -0.0599
  373SOL     OW 1117   1.912   1.949   0.916  0.4234 -0.2541 -0.4323
  373SOL    HW1 1118   1.974   1.996   0.987  0.5957 -2.9165  2.2338
  373SOL    HW2 1119   1.815   1.984   0.919  3.0545  0.4365  2.7100
  374SOL     OW 1120   1.813   0.441   0.575 -0.4999 -0.0961 -0.0443
  374SOL    HW1 1121   1.813   0.434   0.678 -1.0579 -1.5637 -2.8239
  374SOL    HW2 1122   1.907   0.431   0.525  2.7749 -1.3520  2.0804
  375SOL     OW 1123   2.460   2.322   1.182  0.0448 -0.1059 -0.0595
  375SOL    HW1 1124   2.511   2.277   1.106 -1.7890  1.2804 -2.5253
  375SOL    HW2 1125   2.482   2.284   1.275  0.4393  0.7551 -2.7303
  376SOL     OW 1126   3.036   0.670   1.472 -0.5652 -0.4296  0.7967
  376SOL    HW1 1127   3.068   0.725   1.551  1.4531  2.7657 -0.2942
  376SOL    HW2 1128   2.933   0.682   1.457  0.9868 -0.7965 -1.4646
  377SOL     OW 1129   2.166   2.831   0.307 -0.2166 -0.5237  0.3447
  377SOL    HW1 1130   2.104   2.903   0.346 -1.0027 -2.6977 -0.9903
  377SOL    HW2 1131   2.262   2.856   0.325  1.6956 -0.5260  1.0523
  378SOL     OW 1132   1.863   1.819   2.695  0.1571  0.0932 -0.3079
  378SOL    HW1 1133   1.936   1.749   2.673  0.5977 -1.3293 -1.9431
  378SOL    HW2 1134   1.786   1.770   2.739  1.3884 -0.8807  0.2562
  379SOL     OW 1135   0.855   0.134   2.669  0.5521 -0.2630  0.1709
  379SOL    HW1 1136   0.856   0.030   2.661  0.0831  0.3606  1.8299
  379SOL    HW2 1137   0.801   0.186   2.597  0.8960  0.2869 -0.5552
  380SOL     OW 1138   1.606   1.150   0.505  0.0388 -0.6744 -0.0485
  380SOL    HW1 1139   1.525   1.089   0.491 -2.6998 -0.9035 -0.5331
  380SOL    HW2 1140   1.594   1.207   0.589 -2.1970 -0.2607 -1.7715
  381SOL     OW 1141   1.310   1.278   1.483 -0.5044 -0.3260  0.3968
  381SOL    HW1 1142   1.345   1.372   1.461  0.7458 -2.9652 -0.5303
  381SOL    HW2 1143   1.376   1.233   1.547 -0.6881 -0.3680  2.7162
  382SOL     OW 1144   1.735   0.784   0.220 -0.0835  0.6571  0.6790
  382SOL    HW1 1145   1.780   0.779   0.126 -1.0480 -0.2858 -2.5986
  382SOL    HW2 1146   1.792   0.810   0.302 -0.5854  0.5394 -2.3499
  383SOL     OW 1147   2.621   1.015   1.530  0.6536 -0.2025  0.0799
  383SOL    HW1 1148   2.561   1.000   1.453 -1.3553 -2.7532 -0.6532
  383SOL    HW2 1149   2.716   0.976   1.513 -1.7986  2.3380 -1.8789
  384SOL     OW 1150   1.028   2.304   0.140 -0.0822  0.2315 -0.5499
  384SOL    HW1 1151   0.942   2.361   0.133  1.8652 -1.4266  0.4660
  384SOL    HW2 1152   1.024   2.237   0.221 -1.1210 -2.5273  1.5626
  385SOL     OW 1153   2.959   2.028   1.695 -0.6654  0.3406 -0.8298
  385SOL    HW1 1154   3.031   2.107   1.673  1.9887 -1.8514 -0.2659
  385SOL    HW2 1155   3.011   1.936   1.699  1.1221 -2.2671 -0.0558
  386SOL     OW 1156   0.408   1.071   0.428 -0.4070 -0.4487 -0.1498
  386SOL    HW1 1157   0.430   0.968   0.439  0.0463  2.6158  1.7028
  386SOL    HW2 1158   0.354   1.098   0.340  0.5044  2.1355 -1.5716
  387SOL     OW 1159   1.036   0.336   1.699 -0.2980  0.2632  0.0730
  387SOL    HW1 1160   1.092   0.422   1.669 -0.9291  2.3794 -2.5512
  387SOL    HW2 1161   1.019   0.273   1.621  0.0536  1.5323  2.6020
  388SOL     OW 1162   1.254   2.545   1.780 -0.0839  0.4155 -0.0483
  388SOL    HW1 1163   1.270   2.527   1.679  0.7512  0.0907 -2.0129
  388SOL    HW2 1164   1.314   2.492   1.845 -0.8490  0.8648 -1.8641
  389SOL     OW 1165   0.230   0.015   1.164 -0.4323 -0.1687 -0.6505
  389SOL    HW1 1166   0.197  -0.006   1.262  0.4146 -0.2678 -0.1540
  389SOL    HW2 1167   0.283  -0.069   1.125 -1.4062  1.3837 -0.6667
  390SOL     OW 1168   1.055   0.845   1.194  0.4519  0.3645 -0.0341
  390SOL    HW1 1169   1.154   0.816   1.188  2.0795 -0.9245 -2.4737
  390SOL    HW2 1170   1.028   0.858   1.295 -0.0489 -1.5212 -1.5375
  391SOL     OW 1171   2.103   1.149   1.120 -0.0091  0.0870 -0.0245
  391SOL    HW1 1172   2.100   1.051   1.151 -0.0538  2.8932 -1.5556
  391SOL    HW2 1173   2.150   1.153   1.025 -2.9032 -0.2642 -0.2028
  392SOL     OW 1174   0.929   2.725   3.064  0.1662 -0.1059 -0.4096
  392SOL    HW1 1175   0.840   2.715   3.120  0.2474  0.4118  2.6608
  392SOL    HW2 1176   1.006   2.783   3.108 -0.5341  0.8070  0.2650
  393SOL     OW 1177   0.333   0.604   1.981  0.6105 -0.4027  0.1802
  393SOL    HW1 1178   0.252   0.540   1.965  0.3711  0.3886  0.7322
  393SOL    HW2 1179   0.425   0.560   1.961  0.4325 -1.6807 -2.2172
  394SOL     OW 1180   2.816   1.841   2.753 -0.1210 -0.3735 -0.4372
  394SOL    HW1 1181   2.867   1.837   2.664 -0.9009 -1.1392  1.8735
  394SOL    HW2 1182   2.764   1.929   2.781  0.9255 -0.1749  2.6177
  395SOL     OW 1183   1.534   1.949   0.715  0.2915  0.4283  0.0554
  395SOL    HW1 1184   1.604   1.883   0.684  1.9467  0.4578 -0.9852
  395SOL    HW2 1185   1.565   1.985   0.804 -1.9300 -0.5643  1.2700
  396SOL     OW 1186   2.740   1.941   1.310 -0.0261  0.3734  0.2569
  396SOL    HW1 1187   2.774   1.977   1.401 -1.7156  2.5514 -1.1288
  396SOL    HW2 1188   2.642   1.903   1.310  1.8692 -2.8159  1.9161
  397SOL     OW 1189   0.950   2.159   0.635 -0.2709 -0.4678 -0.0244
  397SOL    HW1 1190   0.868   2.150   0.578 -2.2450  1.4866  2.3972
  397SOL    HW2 1191   0.949   2.248   0.689  0.6860  0.6201 -0.7571
  398SOL     OW 1192   2.231   3.065   1.175 -0.1734  0.2298 -1.0129
  398SOL    HW1 1193   2.184   2.970   1.184  0.6022  0.1858 -0.5465
  398SOL    HW2 1194   2.170   3.133   1.131 -2.5636  0.5805 -0.5164
  399SOL     OW 1195   2.884   2.606   2.799  0.0460 -0.2636  0.6104
  399SOL    HW1 1196   2.900   2.537   2.725 -1.0839  1.6189  3.4201
  399SOL    HW2 1197   2.820   2.566   2.869 -0.1058  1.0223 -3.3989
  400SOL     OW 1198   0.813   1.588   1.291  0.0879 -0.1507 -0.1119
  400SOL    HW1 1199   0.789   1.653   1.367 -3.5169  0.4317 -0.4947
  400SOL    HW2 1200   0.785   1.632   1.199 -2.9658  0.1087  1.1991
  401SOL     OW 1201   1.869   0.140   1.273  0.1984  0.4865 -0.1486
  401SOL    HW1 1202   1.922   0.190   1.346 -1.5386  2.1909  0.7357
  401SOL    HW2 1203   1.771   0.127   1.295 -0.5963 -1.7395  0.8283
  402SOL     OW 1204   1.394   0.142   3.016  0.6225  0.3263  0.3002
  402SOL    HW1 1205   1.499   0.168   2.996  1.7277 -2.1408 -1.7479
  402SOL    HW2 1206   1.363   0.174   3.114 -1.9325 -0.6768 -1.5079
  403SOL     OW 1207   2.260   1.847   0.931 -0.3074  0.3456  0.6149
  403SOL    HW1 1208   2.355   1.849   0.970  0.3126  1.5888 -0.6856
  403SOL    HW2 1209   2.194   1.915   0.978  2.9470  1.2898  1.4068
  404SOL     OW 1210   0.222   2.481   2.779 -0.6680  1.0098 -0.3421
  404SOL    HW1 1211   0.324   2.462   2.789  1.3219  0.0823 -2.9623
  404SOL    HW2 1212   0.206   2.584   2.784 -0.3934  0.7114  0.2876
  405SOL     OW 1213   0.187   2.565   0.560 -0.2354 -0.5194 -0.1874
  405SOL    HW1 1214   0.194   2.462   0.554  0.6415 -0.3725 -1.9536
  405SOL    HW2 1215   0.275   2.611   0.592  1.9193  1.3778 -0.0815
  406SOL     OW 1216   0.039   1.642   2.989  0.3902 -0.1212  0.4165
  406SOL    HW1 1217   0.079   1.625   2.893 -1.8147  0.6891  2.6618
  406SOL    HW2 1218   0.062   1.570   3.059  1.5799 -0.0585  3.1733
  407SOL     OW 1219   1.512   0.899   0.937  0.7523  0.2282 -0.0094
  407SOL    HW1 1220   1.550   0.863   0.847 -2.5109 -1.1169 -0.5772
  407SOL    HW2 1221   1.447   0.979   0.924  2.1355  0.5507 -3.0907
  408SOL     OW 1222   1.456   2.328   0.909  0.3793 -0.3619  0.2523
  408SOL    HW1 1223   1.518   2.276   0.842 -0.5841 -0.0752 -0.8538
  408SOL    HW2 1224   1.509   2.398   0.966 -0.2329  1.3901 -0.4261
  409SOL     OW 1225   0.610   0.837   0.706  0.2442  0.1106 -0.3218
  409SOL    HW1 1226   0.531   0.851   0.643 -1.5169 -1.8779 -0.2130
  409SOL    HW2 1227   0.646   0.742   0.703  1.1751 -0.9958 -1.5006
  410SOL     OW 1228   1.349   1.913   1.476  0.6796 -0.2843 -0.1058
  410SOL    HW1 1229   1.332   2.015   1.488 -0.2502 -1.6163 -0.4271
  410SOL    HW2 1230   1.273   1.846   1.494 -3.0516 -1.1101 -2.5649
  411SOL     OW 1231   2.367   1.864   0.058  0.0868  0.0391  0.1396
  411SOL    HW1 1232   2.271   1.881   0.017 -3.6037  1.4944  0.7378
  411SOL    HW2 1233   2.439   1.929   0.021 -0.2747 -1.4314 -1.3516
  412SOL     OW 1234   1.642   2.456   2.242 -0.2131 -0.5693 -0.0958
  412SOL    HW1 1235   1.663   2.555   2.256 -0.9071  0.8185  0.6514
  412SOL    HW2 1236   1.548   2.423   2.272 -3.3469  1.1832 -0.5475
  413SOL     OW 1237   3.086   0.238   2.908 -0.3588 -0.4221  0.1109
  413SOL    HW1 1238   3.031   0.211   2.988 -0.5772 -3.0527  0.1409
  413SOL    HW2 1239   3.185   0.252   2.924 -2.0273 -1.6176 -0.5539
  414SOL     OW 1240   1.715   1.361   1.411 -0.4868  0.2474 -0.2392
  414SOL    HW1 1241   1.631   1.419   1.436  3.5834 -1.3342 -1.5732
  414SOL    HW2 1242   1.710   1.333   1.312  1.3945 -0.8855 -2.8689
  415SOL     OW 1243   0.236   2.270   0.687 -0.8208 -0.6188 -0.1066
  415SOL    HW1 1244   0.236   2.225   0.783  2.7935  2.2968 -1.4736
  415SOL    HW2 1245   0.152   2.256   0.625 -0.5597  0.9542  0.2484
  416SOL     OW 1246   0.314   1.087   1.085  0.1395 -0.4329  0.4579
  416SOL    HW1 1247   0.331   1.056   0.985  1.2856 -0.2806 -1.3639
  416SOL    HW2 1248   0.339   1.184   1.102 -0.4343 -1.9869 -1.3586
  417SOL     OW 1249   2.201   2.318   1.829  0.6001  0.1886  0.1304
  417SOL    HW1 1250   2.271   2.244   1.841 -0.3223 -1.6662  2.5115
  417SOL    HW2 1251   2.112   2.302   1.878  1.2466  0.4400 -0.2409
  418SOL     OW 1252   1.160   0.567   1.348 -0.1022  0.2762 -0.0987
  418SOL    HW1 1253   1.076   0.566   1.290 -0.3681  0.5643  0.4658
  418SOL    HW2 1254   1.234   0.513   1.308  3.2568 -3.9762 -0.3187
  419SOL     OW 1255   0.958   0.385   2.979 -0.5232 -0.2351  0.3129
  419SOL    HW1 1256   0.986   0.419   2.884  0.1613  1.6957  1.2790
  419SOL    HW2 1257   0.913   0.291   2.977  2.2965 -1.4292 -0.1832
  420SOL     OW 1258   0.206   2.205   0.310 -0.2838 -0.1495 -0.0007
  420SOL    HW1 1259   0.178   2.183   0.209 -1.4255  4.4820  1.7714
  420SOL    HW2 1260   0.123   2.238   0.355  0.0633 -0.1808 -3.0790
  421SOL     OW 1261   0.290   0.056   0.697 -0.0261 -0.3352 -0.0296
  421SOL    HW1 1262   0.302   0.008   0.607  3.2012  0.2930  0.2611
  421SOL    HW2 1263   0.356   0.131   0.722  0.7673  1.0318 -1.2336
  422SOL     OW 1264   0.907   2.553   0.996  0.2042 -0.6526  0.0272
  422SOL    HW1 1265   0.930   2.638   0.947 -0.0170 -0.3292 -1.6413
  422SOL    HW2 1266   0.959   2.555   1.085 -0.5077  0.0109  0.4537
  423SOL     OW 1267   0.058   0.635   1.217 -0.1394  0.6911  0.1534
  423SOL    HW1 1268   0.049   0.639   1.319 -1.7325  0.1890 -2.1348
  423SOL    HW2 1269  -0.035   0.637   1.175 -1.4306 -0.5219 -1.7711
  424SOL     OW 1270   1.017   2.159   2.213 -0.0983  0.5178  0.0420
  424SOL    HW1 1271   0.985   2.208   2.128  0.8027 -0.3622 -1.2609
  424SOL    HW2 1272   0.938   2.127   2.272  0.6975  0.4145 -1.5386
  425SOL     OW 1273   2.083   1.416   1.129 -0.1239  0.1315 -0.1643
  425SOL    HW1 1274   2.111   1.317   1.112  2.1227 -1.2458 -0.3549
  425SOL    HW2 1275   2.084   1.477   1.045 -0.4539  1.5098  2.7204
  426SOL     OW 1276   1.439   1.550   1.440  0.4348  0.2494  0.1217
  426SOL    HW1 1277   1.414   1.618   1.362  0.9721  1.1227 -1.5449
  426SOL    HW2 1278   1.473   1.598   1.526 -1.4789 -0.3593 -0.3306
  427SOL     OW 1279   1.990   2.341   2.037 -0.6301 -0.3710 -0.7101
  427SOL    HW1 1280   2.009   2.268   2.104  0.2779 -0.5437  1.9002
  427SOL    HW2 1281   2.005   2.441   2.072  0.8741  2.8583  1.1658
  428SOL     OW 1282   0.910   0.016   0.066  0.1180 -0.0218 -0.3153
  428SOL    HW1 1283   0.938   0.093   0.133  0.5506  0.7242 -0.2881
  428SOL    HW2 1284   0.977  -0.062   0.054 -1.6293  2.4853 -0.7999
  429SOL     OW 1285   1.250   0.061   0.235 -0.4133  0.3968 -0.0232
  429SOL    HW1 1286   1.321   0.133   0.203 -2.2662 -2.9206  0.6593
  429SOL    HW2 1287   1.243  -0.029   0.181  3.1193 -0.0140 -0.2753
  430SOL     OW 1288   2.786   1.448   0.269 -0.0145  0.0239 -0.0717
  430SOL    HW1 1289   2.788   1.505   0.185 -0.7774  0.0450  1.5697
  430SOL    HW2 1290   2.780   1.506   0.355  0.5957  3.3651  2.1777
  431SOL     OW 1291   2.137   1.594   0.927 -0.2404 -0.0800  0.1790
  431SOL    HW1 1292   2.184   1.688   0.940  2.6485 -0.0041  1.9678
  431SOL    HW2 1293   2.052   1.600   0.869  0.9310 -1.5926 -0.5013
  432SOL     OW 1294   2.950   2.153   1.291 -0.6139  0.0546 -0.2943
  432SOL    HW1 1295   2.867   2.092   1.315  1.4268 -0.7802  0.0119
  432SOL    HW2 1296   2.949   2.246   1.341  1.4072  2.1626 -3.6963
  433SOL     OW 1297   1.835   0.389   0.844  0.2959 -1.3155 -0.4247
  433SOL    HW1 1298   1.748   0.352   0.886  2.9290 -2.0539  2.2739
  433SOL    HW2 1299   1.903   0.428   0.911  0.3114  0.3179  2.7028
  434SOL     OW 1300   1.458   0.227   0.750  0.4980 -0.0312 -0.3756
  434SOL    HW1 1301   1.491   0.293   0.676 -1.0006 -2.1201  0.4610
  434SOL    HW2 1302   1.527   0.226   0.825  1.2704  2.0900  0.5426
  435SOL     OW 1303   1.433   1.379   2.091  0.0174  0.1847 -0.0827
  435SOL    HW1 1304   1.386   1.413   2.180  1.1931  0.3571  1.4646
  435SOL    HW2 1305   1.405   1.431   2.005  1.3143 -0.4232 -2.4334
  436SOL     OW 1306   1.676   2.716   2.428 -0.0999 -0.7245  0.0342
  436SOL    HW1 1307   1.651   2.815   2.453  1.1677 -0.5249  2.8885
  436SOL    HW2 1308   1.622   2.637   2.468  0.4463  1.5691  1.2395
  437SOL     OW 1309   1.051   3.029   0.872 -0.6922 -0.2277  0.2121
  437SOL    HW1 1310   1.068   3.111   0.809 -3.1154  1.8130  1.4011
  437SOL    HW2 1311   1.072   3.049   0.975 -0.6831  1.8491 -2.0869
  438SOL     OW 1312   1.007   2.578   1.257 -0.2774 -0.1441  0.0319
  438SOL    HW1 1313   1.094   2.621   1.296 -0.3473  1.0146  1.5329
  438SOL    HW2 1314   1.011   2.478   1.272  3.3945 -0.0892  1.7273
  439SOL     OW 1315   0.730   1.703   1.069  0.1934 -0.6970  0.1180
  439SOL    HW1 1316   0.781   1.790   1.046  1.0316  0.3211  1.4932
  439SOL    HW2 1317   0.630   1.717   1.090  1.6986 -0.7767  1.3466
  440SOL     OW 1318   0.928   2.314   2.007  0.1446  0.5286  0.2272
  440SOL    HW1 1319   0.932   2.408   1.966  2.8257  0.8205  3.4300
  440SOL    HW2 1320   0.987   2.248   1.949  1.1184  1.8172 -0.3748
  441SOL     OW 1321   0.359   2.789   1.301  0.1359  0.1872  0.4362
  441SOL    HW1 1322   0.387   2.691   1.301  1.5823  3.0100 -0.7804
  441SOL    HW2 1323   0.365   2.840   1.210 -0.2324  1.3676 -0.0270
  442SOL     OW 1324   2.225   0.697   2.553  0.0690 -0.3913  0.5524
  442SOL    HW1 1325   2.237   0.624   2.481 -1.1606  0.5643 -1.9594
  442SOL    HW2 1326   2.147   0.759   2.524 -0.0398 -2.2720  1.7234
  443SOL     OW 1327   1.350   2.481   2.268 -0.4263  0.4031 -0.5858
  443SOL    HW1 1328   1.305   2.390   2.283 -1.2361 -0.0028 -2.3410
  443SOL    HW2 1329   1.280   2.553   2.289 -0.4456  1.3792 -1.8755
  444SOL     OW 1330   0.954   1.107   1.407 -0.5228  0.2282  0.7230
  444SOL    HW1 1331   1.045   1.067   1.427 -1.1207  2.8535  0.9713
  444SOL    HW2 1332   0.947   1.206   1.376 -1.7351 -0.3784  0.4827
  445SOL     OW 1333   0.156   2.101   2.013  0.2080 -0.0030 -0.2801
  445SOL    HW1 1334   0.126   2.002   2.040  0.7128 -0.3695  0.7220
  445SOL    HW2 1335   0.109   2.177   2.063  0.5154  0.6817  2.0719
  446SOL     OW 1336   0.157   1.997   2.385 -0.1126  0.0124  0.0302
  446SOL    HW1 1337   0.145   2.101   2.370 -0.9029 -2.5133 -0.9006
  446SOL    HW2 1338   0.153   1.946   2.294 -3.3077 -1.6700  2.2854
  447SOL     OW 1339   1.349   1.557   1.871 -0.6610  0.5899  0.6029
  447SOL    HW1 1340   1.272   1.604   1.818 -0.1718 -0.2762 -1.6999
  447SOL    HW2 1341   1.403   1.629   1.927 -1.4030  0.0716 -0.6942
  448SOL     OW 1342   0.145   1.471   2.019 -0.1449  0.0116  0.6794
  448SOL    HW1 1343   0.171   1.564   1.979 -1.3762  1.3918 -2.0442
  448SOL    HW2 1344   0.063   1.478   2.086  0.5674 -0.2801  0.2469
  449SOL     OW 1345   1.861   3.019   0.831 -0.0524  0.3363  0.3656
  449SOL    HW1 1346   1.843   3.029   0.930  3.8117  0.6360 -2.6034
  449SOL    HW2 1347   1.903   2.933   0.798  1.0400 -1.1116  1.1007
  450SOL     OW 1348   2.152   1.516   0.665  0.2479 -0.8286  0.5090
  450SOL    HW1 1349   2.170   1.509   0.766 -1.4338  1.8349  1.4445
  450SOL    HW2 1350   2.200   1.594   0.625 -0.3715 -0.9573  1.0649
  451SOL     OW 1351   1.383   2.986   1.500  0.4165 -0.3687  0.2900
  451SOL    HW1 1352   1.307   3.042   1.539  2.0388 -0.4137 -1.9239
  451SOL    HW2 1353   1.409   2.911   1.563  3.6268 -1.3520 -0.2568
  452SOL     OW 1354   2.685   2.268   2.257  0.0323  0.7192 -0.2548
  452SOL    HW1 1355   2.616   2.348   2.270  1.6934  1.1187 -0.8730
  452SOL    HW2 1356   2.734   2.239   2.344  0.1086  2.7344 -0.6213
  453SOL     OW 1357   2.477   2.694   0.014  0.3954 -0.0291 -0.7209
  453SOL    HW1 1358   2.381   2.711   0.057 -1.9021 -1.3700  1.5803
  453SOL    HW2 1359   2.470   2.614  -0.057  0.1610 -1.0423  0.1819
  454SOL     OW 1360   0.869   1.168   2.003 -0.4580  0.1872  0.1017
  454SOL    HW1 1361   0.811   1.203   1.923  0.8630 -0.2772 -0.2554
  454SOL    HW2 1362   0.969   1.205   2.008  1.9641 -0.4633  0.6438
  455SOL     OW 1363   0.798   2.605   2.789 -0.2104 -0.2122 -0.2078
  455SOL    HW1 1364   0.871   2.679   2.799  1.1124 -1.7400 -0.9279
  455SOL    HW2 1365   0.786   2.536   2.865 -0.9488  3.3955 -2.1459
  456SOL     OW 1366   0.299   1.946   0.172 -0.1482 -0.3369  0.8109
  456SOL    HW1 1367   0.374   1.996   0.221 -0.3258 -0.8906 -0.0553
  456SOL    HW2 1368   0.224   2.008   0.133 -2.5852 -0.9878 -0.4855
  457SOL     OW 1369   0.408   2.706   0.633 -0.1885  0.1865 -0.0326
  457SOL    HW1 1370   0.440   2.731   0.538  1.5880  1.5159  2.8265
  457SOL    HW2 1371   0.488   2.675   0.693  2.2784 -3.1599 -2.1166
  458SOL     OW 1372   2.971   0.020   1.310 -0.2353 -0.0260 -0.0868
  458SOL    HW1 1373   3.070   0.042   1.331 -0.0630  0.7575 -2.1324
  458SOL    HW2 1374   2.965  -0.043   1.228 -2.8153 -0.0471  2.2114
  459SOL     OW 1375   2.115   2.554   0.754 -0.2550 -0.4845 -0.4396
  459SOL    HW1 1376   2.169   2.518   0.837  1.4243  2.0888 -0.1764
  459SOL    HW2 1377   2.164   2.566   0.667  1.7710 -3.8538 -1.1263
  460SOL     OW 1378   1.228   2.103   2.800 -0.6432 -0.5785  0.1406
  460SOL    HW1 1379   1.231   2.133   2.701  0.4327 -0.2747 -2.0352
  460SOL    HW2 1380   1.276   2.010   2.811  1.3974  0.3564  0.6240
  461SOL     OW 1381   0.472   2.121   2.703 -0.1129 -0.1765  0.6422
  461SOL    HW1 1382   0.378   2.078   2.706 -2.4497 -0.3787  2.8218
  461SOL    HW2 1383   0.550   2.067   2.745 -0.8429 -2.3960 -1.5343
  462SOL     OW 1384   0.987   1.050   1.743 -0.2976 -0.1639 -0.2803
  462SOL    HW1 1385   0.971   0.988   1.662  0.1015  0.3826 -0.4975
  462SOL    HW2 1386   0.927   1.133   1.747 -2.4713  0.0731 -0.6224
  463SOL     OW 1387   0.409   0.800   0.498 -0.3193 -0.3568  0.3340
  463SOL    HW1 1388   0.460   0.712   0.464  0.2695 -1.4731 -2.3491
  463SOL    HW2 1389   0.306   0.786   0.519 -0.2909 -0.3662 -4.2796
  464SOL     OW 1390   0.563   2.342   2.291 -0.4008 -0.2086  0.0080
  464SOL    HW1 1391   0.486   2.384   2.342  0.9264 -0.1939 -2.2146
  464SOL    HW2 1392   0.539   2.315   2.196 -0.6327  3.1139  0.9806
  465SOL     OW 1393   0.232   0.943   0.813  0.1934  0.1333 -0.2589
  465SOL    HW1 1394   0.136   0.966   0.776  0.9642 -0.1577 -1.2086
  465SOL    HW2 1395   0.253   0.838   0.797 -0.9131 -0.7951  1.0818
  466SOL     OW 1396   1.374   1.120   0.853 -0.3276  0.6257 -0.1696
  466SOL    HW1 1397   1.389   1.224   0.854 -2.0344  2.2644  1.7678
  466SOL    HW2 1398   1.276   1.100   0.880 -1.0286 -1.1254 -3.7820
  467SOL     OW 1399   0.576   0.457   2.516  0.5513  0.2879  0.3554
  467SOL    HW1 1400   0.501   0.531   2.518 -0.4023 -0.9693  0.4748
  467SOL    HW2 1401   0.549   0.382   2.580  6.4482 -1.2631  0.5130
  468SOL     OW 1402   0.484   2.280   1.625  0.2248 -0.2453 -0.3494
  468SOL    HW1 1403   0.578   2.315   1.654 -0.0221  1.8639 -1.2791
  468SOL    HW2 1404   0.475   2.272   1.522  1.5663 -2.5752  0.6196
  469SOL     OW 1405   1.459   1.343   1.197 -0.1945  0.7140  0.0736
  469SOL    HW1 1406   1.535   1.376   1.136  0.6179 -2.0275 -0.0137
  469SOL    HW2 1407   1.429   1.411   1.266 -1.2551  0.0320 -0.9500
  470SOL     OW 1408   2.954   1.842   0.800  0.0716 -0.0606  0.2118
  470SOL    HW1 1409   3.035   1.870   0.740  1.7687  0.9727 -1.6267
  470SOL    HW2 1410   2.971   1.861   0.900  1.9499 -0.8139 -0.2421
  471SOL     OW 1411   2.677   1.399   2.150  0.0849 -0.5548  0.3909
  471SOL    HW1 1412   2.656   1.306   2.200  3.8027 -0.8643  2.4123
  471SOL    HW2 1413   2.755   1.453   2.190 -1.7002  0.9937  3.5576
  472SOL     OW 1414   1.269   2.408   0.032  0.8347 -0.0125  0.7818
  472SOL    HW1 1415   1.334   2.325   0.029  0.1902 -0.9520  1.0946
  472SOL    HW2 1416   1.175   2.379   0.070  1.0849 -2.0477 -2.6227
  473SOL     OW 1417   1.067   1.479   0.971 -0.0863  0.4184 -0.4851
  473SOL    HW1 1418   0.971   1.497   0.937  0.0916 -0.0386  1.0837
  473SOL    HW2 1419   1.071   1.403   1.043  1.6982 -0.5465 -0.0016
  474SOL     OW 1420   0.609   1.262   0.415  0.7281  0.6993 -0.0447
  474SOL    HW1 1421   0.530   1.195   0.420  1.5819 -0.4661  2.7523
  474SOL    HW2 1422   0.697   1.215   0.432 -3.1649  0.9344  0.6986
  475SOL     OW 1423   2.901   0.002   0.900 -0.6468 -0.0023 -0.8211
  475SOL    HW1 1424   2.943   0.096   0.906  1.1128  0.4810  1.5595
  475SOL    HW2 1425   2.799   0.011   0.917 -0.5610 -2.3922  1.1455
  476SOL     OW 1426   0.973   3.057   1.817 -0.0578  0.4938  0.0619
  476SOL    HW1 1427   1.074   3.074   1.807 -0.3219  2.6677 -0.2363
  476SOL    HW2 1428   0.918   3.075   1.734 -0.0052  0.7127  1.7058
  477SOL     OW 1429   1.476   0.297   2.455 -0.2907  0.1848 -0.5029
  477SOL    HW1 1430   1.495   0.350   2.544 -0.1791  2.1349  0.3067
  477SOL    HW2 1431   1.549   0.223   2.444  1.9265 -2.5133  2.2874
  478SOL     OW 1432   2.269   1.958   0.335  0.3022 -0.2853  0.2829
  478SOL    HW1 1433   2.198   1.886   0.349 -2.9686  0.2372 -0.4035
  478SOL    HW2 1434   2.367   1.919   0.324 -1.8971  0.2839 -0.2177
  479SOL     OW 1435   1.289   1.039   2.901  0.0995 -0.3443 -0.3811
  479SOL    HW1 1436   1.368   1.072   2.836 -0.0062 -0.4396 -3.9280
  479SOL    HW2 1437   1.210   0.995   2.843  0.9452 -0.2920 -0.4028
  480SOL     OW 1438   2.626   2.245   0.423  0.4212  0.1157  0.1561
  480SOL    HW1 1439   2.714   2.189   0.442 -1.6777  0.8395  2.0781
  480SOL    HW2 1440   2.556   2.224   0.496 -0.0460 -0.4398  1.3618
  481SOL     OW 1441   0.945   1.111   0.745 -0.1774 -0.3932 -0.5328
  481SOL    HW1 1442   0.982   1.180   0.685  0.9203  0.3331 -2.0014
  481SOL    HW2 1443   0.998   1.101   0.835 -0.2073  0.7448  1.1105
  482SOL     OW 1444   1.581   0.278   2.003 -0.2420 -0.1358  0.0755
  482SOL    HW1 1445   1.576   0.380   1.990  1.4945  0.5404  2.2807
  482SOL    HW2 1446   1.672   0.237   2.034  1.2068 -2.3520 -2.6606
  483SOL     OW 1447   0.182   2.345   1.224 -0.4514  0.6911 -1.2829
  483SOL    HW1 1448   0.121   2.396   1.287 -0.3703  0.9684  3.5033
  483SOL    HW2 1449   0.189   2.395   1.132 -1.0952  0.4358  0.3013
  484SOL     OW 1450   1.730   1.071   1.439 -0.0510 -0.9512  0.2579
  484SOL    HW1 1451   1.820   1.020   1.445 -0.1497 -0.5201 -0.1331
  484SOL    HW2 1452   1.718   1.159   1.487  1.1902  0.2260 -1.0442
  485SOL     OW 1453   0.801   0.737   1.913 -0.3596  0.1044  0.5302
  485SOL    HW1 1454   0.756   0.759   1.821 -1.0670 -0.3305 -0.3066
  485SOL    HW2 1455   0.891   0.687   1.902  0.8224 -0.7304  1.4029
  486SOL     OW 1456   0.924   1.825   2.468 -0.5779  0.1334  0.2101
  486SOL    HW1 1457   0.924   1.822   2.576 -3.4122  1.5857 -0.9384
  486SOL    HW2 1458   0.919   1.927   2.441  0.5390  0.9861 -0.3850
  487SOL     OW 1459   1.768   1.554   1.042 -0.6295  0.2250  0.1452
  487SOL    HW1 1460   1.789   1.458   1.069  1.8589  0.6470 -1.5756
  487SOL    HW2 1461   1.834   1.589   0.968  1.3448  0.4629  2.8277
  488SOL     OW 1462   2.866   0.880   2.300  0.2111 -0.9162 -0.6153
  488SOL    HW1 1463   2.956   0.881   2.347  0.4658 -2.0619 -0.9175
  488SOL    HW2 1464   2.805   0.805   2.336  0.1027  1.0771  1.0861
  489SOL     OW 1465   2.892   0.312   1.280 -0.5946  0.3262  0.1930
  489SOL    HW1 1466   2.835   0.284   1.365  0.0313  0.2690  0.9684
  489SOL    HW2 1467   2.969   0.247   1.258  1.1350 -0.6148  1.9971
  490SOL     OW 1468   1.540   2.995   2.783 -0.5287  0.2643  0.1648
  490SOL    HW1 1469   1.589   2.902   2.783 -0.0901  1.5285 -0.2777
  490SOL    HW2 1470   1.476   3.009   2.701  3.0577  0.6992 -1.8465
  491SOL     OW 1471   1.787   1.533   2.717 -0.1902 -0.2335  1.0184
  491SOL    HW1 1472   1.779   1.460   2.794  0.9238 -1.6833 -0.4782
  491SOL    HW2 1473   1.889   1.570   2.712 -1.4451  1.0093 -1.1044
  492SOL     OW 1474   0.680   2.168   0.579  0.2673 -0.2540  0.2461
  492SOL    HW1 1475   0.645   2.161   0.682 -0.9371 -1.7703 -0.3588
  492SOL    HW2 1476   0.603   2.179   0.514 -1.0065 -0.7250  2.1661
  493SOL     OW 1477   0.384   1.347   2.100  0.1875 -0.0149 -0.0626
  493SOL    HW1 1478   0.290   1.390   2.080 -0.2458 -0.6524 -2.5104
  493SOL    HW2 1479   0.375   1.250   2.130  2.7422 -0.6085  0.7333
  494SOL     OW 1480   2.731   2.655   0.147 -0.5597  0.0415  0.0234
  494SOL    HW1 1481   2.748   2.648   0.252  0.1129 -0.1331 -0.5447
  494SOL    HW2 1482   2.641   2.706   0.119 -0.7817 -2.3647  2.0992
  495SOL     OW 1483   2.538   2.804   2.700  0.0847  0.0066 -0.6520
  495SOL    HW1 1484   2.525   2.703   2.677  0.6019 -2.9739  0.8580
  495SOL    HW2 1485   2.633   2.836   2.657  0.3859  1.0297  0.4089
  496SOL     OW 1486   1.996   2.235   0.843  0.2442 -0.2464  0.1966
  496SOL    HW1 1487   2.051   2.162   0.802 -1.4030  0.7475  1.4493
  496SOL    HW2 1488   2.051   2.284   0.915 -0.4914  1.0533  0.0337
  497SOL     OW 1489   0.347   2.982   2.356  0.2185 -0.2734 -0.2073
  497SOL    HW1 1490   0.267   3.050   2.383 -2.1188  2.4357  1.8716
  497SOL    HW2 1491   0.379   2.998   2.258  0.8940 -1.2905 -2.0775
  498SOL     OW 1492   1.132   1.277   1.131  0.1291  0.0225  0.1856
  498SOL    HW1 1493   1.232   1.294   1.131  1.1719  0.8029  2.5535
  498SOL    HW2 1494   1.093   1.308   1.220  0.9815 -0.5908  0.7424
  499SOL     OW 1495   0.631   1.677   0.453 -0.0415 -0.0508  0.1330
  499SOL    HW1 1496   0.631   1.644   0.353 -0.9302  1.9536  0.8714
  499SOL    HW2 1497   0.697   1.755   0.468 -1.4357  1.9748  0.4134
  500SOL     OW 1498   1.476   2.784   1.659 -0.3861  0.3058 -0.3733
  500SOL    HW1 1499   1.441   2.763   1.751 -1.4601  2.3023  1.9412
  500SOL    HW2 1500   1.500   2.698   1.603  0.3562  0.1334 -1.2811
  501SOL     OW 1501   0.820   1.262   2.246 -0.3186 -0.5288  0.0993
  501SOL    HW1 1502   0.745   1.209   2.296 -1.8087  0.0944  1.0907
  501SOL    HW2 1503   0.834   1.226   2.150  0.0272  0.0305 -1.3153
  502SOL     OW 1504   2.533   0.962   1.780 -0.0667 -0.0940 -0.1426
  502SOL    HW1 1505   2.576   0.985   1.694 -0.5023 -2.3027 -0.2468
  502SOL    HW2 1506   2.497   0.863   1.775  1.7618 -0.2760  2.5123
  503SOL     OW 1507   1.187   0.144   0.684  0.0058 -0.3193  0.0350
  503SOL    HW1 1508   1.144   0.228   0.645  0.9172 -2.7840  0.3754
  503SOL    HW2 1509   1.277   0.159   0.737  1.8189 -0.1292 -0.5292
  504SOL     OW 1510   2.964   2.380   1.479 -0.1125  0.3278  0.4515
  504SOL    HW1 1511   2.869   2.377   1.518 -2.4934  2.1517  2.1534
  504SOL    HW2 1512   3.037   2.345   1.548 -1.2660 -1.6662  1.2477
  505SOL     OW 1513   2.338   1.165   1.528  0.1905 -0.0010 -0.2671
  505SOL    HW1 1514   2.332   1.173   1.423 -0.7064  0.9508  1.1912
  505SOL    HW2 1515   2.379   1.248   1.580 -1.8217  0.9187 -1.5226
  506SOL     OW 1516   1.945   0.254   1.891 -0.6788 -0.4503  0.3830
  506SOL    HW1 1517   2.044   0.226   1.875 -1.0558 -2.7310  1.9245
  506SOL    HW2 1518   1.935   0.353   1.890  1.3160 -0.6654  1.6017
  507SOL     OW 1519   0.509   0.771   2.179 -0.0877 -0.0333 -0.4880
  507SOL    HW1 1520   0.438   0.700   2.143 -1.6899 -3.6163  0.7146
  507SOL    HW2 1521   0.587   0.727   2.225 -1.5946 -0.7202 -0.5279
  508SOL     OW 1522   0.322   1.627   0.829 -0.2815  0.2760 -0.8711
  508SOL    HW1 1523   0.419   1.646   0.794  1.1464 -1.1067  1.8355
  508SOL    HW2 1524   0.283   1.696   0.897  1.3302 -3.8784 -1.2903
  509SOL     OW 1525   1.270   1.183   2.434  0.4870 -0.2283 -0.0358
  509SOL    HW1 1526   1.312   1.130   2.353  0.0028 -0.4250  2.2726
  509SOL    HW2 1527   1.167   1.187   2.414  2.4397  1.3002  1.9787
  510SOL     OW 1528   1.392   2.039   2.151  0.5038  0.3721  0.8689
  510SOL    HW1 1529   1.317   2.109   2.136  3.8539 -0.0677  0.5186
  510SOL    HW2 1530   1.369   1.952   2.102  0.1644 -2.6655  1.6105
  511SOL     OW 1531   2.988   2.637   1.397  0.3795  0.1591 -0.1594
  511SOL    HW1 1532   2.906   2.656   1.339  1.8598  0.4138 -1.6501
  511SOL    HW2 1533   2.988   2.544   1.442  0.0620 -0.0774 -1.1087
  512SOL     OW 1534   2.387   0.430   1.382  0.1127  0.0268 -0.2983
  512SOL    HW1 1535   2.312   0.469   1.319 -2.2749  0.7865  0.2636
  512SOL    HW2 1536   2.466   0.394   1.324  0.2540  1.4610  0.1346
  513SOL     OW 1537   2.592   2.167   0.970  0.1307 -0.4085 -0.3373
  513SOL    HW1 1538   2.545   2.234   0.907 -4.2223 -0.4610 -2.0573
  513SOL    HW2 1539   2.646   2.095   0.916 -1.3274 -0.4247 -0.9213
  514SOL     OW 1540   0.576   2.801   0.417 -0.4181 -0.4493  0.8922
  514SOL    HW1 1541   0.617   2.832   0.325  1.5091  1.8302  0.0121
  514SOL    HW2 1542   0.627   2.842   0.496 -0.9903  2.5567 -1.9173
  515SOL     OW 1543   1.951   1.350   2.371 -0.0672 -0.1135  0.8555
  515SOL    HW1 1544   1.946   1.314   2.272 -3.4705  1.3506 -0.5465
  515SOL    HW2 1545   1.885   1.298   2.434 -2.2735  0.4138  2.5694
  516SOL     OW 1546   0.211   0.156   1.923  0.1428 -0.4339 -0.2503
  516SOL    HW1 1547   0.312   0.178   1.907 -0.2985  2.0259  0.1583
  516SOL    HW2 1548   0.170   0.095   1.852  0.6108 -3.5736  2.6084
  517SOL     OW 1549   0.472   0.240   1.136  0.1754  0.4896 -1.0708
  517SOL    HW1 1550   0.551   0.193   1.183  1.8559  1.6217  0.4791
  517SOL    HW2 1551   0.387   0.191   1.158 -1.4715  0.4727 -2.2732
  518SOL     OW 1552   2.247   3.045   1.855 -0.5109  0.7583  0.5138
  518SOL    HW1 1553   2.238   3.145   1.889  0.8498  1.7640  1.3439
  518SOL    HW2 1554   2.248   3.036   1.752  0.4665 -0.2804 -0.6699
  519SOL     OW 1555   2.386   2.250   2.529 -0.2179 -0.3248 -0.2509
  519SOL    HW1 1556   2.338   2.198   2.604 -1.7746  0.6488  0.2347
  519SOL    HW2 1557   2.453   2.322   2.564  1.8385 -0.4930  1.1991
  520SOL     OW 1558   1.798   2.633   1.720 -0.8352  0.0729 -0.6696
  520SOL    HW1 1559   1.744   2.607   1.810  0.0657  0.7605  0.3773
  520SOL    HW2 1560   1.880   2.574   1.713 -0.7181 -0.2789 -0.5223
  521SOL     OW 1561   0.604   0.097   2.162  0.7299 -0.3853 -0.0546
  521SOL    HW1 1562   0.515   0.050   2.124 -2.3000 -1.1380 -0.6537
  521SOL    HW2 1563   0.645   0.058   2.249  2.2376  2.0461  0.0782
  522SOL     OW 1564   0.202   1.879   1.544 -0.4022  0.4266  0.0661
  522SOL    HW1 1565   0.256   1.924   1.620 -0.9610  3.2566  0.7154
  522SOL    HW2 1566   0.152   1.945   1.479  0.4004  0.6245 -0.1852
  523SOL     OW 1567   2.216   3.000   1.586  0.0040 -0.2131 -0.0898
  523SOL    HW1 1568   2.291   2.925   1.578 -4.1977  3.3837  0.6870
  523SOL    HW2 1569   2.122   2.968   1.560  0.5167 -2.2865 -0.3209
  524SOL     OW 1570   0.209   2.755   2.800 -0.0017 -0.6621 -0.1393
  524SOL    HW1 1571   0.180   2.790   2.892  0.5975 -0.4318  3.7098
  524SOL    HW2 1572   0.303   2.790   2.778 -2.4851 -1.8948  1.2549
  525SOL     OW 1573   2.152   2.153   0.500 -0.3562 -0.3669 -0.1895
  525SOL    HW1 1574   2.133   2.095   0.585  1.5691 -1.3538  0.6512
  525SOL    HW2 1575   2.185   2.093   0.417  1.9117 -0.4134  2.5783
  526SOL     OW 1576   0.426   1.482   1.673 -0.6689 -0.0403 -0.0829
  526SOL    HW1 1577   0.456   1.564   1.731  2.2994 -0.8435 -2.7604
  526SOL    HW2 1578   0.444   1.393   1.719  0.7991 -0.0679  1.9839
  527SOL     OW 1579   1.137   3.071   1.136  0.3709  0.0718 -0.6284
  527SOL    HW1 1580   1.169   3.010   1.215 -2.5654 -0.1229 -1.3484
  527SOL    HW2 1581   1.208   3.144   1.118 -1.2086 -0.5050 -3.3694
  528SOL     OW 1582   1.317   2.422   0.627 -0.0997  0.4626  0.0037
  528SOL    HW1 1583   1.350   2.320   0.636 -0.6596  1.1835  1.0940
  528SOL    HW2 1584   1.358   2.482   0.696 -2.8293 -0.9222  2.2580
  529SOL     OW 1585   1.891   1.677   0.809 -0.4996  0.2836 -0.2329
  529SOL    HW1 1586   1.830   1.684   0.721 -1.8898  2.0065  0.2567
  529SOL    HW2 1587   1.905   1.772   0.851  2.0650  0.5532  1.1405
  530SOL     OW 1588   0.481   2.561   0.160  0.0208 -0.3335 -0.7469
  530SOL    HW1 1589   0.493   2.534   0.259 -2.1802 -1.9237 -0.2859
  530SOL    HW2 1590   0.489   2.474   0.097  0.7204  0.5733 -2.1583
  531SOL     OW 1591   1.777   0.954   1.029  0.7484  0.3774  0.3831
  531SOL    HW1 1592   1.820   0.991   0.943 -2.6509 -1.2816 -0.4055
  531SOL    HW2 1593   1.673   0.948   1.020  1.5961 -0.0115 -0.2910
  532SOL     OW 1594   0.382   1.129   0.694  0.1657  0.4430 -0.5006
  532SOL    HW1 1595   0.380   1.097   0.593  2.8681  0.1164  2.0046
  532SOL    HW2 1596   0.333   1.058   0.751  0.5591  0.3445  0.4329
  533SOL     OW 1597   1.839   3.079   2.663 -0.3462  0.0632 -0.1758
  533SOL    HW1 1598   1.942   3.079   2.654  0.5149  1.2503  2.5955
  533SOL    HW2 1599   1.792   3.172   2.661  1.6423  0.9082  0.0789
  534SOL     OW 1600   0.196   0.191   1.568 -0.3920 -0.3208 -0.1133
  534SOL    HW1 1601   0.243   0.279   1.545 -0.5909  2.6195  2.2800
  534SOL    HW2 1602   0.100   0.208   1.587 -0.7970 -0.4681  0.9652
  535SOL     OW 1603   1.883   0.405   0.160 -0.1561 -0.0938  1.0322
  535SOL    HW1 1604   1.932   0.480   0.207 -1.5867  0.8620 -1.3459
  535SOL    HW2 1605   1.810   0.348   0.220  4.6960 -2.3235  0.0032
  536SOL     OW 1606   1.215   2.498   0.925  0.3131 -0.0335 -0.3417
  536SOL    HW1 1607   1.279   2.417   0.920  1.6398 -1.4303 -0.9392
  536SOL    HW2 1608   1.164   2.517   0.835 -0.7571  0.8660  0.6688
  537SOL     OW 1609   0.910   0.198   2.314  0.0141 -0.0793 -0.2433
  537SOL    HW1 1610   0.833   0.207   2.245  0.4139 -1.2759 -0.7267
  537SOL    HW2 1611   0.986   0.124   2.292  1.4082  1.4239  0.6404
  538SOL     OW 1612   1.749   2.207   1.603  0.0907  0.3699  0.3218
  538SOL    HW1 1613   1.701   2.153   1.529 -0.2443 -0.6779  0.1566
  538SOL    HW2 1614   1.803   2.295   1.576 -1.5678 -0.3630 -0.3214
  539SOL     OW 1615   0.178   1.567   2.771 -0.4983 -0.2230  0.4030
  539SOL    HW1 1616   0.098   1.568   2.708 -3.1423 -1.9772 -2.0358
  539SOL    HW2 1617   0.265   1.600   2.729  0.2953 -0.5116 -0.3207
  540SOL     OW 1618   2.705   1.796   2.119 -0.2555 -0.2951  0.5545
  540SOL    HW1 1619   2.629   1.724   2.123 -1.3807 -0.0036  0.7445
  540SOL    HW2 1620   2.699   1.869   2.043 -3.4679  1.5095 -0.5359
  541SOL     OW 1621   0.456   2.327   0.011 -0.3200  0.0844  0.6241
  541SOL    HW1 1622   0.487   2.261   0.086 -0.9726 -0.7679  1.3643
  541SOL    HW2 1623   0.368   2.291  -0.028 -3.6134 -1.6683  0.5049
  542SOL     OW 1624   2.193   2.593   0.485 -0.8184 -0.2192  0.0709
  542SOL    HW1 1625   2.209   2.666   0.411  0.5972 -0.3439 -1.4808
  542SOL    HW2 1626   2.103   2.547   0.479 -0.8781 -3.3280 -1.7831
  543SOL     OW 1627   1.103   1.698   1.799 -0.0968  0.4018 -0.8734
  543SOL    HW1 1628   1.120   1.760   1.883  2.0039  0.6183  0.5821
  543SOL    HW2 1629   1.039   1.742   1.737  2.0282  1.4573  0.7138
  544SOL     OW 1630   0.853   0.494   0.102 -0.2585 -0.0846  0.1427
  544SOL    HW1 1631   0.895   0.474   0.192 -1.3622  0.7527 -0.7092
  544SOL    HW2 1632   0.896   0.442   0.021 -1.6062 -1.2014 -0.5490
  545SOL     OW 1633   1.155   1.740   0.621 -0.4660 -0.7358 -0.0453
  545SOL    HW1 1634   1.232   1.723   0.690  1.0133 -3.1054  0.0150
  545SOL    HW2 1635   1.180   1.726   0.523 -2.1088  2.8390 -2.2351
  546SOL     OW 1636   2.663   1.615   0.036  0.6263 -0.3369  0.0786
  546SOL    HW1 1637   2.697   1.598  -0.055 -0.3596  0.5771 -1.9727
  546SOL    HW2 1638   2.562   1.588   0.040 -1.7638 -1.4106 -1.2369
  547SOL     OW 1639   0.456   3.046   2.731  0.4160 -0.4315 -0.1524
  547SOL    HW1 1640   0.489   2.980   2.658  0.3999 -0.0781 -1.0195
  547SOL    HW2 1641   0.484   3.011   2.819 -2.2353  0.3722 -1.3170
  548SOL     OW 1642   2.070   0.783   2.978  0.2343  0.0262 -0.5147
  548SOL    HW1 1643   1.973   0.762   3.025  0.3869 -2.5532 -1.9127
  548SOL    HW2 1644   2.096   0.882   2.965  1.6465 -1.5388 -0.4518
  549SOL     OW 1645   0.575   0.470   0.059 -0.1693 -0.3383 -0.0450
  549SOL    HW1 1646   0.549   0.551  -0.001  1.1356  1.7227 -0.3189
  549SOL    HW2 1647   0.675   0.467   0.088  2.4996  0.0073  2.6988
  550SOL     OW 1648   2.536   2.893   2.953 -0.4397  0.3420 -0.1370
  550SOL    HW1 1649   2.513   2.805   3.010 -2.2809  0.0757 -2.2636
  550SOL    HW2 1650   2.539   2.878   2.849 -3.1667  2.8307 -0.7826
  551SOL     OW 1651   0.282   0.798   0.231 -0.1839  0.8992  0.0064
  551SOL    HW1 1652   0.378   0.768   0.246 -2.7535  0.0612 -2.1070
  551SOL    HW2 1653   0.229   0.804   0.321  0.4317  0.2575  1.8725
  552SOL     OW 1654   0.856   2.812   1.904  0.0311  0.5298 -0.0779
  552SOL    HW1 1655   0.835   2.810   2.010 -1.5210  0.3282  0.4236
  552SOL    HW2 1656   0.895   2.902   1.872  1.0169  0.4080 -0.6453
  553SOL     OW 1657   0.009   2.558   0.341 -0.6131 -0.1529  0.3968
  553SOL    HW1 1658  -0.034   2.461   0.332 -1.0998  0.9797  1.6541
  553SOL    HW2 1659   0.072   2.568   0.424 -1.6448  1.5786  1.2372
  554SOL     OW 1660   2.108   0.341   0.496  0.0231 -0.2756  0.1765
  554SOL    HW1 1661   2.094   0.312   0.396 -1.4433  0.4150  1.0243
  554SOL    HW2 1662   2.089   0.265   0.563  2.8605  0.0733  2.6988
  555SOL     OW 1663   0.514   2.850   2.550  0.3610  0.5731  0.0540
  555SOL    HW1 1664   0.444   2.868   2.474 -0.5756  0.2477 -1.7056
  555SOL    HW2 1665   0.610   2.851   2.505 -1.6697 -0.3852 -0.1733
  556SOL     OW 1666   0.979   2.343   1.613  0.0987  0.1499  0.0194
  556SOL    HW1 1667   1.012   2.402   1.695 -1.5029  1.6254 -0.8414
  556SOL    HW2 1668   1.026   2.369   1.524  0.7439  2.3757 -0.3723
  557SOL     OW 1669   0.125   2.115   0.070  0.0204  0.0140  0.4389
  557SOL    HW1 1670   0.048   2.045   0.062 -0.6048 -0.7075 -2.4032
  557SOL    HW2 1671   0.146   2.156  -0.022 -3.0532  0.3171  1.6578
  558SOL     OW 1672   2.979   2.306   0.282  0.7419  0.4928  0.3362
  558SOL    HW1 1673   2.891   2.250   0.262 -0.8197 -1.9890 -3.2832
  558SOL    HW2 1674   3.005   2.360   0.196  0.8653 -2.2281 -1.1373
  559SOL     OW 1675   0.439   2.263   1.346  0.3259 -0.1239  0.3831
  559SOL    HW1 1676   0.357   2.299   1.290  0.3567  0.1169 -0.6211
  559SOL    HW2 1677   0.477   2.171   1.311 -0.3638  1.0342 -0.0355
  560SOL     OW 1678   2.099   1.040   3.037 -0.3910  0.1386 -0.5304
  560SOL    HW1 1679   2.097   1.113   2.960  0.4866 -0.1055 -2.4587
  560SOL    HW2 1680   2.066   1.078   3.127  1.0796 -0.8211  0.5153
  561SOL     OW 1681   2.997   1.955   0.041  0.1812  0.6152  0.6115
  561SOL    HW1 1682   2.963   1.860   0.023  3.4926  1.5057 -0.1796
  561SOL    HW2 1683   2.945   2.028  -0.012 -1.6301  0.7082  0.2927
  562SOL     OW 1684   0.863   2.104   2.461 -0.0187  0.0315  0.1581
  562SOL    HW1 1685   0.759   2.091   2.436 -1.9772  0.8780  1.6512
  562SOL    HW2 1686   0.872   2.175   2.534 -3.3581  3.0657 -0.1394
  563SOL     OW 1687   0.699   2.556   2.545 -0.2409  1.0844  0.0061
  563SOL    HW1 1688   0.622   2.489   2.533 -0.5270 -1.6898 -0.2534
  563SOL    HW2 1689   0.739   2.574   2.641  1.5524  0.8769  1.6888
  564SOL     OW 1690   2.766   1.340   2.927 -0.1839  0.3769  0.3302
  564SOL    HW1 1691   2.671   1.307   2.964  0.1544 -0.9517 -0.9632
  564SOL    HW2 1692   2.797   1.436   2.955 -2.4394 -1.1952  2.2051
  565SOL     OW 1693   2.574   2.035   2.594 -0.1317  0.3585  0.1677
  565SOL    HW1 1694   2.499   2.102   2.566  3.1456 -0.1830  0.6212
  565SOL    HW2 1695   2.634   2.062   2.677 -1.0021  1.2847  1.0840
  566SOL     OW 1696   2.024   2.800   1.461 -0.4037  0.4589  0.2703
  566SOL    HW1 1697   2.051   2.730   1.531  1.1159  1.1379 -0.9582
  566SOL    HW2 1698   2.051   2.779   1.364  0.7989  0.5985 -2.6355
  567SOL     OW 1699   2.395   0.061   2.229  0.1937  0.4948 -0.3476
  567SOL    HW1 1700   2.415   0.086   2.131 -0.6818 -2.1820 -1.3424
  567SOL    HW2 1701   2.307   0.010   2.251 -2.8072  3.1408 -0.7834
  568SOL     OW 1702   1.385   1.799   0.419  0.0458  0.1799  0.7014
  568SOL    HW1 1703   1.363   1.850   0.336  0.0683  0.7843  0.5901
  568SOL    HW2 1704   1.394   1.860   0.505 -1.4942 -1.2558  2.4085
  569SOL     OW 1705   0.296   0.686   0.775 -1.1120  0.4294 -0.5138
  569SOL    HW1 1706   0.355   0.625   0.714  2.7726  0.6572  0.4786
  569SOL    HW2 1707   0.193   0.687   0.738  0.3166  2.1644  0.8198
  570SOL     OW 1708   0.588   0.869   2.809 -0.4426  0.4501 -0.0303
  570SOL    HW1 1709   0.667   0.834   2.752  0.4587  1.6520 -1.5172
  570SOL    HW2 1710   0.576   0.975   2.812  0.1868 -0.2166  1.0401
  571SOL     OW 1711   0.870   3.085   1.179 -0.2717  0.0171  0.1003
  571SOL    HW1 1712   0.855   3.163   1.112 -0.7622 -1.0341  0.2345
  571SOL    HW2 1713   0.972   3.058   1.177 -0.0127  0.3844  1.1536
  572SOL     OW 1714   1.478   2.548   1.183  0.1441  0.7382 -0.2577
  572SOL    HW1 1715   1.434   2.450   1.193  0.3662  0.6271 -0.2250
  572SOL    HW2 1716   1.432   2.616   1.116  1.1372  0.3911  2.0640
  573SOL     OW 1717   2.943   0.470   2.085 -0.3435 -0.0555 -0.0733
  573SOL    HW1 1718   2.871   0.392   2.095 -1.3422 -0.5160  0.3116
  573SOL    HW2 1719   2.918   0.539   2.017 -3.1237 -1.1443 -1.0898
  574SOL     OW 1720   0.252   1.807   1.029  0.3298 -0.2933 -0.4049
  574SOL    HW1 1721   0.240   1.903   0.984  3.1055 -0.1871  0.5219
  574SOL    HW2 1722   0.178   1.789   1.100  1.1009 -0.4351 -0.9167
  575SOL     OW 1723   0.972   2.189   1.025  0.4232 -0.1288 -0.3358
  575SOL    HW1 1724   0.916   2.243   1.096  1.0901  0.8002  1.6344
  575SOL    HW2 1725   1.058   2.155   1.067 -0.1662 -0.5864  0.0523
  576SOL     OW 1726   2.855   2.885   1.743  0.2812  0.6470 -0.2790
  576SOL    HW1 1727   2.810   2.831   1.671 -1.3380 -0.2441 -0.5449
  576SOL    HW2 1728   2.785   2.938   1.798 -0.8660 -2.5229  1.7196
  577SOL     OW 1729   2.538   1.252   3.071 -0.2358 -0.0556 -0.5248
  577SOL    HW1 1730   2.518   1.162   3.026  1.2416 -0.0870 -1.5493
  577SOL    HW2 1731   2.596   1.247   3.160 -1.4946  1.4064 -1.2639
  578SOL     OW 1732   1.288   2.786   2.529  0.3678  0.0464  0.1807
  578SOL    HW1 1733   1.242   2.751   2.448  1.5129  0.0951 -0.4955
  578SOL    HW2 1734   1.293   2.888   2.537 -1.6175  0.0873  0.7132
  579SOL     OW 1735   0.162   2.581   0.101 -0.0819  0.1901 -0.1389
  579SOL    HW1 1736   0.126   2.582   0.198 -2.7557  1.7445  1.2760
  579SOL    HW2 1737   0.250   2.527   0.091 -1.6436  1.3069 -0.5798
  580SOL     OW 1738   0.935   2.666   0.398 -0.2340  0.0378 -0.6127
  580SOL    HW1 1739   1.023   2.672   0.343  0.5697  1.8377 -1.1471
  580SOL    HW2 1740   0.875   2.582   0.374 -0.1516  1.7870  1.7295
  581SOL     OW 1741   1.238   2.481   1.468 -0.4724 -0.2716 -0.4333
  581SOL    HW1 1742   1.288   2.394   1.461  1.2127  1.1345 -4.5818
  581SOL    HW2 1743   1.262   2.553   1.395  1.1527  1.2834 -0.2760
  582SOL     OW 1744   1.528   0.049   1.873  0.1980  0.6708 -0.0710
  582SOL    HW1 1745   1.541   0.140   1.913 -0.9219  1.0476  2.8479
  582SOL    HW2 1746   1.604   0.011   1.808  1.5179  0.1455 -1.4121
  583SOL     OW 1747   2.337   2.950   0.527  0.1387  0.5276  0.2449
  583SOL    HW1 1748   2.410   2.899   0.474 -0.0320  0.7618  1.9452
  583SOL    HW2 1749   2.281   2.895   0.594  1.9546  0.1419 -0.6316
  584SOL     OW 1750   1.523   0.960   2.082 -0.1029  0.1726 -0.3984
  584SOL    HW1 1751   1.592   1.022   2.026  1.4542 -1.1310 -0.9195
  584SOL    HW2 1752   1.568   0.911   2.166 -2.3393 -0.9787 -0.2277
  585SOL     OW 1753   2.098   2.743   2.856 -0.3757 -0.2144  0.0113
  585SOL    HW1 1754   2.128   2.642   2.869 -2.3852  0.1220 -0.7585
  585SOL    HW2 1755   1.995   2.758   2.876  1.7696  0.5272 -2.4464
  586SOL     OW 1756   2.761   0.268   1.542  1.3339  0.0283 -0.0450
  586SOL    HW1 1757   2.787   0.364   1.578 -0.9909  0.4914  3.1913
  586SOL    HW2 1758   2.663   0.233   1.567 -0.2485 -0.2632  1.8031
  587SOL     OW 1759   2.052   1.608   2.705  0.0577 -0.0092  0.3735
  587SOL    HW1 1760   2.099   1.561   2.622  2.2099 -1.9341  0.7810
  587SOL    HW2 1761   2.092   1.602   2.800  0.5967 -1.4750 -2.0090
  588SOL     OW 1762   0.508   2.715   2.238  0.1506 -0.1065 -0.0131
  588SOL    HW1 1763   0.442   2.771   2.175 -1.4972  0.5635 -0.3363
  588SOL    HW2 1764   0.457   2.667   2.318  0.6898 -1.3854 -0.7678
  589SOL     OW 1765   2.163   1.445   2.519  0.3774  0.4029  0.2047
  589SOL    HW1 1766   2.097   1.405   2.448 -1.9145 -0.9259  1.6867
  589SOL    HW2 1767   2.244   1.385   2.552 -0.1759  0.2982 -1.7905
  590SOL     OW 1768   2.336   1.762   2.030 -0.4972 -0.3345 -0.2745
  590SOL    HW1 1769   2.385   1.674   2.008 -1.4108  1.7503  0.0888
  590SOL    HW2 1770   2.357   1.790   2.130 -0.9769 -0.2870 -2.1269
  591SOL     OW 1771   1.337   2.442   0.347 -0.0098 -0.1555 -0.0583
  591SOL    HW1 1772   1.407   2.395   0.283  2.0679 -0.5718  0.2761
  591SOL    HW2 1773   1.331   2.391   0.438 -1.6175  1.2871 -1.7157
  592SOL     OW 1774   1.748   2.339   0.778 -0.7161  0.4035 -0.5242
  592SOL    HW1 1775   1.734   2.412   0.704  0.6349 -0.1827  2.3079
  592SOL    HW2 1776   1.847   2.313   0.796  0.0645 -1.7603  0.2736
  593SOL     OW 1777   0.540   0.243   2.987  0.5906  0.7586  0.1440
  593SOL    HW1 1778   0.642   0.226   2.984 -0.3251 -0.4077  1.5135
  593SOL    HW2 1779   0.523   0.334   3.026 -3.3227 -0.8561  0.4274
  594SOL     OW 1780   0.973   1.877   2.773 -0.3830  0.2013 -0.3054
  594SOL    HW1 1781   1.064   1.883   2.827  0.4189  0.2150 -1.5172
  594SOL    HW2 1782   0.907   1.955   2.788 -2.3667 -3.9588 -0.3720
  595SOL     OW 1783   1.547   3.074   1.037 -0.3155  0.2523  0.1835
  595SOL    HW1 1784   1.607   3.001   1.079 -0.6149  0.1457  2.4591
  595SOL    HW2 1785   1.547   3.072   0.933 -1.1757 -2.1177  1.5993
  596SOL     OW 1786   3.060   1.482   2.231  0.3773  0.0689 -0.3644
  596SOL    HW1 1787   2.992   1.553   2.264 -0.7115  0.8180  2.1230
  596SOL    HW2 1788   3.108   1.428   2.308 -1.1436  5.1031  3.2419
  597SOL     OW 1789   2.090   2.556   1.629  0.0354  0.0355  0.3604
  597SOL    HW1 1790   2.108   2.464   1.592  1.5468 -0.2179 -1.9142
  597SOL    HW2 1791   2.151   2.582   1.709  4.7389  0.0849 -0.7536
  598SOL     OW 1792   2.570   2.847   1.261  0.9117  0.0481 -0.4364
  598SOL    HW1 1793   2.649   2.900   1.303 -1.7625  1.8149 -1.6392
  598SOL    HW2 1794   2.583   2.831   1.158 -0.7806  0.5568  0.8352
  599SOL     OW 1795   2.938   0.369   2.457  0.1694 -0.0268 -0.6959
  599SOL    HW1 1796   3.008   0.392   2.385 -1.4137  1.7080 -0.2006
  599SOL    HW2 1797   2.846   0.406   2.425 -1.1331 -0.4951 -0.2064
  600SOL     OW 1798   2.817   1.122   2.739 -0.6886 -0.3081  0.1522
  600SOL    HW1 1799   2.757   1.042   2.772  0.3659 -2.0963  2.0719
  600SOL    HW2 1800   2.817   1.199   2.803 -2.4624 -0.1348 -3.2274
  601SOL     OW 1801   2.962   1.287   2.029 -0.1685 -0.4120  0.0755
  601SOL    HW1 1802   2.895   1.330   1.957 -0.8071  2.0308  2.4849
  601SOL    HW2 1803   3.011   1.366   2.075 -1.7312 -1.1975 -1.0388
  602SOL     OW 1804   1.509   1.619   2.280  0.4105 -0.0279  0.1828
  602SOL    HW1 1805   1.443   1.538   2.295 -2.1276  3.0815 -1.0111
  602SOL    HW2 1806   1.601   1.599   2.332  1.9399  1.6327  1.3670
  603SOL     OW 1807   0.723   1.257   2.604 -0.1116 -0.2078 -0.2920
  603SOL    HW1 1808   0.623   1.230   2.598 -0.8371 -1.2891 -1.6159
  603SOL    HW2 1809   0.786   1.178   2.613  3.8255 -1.0504  1.6360
  604SOL     OW 1810   2.403   1.059   0.210 -0.7974 -0.2272  0.0454
  604SOL    HW1 1811   2.486   1.118   0.188 -1.0982  1.4813 -0.9219
  604SOL    HW2 1812   2.401   0.965   0.160  0.0352  0.7042  0.9548
  605SOL     OW 1813   2.570   1.132   2.004  0.3491 -1.0964  0.0062
  605SOL    HW1 1814   2.566   1.048   1.946 -0.5135 -0.4585 -1.9322
  605SOL    HW2 1815   2.621   1.116   2.094 -0.7592  0.0999  0.4925
  606SOL     OW 1816   1.489   2.541   2.557 -0.6840  0.1890 -0.1399
  606SOL    HW1 1817   1.399   2.575   2.525  1.5095 -3.5800  0.9873
  606SOL    HW2 1818   1.504   2.441   2.536 -0.4654 -0.1847 -1.0249
  607SOL     OW 1819   1.314   1.543   0.401 -0.1925 -0.6663 -0.5181
  607SOL    HW1 1820   1.274   1.485   0.476 -1.8656 -0.8832  1.2513
  607SOL    HW2 1821   1.359   1.635   0.424  1.1275 -1.2338 -0.2037
  608SOL     OW 1822   1.387   2.880   0.362  0.1282 -0.3261  0.0994
  608SOL    HW1 1823   1.460   2.936   0.318 -3.1562  1.0014  0.3392
  608SOL    HW2 1824   1.320   2.936   0.416  1.1799 -2.4782  2.1643
  609SOL     OW 1825   1.355   1.355   0.217  0.1872  0.5385  1.0700
  609SOL    HW1 1826   1.361   1.425   0.291  0.5359 -0.0897  1.0800
  609SOL    HW2 1827   1.263   1.355   0.169 -1.8096  1.2385 -0.2441
  610SOL     OW 1828   2.986   1.127   2.268 -0.0730  0.2975 -0.0616
  610SOL    HW1 1829   2.938   1.037   2.255 -1.4335  1.4178 -2.7413
  610SOL    HW2 1830   2.958   1.193   2.194  2.5662 -0.4882  0.0460
  611SOL     OW 1831   2.590   0.299   1.185  0.4116 -0.3383  0.5983
  611SOL    HW1 1832   2.575   0.207   1.146 -0.9066  2.1736 -1.7074
  611SOL    HW2 1833   2.690   0.328   1.182 -0.5697  2.0561  1.4373
  612SOL     OW 1834   0.728   2.233   1.284  0.0315 -0.7053 -0.3019
  612SOL    HW1 1835   0.668   2.149   1.270  1.8501 -1.3679  0.0438
  612SOL    HW2 1836   0.712   2.307   1.217 -0.4722  2.4594  0.0104
  613SOL     OW 1837   0.963   1.515   2.340  0.3426 -0.3237 -0.2032
  613SOL    HW1 1838   1.001   1.571   2.260  0.1408  2.0634 -1.3112
  613SOL    HW2 1839   0.907   1.430   2.307 -2.0090 -0.8092  3.1454
  614SOL     OW 1840   1.611   1.504   1.735 -0.5080  0.5472 -0.0751
  614SOL    HW1 1841   1.557   1.593   1.723 -2.5934  1.1305 -0.8823
  614SOL    HW2 1842   1.675   1.508   1.817  0.1277 -1.2614 -0.4571
  615SOL     OW 1843   0.789   1.242   1.767  0.3978 -0.5715  0.3365
  615SOL    HW1 1844   0.707   1.211   1.717 -1.8718 -3.0323 -2.7672
  615SOL    HW2 1845   0.829   1.330   1.726 -0.9857 -0.6495 -1.9137
  616SOL     OW 1846   1.070   1.559   2.087  0.1061 -0.1687  0.0671
  616SOL    HW1 1847   1.078   1.581   1.983 -1.0281  0.9809 -0.0645
  616SOL    HW2 1848   1.150   1.596   2.135 -2.2077 -0.3819  1.1533
  617SOL     OW 1849   3.014   1.568   1.591 -0.3790  0.0408  0.1764
  617SOL    HW1 1850   3.001   1.465   1.600 -0.1988 -0.6773 -0.1606
  617SOL    HW2 1851   3.008   1.604   1.492  2.5444 -0.4002 -1.5106
  618SOL     OW 1852   1.869   1.938   1.401  0.4154  0.1841  0.3950
  618SOL    HW1 1853   1.877   2.017   1.335  0.6318  3.3493  0.6365
  618SOL    HW2 1854   1.865   1.841   1.353 -1.6589 -0.0994 -0.3653
  619SOL     OW 1855   1.713   0.447   2.355 -0.0397 -0.4526 -0.5548
  619SOL    HW1 1856   1.640   0.497   2.301  2.7301 -1.7485  2.2133
  619SOL    HW2 1857   1.694   0.346   2.359  0.7939 -1.6337 -0.1531
  620SOL     OW 1858   2.259   2.816   0.772 -0.1299 -0.1194  0.2597
  620SOL    HW1 1859   2.158   2.809   0.767 -0.3748  1.3614  1.3432
  620SOL    HW2 1860   2.302   2.744   0.835 -1.6963  1.2592  0.0192
  621SOL     OW 1861   2.195   1.919   1.262  0.3090 -0.3320  0.2252
  621SOL    HW1 1862   2.180   1.893   1.362  0.0722  1.4153  1.5218
  621SOL    HW2 1863   2.150   1.852   1.198  2.9611 -1.5318  0.4402
  622SOL     OW 1864   2.231   0.889   1.870  0.0301  0.0826  0.3527
  622SOL    HW1 1865   2.296   0.873   1.797  1.8930  2.2168  2.5182
  622SOL    HW2 1866   2.239   0.811   1.941 -1.7872  1.4839  1.3152
  623SOL     OW 1867   1.286   0.857   2.539 -0.2004  0.0030 -0.1367
  623SOL    HW1 1868   1.221   0.797   2.587 -0.2358 -2.5733 -1.6409
  623SOL    HW2 1869   1.250   0.895   2.454  0.6954 -2.1129  1.2004
  624SOL     OW 1870   0.515   0.696   3.014 -0.4286 -0.4114  0.8105
  624SOL    HW1 1871   0.549   0.760   2.941 -0.3450 -2.0904 -0.8994
  624SOL    HW2 1872   0.529   0.733   3.111  0.9607 -1.2997  1.5906
  625SOL     OW 1873   2.715   1.691   0.995  0.0240 -0.2804 -0.4111
  625SOL    HW1 1874   2.638   1.763   1.000  0.2929  0.2570 -2.7904
  625SOL    HW2 1875   2.809   1.737   1.005 -1.4542  1.1978 -2.5104
  626SOL     OW 1876   0.642   2.676   1.794 -0.2585 -0.4908  0.0585
  626SOL    HW1 1877   0.721   2.732   1.837 -1.4852  1.0117 -0.9995
  626SOL    HW2 1878   0.556   2.671   1.857  0.4317 -0.2561 -1.3526
  627SOL     OW 1879   0.655   0.832   1.672 -0.1001 -0.0500  0.1884
  627SOL    HW1 1880   0.576   0.779   1.625 -2.6316  2.8995 -1.8431
  627SOL    HW2 1881   0.699   0.900   1.606 -0.4358  2.1409 -1.2148
  628SOL     OW 1882   2.407   0.025   0.734 -0.3774  0.2430  0.6787
  628SOL    HW1 1883   2.383  -0.042   0.659  0.5757 -1.5922 -3.6554
  628SOL    HW2 1884   2.330   0.083   0.767  0.6100 -0.9204  0.3531
  629SOL     OW 1885   1.846   0.964   1.945 -0.2200 -0.2635 -0.0032
  629SOL    HW1 1886   1.873   1.034   1.875 -2.3049 -0.4666  2.2319
  629SOL    HW2 1887   1.902   0.974   2.030  0.7637  2.6064 -2.7525
  630SOL     OW 1888   2.915   2.220   0.804  0.2392 -0.3950 -0.3121
  630SOL    HW1 1889   2.863   2.287   0.863 -1.1913 -1.0853 -3.3840
  630SOL    HW2 1890   2.854   2.152   0.759  0.0628 -0.0573 -2.1970
  631SOL     OW 1891   3.088   0.096   2.057 -0.3174 -0.0397  0.0843
  631SOL    HW1 1892   3.191   0.123   2.043  1.3119 -1.8326 -1.7569
  631SOL    HW2 1893   3.038   0.074   1.970 -0.6254 -0.3055 -2.0184
  632SOL     OW 1894   2.445   2.582   0.641  1.0349  0.0695  0.2075
  632SOL    HW1 1895   2.510   2.660   0.672 -1.1117  1.5235  0.5370
  632SOL    HW2 1896   2.367   2.618   0.586 -1.4983  0.5076  0.0748
  633SOL     OW 1897   1.437   1.245   2.631 -0.5543 -0.1060  0.2700
  633SOL    HW1 1898   1.410   1.342   2.659  1.4949 -0.7269 -1.1278
  633SOL    HW2 1899   1.382   1.213   2.549 -0.1060 -2.3315 -0.6048
  634SOL     OW 1900   0.714   2.198   0.874  0.0233  0.0260  0.0479
  634SOL    HW1 1901   0.639   2.152   0.929  0.1518  0.6198 -0.3765
  634SOL    HW2 1902   0.806   2.210   0.918  1.0938 -2.3235 -0.6342
  635SOL     OW 1903   3.003   2.456   0.042  0.4095 -0.4268 -0.5130
  635SOL    HW1 1904   2.923   2.511   0.004  0.1180 -1.1449  0.4905
  635SOL    HW2 1905   3.090   2.515   0.037 -0.3386  1.4275 -0.5305
  636SOL     OW 1906   2.365   2.692   2.078  0.2432  0.2355  0.1888
  636SOL    HW1 1907   2.295   2.771   2.097  2.1203  2.2003  1.9096
  636SOL    HW2 1908   2.321   2.602   2.108  1.1025  0.2372  1.3319
  637SOL     OW 1909   2.666   0.622   1.941 -0.0223 -0.0345 -0.1526
  637SOL    HW1 1910   2.582   0.656   1.886  0.4797  0.5578  0.3341
  637SOL    HW2 1911   2.742   0.697   1.959 -0.7725  0.0733  0.9571
  638SOL     OW 1912   2.458   1.880   1.313 -0.2000 -0.4734  0.1247
  638SOL    HW1 1913   2.357   1.905   1.302  0.4009  0.9284  1.5253
  638SOL    HW2 1914   2.470   1.790   1.365 -3.0305  0.2506 -1.0120
  639SOL     OW 1915   1.253   2.181   1.522 -0.1966  0.5311  0.5615
  639SOL    HW1 1916   1.337   2.222   1.578  1.1847  1.3252  0.0066
  639SOL    HW2 1917   1.163   2.193   1.566  0.5403 -2.2733 -1.4248
  640SOL     OW 1918   0.217   1.224   1.526 -0.4583  0.7813 -0.0239
  640SOL    HW1 1919   0.226   1.237   1.625  0.1027  0.7440  1.0084
  640SOL    HW2 1920   0.275   1.144   1.497  1.4082  0.8448  4.0647
  641SOL     OW 1921   1.964   0.311   1.482 -0.3062 -0.4925  0.1690
  641SOL    HW1 1922   1.876   0.327   1.544 -1.3553 -0.3660 -0.6318
  641SOL    HW2 1923   2.042   0.285   1.542  1.6805  0.8103  1.1399
  642SOL     OW 1924   2.032   3.070   0.415  0.1800  0.4708  0.0106
  642SOL    HW1 1925   2.123   3.122   0.428 -1.0471 -2.0608  0.8964
  642SOL    HW2 1926   1.959   3.105   0.485  1.6689 -2.2569  1.0134
  643SOL     OW 1927   2.958   1.929   2.084 -0.5804  0.2804 -0.0190
  643SOL    HW1 1928   2.881   1.868   2.058  1.2172 -0.7813 -1.5033
  643SOL    HW2 1929   2.949   2.025   2.051 -1.6224  0.1729  0.2138
  644SOL     OW 1930   2.265   2.468   1.296  0.1778 -0.1433 -0.4438
  644SOL    HW1 1931   2.354   2.423   1.259  0.8874  2.1385  2.0741
  644SOL    HW2 1932   2.272   2.503   1.393  2.0215 -1.6184 -1.1228
  645SOL     OW 1933   0.615   0.789   1.283  0.6268 -0.3803  0.1130
  645SOL    HW1 1934   0.551   0.712   1.307  1.3153 -1.0650 -2.6505
  645SOL    HW2 1935   0.573   0.839   1.208 -0.0835 -1.5154 -0.4171
  646SOL     OW 1936   1.498   1.733   2.024  0.6109  0.3755 -0.3562
  646SOL    HW1 1937   1.578   1.773   1.967 -1.0385 -1.5431 -3.7522
  646SOL    HW2 1938   1.514   1.694   2.121 -0.4871 -0.2629 -0.3820
  647SOL     OW 1939   0.763   1.039   0.550 -0.1785  0.4299  0.2856
  647SOL    HW1 1940   0.824   1.030   0.636  1.0604  1.2363  1.8425
  647SOL    HW2 1941   0.666   1.006   0.570 -0.8477  1.9378  1.4079
  648SOL     OW 1942   0.129   0.265   0.371  0.4413 -0.5854  0.0812
  648SOL    HW1 1943   0.062   0.186   0.367 -1.8494  0.8648 -0.9941
  648SOL    HW2 1944   0.103   0.343   0.313 -1.7338 -1.6238  1.3487
  649SOL     OW 1945   3.004   0.270   0.975  0.8341  0.0040  0.0481
  649SOL    HW1 1946   3.041   0.284   0.880 -1.2564 -0.8109 -2.2864
  649SOL    HW2 1947   3.075   0.260   1.047  0.6981 -0.4155 -2.7075
  650SOL     OW 1948   2.770   0.675   1.422  0.1634  0.2134  0.0007
  650SOL    HW1 1949   2.668   0.666   1.457 -0.6392  1.3809 -0.6479
  650SOL    HW2 1950   2.787   0.775   1.387  1.6067  1.4710  1.0128
  651SOL     OW 1951   0.868   1.498   1.696  0.7306  0.3740 -0.0249
  651SOL    HW1 1952   0.850   1.559   1.780 -0.3283  2.1260 -0.9593
  651SOL    HW2 1953   0.963   1.503   1.661 -0.1958  0.2675  0.4690
  652SOL     OW 1954   2.262   2.557   2.486  0.6597  0.4039 -0.1684
  652SOL    HW1 1955   2.204   2.532   2.565 -1.2561 -2.8795 -0.8141
  652SOL    HW2 1956   2.245   2.651   2.444 -0.8313 -0.2843  2.7194
  653SOL     OW 1957   2.669   1.196   0.225  0.5977  0.5142 -0.5212
  653SOL    HW1 1958   2.692   1.297   0.240 -0.5031  1.6850  1.0303
  653SOL    HW2 1959   2.751   1.133   0.247 -1.6135  0.4954  0.4239
  654SOL     OW 1960   1.144   2.060   1.247  1.0290 -0.1755  0.4457
  654SOL    HW1 1961   1.145   1.978   1.308 -1.0420  0.9278 -0.6803
  654SOL    HW2 1962   1.213   2.044   1.167 -0.3189 -0.2600  0.4334
  655SOL     OW 1963   0.140   1.005   1.867 -0.1976 -0.0731  0.0693
  655SOL    HW1 1964   0.239   0.972   1.861 -1.2335 -1.7125  0.7178
  655SOL    HW2 1965   0.142   1.109   1.851  2.1695 -0.9161  1.1696
  656SOL     OW 1966   2.488   2.526   2.642  0.4076  0.2482 -0.0193
  656SOL    HW1 1967   2.582   2.501   2.603  0.4171  1.4899  1.9647
  656SOL    HW2 1968   2.416   2.549   2.573  2.2099 -0.1295 -1.2240
  657SOL     OW 1969   2.956   1.036   1.923  0.6920  0.0637  0.3215
  657SOL    HW1 1970   2.971   1.126   1.970  1.6715  0.5018 -0.5770
  657SOL    HW2 1971   3.042   0.993   1.888 -1.1792  0.9485  2.7752
  658SOL     OW 1972   1.673   0.119   2.353  0.1707  0.3152  0.3508
  658SOL    HW1 1973   1.658   0.022   2.374  0.0870  1.1573 -0.5770
  658SOL    HW2 1974   1.734   0.135   2.274 -0.4607  0.4267 -2.7951
  659SOL     OW 1975   1.450   0.667   2.758  0.0196 -0.1191  0.2481
  659SOL    HW1 1976   1.495   0.742   2.698 -0.9909  0.8727 -2.2906
  659SOL    HW2 1977   1.356   0.693   2.790 -1.2361 -0.7797  2.2102
  660SOL     OW 1978   1.440   0.310   1.419 -0.2472  0.0473  0.1150
  660SOL    HW1 1979   1.443   0.346   1.521 -0.6699  1.1373  0.5847
  660SOL    HW2 1980   1.517   0.243   1.401  1.0913 -0.5030 -1.4515
  661SOL     OW 1981   2.322   1.311   0.699 -0.2148 -0.0316  0.0365
  661SOL    HW1 1982   2.412   1.298   0.637  1.5504 -2.1631  0.7664
  661SOL    HW2 1983   2.257   1.390   0.679 -2.0604 -0.9436 -0.5006
  662SOL     OW 1984   1.451   0.401   1.699  0.2279 -0.3534 -0.1886
  662SOL    HW1 1985   1.417   0.348   1.777  0.6184 -1.8240 -0.0761
  662SOL    HW2 1986   1.436   0.502   1.714 -1.1786 -3.3463  0.3667
  663SOL     OW 1987   0.773   1.644   1.911 -0.0157 -0.1838  0.3584
  663SOL    HW1 1988   0.830   1.687   1.987  0.5511 -0.0805 -0.4407
  663SOL    HW2 1989   0.700   1.573   1.949  3.7388 -0.5638  0.0015
  664SOL     OW 1990   1.587   2.022   1.438  0.1373  0.8385  0.7838
  664SOL    HW1 1991   1.498   1.963   1.448 -1.1973 -1.4142  0.8854
  664SOL    HW2 1992   1.672   1.961   1.437 -0.3248 -1.0194 -0.6289
  665SOL     OW 1993   2.268   0.635   2.014  0.5898  1.1539 -0.7056
  665SOL    HW1 1994   2.253   0.529   2.031 -0.0497 -0.3769 -1.4541
  665SOL    HW2 1995   2.349   0.669   2.068 -0.4841  0.6305  1.1108
  666SOL     OW 1996   0.484   2.244   0.416 -0.4281 -0.6046 -0.7388
  666SOL    HW1 1997   0.508   2.339   0.454  1.2832 -1.9767 -1.8111
  666SOL    HW2 1998   0.383   2.229   0.423  0.0591  0.7079 -2.0358
  667SOL     OW 1999   2.069   0.157   1.064 -0.2414  0.5431  0.1438
  667SOL    HW1 2000   2.065   0.244   1.010  0.7780  2.3232  1.5989
  667SOL    HW2 2001   1.992   0.140   1.133 -1.4867  2.5826  0.7766
  668SOL     OW 2002   2.019   0.431   1.077 -0.5494  0.5083 -0.1502
  668SOL    HW1 2003   2.106   0.452   1.023  0.3193  1.4200 -2.0329
  668SOL    HW2 2004   2.033   0.464   1.177 -1.8179 -1.3513 -1.5776
  669SOL     OW 2005   3.057   2.137   1.024  0.2838  0.1788  0.1284
  669SOL    HW1 2006   3.014   2.171   0.936 -0.1458 -1.7994  1.2516
  669SOL    HW2 2007   3.002   2.155   1.111 -1.0525 -2.7398  2.4394
  670SOL     OW 2008   2.910   2.384   2.147 -0.3652  0.1554  0.8419
  670SOL    HW1 2009   2.818   2.360   2.183  0.3032 -2.0092  2.2949
  670SOL    HW2 2010   2.910   2.479   2.109  1.1071  2.8906  2.0255
  671SOL     OW 2011   1.820   1.661   1.540 -0.0477  0.0531 -0.8540
  671SOL    HW1 2012   1.800   1.613   1.451 -2.5833 -2.2914 -1.8144
  671SOL    HW2 2013   1.827   1.594   1.616  1.1655 -2.4148 -0.8182
  672SOL     OW 2014   0.459   0.712   2.532 -0.1525  0.5007 -0.0399
  672SOL    HW1 2015   0.389   0.699   2.456  1.0634  2.4443  4.6706
  672SOL    HW2 2016   0.418   0.775   2.606 -0.0622  0.0332  2.5937
  673SOL     OW 2017   0.078   1.459   0.993  0.0369 -0.5415 -0.2176
  673SOL    HW1 2018   0.091   1.450   1.097  2.1215 -0.4363  1.9447
  673SOL    HW2 2019   0.131   1.537   0.958  1.2650  0.2216  2.5081
  674SOL     OW 2020   1.536   3.037   0.205  0.2887  0.3312  0.4956
  674SOL    HW1 2021   1.606   3.101   0.160  0.6286  1.2618  1.2953
  674SOL    HW2 2022   1.496   2.980   0.131 -0.3497 -0.9453  1.1718
  675SOL     OW 2023   1.663   0.831   2.308 -0.2550  0.0614 -0.1178
  675SOL    HW1 2024   1.762   0.800   2.298  0.1995 -0.2796  3.2078
  675SOL    HW2 2025   1.596   0.760   2.283 -0.6662  0.9864 -1.8685
  676SOL     OW 2026   2.520   1.559   1.995  0.1828  0.6235  0.2563
  676SOL    HW1 2027   2.494   1.533   1.899 -0.6374 -2.6717  0.1423
  676SOL    HW2 2028   2.556   1.475   2.052  1.3323  1.7690 -1.8055
  677SOL     OW 2029   1.947   0.672   0.898 -0.8271 -0.1783  0.2020
  677SOL    HW1 2030   1.876   0.659   0.968 -1.1028 -1.1219  0.5357
  677SOL    HW2 2031   2.039   0.647   0.932 -0.8418  1.0229  1.0913
  678SOL     OW 2032   0.116   0.772   1.648 -0.2686  0.1209 -0.5072
  678SOL    HW1 2033   0.150   0.845   1.714  1.8652  1.4851 -0.7980
  678SOL    HW2 2034   0.074   0.688   1.694  2.4928  1.1794  1.9611
  679SOL     OW 2035   2.573   1.118   1.229  0.1717 -0.2500 -0.1346
  679SOL    HW1 2036   2.469   1.150   1.222 -2.5824 -1.5166 -2.0975
  679SOL    HW2 2037   2.587   1.023   1.194 -0.1713  0.8573 -0.4751
  680SOL     OW 2038   2.850   0.524   1.671  0.2511  0.0895 -0.1017
  680SOL    HW1 2039   2.836   0.581   1.585 -1.0385 -0.7532  0.6920
  680SOL    HW2 2040   2.921   0.565   1.734 -0.3986  1.5582  0.3751
  681SOL     OW 2041   3.015   0.121   1.578  0.0533  0.2966  0.1377
  681SOL    HW1 2042   3.015   0.050   1.507  2.2537 -1.7740 -0.9450
  681SOL    HW2 2043   2.922   0.164   1.595 -1.1105 -1.7350  0.6772
  682SOL     OW 2044   0.650   0.076   1.315 -0.5973  0.4412 -0.3923
  682SOL    HW1 2045   0.582   0.006   1.358 -0.8936 -0.0406 -1.9738
  682SOL    HW2 2046   0.713   0.033   1.245  0.2100  2.2079  1.4876
  683SOL     OW 2047   1.351   0.259   2.182  0.1058  0.0591  0.2182
  683SOL    HW1 2048   1.348   0.328   2.256 -0.8363 -0.6387 -1.6246
  683SOL    HW2 2049   1.434   0.275   2.119 -1.2666  1.3873  2.9731
  684SOL     OW 2050   1.361   2.136   0.604  0.4135  0.6007 -0.6928
  684SOL    HW1 2051   1.405   2.053   0.646 -0.1092 -2.3837 -1.1749
  684SOL    HW2 2052   1.292   2.108   0.531 -1.6094  4.1154 -1.8225
  685SOL     OW 2053   2.248   2.050   1.982  0.0981  0.5572  0.2274
  685SOL    HW1 2054   2.273   1.957   1.954  0.6574  0.9062 -0.4430
  685SOL    HW2 2055   2.336   2.093   2.015  1.1585  1.9979 -0.4314
  686SOL     OW 2056   1.587   1.829   2.903 -0.3900  0.2693 -0.2186
  686SOL    HW1 2057   1.580   1.757   2.980  2.0445  1.5516  0.3855
  686SOL    HW2 2058   1.495   1.841   2.855 -2.9214  1.7020  0.4575
  687SOL     OW 2059   1.425   2.453   2.010 -0.4627 -0.4916 -0.1484
  687SOL    HW1 2060   1.435   2.354   1.984  1.4184 -1.8403 -1.7281
  687SOL    HW2 2061   1.407   2.470   2.110  1.3281  0.4330 -1.7766
  688SOL     OW 2062   2.055   1.484   1.693 -0.2433  0.2766  0.5661
  688SOL    HW1 2063   2.128   1.558   1.704 -0.5000  0.4578  0.6033
  688SOL    HW2 2064   2.047   1.459   1.594  1.7926  0.5545  2.3093
  689SOL     OW 2065   2.309   1.084   2.796 -0.5636  0.5945  0.3346
  689SOL    HW1 2066   2.222   1.026   2.775 -1.3741 -0.9173 -2.1490
  689SOL    HW2 2067   2.342   1.069   2.892  0.4963  0.4403 -0.9279
  690SOL     OW 2068   2.207   2.794   0.020  0.3859 -0.0413 -0.2090
  690SOL    HW1 2069   2.149   2.807  -0.064  2.8125 -3.4981 -4.6727
  690SOL    HW2 2070   2.151   2.777   0.107  3.6657  1.5392  0.2974
  691SOL     OW 2071   2.549   0.385   2.086  0.6317  0.7064  0.1466
  691SOL    HW1 2072   2.594   0.289   2.071  0.2631  0.6068  0.7558
  691SOL    HW2 2073   2.601   0.468   2.044 -0.1499  0.3613 -1.5708
  692SOL     OW 2074   2.681   1.228   0.714 -0.7757  0.0927 -0.6252
  692SOL    HW1 2075   2.624   1.218   0.628  1.5218 -0.7418 -0.5643
  692SOL    HW2 2076   2.721   1.327   0.726 -2.4656  1.0105  1.5256
  693SOL     OW 2077   2.910   2.923   0.681  0.0538  0.0216  0.0514
  693SOL    HW1 2078   2.890   3.002   0.745  2.3870  0.1664  0.1511
  693SOL    HW2 2079   2.905   2.945   0.579  0.9502 -0.6292  0.2242
  694SOL     OW 2080   2.365   2.270   0.101  0.4857 -0.2937 -0.0484
  694SOL    HW1 2081   2.377   2.339   0.173  0.5256 -0.8904  1.4420
  694SOL    HW2 2082   2.267   2.235   0.110  1.9488  1.2402  0.9565
  695SOL     OW 2083   0.475   3.011   1.479  0.1731  0.4976  0.4368
  695SOL    HW1 2084   0.392   2.972   1.424  0.4202 -1.9676  0.7626
  695SOL    HW2 2085   0.442   3.071   1.558  4.1758 -0.9887  1.1427
  696SOL     OW 2086   2.725   2.007   0.778  0.0939 -0.6569 -0.3635
  696SOL    HW1 2087   2.792   1.944   0.827 -0.2909  0.7672 -1.4755
  696SOL    HW2 2088   2.659   1.960   0.709  2.6822  1.3022 -2.3278
  697SOL     OW 2089   1.661   1.860   1.830  0.1598 -0.7262  0.3156
  697SOL    HW1 2090   1.760   1.829   1.812 -0.1703  1.8764  0.7775
  697SOL    HW2 2091   1.657   1.963   1.841 -1.9559  1.2337 -1.0864
  698SOL     OW 2092   2.957   0.408   2.730 -0.7274  0.0332 -0.2434
  698SOL    HW1 2093   2.973   0.396   2.628  0.8341 -0.3026 -1.4370
  698SOL    HW2 2094   2.987   0.323   2.783 -1.7927  1.2165  1.5838
  699SOL     OW 2095   1.637   0.134   2.909 -0.6845  0.1439  0.2817
  699SOL    HW1 2096   1.600   0.038   2.883 -1.8952 -0.0079 -0.1701
  699SOL    HW2 2097   1.678   0.190   2.830  0.9630 -0.1737  1.5846
  700SOL     OW 2098   0.991   2.284   1.331 -0.6773  0.1643  1.1179
  700SOL    HW1 2099   1.051   2.202   1.333 -1.7886 -4.7615 -1.0527
  700SOL    HW2 2100   0.892   2.254   1.330 -0.5916 -1.6543  1.7178
  701SOL     OW 2101   1.855   2.908   0.001  0.0712  0.0258  0.5653
  701SOL    HW1 2102   1.843   2.861   0.092 -0.6691  0.0148 -3.0675
  701SOL    HW2 2103   1.909   2.996   0.015  1.6934  0.3031 -2.6885
  702SOL     OW 2104   2.128   1.356   1.927 -0.1780  0.3037 -0.1864
  702SOL    HW1 2105   2.211   1.292   1.925 -1.3247  0.7419  0.1157
  702SOL    HW2 2106   2.089   1.375   1.832 -0.7256 -1.1001  1.7230
  703SOL     OW 2107   1.957   0.916   1.451  0.5140  0.1176 -0.1307
  703SOL    HW1 2108   1.928   0.822   1.493  0.5539 -1.0908 -0.5021
  703SOL    HW2 2109   2.029   0.957   1.511 -0.2914 -0.8056 -0.7883
  704SOL     OW 2110   0.327   2.077   1.709  0.3995 -0.0022 -0.1732
  704SOL    HW1 2111   0.361   2.054   1.803 -0.4353  0.5686 -1.2549
  704SOL    HW2 2112   0.371   2.168   1.675  1.3945  0.6011 -0.8798
  705SOL     OW 2113   2.494   1.410   0.905 -0.2611 -0.1952  0.2866
  705SOL    HW1 2114   2.426   1.383   0.832  0.1669  0.6386 -0.5653
  705SOL    HW2 2115   2.591   1.409   0.870  0.4650 -0.9187  1.5941
  706SOL     OW 2116   0.520   1.733   1.808  0.0481 -0.3116  0.2214
  706SOL    HW1 2117   0.555   1.761   1.716 -0.6397  1.8658 -3.2962
  706SOL    HW2 2118   0.597   1.709   1.875  0.5444  1.6226 -1.7264
  707SOL     OW 2119   2.316   1.176   1.874 -0.0053  0.2121  0.0091
  707SOL    HW1 2120   2.416   1.160   1.859 -1.1440  0.5200 -0.2328
  707SOL    HW2 2121   2.264   1.089   1.903 -0.7032  1.7974 -3.8087
  708SOL     OW 2122   3.029   0.542   2.954 -0.3702 -0.0748 -0.2928
  708SOL    HW1 2123   3.113   0.579   2.899  2.6576 -3.6915  0.6318
  708SOL    HW2 2124   2.994   0.449   2.911  1.5884  0.6441  1.2940
  709SOL     OW 2125   1.822   1.866   0.421  0.2025  0.5607 -0.2844
  709SOL    HW1 2126   1.846   1.963   0.443  1.7043  1.4053 -1.2158
  709SOL    HW2 2127   1.829   1.845   0.320  2.1733 -0.6397  1.1349
  710SOL     OW 2128   1.764   1.571   2.430 -0.2071 -0.3105 -0.0431
  710SOL    HW1 2129   1.825   1.492   2.410  1.0540 -1.7753  0.5120
  710SOL    HW2 2130   1.762   1.590   2.532  1.2941 -0.8609 -3.4867
  711SOL     OW 2131   2.722   2.857   0.986  0.5519 -0.3778 -0.3122
  711SOL    HW1 2132   2.693   2.937   0.923 -2.4441 -2.5167  2.3816
  711SOL    HW2 2133   2.820   2.864   1.025 -0.8162  3.2527  0.7154
  712SOL     OW 2134   1.314   2.198   1.912 -0.3692 -0.4007 -0.1311
  712SOL    HW1 2135   1.398   2.137   1.899 -1.5146  2.2028  2.4760
  712SOL    HW2 2136   1.228   2.171   1.864  1.0861 -1.9890 -0.6339
  713SOL     OW 2137   2.783   1.492   2.545  0.1225 -0.6511 -0.2330
  713SOL    HW1 2138   2.790   1.391   2.541  3.0609  1.7244 -0.4126
  713SOL    HW2 2139   2.711   1.526   2.609 -0.8697 -0.4017 -1.2794
  714SOL     OW 2140   2.687   0.431   2.344 -0.0207 -0.2647  0.0845
  714SOL    HW1 2141   2.631   0.401   2.425  0.0712  2.2316  0.3491
  714SOL    HW2 2142   2.650   0.411   2.253 -0.8566 -3.2010 -1.4515
  715SOL     OW 2143   1.586   2.178   1.201 -0.3277  0.4754 -0.3752
  715SOL    HW1 2144   1.488   2.219   1.188  2.2666  4.8407 -3.0498
  715SOL    HW2 2145   1.588   2.109   1.276 -2.0537 -0.2487 -0.1477
  716SOL     OW 2146   1.216   0.129   1.510  0.6968  0.1745 -0.0856
  716SOL    HW1 2147   1.128   0.162   1.466  3.0020 -1.5147  0.5659
  716SOL    HW2 2148   1.295   0.187   1.484 -2.7688 -1.2508  2.2619
  717SOL     OW 2149   1.163   0.600   1.624  0.0570 -0.2272 -0.1257
  717SOL    HW1 2150   1.255   0.645   1.656  1.1344  4.1515 -0.3728
  717SOL    HW2 2151   1.167   0.565   1.525 -0.6072 -0.0101  0.1116
  718SOL     OW 2152   0.691   0.905   0.965 -0.2280  0.2665  0.2337
  718SOL    HW1 2153   0.676   0.906   0.863 -0.7075 -2.0922  1.0430
  718SOL    HW2 2154   0.684   0.997   1.011  1.0412 -1.1310  1.6512
  719SOL     OW 2155   0.736   1.760   2.294  0.3137 -0.2795 -0.1484
  719SOL    HW1 2156   0.809   1.776   2.367  1.1789 -0.3087  0.1885
  719SOL    HW2 2157   0.655   1.699   2.318  1.1876  2.2571  0.0811
  720SOL     OW 2158   2.207   1.220   0.281 -0.1216 -0.0907 -0.4681
  720SOL    HW1 2159   2.269   1.148   0.235 -1.7621  0.8354  0.3719
  720SOL    HW2 2160   2.173   1.181   0.374 -1.2822 -0.8178 -2.4670
  721SOL     OW 2161   2.230   2.912   2.109  0.3745 -0.5521  0.0941
  721SOL    HW1 2162   2.254   2.963   2.019  2.1502 -1.2481  0.0571
  721SOL    HW2 2163   2.131   2.934   2.143  2.7268 -1.5705  0.6693
  722SOL     OW 2164   2.337   1.716   0.590  0.1047 -0.3910 -0.4314
  722SOL    HW1 2165   2.382   1.678   0.504  2.1059  0.0257 -1.1810
  722SOL    HW2 2166   2.257   1.773   0.568  1.2519  0.5828 -0.8428
  723SOL     OW 2167   2.597   2.751   1.955 -0.3283 -0.3558 -0.1828
  723SOL    HW1 2168   2.639   2.830   2.007 -1.5646  1.3708 -0.0827
  723SOL    HW2 2169   2.503   2.715   1.989 -0.3127  1.2097 -0.1662
  724SOL     OW 2170   0.364   2.499   2.464 -0.4299  0.4749 -0.5823
  724SOL    HW1 2171   0.260   2.486   2.443 -0.0993  0.6627 -0.2130
  724SOL    HW2 2172   0.386   2.472   2.559  0.6048  0.3554  0.2206
  725SOL     OW 2173   2.403   2.814   1.517  0.9455 -0.0609  0.3231
  725SOL    HW1 2174   2.410   2.841   1.419 -1.0406 -2.8207 -3.2234
  725SOL    HW2 2175   2.397   2.707   1.524 -2.9617  0.4962 -1.3710
  726SOL     OW 2176   2.461   2.334   0.765  0.5359 -0.2800 -0.3460
  726SOL    HW1 2177   2.440   2.416   0.706  1.9979 -1.8616  0.8829
  726SOL    HW2 2178   2.451   2.245   0.708  0.1161  0.9447 -0.8852
  727SOL     OW 2179   0.118   3.070   0.122 -0.2805  0.7225  0.2039
  727SOL    HW1 2180   0.209   3.105   0.090  0.5244 -2.8452  1.6737
  727SOL    HW2 2181   0.086   2.992   0.066 -0.8716  0.1394 -1.1316
  728SOL     OW 2182   2.911   0.727   0.915  0.6373  0.2714  0.3409
  728SOL    HW1 2183   2.856   0.696   0.831  1.5743 -0.6498  1.8397
  728SOL    HW2 2184   2.899   0.667   1.001 -0.8563  0.7031 -0.7587
  729SOL     OW 2185   0.009   2.490   0.775 -0.1065  0.3851  0.2885
  729SOL    HW1 2186   0.051   2.474   0.866 -0.4720  1.4907  0.3736
  729SOL    HW2 2187   0.073   2.525   0.705  0.1854  2.4202  0.7087
  730SOL     OW 2188   2.596   0.752   0.945  0.0270 -0.3068 -0.8138
  730SOL    HW1 2189   2.556   0.845   0.922 -0.2180 -0.3540 -2.8625
  730SOL    HW2 2190   2.668   0.725   0.873  1.0271 -1.2249 -0.6718
  731SOL     OW 2191   3.091   2.237   2.298 -0.0358  0.1322  0.6824
  731SOL    HW1 2192   3.019   2.184   2.350 -0.2818 -1.7508  0.8281
  731SOL    HW2 2193   3.042   2.305   2.231  0.6276 -0.0594 -0.7113
  732SOL     OW 2194   1.350   2.728   1.968 -0.0687  0.3836  0.3881
  732SOL    HW1 2195   1.384   2.661   2.040 -1.3033 -1.7275 -0.5357
  732SOL    HW2 2196   1.293   2.672   1.900  2.4421 -0.3670  0.0634
  733SOL     OW 2197   3.080   0.660   2.232  0.4260 -0.2123 -0.0136
  733SOL    HW1 2198   3.144   0.723   2.177  0.2413  0.4586  1.7011
  733SOL    HW2 2199   3.045   0.580   2.171 -0.2085  0.1642 -0.1152
  734SOL     OW 2200   1.526   0.413   2.717 -0.2456  0.2315  0.6246
  734SOL    HW1 2201   1.504   0.515   2.715 -2.1920 -0.1779 -0.6119
  734SOL    HW2 2202   1.450   0.349   2.749 -0.7345  0.9207 -0.0628
  735SOL     OW 2203   2.867   2.683   2.305  0.1574 -0.1576 -0.1859
  735SOL    HW1 2204   2.836   2.667   2.206 -0.1659  1.5477 -0.9596
  735SOL    HW2 2205   2.966   2.692   2.315  1.6591  0.0208  0.0431
  736SOL     OW 2206   0.881   0.413   2.517 -0.1111  0.0651  0.4829
  736SOL    HW1 2207   0.782   0.437   2.501 -0.4624 -0.4474  0.0293
  736SOL    HW2 2208   0.909   0.341   2.445 -0.0412  1.9072 -0.1040
  737SOL     OW 2209   2.673   0.482   2.786  0.0651  0.1797 -0.3758
  737SOL    HW1 2210   2.639   0.442   2.877 -0.4286 -1.3940  3.0441
  737SOL    HW2 2211   2.777   0.476   2.768  1.3229 -2.0358  2.2679
  738SOL     OW 2212   1.779   1.238   2.856 -0.4207  0.1230  0.0926
  738SOL    HW1 2213   1.876   1.222   2.818 -2.4770 -0.9210  2.3247
  738SOL    HW2 2214   1.709   1.173   2.819  0.0470  0.4493 -0.2059
  739SOL     OW 2215   1.850   0.720   0.637 -0.8752  1.1178 -0.3291
  739SOL    HW1 2216   1.887   0.691   0.733 -1.5074  3.8889 -1.9250
  739SOL    HW2 2217   1.816   0.637   0.587  0.6797 -2.8063 -2.6355
  740SOL     OW 2218   1.981   1.915   2.352  0.3771 -0.6722  0.3113
  740SOL    HW1 2219   2.038   1.834   2.389 -1.0845  3.9504  0.3494
  740SOL    HW2 2220   1.948   1.904   2.254  0.3418  2.5935 -1.5938
  741SOL     OW 2221   2.539   0.134   2.440 -0.3545 -0.5807  0.6117
  741SOL    HW1 2222   2.641   0.114   2.416  1.8820  1.2017 -0.0116
  741SOL    HW2 2223   2.476   0.099   2.364  1.8404 -0.9541 -1.0336
  742SOL     OW 2224   2.198   1.475   0.184  0.2201 -0.1346 -0.0169
  742SOL    HW1 2225   2.122   1.536   0.215  1.8318 -2.2907  1.3425
  742SOL    HW2 2226   2.183   1.376   0.202  1.6165 -0.7516 -0.6334
  743SOL     OW 2227   1.755   0.645   2.539 -0.0081  0.1118  0.3779
  743SOL    HW1 2228   1.733   0.565   2.477  0.7676 -0.4621  0.5120
  743SOL    HW2 2229   1.672   0.709   2.547 -1.2247  1.6931 -1.4212
  744SOL     OW 2230   2.774   2.161   0.182 -0.8485 -0.4266 -0.1445
  744SOL    HW1 2231   2.719   2.185   0.269 -1.8893 -1.0742  3.0686
  744SOL    HW2 2232   2.776   2.060   0.171 -1.8166 -0.4816  0.3793
  745SOL     OW 2233   2.224   2.504   2.238 -0.1019  0.4233 -0.2102
  745SOL    HW1 2234   2.138   2.540   2.198 -1.5191 -0.8367  1.8031
  745SOL    HW2 2235   2.228   2.515   2.344 -1.5855  1.2039 -0.2221
  746SOL     OW 2236   3.078   2.534   1.806 -0.1282 -0.0707 -0.0114
  746SOL    HW1 2237   3.142   2.500   1.733  2.0685  1.2392 -0.0677
  746SOL    HW2 2238   3.088   2.637   1.824  0.6781 -0.8250 -0.6646
  747SOL     OW 2239   3.085   1.800   1.688 -0.2928  0.5337 -1.0380
  747SOL    HW1 2240   3.042   1.709   1.671  1.5924 -0.7701  1.8983
  747SOL    HW2 2241   3.177   1.814   1.636  3.5396  5.0236 -0.7081
  748SOL     OW 2242   1.813   2.688   2.946  0.2701 -0.6948  0.2126
  748SOL    HW1 2243   1.817   2.776   3.009  1.5413 -0.7770  5.2565
  748SOL    HW2 2244   1.750   2.704   2.866 -1.3044 -3.4510 -0.0987
  749SOL     OW 2245   1.301   2.876   0.816 -0.1288 -0.0819 -0.2468
  749SOL    HW1 2246   1.204   2.908   0.790 -3.8508  1.5597 -0.1258
  749SOL    HW2 2247   1.380   2.947   0.800 -2.2064 -2.3220 -0.6129
  750SOL     OW 2248   2.222   0.210   1.854  1.2249 -0.8431 -0.2637
  750SOL    HW1 2249   2.247   0.260   1.767  0.8543 -2.3587  1.5211
  750SOL    HW2 2250   2.227   0.261   1.941  0.2296 -2.4583 -0.1475
  751SOL     OW 2251   0.837   2.081   2.892 -0.0387  0.6830  0.3234
  751SOL    HW1 2252   0.928   2.057   2.935 -2.7923 -2.3213 -1.2372
  751SOL    HW2 2253   0.755   2.045   2.947 -2.2230  1.9932  1.3285
  752SOL     OW 2254   1.312   0.767   1.168  0.1910  0.1498 -0.3191
  752SOL    HW1 2255   1.401   0.816   1.200  1.7491 -1.9687 -1.5812
  752SOL    HW2 2256   1.319   0.663   1.184 -0.0315 -1.1304 -0.4503
  753SOL     OW 2257   0.992   2.542   1.869  0.4830 -0.2867 -0.6443
  753SOL    HW1 2258   1.095   2.556   1.854 -3.7936 -1.4095 -0.3840
  753SOL    HW2 2259   0.938   2.633   1.867  2.6596 -3.4783  0.6901
  754SOL     OW 2260   1.126   1.240   3.002  0.4498  0.1229  0.1805
  754SOL    HW1 2261   1.207   1.178   2.979  1.9556 -0.7666  0.9307
  754SOL    HW2 2262   1.149   1.340   2.997  1.3702  0.5522  0.7680
  755SOL     OW 2263   1.916   0.505   2.178  0.5070  0.1436 -0.0429
  755SOL    HW1 2264   1.979   0.420   2.186  0.0449 -1.1207  0.9373
  755SOL    HW2 2265   1.833   0.488   2.234 -2.4024 -1.1276  3.7024
  756SOL     OW 2266   2.492   0.992   3.003  0.3772 -0.3197 -0.5873
  756SOL    HW1 2267   2.588   0.951   2.997  1.4050  2.0368 -0.7806
  756SOL    HW2 2268   2.423   0.929   3.047 -1.8791  1.3982  1.0344
  757SOL     OW 2269   0.131   0.422   1.964  0.2832  0.0984 -0.3870
  757SOL    HW1 2270   0.165   0.328   1.946  0.2808 -2.5124  2.9166
  757SOL    HW2 2271   0.045   0.411   2.022  2.5292 -2.0358 -2.5288
  758SOL     OW 2272   2.350   0.074   1.412 -0.4231  0.3390 -0.4269
  758SOL    HW1 2273   2.287   0.022   1.477  0.6967 -0.9225 -0.7459
  758SOL    HW2 2274   2.315   0.079   1.314 -2.3028  1.1895  2.2773
  759SOL     OW 2275   1.701   0.120   0.094  0.4881 -0.0446  0.2444
  759SOL    HW1 2276   1.676   0.117  -0.007  0.0628 -0.6856 -1.5845
  759SOL    HW2 2277   1.799   0.110   0.120  1.5203  1.9362  1.1368
  760SOL     OW 2278   2.708   2.133   2.798 -0.4175 -0.6469 -0.2352
  760SOL    HW1 2279   2.650   2.167   2.880  1.4111  0.2284  1.0925
  760SOL    HW2 2280   2.808   2.139   2.819  1.6063 -2.2123 -1.3810
  761SOL     OW 2281   1.953   1.783   1.764  0.1884  0.0028  0.1514
  761SOL    HW1 2282   1.983   1.709   1.830  1.9483 -2.0065 -4.2796
  761SOL    HW2 2283   1.935   1.743   1.669 -1.3210 -0.0657  1.6178
  762SOL     OW 2284   0.486   2.386   0.920 -0.1613  0.1043  0.1653
  762SOL    HW1 2285   0.532   2.388   0.826  0.3791  1.1165  0.6310
  762SOL    HW2 2286   0.551   2.426   0.994 -1.1935 -0.1016  0.4811
  763SOL     OW 2287   2.153   1.614   2.958 -0.4367 -0.1884  0.2188
  763SOL    HW1 2288   2.256   1.599   2.968 -1.7369 -1.0003  0.7531
  763SOL    HW2 2289   2.093   1.542   2.997 -1.9699  0.5612  1.9824
  764SOL     OW 2290   0.661   0.574   0.672  0.1261  0.2924 -0.3578
  764SOL    HW1 2291   0.569   0.529   0.667 -2.8448 -1.8695 -0.3251
  764SOL    HW2 2292   0.709   0.558   0.762 -0.1114 -0.9413 -0.1246
  765SOL     OW 2293   0.810   0.231   0.730  0.3288  0.3178 -0.2919
  765SOL    HW1 2294   0.817   0.196   0.635 -3.0845  0.0491 -3.4064
  765SOL    HW2 2295   0.882   0.302   0.758 -2.7889 -1.6217 -2.3664
  766SOL     OW 2296   2.912   2.196   3.059 -0.5804 -0.0948 -0.1290
  766SOL    HW1 2297   2.853   2.182   3.141  0.4927 -0.7556 -0.0161
  766SOL    HW2 2298   2.955   2.292   3.066  0.2093  1.2356  2.8184
  767SOL     OW 2299   2.831   1.626   0.489  0.5433  0.0219  0.6194
  767SOL    HW1 2300   2.808   1.704   0.552 -2.5513 -0.4069 -1.7863
  767SOL    HW2 2301   2.932   1.613   0.471  0.3881  1.2075  4.5401
  768SOL     OW 2302   1.017   0.237   0.216  0.2037 -0.2138 -0.4191
  768SOL    HW1 2303   0.991   0.284   0.305  0.1971 -0.6585  0.5947
  768SOL    HW2 2304   1.107   0.191   0.219  0.6139  1.6145 -0.9144
  769SOL     OW 2305   1.148   1.779   2.284 -0.0253  0.3474 -0.2198
  769SOL    HW1 2306   1.064   1.798   2.340  0.1047  2.2564  1.0922
  769SOL    HW2 2307   1.234   1.779   2.348 -3.5002  0.1530  0.8854
  770SOL     OW 2308   0.172   1.158   2.280  0.0900  0.2078  0.1196
  770SOL    HW1 2309   0.200   1.149   2.381  4.1677 -0.3065 -0.9029
  770SOL    HW2 2310   0.074   1.141   2.268  0.8038  1.0717  1.5658
  771SOL     OW 2311   3.071   2.809   1.896  0.1285  0.3643 -0.1101
  771SOL    HW1 2312   2.994   2.816   1.830 -0.4559  0.3289 -1.0876
  771SOL    HW2 2313   3.051   2.863   1.982  2.0088 -0.4522 -0.6090
  772SOL     OW 2314   2.326   0.215   2.854  0.0870 -0.4905 -0.4383
  772SOL    HW1 2315   2.382   0.145   2.802 -0.7387 -1.1226 -1.2319
  772SOL    HW2 2316   2.385   0.263   2.924  5.8965  0.3151  0.5965
  773SOL     OW 2317   0.582   2.073   2.457 -0.0037  0.1770  0.0574
  773SOL    HW1 2318   0.552   2.161   2.405  0.4370 -1.8680  1.8963
  773SOL    HW2 2319   0.543   2.064   2.554 -2.7855 -2.3006 -1.0658
  774SOL     OW 2320   2.098   0.015   2.625 -0.4118 -0.3049  0.5648
  774SOL    HW1 2321   2.118   0.118   2.640 -0.2392 -1.2318 -0.9977
  774SOL    HW2 2322   2.170  -0.053   2.661  1.7402  0.6004  0.5893
  775SOL     OW 2323   2.518   2.860   2.306  0.4457  0.2854 -0.0158
  775SOL    HW1 2324   2.432   2.827   2.262 -0.4196  0.1048 -0.7457
  775SOL    HW2 2325   2.505   2.891   2.406 -1.0694 -0.9802 -2.4965
  776SOL     OW 2326   0.007   1.238   0.185  0.1459  0.0678 -0.2630
  776SOL    HW1 2327  -0.054   1.190   0.121  0.2509 -1.4366  0.1317
  776SOL    HW2 2328  -0.034   1.255   0.279  2.1398  1.3732  2.4695
  777SOL     OW 2329   0.362   2.985   0.485  0.8186  0.7959  0.8624
  777SOL    HW1 2330   0.273   2.983   0.435  1.5199 -0.2269  0.0230
  777SOL    HW2 2331   0.420   2.901   0.481  1.1461  0.7473 -0.6429
  778SOL     OW 2332   1.318   1.981   0.238  0.3344  0.3843  0.9197
  778SOL    HW1 2333   1.259   2.029   0.310 -0.7043  1.2107  1.9215
  778SOL    HW2 2334   1.333   2.048   0.161 -1.0627  0.0796  1.4431
  779SOL     OW 2335   0.151   0.796   0.504 -0.2959 -0.9171  0.0041
  779SOL    HW1 2336   0.096   0.720   0.460  1.8975  2.7386  1.7727
  779SOL    HW2 2337   0.090   0.858   0.560 -1.2852 -0.2499  0.6724
  780SOL     OW 2338   0.123   0.316   2.351  0.1589  0.5263 -0.1931
  780SOL    HW1 2339   0.107   0.395   2.418  0.1961  2.7668  0.7079
  780SOL    HW2 2340   0.221   0.305   2.318  0.7837  1.0969 -0.3564
  781SOL     OW 2341   0.707   1.665   1.531 -0.1031  0.1125 -0.3361
  781SOL    HW1 2342   0.764   1.603   1.593  0.4375  2.0578 -0.3457
  781SOL    HW2 2343   0.613   1.626   1.526  0.3215 -0.8404  0.1031
  782SOL     OW 2344   2.633   3.088   0.880 -0.5424  0.3180  0.5258
  782SOL    HW1 2345   2.569   3.112   0.802  0.6941 -0.3478 -1.1630
  782SOL    HW2 2346   2.598   3.119   0.972  3.0419  1.5786 -2.7987
  783SOL     OW 2347   2.713   0.687   2.433  0.3363  0.1473  0.0866
  783SOL    HW1 2348   2.711   0.693   2.537 -2.4032  0.6344 -0.8679
  783SOL    HW2 2349   2.708   0.589   2.398 -2.9535  0.1482 -1.8040
  784SOL     OW 2350   1.425   2.157   0.044  0.2185 -0.7262 -0.2734
  784SOL    HW1 2351   1.474   2.226   0.113 -0.5196 -0.0432  1.2967
  784SOL    HW2 2352   1.452   2.168  -0.056  1.2202 -0.8183 -0.2718
  785SOL     OW 2353   2.112   0.285   0.040 -0.0794  0.0548  0.1408
  785SOL    HW1 2354   2.018   0.298   0.076  1.7026  0.4676 -1.2488
  785SOL    HW2 2355   2.150   0.372  -0.007 -4.0063 -0.2069 -0.3095
  786SOL     OW 2356   2.046   2.172   2.263  0.3525  0.3215  0.4575
  786SOL    HW1 2357   2.027   2.071   2.284 -1.4838 -1.1516  1.1139
  786SOL    HW2 2358   2.148   2.191   2.266 -3.1527 -1.2722  0.0385
  787SOL     OW 2359   1.424   0.516   0.866 -0.4399  0.1531  0.1130
  787SOL    HW1 2360   1.338   0.570   0.878 -0.6381  0.6753  0.0112
  787SOL    HW2 2361   1.462   0.501   0.769 -0.4710 -0.4897  1.1899
  788SOL     OW 2362   1.234   0.441   0.007 -0.2923  0.2390 -0.1306
  788SOL    HW1 2363   1.153   0.404  -0.045  0.0947 -2.6504 -1.1897
  788SOL    HW2 2364   1.211   0.519   0.070 -0.1077 -2.9329  3.1645
  789SOL     OW 2365   2.579   0.093   1.986  0.0277  0.1274 -0.3037
  789SOL    HW1 2366   2.543   0.055   1.898  0.7190  1.0276  3.8181
  789SOL    HW2 2367   2.607   0.023   2.053  2.1137  2.2630 -2.2009
  790SOL     OW 2368   2.593   2.809   0.704 -0.0088  0.0719  0.2351
  790SOL    HW1 2369   2.634   2.892   0.667  0.5871  2.7144 -0.4274
  790SOL    HW2 2370   2.566   2.821   0.803  0.8619  0.1557 -1.5351
  791SOL     OW 2371   1.944   1.181   0.157 -0.0331  0.4576 -0.4747
  791SOL    HW1 2372   1.858   1.126   0.187  1.0011 -1.6044  2.0940
  791SOL    HW2 2373   2.033   1.154   0.201 -1.8503 -1.1138  2.7152
  792SOL     OW 2374   0.481   1.922   2.229 -0.3527 -0.8463  0.0292
  792SOL    HW1 2375   0.518   1.973   2.310 -0.4353  0.2646 -1.4451
  792SOL    HW2 2376   0.469   1.819   2.234  1.2859  0.7079  2.2312
  793SOL     OW 2377   2.120   1.584   2.083 -0.5973  0.8907 -0.2480
  793SOL    HW1 2378   2.175   1.667   2.058  4.3554  2.1021 -2.3747
  793SOL    HW2 2379   2.134   1.500   2.025 -1.4630 -0.7603  1.5685
  794SOL     OW 2380   0.430   1.624   2.244  0.2246 -0.9069 -0.1485
  794SOL    HW1 2381   0.453   1.562   2.167  0.3664 -0.8592  1.3625
  794SOL    HW2 2382   0.382   1.563   2.313 -1.2176 -2.7747 -0.7563
  795SOL     OW 2383   2.486   2.236   1.805 -0.6005  0.1126 -0.2044
  795SOL    HW1 2384   2.522   2.231   1.903  0.3037 -1.6594  0.3383
  795SOL    HW2 2385   2.440   2.148   1.772 -0.1043 -3.1260 -1.5942
  796SOL     OW 2386   3.088   1.113   2.737 -0.0200 -0.6113  0.0402
  796SOL    HW1 2387   2.981   1.106   2.743 -0.0596  0.2470  1.2372
  796SOL    HW2 2388   3.129   1.119   2.835 -0.3265 -1.0758  2.0629
  797SOL     OW 2389   0.815   0.678   1.441 -0.5353  0.1207  0.3416
  797SOL    HW1 2390   0.873   0.752   1.489 -1.7841 -0.9352  1.4319
  797SOL    HW2 2391   0.744   0.727   1.382  2.3165  2.4634 -0.3753
  798SOL     OW 2392   1.366   0.488   1.169  0.3117  0.3928 -0.0234
  798SOL    HW1 2393   1.411   0.478   1.262 -2.4100 -2.4227  1.0422
  798SOL    HW2 2394   1.407   0.428   1.097  0.1100 -0.6166 -0.6630
  799SOL     OW 2395   1.943   2.644   1.060 -0.0560 -0.1271  0.3734
  799SOL    HW1 2396   1.863   2.581   1.090  1.6490 -0.1891  1.0311
  799SOL    HW2 2397   1.945   2.662   0.960  0.9851  1.5734  0.7082
  800SOL     OW 2398   3.050   0.625   1.823 -0.1987  0.1629  0.1997
  800SOL    HW1 2399   2.995   0.677   1.894  0.5429 -0.8485 -0.1555
  800SOL    HW2 2400   3.134   0.577   1.864 -2.8879 -0.4522  1.7885
  801SOL     OW 2401   1.875   2.183   0.174  0.4036 -0.2742  0.2350
  801SOL    HW1 2402   1.807   2.124   0.121 -2.7957  1.9013 -0.2096
  801SOL    HW2 2403   1.979   2.164   0.151  0.4254 -0.5316 -1.6238
  802SOL     OW 2404   0.716   0.829   2.543  0.9636  0.2278  0.5519
  802SOL    HW1 2405   0.787   0.776   2.484  1.5859  0.6735  0.7547
  802SOL    HW2 2406   0.631   0.772   2.545 -0.4499  1.2592  0.6925
  803SOL     OW 2407   0.876   0.167   0.994  0.2967 -0.4565 -0.4434
  803SOL    HW1 2408   0.944   0.241   1.018 -0.2666 -2.1439 -0.6129
  803SOL    HW2 2409   0.844   0.177   0.896  0.4884 -0.0311  0.5469
  804SOL     OW 2410   0.371   3.076   2.081  0.2689 -0.0349 -0.6485
  804SOL    HW1 2411   0.297   3.142   2.045  1.0310 -0.4182 -1.6304
  804SOL    HW2 2412   0.358   2.978   2.042 -0.9997  0.2930  2.8673
  805SOL     OW 2413   2.434   0.288   0.297  0.0826 -0.2586  0.0095
  805SOL    HW1 2414   2.532   0.321   0.300 -3.3184 -2.2879 -1.3299
  805SOL    HW2 2415   2.396   0.246   0.203  0.8327  3.3651 -0.3753
  806SOL     OW 2416   0.719   2.395   1.680 -0.6793 -0.1363 -0.4930
  806SOL    HW1 2417   0.717   2.493   1.704 -0.1438 -0.8286 -0.1438
  806SOL    HW2 2418   0.814   2.362   1.668 -1.0027 -0.3048 -1.1995
  807SOL     OW 2419   2.491   0.933   0.450  0.5041 -0.2177 -0.6740
  807SOL    HW1 2420   2.570   0.868   0.462 -0.0654  0.0259  1.2097
  807SOL    HW2 2421   2.473   0.958   0.350 -2.2476  2.2060  3.1506
  808SOL     OW 2422   0.631   1.967   3.019 -0.2870  0.0813 -0.1932
  808SOL    HW1 2423   0.589   2.004   3.104 -2.6355  4.0184 -1.4230
  808SOL    HW2 2424   0.577   1.886   2.978 -1.4116  0.2543 -1.5133
  809SOL     OW 2425   2.699   2.003   1.923 -0.0699  0.0872 -0.5673
  809SOL    HW1 2426   2.779   2.066   1.902  0.7444 -1.9869 -1.2599
  809SOL    HW2 2427   2.676   1.949   1.837  2.3619 -1.7337  0.7658
  810SOL     OW 2428   2.101   1.123   0.501 -0.1253  0.4362  0.6689
  810SOL    HW1 2429   2.147   1.096   0.592  2.4826  1.9317  0.9361
  810SOL    HW2 2430   2.020   1.191   0.518  4.2180 -1.3750  0.8647
  811SOL     OW 2431   1.347   2.297   1.218  0.3342  0.0333 -0.0255
  811SOL    HW1 2432   1.279   2.254   1.283  1.3194  1.0431 -0.9427
  811SOL    HW2 2433   1.298   2.308   1.127  0.5300 -1.6275 -0.2480
  812SOL     OW 2434   1.366   0.749   1.981 -0.3983  0.3890  0.0885
  812SOL    HW1 2435   1.433   0.811   2.029  0.9613 -0.7288  0.5336
  812SOL    HW2 2436   1.280   0.788   1.940 -0.4456 -1.1361  0.3193
  813SOL     OW 2437   1.719   2.015   2.468 -0.5466  0.1238 -0.2660
  813SOL    HW1 2438   1.809   1.972   2.485 -1.4255 -0.5703  0.3995
  813SOL    HW2 2439   1.708   2.065   2.371 -0.9772  2.0107 -2.3649
  814SOL     OW 2440   2.865   1.628   2.922  0.1169 -1.3819 -0.3534
  814SOL    HW1 2441   2.963   1.630   2.952 -0.4191 -0.2355  3.7479
  814SOL    HW2 2442   2.837   1.706   2.855  0.7412  0.7314  1.0803
  815SOL     OW 2443   2.268   2.888   2.676  0.5271 -0.2759  0.0449
  815SOL    HW1 2444   2.218   2.860   2.764 -0.1608  2.3787  0.0194
  815SOL    HW2 2445   2.363   2.850   2.672  0.8249  3.3229  0.9844
  816SOL     OW 2446   1.732   0.334   1.633  0.5021 -0.0682 -0.0578
  816SOL    HW1 2447   1.642   0.372   1.674  0.2597  0.7309 -0.7237
  816SOL    HW2 2448   1.775   0.269   1.698  3.4730  0.3046  0.5780
  817SOL     OW 2449   0.470   1.214   2.461  0.1572 -0.6101 -0.1458
  817SOL    HW1 2450   0.432   1.311   2.437 -1.2147 -1.0353  1.7054
  817SOL    HW2 2451   0.528   1.171   2.390  2.9359  1.1538  3.4528
  818SOL     OW 2452   2.037   0.822   0.444 -0.2078 -0.4569 -0.3126
  818SOL    HW1 2453   2.047   0.924   0.455  1.0601 -1.1698 -1.5226
  818SOL    HW2 2454   1.973   0.782   0.519 -3.8463  1.0093  3.2635
  819SOL     OW 2455   2.766   2.984   3.062 -0.6617 -0.6794 -0.4277
  819SOL    HW1 2456   2.835   2.931   3.006  1.0061  2.1379 -0.5630
  819SOL    HW2 2457   2.666   2.971   3.025 -0.7366  0.4353  0.4072
  820SOL     OW 2458   1.203   1.105   0.564 -0.6429 -0.8394  0.0553
  820SOL    HW1 2459   1.245   1.180   0.627  0.6965 -0.7940 -2.3588
  820SOL    HW2 2460   1.182   1.014   0.612  2.0524  0.2041  3.7479
  821SOL     OW 2461   3.088   1.324   0.642 -0.5176 -0.3301  0.5589
  821SOL    HW1 2462   3.049   1.304   0.735  2.5005  0.1819 -3.0692
  821SOL    HW2 2463   3.169   1.392   0.640  0.9736 -0.4535  0.2101
  822SOL     OW 2464   2.556   1.769   2.483  0.4589  0.2423 -0.1652
  822SOL    HW1 2465   2.575   1.847   2.547  1.7312 -3.0246  0.5736
  822SOL    HW2 2466   2.477   1.785   2.413 -3.1170 -0.3280  2.2345
  823SOL     OW 2467   2.001   0.861   1.185  0.2984  0.4720 -0.0179
  823SOL    HW1 2468   1.978   0.881   1.287  0.1040 -0.3924  0.1804
  823SOL    HW2 2469   1.921   0.894   1.126 -1.2756  0.3334  0.5687
  824SOL     OW 2470   0.210   2.066   2.728  0.2348 -0.7075  0.0348
  824SOL    HW1 2471   0.205   2.008   2.812 -1.8513 -0.5422 -3.1606
  824SOL    HW2 2472   0.234   2.004   2.648 -3.4679  2.1201 -0.9462
  825SOL     OW 2473   1.281   1.098   0.298 -0.5136 -0.2498 -0.2087
  825SOL    HW1 2474   1.257   1.103   0.397  1.2307 -2.0308 -1.5277
  825SOL    HW2 2475   1.307   1.192   0.259 -3.3672 -2.4164 -3.7276
  826SOL     OW 2476   1.903   0.682   1.552  0.2965  0.0943  0.0100
  826SOL    HW1 2477   1.982   0.623   1.587  0.4696 -2.9031  1.9918
  826SOL    HW2 2478   1.841   0.630   1.484 -0.3718  2.4271 -3.5395
  827SOL     OW 2479   0.786   1.403   0.237  0.1832 -0.0454  0.2573
  827SOL    HW1 2480   0.815   1.329   0.170  0.4927 -1.2735 -1.3067
  827SOL    HW2 2481   0.705   1.367   0.295  2.2490  0.6925  2.1679
  828SOL     OW 2482   2.574   0.060   1.595  0.2239 -0.0060  0.1895
  828SOL    HW1 2483   2.504   0.068   1.517 -1.7701 -2.2978  2.2580
  828SOL    HW2 2484   2.583  -0.034   1.641 -2.4138 -1.4469  0.3212
  829SOL     OW 2485   2.742   2.514   3.002  0.0324  0.0435 -0.3234
  829SOL    HW1 2486   2.685   2.437   2.956  0.5308 -3.0770  0.9876
  829SOL    HW2 2487   2.717   2.538   3.100  1.3243 -0.5672 -0.3753
  830SOL     OW 2488   2.784   0.933   2.988  0.0776 -0.4848 -0.2426
  830SOL    HW1 2489   2.864   0.995   3.013  1.8960  1.1165  1.9116
  830SOL    HW2 2490   2.788   0.843   3.038 -1.4524 -1.2461 -1.0186
  831SOL     OW 2491   0.010   0.593   0.379 -0.1101  0.3508  0.1605
  831SOL    HW1 2492  -0.044   0.541   0.450  0.6492 -0.4242  1.7496
  831SOL    HW2 2493   0.009   0.554   0.281 -0.7801  1.5948  1.2542
  832SOL     OW 2494   1.798   0.736   3.068 -0.4996  0.7971  0.1695
  832SOL    HW1 2495   1.715   0.799   3.061  0.7728  1.1956 -1.4455
  832SOL    HW2 2496   1.775   0.634   3.046  0.0374 -0.8505  1.0122
  833SOL     OW 2497   2.401   2.123   0.598 -0.0233 -0.1841 -0.5482
  833SOL    HW1 2498   2.307   2.150   0.569  2.6708  1.2888 -0.8781
  833SOL    HW2 2499   2.416   2.027   0.565  0.8823  1.4500 -0.2108
  834SOL     OW 2500   0.024   0.222   0.711  0.5368 -0.1535 -0.3620
  834SOL    HW1 2501   0.059   0.147   0.771  3.7894  1.2233  0.6986
  834SOL    HW2 2502   0.048   0.217   0.608  3.0050 -1.2878 -0.0544
  835SOL     OW 2503   2.479   1.483   1.184 -0.5863 -0.3016  0.4007
  835SOL    HW1 2504   2.562   1.530   1.229  0.2658  1.4014  1.3856
  835SOL    HW2 2505   2.486   1.476   1.077 -0.1759  2.2730  1.9735
  836SOL     OW 2506   1.552   0.865   2.580  0.0984  0.0150  0.5076
  836SOL    HW1 2507   1.446   0.863   2.568 -1.7134 -0.2637  1.3584
  836SOL    HW2 2508   1.600   0.899   2.494  0.4234  2.0980  1.0876
  837SOL     OW 2509   1.519   0.093   0.430 -0.3154 -0.7241  0.9438
  837SOL    HW1 2510   1.517   0.198   0.426 -1.3934  1.3052  0.7207
  837SOL    HW2 2511   1.515   0.059   0.333  2.4237  1.0046  1.7763
  838SOL     OW 2512   1.347   1.634   2.677  0.3129 -0.1298  0.0121
  838SOL    HW1 2513   1.400   1.588   2.752 -3.0877  0.2974 -0.3606
  838SOL    HW2 2514   1.255   1.589   2.656  0.6381 -0.6659  1.5348
  839SOL     OW 2515   1.632   0.236   0.966 -0.9291  0.1198 -0.0049
  839SOL    HW1 2516   1.644   0.288   1.052 -0.8008  0.6994  1.1452
  839SOL    HW2 2517   1.648   0.134   0.981  0.1438  1.7419 -0.3115
  840SOL     OW 2518   2.563   2.911   1.724  0.1782 -0.4912 -0.1074
  840SOL    HW1 2519   2.521   2.848   1.651 -1.1164  1.7249 -0.2940
  840SOL    HW2 2520   2.558   2.860   1.816  1.8151  1.5338 -3.6663
  841SOL     OW 2521   1.593   0.901   3.054 -0.2492  0.1931  0.2380
  841SOL    HW1 2522   1.507   0.897   3.103  2.5310  1.2711  1.0604
  841SOL    HW2 2523   1.580   0.953   2.964 -0.8541 -0.7589 -1.0722
  842SOL     OW 2524   0.798   1.491   0.890 -0.1113 -0.3739 -0.2047
  842SOL    HW1 2525   0.756   1.550   0.965 -1.7338 -2.1980 -1.0812
  842SOL    HW2 2526   0.739   1.406   0.867 -1.5348  2.7483 -0.2030
  843SOL     OW 2527   0.137   3.062   1.408 -0.2464 -0.2210 -0.8480
  843SOL    HW1 2528   0.187   3.145   1.448 -0.5064  1.8769 -0.9705
  843SOL    HW2 2529   0.067   3.015   1.470 -1.5784  1.6442  1.2750
  844SOL     OW 2530   0.794   2.461   0.233 -0.2381 -0.3595  0.1668
  844SOL    HW1 2531   0.711   2.427   0.284  0.4069 -1.5178  2.0507
  844SOL    HW2 2532   0.772   2.546   0.177 -1.1678  0.6574  0.9759
  845SOL     OW 2533   1.673   2.849   1.279 -0.6474 -0.6438  0.3365
  845SOL    HW1 2534   1.700   2.748   1.267 -0.3572  0.1734  0.1002
  845SOL    HW2 2535   1.658   2.873   1.380 -2.2569  0.1072 -4.4620
  846SOL     OW 2536   1.503   3.044   0.767  0.6882 -0.6266  0.0389
  846SOL    HW1 2537   1.461   3.137   0.760 -1.5310 -1.9804 -2.4529
  846SOL    HW2 2538   1.539   3.007   0.679 -3.2909 -0.0875  0.5201
  847SOL     OW 2539   2.086   1.753   0.458 -0.0225  0.6996  0.1114
  847SOL    HW1 2540   2.090   1.672   0.399  1.9854 -3.4537 -2.4488
  847SOL    HW2 2541   1.989   1.790   0.472 -2.3428  0.4133  0.9279
  848SOL     OW 2542   2.409   0.878   2.623  0.3194  0.3195  0.2958
  848SOL    HW1 2543   2.388   0.927   2.712  0.2066 -1.4757  2.3226
  848SOL    HW2 2544   2.334   0.813   2.591 -1.2105 -1.9258  1.2405
  849SOL     OW 2545   2.555   0.925   2.383 -0.7130 -0.1799 -0.4383
  849SOL    HW1 2546   2.639   0.872   2.410  0.4202 -0.8161  2.1746
  849SOL    HW2 2547   2.494   0.931   2.466  0.7347 -0.5147 -1.2040
  850SOL     OW 2548   1.576   0.028   1.353 -0.3449 -0.1543 -0.1583
  850SOL    HW1 2549   1.582  -0.040   1.280 -0.3147  1.4311  3.5911
  850SOL    HW2 2550   1.522  -0.008   1.432  0.3072 -1.6028 -3.5244
  851SOL     OW 2551   0.574   1.699   0.747  0.4988  0.3912 -0.5684
  851SOL    HW1 2552   0.659   1.749   0.779 -1.4682 -2.0980 -2.9915
  851SOL    HW2 2553   0.564   1.695   0.642 -0.6329 -0.5942  2.2108
  852SOL     OW 2554   0.837   2.082   1.659  0.0008  0.5177 -0.3166
  852SOL    HW1 2555   0.799   2.153   1.595 -2.1106  1.1030 -0.5588
  852SOL    HW2 2556   0.789   2.087   1.751  1.4379 -3.3628  0.3378
  853SOL     OW 2557   2.529   1.545   2.642  0.3984 -0.3754 -0.3546
  853SOL    HW1 2558   2.464   1.463   2.622 -0.4955 -0.3682  0.1358
  853SOL    HW2 2559   2.521   1.620   2.568  0.2523  0.9684 -0.0384
  854SOL     OW 2560   2.427   1.427   1.765 -0.1346 -0.5600 -0.0193
  854SOL    HW1 2561   2.492   1.387   1.692 -1.9175 -2.4799  0.2557
  854SOL    HW2 2562   2.367   1.351   1.811 -1.7036 -1.4062  1.0338
  855SOL     OW 2563   2.070   2.377   1.131  0.1334  0.3305  0.0686
  855SOL    HW1 2564   2.023   2.467   1.114 -2.3572 -0.8764  1.5184
  855SOL    HW2 2565   2.155   2.393   1.190 -1.1719  2.2452 -0.8823
  856SOL     OW 2566   1.354   1.405   0.897 -0.1891  0.1006  0.0655
  856SOL    HW1 2567   1.414   1.471   0.948  1.6448  0.2097  1.3758
  856SOL    HW2 2568   1.251   1.429   0.906 -0.4173  0.7170  2.6066
  857SOL     OW 2569   0.046   2.708   1.040  0.0106  0.0777  0.3790
  857SOL    HW1 2570   0.062   2.748   0.948 -0.5756  0.7781 -0.4221
  857SOL    HW2 2571   0.103   2.622   1.064 -0.8060  0.6209 -0.4906
  858SOL     OW 2572   2.376   2.031   1.645  0.2189  0.5462 -0.4361
  858SOL    HW1 2573   2.299   1.966   1.611  1.5409  2.0124 -0.0149
  858SOL    HW2 2574   2.467   1.985   1.640 -2.7247 -0.1203  1.4193
  859SOL     OW 2575   2.413   0.584   1.091  0.0580 -0.6800  0.2543
  859SOL    HW1 2576   2.478   0.637   1.032 -0.4536  0.0980 -0.4362
  859SOL    HW2 2577   2.460   0.513   1.144  0.1547 -1.6645  0.3865
  860SOL     OW 2578   1.895   2.843   0.464 -0.2058 -0.3090  0.2029
  860SOL    HW1 2579   1.863   2.805   0.373 -1.4169 -1.1624 -0.0287
  860SOL    HW2 2580   1.945   2.933   0.442 -0.1453 -3.2712 -0.7038
  861SOL     OW 2581   1.064   2.473   2.890 -0.2782  0.2815 -0.1332
  861SOL    HW1 2582   1.126   2.544   2.848 -2.6422  0.6263  1.7032
  861SOL    HW2 2583   1.041   2.506   2.986  0.3856  1.0926 -0.8202
  862SOL     OW 2584   2.809   2.524   1.722  0.0513  0.2528 -0.4281
  862SOL    HW1 2585   2.904   2.532   1.769 -0.4675  1.6728 -0.5231
  862SOL    HW2 2586   2.768   2.602   1.669  1.5133 -0.3531 -3.5010
  863SOL     OW 2587   1.819   2.720   0.224  0.2703  0.3039  0.1440
  863SOL    HW1 2588   1.862   2.622   0.247 -0.1036 -2.6188  1.9642
  863SOL    HW2 2589   1.724   2.719   0.179  3.3970  1.7284 -0.1635
  864SOL     OW 2590   2.058   1.219   2.776  0.1600 -0.0809 -0.0362
  864SOL    HW1 2591   2.022   1.149   2.702 -2.1740  1.0551  0.0436
  864SOL    HW2 2592   2.162   1.223   2.774  0.9143 -3.1278 -0.3571
  865SOL     OW 2593   2.094   1.984   0.714 -0.0810 -0.3162 -0.4334
  865SOL    HW1 2594   2.183   1.945   0.750  1.7769 -0.3909 -0.3696
  865SOL    HW2 2595   2.007   1.953   0.767 -0.6111 -0.1059  2.7741
  866SOL     OW 2596   2.971   2.914   1.100 -0.3120  0.5925 -0.6101
  866SOL    HW1 2597   2.962   2.981   1.017 -1.8305 -1.5677  0.7252
  866SOL    HW2 2598   3.035   2.835   1.088 -0.5153 -0.3608 -1.9363
  867SOL     OW 2599   0.358   1.355   0.871 -0.6878  0.6585  0.4494
  867SOL    HW1 2600   0.367   1.282   0.797 -2.8717 -1.6764 -0.8659
  867SOL    HW2 2601   0.347   1.451   0.834 -0.0006 -0.4900 -1.9861
  868SOL     OW 2602   0.802   1.905   2.066  0.3429 -0.2969  0.4896
  868SOL    HW1 2603   0.750   1.881   2.154 -2.3814 -0.5185 -3.7276
  868SOL    HW2 2604   0.752   1.987   2.016 -0.7662  2.0140 -1.1395
  869SOL     OW 2605   2.623   1.910   1.680  0.0699 -0.5538 -0.0762
  869SOL    HW1 2606   2.685   1.977   1.628 -0.3448 -1.6333  0.6219
  869SOL    HW2 2607   2.591   1.829   1.628  2.0072 -0.9602 -2.9710
  870SOL     OW 2608   2.375   2.665   1.166 -0.0914 -0.2597 -0.5033
  870SOL    HW1 2609   2.327   2.593   1.227  2.4928  1.9137  1.6820
  870SOL    HW2 2610   2.464   2.692   1.211  1.8180  2.2730 -0.9852
  871SOL     OW 2611   3.070   2.247   0.555 -0.1407  0.6663 -0.3065
  871SOL    HW1 2612   3.014   2.240   0.643 -1.0658 -0.4793  0.7351
  871SOL    HW2 2613   3.011   2.219   0.475 -0.2316 -3.0836 -0.7208
  872SOL     OW 2614   2.075   0.520   1.668 -0.4224 -0.3149  0.7017
  872SOL    HW1 2615   2.043   0.511   1.768  2.2972  0.2367 -1.1354
  872SOL    HW2 2616   2.170   0.490   1.648 -0.2260  1.0984  2.9634
  873SOL     OW 2617   1.748   2.033   3.095 -0.5063  0.8186 -0.2436
  873SOL    HW1 2618   1.656   1.986   3.094  0.3008  0.3727  0.9020
  873SOL    HW2 2619   1.763   2.100   3.015 -4.4315  1.1947 -0.2289
  874SOL     OW 2620   0.648   2.479   0.707  0.0968  0.9160 -0.0563
  874SOL    HW1 2621   0.650   2.545   0.786 -0.7197 -3.2126 -1.1131
  874SOL    HW2 2622   0.719   2.403   0.712  2.8993 -1.0410  0.2325
  875SOL     OW 2623   2.377   1.571   1.419 -0.3104  1.0043 -0.5670
  875SOL    HW1 2624   2.470   1.596   1.460 -0.3979  2.2348 -0.2140
  875SOL    HW2 2625   2.388   1.522   1.328  1.8419  0.9370 -3.2875
  876SOL     OW 2626   0.067   2.297   2.659  0.3071  0.4398 -0.0946
  876SOL    HW1 2627   0.121   2.210   2.682 -0.0320 -2.7736  1.3888
  876SOL    HW2 2628   0.115   2.386   2.685  0.6171  1.8181 -0.8900
  877SOL     OW 2629   2.886   2.630   0.681 -0.3330 -0.6460 -0.1712
  877SOL    HW1 2630   2.895   2.731   0.697 -1.0006  0.6443  3.4528
  877SOL    HW2 2631   2.963   2.576   0.720  3.4841  2.6550 -0.9381
  878SOL     OW 2632   2.834   1.612   2.306  0.0304  0.0394  0.3089
  878SOL    HW1 2633   2.775   1.677   2.248  2.0083 -0.2588 -1.3842
  878SOL    HW2 2634   2.802   1.605   2.407  2.9960  0.7408  1.3546
  879SOL     OW 2635   2.521   0.011   1.128 -0.1501 -0.5482 -0.2203
  879SOL    HW1 2636   2.546  -0.025   1.220 -1.1631  1.2246 -0.5336
  879SOL    HW2 2637   2.416   0.004   1.113 -0.0615  1.5186 -0.4726
  880SOL     OW 2638   0.640   0.532   2.279  0.0872  0.2518  0.2526
  880SOL    HW1 2639   0.593   0.484   2.359  2.3287 -0.1976 -0.1052
  880SOL    HW2 2640   0.680   0.471   2.204 -0.8266  1.4050  1.0986
  881SOL     OW 2641   0.828   0.101   0.506 -0.4739  0.2341 -0.1500
  881SOL    HW1 2642   0.893   0.024   0.531  0.6807  2.4853 -1.1297
  881SOL    HW2 2643   0.735   0.065   0.470 -0.4123  3.1442  1.7607
  882SOL     OW 2644   2.771   1.614   1.756 -0.6421  0.4141 -0.4002
  882SOL    HW1 2645   2.866   1.646   1.750 -1.1452 -2.3580  0.2849
  882SOL    HW2 2646   2.754   1.559   1.847 -0.2852 -0.3344  0.6722
  883SOL     OW 2647   0.846   0.538   0.878 -0.2079 -0.5506 -0.8726
  883SOL    HW1 2648   0.886   0.630   0.907 -1.8305 -1.6551  0.0907
  883SOL    HW2 2649   0.819   0.474   0.952 -1.4404  1.3056  0.1644
  884SOL     OW 2650   1.192   1.743   1.061  0.1806 -0.6086  0.4660
  884SOL    HW1 2651   1.149   1.653   1.029 -0.8463  4.2142  3.3477
  884SOL    HW2 2652   1.183   1.817   0.995 -0.4927 -0.1200  0.3990
  885SOL     OW 2653   2.360   1.854   2.295  0.0163  0.4569 -0.3471
  885SOL    HW1 2654   2.274   1.808   2.329 -0.5584  0.6944  0.3318
  885SOL    HW2 2655   2.357   1.957   2.304 -3.5545 -0.7748  0.3129
  886SOL     OW 2656   2.577   0.391   1.753  0.3211 -0.2275  0.3331
  886SOL    HW1 2657   2.611   0.313   1.803  1.7894 -1.8749  0.7550
  886SOL    HW2 2658   2.653   0.462   1.743  0.4014  0.5142  2.7797
  887SOL     OW 2659   0.095   2.062   1.346  0.5468 -0.3127  0.2341
  887SOL    HW1 2660   0.005   2.112   1.336  0.7736 -1.1589  2.1266
  887SOL    HW2 2661   0.167   2.110   1.296  0.5483 -0.2377  0.2562
  888SOL     OW 2662   0.608   1.198   1.563  0.1155  1.1121  0.2481
  888SOL    HW1 2663   0.579   1.259   1.481  0.7441 -0.8359 -1.4381
  888SOL    HW2 2664   0.662   1.116   1.537 -0.0284 -2.0420  0.0329
  889SOL     OW 2665   0.808   2.451   2.215  0.3854 -0.2366 -0.0991
  889SOL    HW1 2666   0.712   2.431   2.253  1.4035  0.4325 -2.7458
  889SOL    HW2 2667   0.844   2.374   2.156  0.6717  0.5566 -0.7864
  890SOL     OW 2668   2.390   2.467   0.337  0.0550  0.4508 -0.4324
  890SOL    HW1 2669   2.471   2.499   0.385  1.5060  0.5810 -0.8972
  890SOL    HW2 2670   2.307   2.489   0.395  2.0094  0.7344  2.1467
  891SOL     OW 2671   2.592   1.718   0.736  0.6607  0.1633  0.3886
  891SOL    HW1 2672   2.642   1.641   0.794  1.8746 -0.6274  0.2216
  891SOL    HW2 2673   2.488   1.708   0.737  1.7714  1.4373  0.1205
  892SOL     OW 2674   0.381   0.265   2.233 -0.4619  0.4014  0.5555
  892SOL    HW1 2675   0.444   0.241   2.308  1.5002  3.4197 -1.7295
  892SOL    HW2 2676   0.428   0.279   2.143 -1.5803  1.3844 -2.6832
  893SOL     OW 2677   1.744   0.246   2.685 -0.0291  0.3727 -0.4128
  893SOL    HW1 2678   1.840   0.282   2.682 -0.0976 -4.9578  2.1839
  893SOL    HW2 2679   1.684   0.327   2.690  4.4518 -0.2676 -0.8044
  894SOL     OW 2680   2.139   2.106   0.124 -0.3497 -0.2648 -0.2112
  894SOL    HW1 2681   2.129   2.040   0.049 -0.6308  1.0188  0.2247
  894SOL    HW2 2682   2.217   2.081   0.185  2.6947  1.0102  0.2323
  895SOL     OW 2683   2.760   1.463   0.851  0.2797  0.5016  0.1255
  895SOL    HW1 2684   2.844   1.406   0.867 -0.9810 -1.0110  0.7095
  895SOL    HW2 2685   2.753   1.552   0.905  0.6812 -3.3869  0.4254
  896SOL     OW 2686   1.842   1.688   1.251 -0.2662  0.3504  0.2964
  896SOL    HW1 2687   1.941   1.671   1.275 -1.4520 -0.8567 -0.1925
  896SOL    HW2 2688   1.806   1.631   1.170 -0.0257 -0.5864 -0.2642
  897SOL     OW 2689   0.277   0.521   2.996 -0.5669  0.3261 -0.0829
  897SOL    HW1 2690   0.216   0.592   2.958 -3.2408 -0.5918  1.4054
  897SOL    HW2 2691   0.367   0.555   3.025 -1.0068 -0.0674 -1.3012
  898SOL     OW 2692   0.663   2.849   1.107  0.3147 -0.2485  0.0679
  898SOL    HW1 2693   0.735   2.921   1.114  1.4968 -2.4015  0.2460
  898SOL    HW2 2694   0.671   2.780   1.187 -1.2041  0.8470  3.8269
  899SOL     OW 2695   2.863   0.943   1.393  0.3822 -0.2043 -0.6228
  899SOL    HW1 2696   2.847   0.984   1.302  0.5390  2.6404  1.4258
  899SOL    HW2 2697   2.964   0.962   1.416  1.0151 -3.4700 -0.8038
  900SOL     OW 2698   0.964   2.512   2.420  0.1856 -0.1418  0.8936
  900SOL    HW1 2699   0.910   2.475   2.337 -1.3626  0.7849 -1.1991
  900SOL    HW2 2700   0.903   2.539   2.502 -0.5664 -1.0666  0.6496
  901SOL     OW 2701   1.880   2.378   1.447  0.1160 -0.6820  0.0723
  901SOL    HW1 2702   1.923   2.296   1.397 -0.4801 -0.3792 -0.9012
  901SOL    HW2 2703   1.948   2.452   1.467 -1.5740 -1.0468 -2.6198
  902SOL     OW 2704   2.630   1.671   1.515 -1.1362 -0.2858 -0.7699
  902SOL    HW1 2705   2.690   1.635   1.593  0.5037  2.2764 -0.7623
  902SOL    HW2 2706   2.668   1.652   1.418 -2.4624 -0.4869  0.7526
  903SOL     OW 2707   0.284   2.353   2.000  0.0116  0.1287  0.4238
  903SOL    HW1 2708   0.278   2.254   2.031  0.4486 -1.1116 -0.9468
  903SOL    HW2 2709   0.255   2.369   1.905  0.5480  0.4883 -0.7373
  904SOL     OW 2710   1.966   0.798   2.460  0.6584  0.2075 -0.5410
  904SOL    HW1 2711   1.880   0.746   2.494  1.4968 -2.5901  0.1101
  904SOL    HW2 2712   1.995   0.767   2.365 -1.7466  0.3142  1.4831
  905SOL     OW 2713   2.819   0.115   2.404 -0.3168  0.0575 -0.0206
  905SOL    HW1 2714   2.875   0.025   2.407  0.6056  1.8321 -0.8614
  905SOL    HW2 2715   2.863   0.200   2.449 -0.3782  0.2830  1.6616
  906SOL     OW 2716   0.161   1.723   1.893 -0.1991  0.3387  0.2069
  906SOL    HW1 2717   0.110   1.741   1.803  0.0548 -1.4146 -1.0201
  906SOL    HW2 2718   0.206   1.809   1.937 -0.1667  1.6842  0.3195
  907SOL     OW 2719   0.251   2.489   0.978  0.4696 -0.3616 -0.1302
  907SOL    HW1 2720   0.341   2.438   0.966  1.9774 -0.0798  2.3816
  907SOL    HW2 2721   0.250   2.588   0.946 -0.3436  2.0199  0.9493
  908SOL     OW 2722   2.873   2.949   0.393  0.0582 -0.0489  0.1832
  908SOL    HW1 2723   2.806   3.002   0.329  0.7032 -0.7603  0.1292
  908SOL    HW2 2724   2.908   2.864   0.349 -0.4990  0.5430 -2.0363
  909SOL     OW 2725   0.897   1.034   2.644 -0.0089 -0.1911 -0.3410
  909SOL    HW1 2726   0.838   0.948   2.632  0.2830 -0.7006  0.9133
  909SOL    HW2 2727   0.944   1.061   2.557  1.4976  1.0256 -1.1153
  910SOL     OW 2728   1.866   1.872   2.102 -0.3917 -0.0189  0.1238
  910SOL    HW1 2729   1.912   1.943   2.039  2.2105 -4.2633  1.1377
  910SOL    HW2 2730   1.781   1.918   2.143 -0.0840  0.5440 -0.6376
  911SOL     OW 2731   1.782   2.842   1.546 -0.2359  0.2493  0.1967
  911SOL    HW1 2732   1.877   2.836   1.503 -0.2117  0.2759  0.5398
  911SOL    HW2 2733   1.776   2.770   1.621 -0.4634  2.6550  0.9425
  912SOL     OW 2734   2.825   1.005   0.728 -0.1421 -0.3997 -0.6411
  912SOL    HW1 2735   2.820   0.998   0.832 -0.4844 -0.8056 -0.8080
  912SOL    HW2 2736   2.776   1.091   0.697  0.7752 -0.1786  1.9751
  913SOL     OW 2737   2.592   1.294   1.594 -0.3071 -0.1883  0.0801
  913SOL    HW1 2738   2.618   1.197   1.595 -0.2421  1.6385  1.3189
  913SOL    HW2 2739   2.635   1.349   1.517  1.5567  0.3006 -0.9227
  914SOL     OW 2740   2.905   0.567   1.139 -0.2199 -0.1573  0.5681
  914SOL    HW1 2741   2.892   0.465   1.130 -1.4313  0.3561 -0.3016
  914SOL    HW2 2742   2.890   0.590   1.238  0.7599  1.4739  0.1819
  915SOL     OW 2743   1.195   0.666   0.931  0.3285  0.3729 -0.6819
  915SOL    HW1 2744   1.241   0.701   1.017  2.3136  2.2283  0.5605
  915SOL    HW2 2745   1.091   0.679   0.939 -0.1293 -2.5715  0.7883
  916SOL     OW 2746   0.581   0.090   0.672  0.8742  0.3905 -0.3227
  916SOL    HW1 2747   0.665   0.153   0.692 -0.5341  0.6496  2.9192
  916SOL    HW2 2748   0.504   0.137   0.617  1.9801 -0.3305  1.9265
  917SOL     OW 2749   2.850   2.644   2.035 -0.1293 -0.4989  0.5298
  917SOL    HW1 2750   2.753   2.642   1.992 -0.9305 -1.3432 -2.8702
  917SOL    HW2 2751   2.930   2.665   1.972 -0.4697  1.0771 -2.6864
  918SOL     OW 2752   1.070   2.089   3.031  0.2275 -0.0570  0.3039
  918SOL    HW1 2753   1.077   2.185   3.071  0.6584  1.2359  1.2463
  918SOL    HW2 2754   1.143   2.071   2.962 -0.2933  0.8076  0.7979
  919SOL     OW 2755   0.771   1.686   2.761 -0.8147 -0.3784  0.7963
  919SOL    HW1 2756   0.851   1.750   2.783  0.9721  2.4171 -1.2263
  919SOL    HW2 2757   0.780   1.640   2.667 -1.6997 -2.2274 -1.0670
  920SOL     OW 2758   1.360   1.803   2.457 -0.1652 -0.0102  0.6326
  920SOL    HW1 2759   1.448   1.838   2.414  0.5470 -2.1129  2.1366
  920SOL    HW2 2760   1.378   1.738   2.538 -3.1955  2.2387 -0.5090
  921SOL     OW 2761   1.125   0.139   2.568 -0.2376 -0.0017 -0.1616
  921SOL    HW1 2762   1.129   0.121   2.467  1.8275 -2.0614  2.9205
  921SOL    HW2 2763   1.027   0.145   2.602 -3.4523 -1.1323 -1.7743
  922SOL     OW 2764   2.163   2.438   2.861  0.4835  0.9160 -0.3225
  922SOL    HW1 2765   2.206   2.344   2.855 -0.4511 -0.0585 -0.7132
  922SOL    HW2 2766   2.071   2.438   2.806  1.2489 -0.8208  0.0138
  923SOL     OW 2767   1.182   2.704   0.285 -0.4714  0.4238 -0.0392
  923SOL    HW1 2768   1.245   2.736   0.361 -0.3024  1.6364  1.9225
  923SOL    HW2 2769   1.201   2.607   0.255 -2.3874 -1.1972 -0.3743
  924SOL     OW 2770   2.915   1.683   0.133  0.3480 -0.2121  0.2569
  924SOL    HW1 2771   2.829   1.652   0.079  1.6921  2.0351  1.0084
  924SOL    HW2 2772   2.993   1.614   0.109  0.4759 -0.5203 -0.9442
  925SOL     OW 2773   3.082   2.882   1.586  0.3176  0.5616  0.4636
  925SOL    HW1 2774   2.983   2.895   1.623  1.9239 -2.0665 -1.4385
  925SOL    HW2 2775   3.084   2.808   1.512  1.9066 -0.2105 -2.5995
  926SOL     OW 2776   1.239   2.721   1.330  0.4873  0.2018 -0.3272
  926SOL    HW1 2777   1.247   2.756   1.232  1.6668  3.6743 -1.2801
  926SOL    HW2 2778   1.248   2.791   1.404 -0.2578  1.5361 -0.7727
  927SOL     OW 2779   0.373   2.565   1.786  0.1440  0.2943 -0.0975
  927SOL    HW1 2780   0.332   2.508   1.709  0.2376  0.9794 -0.0950
  927SOL    HW2 2781   0.374   2.668   1.774 -0.5275  0.5084  0.6092
  928SOL     OW 2782   1.671   2.062   2.181  0.0271  0.5459  0.7101
  928SOL    HW1 2783   1.714   2.143   2.139  2.2449 -0.5347 -1.4219
  928SOL    HW2 2784   1.567   2.060   2.176  0.1654  0.4886  0.6656
  929SOL     OW 2785   2.437   2.514   2.918  0.0255 -0.0207 -0.1231
  929SOL    HW1 2786   2.335   2.516   2.914  0.5949  1.8711  1.0719
  929SOL    HW2 2787   2.479   2.553   2.825  0.3649  0.5461  1.0803
  930SOL     OW 2788   2.139   2.054   1.050 -0.3253  0.2911  0.6016
  930SOL    HW1 2789   2.152   1.995   1.138  1.3730 -1.3893  0.4261
  930SOL    HW2 2790   2.184   2.144   1.062 -1.3401  0.2326  0.3151
  931SOL     OW 2791   0.470   1.604   2.637 -0.0389 -0.1908 -0.1707
  931SOL    HW1 2792   0.471   1.651   2.729  1.0698 -2.7588  2.8661
  931SOL    HW2 2793   0.561   1.567   2.604  1.0139 -2.8490 -1.0695
  932SOL     OW 2794   0.355   0.044   3.102 -0.0944 -0.8576 -0.5675
  932SOL    HW1 2795   0.398   0.132   3.068  0.6247 -0.7860 -2.4991
  932SOL    HW2 2796   0.408  -0.042   3.076  3.4813 -3.4483  0.1960
  933SOL     OW 2797   0.990   0.831   2.981 -0.1346  0.4260  0.1063
  933SOL    HW1 2798   1.019   0.903   3.052 -0.2473 -0.6641  3.1102
  933SOL    HW2 2799   0.931   0.752   3.018  2.7635 -1.1765  0.8176
  934SOL     OW 2800   0.885   2.947   2.622 -0.2375 -0.5391 -0.8616
  934SOL    HW1 2801   0.863   2.884   2.548 -1.5287 -0.2826 -0.9570
  934SOL    HW2 2802   0.954   2.908   2.694 -2.4512  0.6068 -1.3088
  935SOL     OW 2803   0.037   0.641   0.738 -0.1764 -0.2344  0.5961
  935SOL    HW1 2804  -0.011   0.570   0.676 -1.4440  1.3171 -2.2595
  935SOL    HW2 2805  -0.021   0.662   0.824  1.6596 -0.1290 -3.2517
  936SOL     OW 2806   1.103   2.900   0.078  0.1663 -0.5748  0.1852
  936SOL    HW1 2807   1.195   2.920   0.031  0.2347  0.9940  0.6212
  936SOL    HW2 2808   1.112   2.838   0.162  1.0833 -1.5388 -0.2799
  937SOL     OW 2809   2.016   2.609   2.101 -0.2542 -0.1322 -0.4739
  937SOL    HW1 2810   1.952   2.646   2.176 -2.4223  2.7757  0.9003
  937SOL    HW2 2811   2.023   2.676   2.020  1.2466 -2.2169  0.7788
  938SOL     OW 2812   2.766   2.104   1.523  0.1532  0.3343  0.5548
  938SOL    HW1 2813   2.726   2.195   1.555  2.1620  1.7667 -1.3767
  938SOL    HW2 2814   2.842   2.073   1.594 -0.4730  0.0985 -0.7473
  939SOL     OW 2815   2.838   1.222   2.484 -0.0432 -0.4574 -0.0456
  939SOL    HW1 2816   2.910   1.207   2.408  2.0316 -0.6710  1.8506
  939SOL    HW2 2817   2.836   1.151   2.565 -0.7355 -2.5150 -1.0554
  940SOL     OW 2818   1.068   0.419   2.731 -0.2461 -0.1758  0.2087
  940SOL    HW1 2819   1.162   0.376   2.750 -0.2553  1.8038  0.0257
  940SOL    HW2 2820   1.020   0.385   2.647 -0.0028 -0.2093 -2.2479
  941SOL     OW 2821   0.093   2.802   2.299 -0.4315  0.3737 -0.1590
  941SOL    HW1 2822   0.141   2.715   2.271 -0.7369 -1.2847 -1.0093
  941SOL    HW2 2823   0.163   2.880   2.309  1.5335  0.7502 -3.1942
  942SOL     OW 2824   0.153   0.040   2.427 -0.0475 -0.1216 -0.2918
  942SOL    HW1 2825   0.184   0.045   2.527 -3.0925  0.4949 -0.5798
  942SOL    HW2 2826   0.102   0.129   2.400  1.6783 -1.0807  0.1605
  943SOL     OW 2827   2.139   1.673   2.367 -0.6442  0.7006  0.1118
  943SOL    HW1 2828   2.102   1.632   2.276  1.3002 -1.5201 -0.2772
  943SOL    HW2 2829   2.161   1.607   2.440  0.8495 -1.3612 -0.4614
  944SOL     OW 2830   2.167   2.310   1.557  0.9769  0.2580  0.3162
  944SOL    HW1 2831   2.193   2.304   1.654 -0.3658 -0.6907 -0.2895
  944SOL    HW2 2832   2.141   2.214   1.523 -1.3895 -0.7057  3.7248
  945SOL     OW 2833   0.639   1.619   0.178  0.5149  0.8258 -0.4808
  945SOL    HW1 2834   0.579   1.595   0.094 -1.4991 -0.2431  0.3001
  945SOL    HW2 2835   0.709   1.545   0.194 -0.5672 -0.2502 -1.7647
  946SOL     OW 2836   0.359   0.988   2.595  0.6511  0.1042 -0.3784
  946SOL    HW1 2837   0.330   0.934   2.510  1.7926  0.4694  1.8136
  946SOL    HW2 2838   0.400   1.085   2.578  0.4174 -0.1385 -0.6998
  947SOL     OW 2839   1.493   0.538   3.027 -0.2644 -0.0772  0.1398
  947SOL    HW1 2840   1.487   0.608   2.951 -1.2472  2.9111  1.2301
  947SOL    HW2 2841   1.399   0.498   3.053 -1.2762 -0.3095  0.5128
  948SOL     OW 2842   1.930   2.955   2.131  0.5638 -0.3708  0.2389
  948SOL    HW1 2843   1.921   2.913   2.039 -0.6609 -0.4811 -0.7969
  948SOL    HW2 2844   1.920   2.884   2.207 -0.9288 -3.3993 -2.3947
  949SOL     OW 2845   0.582   2.521   0.431 -0.0323 -0.2299  0.5299
  949SOL    HW1 2846   0.582   2.626   0.425  2.1620  1.3697 -1.9214
  949SOL    HW2 2847   0.630   2.489   0.520 -0.0516  0.3430 -2.1772
  950SOL     OW 2848   0.232   2.239   2.956 -0.2723 -0.7573  0.1714
  950SOL    HW1 2849   0.194   2.324   2.906  0.4441 -0.2203 -0.9430
  950SOL    HW2 2850   0.278   2.183   2.893 -0.9653  0.3087  1.3765
  951SOL     OW 2851   1.256   2.676   2.798 -0.2913  0.5181  0.0118
  951SOL    HW1 2852   1.326   2.617   2.850  3.4223 -2.0963 -1.0060
  951SOL    HW2 2853   1.298   2.723   2.714 -3.3672 -1.0946  0.4010
  952SOL     OW 2854   0.030   1.615   0.423 -0.0797  0.6478 -0.3267
  952SOL    HW1 2855   0.071   1.707   0.437 -2.7622  0.3549 -2.3019
  952SOL    HW2 2856   0.074   1.552   0.492 -1.7652  1.9287 -2.6895
  953SOL     OW 2857   2.468   1.749   0.313  0.0907 -0.5403  0.1779
  953SOL    HW1 2858   2.456   1.650   0.343  0.0304 -4.2356  0.9413
  953SOL    HW2 2859   2.443   1.762   0.213  1.5048 -0.5703  1.3014
  954SOL     OW 2860   2.219   0.512   0.910  0.0371 -0.3307  0.1695
  954SOL    HW1 2861   2.237   0.513   0.808  0.3393  3.8988  1.3149
  954SOL    HW2 2862   2.299   0.547   0.964  2.0138  2.8781 -2.0545
  955SOL     OW 2863   0.156   2.612   1.386 -0.2813  0.6177 -0.2373
  955SOL    HW1 2864   0.058   2.639   1.374 -1.2063 -0.4084 -0.6880
  955SOL    HW2 2865   0.213   2.694   1.359 -0.7251 -0.4925  0.4341
  956SOL     OW 2866   2.801   2.466   2.531  0.1270  0.3461 -0.0116
  956SOL    HW1 2867   2.832   2.367   2.510  0.5648 -0.4222  1.3969
  956SOL    HW2 2868   2.794   2.521   2.444 -2.0186  0.1605  2.0998
  957SOL     OW 2869   1.653   2.041   2.750 -0.2573 -0.4869  0.3846
  957SOL    HW1 2870   1.675   1.959   2.806 -3.1562 -0.0311 -1.9948
  957SOL    HW2 2871   1.679   2.039   2.645 -0.2505  0.4775 -0.4744
  958SOL     OW 2872   2.594   2.227   3.023  0.0157  0.5516 -0.2279
  958SOL    HW1 2873   2.506   2.260   3.067  2.0422  0.2548 -1.7651
  958SOL    HW2 2874   2.664   2.198   3.094  1.4181 -0.6408  2.8785
  959SOL     OW 2875   0.380   2.820   0.101  0.1157 -0.3454  0.5972
  959SOL    HW1 2876   0.276   2.821   0.079  1.7806  3.6779  0.6785
  959SOL    HW2 2877   0.412   2.728   0.138 -0.5584 -2.0130 -0.0152
  960SOL     OW 2878   1.929   0.528   1.910 -0.4221  0.0072 -0.1126
  960SOL    HW1 2879   1.874   0.601   1.861  2.2916 -1.0128  0.4389
  960SOL    HW2 2880   1.924   0.532   2.014 -0.6738  0.6843  2.7864
  961SOL     OW 2881   2.521   1.893   1.051 -0.5694 -0.0053  0.8403
  961SOL    HW1 2882   2.540   1.990   1.017  0.2232  1.9408  1.3657
  961SOL    HW2 2883   2.491   1.900   1.151  1.6427 -1.7015  1.1139
  962SOL     OW 2884   1.328   0.924   0.054 -0.2937 -0.6698 -0.2996
  962SOL    HW1 2885   1.309   0.954  -0.046 -0.9196  2.2085 -2.5244
  962SOL    HW2 2886   1.290   0.982   0.126  0.2342 -0.9497 -0.7411
  963SOL     OW 2887   2.268   2.593   1.813  0.1179 -0.0876 -0.3540
  963SOL    HW1 2888   2.247   2.490   1.826 -1.7134 -1.8311 -0.4779
  963SOL    HW2 2889   2.290   2.646   1.899  0.8831 -1.6743 -0.0374
  964SOL     OW 2890   2.329   0.388   1.640  0.4184  0.3053  0.6785
  964SOL    HW1 2891   2.414   0.376   1.691 -1.1890 -1.3310 -1.4563
  964SOL    HW2 2892   2.338   0.393   1.537 -0.1623  2.3106  0.9978
  965SOL     OW 2893   2.667   3.045   0.215 -0.6820 -0.7750  0.3614
  965SOL    HW1 2894   2.726   3.032   0.131 -1.3699  0.2830  1.3176
  965SOL    HW2 2895   2.586   3.102   0.193  0.8945 -1.6679 -0.5506
  966SOL     OW 2896   2.516   2.499   2.262 -1.0532  0.1595 -0.4839
  966SOL    HW1 2897   2.532   2.597   2.239 -0.9185 -0.5586 -2.1880
  966SOL    HW2 2898   2.420   2.468   2.234  2.0754 -0.6824 -1.3071
  967SOL     OW 2899   2.745   2.885   2.518 -0.1155 -0.9143 -0.3855
  967SOL    HW1 2900   2.736   2.809   2.448  0.7498 -1.7971 -0.8232
  967SOL    HW2 2901   2.802   2.965   2.481  0.1292  0.7537 -2.7480
  968SOL     OW 2902   1.927   1.059   2.568  0.9688  0.3317  0.4628
  968SOL    HW1 2903   1.860   1.131   2.536  1.0824  3.3100  2.7577
  968SOL    HW2 2904   1.915   0.976   2.508  1.0017 -0.8938  1.5716
  969SOL     OW 2905   2.667   2.589   1.052  0.9107 -0.1923  0.1041
  969SOL    HW1 2906   2.683   2.685   1.011 -1.3456  1.0832  0.7620
  969SOL    HW2 2907   2.677   2.512   0.984 -1.2205  0.4871  2.1771
  970SOL     OW 2908   1.048   2.126   1.862  1.2999 -0.3230  0.6288
  970SOL    HW1 2909   1.063   2.040   1.920 -0.4692  0.1300  1.9845
  970SOL    HW2 2910   1.001   2.113   1.772  0.4942 -0.6077 -0.0619
  971SOL     OW 2911   2.935   2.173   1.978 -0.3119  0.1491 -0.2799
  971SOL    HW1 2912   2.928   2.251   2.047 -2.2115 -1.2220  0.5862
  971SOL    HW2 2913   2.966   2.201   1.881  2.6297  0.8875 -0.2252
  972SOL     OW 2914   1.876   2.456   0.266  0.0075  0.1829 -0.1073
  972SOL    HW1 2915   1.863   2.362   0.230 -1.3853 -2.1556 -2.4342
  972SOL    HW2 2916   1.915   2.464   0.365 -0.4023  1.1339 -1.3226
  973SOL     OW 2917   1.127   0.884   1.896 -0.2090 -0.1546 -0.0360
  973SOL    HW1 2918   1.093   0.788   1.872  0.7233  2.0957 -0.5793
  973SOL    HW2 2919   1.070   0.964   1.858 -0.2005  0.3933 -3.2620
  974SOL     OW 2920   1.553   0.558   1.965  0.2499 -0.6084  0.1201
  974SOL    HW1 2921   1.625   0.605   1.908  0.9017 -1.1784  0.5115
  974SOL    HW2 2922   1.457   0.597   1.952 -0.6536 -1.2715  1.6545
  975SOL     OW 2923   2.393   3.010   0.035 -0.3973  0.0384 -0.4197
  975SOL    HW1 2924   2.314   2.948   0.056  1.5595  1.1320  0.8017
  975SOL    HW2 2925   2.466   2.964  -0.030 -1.6597 -0.8267  0.0963
  976SOL     OW 2926   1.935   2.740   2.334 -0.2670 -0.2009 -0.1932
  976SOL    HW1 2927   1.850   2.723   2.390 -0.1800  2.1355 -0.7308
  976SOL    HW2 2928   2.010   2.784   2.387 -2.6587 -1.2471  1.9866
  977SOL     OW 2929   0.512   0.653   0.963 -0.5046  0.3939  0.1339
  977SOL    HW1 2930   0.419   0.642   0.918 -1.3179  0.2184  1.0604
  977SOL    HW2 2931   0.565   0.735   0.928  1.3945  3.5789 -1.4030
   3.10000   3.10000   3.10000
