1000 SPC/Fw water molecules t=   0.30000 step= 300
 2931
    1SOL     OW    1   2.547   0.305   2.542 -0.3190 -0.0621  0.1825
    1SOL    HW1    2   2.559   0.202   2.523  0.2634 -0.6199 -0.8744
    1SOL    HW2    3   2.603   0.344   2.622 -0.2651  0.9172 -0.1606
    2SOL     OW    4   2.728   3.017   1.386  0.3298  0.5400 -0.4173
    2SOL    HW1    5   2.800   3.079   1.345 -2.7913 -1.5622  0.4969
    2SOL    HW2    6   2.673   3.071   1.458 -0.5627 -0.0635 -0.6490
    3SOL     OW    7   2.697   2.588   0.431 -0.3054  0.0696 -0.1415
    3SOL    HW1    8   2.678   2.486   0.422 -1.9910  0.1208 -0.2016
    3SOL    HW2    9   2.774   2.597   0.502  0.5974 -3.0877  0.6832
    4SOL     OW   10   1.335   1.495   2.392  0.1878 -0.0679 -0.1641
    4SOL    HW1   11   1.246   1.547   2.390 -0.2149  1.7869 -1.6210
    4SOL    HW2   12   1.324   1.389   2.395 -1.1061  0.0113  1.0660
    5SOL     OW   13   1.224   1.490   3.020  0.0220  0.1361 -0.1303
    5SOL    HW1   14   1.273   1.561   3.079 -1.5142 -0.2137  1.8736
    5SOL    HW2   15   1.129   1.517   2.991 -2.3259 -0.5813  0.2485
    6SOL     OW   16   0.024   1.818   2.923 -0.3528 -0.3881 -0.5061
    6SOL    HW1   17   0.001   1.852   3.016 -1.3250 -2.2170 -0.8371
    6SOL    HW2   18  -0.017   1.726   2.914 -1.0655  2.0674  0.1168
    7SOL     OW   19   2.581   0.853   1.154 -0.5199  0.9893  0.1101
    7SOL    HW1   20   2.492   0.824   1.189  2.1841  3.4421 -2.5960
    7SOL    HW2   21   2.577   0.860   1.051 -0.6047  3.1670  0.0496
    8SOL     OW   22   0.456   0.660   1.572 -0.3211 -0.6661 -0.1447
    8SOL    HW1   23   0.538   0.596   1.580  0.7000 -0.3032 -0.1331
    8SOL    HW2   24   0.378   0.615   1.528 -0.7658 -0.0604  0.2126
    9SOL     OW   25   1.193   0.972   2.278 -0.1491 -0.0275 -0.0216
    9SOL    HW1   26   1.205   1.056   2.221 -0.7611 -0.7700 -0.0196
    9SOL    HW2   27   1.142   0.897   2.219  0.7994 -0.6138  1.2299
   10SOL     OW   28   0.710   1.315   1.240  0.6278 -0.5852 -0.3898
   10SOL    HW1   29   0.615   1.355   1.225  4.9257  1.7106  0.6916
   10SOL    HW2   30   0.774   1.390   1.261  2.5772 -0.0133  0.3563
   11SOL     OW   31   2.350   2.602   0.942 -0.0346  0.3254 -0.2448
   11SOL    HW1   32   2.337   2.603   1.046  0.9255 -0.0401  1.6876
   11SOL    HW2   33   2.439   2.553   0.919 -1.4070  2.4631  2.8778
   12SOL     OW   34   1.454   0.889   0.431 -0.3113 -0.2464 -0.2692
   12SOL    HW1   35   1.398   0.915   0.347  1.7166  1.2682 -0.7151
   12SOL    HW2   36   1.421   0.800   0.472 -0.9906 -0.0019 -0.4273
   13SOL     OW   37   2.524   0.643   1.829 -0.1352 -0.2140  0.0638
   13SOL    HW1   38   2.423   0.650   1.857  0.5894  1.5463 -0.7192
   13SOL    HW2   39   2.548   0.543   1.806 -0.3468 -0.3525 -0.8394
   14SOL     OW   40   1.924   3.092   0.605  0.4434  0.3379  0.8472
   14SOL    HW1   41   1.853   3.153   0.568  0.5129 -0.0687  1.1764
   14SOL    HW2   42   1.903   3.051   0.698  2.2391 -1.9523 -0.3229
   15SOL     OW   43   1.964   2.027   2.866 -0.2171 -0.4265 -0.1775
   15SOL    HW1   44   1.915   2.115   2.887  2.5023 -0.8912 -0.9024
   15SOL    HW2   45   1.930   1.975   2.782  0.9880 -1.4926 -0.6603
   16SOL     OW   46   1.633   1.697   0.031  0.4375  0.4820 -0.4456
   16SOL    HW1   47   1.660   1.598   0.011  0.9724  0.9108 -1.5669
   16SOL    HW2   48   1.703   1.750   0.087 -0.3199  0.8883  1.2297
   17SOL     OW   49   0.137   0.421   0.162 -0.1966  0.1635 -0.0572
   17SOL    HW1   50   0.212   0.472   0.111  2.4881  1.0634  3.4794
   17SOL    HW2   51   0.041   0.431   0.124 -0.1529 -1.0368 -1.3017
   18SOL     OW   52   1.018   2.916   2.209 -0.7325 -0.1993  0.2825
   18SOL    HW1   53   0.927   2.879   2.169 -2.9089  0.0099 -0.4195
   18SOL    HW2   54   1.100   2.873   2.172 -2.7554  2.7311 -0.3209
   19SOL     OW   55   0.477   0.940   1.952 -0.2209 -0.3473  0.3617
   19SOL    HW1   56   0.434   0.953   2.047  0.7010 -1.3437  2.1327
   19SOL    HW2   57   0.563   0.879   1.951  1.4152 -1.8365  0.3224
   20SOL     OW   58   0.224   2.781   0.884 -0.3444 -0.4722  0.0247
   20SOL    HW1   59   0.136   2.822   0.850  0.8058  1.1991  0.2979
   20SOL    HW2   60   0.287   2.770   0.801  1.0113  1.9537 -2.0895
   21SOL     OW   61   2.779   0.174   2.140 -0.4316  0.3159 -0.0545
   21SOL    HW1   62   2.768   0.099   2.066  1.7809 -0.3829 -2.1194
   21SOL    HW2   63   2.797   0.132   2.234 -1.7252 -0.8420  2.3156
   22SOL     OW   64   2.325   0.188   3.076  0.0088 -0.0388 -0.1843
   22SOL    HW1   65   2.324   0.079   3.078  0.9636  0.1154  0.3294
   22SOL    HW2   66   2.229   0.224   3.089  0.3704 -0.3424 -0.7382
   23SOL     OW   67   2.777   0.662   0.668  0.5469  0.6124 -0.3463
   23SOL    HW1   68   2.760   0.567   0.624  0.1289  0.2181 -1.8723
   23SOL    HW2   69   2.783   0.731   0.594 -1.9512 -1.6641 -1.9856
   24SOL     OW   70   0.195   1.908   0.459  0.0042 -0.1514 -0.3177
   24SOL    HW1   71   0.099   1.893   0.426  4.0735  0.7045 -3.6682
   24SOL    HW2   72   0.263   1.922   0.384 -2.3512  0.5523  1.1787
   25SOL     OW   73   2.257   0.489   0.186 -0.0147 -0.3451  0.2600
   25SOL    HW1   74   2.300   0.402   0.212 -0.7090 -1.2969 -2.5829
   25SOL    HW2   75   2.255   0.494   0.081 -1.1270  0.2336 -3.3660
   26SOL     OW   76   2.515   2.184   2.107 -0.4787  0.2317  0.0364
   26SOL    HW1   77   2.600   2.223   2.157  0.2424  2.1876  0.1470
   26SOL    HW2   78   2.539   2.111   2.039 -1.6495 -0.8378  2.6728
   27SOL     OW   79   0.686   2.961   0.091  0.2694 -0.6032  0.1570
   27SOL    HW1   80   0.774   3.018   0.075 -1.2421  1.9607 -1.0181
   27SOL    HW2   81   0.615   2.974   0.019  1.3978  0.6785 -0.1583
   28SOL     OW   82   1.567   0.172   0.265  0.3954 -0.3726  0.8200
   28SOL    HW1   83   1.618   0.117   0.191  0.9217 -1.3009  0.8502
   28SOL    HW2   84   1.619   0.253   0.296 -0.4074 -2.4232 -1.3911
   29SOL     OW   85   2.025   0.606   0.270  0.0431 -0.4138  0.5459
   29SOL    HW1   86   2.020   0.689   0.336 -0.5123 -1.9614 -0.8610
   29SOL    HW2   87   2.120   0.575   0.246  0.2671 -1.2342  1.5125
   30SOL     OW   88   0.149   2.052   0.950 -0.7712 -0.4065  0.3201
   30SOL    HW1   89   0.148   2.058   0.846  0.9719  1.6901 -2.2682
   30SOL    HW2   90   0.069   2.114   0.979 -2.7218 -0.8718 -0.1884
   31SOL     OW   91   2.111   0.027   2.291  0.3721 -0.5097 -0.3602
   31SOL    HW1   92   2.093   0.023   2.394  1.9851 -1.9981  0.3059
   31SOL    HW2   93   2.035  -0.025   2.242 -1.5995  1.3886  1.2600
   32SOL     OW   94   2.906   0.138   0.130 -0.3896  0.3118 -0.0865
   32SOL    HW1   95   2.867   0.053   0.175 -0.0038 -1.4836 -0.7653
   32SOL    HW2   96   2.996   0.174   0.174  1.6238  0.7737 -0.7425
   33SOL     OW   97   0.964   0.334   0.450 -0.0403 -0.4864  0.2878
   33SOL    HW1   98   0.915   0.244   0.432  1.3134  3.7631  0.5140
   33SOL    HW2   99   1.034   0.336   0.530  1.5280 -1.6492  2.5371
   34SOL     OW  100   0.422   2.885   1.060  0.1089 -0.2775 -0.0439
   34SOL    HW1  101   0.361   2.868   0.977  0.9907  0.9184 -0.7664
   34SOL    HW2  102   0.521   2.853   1.057  0.0851 -0.1145  2.8955
   35SOL     OW  103   0.039   0.034   1.838  0.0559  0.3398  0.5177
   35SOL    HW1  104   0.042  -0.065   1.871  0.2729  0.9138  1.0024
   35SOL    HW2  105  -0.030   0.047   1.756  1.7044  0.8868  0.9902
   36SOL     OW  106   1.938   1.162   1.816  0.5592 -0.2006 -0.2998
   36SOL    HW1  107   1.994   1.110   1.741 -2.8368 -1.4139 -2.1588
   36SOL    HW2  108   1.998   1.234   1.868 -1.4850  0.6844 -0.9339
   37SOL     OW  109   1.159   0.262   0.942  0.5226 -0.4939 -0.6374
   37SOL    HW1  110   1.207   0.342   0.986  0.6805  0.8861  0.0496
   37SOL    HW2  111   1.197   0.175   0.983 -2.5527  0.4080  2.3581
   38SOL     OW  112   1.117   2.673   2.395 -0.1809 -0.4785  0.1624
   38SOL    HW1  113   1.079   2.591   2.439 -0.1758  0.3524 -1.3449
   38SOL    HW2  114   1.035   2.735   2.364 -0.7218  1.3735  1.7842
   39SOL     OW  115   2.332   1.426   3.015 -0.3654 -0.2550 -0.2946
   39SOL    HW1  116   2.420   1.369   3.001  3.5258 -1.1057 -1.1115
   39SOL    HW2  117   2.291   1.409   3.112 -1.0054 -1.5327  0.9316
   40SOL     OW  118   2.100   2.553   2.529  0.6036 -0.0892 -0.7725
   40SOL    HW1  119   2.042   2.637   2.560  0.7450  2.3392  0.8708
   40SOL    HW2  120   2.042   2.492   2.462  2.1525 -3.5069 -3.3014
   41SOL     OW  121   2.923   0.717   2.734 -0.0635  0.3133  0.0222
   41SOL    HW1  122   2.839   0.757   2.773  0.0415  2.4549 -1.6093
   41SOL    HW2  123   2.914   0.619   2.710  0.0111 -2.2112  1.6195
   42SOL     OW  124   1.793   1.740   0.609 -0.3642 -0.1327  0.3767
   42SOL    HW1  125   1.753   1.657   0.561 -0.4047 -0.9322  1.0052
   42SOL    HW2  126   1.837   1.801   0.537  2.7469  0.5644 -1.8901
   43SOL     OW  127   0.467   1.715   1.245 -0.9025  0.3585  1.0274
   43SOL    HW1  128   0.427   1.707   1.339  0.0773 -0.1109 -1.7662
   43SOL    HW2  129   0.402   1.687   1.169 -1.7420 -1.2515  1.3073
   44SOL     OW  130   1.750   2.535   0.022  0.4785  1.0274 -0.3587
   44SOL    HW1  131   1.768   2.560  -0.077 -0.3199  0.0526 -1.6860
   44SOL    HW2  132   1.833   2.532   0.080  0.2789 -0.4657  1.5516
   45SOL     OW  133   0.336   1.952   2.566 -1.0512  0.0237  0.3593
   45SOL    HW1  134   0.270   1.935   2.486 -0.2305 -0.6394  0.6015
   45SOL    HW2  135   0.405   1.873   2.575 -2.2913 -0.0394  2.1615
   46SOL     OW  136   1.155   0.635   0.194 -0.4758  0.1955  0.7898
   46SOL    HW1  137   1.217   0.693   0.133  1.0383 -2.7959  0.1329
   46SOL    HW2  138   1.083   0.685   0.247  0.7449  0.0409  1.8378
   47SOL     OW  139   0.253   2.440   1.607 -0.2931  0.3635 -0.1290
   47SOL    HW1  140   0.333   2.368   1.606  1.8279 -1.8686  0.3270
   47SOL    HW2  141   0.211   2.453   1.517  3.0849  1.0845  2.5775
   48SOL     OW  142   2.565   0.579   0.167 -0.1107  0.1907  0.5138
   48SOL    HW1  143   2.540   0.583   0.269  1.7947 -1.4260 -4.3594
   48SOL    HW2  144   2.664   0.616   0.151 -0.1290  2.0640 -2.3889
   49SOL     OW  145   0.345   0.842   1.738 -0.3224 -0.6559  0.4931
   49SOL    HW1  146   0.401   0.891   1.815  1.2145  0.4450 -1.5798
   49SOL    HW2  147   0.390   0.758   1.699 -1.1446 -0.5729  0.3729
   50SOL     OW  148   1.714   1.089   0.361 -0.0480 -0.3720  0.3344
   50SOL    HW1  149   1.698   0.987   0.343 -1.2320 -0.8629 -0.2694
   50SOL    HW2  150   1.671   1.124   0.452 -0.9808 -0.2768  5.1071
   51SOL     OW  151   3.027   1.897   0.369 -0.2216  0.0321 -0.1201
   51SOL    HW1  152   3.013   1.925   0.268 -0.5212 -2.1455 -0.5167
   51SOL    HW2  153   3.034   1.794   0.374 -0.9966  0.1193  0.0329
   52SOL     OW  154   0.774   2.004   0.509 -1.1518  0.2358  0.7825
   52SOL    HW1  155   0.686   2.047   0.543  1.6845 -0.5448  2.6462
   52SOL    HW2  156   0.804   1.921   0.566 -1.1807 -1.0739  1.5252
   53SOL     OW  157   0.006   0.368   1.539  1.0847  0.1074 -0.0367
   53SOL    HW1  158  -0.081   0.363   1.599 -1.5787 -1.4192  1.8838
   53SOL    HW2  159   0.011   0.456   1.485 -2.6495  0.2281 -1.0525
   54SOL     OW  160   1.739   0.447   3.039  0.4755 -0.0725  0.5439
   54SOL    HW1  161   1.779   0.400   3.129 -0.1120 -0.2908  0.2225
   54SOL    HW2  162   1.639   0.477   3.049 -0.4200  0.6582 -1.6567
   55SOL     OW  163   0.709   2.948   0.617 -0.3668  0.2264 -0.2390
   55SOL    HW1  164   0.686   3.047   0.642  2.4952 -0.2034 -0.3326
   55SOL    HW2  165   0.805   2.951   0.577  0.8603  1.2181 -0.4617
   56SOL     OW  166   0.465   1.548   3.039 -0.2686  0.1563 -0.6712
   56SOL    HW1  167   0.399   1.595   3.100 -1.9336 -1.1689  1.0640
   56SOL    HW2  168   0.421   1.459   3.000  0.3722 -0.2154 -1.9813
   57SOL     OW  169   1.794   2.397   2.668  0.0759  0.2389  0.0874
   57SOL    HW1  170   1.847   2.349   2.592 -0.1389  2.2764 -0.4130
   57SOL    HW2  171   1.715   2.447   2.625 -0.8001  0.1673 -0.9989
   58SOL     OW  172   0.616   0.457   1.116  0.1431 -0.2726  0.3638
   58SOL    HW1  173   0.550   0.531   1.097  4.5045 -1.7815  0.4105
   58SOL    HW2  174   0.561   0.380   1.150  1.4157  0.5946  0.5056
   59SOL     OW  175   0.471   2.403   2.680 -0.7888 -0.1910  0.2637
   59SOL    HW1  176   0.494   2.300   2.676  1.9523  0.0494  0.2435
   59SOL    HW2  177   0.537   2.457   2.743  1.6012  0.8535  0.1320
   60SOL     OW  178   2.311   2.146   2.284  0.0262 -0.2501 -0.1190
   60SOL    HW1  179   2.382   2.169   2.209 -1.1234  0.9085 -1.6853
   60SOL    HW2  180   2.336   2.183   2.377 -2.1102 -0.3449  1.3007
   61SOL     OW  181   1.410   0.618   0.475  0.0177  0.8248  0.2149
   61SOL    HW1  182   1.306   0.636   0.488  0.1235  1.0235 -3.5777
   61SOL    HW2  183   1.436   0.584   0.376  0.3822  0.5657 -0.1128
   62SOL     OW  184   2.642   1.872   3.090 -0.3703 -0.4560 -0.2938
   62SOL    HW1  185   2.656   1.770   3.106 -0.9057 -0.5378 -1.6215
   62SOL    HW2  186   2.648   1.898   2.993  1.4620 -3.1113  0.1600
   63SOL     OW  187   0.512   0.832   0.164 -0.4893  0.3791 -0.1784
   63SOL    HW1  188   0.474   0.923   0.131 -1.6500  0.0992 -0.2723
   63SOL    HW2  189   0.603   0.849   0.211 -0.3455  0.1893 -0.7341
   64SOL     OW  190   0.100   0.467   2.517  0.0175 -0.0985 -0.6247
   64SOL    HW1  191   0.184   0.506   2.552  2.1383 -1.4685  0.6462
   64SOL    HW2  192   0.053   0.536   2.458 -2.3639  0.3806  2.7944
   65SOL     OW  193   0.205   1.453   0.664  0.5677  0.5075  0.1171
   65SOL    HW1  194   0.177   1.541   0.709  0.5569 -0.3090 -3.9734
   65SOL    HW2  195   0.299   1.466   0.621  1.1688  2.5363  0.4473
   66SOL     OW  196   2.514   0.415   0.678  0.5769  0.0349 -1.0723
   66SOL    HW1  197   2.448   0.489   0.715 -0.3185  1.8339  1.9843
   66SOL    HW2  198   2.480   0.322   0.693  2.4698  1.2132  0.2288
   67SOL     OW  199   0.510   2.502   1.348  0.1488 -0.0522  0.3025
   67SOL    HW1  200   0.577   2.499   1.423 -3.2239  0.7136 -0.2251
   67SOL    HW2  201   0.480   2.410   1.310  0.8387  0.3408 -0.0403
   68SOL     OW  202   0.999   1.101   2.463  0.4976 -0.0532  0.2659
   68SOL    HW1  203   1.064   1.041   2.411 -0.2258  1.3101  2.3855
   68SOL    HW2  204   0.917   1.133   2.408 -0.1645 -0.0942  3.6187
   69SOL     OW  205   0.765   2.695   2.138  0.5648  0.0503 -0.5448
   69SOL    HW1  206   0.792   2.609   2.191 -2.8684  2.3280 -2.1491
   69SOL    HW2  207   0.659   2.715   2.143 -1.2558  1.9328  0.2991
   70SOL     OW  208   0.628   0.265   2.727  0.3749  0.2288  0.2335
   70SOL    HW1  209   0.589   0.288   2.822  1.7213  1.4253  1.3300
   70SOL    HW2  210   0.594   0.173   2.688  1.7271 -0.1774  0.6389
   71SOL     OW  211   1.105   1.785   0.338  0.4815  0.0431  0.1316
   71SOL    HW1  212   1.058   1.702   0.369  0.3111  1.2915  0.2417
   71SOL    HW2  213   1.118   1.798   0.234  3.0644  1.6150 -0.0974
   72SOL     OW  214   1.805   0.128   2.111  0.1628  0.2677  0.5196
   72SOL    HW1  215   1.873   0.138   2.032 -0.3159  0.5810 -1.3178
   72SOL    HW2  216   1.802   0.030   2.142  0.6125 -2.8227  0.9950
   73SOL     OW  217   2.787   2.190   2.507 -0.4378 -0.1656  0.1644
   73SOL    HW1  218   2.792   2.086   2.475  0.6518 -0.5581 -2.3741
   73SOL    HW2  219   2.840   2.216   2.590 -2.2173  2.5530 -3.6634
   74SOL     OW  220   2.739   2.989   2.048  0.1073 -0.3344 -0.0711
   74SOL    HW1  221   2.655   2.998   2.107  0.7332 -0.4754 -0.1205
   74SOL    HW2  222   2.829   3.005   2.099  1.7263 -1.1825 -0.5580
   75SOL     OW  223   0.908   0.758   1.018 -0.3644 -0.3842  0.0487
   75SOL    HW1  224   0.828   0.811   0.986  1.9035 -1.5230  2.2276
   75SOL    HW2  225   0.941   0.793   1.111  0.9504 -2.3191  2.2676
   76SOL     OW  226   1.737   1.243   2.576 -0.1040 -0.2309  0.2985
   76SOL    HW1  227   1.645   1.196   2.582 -0.2595  1.1340 -0.4139
   76SOL    HW2  228   1.736   1.339   2.622  0.9358  4.6144  0.3659
   77SOL     OW  229   2.945   0.989   0.968 -0.5742  0.0805 -0.5325
   77SOL    HW1  230   2.883   0.903   0.956 -2.7294 -0.3829 -3.3019
   77SOL    HW2  231   3.019   0.987   1.042 -1.4779  0.4033  1.0522
   78SOL     OW  232   1.967   1.407   1.513 -0.6486 -0.2131  0.1458
   78SOL    HW1  233   2.052   1.419   1.453 -3.4070 -0.5396  0.1136
   78SOL    HW2  234   1.884   1.382   1.455  0.6992  0.9110  2.2247
   79SOL     OW  235   0.606   1.338   0.827 -0.0885  0.6070 -0.2365
   79SOL    HW1  236   0.514   1.365   0.860 -0.5508 -0.3962  0.1109
   79SOL    HW2  237   0.599   1.278   0.740  0.2567  0.2182 -2.8523
   80SOL     OW  238   0.671   0.500   1.587 -0.0981 -0.3592 -0.1079
   80SOL    HW1  239   0.695   0.557   1.503 -0.9671  0.9084 -1.3091
   80SOL    HW2  240   0.692   0.401   1.572 -1.2838 -1.2466 -0.7614
   81SOL     OW  241   1.027   1.385   2.636 -0.8781 -0.5329 -0.3695
   81SOL    HW1  242   1.017   1.281   2.661 -2.2925 -1.8102 -0.3247
   81SOL    HW2  243   0.959   1.420   2.565 -1.2589  1.2591  1.3231
   82SOL     OW  244   0.950   2.994   1.535  0.5543 -0.3849  0.4086
   82SOL    HW1  245   1.026   2.918   1.542  0.7953 -1.3597 -2.3937
   82SOL    HW2  246   0.858   2.954   1.498 -1.5777 -0.0076 -0.3540
   83SOL     OW  247   2.746   2.492   0.792 -0.2896 -0.0024  0.1778
   83SOL    HW1  248   2.662   2.460   0.746  1.1212  2.2186  0.4911
   83SOL    HW2  249   2.796   2.576   0.750 -0.7372  1.6743  0.5961
   84SOL     OW  250   0.723   0.023   2.417 -0.0431  0.2646 -0.1073
   84SOL    HW1  251   0.637  -0.020   2.456 -0.4333 -2.2592 -0.2789
   84SOL    HW2  252   0.802  -0.039   2.425 -1.6418  1.5267 -1.3906
   85SOL     OW  253   0.393   1.691   1.509  0.3653  0.4333 -0.4079
   85SOL    HW1  254   0.321   1.765   1.505  0.9061 -1.7457  2.4794
   85SOL    HW2  255   0.388   1.636   1.599 -0.2747 -0.6282 -2.1757
   86SOL     OW  256   0.352   0.989   1.476  0.3575 -0.1472  0.0429
   86SOL    HW1  257   0.337   0.940   1.385 -0.4222 -0.4631  0.5149
   86SOL    HW2  258   0.362   0.921   1.552  0.6244  1.6449  0.1644
   87SOL     OW  259   1.549   0.607   0.233 -0.7748  0.5095  0.6133
   87SOL    HW1  260   1.621   0.679   0.244  0.2772 -2.8765 -0.2890
   87SOL    HW2  261   1.509   0.594   0.136  0.6395 -2.9061 -0.0641
   88SOL     OW  262   1.576   1.255   0.205 -0.4252  0.4259  0.0462
   88SOL    HW1  263   1.625   1.191   0.268 -3.6310  0.4409  3.3343
   88SOL    HW2  264   1.474   1.256   0.214  0.2420  0.2626 -0.6303
   89SOL     OW  265   3.028   0.446   0.573  0.9955 -0.0259  0.0681
   89SOL    HW1  266   3.077   0.361   0.590 -2.1201  0.9628 -1.1607
   89SOL    HW2  267   2.926   0.427   0.588  1.3990 -0.5661 -2.1661
   90SOL     OW  268   0.965   1.661   3.027 -0.1829 -0.0043 -0.4777
   90SOL    HW1  269   0.881   1.660   3.091 -2.2591 -0.2981  0.9724
   90SOL    HW2  270   0.931   1.670   2.928 -1.5017 -2.1937 -0.2609
   91SOL     OW  271   1.297   1.488   1.774  0.2486 -0.3895  0.1796
   91SOL    HW1  272   1.319   1.581   1.810 -0.7617 -0.5558 -0.1851
   91SOL    HW2  273   1.378   1.430   1.736  2.5901 -0.8472  2.3813
   92SOL     OW  274   0.037   1.051   1.190 -0.6876  0.2420  0.3399
   92SOL    HW1  275   0.118   1.088   1.137 -3.9386  2.3817  1.3894
   92SOL    HW2  276   0.058   1.032   1.291 -3.1821 -0.7726  0.7622
   93SOL     OW  277   0.013   2.807   0.068 -0.5315 -0.8798  0.0198
   93SOL    HW1  278  -0.014   2.837  -0.030 -0.8062  1.6270 -0.9903
   93SOL    HW2  279   0.056   2.713   0.062 -0.0814 -2.6293  0.7933
   94SOL     OW  280   1.508   1.348   1.678 -0.3406  0.3754 -0.0131
   94SOL    HW1  281   1.529   1.249   1.699  1.8917 -0.3667 -0.4155
   94SOL    HW2  282   1.569   1.418   1.729 -1.2678  0.2637  0.2435
   95SOL     OW  283   1.327   2.471   2.917 -0.4994  0.0111  0.3317
   95SOL    HW1  284   1.262   2.472   3.000 -0.5126  0.8585  0.7662
   95SOL    HW2  285   1.336   2.373   2.871  1.0188 -1.1340 -0.3595
   96SOL     OW  286   0.515   2.016   1.204  0.6521  0.0394  0.3110
   96SOL    HW1  287   0.484   2.051   1.109 -0.2029 -3.6164 -0.9030
   96SOL    HW2  288   0.482   1.917   1.224  1.2834 -0.9788 -1.0388
   97SOL     OW  289   0.383   1.451   2.516  0.5048  0.5520  0.6591
   97SOL    HW1  290   0.279   1.441   2.505  1.0818  2.3333 -1.5974
   97SOL    HW2  291   0.404   1.539   2.569 -4.8018  1.2255 -0.8416
   98SOL     OW  292   2.010   1.666   1.313 -0.1316  0.0136 -0.0188
   98SOL    HW1  293   2.036   1.596   1.244 -2.9458  2.9774 -1.4078
   98SOL    HW2  294   1.953   1.634   1.394 -0.8690 -3.5494  1.9423
   99SOL     OW  295   2.489   2.141   1.336  0.2366  0.0448  0.6739
   99SOL    HW1  296   2.493   2.187   1.429  3.8964 -1.2289 -0.2013
   99SOL    HW2  297   2.456   2.041   1.333 -2.9991  1.9726 -0.9252
  100SOL     OW  298   2.310   0.365   2.027  0.8080  0.1100 -0.2529
  100SOL    HW1  299   2.260   0.354   2.115  3.1769  2.3164 -0.6030
  100SOL    HW2  300   2.408   0.401   2.051 -1.7004 -0.7655 -0.3819
  101SOL     OW  301   0.398   1.481   0.296 -0.7515  0.4345 -0.2580
  101SOL    HW1  302   0.438   1.495   0.392 -2.8426  0.4403  1.5805
  101SOL    HW2  303   0.366   1.571   0.253  0.7127  0.7550 -0.3176
  102SOL     OW  304   2.308   1.084   0.803  0.0434  0.2319  0.1073
  102SOL    HW1  305   2.240   1.014   0.779  0.6345  1.7760  3.9398
  102SOL    HW2  306   2.346   1.139   0.719 -0.9002 -0.2400 -2.0235
  103SOL     OW  307   2.299   0.051   0.417  0.4735 -0.3495 -0.2849
  103SOL    HW1  308   2.356   0.127   0.365  0.8447 -2.7222  0.4748
  103SOL    HW2  309   2.347   0.010   0.498  0.1836  0.6440 -1.8674
  104SOL     OW  310   0.075   1.873   2.105 -0.6461 -0.1672 -0.6585
  104SOL    HW1  311   0.102   1.823   2.023  2.8948  0.1184  4.0140
  104SOL    HW2  312  -0.026   1.897   2.112 -0.6254 -0.3756 -0.0311
  105SOL     OW  313   1.153   1.957   0.835  0.9409  0.6094 -0.4172
  105SOL    HW1  314   1.100   2.005   0.760  1.1140 -1.0172 -1.5730
  105SOL    HW2  315   1.211   1.881   0.795  2.4597  0.0716  0.4551
  106SOL     OW  316   2.081   0.425   1.368  0.2178  0.3293 -0.1734
  106SOL    HW1  317   2.004   0.360   1.388 -2.4163  1.3205  0.9278
  106SOL    HW2  318   2.071   0.520   1.409 -0.2420  0.4411  1.6784
  107SOL     OW  319   1.817   3.038   1.072 -0.3371  0.3280  0.1658
  107SOL    HW1  320   1.861   3.097   1.143  0.6963 -0.2197 -0.0546
  107SOL    HW2  321   1.778   2.947   1.108  0.0473  1.2811 -0.8204
  108SOL     OW  322   0.760   2.643   1.308  0.1085  0.1645 -0.2982
  108SOL    HW1  323   0.727   2.724   1.367  2.7009 -2.8030  0.7729
  108SOL    HW2  324   0.864   2.628   1.316  0.2594  1.0292 -1.9536
  109SOL     OW  325   2.135   0.104   0.764  0.5743  0.0849  0.4948
  109SOL    HW1  326   2.063   0.075   0.695  3.3395  0.7341 -0.7025
  109SOL    HW2  327   2.132   0.057   0.856 -1.0745  1.2714  0.8776
  110SOL     OW  328   0.472   2.814   2.736 -0.1025  0.0687  0.5224
  110SOL    HW1  329   0.477   2.851   2.639 -2.6635  0.4177  2.0346
  110SOL    HW2  330   0.549   2.754   2.762 -1.0527  0.8231 -1.0690
  111SOL     OW  331   1.309   0.518   2.278  0.6921  0.1999 -0.3856
  111SOL    HW1  332   1.227   0.563   2.319 -0.4235  1.7611  1.0224
  111SOL    HW2  333   1.350   0.437   2.334  1.8769 -1.2394  1.8144
  112SOL     OW  334   1.740   0.505   1.398  0.0845  0.4731 -0.4070
  112SOL    HW1  335   1.723   0.508   1.294  2.4975 -0.9459  1.3745
  112SOL    HW2  336   1.704   0.417   1.438  2.6705  0.6918  2.0456
  113SOL     OW  337   2.328   1.636   1.705  0.2803 -0.6775  0.1406
  113SOL    HW1  338   2.394   1.557   1.691  3.4681 -0.3543  0.0394
  113SOL    HW2  339   2.322   1.668   1.801 -1.6576  2.4154 -3.1579
  114SOL     OW  340   0.311   0.560   1.305 -0.3807 -0.3557  0.1913
  114SOL    HW1  341   0.337   0.659   1.281  0.7462  0.2961  1.0600
  114SOL    HW2  342   0.243   0.526   1.235 -0.6442  0.3388  1.2963
  115SOL     OW  343   2.609   1.574   1.203  0.1975  0.6805  0.0815
  115SOL    HW1  344   2.655   1.489   1.246 -0.6307 -0.1909 -2.6537
  115SOL    HW2  345   2.674   1.621   1.134  1.6822  0.7050  1.3348
  116SOL     OW  346   1.814   1.077   0.754 -0.3705 -0.6761  0.5931
  116SOL    HW1  347   1.758   1.019   0.688 -0.4658  0.9156 -0.0767
  116SOL    HW2  348   1.770   1.167   0.788  1.8724 -1.3634 -0.5447
  117SOL     OW  349   1.126   0.362   0.669 -0.2245 -0.3504  0.6083
  117SOL    HW1  350   1.118   0.342   0.769 -1.3353  0.1445 -1.0340
  117SOL    HW2  351   1.185   0.445   0.645 -1.2884  1.4945 -0.6449
  118SOL     OW  352   1.097   1.094   1.142  0.4097 -0.5119  0.2198
  118SOL    HW1  353   1.070   1.017   1.208  0.3504  1.2385  1.2536
  118SOL    HW2  354   1.084   1.184   1.194 -1.6179  3.5075  1.2676
  119SOL     OW  355   1.834   1.622   2.056 -0.2446 -0.5292  0.6771
  119SOL    HW1  356   1.802   1.715   2.101  0.8720  0.8139 -2.1233
  119SOL    HW2  357   1.935   1.603   2.066  2.7280  1.2353 -0.6728
  120SOL     OW  358   2.993   2.808   0.312  0.5696  0.5202 -0.5715
  120SOL    HW1  359   3.020   2.812   0.210 -0.7762 -1.7799 -2.7236
  120SOL    HW2  360   2.999   2.715   0.351 -0.2203  2.2494 -1.8378
  121SOL     OW  361   2.010   0.709   2.178  0.0748 -0.2899  0.0338
  121SOL    HW1  362   2.007   0.753   2.085 -3.0219  0.9491 -1.1522
  121SOL    HW2  363   1.993   0.604   2.178  2.2483  0.2211  0.4522
  122SOL     OW  364   2.742   2.575   1.371 -0.4853  0.7621 -0.5049
  122SOL    HW1  365   2.738   2.579   1.268 -0.7847  0.1241  3.5847
  122SOL    HW2  366   2.760   2.481   1.407  1.0613 -0.4144  0.2957
  123SOL     OW  367   1.720   0.044   1.700  0.0658  0.5689  0.7467
  123SOL    HW1  368   1.746   0.016   1.606  2.5380  1.2006  0.3449
  123SOL    HW2  369   1.801   0.060   1.763 -1.8133 -1.2489  0.9832
  124SOL     OW  370   0.134   0.493   1.088 -0.5727 -0.1212  0.1044
  124SOL    HW1  371   0.092   0.584   1.127 -0.7702  0.5956  3.4169
  124SOL    HW2  372   0.115   0.485   0.987  0.8345 -2.8836 -1.9849
  125SOL     OW  373   0.876   1.773   0.672 -0.3190  0.4112 -0.3767
  125SOL    HW1  374   0.978   1.759   0.651 -0.7417  1.4368 -1.0710
  125SOL    HW2  375   0.854   1.749   0.768  1.0505 -0.7435  1.0093
  126SOL     OW  376   1.907   2.388   2.398 -0.0481  0.2616  0.2353
  126SOL    HW1  377   1.952   2.317   2.336  1.1638  1.3363 -0.8286
  126SOL    HW2  378   1.805   2.368   2.408 -1.2476 -0.1892 -0.2324
  127SOL     OW  379   0.802   0.971   0.186 -0.7053 -0.2299  0.4108
  127SOL    HW1  380   0.837   1.023   0.268 -0.6620  0.7880  0.5441
  127SOL    HW2  381   0.849   0.878   0.186 -0.1742  1.0879 -0.0012
  128SOL     OW  382   0.966   0.171   1.473 -0.3297  0.0398 -0.7364
  128SOL    HW1  383   0.888   0.229   1.431  0.3325  2.2845  0.1517
  128SOL    HW2  384   0.956   0.067   1.461 -3.0156  0.9711  2.9880
  129SOL     OW  385   1.854   0.677   1.873  0.1773 -0.2438 -0.0833
  129SOL    HW1  386   1.887   0.676   1.781  1.9311  1.9167  0.2205
  129SOL    HW2  387   1.871   0.770   1.913 -0.1941 -1.0151 -2.3952
  130SOL     OW  388   1.337   2.091   1.025 -0.1933  0.5675 -0.2599
  130SOL    HW1  389   1.269   2.042   0.962  0.2643  0.7099  1.7814
  130SOL    HW2  390   1.361   2.187   0.992  1.7522  1.9858  1.1061
  131SOL     OW  391   0.003   1.513   1.391  0.1076 -0.4442 -0.4201
  131SOL    HW1  392  -0.060   1.431   1.373 -0.2194 -0.2584 -0.2333
  131SOL    HW2  393   0.104   1.488   1.394 -1.3872  0.7377  2.4604
  132SOL     OW  394   1.940   2.454   0.514  0.4645 -0.6275  0.0661
  132SOL    HW1  395   1.839   2.440   0.539 -2.2935  2.4463 -1.3655
  132SOL    HW2  396   2.002   2.397   0.572  0.6646 -1.3556  0.3106
  133SOL     OW  397   1.826   2.266   2.926  0.7784  0.0040  0.3944
  133SOL    HW1  398   1.891   2.335   2.966 -1.9376  0.6815 -0.1454
  133SOL    HW2  399   1.790   2.293   2.828 -3.0662  0.9153 -1.1209
  134SOL     OW  400   2.697   2.361   1.598  0.3593  0.2282  0.3218
  134SOL    HW1  401   2.629   2.333   1.668 -0.0028 -1.9581 -2.0031
  134SOL    HW2  402   2.786   2.396   1.641  2.4882 -0.9394 -0.7515
  135SOL     OW  403   0.729   1.547   2.585  0.1590 -0.0058  0.4920
  135SOL    HW1  404   0.702   1.467   2.637  1.4761 -3.0579  0.2428
  135SOL    HW2  405   0.794   1.534   2.502 -1.2324 -0.8330  0.0495
  136SOL     OW  406   1.198   2.025   0.482  0.2525 -0.4680 -0.2502
  136SOL    HW1  407   1.126   2.071   0.542 -0.3136  1.1957  1.0405
  136SOL    HW2  408   1.150   1.953   0.423 -1.1327  0.1606 -0.3624
  137SOL     OW  409   0.393   1.062   2.190  0.1323 -0.1866 -0.3034
  137SOL    HW1  410   0.297   1.086   2.220 -0.4339 -1.4483 -0.6034
  137SOL    HW2  411   0.449   1.004   2.258  1.6342 -4.1707 -0.6564
  138SOL     OW  412   2.450   1.485   0.225  0.3506  0.1825 -0.6135
  138SOL    HW1  413   2.348   1.484   0.201 -1.6458  1.8581 -1.4203
  138SOL    HW2  414   2.478   1.403   0.284  0.2953 -2.5559 -1.1730
  139SOL     OW  415   1.790   2.606   1.208  0.3557  0.3288 -0.5634
  139SOL    HW1  416   1.694   2.567   1.190  2.7969  1.2386 -1.3143
  139SOL    HW2  417   1.850   2.532   1.254  1.4175 -0.7137 -0.1402
  140SOL     OW  418   2.981   2.974   2.491  0.3992 -0.7474 -0.2289
  140SOL    HW1  419   3.044   2.894   2.469 -3.4918  0.2081 -2.2179
  140SOL    HW2  420   3.040   3.057   2.513  0.3108 -0.2212 -3.2766
  141SOL     OW  421   1.210   1.634   1.545  0.3355  0.4989 -0.7314
  141SOL    HW1  422   1.175   1.715   1.596 -3.0044  0.0111  1.4135
  141SOL    HW2  423   1.253   1.568   1.611 -1.1111 -1.4603  1.3194
  142SOL     OW  424   1.571   0.629   2.269 -0.1271 -0.1951  0.0583
  142SOL    HW1  425   1.596   0.616   2.168 -1.4319 -2.6952 -0.3808
  142SOL    HW2  426   1.478   0.600   2.298  1.4347 -0.1231  0.6454
  143SOL     OW  427   2.731   0.888   0.504 -0.5604  0.7758  0.2520
  143SOL    HW1  428   2.772   0.908   0.413  0.3064 -1.2275  1.7510
  143SOL    HW2  429   2.784   0.938   0.579 -3.9016 -0.3255  2.1935
  144SOL     OW  430   2.986   1.273   1.364  0.8477  0.5323 -0.7463
  144SOL    HW1  431   2.959   1.242   1.462  0.9516  0.3191 -0.5887
  144SOL    HW2  432   3.026   1.191   1.318  0.9656  0.6164  1.9814
  145SOL     OW  433   1.074   1.880   0.061 -0.2810 -0.5472 -0.3975
  145SOL    HW1  434   1.086   1.965   0.003  0.2139 -1.2132 -0.6753
  145SOL    HW2  435   1.055   1.794   0.009 -0.0202  1.4383  1.3045
  146SOL     OW  436   2.535   0.638   1.491 -0.8050  0.0840  0.6266
  146SOL    HW1  437   2.488   0.554   1.444  0.5529 -3.8325 -1.5801
  146SOL    HW2  438   2.468   0.718   1.485 -1.3218 -0.3535 -1.0366
  147SOL     OW  439   1.034   2.527   0.597  0.1941  0.1721 -0.2902
  147SOL    HW1  440   1.021   2.578   0.512 -0.3559 -1.3253  0.0572
  147SOL    HW2  441   1.112   2.457   0.590 -0.1503 -2.4851  0.8984
  148SOL     OW  442   1.652   1.425   3.098  0.5317  0.1249 -0.1579
  148SOL    HW1  443   1.679   1.358   3.021 -0.6150  1.7619 -0.0224
  148SOL    HW2  444   1.607   1.370   3.170  2.7863  2.2616 -0.0656
  149SOL     OW  445   0.664   1.404   1.972  0.5505  0.2410 -0.4422
  149SOL    HW1  446   0.572   1.394   2.024 -0.8425  0.3302  0.5727
  149SOL    HW2  447   0.689   1.321   1.913  1.0824 -0.0652 -0.7742
  150SOL     OW  448   2.973   1.265   0.950 -0.3949  0.1390  0.0329
  150SOL    HW1  449   3.054   1.316   0.988 -1.0817 -2.0203  1.0499
  150SOL    HW2  450   2.985   1.160   0.963 -1.0551  0.1950  0.5061
  151SOL     OW  451   0.198   0.767   2.138  0.2625  0.0746  0.4604
  151SOL    HW1  452   0.151   0.853   2.108  1.8680 -0.4779  0.7079
  151SOL    HW2  453   0.237   0.714   2.062  0.5651  1.7488  3.7144
  152SOL     OW  454   1.411   1.748   1.264 -0.3312 -0.3330 -0.1641
  152SOL    HW1  455   1.402   1.780   1.360  1.0137  1.0462  0.7592
  152SOL    HW2  456   1.353   1.810   1.204 -0.9191  1.9471 -0.1364
  153SOL     OW  457   0.041   1.538   0.162 -0.3501  0.3418 -0.6137
  153SOL    HW1  458   0.027   1.435   0.155 -1.9437 -0.1055 -0.2199
  153SOL    HW2  459   0.070   1.560   0.263  1.5759  0.1238 -2.2050
  154SOL     OW  460   2.413   1.879   2.827 -0.6377  0.0444 -0.2358
  154SOL    HW1  461   2.422   1.775   2.844 -0.4667 -3.1956 -0.2924
  154SOL    HW2  462   2.444   1.904   2.728  0.5224  0.4047 -1.8426
  155SOL     OW  463   2.496   1.262   0.360 -0.2241 -0.1014 -0.5999
  155SOL    HW1  464   2.579   1.247   0.304 -2.7189  1.5839 -0.6952
  155SOL    HW2  465   2.433   1.180   0.368 -0.2444  3.1461 -0.5625
  156SOL     OW  466   2.543   0.931   0.870  0.1664 -0.1201 -0.0054
  156SOL    HW1  467   2.451   0.981   0.857  1.1548 -3.3502 -0.2468
  156SOL    HW2  468   2.621   0.997   0.851  1.4266  0.5650  2.2440
  157SOL     OW  469   1.253   3.011   3.007 -0.6406 -0.4408 -0.6303
  157SOL    HW1  470   1.323   2.988   2.934 -0.7280  1.8216 -3.2522
  157SOL    HW2  471   1.272   3.113   3.034 -0.1626  1.6515  1.3934
  158SOL     OW  472   1.050   1.879   2.030 -0.2516 -0.4788  0.1479
  158SOL    HW1  473   1.081   1.841   2.120 -0.5171  0.4768 -2.2846
  158SOL    HW2  474   0.959   1.932   2.037  0.5994  0.6607 -2.2268
  159SOL     OW  475   0.851   0.385   1.296  0.0227  0.1434 -0.3532
  159SOL    HW1  476   0.832   0.487   1.322  1.4435  1.7018 -0.4586
  159SOL    HW2  477   0.778   0.351   1.229  0.3873  0.8336 -0.2441
  160SOL     OW  478   1.460   2.463   1.649  0.4489  0.5619 -0.2754
  160SOL    HW1  479   1.449   2.547   1.595  0.2099 -0.8326 -1.4478
  160SOL    HW2  480   1.539   2.398   1.621 -0.7704  1.1204  1.6154
  161SOL     OW  481   0.132   2.919   0.325 -0.1161 -0.8656  0.5725
  161SOL    HW1  482   0.043   2.886   0.363  0.3087  1.2768  0.3261
  161SOL    HW2  483   0.130   2.996   0.255  0.9310  4.1036 -1.7033
  162SOL     OW  484   2.590   1.907   0.501  0.4016 -0.0357 -0.2657
  162SOL    HW1  485   2.566   1.842   0.422  0.5851  3.0469 -1.0856
  162SOL    HW2  486   2.594   1.857   0.588  0.6288  1.5190 -1.9013
  163SOL     OW  487   1.963   2.689   0.737  0.0998 -0.6203 -0.4851
  163SOL    HW1  488   1.932   2.728   0.647 -0.2638 -0.8100  0.6948
  163SOL    HW2  489   2.019   2.606   0.732  0.0262 -0.5090 -0.2537
  164SOL     OW  490   3.036   0.298   1.211 -0.0871  0.3828 -0.2857
  164SOL    HW1  491   3.071   0.384   1.172 -1.2460  0.7600 -0.7228
  164SOL    HW2  492   3.104   0.250   1.272  1.6960  0.6894 -1.3786
  165SOL     OW  493   0.984   1.479   0.670 -0.1054  0.1442  0.0004
  165SOL    HW1  494   0.905   1.515   0.729 -0.1088  2.3239  3.5065
  165SOL    HW2  495   0.964   1.477   0.569  0.0042 -0.5476  0.1613
  166SOL     OW  496   1.419   1.063   1.755  0.3048  0.2691 -0.0729
  166SOL    HW1  497   1.335   1.027   1.797 -2.7758  0.4900  0.7523
  166SOL    HW2  498   1.498   1.063   1.818  0.3530 -0.0128 -1.7012
  167SOL     OW  499   0.877   1.935   1.538 -0.4860  0.5483  0.0187
  167SOL    HW1  500   0.853   1.985   1.628 -2.0152 -0.3640  1.0694
  167SOL    HW2  501   0.810   1.860   1.516  1.1300 -1.4546 -1.6801
  168SOL     OW  502   1.540   2.383   0.141  0.1876 -0.2767  0.0016
  168SOL    HW1  503   1.612   2.433   0.082  2.1944  1.2021  3.0579
  168SOL    HW2  504   1.588   2.328   0.220 -0.1487 -1.3878  1.1654
  169SOL     OW  505   0.178   2.573   2.202  0.1550  0.5054  0.0494
  169SOL    HW1  506   0.239   2.513   2.145 -1.8334 -1.4726 -1.0578
  169SOL    HW2  507   0.151   2.524   2.292 -1.3093 -2.1782  1.1944
  170SOL     OW  508   1.269   0.273   1.900  0.1036 -0.1819  0.3070
  170SOL    HW1  509   1.290   0.255   1.999  0.3058  1.7682 -1.5821
  170SOL    HW2  510   1.222   0.195   1.847 -1.0974 -0.3124 -1.3599
  171SOL     OW  511   0.265   0.789   2.425 -0.0939 -0.3627 -0.2437
  171SOL    HW1  512   0.168   0.794   2.457 -0.6611  0.2836  1.9221
  171SOL    HW2  513   0.274   0.779   2.328 -0.2281  2.7390  2.2696
  172SOL     OW  514   0.891   1.144   2.938 -0.0074  0.6682  0.2021
  172SOL    HW1  515   0.990   1.160   2.972  1.2475 -0.6432 -0.3173
  172SOL    HW2  516   0.883   1.113   2.837 -0.1804 -0.8760 -2.6894
  173SOL     OW  517   0.667   2.691   0.172 -0.0138 -0.1597 -0.1078
  173SOL    HW1  518   0.668   2.794   0.140 -2.0298  2.2447  0.9153
  173SOL    HW2  519   0.580   2.638   0.148  0.0270 -0.1697 -0.0566
  174SOL     OW  520   1.382   2.760   1.055  0.7076  0.1958  0.2706
  174SOL    HW1  521   1.379   2.850   0.996  0.3639 -0.5266 -1.6621
  174SOL    HW2  522   1.309   2.692   1.025  0.9874  2.0550  1.2969
  175SOL     OW  523   0.392   0.009   1.674 -0.0289  0.3624 -0.3112
  175SOL    HW1  524   0.445   0.069   1.738  0.6840 -1.0374 -1.3380
  175SOL    HW2  525   0.324   0.069   1.624 -0.5228  1.9008 -1.0526
  176SOL     OW  526   2.521   0.382   3.065 -0.8919  0.3295  0.3447
  176SOL    HW1  527   2.509   0.459   3.131  3.5056  1.0026  0.6984
  176SOL    HW2  528   2.444   0.318   3.061 -1.3702 -3.4193  1.6165
  177SOL     OW  529   0.389   0.393   0.920  0.0858 -0.2266  0.3905
  177SOL    HW1  530   0.458   0.418   0.994  3.1942 -0.7767 -0.0714
  177SOL    HW2  531   0.291   0.394   0.956 -2.3458 -2.5888 -0.2225
  178SOL     OW  532   0.024   2.730   2.591  0.1219 -0.3355 -0.0973
  178SOL    HW1  533  -0.064   2.694   2.632  0.9021 -0.2204 -1.2016
  178SOL    HW2  534   0.100   2.725   2.664 -0.4377 -2.0442  1.9737
  179SOL     OW  535   0.025   1.701   1.147  0.3098 -0.0686 -0.1216
  179SOL    HW1  536  -0.045   1.782   1.136  0.4569  0.3009  1.3622
  179SOL    HW2  537   0.011   1.642   1.229 -0.7218  2.8016  2.0352
  180SOL     OW  538   0.208   1.274   1.829  0.4560  0.4417  0.3124
  180SOL    HW1  539   0.304   1.295   1.799  0.3052 -0.9162 -4.6396
  180SOL    HW2  540   0.179   1.338   1.914  0.5302  0.7395  2.5111
  181SOL     OW  541   3.012   1.832   2.540  0.4110  0.2993 -0.0440
  181SOL    HW1  542   3.095   1.856   2.475  0.7179 -2.2633  2.8703
  181SOL    HW2  543   2.924   1.883   2.529 -4.3105 -1.6387  0.2635
  182SOL     OW  544   2.335   1.201   1.203  0.1243 -0.1179  0.0313
  182SOL    HW1  545   2.264   1.169   1.132  0.8852  1.2628  1.0404
  182SOL    HW2  546   2.346   1.307   1.197 -1.8425  0.8247 -0.1322
  183SOL     OW  547   1.484   2.278   2.551  0.0086 -0.1096  0.0390
  183SOL    HW1  548   1.391   2.238   2.539  2.0666  2.9982  0.9492
  183SOL    HW2  549   1.562   2.217   2.577 -1.5746 -0.8809  1.2236
  184SOL     OW  550   2.056   0.931   0.754 -0.3811 -0.2070  0.7716
  184SOL    HW1  551   1.976   0.992   0.768  2.8735  0.3436 -1.2505
  184SOL    HW2  552   2.058   0.850   0.819 -0.3254 -1.3643  0.6942
  185SOL     OW  553   1.648   2.713   2.101 -0.0409 -0.7988  0.1168
  185SOL    HW1  554   1.625   2.814   2.081  0.6421 -1.4308  0.9778
  185SOL    HW2  555   1.615   2.687   2.192 -2.3023 -1.3309 -1.5172
  186SOL     OW  556   0.127   2.228   1.753  0.3813 -0.1547 -0.0179
  186SOL    HW1  557   0.176   2.316   1.737  2.2956 -0.1491 -0.2356
  186SOL    HW2  558   0.194   2.145   1.751 -0.8322 -2.2737  0.2867
  187SOL     OW  559   1.430   0.677   1.685 -0.2596  0.3853 -0.1516
  187SOL    HW1  560   1.461   0.745   1.614 -0.8133 -0.0824 -0.3368
  187SOL    HW2  561   1.437   0.715   1.780  0.6861 -0.6022 -3.0048
  188SOL     OW  562   2.746   2.770   1.548  0.2662 -0.0780  0.5285
  188SOL    HW1  563   2.754   2.867   1.512  3.5231 -0.0096 -1.9385
  188SOL    HW2  564   2.737   2.703   1.468  0.8170 -1.2628 -1.0101
  189SOL     OW  565   0.801   1.021   1.439  0.5903 -0.5135 -0.4031
  189SOL    HW1  566   0.892   1.074   1.433  0.2505  2.6366 -0.4735
  189SOL    HW2  567   0.783   0.949   1.368  0.0556 -1.0112 -2.7959
  190SOL     OW  568   1.493   1.685   1.599  0.2846 -0.0552 -0.2598
  190SOL    HW1  569   1.393   1.686   1.573 -0.4324  1.2524 -1.1008
  190SOL    HW2  570   1.517   1.755   1.677  1.7723  0.0763  0.3539
  191SOL     OW  571   0.993   0.796   1.546  0.4428  0.1595 -0.1191
  191SOL    HW1  572   1.014   0.707   1.593 -1.2909  2.0448 -0.2115
  191SOL    HW2  573   1.068   0.869   1.557  0.6787 -1.8842  1.4056
  192SOL     OW  574   1.844   2.309   1.206  0.2634  0.5983  0.2502
  192SOL    HW1  575   1.746   2.280   1.173 -0.0103 -0.4632  1.9340
  192SOL    HW2  576   1.913   2.307   1.125  0.3249 -0.5275 -2.6718
  193SOL     OW  577   0.524   0.569   0.361 -0.1019 -0.1571  0.6489
  193SOL    HW1  578   0.516   0.486   0.425 -1.8942  0.7320 -1.2710
  193SOL    HW2  579   0.561   0.542   0.269  2.3024 -0.7426 -0.0355
  194SOL     OW  580   0.296   0.843   1.254  0.2487 -0.5020 -0.1220
  194SOL    HW1  581   0.210   0.785   1.236 -1.3734 -0.1649 -0.9180
  194SOL    HW2  582   0.308   0.912   1.180  2.9865 -2.0008 -2.3484
  195SOL     OW  583   0.945   2.924   0.461  0.1945 -0.5141 -0.3551
  195SOL    HW1  584   0.974   2.833   0.411  2.1726 -1.9413 -0.0460
  195SOL    HW2  585   1.027   2.976   0.505 -1.1150  0.1231 -0.1918
  196SOL     OW  586   0.264   1.423   1.408 -0.0668  0.4624  0.2622
  196SOL    HW1  587   0.308   1.493   1.472 -2.0673 -1.8062  2.1950
  196SOL    HW2  588   0.236   1.339   1.460  0.4497 -0.3797 -2.9192
  197SOL     OW  589   0.866   2.012   0.256 -0.1914  0.4551  0.1999
  197SOL    HW1  590   0.843   2.029   0.357  2.7465  1.5276 -0.4397
  197SOL    HW2  591   0.931   1.931   0.244  0.2607 -0.3919 -0.0877
  198SOL     OW  592   0.287   1.245   0.255 -0.1251  1.0605  0.3542
  198SOL    HW1  593   0.185   1.251   0.240 -1.0656 -0.2552  1.9690
  198SOL    HW2  594   0.335   1.338   0.249 -1.1075 -2.3803 -2.6351
  199SOL     OW  595   2.249   0.372   2.534  0.2914 -0.1382  0.7420
  199SOL    HW1  596   2.190   0.318   2.597  0.2144 -0.4439  2.6184
  199SOL    HW2  597   2.348   0.378   2.576  2.7171  0.5358  2.8928
  200SOL     OW  598   3.095   2.907   0.754 -0.1025  0.7920 -0.4167
  200SOL    HW1  599   2.996   2.929   0.725 -2.2626 -2.7458 -2.0439
  200SOL    HW2  600   3.135   2.989   0.802 -0.7486  0.7885  1.5187
  201SOL     OW  601   1.167   0.703   0.539 -0.2622 -0.1409  0.2354
  201SOL    HW1  602   1.166   0.803   0.563  0.5944  0.9029  0.4448
  201SOL    HW2  603   1.077   0.664   0.523  1.1592  2.6170  0.3561
  202SOL     OW  604   0.459   1.264   1.715  0.0569  0.0094  0.3288
  202SOL    HW1  605   0.493   1.262   1.621 -2.8203 -0.0323  0.1346
  202SOL    HW2  606   0.529   1.215   1.775  0.9514 -0.4016 -1.1446
  203SOL     OW  607   0.680   0.232   1.525  0.4602  0.4143  0.9498
  203SOL    HW1  608   0.658   0.166   1.446 -0.9115  1.0956  2.4198
  203SOL    HW2  609   0.711   0.192   1.615  0.0288  0.9957 -1.8398
  204SOL     OW  610   2.098   1.833   3.026 -0.4115 -0.4919 -0.3129
  204SOL    HW1  611   2.091   1.731   3.013  1.1030  1.4367 -0.2262
  204SOL    HW2  612   2.044   1.875   2.950  3.3307 -0.2731  1.7551
  205SOL     OW  613   1.854   1.881   0.095 -0.2924  0.6418 -0.3905
  205SOL    HW1  614   1.928   1.862   0.029  0.8038 -1.8287 -0.8454
  205SOL    HW2  615   1.789   1.955   0.065 -0.5744 -2.3096 -2.2254
  206SOL     OW  616   2.574   2.817   0.386  0.4716  0.2945 -0.3070
  206SOL    HW1  617   2.618   2.725   0.400 -0.0729  0.2856 -0.5063
  206SOL    HW2  618   2.596   2.867   0.297  0.8512  1.4130 -1.7790
  207SOL     OW  619   0.623   1.736   2.870  0.3926 -0.1339  0.4975
  207SOL    HW1  620   0.717   1.716   2.825  2.4072  0.1708 -0.8727
  207SOL    HW2  621   0.610   1.689   2.960  1.1077 -0.2488  2.1106
  208SOL     OW  622   1.008   1.491   1.436  0.8864  0.3156  0.2651
  208SOL    HW1  623   0.934   1.540   1.383  2.6254  1.2651  1.1630
  208SOL    HW2  624   1.082   1.556   1.466 -1.5375 -0.9512  0.5595
  209SOL     OW  625   0.207   0.941   3.052  0.2608  0.0411  0.0759
  209SOL    HW1  626   0.245   0.906   2.958 -0.0764 -1.1134 -1.4175
  209SOL    HW2  627   0.229   0.875   3.130  0.4747  1.5869 -0.5795
  210SOL     OW  628   1.706   0.501   1.130  0.1577 -0.3383 -0.3498
  210SOL    HW1  629   1.668   0.588   1.077 -1.2201  0.5822 -2.6317
  210SOL    HW2  630   1.807   0.490   1.117 -0.6491  0.2388  0.9986
  211SOL     OW  631   2.140   1.044   1.683  0.6201  0.3844  0.0940
  211SOL    HW1  632   2.213   0.992   1.734  0.8510 -1.1911  2.9986
  211SOL    HW2  633   2.191   1.101   1.610  0.6863 -0.8873  1.7243
  212SOL     OW  634   0.031   0.978   1.466  0.2174 -0.5634  0.2659
  212SOL    HW1  635   0.100   1.054   1.488  0.9552 -0.2755  1.8164
  212SOL    HW2  636   0.052   0.892   1.516  3.5428 -1.4015  0.2334
  213SOL     OW  637   2.729   0.355   0.266  0.0625  0.4727  0.3330
  213SOL    HW1  638   2.783   0.280   0.219  1.4129 -0.4580 -1.7921
  213SOL    HW2  639   2.691   0.433   0.204  0.7649 -1.6928 -1.2050
  214SOL     OW  640   2.197   0.291   2.288  0.1757 -0.1722 -0.4230
  214SOL    HW1  641   2.228   0.321   2.385 -0.7493 -3.0595  2.1433
  214SOL    HW2  642   2.152   0.200   2.288  2.5191  0.2431 -2.6342
  215SOL     OW  643   1.660   2.280   2.061  0.2288 -0.4236  0.1199
  215SOL    HW1  644   1.755   2.313   2.055  0.0060  2.1514  1.6234
  215SOL    HW2  645   1.609   2.337   2.131  0.5330  0.5731  3.1749
  216SOL     OW  646   2.228   0.522   0.654 -0.2027 -0.5429  0.0973
  216SOL    HW1  647   2.205   0.439   0.601  1.6816  2.1420  1.2455
  216SOL    HW2  648   2.228   0.608   0.593 -2.3165  3.0740 -0.4889
  217SOL     OW  649   0.778   2.804   2.389  0.2394  0.5041 -0.5199
  217SOL    HW1  650   0.756   2.714   2.432 -0.8279 -1.8348 -0.9388
  217SOL    HW2  651   0.757   2.806   2.291  1.2745 -0.5190 -1.1003
  218SOL     OW  652   1.913   1.442   0.086 -0.3743 -0.4047  0.3992
  218SOL    HW1  653   1.818   1.453   0.047  0.6431 -0.0080  0.7740
  218SOL    HW2  654   1.917   1.351   0.139 -5.7684 -0.5547 -2.9595
  219SOL     OW  655   2.386   1.336   2.550 -0.1123 -0.2575 -0.0291
  219SOL    HW1  656   2.407   1.284   2.463  5.0668  0.6165 -3.3228
  219SOL    HW2  657   2.403   1.272   2.632  0.3100 -0.5682 -3.0492
  220SOL     OW  658   1.463   1.030   1.271  0.3808 -0.2859 -0.2774
  220SOL    HW1  659   1.565   1.051   1.277 -0.8650 -0.7300  2.6352
  220SOL    HW2  660   1.413   1.088   1.202 -0.9585 -0.9989  3.5514
  221SOL     OW  661   1.293   1.208   2.163  0.1963  0.4695  0.2835
  221SOL    HW1  662   1.239   1.272   2.098  0.7504  0.6686  1.9768
  221SOL    HW2  663   1.389   1.190   2.131  0.1044  0.2479  0.9155
  222SOL     OW  664   1.248   0.069   1.136 -0.9916 -0.0325  0.1056
  222SOL    HW1  665   1.350   0.059   1.112  0.4056 -3.7828 -0.1721
  222SOL    HW2  666   1.237   0.128   1.224  0.6634  0.1326  1.6634
  223SOL     OW  667   2.898   0.836   1.992  0.2406 -0.2028  0.7095
  223SOL    HW1  668   2.907   0.841   2.097 -0.4817 -1.6273  1.6874
  223SOL    HW2  669   2.909   0.925   1.938  1.3518 -0.0449  0.4573
  224SOL     OW  670   1.548   0.987   2.784 -0.1887  0.1789  0.0819
  224SOL    HW1  671   1.557   0.924   2.708 -0.7956 -0.8181  2.7078
  224SOL    HW2  672   1.540   1.091   2.759 -0.4726 -1.0931 -0.3227
  225SOL     OW  673   3.017   2.809   2.922  1.4703  0.0027 -0.2073
  225SOL    HW1  674   2.979   2.743   2.851  1.7890  2.0375  0.3453
  225SOL    HW2  675   3.072   2.879   2.872  0.3900 -1.1939 -0.0333
  226SOL     OW  676   2.459   1.623   2.869  0.5002 -0.1628 -0.2140
  226SOL    HW1  677   2.499   1.598   2.778 -0.8120 -0.3555 -1.0312
  226SOL    HW2  678   2.394   1.552   2.911 -1.7688 -2.7338 -1.9964
  227SOL     OW  679   0.842   0.107   2.981  0.6912 -0.3226  0.1309
  227SOL    HW1  680   0.888   0.055   3.058  1.6261  1.3380 -2.2472
  227SOL    HW2  681   0.879   0.082   2.887  0.1982 -2.0933  0.4786
  228SOL     OW  682   2.364   0.582   2.803 -0.0895  0.2329  0.2275
  228SOL    HW1  683   2.330   0.618   2.713 -0.3700 -0.6147  2.8522
  228SOL    HW2  684   2.445   0.520   2.791 -0.3409 -0.5368 -0.7744
  229SOL     OW  685   0.574   0.504   1.866 -0.5931  0.0250 -0.1621
  229SOL    HW1  686   0.620   0.501   1.771  3.5568 -0.0637 -0.4594
  229SOL    HW2  687   0.630   0.548   1.943  3.3319  1.6238  2.5505
  230SOL     OW  688   1.907   1.243   2.131 -0.2001  0.0336  0.1404
  230SOL    HW1  689   1.965   1.278   2.050 -1.3186 -1.2427  2.2084
  230SOL    HW2  690   1.817   1.295   2.126 -1.0762 -0.8452 -0.1650
  231SOL     OW  691   0.646   1.023   2.992 -0.5421 -0.4729  0.6644
  231SOL    HW1  692   0.719   1.092   3.003 -1.6732 -0.5496  2.6716
  231SOL    HW2  693   0.579   1.027   3.070  1.5752 -0.0767  0.2966
  232SOL     OW  694   2.520   0.035   2.749 -0.2517 -0.1549 -0.0460
  232SOL    HW1  695   2.562  -0.037   2.812 -1.6896 -0.7912  1.1492
  232SOL    HW2  696   2.534   0.021   2.646  1.1215 -0.2670 -0.3342
  233SOL     OW  697   1.705   1.271   1.045 -0.4666 -0.1209 -0.0582
  233SOL    HW1  698   1.721   1.321   0.953 -0.4331  0.8585  0.7260
  233SOL    HW2  699   1.756   1.185   1.061  1.0504  0.4689 -1.9376
  234SOL     OW  700   1.643   2.623   1.836  0.6634 -0.2827 -0.3192
  234SOL    HW1  701   1.654   2.644   1.938  1.0038  1.7507  0.4537
  234SOL    HW2  702   1.565   2.555   1.820 -2.5116  0.0206  0.8723
  235SOL     OW  703   0.094   3.008   2.877  0.7860 -0.2865  0.5457
  235SOL    HW1  704   0.160   3.072   2.829  2.2563 -1.3163 -0.7351
  235SOL    HW2  705   0.010   3.059   2.920 -1.7332 -1.4892  0.7521
  236SOL     OW  706   2.806   0.682   0.082  0.6608 -0.1375  0.6142
  236SOL    HW1  707   2.873   0.749   0.122 -2.2785 -2.6919  0.7878
  236SOL    HW2  708   2.847   0.600   0.032  0.5457  0.0977  1.6844
  237SOL     OW  709   1.495   1.603   1.035  0.0540  0.2292  0.2694
  237SOL    HW1  710   1.600   1.598   1.039  2.5302 -2.8314 -1.0647
  237SOL    HW2  711   1.458   1.641   1.126  1.3939 -2.5828  0.6248
  238SOL     OW  712   1.762   1.347   0.780  0.5096 -0.3096  1.1493
  238SOL    HW1  713   1.848   1.350   0.724  0.0795 -0.0898 -1.3605
  238SOL    HW2  714   1.680   1.394   0.737  1.8845  0.9124 -0.0505
  239SOL     OW  715   2.099   0.237   2.723 -0.2293 -0.0643 -0.1946
  239SOL    HW1  716   2.190   0.248   2.774  2.1820 -0.9908  0.6638
  239SOL    HW2  717   2.030   0.305   2.760 -0.8139 -0.2787  0.8226
  240SOL     OW  718   0.860   0.691   0.245  0.2379  0.1397  0.0571
  240SOL    HW1  719   0.853   0.606   0.184  0.8276 -1.6080  2.8909
  240SOL    HW2  720   0.857   0.659   0.343 -0.7473 -3.0704  1.9520
  241SOL     OW  721   0.550   0.036   0.333 -0.2906  0.0603  0.1493
  241SOL    HW1  722   0.584   0.023   0.240  0.9421  2.1810 -0.2267
  241SOL    HW2  723   0.502  -0.051   0.381  0.3687 -0.5512 -0.7400
  242SOL     OW  724   0.691   2.412   1.137  0.0722  0.6462  0.1258
  242SOL    HW1  725   0.662   2.480   1.211 -1.4770  3.4525  0.8478
  242SOL    HW2  726   0.784   2.427   1.095 -1.7539  0.5276 -1.3672
  243SOL     OW  727   1.091   0.614   2.413 -0.0070 -0.4231  0.1581
  243SOL    HW1  728   1.045   0.690   2.366  2.5870 -0.8289  0.3285
  243SOL    HW2  729   1.027   0.541   2.441  0.0605  2.9767  0.4521
  244SOL     OW  730   2.775   1.937   2.450  0.6334 -0.1383  0.3098
  244SOL    HW1  731   2.799   1.945   2.351  1.5428  0.6079  1.6618
  244SOL    HW2  732   2.699   1.867   2.464 -2.3559 -1.4607 -1.7034
  245SOL     OW  733   2.464   0.748   2.123  0.2144 -0.0051  0.0653
  245SOL    HW1  734   2.481   0.826   2.194  0.7519 -0.8965  2.2151
  245SOL    HW2  735   2.536   0.676   2.124 -0.5673  1.4569 -1.5402
  246SOL     OW  736   0.215   2.876   1.712 -0.1176  0.2252 -0.3346
  246SOL    HW1  737   0.152   2.860   1.632 -1.3631  1.3390 -0.0989
  246SOL    HW2  738   0.272   2.964   1.694 -0.5933  0.2985 -0.0612
  247SOL     OW  739   2.173   0.551   3.011 -0.4101  0.2275  0.2150
  247SOL    HW1  740   2.240   0.554   2.929  1.6226 -0.5456  0.9096
  247SOL    HW2  741   2.122   0.638   3.030  3.6192 -0.3948  0.8813
  248SOL     OW  742   2.180   1.860   1.653 -0.3304 -0.5581 -0.1035
  248SOL    HW1  743   2.243   1.777   1.646 -1.9774 -0.4653  1.0977
  248SOL    HW2  744   2.087   1.833   1.697  0.0022  1.1561  1.6329
  249SOL     OW  745   1.961   1.938   1.954 -0.0340  0.3933  0.0329
  249SOL    HW1  746   1.956   1.857   1.887 -1.5300  0.1747  1.1152
  249SOL    HW2  747   2.042   2.001   1.938 -1.4899 -0.3950 -0.0054
  250SOL     OW  748   1.014   0.653   1.861 -0.0418  0.1921 -0.1727
  250SOL    HW1  749   1.073   0.613   1.938  0.8186 -1.9736 -2.0151
  250SOL    HW2  750   1.034   0.609   1.767  0.8461 -0.1348 -1.7566
  251SOL     OW  751   3.020   1.557   2.579 -0.0772  0.0409 -0.0398
  251SOL    HW1  752   3.006   1.659   2.551  0.1808  0.0257 -0.6824
  251SOL    HW2  753   2.931   1.500   2.587 -1.4269  0.0554 -1.6016
  252SOL     OW  754   1.531   0.894   1.539 -0.5370  0.6351 -0.1125
  252SOL    HW1  755   1.559   0.949   1.454 -3.4889  1.9094 -1.3950
  252SOL    HW2  756   1.491   0.953   1.611  2.3520  0.3252 -2.4689
  253SOL     OW  757   0.989   1.523   0.392 -0.4285  0.6894 -0.0881
  253SOL    HW1  758   1.015   1.438   0.334 -2.4149  0.8730  3.0914
  253SOL    HW2  759   0.890   1.525   0.384 -0.3510  1.0628  1.9313
  254SOL     OW  760   1.997   2.155   1.606  0.0112  0.3608 -0.0467
  254SOL    HW1  761   1.949   2.105   1.528 -0.1865  1.4172 -0.7993
  254SOL    HW2  762   1.939   2.165   1.695  1.1104 -0.2283  0.9845
  255SOL     OW  763   0.100   1.150   2.906  0.5208 -0.1963  0.2166
  255SOL    HW1  764   0.168   1.233   2.923  1.1032  3.2763  3.2298
  255SOL    HW2  765   0.148   1.064   2.937  2.2656  0.7603  0.2877
  256SOL     OW  766   2.809   1.353   1.849 -0.0171  0.2170 -0.2780
  256SOL    HW1  767   2.746   1.422   1.807 -0.2676 -0.0426  1.0342
  256SOL    HW2  768   2.761   1.263   1.880 -0.6398 -2.9223  0.4083
  257SOL     OW  769   0.885   0.233   1.912  0.3234 -0.7349  0.1321
  257SOL    HW1  770   0.919   0.287   1.832  2.6791  0.6874  3.2485
  257SOL    HW2  771   0.903   0.132   1.901  0.4672 -0.0115 -2.0255
  258SOL     OW  772   2.950   1.267   0.416  0.3438 -0.3184 -0.4683
  258SOL    HW1  773   2.891   1.349   0.400 -1.8833 -1.0694  1.6586
  258SOL    HW2  774   3.004   1.279   0.507  0.1275  0.2108  2.8872
  259SOL     OW  775   0.441   2.893   2.989 -0.8220 -0.1640 -0.0116
  259SOL    HW1  776   0.410   2.822   3.056  3.0247 -1.4703 -1.4249
  259SOL    HW2  777   0.448   2.856   2.893 -2.0844 -1.1825  0.1939
  260SOL     OW  778   2.646   0.742   2.770  0.1382  0.6904  0.3653
  260SOL    HW1  779   2.574   0.779   2.705  0.7928  1.7880  0.8760
  260SOL    HW2  780   2.636   0.644   2.795  0.1896 -0.0758 -1.3908
  261SOL     OW  781   2.708   1.347   1.308 -0.2452 -0.0806  0.3541
  261SOL    HW1  782   2.680   1.254   1.267 -1.7101 -0.3106 -0.9442
  261SOL    HW2  783   2.811   1.345   1.336  2.2670 -2.1743  1.5710
  262SOL     OW  784   1.482   2.926   2.046 -0.2430 -0.1242 -0.3365
  262SOL    HW1  785   1.471   2.998   1.975 -1.8897 -1.6902 -2.8323
  262SOL    HW2  786   1.407   2.854   2.037 -0.9037  0.6364  1.2953
  263SOL     OW  787   0.892   0.788   2.315 -0.5187 -0.3135 -0.8304
  263SOL    HW1  788   0.839   0.701   2.303 -0.0633 -0.7233 -0.9620
  263SOL    HW2  789   0.899   0.846   2.230  0.4485  0.4767  0.8725
  264SOL     OW  790   2.269   0.759   0.508 -0.1917 -0.1812 -0.2971
  264SOL    HW1  791   2.168   0.787   0.485 -3.8217 -1.1196 -1.5235
  264SOL    HW2  792   2.330   0.838   0.532  0.8367 -1.0031  2.7622
  265SOL     OW  793   0.867   2.332   2.687  0.1899 -0.3633  0.0584
  265SOL    HW1  794   0.896   2.401   2.764 -2.0010  1.8092  2.2276
  265SOL    HW2  795   0.835   2.244   2.733  1.4708  0.3013 -3.1252
  266SOL     OW  796   1.337   1.719   0.043  0.0917 -0.0980  0.1734
  266SOL    HW1  797   1.300   1.807   0.080 -1.6541 -0.9496 -0.3547
  266SOL    HW2  798   1.434   1.694   0.060 -1.8705 -1.8109 -0.6095
  267SOL     OW  799   1.065   0.028   2.366  0.3502 -0.3295  0.5977
  267SOL    HW1  800   1.057  -0.046   2.290 -0.9188  1.0561  0.5804
  267SOL    HW2  801   1.002   0.111   2.357  2.3296  0.5239 -0.0978
  268SOL     OW  802   0.634   1.150   1.032  0.4375  0.3717  0.2042
  268SOL    HW1  803   0.665   1.213   1.112  0.0390  0.9695  2.3927
  268SOL    HW2  804   0.656   1.187   0.940  0.6190  1.2238 -0.0245
  269SOL     OW  805   2.448   2.548   1.597 -0.3088 -0.9777  0.5580
  269SOL    HW1  806   2.541   2.512   1.565  1.6666 -0.6151  0.8815
  269SOL    HW2  807   2.439   2.545   1.703  0.2457  0.9040  1.5101
  270SOL     OW  808   0.230   2.895   2.013 -0.4467  0.9016 -0.9734
  270SOL    HW1  809   0.256   2.891   1.912  1.0366  0.0920 -1.1072
  270SOL    HW2  810   0.142   2.845   2.034 -0.2248  1.7456  0.9774
  271SOL     OW  811   0.454   1.396   1.189 -0.0837 -0.0549  0.1271
  271SOL    HW1  812   0.417   1.398   1.094 -0.4821  3.3944  0.9108
  271SOL    HW2  813   0.378   1.420   1.257 -3.1254  0.1691  0.3278
  272SOL     OW  814   1.921   2.878   1.904 -0.4535  0.5704 -0.0977
  272SOL    HW1  815   1.883   2.828   1.817 -1.8204 -2.8047 -1.1185
  272SOL    HW2  816   2.007   2.932   1.887 -0.2689  0.3261 -0.8229
  273SOL     OW  817   1.448   1.450   2.862  0.6410 -0.2496 -0.3415
  273SOL    HW1  818   1.535   1.458   2.918  0.2327  0.0625  1.1782
  273SOL    HW2  819   1.368   1.438   2.925  1.1066 -0.3781 -0.8886
  274SOL     OW  820   1.176   0.522   2.038 -0.0817 -0.1390 -0.2167
  274SOL    HW1  821   1.199   0.441   1.982  0.8537  0.8289  2.4139
  274SOL    HW2  822   1.245   0.533   2.122  0.7846  1.0249 -0.5804
  275SOL     OW  823   0.623   2.065   1.971  0.0630  0.1264  0.9908
  275SOL    HW1  824   0.610   2.165   1.977 -2.4588 -0.1994  0.9181
  275SOL    HW2  825   0.537   2.014   1.943  0.5967 -0.2026 -0.0059
  276SOL     OW  826   2.163   0.996   2.811  0.1428  0.1151  0.1979
  276SOL    HW1  827   2.086   1.004   2.740 -1.8929 -1.1304 -4.1504
  276SOL    HW2  828   2.138   0.925   2.885  1.8486 -0.5754 -1.3433
  277SOL     OW  829   3.036   0.835   0.194  0.1168  0.2212 -0.5019
  277SOL    HW1  830   3.098   0.850   0.118  1.0313  0.6369  0.2578
  277SOL    HW2  831   3.055   0.747   0.240 -1.2567  2.2854  3.1950
  278SOL     OW  832   0.188   0.267   2.972  0.0415 -0.3359  0.7357
  278SOL    HW1  833   0.228   0.204   3.046 -1.7603 -1.1496 -1.6424
  278SOL    HW2  834   0.201   0.365   2.982 -1.6688 -2.6686  0.1005
  279SOL     OW  835   0.152   3.089   0.864 -0.1095  0.3928 -0.4177
  279SOL    HW1  836   0.166   3.087   0.966  0.5701  2.2203 -1.5445
  279SOL    HW2  837   0.239   3.108   0.806  1.0309 -0.3352  0.7060
  280SOL     OW  838   1.680   2.947   2.521  0.4334  0.1301  0.2040
  280SOL    HW1  839   1.738   3.020   2.553  0.5436 -0.5937 -2.1439
  280SOL    HW2  840   1.583   2.969   2.527  0.3334 -0.5502 -1.8918
  281SOL     OW  841   0.617   0.951   2.360 -0.7602  0.6659 -0.6077
  281SOL    HW1  842   0.603   0.862   2.308 -1.7010 -0.8601  1.1012
  281SOL    HW2  843   0.609   0.946   2.462  0.3283  0.9008  1.6014
  282SOL     OW  844   1.674   2.441   0.536  0.5965 -0.4697 -0.9183
  282SOL    HW1  845   1.664   2.375   0.458  1.8346  1.5274 -0.3134
  282SOL    HW2  846   1.638   2.536   0.508 -1.9202  0.1504  1.3097
  283SOL     OW  847   1.166   0.973   0.716  0.2007  0.3361  0.7950
  283SOL    HW1  848   1.181   0.884   0.771 -2.4592 -2.8025  2.2760
  283SOL    HW2  849   1.106   1.036   0.773  0.9695  0.1746 -1.0951
  284SOL     OW  850   2.297   2.791   2.397  0.0353 -0.1043 -0.4591
  284SOL    HW1  851   2.396   2.804   2.373  3.5144 -1.6956 -1.1932
  284SOL    HW2  852   2.259   2.877   2.438  3.0664 -1.8913  3.3043
  285SOL     OW  853   1.385   3.014   2.553 -0.5805 -0.6820 -0.6352
  285SOL    HW1  854   1.391   3.035   2.448  0.3048  0.3664 -1.1632
  285SOL    HW2  855   1.306   3.060   2.598 -0.1992 -3.6737 -1.5675
  286SOL     OW  856   0.460   0.468   0.664  0.7086 -0.5330  0.6677
  286SOL    HW1  857   0.444   0.424   0.759 -0.0695 -0.8402  0.1376
  286SOL    HW2  858   0.427   0.411   0.582  1.3204  1.4147 -0.1840
  287SOL     OW  859   0.084   1.338   2.492  0.2074  0.3671 -0.5971
  287SOL    HW1  860   0.042   1.253   2.538  1.7764 -1.2611 -0.3430
  287SOL    HW2  861   0.044   1.426   2.529  2.2779 -1.8323  0.8551
  288SOL     OW  862   1.585   2.634   1.471  0.4583  0.3231  0.0143
  288SOL    HW1  863   1.682   2.617   1.499 -5.1928  0.3344 -2.6271
  288SOL    HW2  864   1.568   2.617   1.370  2.2739 -1.1393 -0.7909
  289SOL     OW  865   0.688   2.734   0.779 -0.2432  0.4215 -0.3125
  289SOL    HW1  866   0.690   2.816   0.718  0.4648  0.2085 -0.2793
  289SOL    HW2  867   0.742   2.748   0.868  0.8197  1.7351 -1.7267
  290SOL     OW  868   2.931   1.235   1.619 -0.7024 -0.7023 -0.0941
  290SOL    HW1  869   2.841   1.281   1.656 -1.6042  2.1637  0.1426
  290SOL    HW2  870   2.986   1.184   1.692  0.0956  0.9963  0.4720
  291SOL     OW  871   1.962   0.025   0.051 -0.3280 -0.0159  0.0777
  291SOL    HW1  872   1.988   0.026   0.153  3.4611  0.3315 -1.0932
  291SOL    HW2  873   1.997   0.111   0.007  0.1236 -1.0281  0.2872
  292SOL     OW  874   2.948   1.197   3.045 -0.1106 -0.4102  0.2922
  292SOL    HW1  875   2.870   1.234   2.985  1.3283  1.6509 -0.9626
  292SOL    HW2  876   3.031   1.174   2.987  0.4735  1.9474 -0.9031
  293SOL     OW  877   0.587   2.081   0.128  0.8176 -0.3321 -0.0374
  293SOL    HW1  878   0.551   2.138   0.209  4.8284 -0.9389 -0.9442
  293SOL    HW2  879   0.686   2.054   0.142  0.4982 -0.0892 -0.3774
  294SOL     OW  880   1.684   2.151   1.801 -0.1314 -0.4306 -1.0343
  294SOL    HW1  881   1.664   2.194   1.894  1.1071  1.5132 -1.4430
  294SOL    HW2  882   1.674   2.217   1.726 -0.3882  0.3761  1.3526
  295SOL     OW  883   0.952   1.067   0.405  0.6737 -1.2313 -0.6623
  295SOL    HW1  884   1.049   1.038   0.420  0.2922 -0.8214 -0.4602
  295SOL    HW2  885   0.904   1.106   0.492 -2.7691 -1.1098  3.4947
  296SOL     OW  886   1.289   2.052   2.505  0.3281 -0.4342 -0.2324
  296SOL    HW1  887   1.284   2.079   2.409 -0.8609  3.1626 -2.4547
  296SOL    HW2  888   1.318   1.952   2.514 -1.0466 -2.7264  0.1047
  297SOL     OW  889   1.501   0.685   1.355 -0.6935 -0.5791 -0.3149
  297SOL    HW1  890   1.576   0.614   1.366 -0.5206  0.4161 -2.2232
  297SOL    HW2  891   1.513   0.760   1.425  1.7181 -2.2908  1.3203
  298SOL     OW  892   0.493   1.238   2.853 -0.5901 -0.2914  0.4465
  298SOL    HW1  893   0.524   1.156   2.906 -2.3667 -1.7680 -1.7382
  298SOL    HW2  894   0.550   1.257   2.768  1.5685 -0.4568  0.9378
  299SOL     OW  895   0.392   0.329   1.431  0.1166  0.0299  0.0695
  299SOL    HW1  896   0.363   0.420   1.385  0.8823  0.8647  0.0574
  299SOL    HW2  897   0.492   0.298   1.433  0.8643 -2.6505  2.3194
  300SOL     OW  898   1.230   1.797   2.871  0.3665  0.0352  0.3385
  300SOL    HW1  899   1.206   1.731   2.794  0.7176  0.5907 -1.7978
  300SOL    HW2  900   1.262   1.743   2.957 -0.3005  1.0335  0.1232
  301SOL     OW  901   0.438   0.280   0.444 -0.3828  0.1990 -0.2557
  301SOL    HW1  902   0.333   0.271   0.449 -0.7406  0.1243 -3.4222
  301SOL    HW2  903   0.475   0.218   0.364  2.2005 -3.3424 -0.8620
  302SOL     OW  904   1.231   2.279   2.317  0.0443  0.0813  0.1258
  302SOL    HW1  905   1.170   2.319   2.395  0.4461  1.1029  0.4322
  302SOL    HW2  906   1.204   2.187   2.296 -0.0148 -0.2936  1.7414
  303SOL     OW  907   0.920   2.344   0.793  0.0412 -0.2575 -0.1034
  303SOL    HW1  908   0.971   2.410   0.732 -1.3750  1.5721 -0.3471
  303SOL    HW2  909   0.920   2.380   0.889 -0.7161 -0.9538 -0.2008
  304SOL     OW  910   0.134   2.078   0.653  0.1932  0.9833  0.1481
  304SOL    HW1  911   0.166   2.004   0.586  1.6426 -1.1919  0.4486
  304SOL    HW2  912   0.065   2.148   0.608  1.6060  1.6568  2.3022
  305SOL     OW  913   1.624   0.890   0.672 -0.1305  0.1739 -0.8127
  305SOL    HW1  914   1.595   0.897   0.573  1.1778  2.2825  2.0348
  305SOL    HW2  915   1.703   0.822   0.674  0.7298  1.0090  0.8834
  306SOL     OW  916   0.435   1.868   1.896 -0.3984  0.0216 -0.3711
  306SOL    HW1  917   0.519   1.837   1.851 -1.8705 -1.2235  1.4480
  306SOL    HW2  918   0.421   1.824   1.992  1.3311 -1.5380 -1.3446
  307SOL     OW  919   0.020   0.825   2.562 -0.0944 -0.0356  0.5737
  307SOL    HW1  920   0.030   0.927   2.557  1.4321  0.1144 -1.8136
  307SOL    HW2  921  -0.054   0.789   2.625 -2.0422 -2.6285 -0.6720
  308SOL     OW  922   1.578   2.635   2.851 -0.2683 -0.4851  0.8008
  308SOL    HW1  923   1.567   2.626   2.746  2.7328 -1.2464 -2.5321
  308SOL    HW2  924   1.528   2.558   2.900  1.0111  0.9229 -2.6648
  309SOL     OW  925   1.232   0.030   1.769 -0.1237  0.3633 -0.1895
  309SOL    HW1  926   1.315   0.001   1.821  2.5011 -0.7718  1.4457
  309SOL    HW2  927   1.256   0.033   1.669 -0.7143 -0.3017 -0.5503
  310SOL     OW  928   1.338   2.649   0.715  0.2288 -0.6135  0.1453
  310SOL    HW1  929   1.269   2.725   0.695  4.1014  3.4719 -0.2663
  310SOL    HW2  930   1.436   2.679   0.704 -0.5460 -1.3366 -2.3248
  311SOL     OW  931   1.217   0.931   1.483 -0.0047 -0.4935  1.0908
  311SOL    HW1  932   1.281   0.882   1.418  0.5605  0.8061 -2.0562
  311SOL    HW2  933   1.237   1.035   1.490  0.6070 -2.7847 -0.2404
  312SOL     OW  934   1.605   0.686   0.961  0.3143 -0.0226 -0.6093
  312SOL    HW1  935   1.571   0.784   0.963 -1.6537  0.7655 -2.0068
  312SOL    HW2  936   1.531   0.619   0.930 -0.0159 -3.0700  0.2413
  313SOL     OW  937   1.576   1.443   0.614 -0.0922  0.0910  0.4194
  313SOL    HW1  938   1.488   1.495   0.604 -2.3756 -1.8109 -1.2189
  313SOL    HW2  939   1.562   1.340   0.590  1.0591 -1.6554 -0.4104
  314SOL     OW  940   2.955   0.010   2.983 -0.3256 -0.5548  0.1519
  314SOL    HW1  941   2.951   0.048   3.078 -2.3423  1.1645  0.0505
  314SOL    HW2  942   2.894  -0.073   2.974  0.4781  0.2367  2.9240
  315SOL     OW  943   1.253   0.231   2.781  0.1581 -0.1419  0.0033
  315SOL    HW1  944   1.185   0.173   2.726 -1.9534 -0.0926  0.3279
  315SOL    HW2  945   1.270   0.185   2.873 -0.5360  2.5537  0.5086
  316SOL     OW  946   1.682   2.077   0.892  0.3554 -0.1431 -0.0339
  316SOL    HW1  947   1.630   2.076   0.985  0.7165 -2.1213  1.8314
  316SOL    HW2  948   1.684   2.167   0.847  0.3473  0.3226  0.5096
  317SOL     OW  949   1.144   0.697   2.856 -0.6445 -0.3762  0.3997
  317SOL    HW1  950   1.080   0.733   2.927  0.3875  2.4600 -0.4969
  317SOL    HW2  951   1.112   0.606   2.814 -1.4059 -0.3439 -1.4234
  318SOL     OW  952   1.435   3.073   2.276  0.2744  0.2240  0.7590
  318SOL    HW1  953   1.418   3.155   2.226  1.7708 -1.8527 -1.0141
  318SOL    HW2  954   1.480   3.005   2.216 -0.9585  2.0404  0.2264
  319SOL     OW  955   0.638   2.394   2.942  0.0681  0.3322  0.0633
  319SOL    HW1  956   0.576   2.348   3.007 -0.4455 -1.7082 -1.2978
  319SOL    HW2  957   0.697   2.323   2.897  0.4097 -0.7518 -1.2952
  320SOL     OW  958   1.627   2.233   0.376  0.0751 -0.8843  0.3987
  320SOL    HW1  959   1.718   2.182   0.393 -1.4277  0.5810 -1.9397
  320SOL    HW2  960   1.547   2.191   0.423  0.2866  0.2157 -1.3788
  321SOL     OW  961   1.579   2.706   0.528  0.0390 -0.0813 -0.0451
  321SOL    HW1  962   1.532   2.789   0.486  1.0107 -1.8392 -1.5257
  321SOL    HW2  963   1.679   2.723   0.557  0.6469  0.9914  2.6160
  322SOL     OW  964   2.630   1.131   2.276  0.0123  0.7733  0.4108
  322SOL    HW1  965   2.677   1.175   2.362  0.2312 -2.4729  1.6450
  322SOL    HW2  966   2.600   1.032   2.295 -2.5485 -1.5218  2.4449
  323SOL     OW  967   0.990   2.706   0.827 -0.4470 -0.4816 -0.5150
  323SOL    HW1  968   1.004   2.658   0.738 -2.1299 -0.8334 -0.8416
  323SOL    HW2  969   0.993   2.812   0.820 -0.7705  2.0549 -0.5346
  324SOL     OW  970   0.116   2.474   2.448  0.4172  0.0938  0.3138
  324SOL    HW1  971   0.094   2.385   2.504 -0.5784 -1.1903  0.6246
  324SOL    HW2  972   0.084   2.558   2.501 -3.8348 -0.6552  0.2199
  325SOL     OW  973   1.195   3.093   0.465  0.2125  0.3448 -0.3156
  325SOL    HW1  974   1.224   3.108   0.369 -1.1774  0.3689  2.7717
  325SOL    HW2  975   1.241   3.145   0.541 -0.7482 -0.6068 -1.0735
  326SOL     OW  976   2.396   0.750   3.100  0.2730  0.0426 -0.1637
  326SOL    HW1  977   2.350   0.697   3.028  2.2114  0.0923  1.1894
  326SOL    HW2  978   2.475   0.701   3.148 -0.5089  0.3060 -1.0514
  327SOL     OW  979   2.738   0.404   0.540  0.3504 -0.4403  0.2119
  327SOL    HW1  980   2.720   0.408   0.436 -1.6009  0.2232  0.0340
  327SOL    HW2  981   2.651   0.401   0.594  0.4013 -2.4554 -1.4444
  328SOL     OW  982   2.478   0.566   0.441 -0.2332 -0.6777  0.3693
  328SOL    HW1  983   2.419   0.653   0.451  0.9423 -0.2155 -1.1180
  328SOL    HW2  984   2.488   0.505   0.526  2.9820  0.0465  0.0817
  329SOL     OW  985   2.994   3.019   2.155 -0.0289  0.6029 -0.1803
  329SOL    HW1  986   3.032   2.959   2.233 -1.2748 -0.8287  1.1108
  329SOL    HW2  987   3.051   3.104   2.135 -1.8680 -0.7227 -0.7338
  330SOL     OW  988   0.520   0.160   1.894 -0.4142 -0.1510  0.2892
  330SOL    HW1  989   0.556   0.256   1.875  1.7390  0.3656  0.8436
  330SOL    HW2  990   0.592   0.111   1.954 -1.3185 -0.2753  2.2666
  331SOL     OW  991   2.948   1.904   1.129 -0.1852  0.0328  0.5385
  331SOL    HW1  992   3.002   1.975   1.074  0.9622 -0.8410 -1.7284
  331SOL    HW2  993   2.874   1.944   1.185  0.4022  0.0620 -1.6151
  332SOL     OW  994   0.421   1.061   0.052  0.6078  0.1842 -0.0809
  332SOL    HW1  995   0.331   1.031   0.011  2.5645  0.9411  0.3930
  332SOL    HW2  996   0.417   1.153   0.093  0.5163  0.9253 -0.7778
  333SOL     OW  997   2.833   1.015   0.284  0.1452 -0.3840  0.3610
  333SOL    HW1  998   2.843   1.085   0.362 -0.0868  1.7188 -1.0810
  333SOL    HW2  999   2.924   0.969   0.259  1.5578 -0.2589  1.0438
  334SOL     OW 1000   1.658   1.158   1.908 -0.2546 -0.0007  0.5781
  334SOL    HW1 1001   1.736   1.130   1.845 -1.0795  0.8015 -2.3058
  334SOL    HW2 1002   1.677   1.253   1.950  2.0156 -1.3795 -2.3515
  335SOL     OW 1003   1.980   2.783   2.611  0.2046 -0.3213 -0.0361
  335SOL    HW1 1004   1.919   2.744   2.689 -1.6011  2.2934  2.0508
  335SOL    HW2 1005   2.051   2.858   2.636  1.0094  0.9400  1.7542
  336SOL     OW 1006   0.246   0.098   2.740 -0.0773  0.1477 -0.1542
  336SOL    HW1 1007   0.341   0.069   2.716  0.8390 -0.0140  3.1754
  336SOL    HW2 1008   0.249   0.169   2.817  2.7431  1.5832 -1.1650
  337SOL     OW 1009   0.914   2.801   2.834  0.1025 -0.9705  0.3018
  337SOL    HW1 1010   0.885   2.761   2.925 -1.1053  1.5256  0.6791
  337SOL    HW2 1011   1.016   2.803   2.819 -2.5554  0.4010 -0.7165
  338SOL     OW 1012   3.104   1.020   0.611  0.2905 -0.5183 -0.0888
  338SOL    HW1 1013   2.999   1.003   0.622 -0.3145  1.7379 -0.0411
  338SOL    HW2 1014   3.127   1.123   0.614 -0.2381  1.5873  0.6287
  339SOL     OW 1015   1.675   1.389   2.070  0.1835  0.0544 -0.1189
  339SOL    HW1 1016   1.577   1.413   2.097 -1.3441  2.2108  1.2589
  339SOL    HW2 1017   1.732   1.475   2.049  0.1911  3.4741  0.4689
  340SOL     OW 1018   2.305   0.787   1.175 -0.5128  0.6558 -0.0411
  340SOL    HW1 1019   2.209   0.826   1.196 -1.5563  0.0615  0.0493
  340SOL    HW2 1020   2.297   0.693   1.131 -0.8998 -0.2550  0.8504
  341SOL     OW 1021   1.889   2.158   0.384  0.4377 -0.1632 -1.2709
  341SOL    HW1 1022   1.882   2.189   0.285 -0.6737  0.3806  0.3780
  341SOL    HW2 1023   1.981   2.167   0.425  2.0787 -0.7319  0.9733
  342SOL     OW 1024   2.206   2.103   2.741  0.3236 -0.5939 -0.0641
  342SOL    HW1 1025   2.272   2.034   2.774 -1.7698 -2.9541 -2.9031
  342SOL    HW2 1026   2.116   2.092   2.799  1.9580  0.5468  2.6633
  343SOL     OW 1027   0.351   0.860   2.818 -0.1391 -0.3979 -1.0734
  343SOL    HW1 1028   0.340   0.920   2.726  1.0877  2.4789 -0.5300
  343SOL    HW2 1029   0.442   0.809   2.824  1.9987 -0.2583  1.2148
  344SOL     OW 1030   1.921   1.480   0.362 -0.7554 -0.3200  0.1176
  344SOL    HW1 1031   1.897   1.445   0.266 -0.1511 -3.3157  2.0722
  344SOL    HW2 1032   1.841   1.521   0.410 -0.4714  2.1819 -2.4496
  345SOL     OW 1033   1.385   2.207   2.837 -0.2974  0.3373  0.2540
  345SOL    HW1 1034   1.302   2.152   2.809 -0.1250 -0.4943  0.9292
  345SOL    HW2 1035   1.474   2.160   2.810 -0.6348  0.1561 -0.7104
  346SOL     OW 1036   2.375   0.870   1.436 -0.7221 -0.5532  0.2358
  346SOL    HW1 1037   2.327   0.957   1.464 -2.3934 -0.8288 -1.2993
  346SOL    HW2 1038   2.362   0.843   1.336  1.8126 -1.1224 -1.2662
  347SOL     OW 1039   0.706   2.825   1.483  0.6803 -0.0362 -0.1215
  347SOL    HW1 1040   0.711   2.754   1.560  1.3016  0.7516  0.4928
  347SOL    HW2 1041   0.609   2.863   1.477  2.1803 -1.0920 -0.0290
  348SOL     OW 1042   0.106   0.714   2.865  0.2888 -0.1061  0.5261
  348SOL    HW1 1043   0.028   0.726   2.798  0.7183 -1.6029 -2.9970
  348SOL    HW2 1044   0.188   0.769   2.843  0.4835 -2.0971 -2.8731
  349SOL     OW 1045   1.904   0.417   2.812 -0.1674  0.5256 -0.3177
  349SOL    HW1 1046   1.888   0.498   2.749  1.2248  1.0106  2.5506
  349SOL    HW2 1047   1.840   0.432   2.893  0.2793  1.2491  0.0640
  350SOL     OW 1048   1.694   0.409   0.361  0.9821  0.0130 -0.1545
  350SOL    HW1 1049   1.745   0.423   0.453 -0.9092  2.3400 -1.1374
  350SOL    HW2 1050   1.626   0.487   0.330 -1.5000 -0.9266  1.3564
  351SOL     OW 1051   0.896   0.921   2.081  0.6164  0.3115 -0.1006
  351SOL    HW1 1052   0.927   1.019   2.069 -2.1311  0.6129  1.2251
  351SOL    HW2 1053   0.853   0.870   1.998  1.1737  0.0753 -0.2201
  352SOL     OW 1054   1.992   1.358   0.603  0.1734 -0.6031  0.0189
  352SOL    HW1 1055   1.965   1.385   0.506  0.9514 -0.4687  0.7982
  352SOL    HW2 1056   2.077   1.407   0.630 -5.0760 -0.5353 -0.7569
  353SOL     OW 1057   2.135   2.863   1.126 -0.0058  0.2599  0.1649
  353SOL    HW1 1058   2.229   2.831   1.158  2.6549  2.4034 -0.9919
  353SOL    HW2 1059   2.086   2.788   1.070  1.1968 -0.1460 -0.9906
  354SOL     OW 1060   0.279   1.384   2.861 -0.3261 -0.0751 -0.3194
  354SOL    HW1 1061   0.259   1.458   2.792 -0.5731  2.1096 -2.2888
  354SOL    HW2 1062   0.365   1.324   2.843 -0.8291 -0.5208 -0.4257
  355SOL     OW 1063   0.452   1.497   0.559  0.5499 -0.0876  0.1272
  355SOL    HW1 1064   0.480   1.592   0.583 -2.6567 -1.0280 -2.8920
  355SOL    HW2 1065   0.526   1.426   0.578  1.1672  3.6888 -0.7522
  356SOL     OW 1066   0.884   0.422   2.109  0.1037 -0.3115  0.4893
  356SOL    HW1 1067   0.983   0.439   2.099  0.6577 -0.8444 -2.6971
  356SOL    HW2 1068   0.860   0.334   2.059  0.9824 -1.5261  2.8403
  357SOL     OW 1069   1.053   1.297   0.224  0.3953 -0.5003  0.4965
  357SOL    HW1 1070   0.993   1.301   0.145  1.4303  0.4453 -0.9289
  357SOL    HW2 1071   1.026   1.233   0.299  1.1839 -0.0615  2.6512
  358SOL     OW 1072   1.657   1.609   0.380  0.1139 -0.6241  0.6550
  358SOL    HW1 1073   1.618   1.541   0.446  0.2014  1.3126 -0.0177
  358SOL    HW2 1074   1.591   1.681   0.351  1.6690 -2.9156  0.4375
  359SOL     OW 1075   1.557   2.707   0.184  0.5160 -0.0933 -0.2045
  359SOL    HW1 1076   1.561   2.644   0.105 -2.6090 -2.1206 -0.1674
  359SOL    HW2 1077   1.454   2.722   0.210  1.9898  1.7285 -0.3674
  360SOL     OW 1078   0.883   0.588   0.481 -0.0121  0.5320  0.1544
  360SOL    HW1 1079   0.806   0.590   0.547  1.0351 -0.2859 -2.3487
  360SOL    HW2 1080   0.927   0.493   0.474  2.8637  0.2399  1.7151
  361SOL     OW 1081   1.250   1.395   0.674  0.2255 -0.0943 -0.2354
  361SOL    HW1 1082   1.287   1.381   0.766 -1.7285 -0.5593 -0.6148
  361SOL    HW2 1083   1.158   1.445   0.675  0.2141 -2.8639  0.0480
  362SOL     OW 1084   1.401   1.767   0.793  0.1601 -0.0060 -0.4194
  362SOL    HW1 1085   1.429   1.708   0.875 -1.3157 -1.8284 -0.2174
  362SOL    HW2 1086   1.473   1.841   0.769  2.3063  2.3413 -0.1445
  363SOL     OW 1087   1.145   1.368   1.998  0.2993 -0.1125  0.2105
  363SOL    HW1 1088   1.146   1.441   2.072 -1.6871 -0.0227 -1.0832
  363SOL    HW2 1089   1.181   1.402   1.904  1.2009 -0.8800 -0.7838
  364SOL     OW 1090   0.581   2.346   1.963  0.0675 -0.5662  0.5872
  364SOL    HW1 1091   0.503   2.415   1.977 -0.2231 -0.4548  0.5182
  364SOL    HW2 1092   0.636   2.373   1.882  0.5521 -0.8823  2.6435
  365SOL     OW 1093   1.098   1.908   1.369  0.0243  0.6552 -0.1120
  365SOL    HW1 1094   1.012   1.906   1.424  1.6411 -0.0880  0.7910
  365SOL    HW2 1095   1.095   1.848   1.284 -0.8406 -0.9070 -0.0436
  366SOL     OW 1096   2.813   2.061   0.485  0.2861 -0.0645 -0.4092
  366SOL    HW1 1097   2.727   2.000   0.479 -0.0811 -2.4625  0.1752
  366SOL    HW2 1098   2.893   2.018   0.437 -0.5967  2.3376  2.1587
  367SOL     OW 1099   0.792   1.243   0.090  0.4395 -0.5292 -0.6726
  367SOL    HW1 1100   0.786   1.140   0.115  0.2782 -3.5883  2.5866
  367SOL    HW2 1101   0.823   1.261  -0.008 -1.5012  3.6065 -2.6312
  368SOL     OW 1102   1.567   0.519   0.676  0.0638  0.2083  0.2169
  368SOL    HW1 1103   1.528   0.559   0.587  1.0193  0.4296  0.9930
  368SOL    HW2 1104   1.650   0.564   0.713 -1.2826  0.3191  0.8506
  369SOL     OW 1105   0.288   1.698   0.098 -0.1532 -0.2002  0.0334
  369SOL    HW1 1106   0.336   1.791   0.132  1.7174 -0.2366  2.0498
  369SOL    HW2 1107   0.191   1.679   0.125 -1.0387  3.0764  0.3014
  370SOL     OW 1108   0.427   2.126   0.968 -0.6567 -0.0071 -0.3320
  370SOL    HW1 1109   0.448   2.227   0.956 -1.4008 -0.4600  1.6857
  370SOL    HW2 1110   0.329   2.103   0.940 -1.7403 -2.0841  1.7983
  371SOL     OW 1111   2.901   2.208   2.755  0.2049 -0.2863 -0.2590
  371SOL    HW1 1112   2.897   2.225   2.861 -0.6476  0.6287  2.4086
  371SOL    HW2 1113   2.990   2.239   2.716 -0.6110 -1.4897  0.9120
  372SOL     OW 1114   0.911   1.872   0.960 -0.2731  0.1279 -0.4245
  372SOL    HW1 1115   0.896   1.964   1.004  1.5875 -0.1809  0.4082
  372SOL    HW2 1116   0.989   1.884   0.893  0.4766  0.3209  2.9479
  373SOL     OW 1117   1.976   2.025   0.920 -0.0317 -0.1269 -0.3513
  373SOL    HW1 1118   2.043   2.008   1.001  1.8419 -2.1000 -0.9643
  373SOL    HW2 1119   1.877   2.052   0.946 -1.7266 -0.9145  1.4822
  374SOL     OW 1120   1.892   0.420   0.561  1.1124  0.0212 -1.0252
  374SOL    HW1 1121   1.858   0.363   0.645 -0.9606 -1.0116  3.5462
  374SOL    HW2 1122   1.971   0.379   0.512  0.3283  3.3311 -2.2699
  375SOL     OW 1123   2.435   2.242   1.093 -0.6713 -0.6733 -0.1386
  375SOL    HW1 1124   2.473   2.193   1.008 -0.8379 -1.9989  1.0621
  375SOL    HW2 1125   2.475   2.201   1.182  1.4570 -1.2305  1.7809
  376SOL     OW 1126   3.049   0.607   1.444 -0.4127 -0.1410 -0.0245
  376SOL    HW1 1127   3.116   0.655   1.512  1.0557  0.2293 -0.5147
  376SOL    HW2 1128   2.951   0.640   1.452 -0.6550 -3.1064  0.9000
  377SOL     OW 1129   2.239   2.885   0.365  0.1495  0.1585  0.1058
  377SOL    HW1 1130   2.240   2.988   0.384  0.2010  2.7515  1.2985
  377SOL    HW2 1131   2.332   2.855   0.335 -0.9137 -2.5769 -0.1080
  378SOL     OW 1132   1.883   1.880   2.652 -0.3590  0.2008 -0.2082
  378SOL    HW1 1133   1.886   1.778   2.644 -1.2868  0.0905 -0.3198
  378SOL    HW2 1134   1.892   1.918   2.555  2.5159  2.2462 -0.1304
  379SOL     OW 1135   0.876   0.102   2.706 -0.0067 -0.1142  0.3318
  379SOL    HW1 1136   0.835   0.014   2.680  0.4932  0.6873 -1.9730
  379SOL    HW2 1137   0.814   0.181   2.688 -0.3086 -2.0768  1.3022
  380SOL     OW 1138   1.540   1.155   0.575 -0.1469 -0.4047 -0.0380
  380SOL    HW1 1139   1.473   1.131   0.502 -0.9440  1.4606  2.2216
  380SOL    HW2 1140   1.521   1.093   0.654  0.8011 -2.3158  1.7805
  381SOL     OW 1141   1.280   1.211   1.500  0.4206  0.3338  0.2567
  381SOL    HW1 1142   1.331   1.233   1.410  2.1209 -1.2456 -2.6119
  381SOL    HW2 1143   1.340   1.224   1.585  0.0436 -1.2235  0.0615
  382SOL     OW 1144   1.733   0.824   0.288 -0.3106  0.2568 -0.3317
  382SOL    HW1 1145   1.752   0.800   0.190 -0.2644 -0.8918  0.2491
  382SOL    HW2 1146   1.814   0.821   0.350  1.2012  1.3435  0.7482
  383SOL     OW 1147   2.622   1.019   1.520 -0.5616  0.1159  0.2754
  383SOL    HW1 1148   2.553   0.968   1.459  0.8867  4.0879 -1.7066
  383SOL    HW2 1149   2.716   1.011   1.481  1.7212  1.9905  0.6453
  384SOL     OW 1150   0.977   2.269   0.163 -0.8929 -0.3082 -0.0964
  384SOL    HW1 1151   0.904   2.312   0.225 -1.9405  1.2148  1.0270
  384SOL    HW2 1152   0.952   2.174   0.143  1.3570  3.4588  1.7076
  385SOL     OW 1153   3.025   2.020   1.705 -0.1565 -0.2791  0.6029
  385SOL    HW1 1154   3.074   2.113   1.704  2.6534 -3.1321 -1.4508
  385SOL    HW2 1155   3.088   1.932   1.716 -1.9467  0.9447 -1.4536
  386SOL     OW 1156   0.442   1.114   0.447 -0.3295  0.3866  0.3317
  386SOL    HW1 1157   0.438   1.014   0.435  3.5124  1.2780  1.0836
  386SOL    HW2 1158   0.396   1.164   0.365 -0.6918 -1.6920  0.6134
  387SOL     OW 1159   0.963   0.347   1.688  0.1749 -0.0609  0.0098
  387SOL    HW1 1160   1.030   0.430   1.687 -0.3818  0.2449  0.9096
  387SOL    HW2 1161   0.962   0.292   1.602 -1.6848 -0.6236 -3.3966
  388SOL     OW 1162   1.216   2.586   1.771 -0.0993  0.3146  0.2352
  388SOL    HW1 1163   1.256   2.608   1.677 -0.8197  1.5463  3.2275
  388SOL    HW2 1164   1.275   2.518   1.822 -1.1170  2.2684  0.1553
  389SOL     OW 1165   0.242   3.085   1.131  0.3219 -0.6902  0.4491
  389SOL    HW1 1166   0.202   3.079   1.229 -1.5870  0.5184 -0.4804
  389SOL    HW2 1167   0.307   3.010   1.117 -2.2363  0.4883  2.0654
  390SOL     OW 1168   0.999   0.834   1.271  0.1396  0.4436  0.0228
  390SOL    HW1 1169   1.097   0.810   1.245 -1.3367  0.4289 -1.5890
  390SOL    HW2 1170   0.978   0.825   1.371 -3.2914  1.2022  0.8469
  391SOL     OW 1171   2.141   1.162   1.012 -0.3566 -0.2422 -0.1105
  391SOL    HW1 1172   2.067   1.089   1.027 -2.1770 -3.6372 -0.7172
  391SOL    HW2 1173   2.203   1.142   0.930  3.3061 -0.5605  1.6792
  392SOL     OW 1174   0.885   2.682   3.089 -0.3867  0.7160 -0.0515
  392SOL    HW1 1175   0.809   2.706   3.159 -1.0252  0.7712 -0.7570
  392SOL    HW2 1176   0.975   2.732   3.112 -0.7891  0.4337  0.0421
  393SOL     OW 1177   0.330   0.590   1.974 -0.0741 -0.0767 -0.4318
  393SOL    HW1 1178   0.258   0.513   1.966 -1.5336 -0.9089  1.0099
  393SOL    HW2 1179   0.414   0.566   1.917  0.5766 -0.2244 -0.6719
  394SOL     OW 1180   2.814   1.781   2.777 -0.2555 -0.1014  0.4778
  394SOL    HW1 1181   2.889   1.793   2.708  3.3735 -0.9054  0.7844
  394SOL    HW2 1182   2.761   1.868   2.787  0.7295  0.7315 -2.2207
  395SOL     OW 1183   1.601   1.940   0.663 -0.3471 -0.3541  0.1153
  395SOL    HW1 1184   1.655   1.857   0.633 -0.1388 -0.8697 -1.8581
  395SOL    HW2 1185   1.659   1.993   0.731 -0.5290  1.6343  2.6205
  396SOL     OW 1186   2.745   2.047   1.296 -0.3172  0.2093 -0.6647
  396SOL    HW1 1187   2.768   2.063   1.398 -0.9186 -0.0751  0.1924
  396SOL    HW2 1188   2.645   2.063   1.277  2.2073  2.0501 -0.6316
  397SOL     OW 1189   1.003   2.127   0.656 -0.0011 -0.0742  0.2166
  397SOL    HW1 1190   0.904   2.097   0.627 -1.3744 -1.3722  0.2401
  397SOL    HW2 1191   1.000   2.211   0.714  1.9148 -2.7246 -1.0211
  398SOL     OW 1192   2.172   0.024   1.107 -0.2914  0.1650  0.0952
  398SOL    HW1 1193   2.139  -0.071   1.110 -0.4259  2.3576  0.8407
  398SOL    HW2 1194   2.097   0.100   1.097 -0.1764  2.4431 -0.9465
  399SOL     OW 1195   2.905   2.602   2.780  0.8343 -0.0414 -0.0953
  399SOL    HW1 1196   2.886   2.550   2.694  1.6408 -0.5688 -2.9784
  399SOL    HW2 1197   2.859   2.557   2.862  1.1321 -0.7449 -0.5923
  400SOL     OW 1198   0.812   1.599   1.274  0.1060  0.3003 -0.0391
  400SOL    HW1 1199   0.758   1.655   1.343  0.7703  0.7300  1.0853
  400SOL    HW2 1200   0.782   1.612   1.176  0.1132 -1.4726 -0.2215
  401SOL     OW 1201   1.853   0.093   1.291 -0.1021  0.2655 -0.6089
  401SOL    HW1 1202   1.897   0.116   1.383  4.4232  1.0590 -0.5233
  401SOL    HW2 1203   1.748   0.103   1.297 -0.3078 -0.3974 -0.5971
  402SOL     OW 1204   1.317   0.183   3.049 -0.4150 -0.5397  0.3336
  402SOL    HW1 1205   1.420   0.178   3.069  0.4564 -2.7807 -3.4905
  402SOL    HW2 1206   1.270   0.278   3.082 -2.6400  4.1655  0.4255
  403SOL     OW 1207   2.252   1.781   0.997  0.2527 -0.1434 -0.6802
  403SOL    HW1 1208   2.345   1.730   1.011  1.3162 -0.8779  1.6519
  403SOL    HW2 1209   2.257   1.882   1.013  0.1630  0.8837 -1.0802
  404SOL     OW 1210   0.192   2.453   2.774  0.0280 -0.0509  0.2861
  404SOL    HW1 1211   0.288   2.440   2.732  1.8721 -0.0295  3.6984
  404SOL    HW2 1212   0.180   2.531   2.841  0.0375  2.0636  1.7848
  405SOL     OW 1213   0.249   2.478   0.584  0.3759  0.3768  0.1940
  405SOL    HW1 1214   0.218   2.442   0.492  1.1093  0.4629  1.3943
  405SOL    HW2 1215   0.263   2.580   0.585 -1.8360 -2.2289  0.4896
  406SOL     OW 1216   0.024   1.527   2.983  0.1379 -0.5817  0.0646
  406SOL    HW1 1217   0.104   1.479   2.942  1.1322 -0.0552  0.8861
  406SOL    HW2 1218   0.037   1.535   3.087  0.5264 -0.2818  0.5789
  407SOL     OW 1219   1.545   0.955   0.960 -0.3853  0.1712 -0.2131
  407SOL    HW1 1220   1.560   0.968   0.858 -0.5261 -0.9342  0.5236
  407SOL    HW2 1221   1.464   1.006   0.995  2.0897  0.8254  0.1220
  408SOL     OW 1222   1.462   2.350   0.932 -0.2906 -0.3384  0.7752
  408SOL    HW1 1223   1.519   2.304   0.858  0.8093  0.1791  1.8158
  408SOL    HW2 1224   1.518   2.415   0.987 -2.2317 -1.4092 -2.6658
  409SOL     OW 1225   0.611   0.879   0.685  0.1637  0.2844 -0.3530
  409SOL    HW1 1226   0.531   0.885   0.616  0.8198 -1.1535 -0.5830
  409SOL    HW2 1227   0.657   0.782   0.677  0.7416 -0.3212  0.7755
  410SOL     OW 1228   1.308   1.996   1.493 -0.0037 -0.0722 -0.0181
  410SOL    HW1 1229   1.299   2.072   1.560 -0.2222 -0.9341  0.4119
  410SOL    HW2 1230   1.219   1.947   1.454 -2.8260 -1.5441  1.0724
  411SOL     OW 1231   2.358   1.855   0.037 -0.1897 -0.0147 -0.3160
  411SOL    HW1 1232   2.267   1.831  -0.008  3.1260 -2.3416  0.6433
  411SOL    HW2 1233   2.438   1.866  -0.028  2.1657 -2.2539  0.3647
  412SOL     OW 1234   1.513   2.424   2.276 -0.3288 -0.0722 -0.6064
  412SOL    HW1 1235   1.443   2.500   2.294 -3.1336  0.3217  1.3309
  412SOL    HW2 1236   1.506   2.341   2.334 -0.2994 -0.2325  0.9087
  413SOL     OW 1237   3.018   0.278   2.874 -0.0648 -0.1828 -0.0012
  413SOL    HW1 1238   2.967   0.185   2.881  1.4715 -1.1303  0.2179
  413SOL    HW2 1239   3.120   0.266   2.890  0.5625  1.1978  0.8425
  414SOL     OW 1240   1.767   1.331   1.338  0.3176  0.6565  0.0028
  414SOL    HW1 1241   1.689   1.388   1.368 -2.2855  0.7396  2.5341
  414SOL    HW2 1242   1.775   1.330   1.235 -2.3455  0.5955  1.1479
  415SOL     OW 1243   0.347   2.245   0.685  0.7686 -0.9084 -0.7773
  415SOL    HW1 1244   0.321   2.340   0.659  0.1528 -0.0846  0.2337
  415SOL    HW2 1245   0.279   2.168   0.680  2.8258  0.1992  1.1037
  416SOL     OW 1246   0.340   1.038   1.046  0.3300  0.1188 -0.3993
  416SOL    HW1 1247   0.299   1.003   0.957 -0.5920  0.3906  2.0267
  416SOL    HW2 1248   0.435   1.087   1.036  1.0151  4.6049  1.0131
  417SOL     OW 1249   2.165   2.324   1.855 -0.5706  0.1900  0.0271
  417SOL    HW1 1250   2.196   2.236   1.895  0.2032 -0.6718 -1.5868
  417SOL    HW2 1251   2.085   2.356   1.907 -1.0375  1.2763 -0.5045
  418SOL     OW 1252   1.116   0.427   1.384  0.1031 -0.5002  0.3688
  418SOL    HW1 1253   1.020   0.395   1.351 -3.4571 -1.3418 -2.4781
  418SOL    HW2 1254   1.194   0.417   1.308 -0.8916 -1.9126 -1.2620
  419SOL     OW 1255   0.984   0.359   3.003 -0.1558 -0.0270  0.1444
  419SOL    HW1 1256   0.997   0.394   2.907  0.9131  0.8598  0.6027
  419SOL    HW2 1257   0.930   0.270   3.013 -1.1455 -0.3957 -0.2019
  420SOL     OW 1258   0.201   2.295   0.359  0.0012 -0.1915 -0.2063
  420SOL    HW1 1259   0.186   2.252   0.271  0.3864  2.3147  1.0268
  420SOL    HW2 1260   0.132   2.265   0.431  1.0717  2.1633  0.9055
  421SOL     OW 1261   0.343   0.050   0.679  0.2918 -0.3499 -0.4427
  421SOL    HW1 1262   0.320   0.003   0.590  0.8974 -1.3976 -0.3607
  421SOL    HW2 1263   0.444   0.082   0.680 -0.1020  0.6771  1.1881
  422SOL     OW 1264   0.939   2.513   1.037 -0.1431 -0.1550  0.0489
  422SOL    HW1 1265   0.958   2.596   0.974 -0.8724  1.7143 -0.4426
  422SOL    HW2 1266   0.938   2.532   1.137  2.1494  1.6052 -0.6359
  423SOL     OW 1267   0.042   0.701   1.216 -0.6686 -0.2501  0.0217
  423SOL    HW1 1268   0.003   0.669   1.310 -2.6328 -0.9407  3.0778
  423SOL    HW2 1269  -0.037   0.735   1.155  1.4844  3.3455  2.3176
  424SOL     OW 1270   0.986   2.149   2.224 -0.0456  0.1744  0.2229
  424SOL    HW1 1271   0.985   2.231   2.159  3.3557  1.2051  1.6236
  424SOL    HW2 1272   0.945   2.171   2.317 -2.1844  0.1957  1.8014
  425SOL     OW 1273   2.029   1.431   1.079  0.0284 -0.5979  0.4569
  425SOL    HW1 1274   2.041   1.326   1.065  1.2471 -0.1936 -1.7642
  425SOL    HW2 1275   2.089   1.480   1.006  3.3798 -1.0079 -1.7496
  426SOL     OW 1276   1.573   1.502   1.390 -0.0351 -0.9561 -0.7067
  426SOL    HW1 1277   1.544   1.595   1.364  1.5542 -1.4788  0.2778
  426SOL    HW2 1278   1.548   1.482   1.487 -0.1154  0.3924  0.2706
  427SOL     OW 1279   1.935   2.348   2.038  0.0954  0.2538 -0.2426
  427SOL    HW1 1280   1.977   2.281   2.109 -1.0613 -2.2070  2.8723
  427SOL    HW2 1281   1.939   2.449   2.068 -2.0321  0.6655 -2.8122
  428SOL     OW 1282   0.938   3.064   0.095 -0.3130  0.2666  0.0408
  428SOL    HW1 1283   0.960   3.130   0.171 -0.3856 -0.2691 -0.7099
  428SOL    HW2 1284   1.009   2.992   0.085  1.1544 -1.6182  0.5316
  429SOL     OW 1285   1.312   0.019   0.214  0.3928 -0.4593 -0.1347
  429SOL    HW1 1286   1.400   0.067   0.240 -0.2169 -0.6665  0.3751
  429SOL    HW2 1287   1.323  -0.041   0.130 -1.7945  2.4267  1.1969
  430SOL     OW 1288   2.813   1.486   0.365  0.4542  0.4281  0.4175
  430SOL    HW1 1289   2.808   1.562   0.292 -3.1559  2.0511 -2.8576
  430SOL    HW2 1290   2.805   1.518   0.465  0.9146 -1.0634 -0.2036
  431SOL     OW 1291   2.109   1.594   0.869  0.5320 -0.1582 -0.3407
  431SOL    HW1 1292   2.168   1.674   0.905  0.4942 -0.5483  0.6333
  431SOL    HW2 1293   2.014   1.629   0.842  0.1075 -0.3154 -1.1643
  432SOL     OW 1294   2.893   2.325   1.240  0.2728 -0.4602 -0.1851
  432SOL    HW1 1295   2.865   2.233   1.200 -0.8022 -0.9352  1.4267
  432SOL    HW2 1296   2.927   2.319   1.339 -1.6865 -3.4887 -2.7079
  433SOL     OW 1297   1.847   0.283   0.803 -0.2032  0.1374 -0.0058
  433SOL    HW1 1298   1.758   0.267   0.853 -0.0652  0.5307 -2.3583
  433SOL    HW2 1299   1.930   0.250   0.860 -0.8327  0.4486 -1.9503
  434SOL     OW 1300   1.536   0.254   0.724 -0.2679  0.3698  0.1123
  434SOL    HW1 1301   1.553   0.345   0.686  2.7633  0.4662  2.7801
  434SOL    HW2 1302   1.563   0.250   0.828 -1.3525 -1.9686  0.4285
  435SOL     OW 1303   1.414   1.496   2.121 -0.1835  0.6651  0.5493
  435SOL    HW1 1304   1.402   1.516   2.221 -1.7224  0.4807 -2.8345
  435SOL    HW2 1305   1.403   1.579   2.062 -1.5447 -1.0046  1.6944
  436SOL     OW 1306   1.630   2.706   2.378 -0.4320  0.7281  0.0771
  436SOL    HW1 1307   1.650   2.799   2.413  0.9900 -0.0595  0.7277
  436SOL    HW2 1308   1.603   2.631   2.447 -0.8347  1.0488 -0.5962
  437SOL     OW 1309   1.025   2.976   0.822  0.9833 -0.1418 -0.4010
  437SOL    HW1 1310   0.980   3.069   0.813 -2.0880 -3.4508  0.9312
  437SOL    HW2 1311   1.047   2.956   0.920 -1.7171  0.6393 -0.0219
  438SOL     OW 1312   1.002   2.520   1.331 -0.2097  0.0415 -0.2746
  438SOL    HW1 1313   1.072   2.562   1.392 -1.6178  3.9781  0.2424
  438SOL    HW2 1314   0.993   2.418   1.344 -1.9955 -1.4421  0.4629
  439SOL     OW 1315   0.700   1.703   1.034 -0.1577 -0.5390 -0.3290
  439SOL    HW1 1316   0.767   1.783   1.007  1.0484 -1.3555  1.9559
  439SOL    HW2 1317   0.618   1.733   1.091 -0.5623  2.4349 -2.7204
  440SOL     OW 1318   1.015   2.365   1.990  0.6804  0.9347  0.6523
  440SOL    HW1 1319   0.976   2.428   1.917  2.0077  1.8304  1.2379
  440SOL    HW2 1320   1.111   2.387   2.013 -0.9284  0.2413  2.9676
  441SOL     OW 1321   0.366   2.760   1.296 -0.2952 -0.4382  0.1419
  441SOL    HW1 1322   0.443   2.689   1.315  0.2442  0.0791 -1.6354
  441SOL    HW2 1323   0.367   2.793   1.196 -2.9545 -0.5042  1.8211
  442SOL     OW 1324   2.240   0.654   2.564 -0.0334 -0.5252  0.1727
  442SOL    HW1 1325   2.254   0.557   2.531 -0.1463  1.9279 -3.6741
  442SOL    HW2 1326   2.155   0.703   2.531 -0.0963  1.4136  1.7760
  443SOL     OW 1327   1.244   2.547   2.201  0.2193  0.6349  0.2498
  443SOL    HW1 1328   1.247   2.446   2.223  0.1312  0.9562 -0.7760
  443SOL    HW2 1329   1.205   2.603   2.284 -1.5828 -1.2958 -0.5409
  444SOL     OW 1330   0.998   1.193   1.475  0.0868  0.0593 -0.2737
  444SOL    HW1 1331   1.093   1.169   1.510  3.1133  0.6760  0.1356
  444SOL    HW2 1332   0.987   1.297   1.461  0.7546  2.2690  0.4247
  445SOL     OW 1333   0.187   2.253   2.123  0.4271  0.4794  0.0672
  445SOL    HW1 1334   0.095   2.268   2.082 -1.9200  0.0605 -1.4904
  445SOL    HW2 1335   0.196   2.160   2.171  0.3015 -1.9704 -2.0284
  446SOL     OW 1336   0.114   1.947   2.370  0.5381  0.0939  0.3707
  446SOL    HW1 1337   0.055   2.031   2.380  1.2147  1.4216 -3.9091
  446SOL    HW2 1338   0.089   1.904   2.276 -1.0073 -2.5080 -0.3422
  447SOL     OW 1339   1.293   1.728   1.907 -0.1528  0.1737  0.1108
  447SOL    HW1 1340   1.194   1.760   1.899  0.1114  1.8968  0.9767
  447SOL    HW2 1341   1.351   1.792   1.966 -1.4530  2.0403  1.8735
  448SOL     OW 1342   0.180   1.467   2.028  0.2227 -0.3512 -0.0975
  448SOL    HW1 1343   0.163   1.555   1.966 -0.3950  3.6104  0.7405
  448SOL    HW2 1344   0.120   1.468   2.112  0.8973  0.6853 -0.7413
  449SOL     OW 1345   1.814   2.934   0.805  0.2406 -0.0460 -0.4180
  449SOL    HW1 1346   1.832   2.968   0.901 -0.1331  1.7497  1.3630
  449SOL    HW2 1347   1.856   2.837   0.786 -1.2904 -0.4292 -1.8896
  450SOL     OW 1348   2.253   1.460   0.664  0.5033  0.0404  0.0125
  450SOL    HW1 1349   2.205   1.506   0.747 -2.6546  1.6708 -0.3487
  450SOL    HW2 1350   2.304   1.528   0.601  1.4062  0.5311 -0.0392
  451SOL     OW 1351   1.406   3.000   1.469  0.1347  0.5748 -0.6814
  451SOL    HW1 1352   1.348   3.081   1.490 -1.4819 -1.0391 -0.9195
  451SOL    HW2 1353   1.444   2.963   1.562  0.8313 -1.6041  2.3696
  452SOL     OW 1354   2.708   2.315   2.261 -0.0705  0.2132 -0.0873
  452SOL    HW1 1355   2.638   2.391   2.252  1.3638  1.8339 -2.4460
  452SOL    HW2 1356   2.720   2.279   2.355 -1.9601 -0.2182 -0.5009
  453SOL     OW 1357   2.459   2.667   3.079 -0.0851 -0.1443  0.3287
  453SOL    HW1 1358   2.371   2.722   3.106  3.9358 -0.0234 -1.8070
  453SOL    HW2 1359   2.442   2.590   3.005  0.5884  0.6969 -2.1203
  454SOL     OW 1360   0.936   1.175   2.025  0.0791 -0.0320 -0.1570
  454SOL    HW1 1361   0.888   1.175   1.933 -0.0634 -0.8398 -0.8438
  454SOL    HW2 1362   1.019   1.237   2.019  0.9235 -1.3616  0.2459
  455SOL     OW 1363   0.659   2.615   2.789 -0.7634  0.5244  0.3481
  455SOL    HW1 1364   0.747   2.665   2.796 -4.4893  1.0437 -1.8285
  455SOL    HW2 1365   0.659   2.548   2.868 -0.8776  2.4840 -0.0294
  456SOL     OW 1366   0.333   1.930   0.238  1.0465  0.1924 -0.1231
  456SOL    HW1 1367   0.425   1.939   0.287  0.5142  0.5825  1.4472
  456SOL    HW2 1368   0.307   2.013   0.181  0.6397  0.6063  0.5172
  457SOL     OW 1369   0.397   2.746   0.680  0.3340  0.5787 -0.5296
  457SOL    HW1 1370   0.424   2.799   0.599  2.3966 -0.9820 -0.0806
  457SOL    HW2 1371   0.475   2.686   0.713 -0.1070  2.1529 -0.0186
  458SOL     OW 1372   2.938   0.039   1.264 -0.2593 -0.0872  0.2056
  458SOL    HW1 1373   2.961   0.135   1.234 -0.6437 -1.4591 -2.5673
  458SOL    HW2 1374   2.928  -0.026   1.186 -2.9315  0.5240  2.0513
  459SOL     OW 1375   2.165   2.479   0.753  0.6028 -0.0828  0.3441
  459SOL    HW1 1376   2.229   2.499   0.830  0.6834  0.2300  1.0924
  459SOL    HW2 1377   2.211   2.510   0.665 -0.3797 -1.8167 -1.6180
  460SOL     OW 1378   1.153   2.052   2.766 -0.0485  0.2220  0.0598
  460SOL    HW1 1379   1.180   2.041   2.665  1.4480  0.6444 -0.7730
  460SOL    HW2 1380   1.163   1.965   2.823  2.2739  0.9224 -0.6267
  461SOL     OW 1381   0.469   2.135   2.715 -0.0079  0.2011  0.1815
  461SOL    HW1 1382   0.415   2.061   2.655 -0.8137  0.0062 -1.8252
  461SOL    HW2 1383   0.503   2.089   2.806  0.9296 -0.7972  3.6903
  462SOL     OW 1384   0.954   1.013   1.753  0.2989 -0.1985  0.0756
  462SOL    HW1 1385   0.939   0.935   1.683 -1.6857 -0.6566 -0.1591
  462SOL    HW2 1386   0.895   1.099   1.731 -0.3758  0.1719 -0.6633
  463SOL     OW 1387   0.446   0.810   0.459 -0.2099  0.1318  0.1715
  463SOL    HW1 1388   0.490   0.720   0.418  0.6016  2.5380 -0.9155
  463SOL    HW2 1389   0.345   0.797   0.477 -0.2762  2.8805 -1.8360
  464SOL     OW 1390   0.592   2.342   2.242 -0.0038 -0.2636 -0.6461
  464SOL    HW1 1391   0.538   2.411   2.296 -0.4278  1.4668 -0.7048
  464SOL    HW2 1392   0.567   2.337   2.141 -1.7221 -3.1804 -1.1702
  465SOL     OW 1393   0.234   0.924   0.789  0.2621  0.0371  0.4766
  465SOL    HW1 1394   0.152   0.939   0.724  0.6123 -0.6647 -1.9167
  465SOL    HW2 1395   0.261   0.822   0.801 -1.2938 -0.0945 -2.0312
  466SOL     OW 1396   1.349   1.146   1.018  0.5182 -0.4572  0.0002
  466SOL    HW1 1397   1.363   1.223   0.951  1.6883 -2.2294  0.6356
  466SOL    HW2 1398   1.254   1.147   1.058  0.1895 -1.0981  0.6298
  467SOL     OW 1399   0.623   0.419   2.510 -0.1394 -0.4372 -0.8109
  467SOL    HW1 1400   0.562   0.501   2.528  1.8116 -0.4345 -2.2134
  467SOL    HW2 1401   0.637   0.358   2.596 -2.0461  0.0302  1.6576
  468SOL     OW 1402   0.446   2.256   1.588 -0.2188 -0.1803 -0.2437
  468SOL    HW1 1403   0.534   2.289   1.634 -0.0938 -1.0132  1.3233
  468SOL    HW2 1404   0.442   2.274   1.484  0.0815  0.6280 -1.2311
  469SOL     OW 1405   1.414   1.366   1.219 -0.3387  0.2971  0.4338
  469SOL    HW1 1406   1.478   1.328   1.154 -0.8067  1.8243  1.2676
  469SOL    HW2 1407   1.463   1.409   1.302  2.4386  0.5559  1.1774
  470SOL     OW 1408   3.017   1.808   0.774  0.0178 -0.1324 -0.6701
  470SOL    HW1 1409   3.081   1.865   0.720  2.3953 -2.5280  1.4069
  470SOL    HW2 1410   3.050   1.801   0.874  2.0332  0.9971  0.9127
  471SOL     OW 1411   2.610   1.380   2.195 -0.5894  0.2145  0.0185
  471SOL    HW1 1412   2.615   1.279   2.220  1.0374 -0.2272 -0.5964
  471SOL    HW2 1413   2.701   1.429   2.213 -1.8522 -1.1756 -0.2158
  472SOL     OW 1414   1.148   2.497   0.077  0.1036  0.3729  0.7813
  472SOL    HW1 1415   1.216   2.497   0.154 -0.5301 -2.6398  0.4889
  472SOL    HW2 1416   1.071   2.429   0.098 -0.5494 -0.7763 -0.7952
  473SOL     OW 1417   1.074   1.538   1.011 -0.3936  0.0982  0.0270
  473SOL    HW1 1418   0.991   1.533   0.948 -2.0137  0.7112  0.1896
  473SOL    HW2 1419   1.083   1.462   1.083  1.3526 -0.5489 -1.4797
  474SOL     OW 1420   0.643   1.284   0.523 -0.1234 -0.3465  0.1867
  474SOL    HW1 1421   0.572   1.218   0.488 -0.9092  2.3335 -0.5848
  474SOL    HW2 1422   0.714   1.236   0.582  0.6072  1.6817  1.6396
  475SOL     OW 1423   2.826   0.066   0.803  0.0252  0.3498 -0.2063
  475SOL    HW1 1424   2.890   0.148   0.808 -0.8256  0.1888  0.8658
  475SOL    HW2 1425   2.738   0.092   0.849  2.5937  1.3693  5.3484
  476SOL     OW 1426   0.964   3.075   1.805 -0.1682 -0.0269  0.0725
  476SOL    HW1 1427   1.066   3.096   1.807  0.2889 -0.0766  1.4326
  476SOL    HW2 1428   0.930   3.067   1.707  0.7284  2.0667 -2.7218
  477SOL     OW 1429   1.423   0.331   2.414  0.0682 -0.2747 -0.4748
  477SOL    HW1 1430   1.427   0.354   2.515 -0.8491 -0.0354  0.2215
  477SOL    HW2 1431   1.502   0.273   2.379 -0.4341 -0.5477 -0.2830
  478SOL     OW 1432   2.230   1.899   0.275  0.3288  0.0074 -0.1013
  478SOL    HW1 1433   2.182   1.812   0.316 -1.1038  1.4049 -1.4776
  478SOL    HW2 1434   2.282   1.873   0.190  4.8645  0.0167 -0.4657
  479SOL     OW 1435   1.278   0.951   2.899 -0.8190  0.4968 -0.1256
  479SOL    HW1 1436   1.347   0.977   2.825 -0.0237 -0.8563  1.6730
  479SOL    HW2 1437   1.213   0.879   2.866 -0.7864  1.1824 -0.7592
  480SOL     OW 1438   2.658   2.307   0.388 -0.2198  0.0072  0.1372
  480SOL    HW1 1439   2.711   2.223   0.418  1.2018 -0.2888 -1.4879
  480SOL    HW2 1440   2.555   2.296   0.369  0.0485  0.7657 -2.1354
  481SOL     OW 1441   1.019   1.151   0.875  0.7649 -0.0176  0.0103
  481SOL    HW1 1442   1.007   1.255   0.864 -0.9994 -0.0629 -0.1324
  481SOL    HW2 1443   1.071   1.126   0.959 -0.6087  0.7264 -0.3256
  482SOL     OW 1444   1.595   0.289   1.994 -0.6102  0.3008 -0.4738
  482SOL    HW1 1445   1.611   0.392   1.989 -1.5871 -0.8484 -0.5743
  482SOL    HW2 1446   1.675   0.240   2.035 -2.0053  1.0086 -1.8082
  483SOL     OW 1447   0.216   2.333   1.191  0.4732 -0.6727 -0.1801
  483SOL    HW1 1448   0.160   2.397   1.257  0.1532  1.8559 -0.7651
  483SOL    HW2 1449   0.221   2.383   1.103 -0.8487  0.7113  0.5141
  484SOL     OW 1450   1.705   1.048   1.384 -0.0438 -0.1091 -0.8496
  484SOL    HW1 1451   1.776   0.991   1.435  1.4109 -1.5802 -1.8898
  484SOL    HW2 1452   1.735   1.149   1.379  1.2421 -0.0085 -0.9636
  485SOL     OW 1453   0.756   0.765   1.878 -0.7260 -0.3571 -1.2098
  485SOL    HW1 1454   0.719   0.805   1.787  0.5792  1.1793 -0.0762
  485SOL    HW2 1455   0.842   0.701   1.861  2.1923 -1.2745 -1.7744
  486SOL     OW 1456   0.864   1.869   2.426 -0.8266  0.2809 -0.0928
  486SOL    HW1 1457   0.885   1.877   2.524  1.3215 -0.8745 -1.5700
  486SOL    HW2 1458   0.852   1.964   2.380 -2.0084  0.0983 -1.1848
  487SOL     OW 1459   1.765   1.611   1.058 -0.0922  0.3593 -0.6683
  487SOL    HW1 1460   1.804   1.518   1.084  1.6590  1.2818  1.0176
  487SOL    HW2 1461   1.816   1.664   0.982  0.9884  3.0238  0.2713
  488SOL     OW 1462   2.929   0.799   2.269  0.0823 -0.3601 -0.0253
  488SOL    HW1 1463   3.012   0.732   2.264  1.4292 -0.4581  2.6500
  488SOL    HW2 1464   2.882   0.789   2.360 -0.1328  0.4527 -0.3756
  489SOL     OW 1465   2.781   0.343   1.287 -0.0607 -0.0897 -0.0768
  489SOL    HW1 1466   2.780   0.323   1.390 -0.7097 -1.0094  0.6471
  489SOL    HW2 1467   2.872   0.306   1.248  0.6265  0.7224  0.7495
  490SOL     OW 1468   1.448   2.938   2.802 -0.4134 -0.3308  0.4440
  490SOL    HW1 1469   1.492   2.845   2.809 -1.5478 -1.1349 -1.5068
  490SOL    HW2 1470   1.435   2.966   2.703  1.7968 -0.1590 -0.2561
  491SOL     OW 1471   1.764   1.476   2.734 -0.5003  0.4211  0.0853
  491SOL    HW1 1472   1.737   1.447   2.828  0.3807  0.4888 -1.5219
  491SOL    HW2 1473   1.853   1.526   2.727 -0.2293 -2.4562 -1.2862
  492SOL     OW 1474   0.557   2.104   0.627 -0.2408  0.0069  0.4372
  492SOL    HW1 1475   0.603   2.093   0.713 -0.3823 -1.3754 -1.1763
  492SOL    HW2 1476   0.470   2.165   0.635 -1.8559 -0.1906  0.7026
  493SOL     OW 1477   0.424   1.340   2.082 -0.1176  0.3459 -0.0825
  493SOL    HW1 1478   0.332   1.391   2.070  0.8429  0.8064 -2.2293
  493SOL    HW2 1479   0.419   1.234   2.094  0.3808 -0.4962  1.3634
  494SOL     OW 1480   2.719   2.652   0.109 -0.2625 -0.2008  0.3623
  494SOL    HW1 1481   2.744   2.642   0.207 -0.0247  1.3049 -1.1332
  494SOL    HW2 1482   2.620   2.665   0.085  0.9093  0.3642 -1.4725
  495SOL     OW 1483   2.546   2.820   2.646  0.1579 -0.1010 -0.1681
  495SOL    HW1 1484   2.533   2.720   2.612 -3.4691  1.7585 -1.4140
  495SOL    HW2 1485   2.596   2.877   2.577 -3.3563 -0.4561  0.8506
  496SOL     OW 1486   1.938   2.267   0.844  0.3444 -0.5154 -0.2107
  496SOL    HW1 1487   2.009   2.342   0.866  0.3077  2.1420  0.5469
  496SOL    HW2 1488   1.966   2.174   0.880 -0.6303  2.6487  2.8024
  497SOL     OW 1489   0.219   3.017   2.354  0.0851 -0.0354  0.2101
  497SOL    HW1 1490   0.152   3.080   2.406  2.4181 -1.3489 -1.8757
  497SOL    HW2 1491   0.256   3.062   2.268 -0.5621  0.1058  3.3743
  498SOL     OW 1492   1.140   1.368   1.215  0.0486  0.5421  0.4428
  498SOL    HW1 1493   1.245   1.363   1.205  0.7822  0.0034  1.0614
  498SOL    HW2 1494   1.101   1.403   1.304 -2.4745 -2.4462  2.5712
  499SOL     OW 1495   0.592   1.839   0.337 -0.3133 -0.0637 -0.0169
  499SOL    HW1 1496   0.648   1.787   0.268  2.3174  0.7447 -0.8819
  499SOL    HW2 1497   0.654   1.901   0.392  0.5077 -1.2454 -1.5700
  500SOL     OW 1498   1.544   2.851   1.674 -0.0247  0.5518  0.7388
  500SOL    HW1 1499   1.563   2.830   1.776  1.2718 -1.0728 -1.5424
  500SOL    HW2 1500   1.561   2.769   1.612 -0.0877  1.2545  1.1088
  501SOL     OW 1501   0.819   1.177   2.281 -0.3957  0.3228  0.6152
  501SOL    HW1 1502   0.735   1.116   2.278  0.6511 -0.9083 -0.8939
  501SOL    HW2 1503   0.877   1.171   2.192 -0.2774 -0.5098 -4.5569
  502SOL     OW 1504   2.602   0.910   1.785  0.1695  0.1326 -0.2577
  502SOL    HW1 1505   2.615   0.945   1.687  0.5558  2.2531 -3.4038
  502SOL    HW2 1506   2.596   0.811   1.794 -1.6930  1.4059 -1.6101
  503SOL     OW 1507   1.306   0.114   0.688  0.3501  0.3434 -0.0345
  503SOL    HW1 1508   1.242   0.195   0.707  0.8012  1.5179  0.6691
  503SOL    HW2 1509   1.404   0.150   0.692 -0.8540  0.5041 -2.1552
  504SOL     OW 1510   3.013   2.327   1.471  0.3204 -0.0871  0.5394
  504SOL    HW1 1511   3.008   2.376   1.565  0.5853 -2.1395 -0.7835
  504SOL    HW2 1512   3.104   2.278   1.460  2.2704 -2.3856  1.5475
  505SOL     OW 1513   2.290   1.164   1.485  0.1185  0.6033 -0.6796
  505SOL    HW1 1514   2.308   1.184   1.387 -0.0780 -2.0371  0.6432
  505SOL    HW2 1515   2.368   1.204   1.539 -1.8546 -0.2270 -1.7393
  506SOL     OW 1516   1.934   0.178   1.831 -0.0512  0.1781 -0.4429
  506SOL    HW1 1517   2.026   0.137   1.812  0.0273 -0.8857 -1.3410
  506SOL    HW2 1518   1.936   0.282   1.856 -1.3436  2.9477 -1.2368
  507SOL     OW 1519   0.493   0.708   2.215 -0.0714 -0.4104 -0.1106
  507SOL    HW1 1520   0.468   0.656   2.134  2.5447  0.2763  0.5672
  507SOL    HW2 1521   0.587   0.683   2.252  0.5708  1.6432 -1.3463
  508SOL     OW 1522   0.279   1.687   0.804  0.4599  0.3590 -0.4125
  508SOL    HW1 1523   0.356   1.731   0.749 -0.0895 -1.6810  1.3285
  508SOL    HW2 1524   0.268   1.731   0.895  0.9931 -2.2391 -2.5425
  509SOL     OW 1525   1.311   1.205   2.456 -0.2595 -0.1680 -0.1646
  509SOL    HW1 1526   1.324   1.165   2.360 -0.8230  0.9413  0.6553
  509SOL    HW2 1527   1.213   1.214   2.486  1.7247  1.2972 -1.7235
  510SOL     OW 1528   1.303   2.034   2.230 -0.2282 -0.3227  0.2535
  510SOL    HW1 1529   1.350   2.042   2.139  2.1081 -2.1765 -0.3394
  510SOL    HW2 1530   1.206   1.999   2.219  1.5837  1.6398 -1.2891
  511SOL     OW 1531   2.995   2.743   1.285  0.2899  0.6310 -0.2238
  511SOL    HW1 1532   3.045   2.755   1.195 -1.4386  1.1980  0.0285
  511SOL    HW2 1533   2.894   2.722   1.278 -0.2538  0.6652  0.8636
  512SOL     OW 1534   2.346   0.449   1.400  0.0915 -0.1536 -0.5045
  512SOL    HW1 1535   2.243   0.451   1.385  1.3085  0.6593  0.4488
  512SOL    HW2 1536   2.406   0.395   1.332 -0.3879 -0.4353  0.4577
  513SOL     OW 1537   2.567   2.091   0.844  0.4898  0.2038  0.5820
  513SOL    HW1 1538   2.546   2.185   0.799  0.2551 -0.6285 -1.9248
  513SOL    HW2 1539   2.661   2.052   0.828 -1.3346  0.3633  2.7084
  514SOL     OW 1540   0.628   2.707   0.438  0.2340 -0.1912 -0.3429
  514SOL    HW1 1541   0.653   2.694   0.339 -3.3535 -0.8514  1.6844
  514SOL    HW2 1542   0.655   2.800   0.473 -0.3005  0.5540 -1.1897
  515SOL     OW 1543   1.942   1.340   2.403  0.0107 -0.1233  0.0402
  515SOL    HW1 1544   1.919   1.309   2.306 -0.7919 -1.0993  0.2202
  515SOL    HW2 1545   1.864   1.311   2.464  1.8557  0.0518 -0.8327
  516SOL     OW 1546   0.255   0.204   1.922 -0.2352  0.9520 -1.1999
  516SOL    HW1 1547   0.353   0.183   1.908  0.2402 -0.0872  0.8814
  516SOL    HW2 1548   0.192   0.142   1.862 -0.8939 -1.9771 -1.4419
  517SOL     OW 1549   0.474   0.196   1.173 -0.2867  0.2121 -0.0328
  517SOL    HW1 1550   0.540   0.138   1.233 -0.6905  1.9245 -2.3181
  517SOL    HW2 1551   0.399   0.137   1.129  2.6884 -0.2835 -0.1359
  518SOL     OW 1552   2.180   3.011   1.856 -0.1142  0.2120 -0.3728
  518SOL    HW1 1553   2.216   3.108   1.851 -1.4706 -1.4375 -2.3381
  518SOL    HW2 1554   2.197   2.960   1.765 -3.1270  0.2739  1.1744
  519SOL     OW 1555   2.357   2.232   2.558 -0.0760 -0.2311  0.1904
  519SOL    HW1 1556   2.267   2.207   2.602 -1.3350  3.4689 -0.0948
  519SOL    HW2 1557   2.368   2.334   2.552  0.2694  0.3123  0.1797
  520SOL     OW 1558   1.838   2.721   1.667 -0.1876 -0.0192  0.8036
  520SOL    HW1 1559   1.774   2.675   1.729  2.6088  1.7420 -0.3289
  520SOL    HW2 1560   1.925   2.668   1.637  2.1466  0.4861 -1.5512
  521SOL     OW 1561   0.608   0.070   2.146 -0.9015 -0.1569 -0.3329
  521SOL    HW1 1562   0.517   0.016   2.141  1.1657 -0.2373 -0.7242
  521SOL    HW2 1563   0.643   0.065   2.245 -2.6178 -0.0516  1.7088
  522SOL     OW 1564   0.242   1.902   1.462  0.6418  0.0128  0.0706
  522SOL    HW1 1565   0.274   1.958   1.546  1.6939 -1.8116  1.2370
  522SOL    HW2 1566   0.186   1.952   1.390 -0.9590 -0.4397  0.3154
  523SOL     OW 1567   2.164   2.934   1.566 -0.3049  0.4049 -0.3022
  523SOL    HW1 1568   2.253   2.895   1.552 -1.7569  0.1099  2.5152
  523SOL    HW2 1569   2.096   2.906   1.488 -2.4060 -0.7111  1.2533
  524SOL     OW 1570   0.196   2.763   2.795  0.2722  0.3379 -0.1318
  524SOL    HW1 1571   0.148   2.839   2.849 -0.9513 -1.9789  1.0335
  524SOL    HW2 1572   0.298   2.776   2.780  4.4206 -0.3304  1.2652
  525SOL     OW 1573   2.163   2.055   0.491 -0.9462  0.0525 -0.3525
  525SOL    HW1 1574   2.173   2.005   0.584  0.1616 -0.7292  1.1888
  525SOL    HW2 1575   2.201   2.000   0.415 -0.3670  2.2991  2.9972
  526SOL     OW 1576   0.431   1.544   1.728 -0.0255  0.0370 -0.2501
  526SOL    HW1 1577   0.505   1.608   1.761 -3.3130  3.3564  3.4558
  526SOL    HW2 1578   0.460   1.441   1.724 -1.3103  0.4741  0.8819
  527SOL     OW 1579   1.075   2.940   1.179 -0.2594  0.5137  0.1590
  527SOL    HW1 1580   1.110   2.881   1.256 -0.6386  1.5714  0.0961
  527SOL    HW2 1581   1.143   3.015   1.147 -0.5111 -2.8567  1.1195
  528SOL     OW 1582   1.296   2.419   0.571  0.4169 -0.3308 -0.4464
  528SOL    HW1 1583   1.358   2.343   0.586 -0.2438  0.3658  0.3605
  528SOL    HW2 1584   1.311   2.500   0.642 -0.8675  0.9042  1.7658
  529SOL     OW 1585   1.892   1.770   0.866 -0.5098  0.3495 -0.2031
  529SOL    HW1 1586   1.851   1.756   0.773  1.8483  0.0600  1.9129
  529SOL    HW2 1587   1.922   1.869   0.883  1.5519 -1.9264 -0.0023
  530SOL     OW 1588   0.409   2.491   0.173  0.2166  0.5125 -0.5748
  530SOL    HW1 1589   0.461   2.471   0.263  0.7315  2.4594 -0.6522
  530SOL    HW2 1590   0.419   2.414   0.106  0.2640  0.5446 -2.3206
  531SOL     OW 1591   1.828   0.987   1.041  0.0275 -0.0878  0.1940
  531SOL    HW1 1592   1.819   0.997   0.937 -1.0167 -0.2303  0.8510
  531SOL    HW2 1593   1.739   0.946   1.076  0.8748  0.3208 -0.9848
  532SOL     OW 1594   0.403   1.171   0.703  0.0350 -0.1548 -0.1368
  532SOL    HW1 1595   0.411   1.146   0.605 -1.6264 -1.3508  1.4513
  532SOL    HW2 1596   0.349   1.097   0.755  0.6911 -2.2468 -2.0125
  533SOL     OW 1597   1.837   0.074   2.573 -0.2566 -0.5048 -0.4490
  533SOL    HW1 1598   1.935   0.042   2.594  0.5948 -2.9780 -1.0049
  533SOL    HW2 1599   1.801   0.144   2.637  0.1542 -2.6194 -1.5413
  534SOL     OW 1600   0.198   0.200   1.571  0.5022 -0.2343  0.1795
  534SOL    HW1 1601   0.270   0.250   1.510  1.8783  0.6723 -1.0415
  534SOL    HW2 1602   0.107   0.257   1.572 -2.3555  1.0340  0.3882
  535SOL     OW 1603   1.873   0.414   0.177  0.1034  0.3784  0.5539
  535SOL    HW1 1604   1.932   0.502   0.204  1.5167 -2.4175  2.8436
  535SOL    HW2 1605   1.821   0.398   0.264 -2.1966 -0.9665 -0.2392
  536SOL     OW 1606   1.226   2.532   1.019  0.5009  0.2596  0.1396
  536SOL    HW1 1607   1.286   2.465   0.963 -0.4811 -1.2580  4.0631
  536SOL    HW2 1608   1.128   2.533   0.990 -0.1071  0.1497 -1.5627
  537SOL     OW 1609   0.873   0.212   2.331 -0.1542 -0.4210  0.3447
  537SOL    HW1 1610   0.846   0.278   2.256 -3.6471  2.3985  2.4445
  537SOL    HW2 1611   0.799   0.142   2.341 -0.8635  0.7187 -1.1570
  538SOL     OW 1612   1.703   2.315   1.564 -0.2229  0.3704 -0.5160
  538SOL    HW1 1613   1.638   2.255   1.503  0.2473 -0.5271  0.7435
  538SOL    HW2 1614   1.781   2.352   1.509  1.2142  1.9159  3.0548
  539SOL     OW 1615   0.168   1.600   2.705  0.3622  0.2827 -0.1997
  539SOL    HW1 1616   0.068   1.590   2.683 -1.0185  2.7051  1.8024
  539SOL    HW2 1617   0.201   1.688   2.740 -0.3220  1.1888  0.8797
  540SOL     OW 1618   2.691   1.728   2.104  0.0865 -0.1048 -0.8175
  540SOL    HW1 1619   2.642   1.656   2.041  0.7317 -0.7284 -1.3503
  540SOL    HW2 1620   2.656   1.825   2.076  1.1519  1.1721  1.4576
  541SOL     OW 1621   0.443   2.262   3.098  0.1856  0.6401 -0.2863
  541SOL    HW1 1622   0.515   2.194   3.126  1.0529  1.6797  1.3897
  541SOL    HW2 1623   0.367   2.230   3.031 -1.0476  1.4314 -2.9039
  542SOL     OW 1624   2.203   2.629   0.438  0.3286  0.6949 -0.0811
  542SOL    HW1 1625   2.204   2.728   0.409  0.5022 -0.7625  0.7705
  542SOL    HW2 1626   2.111   2.603   0.479 -2.4828 -1.2192  0.5496
  543SOL     OW 1627   1.046   1.802   1.749 -0.1074 -0.0129  0.2368
  543SOL    HW1 1628   1.009   1.823   1.842  3.1613 -1.6867 -1.6046
  543SOL    HW2 1629   1.009   1.863   1.671 -2.2116  0.0336 -2.0292
  544SOL     OW 1630   0.839   0.422   0.146 -0.3218  0.2855 -0.0668
  544SOL    HW1 1631   0.864   0.358   0.223  0.5575 -0.0154  1.4144
  544SOL    HW2 1632   0.902   0.419   0.065  0.8697 -0.1361  1.0380
  545SOL     OW 1633   1.166   1.745   0.618  0.6032 -0.6772 -0.0432
  545SOL    HW1 1634   1.246   1.726   0.679 -0.2566 -1.6870 -0.4505
  545SOL    HW2 1635   1.190   1.752   0.516  0.7895 -0.3196 -0.2338
  546SOL     OW 1636   2.685   1.584   0.043  0.2929  0.0648  0.2292
  546SOL    HW1 1637   2.717   1.541  -0.049  1.3373  1.2182 -1.1991
  546SOL    HW2 1638   2.592   1.558   0.066 -1.9629  0.6276 -0.1154
  547SOL     OW 1639   0.516   0.007   2.754  0.3167 -0.2901  0.3724
  547SOL    HW1 1640   0.504  -0.087   2.724  1.3075  4.4400  0.7785
  547SOL    HW2 1641   0.542   0.023   2.852  0.5342 -1.7057  0.4982
  548SOL     OW 1642   2.076   0.825   3.066 -0.1843  0.2952 -0.6073
  548SOL    HW1 1643   1.988   0.786   3.100  1.6217  3.9255 -1.8848
  548SOL    HW2 1644   2.068   0.931   3.076  2.8083  1.6668 -1.3062
  549SOL     OW 1645   0.579   0.418   0.094  0.4262 -0.0577  0.5650
  549SOL    HW1 1646   0.543   0.511   0.063 -3.0206  1.5559  1.5754
  549SOL    HW2 1647   0.681   0.421   0.116  1.4373 -3.4543  1.7063
  550SOL     OW 1648   2.538   2.860   2.913 -0.3677  0.6904  0.1751
  550SOL    HW1 1649   2.519   2.766   2.957  2.3743 -0.3735  1.3246
  550SOL    HW2 1650   2.553   2.844   2.806  1.5284  2.6261 -1.8333
  551SOL     OW 1651   0.238   0.778   0.169  0.3521  0.1323 -0.1548
  551SOL    HW1 1652   0.339   0.773   0.192  0.2766  0.9578  0.4515
  551SOL    HW2 1653   0.185   0.779   0.257  0.0289  0.7404 -3.1909
  552SOL     OW 1654   0.828   2.806   1.895  0.1273  0.2516  0.4483
  552SOL    HW1 1655   0.809   2.748   1.978  1.5100  3.7222 -3.0041
  552SOL    HW2 1656   0.860   2.903   1.915  0.1801 -0.9317 -2.1122
  553SOL     OW 1657   3.090   2.558   0.425 -0.0165  0.1399  0.3642
  553SOL    HW1 1658   3.043   2.468   0.409 -1.0127  0.2027 -1.9252
  553SOL    HW2 1659   3.062   2.605   0.513  2.3527  0.7327  1.8416
  554SOL     OW 1660   2.134   0.295   0.550 -0.5290 -0.0753  0.8604
  554SOL    HW1 1661   2.137   0.242   0.464 -4.0337 -2.8840  1.0138
  554SOL    HW2 1662   2.148   0.236   0.638  1.4689  0.3102  1.1638
  555SOL     OW 1663   0.471   2.942   2.454  0.0311  0.3846 -0.4241
  555SOL    HW1 1664   0.389   3.003   2.432 -0.4751  0.9961 -0.1850
  555SOL    HW2 1665   0.470   2.855   2.401  0.1194 -1.1774  0.0176
  556SOL     OW 1666   0.886   2.282   1.620  0.2609 -0.3194  0.5376
  556SOL    HW1 1667   0.945   2.351   1.665  1.2193 -1.3551  1.8424
  556SOL    HW2 1668   0.923   2.258   1.525 -0.1534  1.5585  0.6943
  557SOL     OW 1669   0.146   2.134   0.139  0.1944 -0.2473 -0.0200
  557SOL    HW1 1670   0.070   2.064   0.133 -0.5505  1.8292  0.4138
  557SOL    HW2 1671   0.176   2.172   0.050  0.8329  2.8011  1.0990
  558SOL     OW 1672   2.943   2.336   0.275  0.3363 -0.3689 -0.2104
  558SOL    HW1 1673   2.839   2.337   0.289  2.9683  2.3729 -1.3782
  558SOL    HW2 1674   2.978   2.325   0.179  1.6600  0.9007  0.0452
  559SOL     OW 1675   0.434   2.245   1.322  0.4052 -0.4734  0.9010
  559SOL    HW1 1676   0.366   2.288   1.256  1.0240 -2.2308  2.5225
  559SOL    HW2 1677   0.472   2.153   1.288  0.2814 -1.5492  1.3770
  560SOL     OW 1678   2.028   1.080   3.088  0.4398 -0.1320  0.2122
  560SOL    HW1 1679   2.030   1.156   3.016 -0.1909 -0.0469  0.0830
  560SOL    HW2 1680   1.998   1.121   3.178 -0.1026  1.2730 -0.5575
  561SOL     OW 1681   3.047   1.922   0.095 -0.3086 -0.1091 -0.4507
  561SOL    HW1 1682   2.993   1.832   0.097  1.5847 -1.4906 -3.8056
  561SOL    HW2 1683   2.989   2.003   0.060  2.4391 -0.1687 -0.0676
  562SOL     OW 1684   0.839   2.178   2.463  0.1908 -0.4982 -0.6379
  562SOL    HW1 1685   0.739   2.152   2.443  1.6405  0.1175 -1.0013
  562SOL    HW2 1686   0.862   2.236   2.553  1.6206  1.0112  0.9843
  563SOL     OW 1687   0.735   2.546   2.541  0.1332 -0.5695 -0.0242
  563SOL    HW1 1688   0.753   2.451   2.579 -3.1503 -1.6096  1.0342
  563SOL    HW2 1689   0.690   2.603   2.620  1.1521  0.5505  0.7341
  564SOL     OW 1690   2.772   1.276   2.853 -0.5327  0.1204 -0.3445
  564SOL    HW1 1691   2.678   1.273   2.897 -0.2857  2.4828 -0.3838
  564SOL    HW2 1692   2.808   1.373   2.861 -1.0526  0.1920 -2.6047
  565SOL     OW 1693   2.509   2.006   2.595 -0.0843 -0.6422  0.4132
  565SOL    HW1 1694   2.459   2.089   2.560 -0.4565  1.0853  1.0474
  565SOL    HW2 1695   2.607   2.025   2.619 -1.6106 -0.1151  1.1750
  566SOL     OW 1696   1.986   2.843   1.370  0.0353  0.5724 -0.3077
  566SOL    HW1 1697   1.995   2.748   1.406 -1.7337 -0.2920 -0.4250
  566SOL    HW2 1698   2.035   2.856   1.276  1.1337  1.1531 -1.3548
  567SOL     OW 1699   2.464   0.147   2.259 -0.1140  0.0418  0.4053
  567SOL    HW1 1700   2.503   0.117   2.168 -0.3975  0.0327  1.1352
  567SOL    HW2 1701   2.371   0.190   2.243 -1.6212 -0.5202  0.1647
  568SOL     OW 1702   1.438   1.809   0.425  0.8115  0.1578  0.2039
  568SOL    HW1 1703   1.395   1.876   0.354 -1.4091  1.1461 -0.7547
  568SOL    HW2 1704   1.466   1.851   0.509 -0.5359 -0.0533 -0.1664
  569SOL     OW 1705   0.285   0.665   0.798  0.5802 -0.6577  0.0164
  569SOL    HW1 1706   0.366   0.627   0.745 -3.8942  4.3593  1.2923
  569SOL    HW2 1707   0.200   0.609   0.781  3.2363  2.3974 -2.0030
  570SOL     OW 1708   0.608   0.772   2.849 -0.0786 -0.0326  0.1927
  570SOL    HW1 1709   0.667   0.786   2.760 -0.1106 -0.1091  1.5048
  570SOL    HW2 1710   0.620   0.848   2.919 -3.0695  0.0101 -1.3103
  571SOL     OW 1711   0.832   3.057   1.118 -0.4192 -0.2583  0.0850
  571SOL    HW1 1712   0.849   3.132   1.044 -0.6396  0.9040 -1.0880
  571SOL    HW2 1713   0.911   2.989   1.137 -0.4885 -1.5494  2.1024
  572SOL     OW 1714   1.532   2.566   1.165 -0.0309  0.4741 -0.3101
  572SOL    HW1 1715   1.455   2.521   1.218  1.4161 -0.0700 -3.5764
  572SOL    HW2 1716   1.492   2.647   1.113 -0.0233  0.1416  0.2890
  573SOL     OW 1717   2.943   0.412   2.103  0.1312 -0.1247 -0.2360
  573SOL    HW1 1718   2.889   0.330   2.137 -3.1172  1.8984 -0.7753
  573SOL    HW2 1719   2.875   0.470   2.044 -0.2191 -1.4399 -0.1825
  574SOL     OW 1720   0.250   1.803   1.048 -0.0469  0.0245  0.4686
  574SOL    HW1 1721   0.225   1.886   0.996  0.6367 -1.6506  1.8027
  574SOL    HW2 1722   0.170   1.750   1.091  2.1949 -0.7393  0.3541
  575SOL     OW 1723   0.889   2.130   1.013 -0.1553 -0.5077 -0.3039
  575SOL    HW1 1724   0.834   2.146   1.099 -0.0682 -1.9330 -0.1447
  575SOL    HW2 1725   0.958   2.205   0.992 -3.0444  2.4037  1.5688
  576SOL     OW 1726   2.930   2.908   1.704 -0.3917  0.3768  0.5595
  576SOL    HW1 1727   2.843   2.869   1.660  1.4168  0.0971  1.0442
  576SOL    HW2 1728   2.935   3.009   1.685 -0.2313 -0.5920 -2.0193
  577SOL     OW 1729   2.552   1.276   3.058  0.0389  0.4557  0.2737
  577SOL    HW1 1730   2.535   1.176   3.039 -0.9161  1.5784 -0.9772
  577SOL    HW2 1731   2.618   1.289   3.132 -0.3556  0.6049 -4.0286
  578SOL     OW 1732   1.336   2.717   2.566 -0.3674  0.0078 -0.4145
  578SOL    HW1 1733   1.245   2.710   2.510 -3.7133 -0.0251 -2.0047
  578SOL    HW2 1734   1.384   2.808   2.556 -1.7471 -0.3077 -0.0625
  579SOL     OW 1735   0.133   2.542   0.183 -0.2364 -0.2279  0.3246
  579SOL    HW1 1736   0.096   2.564   0.280 -2.3227  0.3371 -0.1392
  579SOL    HW2 1737   0.222   2.490   0.183  1.4033  1.9640  1.0871
  580SOL     OW 1738   1.016   2.659   0.353 -0.0340 -0.2712  0.1820
  580SOL    HW1 1739   1.098   2.684   0.295  0.8161 -0.6722  1.7898
  580SOL    HW2 1740   0.964   2.577   0.320  1.1843 -2.1473  0.0382
  581SOL     OW 1741   1.209   2.608   1.478 -0.3962  0.3878 -0.4969
  581SOL    HW1 1742   1.270   2.525   1.460  0.7068 -0.5354  3.4201
  581SOL    HW2 1743   1.235   2.688   1.419 -2.1113  2.3686 -0.7250
  582SOL     OW 1744   1.485   0.043   1.872 -0.1797 -0.3989 -0.4094
  582SOL    HW1 1745   1.483   0.133   1.927  0.8790  3.7517  1.4141
  582SOL    HW2 1746   1.573   0.036   1.816  0.3026 -0.8913 -1.8228
  583SOL     OW 1747   2.437   2.991   0.602  0.1935 -0.1236 -0.1045
  583SOL    HW1 1748   2.476   2.942   0.520 -2.5803 -3.0110 -0.5172
  583SOL    HW2 1749   2.370   2.935   0.665 -0.2886  1.3294  2.8358
  584SOL     OW 1750   1.540   0.970   2.110  0.5138  0.5946  0.1750
  584SOL    HW1 1751   1.606   1.020   2.052  0.6387 -0.2064  1.7695
  584SOL    HW2 1752   1.586   0.936   2.196  0.0621  0.6372  0.0684
  585SOL     OW 1753   2.128   2.645   2.924 -0.6079  0.4219  0.1777
  585SOL    HW1 1754   2.145   2.554   2.872  0.5230  0.2174 -1.5750
  585SOL    HW2 1755   2.029   2.672   2.922 -3.9965 -0.9419  1.9137
  586SOL     OW 1756   2.777   0.222   1.584 -0.4451 -0.6581 -0.3168
  586SOL    HW1 1757   2.780   0.301   1.657 -2.2983  4.1581  0.4742
  586SOL    HW2 1758   2.682   0.174   1.587  0.4605 -1.0727  0.0853
  587SOL     OW 1759   2.008   1.617   2.731  0.1844  0.0511 -0.2287
  587SOL    HW1 1760   2.064   1.568   2.658 -3.1409  2.9145 -2.3999
  587SOL    HW2 1761   2.059   1.619   2.822  0.9227 -1.5021  3.0403
  588SOL     OW 1762   0.484   2.724   2.219 -0.6374  0.1824 -0.1077
  588SOL    HW1 1763   0.405   2.727   2.154 -0.5424 -0.2812  3.2045
  588SOL    HW2 1764   0.477   2.656   2.297  1.2545  2.1352  2.3067
  589SOL     OW 1765   2.145   1.484   2.534 -0.1750  0.7876 -0.1976
  589SOL    HW1 1766   2.076   1.417   2.489 -1.7728 -0.5726  1.0105
  589SOL    HW2 1767   2.241   1.445   2.538  2.2575  1.1383  0.9907
  590SOL     OW 1768   2.333   1.712   1.988 -0.7561 -0.1604  0.3398
  590SOL    HW1 1769   2.411   1.644   1.980  2.3760 -0.4241 -2.9598
  590SOL    HW2 1770   2.352   1.780   2.061  0.7897 -0.1702 -0.6401
  591SOL     OW 1771   1.329   2.480   0.322 -0.1945 -0.2239 -0.6528
  591SOL    HW1 1772   1.418   2.444   0.284 -0.4221 -2.4498  1.8200
  591SOL    HW2 1773   1.308   2.457   0.422  0.1464  0.5637  0.3414
  592SOL     OW 1774   1.694   2.340   0.783  0.3403  0.4592 -0.1661
  592SOL    HW1 1775   1.672   2.372   0.692 -0.3174 -1.6704  2.6666
  592SOL    HW2 1776   1.798   2.328   0.796  0.3247  0.0110  1.4525
  593SOL     OW 1777   0.561   0.188   3.040  0.4749 -0.4217  0.1859
  593SOL    HW1 1778   0.649   0.142   3.019 -0.2648 -2.1591  0.4860
  593SOL    HW2 1779   0.573   0.264   3.112  3.9230  2.8165  1.1411
  594SOL     OW 1780   0.899   1.954   2.689  0.5060  0.6473 -0.2764
  594SOL    HW1 1781   0.973   2.017   2.724 -0.5570  0.9143 -1.3465
  594SOL    HW2 1782   0.800   1.976   2.717 -0.3366 -0.1334  0.9637
  595SOL     OW 1783   1.557   0.044   1.064  0.1959 -0.0317 -0.2763
  595SOL    HW1 1784   1.639  -0.013   1.093 -0.6097  0.4658  0.4223
  595SOL    HW2 1785   1.504  -0.015   1.000 -0.2787 -1.3396  2.6919
  596SOL     OW 1786   3.080   1.450   2.221 -0.6029 -0.5944  0.6773
  596SOL    HW1 1787   2.994   1.512   2.233  1.7482  0.0351 -3.1857
  596SOL    HW2 1788   3.105   1.389   2.300  2.3945 -4.4045  0.3538
  597SOL     OW 1789   2.109   2.617   1.624 -0.3429 -0.0139  0.1963
  597SOL    HW1 1790   2.118   2.537   1.551  1.5579 -0.2683 -2.8781
  597SOL    HW2 1791   2.197   2.632   1.677  3.4758 -1.2138 -0.5933
  598SOL     OW 1792   2.540   2.897   1.201 -0.4262 -0.0900  0.2796
  598SOL    HW1 1793   2.620   2.914   1.266 -0.6095 -2.2624 -2.3703
  598SOL    HW2 1794   2.576   2.890   1.104  0.4122  0.3970  0.5660
  599SOL     OW 1795   2.920   0.336   2.418 -0.4861 -0.4068  0.7065
  599SOL    HW1 1796   2.997   0.338   2.347  1.3250  0.3867 -1.0175
  599SOL    HW2 1797   2.852   0.414   2.406 -2.2228 -0.8057  1.4806
  600SOL     OW 1798   2.838   1.037   2.716  0.1853 -0.0310 -0.4932
  600SOL    HW1 1799   2.806   0.957   2.771  0.2360  1.9211 -0.6762
  600SOL    HW2 1800   2.824   1.130   2.769 -1.3636 -0.1465  0.6511
  601SOL     OW 1801   2.965   1.248   2.048  1.0435  0.2569 -0.3553
  601SOL    HW1 1802   2.911   1.287   1.969 -2.0765  0.0464  3.4796
  601SOL    HW2 1803   3.005   1.322   2.104 -0.1924  1.2931  1.3119
  602SOL     OW 1804   1.547   1.699   2.370  0.4314  0.2471  0.3367
  602SOL    HW1 1805   1.493   1.616   2.400  1.5220  1.7859  0.6344
  602SOL    HW2 1806   1.647   1.692   2.391 -4.7971  2.2355  0.4980
  603SOL     OW 1807   0.670   1.260   2.631 -0.0547 -0.1263  0.4923
  603SOL    HW1 1808   0.606   1.250   2.547 -0.2795 -0.8135 -0.9274
  603SOL    HW2 1809   0.732   1.171   2.652  1.5505  0.1349  1.0239
  604SOL     OW 1810   2.407   0.957   0.196  0.2597  0.0881  0.3228
  604SOL    HW1 1811   2.469   1.016   0.132 -0.7601 -1.0336 -0.7765
  604SOL    HW2 1812   2.373   0.875   0.142  1.4894 -1.0287  1.4292
  605SOL     OW 1813   2.665   1.129   1.952  0.5948  0.5175 -0.4552
  605SOL    HW1 1814   2.641   1.046   1.897  0.1230  0.6254  1.5717
  605SOL    HW2 1815   2.664   1.112   2.051  0.3834  0.7467 -0.8461
  606SOL     OW 1816   1.540   2.539   2.578  0.4591 -0.2154  0.1864
  606SOL    HW1 1817   1.449   2.590   2.573 -0.7860  2.0673  1.8872
  606SOL    HW2 1818   1.516   2.437   2.583  2.7032  1.7934  3.0666
  607SOL     OW 1819   1.344   1.539   0.448  0.0292  0.4277 -0.0901
  607SOL    HW1 1820   1.286   1.514   0.533 -2.8311 -0.5323  0.7621
  607SOL    HW2 1821   1.353   1.641   0.439  0.3591  1.2381 -0.4419
  608SOL     OW 1822   1.409   2.919   0.435 -0.0944 -0.1828  0.4497
  608SOL    HW1 1823   1.498   2.958   0.394  1.3641  2.8754 -0.7916
  608SOL    HW2 1824   1.337   2.994   0.456 -2.8799  0.0186 -0.0543
  609SOL     OW 1825   1.320   1.350   0.268 -0.6987 -0.2546 -0.0838
  609SOL    HW1 1826   1.340   1.430   0.332  2.0681  1.8715 -0.2302
  609SOL    HW2 1827   1.223   1.358   0.232  0.7457  0.7060  0.6517
  610SOL     OW 1828   2.968   1.053   2.288 -0.6059  0.1941  0.5005
  610SOL    HW1 1829   2.941   0.952   2.282  0.2600 -0.6598  2.7457
  610SOL    HW2 1830   2.964   1.102   2.200 -1.9251  0.6202  0.4888
  611SOL     OW 1831   2.504   0.316   1.220  0.2543  0.1436 -0.6952
  611SOL    HW1 1832   2.475   0.215   1.224 -0.3909 -0.5957  0.9401
  611SOL    HW2 1833   2.605   0.325   1.236 -0.3346 -1.1362 -0.4070
  612SOL     OW 1834   0.752   2.176   1.231 -0.1366  0.4347  0.1678
  612SOL    HW1 1835   0.676   2.106   1.225 -1.5641  0.7855  1.0563
  612SOL    HW2 1836   0.718   2.278   1.217  0.8469  1.4924 -0.7101
  613SOL     OW 1837   0.883   1.428   2.395  0.2660  0.2490 -0.2931
  613SOL    HW1 1838   0.960   1.455   2.325 -1.4301  0.4351 -2.4428
  613SOL    HW2 1839   0.816   1.362   2.349 -1.0340 -2.5090  0.6157
  614SOL     OW 1840   1.674   1.569   1.824 -0.1643  0.4309  0.2468
  614SOL    HW1 1841   1.631   1.662   1.802  2.1643  0.8171 -0.3698
  614SOL    HW2 1842   1.738   1.576   1.904  2.6527  1.4068 -2.1305
  615SOL     OW 1843   0.762   1.240   1.748 -0.0769 -0.1542 -0.1472
  615SOL    HW1 1844   0.690   1.210   1.670  0.0597  0.0250 -1.1193
  615SOL    HW2 1845   0.808   1.333   1.725  0.8103  0.0123 -0.5418
  616SOL     OW 1846   1.073   1.557   2.213  0.4447  0.2069  0.1041
  616SOL    HW1 1847   1.001   1.545   2.137  2.3702  1.6068 -1.8289
  616SOL    HW2 1848   1.083   1.659   2.247  0.0688 -0.9275  1.2192
  617SOL     OW 1849   2.968   1.526   1.627  0.4542  0.3084  0.1038
  617SOL    HW1 1850   2.992   1.440   1.681  1.9503  3.2039  1.5383
  617SOL    HW2 1851   3.011   1.521   1.531 -0.6457 -0.7756 -0.0805
  618SOL     OW 1852   1.858   2.081   1.374  0.0380  0.2062 -0.2355
  618SOL    HW1 1853   1.863   2.175   1.325  0.2102  1.0050 -3.4872
  618SOL    HW2 1854   1.842   2.001   1.312 -0.1177  1.6545  0.2415
  619SOL     OW 1855   1.753   0.465   2.377 -0.1001 -0.3148 -0.3879
  619SOL    HW1 1856   1.693   0.526   2.326 -2.3394 -0.8413 -0.8286
  619SOL    HW2 1857   1.713   0.378   2.413  0.5711  0.1328 -1.1144
  620SOL     OW 1858   2.267   2.842   0.781  0.0655  0.1925 -0.0013
  620SOL    HW1 1859   2.174   2.803   0.764  1.8906  1.6908  1.3181
  620SOL    HW2 1860   2.326   2.777   0.837  1.0367 -0.5766  1.0838
  621SOL     OW 1861   2.164   1.887   1.369 -0.1945 -0.3312 -0.1880
  621SOL    HW1 1862   2.152   1.905   1.471  0.6338 -1.9166  0.3271
  621SOL    HW2 1863   2.114   1.798   1.338  0.9326 -1.5752  0.1080
  622SOL     OW 1864   2.323   0.947   1.883 -0.0660 -0.4599  0.0735
  622SOL    HW1 1865   2.428   0.938   1.874 -2.0928 -0.9178 -2.1715
  622SOL    HW2 1866   2.276   0.865   1.922  2.1231 -1.2705 -0.3301
  623SOL     OW 1867   1.287   0.824   2.498  0.2959 -0.4456 -0.7885
  623SOL    HW1 1868   1.224   0.752   2.537  2.2564  0.2724  1.7276
  623SOL    HW2 1869   1.234   0.880   2.427  1.5125  2.9336 -2.0975
  624SOL     OW 1870   0.487   0.656   3.059  0.6767  0.0186  0.3775
  624SOL    HW1 1871   0.523   0.699   2.973 -1.7988  0.9280 -0.6223
  624SOL    HW2 1872   0.498   0.713   3.143  2.5357 -0.3149  0.1630
  625SOL     OW 1873   2.775   1.705   1.036  0.2193 -0.0768  0.5144
  625SOL    HW1 1874   2.700   1.768   1.002  0.9129 -1.4354 -0.9364
  625SOL    HW2 1875   2.852   1.761   1.075 -1.4962 -0.1348  0.4683
  626SOL     OW 1876   0.654   2.671   1.742  0.0304 -0.2183 -0.2848
  626SOL    HW1 1877   0.714   2.736   1.797 -1.0584  2.2311 -1.7401
  626SOL    HW2 1878   0.555   2.666   1.765  0.5516 -0.6145  2.2059
  627SOL     OW 1879   0.665   0.842   1.626 -0.0256  0.5390 -0.3744
  627SOL    HW1 1880   0.583   0.795   1.586  0.9099  0.3548 -1.4574
  627SOL    HW2 1881   0.714   0.903   1.553 -0.5234 -2.1921  0.6602
  628SOL     OW 1882   2.408   0.151   0.710  0.3891  0.3680  0.0607
  628SOL    HW1 1883   2.437   0.053   0.682 -0.8461  1.5629  1.2091
  628SOL    HW2 1884   2.305   0.156   0.714  1.4173 -0.5938  0.3963
  629SOL     OW 1885   1.909   0.938   1.974 -0.0119  0.1321  0.1525
  629SOL    HW1 1886   1.925   1.026   1.923  0.8097 -2.8469 -1.1549
  629SOL    HW2 1887   1.910   0.954   2.073 -1.8466 -1.1087 -1.2739
  630SOL     OW 1888   2.897   2.249   0.793  0.0644  0.4444 -0.3601
  630SOL    HW1 1889   2.842   2.335   0.781  0.2227 -0.7477 -1.5836
  630SOL    HW2 1890   2.848   2.156   0.789 -2.0391  0.3888 -0.0754
  631SOL     OW 1891   0.027   0.139   2.109  0.1965 -0.1551  0.6535
  631SOL    HW1 1892   0.082   0.184   2.184 -0.3486 -2.0630  2.6837
  631SOL    HW2 1893   0.073   0.127   2.014  0.7818  0.8544  2.9309
  632SOL     OW 1894   2.445   2.557   0.591  0.2902 -0.1173 -0.3188
  632SOL    HW1 1895   2.506   2.628   0.631  1.8755 -0.6988 -1.8092
  632SOL    HW2 1896   2.406   2.575   0.495 -1.9263 -3.1073  0.7827
  633SOL     OW 1897   1.457   1.212   2.691 -0.1060 -0.7981  0.0501
  633SOL    HW1 1898   1.437   1.299   2.743 -2.7625  0.1128 -0.9787
  633SOL    HW2 1899   1.408   1.200   2.596 -1.5120  0.6558  1.2262
  634SOL     OW 1900   0.674   2.065   0.856  0.2700 -0.0857  0.5049
  634SOL    HW1 1901   0.586   2.079   0.913  0.1073 -1.0859 -0.3953
  634SOL    HW2 1902   0.757   2.105   0.907 -0.4936 -0.5769 -0.3876
  635SOL     OW 1903   3.064   2.382   3.097 -0.3030  0.2958  0.1460
  635SOL    HW1 1904   2.977   2.427   3.058 -0.4148  0.4003 -1.6163
  635SOL    HW2 1905   3.125   2.456   3.142  0.4439  1.7151 -1.2942
  636SOL     OW 1906   2.385   2.742   2.045 -0.1805  1.1735  0.1172
  636SOL    HW1 1907   2.366   2.839   2.023  1.0343 -1.2103  2.6862
  636SOL    HW2 1908   2.338   2.708   2.133 -0.1943  2.5759 -1.8828
  637SOL     OW 1909   2.741   0.634   2.007  0.7960  0.1757 -0.0290
  637SOL    HW1 1910   2.667   0.647   1.936 -0.1620 -1.5141  1.2934
  637SOL    HW2 1911   2.812   0.713   2.001 -1.8180 -2.0470  2.4682
  638SOL     OW 1912   2.445   1.874   1.304 -0.6326 -0.1875 -0.1225
  638SOL    HW1 1913   2.341   1.871   1.318 -0.6540  0.6950  0.3115
  638SOL    HW2 1914   2.490   1.795   1.351 -0.7417  1.1662 -0.9533
  639SOL     OW 1915   1.303   2.217   1.658  0.3281  0.0433  0.3958
  639SOL    HW1 1916   1.369   2.293   1.650 -0.4541 -2.0632 -0.4402
  639SOL    HW2 1917   1.258   2.219   1.752  0.9519  1.6895  0.3413
  640SOL     OW 1918   0.191   1.204   1.554 -0.2797 -0.0661 -0.0328
  640SOL    HW1 1919   0.186   1.244   1.652  0.5254  2.6582 -0.5682
  640SOL    HW2 1920   0.276   1.145   1.549 -1.0086 -2.0343 -1.4974
  641SOL     OW 1921   1.956   0.220   1.509 -0.0837 -0.1322 -0.2013
  641SOL    HW1 1922   1.906   0.257   1.590 -1.3258  1.2932 -1.4746
  641SOL    HW2 1923   2.058   0.199   1.523 -1.3489  1.7286 -0.0702
  642SOL     OW 1924   2.030   0.049   0.341 -0.3093  0.3219  0.5873
  642SOL    HW1 1925   2.133   0.050   0.342 -0.3751  1.8105 -0.3369
  642SOL    HW2 1926   1.983   0.025   0.430 -2.7203  0.7825  0.1496
  643SOL     OW 1927   2.898   1.921   2.170 -0.0864 -0.9224  0.5349
  643SOL    HW1 1928   2.847   1.830   2.161 -0.9590 -0.6533  0.6992
  643SOL    HW2 1929   2.882   1.982   2.088 -0.2700 -1.0931  0.9387
  644SOL     OW 1930   2.281   2.418   1.239  0.2874 -0.2691  0.1276
  644SOL    HW1 1931   2.350   2.367   1.186 -0.3865  0.3517  3.9672
  644SOL    HW2 1932   2.283   2.385   1.337 -0.0252 -0.8820 -2.1907
  645SOL     OW 1933   0.665   0.833   1.260 -0.2768 -0.2545 -0.1084
  645SOL    HW1 1934   0.573   0.796   1.277  0.6777 -0.8326 -0.8535
  645SOL    HW2 1935   0.670   0.868   1.166 -0.4102 -0.6872  2.6912
  646SOL     OW 1936   1.497   1.830   2.043 -0.4350  0.2947 -0.0401
  646SOL    HW1 1937   1.580   1.844   1.980 -0.1489  2.1435  0.6152
  646SOL    HW2 1938   1.529   1.818   2.141 -0.1505 -0.7520  0.6949
  647SOL     OW 1939   0.821   1.127   0.683  0.4320  0.2006  0.5165
  647SOL    HW1 1940   0.889   1.140   0.760 -0.4393 -0.9240  2.4126
  647SOL    HW2 1941   0.774   1.035   0.690  0.0103 -1.5159 -1.8019
  648SOL     OW 1942   0.186   0.225   0.339 -0.4072  0.0663 -0.2748
  648SOL    HW1 1943   0.161   0.136   0.288  1.8909 -0.2525  2.3009
  648SOL    HW2 1944   0.166   0.307   0.274  0.9583  0.1081 -2.2321
  649SOL     OW 1945   2.998   0.265   0.801 -0.0593 -0.1698 -1.1508
  649SOL    HW1 1946   3.094   0.248   0.764  1.1391 -1.8997 -1.0315
  649SOL    HW2 1947   2.983   0.356   0.851  2.7286  0.4142  0.4258
  650SOL     OW 1948   2.789   0.669   1.503 -0.0848 -0.5452  0.0821
  650SOL    HW1 1949   2.694   0.637   1.486  4.1915  1.6859 -0.1729
  650SOL    HW2 1950   2.795   0.770   1.524 -1.5967 -1.3948 -1.2527
  651SOL     OW 1951   0.865   1.539   1.674 -0.0462  0.2155 -0.1302
  651SOL    HW1 1952   0.917   1.566   1.758 -0.0309 -0.6057  0.3236
  651SOL    HW2 1953   0.929   1.522   1.593 -0.4913 -3.8231  0.7531
  652SOL     OW 1954   2.374   2.478   2.475  0.0505  0.4907 -0.0134
  652SOL    HW1 1955   2.292   2.542   2.477  1.0456  1.3921  1.3934
  652SOL    HW2 1956   2.426   2.497   2.388  1.2694 -0.7600  0.5551
  653SOL     OW 1957   2.720   1.268   0.178  0.6161  0.0173  0.2842
  653SOL    HW1 1958   2.750   1.356   0.224 -0.4255  0.2999 -0.5786
  653SOL    HW2 1959   2.778   1.189   0.204 -0.2081 -0.1702  0.8783
  654SOL     OW 1960   1.268   2.163   1.271  0.2209  0.0250  0.0177
  654SOL    HW1 1961   1.269   2.086   1.339  0.8512 -0.9605  0.9881
  654SOL    HW2 1962   1.290   2.122   1.182  0.5431  0.6098  1.0878
  655SOL     OW 1963   0.167   0.978   1.923 -0.3886 -0.1404 -0.2794
  655SOL    HW1 1964   0.249   0.919   1.897  0.8825 -1.4356 -0.8229
  655SOL    HW2 1965   0.190   1.075   1.889  2.6940 -0.5026 -1.0729
  656SOL     OW 1966   2.583   2.554   2.632 -0.5442  0.0300 -0.2415
  656SOL    HW1 1967   2.677   2.550   2.591  0.4609 -1.8612  0.9515
  656SOL    HW2 1968   2.513   2.508   2.566 -2.7246 -1.6440 -1.2030
  657SOL     OW 1969   3.002   1.062   1.837  0.1214  0.4443 -0.6413
  657SOL    HW1 1970   2.990   1.141   1.905  0.6695  1.0495 -1.2239
  657SOL    HW2 1971   3.088   1.011   1.842 -2.7614  0.1028  0.0315
  658SOL     OW 1972   1.666   0.195   2.347  0.4572  0.5113 -0.5811
  658SOL    HW1 1973   1.693   0.124   2.421  0.9621 -2.7310 -0.1443
  658SOL    HW2 1974   1.721   0.182   2.261  1.4852  1.3280  2.3534
  659SOL     OW 1975   1.418   0.623   2.779  0.2852 -0.0496 -0.7591
  659SOL    HW1 1976   1.454   0.683   2.703  1.6743 -1.4556 -2.1489
  659SOL    HW2 1977   1.312   0.637   2.793 -1.6096 -2.8996 -1.1964
  660SOL     OW 1978   1.464   0.326   1.420 -0.3909  0.4269 -0.0568
  660SOL    HW1 1979   1.454   0.353   1.522 -0.1413  3.2823  1.1865
  660SOL    HW2 1980   1.517   0.236   1.390  0.0207 -0.0437 -2.1608
  661SOL     OW 1981   2.429   1.265   0.623 -0.3038  0.1586 -0.4510
  661SOL    HW1 1982   2.467   1.285   0.532 -1.6341  1.1931  4.5392
  661SOL    HW2 1983   2.345   1.327   0.633 -0.8495  2.5313 -1.1661
  662SOL     OW 1984   1.465   0.401   1.667  0.3752 -0.1035 -0.3721
  662SOL    HW1 1985   1.399   0.351   1.738 -3.6031  1.5631 -0.6683
  662SOL    HW2 1986   1.451   0.503   1.665  0.8992  0.2459  0.7309
  663SOL     OW 1987   0.892   1.592   1.991  0.0836 -0.0969  1.3487
  663SOL    HW1 1988   0.831   1.678   1.994  1.5839 -1.0170  1.8255
  663SOL    HW2 1989   0.837   1.508   1.987  1.0194  0.5334 -1.9923
  664SOL     OW 1990   1.569   2.108   1.440 -0.4313  0.2215 -0.1007
  664SOL    HW1 1991   1.475   2.071   1.461  0.2099 -0.1319 -1.9161
  664SOL    HW2 1992   1.648   2.061   1.491  1.8150  1.1742  3.6515
  665SOL     OW 1993   2.244   0.701   1.962 -0.3263  0.0232 -0.1351
  665SOL    HW1 1994   2.202   0.610   1.958  1.5039  3.0936 -2.9028
  665SOL    HW2 1995   2.318   0.716   2.036 -0.1688 -1.5405  0.9857
  666SOL     OW 1996   0.478   2.226   0.333  0.2841 -0.1381 -0.0409
  666SOL    HW1 1997   0.526   2.286   0.401 -2.6802 -0.3894  0.5864
  666SOL    HW2 1998   0.375   2.220   0.351  0.7244 -0.7847  1.5702
  667SOL     OW 1999   1.948   0.201   1.069 -0.1564  0.0706  0.5999
  667SOL    HW1 2000   1.934   0.305   1.078 -0.8648  0.4495 -0.6019
  667SOL    HW2 2001   1.914   0.153   1.155  1.3721 -0.4754  1.3556
  668SOL     OW 2002   1.982   0.497   1.104  0.2244 -0.4855  0.9482
  668SOL    HW1 2003   2.053   0.529   1.033  0.0192 -1.0611 -1.0340
  668SOL    HW2 2004   2.026   0.511   1.192  0.8176 -1.2583 -2.3521
  669SOL     OW 2005   3.028   2.168   1.049 -0.1105  0.5420  0.0163
  669SOL    HW1 2006   2.981   2.206   0.966  1.4968  1.5205  1.3367
  669SOL    HW2 2007   3.027   2.233   1.131 -1.4673 -0.9004 -1.7582
  670SOL     OW 2008   2.917   2.298   2.082  0.1504 -0.7373 -0.2034
  670SOL    HW1 2009   2.842   2.296   2.152 -1.6770  1.8181  0.0802
  670SOL    HW2 2010   2.931   2.397   2.047 -2.1572  2.6656 -0.5766
  671SOL     OW 2011   1.811   1.754   1.511 -0.1058  0.1114  0.3365
  671SOL    HW1 2012   1.767   1.819   1.446  3.7719  2.2457  0.9611
  671SOL    HW2 2013   1.769   1.661   1.511  0.9822  1.3457  0.6114
  672SOL     OW 2014   0.463   0.651   2.577  0.2740  0.2237  0.0845
  672SOL    HW1 2015   0.397   0.696   2.511 -3.2493 -0.5467 -2.1715
  672SOL    HW2 2016   0.425   0.651   2.672  0.5139 -0.6180 -1.4963
  673SOL     OW 2017   0.098   1.357   1.067 -0.3423 -0.3762  0.4401
  673SOL    HW1 2018   0.111   1.394   1.160 -1.9751 -2.1665 -1.1842
  673SOL    HW2 2019   0.184   1.378   1.009  0.1514  1.2324  1.9756
  674SOL     OW 2020   1.633   2.969   0.278  0.0811  0.0408  0.2142
  674SOL    HW1 2021   1.661   3.025   0.198  3.1545 -0.0881  1.4988
  674SOL    HW2 2022   1.646   2.866   0.262  2.5286 -1.7545 -1.5871
  675SOL     OW 2023   1.699   0.842   2.346  0.4571  0.1469  0.1558
  675SOL    HW1 2024   1.799   0.836   2.332 -0.8433 -2.2850  0.2064
  675SOL    HW2 2025   1.643   0.752   2.325 -0.6010  0.1457 -0.1498
  676SOL     OW 2026   2.560   1.524   1.976  0.1915 -0.2601 -0.3176
  676SOL    HW1 2027   2.525   1.474   1.886 -2.3936  1.6343  0.0239
  676SOL    HW2 2028   2.576   1.465   2.058  1.4746 -0.7708 -2.2390
  677SOL     OW 2029   1.867   0.694   0.897 -0.1941  0.2230  0.7728
  677SOL    HW1 2030   1.781   0.716   0.952  1.8197  0.8743  0.4742
  677SOL    HW2 2031   1.920   0.614   0.939 -0.9279 -3.3720 -3.4118
  678SOL     OW 2032   0.097   0.762   1.633  0.6585  0.1533  0.0212
  678SOL    HW1 2033   0.194   0.767   1.669  1.4508  0.9814 -0.9671
  678SOL    HW2 2034   0.032   0.712   1.695 -0.0934 -1.3750 -0.0895
  679SOL     OW 2035   2.602   1.133   1.170  0.5782  0.0510 -0.1525
  679SOL    HW1 2036   2.509   1.178   1.168  1.9254 -0.6877 -0.8733
  679SOL    HW2 2037   2.597   1.028   1.170  0.1004 -1.8590 -0.6760
  680SOL     OW 2038   2.865   0.465   1.697 -0.3698 -0.0139  0.1564
  680SOL    HW1 2039   2.849   0.540   1.627 -0.2152 -0.2182 -1.3226
  680SOL    HW2 2040   2.956   0.485   1.748 -0.5130  2.0363 -1.9264
  681SOL     OW 2041   3.001   0.064   1.605  0.1116  0.3754  0.5640
  681SOL    HW1 2042   3.058   0.053   1.518 -2.3186  0.0698 -1.5191
  681SOL    HW2 2043   2.935   0.149   1.600 -0.7609  3.7029 -2.0631
  682SOL     OW 2044   0.658   0.052   1.327  0.2542 -0.5077  0.1278
  682SOL    HW1 2045   0.591  -0.023   1.342  4.1082 -0.7251 -1.4349
  682SOL    HW2 2046   0.734   0.030   1.257  1.1029  1.7116 -0.1302
  683SOL     OW 2047   1.381   0.209   2.142 -0.0619 -0.1593  0.6361
  683SOL    HW1 2048   1.390   0.238   2.242 -0.0484 -1.0434  2.4499
  683SOL    HW2 2049   1.468   0.223   2.090 -2.7601 -0.6295 -0.0268
  684SOL     OW 2050   1.446   2.143   0.559  0.1418 -0.4016 -0.4069
  684SOL    HW1 2051   1.501   2.067   0.611  1.9097 -1.6601 -0.5861
  684SOL    HW2 2052   1.353   2.111   0.529  0.6749  0.9751 -1.7577
  685SOL     OW 2053   2.245   2.070   1.960 -0.2876 -0.5396 -0.3525
  685SOL    HW1 2054   2.289   2.078   1.868 -0.7270 -0.9379 -0.7830
  685SOL    HW2 2055   2.316   2.025   2.023  1.2339 -0.8298 -2.4958
  686SOL     OW 2056   1.497   1.858   2.909 -0.7547 -0.7549 -0.4073
  686SOL    HW1 2057   1.522   1.830   3.003 -0.2578  0.7000 -1.1340
  686SOL    HW2 2058   1.397   1.842   2.883  0.5098 -0.2077  0.5401
  687SOL     OW 2059   1.307   2.413   1.974 -0.6922  0.0320 -0.0194
  687SOL    HW1 2060   1.354   2.320   1.991  0.3489 -0.3124  2.2557
  687SOL    HW2 2061   1.308   2.472   2.058 -1.0437  1.8634 -0.1206
  688SOL     OW 2062   2.076   1.504   1.745  0.1200 -0.2019  0.4121
  688SOL    HW1 2063   2.158   1.557   1.709 -1.7598 -0.2009 -0.3789
  688SOL    HW2 2064   2.025   1.451   1.668  0.4910  0.0557 -0.9462
  689SOL     OW 2065   2.402   1.139   2.748 -0.1811 -0.3321 -0.2191
  689SOL    HW1 2066   2.301   1.114   2.767 -0.5975  0.6521  2.9128
  689SOL    HW2 2067   2.467   1.100   2.820 -0.5866  1.1346  1.5122
  690SOL     OW 2068   2.222   2.794   0.045  0.0780 -0.3470 -0.4488
  690SOL    HW1 2069   2.158   2.745  -0.019 -1.1859  1.7603  4.8767
  690SOL    HW2 2070   2.176   2.826   0.131 -1.8310 -1.5782  1.6911
  691SOL     OW 2071   2.571   0.436   2.104 -0.1903 -0.3228 -0.2025
  691SOL    HW1 2072   2.601   0.341   2.085  0.6470  0.4790  0.7088
  691SOL    HW2 2073   2.638   0.506   2.066 -0.0481 -1.8140 -0.4146
  692SOL     OW 2074   2.644   1.198   0.779  0.5005 -0.3443  0.4946
  692SOL    HW1 2075   2.560   1.224   0.726  0.4960 -1.7797  2.2910
  692SOL    HW2 2076   2.683   1.276   0.834 -1.1018 -1.1070  0.6926
  693SOL     OW 2077   2.834   2.950   0.635  0.1246 -0.1351 -0.5766
  693SOL    HW1 2078   2.815   3.028   0.702  3.3160  2.0818  1.4186
  693SOL    HW2 2079   2.823   2.987   0.540  0.0964 -1.1988 -1.3942
  694SOL     OW 2080   2.423   2.199   0.161  0.4921  0.2184 -0.3479
  694SOL    HW1 2081   2.409   2.293   0.202 -0.1724  0.7945  3.5807
  694SOL    HW2 2082   2.335   2.149   0.149 -0.4482 -2.4654  2.4380
  695SOL     OW 2083   0.470   2.961   1.436 -0.9359 -0.2824 -0.2905
  695SOL    HW1 2084   0.406   2.890   1.396  0.3161 -0.0434  2.0659
  695SOL    HW2 2085   0.425   3.023   1.505  1.0640  0.6343 -2.2686
  696SOL     OW 2086   2.798   1.976   0.754  0.4830  0.4300  0.3709
  696SOL    HW1 2087   2.842   1.880   0.758  1.3546 -1.3293  0.4948
  696SOL    HW2 2088   2.808   2.013   0.658 -2.4536  0.4193 -0.1633
  697SOL     OW 2089   1.670   1.866   1.830  0.0336  0.3022  0.2248
  697SOL    HW1 2090   1.765   1.826   1.838 -0.2942 -0.1387  0.6209
  697SOL    HW2 2091   1.677   1.973   1.816  0.7392  0.3495 -1.5265
  698SOL     OW 2092   2.877   0.431   2.710 -0.0080 -0.0281  0.3687
  698SOL    HW1 2093   2.914   0.399   2.620 -1.9797 -2.3345  0.9817
  698SOL    HW2 2094   2.919   0.383   2.788 -1.3252 -1.1346  0.7493
  699SOL     OW 2095   1.568   0.073   2.923 -0.0883 -0.0059 -0.4814
  699SOL    HW1 2096   1.528  -0.013   2.879  2.1530 -2.3761  1.2316
  699SOL    HW2 2097   1.637   0.116   2.862  1.0194 -1.4734 -0.6338
  700SOL     OW 2098   0.989   2.246   1.369  0.0700 -0.4996 -0.2925
  700SOL    HW1 2099   1.088   2.219   1.341 -1.2715  1.4702 -2.7818
  700SOL    HW2 2100   0.908   2.193   1.333  0.2730  0.0767 -0.0385
  701SOL     OW 2101   1.903   2.869   0.047  0.0775  0.0263 -0.3971
  701SOL    HW1 2102   1.863   2.830   0.139 -1.7328  1.9111  4.7839
  701SOL    HW2 2103   1.930   2.972   0.065 -1.1802  2.6118 -0.2758
  702SOL     OW 2104   2.088   1.359   1.958 -0.0694 -0.1314  0.2399
  702SOL    HW1 2105   2.178   1.309   1.967  0.1446  1.0883 -3.2019
  702SOL    HW2 2106   2.084   1.421   1.874 -0.8221  1.1728  1.0076
  703SOL     OW 2107   1.913   0.912   1.525 -0.3102 -0.1402 -0.2601
  703SOL    HW1 2108   1.905   0.810   1.537 -0.1437  0.6704  0.4739
  703SOL    HW2 2109   1.991   0.950   1.582  3.3646  0.9056 -2.3370
  704SOL     OW 2110   0.332   2.034   1.694 -0.1362 -0.4096 -0.0656
  704SOL    HW1 2111   0.374   1.991   1.779  0.2838 -1.5253  0.8690
  704SOL    HW2 2112   0.386   2.116   1.658 -0.6417 -2.3770 -0.3151
  705SOL     OW 2113   2.444   1.476   0.904  0.1840  0.4947 -0.4102
  705SOL    HW1 2114   2.420   1.414   0.823  1.6808 -1.2800  1.4021
  705SOL    HW2 2115   2.536   1.452   0.947  1.0076  0.5822 -0.0030
  706SOL     OW 2116   0.651   1.697   1.795  0.5911  0.2677  0.1435
  706SOL    HW1 2117   0.719   1.714   1.723 -3.1674 -0.3388  4.4697
  706SOL    HW2 2118   0.688   1.656   1.881  0.1178  0.5456  1.3912
  707SOL     OW 2119   2.331   1.217   1.971  0.3627  0.2634 -0.4447
  707SOL    HW1 2120   2.434   1.228   1.986 -0.1548  0.4838  0.9793
  707SOL    HW2 2121   2.309   1.117   1.960  0.5676  0.2864 -0.4393
  708SOL     OW 2122   3.023   0.484   3.075 -0.2085  0.7430 -0.1044
  708SOL    HW1 2123   3.099   0.545   3.049 -0.4872  0.2353  0.7412
  708SOL    HW2 2124   2.986   0.425   3.004 -0.2522 -1.5905  0.6565
  709SOL     OW 2125   1.909   1.862   0.373 -0.0278  0.0600  0.1358
  709SOL    HW1 2126   1.894   1.962   0.403  0.3338 -0.5291 -1.1261
  709SOL    HW2 2127   1.890   1.851   0.270  3.9499  0.5673 -0.3514
  710SOL     OW 2128   1.810   1.608   2.469 -0.4589  0.5582 -0.0170
  710SOL    HW1 2129   1.876   1.532   2.429  0.5998 -0.2986  0.1646
  710SOL    HW2 2130   1.787   1.588   2.568 -1.7840  2.6758  3.0978
  711SOL     OW 2131   2.651   2.925   0.928 -0.4587  0.2015  0.9017
  711SOL    HW1 2132   2.604   3.016   0.924  0.1125 -0.7076 -0.6031
  711SOL    HW2 2133   2.745   2.939   0.963 -3.2592  0.2495  0.2743
  712SOL     OW 2134   1.395   2.126   1.983 -0.5312  0.1615 -0.2886
  712SOL    HW1 2135   1.434   2.041   1.944 -0.4100 -1.8589 -2.8705
  712SOL    HW2 2136   1.290   2.138   1.958 -3.2268  0.3000 -1.0822
  713SOL     OW 2137   2.772   1.449   2.506  0.4216  0.5844  0.5675
  713SOL    HW1 2138   2.777   1.345   2.519 -2.3595 -2.6308 -0.0174
  713SOL    HW2 2139   2.684   1.489   2.549 -1.2609  0.2308  1.3171
  714SOL     OW 2140   2.691   0.489   2.363  0.1869  0.0412 -0.0176
  714SOL    HW1 2141   2.617   0.429   2.412 -3.1513 -1.4052  1.2318
  714SOL    HW2 2142   2.668   0.493   2.259 -2.0450  0.7452  1.2510
  715SOL     OW 2143   1.607   2.196   1.151 -0.2937  0.0864 -0.2394
  715SOL    HW1 2144   1.519   2.246   1.141 -2.0641  1.1254  2.6872
  715SOL    HW2 2145   1.599   2.129   1.229 -0.1304  1.8014  0.2531
  716SOL     OW 2146   1.241   0.122   1.493 -0.4307  0.9468 -0.5569
  716SOL    HW1 2147   1.137   0.132   1.504  0.9371 -1.6463  0.7081
  716SOL    HW2 2148   1.300   0.200   1.463 -0.8566  1.5847  2.5514
  717SOL     OW 2149   1.129   0.564   1.622 -0.0881 -0.2708  0.1673
  717SOL    HW1 2150   1.228   0.597   1.638  1.0123 -0.0918 -1.0280
  717SOL    HW2 2151   1.132   0.500   1.536 -0.5885  0.4808 -1.6859
  718SOL     OW 2152   0.677   0.897   0.945 -0.4466  0.0743  0.1714
  718SOL    HW1 2153   0.646   0.886   0.849 -1.8587 -0.1342  0.7391
  718SOL    HW2 2154   0.672   0.999   0.968  0.8447  1.8205  0.9733
  719SOL     OW 2155   0.663   1.739   2.300 -0.1843  0.6286 -0.2739
  719SOL    HW1 2156   0.745   1.786   2.345 -3.6571 -1.1488 -1.0811
  719SOL    HW2 2157   0.648   1.637   2.320  0.0095 -1.6031 -0.0827
  720SOL     OW 2158   2.212   1.152   0.290  0.2148 -0.0581  0.1393
  720SOL    HW1 2159   2.273   1.082   0.246  2.4813  1.7157  1.2601
  720SOL    HW2 2160   2.167   1.118   0.378  0.7830 -1.2827 -1.5615
  721SOL     OW 2161   2.276   3.003   2.113  1.1286 -0.8591  0.3652
  721SOL    HW1 2162   2.228   3.000   2.018  3.9893  0.4368  1.1125
  721SOL    HW2 2163   2.222   3.025   2.197  1.7993  1.2646  0.0231
  722SOL     OW 2164   2.360   1.655   0.512  0.5462 -0.8200  0.0334
  722SOL    HW1 2165   2.431   1.671   0.436  0.5050 -0.1579 -1.8842
  722SOL    HW2 2166   2.260   1.676   0.480 -1.4551  1.9920 -1.8486
  723SOL     OW 2167   2.635   2.755   1.917  0.2990 -0.3393 -0.2223
  723SOL    HW1 2168   2.697   2.830   1.964  2.8553 -0.0104 -0.5110
  723SOL    HW2 2169   2.549   2.735   1.977 -1.0717 -1.2405  0.2748
  724SOL     OW 2170   0.435   2.502   2.423  0.6766 -0.1176 -0.0606
  724SOL    HW1 2171   0.335   2.498   2.408  0.3758 -2.3129  0.8446
  724SOL    HW2 2172   0.462   2.473   2.523  4.1767 -2.1946  0.5746
  725SOL     OW 2173   2.418   2.810   1.528 -0.5215 -0.0807  0.2895
  725SOL    HW1 2174   2.441   2.825   1.427 -1.1426 -2.1853  2.8408
  725SOL    HW2 2175   2.409   2.709   1.548 -3.0715  0.8400 -2.5248
  726SOL     OW 2176   2.512   2.317   0.701 -0.3775 -0.2534 -0.1857
  726SOL    HW1 2177   2.472   2.408   0.677 -1.4143  2.9272 -0.6028
  726SOL    HW2 2178   2.497   2.243   0.628  2.4808  2.2182 -1.3690
  727SOL     OW 2179   0.118   0.014   0.147 -0.1597  0.3125  0.4144
  727SOL    HW1 2180   0.215   0.012   0.113  1.6414  0.0799  1.0612
  727SOL    HW2 2181   0.049  -0.037   0.087 -1.8565  1.4142 -0.3117
  728SOL     OW 2182   2.910   0.709   0.954 -0.4078  0.3300 -0.0055
  728SOL    HW1 2183   2.868   0.711   0.862  2.2855 -0.8078 -0.4417
  728SOL    HW2 2184   2.852   0.651   1.019  1.0330 -0.0659 -0.8671
  729SOL     OW 2185   0.026   2.509   0.773 -0.1306 -0.1361 -0.5984
  729SOL    HW1 2186   0.096   2.524   0.852  0.7309  1.0237  3.8765
  729SOL    HW2 2187   0.080   2.501   0.684 -0.1719 -1.7930 -0.2907
  730SOL     OW 2188   2.608   0.669   0.889 -0.4965 -0.0398  0.3125
  730SOL    HW1 2189   2.558   0.762   0.877 -1.6485  0.7616 -1.6866
  730SOL    HW2 2190   2.649   0.647   0.796  1.0611 -1.2512 -0.7296
  731SOL     OW 2191   3.067   2.189   2.359 -0.1795 -0.0875  0.1456
  731SOL    HW1 2192   3.059   2.239   2.450  1.1172 -0.6297 -0.6385
  731SOL    HW2 2193   3.015   2.230   2.283  1.4132  0.6727  0.4850
  732SOL     OW 2194   1.261   2.743   2.005 -0.2638 -0.0603 -0.0208
  732SOL    HW1 2195   1.258   2.674   2.085 -1.3367 -1.7802  1.0875
  732SOL    HW2 2196   1.245   2.698   1.914 -0.3525  0.3458 -1.2840
  733SOL     OW 2197   0.009   0.600   2.281 -0.2245 -0.1607  0.0570
  733SOL    HW1 2198   0.087   0.643   2.228 -1.3525  0.2877  0.8782
  733SOL    HW2 2199  -0.030   0.515   2.232 -0.5579 -0.0843 -0.7515
  734SOL     OW 2200   1.459   0.377   2.678  0.1110  0.0588  0.1314
  734SOL    HW1 2201   1.466   0.463   2.734 -1.1479 -0.7510 -1.3935
  734SOL    HW2 2202   1.398   0.305   2.722 -0.4066  0.6146 -1.7583
  735SOL     OW 2203   2.880   2.650   2.289 -1.2232 -0.2124  0.3609
  735SOL    HW1 2204   2.871   2.618   2.191  2.1216 -2.3495 -1.8854
  735SOL    HW2 2205   2.972   2.698   2.310 -1.2637  2.7171 -0.1983
  736SOL     OW 2206   0.900   0.409   2.511  0.2788  0.4582 -0.4573
  736SOL    HW1 2207   0.798   0.431   2.530  0.0579 -1.0352 -0.4912
  736SOL    HW2 2208   0.919   0.327   2.450  1.8595 -0.8819  0.3021
  737SOL     OW 2209   2.612   0.415   2.782  0.1921 -0.2077  0.1806
  737SOL    HW1 2210   2.599   0.384   2.882  0.4806 -0.0809  0.1479
  737SOL    HW2 2211   2.708   0.434   2.750  0.1883  3.4830 -2.5117
  738SOL     OW 2212   1.751   1.257   2.926  0.0406  0.1281 -1.0500
  738SOL    HW1 2213   1.851   1.255   2.901  1.8276 -0.7410 -0.3464
  738SOL    HW2 2214   1.700   1.171   2.902 -4.1466  0.6408  2.8161
  739SOL     OW 2215   1.863   0.684   0.631 -0.2373 -0.2583  0.5296
  739SOL    HW1 2216   1.882   0.684   0.729 -3.1220 -2.0580 -0.4149
  739SOL    HW2 2217   1.868   0.584   0.590 -1.3061 -1.4086 -1.2358
  740SOL     OW 2218   1.960   1.920   2.356 -0.4711 -0.0999  0.2827
  740SOL    HW1 2219   2.022   1.852   2.392 -1.1209 -0.4624 -1.5146
  740SOL    HW2 2220   1.892   1.880   2.289  2.3747  0.0165  2.1715
  741SOL     OW 2221   2.563   3.089   2.471  0.7376  0.4809 -0.4674
  741SOL    HW1 2222   2.665   3.114   2.470 -0.2757  0.4995 -0.7902
  741SOL    HW2 2223   2.514   3.152   2.405  2.9591 -0.2722 -2.9130
  742SOL     OW 2224   2.190   1.429   0.156  0.1698 -0.5427  0.1168
  742SOL    HW1 2225   2.100   1.473   0.144  1.1075  2.0124  2.0343
  742SOL    HW2 2226   2.173   1.338   0.202  0.6937 -1.2304 -0.2982
  743SOL     OW 2227   1.830   0.603   2.599 -0.5129 -0.4427  0.1326
  743SOL    HW1 2228   1.787   0.545   2.525  1.4750 -0.6156  3.8873
  743SOL    HW2 2229   1.785   0.694   2.615  1.6331  1.4075 -0.8057
  744SOL     OW 2230   2.676   2.120   0.071  0.0482 -0.1270 -0.1107
  744SOL    HW1 2231   2.594   2.178   0.091  1.3797 -2.5985 -0.4598
  744SOL    HW2 2232   2.658   2.017   0.050 -0.6006 -1.0546  1.0542
  745SOL     OW 2233   2.210   2.579   2.230  1.1083  0.4850  0.4773
  745SOL    HW1 2234   2.112   2.585   2.193  1.8567  0.1420  1.9578
  745SOL    HW2 2235   2.223   2.650   2.301  1.1377 -1.3849 -1.0416
  746SOL     OW 2236   0.029   2.626   1.747  0.4352  0.4550  0.1850
  746SOL    HW1 2237   0.119   2.613   1.697  1.2550 -1.1855 -0.1926
  746SOL    HW2 2238   0.028   2.695   1.823 -0.8496  1.3467 -0.6786
  747SOL     OW 2239   0.068   1.791   1.648 -0.4393 -0.4045  0.4789
  747SOL    HW1 2240   0.002   1.712   1.620  0.2581 -2.9424 -2.5277
  747SOL    HW2 2241   0.124   1.829   1.570 -0.4964  2.0446 -3.4403
  748SOL     OW 2242   1.861   2.735   2.904  0.7693 -0.2459 -0.4136
  748SOL    HW1 2243   1.869   2.790   2.995 -1.0241  0.8427 -1.8912
  748SOL    HW2 2244   1.759   2.738   2.868 -0.2432 -1.6057  2.1753
  749SOL     OW 2245   1.383   3.010   0.885  0.6312  0.6490  0.6400
  749SOL    HW1 2246   1.331   3.080   0.823  3.1489 -0.2958  2.0407
  749SOL    HW2 2247   1.451   2.965   0.821  2.2959  0.0595 -2.5351
  750SOL     OW 2248   2.243   0.172   1.845  0.4629 -0.1342 -0.1202
  750SOL    HW1 2249   2.246   0.205   1.751 -1.6063 -0.8164  0.8818
  750SOL    HW2 2250   2.250   0.241   1.922 -0.4426  1.3742  0.2967
  751SOL     OW 2251   0.757   2.121   2.877 -0.3677  0.2835  0.1555
  751SOL    HW1 2252   0.848   2.089   2.918  1.5914  2.2895  1.5280
  751SOL    HW2 2253   0.672   2.071   2.918 -0.5047 -2.3182 -1.2047
  752SOL     OW 2254   1.295   0.821   1.197  0.0450  0.3777  1.0568
  752SOL    HW1 2255   1.361   0.898   1.224  3.1288  0.0119 -0.2368
  752SOL    HW2 2256   1.334   0.731   1.236 -0.3219  0.1358  0.2701
  753SOL     OW 2257   0.947   2.563   1.806 -0.9580 -0.2167  0.0169
  753SOL    HW1 2258   1.044   2.569   1.780 -2.0190  0.2709 -1.2592
  753SOL    HW2 2259   0.902   2.652   1.813 -0.4986 -1.2828  0.2732
  754SOL     OW 2260   1.151   1.179   3.009 -0.4209  0.3651  0.2468
  754SOL    HW1 2261   1.208   1.103   2.967 -1.8257  1.1689  2.6292
  754SOL    HW2 2262   1.204   1.269   3.020 -0.4428  0.1317 -0.1571
  755SOL     OW 2263   1.993   0.445   2.232 -0.3337 -0.1871  0.3637
  755SOL    HW1 2264   2.072   0.393   2.267  1.2399 -2.1608 -2.1146
  755SOL    HW2 2265   1.905   0.445   2.295  0.4150 -0.7389  0.6284
  756SOL     OW 2266   2.493   1.004   2.985 -0.4013  0.0507 -0.4906
  756SOL    HW1 2267   2.594   0.978   2.996  0.7530 -1.7594  0.2518
  756SOL    HW2 2268   2.436   0.917   3.001  1.8700 -0.5130  1.5312
  757SOL     OW 2269   0.099   0.402   1.959  0.2347  0.5703 -0.1203
  757SOL    HW1 2270   0.160   0.316   1.943 -0.1766  1.6656  1.4883
  757SOL    HW2 2271   0.019   0.386   2.019 -1.3879  0.7949  0.5838
  758SOL     OW 2272   2.197   0.100   1.509 -0.6052 -0.3112  0.1646
  758SOL    HW1 2273   2.173  -0.000   1.525  0.8579 -0.7458 -1.7438
  758SOL    HW2 2274   2.196   0.121   1.408  1.7630  0.0233 -2.1668
  759SOL     OW 2275   1.695   0.027   0.051  0.5506 -0.4819  0.2529
  759SOL    HW1 2276   1.660   0.037  -0.048  2.2023 -0.6310 -0.6442
  759SOL    HW2 2277   1.802   0.030   0.056  2.1855  1.9552  0.4382
  760SOL     OW 2278   2.673   2.005   2.813  0.6548  0.6794  0.2977
  760SOL    HW1 2279   2.571   2.014   2.830 -1.3043 -2.8122  0.1143
  760SOL    HW2 2280   2.725   2.096   2.796 -0.4519  0.1368 -2.2132
  761SOL     OW 2281   1.948   1.747   1.748 -0.0878  0.9070  0.0705
  761SOL    HW1 2282   1.992   1.651   1.755  2.2937  1.8765  1.0905
  761SOL    HW2 2283   1.895   1.758   1.660  0.5752  2.2661  1.5878
  762SOL     OW 2284   0.487   2.396   0.961  0.6924  0.3783  0.5177
  762SOL    HW1 2285   0.526   2.401   0.865  1.5298 -1.1365  1.2240
  762SOL    HW2 2286   0.550   2.426   1.036 -2.3760 -0.1884  0.2384
  763SOL     OW 2287   2.080   1.563   2.990 -0.2093  0.0082 -0.2065
  763SOL    HW1 2288   2.165   1.505   2.997  0.1134 -1.6312  0.0948
  763SOL    HW2 2289   2.012   1.538   3.071 -3.1829  1.1774  1.0880
  764SOL     OW 2290   0.688   0.611   0.684 -0.2853  0.2584 -0.4760
  764SOL    HW1 2291   0.593   0.566   0.662 -0.0606  2.1548 -2.0480
  764SOL    HW2 2292   0.731   0.576   0.777 -0.7574 -2.2898  1.8037
  765SOL     OW 2293   0.809   0.294   0.740 -0.3588 -0.2115 -0.1892
  765SOL    HW1 2294   0.820   0.319   0.639 -0.1911 -1.6745  4.7203
  765SOL    HW2 2295   0.812   0.374   0.803  0.8707  0.2746  1.4067
  766SOL     OW 2296   2.922   2.138   3.064 -0.0384 -0.2497 -0.3839
  766SOL    HW1 2297   2.831   2.136   3.110 -0.3746 -2.2621  1.6723
  766SOL    HW2 2298   2.978   2.226   3.070 -0.2002 -0.1135  0.6693
  767SOL     OW 2299   2.799   1.626   0.615 -0.2746  0.3660 -0.1103
  767SOL    HW1 2300   2.707   1.655   0.658 -1.1234  1.4375  0.8880
  767SOL    HW2 2301   2.880   1.651   0.674  0.6539 -2.8852 -0.1128
  768SOL     OW 2302   1.073   0.198   0.211 -0.4186 -0.1045  0.2099
  768SOL    HW1 2303   1.061   0.232   0.308  2.0519  0.8046  0.0302
  768SOL    HW2 2304   1.161   0.141   0.199  1.4352 -4.0171  3.0549
  769SOL     OW 2305   1.102   1.804   2.313  0.3805 -0.5603 -0.1738
  769SOL    HW1 2306   1.004   1.829   2.344 -0.6313 -2.1962  1.1071
  769SOL    HW2 2307   1.171   1.809   2.388  0.3114 -1.1988 -4.0502
  770SOL     OW 2308   0.158   1.126   2.313  0.6805 -0.0604 -0.5236
  770SOL    HW1 2309   0.155   1.206   2.377  1.2905 -1.0713  0.8377
  770SOL    HW2 2310   0.069   1.069   2.314  2.0312 -1.3921  0.5989
  771SOL     OW 2311   3.060   2.810   1.943  0.4022 -0.2841  0.0662
  771SOL    HW1 2312   3.012   2.839   1.852 -2.9115 -0.9089 -3.0508
  771SOL    HW2 2313   3.038   2.883   2.015  1.6396  3.0170 -0.2235
  772SOL     OW 2314   2.348   0.260   2.805 -0.3579  0.1661  0.1371
  772SOL    HW1 2315   2.414   0.185   2.771  1.0680 -2.5178 -1.3043
  772SOL    HW2 2316   2.341   0.263   2.910 -0.2531 -3.1400 -1.1324
  773SOL     OW 2317   0.596   2.099   2.392  0.6418  0.5106 -0.3310
  773SOL    HW1 2318   0.589   2.152   2.301 -1.7424  4.2521 -2.7877
  773SOL    HW2 2319   0.514   2.037   2.404 -1.7525  2.4669  0.1030
  774SOL     OW 2320   2.105   0.005   2.586 -0.1515 -0.1095  0.7832
  774SOL    HW1 2321   2.116   0.089   2.641  0.4412 -0.1439 -2.0394
  774SOL    HW2 2322   2.160  -0.075   2.625  2.0057  0.4387 -4.5462
  775SOL     OW 2323   2.514   2.966   2.195 -0.9543  0.0144 -0.6443
  775SOL    HW1 2324   2.413   2.987   2.173 -0.5074 -0.8495  0.0302
  775SOL    HW2 2325   2.539   2.988   2.294 -0.9321  0.2250  4.4042
  776SOL     OW 2326   3.090   1.277   0.164 -0.1415 -0.0630  0.3329
  776SOL    HW1 2327   3.039   1.219   0.092  0.6103 -1.2038 -1.7359
  776SOL    HW2 2328   3.045   1.259   0.257  0.3993  1.1895 -1.2117
  777SOL     OW 2329   0.389   2.927   0.420  0.5384 -0.3972  0.0360
  777SOL    HW1 2330   0.286   2.945   0.402 -0.5849 -1.2099 -1.8223
  777SOL    HW2 2331   0.420   2.843   0.364  1.8058 -1.2773 -0.2790
  778SOL     OW 2332   1.343   2.034   0.222 -0.5008 -0.0904 -0.7249
  778SOL    HW1 2333   1.293   2.092   0.290  0.4268 -1.1981  0.4399
  778SOL    HW2 2334   1.356   2.073   0.126 -0.3751  1.3289  0.1978
  779SOL     OW 2335   0.162   0.812   0.483  0.4256  0.6305  0.2379
  779SOL    HW1 2336   0.097   0.741   0.457  0.1332  0.9554 -3.3923
  779SOL    HW2 2337   0.108   0.901   0.501 -1.0040 -0.2627 -1.9248
  780SOL     OW 2338   0.136   0.275   2.321  0.2515  0.0636  0.5204
  780SOL    HW1 2339   0.129   0.354   2.392 -1.2351  1.4956 -1.3624
  780SOL    HW2 2340   0.220   0.291   2.259  1.0873 -3.0899  1.5352
  781SOL     OW 2341   0.722   1.711   1.506 -0.5079  0.0081 -0.4473
  781SOL    HW1 2342   0.764   1.638   1.568  1.8783  0.9721  0.4769
  781SOL    HW2 2343   0.618   1.713   1.505  0.3441 -0.5347 -1.2073
  782SOL     OW 2344   2.551   0.076   0.950 -0.5682  0.6534 -0.0351
  782SOL    HW1 2345   2.495   0.130   0.882 -0.8387  1.9967  0.7082
  782SOL    HW2 2346   2.501   0.063   1.040 -2.5051  0.8919 -0.0617
  783SOL     OW 2347   2.789   0.728   2.495 -0.1267 -0.5127 -0.1505
  783SOL    HW1 2348   2.807   0.748   2.595  1.5871 -2.6504  0.3762
  783SOL    HW2 2349   2.770   0.628   2.494  1.1739  0.5522  0.9472
  784SOL     OW 2350   1.410   2.176   0.006 -0.0916  0.8100  0.0481
  784SOL    HW1 2351   1.433   2.263   0.049 -1.2121 -0.7915 -1.3365
  784SOL    HW2 2352   1.401   2.188  -0.099  0.4279 -0.2258 -0.6626
  785SOL     OW 2353   2.060   0.303   0.010 -0.1706 -0.1049 -0.3358
  785SOL    HW1 2354   1.997   0.327   0.092 -2.3155  1.5611  2.4396
  785SOL    HW2 2355   2.096   0.391  -0.028 -1.5311  1.4510  1.1186
  786SOL     OW 2356   2.037   2.177   2.220 -0.4103 -0.2981 -0.1227
  786SOL    HW1 2357   1.999   2.079   2.229  0.9027  0.4773 -0.4978
  786SOL    HW2 2358   2.135   2.178   2.234  1.3952 -2.0500  0.6154
  787SOL     OW 2359   1.361   0.571   0.902  0.3982 -0.0706  0.5290
  787SOL    HW1 2360   1.276   0.633   0.911 -1.5358  1.2877 -0.3781
  787SOL    HW2 2361   1.387   0.552   0.805  3.4897 -2.5321 -2.2338
  788SOL     OW 2362   1.216   0.429   0.022  0.5840  0.3635  0.1190
  788SOL    HW1 2363   1.141   0.387  -0.037 -2.0686  0.3628  0.6407
  788SOL    HW2 2364   1.175   0.492   0.095 -1.4501  1.9321  0.7472
  789SOL     OW 2365   2.516   0.113   1.957  0.1369 -0.0770  0.1413
  789SOL    HW1 2366   2.440   0.158   1.904 -3.1408  2.3279 -1.6999
  789SOL    HW2 2367   2.530   0.009   1.934 -1.1608 -1.8854  1.6393
  790SOL     OW 2368   2.629   2.760   0.716  0.4342 -0.1164  0.1870
  790SOL    HW1 2369   2.664   2.823   0.641 -0.4935 -2.5864  2.2739
  790SOL    HW2 2370   2.634   2.807   0.809 -1.1717 -2.4252  2.1472
  791SOL     OW 2371   1.930   1.213   0.235 -0.0284  0.0947  0.8360
  791SOL    HW1 2372   1.854   1.157   0.288 -2.7302 -1.4621 -0.1258
  791SOL    HW2 2373   2.031   1.183   0.258  1.6846  3.5582  0.8583
  792SOL     OW 2374   0.399   1.727   2.140 -0.2291  0.1570 -0.7890
  792SOL    HW1 2375   0.459   1.674   2.205 -1.9325 -0.9942 -3.5176
  792SOL    HW2 2376   0.308   1.754   2.185  0.2520  1.2118  0.3899
  793SOL     OW 2377   2.099   1.587   2.104 -0.2074 -0.1181 -0.4149
  793SOL    HW1 2378   2.168   1.658   2.066 -0.8302 -2.0571 -2.4076
  793SOL    HW2 2379   2.108   1.495   2.057  0.1726 -0.6029  0.9085
  794SOL     OW 2380   0.550   1.499   2.286  0.5158 -0.2164  0.6588
  794SOL    HW1 2381   0.530   1.443   2.201  1.1203 -1.1430 -0.0282
  794SOL    HW2 2382   0.493   1.471   2.365 -0.6866 -0.1809  0.3498
  795SOL     OW 2383   2.518   2.307   1.824  0.2430  0.2385 -0.0885
  795SOL    HW1 2384   2.490   2.324   1.921 -0.1927  0.1829 -1.5814
  795SOL    HW2 2385   2.454   2.242   1.776  0.7725  4.6720  0.4233
  796SOL     OW 2386   3.092   1.115   2.638  0.1316 -0.1993  0.2931
  796SOL    HW1 2387   2.995   1.104   2.668  2.2677  2.7212  1.3798
  796SOL    HW2 2388   3.156   1.114   2.720 -2.1211 -2.1175  0.5244
  797SOL     OW 2389   0.814   0.642   1.394 -0.5716  0.2833 -0.1718
  797SOL    HW1 2390   0.877   0.681   1.465 -1.0271  0.2567  2.2347
  797SOL    HW2 2391   0.764   0.715   1.340 -1.2561  0.6492 -1.1447
  798SOL     OW 2392   1.324   0.416   1.180  0.3829 -0.4311 -0.3368
  798SOL    HW1 2393   1.381   0.376   1.260  1.3052 -2.8488  1.2347
  798SOL    HW2 2394   1.380   0.486   1.127 -1.4262  0.5881 -0.7516
  799SOL     OW 2395   1.979   2.661   1.016 -0.6189  0.4914 -0.4499
  799SOL    HW1 2396   1.904   2.662   1.087  1.0691 -0.3979  0.5726
  799SOL    HW2 2397   1.954   2.661   0.915  0.5795 -0.2725  0.9197
  800SOL     OW 2398   3.072   0.593   1.817  0.4347 -0.2800  0.2548
  800SOL    HW1 2399   3.060   0.673   1.880  1.5695 -1.2155 -0.9149
  800SOL    HW2 2400   3.119   0.516   1.868  0.3410  0.1642  1.3042
  801SOL     OW 2401   1.917   2.232   0.134  0.1388  0.4727  0.4064
  801SOL    HW1 2402   1.848   2.219   0.054 -2.5135  1.4451  1.7528
  801SOL    HW2 2403   2.012   2.196   0.107  0.9140  3.5668 -2.9709
  802SOL     OW 2404   0.707   0.761   2.583  0.1385  0.2937  0.1992
  802SOL    HW1 2405   0.766   0.761   2.502 -2.6909  1.1026  1.3002
  802SOL    HW2 2406   0.613   0.715   2.567 -0.2658 -1.7266 -1.5098
  803SOL     OW 2407   0.910   0.125   0.906  0.2408 -0.1343 -0.0427
  803SOL    HW1 2408   0.996   0.162   0.947  2.9801 -0.2888  0.0146
  803SOL    HW2 2409   0.868   0.192   0.840  2.5656 -1.0791 -1.8490
  804SOL     OW 2410   0.343   0.005   2.129 -0.1183  1.0834  0.8419
  804SOL    HW1 2411   0.356   0.087   2.067 -1.1038  1.1336 -1.4212
  804SOL    HW2 2412   0.299  -0.079   2.083 -0.9118 -1.1328  1.3688
  805SOL     OW 2413   2.421   0.234   0.259 -0.4081 -0.3180 -0.2673
  805SOL    HW1 2414   2.519   0.271   0.279  0.8821  1.0036 -0.3020
  805SOL    HW2 2415   2.407   0.212   0.155 -1.2109  0.3152  1.7867
  806SOL     OW 2416   0.649   2.406   1.698 -0.5484  0.2567 -0.0370
  806SOL    HW1 2417   0.664   2.509   1.723  0.9749  1.2766 -3.4582
  806SOL    HW2 2418   0.728   2.367   1.642 -0.6275  1.7886 -0.4225
  807SOL     OW 2419   2.476   0.963   0.465  0.9602  0.4079 -0.0849
  807SOL    HW1 2420   2.569   0.916   0.483 -1.0207 -1.1104  2.3420
  807SOL    HW2 2421   2.446   0.960   0.364 -3.6075 -0.0275 -0.0294
  808SOL     OW 2422   0.532   1.985   2.941 -0.3283 -0.0489 -0.5431
  808SOL    HW1 2423   0.503   1.976   3.042 -0.4316  0.4081 -0.3720
  808SOL    HW2 2424   0.559   1.893   2.903 -1.5444 -1.6350  0.9781
  809SOL     OW 2425   2.569   1.961   1.953 -0.1324 -0.0908  0.0580
  809SOL    HW1 2426   2.664   2.005   1.958  3.0469  1.8639 -2.5494
  809SOL    HW2 2427   2.552   1.916   1.861 -0.5905 -3.4218  1.5772
  810SOL     OW 2428   2.025   1.092   0.542  0.0931  0.0546 -0.4288
  810SOL    HW1 2429   2.049   1.036   0.627  1.6626  2.9346 -1.5794
  810SOL    HW2 2430   2.016   1.188   0.569 -1.2196 -1.9091 -1.2629
  811SOL     OW 2431   1.316   2.449   1.278  0.3401  0.2168  0.2931
  811SOL    HW1 2432   1.307   2.346   1.274  0.2767  2.4134 -1.9301
  811SOL    HW2 2433   1.290   2.500   1.190 -1.9292  1.6113  0.6440
  812SOL     OW 2434   1.421   0.781   1.937  0.2480 -0.2936 -0.2275
  812SOL    HW1 2435   1.457   0.831   2.022  2.5618  0.1519 -1.1263
  812SOL    HW2 2436   1.325   0.811   1.908 -1.3560  0.3169  0.9392
  813SOL     OW 2437   1.737   2.130   2.435 -0.2710  0.4607 -0.3200
  813SOL    HW1 2438   1.835   2.097   2.417  0.5560  1.4063  0.4074
  813SOL    HW2 2439   1.669   2.107   2.363  0.8677  1.0937  3.4807
  814SOL     OW 2440   2.843   1.553   2.928  0.3439  0.5490 -0.4525
  814SOL    HW1 2441   2.945   1.538   2.933 -1.0601  1.5362  1.1436
  814SOL    HW2 2442   2.814   1.626   2.864 -0.4332 -1.7677  2.1728
  815SOL     OW 2443   2.249   2.911   2.695 -0.0940 -0.1959 -0.2226
  815SOL    HW1 2444   2.211   2.893   2.789 -0.6967 -0.6154 -1.4001
  815SOL    HW2 2445   2.348   2.879   2.675  0.3108  0.2686 -1.9403
  816SOL     OW 2446   1.762   0.323   1.669 -0.5883 -0.4156 -0.3332
  816SOL    HW1 2447   1.769   0.228   1.711  0.7150 -1.2480 -0.1106
  816SOL    HW2 2448   1.662   0.359   1.669  0.7201  0.0746  1.1382
  817SOL     OW 2449   0.471   1.202   2.455 -0.2354  0.3256  0.2366
  817SOL    HW1 2450   0.435   1.299   2.474  0.5969  0.3510 -0.4930
  817SOL    HW2 2451   0.456   1.162   2.359 -1.3079  0.6866  1.7705
  818SOL     OW 2452   1.997   0.824   0.468 -0.3621  0.1985 -0.0781
  818SOL    HW1 2453   1.989   0.926   0.481  1.5890  1.8932 -0.4167
  818SOL    HW2 2454   1.950   0.764   0.541  0.9724 -1.4837 -1.0251
  819SOL     OW 2455   2.774   2.918   3.029 -0.5076  0.3326  0.0198
  819SOL    HW1 2456   2.842   2.838   3.007 -1.4105 -1.8725 -0.2369
  819SOL    HW2 2457   2.682   2.899   2.983 -0.3993  2.2528 -0.0446
  820SOL     OW 2458   1.248   1.133   0.500  0.1097  0.7016  0.0787
  820SOL    HW1 2459   1.245   1.227   0.525  0.4501 -1.1176  2.3087
  820SOL    HW2 2460   1.221   1.076   0.583  0.6899  0.6475 -0.9853
  821SOL     OW 2461   3.079   1.301   0.657 -0.3893 -0.3465 -0.0869
  821SOL    HW1 2462   3.047   1.292   0.749 -1.2961 -0.0950 -1.4437
  821SOL    HW2 2463   3.170   1.353   0.652 -0.8718 -1.2610  0.0577
  822SOL     OW 2464   2.520   1.777   2.439 -0.1156 -0.6926 -0.1281
  822SOL    HW1 2465   2.505   1.862   2.495 -0.6126 -0.8382  1.1842
  822SOL    HW2 2466   2.460   1.775   2.359 -0.3180  0.5564  2.1913
  823SOL     OW 2467   2.052   0.884   1.242 -0.0897 -0.1152 -0.0389
  823SOL    HW1 2468   2.023   0.865   1.339  1.8848 -0.4300  0.2733
  823SOL    HW2 2469   1.984   0.940   1.189  1.4959  1.0239  2.3297
  824SOL     OW 2470   0.128   2.013   2.743 -0.1312  0.4925  0.3678
  824SOL    HW1 2471   0.074   1.932   2.782 -0.8740 -1.1433 -0.5020
  824SOL    HW2 2472   0.194   1.983   2.670 -1.3694 -1.8210  0.5311
  825SOL     OW 2473   1.246   1.046   0.218  0.0408 -0.1177 -0.4871
  825SOL    HW1 2474   1.276   1.103   0.299  0.4828  1.8517 -0.7680
  825SOL    HW2 2475   1.196   1.109   0.157  1.3725  3.1432  1.0170
  826SOL     OW 2476   1.954   0.633   1.526  0.0535 -0.4793  0.4122
  826SOL    HW1 2477   2.007   0.558   1.581  1.0445 -0.2671 -1.0678
  826SOL    HW2 2478   1.866   0.594   1.481  0.5438  0.8514 -1.1469
  827SOL     OW 2479   0.716   1.426   0.301 -0.2999  0.5154  0.4620
  827SOL    HW1 2480   0.714   1.350   0.227 -1.1102 -1.3651  2.3382
  827SOL    HW2 2481   0.679   1.391   0.390  1.5907  1.7871 -0.3906
  828SOL     OW 2482   2.554   0.075   1.575 -0.1808 -0.3211  0.5786
  828SOL    HW1 2483   2.456   0.099   1.550 -0.7845  1.8065 -2.5151
  828SOL    HW2 2484   2.558   0.005   1.655  2.4968  0.2257  1.9772
  829SOL     OW 2485   2.820   2.483   3.000 -0.5650 -0.4513 -0.6691
  829SOL    HW1 2486   2.777   2.390   2.985  2.4602 -0.4238 -0.5954
  829SOL    HW2 2487   2.780   2.545   3.076  0.9618  2.7193 -1.3816
  830SOL     OW 2488   2.772   0.948   3.034  0.3550 -0.0168 -0.3194
  830SOL    HW1 2489   2.831   1.019   3.085  0.4379 -1.2383  0.1568
  830SOL    HW2 2490   2.778   0.853   3.082  1.0912 -0.8613  0.2542
  831SOL     OW 2491   3.092   0.606   0.364 -0.4403 -0.4313  0.6266
  831SOL    HW1 2492   3.066   0.557   0.455  0.9365 -0.6215 -2.1904
  831SOL    HW2 2493   3.144   0.538   0.309 -0.2697  1.2722  0.4833
  832SOL     OW 2494   1.814   0.733   0.015  0.3875 -0.1822  0.5615
  832SOL    HW1 2495   1.734   0.796  -0.009  0.2287 -0.5103 -1.2034
  832SOL    HW2 2496   1.781   0.634   0.004 -1.3091  1.0812  3.0077
  833SOL     OW 2497   2.436   2.149   0.502 -0.5957 -0.0651  0.3604
  833SOL    HW1 2498   2.335   2.119   0.521 -2.5834 -1.4141 -0.7635
  833SOL    HW2 2499   2.504   2.070   0.491  0.4948 -0.1278  3.4001
  834SOL     OW 2500   0.118   0.226   0.627  0.3678  0.0168 -0.4172
  834SOL    HW1 2501   0.176   0.156   0.687  1.6356 -2.9275 -0.0818
  834SOL    HW2 2502   0.144   0.231   0.525  3.7964 -2.4013 -2.7155
  835SOL     OW 2503   2.345   1.533   1.169 -0.4846  0.2359 -0.8662
  835SOL    HW1 2504   2.452   1.546   1.179  0.6062  1.1734  1.5491
  835SOL    HW2 2505   2.323   1.519   1.070 -1.0703 -1.3000  0.1431
  836SOL     OW 2506   1.542   0.801   2.570  0.3579  0.0102  0.1353
  836SOL    HW1 2507   1.441   0.804   2.539 -0.4478  0.8194 -0.8365
  836SOL    HW2 2508   1.606   0.840   2.496  1.7902 -1.4320 -1.5557
  837SOL     OW 2509   1.672   0.100   0.530  0.4959  0.5238 -0.6465
  837SOL    HW1 2510   1.617   0.140   0.606  1.9182 -2.3203  1.3726
  837SOL    HW2 2511   1.636   0.135   0.437 -1.5595  1.6080 -1.8161
  838SOL     OW 2512   1.221   1.575   2.691 -0.3178  0.0200  0.4856
  838SOL    HW1 2513   1.309   1.528   2.710  0.3207  2.5249  0.3587
  838SOL    HW2 2514   1.137   1.515   2.676 -0.2588  2.9210  0.2971
  839SOL     OW 2515   1.621   0.296   0.976 -0.1412  0.4835  0.4885
  839SOL    HW1 2516   1.650   0.369   1.044 -1.5503  1.2788  0.9164
  839SOL    HW2 2517   1.604   0.206   1.021 -2.5704 -0.7381 -1.4501
  840SOL     OW 2518   2.559   2.951   1.735  0.0404  0.3861 -0.1372
  840SOL    HW1 2519   2.492   2.909   1.669  0.7030  0.3463  1.9662
  840SOL    HW2 2520   2.601   2.885   1.798 -1.0160  0.7334 -1.3242
  841SOL     OW 2521   1.589   0.871   3.061  0.9593 -0.3635  0.1535
  841SOL    HW1 2522   1.498   0.828   3.095 -2.6943 -1.8017 -0.1145
  841SOL    HW2 2523   1.592   0.896   2.963 -0.9238 -3.9020  1.2808
  842SOL     OW 2524   0.806   1.499   0.882 -0.0062 -0.6402  0.1441
  842SOL    HW1 2525   0.765   1.575   0.939  1.3330 -1.8869 -1.1691
  842SOL    HW2 2526   0.739   1.429   0.849  2.7036  0.4205 -0.1889
  843SOL     OW 2527   0.135   3.097   1.407 -0.3760  0.6851 -0.1708
  843SOL    HW1 2528   0.156   3.165   1.483 -0.1849  2.8860 -0.8350
  843SOL    HW2 2529   0.103   3.002   1.438 -1.6048 -1.6785 -2.0608
  844SOL     OW 2530   0.797   2.443   0.256  0.0846  0.2567  0.2117
  844SOL    HW1 2531   0.738   2.422   0.339 -0.2395 -1.9674 -0.7261
  844SOL    HW2 2532   0.777   2.536   0.213 -0.1764 -0.7585 -1.2958
  845SOL     OW 2533   1.680   2.861   1.240 -0.0626  0.2618  0.3614
  845SOL    HW1 2534   1.707   2.762   1.224 -0.1114  3.2623  1.0080
  845SOL    HW2 2535   1.679   2.889   1.337  1.3585  0.8888 -0.0742
  846SOL     OW 2536   1.570   2.962   0.701  0.2751  0.0451 -0.4605
  846SOL    HW1 2537   1.545   2.995   0.606 -0.8135 -2.2841  0.7398
  846SOL    HW2 2538   1.672   2.972   0.720 -0.6955 -0.2399 -0.3796
  847SOL     OW 2539   2.110   1.697   0.430  0.0976 -0.4160  0.3847
  847SOL    HW1 2540   2.054   1.608   0.435 -0.1678  2.8517 -1.2672
  847SOL    HW2 2541   2.044   1.767   0.391 -1.2062  1.2323 -3.5540
  848SOL     OW 2542   2.419   0.878   2.595  0.5234 -0.1008  0.1410
  848SOL    HW1 2543   2.368   0.960   2.631  0.1913 -1.3700  0.0847
  848SOL    HW2 2544   2.369   0.789   2.621  0.8676 -0.3780  0.0083
  849SOL     OW 2545   2.563   0.880   2.362 -0.0076 -0.4135 -0.3974
  849SOL    HW1 2546   2.649   0.822   2.382  1.9884 -0.7894  0.0659
  849SOL    HW2 2547   2.501   0.891   2.441 -0.8134  0.3137 -0.5421
  850SOL     OW 2548   1.583   0.086   1.344 -0.2317 -0.4599  0.5219
  850SOL    HW1 2549   1.567   0.067   1.245 -0.0037  0.1645  1.2735
  850SOL    HW2 2550   1.549   0.015   1.404  2.6941  2.2330  2.1536
  851SOL     OW 2551   0.469   1.791   0.595 -0.6230  0.2906 -0.1939
  851SOL    HW1 2552   0.489   1.892   0.600  0.0171  2.4672 -3.7673
  851SOL    HW2 2553   0.482   1.768   0.496  0.4337  0.1110 -0.2861
  852SOL     OW 2554   0.846   2.032   1.795  0.0830 -0.3784 -0.0200
  852SOL    HW1 2555   0.865   2.129   1.761 -0.2086 -1.3569  2.1187
  852SOL    HW2 2556   0.756   2.028   1.844  0.7767  3.0557  0.3386
  853SOL     OW 2557   2.537   1.561   2.601 -0.5064 -0.0721  0.1697
  853SOL    HW1 2558   2.477   1.488   2.564 -0.1259  0.4223  2.7224
  853SOL    HW2 2559   2.536   1.655   2.552  0.8429 -1.4843 -1.3425
  854SOL     OW 2560   2.451   1.385   1.782 -0.0978 -0.5328 -0.2134
  854SOL    HW1 2561   2.486   1.339   1.698  1.5060  0.6572  0.9601
  854SOL    HW2 2562   2.375   1.333   1.831  1.8937 -1.2222 -2.2905
  855SOL     OW 2563   2.059   2.412   1.079 -0.1710  0.0019  0.1169
  855SOL    HW1 2564   2.024   2.507   1.056 -0.3217 -0.6159 -0.5394
  855SOL    HW2 2565   2.143   2.411   1.139 -1.2635  0.0617  2.8980
  856SOL     OW 2566   1.325   1.421   0.933 -0.4490  0.0233  0.1881
  856SOL    HW1 2567   1.400   1.476   0.990  0.1657 -1.2350  1.1259
  856SOL    HW2 2568   1.232   1.469   0.945  1.2107  1.8910  2.3939
  857SOL     OW 2569   3.097   2.759   1.044 -0.4183  0.1253 -0.4358
  857SOL    HW1 2570   3.045   2.695   0.981  3.1652 -1.1333  1.3893
  857SOL    HW2 2571   3.191   2.782   1.015  0.5481  1.7208 -1.5045
  858SOL     OW 2572   2.373   2.078   1.700 -0.1844  0.2801  1.0683
  858SOL    HW1 2573   2.291   2.038   1.658 -1.0717  2.0059 -0.4068
  858SOL    HW2 2574   2.458   2.014   1.706  2.7808 -1.6028  0.1676
  859SOL     OW 2575   2.386   0.528   1.028  0.1040  0.3498  0.2270
  859SOL    HW1 2576   2.475   0.578   1.000  1.5619  0.5792 -1.6251
  859SOL    HW2 2577   2.404   0.435   1.077 -0.7323 -0.5916  2.4254
  860SOL     OW 2578   1.840   2.829   0.540 -0.8240  0.4081  0.2472
  860SOL    HW1 2579   1.826   2.818   0.434  1.8858 -1.2512  0.6165
  860SOL    HW2 2580   1.866   2.924   0.566 -0.1426 -1.1254 -0.9142
  861SOL     OW 2581   0.953   2.493   2.889  0.2983 -0.2109 -0.5122
  861SOL    HW1 2582   1.024   2.559   2.857  1.3148  0.6229  0.7591
  861SOL    HW2 2583   0.915   2.526   2.979  1.1150  0.0069 -0.3972
  862SOL     OW 2584   2.893   2.554   1.644  0.2475  0.3363 -0.3711
  862SOL    HW1 2585   2.988   2.580   1.673  1.1144 -0.9385  0.4036
  862SOL    HW2 2586   2.832   2.631   1.605 -2.0512 -1.0325 -0.3141
  863SOL     OW 2587   1.810   2.737   0.287 -0.2488  0.0017 -0.6088
  863SOL    HW1 2588   1.873   2.659   0.302 -1.2531  1.3177 -1.1022
  863SOL    HW2 2589   1.716   2.711   0.258 -0.8649  0.4732 -0.9104
  864SOL     OW 2590   1.993   1.266   2.836  0.0267  0.2026 -0.0663
  864SOL    HW1 2591   2.019   1.198   2.759 -0.0212 -1.1615 -1.2336
  864SOL    HW2 2592   2.058   1.349   2.854 -1.0771 -0.2942  2.7699
  865SOL     OW 2593   2.170   1.942   0.740  0.2308 -0.1687 -0.0794
  865SOL    HW1 2594   2.214   1.869   0.800  0.3262 -0.3271  0.9430
  865SOL    HW2 2595   2.100   1.998   0.795  0.7990  0.6448  1.2392
  866SOL     OW 2596   2.920   2.996   1.026 -0.2312 -0.2437  0.1326
  866SOL    HW1 2597   2.918   3.058   0.944 -0.3114 -0.9415 -0.4961
  866SOL    HW2 2598   3.013   2.941   1.036 -1.3066  0.2727 -2.7350
  867SOL     OW 2599   0.328   1.425   0.917  0.2997  0.2101 -0.2894
  867SOL    HW1 2600   0.290   1.359   0.844 -0.5603  3.8514  1.4632
  867SOL    HW2 2601   0.352   1.517   0.873  1.2554 -1.5668 -1.8458
  868SOL     OW 2602   0.756   1.833   2.069 -0.5900  0.2720  0.3278
  868SOL    HW1 2603   0.708   1.802   2.156 -1.0153 -0.1409 -1.1429
  868SOL    HW2 2604   0.720   1.920   2.033  2.2682 -2.2395  2.9610
  869SOL     OW 2605   2.604   1.904   1.685 -0.2071 -0.1506 -0.0464
  869SOL    HW1 2606   2.660   1.976   1.635 -2.8171  2.2117 -2.5811
  869SOL    HW2 2607   2.634   1.804   1.660 -1.8497  0.6901  2.1175
  870SOL     OW 2608   2.345   2.719   1.247  0.0317  1.0829 -0.0735
  870SOL    HW1 2609   2.368   2.621   1.282 -0.1479 -0.4559  2.8048
  870SOL    HW2 2610   2.422   2.776   1.202 -1.8748 -1.5038  0.1470
  871SOL     OW 2611   3.058   2.235   0.530 -0.0787 -0.1920  0.7697
  871SOL    HW1 2612   2.990   2.257   0.605  3.1842  3.7904  1.9788
  871SOL    HW2 2613   3.014   2.214   0.436  0.1160 -1.3016 -0.7602
  872SOL     OW 2614   2.099   0.484   1.703 -0.2643 -0.4632 -0.1316
  872SOL    HW1 2615   2.044   0.452   1.782  0.8732  0.9948 -1.4403
  872SOL    HW2 2616   2.193   0.439   1.691  1.5590  2.1217 -1.0791
  873SOL     OW 2617   1.698   2.113   0.007 -0.1918 -0.3916  0.2979
  873SOL    HW1 2618   1.596   2.095   0.006  0.7718  1.5658 -1.2496
  873SOL    HW2 2619   1.725   2.168  -0.074  0.3307 -1.4713  0.9438
  874SOL     OW 2620   0.663   2.444   0.748 -0.0602  0.0256  0.4001
  874SOL    HW1 2621   0.672   2.546   0.750  0.5899 -2.1289 -2.6409
  874SOL    HW2 2622   0.754   2.396   0.775 -2.1747 -2.1969  1.7115
  875SOL     OW 2623   2.228   1.491   1.405  0.4371  0.1694  0.2621
  875SOL    HW1 2624   2.286   1.537   1.475 -0.2622 -0.4732  1.7406
  875SOL    HW2 2625   2.264   1.504   1.303 -1.2205 -0.3267 -2.0345
  876SOL     OW 2626   0.056   2.262   2.620  0.0260 -0.3696  0.0745
  876SOL    HW1 2627   0.066   2.164   2.658  0.1186  3.3951  0.7324
  876SOL    HW2 2628   0.090   2.335   2.683 -2.0536  0.7265  1.7596
  877SOL     OW 2629   2.941   2.685   0.617 -0.2780  0.2306  0.1558
  877SOL    HW1 2630   2.905   2.782   0.632  0.6580  0.6762  0.4003
  877SOL    HW2 2631   3.022   2.652   0.677  2.3729 -0.7678  1.5031
  878SOL     OW 2632   2.826   1.545   2.256  0.2577 -0.7943 -0.7957
  878SOL    HW1 2633   2.774   1.629   2.218 -0.2344 -0.8921 -0.7557
  878SOL    HW2 2634   2.807   1.522   2.356  0.2135  1.0505 -1.2179
  879SOL     OW 2635   2.401   0.066   1.204 -0.5425 -0.4731  0.0875
  879SOL    HW1 2636   2.436  -0.023   1.239  0.4766  2.3610  1.7388
  879SOL    HW2 2637   2.303   0.068   1.170  0.4006 -2.4412 -1.6258
  880SOL     OW 2638   0.726   0.564   2.270  0.2307  0.4801  0.2283
  880SOL    HW1 2639   0.673   0.501   2.331  1.5188 -0.2975  0.8636
  880SOL    HW2 2640   0.779   0.511   2.197 -0.8184 -0.9400 -0.0723
  881SOL     OW 2641   0.818   0.083   0.403 -0.1370  0.2030  0.1771
  881SOL    HW1 2642   0.870  -0.007   0.426 -0.1927  0.1984 -0.8965
  881SOL    HW2 2643   0.720   0.076   0.377  2.3589  0.4526  0.1922
  882SOL     OW 2644   2.721   1.660   1.680 -0.1104  0.4406  0.0536
  882SOL    HW1 2645   2.820   1.634   1.647  0.5394 -0.3642 -0.4466
  882SOL    HW2 2646   2.700   1.629   1.771 -0.5019  0.2555 -0.9856
  883SOL     OW 2647   0.801   0.510   0.921  0.5139  0.0646  0.2301
  883SOL    HW1 2648   0.856   0.589   0.955  1.3537 -2.0633  2.0012
  883SOL    HW2 2649   0.734   0.480   0.997 -1.0120  0.0857 -0.7407
  884SOL     OW 2650   1.123   1.785   1.130 -0.3788 -0.0094 -0.7027
  884SOL    HW1 2651   1.115   1.693   1.080 -1.4430 -2.9246 -3.4398
  884SOL    HW2 2652   1.065   1.853   1.077 -1.3633 -1.1102  3.5940
  885SOL     OW 2653   2.332   1.865   2.246 -0.7607 -1.1157 -0.0379
  885SOL    HW1 2654   2.261   1.802   2.290  1.4537  1.1811  2.0300
  885SOL    HW2 2655   2.309   1.961   2.279  0.9428 -0.6718 -0.8590
  886SOL     OW 2656   2.599   0.394   1.779  0.5938  0.0349  0.5540
  886SOL    HW1 2657   2.598   0.301   1.828 -1.1061  1.4759  2.0339
  886SOL    HW2 2658   2.693   0.436   1.765  0.6436  1.7279  2.0515
  887SOL     OW 2659   0.144   2.059   1.268  0.0950 -0.5691 -0.1021
  887SOL    HW1 2660   0.157   2.005   1.180 -2.1050 -0.8999 -1.9878
  887SOL    HW2 2661   0.161   2.164   1.250 -0.7124  1.7879  1.5928
  888SOL     OW 2662   0.626   1.215   1.495  0.6710 -0.1286 -0.3099
  888SOL    HW1 2663   0.612   1.246   1.399 -0.9666  0.9827  1.6947
  888SOL    HW2 2664   0.704   1.137   1.495  0.6584  0.2582  0.9694
  889SOL     OW 2665   0.866   2.455   2.228  0.2804  0.0617 -0.2415
  889SOL    HW1 2666   0.778   2.404   2.250 -0.3429 -0.9948 -0.7438
  889SOL    HW2 2667   0.909   2.418   2.140 -0.0609 -0.4305  1.2101
  890SOL     OW 2668   2.322   2.507   0.229  0.0941 -0.1557  0.1752
  890SOL    HW1 2669   2.329   2.573   0.154 -0.6700 -1.0224 -1.4040
  890SOL    HW2 2670   2.271   2.540   0.309 -4.5717 -3.0885 -0.4357
  891SOL     OW 2671   2.541   1.672   0.710 -0.7151  0.1613  0.0600
  891SOL    HW1 2672   2.523   1.683   0.810  1.1170 -2.0081  0.3119
  891SOL    HW2 2673   2.462   1.656   0.642  0.5267  1.3584 -0.3614
  892SOL     OW 2674   0.347   0.388   2.213  0.4834 -0.1583 -0.0544
  892SOL    HW1 2675   0.343   0.479   2.159 -0.3181  1.8033  1.1471
  892SOL    HW2 2676   0.433   0.373   2.262 -2.0447  1.5323  0.9899
  893SOL     OW 2677   1.699   0.249   2.730 -0.3294  0.0006 -0.2933
  893SOL    HW1 2678   1.781   0.306   2.743 -0.8218  0.4845 -1.2646
  893SOL    HW2 2679   1.613   0.296   2.701  1.6521  1.1982 -0.8904
  894SOL     OW 2680   2.156   2.104   0.101  0.5266 -0.1633 -0.1104
  894SOL    HW1 2681   2.140   2.052   0.013 -0.2172  0.4207 -0.5347
  894SOL    HW2 2682   2.182   2.038   0.180 -0.0524 -1.1509  1.5031
  895SOL     OW 2683   2.736   1.440   0.960  0.3485 -0.1658  0.0130
  895SOL    HW1 2684   2.826   1.381   0.970  1.9140 -1.0109 -0.9720
  895SOL    HW2 2685   2.754   1.537   0.979 -1.5749 -0.8787 -1.6092
  896SOL     OW 2686   1.797   1.859   1.223  0.2978  0.2139 -0.2523
  896SOL    HW1 2687   1.878   1.792   1.239  1.1400 -0.9977  0.5033
  896SOL    HW2 2688   1.727   1.825   1.153  0.2774  4.0488 -0.1256
  897SOL     OW 2689   0.254   0.535   3.008 -0.2430 -0.0564  0.1042
  897SOL    HW1 2690   0.186   0.596   2.959 -2.3612 -1.6019  0.4363
  897SOL    HW2 2691   0.350   0.580   3.001  1.8219  1.0269 -0.9356
  898SOL     OW 2692   0.689   2.813   1.075 -0.1434 -0.4901  0.0116
  898SOL    HW1 2693   0.724   2.912   1.087 -1.0899  0.4345 -3.6144
  898SOL    HW2 2694   0.724   2.750   1.147  0.0190  1.0707 -0.7395
  899SOL     OW 2695   2.854   0.945   1.409 -0.4081 -0.4806  0.3380
  899SOL    HW1 2696   2.834   0.904   1.313 -0.7065 -2.8562  0.5005
  899SOL    HW2 2697   2.955   0.971   1.427  2.3813  2.0853  0.6588
  900SOL     OW 2698   1.030   2.428   2.472 -0.1114 -0.0912  0.0836
  900SOL    HW1 2699   0.955   2.428   2.402  2.0246 -0.3514  0.6514
  900SOL    HW2 2700   0.994   2.396   2.563  2.4206  1.1073 -2.5896
  901SOL     OW 2701   1.910   2.460   1.405 -0.2598 -0.0278 -0.6484
  901SOL    HW1 2702   1.896   2.400   1.323  0.0460 -0.0168 -1.9202
  901SOL    HW2 2703   1.993   2.423   1.454  2.0183 -2.8726 -1.0131
  902SOL     OW 2704   2.546   1.651   1.477  0.3533 -0.3994 -0.4035
  902SOL    HW1 2705   2.618   1.644   1.555 -0.8204  0.3142  1.6224
  902SOL    HW2 2706   2.576   1.609   1.389  1.1437 -0.4497  0.9914
  903SOL     OW 2707   0.341   2.457   2.006 -0.0922  0.4252 -0.0269
  903SOL    HW1 2708   0.275   2.387   2.044 -0.8563  1.0289  0.0214
  903SOL    HW2 2709   0.309   2.504   1.919 -1.6187  0.9474  1.4244
  904SOL     OW 2710   2.002   0.761   2.469 -0.1864  0.0058  0.2392
  904SOL    HW1 2711   1.948   0.690   2.520  0.8289  2.5614 -0.3848
  904SOL    HW2 2712   2.020   0.742   2.370 -0.2076 -2.1458  0.6467
  905SOL     OW 2713   2.817   0.086   2.415 -0.4457  0.5667 -0.1496
  905SOL    HW1 2714   2.881   0.007   2.412 -2.6411  1.4650 -2.1222
  905SOL    HW2 2715   2.864   0.178   2.416 -0.2236 -1.0647  2.6389
  906SOL     OW 2716   0.158   1.717   1.892  0.3228 -0.2731 -0.0754
  906SOL    HW1 2717   0.112   1.730   1.804  0.7756 -3.6585  0.3512
  906SOL    HW2 2718   0.252   1.685   1.876 -0.9770 -1.5689  1.1094
  907SOL     OW 2719   0.248   2.532   0.972  0.2115  0.1831 -0.6910
  907SOL    HW1 2720   0.334   2.478   0.943  1.8809 -0.0174 -0.0038
  907SOL    HW2 2721   0.261   2.634   0.960 -0.4030 -0.1632  1.0507
  908SOL     OW 2722   2.828   3.029   0.309 -0.0135  0.0476 -0.6272
  908SOL    HW1 2723   2.737   3.013   0.268  2.0348 -0.3133  0.8646
  908SOL    HW2 2724   2.888   2.946   0.328  0.1293  0.3783 -1.9267
  909SOL     OW 2725   0.830   1.040   2.654 -0.4175  0.1711  0.3451
  909SOL    HW1 2726   0.801   0.942   2.647 -1.2565  0.9022 -1.6771
  909SOL    HW2 2727   0.894   1.071   2.572  4.2924  1.0002  0.1595
  910SOL     OW 2728   1.785   1.880   2.139 -0.0307 -0.1054  0.4017
  910SOL    HW1 2729   1.840   1.919   2.059 -1.6061  2.6146 -0.0282
  910SOL    HW2 2730   1.713   1.949   2.166 -0.2729  1.7989 -2.8658
  911SOL     OW 2731   1.773   2.973   1.482  0.0067  0.6382 -0.1211
  911SOL    HW1 2732   1.847   2.941   1.415 -1.9409 -2.1337 -1.2594
  911SOL    HW2 2733   1.760   2.910   1.563  1.4495 -0.3181  0.9892
  912SOL     OW 2734   2.849   1.025   0.701 -0.7126 -0.6204  0.0925
  912SOL    HW1 2735   2.870   1.012   0.801  2.2299  0.0834 -2.4733
  912SOL    HW2 2736   2.779   1.099   0.685 -0.8264  0.1429 -0.9773
  913SOL     OW 2737   2.597   1.286   1.574 -0.7070  0.0513  0.0100
  913SOL    HW1 2738   2.607   1.187   1.535  0.1317 -1.9674  2.6696
  913SOL    HW2 2739   2.622   1.353   1.498 -0.0948 -0.6302 -1.2325
  914SOL     OW 2740   2.788   0.588   1.152  0.0210 -0.2850  0.2944
  914SOL    HW1 2741   2.791   0.486   1.181  0.1036 -1.9682 -0.9095
  914SOL    HW2 2742   2.695   0.640   1.172 -1.2496 -0.0467 -1.5772
  915SOL     OW 2743   1.185   0.779   0.933  0.2586  0.3938  0.3545
  915SOL    HW1 2744   1.229   0.826   1.014 -0.6683  0.2823 -1.8283
  915SOL    HW2 2745   1.088   0.755   0.949 -0.8532  1.1400 -0.3146
  916SOL     OW 2746   0.602   0.142   0.636 -0.5601  0.0562  0.8053
  916SOL    HW1 2747   0.667   0.202   0.687 -0.3220 -1.1757  0.3167
  916SOL    HW2 2748   0.557   0.182   0.557 -0.5134 -0.5691 -0.2242
  917SOL     OW 2749   2.896   2.579   2.013 -0.6134 -0.2834  0.0991
  917SOL    HW1 2750   2.813   2.567   1.950  0.0735  1.4041 -1.6011
  917SOL    HW2 2751   2.978   2.635   1.967  1.4898  1.3563 -0.0532
  918SOL     OW 2752   1.005   2.130   3.010  0.1231 -0.3466 -0.3604
  918SOL    HW1 2753   1.020   2.212   3.073 -1.7340 -1.4797 -1.5753
  918SOL    HW2 2754   1.057   2.140   2.919 -0.8481  1.2481 -1.5847
  919SOL     OW 2755   0.880   1.700   2.765  0.1532  0.6161 -0.4438
  919SOL    HW1 2756   0.918   1.794   2.736  0.3257  0.2477  0.2336
  919SOL    HW2 2757   0.845   1.639   2.686 -1.0199 -1.7784  1.9668
  920SOL     OW 2758   1.293   1.772   2.497  0.2345 -0.5492 -0.0099
  920SOL    HW1 2759   1.382   1.753   2.445 -0.9528 -0.5399 -0.5533
  920SOL    HW2 2760   1.283   1.703   2.573  0.6801  1.6122  3.8545
  921SOL     OW 2761   1.127   0.039   2.622 -0.4063  0.0173  0.6575
  921SOL    HW1 2762   1.127   0.065   2.523  0.4245  0.1404 -0.6081
  921SOL    HW2 2763   1.034   0.058   2.669 -1.1461 -0.5702 -2.4173
  922SOL     OW 2764   2.178   2.410   2.769  0.3798 -0.6217 -0.2603
  922SOL    HW1 2765   2.210   2.311   2.763 -2.1778 -1.6950 -0.4233
  922SOL    HW2 2766   2.154   2.450   2.683 -2.4378 -1.3868  2.1411
  923SOL     OW 2767   1.286   2.737   0.265  0.0258  0.1775 -0.2620
  923SOL    HW1 2768   1.331   2.805   0.329 -1.0038 -1.2650  0.2445
  923SOL    HW2 2769   1.298   2.640   0.301 -1.4815  1.7065  0.9081
  924SOL     OW 2770   2.924   1.687   0.129 -0.8475 -0.6386 -0.0232
  924SOL    HW1 2771   2.835   1.657   0.086 -1.3759 -1.5191 -2.0110
  924SOL    HW2 2772   2.993   1.613   0.134 -2.1321  2.7357  0.9252
  925SOL     OW 2773   0.014   2.861   1.503  0.4073 -0.4625 -0.0087
  925SOL    HW1 2774  -0.067   2.893   1.559 -1.1760  0.2846 -1.3864
  925SOL    HW2 2775  -0.010   2.806   1.417  1.9111  2.7327  0.4847
  926SOL     OW 2776   1.285   2.804   1.314  0.2496 -0.4640  0.5319
  926SOL    HW1 2777   1.312   2.779   1.213  2.0470  0.5376 -0.3681
  926SOL    HW2 2778   1.336   2.885   1.358  0.3072  0.7735  0.9986
  927SOL     OW 2779   0.377   2.658   1.752 -0.3358 -0.5565 -0.5366
  927SOL    HW1 2780   0.337   2.574   1.709 -0.5415  0.3421  1.5274
  927SOL    HW2 2781   0.317   2.741   1.735  1.6993 -0.1737 -1.7344
  928SOL     OW 2782   1.579   2.069   2.229  0.3167 -0.0545 -0.1461
  928SOL    HW1 2783   1.599   2.137   2.149  0.3426 -1.4888 -1.7866
  928SOL    HW2 2784   1.478   2.048   2.246 -0.8107  0.1661 -1.2012
  929SOL     OW 2785   2.443   2.480   2.856 -0.6341  0.2150 -0.2431
  929SOL    HW1 2786   2.343   2.467   2.820  1.4043  0.6358 -4.8399
  929SOL    HW2 2787   2.503   2.521   2.786 -0.2848 -1.1637  1.2482
  930SOL     OW 2788   2.186   2.041   1.101  0.0757 -0.3628  0.5251
  930SOL    HW1 2789   2.164   2.009   1.194  0.4236  2.5311  0.2180
  930SOL    HW2 2790   2.251   2.124   1.105 -0.7480  1.9230  0.9659
  931SOL     OW 2791   0.497   1.718   2.621 -0.0708  0.2248 -0.0418
  931SOL    HW1 2792   0.515   1.744   2.721  1.2108  1.4055  2.7018
  931SOL    HW2 2793   0.573   1.655   2.583  2.2020 -1.3500  0.6706
  932SOL     OW 2794   0.345   0.030   0.022 -0.4534  0.5258 -0.6980
  932SOL    HW1 2795   0.423   0.086  -0.016 -1.2951 -0.9217 -0.5632
  932SOL    HW2 2796   0.346  -0.068  -0.020 -0.6074  1.5550  0.9580
  933SOL     OW 2797   0.995   0.843   3.036 -0.3338 -0.1933 -0.3029
  933SOL    HW1 2798   1.074   0.852   3.103 -0.3434  0.0561 -0.9778
  933SOL    HW2 2799   0.910   0.893   3.069 -0.3356  3.6500  1.2383
  934SOL     OW 2800   0.753   2.924   2.658 -0.6776 -0.2919  0.7934
  934SOL    HW1 2801   0.754   2.876   2.566  1.3768 -1.3137 -1.0354
  934SOL    HW2 2802   0.821   2.878   2.718 -3.3341  1.9367 -0.2767
  935SOL     OW 2803   0.036   0.532   0.816 -0.1574 -0.5020 -0.0705
  935SOL    HW1 2804   0.010   0.511   0.713 -0.8377 -0.1141  0.8826
  935SOL    HW2 2805  -0.038   0.589   0.859 -0.2782  1.2255 -0.7005
  936SOL     OW 2806   1.112   2.852   0.066 -0.2410 -0.6350  0.4992
  936SOL    HW1 2807   1.149   2.898  -0.020  1.0553 -0.4894 -2.4699
  936SOL    HW2 2808   1.181   2.784   0.105  0.4252 -0.4345 -1.1613
  937SOL     OW 2809   1.994   2.619   2.043 -0.5756  0.1949 -0.0437
  937SOL    HW1 2810   1.914   2.658   2.098 -1.7029 -0.6710 -0.8179
  937SOL    HW2 2811   2.008   2.666   1.954  0.3695  1.3751 -0.5592
  938SOL     OW 2812   2.788   2.082   1.561  0.0257  0.2261  0.0402
  938SOL    HW1 2813   2.763   2.184   1.563  4.2335  0.6048  2.2150
  938SOL    HW2 2814   2.881   2.065   1.607 -1.9409 -1.8957  0.6395
  939SOL     OW 2815   2.807   1.169   2.472 -0.8619  0.6187 -0.6053
  939SOL    HW1 2816   2.870   1.126   2.399  0.0940  0.9799  0.5522
  939SOL    HW2 2817   2.811   1.116   2.561 -1.8059  1.4509  0.1719
  940SOL     OW 2818   1.080   0.455   2.725 -0.4943  0.0152 -0.0913
  940SOL    HW1 2819   1.156   0.387   2.727 -0.8542  0.8487 -1.8996
  940SOL    HW2 2820   1.008   0.421   2.652 -0.7945 -0.4698 -1.0203
  941SOL     OW 2821   0.043   2.799   2.290 -1.0516  0.1360  0.2643
  941SOL    HW1 2822   0.088   2.705   2.260  2.2927 -2.2635  2.1632
  941SOL    HW2 2823   0.111   2.873   2.314 -1.1418 -0.8097 -2.6702
  942SOL     OW 2824   0.075   0.070   2.516 -0.4453  0.4464  0.2924
  942SOL    HW1 2825   0.126   0.070   2.608  0.4626  0.2519 -0.4238
  942SOL    HW2 2826   0.096   0.159   2.467 -1.5652  1.0086  0.4672
  943SOL     OW 2827   2.156   1.713   2.355  0.3163 -0.3220  0.3180
  943SOL    HW1 2828   2.122   1.666   2.268  1.4282  0.7576  0.7677
  943SOL    HW2 2829   2.158   1.641   2.437  1.6942  2.6322  2.7702
  944SOL     OW 2830   2.157   2.372   1.507  0.2522 -0.3204 -0.1429
  944SOL    HW1 2831   2.244   2.389   1.559  0.7798  1.2064  1.5232
  944SOL    HW2 2832   2.111   2.297   1.554  0.7427 -0.0021 -0.7330
  945SOL     OW 2833   0.729   1.598   0.071  0.0963  0.1681 -0.1847
  945SOL    HW1 2834   0.646   1.572   0.016  1.8929 -0.5642  0.0029
  945SOL    HW2 2835   0.740   1.540   0.157  0.7146 -1.5247  0.9580
  946SOL     OW 2836   0.313   1.019   2.591  0.2542 -0.5362 -0.2876
  946SOL    HW1 2837   0.289   0.969   2.502  0.4366  0.5984 -0.2284
  946SOL    HW2 2838   0.382   1.093   2.570  0.4179 -1.7946 -1.9185
  947SOL     OW 2839   1.465   0.558   3.061 -0.3737  0.2896  0.6105
  947SOL    HW1 2840   1.442   0.606   2.968 -1.1744  0.4975 -1.2556
  947SOL    HW2 2841   1.383   0.501   3.101 -1.5704 -1.2732  0.8056
  948SOL     OW 2842   1.908   2.966   2.177 -0.2634  0.3984 -0.4566
  948SOL    HW1 2843   1.897   2.932   2.077 -0.6231  1.8876 -0.8663
  948SOL    HW2 2844   1.918   2.890   2.243 -0.5263  3.3398 -3.6786
  949SOL     OW 2845   0.617   2.439   0.476  0.1651  0.3958  0.0955
  949SOL    HW1 2846   0.610   2.548   0.465 -1.3749  0.3292  1.6918
  949SOL    HW2 2847   0.635   2.404   0.572  0.2348 -1.7714 -0.1282
  950SOL     OW 2848   0.225   2.192   2.952 -0.0913  0.2217 -0.1276
  950SOL    HW1 2849   0.192   2.280   2.921 -0.6028 -0.6759 -0.2651
  950SOL    HW2 2850   0.210   2.121   2.879  1.5168 -1.3291  1.7552
  951SOL     OW 2851   1.181   2.662   2.791 -0.1083 -0.2957 -0.0530
  951SOL    HW1 2852   1.244   2.588   2.836 -1.6795 -0.0139 -1.1760
  951SOL    HW2 2853   1.240   2.723   2.733  1.6497 -0.0117 -0.1234
  952SOL     OW 2854   0.123   1.615   0.399  0.2182 -0.2574 -0.0651
  952SOL    HW1 2855   0.174   1.707   0.407  1.4635 -1.6077 -1.6897
  952SOL    HW2 2856   0.136   1.551   0.475  1.5831  1.5491  2.0300
  953SOL     OW 2857   2.523   1.726   0.320 -0.5775  0.1487  0.3155
  953SOL    HW1 2858   2.528   1.629   0.280 -0.4768  1.3380 -0.0997
  953SOL    HW2 2859   2.531   1.794   0.246  1.8531  3.9506  2.3950
  954SOL     OW 2860   2.142   0.576   0.904 -0.6312  0.5400 -0.1573
  954SOL    HW1 2861   2.150   0.549   0.807 -1.5634 -0.2341  1.6987
  954SOL    HW2 2862   2.228   0.575   0.962 -0.2189 -2.2374  1.0257
  955SOL     OW 2863   0.127   2.543   1.361  0.0482  0.6198  0.2102
  955SOL    HW1 2864   0.034   2.587   1.365  0.7426 -1.2562 -1.4978
  955SOL    HW2 2865   0.209   2.599   1.331  1.0990  1.6939 -0.9461
  956SOL     OW 2866   2.833   2.493   2.517 -0.2292 -0.1504  0.4198
  956SOL    HW1 2867   2.822   2.395   2.489 -1.0649  1.9056 -0.4560
  956SOL    HW2 2868   2.849   2.551   2.433  2.4632 -0.9940 -0.5192
  957SOL     OW 2869   1.620   2.044   2.754 -0.2451 -0.2953 -0.3892
  957SOL    HW1 2870   1.596   1.962   2.816 -1.8721  0.4051  1.7351
  957SOL    HW2 2871   1.692   2.022   2.687 -2.7465  0.5496 -0.0210
  958SOL     OW 2872   2.641   2.300   2.901 -0.1315 -0.2370  0.1056
  958SOL    HW1 2873   2.574   2.371   2.869 -0.3228  0.5926 -1.2906
  958SOL    HW2 2874   2.592   2.227   2.961  0.2652  1.9294  1.0698
  959SOL     OW 2875   0.359   2.760   0.108  0.4106 -0.1217 -0.7155
  959SOL    HW1 2876   0.274   2.784   0.154  1.7867  0.5555 -0.5360
  959SOL    HW2 2877   0.366   2.654   0.104 -2.0991  0.4255  2.3240
  960SOL     OW 2878   1.959   0.429   1.944 -0.0308 -0.6775 -0.0242
  960SOL    HW1 2879   1.921   0.520   1.915 -0.2037  0.2489  0.0152
  960SOL    HW2 2880   1.966   0.415   2.050  0.5358 -2.4989  0.9695
  961SOL     OW 2881   2.534   1.858   1.005 -0.2901 -0.0469 -0.7164
  961SOL    HW1 2882   2.549   1.945   0.947  2.4012 -0.5344  0.5771
  961SOL    HW2 2883   2.512   1.880   1.107  1.0018 -2.5380  2.1495
  962SOL     OW 2884   1.289   0.831   0.064  0.4085  0.1222  0.0775
  962SOL    HW1 2885   1.292   0.871  -0.036 -0.4821 -1.8012 -0.0975
  962SOL    HW2 2886   1.284   0.911   0.135  2.6568  2.5716  0.8797
  963SOL     OW 2887   2.305   2.566   1.833  0.4002 -0.2637 -0.1328
  963SOL    HW1 2888   2.247   2.477   1.838  0.0183 -1.4339 -1.5986
  963SOL    HW2 2889   2.314   2.621   1.920 -0.9838  1.4081  1.7822
  964SOL     OW 2890   2.352   0.323   1.641 -0.6493  0.1403 -0.3966
  964SOL    HW1 2891   2.444   0.350   1.676  2.8380 -1.5792  1.5687
  964SOL    HW2 2892   2.333   0.353   1.544 -1.4403  3.1441 -0.2759
  965SOL     OW 2893   2.599   2.950   0.161  0.2235 -0.3165  0.1700
  965SOL    HW1 2894   2.676   2.917   0.103 -0.6672  0.8057 -0.0889
  965SOL    HW2 2895   2.511   2.955   0.110 -0.8216 -0.1244  2.0116
  966SOL     OW 2896   2.488   2.503   2.209 -0.0222 -0.1559 -0.1659
  966SOL    HW1 2897   2.536   2.563   2.138  0.8014 -1.4422 -0.2688
  966SOL    HW2 2898   2.388   2.501   2.188 -0.1062  2.5649 -1.0599
  967SOL     OW 2899   2.745   2.835   2.443  0.1271 -0.0707 -0.4864
  967SOL    HW1 2900   2.782   2.759   2.381  1.4614 -0.4983 -1.8229
  967SOL    HW2 2901   2.816   2.893   2.490 -2.4699 -0.2752  1.0951
  968SOL     OW 2902   1.943   1.039   2.629  0.4149  0.0486  0.5869
  968SOL    HW1 2903   1.873   1.112   2.596  0.6628 -0.6742  0.1503
  968SOL    HW2 2904   1.942   0.957   2.562 -1.4048 -0.2424 -1.7645
  969SOL     OW 2905   2.807   2.529   1.070 -0.5052 -0.4307 -0.9082
  969SOL    HW1 2906   2.772   2.501   0.977 -0.0951 -0.0055 -0.8352
  969SOL    HW2 2907   2.842   2.452   1.130 -2.1140 -1.0772  0.2220
  970SOL     OW 2908   1.145   2.163   1.895  0.5896 -0.2354 -0.0974
  970SOL    HW1 2909   1.102   2.079   1.855 -0.3774  0.7919  0.2051
  970SOL    HW2 2910   1.076   2.241   1.910  1.8309 -1.6989 -1.8084
  971SOL     OW 2911   2.846   2.075   1.924 -0.1409 -0.3859  0.0085
  971SOL    HW1 2912   2.865   2.147   1.994  0.4798 -1.0686  2.0172
  971SOL    HW2 2913   2.902   2.084   1.839  0.5361  1.2269 -0.3306
  972SOL     OW 2914   1.919   2.488   0.252  0.0822 -0.2218  0.6050
  972SOL    HW1 2915   1.940   2.390   0.209 -1.9863  0.1379 -1.8790
  972SOL    HW2 2916   1.947   2.481   0.350 -0.3473 -1.4693 -1.1033
  973SOL     OW 2917   1.164   0.875   1.878  0.2019  0.2604 -0.0902
  973SOL    HW1 2918   1.107   0.794   1.860  1.4773 -0.0294 -3.3669
  973SOL    HW2 2919   1.113   0.964   1.858  2.6748  1.5955  1.9595
  974SOL     OW 2920   1.623   0.599   1.993  0.9129 -0.0512 -0.3298
  974SOL    HW1 2921   1.708   0.629   1.938 -1.6106  1.2772  0.1647
  974SOL    HW2 2922   1.539   0.653   1.963  1.2328 -1.4558 -0.2551
  975SOL     OW 2923   2.346   3.005   3.070  0.2595  0.6079 -0.6147
  975SOL    HW1 2924   2.288   2.921   3.097  0.1040 -0.1559  2.7479
  975SOL    HW2 2925   2.420   2.975   3.004  0.4873 -0.7406 -0.5801
  976SOL     OW 2926   1.908   2.758   2.352  0.1328  0.4575  0.6576
  976SOL    HW1 2927   1.806   2.739   2.358  1.4640  0.7938  0.8214
  976SOL    HW2 2928   1.951   2.780   2.446  1.9981  1.0982  0.6145
  977SOL     OW 2929   0.470   0.684   1.031  0.0665 -0.2585 -0.2686
  977SOL    HW1 2930   0.383   0.679   0.977  1.4114  1.1214  2.8258
  977SOL    HW2 2931   0.530   0.766   0.998 -0.6686 -1.5142  0.1669
   3.10000   3.10000   3.10000
