1000 SPC/Fw water molecules t=   0.66000 step= 660
 2931
    1SOL     OW    1   2.469   0.370   2.603 -0.2037  0.0042 -0.4074
    1SOL    HW1    2   2.510   0.275   2.583  1.2106 -0.8942  1.6147
    1SOL    HW2    3   2.525   0.413   2.681  0.5376 -0.0624  2.2523
    2SOL     OW    4   2.723   3.051   1.398  0.5827 -0.3072  0.1290
    2SOL    HW1    5   2.771   3.088   1.315  1.4885  1.3576  0.1287
    2SOL    HW2    6   2.673   3.128   1.451  1.3189 -0.7634  0.6359
    3SOL     OW    7   2.729   2.607   0.366 -0.0243  0.5175  0.1232
    3SOL    HW1    8   2.704   2.510   0.390 -0.2528  2.5455  0.5879
    3SOL    HW2    9   2.812   2.643   0.420 -1.4380  1.0105 -0.8218
    4SOL     OW   10   1.287   1.448   2.361  0.0953 -0.9450 -0.0788
    4SOL    HW1   11   1.186   1.489   2.377 -1.3043  0.7877  3.0704
    4SOL    HW2   12   1.294   1.349   2.399  0.6916 -0.1717  2.1994
    5SOL     OW   13   1.169   1.503   3.079 -0.0223  0.1106 -0.0909
    5SOL    HW1   14   1.249   1.562   3.100 -0.7482 -0.6217 -0.2438
    5SOL    HW2   15   1.077   1.550   3.103 -0.9933  2.0679  0.0878
    6SOL     OW   16   0.093   1.859   2.936 -0.0604  0.5604  0.1895
    6SOL    HW1   17  -0.000   1.881   2.980 -0.0636  0.0094 -0.1042
    6SOL    HW2   18   0.164   1.810   2.996 -1.4924  1.6791 -1.8854
    7SOL     OW   19   2.528   0.934   1.141  0.1364  0.2858 -0.6078
    7SOL    HW1   20   2.479   0.848   1.146  1.7455  1.8006  2.2010
    7SOL    HW2   21   2.544   0.969   1.044 -0.1490  1.8577  1.8690
    8SOL     OW   22   0.417   0.579   1.529 -0.2112 -0.1051 -0.0087
    8SOL    HW1   23   0.509   0.546   1.563 -2.7109 -0.4117  0.6087
    8SOL    HW2   24   0.401   0.553   1.429 -2.4587 -3.0581  0.4506
    9SOL     OW   25   1.141   0.906   2.316  0.1115 -0.3732  0.0807
    9SOL    HW1   26   1.226   0.956   2.280 -0.2546  1.9593  1.5249
    9SOL    HW2   27   1.075   0.883   2.240  1.8454 -0.0415  2.7144
   10SOL     OW   28   0.642   1.335   1.277 -0.7164  0.5313  0.4476
   10SOL    HW1   29   0.553   1.359   1.234 -1.8353 -0.6327 -0.8346
   10SOL    HW2   30   0.717   1.412   1.280  1.4396 -1.2349  1.5706
   11SOL     OW   31   2.371   2.745   0.884  0.1862 -0.5189 -0.5039
   11SOL    HW1   32   2.337   2.782   0.974  0.3395  2.9032 -1.1579
   11SOL    HW2   33   2.475   2.754   0.873  3.1007  0.6944  2.9091
   12SOL     OW   34   1.477   0.870   0.352 -0.0626 -0.0364  0.7855
   12SOL    HW1   35   1.395   0.919   0.309  2.6120  0.5644 -0.4906
   12SOL    HW2   36   1.490   0.778   0.301  0.0113  1.0691  1.9648
   13SOL     OW   37   2.506   0.674   1.813 -0.1937  0.7207  0.3276
   13SOL    HW1   38   2.434   0.661   1.885  0.0071 -1.1937  0.1183
   13SOL    HW2   39   2.490   0.630   1.718  1.6126 -0.3116 -1.2441
   14SOL     OW   40   1.966   0.097   0.729 -0.0846 -0.2699 -0.2538
   14SOL    HW1   41   1.893   0.123   0.659 -1.2363 -2.9587  0.1629
   14SOL    HW2   42   1.931   0.046   0.809  0.9540  1.7561 -0.4615
   15SOL     OW   43   1.946   2.012   2.763 -0.0433  0.1881 -0.5610
   15SOL    HW1   44   1.915   2.108   2.743  1.3384 -1.1707 -1.6779
   15SOL    HW2   45   1.888   1.939   2.709  0.4363  0.5409 -1.5165
   16SOL     OW   46   1.610   1.721   3.013 -0.4158 -0.2219 -0.3695
   16SOL    HW1   47   1.649   1.626   3.042  0.6661 -0.2274  0.6598
   16SOL    HW2   48   1.656   1.794   3.075  1.1627  0.2384 -1.8257
   17SOL     OW   49   0.103   0.524   0.151  0.3843  0.2233  0.0096
   17SOL    HW1   50   0.188   0.561   0.102  0.4747 -0.5264  0.7642
   17SOL    HW2   51   0.024   0.519   0.089 -0.1503  1.2207  2.0991
   18SOL     OW   52   0.943   2.997   2.110 -0.5434  0.2106 -0.3322
   18SOL    HW1   53   0.885   2.917   2.152 -0.5483  0.1414 -1.2245
   18SOL    HW2   54   0.999   2.973   2.028  0.6937 -1.2498 -2.5529
   19SOL     OW   55   0.524   0.825   1.909  0.2121 -0.0932 -0.4065
   19SOL    HW1   56   0.536   0.784   2.005  0.0461  0.4101  3.1499
   19SOL    HW2   57   0.620   0.831   1.862  1.3718  0.0024 -2.7429
   20SOL     OW   58   0.220   2.775   0.846  0.5326 -0.1956  0.5596
   20SOL    HW1   59   0.146   2.836   0.808 -1.5647 -2.2908 -1.1415
   20SOL    HW2   60   0.295   2.748   0.779  2.1118 -0.5137  1.5900
   21SOL     OW   61   2.780   0.178   2.077  0.0769  0.0081  0.4769
   21SOL    HW1   62   2.705   0.115   2.040 -2.4532  1.4610  0.6587
   21SOL    HW2   63   2.870   0.132   2.101  0.7230  0.3091  0.1591
   22SOL     OW   64   2.359   0.204   0.075  0.3501 -0.1255 -0.5601
   22SOL    HW1   65   2.386   0.103   0.053  0.9932  2.2318 -1.5348
   22SOL    HW2   66   2.256   0.223   0.076 -1.4102  0.0551  0.6223
   23SOL     OW   67   2.748   0.655   0.622 -0.0012  0.1959  0.0197
   23SOL    HW1   68   2.748   0.570   0.571  2.1021  2.8639  2.3419
   23SOL    HW2   69   2.748   0.736   0.561  0.9105 -0.2933  0.8227
   24SOL     OW   70   0.161   1.925   0.372  0.6031 -0.3070 -0.9843
   24SOL    HW1   71   0.087   1.969   0.311 -2.6318 -1.2136  0.8843
   24SOL    HW2   72   0.252   1.911   0.329  2.2621  0.6627  0.7286
   25SOL     OW   73   2.224   0.508   0.291 -0.3090  0.2496  0.1208
   25SOL    HW1   74   2.268   0.600   0.280  1.4753  2.3253  3.9164
   25SOL    HW2   75   2.210   0.450   0.207  0.8353 -1.0100  3.5017
   26SOL     OW   76   2.530   2.109   2.086  0.3772 -0.1364  0.5510
   26SOL    HW1   77   2.588   2.187   2.132 -1.6265  1.5817 -2.0726
   26SOL    HW2   78   2.589   2.036   2.048  1.3711  0.6420  0.9447
   27SOL     OW   79   0.598   2.972   0.179  0.2854  0.7408  0.1918
   27SOL    HW1   80   0.703   2.963   0.176  0.3461  0.2091 -1.5561
   27SOL    HW2   81   0.566   2.975   0.080 -1.7255 -0.4025  1.3124
   28SOL     OW   82   1.551   0.176   0.291  0.7709 -0.0488  0.2802
   28SOL    HW1   83   1.582   0.159   0.192 -1.8665 -0.4761 -1.6414
   28SOL    HW2   84   1.552   0.272   0.323 -0.5854  0.0790 -1.0437
   29SOL     OW   85   1.962   0.549   0.405  0.0729  0.3336  0.0172
   29SOL    HW1   86   1.936   0.642   0.444  0.0988 -2.6465 -0.9006
   29SOL    HW2   87   2.067   0.545   0.383  2.1681 -0.1080 -1.8711
   30SOL     OW   88   0.212   2.033   0.905 -0.3611 -0.3656  0.5649
   30SOL    HW1   89   0.236   2.055   0.807 -0.1297  0.3016 -2.0333
   30SOL    HW2   90   0.117   2.051   0.930  0.4870  2.1182 -1.9478
   31SOL     OW   91   2.102   3.076   2.312  0.0908  0.2308  0.2915
   31SOL    HW1   92   2.100   3.071   2.417  0.4178 -2.6418 -1.3715
   31SOL    HW2   93   2.020   3.032   2.262  0.2713 -0.6510  0.5807
   32SOL     OW   94   2.954   0.167   0.262  0.0523 -0.5815 -0.2061
   32SOL    HW1   95   2.925   0.102   0.337 -0.1868 -2.5358  2.8616
   32SOL    HW2   96   3.045   0.207   0.279 -0.2125 -1.2986  0.5112
   33SOL     OW   97   0.934   0.332   0.594  0.0312 -0.4354  0.1257
   33SOL    HW1   98   0.947   0.258   0.522 -1.1494  1.0862 -1.4417
   33SOL    HW2   99   1.029   0.351   0.646  0.8716  0.4939 -0.8429
   34SOL     OW  100   0.335   2.821   1.106 -0.9885  0.0606 -1.0303
   34SOL    HW1  101   0.282   2.797   1.019  0.8882 -1.1873 -1.3482
   34SOL    HW2  102   0.437   2.829   1.084 -0.4919  1.6774 -2.2118
   35SOL     OW  103   3.096   0.222   1.827 -0.1809 -0.4497 -0.2415
   35SOL    HW1  104   3.128   0.131   1.868 -1.0024 -0.3099 -0.5592
   35SOL    HW2  105   3.043   0.211   1.737  0.4430  1.2385  0.8335
   36SOL     OW  106   1.969   1.099   1.827  0.3017  0.7995 -0.4976
   36SOL    HW1  107   2.016   1.068   1.732  2.6635 -1.6164 -2.5285
   36SOL    HW2  108   2.009   1.187   1.862 -1.1990  2.4186  0.7247
   37SOL     OW  109   1.207   0.163   0.881 -0.1316 -0.6621 -0.0305
   37SOL    HW1  110   1.259   0.222   0.945  0.1099  0.0438  0.0348
   37SOL    HW2  111   1.265   0.096   0.832 -0.7486  1.2101 -0.7985
   38SOL     OW  112   1.112   2.791   2.414  0.1465  0.6957 -0.1037
   38SOL    HW1  113   1.040   2.717   2.439 -1.4498 -2.6019  1.3487
   38SOL    HW2  114   1.075   2.879   2.380  0.8678 -1.0299  0.1852
   39SOL     OW  115   2.340   1.403   3.031 -0.4805  0.3052  0.6665
   39SOL    HW1  116   2.380   1.309   3.026 -1.7364  1.3566 -2.9688
   39SOL    HW2  117   2.319   1.435   3.123  0.2873 -0.1956 -0.0247
   40SOL     OW  118   2.090   2.493   2.576 -0.0521 -0.3929 -0.0141
   40SOL    HW1  119   2.035   2.577   2.601 -1.3703 -0.2220 -0.1686
   40SOL    HW2  120   2.024   2.424   2.547 -1.1259  2.4844  0.4684
   41SOL     OW  121   2.981   0.657   2.777  0.5177 -0.4284  0.4358
   41SOL    HW1  122   2.892   0.703   2.768  0.5635 -3.0772  2.9269
   41SOL    HW2  123   2.971   0.556   2.775 -0.0584  3.1792  0.6903
   42SOL     OW  124   1.762   1.780   0.539 -0.0878 -0.1338 -0.0298
   42SOL    HW1  125   1.711   1.690   0.523  0.7732 -1.2403 -0.3277
   42SOL    HW2  126   1.785   1.831   0.448 -0.6911 -1.1959  0.3758
   43SOL     OW  127   0.468   1.688   1.083  0.1999 -0.3621 -0.0968
   43SOL    HW1  128   0.444   1.622   1.160 -0.7978 -2.8190  1.8894
   43SOL    HW2  129   0.379   1.715   1.032 -1.2925  0.7609  3.6398
   44SOL     OW  130   1.828   2.476   3.055 -0.1850 -0.3114 -0.0383
   44SOL    HW1  131   1.792   2.565   3.006 -1.6985  1.5779  0.2558
   44SOL    HW2  132   1.932   2.473   3.080  3.5759  2.2054  2.5992
   45SOL     OW  133   0.350   1.923   2.601  0.7659  0.6501 -0.2908
   45SOL    HW1  134   0.298   1.913   2.515 -0.9492  2.0233  1.0211
   45SOL    HW2  135   0.427   1.860   2.618 -0.3008  3.8496 -0.3065
   46SOL     OW  136   1.241   0.681   0.173  0.2209  0.1922  0.9188
   46SOL    HW1  137   1.243   0.770   0.125 -1.0579 -2.9792 -3.1072
   46SOL    HW2  138   1.149   0.667   0.217  0.3182  0.2709  1.7588
   47SOL     OW  139   0.207   2.466   1.629  0.1454  0.4109 -0.3352
   47SOL    HW1  140   0.264   2.378   1.608 -0.1043  2.4734 -1.5261
   47SOL    HW2  141   0.165   2.500   1.543 -1.6330 -0.8043  0.8581
   48SOL     OW  142   2.608   0.613   0.135 -0.4771 -0.2297 -0.3538
   48SOL    HW1  143   2.552   0.608   0.221  0.7660  0.3657  3.5565
   48SOL    HW2  144   2.690   0.683   0.138 -0.2683  1.8881  0.6149
   49SOL     OW  145   0.328   0.778   1.708  0.0080 -0.0362 -0.0941
   49SOL    HW1  146   0.392   0.792   1.793 -2.3143  1.7967  1.7917
   49SOL    HW2  147   0.361   0.701   1.642 -0.1216 -0.1433 -0.0951
   50SOL     OW  148   1.660   1.137   0.292 -0.0314  0.1934 -0.5572
   50SOL    HW1  149   1.651   1.035   0.285 -0.2519 -3.3531 -0.2334
   50SOL    HW2  150   1.610   1.174   0.377 -0.3315  0.9124  1.6389
   51SOL     OW  151   2.894   1.838   0.373 -0.0499  0.3369 -0.2170
   51SOL    HW1  152   2.889   1.790   0.284 -2.3511  1.3791  2.6049
   51SOL    HW2  153   2.920   1.777   0.454 -0.4101 -0.4667  0.4312
   52SOL     OW  154   0.781   1.990   0.475  0.1945  0.2360 -0.0955
   52SOL    HW1  155   0.698   2.043   0.502  1.3060  0.7391 -0.3979
   52SOL    HW2  156   0.831   1.939   0.555  3.3094 -0.4769  1.5481
   53SOL     OW  157   0.089   0.423   1.585  1.3881  0.1020  0.5342
   53SOL    HW1  158   0.123   0.484   1.660  1.9746  1.6765  1.1764
   53SOL    HW2  159   0.041   0.475   1.506  1.1300  2.7356 -2.3366
   54SOL     OW  160   1.783   0.463   3.066  0.6219 -0.2083 -0.7285
   54SOL    HW1  161   1.826   0.415   3.152  1.0953  0.6471 -0.1315
   54SOL    HW2  162   1.679   0.460   3.075 -0.8644 -1.9731  0.9134
   55SOL     OW  163   0.779   2.907   0.680 -0.3006  0.0089  0.2675
   55SOL    HW1  164   0.712   2.982   0.698 -0.9385  1.6911  3.2568
   55SOL    HW2  165   0.859   2.931   0.616  3.0062 -1.1251  0.2743
   56SOL     OW  166   0.447   1.577   3.087  0.4117  0.5519  0.5191
   56SOL    HW1  167   0.344   1.606   3.085 -0.3650  1.9672  2.6417
   56SOL    HW2  168   0.468   1.505   3.024 -1.6645  4.8371  1.2894
   57SOL     OW  169   1.785   2.517   2.603 -0.4180  0.3128 -0.7480
   57SOL    HW1  170   1.829   2.440   2.541 -0.9266 -2.6299 -1.5094
   57SOL    HW2  171   1.689   2.505   2.635  1.6397  0.7794 -0.9199
   58SOL     OW  172   0.654   0.342   1.038  0.1697 -0.4127  0.1400
   58SOL    HW1  173   0.580   0.407   1.019 -2.5628 -3.1228  0.2662
   58SOL    HW2  174   0.621   0.245   1.068 -1.1190 -1.0420  1.7246
   59SOL     OW  175   0.431   2.401   2.777  0.5023  0.2001  0.2575
   59SOL    HW1  176   0.449   2.314   2.722  0.1348  1.1128 -2.3938
   59SOL    HW2  177   0.512   2.424   2.833 -2.4217 -0.6514 -1.2471
   60SOL     OW  178   2.293   2.036   2.200 -0.3319  0.1793 -0.0316
   60SOL    HW1  179   2.386   2.079   2.160 -1.5049  1.1550 -2.8839
   60SOL    HW2  180   2.284   2.058   2.304  0.1064 -2.5592  1.7947
   61SOL     OW  181   1.299   0.607   0.484  0.3717  0.3271 -0.5632
   61SOL    HW1  182   1.226   0.667   0.534  1.6052  0.0136 -1.3201
   61SOL    HW2  183   1.311   0.636   0.384 -0.5143 -0.5470 -0.3197
   62SOL     OW  184   2.714   1.788   2.928  0.6697 -0.5241  0.1505
   62SOL    HW1  185   2.690   1.690   2.944  0.2334  1.7504 -3.6126
   62SOL    HW2  186   2.797   1.805   2.868  1.9726  2.9297 -1.4819
   63SOL     OW  187   0.610   0.902   0.156  0.2957 -0.5383  0.0939
   63SOL    HW1  188   0.599   1.006   0.136 -2.1414 -0.3695 -1.2660
   63SOL    HW2  189   0.696   0.869   0.210  0.4500 -0.1719 -0.2705
   64SOL     OW  190   0.121   0.553   2.526  0.7110 -0.5287 -0.6741
   64SOL    HW1  191   0.198   0.525   2.589 -0.1813 -0.4917  0.6349
   64SOL    HW2  192   0.133   0.653   2.507 -1.3113  2.2646  0.2535
   65SOL     OW  193   0.192   1.479   0.564 -0.4804 -0.1575 -0.5523
   65SOL    HW1  194   0.225   1.543   0.641  1.9358  0.1131 -2.8515
   65SOL    HW2  195   0.273   1.439   0.508  0.0883 -0.8115  1.7569
   66SOL     OW  196   2.532   0.376   0.577  0.3450 -0.4595 -0.1497
   66SOL    HW1  197   2.536   0.434   0.663  0.0183  0.9948 -1.9757
   66SOL    HW2  198   2.519   0.272   0.603 -3.0186 -2.0998  2.1510
   67SOL     OW  199   0.543   2.523   1.363 -0.4596 -0.2005 -0.1138
   67SOL    HW1  200   0.597   2.506   1.451  0.1720  0.4452  0.4313
   67SOL    HW2  201   0.483   2.437   1.353 -0.6923  0.6576  0.0211
   68SOL     OW  202   1.024   1.123   2.439  0.5356  0.1682  0.0463
   68SOL    HW1  203   1.043   1.024   2.416 -2.6193 -0.1511 -2.3241
   68SOL    HW2  204   0.936   1.149   2.389 -0.5555  0.5023 -0.5468
   69SOL     OW  205   0.771   2.774   2.222 -0.5446 -0.2054 -0.2167
   69SOL    HW1  206   0.797   2.688   2.171 -4.1738  0.4119 -1.7737
   69SOL    HW2  207   0.670   2.802   2.205  0.6011 -0.0640  0.4533
   70SOL     OW  208   0.586   0.309   2.716 -0.5490 -0.1441  0.1133
   70SOL    HW1  209   0.567   0.341   2.813  0.9520  2.1326  0.0956
   70SOL    HW2  210   0.558   0.207   2.702 -1.7736  1.9574 -1.8954
   71SOL     OW  211   1.056   1.724   0.357  0.0775 -0.3505 -0.0697
   71SOL    HW1  212   0.989   1.643   0.379 -0.3647 -1.8426  0.3610
   71SOL    HW2  213   1.061   1.738   0.255  0.5331 -1.4684  2.6154
   72SOL     OW  214   1.807   0.168   2.097  0.1645  0.3707  0.8183
   72SOL    HW1  215   1.833   0.211   2.009  0.0755  0.5620  1.1806
   72SOL    HW2  216   1.818   0.060   2.099  0.3361 -2.2184  1.2777
   73SOL     OW  217   2.825   2.137   2.437  0.3151 -0.9247 -0.7491
   73SOL    HW1  218   2.784   2.045   2.408  1.9894  4.9196 -0.0139
   73SOL    HW2  219   2.813   2.150   2.541 -0.4648  0.8427 -0.0427
   74SOL     OW  220   2.713   2.895   2.060 -0.1821  0.0936  0.8749
   74SOL    HW1  221   2.664   2.907   2.150 -1.7998 -0.7162  3.7389
   74SOL    HW2  222   2.813   2.917   2.066  1.1051 -0.3926  0.9471
   75SOL     OW  223   0.929   0.741   1.068  0.1924  0.6581  0.8645
   75SOL    HW1  224   0.839   0.775   1.046  0.4412 -2.8665 -0.7139
   75SOL    HW2  225   0.974   0.796   1.142 -1.8011  0.0468  1.4059
   76SOL     OW  226   1.668   1.282   2.533 -0.4402 -0.0452  0.0754
   76SOL    HW1  227   1.582   1.245   2.571  1.3403  1.5670  2.3350
   76SOL    HW2  228   1.686   1.379   2.571 -2.5212 -0.6165 -1.9246
   77SOL     OW  229   2.959   0.934   0.962  0.2063 -0.3095  0.1317
   77SOL    HW1  230   2.968   0.836   0.923  1.1505 -0.1519 -1.4121
   77SOL    HW2  231   2.997   0.936   1.059  2.8820  3.0261  1.6533
   78SOL     OW  232   2.064   1.383   1.529  0.6268  0.0729 -0.2164
   78SOL    HW1  233   2.140   1.449   1.507  0.4037 -0.6721 -1.9421
   78SOL    HW2  234   2.042   1.327   1.447 -0.4718  1.0818  1.1478
   79SOL     OW  235   0.655   1.332   0.877 -0.0388 -1.1498 -0.4897
   79SOL    HW1  236   0.560   1.379   0.895 -1.6114 -0.5023  3.1744
   79SOL    HW2  237   0.659   1.298   0.778 -2.8771 -0.1934  0.0017
   80SOL     OW  238   0.665   0.458   1.615 -0.2408  0.0635 -0.5528
   80SOL    HW1  239   0.721   0.506   1.543 -1.4503  0.0888 -0.2664
   80SOL    HW2  240   0.663   0.354   1.610 -3.7375 -0.8756  0.2326
   81SOL     OW  241   1.038   1.385   2.600 -0.1934 -0.6320 -0.1105
   81SOL    HW1  242   1.058   1.303   2.541 -0.2326  2.1552  1.7884
   81SOL    HW2  243   0.974   1.456   2.551  0.1988  2.8228  0.6979
   82SOL     OW  244   0.940   2.940   1.494  0.8103  0.1274 -0.2776
   82SOL    HW1  245   0.967   2.974   1.401 -1.6095 -0.8338 -0.7387
   82SOL    HW2  246   0.854   2.880   1.493  0.8200 -0.8670 -1.9259
   83SOL     OW  247   2.710   2.503   0.851  0.7040  0.2507  0.3441
   83SOL    HW1  248   2.657   2.445   0.787  1.3022  0.8531 -0.5817
   83SOL    HW2  249   2.699   2.604   0.827  0.2455 -2.1147  0.9668
   84SOL     OW  250   0.682   3.056   2.318 -0.1286 -0.1733  0.4497
   84SOL    HW1  251   0.635   3.007   2.397  1.4862 -1.6485 -3.1882
   84SOL    HW2  252   0.785   3.067   2.340  0.6344  0.1901  2.9078
   85SOL     OW  253   0.343   1.590   1.535 -0.6037 -0.5808 -0.7967
   85SOL    HW1  254   0.281   1.677   1.523 -1.6503  0.6624  1.0165
   85SOL    HW2  255   0.364   1.555   1.635  2.7547  0.8053  0.6454
   86SOL     OW  256   0.384   0.968   1.511  0.3537 -0.0648 -0.3984
   86SOL    HW1  257   0.376   0.919   1.419  2.5077 -0.5316  1.4126
   86SOL    HW2  258   0.383   0.903   1.591 -1.8185  0.8921 -1.0184
   87SOL     OW  259   1.561   0.666   0.186  0.4619  0.0003  0.2443
   87SOL    HW1  260   1.646   0.714   0.160  0.6094 -0.8099 -2.2083
   87SOL    HW2  261   1.528   0.607   0.109  1.4895  0.2479  1.9895
   88SOL     OW  262   1.567   1.384   0.224 -0.3881 -0.6816 -0.3189
   88SOL    HW1  263   1.603   1.289   0.247  3.0511  0.4060 -1.2011
   88SOL    HW2  264   1.465   1.394   0.231  0.7133  1.4914 -2.2576
   89SOL     OW  265   0.015   0.427   0.589 -0.7587 -0.3625  0.0228
   89SOL    HW1  266   0.080   0.353   0.555 -0.3723 -0.7295 -3.2280
   89SOL    HW2  267  -0.085   0.399   0.581  1.2272  0.6868  1.2650
   90SOL     OW  268   0.925   1.618   0.017 -0.2472  0.4860  0.4896
   90SOL    HW1  269   0.852   1.605   0.092 -1.2477  2.2343  0.2481
   90SOL    HW2  270   0.878   1.627  -0.075  0.2907 -0.7786 -0.2487
   91SOL     OW  271   1.259   1.437   1.783 -0.3925  0.3783 -0.3120
   91SOL    HW1  272   1.237   1.529   1.820 -0.2909  1.2429 -1.7130
   91SOL    HW2  273   1.360   1.438   1.754 -0.1059 -1.6104 -0.2555
   92SOL     OW  274   0.006   0.937   1.216  0.6103 -0.6781 -0.0277
   92SOL    HW1  275   0.049   1.012   1.160  0.6874  0.6596 -0.3246
   92SOL    HW2  276   0.016   0.950   1.321  0.6172  0.0192 -1.2334
   93SOL     OW  277   0.030   2.747   0.012  0.5867  0.2304 -0.2006
   93SOL    HW1  278  -0.029   2.756  -0.074 -0.1792 -1.9840 -1.9383
   93SOL    HW2  279   0.058   2.646   0.022 -2.6071 -2.2908 -1.5539
   94SOL     OW  280   1.519   1.453   1.760 -0.3117 -0.8474 -0.0895
   94SOL    HW1  281   1.569   1.360   1.776  1.1429 -1.5088 -0.9854
   94SOL    HW2  282   1.573   1.526   1.808  0.8721 -1.9304  0.8114
   95SOL     OW  283   1.411   2.516   3.025  0.1109 -0.3387  0.0002
   95SOL    HW1  284   1.320   2.510   3.079  0.1364 -1.1909  2.1245
   95SOL    HW2  285   1.425   2.435   2.960 -0.2419  0.9331  0.5412
   96SOL     OW  286   0.547   2.076   1.323  0.6296  1.0361  0.3010
   96SOL    HW1  287   0.498   2.035   1.242 -1.1515  1.8291 -1.2733
   96SOL    HW2  288   0.609   2.006   1.370  1.2581  0.9600  1.7939
   97SOL     OW  289   0.401   1.631   2.438 -0.5149  0.4996 -0.1415
   97SOL    HW1  290   0.307   1.590   2.430  0.3472  1.7903  0.6408
   97SOL    HW2  291   0.433   1.636   2.537  0.0664 -0.5097  1.7538
   98SOL     OW  292   1.958   1.592   1.244  0.1428  0.0770 -0.2155
   98SOL    HW1  293   1.923   1.539   1.327 -1.7158 -2.0847  1.4674
   98SOL    HW2  294   1.952   1.538   1.155 -0.0244  0.1332 -0.2929
   99SOL     OW  295   2.465   2.134   1.364 -0.3308  0.0035  0.2489
   99SOL    HW1  296   2.463   2.199   1.444  0.9989 -1.8421  2.2371
   99SOL    HW2  297   2.436   2.037   1.391  1.7148 -0.6565  1.8784
  100SOL     OW  298   2.295   0.343   2.075  0.4399 -0.6239  0.1779
  100SOL    HW1  299   2.218   0.330   2.145 -0.5030  0.2768 -3.2238
  100SOL    HW2  300   2.387   0.360   2.116 -2.5492 -0.8162 -0.6069
  101SOL     OW  301   0.347   1.520   0.249 -0.3706  0.5639  0.0515
  101SOL    HW1  302   0.405   1.539   0.336 -1.2261  0.7576  0.2564
  101SOL    HW2  303   0.365   1.588   0.170  0.7219 -1.5564 -1.5062
  102SOL     OW  304   2.299   1.001   0.849 -0.4640 -0.4383  0.7239
  102SOL    HW1  305   2.221   0.943   0.815 -0.5313 -2.1063 -2.2320
  102SOL    HW2  306   2.307   1.096   0.802 -1.9731 -2.0372  0.5420
  103SOL     OW  307   2.295   0.018   0.399 -0.1682  0.1236 -0.4979
  103SOL    HW1  308   2.348   0.103   0.367 -0.9918 -0.5842  1.3288
  103SOL    HW2  309   2.358  -0.047   0.450 -1.1853 -4.3474  0.7802
  104SOL     OW  310   0.100   1.761   2.182  0.2509  0.6209 -0.1799
  104SOL    HW1  311   0.136   1.761   2.088 -1.7516 -0.7843 -0.5316
  104SOL    HW2  312  -0.005   1.767   2.182  2.1621  1.0236 -3.8328
  105SOL     OW  313   1.276   2.116   0.773 -0.0887  0.1573 -0.0420
  105SOL    HW1  314   1.199   2.152   0.711 -0.1197 -0.3849 -1.2158
  105SOL    HW2  315   1.263   2.014   0.798 -1.2917  0.0098  2.1218
  106SOL     OW  316   2.147   0.512   1.397  0.0193 -0.8327  0.0440
  106SOL    HW1  317   2.086   0.447   1.451  0.2018 -0.3981 -1.1596
  106SOL    HW2  318   2.164   0.604   1.445  0.4700 -0.8756 -0.2740
  107SOL     OW  319   1.750   3.006   1.148 -0.3305  0.2805  0.6921
  107SOL    HW1  320   1.829   3.066   1.179  1.0224 -0.4090  0.5921
  107SOL    HW2  321   1.700   2.966   1.227  1.0173  2.6729 -0.6871
  108SOL     OW  322   0.826   2.785   1.186 -0.2131  0.3129 -0.2051
  108SOL    HW1  323   0.781   2.787   1.280 -1.6449 -1.2032 -0.7803
  108SOL    HW2  324   0.930   2.767   1.195 -0.5325  1.1034  1.2749
  109SOL     OW  325   2.217   0.102   0.758 -0.2143 -0.3123 -0.4108
  109SOL    HW1  326   2.113   0.087   0.739  0.5243  0.5272  1.9783
  109SOL    HW2  327   2.239   0.103   0.861 -0.0562 -2.0703 -1.0178
  110SOL     OW  328   0.445   2.858   2.762 -0.1931 -0.3714  0.2762
  110SOL    HW1  329   0.421   2.882   2.666 -0.2943  0.4503  1.4698
  110SOL    HW2  330   0.521   2.787   2.762  1.1076 -1.0825 -0.5703
  111SOL     OW  331   1.306   0.502   2.283  0.3548 -0.2521 -0.0026
  111SOL    HW1  332   1.225   0.541   2.336 -1.0374 -1.1327 -0.3546
  111SOL    HW2  333   1.347   0.422   2.338 -1.5330  1.0965  1.2955
  112SOL     OW  334   1.725   0.517   1.492 -0.9455  0.3972 -0.0952
  112SOL    HW1  335   1.752   0.487   1.397 -0.9399  1.3065 -1.3823
  112SOL    HW2  336   1.687   0.439   1.555 -0.2629 -1.6554  2.6875
  113SOL     OW  337   2.257   1.648   1.782 -0.1319  0.0656 -0.0877
  113SOL    HW1  338   2.320   1.567   1.763  2.5297  3.3858 -0.3669
  113SOL    HW2  339   2.260   1.669   1.883  0.1101 -0.0244  0.4811
  114SOL     OW  340   0.398   0.494   1.244 -0.4391  0.1102  0.0605
  114SOL    HW1  341   0.445   0.558   1.178 -0.9797  0.8020  0.7691
  114SOL    HW2  342   0.308   0.462   1.207 -1.8752 -1.5220 -0.3034
  115SOL     OW  343   2.784   1.636   1.302  0.4723 -0.5484  0.3374
  115SOL    HW1  344   2.781   1.535   1.318  0.2472  0.6015 -0.2991
  115SOL    HW2  345   2.811   1.660   1.203  0.8139 -0.3581  0.9498
  116SOL     OW  346   1.838   1.037   0.700 -0.0749  0.1086 -0.4247
  116SOL    HW1  347   1.750   1.034   0.643  0.6525 -1.0995  1.2761
  116SOL    HW2  348   1.842   1.123   0.761  1.9683 -0.0068  1.8187
  117SOL     OW  349   1.191   0.394   0.707  0.3030  0.6361 -0.4693
  117SOL    HW1  350   1.178   0.373   0.807 -4.0177  0.5332  2.4619
  117SOL    HW2  351   1.231   0.487   0.679  1.1407 -0.2794  1.3641
  118SOL     OW  352   1.108   1.155   1.066 -0.0059 -0.8043  0.2157
  118SOL    HW1  353   1.078   1.069   1.107  2.2077  0.4240 -2.9819
  118SOL    HW2  354   1.147   1.227   1.137  0.4060  2.0037 -1.0864
  119SOL     OW  355   1.830   1.604   2.114  0.1496 -0.0484  0.7678
  119SOL    HW1  356   1.819   1.697   2.146 -1.0075 -1.6375 -0.4119
  119SOL    HW2  357   1.929   1.577   2.095  1.1545 -0.3674 -2.1587
  120SOL     OW  358   2.927   2.826   0.207 -0.0883 -0.4192 -0.4041
  120SOL    HW1  359   3.002   2.808   0.136 -0.9336  1.6839  2.1212
  120SOL    HW2  360   2.841   2.765   0.196 -2.8482 -1.2714 -2.5849
  121SOL     OW  361   2.023   0.762   2.321 -0.0820 -0.2635  0.2566
  121SOL    HW1  362   2.071   0.811   2.240  1.2454  0.6922 -0.1369
  121SOL    HW2  363   2.025   0.660   2.306 -1.2925  0.7524  0.6239
  122SOL     OW  364   2.630   2.693   1.241  0.4546 -0.3049 -0.7691
  122SOL    HW1  365   2.678   2.611   1.210  0.7436  0.2527 -0.5640
  122SOL    HW2  366   2.591   2.748   1.161 -0.9917 -1.9418  0.3992
  123SOL     OW  367   1.730   0.066   1.674  0.4459  0.0986  0.1040
  123SOL    HW1  368   1.749  -0.018   1.616  0.5746 -0.8328  1.0744
  123SOL    HW2  369   1.811   0.099   1.723 -0.0412  0.6986 -2.0346
  124SOL     OW  370   0.131   0.421   1.108  0.0185  0.2586 -0.4267
  124SOL    HW1  371   0.086   0.489   1.167  0.8496 -3.4780 -2.3665
  124SOL    HW2  372   0.115   0.434   1.007 -1.6200  1.3227 -2.7209
  125SOL     OW  373   0.840   1.827   0.685 -0.0984  0.8203 -0.2092
  125SOL    HW1  374   0.924   1.779   0.723 -0.9852 -0.7037  1.9716
  125SOL    HW2  375   0.774   1.864   0.759 -1.4464  1.7106  0.9713
  126SOL     OW  376   1.899   2.314   2.478  0.0485 -0.3304  0.2580
  126SOL    HW1  377   1.966   2.277   2.407 -1.7170 -0.1597 -0.3138
  126SOL    HW2  378   1.862   2.233   2.532  0.8234 -1.0179  1.1027
  127SOL     OW  379   0.854   0.883   0.303  0.4140 -0.1720 -0.3480
  127SOL    HW1  380   0.880   0.921   0.393  0.3315 -0.6369 -1.3279
  127SOL    HW2  381   0.911   0.798   0.290 -0.5500 -0.4379  0.2391
  128SOL     OW  382   0.964   0.233   1.372 -0.2575  0.5590  0.0399
  128SOL    HW1  383   0.944   0.328   1.325  1.1219 -1.2569  0.8140
  128SOL    HW2  384   0.900   0.156   1.337 -1.9485  1.6366  1.3487
  129SOL     OW  385   1.835   0.721   1.887  0.0763  0.7168  0.1252
  129SOL    HW1  386   1.838   0.727   1.779 -1.3098  0.6720 -4.2315
  129SOL    HW2  387   1.897   0.781   1.937 -2.1820 -0.1580  0.4740
  130SOL     OW  388   1.374   2.219   1.020  0.1327 -0.7888  0.3270
  130SOL    HW1  389   1.343   2.189   0.925  1.3388  0.5250 -0.1740
  130SOL    HW2  390   1.440   2.303   1.017 -0.2908  0.1121  0.0059
  131SOL     OW  391   3.045   1.437   1.368 -0.5644 -0.1564 -0.2294
  131SOL    HW1  392   2.991   1.350   1.400 -0.6856 -2.6997  1.1345
  131SOL    HW2  393   3.145   1.409   1.352  0.2043 -1.1611 -0.6152
  132SOL     OW  394   2.034   2.450   0.552  0.8050 -0.4415  0.4565
  132SOL    HW1  395   1.929   2.466   0.551  0.1101  1.7792  3.7312
  132SOL    HW2  396   2.056   2.376   0.616  0.0982 -0.5965  0.5487
  133SOL     OW  397   1.873   2.278   2.767  0.3671  0.7910  0.0452
  133SOL    HW1  398   1.947   2.300   2.838  1.9093 -0.2764  0.7054
  133SOL    HW2  399   1.839   2.365   2.717 -0.2486 -0.4078  0.6597
  134SOL     OW  400   2.695   2.320   1.658  0.4929  0.0925  0.3820
  134SOL    HW1  401   2.621   2.323   1.731  0.3480  1.8492  0.2236
  134SOL    HW2  402   2.762   2.402   1.666 -0.5917  2.3068  0.7381
  135SOL     OW  403   0.716   1.497   2.663 -0.2318 -0.3423 -0.0096
  135SOL    HW1  404   0.708   1.401   2.704  1.0359 -2.6103 -0.3834
  135SOL    HW2  405   0.747   1.482   2.569 -0.0509  2.2021  5.2148
  136SOL     OW  406   1.189   1.946   0.441  0.0963  0.1632 -0.1065
  136SOL    HW1  407   1.132   1.993   0.519 -1.3839  0.8353  0.6146
  136SOL    HW2  408   1.144   1.862   0.397 -1.8912  0.2118  0.7144
  137SOL     OW  409   0.410   1.136   2.146  0.3065  0.3064 -0.1691
  137SOL    HW1  410   0.337   1.171   2.214  0.4721  2.5770 -2.6808
  137SOL    HW2  411   0.478   1.064   2.186 -0.9068  1.5980  1.9580
  138SOL     OW  412   2.485   1.496   0.278  0.0485  0.3144 -0.0064
  138SOL    HW1  413   2.398   1.483   0.226  0.7760 -0.8599 -1.0542
  138SOL    HW2  414   2.514   1.419   0.342 -0.2878 -0.5926  0.1608
  139SOL     OW  415   1.829   2.650   1.298  0.6953  0.1841  0.0348
  139SOL    HW1  416   1.727   2.646   1.268 -1.2859 -1.5430  2.4547
  139SOL    HW2  417   1.859   2.560   1.350  0.1891 -0.8582  1.0538
  140SOL     OW  418   3.010   2.898   2.607  0.6362 -0.0303 -0.1703
  140SOL    HW1  419   3.059   2.806   2.618  0.6975  2.5687  1.1067
  140SOL    HW2  420   3.066   2.983   2.637 -2.5872  0.6270 -0.6442
  141SOL     OW  421   1.282   1.699   1.623  0.7245 -0.0019  0.4165
  141SOL    HW1  422   1.221   1.782   1.643  0.0283 -0.4163 -0.2960
  141SOL    HW2  423   1.275   1.634   1.705 -0.9377 -1.3111  0.6510
  142SOL     OW  424   1.558   0.608   2.214  0.4400 -0.4543  0.8236
  142SOL    HW1  425   1.557   0.614   2.109  0.1535  0.4445  1.3632
  142SOL    HW2  426   1.469   0.577   2.252 -0.0304 -1.8093 -0.3691
  143SOL     OW  427   2.739   0.905   0.486 -0.1063 -0.1941  0.1313
  143SOL    HW1  428   2.784   0.963   0.408  2.4502 -0.4681  1.6274
  143SOL    HW2  429   2.788   0.915   0.578 -0.5430 -0.9660 -2.0847
  144SOL     OW  430   2.935   1.181   1.452 -0.0989 -0.3944  0.1008
  144SOL    HW1  431   2.857   1.166   1.517  0.3086  0.1747  2.2269
  144SOL    HW2  432   3.012   1.116   1.473  2.0491  0.9697 -1.5854
  145SOL     OW  433   0.999   1.860   0.076 -0.0109  0.2506  0.2782
  145SOL    HW1  434   1.014   1.927  -0.004  1.9298 -0.9467 -1.4273
  145SOL    HW2  435   0.960   1.769   0.046 -0.1212  0.3986 -1.6172
  146SOL     OW  436   2.462   0.691   1.514  0.4594 -0.3516 -0.1070
  146SOL    HW1  437   2.444   0.610   1.449 -0.4626  1.7130 -3.3174
  146SOL    HW2  438   2.418   0.777   1.486  0.3483 -2.0932 -1.1858
  147SOL     OW  439   1.116   2.483   0.609  0.6308  0.0196 -0.1509
  147SOL    HW1  440   1.076   2.531   0.531  3.4779 -2.4805  0.2320
  147SOL    HW2  441   1.196   2.425   0.579 -1.2503  1.4584  0.7341
  148SOL     OW  442   1.666   1.460   3.072  0.2858  0.2394 -0.4575
  148SOL    HW1  443   1.671   1.390   2.993  0.0298 -0.4042  1.2802
  148SOL    HW2  444   1.629   1.424   3.164  0.2518 -1.4918 -0.7274
  149SOL     OW  445   0.704   1.430   1.970 -0.2004 -0.1763  0.3192
  149SOL    HW1  446   0.610   1.411   2.011 -1.9431  0.0545 -0.5766
  149SOL    HW2  447   0.737   1.352   1.910  2.4273 -2.7624  1.9066
  150SOL     OW  448   3.041   1.271   0.973 -0.1949  0.0484 -0.1637
  150SOL    HW1  449   3.122   1.256   1.037 -0.2166  3.0133  1.8560
  150SOL    HW2  450   2.981   1.188   0.959  1.4791  0.3824 -0.9893
  151SOL     OW  451   0.234   0.752   2.113  0.0413 -0.2680  0.4920
  151SOL    HW1  452   0.198   0.827   2.055 -0.2911 -2.0135  1.5666
  151SOL    HW2  453   0.227   0.658   2.076  2.8178  0.7152  1.9637
  152SOL     OW  454   1.391   1.782   1.281 -0.0517 -0.6861 -0.2672
  152SOL    HW1  455   1.369   1.848   1.358  0.4499  1.3039 -0.3956
  152SOL    HW2  456   1.307   1.742   1.239  0.7775  0.6434 -0.2289
  153SOL     OW  457   3.055   1.515   0.178 -0.1728  0.2856 -0.2807
  153SOL    HW1  458   3.089   1.417   0.196  0.7424  0.5674 -1.0413
  153SOL    HW2  459   3.072   1.570   0.267  3.0811  0.1253 -1.2070
  154SOL     OW  460   2.352   1.838   2.753  0.5229  0.0507 -0.5455
  154SOL    HW1  461   2.339   1.743   2.796  0.5885 -0.9676  0.6991
  154SOL    HW2  462   2.443   1.841   2.705  0.6788  0.4736 -1.7156
  155SOL     OW  463   2.421   1.236   0.401 -0.2608 -0.1652 -0.4974
  155SOL    HW1  464   2.492   1.199   0.334 -0.6856  2.8519  0.3430
  155SOL    HW2  465   2.329   1.195   0.390  3.0052 -0.6116  1.1273
  156SOL     OW  466   2.575   0.984   0.867  0.3157  0.0341  0.1654
  156SOL    HW1  467   2.468   0.987   0.868 -1.1398 -1.0802  0.8185
  156SOL    HW2  468   2.620   1.052   0.798 -0.6461 -1.9430 -2.2733
  157SOL     OW  469   1.268   2.979   3.069  0.2981 -0.3542  0.1625
  157SOL    HW1  470   1.325   2.975   2.986 -1.1144 -0.7187  2.0274
  157SOL    HW2  471   1.288   3.070   3.113  2.1478 -1.8539 -1.9912
  158SOL     OW  472   1.022   1.833   1.966  0.2374 -0.1987 -0.7403
  158SOL    HW1  473   1.066   1.932   1.969  1.7433  1.5464 -2.2334
  158SOL    HW2  474   0.928   1.828   2.012  2.0725 -0.2793 -0.8848
  159SOL     OW  475   0.829   0.445   1.232 -0.8010 -0.8060 -0.2902
  159SOL    HW1  476   0.790   0.526   1.291  0.5065  3.6828 -1.1132
  159SOL    HW2  477   0.765   0.420   1.155 -0.6850  2.1955 -1.1174
  160SOL     OW  478   1.414   2.361   1.648 -0.7727 -0.7573 -0.3527
  160SOL    HW1  479   1.419   2.442   1.712  1.0092 -3.0301  0.1771
  160SOL    HW2  480   1.503   2.357   1.593 -0.7831 -0.3365 -1.5903
  161SOL     OW  481   0.090   2.914   0.298 -0.1891  0.4729 -0.6961
  161SOL    HW1  482  -0.000   2.878   0.279 -1.5511  2.3913 -1.8799
  161SOL    HW2  483   0.115   2.981   0.224 -1.6111 -1.1144  1.6958
  162SOL     OW  484   2.544   1.919   0.455  0.1115  0.4188  0.2051
  162SOL    HW1  485   2.566   1.857   0.373 -2.2069 -0.9102 -0.2969
  162SOL    HW2  486   2.529   1.857   0.540  1.7403 -5.3626  0.9795
  163SOL     OW  487   1.935   2.730   0.768 -0.0066  0.1580 -0.3383
  163SOL    HW1  488   1.905   2.731   0.671 -0.3724  1.1917  0.2954
  163SOL    HW2  489   2.034   2.700   0.781  2.1910  1.4373 -1.1636
  164SOL     OW  490   3.053   0.203   1.190  0.7207  0.0211  0.1703
  164SOL    HW1  491   3.115   0.268   1.139  0.2154  1.5199  2.0946
  164SOL    HW2  492   3.090   0.126   1.246  0.0769  0.1626  0.8427
  165SOL     OW  493   0.910   1.425   0.685  0.3116 -0.4173  0.0857
  165SOL    HW1  494   0.876   1.468   0.776 -2.2366 -0.9115 -3.3703
  165SOL    HW2  495   0.899   1.490   0.604 -0.5566  2.6469  1.1723
  166SOL     OW  496   1.483   1.081   1.735  0.4495  0.0936  0.1388
  166SOL    HW1  497   1.383   1.083   1.764 -0.8559  0.2284  0.0543
  166SOL    HW2  498   1.547   1.136   1.792  1.4771 -0.2943  1.5210
  167SOL     OW  499   0.735   1.910   1.470 -0.5324  0.1507 -0.4387
  167SOL    HW1  500   0.742   1.972   1.552  0.8086 -0.8522 -1.7699
  167SOL    HW2  501   0.703   1.811   1.495  1.0119 -1.8216  0.2670
  168SOL     OW  502   1.644   2.394   0.149  0.5873 -0.1069 -0.2138
  168SOL    HW1  503   1.702   2.422   0.067 -0.8072  3.8822 -1.4233
  168SOL    HW2  504   1.685   2.324   0.218  0.5555 -0.9984  1.2008
  169SOL     OW  505   0.179   2.545   2.228 -0.4942  0.2637 -0.0177
  169SOL    HW1  506   0.181   2.516   2.129  0.2278 -0.3467 -1.0156
  169SOL    HW2  507   0.220   2.480   2.298 -2.2641 -1.9302 -0.2214
  170SOL     OW  508   1.170   0.246   1.991 -0.9576 -0.1310  0.3375
  170SOL    HW1  509   1.239   0.232   2.067  0.6452 -0.6764 -1.1698
  170SOL    HW2  510   1.184   0.181   1.909 -1.1778 -0.6467 -0.3701
  171SOL     OW  511   0.223   0.816   2.376 -0.1853 -0.5337  0.2088
  171SOL    HW1  512   0.140   0.878   2.381  1.3851 -2.2582 -1.5535
  171SOL    HW2  513   0.244   0.790   2.278 -0.7045 -1.1287  1.9204
  172SOL     OW  514   0.925   1.064   2.923 -0.0455 -0.7948 -0.1477
  172SOL    HW1  515   1.016   1.112   2.945  0.9281 -0.3005  1.6292
  172SOL    HW2  516   0.889   1.085   2.828  1.2896  2.1627 -1.6271
  173SOL     OW  517   0.668   2.651   0.076  0.0138 -0.1072  0.0474
  173SOL    HW1  518   0.680   2.751   0.037  0.6458  1.5224 -3.1018
  173SOL    HW2  519   0.570   2.634   0.103 -3.1633 -0.0616 -0.4911
  174SOL     OW  520   1.399   2.819   1.072  0.0752 -0.3835 -0.1142
  174SOL    HW1  521   1.431   2.915   1.037 -0.7905 -0.8529 -0.8762
  174SOL    HW2  522   1.406   2.741   1.002 -0.3755 -3.0351 -1.6474
  175SOL     OW  523   0.371   0.048   1.671 -0.5671  0.4290 -0.1156
  175SOL    HW1  524   0.435   0.085   1.742 -1.2052  1.8709 -0.4006
  175SOL    HW2  525   0.310   0.120   1.626 -3.3095  0.3345  0.9131
  176SOL     OW  526   2.567   0.378   3.087  0.0456  0.2077  0.1956
  176SOL    HW1  527   2.556   0.460   3.149 -0.2281 -0.5874 -1.5143
  176SOL    HW2  528   2.489   0.307   3.117 -1.3330  0.0724  1.0364
  177SOL     OW  529   0.345   0.313   0.977  0.2478  0.0629  0.1220
  177SOL    HW1  530   0.379   0.221   1.012  3.5396 -0.5502  1.6189
  177SOL    HW2  531   0.250   0.329   1.018 -1.7338  0.7842  0.2695
  178SOL     OW  532   0.034   2.669   2.655 -0.8798 -0.0186 -0.0967
  178SOL    HW1  533  -0.043   2.606   2.677  0.1143 -0.5661 -0.7116
  178SOL    HW2  534   0.097   2.693   2.736 -2.0739 -1.9240  1.1946
  179SOL     OW  535   0.009   1.693   1.195  0.0819  0.0855 -0.2609
  179SOL    HW1  536  -0.062   1.771   1.185  0.8394  0.7316  2.1500
  179SOL    HW2  537  -0.030   1.615   1.262 -0.4470 -2.3208  1.8909
  180SOL     OW  538   0.225   1.197   1.873 -0.0973  0.1198 -0.0908
  180SOL    HW1  539   0.329   1.192   1.856  4.2363 -1.2263 -1.0328
  180SOL    HW2  540   0.198   1.273   1.939  0.8364 -1.0059 -1.9251
  181SOL     OW  541   3.004   1.834   2.505 -0.1429 -0.0328 -0.1631
  181SOL    HW1  542   3.082   1.899   2.499 -3.1996  2.3671 -1.3103
  181SOL    HW2  543   2.924   1.882   2.453  0.6322 -0.0874 -1.2563
  182SOL     OW  544   2.269   1.299   1.161 -0.3156  0.1172 -0.1935
  182SOL    HW1  545   2.179   1.270   1.117  0.1626  0.4198 -0.2545
  182SOL    HW2  546   2.300   1.395   1.137  1.0016 -1.2110  3.2147
  183SOL     OW  547   1.507   2.239   2.559  0.1647 -0.4860  0.0976
  183SOL    HW1  548   1.417   2.198   2.557  2.5187  3.6811 -0.8252
  183SOL    HW2  549   1.576   2.166   2.589 -2.7375 -3.1025 -0.7563
  184SOL     OW  550   2.055   0.892   0.764 -0.2758 -0.2108 -0.0926
  184SOL    HW1  551   1.964   0.945   0.762 -0.1925 -0.2459  0.8451
  184SOL    HW2  552   2.043   0.791   0.792  1.3113 -0.0106 -0.6741
  185SOL     OW  553   1.557   2.753   2.091 -0.5387  0.6722  0.1602
  185SOL    HW1  554   1.524   2.844   2.055  1.2923 -0.1657  0.1642
  185SOL    HW2  555   1.511   2.741   2.183  1.3518  2.5332 -0.1406
  186SOL     OW  556   0.058   2.210   1.688  0.2048  0.1832 -0.1696
  186SOL    HW1  557   0.097   2.308   1.668  3.4870  2.4711  1.2042
  186SOL    HW2  558   0.136   2.145   1.706  1.1266  1.0787  0.4405
  187SOL     OW  559   1.388   0.731   1.675 -0.1035  0.1752  0.2396
  187SOL    HW1  560   1.475   0.747   1.619 -1.9020  1.9333 -1.1967
  187SOL    HW2  561   1.411   0.767   1.771  2.4213  1.8221 -0.0240
  188SOL     OW  562   2.769   2.751   1.451  0.2146 -0.0428  0.4495
  188SOL    HW1  563   2.771   2.855   1.461 -2.2590 -0.2146  0.2264
  188SOL    HW2  564   2.707   2.723   1.372  2.5675 -2.1612  0.0057
  189SOL     OW  565   0.847   1.122   1.365  0.2581  0.6502  0.4564
  189SOL    HW1  566   0.922   1.144   1.431 -0.0308  2.5044 -1.0645
  189SOL    HW2  567   0.785   1.199   1.334 -0.1374 -0.8759  1.1837
  190SOL     OW  568   1.528   1.892   1.581 -0.4885 -0.1405 -0.4768
  190SOL    HW1  569   1.446   1.825   1.576  0.0361 -0.4235 -0.3832
  190SOL    HW2  570   1.555   1.921   1.678  0.1113  0.2351 -1.2588
  191SOL     OW  571   0.985   0.752   1.526 -0.3276  0.0720 -0.1750
  191SOL    HW1  572   1.047   0.666   1.533  0.2033  0.5677 -0.3751
  191SOL    HW2  573   1.040   0.836   1.558  0.7270  0.0633 -2.0389
  192SOL     OW  574   1.866   2.204   1.135  0.1638 -0.2614  0.1861
  192SOL    HW1  575   1.784   2.172   1.082 -0.8572 -0.0949  1.2715
  192SOL    HW2  576   1.929   2.268   1.081 -0.9461 -0.9862  1.8733
  193SOL     OW  577   0.506   0.601   0.447 -0.0139 -0.1439  0.3796
  193SOL    HW1  578   0.492   0.510   0.498  0.9921 -2.8809  2.4332
  193SOL    HW2  579   0.575   0.598   0.370 -0.5345  1.9629  2.6347
  194SOL     OW  580   0.308   0.844   1.274 -0.1931  0.5678  0.1776
  194SOL    HW1  581   0.250   0.760   1.282  1.3018  1.8886  0.1091
  194SOL    HW2  582   0.302   0.893   1.182 -2.8313  1.1674 -1.4620
  195SOL     OW  583   1.009   2.914   0.544  0.1659  0.2873  0.6480
  195SOL    HW1  584   0.986   2.809   0.526  1.8542 -2.9805  0.9595
  195SOL    HW2  585   1.101   2.948   0.499  3.4166 -0.8788 -1.1267
  196SOL     OW  586   0.238   1.382   1.363 -0.7739  0.1171  0.2128
  196SOL    HW1  587   0.274   1.463   1.418  0.4838 -0.6746  0.0169
  196SOL    HW2  588   0.232   1.297   1.422 -0.4517  1.0925 -1.3953
  197SOL     OW  589   0.831   2.020   0.214  0.2349  0.0204  0.2894
  197SOL    HW1  590   0.827   2.026   0.319  1.6080  0.8823 -1.1895
  197SOL    HW2  591   0.896   1.945   0.176  1.0564  2.3415 -2.8540
  198SOL     OW  592   0.300   1.242   0.239  0.5348 -0.1026 -0.1197
  198SOL    HW1  593   0.197   1.211   0.256 -1.6003 -1.1824 -0.5067
  198SOL    HW2  594   0.302   1.346   0.229 -2.0947 -1.2268 -1.0808
  199SOL     OW  595   2.213   0.344   2.550  0.3227  0.2905  0.2048
  199SOL    HW1  596   2.147   0.300   2.619 -4.4935  0.6831  1.4229
  199SOL    HW2  597   2.315   0.336   2.572 -3.2318 -2.4105  1.4983
  200SOL     OW  598   0.043   2.962   0.703 -0.0718 -0.4955  0.2987
  200SOL    HW1  599  -0.014   2.978   0.620  0.7453 -0.9885  0.6413
  200SOL    HW2  600   0.059   3.048   0.755 -3.2286 -1.5813 -0.8233
  201SOL     OW  601   1.124   0.734   0.625 -0.2654  0.0282 -0.0770
  201SOL    HW1  602   1.128   0.799   0.706  0.8587 -1.5226  1.6273
  201SOL    HW2  603   1.026   0.698   0.620 -1.4624 -1.2937 -0.8548
  202SOL     OW  604   0.511   1.212   1.806  0.2570 -0.1721 -0.2453
  202SOL    HW1  605   0.540   1.220   1.702  2.2616  0.9625  1.0341
  202SOL    HW2  606   0.554   1.127   1.839  2.0994  1.9610 -2.5858
  203SOL     OW  607   0.700   0.196   1.559 -0.1094  0.1855 -0.4393
  203SOL    HW1  608   0.725   0.146   1.468 -1.0469  1.2124  1.1338
  203SOL    HW2  609   0.755   0.155   1.634 -0.1520  0.2838 -1.8852
  204SOL     OW  610   2.039   1.874   2.980  0.1580  0.2888 -0.1546
  204SOL    HW1  611   2.051   1.772   2.968  1.3130  3.8846 -3.1780
  204SOL    HW2  612   2.021   1.918   2.889  0.6895 -2.6088 -0.8524
  205SOL     OW  613   1.815   1.851   0.018 -0.4564 -0.1538 -0.4534
  205SOL    HW1  614   1.906   1.849  -0.038  0.0365  2.0244  0.2061
  205SOL    HW2  615   1.773   1.945   0.020  0.5511  0.5651  1.3552
  206SOL     OW  616   2.509   2.780   0.344 -0.1452 -0.1248  0.3288
  206SOL    HW1  617   2.569   2.697   0.353 -1.0864 -1.0613  2.8553
  206SOL    HW2  618   2.538   2.854   0.279  0.1651 -1.3192  0.7992
  207SOL     OW  619   0.561   1.771   2.933  0.4789  0.0140  0.4212
  207SOL    HW1  620   0.662   1.762   2.942 -1.0344 -3.4347  0.5037
  207SOL    HW2  621   0.513   1.703   2.993 -0.4183  1.7669  1.3101
  208SOL     OW  622   1.181   1.557   1.408  0.1286  0.2838  0.2234
  208SOL    HW1  623   1.169   1.624   1.331  2.5531 -1.8598  1.8236
  208SOL    HW2  624   1.199   1.607   1.494  0.2216  1.8538 -0.3550
  209SOL     OW  625   0.269   0.972   3.002  0.1990  0.2491 -0.1310
  209SOL    HW1  626   0.316   0.900   2.944 -1.3683 -1.2612  1.8698
  209SOL    HW2  627   0.249   0.946   3.099  0.8893  0.4279  0.2082
  210SOL     OW  628   1.769   0.471   1.219 -0.0962  0.4586  0.5457
  210SOL    HW1  629   1.702   0.547   1.188  2.2637  0.8858 -1.3044
  210SOL    HW2  630   1.869   0.490   1.204  0.0297 -1.3231 -1.3446
  211SOL     OW  631   2.123   1.041   1.602 -0.3369 -0.2777 -0.6609
  211SOL    HW1  632   2.180   0.968   1.655  0.7987  0.0029  1.7141
  211SOL    HW2  633   2.176   1.109   1.549 -0.9326  1.0678 -0.9699
  212SOL     OW  634   0.031   0.990   1.479 -0.8855 -0.0226  0.1337
  212SOL    HW1  635   0.106   1.053   1.510 -2.7724  1.8095 -1.4577
  212SOL    HW2  636   0.039   0.902   1.533  4.2654 -2.3809 -1.5815
  213SOL     OW  637   2.759   0.395   0.322  0.0828  0.0305  0.8566
  213SOL    HW1  638   2.823   0.328   0.270  0.2070 -0.4434 -0.1046
  213SOL    HW2  639   2.684   0.448   0.279 -0.2093 -1.3128  0.3470
  214SOL     OW  640   2.150   0.260   2.289  0.3467 -0.3224 -0.0077
  214SOL    HW1  641   2.153   0.296   2.387 -1.0590 -1.8083  1.3911
  214SOL    HW2  642   2.124   0.158   2.280  0.5292 -0.8487 -3.6284
  215SOL     OW  643   1.633   2.332   2.049 -0.4278 -0.3502  0.4092
  215SOL    HW1  644   1.733   2.351   2.052 -0.9523 -1.0024  0.8965
  215SOL    HW2  645   1.572   2.390   2.112 -0.1836  0.6707 -1.5521
  216SOL     OW  646   2.217   0.613   0.672  0.0301  0.9101 -0.6004
  216SOL    HW1  647   2.191   0.513   0.666  0.2824  0.2742  0.1273
  216SOL    HW2  648   2.253   0.655   0.584 -1.9343  0.2397  1.1613
  217SOL     OW  649   0.733   2.766   2.489  0.0420  0.0660  0.1871
  217SOL    HW1  650   0.673   2.685   2.517 -0.3323  0.2291 -0.5181
  217SOL    HW2  651   0.753   2.758   2.385  0.9737  0.7871 -0.3880
  218SOL     OW  652   1.933   1.457   0.077  0.1256  0.1935  0.1453
  218SOL    HW1  653   1.837   1.471   0.041  3.5698 -0.5445  0.8978
  218SOL    HW2  654   1.936   1.361   0.117 -0.6993  0.5805 -0.9223
  219SOL     OW  655   2.326   1.283   2.574  0.1847  0.0638 -0.4823
  219SOL    HW1  656   2.366   1.219   2.503 -0.3158  0.4146  0.4067
  219SOL    HW2  657   2.348   1.254   2.668  2.0948  0.9523  0.6111
  220SOL     OW  658   1.520   1.008   1.270 -0.5362  0.0267  0.9599
  220SOL    HW1  659   1.610   1.053   1.302  1.3652  0.6013  1.8588
  220SOL    HW2  660   1.485   1.067   1.189  1.8164  2.6274  0.8079
  221SOL     OW  661   1.363   1.070   2.181 -0.2365 -0.2781  0.1278
  221SOL    HW1  662   1.316   1.074   2.090 -0.0042 -0.5474  1.1688
  221SOL    HW2  663   1.464   1.036   2.169  0.5248 -0.5700 -0.1640
  222SOL     OW  664   1.205   0.030   1.177 -0.1727 -0.0085  0.2390
  222SOL    HW1  665   1.299   0.039   1.220 -1.1682  0.6691 -0.2163
  222SOL    HW2  666   1.179   0.113   1.123 -0.6782  0.7250  0.9686
  223SOL     OW  667   2.795   0.865   2.053 -0.5739 -0.1362 -0.5309
  223SOL    HW1  668   2.829   0.878   2.152  1.4638 -1.6777  1.2662
  223SOL    HW2  669   2.858   0.919   1.987  0.6288  0.5064 -1.0736
  224SOL     OW  670   1.530   0.998   2.747  0.5242  0.6589  0.0676
  224SOL    HW1  671   1.559   0.940   2.667 -1.4656  0.6791  1.3127
  224SOL    HW2  672   1.488   1.085   2.705  0.3386 -2.5419 -1.0452
  225SOL     OW  673   2.946   2.788   2.889 -0.3620  0.0373  0.7070
  225SOL    HW1  674   2.897   2.718   2.832 -0.1868  1.6877 -0.2300
  225SOL    HW2  675   2.989   2.853   2.823  0.0478 -0.3697 -1.7593
  226SOL     OW  676   2.410   1.587   2.841 -0.7254  0.1778  0.2976
  226SOL    HW1  677   2.459   1.567   2.752 -0.1467  0.2360 -0.4991
  226SOL    HW2  678   2.369   1.499   2.886 -1.8007 -0.7301 -0.6540
  227SOL     OW  679   0.835   0.147   3.029  0.2311  0.1388 -0.6353
  227SOL    HW1  680   0.880   0.063   3.055  0.3944  1.7077 -2.5355
  227SOL    HW2  681   0.831   0.156   2.930 -2.2820 -0.4217  2.8243
  228SOL     OW  682   2.401   0.619   2.869 -0.2682 -0.1906 -0.0429
  228SOL    HW1  683   2.357   0.631   2.780  1.3202 -0.2178  0.1787
  228SOL    HW2  684   2.485   0.556   2.860 -1.0915 -0.9490 -0.5031
  229SOL     OW  685   0.611   0.496   1.890  0.4837 -0.1082 -0.0761
  229SOL    HW1  686   0.650   0.406   1.860 -4.1881  0.5915  3.1429
  229SOL    HW2  687   0.645   0.581   1.844 -0.9273 -3.1159  2.5859
  230SOL     OW  688   1.921   1.192   2.128  0.2495  0.0016 -0.4944
  230SOL    HW1  689   1.992   1.238   2.074  2.3839 -1.0291  5.1325
  230SOL    HW2  690   1.825   1.224   2.114 -1.1824 -1.0005  0.5391
  231SOL     OW  691   0.627   0.982   2.951 -0.2746  0.3098  0.1966
  231SOL    HW1  692   0.712   1.042   2.939 -2.1298  0.1656  0.6991
  231SOL    HW2  693   0.564   1.025   3.020 -0.1076 -1.2647 -1.4086
  232SOL     OW  694   2.450   0.008   2.784  0.1144  0.2502  0.2152
  232SOL    HW1  695   2.464  -0.095   2.795 -1.7825 -0.9130  0.6077
  232SOL    HW2  696   2.498   0.042   2.701  0.0882 -1.1804  0.5835
  233SOL     OW  697   1.697   1.302   1.142  0.0011 -0.2038 -0.0875
  233SOL    HW1  698   1.721   1.303   1.046  2.1429  0.3498  1.5024
  233SOL    HW2  699   1.723   1.218   1.196 -0.5682 -2.3735 -0.3005
  234SOL     OW  700   1.591   2.589   1.849 -0.0023 -0.1065 -0.3833
  234SOL    HW1  701   1.588   2.684   1.889 -2.9369 -0.5128 -1.6117
  234SOL    HW2  702   1.531   2.521   1.901  0.0894  2.6031 -1.2908
  235SOL     OW  703   0.038   3.008   2.858  0.5315 -0.2221 -0.7288
  235SOL    HW1  704   0.123   3.067   2.834  1.1762  1.9147  1.5690
  235SOL    HW2  705  -0.026   3.067   2.916 -2.5975 -0.3663 -2.6208
  236SOL     OW  706   2.878   0.741   0.091  0.1889  0.5778 -0.7253
  236SOL    HW1  707   2.941   0.772   0.165  1.3506 -1.8872 -3.6798
  236SOL    HW2  708   2.912   0.652   0.053 -1.2363  2.5020  0.3751
  237SOL     OW  709   1.457   1.705   1.025  0.3788  0.1256 -1.0133
  237SOL    HW1  710   1.557   1.699   0.989  1.0701 -0.7170  0.7947
  237SOL    HW2  711   1.455   1.731   1.125  1.2496 -0.5535  0.8263
  238SOL     OW  712   1.784   1.279   0.843 -0.2499  0.1041  0.5400
  238SOL    HW1  713   1.868   1.338   0.818  1.4934  0.1563  0.9336
  238SOL    HW2  714   1.706   1.315   0.788 -1.7402 -1.2070  2.5943
  239SOL     OW  715   2.011   0.239   2.733  0.4412 -0.1191  0.7456
  239SOL    HW1  716   2.054   0.200   2.816 -1.4760 -1.5956  2.9016
  239SOL    HW2  717   1.941   0.311   2.758 -0.0335  1.5928  0.2478
  240SOL     OW  718   1.001   0.624   0.302 -0.2065  0.3659  0.0279
  240SOL    HW1  719   0.975   0.534   0.257  2.4305  2.7902  2.7649
  240SOL    HW2  720   0.969   0.635   0.403  3.8068 -3.0082  1.4107
  241SOL     OW  721   0.626   0.105   0.319  0.5160 -0.3660  0.8507
  241SOL    HW1  722   0.615   0.172   0.237 -0.0358  0.1691 -2.8052
  241SOL    HW2  723   0.598   0.014   0.292 -0.3687  1.0655 -0.2078
  242SOL     OW  724   0.700   2.478   1.129 -0.0558  0.6055 -0.0240
  242SOL    HW1  725   0.639   2.512   1.209  0.3085 -0.3078 -2.6151
  242SOL    HW2  726   0.781   2.538   1.107 -0.9399  0.3896 -1.6775
  243SOL     OW  727   1.130   0.596   2.470 -0.3236 -0.2028  0.8015
  243SOL    HW1  728   1.093   0.679   2.422 -0.3580 -2.6434  1.2398
  243SOL    HW2  729   1.055   0.539   2.501 -0.0554 -0.0278 -1.6971
  244SOL     OW  730   2.778   1.870   2.348  0.2180  0.9242  0.4955
  244SOL    HW1  731   2.835   1.838   2.268  0.7120  0.7989 -0.1694
  244SOL    HW2  732   2.704   1.801   2.383 -1.4504  0.9153 -1.0085
  245SOL     OW  733   2.466   0.664   2.194 -0.4665 -0.0853  0.1239
  245SOL    HW1  734   2.504   0.727   2.265 -0.3763 -2.7073 -0.6766
  245SOL    HW2  735   2.537   0.587   2.178  2.7833 -2.4571  2.2685
  246SOL     OW  736   0.228   2.936   1.653  0.0898  0.2759  0.0797
  246SOL    HW1  737   0.180   2.924   1.559 -0.2889 -1.3146  0.4856
  246SOL    HW2  738   0.303   3.009   1.654 -1.1487  0.4046  1.2054
  247SOL     OW  739   2.141   0.565   3.052 -0.1395 -0.2738 -0.1677
  247SOL    HW1  740   2.214   0.549   2.976 -1.9413  1.6314  1.4153
  247SOL    HW2  741   2.092   0.657   3.038  0.7128  0.5803  0.2166
  248SOL     OW  742   2.116   1.787   1.589 -0.3932 -0.0679 -0.2672
  248SOL    HW1  743   2.176   1.741   1.663  0.2956  0.1534  0.0150
  248SOL    HW2  744   2.013   1.785   1.603  1.5444  1.5960 -0.5798
  249SOL     OW  745   1.956   1.904   1.940  0.3827  0.0257  0.0667
  249SOL    HW1  746   1.941   1.870   1.839 -0.1935 -0.7304 -0.2997
  249SOL    HW2  747   2.036   1.970   1.950 -0.1001 -0.2251 -0.9952
  250SOL     OW  748   1.114   0.758   1.903 -0.2641  0.1232  0.5095
  250SOL    HW1  749   1.141   0.663   1.937  0.6461 -1.1254  2.1415
  250SOL    HW2  750   1.122   0.773   1.800 -2.1984 -0.1815 -1.2059
  251SOL     OW  751   3.072   1.568   2.533  0.4937  0.3049  0.3853
  251SOL    HW1  752   3.052   1.665   2.504  3.4345 -2.0703  0.0659
  251SOL    HW2  753   2.982   1.516   2.544  2.9815  0.7633 -1.8233
  252SOL     OW  754   1.575   0.913   1.540  0.3417 -0.0771  0.0726
  252SOL    HW1  755   1.546   0.941   1.443  1.6305  2.6011  4.0032
  252SOL    HW2  756   1.529   0.971   1.611  0.6977  0.6924 -0.3356
  253SOL     OW  757   0.879   1.532   0.406 -0.6289  0.0080  0.5312
  253SOL    HW1  758   0.920   1.438   0.410 -0.5868  0.9342 -0.7312
  253SOL    HW2  759   0.780   1.522   0.367  3.6533 -0.4225  0.4534
  254SOL     OW  760   2.077   2.115   1.566  0.7235  0.3906  0.5503
  254SOL    HW1  761   2.028   2.057   1.493  1.0648 -0.8642  2.0611
  254SOL    HW2  762   2.042   2.087   1.659 -0.8229 -0.1053 -0.7243
  255SOL     OW  763   0.097   1.175   2.939  0.1236  0.1011  0.2538
  255SOL    HW1  764   0.153   1.253   2.896 -1.3106 -0.1753  0.0846
  255SOL    HW2  765   0.157   1.097   2.971  0.7200 -2.3075  0.0113
  256SOL     OW  766   2.778   1.372   1.783 -0.7940  0.1610 -0.6633
  256SOL    HW1  767   2.702   1.419   1.835  0.3797 -0.5024 -1.5813
  256SOL    HW2  768   2.755   1.274   1.757 -0.0475  0.8196 -1.3423
  257SOL     OW  769   0.865   0.143   1.783 -0.0773  0.3204 -0.4119
  257SOL    HW1  770   0.924   0.224   1.764  0.9832  0.1058  2.5019
  257SOL    HW2  771   0.911   0.056   1.767 -2.7296  2.5278 -1.8600
  258SOL     OW  772   2.947   1.305   0.427 -0.0760 -0.1365  0.4635
  258SOL    HW1  773   2.880   1.373   0.383 -3.8443  0.5073  1.0554
  258SOL    HW2  774   2.978   1.321   0.526  0.3919 -2.8423 -1.9417
  259SOL     OW  775   0.505   2.944   3.026 -0.3039 -0.0391 -0.0063
  259SOL    HW1  776   0.431   2.883   3.068 -2.2549  1.4293  2.3727
  259SOL    HW2  777   0.503   2.939   2.920 -0.4269 -0.1275  2.5005
  260SOL     OW  778   2.705   0.824   2.713  0.0696  0.1487  0.9884
  260SOL    HW1  779   2.605   0.841   2.680  1.5441  0.9434  1.2423
  260SOL    HW2  780   2.755   0.902   2.762 -0.5947 -0.2088 -2.5016
  261SOL     OW  781   2.728   1.365   1.349  0.2552 -0.2277 -0.7283
  261SOL    HW1  782   2.653   1.316   1.299 -1.1811 -2.3104 -0.7926
  261SOL    HW2  783   2.803   1.299   1.380 -1.4404 -2.4593  0.7718
  262SOL     OW  784   1.453   2.990   1.990  0.0726  0.0342  0.1219
  262SOL    HW1  785   1.483   3.058   1.914  0.1173  1.2543  1.5322
  262SOL    HW2  786   1.362   2.943   1.971  0.5387  0.2798 -1.3486
  263SOL     OW  787   0.860   0.720   2.338 -0.6875 -0.4819  0.2009
  263SOL    HW1  788   0.839   0.622   2.312  0.2819  2.7931 -1.4024
  263SOL    HW2  789   0.889   0.773   2.255 -1.5416 -4.0018 -0.4850
  264SOL     OW  790   2.231   0.805   0.315  0.0032  0.4162 -0.7486
  264SOL    HW1  791   2.144   0.780   0.363 -1.1800 -0.7947  1.1928
  264SOL    HW2  792   2.314   0.831   0.369 -0.8289 -1.6584  2.7955
  265SOL     OW  793   0.916   2.278   2.651 -0.4195  0.0126  0.1424
  265SOL    HW1  794   0.972   2.343   2.717  2.1729 -0.6360 -0.1616
  265SOL    HW2  795   0.900   2.186   2.695  0.8653 -1.7745  1.1993
  266SOL     OW  796   1.353   1.743   3.073 -0.1835 -0.2597 -0.1298
  266SOL    HW1  797   1.358   1.812   3.150  0.1447  0.4364 -0.4998
  266SOL    HW2  798   1.451   1.708   3.044  1.9088  1.8273  1.9103
  267SOL     OW  799   0.988   3.066   2.372 -0.4210 -0.1741 -0.1996
  267SOL    HW1  800   0.980   3.038   2.273  1.3268 -1.0846  1.4805
  267SOL    HW2  801   0.994   3.169   2.379 -1.1856 -0.1629 -1.6752
  268SOL     OW  802   0.666   1.138   1.083  0.8529 -0.2253 -0.0740
  268SOL    HW1  803   0.673   1.195   1.168 -0.5303 -1.5302 -1.6507
  268SOL    HW2  804   0.684   1.193   0.997 -0.3475  2.1097 -2.3019
  269SOL     OW  805   2.419   2.467   1.546 -0.6678 -0.0897 -0.0395
  269SOL    HW1  806   2.519   2.437   1.557  0.3918  1.8950 -2.0939
  269SOL    HW2  807   2.371   2.488   1.637 -2.4838  0.9767 -0.3374
  270SOL     OW  808   0.132   3.063   1.904  0.0593 -0.5693  0.1878
  270SOL    HW1  809   0.177   3.037   1.814 -0.5586 -0.4124 -0.2892
  270SOL    HW2  810   0.064   2.990   1.934 -1.2299 -0.9210 -0.6237
  271SOL     OW  811   0.409   1.428   1.158  0.0644 -0.2573 -0.1609
  271SOL    HW1  812   0.376   1.414   1.057  0.0309  0.5169 -3.5497
  271SOL    HW2  813   0.334   1.410   1.232  0.1855 -0.0972  0.9522
  272SOL     OW  814   1.962   2.875   1.915  0.2065  0.3917  0.3279
  272SOL    HW1  815   1.926   2.802   1.849  2.5713  1.2884 -1.7786
  272SOL    HW2  816   2.007   2.956   1.868  0.3815  2.8476 -3.6398
  273SOL     OW  817   1.427   1.440   2.824  0.6417  0.1182 -0.5724
  273SOL    HW1  818   1.337   1.485   2.820  0.7686 -0.1536  0.3202
  273SOL    HW2  819   1.483   1.479   2.901  1.3471  1.0059  0.3601
  274SOL     OW  820   1.224   0.520   2.011  0.7642 -0.3149 -0.1289
  274SOL    HW1  821   1.197   0.423   1.998  1.1580 -0.4221 -2.1707
  274SOL    HW2  822   1.259   0.537   2.110 -0.6008  1.9067 -2.3171
  275SOL     OW  823   0.644   2.083   1.874  0.0131 -0.3589 -0.3602
  275SOL    HW1  824   0.605   2.174   1.917  1.4222  3.6185  0.4896
  275SOL    HW2  825   0.563   2.021   1.852  1.4296 -0.2790 -0.2887
  276SOL     OW  826   2.154   0.923   2.814 -0.2822  0.0866 -0.5967
  276SOL    HW1  827   2.076   0.959   2.753 -1.1832  0.0534  2.1398
  276SOL    HW2  828   2.121   0.864   2.891 -1.1257 -1.7072  0.3502
  277SOL     OW  829  -0.003   0.877   0.269  0.2734 -0.1348  0.5388
  277SOL    HW1  830   0.083   0.906   0.216  1.9204 -0.3640  0.2750
  277SOL    HW2  831   0.024   0.794   0.325 -1.5975 -0.7728  0.8606
  278SOL     OW  832   0.241   0.282   3.061  0.0483 -0.3253  0.2246
  278SOL    HW1  833   0.322   0.210   3.072  0.7195  1.1545 -0.8139
  278SOL    HW2  834   0.274   0.381   3.057  2.8422 -0.3401  1.0389
  279SOL     OW  835   0.135   0.080   0.875  0.8553  0.4957  0.5376
  279SOL    HW1  836   0.128   0.044   0.972 -3.4344  1.8979  0.4077
  279SOL    HW2  837   0.226   0.061   0.831  0.2652 -0.3569  1.5141
  280SOL     OW  838   1.595   2.884   2.554 -0.7143  0.7311 -0.2738
  280SOL    HW1  839   1.685   2.930   2.563 -2.3484 -0.5934 -1.0798
  280SOL    HW2  840   1.519   2.950   2.526  0.3549  0.5497  1.5749
  281SOL     OW  841   0.591   0.951   2.262  0.9078 -0.6889 -0.3447
  281SOL    HW1  842   0.622   0.863   2.220 -1.2500 -2.0483  0.8603
  281SOL    HW2  843   0.532   0.939   2.346 -0.5547  1.6271  0.2086
  282SOL     OW  844   1.759   2.402   0.506  0.1189  0.4255 -0.2030
  282SOL    HW1  845   1.728   2.326   0.439 -0.0922  0.3010  1.8621
  282SOL    HW2  846   1.727   2.502   0.489 -2.4707 -2.1221 -0.8774
  283SOL     OW  847   1.133   0.924   0.842 -0.1721 -0.1429  0.3113
  283SOL    HW1  848   1.177   0.858   0.911  0.3341  1.7918 -2.0287
  283SOL    HW2  849   1.055   0.978   0.882  1.1808  0.3062  0.3384
  284SOL     OW  850   2.351   2.774   2.332  0.1441 -0.1152  0.1948
  284SOL    HW1  851   2.414   2.858   2.317  1.2495 -3.7436 -0.8178
  284SOL    HW2  852   2.300   2.775   2.421 -0.6949 -0.2385  2.9603
  285SOL     OW  853   1.362   3.064   2.546 -0.2066 -0.1129 -0.0243
  285SOL    HW1  854   1.367   3.057   2.440  1.9658  2.0132  3.0770
  285SOL    HW2  855   1.261   3.055   2.575 -2.6785 -1.1434 -0.1735
  286SOL     OW  856   0.456   0.418   0.760  0.0517 -0.2644  0.5309
  286SOL    HW1  857   0.414   0.378   0.847 -2.5522  0.6794  1.7458
  286SOL    HW2  858   0.480   0.345   0.692  0.8826 -0.6013 -1.5820
  287SOL     OW  859   0.130   1.326   2.538 -0.0402  0.1133  0.0760
  287SOL    HW1  860   0.091   1.251   2.601 -1.9789  1.6900  1.3296
  287SOL    HW2  861   0.060   1.399   2.517 -2.9729 -0.4688 -1.4794
  288SOL     OW  862   1.547   2.674   1.597  0.1270 -0.0600  0.2810
  288SOL    HW1  863   1.575   2.626   1.690  2.4691 -1.1611  2.0491
  288SOL    HW2  864   1.569   2.618   1.514  0.8271  3.3816  3.1485
  289SOL     OW  865   0.614   2.714   0.821 -0.7148  0.6099  0.0670
  289SOL    HW1  866   0.683   2.774   0.773 -0.1868  1.3836 -2.6805
  289SOL    HW2  867   0.602   2.744   0.921  0.7677 -0.8307 -1.5441
  290SOL     OW  868   2.826   1.074   1.705 -0.2223  0.0623  0.1892
  290SOL    HW1  869   2.740   1.024   1.733  1.5324  0.5097  2.3318
  290SOL    HW2  870   2.908   1.046   1.766 -0.7710  0.0722  0.8690
  291SOL     OW  871   1.947   0.078   0.057  0.4591 -0.0128  0.3040
  291SOL    HW1  872   1.980   0.045   0.149 -0.9597 -0.6101 -2.6247
  291SOL    HW2  873   2.028   0.109  -0.001 -2.1448 -0.5088 -2.5718
  292SOL     OW  874   2.975   1.224   3.085  0.0618 -0.2832 -0.1774
  292SOL    HW1  875   2.900   1.276   3.042  1.7660  1.5434 -0.4723
  292SOL    HW2  876   3.065   1.217   3.032  2.5903 -1.6184  0.0963
  293SOL     OW  877   0.544   2.107   0.160 -0.3083  0.9518  0.2715
  293SOL    HW1  878   0.544   2.183   0.230  3.2036 -1.6273 -0.6908
  293SOL    HW2  879   0.646   2.075   0.139 -0.3583 -1.6862 -0.3555
  294SOL     OW  880   1.744   2.232   1.766  0.4444  0.7162 -0.3390
  294SOL    HW1  881   1.746   2.308   1.836  0.5718 -0.7772  1.9183
  294SOL    HW2  882   1.733   2.262   1.671  2.1403 -1.5078 -0.9784
  295SOL     OW  883   1.054   1.028   0.519 -0.7090  0.3835 -0.1568
  295SOL    HW1  884   1.128   1.053   0.590  1.6042  1.2974  1.1088
  295SOL    HW2  885   0.963   0.989   0.559 -0.3375  1.9905 -0.8694
  296SOL     OW  886   1.265   2.083   2.520  0.1519  0.8147  0.3461
  296SOL    HW1  887   1.292   2.099   2.418 -0.7279  1.1913 -1.2688
  296SOL    HW2  888   1.273   1.985   2.551  0.1039 -0.8633  0.4495
  297SOL     OW  889   1.455   0.611   1.393  0.1637 -0.1712 -0.0552
  297SOL    HW1  890   1.429   0.508   1.386 -0.9239 -1.4640 -0.2545
  297SOL    HW2  891   1.538   0.621   1.453 -0.6299  2.1835 -1.2513
  298SOL     OW  892   0.514   1.341   2.947  0.0351 -0.2452  0.0622
  298SOL    HW1  893   0.485   1.267   3.010 -3.3560  2.2573  0.1309
  298SOL    HW2  894   0.563   1.299   2.862 -1.4494  2.5357 -0.3971
  299SOL     OW  895   0.493   0.274   1.352  0.0434 -0.8246  0.3862
  299SOL    HW1  896   0.476   0.366   1.312  6.5406  1.4770 -0.3103
  299SOL    HW2  897   0.580   0.279   1.409  0.3576 -1.6747  1.6598
  300SOL     OW  898   1.213   1.829   2.860  0.6640  0.2887 -0.2259
  300SOL    HW1  899   1.176   1.729   2.834 -2.6756  0.3075  2.4603
  300SOL    HW2  900   1.263   1.820   2.953 -1.9288  0.9939  0.9020
  301SOL     OW  901   0.477   0.266   0.516  0.0539 -0.2042 -0.0293
  301SOL    HW1  902   0.372   0.280   0.515 -1.1648 -0.5462  2.4984
  301SOL    HW2  903   0.527   0.225   0.434  0.1074  0.8592 -0.9482
  302SOL     OW  904   1.213   2.412   2.285  0.5337  0.3681  0.4280
  302SOL    HW1  905   1.138   2.439   2.348  3.8502 -4.1286  0.8560
  302SOL    HW2  906   1.211   2.309   2.257  0.3795 -1.0311 -1.7019
  303SOL     OW  907   0.977   2.339   0.825 -0.2261  0.1918  0.4032
  303SOL    HW1  908   1.045   2.382   0.761  0.7189 -0.7720  2.4525
  303SOL    HW2  909   0.957   2.406   0.901  2.8834  0.2326 -0.4732
  304SOL     OW  910   0.151   2.040   0.623  0.2156 -0.1259  0.8192
  304SOL    HW1  911   0.161   1.993   0.529 -1.2478 -0.1448 -1.5575
  304SOL    HW2  912   0.097   2.130   0.606 -2.3252 -1.2710  0.7108
  305SOL     OW  913   1.605   0.941   0.584  0.6391  0.1253 -0.4504
  305SOL    HW1  914   1.550   0.934   0.496  0.6249 -2.9527  1.0861
  305SOL    HW2  915   1.662   0.852   0.597 -2.0738 -0.8151  0.1168
  306SOL     OW  916   0.431   1.869   1.902  0.0485  0.2968  0.7695
  306SOL    HW1  917   0.514   1.810   1.878 -1.5852  0.4509 -0.7081
  306SOL    HW2  918   0.409   1.866   2.003  0.8847  0.0902 -2.5390
  307SOL     OW  919   3.058   0.892   2.525  0.3305  0.4038 -0.4360
  307SOL    HW1  920   3.085   0.982   2.570 -0.9632  1.5534  2.9096
  307SOL    HW2  921   3.024   0.822   2.592  0.0304  3.4048  1.9324
  308SOL     OW  922   1.540   2.679   2.868  0.5589 -0.1118 -0.5187
  308SOL    HW1  923   1.561   2.625   2.779 -0.7514 -0.0630  0.3424
  308SOL    HW2  924   1.470   2.630   2.928 -0.4371 -2.1784  2.8549
  309SOL     OW  925   1.230   0.072   1.773 -0.3754 -0.2759 -0.1622
  309SOL    HW1  926   1.336   0.068   1.777  1.7226 -0.0523 -1.8548
  309SOL    HW2  927   1.204   0.103   1.676 -1.5430  0.8505 -1.1499
  310SOL     OW  928   1.499   2.555   0.687 -0.0045  0.0718 -0.1416
  310SOL    HW1  929   1.472   2.624   0.763  0.3754  1.4087 -0.2856
  310SOL    HW2  930   1.550   2.600   0.606  1.7217  0.7858 -1.0183
  311SOL     OW  931   1.182   0.942   1.581 -0.6654  0.1728 -0.1055
  311SOL    HW1  932   1.237   0.850   1.580 -0.5485  1.3285  1.2002
  311SOL    HW2  933   1.239   1.017   1.539  0.1920 -1.1595 -0.2787
  312SOL     OW  934   1.618   0.660   0.979  0.2787  0.1583 -0.1046
  312SOL    HW1  935   1.595   0.760   0.952 -0.7721  1.1080 -0.1518
  312SOL    HW2  936   1.554   0.589   0.935 -1.5499 -1.0804 -0.0759
  313SOL     OW  937   1.595   1.402   0.696  0.3372 -0.1054 -0.1451
  313SOL    HW1  938   1.522   1.440   0.763 -0.7382 -1.6577 -1.2431
  313SOL    HW2  939   1.559   1.323   0.642  0.5152  0.8136  2.1927
  314SOL     OW  940   2.995   0.030   3.070 -0.5548 -0.1986 -0.9662
  314SOL    HW1  941   2.992   0.085   3.159  1.4416  0.8939 -0.2788
  314SOL    HW2  942   2.903  -0.011   3.043 -2.0183 -2.5983  0.7837
  315SOL     OW  943   1.212   0.200   2.805 -0.4825 -0.4142 -0.4245
  315SOL    HW1  944   1.225   0.136   2.721  0.6320  0.6367  1.5034
  315SOL    HW2  945   1.241   0.161   2.897  2.6543  1.5914  1.6713
  316SOL     OW  946   1.708   2.087   0.896 -0.0605 -0.1168 -0.8817
  316SOL    HW1  947   1.642   2.073   0.974  1.1764  1.0364 -1.7098
  316SOL    HW2  948   1.705   2.182   0.858  1.1825  1.6819  0.8859
  317SOL     OW  949   1.129   0.704   2.876  0.1786 -0.4507  0.3535
  317SOL    HW1  950   1.062   0.736   2.945  0.4311  0.7891 -0.0925
  317SOL    HW2  951   1.092   0.614   2.836 -0.6287 -0.3491 -0.8915
  318SOL     OW  952   1.322   3.056   2.242 -0.1898  0.1011  0.1240
  318SOL    HW1  953   1.326   3.160   2.236  0.8295 -2.6319  2.8387
  318SOL    HW2  954   1.365   3.016   2.160 -0.2812  3.7223  1.4813
  319SOL     OW  955   0.644   2.451   2.938  0.1478 -0.1923  0.3990
  319SOL    HW1  956   0.592   2.415   3.019 -0.0257  0.7550  0.3748
  319SOL    HW2  957   0.746   2.464   2.957 -0.4622  1.4330 -0.7141
  320SOL     OW  958   1.687   2.197   0.332  0.4394  0.3136  0.6497
  320SOL    HW1  959   1.776   2.151   0.319 -0.6756  3.7602  2.5801
  320SOL    HW2  960   1.609   2.130   0.366  0.6575 -0.0601  1.8563
  321SOL     OW  961   1.674   2.671   0.486  0.0113 -0.0043  0.2845
  321SOL    HW1  962   1.599   2.725   0.436 -0.3707  0.8072 -3.2291
  321SOL    HW2  963   1.764   2.723   0.478  0.5648  1.7677 -0.7130
  322SOL     OW  964   2.535   1.134   2.339  0.3015 -0.2831  1.0216
  322SOL    HW1  965   2.619   1.159   2.398  1.8272  0.0607 -0.9176
  322SOL    HW2  966   2.545   1.034   2.305 -2.5604 -2.5394  3.6262
  323SOL     OW  967   1.101   2.636   0.828  1.0961  0.2897  0.3203
  323SOL    HW1  968   1.104   2.592   0.735  1.6266 -0.2298 -0.6677
  323SOL    HW2  969   1.099   2.740   0.827  0.9465  0.0825 -0.4225
  324SOL     OW  970   0.254   2.541   2.517  0.2543 -0.1001  0.2357
  324SOL    HW1  971   0.219   2.484   2.594 -1.8227  0.8655  0.0186
  324SOL    HW2  972   0.191   2.614   2.488 -0.4687  0.9081  1.0875
  325SOL     OW  973   1.239   3.033   0.466 -0.2972 -0.1211  0.1463
  325SOL    HW1  974   1.247   3.057   0.365  1.2787 -0.7863  0.1227
  325SOL    HW2  975   1.272   3.110   0.531  2.2765  0.8672 -0.2649
  326SOL     OW  976   2.440   0.783   3.073 -0.3438 -0.2453  0.0641
  326SOL    HW1  977   2.420   0.725   2.988  2.0536 -0.2208 -0.3618
  326SOL    HW2  978   2.456   0.726   3.159  1.0234 -0.4342  0.7325
  327SOL     OW  979   2.854   0.349   0.568  0.2112  0.4915  0.4030
  327SOL    HW1  980   2.827   0.364   0.470  0.4427  0.3155  2.2741
  327SOL    HW2  981   2.806   0.266   0.607  0.8800 -0.9445  1.3893
  328SOL     OW  982   2.525   0.595   0.387  0.3626 -0.3278 -0.0026
  328SOL    HW1  983   2.475   0.680   0.418  1.2454 -0.1360 -3.0887
  328SOL    HW2  984   2.513   0.527   0.465 -0.8581 -1.0163  0.4707
  329SOL     OW  985   2.975   2.998   2.128  0.0644 -0.4092  0.0215
  329SOL    HW1  986   3.005   2.919   2.186 -1.1663  0.9375  1.1912
  329SOL    HW2  987   2.973   3.084   2.182 -0.8038 -0.0332 -0.6162
  330SOL     OW  988   0.585   0.150   1.844  0.1609 -0.2753  0.2167
  330SOL    HW1  989   0.679   0.147   1.801  0.7874  0.8896  1.0855
  330SOL    HW2  990   0.568   0.091   1.927 -3.1233  0.3137  0.1303
  331SOL     OW  991   2.960   1.918   1.141 -0.0999 -0.1829  0.7440
  331SOL    HW1  992   2.978   1.999   1.075 -0.2369  0.3629  0.5476
  331SOL    HW2  993   2.913   1.948   1.228 -0.8034  3.1094  0.3704
  332SOL     OW  994   0.449   1.140   0.009  0.0828  0.0376 -0.8149
  332SOL    HW1  995   0.378   1.069  -0.020  0.9085 -0.3832  1.6352
  332SOL    HW2  996   0.415   1.190   0.093  0.5771 -1.4555  0.6554
  333SOL     OW  997   2.870   1.060   0.286  0.6528  0.5030 -0.3794
  333SOL    HW1  998   2.920   1.136   0.334  1.2978 -0.3972 -0.2593
  333SOL    HW2  999   2.936   0.985   0.252 -1.8023  0.3447 -0.4295
  334SOL     OW 1000   1.698   1.246   1.837 -0.1502  0.4205  0.1185
  334SOL    HW1 1001   1.781   1.185   1.820  1.1158  1.5507 -0.3236
  334SOL    HW2 1002   1.715   1.301   1.920  1.8216  0.8933 -3.5966
  335SOL     OW 1003   1.947   2.760   2.612 -0.4315  0.2491 -0.4400
  335SOL    HW1 1004   1.865   2.704   2.647 -1.9780  0.3750  1.4114
  335SOL    HW2 1005   2.000   2.811   2.689  1.5949  2.1063  0.2794
  336SOL     OW 1006   0.249   0.089   2.844  0.2449  0.3945 -0.4632
  336SOL    HW1 1007   0.336   0.049   2.892  0.9994 -0.8092  0.9130
  336SOL    HW2 1008   0.251   0.194   2.844  1.2899 -0.2733 -0.9857
  337SOL     OW 1009   0.927   2.786   2.813  0.3702 -0.3093  0.1223
  337SOL    HW1 1010   0.904   2.762   2.913  0.1744 -0.0623 -0.9860
  337SOL    HW2 1011   1.021   2.750   2.790 -1.0963 -1.3908  2.8766
  338SOL     OW 1012   0.024   1.026   0.664  0.5915 -0.1540 -0.7323
  338SOL    HW1 1013  -0.074   0.995   0.682 -1.9485 -0.7861  1.2806
  338SOL    HW2 1014   0.025   1.131   0.681  0.3783  1.4811  1.9144
  339SOL     OW 1015   1.720   1.359   2.089 -0.0218  0.0825 -0.1557
  339SOL    HW1 1016   1.619   1.351   2.111 -1.7109 -2.3819 -1.2333
  339SOL    HW2 1017   1.759   1.454   2.100 -0.5343 -1.1288 -0.7761
  340SOL     OW 1018   2.353   0.704   1.203 -0.1938 -0.0090  0.2442
  340SOL    HW1 1019   2.257   0.742   1.173 -0.9614  0.2527  0.0016
  340SOL    HW2 1020   2.379   0.623   1.143 -1.1319  0.8305 -1.8046
  341SOL     OW 1021   1.961   2.102   0.336  0.3241 -0.4740  0.8003
  341SOL    HW1 1022   1.967   2.167   0.255 -0.3411 -0.8576 -0.1703
  341SOL    HW2 1023   2.061   2.084   0.373  2.2245 -0.5404 -0.1742
  342SOL     OW 1024   2.208   2.090   2.733  0.1720  0.0923 -0.4316
  342SOL    HW1 1025   2.256   1.995   2.734  0.5888 -1.1335  1.4916
  342SOL    HW2 1026   2.105   2.080   2.728  1.3483  1.0690  0.6526
  343SOL     OW 1027   0.412   0.848   2.766  0.0152  1.1098  0.4969
  343SOL    HW1 1028   0.427   0.914   2.686  2.2371 -0.8626 -1.2506
  343SOL    HW2 1029   0.491   0.775   2.772  2.7385 -2.0519  0.0793
  344SOL     OW 1030   1.954   1.390   0.406  0.1075 -0.2773 -0.9190
  344SOL    HW1 1031   1.926   1.319   0.336  1.4170  0.1783 -0.2696
  344SOL    HW2 1032   1.869   1.444   0.441  1.0880  1.7359 -0.0636
  345SOL     OW 1033   1.412   2.276   2.859  0.4566  0.1902 -0.2737
  345SOL    HW1 1034   1.328   2.224   2.834 -0.2917 -0.5015 -0.2612
  345SOL    HW2 1035   1.496   2.222   2.833  1.5298  0.8169  0.9802
  346SOL     OW 1036   2.347   0.914   1.407  0.4261  0.3449 -0.7442
  346SOL    HW1 1037   2.324   1.013   1.404 -1.9087 -0.9452  3.3911
  346SOL    HW2 1038   2.325   0.865   1.319 -0.0507  0.1709 -0.5494
  347SOL     OW 1039   0.717   2.783   1.452  0.0689 -0.1477 -0.0918
  347SOL    HW1 1040   0.692   2.713   1.526  0.7206 -0.8409 -0.2374
  347SOL    HW2 1041   0.663   2.874   1.462  1.0371  3.6110  0.0819
  348SOL     OW 1042   0.152   0.664   2.831 -0.2312 -0.5317  0.4962
  348SOL    HW1 1043   0.060   0.690   2.797  0.3741 -0.7755  2.3556
  348SOL    HW2 1044   0.228   0.709   2.779  4.2443  2.6235 -0.3491
  349SOL     OW 1045   1.822   0.410   2.806  0.1866  0.1383 -0.1837
  349SOL    HW1 1046   1.807   0.491   2.745  2.9977 -0.6274  0.6411
  349SOL    HW2 1047   1.814   0.427   2.911  1.1194  4.0715 -0.3661
  350SOL     OW 1048   1.545   0.450   0.376  0.5917 -0.0898 -0.0467
  350SOL    HW1 1049   1.595   0.471   0.461  1.7054 -2.8476 -0.6448
  350SOL    HW2 1050   1.513   0.534   0.327 -1.2027 -1.9214 -0.4963
  351SOL     OW 1051   0.972   0.847   2.117  0.6456  0.0506  0.0457
  351SOL    HW1 1052   0.949   0.947   2.088  1.8908  1.6553 -1.1684
  351SOL    HW2 1053   1.025   0.807   2.037 -1.0665  2.2451 -1.5919
  352SOL     OW 1054   2.037   1.283   0.677  0.7034  0.2372 -0.5437
  352SOL    HW1 1055   2.032   1.341   0.590  0.9503 -1.2323 -0.2255
  352SOL    HW2 1056   2.129   1.255   0.699 -3.0821 -0.2741 -1.4380
  353SOL     OW 1057   2.192   2.896   1.080 -0.0803 -0.2098  0.0300
  353SOL    HW1 1058   2.228   2.812   1.140  3.6549 -1.0372 -0.8555
  353SOL    HW2 1059   2.092   2.881   1.046 -0.7398 -2.4920  2.4459
  354SOL     OW 1060   0.234   1.393   2.849  0.1429 -0.1146 -0.3861
  354SOL    HW1 1061   0.226   1.461   2.771 -0.6230 -0.5850 -0.7215
  354SOL    HW2 1062   0.324   1.351   2.844 -1.0811  1.1786  0.1932
  355SOL     OW 1063   0.494   1.497   0.495  0.2290 -0.8413  0.2407
  355SOL    HW1 1064   0.523   1.596   0.512 -0.8429 -0.8306  0.2823
  355SOL    HW2 1065   0.561   1.424   0.525 -0.4449 -0.5827  1.3834
  356SOL     OW 1066   0.924   0.262   2.079 -0.8883 -0.4867 -0.2858
  356SOL    HW1 1067   1.031   0.260   2.070  0.9983  1.2880  3.6932
  356SOL    HW2 1068   0.878   0.238   1.993 -0.8225  0.9073  1.5150
  357SOL     OW 1069   0.989   1.280   0.401 -0.1169 -0.8956 -0.1901
  357SOL    HW1 1070   0.978   1.256   0.300  0.7339  0.6879 -1.0761
  357SOL    HW2 1071   1.010   1.200   0.465 -2.0095 -0.0811  0.9733
  358SOL     OW 1072   1.711   1.503   0.464 -0.2857  0.1772  0.2735
  358SOL    HW1 1073   1.680   1.461   0.556  2.1892  0.5191  1.6778
  358SOL    HW2 1074   1.645   1.481   0.386  0.1074 -0.7563  0.9182
  359SOL     OW 1075   1.584   2.749   0.082  0.1981 -0.3328  0.5303
  359SOL    HW1 1076   1.552   2.674   0.016 -0.5821  1.2399  0.7362
  359SOL    HW2 1077   1.543   2.839   0.063  0.0761  0.1374 -0.3993
  360SOL     OW 1078   0.863   0.611   0.566  0.4219 -0.0996  0.0997
  360SOL    HW1 1079   0.804   0.615   0.648  0.1681 -0.4481  0.5355
  360SOL    HW2 1080   0.876   0.511   0.540  2.0482 -1.3636  0.0454
  361SOL     OW 1081   1.195   1.372   0.705 -0.1173 -0.0477  0.4173
  361SOL    HW1 1082   1.235   1.442   0.776  1.9497  3.5042 -1.0832
  361SOL    HW2 1083   1.104   1.404   0.670  0.8501 -1.8362  1.6879
  362SOL     OW 1084   1.333   1.834   0.801  0.1306  0.7697  0.1743
  362SOL    HW1 1085   1.346   1.800   0.895 -0.1672  0.8815 -0.1115
  362SOL    HW2 1086   1.423   1.840   0.747 -0.0902  0.2921 -0.0152
  363SOL     OW 1087   1.211   1.288   2.012  0.1307  0.6472  0.0606
  363SOL    HW1 1088   1.294   1.285   2.076  0.0486 -0.8769  1.1623
  363SOL    HW2 1089   1.222   1.362   1.939  2.8353  0.2890  1.9298
  364SOL     OW 1090   0.507   2.318   1.944 -0.5622 -0.4231  0.3440
  364SOL    HW1 1091   0.410   2.348   1.965  0.9704 -0.5233 -0.9652
  364SOL    HW2 1092   0.549   2.365   1.864  1.0889 -1.0305  0.9496
  365SOL     OW 1093   1.025   1.856   1.418 -0.1668  0.1101  0.6382
  365SOL    HW1 1094   0.933   1.896   1.434 -0.2910 -0.5088 -0.2157
  365SOL    HW2 1095   1.029   1.808   1.326 -1.0480 -2.7091  0.6691
  366SOL     OW 1096   2.772   2.067   0.477 -0.6206 -0.3352  0.0475
  366SOL    HW1 1097   2.677   2.016   0.471 -1.2382  0.6238  0.9724
  366SOL    HW2 1098   2.847   2.010   0.439 -1.2625  0.9035 -2.2004
  367SOL     OW 1099   0.903   1.137   0.180  0.1842  0.0496  0.3184
  367SOL    HW1 1100   0.872   1.041   0.208  6.2303 -1.1840  0.5796
  367SOL    HW2 1101   0.972   1.139   0.105  1.3976  1.0929  2.0662
  368SOL     OW 1102   1.491   0.571   0.699 -0.2294 -0.0356 -0.2642
  368SOL    HW1 1103   1.418   0.601   0.632  2.3873  0.5336  1.5534
  368SOL    HW2 1104   1.557   0.646   0.711 -0.2147  0.6220 -2.1798
  369SOL     OW 1105   0.209   1.725   0.051 -0.3844 -0.1614 -0.0560
  369SOL    HW1 1106   0.236   1.797   0.119 -0.6664  0.1929 -1.6258
  369SOL    HW2 1107   0.127   1.665   0.082 -1.7931 -0.8053 -0.4385
  370SOL     OW 1108   0.450   2.083   1.043 -0.3112 -0.2383 -0.0985
  370SOL    HW1 1109   0.470   2.183   1.031 -0.7594 -1.6082 -2.8230
  370SOL    HW2 1110   0.349   2.065   1.015 -0.5140 -0.0397 -0.2497
  371SOL     OW 1111   2.870   2.193   2.706  0.1408 -0.4952 -0.0419
  371SOL    HW1 1112   2.837   2.135   2.790 -0.2512  0.2094 -0.9570
  371SOL    HW2 1113   2.961   2.243   2.719  1.4589  1.2760 -1.0297
  372SOL     OW 1114   1.082   1.981   1.097 -0.1306  0.7347  0.2003
  372SOL    HW1 1115   0.994   2.032   1.079  3.7761  0.5513 -0.1212
  372SOL    HW2 1116   1.162   2.038   1.072  0.5070 -1.9424  3.7918
  373SOL     OW 1117   1.982   2.018   0.876  0.4170  0.6321 -0.8866
  373SOL    HW1 1118   2.050   2.018   0.957  3.3893  0.8597 -2.2145
  373SOL    HW2 1119   1.881   2.042   0.901 -0.1116 -0.0880  1.1920
  374SOL     OW 1120   1.771   0.473   0.570 -0.7834 -0.1994  0.3818
  374SOL    HW1 1121   1.810   0.441   0.664  1.0874  1.4254  0.3856
  374SOL    HW2 1122   1.850   0.489   0.506  3.8449  2.6947 -1.7272
  375SOL     OW 1123   2.386   2.177   1.118  0.1747 -0.0984 -0.1998
  375SOL    HW1 1124   2.469   2.173   1.057  0.6550  0.0347  0.1041
  375SOL    HW2 1125   2.411   2.176   1.223  3.1045 -0.4051  0.0626
  376SOL     OW 1126   3.014   0.588   1.435  0.3708  0.0561  0.2479
  376SOL    HW1 1127   3.077   0.658   1.477 -2.7806  1.2989  0.9904
  376SOL    HW2 1128   2.921   0.586   1.479  1.3843 -1.5474  0.5713
  377SOL     OW 1129   2.235   2.858   0.342  0.5853  0.7393  0.0193
  377SOL    HW1 1130   2.234   2.962   0.334  2.3787  0.0392  0.0139
  377SOL    HW2 1131   2.329   2.818   0.362  1.8719  2.2953  5.5867
  378SOL     OW 1132   1.810   1.794   2.680  0.7533  0.1247  0.0172
  378SOL    HW1 1133   1.724   1.771   2.626 -0.2255 -0.6905 -4.1048
  378SOL    HW2 1134   1.852   1.711   2.723  0.7142 -0.4250  2.7632
  379SOL     OW 1135   0.886   0.129   2.733 -0.0450  0.2086  0.3683
  379SOL    HW1 1136   0.839   0.054   2.674 -0.1933 -1.1780  2.0061
  379SOL    HW2 1137   0.901   0.216   2.682 -0.4334 -3.4019 -0.1764
  380SOL     OW 1138   1.503   1.175   0.549  0.1684 -0.0723  0.3996
  380SOL    HW1 1139   1.406   1.185   0.585 -3.6999  0.6155  2.3415
  380SOL    HW2 1140   1.543   1.082   0.569  0.6889  0.0937  1.1695
  381SOL     OW 1141   1.334   1.140   1.496  0.1189 -0.0368 -1.2045
  381SOL    HW1 1142   1.384   1.200   1.428 -0.0466  1.9952  1.5374
  381SOL    HW2 1143   1.379   1.142   1.586 -1.7262  0.1479  0.1370
  382SOL     OW 1144   1.814   0.832   0.206  0.0908  0.3913 -0.2536
  382SOL    HW1 1145   1.849   0.826   0.109  0.1560 -0.0456  1.6975
  382SOL    HW2 1146   1.854   0.772   0.277 -1.9373  1.6386 -0.6786
  383SOL     OW 1147   2.619   1.008   1.494  0.6404  0.8329 -0.0623
  383SOL    HW1 1148   2.574   0.976   1.410  2.2397 -0.5576 -1.1884
  383SOL    HW2 1149   2.723   1.004   1.482 -0.6239  1.0120  1.9042
  384SOL     OW 1150   0.920   2.266   0.119  0.4544  0.1667  0.3310
  384SOL    HW1 1151   0.878   2.351   0.169 -1.0432 -0.6560  0.0860
  384SOL    HW2 1152   0.888   2.178   0.161 -1.7951  1.4042  1.1103
  385SOL     OW 1153   2.993   2.012   1.773  0.5796  0.6029 -0.3559
  385SOL    HW1 1154   3.059   2.092   1.752 -0.0851  1.7074 -0.0230
  385SOL    HW2 1155   3.016   1.912   1.753 -2.3292 -1.7827 -1.3619
  386SOL     OW 1156   0.455   1.141   0.471  0.0693  0.2464 -0.5391
  386SOL    HW1 1157   0.467   1.040   0.495 -3.7065 -3.1439  0.9961
  386SOL    HW2 1158   0.393   1.161   0.389  2.2646 -0.1681 -0.6889
  387SOL     OW 1159   0.998   0.357   1.682  0.0918 -0.1985 -0.0554
  387SOL    HW1 1160   1.064   0.432   1.680 -1.4248  0.5446  0.1698
  387SOL    HW2 1161   0.957   0.338   1.586 -1.3528  1.1898 -3.7978
  388SOL     OW 1162   1.224   2.628   1.790 -0.3846  0.3565 -0.4928
  388SOL    HW1 1163   1.245   2.608   1.691  1.9524 -1.0376  3.0610
  388SOL    HW2 1164   1.290   2.580   1.860  1.9672  0.1215 -1.5100
  389SOL     OW 1165   0.194   3.072   1.134  0.1998 -0.3675 -0.1324
  389SOL    HW1 1166   0.131   3.099   1.213 -0.6562 -1.5764 -3.7553
  389SOL    HW2 1167   0.255   2.992   1.161 -0.9670 -1.8814 -0.9937
  390SOL     OW 1168   1.050   0.922   1.222 -0.0879 -0.0893  0.0260
  390SOL    HW1 1169   1.137   0.894   1.269 -0.4988  2.8070  1.1485
  390SOL    HW2 1170   0.996   0.996   1.275 -0.0733  0.8920  0.7915
  391SOL     OW 1171   2.030   1.169   1.010 -0.1400  0.0435 -0.1279
  391SOL    HW1 1172   1.954   1.117   1.058  2.2437  0.6495 -1.8431
  391SOL    HW2 1173   2.097   1.112   0.953  0.1872 -4.4692 -1.5931
  392SOL     OW 1174   0.927   2.650   3.039 -0.6625  0.0031  0.3394
  392SOL    HW1 1175   0.862   2.610   3.113 -1.1750 -2.9091  2.2011
  392SOL    HW2 1176   1.022   2.677   3.079 -0.0780  1.2159 -0.3781
  393SOL     OW 1177   0.410   0.489   2.098  0.6435 -0.1331  0.0468
  393SOL    HW1 1178   0.312   0.467   2.070  1.9869  0.2423 -3.7824
  393SOL    HW2 1179   0.474   0.483   2.017 -1.7180  1.6229 -0.5741
  394SOL     OW 1180   2.960   1.825   2.783  0.9872 -0.3701 -0.3156
  394SOL    HW1 1181   3.051   1.808   2.833  0.4113 -1.0349 -1.7129
  394SOL    HW2 1182   2.968   1.818   2.681 -2.0806  1.7772 -1.8256
  395SOL     OW 1183   1.581   1.904   0.682 -0.0749  0.0593 -0.2622
  395SOL    HW1 1184   1.655   1.854   0.631 -0.2728  1.6948 -1.3509
  395SOL    HW2 1185   1.605   1.973   0.755 -1.4788  1.9812 -0.2789
  396SOL     OW 1186   2.762   2.007   1.341  0.2554 -0.8736  0.1922
  396SOL    HW1 1187   2.775   2.016   1.445  0.8379 -0.4251  0.0281
  396SOL    HW2 1188   2.663   1.993   1.319 -1.9802 -0.8165  1.7095
  397SOL     OW 1189   1.023   2.101   0.633 -0.0825 -0.3102 -0.1307
  397SOL    HW1 1190   0.948   2.087   0.559  1.6511 -0.2943 -0.3341
  397SOL    HW2 1191   0.996   2.158   0.714  1.6828  1.4885  1.6818
  398SOL     OW 1192   2.249   0.062   1.032  0.4522 -0.1234  0.1025
  398SOL    HW1 1193   2.228  -0.036   1.045 -1.9936 -1.1639 -0.1412
  398SOL    HW2 1194   2.170   0.128   1.061  1.4165  0.1756  0.8912
  399SOL     OW 1195   2.863   2.578   2.730 -0.2653  0.0987  0.6753
  399SOL    HW1 1196   2.834   2.521   2.643 -1.8177 -2.1321 -0.8456
  399SOL    HW2 1197   2.841   2.531   2.820  1.5888  0.4316 -0.8849
  400SOL     OW 1198   0.777   1.600   1.264 -0.6253 -0.2329  0.0094
  400SOL    HW1 1199   0.733   1.636   1.351  0.1374  0.4893 -1.2609
  400SOL    HW2 1200   0.778   1.663   1.184 -0.6930  1.5908  0.5812
  401SOL     OW 1201   1.830   0.158   1.289  0.3007  0.3782  0.1517
  401SOL    HW1 1202   1.893   0.191   1.368  0.4851  0.8944  2.6638
  401SOL    HW2 1203   1.745   0.211   1.282  1.7736  0.9121  2.4572
  402SOL     OW 1204   1.341   0.169   3.070 -0.0087  0.0184  0.4493
  402SOL    HW1 1205   1.422   0.150   3.003  0.8345  0.0535 -0.8027
  402SOL    HW2 1206   1.324   0.272   3.090 -2.3634 -1.8370 -1.8736
  403SOL     OW 1207   2.302   1.849   0.913  0.0807  0.0716 -0.1416
  403SOL    HW1 1208   2.384   1.801   0.950 -2.4905  0.8691  0.4638
  403SOL    HW2 1209   2.243   1.888   0.990 -0.6709  1.1514  1.0632
  404SOL     OW 1210   0.177   2.500   2.857  0.5959 -0.2107  0.3751
  404SOL    HW1 1211   0.269   2.469   2.839 -1.7127  0.4405 -1.0981
  404SOL    HW2 1212   0.171   2.601   2.878 -1.2148 -0.4219 -0.6154
  405SOL     OW 1213   0.247   2.514   0.563  0.1314 -0.1672  0.3119
  405SOL    HW1 1214   0.176   2.517   0.487 -0.2801 -0.2752  1.9571
  405SOL    HW2 1215   0.314   2.594   0.577 -0.2538 -1.4380  2.4614
  406SOL     OW 1216   0.015   1.506   3.012  0.3871 -0.3740  0.1315
  406SOL    HW1 1217   0.087   1.448   2.968  0.0254  0.8142  0.2020
  406SOL    HW2 1218   0.006   1.499   3.121 -1.8323 -0.1418 -0.5025
  407SOL     OW 1219   1.531   0.924   0.899  0.2960  0.0354 -0.4999
  407SOL    HW1 1220   1.569   0.956   0.810  2.7935 -0.5207  1.1897
  407SOL    HW2 1221   1.480   0.994   0.958 -0.4167  0.7845  1.4275
  408SOL     OW 1222   1.581   2.414   0.989  0.4213 -0.0484  0.3644
  408SOL    HW1 1223   1.653   2.404   0.909 -0.4426 -2.0245  0.0469
  408SOL    HW2 1224   1.600   2.492   1.050 -1.1897  1.8333  0.3950
  409SOL     OW 1225   0.574   0.834   0.759 -0.8170 -0.5453  0.6183
  409SOL    HW1 1226   0.530   0.847   0.664  1.2823 -0.2760  0.5590
  409SOL    HW2 1227   0.610   0.737   0.771  0.1837 -2.6772  0.5854
  410SOL     OW 1228   1.255   2.000   1.450 -0.7498 -0.1449  0.0361
  410SOL    HW1 1229   1.276   2.043   1.542  3.9281  2.0242 -0.7616
  410SOL    HW2 1230   1.169   1.945   1.441  3.2984  2.4545 -2.4961
  411SOL     OW 1231   2.427   1.783   3.065  0.1415 -0.2521 -0.3801
  411SOL    HW1 1232   2.374   1.835   2.996  2.8413  3.9450 -0.9868
  411SOL    HW2 1233   2.512   1.746   3.024  1.0753  2.1960 -0.3878
  412SOL     OW 1234   1.469   2.470   2.222 -0.7251 -0.1300 -0.1086
  412SOL    HW1 1235   1.517   2.531   2.284 -2.3503  0.9770 -2.2831
  412SOL    HW2 1236   1.368   2.469   2.250 -1.9544  0.9256  3.3412
  413SOL     OW 1237   3.077   0.280   2.963  0.3746  0.2907 -0.5532
  413SOL    HW1 1238   3.051   0.185   2.990  2.3217  0.5629 -0.4520
  413SOL    HW2 1239   3.174   0.299   3.006 -0.8198 -1.0810  3.1129
  414SOL     OW 1240   1.780   1.429   1.393  0.3463  1.0594 -0.2302
  414SOL    HW1 1241   1.716   1.488   1.448 -0.2394  0.2230  2.5827
  414SOL    HW2 1242   1.741   1.414   1.300 -0.3327  0.5710  1.8018
  415SOL     OW 1243   0.375   2.277   0.616 -0.1412  0.2335  0.0989
  415SOL    HW1 1244   0.339   2.366   0.575 -2.5898 -0.1163  1.9454
  415SOL    HW2 1245   0.306   2.206   0.604  0.0836  1.7637 -1.4900
  416SOL     OW 1246   0.376   1.056   1.041 -0.4770 -0.3514  0.5996
  416SOL    HW1 1247   0.343   1.031   0.948  1.1344 -0.0290 -2.0228
  416SOL    HW2 1248   0.470   1.097   1.037 -2.6970 -0.2950 -0.9614
  417SOL     OW 1249   2.116   2.362   1.892 -0.0418  0.2410 -0.2782
  417SOL    HW1 1250   2.137   2.261   1.900  0.5240 -0.3977  0.4968
  417SOL    HW2 1251   2.045   2.395   1.960 -1.2476 -0.3117  3.0250
  418SOL     OW 1252   1.113   0.502   1.280  0.0411 -0.3814 -0.6990
  418SOL    HW1 1253   1.010   0.509   1.260 -2.5522  1.1127  0.1845
  418SOL    HW2 1254   1.152   0.416   1.247  0.8208  0.0393  0.8238
  419SOL     OW 1255   1.053   0.357   3.042  0.5002 -0.6935 -0.5403
  419SOL    HW1 1256   1.053   0.408   2.950 -2.9646 -2.4656 -0.4679
  419SOL    HW2 1257   0.970   0.292   3.039  1.3162  0.0833  1.3062
  420SOL     OW 1258   0.206   2.254   0.334 -0.2330  0.1663  0.2942
  420SOL    HW1 1259   0.166   2.175   0.278 -1.6173 -1.4700  2.2359
  420SOL    HW2 1260   0.141   2.290   0.405  0.3494 -1.8532 -0.0578
  421SOL     OW 1261   0.316   3.091   0.705 -0.5794  0.1587 -0.0762
  421SOL    HW1 1262   0.280   3.002   0.660 -1.4346 -0.7327  1.1646
  421SOL    HW2 1263   0.419   3.116   0.690  2.4623  1.0157 -0.2897
  422SOL     OW 1264   0.968   2.512   1.040  0.4494  0.1509 -0.0248
  422SOL    HW1 1265   1.006   2.564   0.955 -1.4190 -2.3970 -1.8595
  422SOL    HW2 1266   1.023   2.541   1.123 -1.3328 -1.3075  0.1993
  423SOL     OW 1267   0.049   0.652   1.210 -0.1261  0.1950  0.6567
  423SOL    HW1 1268  -0.017   0.623   1.288  0.3099  0.3220 -1.0905
  423SOL    HW2 1269   0.034   0.748   1.177  3.8353  2.1118 -0.7138
  424SOL     OW 1270   0.976   2.215   2.067  0.2544  0.4232  0.0195
  424SOL    HW1 1271   1.002   2.307   2.032 -0.4129  0.5207  0.6001
  424SOL    HW2 1272   0.987   2.204   2.171 -0.5387 -0.1668  1.9914
  425SOL     OW 1273   1.974   1.446   1.008 -0.1483  0.2803 -0.0902
  425SOL    HW1 1274   1.970   1.344   0.996  0.2273  0.3451 -1.3179
  425SOL    HW2 1275   2.044   1.506   0.957 -0.4289  1.0604  0.7835
  426SOL     OW 1276   1.510   1.567   1.439  0.3779 -0.2595 -0.0798
  426SOL    HW1 1277   1.446   1.645   1.411 -2.8499 -0.3788 -1.7405
  426SOL    HW2 1278   1.477   1.529   1.528 -0.0535  0.5205 -0.0795
  427SOL     OW 1279   1.929   2.410   2.088  0.7110  0.1071 -0.2556
  427SOL    HW1 1280   1.951   2.369   2.179 -0.7362  0.3566 -2.6381
  427SOL    HW2 1281   1.895   2.507   2.092  1.4468 -2.4447  0.9922
  428SOL     OW 1282   0.861   2.940   0.142 -0.2949 -0.5387  0.0599
  428SOL    HW1 1283   0.893   3.032   0.164  0.4436 -1.1735 -0.9865
  428SOL    HW2 1284   0.944   2.884   0.112  0.5030 -2.4090 -2.2276
  429SOL     OW 1285   1.288   0.070   0.230  0.2664 -0.5090  0.3235
  429SOL    HW1 1286   1.350   0.121   0.301 -0.7372  1.7463 -0.4626
  429SOL    HW2 1287   1.306   0.106   0.135 -0.8686  0.3677 -0.2359
  430SOL     OW 1288   2.795   1.542   0.338 -1.1914  0.3292  0.3813
  430SOL    HW1 1289   2.799   1.623   0.273  0.1262 -1.1107  0.6762
  430SOL    HW2 1290   2.769   1.568   0.433 -2.1208 -0.1369  0.1684
  431SOL     OW 1291   2.127   1.631   0.889 -0.1824 -0.1975  0.0052
  431SOL    HW1 1292   2.203   1.697   0.919  1.8023 -0.5269 -2.1864
  431SOL    HW2 1293   2.042   1.677   0.847 -0.6033  2.1054  2.6949
  432SOL     OW 1294   2.917   2.241   1.240 -0.0837  0.8958  0.2916
  432SOL    HW1 1295   2.855   2.156   1.276  0.3719 -4.4044 -1.4551
  432SOL    HW2 1296   2.957   2.292   1.323  0.2578  3.0434  1.0807
  433SOL     OW 1297   1.875   0.363   0.799 -0.1855  0.5518  0.1855
  433SOL    HW1 1298   1.805   0.364   0.878 -1.0138  2.3175  2.0262
  433SOL    HW2 1299   1.924   0.274   0.778 -0.7238  0.0823 -0.3919
  434SOL     OW 1300   1.550   0.287   0.749  0.2146 -0.8455  0.2928
  434SOL    HW1 1301   1.507   0.375   0.708 -1.8929  2.4623 -0.9680
  434SOL    HW2 1302   1.612   0.311   0.825 -2.4977 -1.1022 -0.6989
  435SOL     OW 1303   1.445   1.380   2.152 -0.1502  0.0409  0.0629
  435SOL    HW1 1304   1.393   1.391   2.237  0.3432  1.0142 -1.5214
  435SOL    HW2 1305   1.468   1.475   2.117  0.8932  1.5872 -0.0436
  436SOL     OW 1306   1.609   2.659   2.414  0.2808  0.4150  0.2777
  436SOL    HW1 1307   1.595   2.743   2.476  0.9244  1.0121 -1.4510
  436SOL    HW2 1308   1.693   2.608   2.440  1.1872  4.8073 -4.2433
  437SOL     OW 1309   1.080   2.908   0.885  0.3554 -0.2930 -0.2029
  437SOL    HW1 1310   1.024   2.982   0.840  2.2342 -1.4403 -3.4695
  437SOL    HW2 1311   1.080   2.924   0.989 -2.0952 -1.6768 -1.4275
  438SOL     OW 1312   1.038   2.602   1.286 -0.5050  0.1624  0.6074
  438SOL    HW1 1313   1.054   2.646   1.375  1.1694 -2.0660 -1.8412
  438SOL    HW2 1314   1.019   2.499   1.293 -0.0319  3.7226  1.2881
  439SOL     OW 1315   0.751   1.784   1.055  0.2152 -0.0611  0.6209
  439SOL    HW1 1316   0.747   1.887   1.040 -2.0117 -0.0456  0.5234
  439SOL    HW2 1317   0.652   1.743   1.056 -1.0122 -0.4716  0.1635
  440SOL     OW 1318   1.035   2.475   1.975 -0.2700 -0.0039 -0.6605
  440SOL    HW1 1319   0.998   2.524   1.893  0.9431  0.8205  0.1209
  440SOL    HW2 1320   1.140   2.470   1.979  0.4653 -2.6664 -0.5973
  441SOL     OW 1321   0.412   2.781   1.371  0.6134 -0.1310  0.3793
  441SOL    HW1 1322   0.473   2.699   1.379  1.0730  1.3212 -0.6893
  441SOL    HW2 1323   0.379   2.800   1.269 -1.0451  7.1519 -0.6859
  442SOL     OW 1324   2.251   0.674   2.603  0.4284 -0.1493  0.2558
  442SOL    HW1 1325   2.232   0.585   2.555 -0.4262 -0.8239  1.2348
  442SOL    HW2 1326   2.167   0.736   2.598  2.6067 -0.8206 -0.4089
  443SOL     OW 1327   1.234   2.663   2.197 -0.1177  0.4826  0.2459
  443SOL    HW1 1328   1.216   2.569   2.239 -2.9121 -0.4143 -1.7084
  443SOL    HW2 1329   1.204   2.734   2.259  0.0280 -1.2136 -1.5482
  444SOL     OW 1330   1.053   1.230   1.504  0.4506  0.1421  0.2090
  444SOL    HW1 1331   1.153   1.209   1.467  2.7082 -0.3196 -2.8129
  444SOL    HW2 1332   1.050   1.327   1.543 -0.9353  0.5052 -2.2117
  445SOL     OW 1333   3.077   2.403   1.905 -0.3007  0.3201 -0.6643
  445SOL    HW1 1334   3.018   2.393   1.820 -0.4995  1.1951  0.4612
  445SOL    HW2 1335   3.029   2.370   1.990 -2.9470 -0.2079 -0.6664
  446SOL     OW 1336   0.192   1.925   2.383  0.1456 -0.7935  0.3892
  446SOL    HW1 1337   0.145   2.019   2.363 -0.8820  3.0764 -1.8047
  446SOL    HW2 1338   0.174   1.852   2.306  2.5298 -0.1690  1.1084
  447SOL     OW 1339   1.242   1.663   1.926  0.3402  0.1297  0.4265
  447SOL    HW1 1340   1.145   1.700   1.929 -1.9209 -1.3271 -0.4671
  447SOL    HW2 1341   1.312   1.714   1.984  0.6924  0.0830  1.7770
  448SOL     OW 1342   0.131   1.398   2.027 -0.6728 -0.2842  0.2698
  448SOL    HW1 1343   0.137   1.494   1.980  0.5736  0.8571  0.3050
  448SOL    HW2 1344   0.072   1.405   2.112 -1.4548 -0.4245  0.8342
  449SOL     OW 1345   1.770   2.978   0.868 -0.6855 -0.4113  0.1698
  449SOL    HW1 1346   1.760   2.991   0.974 -0.7742  0.0462  1.8090
  449SOL    HW2 1347   1.837   2.905   0.841 -1.3441  1.2116  1.2972
  450SOL     OW 1348   2.295   1.468   0.742  0.1427  0.6215  0.3900
  450SOL    HW1 1349   2.233   1.524   0.807  0.4381 -1.4903  1.1768
  450SOL    HW2 1350   2.305   1.519   0.653 -1.0671  0.1937 -3.2202
  451SOL     OW 1351   1.400   3.063   1.478 -0.2013  0.5142 -0.4101
  451SOL    HW1 1352   1.321   3.123   1.473 -3.1005 -2.2965  1.3779
  451SOL    HW2 1353   1.401   3.005   1.567 -1.4545 -0.0153 -0.4907
  452SOL     OW 1354   2.670   2.294   2.239  0.1225  0.2761 -0.1275
  452SOL    HW1 1355   2.611   2.372   2.268  0.0942 -1.3862 -1.1271
  452SOL    HW2 1356   2.724   2.244   2.316  0.4096  0.0206  2.0282
  453SOL     OW 1357   2.454   2.648   3.094  0.1681  0.2402 -0.2631
  453SOL    HW1 1358   2.378   2.704   3.132 -0.8281 -0.8117  1.3016
  453SOL    HW2 1359   2.427   2.606   3.000  2.4246  1.0266 -0.4701
  454SOL     OW 1360   0.958   1.109   2.063 -0.5485  0.1145  0.3283
  454SOL    HW1 1361   0.964   1.098   1.958  0.2066 -2.6940 -0.1499
  454SOL    HW2 1362   1.030   1.170   2.107  0.9183  1.7270 -0.4543
  455SOL     OW 1363   0.655   2.695   2.779 -0.4848  0.0005  0.3952
  455SOL    HW1 1364   0.759   2.732   2.768  0.3797  2.7992 -2.5021
  455SOL    HW2 1365   0.643   2.628   2.860 -0.2888  0.1819 -0.6533
  456SOL     OW 1366   0.394   1.903   0.220 -0.4485 -0.1925  0.0201
  456SOL    HW1 1367   0.473   1.843   0.251  1.3227  2.0334  2.5116
  456SOL    HW2 1368   0.439   1.990   0.182  1.2750 -0.0106 -1.5249
  457SOL     OW 1369   0.398   2.743   0.594 -0.0180 -0.7689  0.1195
  457SOL    HW1 1370   0.397   2.772   0.493 -0.0390 -1.7795  0.7262
  457SOL    HW2 1371   0.494   2.749   0.633 -3.6461  0.3834 -0.0912
  458SOL     OW 1372   2.814   0.030   1.150  0.4139  0.4030 -0.2032
  458SOL    HW1 1373   2.883   0.105   1.140 -0.6729  1.4881  1.0041
  458SOL    HW2 1374   2.848  -0.059   1.103  1.8550 -1.6185  0.3011
  459SOL     OW 1375   2.167   2.587   0.795 -1.1106  0.8480 -0.4843
  459SOL    HW1 1376   2.251   2.632   0.836  0.9983  2.7049 -0.5330
  459SOL    HW2 1377   2.182   2.486   0.769 -0.2209 -1.4920  0.3923
  460SOL     OW 1378   1.190   2.109   2.783 -0.2077  0.6915  0.4893
  460SOL    HW1 1379   1.178   2.119   2.681  2.0551  1.1466 -2.0806
  460SOL    HW2 1380   1.208   2.014   2.822  1.4221  0.5404  1.6434
  461SOL     OW 1381   0.504   2.155   2.693 -0.0996  0.3166 -0.2663
  461SOL    HW1 1382   0.433   2.091   2.654  1.4982  1.2452 -1.1406
  461SOL    HW2 1383   0.534   2.140   2.790 -0.2006 -2.0119  0.3077
  462SOL     OW 1384   1.001   1.086   1.771 -0.3761  0.0507  0.8505
  462SOL    HW1 1385   1.088   1.061   1.720 -0.1937  2.5681  0.4670
  462SOL    HW2 1386   0.940   1.158   1.725 -1.1099 -0.3862  0.2212
  463SOL     OW 1387   0.464   0.863   0.489  0.1944 -0.1859 -0.0391
  463SOL    HW1 1388   0.486   0.762   0.467  0.2264  1.4228 -0.5657
  463SOL    HW2 1389   0.362   0.869   0.521 -2.6952 -1.5786  0.4546
  464SOL     OW 1390   0.568   2.316   2.219 -0.0283 -0.4669  0.6538
  464SOL    HW1 1391   0.510   2.376   2.280 -3.9030 -1.3882  1.0943
  464SOL    HW2 1392   0.531   2.305   2.121  1.4104  1.0450 -3.0742
  465SOL     OW 1393   0.257   0.923   0.820 -0.5316  0.2406 -0.4082
  465SOL    HW1 1394   0.162   0.932   0.777 -3.0365 -0.5516 -1.5701
  465SOL    HW2 1395   0.284   0.822   0.845 -0.4126 -1.8198  0.6601
  466SOL     OW 1396   1.411   1.148   1.046 -0.1724 -0.2485 -0.6756
  466SOL    HW1 1397   1.420   1.252   1.055 -0.9261  1.2498 -0.8864
  466SOL    HW2 1398   1.316   1.115   1.017 -1.7269  0.6948  1.4433
  467SOL     OW 1399   0.617   0.418   2.456  0.1639  0.3046 -0.2930
  467SOL    HW1 1400   0.561   0.507   2.454  1.3546  1.1073  0.3912
  467SOL    HW2 1401   0.613   0.372   2.555 -0.0821 -0.7001  1.5593
  468SOL     OW 1402   0.429   2.253   1.631  0.1475 -0.3373  0.7818
  468SOL    HW1 1403   0.504   2.323   1.658  2.0587  2.3752 -1.7916
  468SOL    HW2 1404   0.400   2.273   1.535 -1.6078 -2.6105  0.1505
  469SOL     OW 1405   1.473   1.332   1.299 -0.1907  0.6730 -0.3259
  469SOL    HW1 1406   1.543   1.313   1.222  3.8243  0.3628 -2.2360
  469SOL    HW2 1407   1.482   1.430   1.324 -1.5060 -0.5367 -1.6657
  470SOL     OW 1408   3.011   1.881   0.725 -0.2100  0.1934  0.4929
  470SOL    HW1 1409   3.106   1.900   0.680 -0.6763  0.8361 -1.1054
  470SOL    HW2 1410   3.016   1.819   0.806  0.8274  3.7757 -0.9806
  471SOL     OW 1411   2.584   1.344   2.163  0.0916  0.0444  0.0600
  471SOL    HW1 1412   2.554   1.261   2.220 -3.0144  3.4679  2.3863
  471SOL    HW2 1413   2.667   1.389   2.201  1.7179 -0.1919 -0.4057
  472SOL     OW 1414   1.170   2.380   0.027  0.0545 -0.0854 -0.2738
  472SOL    HW1 1415   1.243   2.401   0.096  1.3841  1.4328  0.1579
  472SOL    HW2 1416   1.088   2.342   0.077 -0.1424  2.4907  0.4206
  473SOL     OW 1417   1.046   1.468   1.055  0.2885  0.1192  0.5383
  473SOL    HW1 1418   0.956   1.505   1.012 -1.6510  2.4344  0.5832
  473SOL    HW2 1419   1.032   1.380   1.103 -0.2725 -0.3042 -2.8688
  474SOL     OW 1420   0.647   1.286   0.607  0.0858  0.7279  0.2613
  474SOL    HW1 1421   0.570   1.226   0.569 -2.2743 -0.3716 -0.2467
  474SOL    HW2 1422   0.740   1.243   0.596 -1.7561 -2.8062  0.4452
  475SOL     OW 1423   2.833   0.033   0.841 -0.4963 -0.1593  0.0043
  475SOL    HW1 1424   2.905   0.109   0.846  0.5428  0.8305  1.0355
  475SOL    HW2 1425   2.739   0.054   0.879 -0.4390 -2.7478  3.4024
  476SOL     OW 1426   1.006   2.973   1.760 -0.6879  0.2759  0.4790
  476SOL    HW1 1427   1.093   3.024   1.781  1.0249 -1.7163 -0.4616
  476SOL    HW2 1428   0.999   2.940   1.659 -1.9528 -0.5000 -0.3895
  477SOL     OW 1429   1.471   0.322   2.428  0.3003 -0.0382 -0.3379
  477SOL    HW1 1430   1.448   0.332   2.531  0.1964  1.1238  1.7210
  477SOL    HW2 1431   1.562   0.276   2.412 -1.3366 -2.1401 -1.7193
  478SOL     OW 1432   2.220   1.837   0.211 -0.2558 -0.2032 -0.0271
  478SOL    HW1 1433   2.160   1.769   0.253  0.8892  0.2948 -1.6468
  478SOL    HW2 1434   2.282   1.797   0.134 -0.4327 -3.6609  1.2174
  479SOL     OW 1435   1.249   0.954   2.870  0.0572  0.3994 -0.6592
  479SOL    HW1 1436   1.339   0.952   2.816 -0.9683  0.0639 -0.3016
  479SOL    HW2 1437   1.199   0.864   2.863  0.5300  1.5178  0.2602
  480SOL     OW 1438   2.627   2.350   0.387 -0.3328  0.2182 -0.4159
  480SOL    HW1 1439   2.597   2.285   0.462  3.1691 -0.3694 -1.2538
  480SOL    HW2 1440   2.552   2.377   0.322 -0.7864  1.2788  2.9149
  481SOL     OW 1441   0.929   1.171   0.859 -0.2300  0.6563  0.5809
  481SOL    HW1 1442   0.918   1.254   0.801  0.1733 -1.7661  1.0500
  481SOL    HW2 1443   1.004   1.187   0.929  1.5376 -0.2130 -0.2943
  482SOL     OW 1444   1.558   0.302   1.986  0.2584 -0.3102 -0.1609
  482SOL    HW1 1445   1.539   0.401   1.967 -2.4242 -3.1683  2.1740
  482SOL    HW2 1446   1.651   0.296   2.033  2.3495  0.4044  3.0823
  483SOL     OW 1447   0.148   2.282   1.209  0.1980 -0.1462  0.2116
  483SOL    HW1 1448   0.069   2.329   1.263 -1.6719 -0.4116 -2.2043
  483SOL    HW2 1449   0.183   2.331   1.120  3.8003  0.4871  0.1110
  484SOL     OW 1450   1.766   1.130   1.361 -0.1555  0.2200  0.2082
  484SOL    HW1 1451   1.838   1.059   1.391  0.2744 -0.4396  0.6582
  484SOL    HW2 1452   1.768   1.219   1.408 -1.0775 -0.2548 -0.7842
  485SOL     OW 1453   0.746   0.825   1.769 -0.3242  0.5845  0.1250
  485SOL    HW1 1454   0.705   0.868   1.680 -1.5889  0.7299 -2.0421
  485SOL    HW2 1455   0.845   0.795   1.753 -0.4607  1.7649 -1.2047
  486SOL     OW 1456   0.823   1.853   2.479 -0.2924 -0.2947  0.3349
  486SOL    HW1 1457   0.883   1.812   2.556  0.7280 -2.2093  3.5602
  486SOL    HW2 1458   0.757   1.924   2.509 -1.4623 -1.6288 -2.5875
  487SOL     OW 1459   1.764   1.613   0.940 -0.1880  0.8878  0.1820
  487SOL    HW1 1460   1.815   1.532   0.973 -1.1971 -0.9367  1.0919
  487SOL    HW2 1461   1.815   1.667   0.865 -1.2690 -0.1429 -0.3504
  488SOL     OW 1462   2.940   0.884   2.283 -0.2185 -0.2986 -1.2531
  488SOL    HW1 1463   2.953   0.787   2.242 -1.5014 -0.2156 -1.1233
  488SOL    HW2 1464   2.982   0.889   2.380 -1.8039 -2.0734  0.1593
  489SOL     OW 1465   2.852   0.353   1.268  0.0525 -0.5586  0.0745
  489SOL    HW1 1466   2.821   0.347   1.365  3.2044  0.6487  1.2552
  489SOL    HW2 1467   2.928   0.286   1.245  2.0483  1.2041 -0.3501
  490SOL     OW 1468   1.412   2.956   2.824  0.2307  0.2113 -0.2740
  490SOL    HW1 1469   1.454   2.864   2.840 -2.0657 -0.3753  2.4215
  490SOL    HW2 1470   1.401   2.986   2.725 -0.1535  1.2230  1.4445
  491SOL     OW 1471   1.695   1.524   2.645 -0.4258 -0.3377  0.0713
  491SOL    HW1 1472   1.632   1.514   2.720  0.2910 -1.8321  1.0658
  491SOL    HW2 1473   1.791   1.539   2.674 -0.3721  2.3652 -1.1954
  492SOL     OW 1474   0.550   2.096   0.599 -0.8226  0.2964  0.2379
  492SOL    HW1 1475   0.570   2.076   0.698  0.6356 -0.9343  2.1486
  492SOL    HW2 1476   0.481   2.178   0.590 -0.0584 -1.0060  2.6282
  493SOL     OW 1477   0.441   1.401   2.081 -0.1774 -0.0520 -0.3602
  493SOL    HW1 1478   0.352   1.423   2.041 -0.1778 -1.0771 -0.4697
  493SOL    HW2 1479   0.446   1.297   2.103 -1.3395 -0.9866  0.1273
  494SOL     OW 1480   2.716   2.628   0.092 -0.1510  0.9261 -1.0302
  494SOL    HW1 1481   2.726   2.616   0.198  0.6665 -0.5192  0.5633
  494SOL    HW2 1482   2.617   2.634   0.057 -1.2680 -1.3930  1.0934
  495SOL     OW 1483   2.565   2.737   2.642  0.3405 -0.1301  0.3639
  495SOL    HW1 1484   2.564   2.633   2.637  0.7662  2.4205 -1.2906
  495SOL    HW2 1485   2.629   2.769   2.573 -0.8445 -1.6993  1.8924
  496SOL     OW 1486   2.046   2.271   0.767  0.4227  0.1381 -0.3603
  496SOL    HW1 1487   2.057   2.324   0.856 -2.0457 -0.7545 -2.1466
  496SOL    HW2 1488   2.031   2.167   0.779  1.0126 -1.7433 -1.3267
  497SOL     OW 1489   0.200   2.993   2.370 -0.0737  0.3672 -0.1583
  497SOL    HW1 1490   0.162   3.052   2.449 -0.0230 -0.1580 -2.0893
  497SOL    HW2 1491   0.221   3.046   2.284 -0.2119 -0.6774 -1.2321
  498SOL     OW 1492   1.211   1.329   1.259  0.4447  0.2498 -0.2210
  498SOL    HW1 1493   1.310   1.314   1.282 -1.9783  2.4656  0.1513
  498SOL    HW2 1494   1.178   1.409   1.316  1.7278 -0.0834 -1.5820
  499SOL     OW 1495   0.620   1.791   0.293 -0.0970 -1.0760  0.3359
  499SOL    HW1 1496   0.649   1.703   0.235 -0.4160 -1.0214  2.5963
  499SOL    HW2 1497   0.702   1.853   0.313  1.2160  0.2285  0.4315
  500SOL     OW 1498   1.392   2.872   1.676 -0.0012  0.1156 -0.5030
  500SOL    HW1 1499   1.307   2.843   1.724 -2.0865 -1.3735  2.3179
  500SOL    HW2 1500   1.459   2.793   1.685  0.1225  0.0972  2.6609
  501SOL     OW 1501   0.789   1.146   2.301  0.0114 -0.1177 -0.5794
  501SOL    HW1 1502   0.726   1.068   2.302  1.2068 -3.9744  0.6161
  501SOL    HW2 1503   0.839   1.152   2.204  1.2587 -1.0750 -2.5791
  502SOL     OW 1504   2.560   0.938   1.755  0.4301 -0.5750 -0.6911
  502SOL    HW1 1505   2.579   0.957   1.655  1.7264  1.3775  0.8528
  502SOL    HW2 1506   2.546   0.837   1.780 -0.4193  1.2571 -1.7401
  503SOL     OW 1507   1.326   0.165   0.594  0.6634 -0.2230  0.3629
  503SOL    HW1 1508   1.249   0.228   0.626  1.7048 -0.4440 -1.5230
  503SOL    HW2 1509   1.421   0.204   0.620  0.5875 -1.9919 -1.2010
  504SOL     OW 1510   2.995   2.346   1.496 -0.3655 -0.1222 -0.3653
  504SOL    HW1 1511   2.927   2.414   1.537  0.6413  0.8244  3.0986
  504SOL    HW2 1512   3.030   2.273   1.563  1.6623  1.5227 -0.5970
  505SOL     OW 1513   2.266   1.174   1.421  0.2870  0.3815 -0.0945
  505SOL    HW1 1514   2.255   1.210   1.322  0.7670  0.5252  0.2998
  505SOL    HW2 1515   2.328   1.226   1.482 -2.5259 -1.6834 -1.7477
  506SOL     OW 1516   1.940   0.204   1.823  0.1988 -0.1968  0.1498
  506SOL    HW1 1517   2.024   0.148   1.809  1.9403  2.8819  2.8328
  506SOL    HW2 1518   1.961   0.303   1.837  1.2995 -2.0017  0.0197
  507SOL     OW 1519   0.600   0.699   2.149  0.2933 -0.1560 -0.1800
  507SOL    HW1 1520   0.526   0.631   2.130 -2.7282 -0.2457  0.6121
  507SOL    HW2 1521   0.690   0.658   2.165 -2.3039  0.6564 -0.6387
  508SOL     OW 1522   0.310   1.652   0.753  0.1770  0.9600 -0.1858
  508SOL    HW1 1523   0.382   1.717   0.713  0.4813 -0.4435  1.8896
  508SOL    HW2 1524   0.256   1.690   0.838  1.3724 -0.0761  0.9845
  509SOL     OW 1525   1.275   1.181   2.428 -0.1597 -0.0094 -0.5810
  509SOL    HW1 1526   1.330   1.116   2.360  1.1928 -0.1176  0.5463
  509SOL    HW2 1527   1.175   1.163   2.420  0.0262  0.0125  0.8947
  510SOL     OW 1528   1.266   2.118   2.214 -0.0500  0.0548 -0.0368
  510SOL    HW1 1529   1.302   2.158   2.126 -0.0867 -0.5519 -1.1180
  510SOL    HW2 1530   1.213   2.035   2.210  1.3409 -1.6142  0.8302
  511SOL     OW 1531   3.002   2.695   1.268  0.2288 -0.0780  0.5019
  511SOL    HW1 1532   2.968   2.676   1.175 -2.6481 -0.7502  1.5457
  511SOL    HW2 1533   2.924   2.706   1.332  2.4372 -3.5628 -2.3573
  512SOL     OW 1534   2.431   0.433   1.372  0.2795 -0.0007 -0.0754
  512SOL    HW1 1535   2.333   0.458   1.344  0.3998 -2.6383 -1.1146
  512SOL    HW2 1536   2.475   0.386   1.294 -2.2136  1.1467  1.0314
  513SOL     OW 1537   2.619   2.117   0.930 -0.3797 -0.4205  0.1017
  513SOL    HW1 1538   2.555   2.188   0.889 -0.0773 -0.1856 -0.9726
  513SOL    HW2 1539   2.698   2.099   0.869  1.4940 -1.1584  0.5869
  514SOL     OW 1540   0.670   2.763   0.432 -0.4108  0.2960  0.2856
  514SOL    HW1 1541   0.688   2.818   0.347  2.5978  2.7568 -0.0842
  514SOL    HW2 1542   0.697   2.811   0.522  1.9505 -3.1742  1.8510
  515SOL     OW 1543   1.907   1.332   2.401  0.2045 -0.4671 -0.0746
  515SOL    HW1 1544   1.926   1.283   2.311  2.1842  2.0861 -0.7395
  515SOL    HW2 1545   1.831   1.293   2.455  1.7209 -1.2005 -0.5996
  516SOL     OW 1546   0.291   0.298   1.879 -0.3717 -0.5357 -0.1990
  516SOL    HW1 1547   0.391   0.273   1.859  3.0690 -0.3484  1.2095
  516SOL    HW2 1548   0.220   0.240   1.829  2.2655  1.7259 -1.4471
  517SOL     OW 1549   0.489   0.127   1.131 -0.0857  0.1515 -0.3449
  517SOL    HW1 1550   0.476   0.171   1.221 -1.2737 -1.7283 -4.1956
  517SOL    HW2 1551   0.457   0.028   1.131  1.4349  1.3822  3.5977
  518SOL     OW 1552   2.151   0.005   1.820  0.1085  0.0008  0.6761
  518SOL    HW1 1553   2.225   0.083   1.820 -1.3640 -0.3951  0.0516
  518SOL    HW2 1554   2.172  -0.054   1.734  4.7107  3.0902 -2.2649
  519SOL     OW 1555   2.307   2.114   2.468  0.2565  0.4724  0.0390
  519SOL    HW1 1556   2.255   2.103   2.557  2.2744 -1.0510 -0.5942
  519SOL    HW2 1557   2.331   2.214   2.437  1.2387 -2.4785 -0.0063
  520SOL     OW 1558   1.832   2.689   1.740  0.0701 -0.1054 -0.3538
  520SOL    HW1 1559   1.773   2.619   1.778 -0.8368 -1.0484  1.3433
  520SOL    HW2 1560   1.918   2.645   1.696  0.1692 -1.7401  0.2060
  521SOL     OW 1561   0.556   3.081   2.062  0.1525 -0.1390 -0.1489
  521SOL    HW1 1562   0.455   3.076   2.076 -0.0288  0.6542 -3.7220
  521SOL    HW2 1563   0.616   3.083   2.152 -1.3904 -1.0057  1.1758
  522SOL     OW 1564   0.175   1.841   1.561 -0.1607 -0.0903  0.5502
  522SOL    HW1 1565   0.225   1.912   1.615 -0.8724 -1.5575  0.8288
  522SOL    HW2 1566   0.138   1.889   1.477 -2.5393 -0.3778 -0.2898
  523SOL     OW 1567   2.175   2.948   1.580 -0.1962  0.4037  0.1292
  523SOL    HW1 1568   2.223   2.866   1.536  0.2521  0.3971 -2.1109
  523SOL    HW2 1569   2.080   2.970   1.551  0.7815 -1.5222  0.8785
  524SOL     OW 1570   0.195   2.776   2.843  0.2314  0.2545 -0.2399
  524SOL    HW1 1571   0.130   2.852   2.854  1.3676 -2.3034 -0.5990
  524SOL    HW2 1572   0.292   2.808   2.817  1.5970  0.3318 -2.0531
  525SOL     OW 1573   2.202   2.032   0.404 -0.2933  0.1088 -1.0303
  525SOL    HW1 1574   2.209   1.983   0.497  2.8448  0.5304  1.4247
  525SOL    HW2 1575   2.201   1.972   0.323  4.8284  0.0860  0.8769
  526SOL     OW 1576   0.451   1.504   1.762 -0.1772 -0.6010 -0.3405
  526SOL    HW1 1577   0.518   1.569   1.811  4.1582 -2.2007 -0.8553
  526SOL    HW2 1578   0.489   1.409   1.765  3.3955 -0.5664 -0.8976
  527SOL     OW 1579   1.101   2.888   1.163 -0.0642  0.1027 -0.7464
  527SOL    HW1 1580   1.177   2.833   1.213 -0.9267  0.0686  1.2543
  527SOL    HW2 1581   1.136   2.988   1.164 -0.5227  1.2345 -1.8300
  528SOL     OW 1582   1.372   2.346   0.541 -0.4243  0.1177 -0.3735
  528SOL    HW1 1583   1.408   2.251   0.549  0.8509 -2.2455  0.6151
  528SOL    HW2 1584   1.420   2.408   0.609 -2.0866 -1.1362 -1.1947
  529SOL     OW 1585   1.919   1.785   0.770  0.0307  0.0557 -0.6717
  529SOL    HW1 1586   1.871   1.773   0.680  1.8586 -0.1235 -1.3437
  529SOL    HW2 1587   1.948   1.884   0.791 -2.4149 -0.6949 -0.9132
  530SOL     OW 1588   0.382   2.538   0.178  0.2350  0.6897 -0.4146
  530SOL    HW1 1589   0.382   2.580   0.270 -0.2979 -0.2732 -1.9068
  530SOL    HW2 1590   0.444   2.451   0.166  0.5588 -1.4728  2.7699
  531SOL     OW 1591   1.856   0.967   1.104  0.5179  0.4207 -0.1716
  531SOL    HW1 1592   1.820   0.906   1.028  2.3652  2.4148 -0.3142
  531SOL    HW2 1593   1.792   0.972   1.182  0.2710  0.4154 -3.1840
  532SOL     OW 1594   0.336   1.176   0.734  0.5197 -0.3481 -0.5247
  532SOL    HW1 1595   0.354   1.199   0.636  4.6894 -0.6801  0.8359
  532SOL    HW2 1596   0.297   1.080   0.742 -1.6384  0.3753  0.6905
  533SOL     OW 1597   1.766   0.004   2.585 -0.8324 -0.1239 -0.1080
  533SOL    HW1 1598   1.874   0.002   2.585 -1.1396 -2.0736 -1.0112
  533SOL    HW2 1599   1.724   0.084   2.638 -2.7009  1.3127 -1.5289
  534SOL     OW 1600   0.244   0.214   1.484  1.0017 -0.2555 -0.0576
  534SOL    HW1 1601   0.326   0.251   1.437 -0.2118  2.0925 -1.3888
  534SOL    HW2 1602   0.181   0.287   1.515  2.4172 -0.6084 -1.2231
  535SOL     OW 1603   1.855   0.348   0.208  0.6942  0.4498  0.3867
  535SOL    HW1 1604   1.880   0.421   0.281  1.7865  2.9339  3.9399
  535SOL    HW2 1605   1.799   0.265   0.243 -0.6080 -1.8625  0.5341
  536SOL     OW 1606   1.374   2.600   0.930  0.0814  0.3078  0.1534
  536SOL    HW1 1607   1.393   2.500   0.915 -1.2417 -1.9435  1.4605
  536SOL    HW2 1608   1.279   2.627   0.892  0.9697  2.9844 -1.1760
  537SOL     OW 1609   0.872   0.218   2.339 -0.3698 -0.2156 -0.6536
  537SOL    HW1 1610   0.902   0.239   2.243  1.0846 -2.5796  0.5105
  537SOL    HW2 1611   0.776   0.185   2.350  0.3835  1.5622  1.3604
  538SOL     OW 1612   1.659   2.328   1.490  0.1171 -0.4870  0.3991
  538SOL    HW1 1613   1.638   2.236   1.443  2.8920 -1.3955 -1.6773
  538SOL    HW2 1614   1.742   2.374   1.446  1.2549 -2.1683 -1.8599
  539SOL     OW 1615   0.203   1.607   2.676  0.3383  0.5964  0.1654
  539SOL    HW1 1616   0.118   1.577   2.634  3.4356 -0.0259  1.2880
  539SOL    HW2 1617   0.216   1.705   2.699 -0.0547  2.3756 -2.5722
  540SOL     OW 1618   2.748   1.664   1.958  0.4483  0.6813  0.0554
  540SOL    HW1 1619   2.672   1.595   1.937 -0.8164 -0.2138  0.6504
  540SOL    HW2 1620   2.721   1.765   1.966 -2.5171  1.8264 -0.0926
  541SOL     OW 1621   0.469   2.315   0.021 -0.0062  0.8133 -0.9555
  541SOL    HW1 1622   0.489   2.242   0.090 -1.1733 -1.9408 -0.4260
  541SOL    HW2 1623   0.384   2.289  -0.027  2.9170  0.2547  0.9119
  542SOL     OW 1624   2.240   2.574   0.443 -0.1564  0.1677  0.1252
  542SOL    HW1 1625   2.197   2.664   0.427 -0.2189  0.5548 -0.2277
  542SOL    HW2 1626   2.178   2.506   0.497 -0.1563  0.8958  0.0199
  543SOL     OW 1627   1.001   1.742   1.709 -0.2133 -0.1090 -0.4562
  543SOL    HW1 1628   1.008   1.780   1.805 -1.9108  1.9951  0.0864
  543SOL    HW2 1629   0.961   1.807   1.639 -2.1447 -3.1933 -0.5547
  544SOL     OW 1630   0.943   0.383   0.208  0.4188 -0.4650  0.4803
  544SOL    HW1 1631   0.925   0.281   0.227 -0.7549 -1.7030 -0.9823
  544SOL    HW2 1632   0.996   0.392   0.116 -1.1243 -0.0839 -2.4064
  545SOL     OW 1633   1.108   1.706   0.669  0.1758  0.0123  0.4980
  545SOL    HW1 1634   1.195   1.734   0.713 -1.0837 -0.5407  0.5771
  545SOL    HW2 1635   1.119   1.675   0.573 -0.5682 -0.6615  1.2911
  546SOL     OW 1636   2.596   1.564   3.023 -0.0117  0.3010  0.1277
  546SOL    HW1 1637   2.514   1.570   2.962  1.8353  2.4304 -0.3857
  546SOL    HW2 1638   2.567   1.516   3.114 -2.1913 -1.2082  0.7051
  547SOL     OW 1639   0.550   0.027   2.746  0.3930  0.3196 -0.4841
  547SOL    HW1 1640   0.650   0.002   2.738  0.0731  0.7255 -3.5348
  547SOL    HW2 1641   0.501  -0.059   2.723  0.4699  3.7882  3.2249
  548SOL     OW 1642   2.034   0.816   3.060  0.1942  0.2868  0.3481
  548SOL    HW1 1643   1.934   0.793   3.056  1.3583 -0.4178  0.9016
  548SOL    HW2 1644   2.051   0.921   3.070 -2.7252 -0.4847 -1.1506
  549SOL     OW 1645   0.685   0.570   0.195  0.0694  0.6096 -0.3499
  549SOL    HW1 1646   0.641   0.632   0.128  2.8487  1.4499  2.5580
  549SOL    HW2 1647   0.784   0.593   0.205  0.9039  2.6040  0.3509
  550SOL     OW 1648   2.502   2.863   2.868 -0.4813 -0.3569 -0.1923
  550SOL    HW1 1649   2.495   2.788   2.938  1.3297 -0.9377  3.7433
  550SOL    HW2 1650   2.532   2.815   2.781  1.3031  0.9395 -0.0554
  551SOL     OW 1651   0.291   0.896   0.223 -0.0507 -0.5369 -0.2081
  551SOL    HW1 1652   0.392   0.869   0.227  1.4316  3.3973 -0.8275
  551SOL    HW2 1653   0.267   0.936   0.312  1.7526 -0.3653 -0.8455
  552SOL     OW 1654   0.757   2.915   1.876  0.1479  0.0892 -0.1816
  552SOL    HW1 1655   0.697   2.993   1.888 -1.4814 -0.7011  1.7968
  552SOL    HW2 1656   0.849   2.947   1.839 -2.9754  3.6067 -0.7814
  553SOL     OW 1657   0.046   2.514   0.378  0.1373 -0.1907  0.4973
  553SOL    HW1 1658  -0.023   2.445   0.350  0.0627 -0.7821  3.6194
  553SOL    HW2 1659  -0.006   2.595   0.415 -2.1490 -2.0696 -0.6444
  554SOL     OW 1660   2.203   0.333   0.581 -0.6338  0.0493 -0.0816
  554SOL    HW1 1661   2.268   0.337   0.496  0.7017  0.1875 -0.9243
  554SOL    HW2 1662   2.199   0.239   0.624  1.8922 -0.0208  0.7659
  555SOL     OW 1663   0.416   2.902   2.494  0.6026  0.1839  0.3040
  555SOL    HW1 1664   0.319   2.942   2.472 -2.6238 -3.6613  0.5999
  555SOL    HW2 1665   0.442   2.831   2.422 -0.8401 -0.1634  0.6709
  556SOL     OW 1666   0.895   2.392   1.616 -0.9132  0.2004 -0.1152
  556SOL    HW1 1667   0.931   2.483   1.654  0.0779  0.4685 -1.9872
  556SOL    HW2 1668   0.932   2.369   1.521 -1.7708 -0.2732  0.6377
  557SOL     OW 1669   0.097   2.088   0.141  0.0957 -0.2770  0.5167
  557SOL    HW1 1670   0.023   2.037   0.089  3.5680  0.5833 -2.5544
  557SOL    HW2 1671   0.155   2.144   0.072 -0.7947  2.5392  0.8823
  558SOL     OW 1672   2.937   2.311   0.335  0.2512  0.7059 -0.6562
  558SOL    HW1 1673   2.837   2.291   0.352  0.2151  1.2575  0.8128
  558SOL    HW2 1674   2.957   2.291   0.234 -1.0840 -0.7618 -0.3414
  559SOL     OW 1675   0.390   2.304   1.346  0.2417  0.0282 -0.3649
  559SOL    HW1 1676   0.301   2.291   1.296 -1.3758 -1.4046  0.1306
  559SOL    HW2 1677   0.450   2.218   1.337 -1.0367  0.7863 -0.6480
  560SOL     OW 1678   2.093   1.107   3.058 -0.2588  0.2019  0.3667
  560SOL    HW1 1679   2.044   1.158   3.132 -1.1629 -1.9527  0.3896
  560SOL    HW2 1680   2.194   1.096   3.077 -0.0701  0.3213 -0.5800
  561SOL     OW 1681   3.009   1.919   0.027  0.0615 -0.9331  0.4755
  561SOL    HW1 1682   2.957   1.838   0.072 -1.8081  1.0003 -0.4948
  561SOL    HW2 1683   2.940   1.989  -0.005 -2.8935 -2.4146  2.0089
  562SOL     OW 1684   0.947   2.176   2.359  0.3857  0.7039 -0.6734
  562SOL    HW1 1685   0.849   2.157   2.375 -0.9443  1.4524  1.2433
  562SOL    HW2 1686   0.997   2.201   2.451  0.5192 -0.0807 -1.6796
  563SOL     OW 1687   0.695   2.465   2.589  0.4636  0.1298 -0.2999
  563SOL    HW1 1688   0.736   2.369   2.596 -2.0430  0.4722  2.8839
  563SOL    HW2 1689   0.669   2.498   2.679  1.4119  1.0151 -3.7753
  564SOL     OW 1690   2.765   1.314   2.918 -0.6938 -0.2457 -0.0546
  564SOL    HW1 1691   2.668   1.341   2.951 -0.7422 -1.3752 -1.3915
  564SOL    HW2 1692   2.822   1.396   2.885  0.7027 -0.9163  0.1289
  565SOL     OW 1693   2.550   1.987   2.577 -0.1410 -0.2915 -0.1777
  565SOL    HW1 1694   2.469   2.033   2.531 -0.1674 -1.1481 -0.0913
  565SOL    HW2 1695   2.570   2.020   2.675  2.4701  1.3496 -1.6013
  566SOL     OW 1696   2.004   2.864   1.370 -0.4965  0.0379  0.9740
  566SOL    HW1 1697   1.952   2.779   1.340 -0.7729 -3.1768  0.3335
  566SOL    HW2 1698   2.091   2.884   1.313  1.8453 -0.9419  1.1401
  567SOL     OW 1699   2.487   0.114   2.287  0.7295 -0.7443  0.0623
  567SOL    HW1 1700   2.385   0.135   2.295 -1.0390  3.2002  2.2168
  567SOL    HW2 1701   2.508   0.085   2.191 -2.4885 -1.8010  2.1379
  568SOL     OW 1702   1.526   1.779   0.243 -0.0724 -0.5856 -0.6709
  568SOL    HW1 1703   1.467   1.860   0.222  0.2786 -0.9057  1.9215
  568SOL    HW2 1704   1.623   1.800   0.272  0.0076 -1.4846  3.3449
  569SOL     OW 1705   0.288   0.629   0.859 -0.3436 -0.1275  0.2558
  569SOL    HW1 1706   0.357   0.570   0.807 -2.7163  0.6889  0.5727
  569SOL    HW2 1707   0.192   0.588   0.847  2.6898 -1.4597  2.2239
  570SOL     OW 1708   0.683   0.744   2.833  0.0164 -0.0753  0.1654
  570SOL    HW1 1709   0.686   0.753   2.732 -1.0468  1.2350  2.3495
  570SOL    HW2 1710   0.683   0.837   2.879 -0.4535 -0.9372 -0.6734
  571SOL     OW 1711   0.841   3.047   1.098 -0.3165 -0.2662 -0.3803
  571SOL    HW1 1712   0.871   3.102   1.016  0.9543  1.2644 -1.0611
  571SOL    HW2 1713   0.871   2.945   1.098 -0.7295 -0.5711  0.8503
  572SOL     OW 1714   1.594   2.626   1.173  0.7185 -0.5068  0.6022
  572SOL    HW1 1715   1.504   2.567   1.186 -1.0806  1.1258  2.1293
  572SOL    HW2 1716   1.567   2.728   1.158  1.0037  1.9075  0.3637
  573SOL     OW 1717   2.907   0.434   2.046  0.0184  0.5732 -0.3087
  573SOL    HW1 1718   2.871   0.334   2.040 -0.2451 -2.2435 -1.8227
  573SOL    HW2 1719   2.841   0.503   2.003 -0.4228 -0.8621 -0.7515
  574SOL     OW 1720   0.213   1.764   0.978 -0.4253 -0.4624 -0.3475
  574SOL    HW1 1721   0.236   1.866   0.970  1.5093 -0.2033 -0.9769
  574SOL    HW2 1722   0.128   1.754   1.040  1.3188  2.0595  1.4061
  575SOL     OW 1723   0.870   2.139   0.985  1.0004 -0.6562  0.3953
  575SOL    HW1 1724   0.829   2.168   1.078 -1.3137 -0.8669  1.2938
  575SOL    HW2 1725   0.905   2.223   0.933 -0.1332  0.3138 -0.7200
  576SOL     OW 1726   2.936   2.939   1.667  0.1113 -0.1044 -0.3186
  576SOL    HW1 1727   2.839   2.919   1.658  0.6707  3.2443 -0.5625
  576SOL    HW2 1728   2.947   3.037   1.643 -1.0501  0.1233  1.4072
  577SOL     OW 1729   2.538   1.224   3.074  0.3471 -0.3239  0.0285
  577SOL    HW1 1730   2.572   1.145   3.012  0.3956 -1.1510  0.1828
  577SOL    HW2 1731   2.600   1.228   3.154 -1.4413 -0.7654 -2.3961
  578SOL     OW 1732   1.343   2.678   2.590 -0.2871  0.4744 -0.2663
  578SOL    HW1 1733   1.279   2.736   2.527  1.0266  2.3119 -1.2755
  578SOL    HW2 1734   1.440   2.688   2.554  1.3417 -2.3072  0.8041
  579SOL     OW 1735   0.123   2.506   0.116 -0.4565 -0.0423 -0.4416
  579SOL    HW1 1736   0.098   2.514   0.215 -1.0547 -2.3122 -1.8087
  579SOL    HW2 1737   0.219   2.472   0.099  0.4752 -2.2452 -0.0342
  580SOL     OW 1738   1.029   2.605   0.392  0.0826  0.4662  0.0416
  580SOL    HW1 1739   1.117   2.628   0.341  0.6905  0.6200 -2.5892
  580SOL    HW2 1740   0.951   2.568   0.335  1.5969 -0.2658  1.0814
  581SOL     OW 1741   1.240   2.589   1.522  0.4964 -0.0310  0.3799
  581SOL    HW1 1742   1.260   2.490   1.497  0.9243 -0.0559 -0.1027
  581SOL    HW2 1743   1.278   2.659   1.458  0.4921 -2.4089 -0.5104
  582SOL     OW 1744   1.503   0.097   1.811  0.6889 -0.0446  0.1294
  582SOL    HW1 1745   1.535   0.177   1.871 -0.5750  0.7662 -0.3312
  582SOL    HW2 1746   1.581   0.067   1.752 -2.1163  0.1629  1.5209
  583SOL     OW 1747   2.502   2.982   0.527 -0.3133  0.0834  0.1091
  583SOL    HW1 1748   2.523   2.893   0.479  1.3869 -0.6251 -0.4308
  583SOL    HW2 1749   2.443   2.958   0.610  2.0909  3.5646 -0.8849
  584SOL     OW 1750   1.615   0.986   2.091 -0.0115 -0.6888 -0.1046
  584SOL    HW1 1751   1.662   1.075   2.113 -0.3684  1.7709  1.0290
  584SOL    HW2 1752   1.653   0.909   2.146 -0.5202  0.5766  0.9401
  585SOL     OW 1753   2.092   2.687   2.951  0.2147  0.1661  0.1069
  585SOL    HW1 1754   2.128   2.598   2.919 -0.0202  1.3674  1.2705
  585SOL    HW2 1755   1.985   2.680   2.958 -2.7519  0.5780 -0.4138
  586SOL     OW 1756   2.722   0.234   1.552  0.2109  0.2094  0.3293
  586SOL    HW1 1757   2.752   0.308   1.620  0.7784  1.9005  0.1540
  586SOL    HW2 1758   2.635   0.186   1.571 -0.4162 -2.2036  0.6766
  587SOL     OW 1759   1.943   1.564   2.740 -0.5712 -0.6202 -0.0394
  587SOL    HW1 1760   2.015   1.545   2.671  0.0446 -2.9693  0.4666
  587SOL    HW2 1761   1.983   1.576   2.836 -0.4187 -0.4234 -0.7607
  588SOL     OW 1762   0.470   2.745   2.254  0.5090  0.5935  0.1717
  588SOL    HW1 1763   0.382   2.723   2.210 -0.7873 -0.1214 -0.9479
  588SOL    HW2 1764   0.518   2.661   2.290 -1.1726 -0.7277 -0.2975
  589SOL     OW 1765   2.102   1.447   2.560 -0.0753  0.0536  0.5728
  589SOL    HW1 1766   2.029   1.400   2.506  0.4001  0.1740  1.9013
  589SOL    HW2 1767   2.188   1.385   2.565  1.0429 -1.5840 -1.1514
  590SOL     OW 1768   2.326   1.669   2.051 -0.3214 -0.3029  0.1950
  590SOL    HW1 1769   2.404   1.609   2.017 -1.5050 -0.5493 -2.0239
  590SOL    HW2 1770   2.343   1.715   2.145  3.0755 -1.2382  1.3991
  591SOL     OW 1771   1.349   2.403   0.258 -0.9656 -0.4553  0.0777
  591SOL    HW1 1772   1.442   2.418   0.216 -0.2050 -0.7243 -0.0496
  591SOL    HW2 1773   1.360   2.358   0.351 -0.9474  0.2331  0.5468
  592SOL     OW 1774   1.758   2.346   0.788 -0.0649 -0.6728 -0.5445
  592SOL    HW1 1775   1.718   2.377   0.698 -0.9035  1.4731 -1.9068
  592SOL    HW2 1776   1.861   2.339   0.775 -1.6092 -1.0241 -0.3954
  593SOL     OW 1777   0.649   0.274   0.111 -0.0729  0.5536  0.2827
  593SOL    HW1 1778   0.725   0.244   0.045  2.2891 -2.9613 -0.0288
  593SOL    HW2 1779   0.683   0.357   0.165 -1.4494  1.1199 -1.0529
  594SOL     OW 1780   0.966   1.836   2.714 -0.3818 -0.8138 -0.1175
  594SOL    HW1 1781   1.065   1.853   2.738  1.3261 -2.0465 -0.3105
  594SOL    HW2 1782   0.903   1.909   2.756  1.2001 -0.6485  0.7446
  595SOL     OW 1783   1.507   0.060   1.022 -0.0019 -0.2804 -0.3057
  595SOL    HW1 1784   1.591   0.026   0.975  0.0612  2.0963  1.3101
  595SOL    HW2 1785   1.421   0.019   0.982 -0.9365 -0.5506 -0.6286
  596SOL     OW 1786   3.072   1.485   2.237  0.3634  0.0036 -0.1043
  596SOL    HW1 1787   2.971   1.483   2.226 -2.4549  1.2590  1.2930
  596SOL    HW2 1788   3.107   1.578   2.271 -3.0654 -1.0158  2.7154
  597SOL     OW 1789   2.054   2.596   1.628 -0.3227 -0.3204 -0.7613
  597SOL    HW1 1790   2.065   2.537   1.546 -2.0785  0.7842  2.8650
  597SOL    HW2 1791   2.126   2.573   1.704 -0.7730 -1.5255 -1.2741
  598SOL     OW 1792   2.455   2.951   1.334  0.1915  0.3059 -0.0580
  598SOL    HW1 1793   2.533   2.998   1.387  0.3715  0.1982 -1.4889
  598SOL    HW2 1794   2.486   2.908   1.243 -2.9544 -0.1807  1.7701
  599SOL     OW 1795   2.927   0.424   2.481 -0.1062  0.2958  0.4806
  599SOL    HW1 1796   2.980   0.510   2.479  0.0058 -0.3468  0.2800
  599SOL    HW2 1797   2.835   0.434   2.426 -0.7754 -1.0660 -2.0077
  600SOL     OW 1798   2.809   1.109   2.716 -0.0496  0.0072  0.0305
  600SOL    HW1 1799   2.724   1.108   2.654 -1.6353  2.6143 -1.6137
  600SOL    HW2 1800   2.796   1.175   2.801  0.4412  2.1477  0.3623
  601SOL     OW 1801   2.992   1.257   1.944 -0.2346 -0.2108 -0.8648
  601SOL    HW1 1802   2.912   1.288   1.888  0.9612 -2.0076  0.5410
  601SOL    HW2 1803   3.080   1.316   1.945  0.8743  0.7792 -0.4751
  602SOL     OW 1804   1.414   1.692   2.371 -0.0269  0.3750 -0.0192
  602SOL    HW1 1805   1.362   1.600   2.369  0.5917  0.8391 -0.1269
  602SOL    HW2 1806   1.510   1.676   2.350 -2.2586  0.0421  0.5621
  603SOL     OW 1807   0.622   1.245   2.737  0.0183 -0.1495  0.4453
  603SOL    HW1 1808   0.538   1.233   2.674  0.4000  2.4563 -1.0851
  603SOL    HW2 1809   0.687   1.165   2.727 -1.5731  0.8507 -1.0826
  604SOL     OW 1810   2.420   1.005   0.155 -0.0291  0.3616  0.1662
  604SOL    HW1 1811   2.413   1.094   0.114 -0.0246 -1.2031  2.8234
  604SOL    HW2 1812   2.426   0.928   0.084  1.8269 -0.4130  1.9023
  605SOL     OW 1813   2.625   1.165   1.912 -0.5674  0.0574 -0.6871
  605SOL    HW1 1814   2.586   1.077   1.888 -1.7455 -0.0982  1.6543
  605SOL    HW2 1815   2.653   1.168   2.011  0.2985  0.6688 -1.8577
  606SOL     OW 1816   1.538   2.485   2.655  0.0430 -0.4925  0.3271
  606SOL    HW1 1817   1.443   2.533   2.640 -0.9793  2.6775 -1.7933
  606SOL    HW2 1818   1.532   2.389   2.619 -1.4148  0.6468  1.3571
  607SOL     OW 1819   1.395   1.637   0.422 -0.0156  0.6714  0.5064
  607SOL    HW1 1820   1.350   1.707   0.480  0.1241 -1.7052 -0.3286
  607SOL    HW2 1821   1.446   1.681   0.344  2.5782  0.1131  0.4523
  608SOL     OW 1822   1.453   2.824   0.388 -0.3731  0.1792 -0.1469
  608SOL    HW1 1823   1.529   2.882   0.340  2.9245  1.0180  3.7074
  608SOL    HW2 1824   1.397   2.884   0.452  0.1087  0.1008  0.8368
  609SOL     OW 1825   1.310   1.407   0.261  0.6922 -0.1175  0.0931
  609SOL    HW1 1826   1.327   1.470   0.346  0.4479 -0.3151 -1.2445
  609SOL    HW2 1827   1.234   1.441   0.206  4.3944 -0.2270 -0.1665
  610SOL     OW 1828   3.018   1.146   2.196 -0.1438 -0.1483  0.2759
  610SOL    HW1 1829   2.980   1.050   2.207  1.8628  1.4458  1.1137
  610SOL    HW2 1830   3.016   1.184   2.100 -2.4662  1.5335  0.7868
  611SOL     OW 1831   2.597   0.296   1.154  0.1299  0.2695 -0.6009
  611SOL    HW1 1832   2.551   0.209   1.194  2.8199 -1.6590 -0.0875
  611SOL    HW2 1833   2.697   0.303   1.183  0.2701 -0.5368  0.6074
  612SOL     OW 1834   0.767   2.229   1.244 -0.0898 -0.5784  0.3409
  612SOL    HW1 1835   0.684   2.173   1.273 -1.6016 -1.6258 -1.8969
  612SOL    HW2 1836   0.742   2.319   1.196 -1.5883 -0.3834 -0.8094
  613SOL     OW 1837   0.824   1.431   2.419  0.3210  0.3741 -0.1341
  613SOL    HW1 1838   0.883   1.445   2.337 -1.5383 -0.9641 -2.4728
  613SOL    HW2 1839   0.745   1.367   2.402 -1.5927  1.9271  1.6461
  614SOL     OW 1840   1.622   1.645   1.935 -0.1417  0.2397  0.2801
  614SOL    HW1 1841   1.552   1.718   1.960  0.6619  0.5465  0.3551
  614SOL    HW2 1842   1.697   1.637   2.006 -0.9980  0.0864 -0.4045
  615SOL     OW 1843   0.800   1.294   1.686  0.0554  0.1771  0.4921
  615SOL    HW1 1844   0.714   1.279   1.624 -1.2713 -1.0037  0.5018
  615SOL    HW2 1845   0.849   1.384   1.654  2.7994  2.3241 -1.8440
  616SOL     OW 1846   1.058   1.607   2.347 -0.4005  0.4010  0.1572
  616SOL    HW1 1847   1.000   1.575   2.261 -2.7885 -1.5638 -0.8387
  616SOL    HW2 1848   1.112   1.694   2.323 -0.4493  1.9123  0.3614
  617SOL     OW 1849   2.926   1.533   1.607  0.5958  0.0426 -0.4002
  617SOL    HW1 1850   2.851   1.483   1.658 -1.5801  0.0296 -1.6244
  617SOL    HW2 1851   2.964   1.490   1.517  1.8369  3.3159 -0.4000
  618SOL     OW 1852   1.957   2.041   1.317 -0.3294 -0.4621 -0.0547
  618SOL    HW1 1853   1.915   2.103   1.245  1.2491  1.0026  0.3680
  618SOL    HW2 1854   1.968   1.947   1.285 -2.8736 -1.4319  1.5978
  619SOL     OW 1855   1.759   0.467   2.363  0.0165 -0.4323 -0.7693
  619SOL    HW1 1856   1.674   0.508   2.316  0.7375  0.1747  1.4106
  619SOL    HW2 1857   1.750   0.363   2.362  1.6968  0.4589  1.3985
  620SOL     OW 1858   2.345   2.959   0.728  0.2695  0.0810 -0.9732
  620SOL    HW1 1859   2.283   3.041   0.749 -3.7109  1.7361  0.2506
  620SOL    HW2 1860   2.351   2.887   0.807  0.8495 -0.6233 -2.1800
  621SOL     OW 1861   2.129   1.786   1.300  0.0531 -0.7746  0.1948
  621SOL    HW1 1862   2.133   1.778   1.405 -0.6075  1.3891  1.0999
  621SOL    HW2 1863   2.052   1.729   1.266 -0.0454  3.8665  1.9873
  622SOL     OW 1864   2.263   0.889   1.771 -0.3741 -0.3337  0.0709
  622SOL    HW1 1865   2.358   0.887   1.734 -1.5950 -0.7483  0.2654
  622SOL    HW2 1866   2.256   0.818   1.852  1.8615 -2.7177  0.0450
  623SOL     OW 1867   1.328   0.792   2.567  0.0064  0.1903  0.8654
  623SOL    HW1 1868   1.281   0.706   2.599 -2.1129 -0.3531  1.9271
  623SOL    HW2 1869   1.267   0.827   2.492 -0.4474 -0.3922  0.1584
  624SOL     OW 1870   0.528   0.714   3.095 -0.4364  0.0277  0.0315
  624SOL    HW1 1871   0.549   0.714   2.993 -1.8787 -0.3447 -0.3006
  624SOL    HW2 1872   0.531   0.810   3.132  2.9821  3.2473 -0.2635
  625SOL     OW 1873   2.816   1.743   1.020  0.2824 -0.2859  0.3699
  625SOL    HW1 1874   2.715   1.763   1.036  0.2659  0.1921 -1.3484
  625SOL    HW2 1875   2.873   1.820   1.053 -0.3767 -0.3829 -1.6687
  626SOL     OW 1876   0.594   2.692   1.717 -0.1423  0.0987  0.4062
  626SOL    HW1 1877   0.649   2.738   1.794  1.7395  0.9156  1.8142
  626SOL    HW2 1878   0.491   2.695   1.733 -1.3761 -0.0104 -2.0578
  627SOL     OW 1879   0.682   0.949   1.536  0.1597  0.3821 -0.0476
  627SOL    HW1 1880   0.603   0.916   1.469  1.5449 -1.7169 -3.9619
  627SOL    HW2 1881   0.751   0.998   1.480  0.4486 -0.5492 -0.3642
  628SOL     OW 1882   2.505   0.129   0.662  0.1505 -0.0790 -0.1043
  628SOL    HW1 1883   2.522   0.034   0.618 -1.5882 -0.0136  2.1703
  628SOL    HW2 1884   2.402   0.136   0.684 -2.2447  0.9978 -1.7373
  629SOL     OW 1885   1.981   0.911   2.038  0.5190 -0.3739 -0.7001
  629SOL    HW1 1886   1.964   0.963   1.948 -0.2617 -1.3505 -1.2409
  629SOL    HW2 1887   1.946   0.966   2.117 -0.2647  0.7315  0.2650
  630SOL     OW 1888   2.957   2.305   0.812 -0.2308 -0.0787 -0.2766
  630SOL    HW1 1889   2.890   2.375   0.845 -1.0735 -0.4020  1.0476
  630SOL    HW2 1890   2.914   2.221   0.767  3.2821 -0.6344 -2.3496
  631SOL     OW 1891   3.065   0.188   2.155 -0.4078  0.3436 -0.4071
  631SOL    HW1 1892   3.116   0.224   2.243  1.7014 -1.9032 -0.8793
  631SOL    HW2 1893   3.073   0.259   2.082  0.7559  3.1906  0.6386
  632SOL     OW 1894   2.438   2.588   0.644 -0.6215 -0.4005 -0.0127
  632SOL    HW1 1895   2.420   2.667   0.706 -0.8494 -1.7365 -1.1007
  632SOL    HW2 1896   2.397   2.598   0.553  3.0183 -1.4269  3.6374
  633SOL     OW 1897   1.430   1.233   2.651 -0.5216 -0.3050 -0.1722
  633SOL    HW1 1898   1.413   1.310   2.716  1.4103  0.2815  1.5634
  633SOL    HW2 1899   1.349   1.218   2.590  2.1700  0.0715 -0.9212
  634SOL     OW 1900   0.658   2.005   0.857  0.3965  0.8233 -0.5937
  634SOL    HW1 1901   0.573   2.028   0.916  1.0454 -1.2290  1.0388
  634SOL    HW2 1902   0.746   2.056   0.888  1.5392 -1.9120  1.5627
  635SOL     OW 1903   2.998   2.334   0.052 -0.2128  0.0638 -0.1887
  635SOL    HW1 1904   2.930   2.384  -0.012 -1.5488  1.6108 -1.6445
  635SOL    HW2 1905   3.088   2.388   0.065  1.4016 -0.4451 -0.6176
  636SOL     OW 1906   2.338   2.757   1.929  0.0271 -0.1124  0.3753
  636SOL    HW1 1907   2.336   2.857   1.959 -1.4465  1.3623  1.0337
  636SOL    HW2 1908   2.288   2.698   1.997  0.0345  2.2410 -1.8654
  637SOL     OW 1909   2.728   0.611   1.959 -0.0290 -0.1458  0.5656
  637SOL    HW1 1910   2.636   0.623   1.902 -2.0821  1.2617 -1.7209
  637SOL    HW2 1911   2.754   0.699   2.006  0.0528  1.7964 -2.5226
  638SOL     OW 1912   2.402   1.814   1.313  0.1152 -0.0384 -0.0547
  638SOL    HW1 1913   2.300   1.805   1.295  1.6646 -1.7632 -4.3973
  638SOL    HW2 1914   2.431   1.752   1.387  0.0551 -1.5693 -0.2744
  639SOL     OW 1915   1.295   2.101   1.687  0.3086 -0.3339  0.3174
  639SOL    HW1 1916   1.356   2.181   1.665 -1.2104  0.9042  1.4149
  639SOL    HW2 1917   1.202   2.127   1.721  1.9509 -3.2094 -1.7328
  640SOL     OW 1918   0.223   1.186   1.553  0.1744 -0.2144  0.2102
  640SOL    HW1 1919   0.226   1.241   1.638 -1.5376 -0.8709 -1.8309
  640SOL    HW2 1920   0.282   1.101   1.547  0.3966  3.0609  2.1337
  641SOL     OW 1921   1.991   0.274   1.482  0.0694 -0.7038  0.2775
  641SOL    HW1 1922   1.932   0.284   1.568 -1.8552 -3.9712  0.6557
  641SOL    HW2 1923   2.087   0.244   1.500  2.3245  2.3740  1.3510
  642SOL     OW 1924   2.015   0.011   0.324  0.1399 -0.3547  0.3116
  642SOL    HW1 1925   2.115   0.026   0.349  0.1543 -0.9344  0.0224
  642SOL    HW2 1926   1.965  -0.048   0.392  1.1177 -2.4485  0.1439
  643SOL     OW 1927   2.929   1.794   2.130  0.0853 -0.3269  0.2456
  643SOL    HW1 1928   2.891   1.728   2.056  2.7823 -0.1696 -2.3803
  643SOL    HW2 1929   2.961   1.886   2.096 -0.6684 -2.3723  1.1178
  644SOL     OW 1930   2.225   2.423   1.197 -0.3812 -0.3143  0.1685
  644SOL    HW1 1931   2.268   2.338   1.161 -2.8650 -1.7264 -0.2772
  644SOL    HW2 1932   2.185   2.413   1.293 -1.0402 -0.2955 -0.8864
  645SOL     OW 1933   0.594   0.861   1.292  0.4287 -0.5355  0.2050
  645SOL    HW1 1934   0.503   0.868   1.240  3.0988  0.8040  0.3975
  645SOL    HW2 1935   0.660   0.925   1.246 -1.4674  0.6991 -0.6939
  646SOL     OW 1936   1.421   1.813   2.054 -0.6434  0.1384  0.3917
  646SOL    HW1 1937   1.479   1.894   2.028  0.3245 -0.4455  1.1178
  646SOL    HW2 1938   1.397   1.812   2.155 -3.3467  0.3314 -0.7606
  647SOL     OW 1939   0.780   1.030   0.667  0.0515 -0.1308 -0.1039
  647SOL    HW1 1940   0.825   1.066   0.747  0.3895  0.9027 -0.9155
  647SOL    HW2 1941   0.701   0.969   0.693 -2.3844  1.0098  0.7291
  648SOL     OW 1942   0.157   0.255   0.258 -0.2046  0.1720  0.4514
  648SOL    HW1 1943   0.184   0.190   0.186 -0.3115  0.8085 -1.0695
  648SOL    HW2 1944   0.145   0.353   0.223 -3.8684  0.0901  1.1882
  649SOL     OW 1945   3.003   0.234   0.863  0.5557  0.2686 -0.3274
  649SOL    HW1 1946   3.087   0.169   0.875  0.8820 -0.9933  3.8415
  649SOL    HW2 1947   3.031   0.330   0.831  0.7652  0.4530  0.3082
  650SOL     OW 1948   2.732   0.650   1.500  0.1278  0.5862 -0.0482
  650SOL    HW1 1949   2.629   0.659   1.505 -0.6222  1.1241  1.3071
  650SOL    HW2 1950   2.778   0.734   1.457  1.8028 -0.7577  1.5389
  651SOL     OW 1951   0.929   1.513   1.577 -0.1011  0.0791 -0.8307
  651SOL    HW1 1952   0.957   1.591   1.646  3.3559 -0.2226  1.7001
  651SOL    HW2 1953   0.968   1.519   1.482 -1.8952  1.0743 -0.2532
  652SOL     OW 1954   2.343   2.365   2.409  0.6446 -0.0488  0.1131
  652SOL    HW1 1955   2.252   2.409   2.428 -0.5089  0.0857 -1.9463
  652SOL    HW2 1956   2.418   2.432   2.386  0.7905  0.5189 -1.6303
  653SOL     OW 1957   2.660   1.225   0.226 -0.0062 -0.4735  0.1774
  653SOL    HW1 1958   2.705   1.318   0.230  0.7031 -2.9683  1.5826
  653SOL    HW2 1959   2.732   1.149   0.236  0.8193  1.1756 -2.1152
  654SOL     OW 1960   1.270   2.243   1.297 -0.1418  0.4433 -0.2847
  654SOL    HW1 1961   1.279   2.154   1.355 -0.5004  0.4270 -2.3286
  654SOL    HW2 1962   1.286   2.231   1.196 -1.0256  0.4280  0.5028
  655SOL     OW 1963   0.147   0.929   1.851 -0.2149 -0.1249  0.0013
  655SOL    HW1 1964   0.221   0.868   1.804  0.0191  1.1772 -1.1543
  655SOL    HW2 1965   0.174   1.029   1.850 -0.3735 -0.3536 -2.4083
  656SOL     OW 1966   2.542   2.440   2.617 -0.0599 -0.1594 -0.3439
  656SOL    HW1 1967   2.633   2.426   2.565  1.8480 -0.5897 -1.0805
  656SOL    HW2 1968   2.466   2.381   2.574  1.4408 -1.6878  1.3321
  657SOL     OW 1969   2.994   0.980   1.916 -0.5883  0.2296  0.7225
  657SOL    HW1 1970   2.993   1.080   1.943 -2.4657 -2.0331  1.4217
  657SOL    HW2 1971   3.088   0.953   1.887 -1.5912 -0.6782 -1.0356
  658SOL     OW 1972   1.705   0.177   2.380 -0.1830 -0.0312  0.0115
  658SOL    HW1 1973   1.730   0.097   2.445 -1.0410  1.1296 -0.3478
  658SOL    HW2 1974   1.723   0.155   2.282  0.8785 -1.5044 -0.6718
  659SOL     OW 1975   1.387   0.630   2.823 -0.2903  0.4325  0.0955
  659SOL    HW1 1976   1.461   0.702   2.856  1.7959  0.5350 -0.5227
  659SOL    HW2 1977   1.291   0.666   2.820 -0.5027 -0.7218  1.5879
  660SOL     OW 1978   1.378   0.326   1.453  1.0304  0.5337  0.3007
  660SOL    HW1 1979   1.402   0.347   1.554  2.1725  1.3190  1.8819
  660SOL    HW2 1980   1.449   0.255   1.415 -0.5363 -0.3803 -1.0008
  661SOL     OW 1981   2.331   1.211   0.682 -0.0838 -0.1611 -0.5609
  661SOL    HW1 1982   2.354   1.188   0.586 -0.6978 -1.6883  1.2609
  661SOL    HW2 1983   2.319   1.313   0.707  0.7825 -0.9321  0.0203
  662SOL     OW 1984   1.374   0.399   1.726 -0.1660 -0.3218 -0.6272
  662SOL    HW1 1985   1.324   0.322   1.773 -0.0514  0.2929 -0.5047
  662SOL    HW2 1986   1.340   0.496   1.750 -0.8913  0.3258  1.4529
  663SOL     OW 1987   0.877   1.572   2.134  0.0966 -0.3204 -0.1710
  663SOL    HW1 1988   0.820   1.635   2.179 -0.2125 -3.2875  0.5069
  663SOL    HW2 1989   0.827   1.502   2.074 -2.1655 -0.2577 -1.8610
  664SOL     OW 1990   1.634   2.079   1.392 -0.2121  0.3155 -0.3689
  664SOL    HW1 1991   1.576   2.016   1.449 -1.8251  0.1535  1.0938
  664SOL    HW2 1992   1.723   2.034   1.362 -3.8622 -0.2647 -1.3414
  665SOL     OW 1993   2.267   0.709   1.978 -0.7594  0.4334 -0.0271
  665SOL    HW1 1994   2.169   0.684   1.992 -1.7707 -2.2161 -0.4120
  665SOL    HW2 1995   2.327   0.688   2.063 -1.8098 -1.6128  1.0098
  666SOL     OW 1996   0.494   2.318   0.315 -0.2002  0.0832 -0.2604
  666SOL    HW1 1997   0.557   2.354   0.392  2.0820  0.5080  1.1359
  666SOL    HW2 1998   0.393   2.312   0.343 -0.5747  0.3147 -2.4355
  667SOL     OW 1999   2.013   0.200   1.090  1.0513 -0.4490  0.2685
  667SOL    HW1 2000   2.038   0.303   1.097 -1.8977 -0.5467  0.8751
  667SOL    HW2 2001   1.942   0.170   1.161  2.1826 -1.6047  1.0112
  668SOL     OW 2002   2.043   0.468   1.159  0.5565 -0.0188  0.3374
  668SOL    HW1 2003   2.104   0.503   1.079  0.6797 -1.8096  3.2268
  668SOL    HW2 2004   2.086   0.475   1.255 -0.7640  0.4403  1.3598
  669SOL     OW 2005   3.092   2.139   1.003  0.1395 -0.6017 -0.1895
  669SOL    HW1 2006   3.047   2.200   0.931  1.1198 -0.2216  0.6632
  669SOL    HW2 2007   3.098   2.187   1.092  0.4693 -2.4699 -3.0523
  670SOL     OW 2008   2.888   2.313   2.092 -0.4973  0.1344 -0.1533
  670SOL    HW1 2009   2.807   2.286   2.144  1.6035 -0.5656 -0.6591
  670SOL    HW2 2010   2.883   2.410   2.053  0.7493  0.5984  1.2524
  671SOL     OW 2011   1.759   1.807   1.450 -0.3240 -0.4836  0.0227
  671SOL    HW1 2012   1.762   1.794   1.349 -1.1788 -1.1213  1.1655
  671SOL    HW2 2013   1.664   1.825   1.486 -2.0678  1.4281 -2.5689
  672SOL     OW 2014   0.435   0.631   2.384 -0.2589 -0.3040 -0.4559
  672SOL    HW1 2015   0.474   0.623   2.288  0.0008 -1.1460  0.0983
  672SOL    HW2 2016   0.354   0.694   2.389 -0.2358  2.0287  1.7037
  673SOL     OW 2017   0.157   1.197   1.160  0.0817  0.5150 -0.1442
  673SOL    HW1 2018   0.200   1.264   1.225 -0.0527  0.6266  0.3978
  673SOL    HW2 2019   0.227   1.142   1.110 -1.7322 -0.5004  1.4099
  674SOL     OW 2020   1.668   2.995   0.320  0.6685  0.1067  0.0520
  674SOL    HW1 2021   1.622   3.090   0.300 -1.8134  2.3428 -0.5505
  674SOL    HW2 2022   1.766   2.994   0.293 -0.0706  1.9797 -2.6047
  675SOL     OW 2023   1.736   0.808   2.257 -0.2173  0.0171  0.1871
  675SOL    HW1 2024   1.833   0.776   2.281  1.1403  0.0002  0.9201
  675SOL    HW2 2025   1.672   0.725   2.239  1.7009 -0.7670 -0.3523
  676SOL     OW 2026   2.538   1.484   1.928  0.1060 -0.0703 -0.2131
  676SOL    HW1 2027   2.481   1.441   1.855  0.6421  3.7792  1.5232
  676SOL    HW2 2028   2.558   1.420   2.007  0.2888 -0.8283  2.6641
  677SOL     OW 2029   1.917   0.704   0.932 -0.1492 -0.9782  0.1756
  677SOL    HW1 2030   1.823   0.669   0.971 -1.5860  1.4576 -1.8330
  677SOL    HW2 2031   2.003   0.659   0.971 -2.0121  0.5051 -0.1362
  678SOL     OW 2032   0.069   0.749   1.610  0.1064 -0.3323  0.3479
  678SOL    HW1 2033   0.169   0.748   1.632 -1.2606 -0.8511 -0.1608
  678SOL    HW2 2034   0.012   0.715   1.691  0.4253 -1.0372  0.9252
  679SOL     OW 2035   2.515   1.200   1.216 -0.1861  0.6666  0.1869
  679SOL    HW1 2036   2.418   1.233   1.200 -1.9182  2.7734  0.8749
  679SOL    HW2 2037   2.533   1.098   1.193 -0.0471 -0.2519 -0.6459
  680SOL     OW 2038   2.821   0.467   1.704 -0.2704  0.4881  0.1439
  680SOL    HW1 2039   2.779   0.532   1.630 -0.2107 -1.1948  0.9959
  680SOL    HW2 2040   2.904   0.512   1.741 -2.0525 -0.0730  0.8706
  681SOL     OW 2041   2.976   0.117   1.605  0.0041  0.3188 -0.2731
  681SOL    HW1 2042   3.029   0.110   1.514 -0.0764  1.7963 -0.4765
  681SOL    HW2 2043   2.885   0.170   1.590  2.0303 -1.4308  3.0872
  682SOL     OW 2044   0.740   0.063   1.342  0.5884  0.7014 -0.0071
  682SOL    HW1 2045   0.666   0.001   1.389  0.0201 -0.9619 -0.2851
  682SOL    HW2 2046   0.772   0.014   1.251 -0.5261  1.4480 -1.0583
  683SOL     OW 2047   1.392   0.213   2.177 -0.1961  0.4849  0.3515
  683SOL    HW1 2048   1.418   0.231   2.279  1.8156  3.1090 -1.1047
  683SOL    HW2 2049   1.456   0.258   2.105  1.0900 -1.5767  0.8790
  684SOL     OW 2050   1.465   2.057   0.468  0.9118  0.2211 -0.0102
  684SOL    HW1 2051   1.503   1.993   0.541 -3.6250  0.1883 -0.2592
  684SOL    HW2 2052   1.369   2.032   0.443  0.5951 -1.6894 -0.2888
  685SOL     OW 2053   2.195   2.107   1.939 -0.3984 -0.6938 -0.5257
  685SOL    HW1 2054   2.247   2.106   1.847  3.0319  0.1700  0.4328
  685SOL    HW2 2055   2.251   2.061   2.010 -2.5915  4.2526 -1.6142
  686SOL     OW 2056   1.491   1.845   2.774 -0.0057  0.2400 -0.1290
  686SOL    HW1 2057   1.527   1.788   2.852 -1.1203 -2.2727 -1.5122
  686SOL    HW2 2058   1.393   1.832   2.750  2.4656 -3.0344 -3.0493
  687SOL     OW 2059   1.353   2.473   1.967  0.1764  0.4004 -0.1980
  687SOL    HW1 2060   1.323   2.375   1.954 -2.6261  0.5300 -0.2351
  687SOL    HW2 2061   1.403   2.486   2.060 -0.7995  1.4227 -0.0506
  688SOL     OW 2062   2.010   1.518   1.774 -0.1316 -0.3233  0.5568
  688SOL    HW1 2063   2.087   1.587   1.760  1.5602 -2.5037 -2.7824
  688SOL    HW2 2064   1.980   1.465   1.687 -1.3451  1.6153  1.0391
  689SOL     OW 2065   2.393   1.066   2.795  0.0531 -0.1247  0.5951
  689SOL    HW1 2066   2.305   1.013   2.785  0.3296 -0.0622 -1.0517
  689SOL    HW2 2067   2.437   1.039   2.884  3.3499 -1.0387 -1.6574
  690SOL     OW 2068   2.216   2.816   0.058  0.2873  0.4012  0.3551
  690SOL    HW1 2069   2.131   2.768   0.010 -1.2333 -1.9549 -0.6212
  690SOL    HW2 2070   2.214   2.805   0.163  0.1619  3.6311 -1.7704
  691SOL     OW 2071   2.631   0.409   2.119  0.0013  0.0809  0.2814
  691SOL    HW1 2072   2.683   0.316   2.100  1.3548 -2.7713 -0.6954
  691SOL    HW2 2073   2.665   0.483   2.054  1.2774  1.3989  0.9512
  692SOL     OW 2074   2.694   1.234   0.741  0.0772  0.7080  0.5548
  692SOL    HW1 2075   2.599   1.241   0.702 -0.5454  0.0769 -2.8769
  692SOL    HW2 2076   2.731   1.322   0.780  1.2397  1.0463 -4.7533
  693SOL     OW 2077   2.817   2.925   0.638  0.2539 -0.7821  0.2584
  693SOL    HW1 2078   2.827   2.997   0.713 -0.7327  1.3396 -0.1701
  693SOL    HW2 2079   2.774   2.967   0.554 -0.3298  1.9870  2.4006
  694SOL     OW 2080   2.402   2.245   0.076  0.4018 -0.5148 -0.1578
  694SOL    HW1 2081   2.403   2.318   0.148 -1.5479  2.8394 -2.7323
  694SOL    HW2 2082   2.315   2.186   0.074 -0.6125 -3.5473  2.1126
  695SOL     OW 2083   0.570   3.005   1.494 -0.3309 -0.3599 -0.1096
  695SOL    HW1 2084   0.501   2.936   1.455  1.1057 -0.3704 -1.8674
  695SOL    HW2 2085   0.521   3.072   1.556 -0.6400 -1.1818  2.0819
  696SOL     OW 2086   2.817   2.073   0.753  0.2870 -0.2190 -0.6795
  696SOL    HW1 2087   2.883   1.991   0.754  1.1400  0.5409 -1.9587
  696SOL    HW2 2088   2.788   2.090   0.654  1.3245 -0.5461 -3.1262
  697SOL     OW 2089   1.599   1.990   1.839 -0.5799  0.1321  0.3729
  697SOL    HW1 2090   1.672   1.918   1.863  0.1490 -2.4063  1.8006
  697SOL    HW2 2091   1.630   2.091   1.846 -1.3383  0.2745  0.3908
  698SOL     OW 2092   2.919   0.397   2.759  0.7039 -0.0776  0.3227
  698SOL    HW1 2093   2.939   0.397   2.659  2.6645  1.4621 -0.8146
  698SOL    HW2 2094   2.984   0.352   2.828 -2.0119 -1.6691  2.3424
  699SOL     OW 2095   1.558   0.061   2.917 -0.0354 -0.0144 -0.0939
  699SOL    HW1 2096   1.508  -0.021   2.884  2.2032 -0.2716  1.2777
  699SOL    HW2 2097   1.586   0.119   2.834  0.8680 -0.8439 -0.1497
  700SOL     OW 2098   0.992   2.344   1.361  0.0057 -0.3102 -0.8801
  700SOL    HW1 2099   1.081   2.311   1.325 -2.8541 -1.6976 -1.9492
  700SOL    HW2 2100   0.914   2.280   1.326 -1.5698 -2.2009  2.5368
  701SOL     OW 2101   1.913   2.929   3.069 -0.5002  0.5280  0.1726
  701SOL    HW1 2102   1.882   2.857   3.135  2.6898 -2.2560  1.2227
  701SOL    HW2 2103   1.946   3.017   3.110 -0.5718  1.0884  0.0911
  702SOL     OW 2104   2.091   1.339   1.956 -0.1778  0.0492  0.0705
  702SOL    HW1 2105   2.171   1.276   1.938 -0.0752 -1.8316  0.8350
  702SOL    HW2 2106   2.077   1.420   1.887 -0.5701 -0.3146 -1.9403
  703SOL     OW 2107   1.935   0.920   1.454  0.4758 -0.0349 -0.0238
  703SOL    HW1 2108   1.888   0.852   1.517  1.6313 -1.4112  0.6170
  703SOL    HW2 2109   2.005   0.981   1.498  0.3886  1.0967  0.6009
  704SOL     OW 2110   0.303   2.022   1.707  0.0178  0.5430 -0.6658
  704SOL    HW1 2111   0.356   1.969   1.780  0.9680  1.8966  0.5293
  704SOL    HW2 2112   0.350   2.110   1.683 -1.7815 -1.8246 -2.6715
  705SOL     OW 2113   2.523   1.546   0.863 -0.4396  0.3176  0.1360
  705SOL    HW1 2114   2.453   1.481   0.826  0.0219  0.4051 -1.0489
  705SOL    HW2 2115   2.617   1.503   0.885  0.0212 -2.6391  0.0653
  706SOL     OW 2116   0.683   1.711   1.896 -0.6175  0.0279  0.3518
  706SOL    HW1 2117   0.714   1.615   1.904 -0.3035 -1.1032  0.6100
  706SOL    HW2 2118   0.732   1.775   1.962  2.4230  0.1865 -2.5234
  707SOL     OW 2119   2.285   1.171   1.875  0.0427 -0.1161 -0.3678
  707SOL    HW1 2120   2.386   1.172   1.885  0.5089  2.2468  2.7400
  707SOL    HW2 2121   2.245   1.075   1.869 -0.5250 -0.1079  1.0967
  708SOL     OW 2122   3.009   0.546   3.054  0.3921  0.8310  0.3918
  708SOL    HW1 2123   2.999   0.617   2.982  3.3267 -0.7153 -2.2891
  708SOL    HW2 2124   3.003   0.449   3.014 -1.9538 -1.3912  0.5881
  709SOL     OW 2125   1.846   1.846   0.276  0.4991 -0.6447  0.1784
  709SOL    HW1 2126   1.898   1.929   0.301 -1.8983 -1.8215 -0.9254
  709SOL    HW2 2127   1.835   1.839   0.172 -3.3723  1.2135  1.9979
  710SOL     OW 2128   1.685   1.616   2.374 -0.1151 -0.2535  0.0315
  710SOL    HW1 2129   1.763   1.579   2.318  0.6776  2.1811 -1.8495
  710SOL    HW2 2130   1.675   1.571   2.469 -1.9425  0.2087  0.6259
  711SOL     OW 2131   2.598   2.945   1.074 -0.6870 -0.2011 -0.6218
  711SOL    HW1 2132   2.580   3.041   1.041  1.4001  1.6900  0.3428
  711SOL    HW2 2133   2.695   2.918   1.057  1.2883  0.9001  0.5519
  712SOL     OW 2134   1.377   2.183   1.971  0.0564 -0.0676 -0.2840
  712SOL    HW1 2135   1.473   2.230   1.970 -0.2982  1.7946 -2.4262
  712SOL    HW2 2136   1.346   2.153   1.875 -0.2598  0.5587 -0.0134
  713SOL     OW 2137   2.804   1.457   2.512  0.1387 -0.6750  0.2921
  713SOL    HW1 2138   2.803   1.363   2.465  2.2808 -1.7740 -1.8053
  713SOL    HW2 2139   2.711   1.493   2.543  0.2264 -1.1897  1.8070
  714SOL     OW 2140   2.669   0.450   2.397  0.0340  0.1801 -0.7094
  714SOL    HW1 2141   2.600   0.427   2.477  0.4041  1.3187  1.8504
  714SOL    HW2 2142   2.634   0.420   2.302  0.5469  0.7384 -0.7963
  715SOL     OW 2143   1.553   2.015   1.107  0.1654 -0.2403 -0.0767
  715SOL    HW1 2144   1.465   2.069   1.079 -1.8534 -1.5902  0.4563
  715SOL    HW2 2145   1.575   2.033   1.204 -1.2748 -0.6216 -0.3337
  716SOL     OW 2146   1.188   0.155   1.515 -0.6447  0.0818 -0.5041
  716SOL    HW1 2147   1.102   0.178   1.466  4.2039 -0.9715  3.8713
  716SOL    HW2 2148   1.262   0.224   1.488 -2.7689  1.3914 -2.4115
  717SOL     OW 2149   1.176   0.573   1.544 -0.0335  0.1077 -0.1293
  717SOL    HW1 2150   1.262   0.619   1.577 -1.7984 -0.5625 -2.5749
  717SOL    HW2 2151   1.163   0.562   1.444  1.3626 -1.4647  0.2098
  718SOL     OW 2152   0.696   0.869   0.993 -0.1654  0.7552  0.1642
  718SOL    HW1 2153   0.660   0.856   0.896  0.6604 -1.5642 -0.0283
  718SOL    HW2 2154   0.673   0.961   1.033 -0.7923 -0.8034 -3.4048
  719SOL     OW 2155   0.667   1.685   2.338 -0.7198  0.0917  0.4220
  719SOL    HW1 2156   0.737   1.744   2.390 -1.5441  1.5408  2.1565
  719SOL    HW2 2157   0.570   1.678   2.389 -0.8806  0.1630  2.6743
  720SOL     OW 2158   2.182   1.112   0.274  0.0638  0.1346  0.5313
  720SOL    HW1 2159   2.229   1.040   0.212 -2.8014 -0.0043  0.4065
  720SOL    HW2 2160   2.165   1.075   0.370  0.5975  1.9806 -1.8146
  721SOL     OW 2161   2.294   3.017   2.066  0.4016 -0.1196 -0.2287
  721SOL    HW1 2162   2.236   3.047   1.986 -2.9516 -0.8166  1.6370
  721SOL    HW2 2163   2.253   3.041   2.163  0.0495 -0.0812  0.9787
  722SOL     OW 2164   2.274   1.596   0.501 -0.0573 -0.3618  0.8892
  722SOL    HW1 2165   2.334   1.537   0.440  1.5197  0.1389 -0.4814
  722SOL    HW2 2166   2.197   1.640   0.443  0.4621  1.8217 -2.6464
  723SOL     OW 2167   2.631   2.706   1.896 -0.6902  0.6050 -0.1719
  723SOL    HW1 2168   2.669   2.790   1.949 -0.9714  1.4520  2.4467
  723SOL    HW2 2169   2.527   2.700   1.904 -0.1398 -0.9678  0.4678
  724SOL     OW 2170   0.488   2.501   2.402  0.4196 -0.6684 -0.2177
  724SOL    HW1 2171   0.392   2.511   2.447  0.1423  1.3346  3.0689
  724SOL    HW2 2172   0.563   2.507   2.473 -0.1757  0.0899 -0.8573
  725SOL     OW 2173   2.344   2.741   1.481 -0.3170  0.4010 -0.0515
  725SOL    HW1 2174   2.411   2.810   1.430  1.4283  1.5704 -2.3852
  725SOL    HW2 2175   2.388   2.645   1.501 -0.2847 -0.8618  0.2477
  726SOL     OW 2176   2.516   2.333   0.731 -0.2519  0.3098 -0.2842
  726SOL    HW1 2177   2.504   2.430   0.691  1.9010  2.9233 -2.3734
  726SOL    HW2 2178   2.484   2.259   0.666  2.9716  1.3800  1.9031
  727SOL     OW 2179   0.172   3.054   0.073 -0.4269  0.1900 -0.1846
  727SOL    HW1 2180   0.225   2.962   0.071 -1.8251 -1.6150  1.6235
  727SOL    HW2 2181   0.081   3.048   0.027 -0.0234  0.1169  0.7984
  728SOL     OW 2182   2.903   0.659   0.916  0.9620 -0.5283  0.1514
  728SOL    HW1 2183   2.835   0.684   0.842  1.6748  0.3657 -0.2255
  728SOL    HW2 2184   2.865   0.642   1.010  0.0999  1.9719 -0.0373
  729SOL     OW 2185   3.077   2.533   0.716 -0.5084  0.2736 -0.0459
  729SOL    HW1 2186   3.046   2.444   0.766 -1.2424 -0.8147  1.1174
  729SOL    HW2 2187   3.169   2.521   0.678  0.7799  1.6674 -0.7077
  730SOL     OW 2188   2.612   0.688   0.861  0.4341  0.2712 -0.0275
  730SOL    HW1 2189   2.583   0.782   0.884  0.2423 -0.5722  0.4097
  730SOL    HW2 2190   2.655   0.683   0.767 -0.2831 -1.2405 -0.8336
  731SOL     OW 2191   0.020   2.139   2.415 -0.4297 -0.3412 -0.0213
  731SOL    HW1 2192   0.055   2.236   2.428  1.8443 -0.2357 -1.6049
  731SOL    HW2 2193  -0.083   2.127   2.411 -0.5602  0.0149  1.1979
  732SOL     OW 2194   1.221   2.827   1.980  0.2563 -0.4329  0.1131
  732SOL    HW1 2195   1.178   2.777   2.063 -0.8890  1.7043  2.1317
  732SOL    HW2 2196   1.220   2.764   1.896  1.6451 -0.8346 -1.2005
  733SOL     OW 2197   3.004   0.620   2.231 -0.2713 -0.0140 -0.0851
  733SOL    HW1 2198   3.106   0.604   2.242  2.7287  0.3456  2.4932
  733SOL    HW2 2199   2.963   0.555   2.158  0.6099  0.6045  0.1315
  734SOL     OW 2200   1.397   0.376   2.709  0.1368  0.1401  0.3029
  734SOL    HW1 2201   1.387   0.468   2.752  0.7953 -0.8223 -1.1392
  734SOL    HW2 2202   1.339   0.300   2.748  0.6493 -0.0382 -1.1754
  735SOL     OW 2203   2.899   2.631   2.303 -0.2580  0.2468  0.4155
  735SOL    HW1 2204   2.890   2.631   2.200 -0.2068  1.6960 -1.2995
  735SOL    HW2 2205   2.981   2.686   2.329  1.0945 -0.1535  0.0214
  736SOL     OW 2206   0.910   0.385   2.579 -0.6271 -0.4238  0.4157
  736SOL    HW1 2207   0.837   0.446   2.542  0.1465 -1.9305 -2.0215
  736SOL    HW2 2208   0.911   0.299   2.518 -3.0242  1.6447 -1.1802
  737SOL     OW 2209   2.649   0.441   2.807 -0.1781 -0.1325  0.6142
  737SOL    HW1 2210   2.645   0.430   2.908  1.3032 -2.1190 -1.1188
  737SOL    HW2 2211   2.750   0.433   2.776  0.1858  1.5171  1.0697
  738SOL     OW 2212   1.690   1.245   2.891 -0.6125  0.2521  0.2338
  738SOL    HW1 2213   1.795   1.247   2.871 -0.3646 -2.3552  1.5591
  738SOL    HW2 2214   1.644   1.155   2.859  0.1508 -0.9575 -1.4501
  739SOL     OW 2215   1.764   0.727   0.672 -0.0516  0.3014  0.3382
  739SOL    HW1 2216   1.805   0.728   0.764 -2.5283 -0.9543  1.3199
  739SOL    HW2 2217   1.751   0.630   0.642 -2.0587  1.1620  0.1581
  740SOL     OW 2218   1.984   1.940   2.377  0.1865  0.3808 -0.0701
  740SOL    HW1 2219   2.041   1.859   2.418  1.0547  1.9801  1.6092
  740SOL    HW2 2220   1.901   1.919   2.323  1.3380  2.8537 -0.3106
  741SOL     OW 2221   2.585   0.151   2.520 -0.3108  0.0493  0.4896
  741SOL    HW1 2222   2.685   0.132   2.534 -3.3042  0.6775  1.6251
  741SOL    HW2 2223   2.548   0.137   2.422  1.2281  0.0804 -1.2508
  742SOL     OW 2224   2.185   1.384   0.174  0.0610 -0.0542  0.1386
  742SOL    HW1 2225   2.096   1.417   0.132 -0.5266  0.6938  0.6430
  742SOL    HW2 2226   2.160   1.291   0.208 -1.3864  0.3315  0.4543
  743SOL     OW 2227   1.769   0.601   2.603  0.1116  0.1264 -0.3334
  743SOL    HW1 2228   1.763   0.535   2.525  1.1760  1.3909  1.2490
  743SOL    HW2 2229   1.697   0.686   2.600  3.8254  1.0959 -0.5033
  744SOL     OW 2230   2.666   2.018   0.088 -0.4767  0.1044  0.2623
  744SOL    HW1 2231   2.579   2.066   0.104  0.0851  0.9720  1.2045
  744SOL    HW2 2232   2.672   1.932   0.137 -1.6509  4.4713 -1.0027
  745SOL     OW 2233   2.165   2.632   2.159  0.1033  0.3684  0.2954
  745SOL    HW1 2234   2.067   2.656   2.188 -2.3216 -2.0256 -1.2012
  745SOL    HW2 2235   2.246   2.671   2.214  0.7002 -1.7030  2.3670
  746SOL     OW 2236  -0.003   2.646   1.718  0.0273 -0.3908 -0.4567
  746SOL    HW1 2237   0.072   2.577   1.716 -3.1552  0.7687  1.7668
  746SOL    HW2 2238   0.012   2.717   1.791  2.0066 -2.6539  0.4566
  747SOL     OW 2239   3.062   1.745   1.718  0.0550 -0.0787  0.7449
  747SOL    HW1 2240   3.027   1.654   1.685  2.6038 -1.1799  0.8177
  747SOL    HW2 2241   3.140   1.782   1.651  1.3431 -2.2734 -0.2646
  748SOL     OW 2242   1.805   2.711   2.894 -0.0302 -0.3286 -0.3462
  748SOL    HW1 2243   1.843   2.794   2.942 -0.4595  0.6029  0.7885
  748SOL    HW2 2244   1.704   2.724   2.880  1.4927  0.3370  0.7557
  749SOL     OW 2245   1.348   3.015   0.862  0.1752  0.1136  0.1437
  749SOL    HW1 2246   1.252   2.984   0.863  1.8189  0.9758  0.3181
  749SOL    HW2 2247   1.413   2.950   0.803  0.3253  1.7819 -1.0139
  750SOL     OW 2248   2.316   0.215   1.838  0.1519 -0.5666 -0.0068
  750SOL    HW1 2249   2.346   0.275   1.763 -1.1528  0.6935  0.3504
  750SOL    HW2 2250   2.287   0.263   1.928 -1.3159 -0.3654  0.5804
  751SOL     OW 2251   0.811   2.016   2.833 -0.0110 -0.0396 -0.5351
  751SOL    HW1 2252   0.873   2.079   2.892  1.0276 -0.7010 -0.5506
  751SOL    HW2 2253   0.711   2.012   2.868  1.2170  4.5304 -1.3828
  752SOL     OW 2254   1.326   0.800   1.269  0.3897 -0.4966 -0.0236
  752SOL    HW1 2255   1.374   0.894   1.264 -0.7305  1.6195  1.3697
  752SOL    HW2 2256   1.388   0.732   1.320 -0.0273 -1.0484 -0.9190
  753SOL     OW 2257   0.940   2.624   1.782 -0.0868 -0.1729 -0.8111
  753SOL    HW1 2258   1.047   2.636   1.769  0.5201 -1.7298 -0.4295
  753SOL    HW2 2259   0.896   2.706   1.825 -0.8575 -0.0699 -1.5233
  754SOL     OW 2260   1.153   1.166   3.005  0.1948  0.0398 -0.3846
  754SOL    HW1 2261   1.193   1.098   2.943 -0.6746  3.4279 -0.1657
  754SOL    HW2 2262   1.212   1.247   3.023 -1.7801 -1.4886 -0.9161
  755SOL     OW 2263   2.002   0.508   2.226 -0.6226  0.3269 -0.2288
  755SOL    HW1 2264   2.063   0.430   2.263 -1.3476 -0.9903  0.5557
  755SOL    HW2 2265   1.906   0.494   2.252  1.1710 -2.0256 -2.5197
  756SOL     OW 2266   2.583   0.982   2.973 -0.1591  0.2957 -0.1993
  756SOL    HW1 2267   2.675   0.949   2.933  1.7193 -2.3838  2.4209
  756SOL    HW2 2268   2.529   0.907   3.024  0.8853  0.0619 -0.7457
  757SOL     OW 2269   0.089   0.470   1.999  0.3126  0.4334 -0.2257
  757SOL    HW1 2270   0.130   0.395   1.947 -1.3601  4.2922  2.7920
  757SOL    HW2 2271  -0.012   0.454   2.012  0.2249  0.2423 -1.6709
  758SOL     OW 2272   2.257   0.132   1.467 -0.1847  0.1169  0.1030
  758SOL    HW1 2273   2.210   0.043   1.481 -0.7163  0.4015  0.2215
  758SOL    HW2 2274   2.295   0.141   1.372 -1.3859  0.8564  0.7399
  759SOL     OW 2275   1.662   0.118   0.049  0.2593 -0.1552 -0.1259
  759SOL    HW1 2276   1.628   0.095  -0.048 -1.0464 -1.2232 -1.6333
  759SOL    HW2 2277   1.764   0.138   0.055 -1.9846  2.0748  0.9560
  760SOL     OW 2278   2.618   2.058   2.825  0.1528  0.6529 -0.0845
  760SOL    HW1 2279   2.667   1.982   2.879 -1.5371  0.4596 -0.5753
  760SOL    HW2 2280   2.594   2.142   2.885 -2.7293  1.3155  1.0206
  761SOL     OW 2281   1.859   1.770   1.710  0.6942 -0.1402 -0.2963
  761SOL    HW1 2282   1.862   1.676   1.762 -2.6085 -1.9592  1.9789
  761SOL    HW2 2283   1.794   1.777   1.629 -2.0080 -0.1548 -0.5732
  762SOL     OW 2284   0.493   2.349   0.963 -0.1102 -0.2323 -0.1103
  762SOL    HW1 2285   0.524   2.360   0.863 -0.7545  1.4874  0.7776
  762SOL    HW2 2286   0.549   2.405   1.028 -0.0076 -0.1447 -0.5054
  763SOL     OW 2287   2.082   1.588   2.977  0.0267 -0.2273 -0.2983
  763SOL    HW1 2288   2.183   1.564   2.996  3.4375 -2.0795 -0.1148
  763SOL    HW2 2289   2.018   1.543   3.048 -2.4032  0.1737 -0.2832
  764SOL     OW 2290   0.675   0.580   0.760 -0.6436  0.9667  0.7455
  764SOL    HW1 2291   0.597   0.513   0.753 -0.7849 -1.0768 -0.2259
  764SOL    HW2 2292   0.747   0.553   0.835  1.0866  0.0823 -1.1668
  765SOL     OW 2293   0.750   0.228   0.792 -0.0890  0.0166  0.3018
  765SOL    HW1 2294   0.808   0.281   0.728  0.1122 -0.7508  1.4148
  765SOL    HW2 2295   0.686   0.289   0.855  0.7552 -2.5930  1.0651
  766SOL     OW 2296   2.862   2.130   3.006 -0.0215  0.0513  0.6404
  766SOL    HW1 2297   2.783   2.104   3.069 -2.6612 -0.5712  0.5614
  766SOL    HW2 2298   2.916   2.208   3.046  0.8728  0.0510 -1.0523
  767SOL     OW 2299   2.792   1.675   0.592  0.2028 -0.4076  0.1263
  767SOL    HW1 2300   2.685   1.695   0.598 -1.6136 -0.1179 -0.3151
  767SOL    HW2 2301   2.856   1.746   0.633  1.0249  0.9488 -0.9044
  768SOL     OW 2302   0.983   0.088   0.210 -0.8094  0.7286 -0.0032
  768SOL    HW1 2303   0.951   0.092   0.310 -1.6206 -0.8338  2.3271
  768SOL    HW2 2304   1.088   0.091   0.196 -2.8522 -2.9561 -2.1191
  769SOL     OW 2305   1.125   1.888   2.321 -0.1967  0.5861 -0.4779
  769SOL    HW1 2306   1.024   1.910   2.331  0.6162 -1.0663 -1.7338
  769SOL    HW2 2307   1.177   1.878   2.412  1.0202 -1.5510  1.2374
  770SOL     OW 2308   0.190   1.199   2.297  0.0849  0.2560 -0.1171
  770SOL    HW1 2309   0.177   1.267   2.377 -0.5264  0.1915 -1.6982
  770SOL    HW2 2310   0.103   1.172   2.250  1.0213  0.7308 -1.7709
  771SOL     OW 2311   3.043   2.850   1.904 -0.3712  0.6393 -0.6758
  771SOL    HW1 2312   3.002   2.882   1.813 -1.5002  1.1086 -0.2962
  771SOL    HW2 2313   3.003   2.887   1.990  0.5041  2.0564 -0.4263
  772SOL     OW 2314   2.234   0.143   2.925 -0.3745  0.0948  0.2974
  772SOL    HW1 2315   2.313   0.113   2.864 -0.7154 -0.4457 -1.8719
  772SOL    HW2 2316   2.266   0.211   2.991  1.8533 -2.2310 -1.2113
  773SOL     OW 2317   0.666   2.120   2.406  0.0860  0.3490 -0.2107
  773SOL    HW1 2318   0.649   2.166   2.317  0.8689 -1.2176 -0.8887
  773SOL    HW2 2319   0.606   2.149   2.484  3.0540  1.9695  4.6061
  774SOL     OW 2320   2.063   0.014   2.602  0.4438 -0.2601 -0.4056
  774SOL    HW1 2321   2.031   0.104   2.653 -1.4184  0.4890  1.0212
  774SOL    HW2 2322   2.102  -0.052   2.668 -4.2424  2.0487 -0.2925
  775SOL     OW 2323   2.575   2.943   2.302 -0.5884 -0.1866 -0.1977
  775SOL    HW1 2324   2.552   3.037   2.330 -0.9463  0.7549 -1.8033
  775SOL    HW2 2325   2.654   2.901   2.355 -1.0103  1.4350 -1.6758
  776SOL     OW 2326   0.008   1.259   0.224  0.4835  0.0065  0.6360
  776SOL    HW1 2327  -0.053   1.221   0.147 -0.2458 -1.2321  2.6454
  776SOL    HW2 2328  -0.043   1.269   0.312 -0.0506 -0.4798  0.9007
  777SOL     OW 2329   0.380   2.859   0.340 -0.0723 -0.5976  0.2840
  777SOL    HW1 2330   0.279   2.878   0.313 -1.0416 -0.6682  0.7071
  777SOL    HW2 2331   0.452   2.893   0.267  3.4066 -2.1833 -0.2498
  778SOL     OW 2332   1.352   1.986   0.166  0.0587  0.1997 -0.2920
  778SOL    HW1 2333   1.273   1.987   0.236 -0.6344  0.4761 -0.5753
  778SOL    HW2 2334   1.364   2.076   0.121 -0.9279 -0.9030  2.5725
  779SOL     OW 2335   0.200   0.876   0.518 -0.6873 -0.2300  0.4336
  779SOL    HW1 2336   0.169   0.780   0.488 -0.2248 -1.6071 -3.3575
  779SOL    HW2 2337   0.127   0.934   0.560  1.9238 -0.8006  0.1676
  780SOL     OW 2338   0.097   0.276   2.393 -0.2306 -0.3953 -0.4207
  780SOL    HW1 2339   0.087   0.367   2.438 -1.8002 -1.5527 -2.3126
  780SOL    HW2 2340   0.197   0.255   2.365  1.6233  0.1329  1.1210
  781SOL     OW 2341   0.654   1.649   1.522  0.3774  0.3487 -0.3913
  781SOL    HW1 2342   0.715   1.591   1.584 -0.2501 -0.7039 -0.0977
  781SOL    HW2 2343   0.553   1.629   1.530 -1.0320 -0.6563 -2.3929
  782SOL     OW 2344   2.584   0.102   0.937 -0.3274 -0.6722  0.6605
  782SOL    HW1 2345   2.538   0.125   0.843 -1.3280 -2.5088 -2.8065
  782SOL    HW2 2346   2.582   0.176   1.004  2.1307 -1.5308  1.9310
  783SOL     OW 2347   2.789   0.707   2.484  0.0076  0.0510  0.1563
  783SOL    HW1 2348   2.766   0.725   2.580  0.5318 -0.1677 -1.9202
  783SOL    HW2 2349   2.758   0.619   2.452  1.9820 -0.2157  1.6380
  784SOL     OW 2350   1.457   2.208   0.038 -0.5276  0.1525  0.0034
  784SOL    HW1 2351   1.496   2.289   0.099  0.5157  1.5755  3.2092
  784SOL    HW2 2352   1.417   2.237  -0.051  1.4945  0.3792  1.8120
  785SOL     OW 2353   2.112   0.312   0.064 -0.0837  0.5020  0.1151
  785SOL    HW1 2354   2.031   0.293   0.121  2.4308 -0.7569 -0.6473
  785SOL    HW2 2355   2.111   0.405   0.023  0.0042  0.4103  0.6280
  786SOL     OW 2356   2.055   2.183   2.297 -0.4945  0.1127  0.3259
  786SOL    HW1 2357   2.031   2.092   2.335  4.2937 -0.0048 -2.5925
  786SOL    HW2 2358   2.142   2.161   2.238 -1.6946 -0.9392 -2.3553
  787SOL     OW 2359   1.336   0.471   0.955 -0.2329  0.3195  0.8194
  787SOL    HW1 2360   1.292   0.556   0.987  0.6725 -1.7505  0.4766
  787SOL    HW2 2361   1.376   0.488   0.859 -1.1490  2.1859 -1.4376
  788SOL     OW 2362   1.281   0.412   0.083 -0.4454  0.3389  0.2858
  788SOL    HW1 2363   1.182   0.380   0.083 -3.0682 -1.0642  0.0795
  788SOL    HW2 2364   1.296   0.506   0.121  1.3295  2.7088  0.6091
  789SOL     OW 2365   2.562   0.063   1.952 -0.2268  0.5374  0.2508
  789SOL    HW1 2366   2.473   0.107   1.916 -0.9156 -0.4044 -1.5799
  789SOL    HW2 2367   2.575  -0.021   1.899 -3.2852 -2.0681 -2.7556
  790SOL     OW 2368   2.632   2.801   0.809  0.3691 -0.0489  0.3074
  790SOL    HW1 2369   2.685   2.826   0.721  2.2244 -0.8666  0.5685
  790SOL    HW2 2370   2.641   2.879   0.879  0.0702 -3.8937  0.5398
  791SOL     OW 2371   1.911   1.198   0.181  0.6145 -0.0283 -0.1772
  791SOL    HW1 2372   1.809   1.163   0.193 -2.2850  1.4082  0.3216
  791SOL    HW2 2373   1.972   1.143   0.242  1.9527 -0.0143 -0.0697
  792SOL     OW 2374   0.451   1.788   2.190  0.0478  0.2408  0.4772
  792SOL    HW1 2375   0.542   1.745   2.218  2.1801  1.0074 -0.6377
  792SOL    HW2 2376   0.378   1.777   2.260  0.0049 -0.2137 -0.3632
  793SOL     OW 2377   2.097   1.546   2.138 -0.0572 -0.1429 -0.3528
  793SOL    HW1 2378   2.192   1.579   2.121 -2.2548 -0.0028 -1.6528
  793SOL    HW2 2379   2.082   1.456   2.095 -0.7480 -0.8182  2.2559
  794SOL     OW 2380   0.521   1.408   2.347 -0.1135 -0.1430 -0.0904
  794SOL    HW1 2381   0.502   1.403   2.246 -1.3944  1.5491  1.8759
  794SOL    HW2 2382   0.483   1.494   2.386  1.3512 -2.2810  0.1756
  795SOL     OW 2383   2.506   2.250   1.848 -0.3099 -0.2929  0.1226
  795SOL    HW1 2384   2.505   2.213   1.945 -1.0827  1.2185 -0.4423
  795SOL    HW2 2385   2.435   2.209   1.786  1.0110  0.4018 -0.6326
  796SOL     OW 2386   3.089   1.125   2.683 -0.3846 -0.1736  0.1793
  796SOL    HW1 2387   2.986   1.126   2.696 -2.2934  1.4970  1.5746
  796SOL    HW2 2388   3.145   1.139   2.769  0.7378  1.9802 -0.1183
  797SOL     OW 2389   0.742   0.642   1.389  0.2505 -0.1104  0.1154
  797SOL    HW1 2390   0.813   0.689   1.447  0.8915 -0.2447 -0.2614
  797SOL    HW2 2391   0.675   0.711   1.351  0.3742  1.5802  1.6708
  798SOL     OW 2392   1.267   0.311   1.163 -0.0633 -0.0921  0.1081
  798SOL    HW1 2393   1.325   0.324   1.250  1.3513 -1.1260  1.2146
  798SOL    HW2 2394   1.290   0.372   1.090  0.2734 -0.5543  1.9840
  799SOL     OW 2395   1.961   2.722   1.051  0.0707  0.1440 -0.4534
  799SOL    HW1 2396   1.894   2.705   1.132  1.2443 -2.0105 -1.1573
  799SOL    HW2 2397   1.919   2.733   0.961 -1.4117 -1.9332  2.9053
  800SOL     OW 2398   3.043   0.643   1.833 -0.3603 -0.1436  0.3435
  800SOL    HW1 2399   3.005   0.723   1.883  2.4903 -0.7126  1.4474
  800SOL    HW2 2400   3.099   0.587   1.897 -2.5139  0.1778 -0.9676
  801SOL     OW 2401   1.984   2.235   0.103  0.4977  0.0632 -0.5016
  801SOL    HW1 2402   1.902   2.199   0.052 -0.0987 -0.2769 -2.2956
  801SOL    HW2 2403   2.070   2.180   0.088 -1.2207 -1.9082 -0.0741
  802SOL     OW 2404   0.709   0.828   2.567 -0.3486  0.0600 -0.5981
  802SOL    HW1 2405   0.762   0.787   2.488  2.4465 -0.2171 -0.5288
  802SOL    HW2 2406   0.617   0.869   2.538  2.4889  0.0399 -0.4604
  803SOL     OW 2407   0.943   0.047   0.856 -0.3214  0.3982 -0.1394
  803SOL    HW1 2408   1.023   0.111   0.845  0.1677 -0.2544 -1.0675
  803SOL    HW2 2409   0.861   0.098   0.827  1.9484  3.2784 -0.0527
  804SOL     OW 2410   0.277   0.045   2.134 -0.1155 -0.0227  0.0291
  804SOL    HW1 2411   0.270   0.150   2.135  1.0808  0.7080  1.0951
  804SOL    HW2 2412   0.220  -0.003   2.057 -0.9659  3.3731 -1.9481
  805SOL     OW 2413   2.392   0.265   0.354 -0.1229  0.1806  0.2705
  805SOL    HW1 2414   2.475   0.310   0.397 -1.7683  0.6282 -0.3395
  805SOL    HW2 2415   2.390   0.271   0.250  1.2019 -2.0540  1.4697
  806SOL     OW 2416   0.623   2.434   1.694  0.2664  0.5840  0.3562
  806SOL    HW1 2417   0.610   2.538   1.703 -1.3026  0.0741  1.1772
  806SOL    HW2 2418   0.723   2.410   1.680  0.4109  1.1257  0.3732
  807SOL     OW 2419   2.472   0.900   0.406 -0.3702 -0.2212 -0.6438
  807SOL    HW1 2420   2.566   0.893   0.444 -0.7225  0.1563 -0.9458
  807SOL    HW2 2421   2.468   0.951   0.313  2.8779 -0.2041 -0.4682
  808SOL     OW 2422   0.570   2.043   2.945 -0.2590 -0.0379 -0.5688
  808SOL    HW1 2423   0.526   2.094   3.022  0.6161  1.0350 -0.7415
  808SOL    HW2 2424   0.545   1.944   2.940 -0.4878 -1.5339  2.1493
  809SOL     OW 2425   2.704   1.948   1.938 -0.0941  0.2820 -0.0220
  809SOL    HW1 2426   2.798   1.986   1.962  0.0289 -0.7931 -0.3629
  809SOL    HW2 2427   2.665   1.976   1.845 -0.4852 -0.2941 -1.9383
  810SOL     OW 2428   2.101   1.033   0.537  0.0224  0.5566  0.1097
  810SOL    HW1 2429   2.103   0.963   0.612 -0.5465 -1.1818 -3.2389
  810SOL    HW2 2430   2.054   1.121   0.569 -0.6585 -0.5732 -0.5758
  811SOL     OW 2431   1.360   2.508   1.256 -0.6773 -0.0228 -0.3603
  811SOL    HW1 2432   1.367   2.403   1.263  0.8502 -1.4130  1.2220
  811SOL    HW2 2433   1.265   2.543   1.242  1.0514 -0.5188  2.0893
  812SOL     OW 2434   1.428   0.818   1.918 -0.6783 -0.1657  0.2803
  812SOL    HW1 2435   1.493   0.892   1.945  1.4424 -2.3270 -1.0827
  812SOL    HW2 2436   1.337   0.865   1.928  1.0381 -0.7032 -0.9953
  813SOL     OW 2437   1.757   2.069   2.482 -0.3804 -0.2319  0.6760
  813SOL    HW1 2438   1.838   2.005   2.464 -1.8931 -1.8148 -2.3151
  813SOL    HW2 2439   1.694   2.070   2.395 -0.9738 -0.1239 -1.6409
  814SOL     OW 2440   2.907   1.521   2.854  0.6926 -0.1651  0.2119
  814SOL    HW1 2441   2.983   1.514   2.923 -0.9311  0.7798  0.1767
  814SOL    HW2 2442   2.917   1.606   2.800  1.1102  0.1541  1.1282
  815SOL     OW 2443   2.168   2.908   2.796 -0.1596  0.5774 -0.0206
  815SOL    HW1 2444   2.140   2.840   2.868  1.1040  1.2671  2.8204
  815SOL    HW2 2445   2.265   2.931   2.810 -2.4088 -1.8823  0.0778
  816SOL     OW 2446   1.641   0.325   1.659 -0.0243 -0.0010 -0.4738
  816SOL    HW1 2447   1.655   0.221   1.671  1.0794 -2.0097  0.9138
  816SOL    HW2 2448   1.555   0.364   1.705  1.9086  0.2846 -1.4280
  817SOL     OW 2449   0.411   1.233   2.548 -0.0414  0.0068  0.5826
  817SOL    HW1 2450   0.311   1.259   2.549  0.4882  0.1886 -1.5762
  817SOL    HW2 2451   0.460   1.275   2.471 -2.2453 -1.1783  1.5783
  818SOL     OW 2452   1.933   0.816   0.477 -0.4828  0.2492 -0.2864
  818SOL    HW1 2453   1.971   0.914   0.481 -1.7964  1.6530  1.9653
  818SOL    HW2 2454   1.881   0.794   0.562  0.8608  1.7085 -1.3240
  819SOL     OW 2455   2.752   2.954   3.003 -0.1638  0.4860 -0.2205
  819SOL    HW1 2456   2.815   2.877   2.975 -1.2899  2.8363  0.6573
  819SOL    HW2 2457   2.656   2.944   2.963  0.6098 -0.3512  2.6544
  820SOL     OW 2458   1.269   1.107   0.654  0.2924 -0.7480  0.6746
  820SOL    HW1 2459   1.241   1.202   0.692  1.7573  0.6748 -0.1233
  820SOL    HW2 2460   1.260   1.037   0.728 -1.3294  4.3476 -3.0746
  821SOL     OW 2461   3.083   1.337   0.658 -0.0155  0.2163 -0.2359
  821SOL    HW1 2462   3.072   1.384   0.748  0.1909  1.5832  0.1174
  821SOL    HW2 2463   3.171   1.352   0.603 -2.5831 -2.8006  0.5660
  822SOL     OW 2464   2.538   1.752   2.470  0.2142  0.2427  0.6482
  822SOL    HW1 2465   2.555   1.842   2.521 -0.3406 -2.2955  0.0787
  822SOL    HW2 2466   2.468   1.759   2.392  0.7556 -0.2495 -1.7092
  823SOL     OW 2467   2.101   0.861   1.195 -0.3882  0.8585 -0.0550
  823SOL    HW1 2468   2.057   0.850   1.288  1.9599  1.0629 -1.2365
  823SOL    HW2 2469   2.036   0.912   1.136 -1.6806  0.9944  2.1749
  824SOL     OW 2470   0.188   2.072   2.785  0.0761 -0.1577  0.2742
  824SOL    HW1 2471   0.140   2.012   2.858  3.0033  2.9436  0.8724
  824SOL    HW2 2472   0.236   2.016   2.708  2.0764  0.8586 -0.1972
  825SOL     OW 2473   1.274   1.090   0.271  0.4461 -0.3748 -0.5613
  825SOL    HW1 2474   1.277   1.188   0.288 -1.7331 -1.3528 -1.9387
  825SOL    HW2 2475   1.238   1.039   0.352  1.0907  0.0132 -1.6392
  826SOL     OW 2476   1.894   0.694   1.616  0.0364  0.1799  0.6059
  826SOL    HW1 2477   1.985   0.644   1.633  1.7913  0.8869  0.2143
  826SOL    HW2 2478   1.826   0.638   1.558 -0.8187  2.1487 -2.7486
  827SOL     OW 2479   0.669   1.323   0.286 -0.4113 -1.1520 -0.4806
  827SOL    HW1 2480   0.729   1.247   0.248 -2.4267 -1.0118  1.9855
  827SOL    HW2 2481   0.625   1.287   0.372  2.1115 -0.9526  1.7489
  828SOL     OW 2482   2.504   0.068   1.593  0.2281  0.2216 -0.0002
  828SOL    HW1 2483   2.414   0.118   1.566 -0.5574  0.2496  1.4924
  828SOL    HW2 2484   2.492  -0.008   1.663 -2.6357  1.2616 -0.6588
  829SOL     OW 2485   2.806   2.446   2.987 -0.4987  0.0908  0.4972
  829SOL    HW1 2486   2.729   2.380   2.966 -2.8856  3.0933  0.5340
  829SOL    HW2 2487   2.781   2.519   3.060  2.3407  2.0864  0.9193
  830SOL     OW 2488   2.853   0.939   2.989 -0.0306 -0.4043  0.3290
  830SOL    HW1 2489   2.892   1.030   3.025 -0.6063 -1.8018 -0.3386
  830SOL    HW2 2490   2.853   0.866   3.065 -0.7452  2.4035 -0.3400
  831SOL     OW 2491   0.109   0.632   0.436 -0.3729 -0.1058 -0.1306
  831SOL    HW1 2492   0.074   0.561   0.507  3.2000  1.4458  2.7414
  831SOL    HW2 2493   0.130   0.595   0.339  0.9724  0.3288  0.2045
  832SOL     OW 2494   1.770   0.742   3.035 -0.1551  0.1360 -0.5434
  832SOL    HW1 2495   1.680   0.786   3.006  0.1047  0.3614  0.2459
  832SOL    HW2 2496   1.763   0.641   3.047  0.8099  1.7947 -0.3053
  833SOL     OW 2497   2.418   2.174   0.529  0.0301  0.6146  0.4083
  833SOL    HW1 2498   2.327   2.165   0.476  0.1522 -0.4282  1.3988
  833SOL    HW2 2499   2.477   2.091   0.502 -0.5468 -0.3024 -0.2138
  834SOL     OW 2500   0.205   0.212   0.530  0.2958  0.1424  0.7634
  834SOL    HW1 2501   0.218   0.120   0.577 -0.8961  0.8852  1.2639
  834SOL    HW2 2502   0.170   0.204   0.432  0.3694 -0.7408 -4.1684
  835SOL     OW 2503   2.398   1.559   1.148  0.0190 -0.3082  0.0133
  835SOL    HW1 2504   2.436   1.641   1.197 -1.6517 -0.6419  0.6731
  835SOL    HW2 2505   2.450   1.553   1.056  2.1075 -0.9268 -3.1766
  836SOL     OW 2506   1.604   0.818   2.518 -0.3340 -0.0500  0.2068
  836SOL    HW1 2507   1.499   0.830   2.517 -1.1860  1.3449 -0.5821
  836SOL    HW2 2508   1.652   0.848   2.429  2.4901 -1.6732  0.4643
  837SOL     OW 2509   1.734   0.129   0.592 -0.1468 -0.2261 -0.7373
  837SOL    HW1 2510   1.657   0.156   0.659 -1.0868 -0.6957  0.7708
  837SOL    HW2 2511   1.722   0.171   0.499 -1.2158 -2.0459  1.0622
  838SOL     OW 2512   1.144   1.552   2.796  0.3925  0.1360  0.2445
  838SOL    HW1 2513   1.138   1.513   2.892 -0.6314  0.2686  0.4085
  838SOL    HW2 2514   1.091   1.492   2.731  0.9827 -0.9424  1.9119
  839SOL     OW 2515   1.643   0.337   0.993  0.3820  0.0559 -0.6281
  839SOL    HW1 2516   1.688   0.377   1.080 -1.8528  0.5346 -0.2066
  839SOL    HW2 2517   1.600   0.243   1.006  0.5581  0.3833 -1.5602
  840SOL     OW 2518   2.490   2.950   1.762  0.3783 -0.2246 -0.0183
  840SOL    HW1 2519   2.395   2.915   1.742  1.5319 -0.1986  2.1179
  840SOL    HW2 2520   2.545   2.874   1.815  1.2824 -2.1190  0.9317
  841SOL     OW 2521   1.525   0.844   2.970 -0.8256  0.2038  0.1627
  841SOL    HW1 2522   1.464   0.891   3.043  0.3779 -0.9638  0.5526
  841SOL    HW2 2523   1.530   0.899   2.879 -1.9799 -2.1127 -4.9621
  842SOL     OW 2524   0.828   1.536   0.920  0.3032  0.8534  0.6171
  842SOL    HW1 2525   0.780   1.621   0.955 -0.0537 -0.5591  1.8191
  842SOL    HW2 2526   0.759   1.464   0.895 -0.0955  0.1716  0.9831
  843SOL     OW 2527   0.039   0.041   1.376 -0.0452  0.5693  0.3141
  843SOL    HW1 2528   0.123   0.073   1.421 -1.0063 -1.3915  0.2375
  843SOL    HW2 2529   0.026  -0.062   1.405 -0.4223 -0.7108 -3.3952
  844SOL     OW 2530   0.807   2.494   0.224  0.2829 -0.4379  0.3425
  844SOL    HW1 2531   0.759   2.489   0.317 -0.7601  3.1558 -1.2858
  844SOL    HW2 2532   0.749   2.548   0.158  0.5678  1.9827  3.0221
  845SOL     OW 2533   1.623   2.925   1.382 -0.3834  0.1964  0.0635
  845SOL    HW1 2534   1.711   2.928   1.436 -0.0180  0.9995 -3.0093
  845SOL    HW2 2535   1.557   2.856   1.427  1.1793 -1.2508 -0.1929
  846SOL     OW 2536   1.553   2.892   0.703  0.0074  0.0255 -0.2396
  846SOL    HW1 2537   1.576   2.858   0.610  0.1085 -0.3575 -1.9182
  846SOL    HW2 2538   1.640   2.919   0.750  0.1004  0.4430 -0.3796
  847SOL     OW 2539   2.043   1.666   0.342  0.4339 -0.0708 -0.2740
  847SOL    HW1 2540   2.009   1.572   0.337 -2.0481 -0.7719 -0.3865
  847SOL    HW2 2541   1.966   1.736   0.359  0.4943 -1.7428 -2.6809
  848SOL     OW 2542   2.465   0.883   2.602 -0.2974  0.1233 -0.3992
  848SOL    HW1 2543   2.455   0.961   2.670 -0.8307  0.2506 -0.2886
  848SOL    HW2 2544   2.385   0.821   2.586  1.4436  0.4129 -1.6631
  849SOL     OW 2545   2.607   0.862   2.347  0.4615  0.0019 -0.2213
  849SOL    HW1 2546   2.708   0.838   2.361 -0.1606 -1.2452  1.9674
  849SOL    HW2 2547   2.562   0.868   2.439 -0.4612 -0.6249  0.9942
  850SOL     OW 2548   1.531   0.163   1.274  0.0027 -0.1627  0.5674
  850SOL    HW1 2549   1.503   0.146   1.172  1.0255  0.6464  0.4641
  850SOL    HW2 2550   1.547   0.083   1.342 -0.8553  0.0020  0.3439
  851SOL     OW 2551   0.485   1.795   0.546 -0.1573  0.3168  0.7385
  851SOL    HW1 2552   0.552   1.872   0.569 -0.4112 -1.0004  1.0064
  851SOL    HW2 2553   0.428   1.819   0.463  0.3933 -1.1761 -0.7182
  852SOL     OW 2554   0.794   2.120   1.650  0.0772  0.4219 -0.4347
  852SOL    HW1 2555   0.835   2.210   1.620 -0.1804 -0.2326 -3.4216
  852SOL    HW2 2556   0.745   2.123   1.741 -1.2657 -1.6724  1.7734
  853SOL     OW 2557   2.528   1.517   2.602 -0.2391  0.1832 -0.2897
  853SOL    HW1 2558   2.473   1.437   2.563  0.1029  0.3970 -1.1969
  853SOL    HW2 2559   2.522   1.598   2.537 -1.3896 -4.4467 -0.5357
  854SOL     OW 2560   2.371   1.410   1.714 -0.5438  0.1418  0.1087
  854SOL    HW1 2561   2.435   1.388   1.635  2.1752 -0.4038  0.2844
  854SOL    HW2 2562   2.310   1.331   1.739 -0.0024  2.0012 -0.2044
  855SOL     OW 2563   2.012   2.418   1.017 -0.0159  0.2262 -0.7280
  855SOL    HW1 2564   2.020   2.511   0.967 -0.5656  0.1716 -3.1380
  855SOL    HW2 2565   2.086   2.418   1.098 -0.8235  0.2184  0.9895
  856SOL     OW 2566   1.322   1.466   0.954 -0.1231  0.4864  0.3170
  856SOL    HW1 2567   1.380   1.550   0.982 -0.3946  1.9261 -0.2988
  856SOL    HW2 2568   1.228   1.463   1.002  1.2566  0.4544 -0.3800
  857SOL     OW 2569   3.030   2.716   0.943  0.3538 -0.1314 -0.0005
  857SOL    HW1 2570   3.040   2.680   0.848 -0.1655  1.1911 -0.9619
  857SOL    HW2 2571   3.126   2.718   0.992  0.9202  0.7070 -2.4991
  858SOL     OW 2572   2.327   2.103   1.701 -0.3249  0.0949 -0.1621
  858SOL    HW1 2573   2.260   2.091   1.621 -1.8762 -0.3773 -0.0903
  858SOL    HW2 2574   2.399   2.029   1.697 -2.7188  1.2096 -2.3327
  859SOL     OW 2575   2.485   0.520   1.032 -0.2922 -0.4084  0.0034
  859SOL    HW1 2576   2.553   0.579   0.976  2.3037 -0.6108 -1.2284
  859SOL    HW2 2577   2.528   0.429   1.065  0.3994 -0.2449 -0.8620
  860SOL     OW 2578   1.975   2.787   0.419 -0.2345 -0.2181 -0.0508
  860SOL    HW1 2579   1.933   2.765   0.326  4.3445  1.4128  3.7891
  860SOL    HW2 2580   2.072   2.826   0.408  1.0770  0.8244 -0.9372
  861SOL     OW 2581   1.009   2.415   2.865  0.0370  0.7187  0.3313
  861SOL    HW1 2582   1.000   2.516   2.859 -0.0886 -0.2475 -0.4916
  861SOL    HW2 2583   1.059   2.387   2.948 -0.8218 -0.6266 -0.0417
  862SOL     OW 2584   2.856   2.538   1.624 -0.3512 -0.1025 -0.2638
  862SOL    HW1 2585   2.941   2.590   1.655  0.9255 -0.8919 -2.0203
  862SOL    HW2 2586   2.804   2.597   1.558 -1.7471 -2.2842 -0.4248
  863SOL     OW 2587   1.853   2.728   0.186 -0.1713  0.1315 -0.4188
  863SOL    HW1 2588   1.896   2.634   0.179 -0.0787  0.4289  0.8273
  863SOL    HW2 2589   1.751   2.725   0.166 -1.6425  1.3807 -1.9601
  864SOL     OW 2590   1.960   1.221   2.841 -0.0865 -0.2316  0.2565
  864SOL    HW1 2591   1.965   1.174   2.747 -2.6933  0.3698  1.4654
  864SOL    HW2 2592   1.998   1.166   2.921 -0.3352  1.4844  0.2988
  865SOL     OW 2593   2.176   1.893   0.663 -0.3350 -0.4569  0.1406
  865SOL    HW1 2594   2.253   1.904   0.733  0.5803 -1.5958  1.2055
  865SOL    HW2 2595   2.113   1.816   0.688 -1.1860  0.6239 -1.3386
  866SOL     OW 2596   2.853   2.902   0.986  0.6413 -0.5242 -0.6447
  866SOL    HW1 2597   2.873   2.989   0.928  0.9051  0.7646 -1.2323
  866SOL    HW2 2598   2.919   2.821   0.964 -0.2772  0.0735  1.2380
  867SOL     OW 2599   0.409   1.418   0.871 -0.2123  0.5660  0.2765
  867SOL    HW1 2600   0.370   1.334   0.830  1.7469  0.5390  4.1124
  867SOL    HW2 2601   0.375   1.512   0.826 -0.9902  2.0683 -0.4856
  868SOL     OW 2602   0.769   1.895   2.077  0.1078  0.0701 -1.0813
  868SOL    HW1 2603   0.765   1.916   2.180 -0.1165 -1.4129  0.1773
  868SOL    HW2 2604   0.731   1.966   2.018  2.5738 -2.3491 -0.3483
  869SOL     OW 2605   2.535   1.929   1.670 -0.7607 -0.2486  0.1162
  869SOL    HW1 2606   2.611   1.992   1.627  1.0380 -0.1205 -0.9702
  869SOL    HW2 2607   2.566   1.832   1.667  3.8863 -0.3111 -0.6609
  870SOL     OW 2608   2.272   2.689   1.214 -0.6946  0.1667  0.0685
  870SOL    HW1 2609   2.242   2.594   1.180 -2.7748  1.2061 -1.1042
  870SOL    HW2 2610   2.282   2.697   1.322  1.5988  1.5171  5.3598
  871SOL     OW 2611   3.078   2.241   0.567 -0.7316 -0.2793  0.0510
  871SOL    HW1 2612   3.043   2.287   0.655 -2.0239  1.7354  1.2331
  871SOL    HW2 2613   3.016   2.252   0.481 -0.2904 -0.1556 -2.3610
  872SOL     OW 2614   2.097   0.521   1.709 -0.0333  0.2898  0.2524
  872SOL    HW1 2615   2.078   0.524   1.809  1.4680  4.1504 -0.4911
  872SOL    HW2 2616   2.199   0.520   1.688 -1.4759 -0.8303 -1.5996
  873SOL     OW 2617   1.728   2.131   3.070 -0.5902 -0.3210 -0.0935
  873SOL    HW1 2618   1.644   2.154   3.125  1.9409  0.7120 -0.3010
  873SOL    HW2 2619   1.703   2.151   2.971 -0.6114  0.3874  1.4584
  874SOL     OW 2620   0.674   2.447   0.734 -0.0344  0.0637 -0.2209
  874SOL    HW1 2621   0.676   2.526   0.801  2.0490 -0.4996  1.7317
  874SOL    HW2 2622   0.744   2.371   0.751 -0.9656  1.5212 -1.2513
  875SOL     OW 2623   2.311   1.496   1.413  0.0445 -0.7776 -0.6188
  875SOL    HW1 2624   2.411   1.513   1.453  1.9629  0.5871 -0.2928
  875SOL    HW2 2625   2.309   1.514   1.311 -0.9707 -1.3262  2.2523
  876SOL     OW 2626   0.055   2.309   2.692 -0.0848 -0.6699  0.2169
  876SOL    HW1 2627   0.120   2.231   2.706 -0.8407 -0.3385 -1.4670
  876SOL    HW2 2628   0.072   2.386   2.763 -1.2908  2.3034  0.5510
  877SOL     OW 2629   2.955   2.688   0.500 -0.4694 -0.2252  0.6072
  877SOL    HW1 2630   2.946   2.784   0.537  0.1527 -1.3209 -0.8104
  877SOL    HW2 2631   2.981   2.617   0.572  0.0445  1.5164 -1.0914
  878SOL     OW 2632   2.783   1.528   2.231 -0.0713 -0.5384 -0.2532
  878SOL    HW1 2633   2.762   1.591   2.152  0.4242 -0.9747  1.3075
  878SOL    HW2 2634   2.771   1.569   2.324 -1.1966  0.0934  0.1904
  879SOL     OW 2635   2.418   0.102   1.222 -0.2283  0.2581 -0.9413
  879SOL    HW1 2636   2.438   0.005   1.255 -1.7386  0.2318 -1.1214
  879SOL    HW2 2637   2.349   0.101   1.144  1.2736  1.3281  0.0945
  880SOL     OW 2638   0.782   0.499   2.211  0.1260 -0.0313 -0.1786
  880SOL    HW1 2639   0.734   0.429   2.270 -0.1572  1.4288  1.3917
  880SOL    HW2 2640   0.826   0.464   2.126  2.7704  0.0192  2.7077
  881SOL     OW 2641   0.907   0.066   0.480 -0.0096 -0.4305  0.2263
  881SOL    HW1 2642   0.953  -0.024   0.501 -0.5319 -0.1753 -0.3240
  881SOL    HW2 2643   0.803   0.052   0.463 -2.2350 -2.1447  1.7819
  882SOL     OW 2644   2.714   1.698   1.696 -0.3142 -0.4835 -0.7116
  882SOL    HW1 2645   2.792   1.678   1.635 -0.4945  0.4313  1.0962
  882SOL    HW2 2646   2.735   1.699   1.800 -0.8582  0.1686  2.3897
  883SOL     OW 2647   0.876   0.523   0.936 -0.1223 -0.2388 -0.3779
  883SOL    HW1 2648   0.903   0.614   0.984  1.6231  1.9737 -0.6148
  883SOL    HW2 2649   0.891   0.438   0.996  0.6745 -0.5422 -2.3598
  884SOL     OW 2650   1.134   1.715   1.178  0.5363 -0.0503  0.0611
  884SOL    HW1 2651   1.105   1.626   1.123 -1.2403  0.0468 -2.3156
  884SOL    HW2 2652   1.124   1.803   1.131  0.4506 -1.3652  3.8825
  885SOL     OW 2653   2.328   1.774   2.285  0.2836 -0.4719  0.2282
  885SOL    HW1 2654   2.256   1.728   2.344  0.7479  3.1134  0.4639
  885SOL    HW2 2655   2.298   1.869   2.255 -2.1528 -1.1537  3.0436
  886SOL     OW 2656   2.593   0.355   1.812 -0.0022 -0.5131 -0.6445
  886SOL    HW1 2657   2.596   0.297   1.899  0.7221 -2.4239  0.7565
  886SOL    HW2 2658   2.684   0.378   1.768 -1.2746  1.1438  2.7467
  887SOL     OW 2659   0.107   1.974   1.336 -0.3509 -0.2872  0.0168
  887SOL    HW1 2660   0.086   1.885   1.288 -0.0470 -0.2848  2.4071
  887SOL    HW2 2661   0.087   2.057   1.274  2.4163 -0.8640 -1.8574
  888SOL     OW 2662   0.539   1.229   1.544 -0.5282 -0.2862  0.2335
  888SOL    HW1 2663   0.570   1.270   1.450 -0.7276  2.0530 -1.7833
  888SOL    HW2 2664   0.474   1.151   1.529  1.1997 -0.1448 -0.6601
  889SOL     OW 2665   0.812   2.511   2.151 -0.0130  0.4497  0.1124
  889SOL    HW1 2666   0.744   2.428   2.149 -1.1751 -1.0246  1.2138
  889SOL    HW2 2667   0.903   2.487   2.102 -1.3103 -1.3222 -1.5241
  890SOL     OW 2668   2.419   2.487   0.230  0.4962 -0.3635  0.2195
  890SOL    HW1 2669   2.409   2.522   0.135 -0.2545  0.5169  2.0876
  890SOL    HW2 2670   2.352   2.526   0.300 -0.8301 -0.2501 -1.9175
  891SOL     OW 2671   2.503   1.705   0.623 -0.1793 -0.0358  0.5885
  891SOL    HW1 2672   2.535   1.680   0.717  1.9241  0.3032 -1.3485
  891SOL    HW2 2673   2.406   1.692   0.593  0.9047  1.7737  2.0790
  892SOL     OW 2674   0.352   0.267   2.332 -0.2719  0.0920 -0.4167
  892SOL    HW1 2675   0.403   0.356   2.318  0.3249 -0.8438  0.0768
  892SOL    HW2 2676   0.416   0.184   2.343  0.6784 -1.5396  1.7147
  893SOL     OW 2677   1.635   0.234   2.723 -0.1758  0.8819 -0.3529
  893SOL    HW1 2678   1.713   0.296   2.760  0.4086 -1.6072  0.5216
  893SOL    HW2 2679   1.554   0.292   2.702  1.6888 -1.9751  0.4483
  894SOL     OW 2680   2.181   2.057   0.048 -0.3057  0.0954 -0.3901
  894SOL    HW1 2681   2.156   2.039  -0.052 -2.3990 -0.4825 -1.4397
  894SOL    HW2 2682   2.176   1.969   0.106 -0.0110 -1.8086  1.9843
  895SOL     OW 2683   2.842   1.460   0.910 -0.0461 -0.4506  0.2243
  895SOL    HW1 2684   2.917   1.393   0.947 -0.0155  1.3843  0.0577
  895SOL    HW2 2685   2.845   1.552   0.954  2.2381  0.2711  0.1659
  896SOL     OW 2686   1.742   1.812   1.168 -0.8841 -0.1807 -0.3988
  896SOL    HW1 2687   1.780   1.730   1.119 -1.9193  1.3802 -0.4212
  896SOL    HW2 2688   1.659   1.854   1.123  0.4356  2.3845 -0.3414
  897SOL     OW 2689   0.308   0.557   3.034  0.4421  0.0906 -0.0490
  897SOL    HW1 2690   0.252   0.594   2.954 -0.1371  2.2073 -0.8614
  897SOL    HW2 2691   0.392   0.615   3.065 -0.6692  0.4372 -0.6906
  898SOL     OW 2692   0.597   2.875   1.047 -0.5660 -0.2919  0.3890
  898SOL    HW1 2693   0.621   2.975   1.021 -0.2371  0.0166  0.0650
  898SOL    HW2 2694   0.671   2.829   1.112  0.2648 -0.7885 -0.0194
  899SOL     OW 2695   2.850   0.894   1.356  0.1046  0.6766 -0.4772
  899SOL    HW1 2696   2.794   0.844   1.285  1.1340 -0.2026  1.5253
  899SOL    HW2 2697   2.930   0.945   1.315 -2.6227  0.2981  1.2498
  900SOL     OW 2698   1.012   2.514   2.440 -0.5721  0.1897  0.5416
  900SOL    HW1 2699   0.935   2.523   2.363  0.2373  0.8997 -0.1671
  900SOL    HW2 2700   0.978   2.485   2.530  2.6002 -0.8267 -2.0615
  901SOL     OW 2701   1.900   2.384   1.366 -0.0429 -0.1273 -0.0763
  901SOL    HW1 2702   1.882   2.318   1.293 -2.8742  0.3643  1.6714
  901SOL    HW2 2703   1.995   2.372   1.406 -0.5168  0.5089 -1.7766
  902SOL     OW 2704   2.570   1.647   1.453  0.0248  0.3549  0.0021
  902SOL    HW1 2705   2.595   1.638   1.554  2.2949 -1.4459 -0.6360
  902SOL    HW2 2706   2.654   1.654   1.393 -1.4609 -0.5710 -1.9470
  903SOL     OW 2707   0.252   2.442   1.974 -0.2759  0.1143 -0.1766
  903SOL    HW1 2708   0.166   2.420   1.918  1.1158  2.2238  0.3319
  903SOL    HW2 2709   0.304   2.517   1.927  0.4417 -1.4215  1.4554
  904SOL     OW 2710   1.992   0.789   2.578  0.1086 -0.0126  0.1806
  904SOL    HW1 2711   1.924   0.723   2.616 -0.1902  0.3704  1.9328
  904SOL    HW2 2712   2.001   0.788   2.472  1.2425  1.6730 -0.2162
  905SOL     OW 2713   2.836   0.117   2.535 -0.5252  0.3124  0.1915
  905SOL    HW1 2714   2.895   0.036   2.562 -0.4288  1.3483 -1.0960
  905SOL    HW2 2715   2.896   0.195   2.509 -1.3832 -1.5356  2.8187
  906SOL     OW 2716   0.156   1.698   1.924  0.5874  0.5570  0.2989
  906SOL    HW1 2717   0.085   1.718   1.857  1.6072 -2.1120 -0.6999
  906SOL    HW2 2718   0.246   1.726   1.890 -1.6064  3.2155 -0.3477
  907SOL     OW 2719   0.222   2.430   0.992  0.4359  0.2543  0.3171
  907SOL    HW1 2720   0.324   2.405   0.982 -0.2124 -0.6125 -0.5829
  907SOL    HW2 2721   0.191   2.511   0.936 -0.3208 -0.3297 -1.0300
  908SOL     OW 2722   2.807   3.038   0.388 -0.0835 -0.1705  0.2231
  908SOL    HW1 2723   2.728   3.065   0.334  3.2918  1.9306  1.2397
  908SOL    HW2 2724   2.859   2.955   0.352  0.0883  1.6850  2.3594
  909SOL     OW 2725   0.849   1.055   2.646 -0.1507  0.0138  0.2588
  909SOL    HW1 2726   0.808   0.969   2.605 -1.1316 -1.0061 -1.7069
  909SOL    HW2 2727   0.928   1.091   2.588  0.1097  0.0812 -0.7096
  910SOL     OW 2728   1.806   1.888   2.158 -0.0087  0.1057  0.4424
  910SOL    HW1 2729   1.875   1.906   2.076  0.1184 -0.1256 -0.7427
  910SOL    HW2 2730   1.736   1.968   2.177 -1.5650 -0.0042 -0.4487
  911SOL     OW 2731   1.818   2.920   1.569  0.1904  0.0214  0.3608
  911SOL    HW1 2732   1.887   2.897   1.499  0.3066  0.9662  1.1717
  911SOL    HW2 2733   1.796   2.838   1.630 -3.0747  1.0963 -1.9754
  912SOL     OW 2734   2.847   1.005   0.711 -0.0993 -0.0141  0.3032
  912SOL    HW1 2735   2.871   0.994   0.810 -0.0682 -4.0646  1.1718
  912SOL    HW2 2736   2.795   1.092   0.685  2.5798  0.9295  0.8303
  913SOL     OW 2737   2.527   1.283   1.526  0.0470 -0.3783  0.0590
  913SOL    HW1 2738   2.553   1.188   1.548  0.5560  4.3134  2.3820
  913SOL    HW2 2739   2.603   1.344   1.491  0.5667 -0.3805  1.9895
  914SOL     OW 2740   2.781   0.599   1.168 -0.0840 -0.0731  0.1421
  914SOL    HW1 2741   2.829   0.508   1.201 -0.4182 -4.0824  1.4186
  914SOL    HW2 2742   2.686   0.604   1.210 -2.1452 -1.6848  2.0541
  915SOL     OW 2743   1.201   0.719   1.029 -0.4546 -0.1592  0.0496
  915SOL    HW1 2744   1.259   0.739   1.111 -0.2610 -3.1888 -1.6718
  915SOL    HW2 2745   1.098   0.696   1.040  1.0010 -1.1544 -1.0509
  916SOL     OW 2746   0.625   0.030   0.647 -0.1904 -0.4036 -0.1120
  916SOL    HW1 2747   0.660   0.108   0.702 -2.0283  0.4600 -0.0762
  916SOL    HW2 2748   0.551   0.072   0.585  0.4404  0.3654 -2.0134
  917SOL     OW 2749   2.845   2.584   2.016 -0.1479  0.1691  0.2134
  917SOL    HW1 2750   2.774   2.610   1.943 -2.5394 -0.2099  0.6047
  917SOL    HW2 2751   2.921   2.650   2.018 -1.4263 -0.4979 -0.1698
  918SOL     OW 2752   1.012   2.113   3.013  0.0054 -0.5029  0.8587
  918SOL    HW1 2753   0.987   2.177   3.091  2.3200  1.8393  0.6055
  918SOL    HW2 2754   1.099   2.147   2.964 -0.7238  1.7382  0.7983
  919SOL     OW 2755   0.810   1.678   2.866 -0.0376 -0.2382 -0.6232
  919SOL    HW1 2756   0.881   1.742   2.825  0.4663 -0.7795  1.1355
  919SOL    HW2 2757   0.776   1.607   2.799  0.9749 -0.9177  1.6574
  920SOL     OW 2758   1.255   1.810   2.555  0.1133 -0.0404 -0.4653
  920SOL    HW1 2759   1.321   1.765   2.486  0.0656 -1.2948  1.5741
  920SOL    HW2 2760   1.190   1.748   2.607  2.0003 -2.5061 -1.2615
  921SOL     OW 2761   1.113   0.007   2.619  0.0687  0.4590  0.7651
  921SOL    HW1 2762   1.066  -0.025   2.529 -0.4659 -0.2321 -1.7643
  921SOL    HW2 2763   1.049   0.045   2.689  1.4626  0.2421 -1.8017
  922SOL     OW 2764   2.231   2.396   2.769  0.1946 -0.2815  0.1614
  922SOL    HW1 2765   2.260   2.299   2.778 -1.5642  3.7025  0.0908
  922SOL    HW2 2766   2.182   2.429   2.684 -1.1279 -1.5747  2.1541
  923SOL     OW 2767   1.264   2.655   0.276  0.0456  0.3962 -0.0952
  923SOL    HW1 2768   1.339   2.717   0.300 -2.2380 -0.6104 -1.0479
  923SOL    HW2 2769   1.292   2.556   0.265 -1.0917  2.0712  3.6827
  924SOL     OW 2770   2.857   1.692   0.086 -0.1498 -0.3855  0.1168
  924SOL    HW1 2771   2.787   1.670   0.012  1.0000  2.4632 -0.2357
  924SOL    HW2 2772   2.932   1.622   0.096 -1.9590 -1.4828 -1.5173
  925SOL     OW 2773   0.035   2.878   1.466 -0.9165 -0.2279  0.0678
  925SOL    HW1 2774  -0.044   2.880   1.535 -0.2481  3.4076 -1.9322
  925SOL    HW2 2775   0.051   2.785   1.427 -0.3497  0.4513 -0.2010
  926SOL     OW 2776   1.333   2.814   1.338 -0.4378 -0.1090 -0.1176
  926SOL    HW1 2777   1.368   2.810   1.243 -0.7205 -2.8486  1.7201
  926SOL    HW2 2778   1.365   2.897   1.387 -1.5327 -2.1576  0.7726
  927SOL     OW 2779   0.321   2.692   1.760 -0.4271 -0.4956 -0.0201
  927SOL    HW1 2780   0.283   2.611   1.711 -0.4510 -0.2925  3.1195
  927SOL    HW2 2781   0.285   2.783   1.725  1.3341 -1.6953 -1.2565
  928SOL     OW 2782   1.598   2.085   2.224 -0.3965 -0.2563 -0.1650
  928SOL    HW1 2783   1.633   2.171   2.178  0.4110  0.9559  2.2032
  928SOL    HW2 2784   1.492   2.080   2.235  0.9943  3.5341 -1.4673
  929SOL     OW 2785   2.466   2.513   2.855  0.2659 -0.0858 -0.3148
  929SOL    HW1 2786   2.370   2.474   2.873  0.4127  0.5650 -0.5340
  929SOL    HW2 2787   2.493   2.506   2.751  2.2538  1.5228 -2.2200
  930SOL     OW 2788   2.151   2.007   1.093  0.6254  0.5542 -0.0887
  930SOL    HW1 2789   2.151   1.951   1.177  2.8499  0.6214  2.9576
  930SOL    HW2 2790   2.215   2.086   1.106 -1.5834  1.7490 -1.3516
  931SOL     OW 2791   0.533   1.729   2.672  0.0161 -0.6280  0.3424
  931SOL    HW1 2792   0.536   1.757   2.773  1.9218 -0.0452  0.4257
  931SOL    HW2 2793   0.610   1.662   2.663  0.0584  0.6862  2.1785
  932SOL     OW 2794   0.472   0.123   3.078  0.0431  0.0593 -0.0982
  932SOL    HW1 2795   0.544   0.184   3.133  3.6584  1.4681  0.7010
  932SOL    HW2 2796   0.499   0.027   3.051 -2.2764 -0.3643  0.9487
  933SOL     OW 2797   0.938   0.819   3.044  0.4428  0.0020 -0.0567
  933SOL    HW1 2798   0.857   0.812   3.106  0.1237  0.1559  1.5265
  933SOL    HW2 2799   0.937   0.912   2.996  0.1253 -0.1114  0.9362
  934SOL     OW 2800   0.782   2.960   2.658 -0.3380 -0.1073  0.1877
  934SOL    HW1 2801   0.749   2.892   2.585  1.3399  0.6015  0.5825
  934SOL    HW2 2802   0.830   2.917   2.735  0.3262 -0.1194 -1.6901
  935SOL     OW 2803   0.018   0.517   0.845  0.2214  0.5224 -0.4668
  935SOL    HW1 2804   0.030   0.484   0.746 -1.8061  0.0725  2.7321
  935SOL    HW2 2805  -0.077   0.562   0.869 -1.0510  0.1650  1.4139
  936SOL     OW 2806   1.104   2.817   0.099  0.3620 -0.9839  0.1811
  936SOL    HW1 2807   1.172   2.875   0.041  1.6691  1.4375  0.3116
  936SOL    HW2 2808   1.144   2.773   0.180 -2.6831 -1.0468  0.1284
  937SOL     OW 2809   1.833   2.656   2.093  0.2893 -0.3742  0.2980
  937SOL    HW1 2810   1.731   2.681   2.106 -1.2674 -3.1842  1.4394
  937SOL    HW2 2811   1.895   2.728   2.047 -1.4106  0.2611  0.1077
  938SOL     OW 2812   2.772   2.062   1.623 -0.2566  0.0383 -0.8522
  938SOL    HW1 2813   2.759   2.167   1.633 -2.1476  0.9161 -1.9146
  938SOL    HW2 2814   2.861   2.031   1.669  0.5007  1.3544 -1.9610
  939SOL     OW 2815   2.821   1.184   2.411  0.1389  0.0988 -0.0562
  939SOL    HW1 2816   2.882   1.180   2.333  0.2925  0.3515  1.5433
  939SOL    HW2 2817   2.878   1.160   2.492  0.2634  1.3224  0.3114
  940SOL     OW 2818   1.069   0.438   2.786 -0.0496  0.1496 -0.1883
  940SOL    HW1 2819   1.136   0.358   2.789 -0.1048 -0.6309  0.1466
  940SOL    HW2 2820   0.994   0.436   2.714  2.3095 -0.9869  0.1447
  941SOL     OW 2821   0.020   2.784   2.293  0.2090  0.0860 -0.1875
  941SOL    HW1 2822   0.077   2.696   2.279  0.0884 -1.0119 -1.0045
  941SOL    HW2 2823   0.076   2.859   2.329 -0.3708  0.3125 -2.3061
  942SOL     OW 2824   0.128   0.056   2.567 -0.3425 -0.9260  0.0131
  942SOL    HW1 2825   0.150   0.063   2.670  0.0219 -0.2126  0.5592
  942SOL    HW2 2826   0.100   0.149   2.521 -0.1407  1.2446 -0.5921
  943SOL     OW 2827   2.105   1.668   2.390 -0.2334 -0.2944 -0.3828
  943SOL    HW1 2828   2.089   1.636   2.289  1.4676  2.0763 -4.5191
  943SOL    HW2 2829   2.109   1.587   2.456  1.6091 -1.9603  2.7440
  944SOL     OW 2830   2.157   2.366   1.468  0.3636 -0.3421  0.0059
  944SOL    HW1 2831   2.254   2.407   1.480 -2.9420 -0.9919  1.0206
  944SOL    HW2 2832   2.137   2.271   1.510  0.6326  0.4493 -0.2428
  945SOL     OW 2833   0.671   1.574   0.153  0.2215 -0.0846  0.6369
  945SOL    HW1 2834   0.601   1.574   0.078  1.2986 -1.1554 -2.4138
  945SOL    HW2 2835   0.674   1.480   0.199  0.4816 -0.3828 -1.2747
  946SOL     OW 2836   0.442   0.951   2.505  0.2305 -0.5785 -0.0409
  946SOL    HW1 2837   0.366   0.905   2.448  0.0258  3.6233 -2.2797
  946SOL    HW2 2838   0.420   1.054   2.520  2.2476 -0.4190 -1.2193
  947SOL     OW 2839   1.501   0.480   3.057 -0.0044 -0.0142 -0.2623
  947SOL    HW1 2840   1.471   0.521   2.961 -0.4346  1.9802 -2.7755
  947SOL    HW2 2841   1.425   0.441   3.112 -0.7440  1.1574 -1.1257
  948SOL     OW 2842   1.849   3.007   2.112 -0.4671 -0.1349 -0.5380
  948SOL    HW1 2843   1.899   2.969   2.026 -0.6089 -0.7691  0.0759
  948SOL    HW2 2844   1.826   2.936   2.180  2.1466  1.0034  1.8792
  949SOL     OW 2845   0.649   2.489   0.474 -0.1196 -0.3679 -0.1365
  949SOL    HW1 2846   0.664   2.587   0.446  1.6169 -0.8870 -1.3709
  949SOL    HW2 2847   0.640   2.485   0.580 -0.4948 -3.3487  1.5131
  950SOL     OW 2848   0.230   2.220   3.029  0.2544 -0.1917  0.0670
  950SOL    HW1 2849   0.150   2.276   2.998  1.3356 -0.2937  0.5565
  950SOL    HW2 2850   0.263   2.162   2.953  0.9138 -1.8132  0.0176
  951SOL     OW 2851   1.161   2.635   2.824  0.3317  0.3569 -0.0047
  951SOL    HW1 2852   1.200   2.568   2.890  0.6433 -0.6645  1.0879
  951SOL    HW2 2853   1.225   2.653   2.741  2.1960 -2.2857 -1.6173
  952SOL     OW 2854   0.042   1.664   0.399  0.3078 -0.4162 -0.5529
  952SOL    HW1 2855   0.097   1.753   0.401 -1.1295  0.8641 -1.5242
  952SOL    HW2 2856   0.081   1.601   0.479  0.7035 -1.8182  4.8556
  953SOL     OW 2857   2.560   1.757   0.225 -0.0270 -0.2209 -0.2054
  953SOL    HW1 2858   2.545   1.676   0.283 -1.5222 -0.3057 -1.5321
  953SOL    HW2 2859   2.514   1.757   0.131 -0.7272 -0.9177  0.4731
  954SOL     OW 2860   2.217   0.542   0.939  0.4327 -0.2013 -0.8992
  954SOL    HW1 2861   2.230   0.568   0.840 -1.3144 -1.5084  0.3453
  954SOL    HW2 2862   2.306   0.528   0.991 -1.3523  0.9335 -0.8885
  955SOL     OW 2863   0.143   2.574   1.384  0.3199  0.1547 -0.0553
  955SOL    HW1 2864   0.053   2.598   1.339 -0.0529 -0.7874 -2.5145
  955SOL    HW2 2865   0.225   2.600   1.328 -2.2873 -0.0951  1.2861
  956SOL     OW 2866   2.810   2.446   2.493 -0.0883 -0.1131 -0.5112
  956SOL    HW1 2867   2.826   2.344   2.489  1.9054  1.0231 -0.4965
  956SOL    HW2 2868   2.840   2.490   2.408 -1.8658 -1.5484  0.4297
  957SOL     OW 2869   1.607   2.121   2.795 -0.1934 -0.5717  0.0321
  957SOL    HW1 2870   1.597   2.019   2.771  1.1190  1.0603  0.6958
  957SOL    HW2 2871   1.688   2.167   2.753  0.7901 -1.9890 -3.6668
  958SOL     OW 2872   2.559   2.280   2.971 -0.1121 -0.2461 -0.2863
  958SOL    HW1 2873   2.531   2.373   2.929  0.7481 -0.4890 -2.9612
  958SOL    HW2 2874   2.512   2.254   3.058  2.5516 -0.4508  0.7856
  959SOL     OW 2875   0.304   2.776   0.031  0.6001 -0.0524  0.1195
  959SOL    HW1 2876   0.208   2.766  -0.012 -0.7943 -0.3629 -0.9348
  959SOL    HW2 2877   0.327   2.700   0.098  0.6630  0.3190 -1.6638
  960SOL     OW 2878   1.973   0.485   1.961 -0.4479 -0.2882  0.3964
  960SOL    HW1 2879   1.906   0.561   1.944  0.3033  1.2824  0.6367
  960SOL    HW2 2880   1.997   0.476   2.064  1.0504 -1.4772 -1.8463
  961SOL     OW 2881   2.553   1.861   1.058 -0.0634 -0.2685  0.0272
  961SOL    HW1 2882   2.568   1.947   1.001  0.9984  0.4614 -1.3753
  961SOL    HW2 2883   2.512   1.887   1.149 -0.4799 -0.9732 -1.6090
  962SOL     OW 2884   1.295   0.916   0.033  0.3401  0.4056 -0.0939
  962SOL    HW1 2885   1.269   0.952  -0.064 -0.1249 -3.6298 -0.9308
  962SOL    HW2 2886   1.280   0.992   0.107 -1.1391  3.6581 -0.0400
  963SOL     OW 2887   2.294   2.531   1.770  0.2436 -0.0298  0.2277
  963SOL    HW1 2888   2.238   2.471   1.830 -3.2001  0.5699  0.9102
  963SOL    HW2 2889   2.325   2.615   1.822  0.8811  0.1689  2.0356
  964SOL     OW 2890   2.367   0.389   1.649 -0.0083  0.1292 -0.0946
  964SOL    HW1 2891   2.449   0.381   1.714  0.4675  0.7875  0.4826
  964SOL    HW2 2892   2.394   0.396   1.552 -0.9924  1.0090  2.6108
  965SOL     OW 2893   2.603   2.986   0.156 -0.2178  0.2409 -0.2626
  965SOL    HW1 2894   2.679   2.964   0.091 -1.9914  0.5512 -0.8252
  965SOL    HW2 2895   2.525   3.029   0.106  1.1183  0.7056  0.0120
  966SOL     OW 2896   2.569   2.556   2.346 -0.1838 -0.4459 -0.0344
  966SOL    HW1 2897   2.642   2.614   2.385  0.5783 -1.0854 -0.3221
  966SOL    HW2 2898   2.506   2.612   2.284  1.2101  2.3509  1.0082
  967SOL     OW 2899   2.773   2.847   2.440  0.2696 -0.6497  0.5001
  967SOL    HW1 2900   2.818   2.768   2.391  1.7857  0.6315  0.3830
  967SOL    HW2 2901   2.842   2.901   2.494 -0.4567  1.7357 -2.6229
  968SOL     OW 2902   1.938   1.070   2.589  0.0720 -0.0848 -0.2033
  968SOL    HW1 2903   1.853   1.113   2.553 -2.7166  2.1946 -1.6367
  968SOL    HW2 2904   1.939   0.966   2.575  1.6266 -1.4771  0.0070
  969SOL     OW 2905   2.757   2.492   1.137 -0.0180  0.4254  0.0912
  969SOL    HW1 2906   2.762   2.509   1.034 -0.2096  0.2495 -0.1962
  969SOL    HW2 2907   2.782   2.396   1.164 -0.1725  1.1694 -1.4001
  970SOL     OW 2908   1.049   2.107   1.805 -0.2382 -0.2226  0.1113
  970SOL    HW1 2909   0.961   2.087   1.752 -0.9132 -0.0440  0.2639
  970SOL    HW2 2910   1.025   2.158   1.892 -1.8798 -1.9870 -0.4599
  971SOL     OW 2911   2.979   2.043   2.045  0.3905  0.1328 -0.2284
  971SOL    HW1 2912   2.971   2.134   2.087  0.0149 -2.1702 -0.7563
  971SOL    HW2 2913   3.017   2.053   1.954 -1.0921  2.1872  2.6061
  972SOL     OW 2914   1.989   2.480   0.231 -0.1460  0.7358  0.3187
  972SOL    HW1 2915   2.008   2.381   0.193 -2.7030 -0.9764 -0.4056
  972SOL    HW2 2916   1.999   2.495   0.330  0.9096 -0.4437  0.3712
  973SOL     OW 2917   1.238   1.047   1.907  0.6210  0.0749  0.1406
  973SOL    HW1 2918   1.155   0.990   1.876 -0.5601 -1.4706  0.7597
  973SOL    HW2 2919   1.217   1.147   1.923 -0.6443 -0.3508 -0.4762
  974SOL     OW 2920   1.566   0.579   1.936  0.5606 -0.0726  0.2882
  974SOL    HW1 2921   1.661   0.596   1.894 -0.0456 -1.9811  0.9008
  974SOL    HW2 2922   1.501   0.663   1.921 -1.2817 -1.0925  0.2300
  975SOL     OW 2923   2.375   3.043   3.084 -0.0270 -0.5488  0.1952
  975SOL    HW1 2924   2.324   2.962   3.128  1.7715 -2.1550  0.3682
  975SOL    HW2 2925   2.322   3.067   2.999 -1.4707 -2.0121 -0.0390
  976SOL     OW 2926   1.895   2.813   2.338  0.0319  0.1946 -0.1091
  976SOL    HW1 2927   1.817   2.750   2.353 -0.0837  0.2725  2.4094
  976SOL    HW2 2928   1.950   2.820   2.429  0.8634 -3.3833 -1.9043
  977SOL     OW 2929   0.490   0.684   1.065  0.3349  0.7823 -0.2014
  977SOL    HW1 2930   0.407   0.695   0.999  1.2206 -2.5013  1.9279
  977SOL    HW2 2931   0.570   0.748   1.044 -2.2696 -0.9907  0.6903
   3.10000   3.10000   3.10000
