1000 SPC/Fw water molecules t=   0.86000 step= 860
 2931
    1SOL     OW    1   2.502   0.356   2.653  0.0934  0.2214  0.7481
    1SOL    HW1    2   2.542   0.261   2.644  1.7134  1.4941  2.7056
    1SOL    HW2    3   2.543   0.399   2.739  1.7840  0.3784  0.5729
    2SOL     OW    4   2.735   3.057   1.433 -0.3268 -0.4611  0.0209
    2SOL    HW1    5   2.802   3.084   1.357  1.0102  1.6232  1.4688
    2SOL    HW2    6   2.691   3.139   1.472  1.3803 -2.6432  2.3202
    3SOL     OW    7   2.700   2.605   0.373 -0.6049  0.2974  0.4095
    3SOL    HW1    8   2.674   2.505   0.367 -0.1177 -1.5903 -0.4257
    3SOL    HW2    9   2.760   2.619   0.454 -1.4048  1.1859  0.3591
    4SOL     OW   10   1.264   1.504   2.325 -0.6941  1.0749 -0.4438
    4SOL    HW1   11   1.189   1.553   2.279  1.7254  0.2694 -1.2682
    4SOL    HW2   12   1.250   1.410   2.363  0.1819 -0.5117 -0.9177
    5SOL     OW   13   1.151   1.489   3.092  0.1840 -0.1202  0.2896
    5SOL    HW1   14   1.228   1.557   3.102 -0.1978  0.0179  0.6213
    5SOL    HW2   15   1.059   1.527   3.131  0.7270 -0.2952  0.8608
    6SOL     OW   16   0.131   1.831   2.949  0.0631 -0.6196 -0.2426
    6SOL    HW1   17   0.043   1.849   3.009 -0.0575 -0.2761  0.0465
    6SOL    HW2   18   0.211   1.789   2.995 -2.5554  0.4310  1.7609
    7SOL     OW   19   2.611   0.919   1.108 -0.1138  0.2259 -0.6947
    7SOL    HW1   20   2.530   0.857   1.118  0.4609 -2.4795  1.3876
    7SOL    HW2   21   2.628   0.938   1.011  2.1131 -1.0568  0.6853
    8SOL     OW   22   0.385   0.619   1.554 -0.2889 -0.3820  0.2501
    8SOL    HW1   23   0.477   0.611   1.597 -1.2976  0.6782  1.8205
    8SOL    HW2   24   0.391   0.606   1.450 -1.1607  4.5308 -0.2561
    9SOL     OW   25   1.181   0.860   2.402  0.0372  0.2292  0.0331
    9SOL    HW1   26   1.244   0.900   2.332 -0.5204 -0.8578  1.6299
    9SOL    HW2   27   1.101   0.823   2.353  0.0233 -0.8152  2.1307
   10SOL     OW   28   0.646   1.342   1.309  0.5044 -0.1901  0.1502
   10SOL    HW1   29   0.556   1.349   1.253 -1.7793  2.9071 -0.5581
   10SOL    HW2   30   0.702   1.434   1.307 -2.1581 -0.0990  0.5948
   11SOL     OW   31   2.349   2.726   0.838 -0.5011 -0.3105  0.4177
   11SOL    HW1   32   2.291   2.755   0.920  3.7804  3.1565  0.7545
   11SOL    HW2   33   2.447   2.726   0.869 -1.5405  1.8883 -0.0562
   12SOL     OW   34   1.490   0.893   0.340 -0.0650  0.1329  0.0665
   12SOL    HW1   35   1.397   0.939   0.324  0.5496 -0.6752  1.3895
   12SOL    HW2   36   1.495   0.805   0.283  0.8803 -0.5716  1.0825
   13SOL     OW   37   2.483   0.661   1.777  0.5188  0.3299 -0.1094
   13SOL    HW1   38   2.396   0.680   1.830 -0.7647 -0.8038  2.8655
   13SOL    HW2   39   2.471   0.654   1.673  0.2103  0.1230 -0.1241
   14SOL     OW   40   1.869   0.042   0.736 -0.1664  0.0641 -0.2619
   14SOL    HW1   41   1.811   0.065   0.651  0.2323 -1.1855  1.5560
   14SOL    HW2   42   1.818  -0.008   0.812 -1.3628  2.7936  1.3667
   15SOL     OW   43   1.992   2.093   2.736 -0.5159 -0.4161  0.1130
   15SOL    HW1   44   1.924   2.127   2.808 -3.5522 -0.0636 -1.2179
   15SOL    HW2   45   1.956   2.022   2.671  2.0552  1.0386  0.1689
   16SOL     OW   46   1.603   1.729   2.962 -0.3823  0.2793 -0.1226
   16SOL    HW1   47   1.605   1.625   2.979 -2.5087  0.7064  2.8003
   16SOL    HW2   48   1.684   1.773   3.007 -0.9825  0.2570 -1.8837
   17SOL     OW   49   0.132   0.515   0.216 -0.0763 -0.1986 -0.3441
   17SOL    HW1   50   0.226   0.526   0.173 -1.4108 -0.6761  1.0942
   17SOL    HW2   51   0.058   0.519   0.139 -3.3144  0.6024 -0.5824
   18SOL     OW   52   0.966   2.917   2.118 -0.6674 -0.4332  0.5960
   18SOL    HW1   53   0.892   2.851   2.119  2.1967  0.2018  1.9896
   18SOL    HW2   54   1.038   2.912   2.039  0.2426 -1.9721 -0.2001
   19SOL     OW   55   0.530   0.820   1.904  0.4118  0.2051 -0.1601
   19SOL    HW1   56   0.563   0.767   1.989  0.1482  1.8024 -1.4463
   19SOL    HW2   57   0.603   0.823   1.835 -3.4656  0.8875  2.3591
   20SOL     OW   58   0.195   2.701   0.826 -0.3114  0.1077  0.1003
   20SOL    HW1   59   0.114   2.763   0.805 -1.1354  0.3241  1.2335
   20SOL    HW2   60   0.265   2.693   0.750 -1.1567  2.8651 -1.6590
   21SOL     OW   61   2.737   0.211   2.100 -0.2532  0.1837 -0.2741
   21SOL    HW1   62   2.701   0.145   2.030 -0.5458  0.7850  2.1404
   21SOL    HW2   63   2.840   0.196   2.121 -1.0618 -0.0541 -0.0515
   22SOL     OW   64   2.385   0.228   0.141 -0.0269 -0.2117  0.4125
   22SOL    HW1   65   2.385   0.128   0.129  1.7213  0.8805  0.6156
   22SOL    HW2   66   2.291   0.272   0.124 -2.0925  0.5416 -1.1305
   23SOL     OW   67   2.786   0.656   0.653 -0.0537  0.2648  0.2976
   23SOL    HW1   68   2.772   0.565   0.599 -1.6991 -2.2303  0.1347
   23SOL    HW2   69   2.761   0.743   0.593  2.4361 -1.1248 -1.9954
   24SOL     OW   70   0.206   1.893   0.362 -0.4185 -0.1681 -0.0304
   24SOL    HW1   71   0.182   1.950   0.278 -1.1650 -0.3682 -0.5706
   24SOL    HW2   72   0.311   1.880   0.373  2.0802 -4.3414  0.8199
   25SOL     OW   73   2.202   0.559   0.287  0.0774  0.2461 -0.7144
   25SOL    HW1   74   2.227   0.589   0.189 -3.3787  1.0100 -3.0732
   25SOL    HW2   75   2.268   0.501   0.337  1.2925 -0.8395  0.7289
   26SOL     OW   76   2.516   2.090   2.084 -0.1009  0.2749  0.1362
   26SOL    HW1   77   2.564   2.169   2.129 -2.4439 -1.0852 -1.8270
   26SOL    HW2   78   2.569   2.042   2.008 -1.7226 -2.7936 -0.9448
   27SOL     OW   79   0.595   2.963   0.212 -0.0145 -0.0387 -0.3992
   27SOL    HW1   80   0.700   2.967   0.198 -0.3868 -0.6502  1.6607
   27SOL    HW2   81   0.548   2.961   0.118 -1.6738 -0.4677 -0.8683
   28SOL     OW   82   1.561   0.157   0.271  0.1043  0.1645 -0.0474
   28SOL    HW1   83   1.620   0.144   0.183 -1.1576  1.4471 -0.9273
   28SOL    HW2   84   1.574   0.251   0.316  0.3925  0.7330  1.6282
   29SOL     OW   85   1.953   0.611   0.428  0.2700  0.6630 -0.1397
   29SOL    HW1   86   1.902   0.698   0.418 -3.8505 -2.7116  1.0705
   29SOL    HW2   87   2.050   0.617   0.387 -0.1448  1.6143 -0.5404
   30SOL     OW   88   0.184   1.972   0.896 -0.2994  0.0465 -0.7048
   30SOL    HW1   89   0.183   1.994   0.794 -1.9835 -0.0605  2.4373
   30SOL    HW2   90   0.120   2.031   0.951  0.4296 -1.1538 -1.0064
   31SOL     OW   91   2.098   3.066   2.341 -0.1740 -0.1065  0.3426
   31SOL    HW1   92   2.130   3.086   2.437 -1.2260 -1.7426  1.6166
   31SOL    HW2   93   2.028   2.989   2.331 -0.0979  2.5676 -1.9269
   32SOL     OW   94   2.939   0.094   0.206  0.3123 -0.8390 -0.9172
   32SOL    HW1   95   2.947  -0.005   0.247 -0.0496  0.6521 -1.0280
   32SOL    HW2   96   3.030   0.140   0.222 -0.6855 -0.7386  0.2941
   33SOL     OW   97   0.945   0.294   0.611 -0.2413  0.1796 -0.1451
   33SOL    HW1   98   0.927   0.212   0.552  0.4689  0.6858  0.1532
   33SOL    HW2   99   1.044   0.318   0.609 -2.0446  0.5551  0.4927
   34SOL     OW  100   0.274   2.774   1.103 -0.7164 -0.4539 -0.2671
   34SOL    HW1  101   0.234   2.779   1.008  0.3592  2.2652  3.3695
   34SOL    HW2  102   0.377   2.765   1.091 -1.1693 -0.5531 -1.2759
   35SOL     OW  103   0.030   0.101   1.882  0.1049 -0.7619  0.0970
   35SOL    HW1  104   0.079   0.012   1.868 -0.1093 -0.5414  0.7947
   35SOL    HW2  105  -0.036   0.130   1.810  1.1101 -3.0195 -0.1014
   36SOL     OW  106   1.915   1.174   1.742 -0.7697  0.0529 -0.2607
   36SOL    HW1  107   1.931   1.113   1.665  2.1027  1.3628  3.1380
   36SOL    HW2  108   1.999   1.230   1.758  1.5945  0.7828 -0.9247
   37SOL     OW  109   1.180   0.159   0.938  0.0367  0.5557 -0.0920
   37SOL    HW1  110   1.220   0.223   1.013  0.2529  3.5832 -2.8278
   37SOL    HW2  111   1.249   0.140   0.863  0.5504 -3.5130 -0.0911
   38SOL     OW  112   1.059   2.789   2.483 -0.4099  0.3923  0.0336
   38SOL    HW1  113   1.032   2.686   2.468 -4.2059  0.7856  2.7170
   38SOL    HW2  114   1.007   2.854   2.425  1.2492  1.7338 -1.0358
   39SOL     OW  115   2.300   1.399   3.033  0.1103  0.3061 -0.0454
   39SOL    HW1  116   2.392   1.355   3.054 -0.2200 -0.3092 -1.9251
   39SOL    HW2  117   2.255   1.443   3.119  1.5814  2.0458  0.2762
   40SOL     OW  118   2.040   2.462   2.535 -0.4465 -0.9879 -0.7016
   40SOL    HW1  119   2.011   2.562   2.546 -1.4997 -1.4927  0.5685
   40SOL    HW2  120   1.961   2.394   2.519 -2.8462 -0.3091 -1.7550
   41SOL     OW  121   3.041   0.690   2.845  0.1093  0.0424 -0.1404
   41SOL    HW1  122   3.049   0.793   2.821 -3.2069  0.8022 -0.6660
   41SOL    HW2  123   2.952   0.643   2.818 -2.4362  2.9378  1.3603
   42SOL     OW  124   1.785   1.717   0.484  0.2366  0.2254  0.3379
   42SOL    HW1  125   1.714   1.643   0.489 -0.4173  0.7827 -0.1962
   42SOL    HW2  126   1.791   1.748   0.389  1.4914  1.4180  0.2580
   43SOL     OW  127   0.473   1.659   1.133 -0.4223 -0.6206  0.5698
   43SOL    HW1  128   0.461   1.563   1.173 -0.2596 -0.5092  0.0346
   43SOL    HW2  129   0.406   1.675   1.060 -0.6657 -2.1188 -0.3631
   44SOL     OW  130   1.788   2.508   3.040 -0.1035  0.3984 -0.9951
   44SOL    HW1  131   1.785   2.605   3.005 -2.3682  1.0184 -0.4048
   44SOL    HW2  132   1.816   2.432   2.974 -2.5237 -1.4177  0.2250
   45SOL     OW  133   0.431   1.938   2.597 -0.4443  0.0879 -0.0960
   45SOL    HW1  134   0.382   1.918   2.504 -0.9348  1.1008 -3.2040
   45SOL    HW2  135   0.481   1.858   2.639  0.5593 -0.5409  0.8544
   46SOL     OW  136   1.251   0.693   0.196 -0.0761 -0.3201 -0.0307
   46SOL    HW1  137   1.283   0.740   0.108 -0.8649  0.4572  0.5945
   46SOL    HW2  138   1.200   0.757   0.255  2.9510 -2.2352 -1.3701
   47SOL     OW  139   0.222   2.503   1.571 -0.1645 -0.0102 -0.2610
   47SOL    HW1  140   0.270   2.422   1.531  1.9973  2.7594 -3.7680
   47SOL    HW2  141   0.189   2.566   1.489 -2.5601  2.0463 -0.3050
   48SOL     OW  142   2.624   0.637   0.133  0.5482 -0.0732 -0.1321
   48SOL    HW1  143   2.604   0.584   0.223  0.8280 -1.1132  0.7659
   48SOL    HW2  144   2.713   0.683   0.135 -4.0595  1.5189  2.2676
   49SOL     OW  145   0.305   0.816   1.744 -0.6656  0.2118  0.3609
   49SOL    HW1  146   0.382   0.815   1.815 -1.5598  0.8922 -1.2973
   49SOL    HW2  147   0.316   0.746   1.669  0.0963 -0.2206 -0.2104
   50SOL     OW  148   1.672   1.133   0.315  0.3318  0.7206  0.3545
   50SOL    HW1  149   1.639   1.041   0.282 -1.0165  1.7701  1.1107
   50SOL    HW2  150   1.611   1.162   0.391 -0.6675 -2.2826 -1.2746
   51SOL     OW  151   2.883   1.835   0.302 -0.0439 -0.9871 -0.2222
   51SOL    HW1  152   2.809   1.776   0.260 -1.3282 -0.2307 -1.8686
   51SOL    HW2  153   2.972   1.784   0.330 -2.3810 -0.8497 -5.2534
   52SOL     OW  154   0.767   2.005   0.499 -0.3371 -0.1089  0.3451
   52SOL    HW1  155   0.698   2.061   0.549  0.8402 -1.6626  0.7455
   52SOL    HW2  156   0.809   1.928   0.559 -1.0295  3.8068 -0.0256
   53SOL     OW  157   0.180   0.412   1.595  0.4331 -0.1563 -0.6530
   53SOL    HW1  158   0.244   0.491   1.594  0.6192  0.3025 -0.9149
   53SOL    HW2  159   0.083   0.430   1.565  0.0094 -2.3981  2.1942
   54SOL     OW  160   1.816   0.476   3.056 -0.0484  0.2382  0.1765
   54SOL    HW1  161   1.862   0.464   3.148 -0.6506 -1.6432 -0.9324
   54SOL    HW2  162   1.710   0.469   3.074 -0.7265  1.7435  1.0727
   55SOL     OW  163   0.769   2.902   0.688 -0.2404  0.3486 -0.2202
   55SOL    HW1  164   0.722   2.991   0.654 -0.9103  3.3300  2.0258
   55SOL    HW2  165   0.862   2.880   0.647 -0.5832 -3.1138 -1.0350
   56SOL     OW  166   0.517   1.593   0.013  0.6611 -0.1825  0.2044
   56SOL    HW1  167   0.416   1.621   0.034  2.3439  1.3295 -0.7820
   56SOL    HW2  168   0.527   1.519  -0.061  1.1478 -0.1367 -1.7411
   57SOL     OW  169   1.726   2.509   2.485 -0.1004  0.2290 -0.7437
   57SOL    HW1  170   1.789   2.424   2.478 -4.3275  1.0999  1.8515
   57SOL    HW2  171   1.637   2.490   2.528  0.4526  0.8218  2.6817
   58SOL     OW  172   0.653   0.255   1.031  0.4267 -0.8432  0.3842
   58SOL    HW1  173   0.555   0.237   1.059  0.7619 -0.6256 -0.5141
   58SOL    HW2  174   0.720   0.181   1.047 -1.5407  2.7041  1.1630
   59SOL     OW  175   0.453   2.450   2.741  0.3120 -0.2537 -0.4614
   59SOL    HW1  176   0.465   2.351   2.706 -0.1627  1.2284 -2.6997
   59SOL    HW2  177   0.548   2.478   2.767  1.5358  0.6517  1.4409
   60SOL     OW  178   2.288   2.037   2.207  0.4243  0.4884  0.1706
   60SOL    HW1  179   2.370   2.039   2.149 -3.9375 -0.5950  1.6651
   60SOL    HW2  180   2.290   2.085   2.297 -0.0897 -2.1816  0.7638
   61SOL     OW  181   1.332   0.630   0.499 -0.2126  0.1221 -0.0197
   61SOL    HW1  182   1.241   0.679   0.510 -3.7382 -1.5109 -1.2729
   61SOL    HW2  183   1.391   0.674   0.424  0.2257  1.5319 -1.0128
   62SOL     OW  184   2.753   1.808   2.923 -0.4040  0.3588  0.4669
   62SOL    HW1  185   2.717   1.712   2.919 -4.3046  0.8908 -0.5555
   62SOL    HW2  186   2.849   1.817   2.881 -2.6538  0.5581  0.9668
   63SOL     OW  187   0.587   0.896   0.195 -0.5809 -0.2341  0.2933
   63SOL    HW1  188   0.637   0.932   0.111  3.2901 -0.3674 -1.0510
   63SOL    HW2  189   0.640   0.887   0.282 -2.2688 -2.5834  1.9200
   64SOL     OW  190   0.105   0.479   2.473 -0.0376 -0.1624 -0.1268
   64SOL    HW1  191   0.144   0.518   2.558 -2.3896  1.6664 -1.0757
   64SOL    HW2  192   0.082   0.557   2.404  1.1943 -2.2592  1.0282
   65SOL     OW  193   0.157   1.499   0.541 -0.1969  0.2447 -0.5357
   65SOL    HW1  194   0.202   1.545   0.619 -2.7701  0.5210 -1.9474
   65SOL    HW2  195   0.218   1.455   0.471  1.1088 -0.2102  1.6846
   66SOL     OW  196   2.568   0.391   0.612 -0.0671 -0.4771  0.2098
   66SOL    HW1  197   2.666   0.390   0.633  1.7294 -1.1461 -0.7080
   66SOL    HW2  198   2.517   0.328   0.677  2.0147 -1.2751  2.6079
   67SOL     OW  199   0.539   2.543   1.375 -0.3401  0.0150  0.3257
   67SOL    HW1  200   0.566   2.532   1.473  0.9098  0.8596 -2.6107
   67SOL    HW2  201   0.470   2.469   1.351 -0.9297  3.1774  0.6897
   68SOL     OW  202   1.013   1.089   2.468 -0.0223 -0.1944  0.2992
   68SOL    HW1  203   1.072   1.002   2.464  1.1777  0.1852 -0.3610
   68SOL    HW2  204   0.942   1.092   2.389 -0.8550 -1.7832  0.6247
   69SOL     OW  205   0.735   2.728   2.175 -0.2804  0.3644 -0.1747
   69SOL    HW1  206   0.753   2.625   2.184 -1.8297 -0.4665  3.6170
   69SOL    HW2  207   0.638   2.758   2.177  3.2905  0.1257 -2.5083
   70SOL     OW  208   0.517   0.310   2.691  0.0333 -0.2928  0.1416
   70SOL    HW1  209   0.514   0.340   2.789 -0.4175 -2.5810  0.3718
   70SOL    HW2  210   0.503   0.211   2.689  2.3318 -0.3077 -1.7440
   71SOL     OW  211   1.115   1.742   0.454  0.5387  0.0946  0.6410
   71SOL    HW1  212   1.075   1.688   0.538  0.0774 -0.5809 -0.4037
   71SOL    HW2  213   1.043   1.752   0.383  1.0499 -0.5369 -0.3662
   72SOL     OW  214   1.818   0.210   2.164 -0.7438 -0.0291  0.2635
   72SOL    HW1  215   1.909   0.253   2.189  0.8383  2.3542  2.0071
   72SOL    HW2  216   1.818   0.105   2.161 -1.7588  1.9247  0.5924
   73SOL     OW  217   2.815   2.187   2.422 -0.4924  0.1774 -0.3446
   73SOL    HW1  218   2.798   2.102   2.378  1.7466  2.2007 -1.0251
   73SOL    HW2  219   2.856   2.174   2.520  2.9187  0.9098  1.7920
   74SOL     OW  220   2.656   2.914   2.133  0.1566  0.0757  0.2538
   74SOL    HW1  221   2.592   2.903   2.218 -0.7448  1.2092  1.6123
   74SOL    HW2  222   2.754   2.892   2.154 -3.2826 -0.6238  1.2487
   75SOL     OW  223   0.911   0.781   1.113  0.1217  0.6961  0.0890
   75SOL    HW1  224   0.813   0.805   1.078 -1.5597 -1.0055 -1.7632
   75SOL    HW2  225   0.953   0.858   1.175  1.1773  0.5151  3.8306
   76SOL     OW  226   1.686   1.174   2.501  0.0942 -0.7145 -0.0082
   76SOL    HW1  227   1.587   1.139   2.504 -4.2933  1.8021 -0.2031
   76SOL    HW2  228   1.702   1.263   2.549 -2.3456 -0.4225 -1.4647
   77SOL     OW  229   2.976   0.926   0.947 -0.5288 -0.4717  0.1369
   77SOL    HW1  230   2.918   0.844   0.953  1.5645  0.1158 -0.5045
   77SOL    HW2  231   3.062   0.921   1.003  1.2057  1.9895 -2.7197
   78SOL     OW  232   2.062   1.484   1.529 -0.1335  0.2868 -0.3041
   78SOL    HW1  233   2.157   1.477   1.485 -0.5523  1.6286 -3.0641
   78SOL    HW2  234   1.987   1.483   1.459 -1.3246 -2.1194  1.4604
   79SOL     OW  235   0.595   1.367   0.870 -0.6159  0.2072 -0.3268
   79SOL    HW1  236   0.497   1.348   0.901 -0.1509  0.7509 -1.7365
   79SOL    HW2  237   0.612   1.334   0.773  0.5231 -1.5871 -2.4950
   80SOL     OW  238   0.638   0.502   1.589  0.2796  0.4733  0.1573
   80SOL    HW1  239   0.701   0.550   1.524  1.2407  0.0841  1.1498
   80SOL    HW2  240   0.590   0.418   1.549  0.1714 -0.0791 -0.5858
   81SOL     OW  241   1.025   1.397   2.630 -0.3401  0.0022  0.1938
   81SOL    HW1  242   1.085   1.329   2.584  0.8902 -0.8502 -2.1364
   81SOL    HW2  243   0.940   1.403   2.569 -0.0487  1.0153 -0.6364
   82SOL     OW  244   1.004   2.946   1.512 -0.0522  0.5498  0.4915
   82SOL    HW1  245   1.041   2.977   1.421  0.5707 -0.1909  0.1784
   82SOL    HW2  246   0.912   2.899   1.506  1.3317  1.2750 -0.1263
   83SOL     OW  247   2.736   2.457   0.855  0.3352  0.2043  0.1997
   83SOL    HW1  248   2.657   2.408   0.809 -3.2567 -2.0568  0.5609
   83SOL    HW2  249   2.742   2.556   0.829 -0.2977 -1.3998  1.5312
   84SOL     OW  250   0.644   3.036   2.362  0.4079 -0.5772 -0.4063
   84SOL    HW1  251   0.547   3.022   2.390 -2.1852  0.5752  0.9408
   84SOL    HW2  252   0.712   2.958   2.387  0.4112 -0.9682 -1.8201
   85SOL     OW  253   0.257   1.583   1.493 -0.1442  0.0034  0.0990
   85SOL    HW1  254   0.238   1.686   1.485  0.9877 -2.5613 -1.3840
   85SOL    HW2  255   0.344   1.560   1.544 -1.4018  2.1388 -1.5263
   86SOL     OW  256   0.394   0.999   1.535 -0.3694 -0.0843 -0.1156
   86SOL    HW1  257   0.381   0.945   1.447  1.3836 -1.0949  0.0246
   86SOL    HW2  258   0.413   0.943   1.621  1.4966 -0.8828  0.6152
   87SOL     OW  259   1.577   0.680   0.209 -0.2983  0.1400  0.0709
   87SOL    HW1  260   1.675   0.720   0.193  2.2139  1.7197 -1.2244
   87SOL    HW2  261   1.548   0.619   0.133  0.7234 -0.9300  0.6969
   88SOL     OW  262   1.608   1.377   0.214 -0.2462 -0.3140  0.8905
   88SOL    HW1  263   1.654   1.289   0.241 -0.0316  0.1352  1.1879
   88SOL    HW2  264   1.502   1.375   0.199 -2.2073 -0.1481 -1.8798
   89SOL     OW  265   0.004   0.451   0.584 -0.0152  0.5140  0.1301
   89SOL    HW1  266   0.064   0.368   0.588  0.0368  1.8996 -1.5108
   89SOL    HW2  267  -0.094   0.426   0.571  0.7992  2.0921 -0.5852
   90SOL     OW  268   0.883   1.597   0.053  0.4409 -0.5360  0.4034
   90SOL    HW1  269   0.807   1.560   0.112 -1.3002  2.8597 -2.5704
   90SOL    HW2  270   0.856   1.594  -0.050  2.7376 -0.0947 -1.2397
   91SOL     OW  271   1.215   1.463   1.809 -0.1429 -0.4125  0.4082
   91SOL    HW1  272   1.213   1.538   1.884  0.1188  1.0968 -2.0439
   91SOL    HW2  273   1.312   1.430   1.791 -2.8449  0.5672 -0.5515
   92SOL     OW  274   3.092   0.980   1.195 -0.2364  0.1561  0.2674
   92SOL    HW1  275   3.123   1.079   1.176 -0.7172  0.7376  2.0712
   92SOL    HW2  276   3.111   0.952   1.293  1.0242 -1.0486 -0.4649
   93SOL     OW  277   0.011   2.708   3.061  0.3987 -0.1242 -0.3089
   93SOL    HW1  278  -0.062   2.702   2.986  0.8107  1.0230 -1.0406
   93SOL    HW2  279   0.048   2.615   3.084 -1.0624 -0.7130 -2.1253
   94SOL     OW  280   1.495   1.499   1.740  0.5493 -0.0680 -0.1664
   94SOL    HW1  281   1.538   1.407   1.719  0.2205 -0.0330  1.4104
   94SOL    HW2  282   1.537   1.534   1.828  2.7829 -1.2089  1.1169
   95SOL     OW  283   1.351   2.548   2.981 -0.1008 -0.2654  0.1260
   95SOL    HW1  284   1.283   2.527   3.056  2.1047 -0.7061  0.8589
   95SOL    HW2  285   1.357   2.470   2.913  1.2121 -1.6690 -1.3307
   96SOL     OW  286   0.549   2.120   1.251  0.2368 -0.2028 -0.2515
   96SOL    HW1  287   0.508   2.070   1.166 -0.6353 -0.3135  1.3274
   96SOL    HW2  288   0.605   2.055   1.308 -0.1313  0.8459 -2.5999
   97SOL     OW  289   0.415   1.609   2.468  0.3240 -0.2962  0.1710
   97SOL    HW1  290   0.333   1.667   2.478 -1.2904 -1.8065  2.5987
   97SOL    HW2  291   0.466   1.591   2.558  2.5633  1.1624 -0.8359
   98SOL     OW  292   2.011   1.606   1.219  0.6409  0.0666 -0.4785
   98SOL    HW1  293   1.920   1.578   1.263 -1.1138  0.4345 -0.4935
   98SOL    HW2  294   2.032   1.551   1.137  1.1106  0.8317  0.0445
   99SOL     OW  295   2.449   2.049   1.391  0.5274 -0.1934 -0.0991
   99SOL    HW1  296   2.490   2.036   1.485  1.2139 -0.1871 -0.2325
   99SOL    HW2  297   2.441   1.960   1.338  0.5371  0.6128 -0.9019
  100SOL     OW  298   2.365   0.307   2.115  0.6819 -0.0124 -0.0460
  100SOL    HW1  299   2.299   0.283   2.197 -1.0025  0.0422  2.4525
  100SOL    HW2  300   2.445   0.372   2.137  1.1453  3.8243 -0.7263
  101SOL     OW  301   0.394   1.509   0.386  0.3650 -0.3836  0.7987
  101SOL    HW1  302   0.481   1.503   0.442  1.2088 -0.6213  2.0128
  101SOL    HW2  303   0.373   1.605   0.358  0.0125 -0.4142  2.9720
  102SOL     OW  304   2.261   1.022   0.842  0.2768  0.5278  0.3366
  102SOL    HW1  305   2.171   0.970   0.828 -0.2816 -0.1316  2.7540
  102SOL    HW2  306   2.289   1.080   0.766 -2.6029 -1.8452  2.5168
  103SOL     OW  307   2.275   0.066   0.397  0.1151  0.4322  0.3143
  103SOL    HW1  308   2.293   0.164   0.395 -1.5625 -1.7036 -1.1958
  103SOL    HW2  309   2.359   0.016   0.438 -0.6659 -0.6964 -0.6035
  104SOL     OW  310   0.084   1.748   2.202 -0.1789  0.3338  0.5939
  104SOL    HW1  311   0.116   1.684   2.127 -0.2454 -2.1033 -1.5821
  104SOL    HW2  312  -0.001   1.796   2.171  0.4293 -1.9996 -1.3484
  105SOL     OW  313   1.218   2.099   0.796 -0.0868 -0.0219 -0.0984
  105SOL    HW1  314   1.146   2.107   0.724  1.7764 -0.9205 -1.0393
  105SOL    HW2  315   1.272   2.013   0.782 -0.3436  0.4204  0.9629
  106SOL     OW  316   2.105   0.428   1.407 -0.1219  0.1044 -0.4563
  106SOL    HW1  317   2.056   0.338   1.411 -0.1879 -1.2153 -0.6632
  106SOL    HW2  318   2.101   0.483   1.495 -0.1965  1.5977 -0.1532
  107SOL     OW  319   1.832   3.008   1.186  0.0732  0.5167 -0.3457
  107SOL    HW1  320   1.861   3.095   1.238  1.0199 -0.3700  0.4040
  107SOL    HW2  321   1.766   2.949   1.244 -1.6948 -0.5417  1.6860
  108SOL     OW  322   0.766   2.806   1.227 -0.1415 -0.1335  0.5266
  108SOL    HW1  323   0.767   2.818   1.329 -1.8859  0.3331  0.1658
  108SOL    HW2  324   0.861   2.829   1.189 -1.9375  0.8545  2.4990
  109SOL     OW  325   2.142   0.114   0.754  0.0348 -0.3918  1.0950
  109SOL    HW1  326   2.044   0.092   0.730  1.4533 -1.3052 -0.0109
  109SOL    HW2  327   2.170   0.080   0.847 -2.6008 -0.4899  1.6454
  110SOL     OW  328   0.462   2.839   2.788  0.1875 -0.5542  0.5276
  110SOL    HW1  329   0.458   2.850   2.685 -0.2359 -1.7216  2.7207
  110SOL    HW2  330   0.538   2.769   2.816 -1.3103 -0.6739  0.7642
  111SOL     OW  331   1.311   0.570   2.333  0.2276 -0.4088 -0.0653
  111SOL    HW1  332   1.221   0.610   2.372 -1.7857  0.1684 -0.0489
  111SOL    HW2  333   1.337   0.486   2.386 -2.1202 -1.9888 -1.8953
  112SOL     OW  334   1.732   0.555   1.441 -0.5253 -0.5921  0.1105
  112SOL    HW1  335   1.763   0.545   1.341 -2.8893  2.0360 -0.0276
  112SOL    HW2  336   1.682   0.472   1.485 -0.3023  1.0655 -1.4385
  113SOL     OW  337   2.278   1.682   1.771  0.6298 -0.0986 -0.3641
  113SOL    HW1  338   2.313   1.594   1.733 -2.5563  0.2563 -0.9933
  113SOL    HW2  339   2.286   1.690   1.874  0.2359  0.3124 -0.5691
  114SOL     OW  340   0.377   0.522   1.252  0.8366  0.2594  0.3078
  114SOL    HW1  341   0.414   0.582   1.180 -2.4613 -2.5709  1.1793
  114SOL    HW2  342   0.275   0.530   1.253  1.5744  0.5720  0.0536
  115SOL     OW  343   2.751   1.580   1.264 -0.8612  0.6458 -0.0458
  115SOL    HW1  344   2.771   1.477   1.274  0.0740 -2.0806 -0.7213
  115SOL    HW2  345   2.758   1.611   1.163  0.8245  1.5740  1.0732
  116SOL     OW  346   1.839   1.043   0.715 -0.4464  0.4138 -0.7256
  116SOL    HW1  347   1.766   0.988   0.668 -0.3611 -2.5035 -0.8750
  116SOL    HW2  348   1.807   1.110   0.784  0.5742 -0.8315  0.7472
  117SOL     OW  349   1.221   0.376   0.558  0.7464  0.1070 -0.0858
  117SOL    HW1  350   1.226   0.425   0.653 -0.9671 -0.6469 -0.1281
  117SOL    HW2  351   1.254   0.428   0.477 -1.4509 -0.1325 -3.7341
  118SOL     OW  352   1.134   1.115   1.109  0.2066 -0.0671 -0.2387
  118SOL    HW1  353   1.081   1.052   1.162  0.8624 -1.7489  1.2594
  118SOL    HW2  354   1.128   1.217   1.135  0.5207  0.2016 -1.3767
  119SOL     OW  355   1.815   1.618   2.146  0.4350 -0.7592  0.4232
  119SOL    HW1  356   1.798   1.720   2.164 -0.0798  0.5056  0.6509
  119SOL    HW2  357   1.920   1.594   2.129 -0.7497 -1.4293 -2.0882
  120SOL     OW  358   2.957   2.879   0.117  0.0997  0.1315 -0.2946
  120SOL    HW1  359   3.024   2.843   0.050 -0.7853 -0.6994 -0.8716
  120SOL    HW2  360   2.859   2.835   0.117  0.4215 -0.5900  2.1795
  121SOL     OW  361   1.985   0.748   2.237  0.2875  0.1524 -1.1375
  121SOL    HW1  362   1.997   0.802   2.150  1.4162 -1.4384  0.6896
  121SOL    HW2  363   2.015   0.650   2.223  0.6910 -1.1217 -0.5914
  122SOL     OW  364   2.581   2.658   1.228 -0.2024 -0.1456  0.3091
  122SOL    HW1  365   2.655   2.583   1.212  1.0474 -0.8150  0.2802
  122SOL    HW2  366   2.494   2.640   1.176  0.3741 -0.1288  3.2976
  123SOL     OW  367   1.735   0.081   1.723 -0.2823 -0.2415 -0.1157
  123SOL    HW1  368   1.761  -0.007   1.666 -1.4052  0.2134 -1.3638
  123SOL    HW2  369   1.819   0.122   1.763  1.2560  0.2717 -2.3725
  124SOL     OW  370   0.097   0.474   1.106 -0.4200  0.0531 -0.0033
  124SOL    HW1  371   0.125   0.554   1.168 -0.2627 -0.5110  2.5700
  124SOL    HW2  372   0.060   0.505   1.007  0.6689  2.2502  0.6586
  125SOL     OW  373   0.854   1.836   0.701  0.2426 -0.6939 -0.3721
  125SOL    HW1  374   0.944   1.811   0.745 -0.2016  0.4347 -0.3622
  125SOL    HW2  375   0.790   1.881   0.770  1.9134 -0.3211 -1.1709
  126SOL     OW  376   1.867   2.276   2.445 -0.1514 -0.7644  0.0406
  126SOL    HW1  377   1.924   2.254   2.361 -1.1105  0.9075 -1.6391
  126SOL    HW2  378   1.795   2.203   2.464 -0.5192  1.7689  0.7695
  127SOL     OW  379   0.993   0.899   0.258  0.6921 -0.3362  0.4245
  127SOL    HW1  380   1.002   0.938   0.354 -2.0500  0.9273  1.6241
  127SOL    HW2  381   0.947   0.806   0.266  1.2570  1.0707 -1.5017
  128SOL     OW  382   0.906   0.224   1.393  0.3303 -0.0682  0.5551
  128SOL    HW1  383   0.911   0.308   1.339  0.0782 -2.4822  1.4549
  128SOL    HW2  384   0.870   0.135   1.348 -4.1505 -1.7902 -0.0254
  129SOL     OW  385   1.826   0.693   1.891 -0.1566  0.0515 -0.5911
  129SOL    HW1  386   1.825   0.686   1.783  1.1607 -2.4009  1.7308
  129SOL    HW2  387   1.883   0.769   1.927  0.0493 -1.5669 -1.1099
  130SOL     OW  388   1.362   2.223   1.014  0.0134 -0.4957  0.3899
  130SOL    HW1  389   1.319   2.166   0.941  1.9128 -2.1542  1.3410
  130SOL    HW2  390   1.458   2.253   0.995 -3.2462 -0.1370 -1.2376
  131SOL     OW  391   3.067   1.455   1.400 -0.0026  0.2464  0.4409
  131SOL    HW1  392   3.002   1.375   1.399  2.1172 -0.6675  1.1523
  131SOL    HW2  393   3.161   1.414   1.392 -0.2533 -0.6525  0.1682
  132SOL     OW  394   2.055   2.446   0.514  0.2521  0.3597  0.2209
  132SOL    HW1  395   1.952   2.473   0.517  1.7861 -1.8027 -2.9366
  132SOL    HW2  396   2.071   2.359   0.568  0.3983 -1.3613 -0.0827
  133SOL     OW  397   1.868   2.319   2.843  0.0267 -0.2334 -0.2628
  133SOL    HW1  398   1.844   2.366   2.755  0.5442  2.1781  1.8719
  133SOL    HW2  399   1.959   2.353   2.872  1.0749 -0.9931 -1.3732
  134SOL     OW  400   2.661   2.359   1.640 -0.0033  0.3153 -0.7461
  134SOL    HW1  401   2.595   2.345   1.717  0.2299  1.3962 -0.3414
  134SOL    HW2  402   2.720   2.444   1.646  0.3285 -1.3034  1.2038
  135SOL     OW  403   0.646   1.466   2.672 -0.0312 -0.0170 -0.3388
  135SOL    HW1  404   0.586   1.376   2.688 -1.5460 -2.2173 -0.1247
  135SOL    HW2  405   0.735   1.442   2.630  0.1191 -0.3395 -1.8693
  136SOL     OW  406   1.189   2.018   0.417 -0.3175  0.5765  0.3360
  136SOL    HW1  407   1.119   2.086   0.445  1.4389 -0.9581 -1.6084
  136SOL    HW2  408   1.162   1.921   0.429  0.1353  2.0282  0.4085
  137SOL     OW  409   0.420   1.177   2.175  0.1090  0.3965 -0.2304
  137SOL    HW1  410   0.325   1.157   2.208 -3.5740 -0.0661 -1.0670
  137SOL    HW2  411   0.492   1.107   2.206 -1.5331 -2.6171 -0.1628
  138SOL     OW  412   2.470   1.525   0.226  0.6030 -0.0810 -0.6766
  138SOL    HW1  413   2.383   1.477   0.183 -0.4600 -2.2388  0.6352
  138SOL    HW2  414   2.529   1.466   0.289 -0.4936  2.2922  0.2662
  139SOL     OW  415   1.855   2.601   1.286 -0.1306  0.1582  0.2485
  139SOL    HW1  416   1.754   2.589   1.269  0.1015 -0.1434 -1.7625
  139SOL    HW2  417   1.889   2.509   1.320 -2.1595  2.3782  0.2121
  140SOL     OW  418   3.017   2.986   2.543 -0.3876  0.2739  0.2075
  140SOL    HW1  419   3.052   2.887   2.552  1.3180  0.7557  0.7507
  140SOL    HW2  420   3.087   3.057   2.523 -0.0451  1.1890 -0.9392
  141SOL     OW  421   1.330   1.671   1.610  0.3878 -0.1380 -0.5452
  141SOL    HW1  422   1.231   1.677   1.636  0.3118 -1.8820 -1.0457
  141SOL    HW2  423   1.386   1.620   1.683  0.3131 -0.8585  0.1997
  142SOL     OW  424   1.581   0.583   2.257  0.7744  0.0022 -0.4189
  142SOL    HW1  425   1.590   0.581   2.153 -2.6216  1.6636  1.7089
  142SOL    HW2  426   1.480   0.572   2.280 -0.2024  1.5352 -1.6174
  143SOL     OW  427   2.712   0.896   0.515 -0.5324 -0.1112 -0.6903
  143SOL    HW1  428   2.748   0.945   0.431  0.1922  2.1286 -0.3083
  143SOL    HW2  429   2.743   0.938   0.603 -0.6360  0.4223  1.0270
  144SOL     OW  430   2.916   1.157   1.444 -0.6119  0.3253  0.0324
  144SOL    HW1  431   2.851   1.149   1.526 -3.7825  0.6005 -3.1484
  144SOL    HW2  432   2.994   1.088   1.438 -0.4752  1.1735 -1.7008
  145SOL     OW  433   0.985   1.818   0.179 -0.4938 -0.3829  0.2387
  145SOL    HW1  434   1.023   1.885   0.112  0.6844 -1.8349  0.2750
  145SOL    HW2  435   0.953   1.732   0.132 -0.2049  1.6136 -1.5122
  146SOL     OW  436   2.513   0.667   1.502  0.3593 -0.1385 -0.0422
  146SOL    HW1  437   2.478   0.578   1.461  0.3329  1.4301 -0.3730
  146SOL    HW2  438   2.454   0.741   1.458 -2.3557 -2.5212 -0.4393
  147SOL     OW  439   1.094   2.460   0.629 -0.3471  0.2081  0.9348
  147SOL    HW1  440   1.065   2.529   0.559  2.4540  2.1657 -3.2055
  147SOL    HW2  441   1.185   2.421   0.607 -0.4249  2.0030  0.6850
  148SOL     OW  442   1.629   1.484   3.044 -0.3699  0.0455 -0.4229
  148SOL    HW1  443   1.634   1.391   3.006 -1.9206  1.6137  2.3527
  148SOL    HW2  444   1.604   1.482   3.145 -0.0517 -1.3822 -1.8338
  149SOL     OW  445   0.695   1.391   1.982 -0.0003 -0.3234 -0.1252
  149SOL    HW1  446   0.592   1.403   1.972  0.8503  2.1000 -1.7010
  149SOL    HW2  447   0.740   1.337   1.903  0.2979 -2.2408  1.8316
  150SOL     OW  448   3.019   1.224   0.942 -0.2703 -0.4244  0.0868
  150SOL    HW1  449   3.095   1.244   1.011  2.4150  0.3305 -1.7247
  150SOL    HW2  450   2.968   1.141   0.970 -1.3839 -0.4838  1.7827
  151SOL     OW  451   0.181   0.737   2.124 -0.4223  0.0456 -0.5022
  151SOL    HW1  452   0.173   0.823   2.064 -1.8702  1.5991  1.0778
  151SOL    HW2  453   0.233   0.664   2.076  0.5371  0.6859 -0.6085
  152SOL     OW  454   1.427   1.768   1.287 -0.0501  0.0169  0.3334
  152SOL    HW1  455   1.433   1.848   1.352  0.3043 -1.6279 -2.5822
  152SOL    HW2  456   1.330   1.750   1.256 -0.6148  0.5406 -0.3923
  153SOL     OW  457   0.038   1.526   0.162  0.3857  0.4222  0.2984
  153SOL    HW1  458   0.042   1.423   0.174  0.7247  0.5060 -2.1429
  153SOL    HW2  459   0.012   1.574   0.251  0.7815  0.6168 -0.4281
  154SOL     OW  460   2.392   1.857   2.790 -0.0144 -0.9235  0.8219
  154SOL    HW1  461   2.389   1.756   2.812 -0.1986  1.3961 -0.7937
  154SOL    HW2  462   2.462   1.880   2.719 -1.9634  0.1924  1.3007
  155SOL     OW  463   2.472   1.201   0.380 -0.4092 -0.1361 -0.2785
  155SOL    HW1  464   2.564   1.192   0.334 -0.2121  0.8827 -1.0854
  155SOL    HW2  465   2.399   1.165   0.317 -0.6273 -2.7797  0.3693
  156SOL     OW  466   2.524   0.984   0.862  0.5245  0.5328 -0.4695
  156SOL    HW1  467   2.420   1.000   0.867 -0.6914 -1.2915 -0.3486
  156SOL    HW2  468   2.562   1.041   0.786 -1.7837  1.2702 -2.2061
  157SOL     OW  469   1.283   2.931   3.028 -0.3710  0.2135  0.2951
  157SOL    HW1  470   1.301   2.932   2.923 -0.0279  0.2277 -3.2881
  157SOL    HW2  471   1.308   3.025   3.069  0.2271  0.4439 -0.3556
  158SOL     OW  472   1.007   1.831   1.893 -0.1877  0.1781  0.2623
  158SOL    HW1  473   1.014   1.924   1.845  0.9939  0.9718  0.5404
  158SOL    HW2  474   0.914   1.813   1.928 -2.2959 -0.9473 -1.0258
  159SOL     OW  475   0.832   0.424   1.215  0.2629 -0.2970  0.3186
  159SOL    HW1  476   0.798   0.500   1.279 -0.1423 -1.9006 -0.9382
  159SOL    HW2  477   0.757   0.383   1.161  0.1551 -1.0028  1.0214
  160SOL     OW  478   1.405   2.334   1.566 -0.0218  1.0069 -0.2131
  160SOL    HW1  479   1.395   2.253   1.626  0.8942 -1.0454 -1.2515
  160SOL    HW2  480   1.507   2.362   1.554  1.5446  1.1884  0.0562
  161SOL     OW  481   0.076   2.952   0.325 -0.3238  0.1631  0.8702
  161SOL    HW1  482   0.022   2.860   0.311  1.0664 -1.4187 -1.5414
  161SOL    HW2  483   0.082   3.009   0.239 -1.8221 -1.7799  1.1865
  162SOL     OW  484   2.558   1.884   0.490  1.1119 -0.3412 -0.0366
  162SOL    HW1  485   2.546   1.830   0.408 -0.4410 -1.3152  1.0513
  162SOL    HW2  486   2.592   1.824   0.566 -1.8529  0.6576  0.3982
  163SOL     OW  487   1.901   2.845   0.728  0.2787 -0.0781  0.0776
  163SOL    HW1  488   1.915   2.894   0.638  0.6468 -1.0267  0.4986
  163SOL    HW2  489   1.959   2.758   0.741 -0.4953  1.0714  0.0630
  164SOL     OW  490   3.065   0.260   1.223  0.1665  0.0508  0.1537
  164SOL    HW1  491   3.127   0.339   1.184 -0.0664  2.0670  0.9306
  164SOL    HW2  492   3.107   0.208   1.308  1.4063 -1.7588  2.5323
  165SOL     OW  493   0.969   1.453   0.747  0.1035 -0.3369  0.3151
  165SOL    HW1  494   0.930   1.513   0.813  0.3554 -0.0639 -1.6411
  165SOL    HW2  495   0.945   1.478   0.648  0.1325  2.0154  2.0536
  166SOL     OW  496   1.499   1.059   1.749  0.4775 -0.5475 -0.1133
  166SOL    HW1  497   1.420   1.051   1.817  0.8102 -1.2046 -2.0317
  166SOL    HW2  498   1.583   1.116   1.776 -0.6892 -0.2251 -1.0757
  167SOL     OW  499   0.719   1.957   1.442  0.0696  1.0923 -0.3639
  167SOL    HW1  500   0.770   2.014   1.513 -0.4843  0.7985 -0.3708
  167SOL    HW2  501   0.693   1.858   1.475  1.5565 -0.0181 -2.0994
  168SOL     OW  502   1.659   2.384   0.145  0.5553 -0.5589  0.6935
  168SOL    HW1  503   1.717   2.439   0.072 -0.9309 -1.0869 -0.7017
  168SOL    HW2  504   1.698   2.338   0.230 -1.6001 -0.3663 -0.6645
  169SOL     OW  505   0.210   2.548   2.259  0.8030  0.0784  0.4758
  169SOL    HW1  506   0.238   2.493   2.173  1.8373  0.0565 -1.1958
  169SOL    HW2  507   0.227   2.508   2.353 -1.5241  1.5363  0.0205
  170SOL     OW  508   1.129   0.225   2.011 -0.0929 -0.6252  0.0711
  170SOL    HW1  509   1.206   0.218   2.082 -0.5378 -0.9778 -0.7940
  170SOL    HW2  510   1.172   0.202   1.916  2.1945 -0.6212  2.9393
  171SOL     OW  511   0.181   0.781   2.407  0.0367  0.0811 -0.4355
  171SOL    HW1  512   0.107   0.841   2.451 -3.8542 -0.6159 -1.7666
  171SOL    HW2  513   0.164   0.768   2.303 -0.2002  1.2966 -3.0550
  172SOL     OW  514   0.925   1.011   2.895  0.1732 -0.4606 -0.5078
  172SOL    HW1  515   0.982   1.090   2.930  0.3868 -1.2149 -0.6748
  172SOL    HW2  516   0.888   1.028   2.800 -0.0557  1.1994  0.0669
  173SOL     OW  517   0.658   2.686   0.141  0.3805  0.4350 -0.0032
  173SOL    HW1  518   0.691   2.778   0.143 -1.4137 -3.1020  0.4485
  173SOL    HW2  519   0.558   2.676   0.138  1.5574 -0.9354  0.1648
  174SOL     OW  520   1.478   2.838   1.057  0.4024 -0.4038 -0.7581
  174SOL    HW1  521   1.466   2.925   1.009  1.0894 -1.4336  1.2634
  174SOL    HW2  522   1.483   2.750   0.997  3.8613 -0.5996 -1.1638
  175SOL     OW  523   0.408  -0.004   1.632  0.3269 -0.3812  0.6536
  175SOL    HW1  524   0.480   0.028   1.698  0.3451  0.6061 -1.3567
  175SOL    HW2  525   0.364   0.081   1.584  2.1305 -0.8139 -1.8945
  176SOL     OW  526   2.618   0.398   0.005  0.1352 -0.0647  0.4015
  176SOL    HW1  527   2.609   0.489   0.054 -1.1570 -0.3746  2.1262
  176SOL    HW2  528   2.556   0.330   0.055 -0.8184  0.6027 -4.2858
  177SOL     OW  529   0.355   0.306   0.999 -0.3311  0.1158 -0.5817
  177SOL    HW1  530   0.289   0.238   0.958  0.8642  2.9023 -1.6693
  177SOL    HW2  531   0.305   0.387   1.036  1.3267 -2.9515 -0.2990
  178SOL     OW  532   3.095   2.728   2.578  0.5840  0.8162 -0.1874
  178SOL    HW1  533   3.015   2.681   2.624 -0.4499 -1.3861 -0.4696
  178SOL    HW2  534   3.170   2.751   2.648 -0.4672 -0.0434  0.1352
  179SOL     OW  535   3.086   1.621   1.142 -0.3135 -0.6095 -0.0575
  179SOL    HW1  536   2.983   1.636   1.139 -2.4910 -1.3134  0.0974
  179SOL    HW2  537   3.103   1.584   1.237 -3.2523  2.1228 -1.8859
  180SOL     OW  538   0.182   1.214   1.867 -0.3845 -0.4865 -0.0100
  180SOL    HW1  539   0.287   1.207   1.851  0.7664 -2.2562  2.6876
  180SOL    HW2  540   0.156   1.305   1.897  1.8155 -2.3610 -3.4253
  181SOL     OW  541   3.034   1.852   2.501  0.5076  0.0839 -0.1261
  181SOL    HW1  542   3.075   1.950   2.512  3.4153  0.9815 -0.6872
  181SOL    HW2  543   2.957   1.856   2.432  1.8066  2.5034 -3.1275
  182SOL     OW  544   2.257   1.314   1.171  0.7391  0.1995  0.1237
  182SOL    HW1  545   2.202   1.242   1.119 -0.1902 -0.3125  1.1791
  182SOL    HW2  546   2.273   1.401   1.115  1.9255  1.9206 -1.5889
  183SOL     OW  547   1.484   2.239   2.592  0.1423  0.8626  0.6142
  183SOL    HW1  548   1.390   2.207   2.560 -0.8653 -2.8462  0.0461
  183SOL    HW2  549   1.566   2.184   2.552 -1.5995  2.4710 -0.4306
  184SOL     OW  550   2.022   0.845   0.770 -1.0200  0.0653 -0.4791
  184SOL    HW1  551   1.949   0.902   0.727 -1.2886  0.0950  2.6519
  184SOL    HW2  552   1.986   0.759   0.813  0.4978  2.1536 -0.1266
  185SOL     OW  553   1.626   2.768   2.056  0.3941 -0.2076 -0.5006
  185SOL    HW1  554   1.575   2.848   2.017 -0.0201  1.7968  1.6158
  185SOL    HW2  555   1.656   2.787   2.154  1.5044 -5.4717  0.1962
  186SOL     OW  556   0.096   2.197   1.643 -0.2844  0.7419  0.1335
  186SOL    HW1  557   0.089   2.267   1.718  1.3248 -1.0002 -0.5780
  186SOL    HW2  558   0.185   2.147   1.662  1.3921  0.1633  1.2629
  187SOL     OW  559   1.296   0.766   1.672 -0.1737 -0.1889  0.2848
  187SOL    HW1  560   1.372   0.794   1.607  0.8879 -2.5182 -2.0378
  187SOL    HW2  561   1.323   0.792   1.771 -0.1746  2.2884  0.7440
  188SOL     OW  562   2.761   2.791   1.424  0.3628 -0.0407 -0.1647
  188SOL    HW1  563   2.743   2.893   1.421 -1.2349 -1.2058  1.6833
  188SOL    HW2  564   2.696   2.742   1.357  0.2499 -2.8747 -1.4112
  189SOL     OW  565   0.944   1.205   1.410 -0.0158  0.1347  0.4248
  189SOL    HW1  566   1.031   1.237   1.467 -0.4689 -1.0680  1.4305
  189SOL    HW2  567   0.880   1.284   1.383  1.8718  0.7277 -0.9963
  190SOL     OW  568   1.462   1.897   1.590 -0.1581  0.3675  0.0273
  190SOL    HW1  569   1.404   1.813   1.606  0.7557  2.1355  0.3975
  190SOL    HW2  570   1.511   1.942   1.671  3.2917 -1.7427  0.4013
  191SOL     OW  571   0.970   0.727   1.578 -0.1033 -0.4773  0.2591
  191SOL    HW1  572   1.063   0.689   1.607  0.1026 -0.7586  3.5699
  191SOL    HW2  573   0.965   0.828   1.600  0.2567  1.0862  2.3505
  192SOL     OW  574   1.871   2.247   1.117 -0.1065 -0.2485 -0.2998
  192SOL    HW1  575   1.769   2.250   1.091 -0.0019 -1.1132 -0.4426
  192SOL    HW2  576   1.931   2.313   1.061  0.3049  0.4113  0.9200
  193SOL     OW  577   0.589   0.574   0.469  0.2964 -0.1084  0.3059
  193SOL    HW1  578   0.536   0.483   0.496  0.1250 -0.2163 -1.1259
  193SOL    HW2  579   0.639   0.573   0.381  0.4011  0.2258 -1.1842
  194SOL     OW  580   0.334   0.871   1.284 -0.1597  0.9257 -0.1146
  194SOL    HW1  581   0.238   0.840   1.304 -1.5397  1.0442  1.7898
  194SOL    HW2  582   0.344   0.952   1.220  0.3291  0.0243  1.1937
  195SOL     OW  583   1.006   2.878   0.547  0.0715  0.0259 -0.1344
  195SOL    HW1  584   1.036   2.793   0.505 -2.2973  1.3839  4.8524
  195SOL    HW2  585   1.075   2.954   0.545 -0.7474 -0.7988 -1.3202
  196SOL     OW  586   0.208   1.323   1.370 -0.1612 -0.1755  0.1006
  196SOL    HW1  587   0.237   1.417   1.407  0.7214 -0.5742  0.6119
  196SOL    HW2  588   0.216   1.248   1.443 -0.8396 -0.4461  0.0630
  197SOL     OW  589   0.818   2.058   0.233 -0.3827  0.7060  0.1523
  197SOL    HW1  590   0.785   2.043   0.331 -0.3028  1.9763  0.6187
  197SOL    HW2  591   0.880   1.981   0.198  0.9590 -0.1498 -0.6874
  198SOL     OW  592   0.294   1.247   0.235 -0.5916  0.0617  0.2865
  198SOL    HW1  593   0.192   1.240   0.239  1.7604  2.2089  2.2313
  198SOL    HW2  594   0.334   1.323   0.288  2.6599  0.5418  1.0710
  199SOL     OW  595   2.238   0.366   2.534  0.5906 -0.3073 -0.4146
  199SOL    HW1  596   2.157   0.331   2.600  1.6328 -2.2951 -0.2283
  199SOL    HW2  597   2.331   0.363   2.577  0.3075  1.9338  0.3968
  200SOL     OW  598   0.027   2.937   0.752  0.0556 -0.6014  0.1734
  200SOL    HW1  599  -0.056   2.942   0.686  1.1451 -1.2507  0.5065
  200SOL    HW2  600   0.044   3.029   0.801  2.7733  0.2249 -1.1393
  201SOL     OW  601   1.075   0.753   0.611 -0.7045 -0.6377 -0.0892
  201SOL    HW1  602   1.089   0.807   0.697 -0.1183  0.1451 -2.5515
  201SOL    HW2  603   0.999   0.686   0.617  2.7994  0.6959 -3.0004
  202SOL     OW  604   0.448   1.141   1.852 -0.9351 -0.6589  0.2338
  202SOL    HW1  605   0.531   1.099   1.809  0.9527 -0.5762  2.4338
  202SOL    HW2  606   0.453   1.138   1.957  0.3890 -0.8910  3.8555
  203SOL     OW  607   0.657   0.202   1.536 -0.2117  0.1014 -0.7378
  203SOL    HW1  608   0.719   0.165   1.464  0.4568 -0.5420 -0.2430
  203SOL    HW2  609   0.692   0.190   1.634  2.3308 -1.0650  0.7341
  204SOL     OW  610   2.069   1.850   2.920  0.2945 -0.0435 -0.5278
  204SOL    HW1  611   2.073   1.750   2.927 -1.7986 -0.8105 -2.1406
  204SOL    HW2  612   2.100   1.885   2.825  1.5990 -3.1459 -1.9301
  205SOL     OW  613   1.828   1.860   3.067 -0.0018 -0.4665  0.0179
  205SOL    HW1  614   1.903   1.830   3.008 -1.0179  2.1759  0.9882
  205SOL    HW2  615   1.816   1.962   3.059  2.2028  0.5627  1.9055
  206SOL     OW  616   2.503   2.792   0.323  0.0504  0.3031  0.0904
  206SOL    HW1  617   2.567   2.709   0.348  0.1300 -2.3035 -0.1193
  206SOL    HW2  618   2.553   2.870   0.276  0.6984 -0.0788  0.2951
  207SOL     OW  619   0.647   1.800   2.979  0.2476  0.1617  0.7324
  207SOL    HW1  620   0.749   1.777   2.982  1.4471 -0.0244  1.2937
  207SOL    HW2  621   0.589   1.724   3.027 -1.6973 -0.2338 -0.4537
  208SOL     OW  622   1.113   1.566   1.377 -0.4442 -0.3793 -0.6991
  208SOL    HW1  623   1.157   1.639   1.319  0.1824 -0.1577 -1.6254
  208SOL    HW2  624   1.181   1.525   1.449  0.3991 -1.2898  0.3088
  209SOL     OW  625   0.224   0.951   3.071 -0.5476 -0.4201 -0.6816
  209SOL    HW1  626   0.216   0.877   3.001  0.0719 -2.3243  2.4547
  209SOL    HW2  627   0.251   0.917   3.165 -0.7861  0.7042 -0.9386
  210SOL     OW  628   1.800   0.526   1.183  0.0588 -0.5320 -0.0097
  210SOL    HW1  629   1.747   0.610   1.148  2.6656 -2.1208  0.9205
  210SOL    HW2  630   1.899   0.513   1.143  1.8412 -2.4567 -0.3817
  211SOL     OW  631   2.142   1.030   1.560 -0.9478  0.3808 -0.4238
  211SOL    HW1  632   2.180   0.976   1.640 -1.5617  0.5222 -2.8070
  211SOL    HW2  633   2.209   1.095   1.508 -0.3330  2.8063  0.3123
  212SOL     OW  634   0.015   0.959   1.472  0.4040 -0.2470 -0.1803
  212SOL    HW1  635   0.086   1.029   1.504 -1.9051  1.4944 -0.6270
  212SOL    HW2  636   0.024   0.872   1.531 -0.5644 -0.3241  1.1833
  213SOL     OW  637   2.845   0.268   0.388 -0.0619 -0.2555  0.6870
  213SOL    HW1  638   2.882   0.185   0.336  0.9752 -2.9894  1.4793
  213SOL    HW2  639   2.785   0.327   0.317 -2.0119  2.9047 -1.1293
  214SOL     OW  640   2.164   0.246   2.305 -0.3825  0.0604 -0.2311
  214SOL    HW1  641   2.180   0.276   2.403 -0.7397  1.9946 -1.4365
  214SOL    HW2  642   2.132   0.150   2.281 -1.7903  0.8602 -1.2822
  215SOL     OW  643   1.626   2.271   2.137  0.0881 -0.1640 -0.1399
  215SOL    HW1  644   1.709   2.284   2.073  0.5809 -0.8498 -1.9692
  215SOL    HW2  645   1.586   2.356   2.175  2.7909 -1.5529 -0.3173
  216SOL     OW  646   2.198   0.655   0.644  0.0666 -0.3157  0.2109
  216SOL    HW1  647   2.138   0.579   0.599  0.4864 -1.5815 -2.1046
  216SOL    HW2  648   2.144   0.733   0.681  2.1837  0.3450 -0.8755
  217SOL     OW  649   0.766   2.799   2.433 -0.1885  0.2658  0.0407
  217SOL    HW1  650   0.738   2.719   2.495  0.5410 -0.1920  1.1579
  217SOL    HW2  651   0.766   2.762   2.336  1.6141 -2.6033 -0.1409
  218SOL     OW  652   1.921   1.441   0.030  0.1366  0.0821 -0.2735
  218SOL    HW1  653   1.830   1.489   0.019 -1.8557 -0.5607 -1.7629
  218SOL    HW2  654   1.907   1.338   0.062 -1.7429 -2.0983  1.1255
  219SOL     OW  655   2.377   1.303   2.535  0.8836  0.3162  0.1578
  219SOL    HW1  656   2.435   1.279   2.456 -0.9310 -0.6425  1.5614
  219SOL    HW2  657   2.391   1.236   2.614 -1.0335 -1.1778 -0.8264
  220SOL     OW  658   1.522   1.056   1.242 -0.4718 -0.1811  0.4314
  220SOL    HW1  659   1.613   1.091   1.283  0.7794 -0.4697  0.1712
  220SOL    HW2  660   1.502   1.113   1.158 -0.2860 -0.0257  1.7235
  221SOL     OW  661   1.358   0.982   2.211  0.1444  0.4013 -0.2258
  221SOL    HW1  662   1.296   0.984   2.130 -2.7627 -1.8957 -0.8807
  221SOL    HW2  663   1.458   0.979   2.187  0.0775  1.6498 -0.5202
  222SOL     OW  664   1.123   0.014   1.172 -0.7251 -0.3772 -0.0929
  222SOL    HW1  665   1.196   0.060   1.228  0.5016  1.7305 -0.6053
  222SOL    HW2  666   1.118   0.059   1.075  1.5741  2.4868 -0.2362
  223SOL     OW  667   2.738   0.900   2.026  0.4142  0.5478  0.3170
  223SOL    HW1  668   2.701   0.944   2.112  0.2332  1.2012 -0.3196
  223SOL    HW2  669   2.825   0.942   1.995 -0.3725 -2.2303  1.2020
  224SOL     OW  670   1.532   1.017   2.783 -0.4149  0.4497  0.3093
  224SOL    HW1  671   1.590   0.964   2.718 -0.3522 -1.2901  0.3833
  224SOL    HW2  672   1.474   1.089   2.730  1.5376 -0.2753 -0.3491
  225SOL     OW  673   2.922   2.775   2.871 -0.0698  0.0117  0.0505
  225SOL    HW1  674   2.899   2.693   2.815 -0.1274  1.0503 -1.5587
  225SOL    HW2  675   3.004   2.824   2.827  1.7997 -1.2559 -0.1306
  226SOL     OW  676   2.434   1.574   2.832  0.4894 -0.4333  0.9034
  226SOL    HW1  677   2.475   1.557   2.737  0.3822  1.1763 -1.3474
  226SOL    HW2  678   2.377   1.501   2.869  4.1461  0.5624 -0.5078
  227SOL     OW  679   0.829   0.152   3.099  0.4776  0.2581  0.9760
  227SOL    HW1  680   0.912   0.089   3.098 -0.1042 -0.1621 -2.7950
  227SOL    HW2  681   0.778   0.151   3.006 -0.8827 -3.1457  0.6455
  228SOL     OW  682   2.390   0.627   2.851  0.0199  0.2272  0.2130
  228SOL    HW1  683   2.361   0.660   2.757 -1.0396  1.2602 -2.3236
  228SOL    HW2  684   2.484   0.583   2.851 -0.0686  1.2349 -1.0151
  229SOL     OW  685   0.629   0.424   1.849 -0.4311  0.3576 -0.6091
  229SOL    HW1  686   0.625   0.325   1.851 -0.5827  4.2338  1.3198
  229SOL    HW2  687   0.653   0.455   1.758 -1.4983  2.4196  2.4765
  230SOL     OW  688   1.870   1.150   2.107 -0.7790 -0.0390 -0.3489
  230SOL    HW1  689   1.949   1.206   2.063  2.6952  1.3340 -2.8763
  230SOL    HW2  690   1.779   1.202   2.119 -1.8322  0.6831  2.3200
  231SOL     OW  691   0.670   1.019   3.045 -0.5838 -0.0242  0.5026
  231SOL    HW1  692   0.770   1.043   3.040  0.3172  1.2110  3.0340
  231SOL    HW2  693   0.607   1.102   3.034 -1.9922  1.7358  3.2504
  232SOL     OW  694   2.363   3.094   2.837 -0.2036 -0.6909  0.6310
  232SOL    HW1  695   2.418   3.005   2.849  1.0892  0.4064 -0.0335
  232SOL    HW2  696   2.408   3.159   2.768 -0.2368  1.3434 -0.3419
  233SOL     OW  697   1.715   1.294   1.144 -0.2992 -0.0099  0.1737
  233SOL    HW1  698   1.705   1.273   1.040  1.4083 -1.1418 -1.1364
  233SOL    HW2  699   1.754   1.211   1.200 -3.4499  0.6821  0.4013
  234SOL     OW  700   1.590   2.586   1.848 -0.4325 -0.4887  0.0674
  234SOL    HW1  701   1.617   2.643   1.934 -2.2257 -1.2237  2.0272
  234SOL    HW2  702   1.495   2.551   1.851 -0.5754 -0.4839  0.9268
  235SOL     OW  703   0.006   2.976   2.864 -0.1480 -0.0141 -0.4498
  235SOL    HW1  704   0.022   3.043   2.787 -0.0063 -0.7876 -0.2140
  235SOL    HW2  705  -0.056   3.027   2.933  0.4109 -0.0937 -1.6347
  236SOL     OW  706   2.926   0.717   0.073 -0.0831 -0.2308  0.1740
  236SOL    HW1  707   2.982   0.793   0.117  1.8778  0.1815 -0.0623
  236SOL    HW2  708   2.981   0.634   0.041  0.4158  1.1028 -0.8556
  237SOL     OW  709   1.524   1.707   1.020  0.1608 -0.5136 -0.4413
  237SOL    HW1  710   1.623   1.701   1.011 -2.0350  0.5639 -0.6531
  237SOL    HW2  711   1.499   1.749   1.113  1.1035 -0.3368  0.3005
  238SOL     OW  712   1.757   1.284   0.863  0.1411 -0.1615 -0.4133
  238SOL    HW1  713   1.830   1.361   0.881 -1.3500 -0.4121 -2.8168
  238SOL    HW2  714   1.663   1.325   0.841 -0.4213 -1.1975  1.0689
  239SOL     OW  715   2.056   0.267   2.697 -0.1465  0.1558 -0.6616
  239SOL    HW1  716   2.105   0.251   2.789 -1.0826  0.9779 -0.2901
  239SOL    HW2  717   1.985   0.342   2.710  3.2556  0.1904 -1.5547
  240SOL     OW  718   0.897   0.631   0.328 -0.5417  0.7298 -0.6064
  240SOL    HW1  719   0.950   0.554   0.292 -0.2863 -0.8790  2.0563
  240SOL    HW2  720   0.873   0.615   0.428  2.9710 -0.0488  0.8532
  241SOL     OW  721   0.588   0.093   0.385 -0.6610 -0.4684  0.4044
  241SOL    HW1  722   0.635   0.170   0.324 -0.5102 -0.8531 -0.9372
  241SOL    HW2  723   0.567   0.014   0.320 -2.8677 -1.6059 -4.2667
  242SOL     OW  724   0.662   2.515   1.121  0.0573 -0.3300  0.5385
  242SOL    HW1  725   0.630   2.551   1.214 -0.1998  0.7057  2.2129
  242SOL    HW2  726   0.729   2.582   1.074  0.9102  0.0075 -2.3247
  243SOL     OW  727   1.085   0.584   2.495  0.1354  0.3849 -0.0510
  243SOL    HW1  728   0.996   0.620   2.468  0.3675 -3.2083  2.1646
  243SOL    HW2  729   1.095   0.561   2.597 -3.0162 -1.2953  1.0081
  244SOL     OW  730   2.790   1.888   2.309 -0.0466 -0.4177 -0.1687
  244SOL    HW1  731   2.839   1.902   2.220  0.1378  2.2730 -2.2101
  244SOL    HW2  732   2.712   1.826   2.302  3.4749 -1.0533 -1.8844
  245SOL     OW  733   2.358   0.676   2.212 -0.9999  0.1729 -0.5078
  245SOL    HW1  734   2.433   0.746   2.236  2.0301  0.7556 -0.9519
  245SOL    HW2  735   2.395   0.579   2.235 -0.0668  2.0497  2.8311
  246SOL     OW  736   0.204   2.913   1.694 -0.0660  0.0910 -0.1568
  246SOL    HW1  737   0.129   2.914   1.626 -1.4535  0.0988  1.9846
  246SOL    HW2  738   0.293   2.952   1.657  1.0329  1.7829  0.8795
  247SOL     OW  739   2.159   0.588   3.044  0.5115 -0.0863  0.2982
  247SOL    HW1  740   2.212   0.568   2.958  3.8239  2.4359 -3.3286
  247SOL    HW2  741   2.119   0.687   3.041 -0.5100  2.9353  0.9086
  248SOL     OW  742   2.153   1.840   1.592 -0.2143  0.0713  0.0174
  248SOL    HW1  743   2.207   1.782   1.664 -0.4898 -2.9558  1.0616
  248SOL    HW2  744   2.054   1.820   1.586 -1.4831  0.1469 -1.8895
  249SOL     OW  745   1.854   1.908   1.914  0.1283  0.0313 -0.1358
  249SOL    HW1  746   1.869   1.831   1.849 -2.6169  2.0548 -0.3614
  249SOL    HW2  747   1.936   1.970   1.911  1.8671 -0.2317 -2.0462
  250SOL     OW  748   1.127   0.712   1.963 -0.2060  0.1362  0.2989
  250SOL    HW1  749   1.159   0.618   1.996 -0.2261  2.2537  0.3266
  250SOL    HW2  750   1.099   0.716   1.864  1.4340  0.6884  0.0918
  251SOL     OW  751   0.018   1.569   2.505  0.1300  0.2764 -0.5132
  251SOL    HW1  752   0.007   1.666   2.471  0.4436  1.8247 -1.0742
  251SOL    HW2  753  -0.075   1.529   2.517  1.1167 -1.8399  0.9486
  252SOL     OW  754   1.519   0.857   1.547 -0.2538  0.0224  0.2512
  252SOL    HW1  755   1.604   0.823   1.509 -0.0038 -0.6550 -0.9315
  252SOL    HW2  756   1.523   0.942   1.608  2.9858  2.5610  0.0582
  253SOL     OW  757   0.911   1.519   0.499  0.9383 -0.4483 -0.0465
  253SOL    HW1  758   0.926   1.452   0.415 -0.3012 -0.4210 -3.7344
  253SOL    HW2  759   0.815   1.531   0.521  1.9935 -1.6548  2.1610
  254SOL     OW  760   2.026   2.153   1.617  0.3416 -0.1911 -0.1317
  254SOL    HW1  761   1.981   2.094   1.547 -2.7240  0.9838  0.0130
  254SOL    HW2  762   1.957   2.164   1.695 -0.0873  0.3396  1.6853
  255SOL     OW  763   0.140   1.157   2.871  0.6360  0.0007 -0.4268
  255SOL    HW1  764   0.202   1.243   2.856 -0.2886  2.3986  0.5198
  255SOL    HW2  765   0.177   1.085   2.944  0.5835 -2.2719  2.9075
  256SOL     OW  766   2.805   1.369   1.754  0.0837  0.2408  0.3153
  256SOL    HW1  767   2.716   1.415   1.777 -0.8488 -0.5945  0.9885
  256SOL    HW2  768   2.790   1.272   1.720  2.2581 -0.4317 -0.7493
  257SOL     OW  769   0.819   0.203   1.792 -0.0365 -0.3576 -0.4574
  257SOL    HW1  770   0.853   0.297   1.752  1.1928 -0.7756 -0.7548
  257SOL    HW2  771   0.883   0.123   1.765  4.2057  1.6322  1.1421
  258SOL     OW  772   2.936   1.284   0.454  0.3901  0.0198 -0.1434
  258SOL    HW1  773   2.848   1.343   0.452  2.5852  2.3628 -0.1758
  258SOL    HW2  774   2.991   1.289   0.538 -1.1494  3.4001 -1.7739
  259SOL     OW  775   0.469   2.962   3.052 -0.2183 -0.2411  0.2156
  259SOL    HW1  776   0.393   2.901   3.100 -0.5312 -2.5132  1.8422
  259SOL    HW2  777   0.475   2.941   2.952 -0.2005  0.2849  3.4246
  260SOL     OW  778   2.736   0.846   2.788 -0.7429 -0.1056  0.5514
  260SOL    HW1  779   2.639   0.839   2.764  0.7740  1.6841  1.1765
  260SOL    HW2  780   2.764   0.864   2.884 -1.2804  0.8278  3.0248
  261SOL     OW  781   2.757   1.306   1.291  0.5605 -0.0434  0.1900
  261SOL    HW1  782   2.702   1.255   1.214 -0.2761  0.3841 -1.0721
  261SOL    HW2  783   2.821   1.239   1.340 -1.0797 -1.0653 -3.6751
  262SOL     OW  784   1.406   2.979   2.016 -0.5664 -0.5012 -0.2050
  262SOL    HW1  785   1.438   3.061   1.961 -2.8959  0.8753  1.0784
  262SOL    HW2  786   1.327   2.934   1.969 -1.6352  1.0779 -2.2770
  263SOL     OW  787   0.865   0.723   2.330  0.0349  0.6969 -0.0823
  263SOL    HW1  788   0.814   0.650   2.279 -1.3980  2.6076 -2.4753
  263SOL    HW2  789   0.908   0.783   2.258 -1.4169  0.5640 -3.1914
  264SOL     OW  790   2.199   0.846   0.347  0.5209 -0.1452  0.7579
  264SOL    HW1  791   2.199   0.744   0.344 -2.7867  4.6079 -2.1867
  264SOL    HW2  792   2.290   0.884   0.351 -2.5278 -1.3249  2.8300
  265SOL     OW  793   0.910   2.378   2.671  0.3313  0.8019 -0.0981
  265SOL    HW1  794   0.975   2.408   2.743  1.4047 -0.3533 -2.3633
  265SOL    HW2  795   0.872   2.285   2.697  0.4172 -2.6853  0.5633
  266SOL     OW  796   1.345   1.685   3.095  0.5126 -0.2245 -0.3786
  266SOL    HW1  797   1.348   1.750   3.174  0.0789 -1.5587 -0.6997
  266SOL    HW2  798   1.427   1.680   3.035 -1.7662 -0.4320  1.5418
  267SOL     OW  799   0.960   3.033   2.363  0.2027 -0.0751  0.3924
  267SOL    HW1  800   0.970   3.003   2.262 -1.9033 -2.3823  0.5508
  267SOL    HW2  801   0.935   3.136   2.372  3.0727  0.5517 -2.0348
  268SOL     OW  802   0.664   1.199   1.060 -0.4446  0.0742 -0.1921
  268SOL    HW1  803   0.704   1.232   1.146  1.1288  1.1321 -2.6719
  268SOL    HW2  804   0.661   1.274   0.984  0.0882  1.8607  1.2654
  269SOL     OW  805   2.368   2.528   1.564 -0.3215  0.2219  0.5738
  269SOL    HW1  806   2.467   2.507   1.550 -2.5853 -0.6635 -0.8696
  269SOL    HW2  807   2.345   2.522   1.663 -0.0716  0.6273 -0.9025
  270SOL     OW  808   0.177   2.984   1.964  0.2599 -0.3999  0.8347
  270SOL    HW1  809   0.193   2.946   1.870 -0.9211  1.1659  0.8230
  270SOL    HW2  810   0.104   2.936   2.018  0.7583  0.6257  0.3026
  271SOL     OW  811   0.415   1.373   1.162 -0.1918  0.2973 -0.1108
  271SOL    HW1  812   0.377   1.364   1.067  3.0499  0.1385  0.5126
  271SOL    HW2  813   0.344   1.367   1.232  0.8134 -0.4644 -3.0804
  272SOL     OW  814   1.985   2.867   1.931  0.4662  0.3704  0.0686
  272SOL    HW1  815   1.941   2.812   1.860  0.9273  0.9100  4.2191
  272SOL    HW2  816   2.064   2.933   1.897 -0.0993 -0.6023  0.1264
  273SOL     OW  817   1.458   1.434   2.766  0.0687 -0.0871 -0.2700
  273SOL    HW1  818   1.388   1.501   2.807  0.2705 -1.2102  1.6386
  273SOL    HW2  819   1.514   1.382   2.838 -0.2229  1.0213 -1.5545
  274SOL     OW  820   1.235   0.485   2.012 -0.2725  0.0234  0.3761
  274SOL    HW1  821   1.183   0.398   1.993 -1.2558  0.3240 -0.8871
  274SOL    HW2  822   1.267   0.491   2.106  0.3334  2.3923 -2.3613
  275SOL     OW  823   0.593   2.089   1.888 -0.3743 -0.2280  0.4770
  275SOL    HW1  824   0.536   2.169   1.924  2.5781 -0.0630  0.6658
  275SOL    HW2  825   0.540   2.007   1.873  2.1331  0.8242 -0.7649
  276SOL     OW  826   2.172   0.878   2.759  0.0664  0.0535 -0.9150
  276SOL    HW1  827   2.100   0.876   2.689 -1.2657 -0.0132  0.9981
  276SOL    HW2  828   2.133   0.858   2.853  2.3060  2.5739 -0.2176
  277SOL     OW  829   3.071   0.895   0.222 -0.2956  0.4667 -0.1557
  277SOL    HW1  830   3.165   0.933   0.204 -1.2622  0.1923 -0.5405
  277SOL    HW2  831   3.081   0.810   0.281  0.2887  1.8107  0.1105
  278SOL     OW  832   0.234   0.287   3.093  0.0700 -0.0343 -0.9516
  278SOL    HW1  833   0.303   0.215   3.101 -3.6482 -0.2057 -3.7132
  278SOL    HW2  834   0.275   0.380   3.081  4.4642 -1.3539  0.1773
  279SOL     OW  835   0.160   0.078   0.882 -0.4370  0.3012  0.0469
  279SOL    HW1  836   0.175   0.033   0.974 -3.1067  4.4408  0.3580
  279SOL    HW2  837   0.219   0.039   0.806  1.7217 -1.0417  1.2333
  280SOL     OW  838   1.563   2.953   2.448 -0.3845  0.1145 -0.8296
  280SOL    HW1  839   1.634   3.009   2.497 -0.0076  0.7665 -0.7229
  280SOL    HW2  840   1.523   3.009   2.369  0.7366  1.9249 -0.9876
  281SOL     OW  841   0.559   0.942   2.202  0.1235  0.6765 -0.4121
  281SOL    HW1  842   0.541   0.864   2.138  1.0018  0.5108  2.3368
  281SOL    HW2  843   0.537   0.919   2.302  0.5451  0.2593 -0.8508
  282SOL     OW  844   1.793   2.483   0.543  0.3763 -0.4303  0.5345
  282SOL    HW1  845   1.762   2.405   0.481 -1.9879  0.9279 -0.0619
  282SOL    HW2  846   1.738   2.569   0.534  0.5778 -0.2818 -0.1262
  283SOL     OW  847   1.126   0.921   0.868 -0.0085 -0.1307 -0.0483
  283SOL    HW1  848   1.134   0.853   0.948  1.2829 -1.7186 -0.1703
  283SOL    HW2  849   1.044   0.981   0.892 -1.3363 -0.3164  2.5560
  284SOL     OW  850   2.347   2.703   2.470 -1.3941 -0.3071  0.3538
  284SOL    HW1  851   2.393   2.766   2.408 -0.4315  0.0416  1.4445
  284SOL    HW2  852   2.393   2.710   2.564  0.8499 -3.0751  3.0032
  285SOL     OW  853   1.296   3.036   2.583  0.0923  0.2723  0.2700
  285SOL    HW1  854   1.318   3.053   2.488  0.2212 -2.5273  2.4732
  285SOL    HW2  855   1.197   3.057   2.609 -2.4389 -0.7188  1.3117
  286SOL     OW  856   0.456   0.475   0.772  0.0853 -0.1612 -0.3604
  286SOL    HW1  857   0.427   0.424   0.859  0.0448  0.8449 -0.2356
  286SOL    HW2  858   0.472   0.412   0.690 -0.5960  1.9941 -0.0833
  287SOL     OW  859   0.114   1.282   2.528 -0.4207 -0.4296 -0.0946
  287SOL    HW1  860   0.037   1.241   2.583  0.8337  4.2153  3.0029
  287SOL    HW2  861   0.098   1.389   2.531 -2.8756  2.9805 -3.0286
  288SOL     OW  862   1.591   2.647   1.589 -0.1769 -0.7663 -0.0753
  288SOL    HW1  863   1.605   2.621   1.692 -0.2314 -0.6407 -0.8884
  288SOL    HW2  864   1.660   2.617   1.518  4.8912  0.5591 -2.8242
  289SOL     OW  865   0.644   2.714   0.869  0.2909 -0.0873  0.7164
  289SOL    HW1  866   0.703   2.771   0.805  0.3000  0.5825 -0.1567
  289SOL    HW2  867   0.609   2.769   0.947  1.1286 -0.5469 -1.9056
  290SOL     OW  868   2.788   1.098   1.699  0.5492 -0.0613  0.2001
  290SOL    HW1  869   2.712   1.030   1.673 -1.5492 -1.0607 -0.3744
  290SOL    HW2  870   2.871   1.058   1.745  0.4520 -1.0437  0.9646
  291SOL     OW  871   1.989   0.066   0.064 -0.0761 -0.3762  0.1830
  291SOL    HW1  872   1.997   0.032   0.160 -2.8814 -0.8023  1.7016
  291SOL    HW2  873   2.063   0.137   0.051 -0.5793 -1.9571 -2.7465
  292SOL     OW  874   2.995   1.176   3.031 -0.4665 -0.7277 -0.8631
  292SOL    HW1  875   2.923   1.244   3.003  1.2024 -0.4132  2.8646
  292SOL    HW2  876   3.085   1.191   2.982 -2.5102  0.2349  0.6588
  293SOL     OW  877   0.566   2.135   0.168 -0.0100  0.1832  0.0846
  293SOL    HW1  878   0.524   2.188   0.243 -0.7822  1.4384  1.9642
  293SOL    HW2  879   0.668   2.110   0.184 -0.1438 -0.9657 -0.5618
  294SOL     OW  880   1.811   2.234   1.757  0.1297  1.0165  0.0448
  294SOL    HW1  881   1.847   2.288   1.834 -0.1537 -3.0783 -0.2808
  294SOL    HW2  882   1.766   2.287   1.684 -1.4482 -0.8374 -0.4570
  295SOL     OW  883   0.981   1.049   0.506  0.1275  0.2245 -0.8511
  295SOL    HW1  884   1.063   1.037   0.574  1.9889  2.0889 -0.0215
  295SOL    HW2  885   0.894   1.061   0.556 -1.6593  3.1667 -0.1204
  296SOL     OW  886   1.232   2.129   2.524 -0.8575  0.6857 -0.5747
  296SOL    HW1  887   1.158   2.176   2.476 -2.1707  2.0422  4.7461
  296SOL    HW2  888   1.249   2.031   2.484 -2.1025 -1.7328 -0.7103
  297SOL     OW  889   1.434   0.626   1.353 -0.0926 -0.2936 -0.1475
  297SOL    HW1  890   1.417   0.524   1.357 -1.4379  2.5030 -0.5474
  297SOL    HW2  891   1.530   0.648   1.378 -0.7920  0.8817  0.1588
  298SOL     OW  892   0.552   1.378   2.967  0.2469 -0.4115 -0.2764
  298SOL    HW1  893   0.518   1.318   3.046  0.8986 -0.6038  3.6385
  298SOL    HW2  894   0.584   1.318   2.892 -0.8920  3.4058  1.1508
  299SOL     OW  895   0.492   0.282   1.304 -0.6945 -0.5559  0.4601
  299SOL    HW1  896   0.430   0.362   1.279 -1.3205  1.7174 -1.0379
  299SOL    HW2  897   0.569   0.311   1.360 -0.5798  2.0029 -1.5684
  300SOL     OW  898   1.214   1.814   2.767 -0.1335 -0.6409 -0.8724
  300SOL    HW1  899   1.179   1.719   2.790  0.7670 -1.3250 -3.8118
  300SOL    HW2  900   1.316   1.808   2.784  2.8164 -0.8354 -1.3325
  301SOL     OW  901   0.446   0.354   0.503 -0.3637  0.0232  0.3386
  301SOL    HW1  902   0.340   0.339   0.504  0.3652 -0.4578 -0.4853
  301SOL    HW2  903   0.502   0.286   0.447 -0.6052  0.1316 -0.4387
  302SOL     OW  904   1.249   2.482   2.351  1.0056  0.0272 -0.3094
  302SOL    HW1  905   1.175   2.545   2.384 -0.7486  0.9680  1.1477
  302SOL    HW2  906   1.220   2.384   2.334  2.0896  2.9809 -0.7457
  303SOL     OW  907   0.938   2.396   0.842 -0.8646  0.2195 -0.3490
  303SOL    HW1  908   1.008   2.422   0.768 -0.0312  2.8635 -0.7509
  303SOL    HW2  909   0.948   2.464   0.923  0.2530  1.1063  0.5639
  304SOL     OW  910   0.086   2.000   0.632 -0.3885 -0.4173 -0.5296
  304SOL    HW1  911   0.136   1.961   0.550 -1.3627  0.9679 -1.0235
  304SOL    HW2  912   0.052   2.093   0.606  0.6087 -0.7907  1.1576
  305SOL     OW  913   1.645   0.896   0.574 -0.1762 -0.5054  0.2176
  305SOL    HW1  914   1.601   0.895   0.478  1.1892 -1.5818 -3.0688
  305SOL    HW2  915   1.679   0.799   0.600  1.0130  0.2979 -0.1854
  306SOL     OW  916   0.433   1.865   1.918 -0.4360 -0.3684 -0.2025
  306SOL    HW1  917   0.512   1.798   1.889  4.0026  1.1649 -0.3232
  306SOL    HW2  918   0.433   1.902   2.015  0.0594 -0.0526  1.1098
  307SOL     OW  919   3.085   0.915   2.513  0.1911  0.2847  0.1924
  307SOL    HW1  920   3.094   0.996   2.576  0.0451 -2.1006 -0.3333
  307SOL    HW2  921   3.002   0.856   2.528  1.1651  1.8019 -0.9050
  308SOL     OW  922   1.572   2.669   2.800  0.2495  0.3911 -0.1818
  308SOL    HW1  923   1.530   2.632   2.717 -0.0072  2.7255  1.1278
  308SOL    HW2  924   1.510   2.653   2.882 -1.0059  2.1463 -0.1968
  309SOL     OW  925   1.233   0.153   1.786  0.0379  0.6022  0.0321
  309SOL    HW1  926   1.325   0.121   1.821 -1.6356  1.9408  0.7248
  309SOL    HW2  927   1.224   0.142   1.684  0.5809 -0.4209  0.3156
  310SOL     OW  928   1.508   2.536   0.682 -0.0678 -0.2038 -0.0509
  310SOL    HW1  929   1.494   2.541   0.784 -1.7295 -1.3967 -0.4070
  310SOL    HW2  930   1.570   2.607   0.639  0.7015  1.7932  0.6026
  311SOL     OW  931   1.191   1.013   1.624  0.2550  0.0036  0.0946
  311SOL    HW1  932   1.211   0.911   1.624 -1.2683 -2.1142 -0.8166
  311SOL    HW2  933   1.231   1.063   1.540  0.2969 -0.5657 -2.6596
  312SOL     OW  934   1.620   0.704   1.061  0.4918  0.4480 -0.0980
  312SOL    HW1  935   1.587   0.787   1.016  1.8673  0.2592 -1.0645
  312SOL    HW2  936   1.548   0.632   1.076  0.2647  1.5998  0.4492
  313SOL     OW  937   1.532   1.380   0.739  0.3153  0.2372  0.1911
  313SOL    HW1  938   1.469   1.433   0.798  0.1527 -2.3535 -0.0795
  313SOL    HW2  939   1.485   1.311   0.676 -3.8056 -0.7455  1.1031
  314SOL     OW  940   2.950   0.052   3.004  0.5952  0.7712  0.3521
  314SOL    HW1  941   2.933   0.075   3.102 -1.4808 -0.4240 -2.2615
  314SOL    HW2  942   2.865   0.015   2.956  1.2982 -0.2247 -0.6907
  315SOL     OW  943   1.228   0.208   2.778 -0.5032 -0.1354 -0.6023
  315SOL    HW1  944   1.204   0.134   2.717  1.9345  0.7756 -2.4504
  315SOL    HW2  945   1.236   0.171   2.877 -0.2955 -1.6244  1.1435
  316SOL     OW  946   1.718   2.036   0.846  0.2487  0.1869  0.3797
  316SOL    HW1  947   1.657   2.036   0.931  0.6862  0.7991 -0.9729
  316SOL    HW2  948   1.725   2.133   0.803 -0.3389  1.0428 -1.3572
  317SOL     OW  949   1.129   0.654   2.890  0.1250 -0.0554  0.0555
  317SOL    HW1  950   1.080   0.701   2.971  0.8532  1.9580  2.1725
  317SOL    HW2  951   1.072   0.574   2.854  4.8954 -0.6247  2.2156
  318SOL     OW  952   1.359   3.094   2.321  0.2594  0.0562  0.2352
  318SOL    HW1  953   1.339   3.194   2.334  0.3152 -0.2853 -0.1194
  318SOL    HW2  954   1.358   3.058   2.223 -1.2079  1.0711 -2.7398
  319SOL     OW  955   0.711   2.408   2.917 -0.4785 -0.8340  0.0521
  319SOL    HW1  956   0.627   2.361   2.960 -0.5335 -1.1807 -0.4236
  319SOL    HW2  957   0.793   2.393   2.975 -2.5410  0.5868  0.6768
  320SOL     OW  958   1.710   2.268   0.408 -0.7492 -0.0854  0.0092
  320SOL    HW1  959   1.791   2.203   0.404  3.9193 -0.1914 -1.2889
  320SOL    HW2  960   1.618   2.219   0.412  1.9223 -0.2342  0.5116
  321SOL     OW  961   1.631   2.746   0.503 -0.7566 -0.1152  0.1545
  321SOL    HW1  962   1.561   2.760   0.428  2.9892  2.3006 -0.7504
  321SOL    HW2  963   1.709   2.808   0.479 -0.9112  1.0855 -0.0327
  322SOL     OW  964   2.586   1.158   2.380 -0.1049 -0.1499 -0.3814
  322SOL    HW1  965   2.682   1.189   2.406  1.1766  0.3675  0.9489
  322SOL    HW2  966   2.591   1.061   2.340  0.1068 -0.8669 -3.2260
  323SOL     OW  967   1.178   2.638   0.867 -0.2460  0.0031 -0.2492
  323SOL    HW1  968   1.162   2.603   0.771  0.9104  2.6117 -0.6958
  323SOL    HW2  969   1.155   2.741   0.875  1.3608  0.1763 -0.7010
  324SOL     OW  970   0.261   2.485   2.515  0.0712 -0.1423  0.1867
  324SOL    HW1  971   0.320   2.464   2.597 -0.6357 -3.0727 -3.1419
  324SOL    HW2  972   0.167   2.523   2.537  1.8320 -1.5277 -0.2122
  325SOL     OW  973   1.276   3.054   0.495  0.4016  0.6821 -0.3894
  325SOL    HW1  974   1.273   3.113   0.412  2.3104  1.9165  2.7735
  325SOL    HW2  975   1.303   3.106   0.581 -0.1906 -3.3121 -0.3045
  326SOL     OW  976   2.466   0.793   3.061  0.2339  0.6274 -0.2697
  326SOL    HW1  977   2.450   0.740   2.972  1.3218  1.3155 -1.5221
  326SOL    HW2  978   2.517   0.737   3.135  0.2870  0.8840 -1.2744
  327SOL     OW  979   2.850   0.353   0.632  0.1307 -0.3558  0.1137
  327SOL    HW1  980   2.844   0.305   0.539 -2.5010  0.5640 -2.8006
  327SOL    HW2  981   2.907   0.302   0.700 -2.0044 -1.0209 -0.0437
  328SOL     OW  982   2.572   0.568   0.391  0.2521  0.2457  0.2303
  328SOL    HW1  983   2.522   0.662   0.396 -0.8562 -0.7618 -2.6888
  328SOL    HW2  984   2.572   0.518   0.487 -0.7174  0.8125 -0.0578
  329SOL     OW  985   2.971   2.920   2.132 -0.0016 -0.2875  0.1007
  329SOL    HW1  986   3.029   2.894   2.217 -0.4300 -1.3714 -0.2723
  329SOL    HW2  987   2.975   3.024   2.113 -1.4867  1.1699  1.3684
  330SOL     OW  988   0.568   0.133   1.893 -0.7127 -0.1011 -0.2195
  330SOL    HW1  989   0.662   0.149   1.845  1.9815 -1.7208 -1.1002
  330SOL    HW2  990   0.579   0.067   1.975 -1.2038 -1.8271  1.8205
  331SOL     OW  991   2.989   1.900   1.157  0.2990 -0.1962  0.5788
  331SOL    HW1  992   3.035   1.984   1.115 -0.5702 -0.5987  0.4786
  331SOL    HW2  993   2.913   1.932   1.216  1.2825  2.3840 -0.7849
  332SOL     OW  994   0.427   1.165   3.090 -0.1388  0.1738 -0.0856
  332SOL    HW1  995   0.378   1.077   3.072 -1.3632  3.5852  0.5216
  332SOL    HW2  996   0.387   1.209   3.174 -0.3128 -0.2462  1.6964
  333SOL     OW  997   2.875   1.048   0.336 -0.6640 -0.6289 -0.4448
  333SOL    HW1  998   2.917   1.117   0.401 -0.4041 -0.3983  0.9013
  333SOL    HW2  999   2.942   0.986   0.293 -3.5002 -3.6268  2.1843
  334SOL     OW 1000   1.683   1.274   1.840 -0.1609  0.5892 -0.1708
  334SOL    HW1 1001   1.784   1.256   1.814  1.3401  1.7018  0.8714
  334SOL    HW2 1002   1.672   1.297   1.941  1.5813 -0.2655  1.4294
  335SOL     OW 1003   2.003   2.727   2.600 -0.1620  0.0816  0.0257
  335SOL    HW1 1004   1.921   2.745   2.659 -1.3682 -0.0068  0.8904
  335SOL    HW2 1005   2.093   2.760   2.635  1.7059 -0.4800 -0.8121
  336SOL     OW 1006   0.264   0.184   2.788 -0.3823  0.1101  0.5462
  336SOL    HW1 1007   0.335   0.159   2.860 -0.3345 -0.7059  0.2540
  336SOL    HW2 1008   0.187   0.236   2.829 -1.6108  1.1402  0.7506
  337SOL     OW 1009   0.933   2.810   2.832 -0.5136  0.6582  0.6900
  337SOL    HW1 1010   0.938   2.768   2.926  0.8426  0.3404 -0.9149
  337SOL    HW2 1011   1.016   2.786   2.775 -0.5173  0.2432  1.1082
  338SOL     OW 1012   0.007   1.029   0.616  0.0472  0.0777 -0.0189
  338SOL    HW1 1013  -0.092   0.999   0.643 -0.0805  0.6983  0.1871
  338SOL    HW2 1014   0.015   1.131   0.641 -1.7021 -0.7068  0.3518
  339SOL     OW 1015   1.688   1.339   2.120  0.4256 -0.1360  0.2245
  339SOL    HW1 1016   1.584   1.348   2.131 -1.0433 -0.8059  0.2964
  339SOL    HW2 1017   1.729   1.433   2.123  3.7358 -0.8387 -0.7234
  340SOL     OW 1018   2.359   0.799   1.123 -0.2780 -0.1402 -0.2569
  340SOL    HW1 1019   2.278   0.843   1.076  0.5989 -0.4489  0.9249
  340SOL    HW2 1020   2.377   0.707   1.078 -0.4615 -1.4461 -2.6936
  341SOL     OW 1021   1.904   2.095   0.338 -0.3929  0.1774  0.2010
  341SOL    HW1 1022   1.906   2.137   0.244 -2.2012 -1.0257 -1.1775
  341SOL    HW2 1023   2.002   2.079   0.372 -0.5388 -0.3678 -0.9894
  342SOL     OW 1024   2.258   2.113   2.708  0.1938  0.2459 -0.0358
  342SOL    HW1 1025   2.323   2.038   2.740  0.7810  1.7120  0.0911
  342SOL    HW2 1026   2.156   2.097   2.712  0.6394  2.1625 -1.4880
  343SOL     OW 1027   0.355   0.883   2.738 -0.5487  0.2672 -0.2485
  343SOL    HW1 1028   0.381   0.866   2.642 -0.3118 -1.5111 -1.6500
  343SOL    HW2 1029   0.432   0.876   2.802 -1.9858  1.0848 -1.6883
  344SOL     OW 1030   1.903   1.444   0.389 -0.4127 -0.3345  0.2554
  344SOL    HW1 1031   1.887   1.390   0.305  0.7744  0.7783  0.6206
  344SOL    HW2 1032   1.812   1.469   0.434  0.4191 -1.3556  1.4131
  345SOL     OW 1033   1.431   2.234   2.923  0.0516  0.0215  0.0348
  345SOL    HW1 1034   1.340   2.188   2.893  0.5931 -0.3002  2.2462
  345SOL    HW2 1035   1.507   2.215   2.856 -0.6401 -1.4500  2.2463
  346SOL     OW 1036   2.364   0.876   1.406  0.1089 -0.5494 -0.6670
  346SOL    HW1 1037   2.305   0.955   1.441  0.8328  0.2310  2.7445
  346SOL    HW2 1038   2.353   0.858   1.305  1.3150  0.3862 -0.3567
  347SOL     OW 1039   0.761   2.829   1.524 -0.3992 -0.2232  0.1420
  347SOL    HW1 1040   0.710   2.779   1.596  0.1806 -2.3207 -2.2489
  347SOL    HW2 1041   0.700   2.898   1.471  2.2009 -0.2407 -1.0602
  348SOL     OW 1042   0.212   0.666   2.864  0.2660  0.2977  0.1733
  348SOL    HW1 1043   0.112   0.673   2.856  2.7087  0.0388  0.3144
  348SOL    HW2 1044   0.266   0.742   2.815  2.1627 -3.6130  0.7316
  349SOL     OW 1045   1.880   0.456   2.800  0.2127 -0.7827  0.1296
  349SOL    HW1 1046   1.887   0.554   2.768 -0.3384  0.0699  0.4099
  349SOL    HW2 1047   1.871   0.453   2.903 -1.1177  3.3419 -1.6542
  350SOL     OW 1048   1.653   0.401   0.352 -0.2709  0.0493 -0.0193
  350SOL    HW1 1049   1.703   0.400   0.446  1.2504 -1.3600  0.3285
  350SOL    HW2 1050   1.619   0.497   0.321 -2.0274 -0.6356  0.1105
  351SOL     OW 1051   1.001   0.864   2.133 -0.4056 -0.1724  0.1069
  351SOL    HW1 1052   0.980   0.947   2.072  0.2828 -1.4028 -1.3201
  351SOL    HW2 1053   1.068   0.801   2.079  4.8156  0.2669  1.0893
  352SOL     OW 1054   2.054   1.314   0.651  0.0446 -0.1034  0.2718
  352SOL    HW1 1055   2.063   1.324   0.547 -0.7778 -1.7993  1.9222
  352SOL    HW2 1056   1.953   1.311   0.686 -4.3365 -1.5296 -0.0959
  353SOL     OW 1057   2.168   2.820   1.035 -0.4837 -0.4825  0.2493
  353SOL    HW1 1058   2.197   2.757   1.112 -1.0849  1.9341 -0.8480
  353SOL    HW2 1059   2.067   2.817   1.008  1.5466 -2.9325  0.5209
  354SOL     OW 1060   0.294   1.403   2.861 -0.2456 -0.1169  0.7273
  354SOL    HW1 1061   0.280   1.490   2.802 -1.5537 -2.1162 -1.0438
  354SOL    HW2 1062   0.390   1.403   2.899  1.4644 -0.6826 -0.1513
  355SOL     OW 1063   0.587   1.511   0.589  0.4803  0.5013  0.5189
  355SOL    HW1 1064   0.542   1.513   0.682  1.0704  0.1389  0.0024
  355SOL    HW2 1065   0.647   1.425   0.571  0.5381  0.1183 -1.2503
  356SOL     OW 1066   0.885   0.280   2.102  0.0244  0.6753 -0.1232
  356SOL    HW1 1067   0.982   0.259   2.072  1.1622  2.0872  2.3226
  356SOL    HW2 1068   0.821   0.271   2.023 -1.7286 -1.1328 -3.0004
  357SOL     OW 1069   0.997   1.277   0.328 -0.2686  0.2085 -0.2491
  357SOL    HW1 1070   0.967   1.254   0.232  0.5152  0.5595 -0.2734
  357SOL    HW2 1071   0.989   1.200   0.394  2.4529 -0.4183  0.9845
  358SOL     OW 1072   1.648   1.488   0.480 -0.0748  0.2147  0.3666
  358SOL    HW1 1073   1.596   1.434   0.550 -1.3704  1.0174 -1.1027
  358SOL    HW2 1074   1.620   1.460   0.387 -2.1398  0.3295  0.6133
  359SOL     OW 1075   1.581   2.641   0.170 -0.4186 -0.4660  0.5733
  359SOL    HW1 1076   1.576   2.541   0.174 -2.8207  2.2691 -0.8098
  359SOL    HW2 1077   1.499   2.690   0.125  1.1363  1.3751 -0.8435
  360SOL     OW 1078   0.870   0.568   0.592  0.2718  0.0940 -0.2827
  360SOL    HW1 1079   0.777   0.584   0.635  1.3362 -0.2098  1.9655
  360SOL    HW2 1080   0.898   0.469   0.600  1.3013  3.0396  0.6075
  361SOL     OW 1081   1.218   1.313   0.753  0.2848  0.1179 -0.1045
  361SOL    HW1 1082   1.274   1.374   0.812 -1.2695 -0.1893 -2.3269
  361SOL    HW2 1083   1.125   1.351   0.738 -0.5026 -1.2731 -1.7536
  362SOL     OW 1084   1.373   1.850   0.779  0.4464 -0.2834  0.0382
  362SOL    HW1 1085   1.424   1.805   0.860  3.4510  1.2109  0.3847
  362SOL    HW2 1086   1.435   1.871   0.696 -2.0268 -0.3335 -0.9683
  363SOL     OW 1087   1.223   1.262   2.040 -0.1513 -0.5934  0.5668
  363SOL    HW1 1088   1.315   1.288   2.086  0.4416 -1.2982  0.7090
  363SOL    HW2 1089   1.196   1.320   1.956 -1.0413  0.0488  0.5681
  364SOL     OW 1090   0.495   2.325   1.998  0.5031  0.1722 -0.0048
  364SOL    HW1 1091   0.397   2.340   1.970  0.9035 -1.2492  2.4488
  364SOL    HW2 1092   0.564   2.382   1.939  0.0445 -0.3967 -2.1802
  365SOL     OW 1093   1.013   1.887   1.402  0.2264 -0.0861  0.6003
  365SOL    HW1 1094   0.914   1.917   1.401 -1.0718 -1.5394 -1.5852
  365SOL    HW2 1095   1.019   1.789   1.372 -1.0951  2.3654 -1.1581
  366SOL     OW 1096   2.770   2.067   0.452  0.4620 -0.4695  0.2144
  366SOL    HW1 1097   2.675   2.029   0.449  1.1058  0.7770  5.1349
  366SOL    HW2 1098   2.835   2.027   0.379  1.9809 -1.2926 -2.1362
  367SOL     OW 1099   0.956   1.144   0.094  0.1660  0.4107  0.8398
  367SOL    HW1 1100   0.986   1.054   0.136 -1.5659  1.7488  2.0103
  367SOL    HW2 1101   1.016   1.183   0.015  0.8918 -1.6185 -0.6049
  368SOL     OW 1102   1.478   0.547   0.744 -1.0367 -0.4202  0.5176
  368SOL    HW1 1103   1.433   0.565   0.653 -1.4690 -1.3853 -1.1100
  368SOL    HW2 1104   1.578   0.574   0.726  1.0640  0.3309 -0.9486
  369SOL     OW 1105   0.294   1.737   0.066  1.0914 -0.3160  0.4043
  369SOL    HW1 1106   0.351   1.813   0.110  1.1275  3.1829  0.0383
  369SOL    HW2 1107   0.207   1.713   0.115  1.6889 -0.8242  0.4830
  370SOL     OW 1108   0.442   2.074   0.967  0.6983  0.2551 -0.3385
  370SOL    HW1 1109   0.430   2.178   0.954 -0.9844  3.2617  1.0075
  370SOL    HW2 1110   0.357   2.021   0.933  2.3465 -1.1974  0.8002
  371SOL     OW 1111   2.923   2.171   2.662  0.4555  0.1808  0.0835
  371SOL    HW1 1112   2.858   2.125   2.721  1.4449  0.3391 -3.4517
  371SOL    HW2 1113   3.018   2.188   2.701  1.2519  1.0210 -1.1429
  372SOL     OW 1114   1.125   1.989   1.111 -0.2206  0.4145 -0.7017
  372SOL    HW1 1115   1.057   2.046   1.052 -1.3572 -1.4566 -2.7150
  372SOL    HW2 1116   1.184   2.053   1.169 -0.0726  0.6006  0.3991
  373SOL     OW 1117   2.015   1.991   0.872  0.1876  0.0343 -0.4163
  373SOL    HW1 1118   2.075   2.001   0.956  1.9904 -1.1038 -0.7933
  373SOL    HW2 1119   1.916   2.015   0.887 -2.1307 -2.1641 -0.3553
  374SOL     OW 1120   1.811   0.426   0.575  0.5338 -0.3036  0.6575
  374SOL    HW1 1121   1.856   0.382   0.654 -0.3017 -0.5407 -2.2534
  374SOL    HW2 1122   1.892   0.472   0.516  0.0819 -0.8726 -1.7448
  375SOL     OW 1123   2.446   2.199   1.136 -0.1463 -0.1854 -0.5784
  375SOL    HW1 1124   2.523   2.187   1.065  1.6993  1.0895  0.7578
  375SOL    HW2 1125   2.466   2.164   1.232 -1.0923  0.3744 -1.6039
  376SOL     OW 1126   3.072   0.554   1.480  0.1984 -0.1023  0.4512
  376SOL    HW1 1127   3.084   0.620   1.561 -1.1608  0.4615 -0.9314
  376SOL    HW2 1128   2.981   0.507   1.471 -0.1562 -0.0237 -0.4896
  377SOL     OW 1129   2.226   2.845   0.348  0.2417  0.0035 -0.3534
  377SOL    HW1 1130   2.218   2.943   0.362  1.2739 -1.2115 -1.1879
  377SOL    HW2 1131   2.325   2.822   0.324 -0.0352  2.0913 -1.1449
  378SOL     OW 1132   1.876   1.857   2.599  0.7161  0.0507 -0.5673
  378SOL    HW1 1133   1.903   1.794   2.671 -2.4702  3.5030 -0.1846
  378SOL    HW2 1134   1.845   1.811   2.516 -2.0014  1.1457  0.6041
  379SOL     OW 1135   0.782   0.147   2.807 -0.8307 -0.0130  0.5013
  379SOL    HW1 1136   0.724   0.063   2.788 -0.0427  1.7405 -0.5017
  379SOL    HW2 1137   0.799   0.200   2.717 -0.8344  2.1727 -3.0827
  380SOL     OW 1138   1.501   1.144   0.560 -0.0806 -0.2640 -0.2425
  380SOL    HW1 1139   1.404   1.105   0.569  2.6662 -0.6342 -1.3408
  380SOL    HW2 1140   1.567   1.083   0.601 -2.1300 -0.6055 -3.4309
  381SOL     OW 1141   1.367   1.171   1.478  0.5528 -0.1397 -0.3361
  381SOL    HW1 1142   1.402   1.138   1.387 -0.0345  1.0200 -0.1120
  381SOL    HW2 1143   1.431   1.142   1.557  1.2320  0.0467 -3.0467
  382SOL     OW 1144   1.796   0.829   0.155 -0.2541 -0.3358  0.2098
  382SOL    HW1 1145   1.844   0.813   0.064 -1.8926 -0.6715 -0.3537
  382SOL    HW2 1146   1.859   0.866   0.235  0.1550  3.3011  1.8854
  383SOL     OW 1147   2.632   0.997   1.456  0.0617 -0.5477  0.0386
  383SOL    HW1 1148   2.541   0.972   1.405 -2.5010 -1.4344 -0.3462
  383SOL    HW2 1149   2.709   0.973   1.395 -2.5134  0.5002 -1.9669
  384SOL     OW 1150   0.887   2.324   0.138 -0.3545  0.4200  0.0566
  384SOL    HW1 1151   0.825   2.392   0.185  1.1628 -1.2580  2.1916
  384SOL    HW2 1152   0.863   2.228   0.170 -0.2108 -1.1858 -0.9483
  385SOL     OW 1153   3.027   2.004   1.710  0.1027 -0.1895 -0.1902
  385SOL    HW1 1154   3.086   2.078   1.669 -0.0903  0.3786 -1.1590
  385SOL    HW2 1155   3.066   1.904   1.714  0.1156 -1.5057  0.6092
  386SOL     OW 1156   0.447   1.084   0.432  0.2562 -0.1525 -0.4287
  386SOL    HW1 1157   0.442   0.977   0.443 -1.2465  0.2740 -0.9513
  386SOL    HW2 1158   0.375   1.120   0.372  3.2181  1.6545  0.4535
  387SOL     OW 1159   0.916   0.407   1.618 -0.4991  0.0628 -0.5011
  387SOL    HW1 1160   1.002   0.459   1.607 -1.5233 -0.8112 -1.1589
  387SOL    HW2 1161   0.908   0.335   1.543  0.9812 -0.3760  1.4699
  388SOL     OW 1162   1.180   2.641   1.770 -0.2003 -0.3431  0.0981
  388SOL    HW1 1163   1.216   2.612   1.677  2.2877  0.8094  1.2394
  388SOL    HW2 1164   1.248   2.601   1.838 -1.0656  2.1549 -0.1581
  389SOL     OW 1165   0.179   3.029   1.100  0.0847 -0.6461 -0.6211
  389SOL    HW1 1166   0.122   3.058   1.180 -1.4595  0.1710 -2.1471
  389SOL    HW2 1167   0.204   2.928   1.114 -2.0310 -1.9195 -1.6072
  390SOL     OW 1168   0.990   0.965   1.298  0.0337 -0.5447 -0.3044
  390SOL    HW1 1169   1.013   0.900   1.374 -2.2868 -1.0398  0.3418
  390SOL    HW2 1170   0.961   1.062   1.327  0.4653 -1.2543  0.3037
  391SOL     OW 1171   2.092   1.189   0.998  0.3106 -0.0490  0.2642
  391SOL    HW1 1172   2.011   1.138   1.032  0.6600 -0.3550  0.2515
  391SOL    HW2 1173   2.162   1.128   0.945 -3.0745 -1.3101 -2.2350
  392SOL     OW 1174   0.907   2.653   3.064  0.0014  0.3509 -0.5769
  392SOL    HW1 1175   0.824   2.648   3.122  1.0871 -0.8866 -1.6388
  392SOL    HW2 1176   0.989   2.681   3.117 -2.0635 -0.1281  1.1565
  393SOL     OW 1177   0.393   0.472   2.005 -0.3952  0.4087 -0.3754
  393SOL    HW1 1178   0.328   0.398   1.975 -0.4704 -0.5104  0.4458
  393SOL    HW2 1179   0.481   0.450   1.955 -1.2664  2.0540 -0.5586
  394SOL     OW 1180   2.986   1.821   2.764 -0.3112  0.8608  0.5246
  394SOL    HW1 1181   3.069   1.860   2.808 -2.5359  1.1976 -1.1638
  394SOL    HW2 1182   2.993   1.817   2.659 -1.2843 -0.6178 -1.5142
  395SOL     OW 1183   1.604   1.900   0.636  0.2825 -0.4355 -0.3695
  395SOL    HW1 1184   1.670   1.829   0.595  1.6061 -1.0222  0.8150
  395SOL    HW2 1185   1.643   1.970   0.708  1.9328 -1.5411  0.6329
  396SOL     OW 1186   2.766   1.966   1.296 -0.0139  0.0936 -0.1602
  396SOL    HW1 1187   2.667   1.988   1.314  0.0090 -1.5749  0.1719
  396SOL    HW2 1188   2.797   1.889   1.364 -1.4468  0.6501  1.5006
  397SOL     OW 1189   1.010   2.168   0.549 -0.3523  0.1502 -1.0731
  397SOL    HW1 1190   0.913   2.146   0.539  0.6708 -1.4929 -1.5682
  397SOL    HW2 1191   1.032   2.271   0.573  0.5354  1.3546  4.5555
  398SOL     OW 1192   2.215   0.031   1.017 -1.0873  0.1165  0.4084
  398SOL    HW1 1193   2.217  -0.068   1.049 -0.9761 -2.0217  1.0107
  398SOL    HW2 1194   2.151   0.091   1.074 -0.0202 -4.0225 -2.0935
  399SOL     OW 1195   2.908   2.535   2.762  0.9261 -0.2503 -0.6787
  399SOL    HW1 1196   2.871   2.489   2.676  0.1946 -1.4382  1.0765
  399SOL    HW2 1197   2.892   2.483   2.851 -2.7633 -0.4379  3.0177
  400SOL     OW 1198   0.757   1.595   1.301  0.2341  0.3040  0.7089
  400SOL    HW1 1199   0.708   1.658   1.364 -0.5002 -0.9312 -1.3521
  400SOL    HW2 1200   0.763   1.632   1.203 -0.3205  3.4092 -0.1539
  401SOL     OW 1201   1.846   0.117   1.364  0.2837 -0.7507 -0.3271
  401SOL    HW1 1202   1.911   0.077   1.435 -2.9950 -0.4009 -1.5839
  401SOL    HW2 1203   1.753   0.145   1.402 -0.4281 -1.3003  0.0101
  402SOL     OW 1204   1.326   0.109   3.065 -0.0340 -0.7605 -0.1862
  402SOL    HW1 1205   1.421   0.104   3.023 -1.3197  0.3280 -0.8026
  402SOL    HW2 1206   1.306   0.195   3.113  0.8716  1.1351  0.2220
  403SOL     OW 1207   2.297   1.840   0.898 -0.3640 -0.0462  0.0526
  403SOL    HW1 1208   2.393   1.812   0.922 -0.0850 -2.8929  0.7000
  403SOL    HW2 1209   2.259   1.914   0.965 -3.1770 -0.7824 -0.5534
  404SOL     OW 1210   0.192   2.481   2.836 -0.6252  0.1586 -0.5441
  404SOL    HW1 1211   0.293   2.476   2.802  1.5422 -0.2763 -0.5532
  404SOL    HW2 1212   0.165   2.583   2.846 -1.1434 -0.4684  1.8289
  405SOL     OW 1213   0.176   2.428   0.573  0.2209 -0.5248  0.6164
  405SOL    HW1 1214   0.136   2.398   0.484 -0.0475  0.6746 -1.1639
  405SOL    HW2 1215   0.234   2.513   0.575 -1.2028 -0.5184 -1.1484
  406SOL     OW 1216   0.027   1.457   2.970 -0.2209  0.5143  0.1881
  406SOL    HW1 1217   0.116   1.428   2.926  3.4142 -1.8877 -2.0001
  406SOL    HW2 1218   0.039   1.492   3.064 -0.8888 -0.7621 -0.5697
  407SOL     OW 1219   1.588   0.915   0.891 -0.4255  0.1255  0.6172
  407SOL    HW1 1220   1.552   0.859   0.809  0.6157 -1.9473 -1.1933
  407SOL    HW2 1221   1.519   0.979   0.936 -0.0285 -1.7254  0.1031
  408SOL     OW 1222   1.610   2.377   0.958  0.2808  0.5004 -0.9661
  408SOL    HW1 1223   1.669   2.371   0.878 -2.6616 -0.3686  1.4047
  408SOL    HW2 1224   1.536   2.456   0.956 -2.6462  3.1923 -1.4890
  409SOL     OW 1225   0.586   0.881   0.747 -0.0099  0.2944 -0.4676
  409SOL    HW1 1226   0.526   0.900   0.669  3.5106 -0.0527 -1.0196
  409SOL    HW2 1227   0.616   0.779   0.748  0.5014 -1.6501  0.3943
  410SOL     OW 1228   1.273   2.015   1.408  0.1420  0.1479 -0.1437
  410SOL    HW1 1229   1.324   1.968   1.485  1.6358 -0.4580  0.0672
  410SOL    HW2 1230   1.182   1.980   1.396 -2.3849 -2.0175 -0.7674
  411SOL     OW 1231   2.493   1.895   3.061  0.8067 -0.3883 -0.3278
  411SOL    HW1 1232   2.429   1.895   2.979  2.8314  0.7112 -0.3002
  411SOL    HW2 1233   2.591   1.878   3.032  0.7790 -0.0158 -0.2014
  412SOL     OW 1234   1.481   2.497   2.205 -0.0423  0.9196 -0.4694
  412SOL    HW1 1235   1.541   2.577   2.236  1.3133  0.8552  0.5135
  412SOL    HW2 1236   1.396   2.487   2.268  0.7111  1.8540  1.3960
  413SOL     OW 1237   3.096   0.266   2.930 -0.2384  0.4988  0.2905
  413SOL    HW1 1238   3.037   0.180   2.937 -1.8220 -0.7702 -1.2011
  413SOL    HW2 1239   3.182   0.257   2.988 -2.3146 -1.0019  1.4963
  414SOL     OW 1240   1.789   1.480   1.355 -0.2614  0.1791 -0.3036
  414SOL    HW1 1241   1.697   1.501   1.405 -1.0529  2.9000  1.4237
  414SOL    HW2 1242   1.777   1.404   1.287  1.7476  1.3435 -0.8820
  415SOL     OW 1243   0.287   2.215   0.702 -0.1446  0.2881  0.1439
  415SOL    HW1 1244   0.252   2.311   0.672 -0.7509 -1.6060 -0.5840
  415SOL    HW2 1245   0.222   2.144   0.666  0.0679 -1.8834 -1.0520
  416SOL     OW 1246   0.349   1.066   1.066  0.0018 -0.1351  0.1598
  416SOL    HW1 1247   0.317   1.043   0.968  2.0020  1.3243 -0.4599
  416SOL    HW2 1248   0.444   1.104   1.065  0.3571 -0.4512 -3.1622
  417SOL     OW 1249   2.108   2.331   1.882  0.3045 -0.6189  0.0920
  417SOL    HW1 1250   2.122   2.238   1.841 -0.8129  1.1554  1.1004
  417SOL    HW2 1251   2.015   2.347   1.928  0.0579  1.4303 -0.5694
  418SOL     OW 1252   1.122   0.511   1.253  0.1614 -0.2467  0.2123
  418SOL    HW1 1253   1.041   0.495   1.195  0.4458 -2.4951  1.5330
  418SOL    HW2 1254   1.189   0.582   1.215  2.3327  3.1610  1.8149
  419SOL     OW 1255   1.018   0.363   3.026 -0.2897  0.2577  0.8425
  419SOL    HW1 1256   1.004   0.373   2.921  0.3271 -0.1313 -3.0854
  419SOL    HW2 1257   0.979   0.270   3.055 -2.7700 -1.6932  0.3238
  420SOL     OW 1258   0.158   2.238   0.356 -0.3140  0.4483  0.2122
  420SOL    HW1 1259   0.148   2.191   0.264  2.6569  2.6926  0.2414
  420SOL    HW2 1260   0.079   2.221   0.420 -1.2779 -2.1260 -1.8556
  421SOL     OW 1261   0.309   3.052   0.694  0.3302 -0.5727 -0.3347
  421SOL    HW1 1262   0.280   2.954   0.698 -0.3978 -1.4129  2.1809
  421SOL    HW2 1263   0.412   3.078   0.696  0.2216  0.7380 -1.4574
  422SOL     OW 1264   0.970   2.564   1.037  0.5409  0.9138 -0.3400
  422SOL    HW1 1265   1.053   2.593   0.987 -1.7274  0.3420 -0.8164
  422SOL    HW2 1266   0.986   2.566   1.136  1.0383  1.4447 -0.9831
  423SOL     OW 1267   0.110   0.694   1.267  0.1184  0.3849 -0.1878
  423SOL    HW1 1268   0.074   0.637   1.344  1.3071 -2.0623  0.2660
  423SOL    HW2 1269   0.041   0.771   1.236 -2.0769  3.0030 -0.1858
  424SOL     OW 1270   1.015   2.225   2.051  0.1088  0.1247 -0.0745
  424SOL    HW1 1271   0.980   2.322   2.043 -2.2226 -0.7641 -1.2589
  424SOL    HW2 1272   1.052   2.204   2.146  1.1948  0.6571 -1.0677
  425SOL     OW 1273   1.980   1.453   0.945  0.0158  0.4670 -0.0804
  425SOL    HW1 1274   2.020   1.354   0.956  1.6814 -0.4153 -3.3106
  425SOL    HW2 1275   2.046   1.520   0.896  2.0191 -0.3143 -1.8033
  426SOL     OW 1276   1.491   1.524   1.414  0.2341 -0.1137 -0.5467
  426SOL    HW1 1277   1.477   1.614   1.356 -1.4775  1.6216  0.9597
  426SOL    HW2 1278   1.455   1.543   1.510 -1.9335 -0.0802  0.9628
  427SOL     OW 1279   1.868   2.372   2.028 -0.3636 -0.3811 -0.2967
  427SOL    HW1 1280   1.921   2.315   2.098 -0.0830 -1.5497  1.1850
  427SOL    HW2 1281   1.865   2.474   2.051 -1.7299 -0.4627  3.8142
  428SOL     OW 1282   0.867   2.931   0.185  0.3418  0.7167  0.5967
  428SOL    HW1 1283   0.920   3.021   0.190  2.0134 -0.2797 -0.9235
  428SOL    HW2 1284   0.933   2.853   0.162  0.1614  3.0054 -0.3004
  429SOL     OW 1285   1.301   0.093   0.265  0.4491 -0.1019 -0.2486
  429SOL    HW1 1286   1.403   0.107   0.276 -1.3404  0.1336 -0.2662
  429SOL    HW2 1287   1.280   0.046   0.174 -0.7280 -2.0613 -0.0124
  430SOL     OW 1288   2.704   1.468   0.388  0.0145 -0.4410  0.2009
  430SOL    HW1 1289   2.762   1.518   0.319  0.3856 -1.8024  1.2701
  430SOL    HW2 1290   2.697   1.511   0.483 -1.1766 -1.7030  2.2310
  431SOL     OW 1291   2.142   1.630   0.835  0.0244 -0.2357 -0.4885
  431SOL    HW1 1292   2.218   1.698   0.860 -1.2249  1.5758 -1.7347
  431SOL    HW2 1293   2.069   1.677   0.777 -1.0422 -0.0743 -1.3832
  432SOL     OW 1294   2.869   2.230   1.268 -0.2840 -0.1548 -0.1003
  432SOL    HW1 1295   2.842   2.130   1.264  0.0131  3.9699  0.1322
  432SOL    HW2 1296   2.919   2.249   1.355 -1.7663 -0.4032 -1.7570
  433SOL     OW 1297   1.916   0.362   0.840  0.5993 -0.0582  0.0790
  433SOL    HW1 1298   1.834   0.329   0.896 -0.5423  0.5678 -0.0870
  433SOL    HW2 1299   2.001   0.305   0.842  0.2653 -0.1412 -0.6103
  434SOL     OW 1300   1.570   0.254   0.778 -0.3918  0.2149  0.5429
  434SOL    HW1 1301   1.532   0.343   0.745  1.1564 -1.7602  0.8506
  434SOL    HW2 1302   1.609   0.259   0.868  0.3548 -0.2747  1.5056
  435SOL     OW 1303   1.447   1.421   2.133 -0.3560 -0.3763  0.0448
  435SOL    HW1 1304   1.360   1.450   2.181 -3.2653 -0.4953 -2.5568
  435SOL    HW2 1305   1.475   1.503   2.069 -2.7960 -0.7554  1.5266
  436SOL     OW 1306   1.672   2.742   2.339  0.2928  0.2047 -0.6360
  436SOL    HW1 1307   1.619   2.816   2.396  0.5705  0.2227  1.2904
  436SOL    HW2 1308   1.697   2.656   2.393 -0.3246 -2.8754 -0.2006
  437SOL     OW 1309   1.113   2.910   0.903  0.3897 -0.5024  0.6077
  437SOL    HW1 1310   1.056   2.990   0.859 -1.3517  0.4583 -0.6580
  437SOL    HW2 1311   1.059   2.873   0.986 -2.0405  0.5044  0.2478
  438SOL     OW 1312   1.062   2.589   1.311  0.0786 -0.6571 -0.1060
  438SOL    HW1 1313   1.102   2.622   1.402 -0.1506  0.5151  1.9622
  438SOL    HW2 1314   1.000   2.506   1.316  2.2680 -0.9525  2.5955
  439SOL     OW 1315   0.722   1.769   1.091  0.1379 -0.2095  0.0653
  439SOL    HW1 1316   0.735   1.871   1.088  0.1834 -0.1749 -2.1316
  439SOL    HW2 1317   0.629   1.738   1.121  0.0670  0.6697 -3.2189
  440SOL     OW 1318   0.973   2.489   1.942  0.2279  0.1645 -0.7942
  440SOL    HW1 1319   0.922   2.515   1.854  0.0586 -1.0804 -1.4784
  440SOL    HW2 1320   1.072   2.512   1.939 -2.2224 -1.1951  1.0684
  441SOL     OW 1321   0.406   2.796   1.363 -0.2484 -0.3498  0.2673
  441SOL    HW1 1322   0.450   2.704   1.372  2.8852 -0.3798  0.8084
  441SOL    HW2 1323   0.320   2.791   1.311  2.2984 -1.4687  2.1821
  442SOL     OW 1324   2.270   0.650   2.616  0.1324 -0.2134 -0.7307
  442SOL    HW1 1325   2.255   0.548   2.590  0.5600 -0.9552  0.4992
  442SOL    HW2 1326   2.193   0.712   2.586 -0.7249  0.2432 -1.6321
  443SOL     OW 1327   1.211   2.722   2.202  0.2379 -0.1584  0.2426
  443SOL    HW1 1328   1.242   2.630   2.234 -3.0449  2.6341 -1.0956
  443SOL    HW2 1329   1.238   2.797   2.271 -1.1333  2.3776 -0.5585
  444SOL     OW 1330   1.145   1.299   1.580  0.2702 -0.1071  0.6931
  444SOL    HW1 1331   1.238   1.257   1.563 -0.9554  1.0025 -0.4139
  444SOL    HW2 1332   1.153   1.359   1.661 -0.8842 -1.8730  1.7158
  445SOL     OW 1333   3.100   2.377   1.869  0.4373  0.1114  0.0764
  445SOL    HW1 1334   3.088   2.466   1.824  0.2409 -1.4590  0.1311
  445SOL    HW2 1335   3.014   2.344   1.921 -1.0715 -0.8137  0.6879
  446SOL     OW 1336   0.251   1.892   2.385 -0.2787  0.1205 -0.5897
  446SOL    HW1 1337   0.205   1.974   2.432  1.6870 -1.0000  2.2088
  446SOL    HW2 1338   0.192   1.832   2.334  0.9475  0.2278  1.0792
  447SOL     OW 1339   1.242   1.681   1.961  0.0154  0.9466 -0.1728
  447SOL    HW1 1340   1.147   1.719   1.984 -0.2868 -0.9898 -1.3104
  447SOL    HW2 1341   1.324   1.741   1.985 -2.3532  1.5409 -0.7138
  448SOL     OW 1342   0.100   1.440   1.968  0.5490  0.2316 -0.1291
  448SOL    HW1 1343   0.148   1.526   1.934 -0.9468 -0.8955  0.7337
  448SOL    HW2 1344   0.064   1.457   2.064 -1.3789  0.0960 -0.4861
  449SOL     OW 1345   1.748   2.963   0.907  0.2227  0.6197  0.1206
  449SOL    HW1 1346   1.783   2.957   1.008  2.9727  3.3108  0.1664
  449SOL    HW2 1347   1.823   2.940   0.837 -0.1805  0.6577 -1.4072
  450SOL     OW 1348   2.327   1.434   0.754 -0.1098  0.1115 -0.4400
  450SOL    HW1 1349   2.240   1.471   0.784  2.2211 -1.9254 -0.8582
  450SOL    HW2 1350   2.356   1.476   0.663  2.7840  0.0920  1.3613
  451SOL     OW 1351   1.313   3.021   1.428  0.6595 -0.1952  0.0103
  451SOL    HW1 1352   1.246   3.096   1.454 -2.7891 -1.5169  0.6221
  451SOL    HW2 1353   1.355   2.980   1.514 -2.9096 -1.2892 -0.9163
  452SOL     OW 1354   2.660   2.291   2.202  0.3224 -0.2949 -0.1558
  452SOL    HW1 1355   2.631   2.389   2.200  3.2385  0.4577 -0.9036
  452SOL    HW2 1356   2.699   2.257   2.294  1.0624  1.4693 -1.6121
  453SOL     OW 1357   2.457   2.665   0.011  0.2973 -0.5016  0.0037
  453SOL    HW1 1358   2.365   2.715   0.034 -0.0535 -1.0235  1.5033
  453SOL    HW2 1359   2.449   2.610  -0.075  0.1257 -1.4442  5.5265
  454SOL     OW 1360   0.980   1.129   2.034  0.0912 -0.6461  0.2808
  454SOL    HW1 1361   0.949   1.146   1.936 -0.0834 -0.1261  1.1743
  454SOL    HW2 1362   1.072   1.172   2.060 -0.5354 -0.0796  0.6256
  455SOL     OW 1363   0.693   2.668   2.816 -0.3930  0.6007 -0.4875
  455SOL    HW1 1364   0.784   2.711   2.809 -2.2108 -1.1218 -1.7408
  455SOL    HW2 1365   0.692   2.597   2.885 -2.1171 -0.0683  1.3335
  456SOL     OW 1366   0.453   1.902   0.224  0.2212  0.3355  0.5454
  456SOL    HW1 1367   0.513   1.849   0.291  3.1939  2.8361  0.2009
  456SOL    HW2 1368   0.503   1.992   0.204  1.2792 -2.5464 -1.8584
  457SOL     OW 1369   0.345   2.639   0.605 -0.8031 -0.7238  0.1711
  457SOL    HW1 1370   0.351   2.710   0.527  0.5871 -0.3267 -1.4723
  457SOL    HW2 1371   0.437   2.634   0.649 -1.0749 -1.7501  1.7630
  458SOL     OW 1372   2.920   3.081   1.227 -0.1239 -0.4680  0.0474
  458SOL    HW1 1373   2.964   3.170   1.200 -2.8076  1.2558  1.1053
  458SOL    HW2 1374   2.934   3.011   1.153  0.5659  3.7807  0.1844
  459SOL     OW 1375   2.074   2.624   0.747  0.1947 -0.2984 -0.7905
  459SOL    HW1 1376   2.157   2.671   0.784 -1.2828  0.1172  1.1833
  459SOL    HW2 1377   2.094   2.565   0.666  0.2508  2.3279  2.0307
  460SOL     OW 1378   1.221   2.106   2.819  0.0675 -0.4336  0.2420
  460SOL    HW1 1379   1.234   2.151   2.723  1.9797  2.6447 -0.3046
  460SOL    HW2 1380   1.195   2.003   2.818 -0.6619 -1.5924  0.8651
  461SOL     OW 1381   0.541   2.192   2.650 -0.2133  0.1475  0.0904
  461SOL    HW1 1382   0.486   2.106   2.630 -0.2138 -0.0323 -0.2764
  461SOL    HW2 1383   0.587   2.179   2.744  1.9054 -0.3109  1.7886
  462SOL     OW 1384   0.957   1.135   1.777 -0.2047  0.6204  0.7400
  462SOL    HW1 1385   1.024   1.102   1.704 -1.0103  4.0700  0.0991
  462SOL    HW2 1386   0.885   1.206   1.744  1.2713  0.0217  0.0628
  463SOL     OW 1387   0.449   0.818   0.508 -0.0225 -0.0457  0.1218
  463SOL    HW1 1388   0.504   0.737   0.482  0.2284  2.5098  2.0014
  463SOL    HW2 1389   0.348   0.787   0.518 -0.2112 -1.4040  1.5260
  464SOL     OW 1390   0.611   2.307   2.232 -0.6079 -0.2541 -0.2619
  464SOL    HW1 1391   0.567   2.367   2.307 -0.9212 -0.4347 -0.3668
  464SOL    HW2 1392   0.555   2.325   2.144  0.9477  2.4378  2.3801
  465SOL     OW 1393   0.232   0.961   0.813  0.3291 -0.1377  0.0307
  465SOL    HW1 1394   0.131   0.976   0.825 -0.5573  1.4465  2.9786
  465SOL    HW2 1395   0.260   0.870   0.781 -2.4251  3.4407  0.2491
  466SOL     OW 1396   1.397   1.121   0.982 -0.0804  0.3260 -0.4325
  466SOL    HW1 1397   1.412   1.221   0.965  2.3287 -2.0443  0.1092
  466SOL    HW2 1398   1.317   1.094   1.043  1.6907 -0.2358  0.8276
  467SOL     OW 1399   0.556   0.408   2.446 -0.7479 -0.2913 -0.5302
  467SOL    HW1 1400   0.505   0.493   2.438  0.9258 -1.1806  0.6523
  467SOL    HW2 1401   0.539   0.353   2.530  1.9062  0.4346 -2.3221
  468SOL     OW 1402   0.455   2.267   1.615  0.3588  0.3295  0.1185
  468SOL    HW1 1403   0.531   2.321   1.658 -3.1837 -0.0841  0.3656
  468SOL    HW2 1404   0.451   2.277   1.512  1.3359 -1.6780 -0.1101
  469SOL     OW 1405   1.436   1.351   1.204 -0.2431  0.4634 -0.5571
  469SOL    HW1 1406   1.536   1.334   1.168  0.9240  1.6177  0.6849
  469SOL    HW2 1407   1.436   1.403   1.291 -2.8234 -3.5036  1.0445
  470SOL     OW 1408   3.008   1.836   0.748 -0.5704 -0.4292 -0.3761
  470SOL    HW1 1409   3.086   1.894   0.705  0.1226 -0.3106  0.4913
  470SOL    HW2 1410   3.023   1.816   0.850 -0.1531 -2.0487  2.1706
  471SOL     OW 1411   2.643   1.267   2.134  0.9668 -0.5728 -0.0244
  471SOL    HW1 1412   2.584   1.250   2.217  0.2590  0.7863 -0.1664
  471SOL    HW2 1413   2.719   1.337   2.162 -0.7792  1.0501  0.3029
  472SOL     OW 1414   1.132   2.460   0.055 -0.4213  0.1191  0.0542
  472SOL    HW1 1415   1.203   2.429   0.127 -1.2517  1.8457  2.1765
  472SOL    HW2 1416   1.037   2.432   0.085 -0.1382  0.4428 -1.4528
  473SOL     OW 1417   1.095   1.537   1.008 -0.0147  0.0367 -0.8485
  473SOL    HW1 1418   0.991   1.540   0.989 -0.8203  1.4667  1.7967
  473SOL    HW2 1419   1.125   1.459   1.067  0.8368  1.8379  1.0304
  474SOL     OW 1420   0.679   1.271   0.545 -0.0824 -0.3242 -0.2171
  474SOL    HW1 1421   0.597   1.243   0.488 -0.8300  0.2009  1.2250
  474SOL    HW2 1422   0.717   1.196   0.608  1.5918  0.3101 -1.8201
  475SOL     OW 1423   2.870   0.012   0.841  0.4479  0.2570 -0.4188
  475SOL    HW1 1424   2.934   0.098   0.846 -1.6291 -1.4642  1.3458
  475SOL    HW2 1425   2.775   0.026   0.885  2.0882 -0.8361 -0.3302
  476SOL     OW 1426   0.965   3.086   1.756 -0.0755  0.0555 -0.3001
  476SOL    HW1 1427   1.042   3.134   1.808  0.4979  1.3108  1.5616
  476SOL    HW2 1428   0.997   3.035   1.670  1.6799 -1.3721  0.8481
  477SOL     OW 1429   1.407   0.330   2.421  0.1198 -0.2544  0.1585
  477SOL    HW1 1430   1.405   0.364   2.523 -3.4913  1.3158 -0.1482
  477SOL    HW2 1431   1.490   0.276   2.396 -0.6805  1.6381  0.3843
  478SOL     OW 1432   2.223   1.821   0.152  0.3300  0.5127  0.1722
  478SOL    HW1 1433   2.160   1.739   0.175 -0.2143 -2.5598 -0.9192
  478SOL    HW2 1434   2.321   1.800   0.161 -1.7440 -2.2341 -0.0729
  479SOL     OW 1435   1.202   0.987   2.856  0.8242 -0.0481  0.7922
  479SOL    HW1 1436   1.246   0.935   2.777  1.3332  0.2619 -0.4893
  479SOL    HW2 1437   1.112   0.938   2.889 -2.4597 -0.9111 -1.6251
  480SOL     OW 1438   2.668   2.335   0.357  0.2642 -0.2442 -0.4221
  480SOL    HW1 1439   2.673   2.231   0.374  0.0614 -0.8053  2.9814
  480SOL    HW2 1440   2.578   2.367   0.313 -0.6610  0.4244  0.5200
  481SOL     OW 1441   0.968   1.145   0.890  0.1570 -0.3219  0.5289
  481SOL    HW1 1442   1.004   1.224   0.831  1.5594  0.1253  1.3058
  481SOL    HW2 1443   1.009   1.148   0.989 -1.0304 -0.7954  2.3068
  482SOL     OW 1444   1.592   0.277   2.034  0.1818 -0.0185  0.7527
  482SOL    HW1 1445   1.605   0.374   2.006  0.1180 -0.6516  3.5000
  482SOL    HW2 1446   1.677   0.246   2.093 -3.6518 -0.5789  1.6299
  483SOL     OW 1447   0.101   2.309   1.226 -0.1133  0.3230  0.3728
  483SOL    HW1 1448   0.055   2.326   1.316  1.1426 -1.7025  0.9810
  483SOL    HW2 1449   0.139   2.387   1.169 -0.4987  0.7532  0.5531
  484SOL     OW 1450   1.773   1.104   1.360 -0.2198 -0.1059 -0.4994
  484SOL    HW1 1451   1.830   1.020   1.390 -1.6604 -0.5092  1.4273
  484SOL    HW2 1452   1.762   1.178   1.433  0.1880  1.9355  0.6194
  485SOL     OW 1453   0.731   0.935   1.755 -0.2584  0.7239  0.4783
  485SOL    HW1 1454   0.743   0.958   1.651  1.3885  4.2796  0.2855
  485SOL    HW2 1455   0.804   0.977   1.810 -0.8462 -1.6231 -0.8171
  486SOL     OW 1456   0.813   1.872   2.438  0.2334  0.2675  0.0693
  486SOL    HW1 1457   0.841   1.856   2.538 -0.7120 -0.1102 -2.3320
  486SOL    HW2 1458   0.788   1.971   2.418  0.1459 -0.5688 -4.3948
  487SOL     OW 1459   1.793   1.650   0.973  0.1345  0.1403  0.2137
  487SOL    HW1 1460   1.857   1.564   0.960  2.3522 -3.1208  1.2725
  487SOL    HW2 1461   1.781   1.711   0.894 -2.1788 -0.0771  0.8822
  488SOL     OW 1462   2.999   0.862   2.222  0.2751  0.5551 -0.4677
  488SOL    HW1 1463   2.976   0.762   2.204  1.0400  0.1280 -0.2958
  488SOL    HW2 1464   3.048   0.879   2.312  2.0275 -0.9081 -2.3119
  489SOL     OW 1465   2.788   0.300   1.259 -0.7563 -0.4519  0.4226
  489SOL    HW1 1466   2.756   0.292   1.358 -1.5629 -0.4203  0.3937
  489SOL    HW2 1467   2.896   0.299   1.247 -0.1103 -0.3649 -2.9504
  490SOL     OW 1468   1.487   2.954   2.780  0.5911 -0.1190 -0.4390
  490SOL    HW1 1469   1.530   2.858   2.770 -0.8846 -2.7299 -0.3708
  490SOL    HW2 1470   1.440   2.990   2.697 -1.1388  2.4171  0.7926
  491SOL     OW 1471   1.720   1.445   2.608  0.5887  0.0768 -0.1986
  491SOL    HW1 1472   1.634   1.470   2.667  0.6314  0.8069  0.2466
  491SOL    HW2 1473   1.810   1.444   2.663  0.0086 -0.3060 -1.0548
  492SOL     OW 1474   0.575   2.134   0.647 -0.5500  0.3713 -0.0085
  492SOL    HW1 1475   0.622   2.101   0.737  1.2209 -0.3959  1.5099
  492SOL    HW2 1476   0.491   2.188   0.662  2.8380 -0.2640  1.4018
  493SOL     OW 1477   0.437   1.412   2.022 -0.0043  0.2865 -0.1535
  493SOL    HW1 1478   0.373   1.490   2.044 -1.6291  1.4934  0.8475
  493SOL    HW2 1479   0.415   1.327   2.075  0.1555  3.2234 -1.1382
  494SOL     OW 1480   2.718   2.739   0.110 -0.1528 -0.0667  0.5501
  494SOL    HW1 1481   2.728   2.681   0.193 -0.8571 -0.5307 -1.0283
  494SOL    HW2 1482   2.621   2.754   0.091  0.1876 -3.1222  3.7259
  495SOL     OW 1483   2.595   2.702   2.647  0.6487  0.1826  1.2995
  495SOL    HW1 1484   2.602   2.597   2.638  2.6257 -0.8052  2.8855
  495SOL    HW2 1485   2.684   2.746   2.611  4.9009  3.5044  1.0272
  496SOL     OW 1486   2.069   2.250   0.716 -0.2194 -0.4494  0.1607
  496SOL    HW1 1487   2.117   2.306   0.788 -1.6145  1.5611 -0.9439
  496SOL    HW2 1488   2.057   2.148   0.742 -0.6353  2.1879  2.7025
  497SOL     OW 1489   0.199   2.999   2.356 -0.1571  0.0792 -0.0601
  497SOL    HW1 1490   0.165   3.064   2.429  1.8322 -0.8107 -1.0333
  497SOL    HW2 1491   0.254   3.047   2.274  3.2415 -0.7058 -0.1660
  498SOL     OW 1492   1.172   1.363   1.197 -0.3329  0.7398 -0.1611
  498SOL    HW1 1493   1.275   1.337   1.192  1.4621 -0.8412  1.8528
  498SOL    HW2 1494   1.162   1.446   1.262 -0.3260  1.0739  2.5011
  499SOL     OW 1495   0.640   1.753   0.365  0.0599  0.4392  0.0085
  499SOL    HW1 1496   0.653   1.661   0.323 -1.6709 -0.0910  0.2827
  499SOL    HW2 1497   0.734   1.789   0.400  1.7974 -1.2993  0.0924
  500SOL     OW 1498   1.412   2.878   1.633  0.0056 -0.0302  0.0179
  500SOL    HW1 1499   1.371   2.838   1.725 -0.8122  1.7649  0.2856
  500SOL    HW2 1500   1.471   2.797   1.597 -0.3566 -2.5521  0.4738
  501SOL     OW 1501   0.815   1.112   2.274  0.1157 -0.2198 -0.3199
  501SOL    HW1 1502   0.736   1.046   2.253 -1.3973 -0.9062 -1.2434
  501SOL    HW2 1503   0.880   1.113   2.195 -3.2284  0.5719  3.8820
  502SOL     OW 1504   2.544   0.927   1.713  0.3426  0.1487 -0.2545
  502SOL    HW1 1505   2.547   0.918   1.608 -3.3770 -1.5224 -1.2405
  502SOL    HW2 1506   2.544   0.836   1.760 -0.3412  0.7569  2.6847
  503SOL     OW 1507   1.331   0.161   0.679 -0.1300 -0.0133  0.7729
  503SOL    HW1 1508   1.304   0.238   0.613 -0.4177 -0.2364 -2.3477
  503SOL    HW2 1509   1.420   0.183   0.730 -0.1283  0.3302  1.3722
  504SOL     OW 1510   3.026   2.341   1.484  0.0821  0.2049 -0.1843
  504SOL    HW1 1511   2.973   2.421   1.525  1.5657 -1.6463 -0.7661
  504SOL    HW2 1512   3.088   2.289   1.549 -0.4370  1.5589 -2.7607
  505SOL     OW 1513   2.340   1.166   1.407 -0.0174  0.3100  0.0570
  505SOL    HW1 1514   2.294   1.226   1.329 -0.2641  1.0896 -1.7468
  505SOL    HW2 1515   2.411   1.223   1.461  3.7450  1.3171  0.7257
  506SOL     OW 1516   1.970   0.218   1.818 -0.5096  0.0033  0.1720
  506SOL    HW1 1517   2.053   0.172   1.857  0.9148 -0.1453  0.8393
  506SOL    HW2 1518   1.960   0.313   1.853  3.5241  1.3605  2.1048
  507SOL     OW 1519   0.551   0.664   2.124  0.0290 -0.4931  0.2642
  507SOL    HW1 1520   0.470   0.607   2.076 -0.8416  0.2430  2.9434
  507SOL    HW2 1521   0.639   0.606   2.141 -0.1768 -2.3594 -0.3999
  508SOL     OW 1522   0.277   1.632   0.753  0.1301 -0.1721  0.9016
  508SOL    HW1 1523   0.329   1.695   0.693 -1.4125 -1.2261  0.8543
  508SOL    HW2 1524   0.241   1.672   0.842  0.8189  0.6916 -1.4033
  509SOL     OW 1525   1.250   1.227   2.401 -0.4052  0.0973 -0.8524
  509SOL    HW1 1526   1.301   1.168   2.341  0.0387  2.4972  5.3056
  509SOL    HW2 1527   1.156   1.189   2.420 -2.9904 -0.7670  0.4250
  510SOL     OW 1528   1.276   2.121   2.210 -0.6865 -0.0527 -0.2937
  510SOL    HW1 1529   1.286   2.161   2.112  1.0159 -1.0330  0.2240
  510SOL    HW2 1530   1.184   2.068   2.229 -0.8201 -3.0346  2.0641
  511SOL     OW 1531   3.005   2.691   1.311  0.1595  0.7484  0.7920
  511SOL    HW1 1532   2.959   2.653   1.228  1.1852 -2.3539  2.0739
  511SOL    HW2 1533   2.954   2.672   1.392 -1.7262 -0.7408  0.6733
  512SOL     OW 1534   2.383   0.439   1.370 -0.7786 -0.1951  0.1006
  512SOL    HW1 1535   2.284   0.411   1.382 -0.6961 -2.6968 -1.4895
  512SOL    HW2 1536   2.414   0.468   1.276 -0.7808  0.5113 -3.1712
  513SOL     OW 1537   2.620   2.104   0.878  0.4478 -0.2506  0.3203
  513SOL    HW1 1538   2.581   2.191   0.838  2.9438 -2.7820  1.1650
  513SOL    HW2 1539   2.678   2.054   0.806  1.1834  1.3948 -0.6062
  514SOL     OW 1540   0.635   2.753   0.462 -0.5419 -0.3761  0.1713
  514SOL    HW1 1541   0.620   2.823   0.383 -1.0640 -1.7559 -0.7139
  514SOL    HW2 1542   0.701   2.782   0.535 -0.7793  0.9381 -1.6553
  515SOL     OW 1543   1.956   1.285   2.360 -0.0048 -0.3944  0.3147
  515SOL    HW1 1544   1.921   1.250   2.272  3.4847  1.9255 -1.4381
  515SOL    HW2 1545   1.883   1.269   2.429 -1.4729  0.5370 -0.1757
  516SOL     OW 1546   0.262   0.243   1.916 -0.0682 -0.5696  0.0954
  516SOL    HW1 1547   0.356   0.195   1.895 -0.1952  1.0423 -1.5650
  516SOL    HW2 1548   0.176   0.191   1.899  0.2921 -1.6919 -0.9118
  517SOL     OW 1549   0.483   0.019   1.171 -0.1416  0.0728 -0.3503
  517SOL    HW1 1550   0.517   0.086   1.239 -1.0125  0.5530  2.8368
  517SOL    HW2 1551   0.382   0.005   1.177 -0.8605  3.1609  1.7148
  518SOL     OW 1552   2.162   3.040   1.826 -0.1126 -0.2857 -0.1079
  518SOL    HW1 1553   2.202   3.132   1.831  0.0721 -1.5773  0.4145
  518SOL    HW2 1554   2.155   3.009   1.727  0.1025 -3.4677 -1.2717
  519SOL     OW 1555   2.369   2.157   2.454  0.3242  0.5538 -0.0128
  519SOL    HW1 1556   2.331   2.116   2.542  1.4058 -0.5963  1.6347
  519SOL    HW2 1557   2.373   2.259   2.457 -0.5414 -1.0055  1.3662
  520SOL     OW 1558   1.847   2.714   1.751  0.4249  0.7640 -0.5554
  520SOL    HW1 1559   1.768   2.662   1.799 -0.3897  0.8771  1.5516
  520SOL    HW2 1560   1.910   2.643   1.701 -0.0012 -1.3128  2.4137
  521SOL     OW 1561   0.582   3.065   2.097 -0.1168 -0.1577  0.1092
  521SOL    HW1 1562   0.479   3.073   2.095 -1.0651  0.7589 -0.4396
  521SOL    HW2 1563   0.622   3.047   2.190  0.6989 -0.1180 -1.5445
  522SOL     OW 1564   0.231   1.843   1.537  0.2289 -0.0597 -0.7853
  522SOL    HW1 1565   0.272   1.908   1.607 -0.0624  1.8131 -2.9122
  522SOL    HW2 1566   0.178   1.893   1.459  1.5728 -2.8582 -2.5107
  523SOL     OW 1567   2.199   2.957   1.556  0.6745  0.0667 -0.2057
  523SOL    HW1 1568   2.284   2.892   1.556 -1.1503  1.6998 -0.9428
  523SOL    HW2 1569   2.119   2.924   1.494  1.1710 -0.7604  1.2723
  524SOL     OW 1570   0.191   2.777   2.783 -0.0409  0.2623 -0.1794
  524SOL    HW1 1571   0.156   2.866   2.829  0.8158  2.4359  0.5876
  524SOL    HW2 1572   0.297   2.764   2.795  0.2338  0.0398 -3.0730
  525SOL     OW 1573   2.194   1.959   0.389 -0.3575  0.0231  0.0790
  525SOL    HW1 1574   2.218   1.903   0.476  0.3160  3.5098 -0.7802
  525SOL    HW2 1575   2.212   1.914   0.297 -0.5801 -1.4780 -1.0043
  526SOL     OW 1576   0.491   1.515   1.651 -0.7785 -0.2395 -0.1186
  526SOL    HW1 1577   0.516   1.533   1.745  1.6549 -0.1093 -3.6147
  526SOL    HW2 1578   0.537   1.428   1.618  2.0268 -0.4059  0.2253
  527SOL     OW 1579   1.022   2.854   1.156 -0.2610 -0.5925  0.2376
  527SOL    HW1 1580   1.091   2.800   1.211 -1.7516  1.4146 -0.1002
  527SOL    HW2 1581   1.047   2.955   1.170 -0.5230 -0.5241 -1.8187
  528SOL     OW 1582   1.342   2.366   0.546  0.6698  0.4353  0.3506
  528SOL    HW1 1583   1.386   2.270   0.556  2.4518  1.3532  1.8742
  528SOL    HW2 1584   1.400   2.436   0.593 -2.7854  0.3591  1.8469
  529SOL     OW 1585   1.957   1.769   0.681  0.6702 -0.3300  0.2470
  529SOL    HW1 1586   1.894   1.749   0.600  0.7418 -0.3608 -0.1844
  529SOL    HW2 1587   1.935   1.855   0.730 -4.7623 -2.3428 -1.6487
  530SOL     OW 1588   0.370   2.598   0.208 -0.7506  0.0328  0.0470
  530SOL    HW1 1589   0.329   2.659   0.281  0.2265 -1.4538  2.4023
  530SOL    HW2 1590   0.414   2.512   0.247 -2.6722  3.2073 -0.0060
  531SOL     OW 1591   1.872   1.018   1.024 -0.6537 -0.0634  0.2736
  531SOL    HW1 1592   1.818   1.078   0.956  2.1847 -0.1212  0.2002
  531SOL    HW2 1593   1.844   0.917   1.005  0.2665 -1.4102  0.8210
  532SOL     OW 1594   0.368   1.148   0.695 -0.2109  0.4848  0.1246
  532SOL    HW1 1595   0.399   1.123   0.597  1.2938  2.3576  0.9777
  532SOL    HW2 1596   0.293   1.083   0.732  2.1598  2.3015  0.8221
  533SOL     OW 1597   1.751   0.039   2.581  0.3411  0.4185 -0.1299
  533SOL    HW1 1598   1.848   0.017   2.582 -0.7788  2.9390  0.9684
  533SOL    HW2 1599   1.734   0.115   2.650 -1.3765  1.2004 -0.3868
  534SOL     OW 1600   0.297   0.187   1.490  0.5259  0.6806  0.7405
  534SOL    HW1 1601   0.367   0.216   1.414  1.0450  2.5276  0.5068
  534SOL    HW2 1602   0.268   0.268   1.551  1.3398  1.2160 -0.4776
  535SOL     OW 1603   1.901   0.420   0.214  0.5069  0.3251  0.7351
  535SOL    HW1 1604   1.933   0.492   0.284  0.0151  2.3679 -2.5383
  535SOL    HW2 1605   1.806   0.382   0.223 -0.2584  1.1902 -1.4339
  536SOL     OW 1606   1.424   2.579   0.939 -0.3184  0.2028  0.1712
  536SOL    HW1 1607   1.403   2.547   1.036  1.0610 -0.0973 -0.3883
  536SOL    HW2 1608   1.339   2.603   0.893  2.5774  2.3818  1.4322
  537SOL     OW 1609   0.811   0.158   2.340 -0.0531  0.3672  0.0845
  537SOL    HW1 1610   0.829   0.193   2.244  0.7183  0.6579 -0.6366
  537SOL    HW2 1611   0.738   0.083   2.350  1.2423 -2.5037  1.0767
  538SOL     OW 1612   1.678   2.301   1.534  0.3195  0.1594  0.5831
  538SOL    HW1 1613   1.651   2.221   1.474  2.2086  2.1534 -1.4016
  538SOL    HW2 1614   1.738   2.358   1.470  1.2908  0.0058  0.2341
  539SOL     OW 1615   0.176   1.620   2.731  0.0777 -0.8607  0.1766
  539SOL    HW1 1616   0.115   1.596   2.647 -2.1709 -3.0599 -1.6295
  539SOL    HW2 1617   0.146   1.708   2.784  3.0540  1.1811  0.2185
  540SOL     OW 1618   2.721   1.718   1.990  0.1642  0.0205 -0.0971
  540SOL    HW1 1619   2.666   1.628   1.995  1.0550  1.2817  3.8561
  540SOL    HW2 1620   2.672   1.801   1.946  0.4349  0.2924 -1.0055
  541SOL     OW 1621   0.497   2.293   3.037  0.1950 -0.1064  0.7310
  541SOL    HW1 1622   0.532   2.250   3.129 -1.7872  0.1479  4.8739
  541SOL    HW2 1623   0.397   2.287   3.032 -2.2341 -0.7807  2.4293
  542SOL     OW 1624   2.264   2.564   0.396 -0.3241 -0.0011 -0.2659
  542SOL    HW1 1625   2.247   2.666   0.380 -0.6734  0.8725 -3.1048
  542SOL    HW2 1626   2.181   2.508   0.427 -0.8711 -0.3808  1.0083
  543SOL     OW 1627   1.072   1.726   1.652  0.0846  0.9424 -0.1010
  543SOL    HW1 1628   1.059   1.775   1.745  0.5329 -0.1029 -0.4336
  543SOL    HW2 1629   1.062   1.783   1.569 -2.1784 -0.1096  0.5386
  544SOL     OW 1630   0.981   0.404   0.209  0.6334  0.0428 -0.3549
  544SOL    HW1 1631   1.023   0.322   0.244 -1.5671  0.5679  0.1784
  544SOL    HW2 1632   0.996   0.410   0.109  1.1822 -2.3840 -0.7015
  545SOL     OW 1633   1.097   1.763   0.817  0.0831  0.1011  1.1843
  545SOL    HW1 1634   1.189   1.778   0.769 -1.6344  0.5169 -0.9791
  545SOL    HW2 1635   1.107   1.708   0.905 -1.6276 -0.6564 -0.4729
  546SOL     OW 1636   2.627   1.588   0.009  0.1037  0.3130  0.7108
  546SOL    HW1 1637   2.573   1.575  -0.083 -2.3010 -0.7499 -2.5095
  546SOL    HW2 1638   2.558   1.583   0.087  0.6912 -1.3084 -1.5066
  547SOL     OW 1639   0.563   0.024   2.656  0.3725 -0.1100  0.1905
  547SOL    HW1 1640   0.646  -0.045   2.640 -0.3057  0.0416  1.8425
  547SOL    HW2 1641   0.471  -0.024   2.631 -2.5383 -1.4123  2.3112
  548SOL     OW 1642   2.067   0.851   3.051  0.5166  0.3222  0.1138
  548SOL    HW1 1643   1.968   0.846   3.025 -1.3410  0.4886  0.6814
  548SOL    HW2 1644   2.091   0.950   3.067  0.1124 -1.3143  0.1378
  549SOL     OW 1645   0.694   0.532   0.198  0.3512 -0.5311 -0.0929
  549SOL    HW1 1646   0.642   0.584   0.126  1.4175  1.1575 -0.1655
  549SOL    HW2 1647   0.765   0.590   0.252 -3.3275 -0.4537 -0.7633
  550SOL     OW 1648   2.500   2.859   2.880 -0.9611  0.0880 -0.2291
  550SOL    HW1 1649   2.500   2.791   2.960  0.1408  0.5772 -2.3218
  550SOL    HW2 1650   2.516   2.810   2.793 -0.3923  1.5251 -0.1468
  551SOL     OW 1651   0.281   0.860   0.230  0.2376  0.5183 -0.0345
  551SOL    HW1 1652   0.386   0.853   0.229  0.6110 -3.5248  2.5131
  551SOL    HW2 1653   0.248   0.860   0.330  0.5485 -1.5930  3.2762
  552SOL     OW 1654   0.689   2.973   1.840  0.2447  0.4525 -0.5113
  552SOL    HW1 1655   0.672   2.996   1.943  0.8042  2.0364  2.4794
  552SOL    HW2 1656   0.771   3.020   1.804  1.6570  1.1253  3.5046
  553SOL     OW 1657   3.038   2.572   0.353 -0.4010  0.0834  0.0808
  553SOL    HW1 1658   2.986   2.485   0.321 -2.1032 -0.9288 -2.1878
  553SOL    HW2 1659   2.998   2.617   0.437 -2.6813 -1.4871 -0.1257
  554SOL     OW 1660   2.132   0.361   0.574 -0.6483  0.2573  0.6137
  554SOL    HW1 1661   2.198   0.364   0.496 -3.1881 -0.4961 -0.3212
  554SOL    HW2 1662   2.140   0.285   0.640 -1.3009 -0.2500 -0.8361
  555SOL     OW 1663   0.409   2.895   2.499 -0.1916 -0.9624 -0.0123
  555SOL    HW1 1664   0.329   2.944   2.451  0.4539 -2.0627  1.2643
  555SOL    HW2 1665   0.438   2.807   2.459  0.1935 -0.7853 -0.9477
  556SOL     OW 1666   0.787   2.388   1.558  0.0296  0.2055 -0.5793
  556SOL    HW1 1667   0.844   2.476   1.573  1.7609 -0.4194 -2.9149
  556SOL    HW2 1668   0.821   2.344   1.471  0.0050 -0.9206 -0.6646
  557SOL     OW 1669   0.088   2.061   0.146  0.2588 -0.6031  0.0478
  557SOL    HW1 1670   0.010   2.005   0.109 -3.6207  0.6342  0.5355
  557SOL    HW2 1671   0.129   2.123   0.070 -3.0184 -0.0723 -2.3299
  558SOL     OW 1672   2.940   2.315   0.278  0.1314 -0.1307 -0.0634
  558SOL    HW1 1673   2.835   2.315   0.289 -0.1942 -1.8118  2.4728
  558SOL    HW2 1674   2.972   2.295   0.182 -1.0283 -0.2202 -0.5851
  559SOL     OW 1675   0.363   2.303   1.354  0.4584 -0.0660  0.3312
  559SOL    HW1 1676   0.272   2.304   1.296 -1.8282  0.5598 -1.4255
  559SOL    HW2 1677   0.426   2.229   1.313 -0.6119  1.3022 -0.7531
  560SOL     OW 1678   2.096   1.121   3.084  0.2998 -0.2448 -0.0564
  560SOL    HW1 1679   2.063   1.165   3.172  1.0583  0.8161 -0.7665
  560SOL    HW2 1680   2.134   1.194   3.020 -0.6752  0.1057 -0.0014
  561SOL     OW 1681   3.023   1.878   0.019  0.4708 -0.2590 -0.0219
  561SOL    HW1 1682   2.991   1.840   0.107  0.8747 -0.9184 -0.3503
  561SOL    HW2 1683   2.960   1.951  -0.013 -0.0629  1.5527  1.3297
  562SOL     OW 1684   1.005   2.264   2.365  0.8786  0.9476  0.3553
  562SOL    HW1 1685   0.914   2.209   2.370 -0.1663 -1.5686 -1.8976
  562SOL    HW2 1686   1.004   2.358   2.393  0.4803 -2.5313 -1.4717
  563SOL     OW 1687   0.726   2.548   2.566  0.5302  0.4390  0.1691
  563SOL    HW1 1688   0.764   2.451   2.584 -0.7314  2.6380 -0.8841
  563SOL    HW2 1689   0.720   2.600   2.657 -0.1439 -0.3414  1.8895
  564SOL     OW 1690   2.764   1.308   2.952 -0.3309 -0.0043  0.1352
  564SOL    HW1 1691   2.729   1.326   3.045  0.1458  0.9632 -0.7968
  564SOL    HW2 1692   2.806   1.394   2.908  3.5759 -0.2977 -0.1014
  565SOL     OW 1693   2.579   1.928   2.605  0.0834  0.1138 -0.1074
  565SOL    HW1 1694   2.550   1.991   2.527  0.6720  0.0535  0.2434
  565SOL    HW2 1695   2.610   1.982   2.688  1.3626  0.2177 -0.1724
  566SOL     OW 1696   1.943   2.852   1.361  0.0407 -0.3173 -0.1872
  566SOL    HW1 1697   1.915   2.753   1.340 -0.2221 -1.3088  1.1528
  566SOL    HW2 1698   1.942   2.915   1.281  3.2442 -2.2315  2.7066
  567SOL     OW 1699   2.500   0.046   2.277  0.3000  0.8435  0.6701
  567SOL    HW1 1700   2.603   0.047   2.290 -0.6550  0.8455 -3.0782
  567SOL    HW2 1701   2.472   0.020   2.180 -1.0356 -0.4595 -0.6459
  568SOL     OW 1702   1.558   1.789   0.293  0.2302  0.1612  0.4921
  568SOL    HW1 1703   1.475   1.847   0.265 -1.3842  0.2187  0.5053
  568SOL    HW2 1704   1.621   1.766   0.214 -0.6880 -0.4745  0.3417
  569SOL     OW 1705   0.266   0.697   0.779  0.0453  0.3791 -0.4076
  569SOL    HW1 1706   0.337   0.623   0.756  0.8724 -2.5664 -0.8138
  569SOL    HW2 1707   0.174   0.651   0.793 -1.1511 -0.5476  0.8806
  570SOL     OW 1708   0.608   0.811   2.843 -0.3239  0.3892  0.4665
  570SOL    HW1 1709   0.664   0.812   2.754 -0.7308  1.6263 -2.7177
  570SOL    HW2 1710   0.640   0.878   2.916  4.6278  0.9404 -2.1849
  571SOL     OW 1711   0.797   3.100   1.038 -0.0310  0.6029 -0.5619
  571SOL    HW1 1712   0.871   3.121   0.964  2.0916  0.7418  1.1357
  571SOL    HW2 1713   0.717   3.048   1.005  0.8240  0.9702 -1.1633
  572SOL     OW 1714   1.576   2.615   1.260 -0.3834 -0.3703  0.4729
  572SOL    HW1 1715   1.487   2.571   1.247  1.7064  2.0244  0.2175
  572SOL    HW2 1716   1.575   2.713   1.229  0.2818 -0.3169  0.9084
  573SOL     OW 1717   2.866   0.472   2.035 -0.2345  0.0934  0.5272
  573SOL    HW1 1718   2.827   0.390   2.080  0.0765  2.9972  0.8594
  573SOL    HW2 1719   2.791   0.540   2.006  0.4219  2.0419  0.4960
  574SOL     OW 1720   0.197   1.712   0.996  0.4993 -0.5370 -0.3154
  574SOL    HW1 1721   0.196   1.814   0.967  0.9312 -1.2124 -0.0786
  574SOL    HW2 1722   0.115   1.688   1.057 -0.3263 -0.7212 -2.1304
  575SOL     OW 1723   0.933   2.159   0.974 -0.1637  0.1839  0.4765
  575SOL    HW1 1724   0.871   2.199   1.046  1.9595  0.8591  0.3236
  575SOL    HW2 1725   0.972   2.232   0.912 -0.0785 -0.3195  0.0071
  576SOL     OW 1726   2.902   2.998   1.682  0.6369  0.6103  0.1232
  576SOL    HW1 1727   2.816   2.968   1.632 -1.6965  1.1460 -0.3919
  576SOL    HW2 1728   2.939   3.092   1.650  1.7562  1.8872 -2.3095
  577SOL     OW 1729   2.508   1.235   0.039 -0.0696 -0.0627 -0.2849
  577SOL    HW1 1730   2.529   1.175  -0.044 -2.1632  1.6220 -1.1703
  577SOL    HW2 1731   2.580   1.225   0.110 -0.6787  1.5257  0.1584
  578SOL     OW 1732   1.336   2.746   2.493  0.0092  0.2373 -0.5160
  578SOL    HW1 1733   1.233   2.760   2.490  1.2610 -0.0903  0.7489
  578SOL    HW2 1734   1.379   2.838   2.507  0.3839 -0.6774  0.2915
  579SOL     OW 1735   0.080   2.505   0.132  0.1297  0.2585 -0.1985
  579SOL    HW1 1736   0.023   2.549   0.209  0.4023 -2.7583  0.1702
  579SOL    HW2 1737   0.173   2.473   0.166 -2.2793  0.1391  0.1338
  580SOL     OW 1738   1.017   2.624   0.424 -0.4457  0.0901 -0.0464
  580SOL    HW1 1739   1.109   2.641   0.373  0.8294  0.2950 -0.6800
  580SOL    HW2 1740   0.938   2.611   0.365  1.0655 -1.1165  1.1971
  581SOL     OW 1741   1.285   2.565   1.517 -0.0474 -0.3237 -0.0097
  581SOL    HW1 1742   1.345   2.479   1.528 -1.6736  1.8173 -0.5941
  581SOL    HW2 1743   1.312   2.632   1.442 -0.7558 -1.1581 -0.7616
  582SOL     OW 1744   1.494   0.081   1.864  0.3037 -0.1413  0.1390
  582SOL    HW1 1745   1.529   0.145   1.942  1.2111  0.6304 -0.0651
  582SOL    HW2 1746   1.574   0.063   1.800 -0.6980 -0.3312 -2.4155
  583SOL     OW 1747   2.505   3.055   0.500 -0.0852  0.0159  0.0508
  583SOL    HW1 1748   2.601   3.024   0.463  1.6260  2.3845  0.4997
  583SOL    HW2 1749   2.444   2.974   0.519 -0.1841  1.9639 -0.8730
  584SOL     OW 1750   1.616   0.926   2.096 -0.5907 -0.3022  0.0139
  584SOL    HW1 1751   1.675   0.884   2.022 -2.9014 -1.3083  1.6520
  584SOL    HW2 1752   1.664   0.909   2.187  1.8993  0.0807 -0.4844
  585SOL     OW 1753   2.091   2.656   2.915 -0.1043  0.4318 -0.3508
  585SOL    HW1 1754   2.101   2.568   2.863 -0.9303 -2.1551 -3.0705
  585SOL    HW2 1755   1.994   2.695   2.899  1.1385 -1.2150 -0.0673
  586SOL     OW 1756   2.807   0.326   1.542  0.2568  1.0639 -0.2219
  586SOL    HW1 1757   2.825   0.412   1.600 -2.2298 -0.6036 -2.8380
  586SOL    HW2 1758   2.715   0.280   1.562  1.0548  1.4360 -0.3868
  587SOL     OW 1759   1.965   1.533   2.725  0.0831  0.4385 -0.3292
  587SOL    HW1 1760   2.042   1.486   2.664  2.0455 -0.4393 -1.3937
  587SOL    HW2 1761   1.993   1.531   2.826 -0.9028  0.5684 -0.0717
  588SOL     OW 1762   0.460   2.713   2.248 -0.1506 -0.9284  0.3797
  588SOL    HW1 1763   0.369   2.709   2.197  1.5152 -0.1747 -0.6949
  588SOL    HW2 1764   0.489   2.623   2.285 -1.9810 -0.9248 -1.2361
  589SOL     OW 1765   2.125   1.410   2.536  0.1527  0.2865 -0.6467
  589SOL    HW1 1766   2.070   1.355   2.466  0.2672 -0.8501 -1.1255
  589SOL    HW2 1767   2.225   1.370   2.543  0.2037  0.0789 -0.3854
  590SOL     OW 1768   2.341   1.655   2.043  0.0267  0.0024  0.0690
  590SOL    HW1 1769   2.400   1.571   2.026  1.6315  0.2685  1.0694
  590SOL    HW2 1770   2.349   1.698   2.137  1.7237 -1.1294 -0.6115
  591SOL     OW 1771   1.326   2.404   0.256  0.1811 -0.6112  0.0594
  591SOL    HW1 1772   1.381   2.333   0.200 -0.7455 -1.5809 -0.5515
  591SOL    HW2 1773   1.326   2.380   0.358 -0.7320 -0.7858  0.4736
  592SOL     OW 1774   1.801   2.314   0.751  0.3953 -0.1432 -0.5453
  592SOL    HW1 1775   1.792   2.387   0.675  0.0663 -0.0869  0.1036
  592SOL    HW2 1776   1.899   2.306   0.781 -0.0491  1.1668 -0.1809
  593SOL     OW 1777   0.702   0.268   0.219  0.1343  0.0098  0.4241
  593SOL    HW1 1778   0.775   0.239   0.150 -1.3622 -0.7954  1.6086
  593SOL    HW2 1779   0.692   0.369   0.215  0.7684 -0.6902  0.0004
  594SOL     OW 1780   0.941   1.872   2.704  0.1679  0.4435 -0.2375
  594SOL    HW1 1781   1.040   1.847   2.718  0.3441 -0.1256  1.0375
  594SOL    HW2 1782   0.924   1.971   2.719  1.5300 -2.4487 -0.1655
  595SOL     OW 1783   1.573   0.057   1.090  0.7252 -0.1173  0.2299
  595SOL    HW1 1784   1.647  -0.003   1.055 -0.9844 -1.1994  1.9372
  595SOL    HW2 1785   1.489   0.053   1.029  0.2040 -1.6976 -0.3339
  596SOL     OW 1786   0.010   1.428   2.225 -0.1569 -0.7272  0.4440
  596SOL    HW1 1787   0.004   1.329   2.256  2.2879  0.7181  2.8131
  596SOL    HW2 1788   0.021   1.492   2.299 -1.5738 -1.1863 -1.2221
  597SOL     OW 1789   2.012   2.537   1.611 -0.8405  0.1096 -0.1574
  597SOL    HW1 1790   2.030   2.465   1.537  2.7470 -2.9560 -3.1502
  597SOL    HW2 1791   2.093   2.556   1.678  1.0766 -0.4571  1.4917
  598SOL     OW 1792   2.511   2.977   1.301 -0.1693 -0.1624 -0.6662
  598SOL    HW1 1793   2.584   3.008   1.370 -0.6104 -0.4211  1.3357
  598SOL    HW2 1794   2.547   2.953   1.207  0.8259  1.4187 -2.2490
  599SOL     OW 1795   2.955   0.357   2.517  0.0366 -0.3890  0.1152
  599SOL    HW1 1796   3.049   0.396   2.501 -0.2306 -1.7227 -1.5119
  599SOL    HW2 1797   2.889   0.405   2.458  0.0391 -1.3967  3.2057
  600SOL     OW 1798   2.775   1.117   2.724  0.4129  0.1512  0.6842
  600SOL    HW1 1799   2.748   1.021   2.727 -1.7830  1.6336  0.1304
  600SOL    HW2 1800   2.733   1.171   2.799 -0.0827 -0.2376  1.1517
  601SOL     OW 1801   2.981   1.271   1.954 -0.0036 -0.4141  0.4372
  601SOL    HW1 1802   2.919   1.319   1.888 -0.9324 -0.3994 -1.2609
  601SOL    HW2 1803   3.080   1.313   1.963  3.5322 -1.1998 -1.5040
  602SOL     OW 1804   1.428   1.718   2.369 -0.0400  0.4574  0.1136
  602SOL    HW1 1805   1.363   1.634   2.373 -1.2606  2.2642 -0.6668
  602SOL    HW2 1806   1.528   1.689   2.382  0.4745 -1.0465  2.1901
  603SOL     OW 1807   0.584   1.206   2.753 -0.0186 -0.4346 -0.4810
  603SOL    HW1 1808   0.499   1.186   2.697 -0.2828 -2.7600 -1.0996
  603SOL    HW2 1809   0.666   1.151   2.722  2.8244 -1.3182 -0.3595
  604SOL     OW 1810   2.387   1.002   0.140 -0.1341 -0.3637 -0.1547
  604SOL    HW1 1811   2.428   1.089   0.104  3.2108  0.5729  0.2052
  604SOL    HW2 1812   2.365   0.937   0.067  0.7314  0.1176  2.7725
  605SOL     OW 1813   2.533   1.162   1.912 -0.5789 -0.4050  0.3129
  605SOL    HW1 1814   2.586   1.109   1.834  2.2121  1.1890 -0.8498
  605SOL    HW2 1815   2.596   1.186   1.993 -2.7381 -2.4383  0.0399
  606SOL     OW 1816   1.465   2.520   2.584  0.2534 -0.5083 -0.5769
  606SOL    HW1 1817   1.405   2.581   2.525  2.4420 -0.3912  0.4772
  606SOL    HW2 1818   1.434   2.421   2.579 -1.0127 -1.8060  1.4545
  607SOL     OW 1819   1.345   1.612   0.382 -0.5545  0.1415 -0.2688
  607SOL    HW1 1820   1.265   1.668   0.415 -1.9024 -0.8887 -0.9196
  607SOL    HW2 1821   1.435   1.667   0.381  1.0168 -0.8778 -0.3279
  608SOL     OW 1822   1.445   2.876   0.325  0.0710  0.4873 -0.3346
  608SOL    HW1 1823   1.536   2.916   0.297 -0.3112  2.3918  0.6890
  608SOL    HW2 1824   1.386   2.945   0.377  0.0998  0.0664  1.2299
  609SOL     OW 1825   1.325   1.389   0.214 -0.2928  0.0099 -0.9173
  609SOL    HW1 1826   1.324   1.465   0.288  2.0626 -0.2855 -1.3972
  609SOL    HW2 1827   1.233   1.392   0.159 -3.5013 -0.6485 -2.6665
  610SOL     OW 1828   3.026   1.129   2.191 -0.6227 -0.0287  0.8133
  610SOL    HW1 1829   3.017   1.024   2.198 -1.0608 -0.4038  1.6210
  610SOL    HW2 1830   2.989   1.166   2.098  3.3159  1.5523 -2.7149
  611SOL     OW 1831   2.558   0.286   1.111 -0.3200  0.3335 -0.0275
  611SOL    HW1 1832   2.489   0.231   1.165  1.9957 -0.0499  0.6191
  611SOL    HW2 1833   2.646   0.301   1.164 -0.1197  2.0150 -0.8174
  612SOL     OW 1834   0.758   2.252   1.154 -0.2425  0.5620 -0.9395
  612SOL    HW1 1835   0.682   2.199   1.194  0.9458  1.1420 -0.0627
  612SOL    HW2 1836   0.724   2.344   1.121 -0.6455 -0.5126  3.1577
  613SOL     OW 1837   0.825   1.365   2.455  0.5999 -0.2158  0.2698
  613SOL    HW1 1838   0.807   1.450   2.396  1.5315  1.4959  0.3350
  613SOL    HW2 1839   0.822   1.274   2.399 -0.6906 -0.9701 -1.8023
  614SOL     OW 1840   1.592   1.647   1.978 -0.3723 -0.0639 -0.2278
  614SOL    HW1 1841   1.545   1.731   2.018 -1.4556 -0.3865 -0.1191
  614SOL    HW2 1842   1.682   1.634   2.029  0.5914  0.7329 -0.4831
  615SOL     OW 1843   0.766   1.307   1.711  0.0071  0.1470  0.0575
  615SOL    HW1 1844   0.689   1.276   1.648  2.4825  0.4934  2.4328
  615SOL    HW2 1845   0.807   1.397   1.671  0.3797 -0.5445 -1.5602
  616SOL     OW 1846   1.049   1.667   2.224 -0.2942 -0.2717 -0.5211
  616SOL    HW1 1847   0.963   1.634   2.184  1.0850  1.2902 -1.2110
  616SOL    HW2 1848   1.055   1.767   2.222 -0.6155 -0.5770  2.0395
  617SOL     OW 1849   2.951   1.583   1.614  0.3409 -0.0693  0.2010
  617SOL    HW1 1850   2.895   1.508   1.665 -4.1569  0.1103  0.1209
  617SOL    HW2 1851   3.006   1.547   1.538 -2.5124  0.6048  0.0064
  618SOL     OW 1852   1.881   1.975   1.395  0.4274 -0.0839  0.6388
  618SOL    HW1 1853   1.937   1.993   1.313 -2.5911 -0.6914  0.7403
  618SOL    HW2 1854   1.843   1.877   1.393 -1.7654  1.5785 -1.3837
  619SOL     OW 1855   1.774   0.437   2.369 -0.7084 -0.1012  0.1006
  619SOL    HW1 1856   1.698   0.492   2.331  1.2799  1.4399  0.7725
  619SOL    HW2 1857   1.749   0.339   2.377  1.3914 -0.2162 -0.1086
  620SOL     OW 1858   2.291   2.927   0.632 -0.4483  0.7555 -0.2721
  620SOL    HW1 1859   2.223   3.006   0.659 -2.0990 -0.8934  0.1243
  620SOL    HW2 1860   2.319   2.867   0.706 -0.9900  0.5807 -2.8613
  621SOL     OW 1861   2.154   1.831   1.290 -0.1739 -0.1774  0.5056
  621SOL    HW1 1862   2.159   1.867   1.391 -0.3699 -0.2032  0.6571
  621SOL    HW2 1863   2.121   1.732   1.288 -1.3198 -2.8688  0.7408
  622SOL     OW 1864   2.276   0.924   1.773 -0.2258  0.0161  0.7044
  622SOL    HW1 1865   2.379   0.942   1.779  2.4811  0.5298  1.8194
  622SOL    HW2 1866   2.249   0.862   1.853 -1.1659  3.1901  1.7142
  623SOL     OW 1867   1.327   0.825   2.647 -0.2967  0.1601  0.3968
  623SOL    HW1 1868   1.342   0.731   2.692  0.4673 -1.3089 -1.3742
  623SOL    HW2 1869   1.279   0.818   2.555 -1.4133 -1.0912 -0.0567
  624SOL     OW 1870   0.572   0.685   3.088 -0.1108 -1.0253 -0.0735
  624SOL    HW1 1871   0.584   0.704   2.989 -0.3746 -0.6351  2.0782
  624SOL    HW2 1872   0.575   0.775   3.142  0.4400 -0.0582  0.2518
  625SOL     OW 1873   2.803   1.713   0.990 -0.2234 -0.5908 -0.8556
  625SOL    HW1 1874   2.715   1.768   0.977  0.7653 -1.1579 -0.4972
  625SOL    HW2 1875   2.881   1.778   1.012  1.1294  1.6109 -2.6821
  626SOL     OW 1876   0.597   2.748   1.723 -0.0504 -0.4468  0.8931
  626SOL    HW1 1877   0.640   2.833   1.768 -0.7081 -1.3590 -0.9896
  626SOL    HW2 1878   0.497   2.734   1.744  0.1460 -1.0331 -1.6885
  627SOL     OW 1879   0.780   0.955   1.498  0.5027  0.2227 -0.1525
  627SOL    HW1 1880   0.729   0.907   1.424 -1.1717  2.2914  1.8882
  627SOL    HW2 1881   0.796   1.055   1.486  1.1397  2.0590  1.6547
  628SOL     OW 1882   2.416   0.151   0.693 -0.4532  0.2992  0.3208
  628SOL    HW1 1883   2.458   0.096   0.617 -1.4815  2.2315 -0.3458
  628SOL    HW2 1884   2.309   0.135   0.679 -2.8584  1.9264 -0.5143
  629SOL     OW 1885   1.981   0.918   1.971 -0.4499 -0.1923 -0.0519
  629SOL    HW1 1886   2.019   0.946   1.882  0.5625 -0.9330  2.9316
  629SOL    HW2 1887   1.932   1.001   2.015 -0.0035 -1.4436 -0.2258
  630SOL     OW 1888   2.896   2.211   0.835 -0.1748 -0.2176  0.1461
  630SOL    HW1 1889   2.840   2.286   0.880 -0.4676 -0.2933 -1.1450
  630SOL    HW2 1890   2.851   2.120   0.812 -1.8627  1.3466  0.6019
  631SOL     OW 1891   2.996   0.169   2.126 -0.6549  0.2520  0.3557
  631SOL    HW1 1892   3.058   0.185   2.207 -1.8515  0.3864 -1.6702
  631SOL    HW2 1893   3.055   0.169   2.038  1.3366 -2.2276 -1.6861
  632SOL     OW 1894   2.385   2.534   0.645 -0.1601 -0.4640  0.1937
  632SOL    HW1 1895   2.371   2.615   0.715  4.6539  0.8803  2.0107
  632SOL    HW2 1896   2.346   2.557   0.551 -1.3143  0.5571 -0.9661
  633SOL     OW 1897   1.409   1.217   2.606  0.0623  0.2153 -0.8923
  633SOL    HW1 1898   1.413   1.307   2.660  1.4859 -0.6581  1.1872
  633SOL    HW2 1899   1.336   1.218   2.535  2.1352 -1.1002  0.3271
  634SOL     OW 1900   0.723   2.031   0.873 -0.4697  0.1078  0.2231
  634SOL    HW1 1901   0.646   2.061   0.935  0.1223 -2.0530  1.5992
  634SOL    HW2 1902   0.814   2.072   0.899 -0.7953 -2.7692  1.4445
  635SOL     OW 1903   2.993   2.356   3.100  0.4561 -0.2205 -0.2030
  635SOL    HW1 1904   2.908   2.406   3.060 -0.2559 -0.8124 -0.2553
  635SOL    HW2 1905   3.062   2.424   3.138 -1.5181 -2.1199  2.0970
  636SOL     OW 1906   2.298   2.734   2.048  0.3360 -0.1297 -0.2093
  636SOL    HW1 1907   2.318   2.838   2.063 -0.3432 -0.4229  2.2459
  636SOL    HW2 1908   2.225   2.703   2.110  0.3119  1.3204  0.8843
  637SOL     OW 1909   2.668   0.633   1.998 -0.2907  0.1057  0.4100
  637SOL    HW1 1910   2.622   0.613   1.905  1.8758  0.9131  3.0748
  637SOL    HW2 1911   2.695   0.732   2.009 -1.9623  0.4376  0.5024
  638SOL     OW 1912   2.450   1.814   1.249 -0.2616 -0.4703 -0.3905
  638SOL    HW1 1913   2.357   1.768   1.229  0.0083 -1.3505  2.4248
  638SOL    HW2 1914   2.503   1.762   1.324  1.3184  1.4629  1.5488
  639SOL     OW 1915   1.291   2.122   1.724 -0.1176  0.6290  0.5136
  639SOL    HW1 1916   1.282   2.110   1.619 -1.6966 -1.4467  0.1828
  639SOL    HW2 1917   1.205   2.098   1.775  0.2296  1.1823  1.6506
  640SOL     OW 1918   0.178   1.160   1.599  0.3064  0.2068  0.0706
  640SOL    HW1 1919   0.144   1.170   1.700  0.7234 -1.6660  1.6956
  640SOL    HW2 1920   0.272   1.112   1.585  0.7370 -2.8029  0.2405
  641SOL     OW 1921   2.051   0.162   1.555  0.1581 -0.1486 -0.0432
  641SOL    HW1 1922   2.015   0.202   1.641  1.1013  1.6332 -3.3529
  641SOL    HW2 1923   2.155   0.162   1.544  0.5261 -1.3624 -2.3884
  642SOL     OW 1924   2.005   0.003   0.334 -0.2095  0.8535 -0.7011
  642SOL    HW1 1925   2.089   0.045   0.380  0.5419 -1.6697 -1.9035
  642SOL    HW2 1926   1.931  -0.036   0.394  0.5019  1.5915 -0.7768
  643SOL     OW 1927   2.955   1.846   2.060 -0.1439  0.3838 -0.3577
  643SOL    HW1 1928   2.879   1.786   2.020  0.3348  0.1458 -0.6954
  643SOL    HW2 1929   2.955   1.939   2.019 -0.4139  0.5011 -3.4179
  644SOL     OW 1930   2.215   2.365   1.181  0.2956 -0.4950  0.3163
  644SOL    HW1 1931   2.300   2.310   1.153  0.0956  1.4133  0.2553
  644SOL    HW2 1932   2.188   2.342   1.279 -0.1682 -1.2073 -3.4497
  645SOL     OW 1933   0.612   0.811   1.287  0.0265 -0.7145  0.3058
  645SOL    HW1 1934   0.512   0.813   1.310 -2.1428 -2.0420 -1.6178
  645SOL    HW2 1935   0.619   0.825   1.182  0.6919  2.0563 -1.9849
  646SOL     OW 1936   1.435   1.851   2.062 -0.1842 -0.0468 -0.4710
  646SOL    HW1 1937   1.453   1.947   2.026  1.1674  0.3854 -0.9935
  646SOL    HW2 1938   1.431   1.845   2.166  0.5344 -0.5299  0.7743
  647SOL     OW 1939   0.791   1.084   0.694 -0.1700  0.2583  0.0399
  647SOL    HW1 1940   0.853   1.106   0.779  0.5456  1.3154  0.0028
  647SOL    HW2 1941   0.707   1.020   0.719  1.9132 -0.4592 -2.3722
  648SOL     OW 1942   0.087   0.236   0.237 -0.0348  0.2329 -0.3992
  648SOL    HW1 1943   0.127   0.192   0.148 -1.6788 -0.5626 -1.3000
  648SOL    HW2 1944   0.106   0.337   0.245 -0.1238 -3.2288  2.0561
  649SOL     OW 1945   3.029   0.243   0.837  0.3768 -0.5595  0.8891
  649SOL    HW1 1946   3.124   0.201   0.841  0.8908 -3.6740 -0.6116
  649SOL    HW2 1947   3.021   0.338   0.873  1.2928  1.2894  0.3132
  650SOL     OW 1948   2.790   0.740   1.497  0.0244 -0.0762 -0.6892
  650SOL    HW1 1949   2.688   0.734   1.494 -0.3730  0.0242  0.4522
  650SOL    HW2 1950   2.827   0.822   1.447  1.0299  1.5430  1.1480
  651SOL     OW 1951   0.905   1.514   1.579  0.5082  0.4136  0.4955
  651SOL    HW1 1952   0.984   1.572   1.625  1.0560 -2.2052  0.1713
  651SOL    HW2 1953   0.912   1.509   1.476  0.0885 -2.4879 -1.1118
  652SOL     OW 1954   2.333   2.426   2.482 -0.4043  0.1997  0.2234
  652SOL    HW1 1955   2.230   2.432   2.492  1.3464  0.1400  1.4948
  652SOL    HW2 1956   2.383   2.514   2.490  1.3344 -1.5166 -0.5650
  653SOL     OW 1957   2.702   1.237   0.235  0.6127 -0.1576 -0.4547
  653SOL    HW1 1958   2.736   1.333   0.257  1.1609  1.4570  1.1376
  653SOL    HW2 1959   2.760   1.162   0.285  1.2605 -2.7783  0.4797
  654SOL     OW 1960   1.243   2.245   1.257  0.0749  0.1849 -0.0797
  654SOL    HW1 1961   1.264   2.157   1.309  1.5651  2.0352 -0.5777
  654SOL    HW2 1962   1.271   2.240   1.157  1.6637  0.3193  0.7363
  655SOL     OW 1963   0.177   0.950   1.965 -0.0711  0.3037  0.4975
  655SOL    HW1 1964   0.246   0.922   1.893 -0.2663  1.4534  1.0176
  655SOL    HW2 1965   0.158   1.052   1.954  1.7761  1.5700 -0.1645
  656SOL     OW 1966   2.570   2.431   2.628  0.1226 -0.1317  0.6188
  656SOL    HW1 1967   2.664   2.401   2.594 -1.7719 -1.8469  0.3517
  656SOL    HW2 1968   2.501   2.370   2.588 -1.5260 -0.1910 -0.6365
  657SOL     OW 1969   3.004   1.006   1.893 -0.1036  0.8077 -0.0129
  657SOL    HW1 1970   2.989   1.106   1.920 -2.9688  0.0121 -1.7862
  657SOL    HW2 1971   3.104   0.972   1.897  2.4634  0.0252  0.2162
  658SOL     OW 1972   1.629   0.176   2.364  0.2441  0.3027 -0.2552
  658SOL    HW1 1973   1.659   0.101   2.429  0.8205  3.2591 -0.8116
  658SOL    HW2 1974   1.695   0.190   2.282  0.1356 -2.9174 -1.3169
  659SOL     OW 1975   1.382   0.630   2.836 -0.2750 -0.0484 -0.1044
  659SOL    HW1 1976   1.437   0.708   2.874 -2.5440 -2.4791  0.5144
  659SOL    HW2 1977   1.282   0.634   2.867 -1.1725  0.8368  1.3795
  660SOL     OW 1978   1.422   0.344   1.390 -0.0439  0.0236 -0.2379
  660SOL    HW1 1979   1.451   0.356   1.486  0.3355  1.6384  1.3276
  660SOL    HW2 1980   1.458   0.257   1.351  1.8447  2.8051 -0.3649
  661SOL     OW 1981   2.421   1.180   0.661  0.7796 -0.3759  0.6284
  661SOL    HW1 1982   2.453   1.188   0.562  2.1816  1.4239 -2.9088
  661SOL    HW2 1983   2.370   1.267   0.693  2.4479 -0.7784  1.1213
  662SOL     OW 1984   1.409   0.381   1.735  0.1440  0.3954  0.3231
  662SOL    HW1 1985   1.344   0.313   1.776 -0.4157  1.2665 -0.5131
  662SOL    HW2 1986   1.398   0.476   1.771 -1.5858 -1.0092  0.1255
  663SOL     OW 1987   0.786   1.549   2.207  0.1205 -0.1040  0.4538
  663SOL    HW1 1988   0.717   1.627   2.214 -2.9683 -1.7466 -0.6433
  663SOL    HW2 1989   0.757   1.475   2.134 -3.6461  3.1734  2.6636
  664SOL     OW 1990   1.604   2.053   1.407 -0.4401  0.3917  1.0994
  664SOL    HW1 1991   1.541   2.002   1.476  0.5170 -0.9501 -0.1200
  664SOL    HW2 1992   1.704   2.041   1.428 -0.6093  0.8932 -0.6941
  665SOL     OW 1993   2.243   0.696   1.935  0.2392 -0.2122 -0.0213
  665SOL    HW1 1994   2.194   0.604   1.921  1.1655 -0.3351  0.0159
  665SOL    HW2 1995   2.278   0.712   2.028  0.3110 -0.1071 -2.8414
  666SOL     OW 1996   0.445   2.294   0.343 -0.2724 -0.2409  0.1685
  666SOL    HW1 1997   0.497   2.364   0.403  1.6350 -1.7446 -0.0984
  666SOL    HW2 1998   0.354   2.269   0.377  2.2337 -0.3182  1.1576
  667SOL     OW 1999   2.059   0.192   1.202 -0.6064  0.2114  0.1772
  667SOL    HW1 2000   2.078   0.293   1.192 -0.0902  0.1248  1.1211
  667SOL    HW2 2001   1.970   0.163   1.247  1.4035  0.6457  2.5650
  668SOL     OW 2002   2.055   0.480   1.119  0.0690 -0.2264  0.2177
  668SOL    HW1 2003   2.114   0.490   1.038  0.0163 -0.2437  0.0382
  668SOL    HW2 2004   2.100   0.514   1.206  0.6013  1.1400  2.3550
  669SOL     OW 2005   3.095   2.120   1.047  0.2744  0.4283  0.3511
  669SOL    HW1 2006   3.004   2.159   1.004 -0.8939  1.6759  0.1098
  669SOL    HW2 2007   3.139   2.188   1.117  0.3438  5.1106  1.2796
  670SOL     OW 2008   2.866   2.350   1.998  0.1037  0.1695 -0.6987
  670SOL    HW1 2009   2.802   2.310   2.070 -3.0643 -0.2179  0.5381
  670SOL    HW2 2010   2.864   2.458   1.992  0.7268 -0.1750  0.6168
  671SOL     OW 2011   1.702   1.759   1.496  0.1944 -0.9819  0.0096
  671SOL    HW1 2012   1.718   1.736   1.395  1.0816 -1.7693  0.1585
  671SOL    HW2 2013   1.603   1.786   1.517  2.0017 -1.7931 -2.1784
  672SOL     OW 2014   0.420   0.633   2.388 -0.2077 -0.0434  0.1630
  672SOL    HW1 2015   0.465   0.641   2.298 -1.4031 -0.6223  1.0979
  672SOL    HW2 2016   0.322   0.674   2.390 -0.9789 -0.5033  1.9138
  673SOL     OW 2017   0.113   1.217   1.128  0.0027 -0.5332  0.2744
  673SOL    HW1 2018   0.145   1.274   1.212 -1.1242 -1.0366  3.0984
  673SOL    HW2 2019   0.190   1.171   1.079 -1.1388 -0.4559 -0.4790
  674SOL     OW 2020   1.707   2.950   0.244 -0.4048 -0.7387 -0.2589
  674SOL    HW1 2021   1.760   3.034   0.256 -0.6069 -2.2459 -0.4420
  674SOL    HW2 2022   1.768   2.873   0.213  2.3318  0.3463 -0.0946
  675SOL     OW 2023   1.737   0.809   2.327 -0.3297 -0.0270  0.0475
  675SOL    HW1 2024   1.837   0.793   2.291  1.4327 -2.0817  0.0659
  675SOL    HW2 2025   1.683   0.725   2.303  0.2744  2.5965 -4.0024
  676SOL     OW 2026   2.537   1.481   1.942 -0.6181  0.0883  0.2054
  676SOL    HW1 2027   2.475   1.454   1.865 -0.7943  1.0209 -0.0275
  676SOL    HW2 2028   2.571   1.402   2.011 -0.4004 -1.1086  1.6313
  677SOL     OW 2029   1.849   0.658   0.909 -0.6976  0.0957  0.0309
  677SOL    HW1 2030   1.770   0.687   0.971 -1.0846  0.4124  1.6134
  677SOL    HW2 2031   1.866   0.558   0.909  0.8696 -1.6050  1.4344
  678SOL     OW 2032   0.034   0.744   1.658  0.2103 -0.1955 -0.0373
  678SOL    HW1 2033   0.113   0.766   1.720 -0.1286  0.3824  1.5698
  678SOL    HW2 2034  -0.060   0.753   1.706  0.1170  0.9242  0.4135
  679SOL     OW 2035   2.532   1.205   1.120  0.3660 -0.8131 -0.6781
  679SOL    HW1 2036   2.434   1.245   1.136  0.2353  1.2563 -1.7049
  679SOL    HW2 2037   2.544   1.103   1.102 -0.2288  1.7932 -0.7322
  680SOL     OW 2038   2.838   0.554   1.707  0.2562  0.6602 -0.0125
  680SOL    HW1 2039   2.821   0.618   1.628  0.8251 -2.1536 -0.3380
  680SOL    HW2 2040   2.872   0.614   1.787  1.7669  1.3706  1.5578
  681SOL     OW 2041   3.004   0.149   1.625 -0.1732 -0.4288  0.2565
  681SOL    HW1 2042   3.063   0.128   1.543  1.0464 -0.9763  1.8432
  681SOL    HW2 2043   2.927   0.199   1.595  2.6681 -1.2502  1.7761
  682SOL     OW 2044   0.807   3.089   1.309  0.1185 -0.2318 -0.0811
  682SOL    HW1 2045   0.716   3.054   1.341  1.3723  2.2033 -2.7248
  682SOL    HW2 2046   0.807   3.078   1.208  0.3892 -0.0531  2.3555
  683SOL     OW 2047   1.350   0.230   2.159  0.4391 -0.0494  0.4945
  683SOL    HW1 2048   1.347   0.265   2.255  1.5710 -1.4198 -0.6165
  683SOL    HW2 2049   1.431   0.256   2.101 -1.7498  0.6619  3.1191
  684SOL     OW 2050   1.485   2.113   0.463  0.0912  0.5773 -0.0932
  684SOL    HW1 2051   1.529   2.037   0.513 -0.5000  1.3305 -0.2953
  684SOL    HW2 2052   1.394   2.084   0.424 -0.4462 -1.0271  1.3837
  685SOL     OW 2053   2.164   2.046   1.944 -0.6969 -0.0341 -0.0491
  685SOL    HW1 2054   2.223   2.005   1.862 -0.0259 -0.9688  1.0196
  685SOL    HW2 2055   2.209   2.039   2.036  0.6034  0.1352 -0.3461
  686SOL     OW 2056   1.530   1.805   2.718  0.6301 -0.0767  0.1165
  686SOL    HW1 2057   1.568   1.775   2.811 -1.5741 -1.2004 -1.0644
  686SOL    HW2 2058   1.555   1.745   2.639 -0.7161 -1.5742  1.5721
  687SOL     OW 2059   1.299   2.479   1.986 -0.1006 -0.0854  0.4934
  687SOL    HW1 2060   1.307   2.386   1.943  0.6851  0.4525 -2.5229
  687SOL    HW2 2061   1.358   2.489   2.065 -0.9494  0.1572 -2.2012
  688SOL     OW 2062   2.056   1.503   1.781  0.2152 -0.3381  0.1261
  688SOL    HW1 2063   2.134   1.569   1.806  4.7020 -1.0599 -2.0474
  688SOL    HW2 2064   2.055   1.487   1.679 -0.4653  2.7904 -1.1485
  689SOL     OW 2065   2.371   1.085   2.760  0.5832 -0.1163 -0.2542
  689SOL    HW1 2066   2.290   1.017   2.773  0.1521  0.6010 -0.8329
  689SOL    HW2 2067   2.435   1.097   2.840  0.4708  2.8504 -2.0855
  690SOL     OW 2068   2.226   2.792   0.067 -0.1123  0.3300 -0.4946
  690SOL    HW1 2069   2.136   2.764   0.023 -0.7088 -0.1359  0.2574
  690SOL    HW2 2070   2.209   2.805   0.167 -1.3994  3.8886  0.8462
  691SOL     OW 2071   2.607   0.462   2.200  0.4303  0.0997  0.3750
  691SOL    HW1 2072   2.641   0.368   2.171  0.6034  5.5544  1.3619
  691SOL    HW2 2073   2.644   0.533   2.133  0.3197 -0.6256 -0.2346
  692SOL     OW 2074   2.726   1.244   0.740 -0.1246 -0.0846  0.0914
  692SOL    HW1 2075   2.628   1.266   0.705  0.5167 -0.0532  1.9537
  692SOL    HW2 2076   2.759   1.312   0.809  0.1174 -3.1969  2.6107
  693SOL     OW 2077   2.877   2.932   0.620  0.1978  0.1676  0.0466
  693SOL    HW1 2078   2.855   3.018   0.677 -2.4951  0.9888 -0.9571
  693SOL    HW2 2079   2.865   2.966   0.523  0.3128  0.5488 -0.2450
  694SOL     OW 2080   2.364   2.160   0.082 -0.1374 -0.4311  0.0114
  694SOL    HW1 2081   2.354   2.234   0.151  0.4851 -0.6480 -1.1232
  694SOL    HW2 2082   2.272   2.118   0.054  0.0042  1.5505  1.1595
  695SOL     OW 2083   0.577   3.006   1.433  0.7425 -0.1997 -0.3264
  695SOL    HW1 2084   0.531   2.920   1.402  4.7724  0.9502 -1.0551
  695SOL    HW2 2085   0.537   3.042   1.523  0.7001 -2.1730 -1.7876
  696SOL     OW 2086   2.790   1.975   0.707 -0.4907 -0.9729 -0.0142
  696SOL    HW1 2087   2.873   1.913   0.723 -0.7195  0.0056 -0.4792
  696SOL    HW2 2088   2.789   2.010   0.608  0.1351  1.0789  0.1650
  697SOL     OW 2089   1.606   2.021   1.841 -0.4624  0.2672 -0.1727
  697SOL    HW1 2090   1.682   1.958   1.879  0.7657 -0.1695  0.5351
  697SOL    HW2 2091   1.645   2.104   1.803 -3.1175  2.3829 -0.2606
  698SOL     OW 2092   2.938   0.429   2.769  0.4009 -0.3185  0.0070
  698SOL    HW1 2093   2.938   0.388   2.667  0.3625 -0.1330 -2.1666
  698SOL    HW2 2094   2.986   0.372   2.845  0.9705 -0.4350 -0.6395
  699SOL     OW 2095   1.551   0.076   2.905  0.1474 -0.0528  0.2477
  699SOL    HW1 2096   1.530  -0.019   2.865  2.8860 -1.4890 -1.4717
  699SOL    HW2 2097   1.610   0.127   2.836 -0.1119 -0.4358  3.5294
  700SOL     OW 2098   0.956   2.328   1.342 -0.1563  0.1175  0.3462
  700SOL    HW1 2099   1.056   2.310   1.331  0.5841  1.4301  0.0690
  700SOL    HW2 2100   0.900   2.288   1.262 -1.0545  2.0265 -0.3069
  701SOL     OW 2101   1.882   2.920   3.048  0.3152 -0.2820  0.0286
  701SOL    HW1 2102   1.904   2.852   3.124 -0.4970 -2.7044 -1.7904
  701SOL    HW2 2103   1.882   3.016   3.082  2.3779 -0.4878 -0.7335
  702SOL     OW 2104   2.066   1.335   1.997  0.2196  0.4142 -0.3169
  702SOL    HW1 2105   2.154   1.280   1.980  0.9296 -1.7450  0.9033
  702SOL    HW2 2106   2.044   1.409   1.926  1.8989 -1.3231  0.2238
  703SOL     OW 2107   1.934   0.902   1.456  0.3640 -0.0816 -0.0001
  703SOL    HW1 2108   1.904   0.822   1.518  3.0920 -0.5278 -0.2570
  703SOL    HW2 2109   2.028   0.945   1.486  1.5692 -0.1353  0.5626
  704SOL     OW 2110   0.320   2.040   1.742  0.1562  0.2976 -0.0225
  704SOL    HW1 2111   0.343   1.966   1.818 -2.0683 -1.6328  2.5686
  704SOL    HW2 2112   0.393   2.108   1.716  0.4009  0.7940  0.5629
  705SOL     OW 2113   2.530   1.514   0.917 -0.0988 -0.0139  0.6357
  705SOL    HW1 2114   2.456   1.465   0.865  0.0921 -1.3642  0.4551
  705SOL    HW2 2115   2.607   1.451   0.949 -1.1086 -0.2037  0.8916
  706SOL     OW 2116   0.642   1.642   1.873  0.3854 -0.2541 -0.1582
  706SOL    HW1 2117   0.675   1.558   1.923 -1.4960 -0.0287 -0.5825
  706SOL    HW2 2118   0.686   1.729   1.912 -2.4234 -2.5932  2.6896
  707SOL     OW 2119   2.269   1.196   1.854 -0.1738  0.4446  0.4131
  707SOL    HW1 2120   2.360   1.183   1.908  0.9276  2.7416 -0.5427
  707SOL    HW2 2121   2.248   1.119   1.791 -0.6649  0.2706  1.5014
  708SOL     OW 2122   3.081   0.517   3.082  0.1796 -1.1306 -0.0538
  708SOL    HW1 2123   3.066   0.575   2.999  0.8101 -1.6261 -0.4629
  708SOL    HW2 2124   3.068   0.419   3.069  4.9557  0.2604  1.9719
  709SOL     OW 2125   1.851   1.853   0.232 -0.4609  0.1587 -0.3336
  709SOL    HW1 2126   1.848   1.952   0.273 -1.0137  3.6252 -1.7026
  709SOL    HW2 2127   1.869   1.849   0.127  1.3686 -0.2490 -0.3564
  710SOL     OW 2128   1.718   1.649   2.423  0.8481 -0.0536  0.4112
  710SOL    HW1 2129   1.743   1.600   2.333  2.2282 -1.8758 -1.6989
  710SOL    HW2 2130   1.713   1.586   2.505 -0.9768  1.0817  2.1601
  711SOL     OW 2131   2.628   2.939   1.042 -0.1409  0.6917 -0.0694
  711SOL    HW1 2132   2.609   3.029   0.993 -1.2038 -2.4946 -1.9962
  711SOL    HW2 2133   2.724   2.931   1.079 -1.5987  3.9640  0.6583
  712SOL     OW 2134   1.391   2.204   1.966 -0.0972  0.0350  0.6293
  712SOL    HW1 2135   1.482   2.230   2.008  2.2190  2.2910 -1.4798
  712SOL    HW2 2136   1.404   2.154   1.874 -1.8042  0.4923 -3.3504
  713SOL     OW 2137   2.869   1.476   2.540  0.4093  0.4828 -0.1497
  713SOL    HW1 2138   2.855   1.385   2.493  2.8139 -0.0418 -0.7033
  713SOL    HW2 2139   2.847   1.480   2.640  2.6064 -0.2707  1.8324
  714SOL     OW 2140   2.722   0.527   2.462  0.0351 -0.0827 -0.4374
  714SOL    HW1 2141   2.662   0.476   2.531  0.7493 -1.6155  0.7068
  714SOL    HW2 2142   2.693   0.509   2.365 -1.4161 -0.3790 -0.9207
  715SOL     OW 2143   1.584   2.033   1.128 -0.2811 -0.2162 -0.6680
  715SOL    HW1 2144   1.487   2.048   1.094  0.5419 -1.2966 -0.7015
  715SOL    HW2 2145   1.586   2.044   1.232 -0.6589  0.0363  1.8189
  716SOL     OW 2146   1.163   0.169   1.484  0.0724 -0.1123 -0.2329
  716SOL    HW1 2147   1.073   0.196   1.449  0.2739  1.1602 -2.2150
  716SOL    HW2 2148   1.238   0.241   1.470 -0.0900  2.5907 -2.3048
  717SOL     OW 2149   1.168   0.526   1.553 -0.2992 -0.6228  0.6081
  717SOL    HW1 2150   1.241   0.595   1.577 -0.4616  0.2363 -3.0436
  717SOL    HW2 2151   1.151   0.518   1.447  3.6144 -1.7377 -0.5268
  718SOL     OW 2152   0.679   0.900   1.013  0.2490  0.6743 -0.3697
  718SOL    HW1 2153   0.641   0.885   0.917  1.4297 -0.6303 -2.7594
  718SOL    HW2 2154   0.679   1.002   1.030  0.2248 -0.0574  0.1841
  719SOL     OW 2155   0.588   1.779   2.287  0.1069  0.4373 -0.3759
  719SOL    HW1 2156   0.673   1.809   2.338 -0.2325 -1.9386  1.4265
  719SOL    HW2 2157   0.537   1.707   2.336  3.1426  2.6046 -1.7497
  720SOL     OW 2158   2.180   1.152   0.319  0.4251  0.6220  0.6662
  720SOL    HW1 2159   2.206   1.078   0.252 -0.2840 -0.2205 -1.0709
  720SOL    HW2 2160   2.164   1.113   0.415 -0.0179 -1.3738  3.7819
  721SOL     OW 2161   2.274   3.014   2.116 -0.5905 -0.0292  0.3394
  721SOL    HW1 2162   2.246   3.059   2.025  3.4856  2.9524  0.4412
  721SOL    HW2 2163   2.206   3.011   2.193 -0.9426 -2.5338 -3.4376
  722SOL     OW 2164   2.353   1.598   0.518  0.1450 -0.5061 -0.3560
  722SOL    HW1 2165   2.377   1.596   0.418  4.0491  1.4768 -0.1834
  722SOL    HW2 2166   2.316   1.691   0.541 -2.2423 -1.9442 -1.8224
  723SOL     OW 2167   2.576   2.744   1.928 -0.6866 -0.2706 -0.3504
  723SOL    HW1 2168   2.617   2.822   1.988  0.6296 -0.0831 -2.6996
  723SOL    HW2 2169   2.482   2.717   1.958 -0.9339  0.4883 -0.4167
  724SOL     OW 2170   0.514   2.475   2.410  0.1292  0.2970  0.0772
  724SOL    HW1 2171   0.420   2.483   2.457  0.3808  1.2219 -0.4899
  724SOL    HW2 2172   0.594   2.479   2.479 -1.2798  0.6589  2.4184
  725SOL     OW 2173   2.465   2.827   1.526  0.3650  0.3171 -0.5371
  725SOL    HW1 2174   2.493   2.862   1.434  0.7498 -0.2491  0.6304
  725SOL    HW2 2175   2.460   2.728   1.540  3.1248 -0.3973  1.8781
  726SOL     OW 2176   2.523   2.319   0.725 -0.5235 -0.3550 -0.4827
  726SOL    HW1 2177   2.460   2.407   0.712 -2.2404  0.6811 -2.2822
  726SOL    HW2 2178   2.514   2.257   0.649  0.0021  1.6937  0.3068
  727SOL     OW 2179   0.125   3.098   0.063  0.7340  0.3552 -0.3010
  727SOL    HW1 2180   0.183   3.014   0.050  0.1057  0.9282  0.8693
  727SOL    HW2 2181   0.046   3.116  -0.005 -2.1788 -1.6877 -2.3328
  728SOL     OW 2182   2.894   0.642   0.959 -0.0018  0.2756 -0.0959
  728SOL    HW1 2183   2.819   0.653   0.887  3.0862 -0.9433  1.1096
  728SOL    HW2 2184   2.858   0.629   1.056  1.5979  1.1111 -0.3812
  729SOL     OW 2185   3.050   2.517   0.778  0.0767 -0.7048  0.0950
  729SOL    HW1 2186   2.996   2.434   0.766  1.8614  3.7942  2.5198
  729SOL    HW2 2187   3.136   2.520   0.722  1.1757  3.2556 -0.6107
  730SOL     OW 2188   2.640   0.732   0.872 -0.1834 -0.0487 -0.3891
  730SOL    HW1 2189   2.588   0.821   0.864 -0.5119  1.4871  2.1469
  730SOL    HW2 2190   2.678   0.695   0.778  0.4306 -1.6270 -0.4510
  731SOL     OW 2191   0.069   2.096   2.514  0.5420 -0.5632  0.0002
  731SOL    HW1 2192   0.124   2.133   2.592 -1.0531 -2.8718  0.5657
  731SOL    HW2 2193   0.008   2.166   2.475 -0.8732 -1.7944 -0.3984
  732SOL     OW 2194   1.185   2.841   1.945  0.3427 -0.6314 -0.2128
  732SOL    HW1 2195   1.190   2.790   2.035 -0.5649  1.1074 -1.9178
  732SOL    HW2 2196   1.168   2.783   1.864  1.4962  1.2901  0.2465
  733SOL     OW 2197   3.046   0.590   2.213 -0.3664 -0.1606 -0.0140
  733SOL    HW1 2198   3.115   0.655   2.162 -1.6652  1.6738  0.4838
  733SOL    HW2 2199   2.969   0.561   2.157  1.6115 -1.9102  1.5701
  734SOL     OW 2200   1.437   0.388   2.685 -0.3549  0.0183  0.0970
  734SOL    HW1 2201   1.439   0.472   2.745  1.4889 -0.2723 -0.1935
  734SOL    HW2 2202   1.380   0.308   2.724  1.1590 -1.5458  0.4141
  735SOL     OW 2203   2.884   2.671   2.281  0.0154 -0.0520 -0.3014
  735SOL    HW1 2204   2.873   2.605   2.203 -0.2577  1.2089  2.1224
  735SOL    HW2 2205   2.978   2.720   2.271 -0.0681  0.1691 -3.1650
  736SOL     OW 2206   0.832   0.311   2.563 -0.1514  0.0126  0.3404
  736SOL    HW1 2207   0.746   0.333   2.614 -1.9375 -2.2494  1.7933
  736SOL    HW2 2208   0.825   0.246   2.488 -1.6229  1.2939 -0.9009
  737SOL     OW 2209   2.649   0.468   2.835  0.2668  0.2193 -0.3309
  737SOL    HW1 2210   2.622   0.433   2.930 -0.1249 -1.6840  0.1926
  737SOL    HW2 2211   2.752   0.455   2.823  0.8747  1.4943  1.8825
  738SOL     OW 2212   1.640   1.254   2.886 -0.0911  0.3793  0.4279
  738SOL    HW1 2213   1.739   1.255   2.866 -0.4326 -0.2505 -1.4987
  738SOL    HW2 2214   1.602   1.161   2.867 -0.6971  1.0869 -1.1349
  739SOL     OW 2215   1.720   0.674   0.675  0.8049 -0.1395 -0.5909
  739SOL    HW1 2216   1.769   0.680   0.768 -0.0093 -0.8468  0.4213
  739SOL    HW2 2217   1.757   0.596   0.615 -1.4613  1.3681  0.7980
  740SOL     OW 2218   1.994   1.913   2.328  0.0204 -1.0095 -0.5447
  740SOL    HW1 2219   2.049   1.832   2.357  0.0158  1.5921 -1.4090
  740SOL    HW2 2220   1.909   1.900   2.269 -2.5196 -0.0587 -2.6763
  741SOL     OW 2221   2.559   0.078   2.536 -0.3506 -0.9847 -0.5310
  741SOL    HW1 2222   2.662   0.085   2.530  0.5372  0.9109 -1.7038
  741SOL    HW2 2223   2.503   0.101   2.450  0.7506 -1.7873  0.3365
  742SOL     OW 2224   2.215   1.401   0.188  0.1363  0.4908 -0.1361
  742SOL    HW1 2225   2.137   1.468   0.212  1.0795  2.1465  2.8730
  742SOL    HW2 2226   2.204   1.313   0.252 -0.2591 -2.3559  1.6316
  743SOL     OW 2227   1.833   0.665   2.638  0.1454  1.0969  0.4400
  743SOL    HW1 2228   1.809   0.573   2.588 -1.0050 -1.3548 -3.4215
  743SOL    HW2 2229   1.763   0.740   2.640  0.0271 -1.6185  3.3974
  744SOL     OW 2230   2.620   2.106   0.176  0.0697  1.0719  0.3132
  744SOL    HW1 2231   2.528   2.149   0.146  1.8169 -3.2023 -1.6774
  744SOL    HW2 2232   2.627   2.005   0.165 -0.6577  0.1625 -0.8567
  745SOL     OW 2233   2.144   2.645   2.260 -0.1427 -0.5091  0.9665
  745SOL    HW1 2234   2.045   2.635   2.228 -1.0921  0.2338  2.6742
  745SOL    HW2 2235   2.177   2.602   2.349  2.0810 -0.5974  1.6887
  746SOL     OW 2236   3.059   2.615   1.744  0.1210 -0.4002  0.3568
  746SOL    HW1 2237   3.140   2.642   1.686  0.2511  1.4268 -0.5117
  746SOL    HW2 2238   3.024   2.688   1.810  0.7291  2.5891 -1.0790
  747SOL     OW 2239   0.044   1.748   1.713  0.2612  0.1266 -0.7747
  747SOL    HW1 2240  -0.022   1.671   1.693  0.0571 -4.0619 -2.6366
  747SOL    HW2 2241   0.102   1.769   1.634 -1.1342  0.0279  1.0624
  748SOL     OW 2242   1.825   2.730   2.875  0.0280  0.2225 -0.0601
  748SOL    HW1 2243   1.826   2.825   2.927 -0.2131 -1.1059  0.8074
  748SOL    HW2 2244   1.726   2.708   2.845  2.0978 -2.6972 -1.4599
  749SOL     OW 2245   1.363   3.022   0.895 -0.5838  0.4252  0.6136
  749SOL    HW1 2246   1.267   2.975   0.895 -4.0080 -4.2382  1.8983
  749SOL    HW2 2247   1.417   2.987   0.813  0.2117  0.8708  3.4942
  750SOL     OW 2248   2.275   0.184   1.873 -0.2153 -0.3332  0.7080
  750SOL    HW1 2249   2.285   0.237   1.784 -1.9044  0.3743  0.9748
  750SOL    HW2 2250   2.316   0.231   1.957 -0.9707 -0.8112 -2.1988
  751SOL     OW 2251   0.870   2.113   2.815  0.3004  0.9758 -0.4561
  751SOL    HW1 2252   0.924   2.101   2.904 -0.3595 -0.9310  0.7370
  751SOL    HW2 2253   0.768   2.100   2.830  1.1243  0.6395 -0.3517
  752SOL     OW 2254   1.316   0.863   1.277  0.4758 -0.1668  0.8514
  752SOL    HW1 2255   1.381   0.939   1.251 -1.2189 -0.6155 -0.2704
  752SOL    HW2 2256   1.362   0.784   1.322 -3.3875 -1.3128 -2.0132
  753SOL     OW 2257   0.918   2.608   1.654 -0.0066 -0.1506  0.0304
  753SOL    HW1 2258   1.006   2.618   1.703  1.6830 -2.1263 -3.6870
  753SOL    HW2 2259   0.886   2.697   1.609 -0.5940  2.5099 -0.7138
  754SOL     OW 2260   1.105   1.236   3.003 -0.5731  0.2095  0.0525
  754SOL    HW1 2261   1.168   1.191   2.929  2.4265  1.2205 -0.6782
  754SOL    HW2 2262   1.126   1.337   3.025  1.9707 -0.5768 -0.1812
  755SOL     OW 2263   2.000   0.469   2.220  0.4472 -0.3145  0.2494
  755SOL    HW1 2264   2.071   0.412   2.273 -2.4732 -0.3332  3.0309
  755SOL    HW2 2265   1.910   0.478   2.276 -0.6587  1.8137  1.4447
  756SOL     OW 2266   2.557   1.019   2.962 -0.0609  0.2756  0.2401
  756SOL    HW1 2267   2.656   1.016   2.997  0.5259 -1.0706  0.9600
  756SOL    HW2 2268   2.513   0.940   3.007  4.7787 -1.6084 -0.2789
  757SOL     OW 2269   0.061   0.537   1.927 -0.2196  0.1098 -0.4687
  757SOL    HW1 2270   0.054   0.484   1.838 -2.3173 -1.3808 -2.3430
  757SOL    HW2 2271   0.026   0.486   2.014 -0.7126 -1.9127 -0.9180
  758SOL     OW 2272   2.310   0.114   1.514  0.4790 -0.7161 -0.3130
  758SOL    HW1 2273   2.254   0.024   1.535 -1.1597 -0.9881 -1.7493
  758SOL    HW2 2274   2.319   0.130   1.409  0.3021 -1.0955 -2.4815
  759SOL     OW 2275   1.708   0.121   0.036 -0.0465  0.2196  0.3237
  759SOL    HW1 2276   1.661   0.113  -0.058 -0.6652 -2.5788  0.4052
  759SOL    HW2 2277   1.811   0.120   0.036  1.2365 -1.7510 -0.7507
  760SOL     OW 2278   2.698   2.071   2.825 -0.2517 -0.1820  0.1872
  760SOL    HW1 2279   2.710   1.985   2.881  0.2780  1.3049  1.7120
  760SOL    HW2 2280   2.670   2.154   2.884 -0.6987  1.4997 -1.1885
  761SOL     OW 2281   1.893   1.704   1.705  0.3280 -0.0526 -0.0520
  761SOL    HW1 2282   1.939   1.611   1.718 -0.7588  2.7043 -0.4803
  761SOL    HW2 2283   1.821   1.715   1.630  2.2461  3.0993  1.1143
  762SOL     OW 2284   0.519   2.353   0.964 -0.1206 -0.0873 -0.2107
  762SOL    HW1 2285   0.568   2.355   0.877 -0.3188 -2.6281  3.1025
  762SOL    HW2 2286   0.551   2.425   1.033  0.5944  2.6568 -1.5404
  763SOL     OW 2287   2.092   1.586   2.979  0.6314 -0.6676 -0.0260
  763SOL    HW1 2288   2.182   1.537   2.979 -1.7237  0.1032 -2.1373
  763SOL    HW2 2289   2.027   1.524   3.026  2.6347 -0.2450  0.3265
  764SOL     OW 2290   0.674   0.628   0.822 -0.5413 -0.2546  0.1176
  764SOL    HW1 2291   0.610   0.544   0.817  0.8230 -1.0063  0.0394
  764SOL    HW2 2292   0.766   0.612   0.870 -1.9691 -1.1181 -2.0754
  765SOL     OW 2293   0.715   0.229   0.766 -0.3997 -0.2538 -0.3162
  765SOL    HW1 2294   0.804   0.281   0.755  1.6691  2.9791 -3.8184
  765SOL    HW2 2295   0.686   0.220   0.861 -1.9219  2.7689 -3.3449
  766SOL     OW 2296   2.852   2.103  -0.000 -0.3607  0.8048  0.8635
  766SOL    HW1 2297   2.763   2.115   0.059 -1.9309 -0.7979 -3.2004
  766SOL    HW2 2298   2.910   2.188  -0.005  0.0188 -0.5015 -1.6474
  767SOL     OW 2299   2.767   1.612   0.605  0.0152 -0.4791  0.6114
  767SOL    HW1 2300   2.673   1.647   0.629  0.9493 -1.3733  1.0787
  767SOL    HW2 2301   2.853   1.650   0.654  4.1565  2.4968 -1.6007
  768SOL     OW 2302   1.043   0.058   0.272  0.0549 -0.1380 -0.0460
  768SOL    HW1 2303   0.974   0.057   0.355 -0.6257 -0.4419  1.0923
  768SOL    HW2 2304   1.127   0.116   0.278  1.6469 -1.5156  0.8680
  769SOL     OW 2305   1.054   1.946   2.279 -0.2791 -0.3008 -0.5048
  769SOL    HW1 2306   0.960   1.986   2.278 -2.0227 -0.2818 -1.6323
  769SOL    HW2 2307   1.090   1.910   2.375  1.0135 -0.1180 -1.5567
  770SOL     OW 2308   0.176   1.145   2.295  0.2422 -0.6676  0.5942
  770SOL    HW1 2309   0.163   1.214   2.369  1.4099  1.2805 -3.1268
  770SOL    HW2 2310   0.086   1.114   2.249 -0.5516 -1.4970  0.1336
  771SOL     OW 2311   2.963   2.835   1.882  0.0980 -0.1128 -0.2065
  771SOL    HW1 2312   2.920   2.905   1.820  0.0243 -0.8381  2.1728
  771SOL    HW2 2313   2.956   2.863   1.982 -1.3823  1.3669 -0.0252
  772SOL     OW 2314   2.190   0.211   2.928 -0.2124  0.6363 -0.8870
  772SOL    HW1 2315   2.272   0.145   2.908 -0.1516 -2.2882  2.2373
  772SOL    HW2 2316   2.174   0.236   3.028  1.1345  1.8702  1.6259
  773SOL     OW 2317   0.719   2.142   2.426  0.0495 -0.0176  0.1450
  773SOL    HW1 2318   0.684   2.191   2.339  1.0502  0.0908 -1.8540
  773SOL    HW2 2319   0.656   2.150   2.514 -0.2058  0.0083  2.5993
  774SOL     OW 2320   2.046   3.096   2.604  0.1197  0.0551  0.3407
  774SOL    HW1 2321   2.056   3.200   2.626 -1.0388  0.5148  0.5639
  774SOL    HW2 2322   2.078   3.033   2.678  3.6359 -0.7842  3.4727
  775SOL     OW 2323   2.524   2.879   2.375 -0.1454 -0.8092 -0.2312
  775SOL    HW1 2324   2.481   2.977   2.389  1.3334  1.0140  1.2528
  775SOL    HW2 2325   2.599   2.855   2.446 -2.3722 -0.6474  2.2173
  776SOL     OW 2326   0.009   1.245   0.193 -0.0664  0.6572 -0.1694
  776SOL    HW1 2327  -0.032   1.216   0.104 -1.6603 -2.4443  1.8934
  776SOL    HW2 2328  -0.061   1.229   0.273 -1.6076 -0.8404  0.9332
  777SOL     OW 2329   0.358   2.849   0.408  0.3066  0.3749  0.0784
  777SOL    HW1 2330   0.273   2.896   0.389  1.1525  1.6349  3.4789
  777SOL    HW2 2331   0.437   2.905   0.376 -0.4322  0.0197  2.0004
  778SOL     OW 2332   1.361   1.935   0.182 -0.4265 -0.1809  0.0583
  778SOL    HW1 2333   1.299   1.956   0.265 -0.2141  2.7610 -1.6570
  778SOL    HW2 2334   1.393   2.023   0.134  1.4619  2.4658 -0.5010
  779SOL     OW 2335   0.175   0.844   0.485 -0.2354 -0.4792  0.1255
  779SOL    HW1 2336   0.104   0.770   0.455 -0.3308  0.9323 -1.4264
  779SOL    HW2 2337   0.133   0.914   0.547 -0.0445 -0.3444 -2.0234
  780SOL     OW 2338   0.093   0.208   2.304  0.6871  0.0806 -0.5400
  780SOL    HW1 2339   0.142   0.297   2.319  0.9111 -0.3337 -2.0203
  780SOL    HW2 2340   0.157   0.128   2.283 -1.5432  0.6725 -0.7520
  781SOL     OW 2341   0.653   1.697   1.520  0.1390  0.2082 -0.0293
  781SOL    HW1 2342   0.735   1.658   1.569  1.3853  2.2778  0.2095
  781SOL    HW2 2343   0.559   1.670   1.560 -2.3168  0.0802 -1.1597
  782SOL     OW 2344   2.587   0.083   0.913 -0.0080  0.5264 -0.8071
  782SOL    HW1 2345   2.531   0.102   0.826  0.2768 -2.3638  2.2815
  782SOL    HW2 2346   2.585   0.159   0.985 -3.0416  0.8577  1.6202
  783SOL     OW 2347   2.859   0.744   2.543  0.1394  0.2417  0.4839
  783SOL    HW1 2348   2.834   0.790   2.637 -1.1415  0.3074 -0.2629
  783SOL    HW2 2349   2.794   0.662   2.521 -1.1032 -0.8516 -0.3069
  784SOL     OW 2350   1.462   2.209   0.087  0.2785 -0.3595 -0.2600
  784SOL    HW1 2351   1.535   2.283   0.099  1.3083 -1.6639  1.0443
  784SOL    HW2 2352   1.436   2.194  -0.009 -1.1721  2.3684 -0.9506
  785SOL     OW 2353   2.132   0.317   0.064 -0.1601  0.1338  0.2882
  785SOL    HW1 2354   2.050   0.335   0.121  3.3507 -1.0269 -0.3661
  785SOL    HW2 2355   2.160   0.408   0.014  0.3295 -1.0556 -1.3545
  786SOL     OW 2356   2.006   2.173   2.227 -0.1253  0.3178 -0.7801
  786SOL    HW1 2357   2.001   2.077   2.275  1.0386 -4.1966  3.4485
  786SOL    HW2 2358   2.097   2.180   2.177 -0.3513 -1.1716 -2.5780
  787SOL     OW 2359   1.386   0.551   1.022  0.8000  0.4986 -0.0337
  787SOL    HW1 2360   1.312   0.622   1.039  0.0834  3.4304 -0.8556
  787SOL    HW2 2361   1.413   0.548   0.920  1.8186  1.9806 -1.1220
  788SOL     OW 2362   1.266   0.392   0.065 -0.5988  0.4154 -0.3816
  788SOL    HW1 2363   1.186   0.399  -0.006  1.5431  0.2111 -0.1684
  788SOL    HW2 2364   1.262   0.456   0.150  0.3593 -0.9052  1.0823
  789SOL     OW 2365   2.569   0.104   1.863 -0.2086  0.0519 -0.6742
  789SOL    HW1 2366   2.472   0.112   1.888 -0.3616 -1.4217 -2.3864
  789SOL    HW2 2367   2.580   0.007   1.812 -0.1978 -2.1470 -3.5509
  790SOL     OW 2368   2.678   2.780   0.793 -0.1517  0.0014 -0.3219
  790SOL    HW1 2369   2.731   2.828   0.716 -0.8505 -0.7669  0.0104
  790SOL    HW2 2370   2.679   2.842   0.872 -1.7487 -0.4176  0.2508
  791SOL     OW 2371   1.931   1.192   0.208 -0.8420  0.1019  0.0225
  791SOL    HW1 2372   1.850   1.161   0.261  3.3914 -0.8188 -0.2632
  791SOL    HW2 2373   2.017   1.157   0.254 -1.0638 -1.1260  0.2710
  792SOL     OW 2374   0.435   1.961   2.169 -0.0040  0.8400  0.0566
  792SOL    HW1 2375   0.486   1.887   2.221 -0.3623  2.6009 -0.7121
  792SOL    HW2 2376   0.352   1.991   2.218  1.4417  3.5844 -0.2091
  793SOL     OW 2377   2.078   1.574   2.145  0.2449  0.0763  0.0438
  793SOL    HW1 2378   2.159   1.621   2.101  1.3620 -0.0999  3.1106
  793SOL    HW2 2379   2.084   1.465   2.138 -1.3076 -1.7080  0.7362
  794SOL     OW 2380   0.470   1.339   2.394 -0.3787 -0.1218  0.6349
  794SOL    HW1 2381   0.475   1.303   2.296 -0.4805  1.0287  0.8972
  794SOL    HW2 2382   0.446   1.440   2.408 -1.5333 -0.4633 -0.8380
  795SOL     OW 2383   2.473   2.277   1.822 -0.6941  0.1600 -0.8112
  795SOL    HW1 2384   2.457   2.324   1.912 -0.9234  1.0009 -1.2869
  795SOL    HW2 2385   2.408   2.197   1.813  0.9622 -0.5126 -0.2751
  796SOL     OW 2386   3.041   1.121   2.686  0.4386 -0.3112 -0.2819
  796SOL    HW1 2387   2.942   1.120   2.722  1.9840 -1.2461 -1.1653
  796SOL    HW2 2388   3.114   1.141   2.761 -3.2490  0.3384 -0.5705
  797SOL     OW 2389   0.778   0.627   1.401 -0.2652 -0.5442  0.1722
  797SOL    HW1 2390   0.853   0.663   1.463 -0.4713 -0.7716 -0.9180
  797SOL    HW2 2391   0.721   0.705   1.363  2.0843 -0.5612  1.0253
  798SOL     OW 2392   1.332   0.299   1.113  0.3273  0.1557  0.5293
  798SOL    HW1 2393   1.313   0.325   1.214  1.8706  0.2375 -2.6924
  798SOL    HW2 2394   1.364   0.384   1.057  0.4636  1.7984 -2.4819
  799SOL     OW 2395   1.911   2.732   1.047  0.3092 -0.5037  0.1836
  799SOL    HW1 2396   1.916   2.651   1.112 -0.1502  0.6683 -1.5665
  799SOL    HW2 2397   1.821   2.742   0.994 -2.4547 -1.4168 -0.7328
  800SOL     OW 2398   2.959   0.729   1.879 -0.7438  0.1728  0.4635
  800SOL    HW1 2399   2.959   0.827   1.912  1.1585  1.9401  0.4787
  800SOL    HW2 2400   3.039   0.671   1.906  0.2661  1.0679 -0.0247
  801SOL     OW 2401   1.946   2.229   0.084 -0.0573  0.3830  0.5279
  801SOL    HW1 2402   1.857   2.219   0.024  1.5909  0.7578 -1.4194
  801SOL    HW2 2403   2.016   2.167   0.040  0.5774  2.5634 -0.8619
  802SOL     OW 2404   0.685   0.799   2.534  0.2210  0.3754 -0.1365
  802SOL    HW1 2405   0.751   0.765   2.459  1.2384  1.6216 -1.0748
  802SOL    HW2 2406   0.588   0.794   2.507  1.1619 -2.2905  3.5761
  803SOL     OW 2407   0.971   0.034   0.844 -0.3518 -0.2253 -0.0709
  803SOL    HW1 2408   1.059   0.078   0.886  0.3483 -0.3687 -1.2842
  803SOL    HW2 2409   0.944   0.091   0.759 -0.8286 -0.5670 -1.6720
  804SOL     OW 2410   0.307   0.034   2.166 -0.0064 -0.0561 -0.0269
  804SOL    HW1 2411   0.338   0.133   2.162  0.3070  0.2199  1.2788
  804SOL    HW2 2412   0.253  -0.003   2.086  0.2405 -1.5431  0.3755
  805SOL     OW 2413   2.359   0.332   0.403  0.1535  0.0508  0.6408
  805SOL    HW1 2414   2.426   0.371   0.474  0.2862 -0.9602 -0.1649
  805SOL    HW2 2415   2.401   0.303   0.312  0.7385 -0.9205  1.7752
  806SOL     OW 2416   0.644   2.447   1.790 -0.1176  0.6105  0.4442
  806SOL    HW1 2417   0.620   2.546   1.778 -1.8316 -1.1054  1.0283
  806SOL    HW2 2418   0.690   2.408   1.704 -0.6312 -1.7731  0.3216
  807SOL     OW 2419   2.490   0.846   0.351  0.0458 -0.2099 -0.3007
  807SOL    HW1 2420   2.558   0.876   0.426  1.7628  2.2090  1.6070
  807SOL    HW2 2421   2.482   0.910   0.272  0.9786  0.9886  1.8218
  808SOL     OW 2422   0.596   2.073   2.917  0.6173 -0.7129 -0.3091
  808SOL    HW1 2423   0.551   2.141   2.979  1.5763 -1.4398 -1.5200
  808SOL    HW2 2424   0.585   1.974   2.951 -3.6569  0.5463 -1.5947
  809SOL     OW 2425   2.663   1.959   1.882 -0.4015 -0.2389 -0.4124
  809SOL    HW1 2426   2.762   1.985   1.891  0.6596  0.5509  0.6826
  809SOL    HW2 2427   2.615   2.011   1.808 -2.9850 -2.7700 -0.2174
  810SOL     OW 2428   2.104   1.064   0.564 -0.0604  0.4034 -0.3646
  810SOL    HW1 2429   2.130   0.982   0.618 -0.5311 -0.2073  0.8973
  810SOL    HW2 2430   2.095   1.143   0.627  2.5009 -0.2902 -0.6873
  811SOL     OW 2431   1.331   2.505   1.183 -0.1351 -0.1032  0.6895
  811SOL    HW1 2432   1.318   2.410   1.224 -0.1092  1.7839  0.7358
  811SOL    HW2 2433   1.256   2.569   1.210  0.3620  1.5620  1.2930
  812SOL     OW 2434   1.411   0.748   1.948 -0.0274 -0.0231 -0.4215
  812SOL    HW1 2435   1.440   0.843   1.986  1.0094 -1.0765 -2.7324
  812SOL    HW2 2436   1.308   0.730   1.963  1.2045 -1.5823  0.9017
  813SOL     OW 2437   1.707   2.063   2.507 -0.0980  0.6975  0.5491
  813SOL    HW1 2438   1.764   1.983   2.534  2.7136  0.2712  1.4116
  813SOL    HW2 2439   1.647   2.041   2.428  0.5559 -0.6746  0.5734
  814SOL     OW 2440   2.908   1.525   2.829  0.0713 -0.7923  0.2165
  814SOL    HW1 2441   2.998   1.499   2.874  0.1829  0.5431 -0.2054
  814SOL    HW2 2442   2.913   1.622   2.791 -1.8655 -1.6692  3.6721
  815SOL     OW 2443   2.156   2.903   2.779  0.1362 -0.2273 -0.1843
  815SOL    HW1 2444   2.138   2.817   2.835  1.6105  2.0062  0.8311
  815SOL    HW2 2445   2.231   2.960   2.819  2.2457 -0.5730  1.2015
  816SOL     OW 2446   1.646   0.324   1.595 -0.0418 -0.0314  0.1001
  816SOL    HW1 2447   1.700   0.236   1.618  1.2079 -1.9939 -0.1431
  816SOL    HW2 2448   1.577   0.354   1.664  0.6428 -0.2045 -1.4824
  817SOL     OW 2449   0.382   1.161   2.569  0.2779 -0.7812  0.4624
  817SOL    HW1 2450   0.291   1.195   2.603 -0.7000  0.5751 -1.4578
  817SOL    HW2 2451   0.409   1.222   2.487 -0.4330  2.4733  0.1595
  818SOL     OW 2452   1.895   0.901   0.408  0.7249  0.0126 -0.7781
  818SOL    HW1 2453   1.994   0.924   0.431  0.0257  1.5827 -1.4777
  818SOL    HW2 2454   1.825   0.945   0.467  0.1678  2.7686  1.1285
  819SOL     OW 2455   2.751   2.963   2.958  0.2015  0.1261 -0.1618
  819SOL    HW1 2456   2.815   2.882   2.934  3.7488 -3.0809  2.2669
  819SOL    HW2 2457   2.655   2.948   2.924 -0.4490  1.6553 -1.6961
  820SOL     OW 2458   1.242   1.060   0.637 -0.4376  0.0587 -0.5319
  820SOL    HW1 2459   1.216   1.156   0.675 -1.0991  1.2764  0.1402
  820SOL    HW2 2460   1.244   0.992   0.710  2.0592 -0.9670 -1.4885
  821SOL     OW 2461   0.004   1.283   0.687  0.4737 -0.6004 -0.1128
  821SOL    HW1 2462  -0.030   1.271   0.791  0.3899  0.1926  1.7091
  821SOL    HW2 2463   0.046   1.373   0.656  0.9612  0.0299  2.8424
  822SOL     OW 2464   2.564   1.717   2.422  0.1842  0.3918  0.3805
  822SOL    HW1 2465   2.589   1.788   2.490  2.6048 -1.4279  0.5632
  822SOL    HW2 2466   2.473   1.734   2.373  1.5001  2.9737 -1.3731
  823SOL     OW 2467   2.066   0.907   1.196 -0.4510  0.0080 -0.2920
  823SOL    HW1 2468   2.026   0.898   1.290 -0.8095 -2.2902 -0.7313
  823SOL    HW2 2469   2.011   0.977   1.135  0.1590  1.6945 -1.4711
  824SOL     OW 2470   0.262   2.042   2.806  0.3362 -0.1159  0.4701
  824SOL    HW1 2471   0.205   1.965   2.844 -0.3478 -0.3473  1.8159
  824SOL    HW2 2472   0.331   2.014   2.732  1.4236 -0.7451  0.2821
  825SOL     OW 2473   1.294   1.118   0.285 -0.0555 -0.8864  0.2963
  825SOL    HW1 2474   1.305   1.220   0.259  0.3258 -1.9391 -2.7551
  825SOL    HW2 2475   1.217   1.103   0.348  1.5741  1.6738 -1.3661
  826SOL     OW 2476   1.879   0.673   1.613 -0.3396 -0.1025  0.1509
  826SOL    HW1 2477   1.967   0.615   1.625  0.0481  0.0535  0.9107
  826SOL    HW2 2478   1.810   0.638   1.541 -1.5558  0.7263 -0.4006
  827SOL     OW 2479   0.674   1.195   0.199  0.1272  1.2210 -0.1612
  827SOL    HW1 2480   0.767   1.158   0.182  1.1701 -2.7916  0.6836
  827SOL    HW2 2481   0.603   1.132   0.239 -0.6847 -0.0780  1.7482
  828SOL     OW 2482   2.580   0.148   1.593  0.5224  0.9800  0.6155
  828SOL    HW1 2483   2.489   0.140   1.537  0.9521  0.6027 -0.5648
  828SOL    HW2 2484   2.570   0.140   1.695  0.6620  1.6351  0.6166
  829SOL     OW 2485   2.768   2.490   3.017  0.2494 -0.3688 -0.0919
  829SOL    HW1 2486   2.703   2.408   3.014 -0.5536 -0.0338  1.5033
  829SOL    HW2 2487   2.727   2.571   3.070 -0.7840 -0.5021 -5.7785
  830SOL     OW 2488   2.804   0.961   3.054 -0.7303  0.6781  0.2738
  830SOL    HW1 2489   2.880   1.029   3.038 -0.2253  2.9426 -1.3935
  830SOL    HW2 2490   2.834   0.879   3.108  0.8122 -0.7213  1.3241
  831SOL     OW 2491   3.097   0.664   0.409 -0.2234  0.2724  0.2058
  831SOL    HW1 2492   3.069   0.606   0.490 -1.7144  1.0730  2.0933
  831SOL    HW2 2493   3.155   0.615   0.339 -0.5785 -1.2830  1.2717
  832SOL     OW 2494   1.814   0.749   2.983  0.0753 -0.0633 -0.4858
  832SOL    HW1 2495   1.720   0.784   2.957  3.1573  2.0578 -1.2369
  832SOL    HW2 2496   1.817   0.646   3.003  0.1239 -0.1835  2.5482
  833SOL     OW 2497   2.449   2.147   0.525 -0.8033  0.2582 -0.5187
  833SOL    HW1 2498   2.360   2.178   0.485 -0.5299 -1.6243  0.9945
  833SOL    HW2 2499   2.469   2.044   0.512 -1.5321 -1.7727  1.2090
  834SOL     OW 2500   0.205   0.217   0.479 -0.1720  0.3730 -0.2424
  834SOL    HW1 2501   0.244   0.126   0.482 -0.3327 -0.9611 -0.3367
  834SOL    HW2 2502   0.153   0.227   0.387  0.6733 -2.8476 -0.3026
  835SOL     OW 2503   2.314   1.574   1.085 -0.3342 -0.3249  0.0312
  835SOL    HW1 2504   2.252   1.641   1.036  1.0848 -0.4252 -3.8599
  835SOL    HW2 2505   2.405   1.562   1.031 -2.2245  0.7522  1.8433
  836SOL     OW 2506   1.615   0.828   2.590  0.2727 -0.0218  0.0975
  836SOL    HW1 2507   1.518   0.807   2.591  2.7809 -1.3290  1.8086
  836SOL    HW2 2508   1.655   0.839   2.498 -0.4260 -1.7138  1.2368
  837SOL     OW 2509   1.706   0.133   0.535 -0.1816 -0.1117 -0.3875
  837SOL    HW1 2510   1.678   0.194   0.616 -0.6183  0.5378  1.6142
  837SOL    HW2 2511   1.636   0.130   0.461 -1.0414 -0.1046 -0.6901
  838SOL     OW 2512   1.175   1.559   2.819  0.2237  0.3174  0.0985
  838SOL    HW1 2513   1.134   1.533   2.911 -0.7837 -1.2838 -1.1100
  838SOL    HW2 2514   1.128   1.505   2.742 -0.0276 -1.3522 -0.7829
  839SOL     OW 2515   1.695   0.314   1.035  0.1527 -0.2753 -0.2708
  839SOL    HW1 2516   1.714   0.388   1.107  0.0581  1.5984 -1.9012
  839SOL    HW2 2517   1.655   0.223   1.069  2.6217 -3.5866  1.0845
  840SOL     OW 2518   2.551   2.945   1.764  1.2479 -0.0892  0.4877
  840SOL    HW1 2519   2.513   2.926   1.674 -0.9200 -0.8608  2.2605
  840SOL    HW2 2520   2.538   2.869   1.833  0.0868  3.3172  0.1598
  841SOL     OW 2521   1.515   0.831   2.976 -0.1665 -0.0601  0.6446
  841SOL    HW1 2522   1.440   0.844   3.040 -0.2265 -1.1788 -0.2242
  841SOL    HW2 2523   1.521   0.901   2.903  0.3873 -1.1816  0.5204
  842SOL     OW 2524   0.812   1.552   0.958  1.1639 -0.2958 -0.3170
  842SOL    HW1 2525   0.779   1.634   1.012  0.1236 -2.4166 -0.0838
  842SOL    HW2 2526   0.727   1.502   0.917 -0.1575  2.7971 -0.4461
  843SOL     OW 2527   0.070   0.060   1.428  0.0795  0.0226  0.5485
  843SOL    HW1 2528   0.171   0.085   1.449  3.2666 -1.1350 -1.6996
  843SOL    HW2 2529   0.051  -0.039   1.453 -0.3323  2.2258  3.1783
  844SOL     OW 2530   0.804   2.537   0.304 -0.0765 -0.8716  0.2270
  844SOL    HW1 2531   0.743   2.503   0.384 -3.1453  1.6267  1.3743
  844SOL    HW2 2532   0.743   2.606   0.248 -1.6141 -1.1712 -3.1659
  845SOL     OW 2533   1.631   2.897   1.366 -0.4499  0.2758 -0.1295
  845SOL    HW1 2534   1.674   2.887   1.461  1.0528 -1.3739  0.3261
  845SOL    HW2 2535   1.527   2.890   1.368 -0.3977 -0.3923  1.4309
  846SOL     OW 2536   1.529   2.929   0.730  0.1424  0.1184  0.5277
  846SOL    HW1 2537   1.539   2.845   0.669 -0.5022  2.9146  0.9256
  846SOL    HW2 2538   1.613   2.942   0.790 -1.3389 -0.2089  0.4357
  847SOL     OW 2539   2.053   1.660   0.304  0.0098  0.2626 -0.3386
  847SOL    HW1 2540   2.003   1.584   0.361 -1.2128  1.2344  1.6171
  847SOL    HW2 2541   1.990   1.738   0.287  0.2970 -2.5778  2.2894
  848SOL     OW 2542   2.461   0.857   2.584  0.6749  0.0491  0.0107
  848SOL    HW1 2543   2.434   0.938   2.642 -1.3625 -2.3762 -0.1868
  848SOL    HW2 2544   2.402   0.771   2.588 -0.7665  0.0841  0.7244
  849SOL     OW 2545   2.596   0.805   2.342  0.1465  0.1415  0.1874
  849SOL    HW1 2546   2.678   0.756   2.377 -1.2655  0.4152 -1.5202
  849SOL    HW2 2547   2.532   0.829   2.423 -0.8352 -1.5663  1.1410
  850SOL     OW 2548   1.538   0.102   1.345 -0.1370  0.3347  0.1543
  850SOL    HW1 2549   1.563   0.073   1.248 -2.3420 -0.0597  3.7446
  850SOL    HW2 2550   1.464   0.049   1.389 -0.7988  0.2951 -4.3966
  851SOL     OW 2551   0.450   1.804   0.601 -0.1257  0.1530  0.1045
  851SOL    HW1 2552   0.483   1.891   0.638  0.2458 -0.5140 -0.7913
  851SOL    HW2 2553   0.515   1.769   0.528  0.2003 -0.9758  1.6940
  852SOL     OW 2554   0.764   2.134   1.660 -0.2757  0.1985  0.4721
  852SOL    HW1 2555   0.803   2.226   1.633  0.6229 -0.6005  0.5714
  852SOL    HW2 2556   0.700   2.124   1.743 -0.6354 -3.8430 -0.7201
  853SOL     OW 2557   2.575   1.490   2.586 -0.1808  0.1662 -0.0505
  853SOL    HW1 2558   2.500   1.423   2.565 -1.1238  2.0239 -0.3909
  853SOL    HW2 2559   2.589   1.562   2.517 -2.5178  1.6124 -1.3424
  854SOL     OW 2560   2.399   1.408   1.705  0.7790  0.2969 -0.4072
  854SOL    HW1 2561   2.417   1.419   1.600 -2.6903  1.1117 -0.8874
  854SOL    HW2 2562   2.357   1.318   1.736  1.0821 -1.9457 -0.6778
  855SOL     OW 2563   2.043   2.420   0.953  0.7301 -0.3550 -0.6298
  855SOL    HW1 2564   2.024   2.514   0.922  0.3455 -2.4600 -0.1900
  855SOL    HW2 2565   2.126   2.420   1.009 -2.1602 -1.0230 -0.5310
  856SOL     OW 2566   1.360   1.490   0.902 -0.3202  0.1675 -0.2843
  856SOL    HW1 2567   1.424   1.556   0.954 -0.4335  2.0028  0.1401
  856SOL    HW2 2568   1.264   1.507   0.926  1.8812 -1.5404 -0.8082
  857SOL     OW 2569   3.052   2.698   1.021  0.5528 -0.2427  0.1756
  857SOL    HW1 2570   2.990   2.622   0.983  0.2636 -3.0838 -0.5141
  857SOL    HW2 2571   3.144   2.661   1.040  0.4075  0.8130 -2.6310
  858SOL     OW 2572   2.326   2.015   1.712 -0.3154 -0.1525  0.8795
  858SOL    HW1 2573   2.250   1.956   1.663  0.3178 -2.9901  1.3241
  858SOL    HW2 2574   2.418   1.989   1.672  0.8690  1.3208 -0.4455
  859SOL     OW 2575   2.493   0.552   1.024  0.1097  0.2410  0.4075
  859SOL    HW1 2576   2.551   0.615   0.968  0.2228 -2.1444  0.8926
  859SOL    HW2 2577   2.536   0.461   1.033  1.2305  2.0000  0.1060
  860SOL     OW 2578   1.955   2.821   0.416 -0.1069 -0.0530  0.3783
  860SOL    HW1 2579   1.915   2.764   0.344 -1.5468  0.5516 -2.4073
  860SOL    HW2 2580   2.063   2.828   0.417  1.8077 -2.7724 -1.8534
  861SOL     OW 2581   1.106   2.463   2.856  0.2049  0.2538 -0.4966
  861SOL    HW1 2582   1.128   2.550   2.802 -2.1326 -0.4198 -0.4561
  861SOL    HW2 2583   1.089   2.482   2.958 -0.9211 -0.2948 -1.9783
  862SOL     OW 2584   2.830   2.576   1.610 -0.0968 -0.1312 -0.0215
  862SOL    HW1 2585   2.909   2.584   1.679  0.3358 -0.3814 -0.5273
  862SOL    HW2 2586   2.808   2.662   1.551 -1.4958 -0.6360 -2.2854
  863SOL     OW 2587   1.847   2.720   0.175  0.3478 -0.3440  0.0786
  863SOL    HW1 2588   1.889   2.631   0.208 -0.2742  1.2697  0.1945
  863SOL    HW2 2589   1.743   2.711   0.154  0.6703 -0.7912 -1.9246
  864SOL     OW 2590   1.908   1.192   2.852  0.0698 -0.0204 -0.0561
  864SOL    HW1 2591   1.899   1.127   2.769  0.4771 -0.6392  0.8291
  864SOL    HW2 2592   1.977   1.157   2.923  0.6126  1.5956  1.4201
  865SOL     OW 2593   2.213   1.807   0.619  0.2168  0.3158 -0.4197
  865SOL    HW1 2594   2.254   1.834   0.713  1.2651  2.4199 -1.2730
  865SOL    HW2 2595   2.110   1.806   0.628 -0.2926 -0.8145  3.0994
  866SOL     OW 2596   2.902   2.907   1.024  0.7022  0.2097  0.1386
  866SOL    HW1 2597   2.907   2.963   0.934  2.6100  1.3390 -1.0894
  866SOL    HW2 2598   2.954   2.818   1.025  1.8130 -0.1256 -0.2042
  867SOL     OW 2599   0.313   1.360   0.908  0.2866 -0.0341  0.0837
  867SOL    HW1 2600   0.332   1.292   0.832 -0.1589 -3.6476  0.8675
  867SOL    HW2 2601   0.252   1.438   0.877 -0.4259 -4.1252  0.7840
  868SOL     OW 2602   0.731   1.869   1.971 -0.3103  0.0029  0.3690
  868SOL    HW1 2603   0.694   1.848   2.067  0.0431 -0.7695 -1.1088
  868SOL    HW2 2604   0.707   1.967   1.944 -2.2244  1.4302 -2.9881
  869SOL     OW 2605   2.573   1.937   1.607  0.1225  0.2871 -0.4815
  869SOL    HW1 2606   2.659   1.992   1.610 -2.7368 -1.7850  1.1313
  869SOL    HW2 2607   2.585   1.846   1.654  0.2720 -0.5162 -1.1073
  870SOL     OW 2608   2.219   2.634   1.259  0.4777  0.2587  0.3201
  870SOL    HW1 2609   2.205   2.541   1.232  0.9922  0.8086  1.3412
  870SOL    HW2 2610   2.272   2.649   1.345 -1.4524  4.6496 -0.8351
  871SOL     OW 2611   3.027   2.213   0.526  0.0022 -0.2685  0.0588
  871SOL    HW1 2612   2.955   2.182   0.594  2.1453 -0.1052  2.7456
  871SOL    HW2 2613   2.990   2.259   0.440 -0.6527  0.7561  2.0696
  872SOL     OW 2614   2.112   0.517   1.687  0.5430 -0.8069 -0.3722
  872SOL    HW1 2615   2.059   0.508   1.777 -1.8402 -0.6728  0.1350
  872SOL    HW2 2616   2.204   0.468   1.700  0.0103 -0.1509  1.2588
  873SOL     OW 2617   1.719   2.125   3.035 -0.4348  0.4161 -0.7090
  873SOL    HW1 2618   1.637   2.168   3.080 -0.7695 -0.2283 -0.1092
  873SOL    HW2 2619   1.693   2.087   2.939  1.2240 -1.5152 -0.1173
  874SOL     OW 2620   0.696   2.454   0.760 -0.0937 -0.6552 -0.3126
  874SOL    HW1 2621   0.650   2.548   0.785  0.4351  1.2666 -1.9036
  874SOL    HW2 2622   0.792   2.444   0.795 -0.2332  0.4062 -1.6351
  875SOL     OW 2623   2.345   1.500   1.404  0.0178  0.4284  0.4816
  875SOL    HW1 2624   2.426   1.565   1.419 -1.0727  3.0079 -1.0699
  875SOL    HW2 2625   2.328   1.480   1.306 -2.7506  1.2072 -3.0707
  876SOL     OW 2626   0.078   2.233   2.752  0.6917 -0.0940  0.5032
  876SOL    HW1 2627   0.147   2.170   2.787 -2.9201  1.5194  1.5283
  876SOL    HW2 2628   0.094   2.335   2.768 -1.3319 -1.7273 -2.4391
  877SOL     OW 2629   2.910   2.665   0.579  0.3665 -0.4475 -0.2409
  877SOL    HW1 2630   2.905   2.768   0.595 -1.4554  2.2827 -0.3898
  877SOL    HW2 2631   2.949   2.611   0.661 -1.1542  1.2211  2.0269
  878SOL     OW 2632   2.761   1.485   2.248  0.0899  0.1174 -0.2557
  878SOL    HW1 2633   2.851   1.506   2.206 -0.4667 -0.8944  1.0964
  878SOL    HW2 2634   2.745   1.531   2.342 -0.2075  1.9556 -2.0601
  879SOL     OW 2635   2.380   0.105   1.231 -0.1606 -0.3497  0.2375
  879SOL    HW1 2636   2.422   0.011   1.260 -2.2984 -1.9598  1.0843
  879SOL    HW2 2637   2.324   0.096   1.144 -0.1170  0.4917 -0.8175
  880SOL     OW 2638   0.753   0.494   2.224 -0.4056  0.2290  0.5933
  880SOL    HW1 2639   0.709   0.443   2.306 -2.3714  0.0149 -0.6544
  880SOL    HW2 2640   0.816   0.430   2.170 -1.7407 -0.0588 -1.1900
  881SOL     OW 2641   0.869   0.051   0.496 -0.4970  0.4233 -0.4188
  881SOL    HW1 2642   0.902  -0.044   0.496 -3.6910 -1.5187 -1.4599
  881SOL    HW2 2643   0.776   0.058   0.460  0.8756 -3.0290 -0.4730
  882SOL     OW 2644   2.707   1.684   1.703  0.1296 -0.0704  0.5513
  882SOL    HW1 2645   2.802   1.677   1.656  1.4572  1.9355 -1.2814
  882SOL    HW2 2646   2.708   1.674   1.809 -1.3493  3.8734 -0.5980
  883SOL     OW 2647   0.909   0.551   0.942  0.5742  0.4878  0.4626
  883SOL    HW1 2648   0.917   0.649   0.979  1.9773  0.8214  1.8843
  883SOL    HW2 2649   0.905   0.483   1.017 -0.3297  0.0638  1.0060
  884SOL     OW 2650   1.186   1.728   1.182  0.7294  0.1458  0.1430
  884SOL    HW1 2651   1.160   1.654   1.114  2.1986  3.2776 -1.4961
  884SOL    HW2 2652   1.173   1.825   1.143  2.5118  3.8077 -3.2857
  885SOL     OW 2653   2.316   1.782   2.298 -0.1149 -0.5835  0.0090
  885SOL    HW1 2654   2.230   1.749   2.348 -1.4607  1.6182  0.7698
  885SOL    HW2 2655   2.286   1.873   2.250 -1.9029 -0.2193  2.2820
  886SOL     OW 2656   2.604   0.389   1.796 -0.1200  0.5437 -0.3059
  886SOL    HW1 2657   2.602   0.306   1.860 -0.3270  0.5307 -2.2315
  886SOL    HW2 2658   2.693   0.436   1.787  0.8726 -0.3903  0.6506
  887SOL     OW 2659   0.108   1.988   1.352 -0.3994  0.8236 -0.0588
  887SOL    HW1 2660   0.038   1.955   1.282  0.2162 -0.6507 -1.7044
  887SOL    HW2 2661   0.132   2.088   1.336  1.8995  0.4003 -1.9048
  888SOL     OW 2662   0.571   1.211   1.532  0.1344  0.3254 -0.3691
  888SOL    HW1 2663   0.591   1.257   1.441 -0.2536  0.2896  1.1063
  888SOL    HW2 2664   0.514   1.128   1.526  0.7545  1.1869  1.2224
  889SOL     OW 2665   0.812   2.466   2.177  0.4270 -0.0456  0.0741
  889SOL    HW1 2666   0.737   2.395   2.179 -1.7541  1.6842 -0.2172
  889SOL    HW2 2667   0.837   2.485   2.080  0.4577  0.9069 -3.1188
  890SOL     OW 2668   2.420   2.424   0.226 -0.2023  0.0618 -0.2874
  890SOL    HW1 2669   2.422   2.474   0.137  0.5197 -0.1281 -0.3592
  890SOL    HW2 2670   2.359   2.469   0.297  1.2690  4.3290 -1.4748
  891SOL     OW 2671   2.550   1.724   0.722  0.4247 -0.0490  0.4311
  891SOL    HW1 2672   2.575   1.692   0.820  0.9222 -0.9170 -0.6223
  891SOL    HW2 2673   2.469   1.672   0.672  0.5313 -1.7275  1.6887
  892SOL     OW 2674   0.352   0.314   2.241  0.1681  0.3040 -0.3611
  892SOL    HW1 2675   0.360   0.382   2.166  1.9131  1.7209  1.2676
  892SOL    HW2 2676   0.413   0.338   2.321 -1.9065 -1.1812 -0.3752
  893SOL     OW 2677   1.696   0.243   2.731  0.5946  0.5376  0.1221
  893SOL    HW1 2678   1.774   0.293   2.776  1.2178 -1.9281  0.5549
  893SOL    HW2 2679   1.614   0.303   2.717 -1.7878 -0.1941  1.2110
  894SOL     OW 2680   2.113   2.038   0.019 -0.3197 -0.3177 -0.2864
  894SOL    HW1 2681   2.105   2.015  -0.078  1.0454  1.5074  1.6605
  894SOL    HW2 2682   2.127   1.955   0.081 -0.4005  1.1475 -0.6939
  895SOL     OW 2683   2.819   1.427   0.943 -0.4610 -0.4018 -0.4073
  895SOL    HW1 2684   2.909   1.381   0.934 -1.8543  2.6226 -1.5179
  895SOL    HW2 2685   2.828   1.531   0.962 -0.2601  3.1616 -2.5966
  896SOL     OW 2686   1.769   1.806   1.194  0.5516  0.0360  0.3630
  896SOL    HW1 2687   1.797   1.737   1.122  2.0929  0.2052  0.8559
  896SOL    HW2 2688   1.719   1.889   1.153  0.5076  0.2363 -0.2028
  897SOL     OW 2689   0.329   0.539   3.067  0.5973 -0.2010  0.7758
  897SOL    HW1 2690   0.301   0.591   2.978  1.5228 -0.3893  0.0012
  897SOL    HW2 2691   0.412   0.586   3.105 -0.2628 -0.1146 -2.9661
  898SOL     OW 2692   0.554   2.870   1.091  0.2216 -0.1068 -0.1054
  898SOL    HW1 2693   0.519   2.962   1.122 -1.5701 -1.0250 -0.2974
  898SOL    HW2 2694   0.643   2.836   1.137  0.5829 -0.9258  1.2465
  899SOL     OW 2695   2.833   0.925   1.280 -0.0340 -0.0926  0.3631
  899SOL    HW1 2696   2.760   0.925   1.203 -0.3721  1.8379 -0.5416
  899SOL    HW2 2697   2.924   0.958   1.239  2.6687 -0.7177  3.4132
  900SOL     OW 2698   0.976   2.536   2.420 -0.7993  0.0239 -0.0460
  900SOL    HW1 2699   0.935   2.525   2.326  0.1304 -0.0995  0.5881
  900SOL    HW2 2700   0.923   2.479   2.494 -1.0734 -4.5174  3.5735
  901SOL     OW 2701   1.914   2.346   1.374  0.3296 -0.2502  0.3675
  901SOL    HW1 2702   1.896   2.301   1.281  0.5966  0.9044 -0.5832
  901SOL    HW2 2703   2.002   2.310   1.419 -0.2114  2.6107 -1.0806
  902SOL     OW 2704   2.572   1.655   1.460  0.4592 -0.4412 -0.1612
  902SOL    HW1 2705   2.611   1.655   1.557  0.5120  1.2916 -0.5699
  902SOL    HW2 2706   2.641   1.621   1.392  1.3463  0.2358 -1.6323
  903SOL     OW 2707   0.241   2.466   1.966 -0.2250  0.0159 -0.2942
  903SOL    HW1 2708   0.155   2.425   1.927 -0.5561 -0.9849  0.0654
  903SOL    HW2 2709   0.264   2.554   1.913  0.4065  2.4424 -0.4605
  904SOL     OW 2710   2.036   0.809   2.523  0.0009  0.3585 -0.4910
  904SOL    HW1 2711   1.959   0.747   2.559 -1.3687 -2.3175  0.5802
  904SOL    HW2 2712   2.053   0.808   2.421  1.7094  2.7848  1.1071
  905SOL     OW 2713   2.849   0.109   2.564  0.0549 -0.8559 -0.0459
  905SOL    HW1 2714   2.911   0.024   2.563  2.2889 -0.1103 -1.7121
  905SOL    HW2 2715   2.895   0.204   2.558  0.7267  1.3583 -0.4737
  906SOL     OW 2716   0.202   1.691   1.923 -0.2303 -0.0689  0.2894
  906SOL    HW1 2717   0.127   1.710   1.851 -1.2286  5.1825 -0.7212
  906SOL    HW2 2718   0.270   1.770   1.918  1.0520  2.0925 -1.1409
  907SOL     OW 2719   0.263   2.447   1.035  0.0059  0.5942 -0.1066
  907SOL    HW1 2720   0.349   2.396   1.012 -1.4235 -1.1700  1.6799
  907SOL    HW2 2721   0.208   2.477   0.953 -3.4197 -4.7696 -1.1885
  908SOL     OW 2722   2.780   2.985   0.357 -0.7144 -0.2404  0.2374
  908SOL    HW1 2723   2.743   3.046   0.279  0.2431  3.8075 -0.6875
  908SOL    HW2 2724   2.825   2.899   0.322  0.2945  0.8636  0.6400
  909SOL     OW 2725   0.798   1.044   2.647 -1.0430 -0.2425 -0.2195
  909SOL    HW1 2726   0.747   0.962   2.608  3.7042 -1.4659  0.4601
  909SOL    HW2 2727   0.873   1.075   2.582 -1.7688 -0.3544  2.2091
  910SOL     OW 2728   1.761   1.877   2.169 -0.4509  0.4529  0.2259
  910SOL    HW1 2729   1.796   1.907   2.078 -1.8351 -0.4428 -1.4277
  910SOL    HW2 2730   1.685   1.929   2.210  0.9932 -1.9905  0.2433
  911SOL     OW 2731   1.812   2.943   1.597 -0.2229 -0.3091  0.1782
  911SOL    HW1 2732   1.877   2.923   1.517  0.0695  0.1420 -2.0627
  911SOL    HW2 2733   1.807   2.860   1.660  3.5419  1.4836  1.7767
  912SOL     OW 2734   2.860   0.991   0.719 -0.2320  0.2122 -0.4354
  912SOL    HW1 2735   2.902   0.946   0.807  2.4855 -2.0201 -1.4867
  912SOL    HW2 2736   2.819   1.086   0.729 -1.1149  0.8859 -0.8767
  913SOL     OW 2737   2.570   1.284   1.506  0.3139  0.0201  0.0049
  913SOL    HW1 2738   2.593   1.183   1.511  1.8809 -1.0043 -0.6879
  913SOL    HW2 2739   2.612   1.333   1.423 -2.4103 -1.4030 -1.7590
  914SOL     OW 2740   2.802   0.615   1.215  0.4172  0.1406  0.2199
  914SOL    HW1 2741   2.751   0.531   1.242 -0.3269  2.0863  1.4832
  914SOL    HW2 2742   2.768   0.694   1.271 -0.1930 -1.3531  2.8678
  915SOL     OW 2743   1.172   0.736   1.090 -0.1390  0.9614 -0.0640
  915SOL    HW1 2744   1.226   0.782   1.166 -1.9157  1.5764  4.5865
  915SOL    HW2 2745   1.071   0.735   1.107  1.4232 -2.0071  0.8205
  916SOL     OW 2746   0.598   0.019   0.623  0.3964 -0.2166  0.4734
  916SOL    HW1 2747   0.635   0.100   0.682  0.4096  0.3917  1.8027
  916SOL    HW2 2748   0.584   0.054   0.523 -1.1673 -1.1136  2.1301
  917SOL     OW 2749   2.842   2.616   1.979 -0.4458 -0.2260  0.0162
  917SOL    HW1 2750   2.745   2.609   1.939 -2.0940  2.2687  1.1719
  917SOL    HW2 2751   2.889   2.703   1.947  1.2883  1.1585 -1.3622
  918SOL     OW 2752   1.014   2.125   3.055  0.2478  0.1712  0.2910
  918SOL    HW1 2753   1.003   2.212   3.110  0.5925  1.5963  0.5730
  918SOL    HW2 2754   1.083   2.148   2.980  0.6526  4.4600  0.5822
  919SOL     OW 2755   0.855   1.634   2.888 -0.2546  0.3929  0.3489
  919SOL    HW1 2756   0.898   1.714   2.837  0.5961  0.4328 -0.9875
  919SOL    HW2 2757   0.798   1.567   2.830 -1.3574 -0.8996 -0.7561
  920SOL     OW 2758   1.200   1.857   2.492 -0.5263 -0.4357  0.0266
  920SOL    HW1 2759   1.271   1.804   2.443  0.6585  0.8856  2.9476
  920SOL    HW2 2760   1.198   1.829   2.591  3.0363 -0.7183 -0.1023
  921SOL     OW 2761   1.050   0.024   2.610 -0.0354 -0.0212  0.1616
  921SOL    HW1 2762   1.010  -0.032   2.532  0.6166 -0.1181  1.9267
  921SOL    HW2 2763   0.983   0.074   2.661  0.0924 -0.2262 -0.7188
  922SOL     OW 2764   2.154   2.385   2.783 -0.6698  0.2077  0.3221
  922SOL    HW1 2765   2.172   2.285   2.768 -1.8491 -0.5944 -1.7262
  922SOL    HW2 2766   2.111   2.430   2.696 -4.0425 -1.3480 -1.4226
  923SOL     OW 2767   1.268   2.665   0.270 -0.2309  0.3963 -0.2428
  923SOL    HW1 2768   1.336   2.746   0.291  1.2187  2.9074 -0.1091
  923SOL    HW2 2769   1.315   2.569   0.275  1.2906 -0.5462 -0.3258
  924SOL     OW 2770   2.856   1.559   0.172  0.5260 -0.4487 -0.5573
  924SOL    HW1 2771   2.777   1.579   0.104 -1.0936 -1.9366 -0.4747
  924SOL    HW2 2772   2.945   1.529   0.127 -0.7485 -1.6564 -1.7450
  925SOL     OW 2773   3.101   2.871   1.511 -0.5575  0.2108  0.3489
  925SOL    HW1 2774   3.027   2.900   1.573 -1.3558 -0.7524  2.6812
  925SOL    HW2 2775   3.072   2.813   1.429  0.3881  0.9162 -2.2188
  926SOL     OW 2776   1.303   2.796   1.266  0.2499  0.1664 -0.1233
  926SOL    HW1 2777   1.364   2.801   1.180 -1.5187 -0.6482 -2.5800
  926SOL    HW2 2778   1.314   2.881   1.324 -1.9633  1.0267 -0.4694
  927SOL     OW 2779   0.333   2.672   1.776  0.1750 -0.2392 -0.1320
  927SOL    HW1 2780   0.296   2.588   1.727  0.5670 -2.3151 -1.3034
  927SOL    HW2 2781   0.275   2.756   1.756  0.5522 -0.7380  0.5026
  928SOL     OW 2782   1.546   2.050   2.281 -0.5694 -0.2223  0.2674
  928SOL    HW1 2783   1.594   2.127   2.230 -2.4962 -0.0673 -1.0563
  928SOL    HW2 2784   1.447   2.058   2.275  2.1159  2.4701  0.7687
  929SOL     OW 2785   2.403   2.504   2.866  0.6531 -0.4332  0.0270
  929SOL    HW1 2786   2.307   2.470   2.852 -1.6509 -1.2506  0.9251
  929SOL    HW2 2787   2.455   2.487   2.779 -0.7917 -2.1295 -1.4249
  930SOL     OW 2788   2.203   2.014   1.084  0.5106  0.3328 -0.3115
  930SOL    HW1 2789   2.196   1.940   1.162  0.8954  1.8390  1.1499
  930SOL    HW2 2790   2.292   2.061   1.087  0.0272 -1.8678  0.8474
  931SOL     OW 2791   0.537   1.713   2.735  0.1047 -0.0360  0.2799
  931SOL    HW1 2792   0.583   1.747   2.822  1.5380  1.6744 -1.3400
  931SOL    HW2 2793   0.573   1.618   2.720 -1.2177 -2.1436 -1.0268
  932SOL     OW 2794   0.483   0.146   3.003  0.0539  0.2054 -0.5265
  932SOL    HW1 2795   0.558   0.198   3.053 -2.8492  0.0245 -2.9390
  932SOL    HW2 2796   0.483   0.043   3.011 -2.5504 -0.3534  0.9959
  933SOL     OW 2797   1.004   0.795   3.076  0.1325 -0.0750 -1.1328
  933SOL    HW1 2798   1.025   0.833   3.174 -0.1691  0.6729 -0.0900
  933SOL    HW2 2799   0.968   0.870   3.013  2.8770  0.7544 -0.1699
  934SOL     OW 2800   0.781   2.968   2.657 -0.1495  0.3387 -0.7878
  934SOL    HW1 2801   0.778   2.919   2.566  0.3148 -0.9850  0.4734
  934SOL    HW2 2802   0.851   2.930   2.724  0.4649 -2.3540 -0.2306
  935SOL     OW 2803   0.034   0.567   0.823 -0.2906  0.0468 -0.2741
  935SOL    HW1 2804   0.006   0.529   0.736 -1.6418 -0.3172  0.5656
  935SOL    HW2 2805  -0.043   0.615   0.874 -1.5541  1.4091  0.8339
  936SOL     OW 2806   1.117   2.773   0.078 -0.3591  0.4981 -0.0182
  936SOL    HW1 2807   1.180   2.832   0.015 -0.9097  0.9589 -1.7350
  936SOL    HW2 2808   1.165   2.714   0.148  1.2467  1.4695  0.5709
  937SOL     OW 2809   1.898   2.635   2.101  0.1849 -0.2671 -0.1864
  937SOL    HW1 2810   1.814   2.639   2.168 -0.5003  0.2974 -0.0633
  937SOL    HW2 2811   1.926   2.721   2.049  3.5107 -0.6038  0.0866
  938SOL     OW 2812   2.776   2.103   1.612  0.5660  0.6053 -0.0073
  938SOL    HW1 2813   2.741   2.200   1.615 -1.9582 -2.7522  1.3927
  938SOL    HW2 2814   2.874   2.092   1.643  0.7210  0.9404  0.9517
  939SOL     OW 2815   2.884   1.214   2.429 -0.0894 -0.3293 -0.5193
  939SOL    HW1 2816   2.951   1.177   2.356  2.4425 -0.3410  1.2510
  939SOL    HW2 2817   2.907   1.186   2.528  1.8858 -0.5665 -0.7956
  940SOL     OW 2818   1.031   0.399   2.729 -0.1343 -0.2550 -0.5962
  940SOL    HW1 2819   1.108   0.332   2.753 -1.9245  0.3079 -0.8515
  940SOL    HW2 2820   0.974   0.376   2.646  0.6259 -0.9623  1.4054
  941SOL     OW 2821   0.064   2.790   2.267 -0.5423 -0.1736 -0.2362
  941SOL    HW1 2822   0.107   2.694   2.246  1.7631 -0.4015  0.3566
  941SOL    HW2 2823   0.129   2.859   2.310  1.4614  1.5217  1.0028
  942SOL     OW 2824   0.145   0.069   2.554 -0.0063  0.6737  0.1091
  942SOL    HW1 2825   0.192   0.090   2.640 -1.6852  2.0690 -0.4559
  942SOL    HW2 2826   0.118   0.149   2.498 -1.2910 -2.3520  0.4818
  943SOL     OW 2827   2.098   1.669   2.405  0.0903  0.4209  0.0536
  943SOL    HW1 2828   2.068   1.637   2.314 -0.1889  4.3952  2.7178
  943SOL    HW2 2829   2.102   1.598   2.479 -0.5629  1.3079  1.1135
  944SOL     OW 2830   2.170   2.323   1.461  0.3089  0.1674  0.2000
  944SOL    HW1 2831   2.253   2.369   1.495 -1.1018 -0.5019  1.1815
  944SOL    HW2 2832   2.128   2.248   1.518  0.1818  2.1020  1.5472
  945SOL     OW 2833   0.673   1.502   0.234 -0.1925 -0.2760  0.4062
  945SOL    HW1 2834   0.598   1.515   0.163  1.0687 -1.8184 -1.4895
  945SOL    HW2 2835   0.710   1.408   0.232 -0.7626  0.3413  0.3257
  946SOL     OW 2836   0.423   0.919   2.453 -0.2628  0.0725 -0.2110
  946SOL    HW1 2837   0.329   0.879   2.431 -3.3266  0.0228  1.9094
  946SOL    HW2 2838   0.418   1.013   2.492 -0.7268  1.1066  0.3449
  947SOL     OW 2839   1.539   0.532   3.075 -0.2401 -0.1712 -0.3555
  947SOL    HW1 2840   1.524   0.593   2.992  1.2943 -3.5859  2.3335
  947SOL    HW2 2841   1.460   0.468   3.100 -1.0359  0.0397 -0.5124
  948SOL     OW 2842   1.836   3.044   2.143  0.3534  0.4097 -0.0369
  948SOL    HW1 2843   1.882   2.995   2.065  0.2266  0.5920  4.4965
  948SOL    HW2 2844   1.815   2.983   2.226  0.1048 -2.5088  0.2304
  949SOL     OW 2845   0.608   2.466   0.492  0.0986  0.2468  0.6114
  949SOL    HW1 2846   0.618   2.570   0.481 -1.9067 -0.3508 -1.7707
  949SOL    HW2 2847   0.661   2.414   0.566  1.9248 -0.6485 -2.4416
  950SOL     OW 2848   0.197   2.221   3.066  0.1355 -0.3343 -0.0524
  950SOL    HW1 2849   0.139   2.287   3.017  0.4103 -0.0677  2.2295
  950SOL    HW2 2850   0.235   2.141   3.010 -0.0119 -1.9188 -0.2962
  951SOL     OW 2851   1.239   2.686   2.765  0.5242  0.1943 -1.1228
  951SOL    HW1 2852   1.277   2.675   2.862  0.8296 -1.4141 -1.5450
  951SOL    HW2 2853   1.308   2.690   2.694  0.2315  2.8459  0.3335
  952SOL     OW 2854   0.013   1.702   0.380  0.3757  0.8343  0.1157
  952SOL    HW1 2855   0.084   1.773   0.366 -2.8549 -0.0257  1.4809
  952SOL    HW2 2856   0.023   1.667   0.477  1.5264  1.6652 -5.5755
  953SOL     OW 2857   2.541   1.794   0.208  0.0838 -0.3331  0.2521
  953SOL    HW1 2858   2.512   1.693   0.227 -2.8098 -3.0091 -4.6158
  953SOL    HW2 2859   2.520   1.825   0.109  1.7860 -1.2836  1.7916
  954SOL     OW 2860   2.231   0.539   0.919  0.0979  0.2381  0.3634
  954SOL    HW1 2861   2.202   0.573   0.826 -0.0538  0.0661 -1.6796
  954SOL    HW2 2862   2.333   0.540   0.937  0.3694 -0.2779  1.2028
  955SOL     OW 2863   0.174   2.594   1.307 -0.1807 -0.2868 -0.2873
  955SOL    HW1 2864   0.073   2.618   1.287  0.8050  0.7986 -0.1356
  955SOL    HW2 2865   0.236   2.611   1.230 -1.3474  0.6209 -1.7149
  956SOL     OW 2866   2.835   2.440   2.510 -0.6225 -0.2388 -0.3981
  956SOL    HW1 2867   2.850   2.343   2.474  0.4194  1.5873 -0.5036
  956SOL    HW2 2868   2.870   2.515   2.444  3.5434  0.1423 -1.7511
  957SOL     OW 2869   1.660   2.059   2.781 -0.5103  0.1608  0.3644
  957SOL    HW1 2870   1.624   1.965   2.780 -0.0406  0.9542 -3.0484
  957SOL    HW2 2871   1.678   2.098   2.688  0.7524  1.9065  1.1041
  958SOL     OW 2872   2.551   2.306   3.002  0.0520  0.3333 -0.2203
  958SOL    HW1 2873   2.489   2.378   2.954  3.2995  2.9061  0.5877
  958SOL    HW2 2874   2.502   2.221   3.037 -0.2707 -0.1029 -2.4409
  959SOL     OW 2875   0.248   2.805   0.052  0.0458  0.2185  0.2229
  959SOL    HW1 2876   0.156   2.785   0.010  0.8360 -1.0594  0.1433
  959SOL    HW2 2877   0.291   2.720   0.089 -0.1155  1.1857 -3.7816
  960SOL     OW 2878   2.008   0.489   1.935  1.3659  0.0023  0.1404
  960SOL    HW1 2879   1.941   0.571   1.930 -2.1244  0.8995 -0.8030
  960SOL    HW2 2880   2.024   0.461   2.034 -2.3579 -3.3192 -0.4107
  961SOL     OW 2881   2.564   1.857   0.996  0.2331 -0.3191  0.1818
  961SOL    HW1 2882   2.579   1.955   0.954 -0.8034  0.1705 -2.3895
  961SOL    HW2 2883   2.551   1.866   1.098  0.8894 -0.2880  0.7591
  962SOL     OW 2884   1.319   0.940   0.036 -0.0281  0.4975  0.2251
  962SOL    HW1 2885   1.278   0.981  -0.048  1.0461  1.8086 -0.0258
  962SOL    HW2 2886   1.312   1.011   0.114 -1.7589  0.5571 -1.2895
  963SOL     OW 2887   2.215   2.568   1.828  0.1418  0.1783  0.6318
  963SOL    HW1 2888   2.183   2.472   1.860 -0.4894 -0.2103 -0.0111
  963SOL    HW2 2889   2.249   2.631   1.906 -0.0833 -1.4899 -1.8483
  964SOL     OW 2890   2.353   0.380   1.673  0.0235 -0.1933  0.2855
  964SOL    HW1 2891   2.449   0.401   1.718 -0.2738  0.1218  1.6288
  964SOL    HW2 2892   2.355   0.382   1.569 -0.8425 -0.6164 -2.0068
  965SOL     OW 2893   2.640   3.062   0.141  0.0337  0.5529  0.0269
  965SOL    HW1 2894   2.691   3.043   0.051 -2.6842 -0.0475 -1.9808
  965SOL    HW2 2895   2.537   3.067   0.123 -2.5420 -0.3306 -0.6888
  966SOL     OW 2896   2.629   2.578   2.195  0.3160 -0.0603 -0.2217
  966SOL    HW1 2897   2.690   2.644   2.248 -0.6194  1.1086 -1.7141
  966SOL    HW2 2898   2.535   2.611   2.172  0.6457 -0.2942 -1.0575
  967SOL     OW 2899   2.793   2.831   2.493  0.7181  0.0157  0.0975
  967SOL    HW1 2900   2.823   2.777   2.409 -0.0110 -1.3019  1.0680
  967SOL    HW2 2901   2.861   2.908   2.515  2.3278  0.9650 -0.6169
  968SOL     OW 2902   1.902   1.046   2.628  0.0928 -0.4953 -0.0760
  968SOL    HW1 2903   1.824   1.090   2.573  1.1038 -2.8165  1.3928
  968SOL    HW2 2904   1.945   0.973   2.578 -1.1688  1.5170 -0.8947
  969SOL     OW 2905   2.856   2.465   1.120 -0.1134 -1.0937  0.5200
  969SOL    HW1 2906   2.804   2.464   1.030  1.2839 -1.9865 -0.4403
  969SOL    HW2 2907   2.859   2.373   1.167 -1.0095 -2.4563  0.2304
  970SOL     OW 2908   1.020   2.086   1.814  0.1562 -0.0064  0.3464
  970SOL    HW1 2909   0.940   2.112   1.752 -1.5931  1.7424  1.4039
  970SOL    HW2 2910   1.021   2.149   1.899  1.1361  0.5521  0.5753
  971SOL     OW 2911   2.927   2.097   1.952 -0.2800 -0.2088 -0.3592
  971SOL    HW1 2912   2.915   2.199   1.972  1.9959 -0.3986 -0.4729
  971SOL    HW2 2913   2.980   2.072   1.863  1.4750  2.7514 -4.4513
  972SOL     OW 2914   1.980   2.481   0.238 -0.0648 -0.1889 -0.7137
  972SOL    HW1 2915   1.982   2.396   0.175  0.8425  1.6512  0.9186
  972SOL    HW2 2916   2.013   2.471   0.339  0.1600  1.6821  2.0334
  973SOL     OW 2917   1.278   1.035   1.902  0.1701 -0.4423  0.4170
  973SOL    HW1 2918   1.226   1.044   1.812 -0.3796 -2.9982  1.1423
  973SOL    HW2 2919   1.244   1.106   1.971 -1.4662  2.5439 -1.8347
  974SOL     OW 2920   1.618   0.555   1.989 -0.2395  0.4271  0.2146
  974SOL    HW1 2921   1.705   0.589   1.944  1.1591 -0.0229  0.0794
  974SOL    HW2 2922   1.542   0.615   1.951 -1.9376  0.4554  2.2418
  975SOL     OW 2923   2.357   3.049   0.063  0.2034  0.1164  0.4919
  975SOL    HW1 2924   2.313   2.954   0.078  0.6061 -0.7127 -3.1648
  975SOL    HW2 2925   2.350   3.072  -0.039  0.0962 -0.2734 -0.2670
  976SOL     OW 2926   1.911   2.854   2.362  0.4810  0.0744  0.5992
  976SOL    HW1 2927   1.807   2.829   2.366 -1.0944 -0.9851 -0.1446
  976SOL    HW2 2928   1.962   2.817   2.440  0.3407  2.6024  1.6656
  977SOL     OW 2929   0.455   0.653   1.007 -0.5744 -0.3152 -0.3973
  977SOL    HW1 2930   0.388   0.661   0.931 -0.8984  0.1044 -1.8641
  977SOL    HW2 2931   0.543   0.632   0.958  0.4412  0.3143  0.0114
   3.10000   3.10000   3.10000
