1000 SPC/Fw water molecules t=   0.16000 step= 160
 2931
    1SOL     OW    1   2.534   0.331   2.565 -0.2700 -0.2118 -0.6530
    1SOL    HW1    2   2.545   0.228   2.549  1.7022  0.3788 -1.0947
    1SOL    HW2    3   2.582   0.366   2.655  0.3275  1.9564 -1.9431
    2SOL     OW    4   2.717   3.013   1.422 -0.4543  0.2323 -0.0249
    2SOL    HW1    5   2.791   3.077   1.380 -2.1465  1.6481 -2.2389
    2SOL    HW2    6   2.656   3.068   1.480  1.5224 -1.3690 -0.0748
    3SOL     OW    7   2.730   2.572   0.418  0.5076  0.0118 -0.8782
    3SOL    HW1    8   2.716   2.468   0.433 -1.3345  0.2090  4.2993
    3SOL    HW2    9   2.771   2.619   0.501  3.0428 -0.5065 -1.0028
    4SOL     OW   10   1.329   1.458   2.329  0.3324  0.2504  0.2800
    4SOL    HW1   11   1.260   1.524   2.367 -0.2510  1.0741 -1.0203
    4SOL    HW2   12   1.343   1.373   2.384 -1.0479 -1.6789  0.9544
    5SOL     OW   13   1.189   1.493   3.067 -0.2225  0.0674 -0.1533
    5SOL    HW1   14   1.220   1.586   3.103  1.9940  1.3815  1.6778
    5SOL    HW2   15   1.085   1.485   3.062 -1.2780  0.6229  2.6470
    6SOL     OW   16   0.116   1.868   2.941 -0.4447  0.1119 -0.1750
    6SOL    HW1   17   0.109   1.936   3.014 -0.9796 -3.3172  0.4011
    6SOL    HW2   18   0.085   1.778   2.974 -0.4895 -1.7854 -1.4923
    7SOL     OW   19   2.603   0.808   1.165 -0.3070  0.2659 -0.3104
    7SOL    HW1   20   2.513   0.761   1.184  0.9328 -0.8846  0.8454
    7SOL    HW2   21   2.616   0.808   1.066 -1.1337  0.5173  2.2632
    8SOL     OW   22   0.464   0.682   1.540  0.1488 -0.1945 -0.4802
    8SOL    HW1   23   0.511   0.595   1.567 -0.9180 -3.3225  1.7507
    8SOL    HW2   24   0.420   0.668   1.447 -1.4314  1.1058 -0.3317
    9SOL     OW   25   1.184   0.919   2.271  0.6984  0.2281  0.1192
    9SOL    HW1   26   1.258   0.973   2.222 -2.6316  0.4962 -0.6617
    9SOL    HW2   27   1.105   0.913   2.207 -2.2480  2.4447 -0.0388
   10SOL     OW   28   0.646   1.345   1.274  0.3360 -0.0031 -0.6233
   10SOL    HW1   29   0.560   1.359   1.216 -1.9562 -0.5580 -2.4944
   10SOL    HW2   30   0.713   1.418   1.270 -3.6747  0.3082 -1.5188
   11SOL     OW   31   2.300   2.573   0.928  0.4252  0.5369  0.3151
   11SOL    HW1   32   2.320   2.626   1.014 -0.4402 -1.2238 -0.7641
   11SOL    HW2   33   2.368   2.494   0.923  1.3357 -2.5679  2.5485
   12SOL     OW   34   1.451   0.902   0.481  0.5851  0.2191 -0.0419
   12SOL    HW1   35   1.366   0.958   0.464  0.9393 -0.2278  1.4817
   12SOL    HW2   36   1.454   0.818   0.417  1.6912 -0.1416  1.6688
   13SOL     OW   37   2.473   0.657   1.802  0.1053 -0.1129  0.0995
   13SOL    HW1   38   2.382   0.662   1.852 -0.3900  0.9989  0.7499
   13SOL    HW2   39   2.460   0.625   1.704  0.5720 -1.4197  1.2742
   14SOL     OW   40   1.850   3.073   0.557  0.5748 -0.1308  0.3463
   14SOL    HW1   41   1.772   3.103   0.500  1.1068  1.6337  0.8012
   14SOL    HW2   42   1.834   3.089   0.658  2.0008 -1.8189  2.1366
   15SOL     OW   43   1.961   2.062   2.834 -0.3004 -0.3066  0.3031
   15SOL    HW1   44   1.915   2.156   2.844 -0.2742  0.0146  0.3452
   15SOL    HW2   45   1.913   2.001   2.767  2.7621 -0.2013 -0.3196
   16SOL     OW   46   1.571   1.716   0.061  0.3755 -0.2891  0.8015
   16SOL    HW1   47   1.583   1.621   0.020  0.0142 -1.5923  0.5190
   16SOL    HW2   48   1.618   1.722   0.154  4.3321  1.6288 -0.4670
   17SOL     OW   49   0.130   0.409   0.175  0.3597  0.3325 -0.5324
   17SOL    HW1   50   0.199   0.476   0.136 -0.3274  0.4579  0.5535
   17SOL    HW2   51   0.060   0.384   0.104 -2.3791 -0.3972  4.4200
   18SOL     OW   52   1.106   2.873   2.144  0.1047 -0.3633 -0.3079
   18SOL    HW1   53   1.052   2.938   2.091  2.1962 -0.8424  1.3741
   18SOL    HW2   54   1.171   2.816   2.084  0.6586  0.1690  0.5915
   19SOL     OW   55   0.529   1.008   1.937 -0.6793  0.1490 -0.8078
   19SOL    HW1   56   0.465   1.019   2.022  0.1755  2.1172  1.5815
   19SOL    HW2   57   0.624   0.975   1.965 -0.7436  1.5643  0.7168
   20SOL     OW   58   0.268   2.760   0.862  0.0482 -0.1279  0.4496
   20SOL    HW1   59   0.164   2.785   0.851 -2.3787 -0.3982 -0.2628
   20SOL    HW2   60   0.304   2.706   0.782 -1.0374 -0.9925 -1.0957
   21SOL     OW   61   2.786   0.235   2.153  0.0882  0.0356 -0.2824
   21SOL    HW1   62   2.862   0.180   2.109  1.6811 -3.7343  0.7389
   21SOL    HW2   63   2.780   0.210   2.256 -1.9224 -2.3566  1.4165
   22SOL     OW   64   2.380   0.208   0.025 -0.1473 -0.1394 -0.9088
   22SOL    HW1   65   2.389   0.106   0.003  1.1573  1.6071 -1.7097
   22SOL    HW2   66   2.286   0.242  -0.008  2.3218 -2.8714 -0.5322
   23SOL     OW   67   2.777   0.663   0.711  0.2564  0.1429  0.1425
   23SOL    HW1   68   2.744   0.571   0.687 -0.2700  1.0708 -1.8340
   23SOL    HW2   69   2.776   0.728   0.631  0.0476 -1.9727 -0.1708
   24SOL     OW   70   0.166   1.893   0.463  0.4014  0.1245  0.7571
   24SOL    HW1   71   0.065   1.897   0.438 -0.8538 -1.0980  0.0196
   24SOL    HW2   72   0.240   1.902   0.391  0.6430 -1.0439  0.9280
   25SOL     OW   73   2.256   0.515   0.184 -0.3825  0.5002  0.5932
   25SOL    HW1   74   2.355   0.485   0.193  3.9297 -1.2313 -1.4382
   25SOL    HW2   75   2.222   0.491   0.092 -2.4756 -0.8660 -1.0992
   26SOL     OW   76   2.556   2.188   2.084 -0.5712 -0.0150  0.0441
   26SOL    HW1   77   2.617   2.233   2.155 -0.1343 -1.3622 -0.0535
   26SOL    HW2   78   2.600   2.097   2.049  1.8604  0.9531 -1.6136
   27SOL     OW   79   0.673   2.975   0.093  0.0504 -0.0216  0.2082
   27SOL    HW1   80   0.767   3.017   0.079 -0.2472  0.0060 -1.6331
   27SOL    HW2   81   0.623   2.945   0.005  1.0695  3.0238  1.1462
   28SOL     OW   82   1.487   0.227   0.195  0.4236 -0.0014  0.4091
   28SOL    HW1   83   1.566   0.172   0.164  1.6637  0.7244 -0.4461
   28SOL    HW2   84   1.505   0.279   0.283  1.3307 -0.3522 -1.6252
   29SOL     OW   85   2.004   0.613   0.254  0.2892  0.0378 -0.9604
   29SOL    HW1   86   2.021   0.709   0.292 -0.4203 -0.4437  1.1478
   29SOL    HW2   87   2.089   0.553   0.262 -1.9933 -0.0410 -1.0015
   30SOL     OW   88   0.205   2.040   0.938 -0.0225 -0.1453  0.5181
   30SOL    HW1   89   0.170   2.000   0.849 -1.9699 -0.2720 -2.2991
   30SOL    HW2   90   0.125   2.061   1.003 -4.6243  0.3640 -0.1812
   31SOL     OW   91   2.029   0.043   2.331 -0.4533  0.5094 -0.2514
   31SOL    HW1   92   2.054   0.033   2.430  2.3467 -2.9622 -0.3089
   31SOL    HW2   93   1.979  -0.037   2.289  1.1410 -1.6785  0.4721
   32SOL     OW   94   2.974   0.105   0.227 -0.1937 -0.0191 -0.5728
   32SOL    HW1   95   2.914   0.045   0.292 -3.7245  1.3319 -1.2281
   32SOL    HW2   96   3.035   0.052   0.161  2.6294 -0.1610 -0.6915
   33SOL     OW   97   0.975   0.326   0.426  0.2019 -0.3210 -0.0054
   33SOL    HW1   98   0.933   0.228   0.416  0.2474 -2.4870 -0.9108
   33SOL    HW2   99   1.036   0.344   0.503 -1.3673  2.9437 -1.6254
   34SOL     OW  100   0.412   2.910   1.065  0.0615  0.6589 -0.0894
   34SOL    HW1  101   0.367   2.874   0.980 -1.4748 -0.0771 -0.7115
   34SOL    HW2  102   0.506   2.873   1.078 -1.3619  0.3759  2.5518
   35SOL     OW  103   0.058   3.097   1.801  0.5116 -0.1013  0.0125
   35SOL    HW1  104   0.104   3.003   1.801 -1.7273  2.7231 -1.1781
   35SOL    HW2  105   0.022   3.122   1.705  1.5603 -0.0471  0.7479
   36SOL     OW  106   1.899   1.158   1.823  0.2571  0.4883  0.4489
   36SOL    HW1  107   1.969   1.115   1.756 -3.2833 -0.0562  2.2850
   36SOL    HW2  108   1.905   1.259   1.826 -1.0965 -0.7890  1.0617
   37SOL     OW  109   1.131   0.322   0.996 -0.0776  0.0412 -0.4782
   37SOL    HW1  110   1.177   0.414   0.996  0.4094 -0.8429 -0.0932
   37SOL    HW2  111   1.191   0.251   1.046  0.4797 -3.7237 -1.1235
   38SOL     OW  112   1.145   2.696   2.400 -0.1622 -0.4414  0.1193
   38SOL    HW1  113   1.095   2.605   2.428 -0.0686 -0.7645 -0.9667
   38SOL    HW2  114   1.092   2.741   2.327 -1.4431  1.2559 -0.2126
   39SOL     OW  115   2.357   1.471   3.056 -0.2173 -0.5385 -0.4694
   39SOL    HW1  116   2.418   1.384   3.044  0.2777 -1.0929  0.5611
   39SOL    HW2  117   2.316   1.477   3.157 -2.7909  0.7182  1.4076
   40SOL     OW  118   2.077   2.536   2.553 -0.0105 -0.1853 -0.4500
   40SOL    HW1  119   2.051   2.637   2.584  1.3220 -1.5690  3.2851
   40SOL    HW2  120   1.997   2.485   2.505  1.9578 -0.2621 -0.4384
   41SOL     OW  121   2.905   0.676   2.760  0.3201 -0.2128  0.0974
   41SOL    HW1  122   2.804   0.699   2.767 -2.0805 -0.2322 -1.0933
   41SOL    HW2  123   2.929   0.591   2.702  0.7555 -3.1045  0.0294
   42SOL     OW  124   1.738   1.748   0.583  1.0624  0.0605 -0.0030
   42SOL    HW1  125   1.692   1.666   0.543 -0.0122 -2.4212  0.6213
   42SOL    HW2  126   1.807   1.793   0.516  0.1951  0.7944 -0.3355
   43SOL     OW  127   0.451   1.737   1.209 -0.5495  0.2066 -0.3112
   43SOL    HW1  128   0.448   1.672   1.291  0.5515 -1.5436 -1.5859
   43SOL    HW2  129   0.367   1.739   1.152  0.6702 -1.5242 -0.1217
   44SOL     OW  130   1.723   2.516   0.006 -0.1242  0.1396  0.4131
   44SOL    HW1  131   1.754   2.594  -0.053 -2.9467 -0.4575  0.0409
   44SOL    HW2  132   1.804   2.490   0.068 -2.8318 -1.4910  0.3864
   45SOL     OW  133   0.384   1.901   2.498 -0.5977  0.5092 -0.3618
   45SOL    HW1  134   0.299   1.902   2.441  2.5657  0.2923 -0.4780
   45SOL    HW2  135   0.414   1.804   2.530 -0.5853  1.7272 -0.3727
   46SOL     OW  136   1.148   0.652   0.181 -0.1892  0.0022 -0.2845
   46SOL    HW1  137   1.214   0.712   0.131  0.8333 -1.8606  3.3771
   46SOL    HW2  138   1.053   0.683   0.161  1.3875  0.0159 -1.6768
   47SOL     OW  139   0.251   2.454   1.614 -0.2605  0.2665  0.3076
   47SOL    HW1  140   0.318   2.380   1.602 -0.0617  1.1742 -0.2059
   47SOL    HW2  141   0.215   2.496   1.520 -1.2558 -0.4802 -0.4324
   48SOL     OW  142   2.611   0.566   0.125 -0.2593 -0.1983  0.1522
   48SOL    HW1  143   2.585   0.615   0.215 -0.3208  3.1104 -0.4675
   48SOL    HW2  144   2.680   0.626   0.085 -2.2831 -1.5665  1.1747
   49SOL     OW  145   0.360   0.837   1.761 -0.3298  0.6409 -0.1867
   49SOL    HW1  146   0.443   0.882   1.806 -0.3136  0.2650 -0.3752
   49SOL    HW2  147   0.391   0.769   1.687 -2.6756  0.2309  1.3282
   50SOL     OW  148   1.757   1.062   0.342 -0.3408  0.0768  0.4344
   50SOL    HW1  149   1.764   0.955   0.317  2.4257 -3.7602  1.1878
   50SOL    HW2  150   1.754   1.080   0.444 -0.2381 -1.3267  1.1064
   51SOL     OW  151   3.013   1.893   0.380 -0.2025  0.2214  0.1671
   51SOL    HW1  152   3.011   1.922   0.280 -2.9338  2.2841  2.0971
   51SOL    HW2  153   2.967   1.801   0.393 -0.3258  1.6115  0.6245
   52SOL     OW  154   0.832   1.955   0.467 -0.2639  0.4852  0.5200
   52SOL    HW1  155   0.748   2.011   0.506 -2.2071  0.0429  0.1345
   52SOL    HW2  156   0.861   1.877   0.528 -0.3344  1.6964 -0.5990
   53SOL     OW  157   3.089   0.359   1.511 -0.2167 -0.6472 -0.1601
   53SOL    HW1  158   3.022   0.356   1.588 -3.7056  1.5642 -2.6063
   53SOL    HW2  159   3.104   0.459   1.473  3.2257  1.6059  0.5881
   54SOL     OW  160   1.753   0.486   3.008 -0.7242  0.1363  0.2592
   54SOL    HW1  161   1.800   0.426   3.079 -0.9852 -0.2367 -0.8573
   54SOL    HW2  162   1.650   0.477   3.020  3.3420 -1.5564 -0.2339
   55SOL     OW  163   0.715   2.932   0.642  0.1074 -0.3839 -0.3600
   55SOL    HW1  164   0.685   3.029   0.658  0.6443  3.3538 -0.5550
   55SOL    HW2  165   0.807   2.926   0.597 -2.0114  1.9064 -2.0223
   56SOL     OW  166   0.496   1.531   3.070 -0.2240  0.3623 -0.1515
   56SOL    HW1  167   0.404   1.574   3.099  0.5271  0.4052 -2.1923
   56SOL    HW2  168   0.482   1.446   3.016 -2.2761  0.3514 -3.5050
   57SOL     OW  169   1.763   2.378   2.636 -0.0952 -0.1071 -0.4323
   57SOL    HW1  170   1.811   2.342   2.551 -0.7056  0.8965 -3.4512
   57SOL    HW2  171   1.695   2.450   2.611  3.5847  1.4138 -1.2461
   58SOL     OW  172   0.610   0.479   1.109  0.0745 -0.7331  0.3307
   58SOL    HW1  173   0.541   0.558   1.085 -4.0903  3.5412 -1.4690
   58SOL    HW2  174   0.558   0.389   1.093 -4.9674 -2.3294 -0.2062
   59SOL     OW  175   0.476   2.400   2.641 -0.0385  0.7772 -0.0491
   59SOL    HW1  176   0.496   2.299   2.675 -0.1619  2.2774  1.3367
   59SOL    HW2  177   0.547   2.469   2.673 -0.2365 -1.7729 -1.9024
   60SOL     OW  178   2.332   2.192   2.248  0.0113  0.2760  0.1931
   60SOL    HW1  179   2.419   2.221   2.192 -0.1836  0.2017 -2.3358
   60SOL    HW2  180   2.350   2.211   2.350  0.5265 -2.0501  0.0522
   61SOL     OW  181   1.373   0.589   0.430  0.0137 -0.3716 -0.0584
   61SOL    HW1  182   1.282   0.633   0.462  0.2210 -1.3088 -1.9945
   61SOL    HW2  183   1.370   0.564   0.330  0.4462  0.1793  0.2067
   62SOL     OW  184   2.659   1.887   0.010 -0.4375 -0.3668 -0.4467
   62SOL    HW1  185   2.695   1.795   0.038  0.3653  0.0519  0.2771
   62SOL    HW2  186   2.689   1.925  -0.084  0.9447 -2.0111  0.0577
   63SOL     OW  187   0.520   0.798   0.144 -0.0374  0.1589  0.5689
   63SOL    HW1  188   0.510   0.902   0.125 -0.4531  1.1023  1.4774
   63SOL    HW2  189   0.591   0.780   0.217  1.3484 -1.6959  0.7022
   64SOL     OW  190   0.077   0.539   2.518  0.5327 -0.6050  0.2372
   64SOL    HW1  191   0.116   0.584   2.603 -0.6086 -3.0215  0.6798
   64SOL    HW2  192   0.078   0.602   2.437 -1.5512 -1.4758 -1.6198
   65SOL     OW  193   0.182   1.443   0.634  0.0076 -0.3306  0.2789
   65SOL    HW1  194   0.186   1.504   0.718 -0.2532  0.0750  0.8202
   65SOL    HW2  195   0.274   1.427   0.595 -1.4551  1.5193  0.0293
   66SOL     OW  196   2.474   0.358   0.683  0.4975  0.5683  0.1824
   66SOL    HW1  197   2.405   0.432   0.683 -1.4954  1.7955 -2.3413
   66SOL    HW2  198   2.437   0.268   0.723  1.3726  0.0686  1.5859
   67SOL     OW  199   0.484   2.557   1.330  0.2174 -0.9368  0.2766
   67SOL    HW1  200   0.583   2.579   1.347  0.5500 -0.3986  0.2326
   67SOL    HW2  201   0.460   2.461   1.319  0.6758 -0.5832 -1.9756
   68SOL     OW  202   1.017   1.101   2.445 -0.4410 -0.2856  0.6078
   68SOL    HW1  203   1.063   1.040   2.379 -2.1161  0.7404  2.5082
   68SOL    HW2  204   0.934   1.150   2.412  2.8257  0.7973  0.3977
   69SOL     OW  205   0.782   2.696   2.159  0.1414  0.2096  0.0641
   69SOL    HW1  206   0.809   2.597   2.192  0.5916 -0.1992  0.2987
   69SOL    HW2  207   0.689   2.723   2.184  2.0786 -1.4623 -0.0046
   70SOL     OW  208   0.608   0.240   2.712 -0.0647  0.4588  0.0862
   70SOL    HW1  209   0.601   0.244   2.815  0.2491  0.8448  0.1130
   70SOL    HW2  210   0.553   0.162   2.666  0.8022  0.1139 -0.9842
   71SOL     OW  211   1.089   1.808   0.377 -0.4519 -0.7058  0.1618
   71SOL    HW1  212   1.035   1.722   0.402 -0.5733 -0.7789  2.0273
   71SOL    HW2  213   1.084   1.829   0.278  0.8826 -1.4435 -0.7710
   72SOL     OW  214   1.783   0.068   2.090  0.4743 -0.1107  0.1468
   72SOL    HW1  215   1.821   0.089   1.992  0.8502  0.4569 -3.8248
   72SOL    HW2  216   1.825  -0.020   2.124  1.4573  0.6138 -0.8009
   73SOL     OW  217   2.836   2.216   2.517 -0.3531 -0.2529  0.3125
   73SOL    HW1  218   2.840   2.123   2.476  1.3283  2.0694 -2.4810
   73SOL    HW2  219   2.856   2.213   2.620 -0.5280 -0.0274 -2.1141
   74SOL     OW  220   2.709   3.022   2.058  0.5956 -0.0795 -0.0210
   74SOL    HW1  221   2.644   2.991   2.137  0.6913 -0.1095 -1.1173
   74SOL    HW2  222   2.803   2.987   2.082 -1.5050 -0.8422 -1.3995
   75SOL     OW  223   0.912   0.742   0.983 -0.0670  0.0096  0.3173
   75SOL    HW1  224   0.837   0.817   0.971 -2.8875  1.9459  1.0875
   75SOL    HW2  225   0.975   0.764   1.058  2.1460 -0.3765 -1.0054
   76SOL     OW  226   1.756   1.219   2.566  0.4237 -0.0430 -0.5197
   76SOL    HW1  227   1.652   1.200   2.554 -2.1985 -0.7383 -1.0892
   76SOL    HW2  228   1.776   1.289   2.639  0.7688 -1.0472  0.5913
   77SOL     OW  229   2.998   0.984   0.978 -0.2712 -0.5169 -0.1732
   77SOL    HW1  230   2.951   0.892   0.987 -1.9071 -0.7408 -1.9032
   77SOL    HW2  231   3.070   0.999   1.054  0.2556 -0.0549 -2.0335
   78SOL     OW  232   1.971   1.399   1.477 -0.1289 -0.1299 -0.0187
   78SOL    HW1  233   2.069   1.405   1.447 -2.3277 -0.5356  1.2409
   78SOL    HW2  234   1.918   1.359   1.399  1.4179 -1.1772  0.4688
   79SOL     OW  235   0.645   1.326   0.861 -0.4628  0.4645  0.0163
   79SOL    HW1  236   0.558   1.384   0.854 -2.8706  0.6921 -1.1236
   79SOL    HW2  237   0.649   1.256   0.789 -0.6120 -2.0345  1.0188
   80SOL     OW  238   0.646   0.490   1.603  0.1646  0.2141 -0.1592
   80SOL    HW1  239   0.702   0.546   1.534  1.4912  0.9856  0.5077
   80SOL    HW2  240   0.644   0.387   1.577 -0.0927 -0.4720  1.3714
   81SOL     OW  241   1.089   1.415   2.615 -0.4283 -0.6655  0.4142
   81SOL    HW1  242   1.042   1.365   2.691  0.4819  0.8767  2.7123
   81SOL    HW2  243   1.058   1.394   2.515 -0.4229 -1.7879 -0.3204
   82SOL     OW  244   0.905   3.029   1.514 -0.1699  0.0412 -0.2412
   82SOL    HW1  245   0.988   2.961   1.511  2.4360  0.4498 -0.0966
   82SOL    HW2  246   0.815   2.980   1.543 -0.0364 -2.8248 -0.4295
   83SOL     OW  247   2.763   2.425   0.805  0.0735  0.4334 -0.2262
   83SOL    HW1  248   2.663   2.400   0.774 -0.0194 -1.3144 -0.6824
   83SOL    HW2  249   2.815   2.496   0.752 -0.0798  0.1919  0.0882
   84SOL     OW  250   0.669   0.011   2.412 -0.0161 -0.1253 -0.1172
   84SOL    HW1  251   0.600  -0.043   2.462  2.6749 -1.1643  0.2633
   84SOL    HW2  252   0.761   0.011   2.460  2.7390  1.6803 -1.2769
   85SOL     OW  253   0.410   1.646   1.477  0.2159 -0.0764  0.4059
   85SOL    HW1  254   0.388   1.747   1.466 -0.2803 -1.3985 -0.7840
   85SOL    HW2  255   0.381   1.605   1.564 -1.2296  1.8686 -0.6710
   86SOL     OW  256   0.358   1.035   1.480 -0.1297 -0.5167 -0.0224
   86SOL    HW1  257   0.323   0.981   1.398 -2.4821  1.2523  0.2684
   86SOL    HW2  258   0.403   0.972   1.549  1.1361 -0.6099 -1.4307
   87SOL     OW  259   1.580   0.579   0.203  0.3222 -0.1989  0.3971
   87SOL    HW1  260   1.629   0.667   0.227  1.4599 -0.4753 -0.2914
   87SOL    HW2  261   1.530   0.575   0.113 -0.5943 -0.6465  1.2175
   88SOL     OW  262   1.587   1.265   0.179 -0.1906 -0.8107  0.1144
   88SOL    HW1  263   1.641   1.188   0.224  2.5738  1.6683  2.0515
   88SOL    HW2  264   1.497   1.292   0.226 -1.1176 -0.9243  2.4515
   89SOL     OW  265   2.991   0.446   0.574  0.6455  0.6385 -0.1573
   89SOL    HW1  266   3.046   0.361   0.601 -1.6761  1.2632  3.2417
   89SOL    HW2  267   2.900   0.416   0.551  2.9830 -0.0530 -2.1254
   90SOL     OW  268   0.950   1.653   3.059  0.6800  0.2839  0.4761
   90SOL    HW1  269   0.875   1.640   3.130 -1.2921 -0.5436 -1.7819
   90SOL    HW2  270   0.912   1.638   2.962  0.1241  0.9702 -0.0006
   91SOL     OW  271   1.274   1.426   1.780  0.6466  0.4848 -0.1649
   91SOL    HW1  272   1.290   1.505   1.850 -1.4359 -0.8241  1.2770
   91SOL    HW2  273   1.362   1.385   1.744  0.6043 -2.2277  2.2181
   92SOL     OW  274   0.072   1.060   1.178  0.6884 -0.2660  0.0083
   92SOL    HW1  275   0.163   1.041   1.134 -0.4144  1.2576  1.6052
   92SOL    HW2  276   0.066   1.023   1.271 -0.6879  3.0979 -2.1370
   93SOL     OW  277   0.078   2.829   0.023 -0.8791  0.3308  0.4739
   93SOL    HW1  278  -0.011   2.807  -0.032 -0.6473 -1.0638 -1.4827
   93SOL    HW2  279   0.121   2.738   0.062  3.2011 -0.0658 -1.6014
   94SOL     OW  280   1.495   1.310   1.668 -0.0625  0.5155  0.2122
   94SOL    HW1  281   1.517   1.211   1.695 -1.9843  0.6561  0.8213
   94SOL    HW2  282   1.569   1.384   1.688  1.2824  0.6159  1.5195
   95SOL     OW  283   1.390   2.492   2.893 -0.2179 -0.3012  0.4336
   95SOL    HW1  284   1.327   2.485   2.979 -1.4821 -0.2236 -2.9187
   95SOL    HW2  285   1.416   2.397   2.859 -1.3071  1.4503 -1.4407
   96SOL     OW  286   0.508   2.026   1.225  0.3671 -0.0377 -0.0012
   96SOL    HW1  287   0.488   2.072   1.131  0.2405 -0.4735  0.5177
   96SOL    HW2  288   0.472   1.929   1.238 -0.9679  1.4800  0.7635
   97SOL     OW  289   0.304   1.457   2.474  0.2692 -0.0230  0.2889
   97SOL    HW1  290   0.214   1.420   2.503  2.2491  2.6060 -0.5877
   97SOL    HW2  291   0.341   1.521   2.545 -2.9711  0.1611 -0.0214
   98SOL     OW  292   2.070   1.686   1.282 -0.3564  1.0975  0.7721
   98SOL    HW1  293   2.049   1.604   1.217 -0.6628 -1.5015 -1.3676
   98SOL    HW2  294   2.151   1.672   1.342 -1.4283 -0.4594 -1.0917
   99SOL     OW  295   2.472   2.165   1.328 -0.1842 -0.3274 -0.3719
   99SOL    HW1  296   2.430   2.190   1.420 -0.1841  1.2259 -0.4551
   99SOL    HW2  297   2.504   2.069   1.322  1.0107  1.4761 -0.9704
  100SOL     OW  298   2.302   0.411   2.045 -0.4843 -0.0436 -0.5057
  100SOL    HW1  299   2.240   0.395   2.127  3.0993  2.8530 -1.2519
  100SOL    HW2  300   2.400   0.396   2.068 -1.4745 -3.5227 -0.6642
  101SOL     OW  301   0.430   1.428   0.279 -0.1722  0.1013  0.2181
  101SOL    HW1  302   0.426   1.469   0.374  0.3228  1.3775 -1.4906
  101SOL    HW2  303   0.470   1.494   0.212  0.4785 -0.5267 -2.0656
  102SOL     OW  304   2.271   1.074   0.816  0.0329 -0.2073 -0.4490
  102SOL    HW1  305   2.197   1.013   0.773  0.9250  1.0261 -0.6357
  102SOL    HW2  306   2.307   1.147   0.756  0.8463  0.0754  1.3496
  103SOL     OW  307   2.285   0.070   0.403  0.1413  0.0393  0.1304
  103SOL    HW1  308   2.347   0.137   0.359 -1.6541  0.4751 -0.3203
  103SOL    HW2  309   2.319   0.018   0.487 -1.8135  2.7201  0.3566
  104SOL     OW  310   0.071   1.875   2.160 -0.2225  0.3160 -0.1818
  104SOL    HW1  311   0.095   1.782   2.119  0.4678  1.0864 -0.3876
  104SOL    HW2  312  -0.029   1.890   2.139 -1.4467  0.0080  2.4394
  105SOL     OW  313   1.113   1.971   0.840  0.2126  0.0757  0.3237
  105SOL    HW1  314   1.058   2.029   0.773 -3.1728 -2.1006  1.2147
  105SOL    HW2  315   1.163   1.894   0.793  2.0211  2.9472 -1.0298
  106SOL     OW  316   2.047   0.469   1.349  0.0601 -0.3111 -0.2263
  106SOL    HW1  317   2.026   0.374   1.387  0.2857  0.4848  2.1338
  106SOL    HW2  318   2.025   0.548   1.416 -0.5536 -1.0747  1.0668
  107SOL     OW  319   1.802   3.022   1.109  0.2688  0.3055 -0.3701
  107SOL    HW1  320   1.849   3.087   1.176  0.4187  1.5275 -1.5406
  107SOL    HW2  321   1.739   2.951   1.153 -1.5365 -0.8178 -0.1467
  108SOL     OW  322   0.746   2.637   1.304  0.1687  0.2829  0.1940
  108SOL    HW1  323   0.733   2.706   1.383  1.0966  0.1288 -0.6729
  108SOL    HW2  324   0.836   2.589   1.305 -0.4096  0.4575 -0.1306
  109SOL     OW  325   2.085   0.108   0.688  0.3339 -0.0761  0.2784
  109SOL    HW1  326   2.028   0.035   0.643  0.9152 -2.0346  0.1708
  109SOL    HW2  327   2.058   0.132   0.784  3.5899 -2.3415  0.6324
  110SOL     OW  328   0.488   2.746   2.746  0.4421  0.2478  0.1757
  110SOL    HW1  329   0.489   2.781   2.650  0.5596  1.6524 -1.8510
  110SOL    HW2  330   0.570   2.685   2.765 -0.0814  1.5673  1.0941
  111SOL     OW  331   1.285   0.530   2.318  0.0952 -0.1093 -0.5586
  111SOL    HW1  332   1.206   0.577   2.372 -2.2218 -0.0993 -1.3249
  111SOL    HW2  333   1.327   0.443   2.368  2.4580 -2.1739  1.0207
  112SOL     OW  334   1.699   0.499   1.460  0.5730 -0.2826  0.0968
  112SOL    HW1  335   1.733   0.451   1.374  0.4983  1.9854 -0.8511
  112SOL    HW2  336   1.713   0.433   1.539 -1.1946 -1.3736 -3.0403
  113SOL     OW  337   2.302   1.668   1.744  0.5453 -0.1423  0.2756
  113SOL    HW1  338   2.383   1.613   1.728 -1.3858  1.6319  2.4793
  113SOL    HW2  339   2.316   1.722   1.834 -1.3976  1.2272  2.2315
  114SOL     OW  340   0.387   0.566   1.283 -0.1021  0.1537 -0.1604
  114SOL    HW1  341   0.380   0.664   1.248 -0.5624  0.3617 -0.0711
  114SOL    HW2  342   0.413   0.502   1.204 -1.4740  0.3958 -0.6074
  115SOL     OW  343   2.671   1.583   1.247 -0.0767  0.3167 -0.3802
  115SOL    HW1  344   2.704   1.488   1.276 -2.0865  0.7389 -2.2623
  115SOL    HW2  345   2.721   1.626   1.168 -0.4931 -0.3469  0.2455
  116SOL     OW  346   1.821   1.070   0.760 -0.2361 -0.5383 -0.1791
  116SOL    HW1  347   1.750   1.009   0.718  1.9129 -0.8539  0.5552
  116SOL    HW2  348   1.797   1.169   0.773  0.4278 -0.2029  1.8575
  117SOL     OW  349   1.129   0.385   0.651  0.6060 -0.3348 -0.2053
  117SOL    HW1  350   1.083   0.398   0.744 -0.0935 -1.5764  1.1911
  117SOL    HW2  351   1.198   0.457   0.628  0.9968 -1.2157  0.9769
  118SOL     OW  352   1.053   1.095   1.045 -0.1881 -0.1356  0.8100
  118SOL    HW1  353   1.037   0.999   1.092  1.2589 -3.5038  3.6367
  118SOL    HW2  354   1.056   1.167   1.120  1.3572  0.3402  2.9085
  119SOL     OW  355   1.828   1.601   2.010  0.0987 -0.2285  0.1168
  119SOL    HW1  356   1.784   1.673   2.069 -4.1694  1.2688  0.9908
  119SOL    HW2  357   1.935   1.608   2.006 -0.2184  1.0254  0.3677
  120SOL     OW  358   2.942   2.776   0.295 -0.0322  0.4004  0.6581
  120SOL    HW1  359   2.879   2.743   0.219  2.2045 -2.6661  1.1550
  120SOL    HW2  360   3.001   2.701   0.344  0.4402  0.2049  2.7188
  121SOL     OW  361   2.042   0.747   2.196 -0.4415  0.5845 -0.9007
  121SOL    HW1  362   2.123   0.731   2.131 -0.2116  0.3614  1.1729
  121SOL    HW2  363   1.994   0.657   2.216 -1.5119 -1.4605  0.3141
  122SOL     OW  364   2.714   2.539   1.352  0.2417 -0.1073  0.5233
  122SOL    HW1  365   2.752   2.553   1.255 -0.8958  1.1109 -1.6401
  122SOL    HW2  366   2.670   2.447   1.364  3.5631  3.3044 -1.0006
  123SOL     OW  367   1.739   0.027   1.675 -0.2440 -0.0520  0.0240
  123SOL    HW1  368   1.764  -0.047   1.606 -0.6453  1.0338  1.9969
  123SOL    HW2  369   1.808   0.103   1.683  1.3594  0.1860  0.3923
  124SOL     OW  370   0.176   0.510   1.026 -0.4273  0.2807  0.4316
  124SOL    HW1  371   0.130   0.573   1.099  0.6438 -1.1452  0.3644
  124SOL    HW2  372   0.120   0.518   0.933  0.9040 -1.4647  2.6049
  125SOL     OW  373   0.880   1.753   0.676 -0.6070  0.0913  0.2780
  125SOL    HW1  374   0.985   1.748   0.679  2.2313  1.1707  1.0081
  125SOL    HW2  375   0.840   1.674   0.730  1.7185 -0.1398  0.1785
  126SOL     OW  376   1.874   2.377   2.379  0.7337 -0.2629  0.3886
  126SOL    HW1  377   1.936   2.307   2.329  0.9854  0.0728  0.0240
  126SOL    HW2  378   1.777   2.376   2.340  1.2707  0.1229 -0.4613
  127SOL     OW  379   0.920   0.972   0.185 -0.6769  0.4866 -0.0790
  127SOL    HW1  380   0.992   0.997   0.254 -1.3467 -0.5046  0.0625
  127SOL    HW2  381   0.897   0.870   0.195 -0.5166 -0.7350  1.2672
  128SOL     OW  382   0.999   0.179   1.476 -0.5122 -0.5287 -0.4364
  128SOL    HW1  383   0.976   0.239   1.395  2.1241 -0.2802  2.0799
  128SOL    HW2  384   0.953   0.084   1.476 -1.3596  0.6350  1.7002
  129SOL     OW  385   1.791   0.726   1.838  0.3405 -0.4969  0.2676
  129SOL    HW1  386   1.743   0.748   1.750  1.4768  1.3583  2.1547
  129SOL    HW2  387   1.852   0.795   1.877 -0.9103  1.3851  1.2493
  130SOL     OW  388   1.294   2.093   0.994  0.6735  0.0665  0.2641
  130SOL    HW1  389   1.249   2.047   0.911 -2.4275 -0.1424  0.4039
  130SOL    HW2  390   1.352   2.175   0.964 -2.9018 -0.5185  1.2183
  131SOL     OW  391   3.076   1.516   1.331  0.5241 -0.4996  0.4487
  131SOL    HW1  392   3.028   1.426   1.328  1.7140 -0.1471 -1.6005
  131SOL    HW2  393   3.176   1.506   1.359  0.4711  1.0377  0.7535
  132SOL     OW  394   1.918   2.500   0.529 -0.2139  0.3094  0.1136
  132SOL    HW1  395   1.818   2.482   0.558 -1.8137 -1.2707 -0.1690
  132SOL    HW2  396   1.976   2.528   0.613  0.5156 -1.5107  1.7297
  133SOL     OW  397   1.814   2.290   2.911  0.3203 -0.0877  0.1186
  133SOL    HW1  398   1.783   2.384   2.949 -0.3959  1.6281  2.4166
  133SOL    HW2  399   1.811   2.284   2.809 -0.2447 -1.4620  0.5875
  134SOL     OW  400   2.634   2.372   1.616  0.2714 -0.6969 -0.3333
  134SOL    HW1  401   2.574   2.330   1.691 -0.0763  2.1293  0.9479
  134SOL    HW2  402   2.714   2.420   1.660  0.0239  2.4768  0.9741
  135SOL     OW  403   0.740   1.518   2.552 -0.5848 -0.0385  0.2100
  135SOL    HW1  404   0.736   1.413   2.569 -0.1902  3.0203 -0.8832
  135SOL    HW2  405   0.810   1.549   2.484  2.0634  0.8680 -2.7493
  136SOL     OW  406   1.163   2.073   0.457  0.4077 -0.0633  0.0689
  136SOL    HW1  407   1.092   2.108   0.524  1.7398  0.0402  2.5886
  136SOL    HW2  408   1.144   1.974   0.431 -1.5814 -1.6507  1.7353
  137SOL     OW  409   0.386   1.030   2.184  0.0796  0.2173  1.0476
  137SOL    HW1  410   0.320   1.080   2.252 -0.2928  1.1553  1.7204
  137SOL    HW2  411   0.397   0.931   2.198 -0.4376 -0.1460 -0.0525
  138SOL     OW  412   2.457   1.488   0.296  0.1767  0.1095 -0.6410
  138SOL    HW1  413   2.360   1.478   0.256 -1.1821  2.6737 -2.7870
  138SOL    HW2  414   2.481   1.413   0.366  1.8392 -0.7808  0.8570
  139SOL     OW  415   1.773   2.555   1.233  0.0593  0.6465  0.0188
  139SOL    HW1  416   1.688   2.516   1.181 -1.2544 -0.5795  1.9391
  139SOL    HW2  417   1.797   2.496   1.314  1.6138  1.0993 -0.1424
  140SOL     OW  418   2.997   3.000   2.535  0.1985 -0.4658  0.3173
  140SOL    HW1  419   3.027   2.933   2.609  1.8783 -1.3283  1.1184
  140SOL    HW2  420   3.074   3.069   2.529  0.0322 -1.2211  0.7637
  141SOL     OW  421   1.140   1.588   1.598 -0.1884  0.5448 -0.7393
  141SOL    HW1  422   1.137   1.684   1.641 -0.8390  2.7005  1.1059
  141SOL    HW2  423   1.176   1.518   1.666  1.6176 -0.7246  0.0621
  142SOL     OW  424   1.555   0.608   2.249  0.3388  0.3278  0.5557
  142SOL    HW1  425   1.575   0.596   2.148  0.4101  3.1061 -1.6091
  142SOL    HW2  426   1.454   0.587   2.284 -1.5529  0.0334  2.2720
  143SOL     OW  427   2.792   0.880   0.526  0.4336  0.3157  0.7570
  143SOL    HW1  428   2.826   0.933   0.441  0.8484  0.1932  0.4228
  143SOL    HW2  429   2.816   0.935   0.611 -1.1722  0.0062  1.7933
  144SOL     OW  430   2.998   1.265   1.367  0.3720  0.5602  0.2409
  144SOL    HW1  431   2.984   1.217   1.457  1.7688 -1.7442 -0.2045
  144SOL    HW2  432   3.066   1.208   1.315 -0.6544 -1.1360 -2.5006
  145SOL     OW  433   1.057   1.866   0.087  0.5066  0.1270 -0.5216
  145SOL    HW1  434   1.050   1.944   0.021  2.5089 -0.2289  0.0085
  145SOL    HW2  435   1.016   1.775   0.054 -0.4973  0.2671 -0.5474
  146SOL     OW  436   2.545   0.658   1.469  0.6566  0.3769 -0.2803
  146SOL    HW1  437   2.484   0.579   1.443 -0.2428 -0.1484 -1.3345
  146SOL    HW2  438   2.490   0.750   1.472 -3.4321  1.1401 -0.3280
  147SOL     OW  439   1.054   2.593   0.612  0.1423 -0.1921 -0.3884
  147SOL    HW1  440   1.005   2.626   0.524 -0.5446 -0.2468 -0.6669
  147SOL    HW2  441   1.129   2.525   0.594  1.4194 -1.7171  0.7863
  148SOL     OW  442   1.635   1.433   3.040 -0.2281  0.3775 -0.1191
  148SOL    HW1  443   1.678   1.354   2.989  0.9842 -1.6603  0.5255
  148SOL    HW2  444   1.603   1.394   3.131  0.1810  0.6876 -0.9542
  149SOL     OW  445   0.641   1.397   1.960  0.0099  0.0950  0.3551
  149SOL    HW1  446   0.548   1.383   2.003  0.3982  0.6134  1.4386
  149SOL    HW2  447   0.668   1.322   1.893  1.1064  0.3214 -0.1506
  150SOL     OW  448   2.961   1.289   0.944  0.0508  0.0462 -0.0763
  150SOL    HW1  449   3.036   1.356   0.974 -1.1959  0.5847 -1.6964
  150SOL    HW2  450   2.981   1.193   0.971  2.2659  0.2950  1.6268
  151SOL     OW  451   0.177   0.752   2.080 -0.0731  0.0327 -0.0131
  151SOL    HW1  452   0.169   0.845   2.047 -0.5164 -0.3268  0.6782
  151SOL    HW2  453   0.250   0.701   2.028 -1.6816  1.0069  0.6555
  152SOL     OW  454   1.412   1.757   1.282  0.0756 -0.2495  0.0503
  152SOL    HW1  455   1.421   1.842   1.342 -1.3112 -0.4354 -0.3563
  152SOL    HW2  456   1.316   1.747   1.236 -1.3631  1.5888 -0.9681
  153SOL     OW  457   0.054   1.503   0.164  0.3257  0.0908  0.4511
  153SOL    HW1  458   0.071   1.400   0.162  2.4088  2.9037  2.3210
  153SOL    HW2  459   0.051   1.536   0.261 -0.3771 -1.0417  2.3318
  154SOL     OW  460   2.396   1.960   2.829 -0.2169  0.3010 -0.1641
  154SOL    HW1  461   2.412   1.858   2.852  1.7104  0.3861  0.1100
  154SOL    HW2  462   2.452   1.986   2.742  1.5644 -3.3504 -0.1787
  155SOL     OW  463   2.514   1.232   0.411  0.0865 -0.4150  0.0431
  155SOL    HW1  464   2.580   1.253   0.336 -0.5347  1.3992  2.6415
  155SOL    HW2  465   2.524   1.134   0.435 -0.4713 -0.0496 -2.2128
  156SOL     OW  466   2.538   0.994   0.880  0.4258 -0.3208  0.1742
  156SOL    HW1  467   2.434   1.015   0.876 -1.3821 -2.6479 -3.3599
  156SOL    HW2  468   2.593   1.077   0.848 -1.6412 -2.7593 -0.3765
  157SOL     OW  469   1.355   2.998   3.093 -0.9810 -0.0541 -0.4831
  157SOL    HW1  470   1.426   2.933   3.054  0.4572  3.0652 -1.3924
  157SOL    HW2  471   1.373   3.094   3.058  2.6431 -0.1323  0.2277
  158SOL     OW  472   1.064   1.856   2.019 -0.0745  0.4366 -0.3486
  158SOL    HW1  473   1.096   1.849   2.117 -1.4672  1.4357 -0.5472
  158SOL    HW2  474   0.962   1.854   2.015  2.4157  1.0056 -3.1716
  159SOL     OW  475   0.880   0.366   1.327  0.1078 -0.7053  0.2244
  159SOL    HW1  476   0.837   0.427   1.402 -0.5331 -0.0380 -0.6155
  159SOL    HW2  477   0.825   0.373   1.237  0.2331 -0.5361 -0.9180
  160SOL     OW  478   1.454   2.385   1.644 -0.1664  0.1443  0.5453
  160SOL    HW1  479   1.465   2.473   1.590 -1.1586 -0.6291  2.0969
  160SOL    HW2  480   1.540   2.337   1.668  0.8772  0.0832  1.0958
  161SOL     OW  481   0.112   2.951   0.347  0.0004 -0.0129  0.1215
  161SOL    HW1  482   0.018   2.900   0.358 -3.8483 -2.3927  0.5413
  161SOL    HW2  483   0.120   3.005   0.261  1.7511 -2.2135 -3.0820
  162SOL     OW  484   2.593   1.883   0.503  0.1799  0.2105  0.1405
  162SOL    HW1  485   2.567   1.852   0.408  0.0919  1.8058  0.9621
  162SOL    HW2  486   2.608   1.801   0.565  0.5729 -0.1329 -2.2708
  163SOL     OW  487   1.981   2.753   0.766  0.1562 -0.4566  0.0360
  163SOL    HW1  488   1.938   2.764   0.672 -0.3606  0.1522 -0.0796
  163SOL    HW2  489   2.040   2.669   0.764  0.5417  0.6618 -0.7198
  164SOL     OW  490   3.090   0.243   1.250 -0.1104  0.5909  0.4506
  164SOL    HW1  491   3.178   0.267   1.202 -1.1737  2.8923 -1.1949
  164SOL    HW2  492   3.088   0.270   1.349  2.2615 -0.9721  2.1219
  165SOL     OW  493   0.991   1.390   0.640 -0.2200  0.9517  0.3415
  165SOL    HW1  494   0.919   1.450   0.686  1.9345  0.7260  2.2015
  165SOL    HW2  495   0.989   1.403   0.534  0.7936  0.0189 -2.3233
  166SOL     OW  496   1.399   1.047   1.779  0.2850 -0.0387 -0.2788
  166SOL    HW1  497   1.315   0.996   1.798  0.9857  2.2204 -1.3471
  166SOL    HW2  498   1.453   1.062   1.865  2.8673  1.8568  1.5435
  167SOL     OW  499   0.889   1.860   1.559  0.2119  0.3950 -0.1887
  167SOL    HW1  500   0.867   1.952   1.605 -1.4736  1.8871 -0.8273
  167SOL    HW2  501   0.802   1.801   1.546 -0.4819  1.0394 -2.4683
  168SOL     OW  502   1.514   2.372   0.149 -0.3376 -0.1231 -0.5194
  168SOL    HW1  503   1.581   2.405   0.075 -1.0566  0.0972 -1.0537
  168SOL    HW2  504   1.563   2.330   0.232  0.8592 -0.3969 -2.1641
  169SOL     OW  505   0.171   2.557   2.165  0.1798  0.4904 -0.0962
  169SOL    HW1  506   0.210   2.475   2.111 -0.2664 -0.0786  0.2352
  169SOL    HW2  507   0.123   2.528   2.253  0.3005 -0.9729  0.0651
  170SOL     OW  508   1.274   0.279   1.901 -0.3457 -0.2208 -0.6983
  170SOL    HW1  509   1.327   0.275   1.991  2.7362  0.8051 -2.5728
  170SOL    HW2  510   1.223   0.194   1.884  0.8040 -0.2707 -0.8575
  171SOL     OW  511   0.261   0.829   2.416  0.0414  0.0566  0.3379
  171SOL    HW1  512   0.163   0.841   2.438 -2.2300 -2.8903 -0.3798
  171SOL    HW2  513   0.277   0.826   2.311  3.2464 -0.4752 -1.5475
  172SOL     OW  514   0.905   1.121   2.924 -0.0183 -0.1576 -0.3004
  172SOL    HW1  515   1.012   1.129   2.944  1.9922  1.1548  2.7288
  172SOL    HW2  516   0.881   1.085   2.828 -0.6111 -1.2616 -1.6946
  173SOL     OW  517   0.663   2.708   0.163 -0.2474  0.0748 -0.1970
  173SOL    HW1  518   0.661   2.813   0.168  0.0908 -0.4551 -0.3796
  173SOL    HW2  519   0.572   2.669   0.129  0.3140 -0.0043 -1.2835
  174SOL     OW  520   1.318   2.746   1.048  0.1976 -0.0666 -0.0039
  174SOL    HW1  521   1.332   2.805   0.965  1.7535 -1.5857  0.7145
  174SOL    HW2  522   1.267   2.657   1.024 -0.3915  2.3513  0.5025
  175SOL     OW  523   0.386   0.011   1.706 -0.2763 -0.1590  0.3594
  175SOL    HW1  524   0.455   0.071   1.758 -0.7515  2.5434  2.6193
  175SOL    HW2  525   0.321   0.071   1.651  0.1767 -2.0130 -1.0949
  176SOL     OW  526   2.608   0.359   3.026 -0.6028 -0.0824  0.6313
  176SOL    HW1  527   2.610   0.445   3.089  1.9600  1.7738  1.0339
  176SOL    HW2  528   2.559   0.285   3.079 -1.9238 -0.1190 -0.6247
  177SOL     OW  529   0.382   0.354   0.867  0.0942  0.5873  0.1524
  177SOL    HW1  530   0.420   0.283   0.932  0.6666  0.1771 -1.0168
  177SOL    HW2  531   0.321   0.422   0.918  1.0773  0.0929  2.8510
  178SOL     OW  532   0.003   2.696   2.622 -0.2175 -0.2334 -0.1564
  178SOL    HW1  533  -0.084   2.671   2.677  1.1793  2.5629  2.9423
  178SOL    HW2  534   0.093   2.698   2.674 -3.1526  0.8247 -0.8818
  179SOL     OW  535   0.015   1.728   1.176  0.4563 -0.6026 -0.5227
  179SOL    HW1  536  -0.066   1.795   1.162 -1.9126  1.3771 -0.0584
  179SOL    HW2  537  -0.004   1.644   1.240  3.4632  2.0035  1.6844
  180SOL     OW  538   0.181   1.253   1.838  0.4398 -0.0089 -0.0677
  180SOL    HW1  539   0.287   1.258   1.817 -2.2384 -1.1845  3.0802
  180SOL    HW2  540   0.159   1.336   1.900 -0.9467 -0.1176  1.3197
  181SOL     OW  541   2.994   1.816   2.520 -0.5513  0.3704 -0.2802
  181SOL    HW1  542   3.084   1.849   2.487  0.6606  1.9535 -1.7268
  181SOL    HW2  543   2.914   1.871   2.479 -0.3809 -5.4601  5.4815
  182SOL     OW  544   2.291   1.215   1.244  0.1374  0.3148  0.3564
  182SOL    HW1  545   2.230   1.188   1.160  3.9947 -0.0366 -2.0276
  182SOL    HW2  546   2.330   1.310   1.239  1.0140 -3.1064  1.8659
  183SOL     OW  547   1.534   2.245   2.509  0.2578 -0.0329 -0.3982
  183SOL    HW1  548   1.447   2.189   2.525 -1.4445 -1.2741  0.0851
  183SOL    HW2  549   1.625   2.197   2.520 -0.6446  0.6538  0.9816
  184SOL     OW  550   2.047   0.906   0.741 -0.1400 -0.3265  0.3431
  184SOL    HW1  551   1.963   0.963   0.747  2.5223  1.1118  1.2628
  184SOL    HW2  552   2.031   0.815   0.778  1.2224  2.7291  1.4659
  185SOL     OW  553   1.668   2.746   2.128  0.3385 -0.4800 -0.6221
  185SOL    HW1  554   1.605   2.826   2.106  1.9599  2.6646  0.3957
  185SOL    HW2  555   1.667   2.722   2.229 -0.3165  0.0671 -2.0372
  186SOL     OW  556   0.110   2.243   1.723  0.1173  0.5418  0.2984
  186SOL    HW1  557   0.137   2.322   1.660  2.9286  0.8695  2.0895
  186SOL    HW2  558   0.189   2.181   1.745  0.2891 -2.5299  0.0102
  187SOL     OW  559   1.417   0.656   1.716 -0.2074  0.3063 -0.4261
  187SOL    HW1  560   1.480   0.714   1.663 -1.7732 -1.2814 -0.0793
  187SOL    HW2  561   1.384   0.705   1.801  0.5356  1.7786 -1.0002
  188SOL     OW  562   2.758   2.752   1.523  0.4132  0.1527  0.3067
  188SOL    HW1  563   2.750   2.844   1.474  1.4956  1.7859 -0.7455
  188SOL    HW2  564   2.715   2.672   1.471 -2.0119  0.6825  0.0637
  189SOL     OW  565   0.741   1.009   1.479  0.6587  0.0852 -0.3201
  189SOL    HW1  566   0.828   1.069   1.474  2.5998  1.3411  1.7565
  189SOL    HW2  567   0.723   0.961   1.389  2.5244 -0.8203  1.5097
  190SOL     OW  568   1.479   1.757   1.666 -0.3086 -0.6545 -0.4099
  190SOL    HW1  569   1.426   1.827   1.605 -2.3652 -1.8172 -1.4886
  190SOL    HW2  570   1.548   1.803   1.732 -0.5537 -0.0193  0.9449
  191SOL     OW  571   1.027   0.795   1.542 -0.1374  0.0752  0.2081
  191SOL    HW1  572   1.072   0.711   1.582 -0.5287  0.6094 -0.3228
  191SOL    HW2  573   1.088   0.869   1.506 -1.7590 -0.3567 -0.1366
  192SOL     OW  574   1.899   2.238   1.214 -0.0658  0.6721  0.3809
  192SOL    HW1  575   1.813   2.228   1.150 -1.9587  0.0591 -1.3360
  192SOL    HW2  576   1.976   2.294   1.163 -0.3575 -0.9844 -0.9827
  193SOL     OW  577   0.509   0.541   0.342  0.2036  0.4207 -0.9455
  193SOL    HW1  578   0.500   0.448   0.390  2.4423 -0.1284  1.2931
  193SOL    HW2  579   0.534   0.530   0.243  1.1253  1.8836  3.1025
  194SOL     OW  580   0.306   0.844   1.251  0.1258  0.3338  0.5568
  194SOL    HW1  581   0.215   0.802   1.224 -1.7826  1.4033 -1.0564
  194SOL    HW2  582   0.342   0.901   1.171  0.3274 -2.1011 -1.4421
  195SOL     OW  583   0.942   2.940   0.491  0.1391 -0.0677 -0.1341
  195SOL    HW1  584   0.943   2.838   0.458 -1.7148 -0.8938 -0.4326
  195SOL    HW2  585   1.039   2.987   0.490  0.4833 -1.1754 -2.4503
  196SOL     OW  586   0.247   1.444   1.353 -0.3063 -0.4341  0.7725
  196SOL    HW1  587   0.308   1.506   1.406  2.7331 -0.7558  0.5990
  196SOL    HW2  588   0.238   1.354   1.406  2.0280  0.1920  0.3787
  197SOL     OW  589   0.820   2.001   0.212  0.2243  0.1828 -0.5178
  197SOL    HW1  590   0.831   1.979   0.315  0.4401 -1.5279  0.4675
  197SOL    HW2  591   0.888   1.952   0.155 -0.6781  0.5506  0.5936
  198SOL     OW  592   0.303   1.183   0.247 -0.3479  0.6231  0.5343
  198SOL    HW1  593   0.201   1.194   0.247  1.6371 -1.3670 -0.1967
  198SOL    HW2  594   0.353   1.274   0.267 -1.4336  1.4346  0.8118
  199SOL     OW  595   2.276   0.401   2.501  0.3712 -0.2961  0.1167
  199SOL    HW1  596   2.206   0.342   2.557  0.1836 -1.3301  1.1382
  199SOL    HW2  597   2.375   0.377   2.526 -0.2878 -2.4518  2.9622
  200SOL     OW  598   0.002   2.884   0.801 -0.3912 -0.2582  0.0558
  200SOL    HW1  599  -0.066   2.887   0.723 -1.1224  0.9355 -2.0579
  200SOL    HW2  600   0.047   2.981   0.811 -1.8876  2.0335 -2.3648
  201SOL     OW  601   1.143   0.685   0.545  0.3473  0.0942 -0.2141
  201SOL    HW1  602   1.144   0.776   0.583  0.1323 -1.9943  0.0757
  201SOL    HW2  603   1.048   0.652   0.517 -1.3612  0.5439 -0.1831
  202SOL     OW  604   0.447   1.203   1.772  0.1507 -0.0427  0.0743
  202SOL    HW1  605   0.511   1.227   1.695 -0.0917  0.3994  1.7909
  202SOL    HW2  606   0.490   1.129   1.830 -0.6308 -5.0957 -1.1206
  203SOL     OW  607   0.603   0.212   1.518  0.3842  0.0333 -0.6027
  203SOL    HW1  608   0.624   0.172   1.424  2.4074  0.2550 -0.9286
  203SOL    HW2  609   0.600   0.151   1.603 -1.3031  0.4417  2.9130
  204SOL     OW  610   2.070   1.870   3.025  0.1582 -0.4065  0.0449
  204SOL    HW1  611   2.095   1.769   3.009 -0.6788 -1.5703 -0.9021
  204SOL    HW2  612   2.021   1.902   2.941 -0.6833  0.1429 -0.7944
  205SOL     OW  613   1.870   1.867   0.116 -0.4357 -0.1664 -0.3905
  205SOL    HW1  614   1.948   1.853   0.051 -0.3633  2.0367  0.4868
  205SOL    HW2  615   1.814   1.949   0.094 -2.9574  1.7910 -0.1083
  206SOL     OW  616   2.500   2.809   0.391  0.0305  0.3656 -0.1367
  206SOL    HW1  617   2.562   2.726   0.406 -0.0520 -1.1276 -0.2632
  206SOL    HW2  618   2.539   2.881   0.327 -1.2708  3.1759 -0.3554
  207SOL     OW  619   0.555   1.734   2.846  0.3230 -0.1632  0.1250
  207SOL    HW1  620   0.657   1.738   2.828  1.1946  1.6218 -0.1093
  207SOL    HW2  621   0.528   1.658   2.917  0.8088 -2.0144  0.9603
  208SOL     OW  622   1.032   1.461   1.374 -0.4197  0.4934  0.5570
  208SOL    HW1  623   0.942   1.503   1.344  0.9527 -1.5653  0.5868
  208SOL    HW2  624   1.078   1.506   1.455 -0.5326  2.5673 -0.1575
  209SOL     OW  625   0.144   0.933   3.082 -0.4096  0.1588 -0.0151
  209SOL    HW1  626   0.198   0.904   3.001  2.3933  3.1789  2.0504
  209SOL    HW2  627   0.192   0.905   3.173 -1.9330 -0.0177  0.1578
  210SOL     OW  628   1.711   0.461   1.156  0.0404  0.2439 -0.2488
  210SOL    HW1  629   1.648   0.541   1.139 -1.1148  1.0191  0.8949
  210SOL    HW2  630   1.811   0.482   1.121 -1.3316  0.3996  0.1677
  211SOL     OW  631   2.113   1.049   1.672  0.0128 -0.4952  0.4940
  211SOL    HW1  632   2.166   0.996   1.747 -1.2391 -1.2816  0.4371
  211SOL    HW2  633   2.187   1.093   1.609  4.4235  2.1748 -0.0826
  212SOL     OW  634   0.032   1.004   1.441 -0.0521 -0.1742  0.2337
  212SOL    HW1  635   0.078   1.091   1.481  0.8303  0.8361  1.4039
  212SOL    HW2  636   0.034   0.922   1.508 -1.4578  1.4863  0.2477
  213SOL     OW  637   2.724   0.295   0.267 -0.5607  0.1800 -0.3880
  213SOL    HW1  638   2.789   0.215   0.245 -1.4780  2.5659 -1.3087
  213SOL    HW2  639   2.740   0.380   0.208  1.3201  1.8247  0.0556
  214SOL     OW  640   2.173   0.294   2.275  0.4553 -0.4700  0.6051
  214SOL    HW1  641   2.227   0.316   2.359  0.8015 -1.0691  2.7424
  214SOL    HW2  642   2.121   0.202   2.278 -0.5537 -0.8783 -0.4166
  215SOL     OW  643   1.677   2.302   2.057 -0.4967 -0.3444 -0.5668
  215SOL    HW1  644   1.784   2.312   2.043 -0.7252  2.8043  3.5321
  215SOL    HW2  645   1.629   2.382   2.106  0.0857 -0.3369  0.4125
  216SOL     OW  646   2.244   0.528   0.653 -0.0039 -0.1644 -0.1732
  216SOL    HW1  647   2.174   0.458   0.605 -1.5114 -2.5158 -0.0843
  216SOL    HW2  648   2.249   0.620   0.605 -0.8438  0.3771  0.2985
  217SOL     OW  649   0.766   2.787   2.423 -0.4712  0.7470 -0.4112
  217SOL    HW1  650   0.751   2.693   2.469  1.2741 -3.1952 -1.1920
  217SOL    HW2  651   0.790   2.779   2.320  2.0823  0.3764 -1.0719
  218SOL     OW  652   1.926   1.446   0.018 -0.3157 -0.0067  0.8673
  218SOL    HW1  653   1.831   1.479  -0.003  2.7485 -0.8121 -0.6053
  218SOL    HW2  654   1.933   1.351   0.059 -2.3467  1.6785 -1.8290
  219SOL     OW  655   2.389   1.311   2.576  0.0568  0.2854 -0.5183
  219SOL    HW1  656   2.350   1.252   2.503  1.8303  1.6177  2.6284
  219SOL    HW2  657   2.397   1.259   2.666  0.9967 -2.2125  0.5366
  220SOL     OW  658   1.425   1.049   1.245 -0.4643 -0.1861  0.2928
  220SOL    HW1  659   1.473   1.017   1.332 -0.4624 -0.5869 -2.7273
  220SOL    HW2  660   1.388   1.145   1.251 -1.2674 -2.5677 -0.0149
  221SOL     OW  661   1.303   1.122   2.146  0.4111  0.4939 -0.3406
  221SOL    HW1  662   1.256   1.196   2.091 -1.2088  0.1756  0.9071
  221SOL    HW2  663   1.393   1.092   2.109 -0.0291  3.7007 -0.5232
  222SOL     OW  664   1.296   0.137   1.141 -0.7946 -0.6181  0.2041
  222SOL    HW1  665   1.382   0.118   1.083 -0.9655 -1.1736 -0.1280
  222SOL    HW2  666   1.320   0.129   1.242  1.7918 -2.7219  0.7397
  223SOL     OW  667   2.886   0.818   1.972  0.3543  0.2587  0.1241
  223SOL    HW1  668   2.879   0.843   2.071  1.1355  0.4076  0.5869
  223SOL    HW2  669   2.921   0.900   1.920  0.3307  0.4808 -0.6269
  224SOL     OW  670   1.570   1.031   2.785 -0.0703 -0.0616 -0.1749
  224SOL    HW1  671   1.551   0.960   2.710  3.0150  1.1828  2.0382
  224SOL    HW2  672   1.571   1.123   2.747  1.7648 -0.9400 -0.2916
  225SOL     OW  673   2.972   2.794   2.929  0.7113  0.3104  0.2472
  225SOL    HW1  674   2.921   2.724   2.874  2.1851 -0.9282 -1.3293
  225SOL    HW2  675   3.016   2.863   2.869 -0.5725 -2.9346 -0.3892
  226SOL     OW  676   2.453   1.695   2.845  0.1157 -0.3795  0.1068
  226SOL    HW1  677   2.494   1.638   2.763 -0.5245 -2.6668  1.8017
  226SOL    HW2  678   2.416   1.634   2.921 -1.9268 -1.4446 -0.9931
  227SOL     OW  679   0.780   0.136   2.979  0.6587 -0.1172 -0.1207
  227SOL    HW1  680   0.830   0.071   3.046  0.4301 -1.4204  0.0836
  227SOL    HW2  681   0.804   0.118   2.882  0.0392 -1.8005  1.4739
  228SOL     OW  682   2.363   0.561   2.785 -0.1750  0.1944  0.1262
  228SOL    HW1  683   2.309   0.577   2.698 -0.9411 -0.7334 -0.9022
  228SOL    HW2  684   2.429   0.484   2.780  0.4779  2.9194 -0.2942
  229SOL     OW  685   0.598   0.504   1.886 -0.1771  0.0768  0.4155
  229SOL    HW1  686   0.632   0.494   1.784  1.6746 -2.0784  0.0714
  229SOL    HW2  687   0.673   0.532   1.953  0.4110  0.0049 -5.0390
  230SOL     OW  688   1.932   1.224   2.143 -0.0594  0.1095 -0.1505
  230SOL    HW1  689   1.996   1.274   2.075 -0.6630  1.5893 -2.3745
  230SOL    HW2  690   1.838   1.265   2.136  2.4257  2.1351 -0.0240
  231SOL     OW  691   0.629   1.060   2.945 -0.1200 -0.2725  0.2895
  231SOL    HW1  692   0.723   1.096   2.952 -2.2345  0.5182  1.5530
  231SOL    HW2  693   0.592   1.038   3.035  1.5499 -0.5650  1.4086
  232SOL     OW  694   2.547   0.033   2.737  0.2840  0.1270  0.1142
  232SOL    HW1  695   2.562  -0.060   2.782  0.4554 -0.3019  1.7378
  232SOL    HW2  696   2.539   0.034   2.631 -1.8136 -0.0104 -0.1840
  233SOL     OW  697   1.739   1.280   1.043  0.0528 -0.4383  0.1947
  233SOL    HW1  698   1.730   1.322   0.948  1.8239  0.9090 -1.1567
  233SOL    HW2  699   1.772   1.180   1.050 -0.3694  0.2968 -0.7849
  234SOL     OW  700   1.629   2.619   1.889  0.1108  0.6550 -1.0415
  234SOL    HW1  701   1.656   2.651   1.986  0.3059  0.8581  0.7214
  234SOL    HW2  702   1.555   2.547   1.891  0.1329 -0.0773  0.4446
  235SOL     OW  703   0.022   3.005   2.817  0.3342 -0.0650 -0.3124
  235SOL    HW1  704   0.110   3.054   2.783  1.4609 -1.2926  2.6254
  235SOL    HW2  705  -0.046   3.076   2.848  0.8911  0.9301  0.8295
  236SOL     OW  706   2.826   0.682   0.035 -0.1747 -0.2501 -0.2723
  236SOL    HW1  707   2.881   0.732   0.108 -1.5930 -2.8030  1.0864
  236SOL    HW2  708   2.877   0.606  -0.010 -0.8564 -0.2428 -0.3098
  237SOL     OW  709   1.499   1.660   1.019  0.4289 -0.0185  0.2055
  237SOL    HW1  710   1.586   1.607   1.041 -0.1225  2.0476  0.2920
  237SOL    HW2  711   1.462   1.709   1.106 -1.1700 -0.2188  1.2128
  238SOL     OW  712   1.772   1.338   0.773 -0.0254  0.2579  0.2199
  238SOL    HW1  713   1.867   1.373   0.744 -0.2190  0.8827 -0.6173
  238SOL    HW2  714   1.690   1.388   0.729 -1.6611  0.5695 -3.0956
  239SOL     OW  715   2.131   0.284   2.702 -0.1859 -0.4016  0.5066
  239SOL    HW1  716   2.215   0.270   2.766  1.0525  3.3334 -0.2235
  239SOL    HW2  717   2.055   0.339   2.752 -2.7879  0.8188  1.2734
  240SOL     OW  718   0.868   0.703   0.222 -0.1511 -0.2285 -0.1308
  240SOL    HW1  719   0.842   0.629   0.153  1.2446 -3.4188  0.8267
  240SOL    HW2  720   0.889   0.668   0.319  0.8271 -0.2470 -4.5108
  241SOL     OW  721   0.549   0.042   0.337  0.2620  0.2675 -0.7849
  241SOL    HW1  722   0.605   0.003   0.257  0.0481  2.7301  2.0486
  241SOL    HW2  723   0.503  -0.032   0.394 -1.3415 -1.0791  2.2794
  242SOL     OW  724   0.704   2.394   1.119 -0.3464 -0.0611 -0.6030
  242SOL    HW1  725   0.678   2.468   1.184  0.1957 -0.3489 -1.2155
  242SOL    HW2  726   0.793   2.409   1.066  2.5149 -0.1423 -1.5670
  243SOL     OW  727   1.082   0.616   2.479  0.1074 -0.3271 -0.2776
  243SOL    HW1  728   1.017   0.670   2.422  0.7860  0.9709  0.3706
  243SOL    HW2  729   1.038   0.537   2.527  0.3575  0.9134  0.2961
  244SOL     OW  730   2.812   1.990   2.385 -0.2195 -0.8457  0.3475
  244SOL    HW1  731   2.859   1.987   2.290  0.3749  0.0126 -2.3537
  244SOL    HW2  732   2.713   1.988   2.381 -0.1859 -0.4751  0.0618
  245SOL     OW  733   2.460   0.713   2.163 -0.3930  0.4187 -0.1346
  245SOL    HW1  734   2.491   0.777   2.240  1.3398 -1.6261  1.6482
  245SOL    HW2  735   2.528   0.636   2.139 -0.9954  0.3160 -1.8486
  246SOL     OW  736   0.218   2.866   1.746 -0.6225  0.1332 -0.3205
  246SOL    HW1  737   0.154   2.841   1.669  0.5098  2.1352  0.3361
  246SOL    HW2  738   0.283   2.942   1.719 -0.8234  0.3134 -3.6601
  247SOL     OW  739   2.198   0.527   3.009  0.0865  0.0389 -0.2010
  247SOL    HW1  740   2.259   0.521   2.927  0.1810 -0.5072  0.8478
  247SOL    HW2  741   2.153   0.624   3.018 -2.8384  0.1693 -0.3496
  248SOL     OW  742   2.174   1.883   1.614 -0.2210  0.5830 -0.1249
  248SOL    HW1  743   2.206   1.792   1.655  0.7003  1.1690  1.1611
  248SOL    HW2  744   2.079   1.910   1.644 -0.1833  0.1187 -1.4853
  249SOL     OW  745   2.008   1.927   1.947 -0.0828 -0.3076  0.0373
  249SOL    HW1  746   1.973   1.876   1.866 -1.1315  0.2935  1.5450
  249SOL    HW2  747   2.086   1.995   1.933  0.2913 -1.4815  1.0030
  250SOL     OW  748   1.009   0.657   1.874 -0.2439 -0.1782 -0.4311
  250SOL    HW1  749   1.055   0.595   1.949  3.7218  3.0036  1.1075
  250SOL    HW2  750   1.045   0.647   1.778 -1.5485  0.4852 -1.2001
  251SOL     OW  751   3.033   1.546   2.577 -0.6781 -0.3182 -0.3402
  251SOL    HW1  752   3.035   1.642   2.535  1.5943 -1.3734  0.4034
  251SOL    HW2  753   2.936   1.504   2.574 -1.1667  1.4262  0.1456
  252SOL     OW  754   1.546   0.859   1.591 -0.0082 -0.2534 -0.2130
  252SOL    HW1  755   1.617   0.911   1.538 -0.0042 -0.0617  0.1579
  252SOL    HW2  756   1.482   0.921   1.646  1.2355  1.0562  2.7216
  253SOL     OW  757   1.003   1.531   0.387 -0.2932  0.1398  0.1215
  253SOL    HW1  758   1.092   1.498   0.357  3.8811 -0.0179 -0.8335
  253SOL    HW2  759   0.928   1.475   0.336  0.2097 -1.1921  0.5983
  254SOL     OW  760   1.985   2.145   1.603 -0.2285  0.0607 -0.4652
  254SOL    HW1  761   1.955   2.080   1.524 -1.3886  0.6905  1.0325
  254SOL    HW2  762   1.907   2.202   1.638  0.8344  1.0546  1.6934
  255SOL     OW  763   0.125   1.134   2.924  0.0096  0.4052 -0.6342
  255SOL    HW1  764   0.202   1.202   2.920  1.2887 -0.0313  1.1641
  255SOL    HW2  765   0.138   1.061   3.003  2.9888 -0.8793 -1.1255
  256SOL     OW  766   2.738   1.324   1.836 -0.1020 -0.0973  0.2362
  256SOL    HW1  767   2.664   1.353   1.764 -0.0018  4.4337 -0.7794
  256SOL    HW2  768   2.700   1.253   1.904 -0.9311  0.2876  1.2834
  257SOL     OW  769   0.848   0.245   1.864 -0.1161 -0.0198  0.1961
  257SOL    HW1  770   0.896   0.287   1.781  0.1766  0.4066  0.7419
  257SOL    HW2  771   0.891   0.160   1.902 -0.8865 -0.3653  0.7302
  258SOL     OW  772   2.940   1.274   0.417  0.1363 -0.4777  0.2822
  258SOL    HW1  773   2.873   1.357   0.411 -1.1017  0.2693  1.4209
  258SOL    HW2  774   2.985   1.267   0.511  2.4066 -1.0916  2.1470
  259SOL     OW  775   0.520   2.873   3.000  0.0716  0.1686 -0.3852
  259SOL    HW1  776   0.459   2.840   3.075  1.4053 -1.3634 -0.5240
  259SOL    HW2  777   0.530   2.816   2.916 -3.4556  0.2361  0.2212
  260SOL     OW  778   2.644   0.747   2.684  0.1674 -0.5276  0.4111
  260SOL    HW1  779   2.556   0.807   2.676 -1.0376  0.3523  1.3527
  260SOL    HW2  780   2.637   0.662   2.746  0.2009  0.1890  2.0914
  261SOL     OW  781   2.709   1.310   1.309 -0.1280  0.4001 -0.0612
  261SOL    HW1  782   2.657   1.226   1.267  0.8050 -0.4191 -1.0796
  261SOL    HW2  783   2.812   1.294   1.313  0.4514  0.9151 -1.7300
  262SOL     OW  784   1.500   2.944   2.040 -0.3033  0.0122  0.0091
  262SOL    HW1  785   1.536   3.019   1.975 -1.4194 -1.3812 -0.8340
  262SOL    HW2  786   1.419   2.893   1.999 -0.0347 -2.4969 -1.4205
  263SOL     OW  787   0.884   0.752   2.348 -0.5589 -0.0557  0.0732
  263SOL    HW1  788   0.809   0.696   2.307 -2.1439  0.4758 -1.4026
  263SOL    HW2  789   0.919   0.828   2.287  0.2739  1.4085  0.7830
  264SOL     OW  790   2.276   0.771   0.508  0.0103  0.2780  0.3171
  264SOL    HW1  791   2.184   0.819   0.492 -1.8137 -1.2341 -1.1086
  264SOL    HW2  792   2.358   0.842   0.494  0.8999 -0.4292 -0.8171
  265SOL     OW  793   0.885   2.323   2.689 -0.4485  0.0615 -0.1702
  265SOL    HW1  794   0.920   2.399   2.748 -2.1468 -0.0937 -0.2895
  265SOL    HW2  795   0.852   2.244   2.755 -1.6965  1.4556  0.8463
  266SOL     OW  796   1.295   1.747   0.022  0.2779 -0.0145 -0.0312
  266SOL    HW1  797   1.237   1.816   0.066 -0.0300 -0.3190 -2.5788
  266SOL    HW2  798   1.396   1.753   0.037  0.5228  1.0773 -1.4812
  267SOL     OW  799   1.098   0.024   2.315 -0.1549  0.2899  0.3036
  267SOL    HW1  800   1.140  -0.064   2.278  0.5649 -0.4884  0.2783
  267SOL    HW2  801   1.075   0.100   2.248 -2.2572  0.3087 -0.0386
  268SOL     OW  802   0.599   1.130   1.088 -0.7184 -0.1906 -0.1379
  268SOL    HW1  803   0.595   1.178   1.180 -0.9789 -0.5175  2.2300
  268SOL    HW2  804   0.634   1.195   1.009  0.4374 -1.1609 -3.0813
  269SOL     OW  805   2.453   2.589   1.559  0.1830 -0.5004  0.2781
  269SOL    HW1  806   2.526   2.514   1.567 -0.5455 -0.4126  0.8486
  269SOL    HW2  807   2.397   2.596   1.649  0.8074 -1.6509  1.8445
  270SOL     OW  808   0.316   2.770   2.027 -0.3042  0.0253 -0.2012
  270SOL    HW1  809   0.274   2.809   1.941 -1.1555  1.4146  1.1496
  270SOL    HW2  810   0.305   2.666   2.035  0.4732  0.4218 -0.4577
  271SOL     OW  811   0.396   1.371   1.133  0.6037 -0.2184  0.3261
  271SOL    HW1  812   0.390   1.404   1.032  0.1115  1.7007  1.4248
  271SOL    HW2  813   0.321   1.393   1.198  0.6469  2.7941  0.9959
  272SOL     OW  814   1.983   2.832   1.899  0.0629  0.3005  0.4539
  272SOL    HW1  815   1.919   2.846   1.821 -0.8413  0.4273 -0.7546
  272SOL    HW2  816   2.065   2.901   1.895  1.6989  1.3656  1.6246
  273SOL     OW  817   1.401   1.439   2.897  0.1909  0.2296 -0.4334
  273SOL    HW1  818   1.492   1.452   2.944 -0.0951  0.3463  0.8924
  273SOL    HW2  819   1.316   1.467   2.952 -0.3736 -0.4697  2.4675
  274SOL     OW  820   1.133   0.490   2.068  0.3369 -0.2358 -0.5188
  274SOL    HW1  821   1.186   0.431   1.998 -1.3251  1.1619  2.0973
  274SOL    HW2  822   1.184   0.506   2.157 -0.2003  0.2157  0.9458
  275SOL     OW  823   0.651   2.060   1.924  0.0863 -0.3415  0.2608
  275SOL    HW1  824   0.632   2.158   1.947 -0.5711 -0.7418 -0.0807
  275SOL    HW2  825   0.567   2.003   1.915 -1.7111  1.2831 -4.5828
  276SOL     OW  826   2.147   0.951   2.779 -0.1195  0.8701  0.1958
  276SOL    HW1  827   2.097   0.984   2.693  0.1701  0.0908  1.8022
  276SOL    HW2  828   2.092   0.969   2.868 -2.7855  2.1291  1.0223
  277SOL     OW  829   3.001   0.814   0.217  0.0784  0.0565 -0.1765
  277SOL    HW1  830   3.099   0.822   0.176 -1.6885  1.6590 -1.2573
  277SOL    HW2  831   3.008   0.730   0.283 -3.3053  1.5194  1.1997
  278SOL     OW  832   0.212   0.291   2.929 -0.2993 -0.0624 -0.0947
  278SOL    HW1  833   0.274   0.230   2.978 -0.1381 -0.9577  0.3883
  278SOL    HW2  834   0.215   0.392   2.953 -0.5509 -0.9822  0.8511
  279SOL     OW  835   0.134   0.013   0.877 -0.0011 -0.4665  0.0843
  279SOL    HW1  836   0.158   0.009   0.980 -1.1774 -0.8353  0.1063
  279SOL    HW2  837   0.215   0.018   0.812 -0.3860 -1.7067 -0.6955
  280SOL     OW  838   1.662   2.938   2.500 -0.2513 -0.0415  0.1418
  280SOL    HW1  839   1.713   3.011   2.554  1.3953 -0.4460  1.1945
  280SOL    HW2  840   1.565   2.963   2.497 -1.7822 -2.1206 -0.3738
  281SOL     OW  841   0.641   0.989   2.320 -0.2248 -0.2922 -0.2039
  281SOL    HW1  842   0.598   0.918   2.256 -2.1838 -3.5183  1.6363
  281SOL    HW2  843   0.641   0.964   2.421  1.3035  1.9070  0.6798
  282SOL     OW  844   1.646   2.495   0.560 -0.2162 -0.2658 -0.3769
  282SOL    HW1  845   1.595   2.445   0.484  0.7774  0.2935 -2.0749
  282SOL    HW2  846   1.610   2.591   0.572  2.0031  2.1084 -2.3021
  283SOL     OW  847   1.092   0.933   0.692  0.5599  0.1958 -0.0960
  283SOL    HW1  848   1.151   0.895   0.766  0.5590  1.2224  0.6533
  283SOL    HW2  849   1.015   1.001   0.730 -1.8693  2.8695  0.0693
  284SOL     OW  850   2.241   2.837   2.405  0.5713 -0.4476  0.3203
  284SOL    HW1  851   2.251   2.851   2.505  1.6517  0.2735 -1.6836
  284SOL    HW2  852   2.224   2.923   2.352 -0.4236  2.0757 -2.9405
  285SOL     OW  853   1.395   3.050   2.544  0.3568 -0.2216  0.2676
  285SOL    HW1  854   1.398   3.074   2.443 -1.1106  0.4092 -1.1681
  285SOL    HW2  855   1.308   3.097   2.590  0.9429 -0.4012  1.2921
  286SOL     OW  856   0.415   0.488   0.631 -0.0565  0.0803  0.2105
  286SOL    HW1  857   0.385   0.437   0.711  1.1590  3.1475 -0.8950
  286SOL    HW2  858   0.404   0.438   0.543  1.8046  1.8206  1.0483
  287SOL     OW  859   0.051   1.311   2.535  0.3890  0.5712 -0.2450
  287SOL    HW1  860   0.021   1.232   2.589 -1.5436  2.8178 -0.5597
  287SOL    HW2  861  -0.004   1.396   2.558 -0.3220  1.6439 -3.0630
  288SOL     OW  862   1.584   2.579   1.477  0.2830  0.5492 -1.1540
  288SOL    HW1  863   1.680   2.576   1.521  0.9212 -2.2625 -1.2723
  288SOL    HW2  864   1.584   2.564   1.380  0.1377  1.9196  3.6721
  289SOL     OW  865   0.636   2.722   0.818  0.3476 -0.2135 -0.0122
  289SOL    HW1  866   0.657   2.794   0.745 -2.7475  0.6649  0.8308
  289SOL    HW2  867   0.651   2.751   0.916  2.6631 -0.1364  0.8703
  290SOL     OW  868   2.950   1.243   1.691  0.0543 -0.4551 -0.0603
  290SOL    HW1  869   2.872   1.275   1.754  1.1873  0.8055  1.2838
  290SOL    HW2  870   3.018   1.173   1.736  3.0079 -0.4425 -1.9171
  291SOL     OW  871   1.981   0.034   0.076 -0.3200  0.2272 -0.5949
  291SOL    HW1  872   2.010   0.030   0.174 -1.8231  3.1552 -1.6703
  291SOL    HW2  873   2.007   0.126   0.032 -2.4992  0.5752 -0.1528
  292SOL     OW  874   2.978   1.166   3.067 -0.3938 -0.2301  0.1936
  292SOL    HW1  875   2.920   1.246   3.040  0.0424 -0.3916  0.0872
  292SOL    HW2  876   3.052   1.142   2.995 -0.6192  0.2908 -0.1925
  293SOL     OW  877   0.552   2.062   0.165  0.7513 -0.0849  0.1350
  293SOL    HW1  878   0.504   2.128   0.231  2.3247 -1.0967  0.9326
  293SOL    HW2  879   0.653   2.049   0.181 -0.9159  0.5709 -1.4456
  294SOL     OW  880   1.660   2.117   1.848  0.6462  0.5370 -0.1818
  294SOL    HW1  881   1.656   2.182   1.927 -1.5564  1.2962 -0.1720
  294SOL    HW2  882   1.695   2.157   1.758  0.1575  0.6973  2.5473
  295SOL     OW  883   0.962   1.195   0.423 -0.2766 -0.1793  0.1328
  295SOL    HW1  884   1.057   1.157   0.462  3.5841 -0.6331  0.1043
  295SOL    HW2  885   0.879   1.162   0.478 -1.9364  2.6096  1.4130
  296SOL     OW  886   1.279   2.085   2.531 -0.1678 -0.1879 -0.4178
  296SOL    HW1  887   1.247   2.165   2.467 -0.1341  1.3890  4.7017
  296SOL    HW2  888   1.302   1.999   2.476  1.1204 -2.0591 -0.4361
  297SOL     OW  889   1.529   0.711   1.356 -0.2613 -0.0055 -0.6335
  297SOL    HW1  890   1.595   0.637   1.331  0.9223  0.4270  1.1530
  297SOL    HW2  891   1.539   0.736   1.456  0.1942  1.9663 -2.7329
  298SOL     OW  892   0.536   1.297   2.832 -0.5128 -0.3088  0.5232
  298SOL    HW1  893   0.528   1.201   2.865 -2.3376 -0.5029 -1.8539
  298SOL    HW2  894   0.595   1.305   2.745 -2.4054  0.5908  0.5532
  299SOL     OW  895   0.371   0.370   1.477  0.2825 -0.4853 -0.3267
  299SOL    HW1  896   0.358   0.448   1.408  0.2469  0.3230 -1.2112
  299SOL    HW2  897   0.466   0.327   1.482  0.0703 -1.1503  0.9626
  300SOL     OW  898   1.240   1.793   2.862 -0.4647 -0.4157  0.2611
  300SOL    HW1  899   1.257   1.719   2.791 -0.2832  1.4579  0.3917
  300SOL    HW2  900   1.257   1.757   2.960  0.5937 -1.9562  1.6264
  301SOL     OW  901   0.454   0.282   0.414  0.4920 -0.6485  0.1835
  301SOL    HW1  902   0.350   0.278   0.385 -1.2076 -3.4956 -1.4375
  301SOL    HW2  903   0.498   0.189   0.397  1.0251 -0.5419  1.2654
  302SOL     OW  904   1.181   2.291   2.354  0.5197 -0.1042 -0.2234
  302SOL    HW1  905   1.131   2.347   2.421  0.9591  1.8716  2.3781
  302SOL    HW2  906   1.114   2.229   2.299 -0.5902  1.2715 -0.3700
  303SOL     OW  907   0.937   2.398   0.784 -0.4804 -0.4233  0.4403
  303SOL    HW1  908   0.995   2.475   0.746  0.2290 -0.8079  0.1918
  303SOL    HW2  909   0.915   2.415   0.885 -0.3789  1.4793  1.3759
  304SOL     OW  910   0.068   2.033   0.681  0.2923  0.2375 -0.2436
  304SOL    HW1  911   0.124   1.990   0.603 -1.5203 -0.2260  3.6530
  304SOL    HW2  912  -0.013   2.088   0.637 -0.6361  2.5441 -0.4867
  305SOL     OW  913   1.632   0.881   0.699  0.2026  0.2124  0.4131
  305SOL    HW1  914   1.560   0.884   0.622  0.3141  0.3973 -1.6412
  305SOL    HW2  915   1.701   0.810   0.669 -0.5931 -0.7726 -0.9058
  306SOL     OW  916   0.424   1.895   1.926 -0.2814 -0.5399  0.1076
  306SOL    HW1  917   0.491   1.827   1.882 -0.9541  0.1045 -0.4942
  306SOL    HW2  918   0.395   1.874   2.023 -1.0935 -3.7234  0.7551
  307SOL     OW  919   3.098   0.857   2.529  0.1343  0.2504  0.1911
  307SOL    HW1  920   3.093   0.949   2.574  3.9159  0.0456 -2.3190
  307SOL    HW2  921   3.008   0.813   2.514  1.4617 -1.3447  0.4089
  308SOL     OW  922   1.572   2.676   2.824 -0.1111  0.6449 -0.5330
  308SOL    HW1  923   1.582   2.640   2.729  1.3003 -1.6900  4.0660
  308SOL    HW2  924   1.515   2.609   2.884 -1.4951  0.6907  1.6257
  309SOL     OW  925   1.248   0.030   1.806 -0.1824  0.0115  0.4198
  309SOL    HW1  926   1.349   0.032   1.838  1.1248  2.6038 -0.6012
  309SOL    HW2  927   1.244   0.065   1.705  1.6077  1.4746 -4.5720
  310SOL     OW  928   1.335   2.675   0.724 -0.8355  0.5240  0.8461
  310SOL    HW1  929   1.295   2.755   0.775  0.1841  0.5674 -3.4048
  310SOL    HW2  930   1.410   2.711   0.660 -5.1573  1.2414 -0.4938
  311SOL     OW  931   1.227   0.970   1.442  0.0568 -0.4729 -0.5777
  311SOL    HW1  932   1.267   0.941   1.352  0.4050  1.4830  2.9903
  311SOL    HW2  933   1.255   1.066   1.482  0.4233 -0.4648  1.3974
  312SOL     OW  934   1.573   0.679   1.032 -0.7963  0.6055  0.0285
  312SOL    HW1  935   1.547   0.777   1.063 -0.8894  0.6429  0.8564
  312SOL    HW2  936   1.499   0.635   0.969 -1.2326  0.1571 -2.1288
  313SOL     OW  937   1.603   1.456   0.513 -0.0694  0.2600  1.0291
  313SOL    HW1  938   1.505   1.494   0.496  0.0033 -0.2604 -2.1239
  313SOL    HW2  939   1.608   1.354   0.493 -2.5498 -0.2227  1.1369
  314SOL     OW  940   2.929   0.086   3.008 -0.2447 -0.7515 -0.0641
  314SOL    HW1  941   2.928   0.119   3.106 -0.2346 -1.1992 -1.9311
  314SOL    HW2  942   2.842   0.035   2.985  0.2533 -0.6247  0.0412
  315SOL     OW  943   1.246   0.244   2.772 -0.2375 -0.1988  0.1313
  315SOL    HW1  944   1.220   0.167   2.709 -0.1863 -0.4892 -1.2938
  315SOL    HW2  945   1.257   0.213   2.872 -0.7939 -1.6430 -0.2873
  316SOL     OW  946   1.691   2.065   0.917 -0.3564 -0.1100 -0.0124
  316SOL    HW1  947   1.665   2.068   1.017 -1.3006 -2.0522  2.1053
  316SOL    HW2  948   1.660   2.157   0.869  2.0260 -0.5989 -0.8437
  317SOL     OW  949   1.158   0.723   2.817 -0.2512 -0.0387  0.3043
  317SOL    HW1  950   1.084   0.741   2.889 -0.8273 -0.4650 -0.3743
  317SOL    HW2  951   1.149   0.623   2.789 -0.8385 -0.5080 -1.1543
  318SOL     OW  952   1.398   3.077   2.262  0.2843  0.0104  0.0746
  318SOL    HW1  953   1.378   3.175   2.235 -4.2698 -2.4684 -1.1694
  318SOL    HW2  954   1.431   3.016   2.187  0.1441  0.9290 -2.1162
  319SOL     OW  955   0.639   2.390   2.930  0.0628  0.2503 -0.3228
  319SOL    HW1  956   0.560   2.365   2.995 -2.1549 -1.3005  1.2610
  319SOL    HW2  957   0.698   2.306   2.913  1.2252 -1.6265  2.0010
  320SOL     OW  958   1.601   2.266   0.395 -0.3852 -0.1271  0.2523
  320SOL    HW1  959   1.694   2.226   0.398 -1.6671 -0.5525  0.5191
  320SOL    HW2  960   1.534   2.208   0.449 -0.4039  1.7701 -2.6212
  321SOL     OW  961   1.607   2.767   0.535 -0.0292 -0.1442 -0.1641
  321SOL    HW1  962   1.532   2.837   0.499 -1.5005  0.4420  1.1504
  321SOL    HW2  963   1.696   2.762   0.482 -1.9034 -0.6524  0.5370
  322SOL     OW  964   2.684   1.074   2.239  0.2743  0.1006  0.1422
  322SOL    HW1  965   2.744   1.122   2.314 -0.3432  1.0255  1.4616
  322SOL    HW2  966   2.615   1.010   2.287  3.4713  0.9532  2.7840
  323SOL     OW  967   1.023   2.702   0.860  0.3430 -0.0301 -0.0494
  323SOL    HW1  968   1.033   2.676   0.756 -0.7657 -1.1455 -0.3466
  323SOL    HW2  969   1.018   2.806   0.870 -0.8913  1.1481  2.2548
  324SOL     OW  970   0.090   2.511   2.448 -0.1606  0.2043  0.1791
  324SOL    HW1  971   0.068   2.430   2.507 -0.9281  2.3700  2.9267
  324SOL    HW2  972   0.046   2.599   2.486 -0.6705 -1.2927  1.0217
  325SOL     OW  973   1.179   3.071   0.484  0.6418  0.2584 -0.0318
  325SOL    HW1  974   1.198   3.099   0.386  0.1671  0.5759 -0.6681
  325SOL    HW2  975   1.199   3.135   0.561 -1.8265  1.4376  1.4955
  326SOL     OW  976   2.333   0.779   0.044  0.6321 -0.4349 -0.1352
  326SOL    HW1  977   2.240   0.796   0.002  1.8108  0.0201 -0.3162
  326SOL    HW2  978   2.338   0.690   0.093  0.7141  0.0354 -2.2668
  327SOL     OW  979   2.691   0.404   0.532 -0.4269 -0.3450  0.1437
  327SOL    HW1  980   2.701   0.337   0.454 -1.9415 -1.2969  1.3847
  327SOL    HW2  981   2.608   0.385   0.596 -0.1503  0.3753  0.1618
  328SOL     OW  982   2.509   0.640   0.364 -0.6978 -0.0805  0.8738
  328SOL    HW1  983   2.440   0.699   0.407  1.5545 -0.0804 -1.6357
  328SOL    HW2  984   2.530   0.549   0.404 -0.8122  1.2861 -0.4553
  329SOL     OW  985   2.966   2.947   2.154  0.1297  0.4777  0.3484
  329SOL    HW1  986   3.046   2.902   2.197 -0.9999  0.5954 -1.9814
  329SOL    HW2  987   2.997   3.044   2.130 -0.2228 -0.5234  1.4441
  330SOL     OW  988   0.541   0.204   1.838  0.5406 -0.5090  0.1805
  330SOL    HW1  989   0.529   0.307   1.829 -0.2481  0.0598  2.8631
  330SOL    HW2  990   0.636   0.186   1.877  1.7777 -0.2232  0.8763
  331SOL     OW  991   2.920   1.909   1.093  0.2599 -0.2962  0.1360
  331SOL    HW1  992   2.972   1.985   1.055  1.6796 -1.4710  0.4559
  331SOL    HW2  993   2.857   1.940   1.171  1.0178 -0.7367  1.1619
  332SOL     OW  994   0.440   1.045   0.055  0.4068 -0.1390 -0.2165
  332SOL    HW1  995   0.368   1.032  -0.019 -2.9602  0.6469 -0.5571
  332SOL    HW2  996   0.409   1.096   0.137  1.7413 -0.8390 -1.2794
  333SOL     OW  997   2.853   1.052   0.259  0.0221  0.2156 -0.4171
  333SOL    HW1  998   2.896   1.131   0.317  2.2367  0.4998  0.5244
  333SOL    HW2  999   2.924   0.975   0.240 -0.7589 -0.9500  2.3591
  334SOL     OW 1000   1.643   1.164   1.911 -0.2181 -0.4657 -0.1897
  334SOL    HW1 1001   1.740   1.160   1.876 -4.7170  0.6230  3.0107
  334SOL    HW2 1002   1.632   1.242   1.981  2.1492 -0.5078 -0.2639
  335SOL     OW 1003   1.997   2.788   2.611 -0.0482  0.3468  0.0258
  335SOL    HW1 1004   1.944   2.772   2.702 -1.4720  2.3876  0.8447
  335SOL    HW2 1005   2.001   2.891   2.585  0.4409  1.4587  1.8023
  336SOL     OW 1006   0.225   0.073   2.717 -0.0572 -0.0048  0.2427
  336SOL    HW1 1007   0.316   0.020   2.724 -0.1889  1.9904  0.2624
  336SOL    HW2 1008   0.227   0.171   2.748  1.2940  0.8399  1.1231
  337SOL     OW 1009   0.964   2.804   2.861 -0.4549  0.3337 -0.2019
  337SOL    HW1 1010   0.939   2.790   2.958 -0.9625  0.5225 -2.9898
  337SOL    HW2 1011   1.060   2.781   2.840 -1.6732  0.4257  1.0857
  338SOL     OW 1012   0.011   1.007   0.606  0.8447 -0.3010 -0.2769
  338SOL    HW1 1013  -0.088   0.994   0.645 -0.5735  2.3993  0.4144
  338SOL    HW2 1014   0.023   1.107   0.580 -0.0914 -0.5219  3.4119
  339SOL     OW 1015   1.680   1.379   2.072 -0.1953 -0.5810  0.2661
  339SOL    HW1 1016   1.579   1.406   2.088  0.0467  0.5649  0.0635
  339SOL    HW2 1017   1.741   1.463   2.042  0.3167  1.8444 -1.7333
  340SOL     OW 1018   2.308   0.734   1.227  0.9355 -0.6085 -0.7803
  340SOL    HW1 1019   2.210   0.762   1.225  1.2368 -1.7091 -0.1334
  340SOL    HW2 1020   2.331   0.648   1.174 -1.2836  0.8708 -0.1797
  341SOL     OW 1021   1.884   2.198   0.434  0.3331 -0.3452  0.2424
  341SOL    HW1 1022   1.885   2.193   0.331 -1.3938 -1.7198 -1.7877
  341SOL    HW2 1023   1.973   2.181   0.475 -1.8651 -0.8497 -1.0435
  342SOL     OW 1024   2.213   2.146   2.818 -0.1129 -0.1379 -0.3828
  342SOL    HW1 1025   2.287   2.068   2.831 -0.9373  0.2447 -1.5239
  342SOL    HW2 1026   2.119   2.107   2.822 -0.2476 -3.2274  0.0063
  343SOL     OW 1027   0.328   0.892   2.872  0.6700 -0.2848 -0.3478
  343SOL    HW1 1028   0.314   0.963   2.795 -1.1649  0.3963 -0.4696
  343SOL    HW2 1029   0.414   0.835   2.857 -2.0446  0.3145  1.3333
  344SOL     OW 1030   1.844   1.487   0.349  0.4732  0.5152  0.1247
  344SOL    HW1 1031   1.845   1.421   0.270 -0.7493 -1.5021  1.0884
  344SOL    HW2 1032   1.786   1.573   0.336  1.2376  0.5195 -0.0517
  345SOL     OW 1033   1.406   2.202   2.862 -0.2085 -0.3193  0.0043
  345SOL    HW1 1034   1.319   2.150   2.838 -1.4848  2.0672 -1.5640
  345SOL    HW2 1035   1.491   2.166   2.813  0.1265 -0.3166  1.1511
  346SOL     OW 1036   2.439   0.909   1.415 -0.1579 -0.0278 -0.8571
  346SOL    HW1 1037   2.378   0.984   1.454  0.8382 -1.3843  0.1441
  346SOL    HW2 1038   2.395   0.855   1.338 -0.4882 -1.0501 -0.7607
  347SOL     OW 1039   0.676   2.813   1.502  0.2909  0.3154 -0.2499
  347SOL    HW1 1040   0.657   2.751   1.580 -1.0736  0.9956 -1.2031
  347SOL    HW2 1041   0.601   2.884   1.497  0.9941  0.7067  2.7456
  348SOL     OW 1042   0.075   0.692   2.816  0.0461  0.0654  0.6326
  348SOL    HW1 1043  -0.029   0.680   2.803 -1.4660  1.2881 -0.6038
  348SOL    HW2 1044   0.108   0.785   2.783 -0.8428  0.3925 -0.1158
  349SOL     OW 1045   1.921   0.451   2.787  0.1594 -0.5650  0.3824
  349SOL    HW1 1046   1.908   0.534   2.725 -1.8211  1.1778  0.5663
  349SOL    HW2 1047   1.866   0.464   2.874 -0.1262 -2.0968 -0.3532
  350SOL     OW 1048   1.646   0.383   0.371 -0.2393  0.6905  0.0432
  350SOL    HW1 1049   1.724   0.396   0.442  0.0307 -3.1546 -0.8464
  350SOL    HW2 1050   1.621   0.457   0.304  0.8464  0.1816 -1.0056
  351SOL     OW 1051   0.920   0.934   2.147 -0.5124  0.3259  0.0594
  351SOL    HW1 1052   0.916   1.033   2.111 -0.1461  0.3720  0.8994
  351SOL    HW2 1053   0.878   0.861   2.087 -0.8597 -0.4637 -1.3138
  352SOL     OW 1054   1.985   1.390   0.570 -0.1498 -0.4529  0.1080
  352SOL    HW1 1055   1.929   1.426   0.498  0.8370  1.4753  1.7609
  352SOL    HW2 1056   2.058   1.456   0.602  0.5160 -0.8513 -0.4455
  353SOL     OW 1057   2.125   2.826   1.173  0.0556  0.3961  0.0929
  353SOL    HW1 1058   2.216   2.786   1.209 -0.5563 -0.4623 -0.7412
  353SOL    HW2 1059   2.062   2.754   1.128  0.1491  0.4960 -3.4507
  354SOL     OW 1060   0.286   1.360   2.918 -0.0992 -0.1613 -0.3673
  354SOL    HW1 1061   0.214   1.411   2.860  0.7072 -0.0481  0.0823
  354SOL    HW2 1062   0.383   1.356   2.870  1.6747 -1.7326 -0.1973
  355SOL     OW 1063   0.454   1.484   0.569  0.4174  0.2834  0.3384
  355SOL    HW1 1064   0.503   1.572   0.596  2.6425 -1.9320 -0.3675
  355SOL    HW2 1065   0.523   1.412   0.548 -1.6632  0.2911 -0.4001
  356SOL     OW 1066   0.862   0.437   2.081  0.7786  0.4573  0.4407
  356SOL    HW1 1067   0.957   0.480   2.084  0.6009  1.2799 -1.8767
  356SOL    HW2 1068   0.845   0.379   1.996 -0.5112 -0.6426 -1.6681
  357SOL     OW 1069   1.060   1.277   0.161  0.1281  0.1658  0.4624
  357SOL    HW1 1070   0.999   1.280   0.077  2.9748 -0.2180 -0.2960
  357SOL    HW2 1071   1.005   1.249   0.242  0.5334 -2.3604  0.6732
  358SOL     OW 1072   1.627   1.662   0.322  0.1124 -0.4373 -0.1712
  358SOL    HW1 1073   1.631   1.571   0.369  0.1525  1.9197 -0.3758
  358SOL    HW2 1074   1.550   1.724   0.353  1.4599 -0.6584 -0.6593
  359SOL     OW 1075   1.563   2.708   0.147  0.2060  0.1734  0.6670
  359SOL    HW1 1076   1.620   2.658   0.074 -0.3401  1.7789 -0.3481
  359SOL    HW2 1077   1.480   2.651   0.165 -2.6001 -2.7538 -2.3345
  360SOL     OW 1078   0.883   0.587   0.459  0.2749  0.5311  0.3474
  360SOL    HW1 1079   0.798   0.584   0.522 -2.3842 -0.6722 -0.0095
  360SOL    HW2 1080   0.904   0.496   0.424  2.7460  1.1527  0.0633
  361SOL     OW 1081   1.260   1.362   0.642 -0.5071  0.2034  0.0141
  361SOL    HW1 1082   1.306   1.382   0.732 -0.5361 -0.5051 -2.1271
  361SOL    HW2 1083   1.157   1.376   0.642 -1.3422  2.8892  2.1718
  362SOL     OW 1084   1.389   1.747   0.769  0.1699  0.7364 -0.0939
  362SOL    HW1 1085   1.430   1.701   0.857 -1.1368 -0.6120  0.3860
  362SOL    HW2 1086   1.435   1.841   0.751  3.1746 -0.6126 -1.1108
  363SOL     OW 1087   1.133   1.339   2.032  0.4091  0.7404 -0.4268
  363SOL    HW1 1088   1.105   1.427   2.083 -0.0628 -0.5108  0.4749
  363SOL    HW2 1089   1.180   1.356   1.942 -1.6189  0.2593 -0.0538
  364SOL     OW 1090   0.584   2.331   1.999  0.1662  0.0093 -0.2552
  364SOL    HW1 1091   0.494   2.382   2.002 -0.3266  1.3197 -0.6167
  364SOL    HW2 1092   0.633   2.356   1.911 -1.4413  1.0416 -2.0058
  365SOL     OW 1093   1.138   1.854   1.439 -0.5084  0.7943 -0.3824
  365SOL    HW1 1094   1.036   1.880   1.457 -0.5602  0.6287 -2.0429
  365SOL    HW2 1095   1.153   1.753   1.435 -0.8682  1.3660 -0.6948
  366SOL     OW 1096   2.802   2.063   0.460 -0.7772 -0.3750 -0.2407
  366SOL    HW1 1097   2.722   2.002   0.464  1.0004 -2.0934  0.2050
  366SOL    HW2 1098   2.891   2.016   0.425  1.3051 -0.0828  0.4459
  367SOL     OW 1099   0.788   1.206   0.053 -0.0995 -0.2363 -0.2660
  367SOL    HW1 1100   0.800   1.122   0.111 -5.2257  2.3867  0.2047
  367SOL    HW2 1101   0.836   1.194  -0.041  1.6552  2.6367  1.7668
  368SOL     OW 1102   1.526   0.522   0.634  0.6669  0.1961  0.9935
  368SOL    HW1 1103   1.464   0.538   0.551 -0.1991 -0.3339  1.1941
  368SOL    HW2 1104   1.624   0.503   0.613 -0.6417  1.7492 -0.2500
  369SOL     OW 1105   0.304   1.687   0.090 -0.0014 -0.0583  0.1548
  369SOL    HW1 1106   0.326   1.771   0.147  3.4415  1.4236 -0.0503
  369SOL    HW2 1107   0.236   1.616   0.134 -0.6971 -0.8278 -2.5794
  370SOL     OW 1108   0.472   2.136   0.980 -0.0677 -0.0707 -0.2030
  370SOL    HW1 1109   0.470   2.238   0.959  0.6411 -1.3415 -1.0231
  370SOL    HW2 1110   0.381   2.091   0.953 -1.4098 -0.0530  2.4179
  371SOL     OW 1111   2.925   2.222   2.781 -0.1311  0.2599  0.2998
  371SOL    HW1 1112   2.907   2.220   2.880 -1.1139 -0.0697  1.2257
  371SOL    HW2 1113   3.027   2.244   2.758  0.9164 -0.6115  1.9585
  372SOL     OW 1114   0.894   1.888   1.004  0.4457  0.2277 -0.3637
  372SOL    HW1 1115   0.843   1.975   1.025 -0.6581 -1.9628  0.1959
  372SOL    HW2 1116   0.969   1.909   0.937 -0.6159  1.5497 -1.1767
  373SOL     OW 1117   1.938   1.957   0.935 -0.0127  0.6009  0.0474
  373SOL    HW1 1118   1.995   1.996   1.013  0.4878  0.3105  1.4794
  373SOL    HW2 1119   1.844   2.003   0.922 -0.3287 -0.3152 -2.2674
  374SOL     OW 1120   1.840   0.407   0.578 -0.7884 -0.4162  0.4097
  374SOL    HW1 1121   1.834   0.350   0.665  0.5162  2.0652 -1.2158
  374SOL    HW2 1122   1.936   0.381   0.532  0.5616  1.1338 -1.9840
  375SOL     OW 1123   2.472   2.283   1.082 -0.2451  0.1950 -0.2170
  375SOL    HW1 1124   2.496   2.221   1.000  0.9949 -3.9017 -0.4543
  375SOL    HW2 1125   2.500   2.237   1.172 -0.0573 -0.5193 -0.5087
  376SOL     OW 1126   3.076   0.637   1.442 -0.0056 -0.2212 -0.5445
  376SOL    HW1 1127   3.133   0.689   1.510  2.2230  0.1405 -1.5522
  376SOL    HW2 1128   2.973   0.664   1.445  2.2518  0.1824  0.0345
  377SOL     OW 1129   2.224   2.833   0.337  0.4549  0.0621  0.3284
  377SOL    HW1 1130   2.177   2.908   0.390  1.0011  0.6196 -3.2206
  377SOL    HW2 1131   2.329   2.847   0.336  2.3123 -1.8348 -1.0863
  378SOL     OW 1132   1.884   1.854   2.656  0.1832  0.1918  0.2266
  378SOL    HW1 1133   1.944   1.767   2.676  2.3774  0.3273  2.4112
  378SOL    HW2 1134   1.809   1.831   2.590  1.1699  0.2641 -1.8568
  379SOL     OW 1135   0.883   0.125   2.711  0.1321  0.0152  0.6544
  379SOL    HW1 1136   0.883   0.041   2.652  0.6806  1.0731  0.0632
  379SOL    HW2 1137   0.805   0.190   2.692 -2.0485 -1.0463  0.6764
  380SOL     OW 1138   1.559   1.167   0.542 -0.4016 -0.1179  0.1018
  380SOL    HW1 1139   1.551   1.073   0.496  0.8483 -1.5892 -3.0277
  380SOL    HW2 1140   1.494   1.173   0.622 -0.2300 -0.0609 -0.4754
  381SOL     OW 1141   1.284   1.226   1.500  0.1166 -0.5730 -0.4816
  381SOL    HW1 1142   1.339   1.270   1.423 -2.1833  1.0592  0.9920
  381SOL    HW2 1143   1.332   1.239   1.594 -2.1186  2.2195  2.3682
  382SOL     OW 1144   1.771   0.807   0.252  0.5130  0.1005  0.4237
  382SOL    HW1 1145   1.784   0.821   0.149  3.0280  0.8870 -1.4959
  382SOL    HW2 1146   1.808   0.718   0.285 -0.1857  0.5344 -2.0500
  383SOL     OW 1147   2.691   0.998   1.563  0.2171 -0.0632  0.2022
  383SOL    HW1 1148   2.603   0.967   1.513 -3.1466  0.1629 -0.5634
  383SOL    HW2 1149   2.772   0.996   1.494 -1.0519 -0.6681  2.1379
  384SOL     OW 1150   1.025   2.298   0.156  0.1242 -0.0170  0.2347
  384SOL    HW1 1151   0.982   2.380   0.191  1.9548 -1.5384 -3.6630
  384SOL    HW2 1152   1.000   2.216   0.218 -1.4753  0.0170  3.4013
  385SOL     OW 1153   3.020   2.061   1.710  0.3799 -0.2432  0.0962
  385SOL    HW1 1154   3.112   2.115   1.709 -2.4201  1.2681  0.2664
  385SOL    HW2 1155   3.015   1.961   1.727 -2.4798 -0.3071  1.7955
  386SOL     OW 1156   0.441   1.079   0.435  0.3521  0.3201 -0.4877
  386SOL    HW1 1157   0.430   0.980   0.454  1.7124  1.9993 -1.4821
  386SOL    HW2 1158   0.373   1.111   0.367 -0.4506 -1.4690 -2.5624
  387SOL     OW 1159   0.989   0.376   1.676 -0.4229 -0.0557 -0.2096
  387SOL    HW1 1160   1.065   0.451   1.664  2.3774  3.0233  2.0339
  387SOL    HW2 1161   1.001   0.299   1.608 -2.1170  1.6604  1.4707
  388SOL     OW 1162   1.253   2.575   1.757  0.0367  0.4447  0.7073
  388SOL    HW1 1163   1.280   2.582   1.655  3.2044  1.2616  1.5646
  388SOL    HW2 1164   1.318   2.509   1.801 -0.3726  2.5812  0.2680
  389SOL     OW 1165   0.258   0.032   1.131  0.5384  0.4204  0.1850
  389SOL    HW1 1166   0.222   0.005   1.222  1.6578 -0.0308  1.4509
  389SOL    HW2 1167   0.326  -0.038   1.098 -0.8752 -0.4781  0.3907
  390SOL     OW 1168   1.079   0.838   1.186 -0.3967 -0.1545  0.8204
  390SOL    HW1 1169   1.180   0.850   1.166  1.0658 -2.2304 -1.3657
  390SOL    HW2 1170   1.062   0.796   1.280 -1.5183  1.6945 -2.1976
  391SOL     OW 1171   2.123   1.165   1.038  0.3574  0.1248 -0.4651
  391SOL    HW1 1172   2.058   1.088   1.058 -0.4864  0.3863 -1.8160
  391SOL    HW2 1173   2.178   1.150   0.950  2.3119  0.9610 -2.0372
  392SOL     OW 1174   0.919   2.700   0.007  0.1595 -0.3674  0.5114
  392SOL    HW1 1175   0.831   2.694   0.063  0.5282  1.9229 -0.4512
  392SOL    HW2 1176   0.991   2.759   0.055 -2.0566  0.3078 -1.1204
  393SOL     OW 1177   0.348   0.576   1.976 -0.2508 -0.1736  0.2553
  393SOL    HW1 1178   0.256   0.528   1.967 -1.1849  1.2644 -1.2806
  393SOL    HW2 1179   0.422   0.531   1.915  0.5239  0.0039 -0.8971
  394SOL     OW 1180   2.830   1.783   2.748  0.2577 -0.8904 -0.1707
  394SOL    HW1 1181   2.892   1.801   2.670  1.8439  0.9251 -0.4451
  394SOL    HW2 1182   2.765   1.864   2.766  0.5371  3.7449  0.9989
  395SOL     OW 1183   1.566   1.947   0.695 -0.2242 -0.4954 -0.2934
  395SOL    HW1 1184   1.662   1.906   0.667  2.4253 -0.5346 -0.2129
  395SOL    HW2 1185   1.569   1.977   0.797 -1.8110  2.6152 -0.9638
  396SOL     OW 1186   2.766   2.009   1.308  0.2824  0.8908  0.1770
  396SOL    HW1 1187   2.775   2.053   1.400  1.6070 -3.1281  0.1800
  396SOL    HW2 1188   2.668   1.983   1.288 -0.1252  1.0230  0.9348
  397SOL     OW 1189   0.981   2.148   0.673  0.0629 -0.5194  0.2585
  397SOL    HW1 1190   0.896   2.096   0.653  1.8082  0.2473 -0.5143
  397SOL    HW2 1191   0.961   2.239   0.730  1.5463  0.3879 -0.1016
  398SOL     OW 1192   2.208   3.092   1.075  0.2234  0.1464  0.2140
  398SOL    HW1 1193   2.174   2.990   1.079 -0.4162  0.4828 -2.5267
  398SOL    HW2 1194   2.135   3.162   1.074  1.1073  2.2001  2.5684
  399SOL     OW 1195   2.869   2.596   2.779 -0.0864  0.0588 -1.0666
  399SOL    HW1 1196   2.853   2.548   2.689 -2.1593  1.2790 -2.4657
  399SOL    HW2 1197   2.834   2.540   2.860  2.5769 -1.7413  2.3033
  400SOL     OW 1198   0.813   1.582   1.291  0.2636  0.0245 -0.0375
  400SOL    HW1 1199   0.747   1.626   1.356 -1.4976 -0.9171  1.9132
  400SOL    HW2 1200   0.806   1.622   1.194  2.2466  0.7099 -0.8904
  401SOL     OW 1201   1.858   0.124   1.304  0.2890 -0.5069  0.0147
  401SOL    HW1 1202   1.896   0.170   1.391  2.5311  0.3005 -2.4209
  401SOL    HW2 1203   1.753   0.115   1.306 -0.9627 -2.1194  0.5578
  402SOL     OW 1204   1.339   0.172   3.033  0.4344  1.1300  0.4647
  402SOL    HW1 1205   1.425   0.191   2.973 -1.0682 -3.1816 -1.7371
  402SOL    HW2 1206   1.316   0.232   3.113 -0.9825 -2.3700 -2.1809
  403SOL     OW 1207   2.262   1.830   0.991  0.2676 -1.1156  0.6195
  403SOL    HW1 1208   2.364   1.823   0.982  1.6357  2.6218 -0.7025
  403SOL    HW2 1209   2.230   1.911   1.052 -2.3510 -1.3744 -0.2245
  404SOL     OW 1210   0.213   2.464   2.760 -0.1502 -0.5783 -0.2271
  404SOL    HW1 1211   0.316   2.437   2.745  1.7852 -2.2976  0.0921
  404SOL    HW2 1212   0.196   2.566   2.774  0.7997  0.3276 -2.2114
  405SOL     OW 1213   0.191   2.531   0.561  0.2828 -0.2764  0.2315
  405SOL    HW1 1214   0.191   2.428   0.557  1.0903  2.1694 -0.5298
  405SOL    HW2 1215   0.285   2.570   0.580 -0.7852  0.2129 -2.0995
  406SOL     OW 1216   0.019   1.593   3.005 -0.2728 -0.4350 -0.3066
  406SOL    HW1 1217   0.089   1.572   2.930  0.9811  2.1565  0.9078
  406SOL    HW2 1218   0.052   1.561   3.098  2.3809 -0.2084  1.2980
  407SOL     OW 1219   1.561   0.975   0.964 -0.1876  0.0949 -0.5630
  407SOL    HW1 1220   1.589   0.933   0.875 -3.0378  0.5164 -0.5057
  407SOL    HW2 1221   1.486   1.044   0.950  0.9870  0.2238  3.2363
  408SOL     OW 1222   1.460   2.297   0.942 -0.0693  0.0408  0.2435
  408SOL    HW1 1223   1.544   2.301   0.883 -2.2166  0.9945  1.1982
  408SOL    HW2 1224   1.435   2.387   0.987 -1.3433  0.5604 -0.8472
  409SOL     OW 1225   0.617   0.862   0.674  0.4145  0.4112  0.0108
  409SOL    HW1 1226   0.545   0.869   0.596  0.2345 -2.2877  0.4833
  409SOL    HW2 1227   0.664   0.766   0.669 -0.1896  1.7827  0.8775
  410SOL     OW 1228   1.372   1.984   1.501  0.0058  0.8648  0.2067
  410SOL    HW1 1229   1.341   2.074   1.552  2.1542  0.3085  2.3088
  410SOL    HW2 1230   1.283   1.930   1.476 -1.4563 -2.1203 -1.0078
  411SOL     OW 1231   2.403   1.842   0.065 -0.0522  0.1750 -0.1830
  411SOL    HW1 1232   2.345   1.833  -0.021 -0.4044  1.0912 -2.5483
  411SOL    HW2 1233   2.494   1.888   0.051  0.1497 -3.9815  0.4608
  412SOL     OW 1234   1.609   2.420   2.288 -0.9203 -0.3420  0.4283
  412SOL    HW1 1235   1.583   2.517   2.314 -1.5694 -1.3321  2.1600
  412SOL    HW2 1236   1.563   2.345   2.348 -3.8370  2.3927  2.1323
  413SOL     OW 1237   3.031   0.282   2.859 -0.3297  0.7013 -0.7227
  413SOL    HW1 1238   2.995   0.202   2.919  0.3394 -1.3852  2.0301
  413SOL    HW2 1239   3.134   0.300   2.879  1.6234 -0.9520 -0.4412
  414SOL     OW 1240   1.738   1.325   1.327  0.5941 -0.3102  0.0108
  414SOL    HW1 1241   1.682   1.388   1.383  0.5334 -2.3604 -3.4024
  414SOL    HW2 1242   1.744   1.348   1.225  1.2294  0.6619 -3.9784
  415SOL     OW 1243   0.256   2.258   0.703  0.9725  0.1367  0.2596
  415SOL    HW1 1244   0.271   2.281   0.799 -2.9538  2.6762  0.5786
  415SOL    HW2 1245   0.206   2.169   0.681 -3.1441 -2.6530  0.4242
  416SOL     OW 1246   0.340   1.022   1.064  0.2485 -0.0953 -0.5740
  416SOL    HW1 1247   0.315   1.026   0.961  0.9963  0.4186 -0.3506
  416SOL    HW2 1248   0.435   1.054   1.078 -2.6576  0.9744  1.1110
  417SOL     OW 1249   2.173   2.345   1.880 -0.4787 -0.0214  0.2876
  417SOL    HW1 1250   2.217   2.250   1.896  1.1287 -0.3064  1.4336
  417SOL    HW2 1251   2.084   2.347   1.938  0.0831  1.6154 -0.1373
  418SOL     OW 1252   1.128   0.516   1.371 -0.6071 -0.5614  0.3474
  418SOL    HW1 1253   1.032   0.480   1.346  3.4768  0.7822 -0.2890
  418SOL    HW2 1254   1.205   0.483   1.303  0.8865 -1.1461  0.5320
  419SOL     OW 1255   0.955   0.370   2.984  0.0700  0.0887 -0.0340
  419SOL    HW1 1256   0.973   0.420   2.894 -1.1179 -1.0731 -1.3366
  419SOL    HW2 1257   0.878   0.300   2.984 -0.5129  0.7510  2.9851
  420SOL     OW 1258   0.178   2.276   0.366  0.2401 -0.1271 -0.1937
  420SOL    HW1 1259   0.172   2.220   0.279  0.1001  0.9007 -0.6090
  420SOL    HW2 1260   0.102   2.251   0.425 -1.8456  3.0968  0.3232
  421SOL     OW 1261   0.332   0.060   0.694  0.1267  0.2318 -0.3381
  421SOL    HW1 1262   0.345   0.014   0.599 -0.3988 -2.0283  1.6718
  421SOL    HW2 1263   0.396   0.141   0.707  0.9391 -0.1063 -1.4742
  422SOL     OW 1264   0.939   2.520   1.037  0.3555  0.0633  0.4374
  422SOL    HW1 1265   0.966   2.599   0.972 -0.5250  1.8313  0.8344
  422SOL    HW2 1266   0.948   2.540   1.143 -0.3288  0.7632  0.6521
  423SOL     OW 1267   0.050   0.705   1.155  0.2500  0.0967 -0.0129
  423SOL    HW1 1268   0.029   0.715   1.258 -0.8827  0.7287 -2.3139
  423SOL    HW2 1269  -0.036   0.671   1.102 -1.5199  0.6492 -2.5042
  424SOL     OW 1270   0.981   2.139   2.237 -0.4377 -0.4443  0.0853
  424SOL    HW1 1271   0.962   2.170   2.140  0.9617  1.4562 -2.0542
  424SOL    HW2 1272   0.907   2.167   2.306 -0.2099  1.8137 -0.2328
  425SOL     OW 1273   2.013   1.440   1.106 -0.7803  0.3328 -0.3178
  425SOL    HW1 1274   2.041   1.341   1.100  2.0718 -0.6630 -3.4928
  425SOL    HW2 1275   2.056   1.491   1.028 -1.2104 -2.0067  1.8463
  426SOL     OW 1276   1.529   1.542   1.386  0.6066 -0.2036 -0.1269
  426SOL    HW1 1277   1.484   1.624   1.336 -3.1123  0.7609 -1.2564
  426SOL    HW2 1278   1.539   1.561   1.486  0.2920  1.4368 -0.6614
  427SOL     OW 1279   1.957   2.337   2.045 -0.0207  0.4911 -0.3716
  427SOL    HW1 1280   2.007   2.294   2.126 -0.2548  1.6019 -2.0766
  427SOL    HW2 1281   1.929   2.441   2.065 -0.4684  1.3473 -1.4985
  428SOL     OW 1282   0.930   3.085   0.055 -0.2912 -0.0864  0.1992
  428SOL    HW1 1283   0.958   3.178   0.096 -0.3725  2.7151  1.5475
  428SOL    HW2 1284   1.011   3.024   0.038  0.2989  1.8684 -1.2758
  429SOL     OW 1285   1.268   0.054   0.222  0.0845  0.1364  0.3694
  429SOL    HW1 1286   1.336   0.132   0.221 -1.8832 -1.2871  1.4013
  429SOL    HW2 1287   1.301  -0.011   0.146  2.9565 -1.4716 -0.2031
  430SOL     OW 1288   2.775   1.485   0.328  0.1741  0.3736 -0.1300
  430SOL    HW1 1289   2.720   1.546   0.269 -0.4646 -2.8694  2.3984
  430SOL    HW2 1290   2.812   1.537   0.414  1.4684 -1.5538  2.8131
  431SOL     OW 1291   2.086   1.616   0.925  0.4746 -0.1941 -0.3804
  431SOL    HW1 1292   2.149   1.696   0.954  2.6642  0.0843 -2.6884
  431SOL    HW2 1293   2.000   1.651   0.880  2.0098  0.9973  1.0286
  432SOL     OW 1294   2.908   2.250   1.237 -0.5214  0.3694 -0.5569
  432SOL    HW1 1295   2.823   2.198   1.255  2.1117  2.6742 -0.4373
  432SOL    HW2 1296   2.950   2.303   1.318 -0.4498 -0.5521 -1.8530
  433SOL     OW 1297   1.843   0.263   0.810  0.1425 -0.2790 -0.1448
  433SOL    HW1 1298   1.746   0.257   0.851  2.9598 -0.2525 -1.4836
  433SOL    HW2 1299   1.912   0.243   0.885  0.7418  0.8399 -0.0819
  434SOL     OW 1300   1.494   0.232   0.731 -0.0918  0.1590 -0.5211
  434SOL    HW1 1301   1.489   0.326   0.683  1.5786 -0.6977  1.4622
  434SOL    HW2 1302   1.543   0.230   0.820  1.3606 -1.2741  1.6108
  435SOL     OW 1303   1.428   1.458   2.079 -0.2820  0.3923  0.4866
  435SOL    HW1 1304   1.394   1.455   2.176  1.4078  0.8919 -0.5982
  435SOL    HW2 1305   1.398   1.539   2.025 -1.1470 -2.6729  1.8067
  436SOL     OW 1306   1.657   2.677   2.401 -0.3973  0.4865 -0.4156
  436SOL    HW1 1307   1.666   2.776   2.432  0.7300  2.5531 -0.9701
  436SOL    HW2 1308   1.600   2.620   2.468  1.2093 -2.6449  0.7950
  437SOL     OW 1309   0.985   2.963   0.888  0.1172 -0.3272  0.4396
  437SOL    HW1 1310   0.917   3.041   0.881 -0.5314 -0.4148 -1.0773
  437SOL    HW2 1311   1.054   2.986   0.961 -1.3195  1.3984 -2.2425
  438SOL     OW 1312   0.991   2.517   1.318  0.1855  0.1491  0.0106
  438SOL    HW1 1313   1.068   2.552   1.379 -0.5266  0.1394  0.3161
  438SOL    HW2 1314   0.987   2.414   1.322 -3.5185 -0.6632 -2.6003
  439SOL     OW 1315   0.702   1.679   1.049 -0.0126 -0.1471 -0.0259
  439SOL    HW1 1316   0.760   1.762   1.022 -0.6372  0.5714 -1.1971
  439SOL    HW2 1317   0.611   1.705   1.094  0.1020  0.2678 -1.9756
  440SOL     OW 1318   0.956   2.364   1.982 -0.1960  0.4798  0.2526
  440SOL    HW1 1319   0.989   2.453   1.947 -0.9603  0.5396  0.9760
  440SOL    HW2 1320   1.000   2.284   1.934  0.3980  1.4083  1.0358
  441SOL     OW 1321   0.339   2.796   1.328  0.1453 -0.2046 -0.1278
  441SOL    HW1 1322   0.399   2.712   1.321 -1.3699  0.5234  2.5647
  441SOL    HW2 1323   0.343   2.853   1.239  0.7576 -0.6479 -1.3929
  442SOL     OW 1324   2.237   0.691   2.559  0.1303  0.2881 -0.1367
  442SOL    HW1 1325   2.227   0.610   2.493  0.1308 -3.0260  1.3263
  442SOL    HW2 1326   2.160   0.758   2.555 -0.1989 -1.5688  2.5497
  443SOL     OW 1327   1.277   2.558   2.204 -0.5985  0.4724 -0.2153
  443SOL    HW1 1328   1.254   2.460   2.234 -0.5218  1.3134 -2.0139
  443SOL    HW2 1329   1.234   2.631   2.265  0.2527  0.8402  0.4478
  444SOL     OW 1330   0.949   1.187   1.474 -0.4779 -0.4281  0.6170
  444SOL    HW1 1331   1.036   1.142   1.513  2.1421  0.5590 -0.9091
  444SOL    HW2 1332   0.966   1.289   1.451  0.4021  1.7148  0.6631
  445SOL     OW 1333   0.149   2.203   2.089  0.1022  0.9481  0.7190
  445SOL    HW1 1334   0.146   2.098   2.092 -1.1208  0.7586  0.4179
  445SOL    HW2 1335   0.069   2.245   2.135 -3.4121 -0.6677  0.8714
  446SOL     OW 1336   0.104   1.952   2.411  0.3571 -0.4995  0.1205
  446SOL    HW1 1337   0.075   2.052   2.413  0.3789 -0.2258 -1.7724
  446SOL    HW2 1338   0.102   1.915   2.316 -0.4223 -1.1630 -1.3189
  447SOL     OW 1339   1.300   1.645   1.926 -0.0279  0.5319 -0.5659
  447SOL    HW1 1340   1.259   1.695   1.845  1.0120  0.1946 -0.5324
  447SOL    HW2 1341   1.364   1.706   1.980 -0.7239  2.2153 -2.1847
  448SOL     OW 1342   0.159   1.481   1.996  0.1209 -0.2638 -0.0614
  448SOL    HW1 1343   0.173   1.575   1.955  0.1678  0.9324  1.0975
  448SOL    HW2 1344   0.079   1.475   2.068  1.7175 -0.5582 -1.1058
  449SOL     OW 1345   1.864   2.989   0.841 -0.5942 -0.5170 -0.1708
  449SOL    HW1 1346   1.850   2.995   0.947 -2.7923  0.1530 -2.1080
  449SOL    HW2 1347   1.907   2.893   0.817  1.1988 -3.6059 -0.5166
  450SOL     OW 1348   2.223   1.489   0.683  0.7525  0.1380 -0.0426
  450SOL    HW1 1349   2.207   1.519   0.783 -1.9979 -0.2259 -0.0156
  450SOL    HW2 1350   2.291   1.554   0.633  1.0520  1.1383  0.6867
  451SOL     OW 1351   1.403   2.978   1.485  0.4729 -0.3656 -0.1501
  451SOL    HW1 1352   1.357   3.067   1.519  1.5015  1.6250  1.1132
  451SOL    HW2 1353   1.433   2.912   1.560  0.2635  1.6593  3.5939
  452SOL     OW 1354   2.709   2.303   2.287  0.0524  0.2565 -0.5887
  452SOL    HW1 1355   2.646   2.381   2.311 -2.1770  0.5310  0.0683
  452SOL    HW2 1356   2.769   2.277   2.367  0.1563 -0.5966 -1.1538
  453SOL     OW 1357   2.456   2.659   0.006 -0.6084 -0.3422  0.1923
  453SOL    HW1 1358   2.363   2.696   0.035  1.2580 -0.5444  0.3314
  453SOL    HW2 1359   2.458   2.602  -0.077  1.2977  0.0506  3.2483
  454SOL     OW 1360   0.903   1.175   2.018  0.1671  0.2551 -0.5913
  454SOL    HW1 1361   0.852   1.177   1.928  1.1663  0.1107 -0.9065
  454SOL    HW2 1362   0.993   1.228   2.007  1.4725  0.6348 -1.5061
  455SOL     OW 1363   0.710   2.612   2.818 -0.5983  0.3621 -0.2714
  455SOL    HW1 1364   0.790   2.661   2.869  0.5577  0.1954  3.8904
  455SOL    HW2 1365   0.695   2.520   2.871 -3.2023 -1.3398  1.4599
  456SOL     OW 1366   0.311   1.933   0.222 -0.3656 -0.4314 -0.1926
  456SOL    HW1 1367   0.409   1.970   0.226 -1.3094  0.3966 -0.9757
  456SOL    HW2 1368   0.251   1.997   0.164 -0.0800  1.9688  1.2446
  457SOL     OW 1369   0.429   2.648   0.654 -0.1547  0.4354  0.0745
  457SOL    HW1 1370   0.476   2.656   0.562 -0.7585  1.4313  2.1008
  457SOL    HW2 1371   0.494   2.684   0.725 -1.3357  2.1496  1.1313
  458SOL     OW 1372   2.939   0.027   1.266 -0.2243 -0.6231  0.1943
  458SOL    HW1 1373   2.998   0.110   1.257 -1.2598  0.3882  1.1089
  458SOL    HW2 1374   2.935  -0.034   1.181  0.3022  2.1131 -1.2000
  459SOL     OW 1375   2.130   2.519   0.729  0.6347  0.4454 -0.2408
  459SOL    HW1 1376   2.177   2.542   0.823 -1.5386  1.8168  0.3842
  459SOL    HW2 1377   2.204   2.483   0.665  1.1270  1.2364 -1.8424
  460SOL     OW 1378   1.168   2.048   2.795 -0.7801 -0.4407 -0.2013
  460SOL    HW1 1379   1.204   2.056   2.698  0.1226  1.3561 -0.4678
  460SOL    HW2 1380   1.198   1.960   2.847 -0.2473  0.6769  1.3890
  461SOL     OW 1381   0.466   2.143   2.745 -0.0651 -0.1319 -0.3958
  461SOL    HW1 1382   0.437   2.061   2.684 -1.3392 -2.5746 -1.2367
  461SOL    HW2 1383   0.494   2.109   2.843  1.9872 -0.8200 -1.7966
  462SOL     OW 1384   0.939   1.029   1.726 -0.1523  0.0250  0.1342
  462SOL    HW1 1385   0.946   0.948   1.660 -1.3267  0.9082 -0.0141
  462SOL    HW2 1386   0.884   1.111   1.688  0.1390 -0.0590  0.0713
  463SOL     OW 1387   0.432   0.792   0.481 -0.3252  0.3338 -0.1020
  463SOL    HW1 1388   0.468   0.704   0.437 -0.0641  0.7336 -1.0677
  463SOL    HW2 1389   0.328   0.787   0.475  1.5283 -0.2861  0.0975
  464SOL     OW 1390   0.554   2.352   2.285  0.6165  0.6476  0.0284
  464SOL    HW1 1391   0.471   2.411   2.312 -1.0452 -1.0300  4.1576
  464SOL    HW2 1392   0.553   2.329   2.185 -1.1644  0.7842 -1.6230
  465SOL     OW 1393   0.243   0.990   0.788 -0.2230 -0.8820  0.0147
  465SOL    HW1 1394   0.147   0.999   0.752  1.6379  1.5679 -2.3611
  465SOL    HW2 1395   0.279   0.893   0.799 -0.3883 -0.9799 -0.3134
  466SOL     OW 1396   1.326   1.137   0.925  0.1595 -0.1186  0.9245
  466SOL    HW1 1397   1.341   1.238   0.905 -1.7891  0.0630  1.8047
  466SOL    HW2 1398   1.233   1.123   0.967  1.1302 -2.2419  0.2594
  467SOL     OW 1399   0.645   0.481   2.562 -0.2257  0.0056 -0.3381
  467SOL    HW1 1400   0.597   0.576   2.578  1.6270  0.5640  0.7644
  467SOL    HW2 1401   0.621   0.406   2.631  1.2465  0.9813 -0.9181
  468SOL     OW 1402   0.438   2.282   1.565 -0.2618 -0.2181 -0.2215
  468SOL    HW1 1403   0.533   2.307   1.604  0.0875 -1.9461  1.3464
  468SOL    HW2 1404   0.436   2.289   1.460  0.3641 -0.6068 -0.0655
  469SOL     OW 1405   1.436   1.322   1.258  0.3150  0.8309 -0.0528
  469SOL    HW1 1406   1.523   1.287   1.208  0.1481  0.0556  0.0952
  469SOL    HW2 1407   1.450   1.411   1.308  3.3617  1.4907 -2.4182
  470SOL     OW 1408   2.989   1.821   0.816  0.1310 -0.4117  0.2569
  470SOL    HW1 1409   3.056   1.865   0.748 -0.2805 -1.2826 -0.8509
  470SOL    HW2 1410   3.031   1.807   0.906  1.7312  2.3674 -2.3717
  471SOL     OW 1411   2.678   1.380   2.197 -0.2570 -0.3682  0.0594
  471SOL    HW1 1412   2.697   1.281   2.217 -0.7444  2.2318  1.2465
  471SOL    HW2 1413   2.745   1.440   2.244  0.9339 -0.8743 -1.1936
  472SOL     OW 1414   1.239   2.425   0.042 -0.8281  0.3855  0.0892
  472SOL    HW1 1415   1.309   2.417   0.119 -0.6902  0.4909  1.0522
  472SOL    HW2 1416   1.151   2.382   0.071 -1.2965  1.0173 -0.5244
  473SOL     OW 1417   1.070   1.511   1.003  0.0459  0.3644 -0.1541
  473SOL    HW1 1418   0.973   1.510   0.970  0.5289  1.3978 -0.0256
  473SOL    HW2 1419   1.095   1.432   1.066  0.0175 -1.2720  0.4843
  474SOL     OW 1420   0.633   1.272   0.485  0.3772 -0.5783  0.5789
  474SOL    HW1 1421   0.575   1.209   0.424 -2.2545  2.9157 -1.2810
  474SOL    HW2 1422   0.685   1.209   0.548 -2.2033 -1.0463  0.0190
  475SOL     OW 1423   2.852   0.043   0.817 -0.8913  0.4967  0.2107
  475SOL    HW1 1424   2.901   0.122   0.863 -1.3020  1.2666 -1.3689
  475SOL    HW2 1425   2.750   0.042   0.829  0.4443  2.1474  0.8158
  476SOL     OW 1426   0.954   3.041   1.816 -0.6175  0.1531  0.3760
  476SOL    HW1 1427   1.058   3.062   1.816  2.1739 -0.7149  0.2725
  476SOL    HW2 1428   0.912   3.042   1.721  1.7798 -0.4988 -1.2488
  477SOL     OW 1429   1.432   0.325   2.451  0.2573  0.0527  0.0125
  477SOL    HW1 1430   1.465   0.370   2.539 -1.3734  0.4958 -0.7530
  477SOL    HW2 1431   1.501   0.256   2.411 -0.0781  0.0978 -1.8082
  478SOL     OW 1432   2.248   1.927   0.302 -0.3128 -0.1717 -0.1007
  478SOL    HW1 1433   2.226   1.832   0.337 -1.3542 -2.7891 -0.3267
  478SOL    HW2 1434   2.325   1.925   0.232 -3.4265 -2.7753  0.0629
  479SOL     OW 1435   1.292   0.949   2.860  0.2651 -0.3189  0.3701
  479SOL    HW1 1436   1.352   0.981   2.785  0.7373 -0.5120 -0.0119
  479SOL    HW2 1437   1.233   0.873   2.827  1.3441  1.7724  0.3079
  480SOL     OW 1438   2.694   2.316   0.424  0.7939 -0.0812 -0.3772
  480SOL    HW1 1439   2.755   2.245   0.465  0.9766  2.0517  1.9299
  480SOL    HW2 1440   2.600   2.282   0.407 -1.1357  1.6411 -1.0557
  481SOL     OW 1441   0.954   1.140   0.794  0.0593  0.2221  0.4401
  481SOL    HW1 1442   0.999   1.222   0.754  0.5893 -0.3961  2.3719
  481SOL    HW2 1443   0.989   1.121   0.894 -1.3925 -1.4618 -0.5732
  482SOL     OW 1444   1.610   0.290   2.039  0.1036  0.3034  0.1214
  482SOL    HW1 1445   1.616   0.393   2.028  0.4755 -0.8142  0.5424
  482SOL    HW2 1446   1.707   0.249   2.042  0.3410  0.1544 -1.2797
  483SOL     OW 1447   0.107   2.379   1.212 -0.0022 -0.4668 -0.3881
  483SOL    HW1 1448   0.120   2.456   1.279 -1.2420  0.9788 -0.8625
  483SOL    HW2 1449   0.137   2.401   1.114 -0.7760  0.9205  3.4070
  484SOL     OW 1450   1.714   1.067   1.484 -0.3447  0.0960  0.1055
  484SOL    HW1 1451   1.794   1.001   1.456 -1.0472 -1.4407  1.3416
  484SOL    HW2 1452   1.728   1.162   1.440  2.2360  0.9454 -3.1283
  485SOL     OW 1453   0.749   0.739   1.966 -0.3137  0.1909 -0.5772
  485SOL    HW1 1454   0.687   0.767   1.884  2.3107 -0.2858 -0.8694
  485SOL    HW2 1455   0.836   0.694   1.933 -0.9762 -0.2577  2.5339
  486SOL     OW 1456   0.891   1.881   2.440 -0.2377  0.3402  0.3180
  486SOL    HW1 1457   0.869   1.884   2.541 -0.8768 -0.5536 -1.0955
  486SOL    HW2 1458   0.895   1.971   2.397 -0.2483 -0.3391 -1.3091
  487SOL     OW 1459   1.756   1.588   1.062  0.6243  0.0431 -0.2867
  487SOL    HW1 1460   1.795   1.491   1.062 -1.0865 -1.7377  0.6032
  487SOL    HW2 1461   1.776   1.639   0.974 -1.2534  1.9309  0.2358
  488SOL     OW 1462   2.930   0.794   2.269  0.3306 -0.4478 -0.6487
  488SOL    HW1 1463   3.004   0.721   2.269 -0.4497 -2.3115 -1.6274
  488SOL    HW2 1464   2.857   0.784   2.346  1.7782  0.2334  0.5652
  489SOL     OW 1465   2.812   0.353   1.299 -0.9838  0.2522  0.1955
  489SOL    HW1 1466   2.795   0.313   1.393 -0.2776  0.8501 -1.2618
  489SOL    HW2 1467   2.907   0.327   1.269  0.1965  0.5482  1.6803
  490SOL     OW 1468   1.479   2.974   2.818  0.1667 -0.6532  0.3100
  490SOL    HW1 1469   1.500   2.873   2.828 -0.2365 -1.1765 -0.7015
  490SOL    HW2 1470   1.459   2.998   2.721 -0.0018 -0.5856  0.2775
  491SOL     OW 1471   1.805   1.442   2.721  0.4186 -0.1024  0.3480
  491SOL    HW1 1472   1.734   1.461   2.791 -1.4237  0.2130  0.6826
  491SOL    HW2 1473   1.890   1.499   2.718  0.6954  0.0203 -0.6535
  492SOL     OW 1474   0.623   2.092   0.597 -0.2381 -0.0651 -0.2674
  492SOL    HW1 1475   0.635   2.093   0.700  0.3797 -1.6832 -0.3279
  492SOL    HW2 1476   0.536   2.123   0.569 -2.1094 -0.4632 -0.6967
  493SOL     OW 1477   0.411   1.331   2.075  0.0859 -0.0631 -0.2096
  493SOL    HW1 1478   0.313   1.372   2.075  1.2591  1.9063 -0.5944
  493SOL    HW2 1479   0.416   1.229   2.084  0.2856 -0.3259  1.1483
  494SOL     OW 1480   2.704   2.641   0.140 -0.5936  0.2055  0.3750
  494SOL    HW1 1481   2.699   2.600   0.234  1.5137 -0.3395  1.6750
  494SOL    HW2 1482   2.614   2.663   0.101  0.4933 -1.2618  0.8715
  495SOL     OW 1483   2.518   2.802   2.642  0.2193 -0.0228 -0.1969
  495SOL    HW1 1484   2.527   2.699   2.630 -1.5621  1.5792 -0.2950
  495SOL    HW2 1485   2.574   2.861   2.576 -2.5745 -1.9031  1.1701
  496SOL     OW 1486   1.952   2.309   0.798 -0.2463  0.1626  0.2635
  496SOL    HW1 1487   1.979   2.298   0.897  0.5757  0.5365 -0.4842
  496SOL    HW2 1488   2.026   2.364   0.739  0.3454  0.6758 -2.7394
  497SOL     OW 1489   0.279   2.998   2.363 -0.5987  0.1029 -0.2834
  497SOL    HW1 1490   0.204   3.063   2.386  1.4428 -2.6941 -0.6232
  497SOL    HW2 1491   0.320   3.014   2.272 -2.1266  1.6804  3.5142
  498SOL     OW 1492   1.172   1.320   1.192 -0.3085  0.7634  1.1575
  498SOL    HW1 1493   1.276   1.310   1.202  2.9488 -0.6659 -2.5596
  498SOL    HW2 1494   1.130   1.383   1.265 -1.8697  0.0878  0.7585
  499SOL     OW 1495   0.601   1.787   0.400 -0.4778  0.4177 -0.6511
  499SOL    HW1 1496   0.568   1.768   0.305  2.2914  4.2996 -0.9156
  499SOL    HW2 1497   0.696   1.825   0.395  0.9235  0.8160  0.9178
  500SOL     OW 1498   1.499   2.789   1.654  0.4388  0.5545 -0.1273
  500SOL    HW1 1499   1.515   2.778   1.757  0.4488  1.4257  0.7987
  500SOL    HW2 1500   1.530   2.708   1.595  0.4605  3.6615  3.0444
  501SOL     OW 1501   0.781   1.221   2.273  0.0600 -0.7079  0.2927
  501SOL    HW1 1502   0.743   1.123   2.291  0.3216 -1.6997 -3.3533
  501SOL    HW2 1503   0.826   1.228   2.181  1.1907 -2.0678  2.8148
  502SOL     OW 1504   2.561   0.916   1.803  0.2972  0.2733  0.0594
  502SOL    HW1 1505   2.598   0.960   1.721 -0.8342  0.9093 -1.3018
  502SOL    HW2 1506   2.547   0.808   1.794  0.8905 -2.6701  0.5079
  503SOL     OW 1507   1.245   0.127   0.692  0.0790 -0.5113 -0.4604
  503SOL    HW1 1508   1.176   0.195   0.722  1.2070  0.3185 -2.3125
  503SOL    HW2 1509   1.342   0.165   0.718  0.9992  1.4238  1.3368
  504SOL     OW 1510   2.976   2.361   1.484  0.4501  0.0445  0.0930
  504SOL    HW1 1511   2.932   2.418   1.559  1.3839  1.3101  0.7450
  504SOL    HW2 1512   3.071   2.334   1.507 -2.9378  0.7052  0.8547
  505SOL     OW 1513   2.321   1.141   1.517 -0.2703 -0.1135 -0.5949
  505SOL    HW1 1514   2.299   1.151   1.415 -0.1590 -0.2818 -0.2334
  505SOL    HW2 1515   2.416   1.186   1.524 -0.5375  3.0036 -1.6312
  506SOL     OW 1516   1.947   0.212   1.869  0.1380 -0.8574  0.1789
  506SOL    HW1 1517   2.037   0.161   1.835  0.5428 -2.6711  0.9881
  506SOL    HW2 1518   1.967   0.305   1.913 -1.1610  0.6183 -0.9957
  507SOL     OW 1519   0.495   0.751   2.177  0.2741 -0.2516  0.5268
  507SOL    HW1 1520   0.451   0.705   2.091  0.4579  1.6977  0.5548
  507SOL    HW2 1521   0.558   0.685   2.222 -1.1745 -1.1777 -2.4073
  508SOL     OW 1522   0.303   1.662   0.807 -0.6494  0.4565  0.5575
  508SOL    HW1 1523   0.382   1.700   0.756  1.3137  2.1152  1.8402
  508SOL    HW2 1524   0.277   1.727   0.882 -1.1797 -2.2895  0.0811
  509SOL     OW 1525   1.287   1.212   2.476  0.0780  0.2256 -0.2290
  509SOL    HW1 1526   1.271   1.110   2.463  1.4372  1.2641  0.1825
  509SOL    HW2 1527   1.212   1.277   2.446  1.7385 -0.7474 -0.5626
  510SOL     OW 1528   1.354   2.047   2.228 -0.6751  0.0200  0.5356
  510SOL    HW1 1529   1.360   2.093   2.134  0.6105 -2.5019  1.1840
  510SOL    HW2 1530   1.275   1.980   2.241 -2.8038 -1.9860  1.2499
  511SOL     OW 1531   3.010   2.646   1.359 -0.6228  0.4489 -0.2659
  511SOL    HW1 1532   3.023   2.682   1.261 -3.1183 -1.0873 -2.2166
  511SOL    HW2 1533   2.930   2.581   1.372  0.2914  0.5443  0.6523
  512SOL     OW 1534   2.327   0.438   1.402 -0.5292  0.2210  0.1057
  512SOL    HW1 1535   2.229   0.460   1.371 -1.1968  1.6329  0.0131
  512SOL    HW2 1536   2.393   0.396   1.333  0.5204  0.4756  1.1287
  513SOL     OW 1537   2.527   2.105   0.884 -0.1524 -0.3359 -0.4084
  513SOL    HW1 1538   2.482   2.176   0.826 -1.7025 -2.9611 -0.5949
  513SOL    HW2 1539   2.611   2.062   0.839 -0.5188  0.3969  3.0438
  514SOL     OW 1540   0.591   2.757   0.448  0.5081  0.0258  0.1276
  514SOL    HW1 1541   0.596   2.775   0.345  1.5178  1.8511  0.6176
  514SOL    HW2 1542   0.656   2.817   0.497 -0.8476 -4.0195  1.8412
  515SOL     OW 1543   1.948   1.333   2.398 -0.3545  0.0604  0.2267
  515SOL    HW1 1544   1.960   1.280   2.311  1.0926 -1.0571  4.7003
  515SOL    HW2 1545   1.890   1.279   2.466  0.6228  0.0258  0.4868
  516SOL     OW 1546   0.265   0.167   1.960 -0.0032 -0.2095 -0.4277
  516SOL    HW1 1547   0.365   0.192   1.933  0.9651 -1.8265 -0.9285
  516SOL    HW2 1548   0.210   0.133   1.880  3.0639 -2.5940 -1.6061
  517SOL     OW 1549   0.477   0.243   1.104 -0.4038 -0.7560  0.5277
  517SOL    HW1 1550   0.547   0.196   1.169 -2.8605  1.4869  1.9390
  517SOL    HW2 1551   0.386   0.190   1.095  1.3500  0.3049 -0.7812
  518SOL     OW 1552   2.177   3.029   1.832 -0.4944  0.0050  0.0021
  518SOL    HW1 1553   2.221   3.119   1.860  0.2928 -1.7394 -0.1647
  518SOL    HW2 1554   2.215   2.998   1.743 -0.0091  1.6831  1.2117
  519SOL     OW 1555   2.322   2.249   2.542 -0.1695 -0.0227 -0.0044
  519SOL    HW1 1556   2.274   2.214   2.626 -0.8024  1.2344  1.1416
  519SOL    HW2 1557   2.316   2.352   2.526  0.3285  0.4943 -0.5444
  520SOL     OW 1558   1.780   2.657   1.654  0.4090  0.3076  0.0443
  520SOL    HW1 1559   1.726   2.654   1.746 -0.2997  1.6327  0.0166
  520SOL    HW2 1560   1.874   2.623   1.658 -0.6916 -0.1619 -0.7420
  521SOL     OW 1561   0.651   0.070   2.126  0.0455  0.1026  0.2220
  521SOL    HW1 1562   0.575   0.023   2.071 -1.8982 -1.1737  1.2035
  521SOL    HW2 1563   0.638   0.046   2.224 -0.4331 -1.5935 -3.3496
  522SOL     OW 1564   0.235   1.919   1.492 -0.1543  0.7766 -0.4048
  522SOL    HW1 1565   0.260   1.968   1.578 -0.9695 -0.8415  0.6773
  522SOL    HW2 1566   0.217   1.986   1.412 -0.1640 -0.7526  0.0766
  523SOL     OW 1567   2.240   2.915   1.561 -0.6458 -0.2152 -0.1393
  523SOL    HW1 1568   2.310   2.867   1.498 -0.3884  1.2836  2.5022
  523SOL    HW2 1569   2.148   2.891   1.523 -2.8009  0.3351 -2.0119
  524SOL     OW 1570   0.217   2.748   2.755 -0.0020  0.1587  0.2186
  524SOL    HW1 1571   0.172   2.819   2.819 -2.8274  2.7371  1.8443
  524SOL    HW2 1572   0.321   2.757   2.754 -1.4306 -2.2984 -0.5123
  525SOL     OW 1573   2.187   2.099   0.519  0.7049 -0.1265 -0.2583
  525SOL    HW1 1574   2.176   2.045   0.603  0.8282  0.8233 -0.9162
  525SOL    HW2 1575   2.187   2.037   0.433  0.0626 -0.4151  0.9523
  526SOL     OW 1576   0.382   1.534   1.716  0.4062  0.2733  0.2299
  526SOL    HW1 1577   0.444   1.598   1.772 -4.1309  0.1180 -1.9442
  526SOL    HW2 1578   0.401   1.436   1.734 -0.0477 -0.5536  0.1827
  527SOL     OW 1579   1.151   2.996   1.111 -0.1188 -0.3768  0.2983
  527SOL    HW1 1580   1.222   2.920   1.119 -2.2081  1.8768 -0.8505
  527SOL    HW2 1581   1.181   3.095   1.126 -1.6480 -1.2205  0.8554
  528SOL     OW 1582   1.283   2.432   0.629 -0.1330 -0.4931  0.2017
  528SOL    HW1 1583   1.356   2.351   0.633  0.9923 -0.3341  0.0292
  528SOL    HW2 1584   1.319   2.523   0.659 -1.0618  0.7246 -0.5788
  529SOL     OW 1585   1.847   1.723   0.836 -0.4143  0.0539  0.4357
  529SOL    HW1 1586   1.834   1.745   0.735  1.7911  0.2811  2.0635
  529SOL    HW2 1587   1.882   1.801   0.893 -0.8228 -1.6590  0.9875
  530SOL     OW 1588   0.390   2.507   0.180 -0.3943 -0.6507  0.3748
  530SOL    HW1 1589   0.436   2.473   0.265 -0.9076 -0.6584  2.0412
  530SOL    HW2 1590   0.395   2.437   0.101 -0.1984  0.8845  0.3979
  531SOL     OW 1591   1.849   1.025   1.056  0.4027  0.0371  0.0858
  531SOL    HW1 1592   1.886   1.000   0.963 -0.2583  1.5726 -0.0764
  531SOL    HW2 1593   1.750   0.993   1.060  0.6628  1.1515  0.3219
  532SOL     OW 1594   0.396   1.194   0.686  0.0002 -0.0566  0.5213
  532SOL    HW1 1595   0.426   1.189   0.585 -2.5972  0.9868  1.7699
  532SOL    HW2 1596   0.337   1.116   0.718 -1.0184  1.0598 -1.6285
  533SOL     OW 1597   1.820   0.026   2.600  0.0313  0.4560 -0.8783
  533SOL    HW1 1598   1.919   0.008   2.614 -0.9889 -1.0818 -1.1370
  533SOL    HW2 1599   1.793   0.115   2.653 -1.2938  0.3184  1.3160
  534SOL     OW 1600   0.193   0.179   1.553  0.1308  0.0997  0.3719
  534SOL    HW1 1601   0.278   0.247   1.536  1.7369 -0.7925  0.6253
  534SOL    HW2 1602   0.103   0.236   1.548 -0.0898  0.2530 -1.6365
  535SOL     OW 1603   1.872   0.404   0.138 -0.2038  0.1115 -0.2572
  535SOL    HW1 1604   1.915   0.495   0.163  0.3401  3.3383  2.4003
  535SOL    HW2 1605   1.826   0.369   0.228 -0.3785  0.8812  0.8187
  536SOL     OW 1606   1.214   2.494   0.978 -0.4483  0.2184  0.7198
  536SOL    HW1 1607   1.251   2.465   0.887  0.4463 -0.0605  0.2063
  536SOL    HW2 1608   1.128   2.551   0.969  0.9017 -1.3823 -1.4497
  537SOL     OW 1609   0.874   0.258   2.290  0.1112  0.2873 -0.2854
  537SOL    HW1 1610   0.869   0.307   2.202 -0.0512 -1.7529 -2.1067
  537SOL    HW2 1611   0.832   0.165   2.283 -2.5995  0.8660 -0.0935
  538SOL     OW 1612   1.723   2.243   1.623  0.0081 -0.0082 -0.4950
  538SOL    HW1 1613   1.674   2.182   1.553  1.1303  0.2693 -0.7573
  538SOL    HW2 1614   1.771   2.320   1.563 -1.5433  0.1109  0.8937
  539SOL     OW 1615   0.157   1.551   2.763  0.4362 -0.0538 -0.2626
  539SOL    HW1 1616   0.071   1.535   2.702  0.6032  1.0422 -2.9890
  539SOL    HW2 1617   0.217   1.632   2.732 -1.1042 -0.1814 -2.5052
  540SOL     OW 1618   2.650   1.789   2.147  0.4580 -0.1035  0.2351
  540SOL    HW1 1619   2.637   1.706   2.081 -0.4881  1.6313  1.0382
  540SOL    HW2 1620   2.616   1.875   2.095 -2.4132 -0.6620 -0.2773
  541SOL     OW 1621   0.411   2.291   3.070 -0.3420 -0.6089  0.0576
  541SOL    HW1 1622   0.436   2.197   3.105  1.9311  0.7388  2.3161
  541SOL    HW2 1623   0.321   2.295   3.019 -1.1568  1.4371 -1.3778
  542SOL     OW 1624   2.195   2.585   0.457  0.1127  0.2261  0.0622
  542SOL    HW1 1625   2.200   2.686   0.416  1.3026  1.8470 -0.6760
  542SOL    HW2 1626   2.097   2.553   0.462 -0.9509  3.6372  0.4918
  543SOL     OW 1627   1.100   1.813   1.747 -0.6474  0.1646 -0.0166
  543SOL    HW1 1628   1.096   1.839   1.852  0.5259  3.5251  0.3765
  543SOL    HW2 1629   1.010   1.808   1.700  1.9087  0.6377 -0.7581
  544SOL     OW 1630   0.839   0.448   0.113 -0.5027 -0.5476 -0.4982
  544SOL    HW1 1631   0.850   0.392   0.198  2.1596  0.4040 -0.8808
  544SOL    HW2 1632   0.896   0.414   0.029 -0.1085 -0.7091 -1.4471
  545SOL     OW 1633   1.146   1.756   0.646  0.3877  0.0735 -0.6776
  545SOL    HW1 1634   1.237   1.722   0.691  0.4852  0.7176 -1.3809
  545SOL    HW2 1635   1.158   1.787   0.549 -0.1593  1.8191  0.2961
  546SOL     OW 1636   2.726   1.585   0.029 -0.6452  0.1166  0.0460
  546SOL    HW1 1637   2.775   1.558  -0.059  3.2046  1.0771 -2.3268
  546SOL    HW2 1638   2.629   1.544   0.037 -1.3800  1.1396  2.6172
  547SOL     OW 1639   0.482   3.054   2.728 -0.1833  0.4485  0.6687
  547SOL    HW1 1640   0.475   2.996   2.639  2.3904 -1.1789 -0.1158
  547SOL    HW2 1641   0.521   3.010   2.811  1.1967  1.6485 -1.7491
  548SOL     OW 1642   2.069   0.773   3.051  0.1166  0.3239  0.7007
  548SOL    HW1 1643   1.976   0.738   3.087 -0.4338 -1.2788  2.3248
  548SOL    HW2 1644   2.058   0.872   3.050 -1.3923 -0.1482  1.1771
  549SOL     OW 1645   0.571   0.453   0.066  0.3599 -0.0262 -0.0598
  549SOL    HW1 1646   0.544   0.540   0.008  1.3230  0.3902  0.6413
  549SOL    HW2 1647   0.678   0.455   0.088  1.7293 -2.0140 -0.7070
  550SOL     OW 1648   2.522   2.866   2.900 -0.1785  0.0198 -0.1525
  550SOL    HW1 1649   2.507   2.786   2.967  0.6149  0.0767 -0.9694
  550SOL    HW2 1650   2.535   2.826   2.804  0.6767 -0.4320  0.3320
  551SOL     OW 1651   0.248   0.820   0.200  0.0460 -0.4120 -0.3699
  551SOL    HW1 1652   0.344   0.798   0.175 -1.4754 -0.3761  1.8842
  551SOL    HW2 1653   0.233   0.813   0.303 -2.5913 -2.2212  0.6426
  552SOL     OW 1654   0.849   2.798   1.904 -0.2407  0.1282  0.0290
  552SOL    HW1 1655   0.852   2.774   2.004 -1.0728  0.0244 -2.5606
  552SOL    HW2 1656   0.871   2.893   1.880 -2.5793 -0.6119  0.2122
  553SOL     OW 1657   3.090   2.552   0.372 -0.0088 -0.3622 -0.5069
  553SOL    HW1 1658   3.053   2.458   0.346 -0.6500 -0.4642  2.2183
  553SOL    HW2 1659   3.159   2.542   0.448 -2.8322  0.8938  3.2125
  554SOL     OW 1660   2.099   0.319   0.501  1.0383 -0.1256 -0.1075
  554SOL    HW1 1661   2.181   0.317   0.437  0.0396  0.3817  2.5214
  554SOL    HW2 1662   2.104   0.251   0.575  1.3390 -1.3240 -1.5316
  555SOL     OW 1663   0.502   2.871   2.495 -0.3759  0.3032 -1.1594
  555SOL    HW1 1664   0.421   2.901   2.441 -1.7300  3.5809 -0.6335
  555SOL    HW2 1665   0.587   2.848   2.437  0.8452  0.9603 -0.2838
  556SOL     OW 1666   0.978   2.357   1.635 -0.3569 -0.5216 -0.3773
  556SOL    HW1 1667   0.988   2.440   1.695 -1.8860 -1.8221  0.2341
  556SOL    HW2 1668   1.066   2.337   1.587  1.6530  1.8739  1.7487
  557SOL     OW 1669   0.161   2.139   0.105  0.6664  0.7141 -0.4221
  557SOL    HW1 1670   0.074   2.086   0.102  0.8892 -2.0674  1.6725
  557SOL    HW2 1671   0.172   2.196   0.022 -0.6243  2.2116  2.1701
  558SOL     OW 1672   2.931   2.330   0.251 -0.9700  0.5395 -0.0584
  558SOL    HW1 1673   2.835   2.294   0.242 -1.2107  0.7249 -0.1916
  558SOL    HW2 1674   2.976   2.360   0.164 -0.0117 -0.8299  3.8100
  559SOL     OW 1675   0.422   2.283   1.295  0.6019 -0.1952 -0.3176
  559SOL    HW1 1676   0.331   2.284   1.246 -0.3647  1.2081  0.3910
  559SOL    HW2 1677   0.472   2.194   1.279 -1.1910 -0.1102  0.9400
  560SOL     OW 1678   2.033   1.043   3.012 -0.1103  0.2335 -0.1462
  560SOL    HW1 1679   2.052   1.123   2.949 -2.3972  1.3751  2.8967
  560SOL    HW2 1680   1.999   1.075   3.104  1.9381 -1.3454 -1.1604
  561SOL     OW 1681   3.032   1.962   0.115  0.0084 -0.7794  0.3078
  561SOL    HW1 1682   2.989   1.870   0.094  0.2402  0.5615 -0.2695
  561SOL    HW2 1683   2.987   2.038   0.056 -0.1935  0.0908 -0.4215
  562SOL     OW 1684   0.823   2.179   2.459 -0.5056  0.1732  0.0938
  562SOL    HW1 1685   0.728   2.136   2.465  1.6133 -0.6069 -3.1835
  562SOL    HW2 1686   0.847   2.244   2.530  1.7261 -0.1181 -3.6287
  563SOL     OW 1687   0.699   2.554   2.536  0.8227 -0.4150 -0.2340
  563SOL    HW1 1688   0.683   2.459   2.491  1.8484 -2.0537  0.4407
  563SOL    HW2 1689   0.745   2.542   2.629  0.8886 -2.6887  1.8236
  564SOL     OW 1690   2.755   1.296   2.887  0.0496 -0.1050 -0.4911
  564SOL    HW1 1691   2.667   1.293   2.942 -0.6218 -0.2128  0.2633
  564SOL    HW2 1692   2.793   1.390   2.878 -0.8437  0.6067  0.3249
  565SOL     OW 1693   2.535   2.021   2.596 -0.4018 -0.0705  0.2939
  565SOL    HW1 1694   2.494   2.113   2.570  0.5380 -0.1000 -0.9640
  565SOL    HW2 1695   2.617   2.034   2.662  1.0030 -0.0668  2.1074
  566SOL     OW 1696   2.011   2.821   1.437  0.2787 -0.0929 -0.1414
  566SOL    HW1 1697   2.005   2.720   1.472  0.0594  1.5689  0.7527
  566SOL    HW2 1698   2.044   2.826   1.337  0.6310 -2.0197 -1.4649
  567SOL     OW 1699   2.425   0.128   2.215  0.5207  0.2089 -0.0138
  567SOL    HW1 1700   2.474   0.126   2.121 -0.5456  1.1871 -1.6442
  567SOL    HW2 1701   2.359   0.209   2.219  2.9904  1.2809  0.7278
  568SOL     OW 1702   1.441   1.805   0.471 -0.5034 -0.2917 -0.1326
  568SOL    HW1 1703   1.422   1.882   0.406 -1.4797  2.9085  1.4950
  568SOL    HW2 1704   1.460   1.837   0.572 -0.3061 -1.7080 -0.1560
  569SOL     OW 1705   0.286   0.713   0.778 -0.3291  0.1678  0.2137
  569SOL    HW1 1706   0.361   0.709   0.714 -2.6851  3.6523  1.5578
  569SOL    HW2 1707   0.203   0.660   0.757  4.8535  2.8533  1.6268
  570SOL     OW 1708   0.611   0.817   2.837  0.5215 -0.7162 -0.4023
  570SOL    HW1 1709   0.692   0.796   2.777  0.2933  0.8154 -1.5283
  570SOL    HW2 1710   0.615   0.918   2.870 -1.5273 -2.4717 -0.0642
  571SOL     OW 1711   0.856   3.051   1.140  0.4649 -0.5280 -0.1906
  571SOL    HW1 1712   0.852   3.138   1.085 -2.2892  0.4987 -0.1411
  571SOL    HW2 1713   0.949   3.004   1.139 -0.4847 -2.5815 -1.9314
  572SOL     OW 1714   1.491   2.573   1.193  0.8187  0.1692  0.0666
  572SOL    HW1 1715   1.421   2.501   1.206 -0.4562 -0.5605 -0.5438
  572SOL    HW2 1716   1.455   2.636   1.124  0.5552 -1.7560  1.0135
  573SOL     OW 1717   2.943   0.455   2.089  0.1204 -0.6756  0.3900
  573SOL    HW1 1718   2.894   0.370   2.125 -0.0299  1.2354 -0.5704
  573SOL    HW2 1719   2.875   0.518   2.049 -0.7020 -2.6974 -0.0995
  574SOL     OW 1720   0.225   1.795   1.032  0.2951  0.5054  0.3539
  574SOL    HW1 1721   0.214   1.891   0.998  0.5362  2.0104  1.1325
  574SOL    HW2 1722   0.146   1.762   1.088 -0.0587  0.3797  0.9136
  575SOL     OW 1723   0.909   2.205   1.024 -0.2183 -0.7959  0.0040
  575SOL    HW1 1724   0.880   2.183   1.122  1.3546 -1.5369 -0.3481
  575SOL    HW2 1725   1.005   2.180   1.002 -0.8065 -0.1060 -1.9585
  576SOL     OW 1726   2.889   2.908   1.718 -0.0678 -0.3244 -0.8253
  576SOL    HW1 1727   2.833   2.828   1.683 -1.2868 -0.9365  1.4275
  576SOL    HW2 1728   2.902   2.982   1.643  0.8890 -3.9638 -1.6456
  577SOL     OW 1729   2.528   1.236   3.075  0.2692  0.3509 -0.3770
  577SOL    HW1 1730   2.528   1.136   3.063  1.8889 -0.2041  1.3934
  577SOL    HW2 1731   2.596   1.258   3.154  0.9226  1.1536  0.2175
  578SOL     OW 1732   1.330   2.791   2.586  0.3031 -0.0313  0.3192
  578SOL    HW1 1733   1.270   2.747   2.512 -0.0233 -0.5926 -0.8100
  578SOL    HW2 1734   1.337   2.899   2.570 -0.4868  1.8277 -0.0853
  579SOL     OW 1735   0.150   2.594   0.134  0.1404 -0.5686  0.5550
  579SOL    HW1 1736   0.085   2.595   0.216 -0.2854 -0.3120  1.5558
  579SOL    HW2 1737   0.246   2.558   0.159 -1.2309  1.2975 -0.7815
  580SOL     OW 1738   0.951   2.683   0.372  0.3543  0.0551 -0.0662
  580SOL    HW1 1739   1.038   2.722   0.334  1.2592  0.0082 -1.7119
  580SOL    HW2 1740   0.911   2.603   0.317 -2.0081  3.3014 -1.7471
  581SOL     OW 1741   1.290   2.558   1.479  0.1883  0.5856 -0.2967
  581SOL    HW1 1742   1.303   2.467   1.434 -0.5547  0.3915  0.6378
  581SOL    HW2 1743   1.300   2.636   1.407  2.1918  1.7814  2.9308
  582SOL     OW 1744   1.518   0.073   1.877 -0.2138 -0.2236  0.2069
  582SOL    HW1 1745   1.566   0.149   1.929  1.4941  1.6484  0.0603
  582SOL    HW2 1746   1.576   0.043   1.789  2.3687  0.1219 -3.7178
  583SOL     OW 1747   2.381   2.994   0.588  0.2015  0.1145  0.3232
  583SOL    HW1 1748   2.455   2.939   0.537  1.5570  0.8048 -0.7388
  583SOL    HW2 1749   2.322   2.931   0.647 -1.8917  0.3208  0.1298
  584SOL     OW 1750   1.533   0.982   2.087  0.2188  0.3806  0.0498
  584SOL    HW1 1751   1.595   1.027   2.019  0.1250 -0.6469  0.2051
  584SOL    HW2 1752   1.582   0.943   2.165  0.4494  1.4786  0.4065
  585SOL     OW 1753   2.095   2.688   2.886 -0.1317 -0.2035  0.4586
  585SOL    HW1 1754   2.137   2.595   2.874  0.2321 -4.3782  1.3310
  585SOL    HW2 1755   1.993   2.685   2.907  0.3765  1.7124  2.8394
  586SOL     OW 1756   2.779   0.231   1.557  0.3329 -0.4878 -0.2995
  586SOL    HW1 1757   2.766   0.324   1.598 -0.8528 -1.8947 -0.7694
  586SOL    HW2 1758   2.681   0.185   1.550 -1.1828  0.5036 -0.0848
  587SOL     OW 1759   2.018   1.615   2.746 -0.0060 -0.2606 -0.1023
  587SOL    HW1 1760   2.081   1.602   2.660 -1.6278  1.0010 -1.6805
  587SOL    HW2 1761   2.080   1.618   2.830 -2.5793 -1.0775 -2.8272
  588SOL     OW 1762   0.488   2.697   2.230 -0.7883 -0.0153 -0.1630
  588SOL    HW1 1763   0.428   2.728   2.151 -2.3367  0.0173 -0.2682
  588SOL    HW2 1764   0.438   2.652   2.308  2.1722  0.1536  0.1537
  589SOL     OW 1765   2.150   1.467   2.537 -0.6747 -0.0534  0.3391
  589SOL    HW1 1766   2.074   1.411   2.491 -2.6705  1.3831  0.4710
  589SOL    HW2 1767   2.241   1.413   2.538 -1.2570  0.0769  0.3149
  590SOL     OW 1768   2.360   1.756   1.994 -0.2330 -0.3129 -0.4012
  590SOL    HW1 1769   2.432   1.685   2.010 -0.0478 -1.0700  0.1468
  590SOL    HW2 1770   2.360   1.830   2.070 -0.5819  0.3434  1.6216
  591SOL     OW 1771   1.317   2.471   0.319 -0.0621  0.6267 -0.3770
  591SOL    HW1 1772   1.398   2.425   0.269  0.8059 -0.3117 -2.0597
  591SOL    HW2 1773   1.296   2.443   0.416  0.3395  0.9074 -0.2184
  592SOL     OW 1774   1.668   2.319   0.785 -0.3838 -0.0160  0.0126
  592SOL    HW1 1775   1.652   2.380   0.703  2.4167  0.4344  0.4104
  592SOL    HW2 1776   1.768   2.310   0.797  1.5230 -2.1606  0.1517
  593SOL     OW 1777   0.523   0.239   3.004 -0.3627 -0.3182  0.0600
  593SOL    HW1 1778   0.618   0.191   2.999  1.8157  2.0877 -1.6994
  593SOL    HW2 1779   0.523   0.332   3.051  2.3899 -0.5998  2.1471
  594SOL     OW 1780   0.914   1.887   2.759 -0.2637  0.4592 -0.1421
  594SOL    HW1 1781   1.012   1.890   2.723  0.3457 -0.0938 -1.0505
  594SOL    HW2 1782   0.891   1.953   2.832  0.8158  0.6261  0.1987
  595SOL     OW 1783   1.564   3.077   1.012 -0.2372 -0.2210 -0.7262
  595SOL    HW1 1784   1.664   3.059   1.030  1.6469 -0.7338 -0.5758
  595SOL    HW2 1785   1.544   3.068   0.910  1.4168  1.6049 -0.8774
  596SOL     OW 1786   3.078   1.459   2.210 -0.1422 -0.4449  0.1513
  596SOL    HW1 1787   2.995   1.500   2.252  0.9512  1.2806 -3.6693
  596SOL    HW2 1788   3.140   1.425   2.281 -3.1224  2.3685 -3.8333
  597SOL     OW 1789   2.065   2.594   1.606  0.0062  0.9626  0.2187
  597SOL    HW1 1790   2.105   2.496   1.582  2.2048  0.0104  3.7768
  597SOL    HW2 1791   2.141   2.650   1.658  1.3121 -0.6800 -0.1078
  598SOL     OW 1792   2.596   2.883   1.212 -0.1036  0.3332 -0.1782
  598SOL    HW1 1793   2.652   2.917   1.291  2.1856  0.5156 -2.6538
  598SOL    HW2 1794   2.649   2.876   1.125 -1.2915  0.7001  0.0600
  599SOL     OW 1795   2.922   0.327   2.403 -0.3281 -0.3087  0.0335
  599SOL    HW1 1796   3.001   0.320   2.337  0.6229 -0.4127  1.2761
  599SOL    HW2 1797   2.844   0.391   2.369 -1.0084  2.3806  1.2392
  600SOL     OW 1798   2.822   1.058   2.762 -0.0033 -0.5092  0.3473
  600SOL    HW1 1799   2.791   0.986   2.834  0.5880 -0.0458  0.0441
  600SOL    HW2 1800   2.789   1.153   2.786  2.1250 -1.1976  2.6712
  601SOL     OW 1801   2.933   1.292   2.045 -0.1654  0.2838  0.5212
  601SOL    HW1 1802   2.870   1.337   1.974 -2.1123  1.7220 -1.6132
  601SOL    HW2 1803   2.986   1.356   2.103  2.0636 -0.8867  0.3617
  602SOL     OW 1804   1.543   1.677   2.347  0.2167 -0.5635  0.9118
  602SOL    HW1 1805   1.479   1.605   2.323  3.4190  2.4173  1.6386
  602SOL    HW2 1806   1.635   1.646   2.384 -1.1241  1.5084 -1.9627
  603SOL     OW 1807   0.716   1.250   2.610 -0.1613  0.0772 -0.4004
  603SOL    HW1 1808   0.629   1.209   2.562  2.4035  1.5345 -2.1880
  603SOL    HW2 1809   0.781   1.176   2.646  0.2710 -0.8246 -0.3429
  604SOL     OW 1810   2.378   1.007   0.160 -0.6835 -0.2533  0.3889
  604SOL    HW1 1811   2.466   1.050   0.134  0.6081  0.0857  0.1306
  604SOL    HW2 1812   2.371   0.911   0.118  0.1527  1.2335 -0.9995
  605SOL     OW 1813   2.586   1.112   1.989  0.1974  0.4843 -0.2308
  605SOL    HW1 1814   2.584   1.033   1.922 -0.8013 -1.1887 -0.4758
  605SOL    HW2 1815   2.629   1.089   2.084 -3.2759 -1.6874  0.0962
  606SOL     OW 1816   1.511   2.509   2.584  0.2374  0.1031  0.1772
  606SOL    HW1 1817   1.419   2.554   2.593  0.5893 -1.8049  0.1737
  606SOL    HW2 1818   1.498   2.402   2.578  0.7522 -2.9551 -0.4568
  607SOL     OW 1819   1.333   1.539   0.410  0.3294 -0.1367 -0.6418
  607SOL    HW1 1820   1.292   1.493   0.496  1.6646 -1.6055  1.9271
  607SOL    HW2 1821   1.368   1.638   0.433 -1.2075  1.9627  1.4099
  608SOL     OW 1822   1.394   2.891   0.417  0.1080  0.2765  0.2727
  608SOL    HW1 1823   1.438   2.941   0.333  1.0290  0.1954 -0.8088
  608SOL    HW2 1824   1.315   2.947   0.459 -1.6057  0.9002  1.5567
  609SOL     OW 1825   1.327   1.326   0.237 -0.5023  0.1082  0.8139
  609SOL    HW1 1826   1.340   1.417   0.288 -2.8692  0.2973  0.0506
  609SOL    HW2 1827   1.228   1.322   0.197 -1.9080  1.1836 -1.4978
  610SOL     OW 1828   3.010   1.071   2.277 -0.6111 -0.4862 -0.3706
  610SOL    HW1 1829   2.978   0.972   2.266 -0.3837 -1.5948 -1.1932
  610SOL    HW2 1830   2.966   1.132   2.205  0.0507  1.1497  0.4778
  611SOL     OW 1831   2.525   0.312   1.240 -0.0922  0.6867  0.1057
  611SOL    HW1 1832   2.497   0.213   1.240  0.5696  0.7496 -1.0789
  611SOL    HW2 1833   2.629   0.328   1.246 -0.0124 -1.0684  0.9535
  612SOL     OW 1834   0.767   2.155   1.248 -0.1018 -1.1331  0.1304
  612SOL    HW1 1835   0.685   2.087   1.261 -1.9687  4.2791  3.0283
  612SOL    HW2 1836   0.737   2.246   1.209  1.3947  0.7634 -0.9874
  613SOL     OW 1837   0.954   1.401   2.360 -0.9444 -0.4951  0.6651
  613SOL    HW1 1838   0.981   1.455   2.276 -0.8963 -2.9880 -1.0637
  613SOL    HW2 1839   0.872   1.342   2.334  0.0210  3.2453 -0.7342
  614SOL     OW 1840   1.661   1.545   1.760  0.3278  0.2661  0.3511
  614SOL    HW1 1841   1.591   1.619   1.746 -0.8365 -1.0382  0.5657
  614SOL    HW2 1842   1.729   1.563   1.836 -2.1898 -0.1194  0.6847
  615SOL     OW 1843   0.778   1.261   1.728  0.2125 -0.0351  0.1950
  615SOL    HW1 1844   0.699   1.273   1.658  0.2933 -0.6293 -0.2777
  615SOL    HW2 1845   0.852   1.340   1.719 -2.4011 -0.8260  1.9474
  616SOL     OW 1846   1.019   1.584   2.154 -0.7360  0.2664 -0.2354
  616SOL    HW1 1847   0.960   1.594   2.066  0.9749  1.8188  0.6957
  616SOL    HW2 1848   1.063   1.671   2.191  0.1800 -1.8175  2.3519
  617SOL     OW 1849   2.963   1.524   1.591  0.0446 -0.4195 -0.1200
  617SOL    HW1 1850   2.989   1.436   1.644  1.1359  0.8976  0.2611
  617SOL    HW2 1851   2.992   1.513   1.492 -0.5579 -1.8354  1.2177
  618SOL     OW 1852   1.879   2.010   1.385 -0.1264  0.2500  0.2391
  618SOL    HW1 1853   1.890   2.092   1.324  0.7477  0.6088  1.8223
  618SOL    HW2 1854   1.837   1.924   1.339 -0.0650  1.5896 -0.9742
  619SOL     OW 1855   1.732   0.445   2.383 -0.0417 -0.0574 -0.1407
  619SOL    HW1 1856   1.661   0.513   2.346 -0.4153 -1.2309 -1.0985
  619SOL    HW2 1857   1.710   0.340   2.376 -1.9645 -3.2503  0.3664
  620SOL     OW 1858   2.257   2.814   0.752  0.3519 -0.2020 -0.2171
  620SOL    HW1 1859   2.154   2.813   0.751 -1.4499  0.5391 -0.4452
  620SOL    HW2 1860   2.296   2.735   0.808 -0.8074  1.6744 -0.1187
  621SOL     OW 1861   2.184   1.935   1.349  0.2841 -0.2314  0.2459
  621SOL    HW1 1862   2.174   1.934   1.453 -0.3678  0.6042 -0.4018
  621SOL    HW2 1863   2.123   1.864   1.302 -1.1637 -0.0075  0.5284
  622SOL     OW 1864   2.281   0.936   1.863  0.6678  0.5836 -0.2693
  622SOL    HW1 1865   2.376   0.946   1.822  1.9743  0.5702 -3.1977
  622SOL    HW2 1866   2.271   0.867   1.943  1.6086  0.8570 -1.7580
  623SOL     OW 1867   1.253   0.835   2.521 -0.3022 -0.2364  0.1537
  623SOL    HW1 1868   1.200   0.750   2.558  1.7843 -1.0481  2.5374
  623SOL    HW2 1869   1.224   0.854   2.419  0.3519 -0.5444  2.1044
  624SOL     OW 1870   0.499   0.649   3.014 -0.0668 -0.3228  0.2020
  624SOL    HW1 1871   0.538   0.700   2.933 -0.0900  0.9895  0.8935
  624SOL    HW2 1872   0.500   0.708   3.102 -1.5189  0.5296  0.9309
  625SOL     OW 1873   2.720   1.706   0.999  0.1284 -0.0285  0.0058
  625SOL    HW1 1874   2.644   1.769   1.030  0.0775  1.0654 -1.4908
  625SOL    HW2 1875   2.807   1.759   0.997 -0.0645 -0.5874  0.0941
  626SOL     OW 1876   0.633   2.691   1.776  0.4501  0.0238 -0.0609
  626SOL    HW1 1877   0.697   2.738   1.839  1.6248 -0.8960  1.8674
  626SOL    HW2 1878   0.539   2.665   1.811 -1.6457  1.1536 -1.5392
  627SOL     OW 1879   0.649   0.819   1.686  0.5135  0.0232 -0.3784
  627SOL    HW1 1880   0.574   0.769   1.636  1.6241  2.8164  1.8453
  627SOL    HW2 1881   0.704   0.875   1.620 -0.2953 -2.1562 -1.7374
  628SOL     OW 1882   2.354   0.103   0.756 -0.2456  0.4754 -0.1650
  628SOL    HW1 1883   2.373   0.015   0.705 -0.0819 -0.1677  0.5880
  628SOL    HW2 1884   2.254   0.120   0.759  2.9838 -2.4438  0.7157
  629SOL     OW 1885   1.897   0.932   1.981  0.5543  0.0372  0.3687
  629SOL    HW1 1886   1.916   1.027   1.945 -0.6407 -1.7344 -1.4986
  629SOL    HW2 1887   1.919   0.932   2.082  0.6072  0.8190 -0.5218
  630SOL     OW 1888   2.922   2.205   0.783 -0.5409  0.0434  0.3523
  630SOL    HW1 1889   2.870   2.298   0.785 -1.0522 -0.4542 -1.2502
  630SOL    HW2 1890   2.860   2.122   0.788  0.1524 -2.0983  0.3812
  631SOL     OW 1891   3.040   0.111   2.060  0.2358 -0.0292  0.6088
  631SOL    HW1 1892   3.106   0.157   2.125 -1.0984 -0.6475 -1.1294
  631SOL    HW2 1893   3.077   0.099   1.966  0.0819  0.4272  1.4715
  632SOL     OW 1894   2.439   2.583   0.626 -1.1354  0.1581  0.6502
  632SOL    HW1 1895   2.528   2.635   0.641 -2.2013 -1.9193  2.7317
  632SOL    HW2 1896   2.395   2.596   0.535 -2.4963 -2.0327 -1.4626
  633SOL     OW 1897   1.484   1.256   2.652  0.5168 -0.0839  0.1610
  633SOL    HW1 1898   1.457   1.329   2.723  2.3417 -1.3494 -0.0264
  633SOL    HW2 1899   1.406   1.215   2.594 -0.3985 -0.3275  1.0783
  634SOL     OW 1900   0.713   2.107   0.850 -0.0303 -0.7746 -0.2832
  634SOL    HW1 1901   0.624   2.119   0.904  0.2960 -1.4671  1.5115
  634SOL    HW2 1902   0.786   2.169   0.893 -1.2118  2.6781 -0.7366
  635SOL     OW 1903   3.063   2.390   0.017  0.6455 -0.5681  0.1241
  635SOL    HW1 1904   2.983   2.435  -0.033 -0.2841 -0.7853  2.6047
  635SOL    HW2 1905   3.136   2.459   0.049 -0.3309  0.3878  1.0150
  636SOL     OW 1906   2.371   2.716   2.067 -0.2094 -0.4463  0.1916
  636SOL    HW1 1907   2.382   2.810   2.111 -0.1802 -0.6960 -1.3660
  636SOL    HW2 1908   2.295   2.657   2.101  0.5526  1.6080 -1.3689
  637SOL     OW 1909   2.684   0.577   1.965  0.3434 -0.1025  0.4148
  637SOL    HW1 1910   2.610   0.589   1.896  1.8104 -0.4970  2.6024
  637SOL    HW2 1911   2.732   0.668   1.969  1.6513 -0.9004 -2.2418
  638SOL     OW 1912   2.469   1.868   1.334 -0.3259 -0.1078 -0.3967
  638SOL    HW1 1913   2.366   1.859   1.335 -0.5103 -2.1074 -2.2481
  638SOL    HW2 1914   2.505   1.802   1.406 -0.4070 -0.1410 -0.7021
  639SOL     OW 1915   1.256   2.208   1.616 -0.3672 -0.4548  0.7111
  639SOL    HW1 1916   1.337   2.265   1.647 -1.4920  3.0625 -0.0288
  639SOL    HW2 1917   1.181   2.202   1.680  0.9087 -0.8810  0.2229
  640SOL     OW 1918   0.178   1.244   1.553  0.0162  0.1465 -0.3032
  640SOL    HW1 1919   0.162   1.273   1.652 -2.0433  1.3484 -0.2190
  640SOL    HW2 1920   0.264   1.182   1.544 -0.4428  0.3766  0.5387
  641SOL     OW 1921   1.981   0.251   1.516 -0.1683 -0.1755  0.2808
  641SOL    HW1 1922   1.907   0.302   1.569  0.7751 -0.0874 -1.9328
  641SOL    HW2 1923   2.071   0.241   1.563  0.4946 -1.5294  2.5349
  642SOL     OW 1924   2.045   3.079   0.344  0.5803  0.3825  0.3208
  642SOL    HW1 1925   2.132   3.134   0.349  1.1588  0.7171 -0.9127
  642SOL    HW2 1926   1.979   3.103   0.416 -1.9346  0.9791 -1.1075
  643SOL     OW 1927   2.916   1.937   2.098  0.1118 -0.1321  0.9975
  643SOL    HW1 1928   2.853   1.856   2.076 -0.5883  1.8505 -0.0388
  643SOL    HW2 1929   2.908   2.013   2.026  2.3214 -1.5341  0.4173
  644SOL     OW 1930   2.291   2.400   1.262  0.1546 -0.0485 -0.4750
  644SOL    HW1 1931   2.360   2.361   1.197  1.6129  2.8168  0.5100
  644SOL    HW2 1932   2.320   2.380   1.355 -0.6134  0.0710 -0.5568
  645SOL     OW 1933   0.692   0.837   1.265 -0.1204  0.3716 -0.1898
  645SOL    HW1 1934   0.606   0.783   1.283  1.2657  0.9753  0.9421
  645SOL    HW2 1935   0.700   0.854   1.164  1.1014  1.6344 -1.1942
  646SOL     OW 1936   1.522   1.776   2.026  0.0360  0.4636  0.2465
  646SOL    HW1 1937   1.601   1.783   1.959  1.5209  2.2463  0.6755
  646SOL    HW2 1938   1.554   1.800   2.119  1.2449  0.4151 -0.4091
  647SOL     OW 1939   0.767   1.099   0.616 -0.0781  0.0908  0.2205
  647SOL    HW1 1940   0.835   1.123   0.694  1.0996 -1.7961  1.9789
  647SOL    HW2 1941   0.718   1.007   0.633 -1.2093 -0.2701 -1.3822
  648SOL     OW 1942   0.181   0.234   0.382 -0.3385 -0.2991  0.1996
  648SOL    HW1 1943   0.159   0.133   0.358  1.9296  0.2541 -1.1309
  648SOL    HW2 1944   0.139   0.295   0.307  1.1030 -0.9912  1.7031
  649SOL     OW 1945   3.002   0.276   0.917 -0.1487 -0.1279 -0.3198
  649SOL    HW1 1946   3.085   0.313   0.863  1.0498 -0.1390 -1.3132
  649SOL    HW2 1947   2.993   0.311   1.014  0.5387  1.2905 -0.4843
  650SOL     OW 1948   2.802   0.718   1.469 -0.1176  0.2721  0.4519
  650SOL    HW1 1949   2.705   0.682   1.460  0.2342 -0.7419  3.1525
  650SOL    HW2 1950   2.824   0.807   1.427 -0.8044 -0.1184  1.4995
  651SOL     OW 1951   0.889   1.536   1.676  0.0680 -0.2589 -0.4157
  651SOL    HW1 1952   0.872   1.569   1.772  0.0615  2.6182 -1.5588
  651SOL    HW2 1953   0.983   1.558   1.641  1.0767 -3.1240 -0.7765
  652SOL     OW 1954   2.332   2.534   2.503  0.1821 -0.1944  0.0588
  652SOL    HW1 1955   2.226   2.543   2.521 -1.5483  1.1376 -1.9315
  652SOL    HW2 1956   2.359   2.607   2.433  2.7201 -1.6478 -0.5534
  653SOL     OW 1957   2.700   1.266   0.180 -0.4129  0.2432 -0.0523
  653SOL    HW1 1958   2.733   1.340   0.244 -0.3108  1.6933  1.0058
  653SOL    HW2 1959   2.746   1.175   0.198  2.9156  1.6094 -0.7048
  654SOL     OW 1960   1.215   2.098   1.238  0.4643  0.0623 -0.2159
  654SOL    HW1 1961   1.243   2.025   1.300  3.7023  0.7043  0.7408
  654SOL    HW2 1962   1.245   2.084   1.138  0.3375 -1.2463 -1.4764
  655SOL     OW 1963   0.198   0.991   1.928  0.0545 -0.1300  0.5258
  655SOL    HW1 1964   0.266   0.931   1.879 -0.7904  0.7581 -2.6503
  655SOL    HW2 1965   0.183   1.084   1.885  0.3527  0.2158 -0.5389
  656SOL     OW 1966   2.586   2.528   2.632  0.0366  0.0786  0.0691
  656SOL    HW1 1967   2.673   2.513   2.573  0.3416 -1.5136 -0.0241
  656SOL    HW2 1968   2.501   2.498   2.580 -0.6738 -1.1476 -0.5717
  657SOL     OW 1969   3.015   1.056   1.930  0.2581 -0.1196 -0.8463
  657SOL    HW1 1970   2.993   1.150   1.959 -0.3453 -0.9898  1.4376
  657SOL    HW2 1971   3.117   1.036   1.924 -0.6926 -0.4682 -2.8936
  658SOL     OW 1972   1.654   0.169   2.350 -0.3333  0.4467  0.7272
  658SOL    HW1 1973   1.712   0.109   2.413 -1.4414  1.3059 -1.2134
  658SOL    HW2 1974   1.656   0.131   2.249  2.6294 -0.5676 -0.0135
  659SOL     OW 1975   1.445   0.677   2.813  0.1577 -0.3951 -0.2200
  659SOL    HW1 1976   1.486   0.735   2.731  1.2731 -3.0117  0.4985
  659SOL    HW2 1977   1.349   0.705   2.839  0.9458  1.0197 -0.9340
  660SOL     OW 1978   1.429   0.303   1.412  0.2368  0.1719  0.1803
  660SOL    HW1 1979   1.455   0.355   1.498 -2.0049 -1.2611  0.4220
  660SOL    HW2 1980   1.496   0.236   1.376 -0.9676  0.6074 -3.0505
  661SOL     OW 1981   2.395   1.264   0.659  0.3864 -0.2167 -0.5908
  661SOL    HW1 1982   2.418   1.242   0.559 -3.5894  1.1343 -2.4706
  661SOL    HW2 1983   2.320   1.330   0.664  0.5631  1.8600  1.1795
  662SOL     OW 1984   1.466   0.375   1.692  0.0397 -0.2855  0.3839
  662SOL    HW1 1985   1.404   0.321   1.758 -2.0891 -1.4118  1.5671
  662SOL    HW2 1986   1.439   0.478   1.681  0.6465 -1.2065  1.1336
  663SOL     OW 1987   0.830   1.608   1.943  0.7192 -0.2490  0.3611
  663SOL    HW1 1988   0.795   1.687   1.995 -1.9249 -0.8465  2.7676
  663SOL    HW2 1989   0.780   1.522   1.969  3.7016 -0.8054 -0.1647
  664SOL     OW 1990   1.610   2.112   1.425 -0.0596  0.1133 -0.2184
  664SOL    HW1 1991   1.534   2.039   1.437 -0.2660 -0.1750  1.7319
  664SOL    HW2 1992   1.705   2.074   1.416 -1.9296  2.7508 -3.4785
  665SOL     OW 1993   2.257   0.679   1.998  0.1824 -0.0717  0.0879
  665SOL    HW1 1994   2.247   0.576   1.982  0.9658 -1.2071 -1.3972
  665SOL    HW2 1995   2.323   0.704   2.073  0.1143 -0.2174 -1.1315
  666SOL     OW 1996   0.462   2.222   0.358 -0.2260 -0.1415  0.0207
  666SOL    HW1 1997   0.535   2.290   0.391 -0.7662  0.2142 -1.2676
  666SOL    HW2 1998   0.364   2.250   0.372  0.5030  2.5915 -3.7038
  667SOL     OW 1999   2.022   0.220   1.094 -0.5737  0.2159 -0.1027
  667SOL    HW1 2000   1.994   0.322   1.079  0.2166  1.3569  0.8940
  667SOL    HW2 2001   1.967   0.179   1.177 -2.3608 -0.9844 -2.6350
  668SOL     OW 2002   1.987   0.498   1.067 -0.0934 -0.1578  0.3269
  668SOL    HW1 2003   2.062   0.528   1.004  2.7822  1.8350  0.8946
  668SOL    HW2 2004   2.020   0.504   1.168  1.5316 -0.1368  0.7034
  669SOL     OW 2005   3.051   2.146   1.027  0.4233  0.2841  0.0877
  669SOL    HW1 2006   3.040   2.195   0.936  0.6553 -0.6139  2.2916
  669SOL    HW2 2007   2.985   2.178   1.100 -1.0860 -1.0601 -0.2114
  670SOL     OW 2008   2.925   2.338   2.132 -0.2967 -0.8543 -0.5881
  670SOL    HW1 2009   2.841   2.318   2.194  0.8840  2.5609 -0.2086
  670SOL    HW2 2010   2.916   2.430   2.080 -2.7898 -1.5539  0.9573
  671SOL     OW 2011   1.758   1.669   1.511 -0.0404  0.4117 -0.3416
  671SOL    HW1 2012   1.712   1.648   1.423 -0.4991  3.4985  2.1050
  671SOL    HW2 2013   1.802   1.586   1.553  1.4630  2.5861 -1.0761
  672SOL     OW 2014   0.450   0.678   2.598 -0.4055 -0.5308 -0.2315
  672SOL    HW1 2015   0.387   0.718   2.530  0.6978 -1.2261 -0.8588
  672SOL    HW2 2016   0.405   0.677   2.694 -3.9475  0.6765  3.3162
  673SOL     OW 2017   0.081   1.392   1.070  0.2462 -0.1622  0.3721
  673SOL    HW1 2018   0.078   1.438   1.163  1.4907 -1.8796  0.4074
  673SOL    HW2 2019   0.172   1.376   1.033 -2.2381 -0.1377 -1.3491
  674SOL     OW 2020   1.576   3.006   0.235  0.4361 -0.3954  0.5951
  674SOL    HW1 2021   1.626   3.091   0.194  1.3622 -1.1018  0.9549
  674SOL    HW2 2022   1.600   2.913   0.195 -0.9260 -0.2422 -1.1524
  675SOL     OW 2023   1.641   0.852   2.332  0.1385 -0.0920  0.0769
  675SOL    HW1 2024   1.743   0.871   2.308 -0.1043 -0.8561  1.4211
  675SOL    HW2 2025   1.609   0.755   2.309  1.3029 -0.3117  1.9183
  676SOL     OW 2026   2.555   1.559   2.001  0.1801 -0.0344  0.0281
  676SOL    HW1 2027   2.540   1.511   1.914  0.3707  0.3447 -1.5573
  676SOL    HW2 2028   2.602   1.499   2.074 -3.9722  1.2343  0.6565
  677SOL     OW 2029   1.854   0.728   0.882  0.2946  0.1692  0.1777
  677SOL    HW1 2030   1.751   0.713   0.896 -1.4987  1.8877 -0.9040
  677SOL    HW2 2031   1.907   0.683   0.959  0.3454 -2.2277 -1.7358
  678SOL     OW 2032   0.071   0.838   1.646  0.1011  0.0410 -0.0385
  678SOL    HW1 2033   0.174   0.825   1.666  1.5905  0.0198 -0.7118
  678SOL    HW2 2034   0.016   0.793   1.722 -0.6872  0.1078 -0.4502
  679SOL     OW 2035   2.554   1.074   1.214 -0.0270 -0.6404 -0.1424
  679SOL    HW1 2036   2.453   1.105   1.215 -0.8985  0.6086  0.2759
  679SOL    HW2 2037   2.567   0.978   1.189 -0.4307  1.4185 -1.8249
  680SOL     OW 2038   2.818   0.546   1.692  0.2166 -0.3125 -0.3570
  680SOL    HW1 2039   2.797   0.613   1.615  0.9180  2.3218  3.2561
  680SOL    HW2 2040   2.905   0.574   1.744  0.1673  0.9541  1.8179
  681SOL     OW 2041   2.995   0.019   1.555 -0.2909 -0.0476 -0.0872
  681SOL    HW1 2042   3.023   0.035   1.454  2.1260  3.3298 -0.3315
  681SOL    HW2 2043   2.911   0.078   1.585 -1.6008 -1.6496 -4.0458
  682SOL     OW 2044   0.621   0.079   1.284  0.2201 -0.0954 -0.1671
  682SOL    HW1 2045   0.570   0.018   1.351 -0.8783  0.8107 -0.2537
  682SOL    HW2 2046   0.695   0.033   1.233  0.5176 -0.5475  1.0114
  683SOL     OW 2047   1.363   0.269   2.153  0.3989 -0.4517 -0.3918
  683SOL    HW1 2048   1.345   0.280   2.250  1.3390 -2.1102  0.6133
  683SOL    HW2 2049   1.463   0.285   2.129  2.1141  0.4111 -2.4222
  684SOL     OW 2050   1.417   2.165   0.579  0.5967  0.2623 -0.1495
  684SOL    HW1 2051   1.481   2.105   0.633  0.1938  2.2450  2.3763
  684SOL    HW2 2052   1.330   2.117   0.546  1.4465  0.6226 -1.0332
  685SOL     OW 2053   2.252   2.072   1.981  0.3669 -0.1423  0.1265
  685SOL    HW1 2054   2.273   1.970   1.979  0.8266 -0.4406 -0.7503
  685SOL    HW2 2055   2.287   2.116   2.069 -1.0163  1.5251  0.7383
  686SOL     OW 2056   1.561   1.880   2.940 -0.0398  0.0871  0.5834
  686SOL    HW1 2057   1.591   1.829   3.026 -1.4524  2.3105  0.4480
  686SOL    HW2 2058   1.485   1.837   2.887  0.0282 -0.8384  0.7949
  687SOL     OW 2059   1.378   2.415   1.961 -0.4085 -0.3982 -0.1856
  687SOL    HW1 2060   1.409   2.316   1.954  0.4941 -3.4585 -0.6335
  687SOL    HW2 2061   1.332   2.431   2.053  0.6170 -1.7975  0.1817
  688SOL     OW 2062   2.067   1.483   1.714  0.2994 -0.0484  0.0190
  688SOL    HW1 2063   2.156   1.539   1.706  1.8311  0.0279  0.9025
  688SOL    HW2 2064   2.019   1.458   1.625  1.2147 -0.3563  0.0431
  689SOL     OW 2065   2.367   1.125   2.785  0.3532 -0.0108 -0.2302
  689SOL    HW1 2066   2.276   1.070   2.770  0.3750  0.8612 -0.4441
  689SOL    HW2 2067   2.423   1.094   2.868 -2.2771  1.1110 -0.2225
  690SOL     OW 2068   2.209   2.742   0.055 -0.1374  0.0975  1.1284
  690SOL    HW1 2069   2.145   2.758  -0.024  1.3468 -0.4745  1.3114
  690SOL    HW2 2070   2.167   2.722   0.144  0.0118 -1.3531 -5.6488
  691SOL     OW 2071   2.567   0.394   2.121 -0.1638  0.2577  0.5394
  691SOL    HW1 2072   2.628   0.309   2.131  1.5648  1.8544  1.2472
  691SOL    HW2 2073   2.607   0.460   2.055 -1.2291 -0.9861  1.0668
  692SOL     OW 2074   2.667   1.196   0.755 -0.1567  0.5887  0.2104
  692SOL    HW1 2075   2.578   1.224   0.715 -0.7128  0.8585  1.7847
  692SOL    HW2 2076   2.714   1.270   0.810  1.3660  0.8883  1.4396
  693SOL     OW 2077   2.883   2.930   0.624 -0.3072 -0.3017 -0.7683
  693SOL    HW1 2078   2.878   3.010   0.692  2.8093  0.2830 -0.3962
  693SOL    HW2 2079   2.849   2.962   0.529 -0.8679  2.7390 -1.5439
  694SOL     OW 2080   2.372   2.221   0.131  0.3346 -0.4887  0.2479
  694SOL    HW1 2081   2.359   2.311   0.183  1.6240  3.1707  2.5185
  694SOL    HW2 2082   2.280   2.179   0.095 -0.0649  0.7651 -2.2552
  695SOL     OW 2083   0.501   3.000   1.477 -0.2751 -0.4638  0.0454
  695SOL    HW1 2084   0.448   2.952   1.405  1.3108 -0.3676  1.1790
  695SOL    HW2 2085   0.445   3.021   1.558 -1.3577  0.5584 -3.1642
  696SOL     OW 2086   2.750   1.975   0.771  0.0987 -0.0658 -0.2564
  696SOL    HW1 2087   2.819   1.905   0.802  1.5884 -1.7798 -0.5924
  696SOL    HW2 2088   2.754   1.982   0.666  2.1856  1.8271 -1.9388
  697SOL     OW 2089   1.672   1.856   1.806  0.1455  0.1881  0.0274
  697SOL    HW1 2090   1.764   1.822   1.768 -2.4109  0.5923 -0.5246
  697SOL    HW2 2091   1.676   1.958   1.833  1.3754  0.2274 -0.3780
  698SOL     OW 2092   2.911   0.424   2.672  0.2303  0.1520 -0.3109
  698SOL    HW1 2093   2.935   0.392   2.576  3.3314  1.5687 -2.1901
  698SOL    HW2 2094   2.957   0.367   2.748  1.1292  0.3345  0.8359
  699SOL     OW 2095   1.620   0.083   2.920 -0.8472 -0.4164  0.2574
  699SOL    HW1 2096   1.567   0.006   2.875 -2.0005  0.7161 -2.3505
  699SOL    HW2 2097   1.666   0.142   2.848 -1.8880  0.4781  0.4984
  700SOL     OW 2098   1.001   2.245   1.340 -0.6478 -0.4655  0.3068
  700SOL    HW1 2099   1.083   2.188   1.315  3.6104 -0.0824 -1.2012
  700SOL    HW2 2100   0.904   2.202   1.327 -2.3294  2.4785  2.0937
  701SOL     OW 2101   1.910   2.875   0.031  0.0326 -0.6158  0.4834
  701SOL    HW1 2102   1.916   2.836   0.124  1.8535  4.0820 -0.7171
  701SOL    HW2 2103   1.943   2.974   0.027  0.4852 -0.7461  4.0871
  702SOL     OW 2104   2.098   1.352   1.960 -0.3034 -0.3660  0.4485
  702SOL    HW1 2105   2.188   1.302   1.954  0.1518 -2.0724  0.8615
  702SOL    HW2 2106   2.071   1.398   1.873  1.4469  0.2370 -0.5417
  703SOL     OW 2107   1.959   0.887   1.471 -0.5052 -0.3601  0.5598
  703SOL    HW1 2108   1.933   0.788   1.496 -1.1302 -0.7062  0.0142
  703SOL    HW2 2109   2.018   0.932   1.543 -0.9234 -0.7045  2.5601
  704SOL     OW 2110   0.327   2.070   1.740 -0.0295 -0.1508 -0.1622
  704SOL    HW1 2111   0.374   2.013   1.811 -1.0361  2.1227 -1.1342
  704SOL    HW2 2112   0.391   2.134   1.686  1.1316 -1.8831 -3.7676
  705SOL     OW 2113   2.462   1.419   0.898 -0.5665  0.4752  0.2793
  705SOL    HW1 2114   2.436   1.369   0.812 -0.7519  1.0867 -0.3893
  705SOL    HW2 2115   2.564   1.420   0.916 -2.0408 -2.7924  1.1737
  706SOL     OW 2116   0.596   1.714   1.804  1.0621 -0.3060  0.5370
  706SOL    HW1 2117   0.628   1.691   1.708  1.3029 -2.9284 -0.1995
  706SOL    HW2 2118   0.668   1.700   1.871 -2.9165 -0.1178 -1.5010
  707SOL     OW 2119   2.342   1.215   1.968  0.0308  0.1032  0.4624
  707SOL    HW1 2120   2.436   1.175   1.984  1.0258  0.0468  1.3707
  707SOL    HW2 2121   2.271   1.139   1.971  0.7937  0.0288  3.6031
  708SOL     OW 2122   3.011   0.513   3.059 -0.4393 -0.2850  0.6633
  708SOL    HW1 2123   3.095   0.565   3.037  2.9025 -1.1091  0.9693
  708SOL    HW2 2124   2.983   0.451   2.986 -2.4099  1.3448  0.6078
  709SOL     OW 2125   1.866   1.896   0.384  0.3580  0.0606 -0.1993
  709SOL    HW1 2126   1.844   1.996   0.409 -1.7975  1.5242 -0.6943
  709SOL    HW2 2127   1.870   1.881   0.278 -2.0773 -1.5401  0.3805
  710SOL     OW 2128   1.757   1.557   2.458 -0.1916  0.5292 -0.2525
  710SOL    HW1 2129   1.827   1.499   2.404  1.8654  0.9942 -2.9904
  710SOL    HW2 2130   1.757   1.533   2.560 -1.2553  1.9041 -1.5242
  711SOL     OW 2131   2.700   2.863   0.965 -0.3057 -0.0338 -0.3495
  711SOL    HW1 2132   2.650   2.947   0.942 -0.8191  0.0456  0.3615
  711SOL    HW2 2133   2.795   2.891   0.992  0.6477  1.2354 -0.8854
  712SOL     OW 2134   1.381   2.113   1.954  0.1209  0.2353  0.1344
  712SOL    HW1 2135   1.472   2.066   1.926  0.7882 -2.3443  2.2792
  712SOL    HW2 2136   1.299   2.083   1.895 -1.2525 -1.6831 -3.6277
  713SOL     OW 2137   2.789   1.420   2.515  0.3283 -0.1553 -0.3608
  713SOL    HW1 2138   2.794   1.316   2.500 -0.2982 -0.0492  1.5711
  713SOL    HW2 2139   2.713   1.449   2.583 -0.2372 -2.4446  2.1891
  714SOL     OW 2140   2.675   0.466   2.358  0.4255  0.5211  0.2605
  714SOL    HW1 2141   2.599   0.472   2.431  0.3189 -2.3152 -2.4356
  714SOL    HW2 2142   2.633   0.451   2.261 -3.2001  1.3753 -0.6324
  715SOL     OW 2143   1.588   2.161   1.147 -0.5209  0.0052 -0.0384
  715SOL    HW1 2144   1.492   2.164   1.105  1.2660  0.0174  1.8146
  715SOL    HW2 2145   1.590   2.165   1.251 -2.0700  1.4614  0.2102
  716SOL     OW 2146   1.263   0.112   1.533  0.6509  0.2457 -0.3547
  716SOL    HW1 2147   1.159   0.124   1.524 -2.7961 -1.4059  1.6166
  716SOL    HW2 2148   1.326   0.187   1.497  0.6831  2.7320 -2.8195
  717SOL     OW 2149   1.164   0.572   1.633  0.1534  0.0184  0.1964
  717SOL    HW1 2150   1.259   0.594   1.666  1.2987  1.0069 -2.9793
  717SOL    HW2 2151   1.166   0.552   1.529  0.2776  0.2319  2.2960
  718SOL     OW 2152   0.653   0.895   0.955  0.3415 -0.9191 -0.0047
  718SOL    HW1 2153   0.631   0.893   0.852 -1.3752  2.2285 -0.2855
  718SOL    HW2 2154   0.625   0.984   0.998 -0.2617  0.9864  1.1017
  719SOL     OW 2155   0.707   1.717   2.266 -0.8110  0.0104 -0.5633
  719SOL    HW1 2156   0.788   1.739   2.330  1.0119  2.3486  1.5750
  719SOL    HW2 2157   0.660   1.628   2.283  1.0764  2.3085  2.0828
  720SOL     OW 2158   2.172   1.153   0.268  1.1741 -0.2397 -0.2214
  720SOL    HW1 2159   2.251   1.098   0.228 -0.4486  1.3203 -1.0248
  720SOL    HW2 2160   2.159   1.146   0.369  1.8296 -0.2296 -0.0599
  721SOL     OW 2161   2.256   2.982   2.145 -0.2137  1.0723 -0.2632
  721SOL    HW1 2162   2.268   3.008   2.049 -0.0497  1.2429 -0.9296
  721SOL    HW2 2163   2.167   3.002   2.189  1.6615  0.6874 -0.5744
  722SOL     OW 2164   2.358   1.696   0.536  0.1596 -0.1962  0.4459
  722SOL    HW1 2165   2.435   1.693   0.460  0.0600 -1.9032 -2.1447
  722SOL    HW2 2166   2.262   1.722   0.499 -0.4402 -0.0961  0.3258
  723SOL     OW 2167   2.650   2.770   1.944 -0.0331  0.1923  0.1148
  723SOL    HW1 2168   2.668   2.868   1.980  1.1487  0.8534 -0.1592
  723SOL    HW2 2169   2.558   2.733   1.983  0.5206  0.9261  1.3229
  724SOL     OW 2170   0.375   2.508   2.419  0.3960 -0.0558 -0.0167
  724SOL    HW1 2171   0.275   2.520   2.453 -0.6196  0.1018 -2.6756
  724SOL    HW2 2172   0.436   2.475   2.495  0.6182 -0.3464  1.5232
  725SOL     OW 2173   2.470   2.830   1.436  0.4518  0.5531 -0.1233
  725SOL    HW1 2174   2.515   2.830   1.345 -2.6854  1.9494 -2.2341
  725SOL    HW2 2175   2.477   2.744   1.494  2.3970  2.4231 -2.8412
  726SOL     OW 2176   2.517   2.335   0.699  0.5479  0.1512 -0.4046
  726SOL    HW1 2177   2.481   2.429   0.682  0.6280 -0.3737  0.3497
  726SOL    HW2 2178   2.501   2.266   0.618 -2.0033 -3.2229 -1.6641
  727SOL     OW 2179   0.114   3.089   0.115 -0.0850  0.7024 -0.6695
  727SOL    HW1 2180   0.201   3.134   0.074  0.5037 -1.2786  2.7554
  727SOL    HW2 2181   0.086   3.003   0.058 -1.6119 -2.1837 -0.3240
  728SOL     OW 2182   2.896   0.738   0.961 -0.2385 -0.2732 -0.3811
  728SOL    HW1 2183   2.855   0.705   0.873  0.1820  0.3016  0.3842
  728SOL    HW2 2184   2.870   0.673   1.038  0.3854 -0.9033 -0.2036
  729SOL     OW 2185   0.022   2.572   0.776  0.1895 -0.1172 -0.0852
  729SOL    HW1 2186   0.054   2.503   0.849  0.0352  1.3888  1.4144
  729SOL    HW2 2187   0.077   2.554   0.684  3.0866  0.2187  0.1291
  730SOL     OW 2188   2.570   0.709   0.881 -0.0106 -0.5064  0.0147
  730SOL    HW1 2189   2.551   0.813   0.881  4.0870  1.4569  1.6834
  730SOL    HW2 2190   2.637   0.684   0.804 -0.7645  0.0542 -2.0270
  731SOL     OW 2191   3.085   2.216   2.328  0.3231 -0.3369 -0.2904
  731SOL    HW1 2192   3.058   2.224   2.426 -0.8984 -1.5294 -0.6468
  731SOL    HW2 2193   3.039   2.283   2.263  0.8198 -2.0015  0.3563
  732SOL     OW 2194   1.288   2.753   1.975 -0.6590 -0.0644 -0.0385
  732SOL    HW1 2195   1.307   2.680   2.046 -1.7203 -0.5331  1.8547
  732SOL    HW2 2196   1.272   2.707   1.882 -1.0544  0.0258  0.4650
  733SOL     OW 2197   0.026   0.609   2.252  0.0433  0.1072  0.1385
  733SOL    HW1 2198   0.101   0.653   2.195 -1.6640 -0.2156 -0.6611
  733SOL    HW2 2199  -0.020   0.530   2.202 -0.7907  1.4493 -0.8579
  734SOL     OW 2200   1.477   0.402   2.714 -0.5350  0.2889  0.2360
  734SOL    HW1 2201   1.453   0.494   2.757  3.7895 -0.5504  2.2625
  734SOL    HW2 2202   1.395   0.337   2.724 -1.7939  3.0179 -1.6070
  735SOL     OW 2203   2.955   2.631   2.300  0.4250 -0.1654  0.2387
  735SOL    HW1 2204   2.922   2.608   2.201  2.5206 -0.5405 -0.0624
  735SOL    HW2 2205   3.011   2.718   2.304 -1.1945  3.0004 -2.8280
  736SOL     OW 2206   0.905   0.400   2.552  0.4767  0.1523  0.1740
  736SOL    HW1 2207   0.810   0.444   2.566 -1.5144 -0.2720  2.1896
  736SOL    HW2 2208   0.924   0.358   2.458  2.4964  1.9220 -0.6178
  737SOL     OW 2209   2.662   0.462   2.779 -0.2946 -0.5231 -0.2680
  737SOL    HW1 2210   2.656   0.406   2.866 -1.5421  0.4390  2.7476
  737SOL    HW2 2211   2.755   0.450   2.733 -2.3690  2.4782  0.0950
  738SOL     OW 2212   1.750   1.220   2.930 -0.1470  0.1032  0.3026
  738SOL    HW1 2213   1.850   1.222   2.902 -0.6773  0.2286  1.6488
  738SOL    HW2 2214   1.708   1.126   2.918 -2.8988  0.3412  3.2920
  739SOL     OW 2215   1.837   0.719   0.601  0.1591 -0.1155 -0.0284
  739SOL    HW1 2216   1.854   0.704   0.705 -2.8301  0.4272 -1.4277
  739SOL    HW2 2217   1.824   0.633   0.549 -0.7276 -2.1986 -1.3291
  740SOL     OW 2218   1.966   1.939   2.346  0.4637 -0.1699  0.1416
  740SOL    HW1 2219   2.033   1.866   2.371 -0.8573  2.7691 -1.9022
  740SOL    HW2 2220   1.903   1.913   2.272 -0.3538 -1.9869 -1.0813
  741SOL     OW 2221   2.546   0.082   2.464 -0.0193 -1.1885  0.1749
  741SOL    HW1 2222   2.646   0.074   2.433  0.0992  2.6615 -1.3023
  741SOL    HW2 2223   2.480   0.075   2.384  1.7800  0.6932 -0.4287
  742SOL     OW 2224   2.203   1.435   0.187 -0.4521 -0.5733  0.1799
  742SOL    HW1 2225   2.118   1.483   0.147 -0.8553 -2.3496  0.5358
  742SOL    HW2 2226   2.176   1.339   0.221 -0.2144 -4.0039  0.7669
  743SOL     OW 2227   1.830   0.625   2.587  0.0189 -0.2172  0.9515
  743SOL    HW1 2228   1.823   0.552   2.515  2.0525 -0.6753  2.0167
  743SOL    HW2 2229   1.747   0.637   2.645  2.8299 -0.5949  1.7287
  744SOL     OW 2230   2.641   2.148   0.135 -0.6293  0.5311 -0.5959
  744SOL    HW1 2231   2.546   2.196   0.139 -0.5668  1.0372  3.9751
  744SOL    HW2 2232   2.641   2.056   0.092  0.8783  2.3288  1.0675
  745SOL     OW 2233   2.175   2.515   2.220  0.1877  0.5123  0.1609
  745SOL    HW1 2234   2.114   2.538   2.142  0.5787  1.5032  1.1054
  745SOL    HW2 2235   2.115   2.502   2.305  1.4309  0.1448 -0.1672
  746SOL     OW 2236  -0.003   2.570   1.766  0.5051  0.2511 -0.3320
  746SOL    HW1 2237   0.084   2.522   1.745  1.4366  0.3199 -0.8807
  746SOL    HW2 2238   0.010   2.663   1.813 -1.1856 -0.6439  3.0627
  747SOL     OW 2239   0.005   1.787   1.660  0.4017  0.3839 -0.0816
  747SOL    HW1 2240  -0.058   1.714   1.620  0.4997  0.8248 -2.1014
  747SOL    HW2 2241   0.052   1.845   1.583 -0.6007 -2.7866 -4.2196
  748SOL     OW 2242   1.826   2.701   2.933  0.5987  0.1808 -0.8305
  748SOL    HW1 2243   1.841   2.779   3.002  1.4221 -2.0155 -3.4097
  748SOL    HW2 2244   1.740   2.714   2.878  1.0317  0.6863  5.4949
  749SOL     OW 2245   1.292   2.925   0.825  0.6778 -0.0757  0.2868
  749SOL    HW1 2246   1.245   3.015   0.805 -1.8864  3.8673  0.2197
  749SOL    HW2 2247   1.392   2.933   0.800 -2.8094  2.6310  0.2956
  750SOL     OW 2248   2.254   0.194   1.863 -0.6995 -0.6887 -0.4091
  750SOL    HW1 2249   2.286   0.241   1.773  2.4887  2.3106 -1.4252
  750SOL    HW2 2250   2.255   0.257   1.943  1.2689 -0.0005  1.3966
  751SOL     OW 2251   0.792   2.154   2.904 -0.3496 -0.3964 -0.2367
  751SOL    HW1 2252   0.871   2.176   2.968 -0.8505 -0.7718 -1.3658
  751SOL    HW2 2253   0.714   2.099   2.951 -2.2251 -0.2417  0.5527
  752SOL     OW 2254   1.349   0.799   1.156 -0.2251  0.2401  0.5352
  752SOL    HW1 2255   1.393   0.892   1.171 -0.2965 -1.5594  0.8346
  752SOL    HW2 2256   1.402   0.728   1.212  0.6638 -0.9093  1.1882
  753SOL     OW 2257   0.987   2.574   1.785 -0.5842 -0.7758 -0.3836
  753SOL    HW1 2258   1.088   2.585   1.783  1.6760 -0.5587  0.6472
  753SOL    HW2 2259   0.934   2.658   1.802 -0.9096  0.7805 -0.5220
  754SOL     OW 2260   1.164   1.162   2.996  0.6199 -0.4615 -0.1707
  754SOL    HW1 2261   1.216   1.086   2.949 -0.6594  0.1014  0.4051
  754SOL    HW2 2262   1.222   1.246   3.014 -0.4256 -0.9745 -2.1459
  755SOL     OW 2263   1.970   0.474   2.210  0.1748 -0.2725  0.2962
  755SOL    HW1 2264   2.051   0.414   2.245 -1.4452  1.6183 -3.1954
  755SOL    HW2 2265   1.880   0.461   2.260 -1.7629 -0.7450  0.0838
  756SOL     OW 2266   2.504   0.977   2.995 -0.2391 -0.1834  0.1680
  756SOL    HW1 2267   2.608   0.959   2.989 -2.5937 -3.0253  2.4598
  756SOL    HW2 2268   2.448   0.898   3.029 -0.3564 -0.7183 -0.7963
  757SOL     OW 2269   0.104   0.428   1.968 -0.7515  0.1600 -0.0328
  757SOL    HW1 2270   0.158   0.349   2.007  5.3119 -0.3439  1.4779
  757SOL    HW2 2271   0.004   0.426   1.993  1.5636 -1.4325 -0.4803
  758SOL     OW 2272   2.306   0.069   1.476 -0.7538  0.0866  0.6771
  758SOL    HW1 2273   2.285  -0.032   1.489 -0.4152 -2.7668 -0.9031
  758SOL    HW2 2274   2.270   0.101   1.386  0.7390  0.0893  0.8428
  759SOL     OW 2275   1.701   0.107   0.085 -0.0579 -0.5345 -0.3594
  759SOL    HW1 2276   1.667   0.096  -0.018 -0.5668  0.6597 -1.7890
  759SOL    HW2 2277   1.804   0.087   0.088 -0.0648 -0.3872 -3.4358
  760SOL     OW 2278   2.708   2.014   2.844 -0.3997  0.0071  0.4295
  760SOL    HW1 2279   2.633   2.059   2.900 -0.0247 -2.4732 -1.0891
  760SOL    HW2 2280   2.804   2.046   2.862  0.2186 -0.6087 -1.1754
  761SOL     OW 2281   1.923   1.776   1.709 -0.1933 -0.4727 -0.3542
  761SOL    HW1 2282   1.965   1.684   1.722 -2.3722 -0.8175  2.6186
  761SOL    HW2 2283   1.865   1.769   1.624 -0.6028  0.1229  1.5407
  762SOL     OW 2284   0.496   2.413   0.934 -0.2391  0.5483 -0.1882
  762SOL    HW1 2285   0.532   2.435   0.841  0.0085 -0.6501 -0.0067
  762SOL    HW2 2286   0.567   2.412   1.009 -0.6439  0.4654  1.7415
  763SOL     OW 2287   2.133   1.606   2.996  0.0325  0.1944 -0.3812
  763SOL    HW1 2288   2.222   1.542   2.995  1.5200  0.6955  0.0063
  763SOL    HW2 2289   2.051   1.553   3.032 -0.7365  0.3390  0.8400
  764SOL     OW 2290   0.671   0.597   0.665 -0.2752  0.1243  0.5716
  764SOL    HW1 2291   0.575   0.556   0.649 -0.0023  0.6372 -2.3731
  764SOL    HW2 2292   0.716   0.567   0.757 -1.6099  1.3270 -1.7342
  765SOL     OW 2293   0.815   0.308   0.723  0.2665  0.7828  0.5783
  765SOL    HW1 2294   0.825   0.348   0.629 -0.2290  2.6615 -3.0383
  765SOL    HW2 2295   0.790   0.379   0.796 -1.0092 -2.4116 -2.8004
  766SOL     OW 2296   2.913   2.171   3.050 -0.0087  0.0852  0.0453
  766SOL    HW1 2297   2.839   2.180   3.121 -0.8097 -1.4904 -3.3157
  766SOL    HW2 2298   2.991   2.242   3.062  1.7582  0.5555 -0.3015
  767SOL     OW 2299   2.833   1.606   0.563 -0.0170 -0.2930  0.2852
  767SOL    HW1 2300   2.756   1.623   0.632  0.3378 -0.2190  1.0919
  767SOL    HW2 2301   2.928   1.617   0.606  0.4139  1.2291 -0.9353
  768SOL     OW 2302   1.027   0.204   0.178  0.5240 -0.5223 -0.1367
  768SOL    HW1 2303   1.021   0.254   0.270  0.5466  1.0510 -0.7572
  768SOL    HW2 2304   1.113   0.150   0.166  0.0499  0.6400  2.8540
  769SOL     OW 2305   1.126   1.811   2.287  0.2521  0.0128  0.0203
  769SOL    HW1 2306   1.051   1.836   2.346  1.3762  2.9555 -2.1417
  769SOL    HW2 2307   1.213   1.797   2.342 -1.4228 -0.4882 -1.3046
  770SOL     OW 2308   0.176   1.156   2.323  0.2003  0.0778  0.5189
  770SOL    HW1 2309   0.133   1.209   2.404  1.6861  0.0570 -0.3012
  770SOL    HW2 2310   0.109   1.094   2.275 -0.3101  0.6914 -0.2701
  771SOL     OW 2311   3.061   2.802   1.907  0.1135  0.2199  0.2594
  771SOL    HW1 2312   3.029   2.858   1.822 -2.9451  0.9281  0.0067
  771SOL    HW2 2313   3.013   2.840   1.994 -1.8595  0.9313 -1.0455
  772SOL     OW 2314   2.357   0.218   2.851 -0.2883  0.2046  0.4455
  772SOL    HW1 2315   2.432   0.170   2.794 -2.4831  2.4969 -2.0493
  772SOL    HW2 2316   2.389   0.249   2.948  1.3316  2.7565  2.2562
  773SOL     OW 2317   0.573   2.077   2.414  0.3345 -0.5174  0.4164
  773SOL    HW1 2318   0.567   2.150   2.342  0.4017 -1.5069 -0.8596
  773SOL    HW2 2319   0.491   2.013   2.413 -1.9265 -2.9598 -0.4173
  774SOL     OW 2320   2.116   0.013   2.592  0.5516  0.1386 -0.2025
  774SOL    HW1 2321   2.123   0.103   2.645  0.8801 -0.0128 -2.0784
  774SOL    HW2 2322   2.184  -0.052   2.638 -0.2999 -0.7058  1.4830
  775SOL     OW 2323   2.570   2.898   2.236  0.2620  0.4481 -0.5256
  775SOL    HW1 2324   2.477   2.939   2.266 -3.8199  2.3328  0.4501
  775SOL    HW2 2325   2.643   2.908   2.308 -2.0560  0.8149  0.2212
  776SOL     OW 2326   0.016   1.234   0.202  0.5196  0.3198 -0.1434
  776SOL    HW1 2327  -0.037   1.218   0.114 -1.2138 -0.4411  0.6237
  776SOL    HW2 2328  -0.055   1.254   0.280 -3.2924  1.0620  0.5650
  777SOL     OW 2329   0.393   2.985   0.498  0.4640 -0.2327 -0.0619
  777SOL    HW1 2330   0.304   2.961   0.441 -0.2327 -2.9067  0.0107
  777SOL    HW2 2331   0.413   2.907   0.566  1.1923 -0.0661 -0.8931
  778SOL     OW 2332   1.392   1.999   0.280  0.1065  0.3491 -0.7864
  778SOL    HW1 2333   1.299   2.035   0.318 -0.8105  1.6681  0.8403
  778SOL    HW2 2334   1.401   1.992   0.175  1.4578  3.1297 -1.2403
  779SOL     OW 2335   0.144   0.806   0.459  0.0726 -0.2317  0.2513
  779SOL    HW1 2336   0.078   0.732   0.431  0.0242  2.7136 -1.8182
  779SOL    HW2 2337   0.101   0.875   0.523 -2.8109  1.4026  1.2497
  780SOL     OW 2338   0.117   0.324   2.337  0.4564  0.0866 -0.3306
  780SOL    HW1 2339   0.095   0.393   2.413 -0.2674 -1.5609  1.3993
  780SOL    HW2 2340   0.215   0.339   2.299 -0.1116  0.8092  1.4302
  781SOL     OW 2341   0.674   1.650   1.538  0.3309  0.1864 -0.4485
  781SOL    HW1 2342   0.730   1.566   1.560  0.2965  0.4604  0.8856
  781SOL    HW2 2343   0.575   1.631   1.505 -0.8565  1.6014 -0.0154
  782SOL     OW 2344   2.583   0.033   0.914 -0.0478  0.5996  0.1940
  782SOL    HW1 2345   2.498   0.049   0.854 -2.7334 -2.2612  0.0647
  782SOL    HW2 2346   2.561   0.025   1.014  0.4091  1.6811  0.9327
  783SOL     OW 2347   2.749   0.740   2.441  0.5334  0.1545  0.4040
  783SOL    HW1 2348   2.730   0.748   2.542 -0.8994 -1.8787  1.0702
  783SOL    HW2 2349   2.735   0.641   2.412 -1.7765 -1.7060  1.5978
  784SOL     OW 2350   1.424   2.107   0.019  0.1262  0.1693  0.1481
  784SOL    HW1 2351   1.437   2.185   0.088 -2.8556  0.9132 -0.4668
  784SOL    HW2 2352   1.420   2.143  -0.074  1.1607  1.0958  0.2733
  785SOL     OW 2353   2.087   0.278   3.091  0.1154  0.3035 -0.1896
  785SOL    HW1 2354   2.016   0.322   3.151 -2.7490  1.8892 -0.3670
  785SOL    HW2 2355   2.124   0.350   3.023  0.4908 -0.1043 -1.0559
  786SOL     OW 2356   2.057   2.199   2.268  0.4307 -0.0050  0.0341
  786SOL    HW1 2357   2.022   2.110   2.309 -0.1818 -4.5435  0.6294
  786SOL    HW2 2358   2.161   2.208   2.257 -1.7983  0.0427  2.2827
  787SOL     OW 2359   1.388   0.538   0.874 -0.2685  0.1141 -0.2844
  787SOL    HW1 2360   1.316   0.616   0.882 -2.1057  2.6018 -0.3280
  787SOL    HW2 2361   1.438   0.542   0.778  1.3514  0.1435  0.1777
  788SOL     OW 2362   1.204   0.434   0.016  0.4728 -0.4143 -0.1849
  788SOL    HW1 2363   1.105   0.402  -0.002 -0.4576 -0.1617  0.6097
  788SOL    HW2 2364   1.209   0.508   0.090 -1.6343 -1.5724 -0.2634
  789SOL     OW 2365   2.560   0.116   1.968 -0.7574  0.3313 -0.0918
  789SOL    HW1 2366   2.501   0.080   1.888 -0.9162 -0.0336 -0.5621
  789SOL    HW2 2367   2.632   0.044   2.001  1.3565 -2.7724  2.0247
  790SOL     OW 2368   2.630   2.767   0.706 -0.0436 -0.2392  0.2118
  790SOL    HW1 2369   2.694   2.832   0.655  0.1656  2.0305 -1.7732
  790SOL    HW2 2370   2.632   2.786   0.808 -1.4360 -0.8069 -2.8673
  791SOL     OW 2371   1.921   1.191   0.156 -0.0031 -0.0623  0.7908
  791SOL    HW1 2372   1.849   1.154   0.224 -0.2524  2.8388 -2.1473
  791SOL    HW2 2373   2.016   1.168   0.187 -2.4012  2.3625 -1.8404
  792SOL     OW 2374   0.431   1.796   2.197 -0.0513 -0.7339 -0.4387
  792SOL    HW1 2375   0.519   1.826   2.248  0.7822  1.2814  0.1483
  792SOL    HW2 2376   0.419   1.695   2.221  1.1499  0.6410  2.0932
  793SOL     OW 2377   2.108   1.615   2.068  0.5382 -0.2674 -0.0087
  793SOL    HW1 2378   2.191   1.669   2.036  1.8381 -0.6640 -0.8568
  793SOL    HW2 2379   2.114   1.515   2.042  0.5039  2.3618 -1.5463
  794SOL     OW 2380   0.487   1.524   2.280  0.0578 -1.0735  0.1637
  794SOL    HW1 2381   0.483   1.439   2.222  2.0833 -1.8755 -0.6447
  794SOL    HW2 2382   0.427   1.512   2.364  0.7796 -0.2100  3.0223
  795SOL     OW 2383   2.486   2.236   1.805  0.3965 -0.1606  0.4185
  795SOL    HW1 2384   2.506   2.220   1.904 -2.2591  1.5481 -2.5911
  795SOL    HW2 2385   2.417   2.171   1.765 -0.2368  1.7657 -0.3249
  796SOL     OW 2386   3.075   1.107   2.693 -0.3453 -0.4114 -0.6582
  796SOL    HW1 2387   2.979   1.076   2.719  0.8586  4.0374  0.5047
  796SOL    HW2 2388   3.132   1.133   2.774  1.8046 -1.4941 -2.6508
  797SOL     OW 2389   0.807   0.642   1.439  0.1024 -0.0126 -0.3530
  797SOL    HW1 2390   0.870   0.688   1.508  2.6978  0.4277 -0.8971
  797SOL    HW2 2391   0.789   0.700   1.356 -1.0385 -1.0136 -2.6691
  798SOL     OW 2392   1.320   0.438   1.185 -0.1781 -0.1992 -0.0002
  798SOL    HW1 2393   1.363   0.399   1.273 -1.2787  1.2318 -0.8297
  798SOL    HW2 2394   1.389   0.438   1.106  0.2918 -1.5368 -0.4470
  799SOL     OW 2395   1.961   2.652   1.049 -0.0938 -0.2016  0.0044
  799SOL    HW1 2396   1.870   2.617   1.087 -0.1426 -0.1273 -1.2036
  799SOL    HW2 2397   1.960   2.703   0.961  1.4769 -0.1381 -0.7203
  800SOL     OW 2398   3.057   0.623   1.808 -0.5492 -0.3079  0.5385
  800SOL    HW1 2399   3.048   0.701   1.878  0.3811  2.7228  0.5659
  800SOL    HW2 2400   3.128   0.558   1.843 -0.6729  0.6020  1.3215
  801SOL     OW 2401   1.900   2.171   0.183  0.2071  0.6627 -0.1825
  801SOL    HW1 2402   1.833   2.124   0.120  1.4224 -0.9025 -0.9435
  801SOL    HW2 2403   1.999   2.154   0.145 -1.0055  1.1244 -1.7983
  802SOL     OW 2404   0.751   0.797   2.588 -0.1855 -0.3779  0.1902
  802SOL    HW1 2405   0.827   0.777   2.516 -0.5831 -1.1635  1.6939
  802SOL    HW2 2406   0.661   0.757   2.568  1.9773 -0.4890 -0.3381
  803SOL     OW 2407   0.888   0.170   0.941 -0.0969  0.2072 -0.5780
  803SOL    HW1 2408   0.978   0.212   0.967  0.6112  1.5877  0.0174
  803SOL    HW2 2409   0.859   0.191   0.842 -0.2774 -0.9116 -2.4168
  804SOL     OW 2410   0.421   3.004   2.095  0.0018  0.0953  0.5397
  804SOL    HW1 2411   0.364   3.082   2.061 -2.2992  0.6284  1.1615
  804SOL    HW2 2412   0.388   2.910   2.065  1.4173 -0.5976 -0.7898
  805SOL     OW 2413   2.439   0.292   0.289 -0.1061 -0.7794 -0.3472
  805SOL    HW1 2414   2.540   0.293   0.288 -3.7805  0.3514 -0.1685
  805SOL    HW2 2415   2.409   0.258   0.194  1.8169  0.5835  0.7067
  806SOL     OW 2416   0.683   2.394   1.674 -0.2964  0.4466  0.0293
  806SOL    HW1 2417   0.660   2.489   1.714  0.8776 -0.0711  2.0030
  806SOL    HW2 2418   0.775   2.389   1.622  0.1075  0.2923  0.3925
  807SOL     OW 2419   2.501   0.919   0.430 -0.9201  0.1377 -0.3979
  807SOL    HW1 2420   2.594   0.881   0.454 -1.4613  2.2285  1.0408
  807SOL    HW2 2421   2.474   0.927   0.333 -1.1365 -1.3410  2.5431
  808SOL     OW 2422   0.568   2.001   2.992  0.2970  0.3893 -0.2140
  808SOL    HW1 2423   0.543   2.002   3.092  2.6585 -0.4924 -0.0873
  808SOL    HW2 2424   0.542   1.911   2.942 -2.1311  1.4228  1.6657
  809SOL     OW 2425   2.678   1.984   1.923 -0.7972  0.1265  0.8229
  809SOL    HW1 2426   2.739   2.066   1.904  1.0795  0.1937  0.1567
  809SOL    HW2 2427   2.649   1.932   1.836  1.4538 -3.4613  0.9806
  810SOL     OW 2428   2.086   1.131   0.535 -0.4930  0.3427 -0.3747
  810SOL    HW1 2429   2.053   1.071   0.606 -0.5747 -0.9493  0.0349
  810SOL    HW2 2430   2.053   1.228   0.546 -0.6579 -1.4916 -0.1583
  811SOL     OW 2431   1.276   2.396   1.219 -0.4700  0.6522  0.1397
  811SOL    HW1 2432   1.256   2.293   1.228  0.9981 -1.1293  0.1979
  811SOL    HW2 2433   1.240   2.442   1.133 -0.3454  2.4984  0.1840
  812SOL     OW 2434   1.369   0.780   1.970  0.1259 -0.1696 -0.3945
  812SOL    HW1 2435   1.437   0.853   1.999  0.5109  0.9655  2.3797
  812SOL    HW2 2436   1.273   0.819   1.965  0.5830  1.6868 -0.3266
  813SOL     OW 2437   1.736   2.046   2.487  0.2851  0.6306 -0.0276
  813SOL    HW1 2438   1.828   2.022   2.471 -1.7955  0.0918 -1.1773
  813SOL    HW2 2439   1.682   2.050   2.397  0.8184  3.2120  0.0044
  814SOL     OW 2440   2.862   1.549   2.908 -0.3968 -0.6137 -0.0140
  814SOL    HW1 2441   2.960   1.551   2.942 -1.5931  0.2196 -0.5368
  814SOL    HW2 2442   2.846   1.638   2.854 -2.5844 -0.8782  1.2046
  815SOL     OW 2443   2.237   2.889   2.726  0.0613  0.5600  0.1324
  815SOL    HW1 2444   2.187   2.835   2.801 -1.3750 -3.5864 -1.4885
  815SOL    HW2 2445   2.338   2.875   2.722 -0.9943  0.7486 -0.7203
  816SOL     OW 2446   1.753   0.357   1.692 -0.3342  0.0962  0.1843
  816SOL    HW1 2447   1.649   0.346   1.701  1.2138  1.5007  0.8566
  816SOL    HW2 2448   1.805   0.345   1.781  2.3094  1.2509  0.7327
  817SOL     OW 2449   0.465   1.217   2.467 -0.2971 -0.1954 -0.0038
  817SOL    HW1 2450   0.416   1.311   2.464  1.0638 -0.8418 -1.6198
  817SOL    HW2 2451   0.493   1.172   2.379  2.2347 -1.4693  0.4201
  818SOL     OW 2452   2.019   0.864   0.419  0.0703  0.4241  0.1433
  818SOL    HW1 2453   2.020   0.958   0.458 -0.6516 -0.9777 -2.6876
  818SOL    HW2 2454   1.943   0.804   0.460  0.7313 -2.1266 -1.3792
  819SOL     OW 2455   2.762   2.940   3.038  0.5165  0.3783  0.1066
  819SOL    HW1 2456   2.825   2.864   3.023 -2.2581 -1.4666 -0.6416
  819SOL    HW2 2457   2.668   2.921   2.994  0.4157  0.5044  0.7820
  820SOL     OW 2458   1.198   1.124   0.532  0.1093  0.2218 -0.2406
  820SOL    HW1 2459   1.239   1.213   0.570 -1.0577 -1.2001  1.1731
  820SOL    HW2 2460   1.162   1.069   0.610  2.0314 -2.4249  1.4197
  821SOL     OW 2461   3.076   1.282   0.658 -0.4472  0.0567 -0.1079
  821SOL    HW1 2462   3.056   1.270   0.759 -0.5866  0.0469 -0.8428
  821SOL    HW2 2463   3.161   1.340   0.647  1.6031  2.6659 -0.5981
  822SOL     OW 2464   2.536   1.761   2.433 -0.2749  0.0524 -0.3608
  822SOL    HW1 2465   2.527   1.849   2.483 -0.7705  1.4802 -1.1725
  822SOL    HW2 2466   2.550   1.771   2.329 -1.4478  1.1024 -1.3726
  823SOL     OW 2467   2.041   0.896   1.195 -0.5796  0.1213  0.0414
  823SOL    HW1 2468   2.032   0.885   1.298  2.3453  2.4003 -0.9445
  823SOL    HW2 2469   1.958   0.938   1.151  0.2260  0.7598  0.4158
  824SOL     OW 2470   0.176   2.015   2.720 -0.2748 -0.1457  0.4979
  824SOL    HW1 2471   0.135   1.956   2.796 -0.1070 -2.8629 -0.8370
  824SOL    HW2 2472   0.227   1.965   2.643 -1.2626 -0.4424 -0.0158
  825SOL     OW 2473   1.240   1.052   0.263  0.1988 -0.1163 -0.5409
  825SOL    HW1 2474   1.232   1.071   0.363 -2.1476  2.1878 -0.2793
  825SOL    HW2 2475   1.238   1.137   0.203 -2.6592  1.2329  1.0063
  826SOL     OW 2476   1.928   0.629   1.541  0.0494 -0.6385 -0.4316
  826SOL    HW1 2477   1.984   0.563   1.600  1.0297  2.4418 -0.1990
  826SOL    HW2 2478   1.831   0.597   1.521  1.5608 -0.1873  1.2759
  827SOL     OW 2479   0.753   1.401   0.272 -0.1924  0.5649  0.8349
  827SOL    HW1 2480   0.769   1.333   0.197 -0.6786 -0.4482  1.0803
  827SOL    HW2 2481   0.714   1.360   0.361 -0.2420  1.0406  0.0434
  828SOL     OW 2482   2.546   0.092   1.580 -0.0536  0.0088 -0.0480
  828SOL    HW1 2483   2.453   0.107   1.530  2.6006 -0.4720 -0.7985
  828SOL    HW2 2484   2.530   0.022   1.657  1.0729  0.8551 -1.0281
  829SOL     OW 2485   2.813   2.493   3.023  0.2010 -0.2914  0.1596
  829SOL    HW1 2486   2.753   2.406   3.013  1.0989  0.5831 -2.3981
  829SOL    HW2 2487   2.777   2.547   3.102  0.9591 -2.8910 -1.5214
  830SOL     OW 2488   2.774   0.953   3.028  0.1627  0.7572  0.1154
  830SOL    HW1 2489   2.851   1.018   3.060  3.5005 -1.7546 -1.4448
  830SOL    HW2 2490   2.786   0.857   3.066 -1.0029  3.3461  1.7806
  831SOL     OW 2491   3.091   0.604   0.366  0.4198 -0.4645 -0.0515
  831SOL    HW1 2492   3.051   0.553   0.447 -1.4053 -2.0117  1.4578
  831SOL    HW2 2493   3.141   0.537   0.305 -0.7054 -0.6880  1.3408
  832SOL     OW 2494   1.799   0.749   3.098 -0.3960 -0.3419  0.0868
  832SOL    HW1 2495   1.717   0.808   3.083 -0.0192 -1.6150  2.1151
  832SOL    HW2 2496   1.784   0.654   3.062 -2.9058  0.0715  1.8788
  833SOL     OW 2497   2.463   2.144   0.504 -0.0128  0.3980 -0.3557
  833SOL    HW1 2498   2.358   2.144   0.505 -0.2848 -0.8591  0.6346
  833SOL    HW2 2499   2.508   2.047   0.501  0.8279  0.8046  1.7974
  834SOL     OW 2500   0.076   0.243   0.638 -0.2157  0.3297 -0.4844
  834SOL    HW1 2501   0.130   0.183   0.702  1.0176  1.0542  1.8037
  834SOL    HW2 2502   0.121   0.245   0.539  3.2021 -3.0762  1.3586
  835SOL     OW 2503   2.399   1.509   1.184 -0.8423 -0.2403 -0.5577
  835SOL    HW1 2504   2.492   1.556   1.190 -1.0222  0.9384 -1.6806
  835SOL    HW2 2505   2.388   1.480   1.083 -1.1637  0.3696  1.3005
  836SOL     OW 2506   1.517   0.831   2.567 -0.1631 -0.6238 -0.2911
  836SOL    HW1 2507   1.412   0.837   2.557 -0.4400  0.4601 -1.2554
  836SOL    HW2 2508   1.564   0.835   2.475  0.0258  0.3396  0.0037
  837SOL     OW 2509   1.548   0.032   0.510  0.5661  0.1773 -0.3300
  837SOL    HW1 2510   1.536   0.135   0.528  1.7366  2.0962  3.1670
  837SOL    HW2 2511   1.562   0.008   0.411  0.9757  0.2783 -0.6680
  838SOL     OW 2512   1.294   1.589   2.663  0.0935 -0.1026  0.1154
  838SOL    HW1 2513   1.354   1.549   2.733  0.3890  2.6829 -1.3413
  838SOL    HW2 2514   1.219   1.523   2.641 -1.0513  1.7530  1.0044
  839SOL     OW 2515   1.623   0.247   0.976  0.4250  0.4963  0.2268
  839SOL    HW1 2516   1.663   0.311   1.049  0.1067  3.5497  0.6818
  839SOL    HW2 2517   1.616   0.149   1.014  0.3282  0.8987  0.4990
  840SOL     OW 2518   2.543   2.960   1.726  0.0268  0.2827 -0.1952
  840SOL    HW1 2519   2.489   2.914   1.653 -1.3189 -1.8271  0.7072
  840SOL    HW2 2520   2.597   2.906   1.795 -0.4910  1.2141 -1.3198
  841SOL     OW 2521   1.572   0.918   3.056 -0.2098 -0.0917  0.3158
  841SOL    HW1 2522   1.484   0.911   3.107 -0.4336 -0.6008 -1.7244
  841SOL    HW2 2523   1.565   0.953   2.952 -0.9472 -2.2634 -2.8531
  842SOL     OW 2524   0.816   1.526   0.845  0.2202  0.2943 -0.2431
  842SOL    HW1 2525   0.776   1.588   0.913  0.3702 -0.2729 -0.3026
  842SOL    HW2 2526   0.766   1.436   0.847  2.2221 -0.1887 -1.1043
  843SOL     OW 2527   0.196   3.052   1.404  0.0933 -0.1487 -0.1010
  843SOL    HW1 2528   0.180   3.135   1.471  0.8490 -0.3179 -1.2253
  843SOL    HW2 2529   0.156   2.964   1.445 -0.2148  0.4546  0.2100
  844SOL     OW 2530   0.827   2.482   0.257  0.1915 -0.3954  0.2051
  844SOL    HW1 2531   0.787   2.434   0.340  0.0654 -0.5534  0.2552
  844SOL    HW2 2532   0.765   2.556   0.216  0.6437 -1.7341 -2.3020
  845SOL     OW 2533   1.648   2.826   1.243 -0.1684  0.0621  0.2209
  845SOL    HW1 2534   1.637   2.725   1.230  2.2638 -2.0450  0.1002
  845SOL    HW2 2535   1.657   2.863   1.337  0.0720  0.7782 -1.9388
  846SOL     OW 2536   1.561   2.992   0.761  0.5445 -0.3556  0.7106
  846SOL    HW1 2537   1.565   3.056   0.677  1.9999 -0.7124 -0.1679
  846SOL    HW2 2538   1.650   2.935   0.763 -1.2515 -1.6029  2.0339
  847SOL     OW 2539   2.087   1.735   0.464  0.2421 -0.0484 -0.2853
  847SOL    HW1 2540   2.024   1.656   0.486 -1.0428 -0.1413 -0.8453
  847SOL    HW2 2541   2.035   1.823   0.448  0.5475 -6.2060  0.0582
  848SOL     OW 2542   2.418   0.880   2.640 -0.4337  0.1469 -0.5991
  848SOL    HW1 2543   2.391   0.944   2.719 -0.6549 -0.0715 -0.7811
  848SOL    HW2 2544   2.338   0.817   2.616 -1.6179  1.1478 -0.9900
  849SOL     OW 2545   2.524   0.907   2.388 -0.3781 -0.0257 -0.1441
  849SOL    HW1 2546   2.616   0.859   2.398  2.8718 -2.1837 -0.5894
  849SOL    HW2 2547   2.469   0.907   2.479 -1.2204  0.7394 -0.8526
  850SOL     OW 2548   1.583   0.047   1.277 -0.3503 -0.4404  0.4128
  850SOL    HW1 2549   1.563   0.002   1.190  0.2861  1.9149  1.6060
  850SOL    HW2 2550   1.601  -0.028   1.346 -0.6199  1.6341  1.3254
  851SOL     OW 2551   0.542   1.736   0.667 -0.5301  0.1687 -0.7029
  851SOL    HW1 2552   0.608   1.786   0.725 -1.8532  0.9248  1.5917
  851SOL    HW2 2553   0.560   1.761   0.569  0.8731  4.4613 -2.3170
  852SOL     OW 2554   0.854   2.108   1.710 -0.2120 -0.0514  0.8745
  852SOL    HW1 2555   0.870   2.202   1.669 -1.7725 -0.7123  0.5559
  852SOL    HW2 2556   0.794   2.107   1.795  0.2922  1.4029 -1.7502
  853SOL     OW 2557   2.538   1.547   2.610  0.0949  0.3119 -0.2103
  853SOL    HW1 2558   2.468   1.473   2.591  2.3283 -0.4448  0.9021
  853SOL    HW2 2559   2.543   1.624   2.542 -1.9550  0.7284 -0.1722
  854SOL     OW 2560   2.468   1.412   1.770  0.4368 -0.5319 -0.2812
  854SOL    HW1 2561   2.508   1.351   1.698  0.8950  2.7902  1.0485
  854SOL    HW2 2562   2.399   1.364   1.830 -0.7700 -2.1761 -2.0800
  855SOL     OW 2563   2.084   2.396   1.088  0.1353  0.1363 -0.5586
  855SOL    HW1 2564   2.054   2.493   1.063 -0.0427  2.1394 -0.1684
  855SOL    HW2 2565   2.169   2.395   1.148  0.4671 -1.6237 -1.1347
  856SOL     OW 2566   1.343   1.440   0.909 -0.1184 -0.1371  0.2055
  856SOL    HW1 2567   1.406   1.497   0.968 -0.8693 -0.3074  1.0308
  856SOL    HW2 2568   1.243   1.448   0.941  1.4506  0.8120 -0.5470
  857SOL     OW 2569  -0.002   2.743   1.089  0.0235  0.2594 -0.1919
  857SOL    HW1 2570  -0.058   2.727   1.004 -1.2545 -1.4210 -1.0056
  857SOL    HW2 2571   0.093   2.700   1.087 -1.3661  2.7297 -1.7228
  858SOL     OW 2572   2.402   2.066   1.589  0.2556  0.2328  0.8907
  858SOL    HW1 2573   2.321   2.002   1.568 -2.3996  0.4256 -1.9590
  858SOL    HW2 2574   2.488   2.015   1.597  2.7850  1.2448  0.0338
  859SOL     OW 2575   2.434   0.537   1.084 -0.3382  0.0958 -0.1122
  859SOL    HW1 2576   2.490   0.591   1.008  0.1287  1.1657  0.2025
  859SOL    HW2 2577   2.473   0.440   1.105 -2.4430 -1.3876  0.3367
  860SOL     OW 2578   1.899   2.812   0.508 -0.0103 -0.5354  0.2575
  860SOL    HW1 2579   1.892   2.784   0.408 -2.2471 -0.2272 -0.9060
  860SOL    HW2 2580   1.901   2.917   0.527 -0.6220 -1.8403  0.5037
  861SOL     OW 2581   0.999   2.503   2.866 -0.3696  0.0502  0.2184
  861SOL    HW1 2582   1.063   2.576   2.832  1.2928 -0.9102 -0.5268
  861SOL    HW2 2583   0.973   2.523   2.964 -1.0901  1.3310  1.0564
  862SOL     OW 2584   2.840   2.534   1.697  0.6706 -0.1391 -0.1872
  862SOL    HW1 2585   2.938   2.540   1.737 -1.2693 -0.6157 -2.3757
  862SOL    HW2 2586   2.817   2.623   1.651 -3.9436 -0.6683  0.6044
  863SOL     OW 2587   1.823   2.713   0.270 -0.0721 -0.1069  0.3010
  863SOL    HW1 2588   1.866   2.618   0.267  1.1903 -1.0120  1.3468
  863SOL    HW2 2589   1.729   2.714   0.234  2.3847  0.9365 -1.5858
  864SOL     OW 2590   2.028   1.251   2.800  0.1357  0.0497  0.1108
  864SOL    HW1 2591   2.016   1.166   2.741 -2.4889  0.8146  0.2763
  864SOL    HW2 2592   2.075   1.334   2.761  1.2497  2.2147  1.7033
  865SOL     OW 2593   2.139   1.946   0.736  0.1625 -0.1933 -0.2069
  865SOL    HW1 2594   2.212   1.898   0.792 -1.3239  0.6111  1.5118
  865SOL    HW2 2595   2.062   1.973   0.804  1.6408  0.0728  1.7817
  866SOL     OW 2596   2.940   2.987   1.045  0.3500  0.2367 -0.1753
  866SOL    HW1 2597   2.967   3.056   0.970 -1.1455 -0.2470  1.5355
  866SOL    HW2 2598   3.012   2.915   1.055  3.2167  0.6284 -1.2699
  867SOL     OW 2599   0.318   1.398   0.884  0.1993  0.1523 -0.2539
  867SOL    HW1 2600   0.352   1.332   0.811 -0.1083 -0.0561  0.9596
  867SOL    HW2 2601   0.320   1.497   0.854 -1.5176 -3.0673 -1.9060
  868SOL     OW 2602   0.773   1.866   2.042 -0.3844 -0.3793  0.3791
  868SOL    HW1 2603   0.744   1.840   2.135 -1.6144 -2.5894 -3.0674
  868SOL    HW2 2604   0.731   1.952   1.999  2.7076  2.7297  0.6781
  869SOL     OW 2605   2.620   1.898   1.661  0.0540 -0.0478 -0.1098
  869SOL    HW1 2606   2.678   1.970   1.612 -3.8063 -1.2988  1.1596
  869SOL    HW2 2607   2.667   1.806   1.663  0.1551 -1.5734 -0.9595
  870SOL     OW 2608   2.386   2.688   1.159 -0.5520 -0.6998  0.4304
  870SOL    HW1 2609   2.371   2.609   1.225 -2.0846  0.3933  0.8835
  870SOL    HW2 2610   2.481   2.736   1.154  3.3448  2.8442 -0.3943
  871SOL     OW 2611   3.034   2.244   0.547  0.0531 -0.2696 -0.4222
  871SOL    HW1 2612   2.974   2.239   0.635  0.6273 -0.3216 -1.2422
  871SOL    HW2 2613   2.982   2.257   0.460  4.0382 -0.3029  0.1429
  872SOL     OW 2614   2.104   0.485   1.690  0.2374  0.0380 -0.1255
  872SOL    HW1 2615   2.065   0.485   1.787 -0.4190  2.2802 -1.7992
  872SOL    HW2 2616   2.196   0.442   1.694  0.6188  2.0462  0.8290
  873SOL     OW 2617   1.721   2.066   3.103 -0.1729 -0.1115 -0.0518
  873SOL    HW1 2618   1.622   2.041   3.099  0.3442 -0.4373 -0.4116
  873SOL    HW2 2619   1.744   2.125   3.021 -0.4840 -1.7310 -0.0383
  874SOL     OW 2620   0.672   2.472   0.721 -0.1219 -0.2272  0.2012
  874SOL    HW1 2621   0.670   2.572   0.754  1.5747 -2.0096 -1.5205
  874SOL    HW2 2622   0.769   2.438   0.723  1.2409 -2.6586  0.0600
  875SOL     OW 2623   2.276   1.551   1.440 -0.2431 -0.9197  0.1135
  875SOL    HW1 2624   2.339   1.592   1.512 -3.1259 -2.4470  0.4426
  875SOL    HW2 2625   2.326   1.528   1.353 -1.0539 -0.9827  0.3462
  876SOL     OW 2626   0.077   2.267   2.638 -0.1712  0.2354  0.1952
  876SOL    HW1 2627   0.115   2.174   2.664 -0.2216 -0.8250  0.1827
  876SOL    HW2 2628   0.136   2.345   2.668 -0.7663 -5.0595 -0.3979
  877SOL     OW 2629   2.884   2.624   0.658  0.1523 -0.0769 -0.1659
  877SOL    HW1 2630   2.880   2.730   0.670 -0.5496  3.1396 -2.7051
  877SOL    HW2 2631   2.970   2.579   0.700  0.9324 -1.5413 -1.5081
  878SOL     OW 2632   2.840   1.627   2.315  0.0209 -0.0851 -0.0558
  878SOL    HW1 2633   2.783   1.705   2.281  1.9602 -1.1522  0.5274
  878SOL    HW2 2634   2.810   1.578   2.402 -1.2902  0.4713 -1.4565
  879SOL     OW 2635   2.464   0.054   1.171 -0.8787 -0.3264 -0.1072
  879SOL    HW1 2636   2.513  -0.035   1.184  1.0205 -0.6115 -1.0217
  879SOL    HW2 2637   2.371   0.048   1.123 -1.6020  1.0958 -1.4850
  880SOL     OW 2638   0.664   0.548   2.270  0.6156  0.3330  0.4587
  880SOL    HW1 2639   0.645   0.510   2.366 -1.2691 -1.9880  0.4376
  880SOL    HW2 2640   0.717   0.483   2.210  4.4222  0.6922  0.7092
  881SOL     OW 2641   0.846   0.078   0.385 -0.6415 -0.3548 -0.4117
  881SOL    HW1 2642   0.904   0.003   0.419  0.6564  1.3077  0.5143
  881SOL    HW2 2643   0.747   0.061   0.368  0.9155 -1.2561  0.6259
  882SOL     OW 2644   2.696   1.599   1.719 -0.3992  0.4464 -0.2801
  882SOL    HW1 2645   2.780   1.565   1.675 -1.2891 -0.5263  0.3886
  882SOL    HW2 2646   2.678   1.556   1.815 -2.3600  1.0776 -1.1189
  883SOL     OW 2647   0.786   0.509   0.890  0.2864  0.3761  0.5956
  883SOL    HW1 2648   0.864   0.569   0.929  0.3271 -0.2877  2.5186
  883SOL    HW2 2649   0.712   0.501   0.964 -1.8458 -1.2789  1.5357
  884SOL     OW 2650   1.201   1.728   1.112 -0.0089  0.3187  0.4597
  884SOL    HW1 2651   1.147   1.653   1.059  0.2706  0.5776  0.4055
  884SOL    HW2 2652   1.175   1.824   1.075 -1.2683  4.8324 -1.8420
  885SOL     OW 2653   2.334   1.906   2.252  0.5805  0.0175 -0.8780
  885SOL    HW1 2654   2.277   1.841   2.309  1.1575 -0.2401 -0.9207
  885SOL    HW2 2655   2.314   2.002   2.279  1.1129 -1.1939 -2.4011
  886SOL     OW 2656   2.614   0.348   1.784  0.4098  0.3812 -0.1301
  886SOL    HW1 2657   2.597   0.291   1.869 -0.2350 -0.4295  2.0269
  886SOL    HW2 2658   2.706   0.398   1.779 -0.8423  0.2351 -2.1540
  887SOL     OW 2659   0.157   2.074   1.265  0.0211  0.1419 -0.4664
  887SOL    HW1 2660   0.077   2.006   1.263  0.9937 -0.3752  2.1825
  887SOL    HW2 2661   0.129   2.173   1.239  1.5692  1.0256 -3.6850
  888SOL     OW 2662   0.589   1.244   1.550  0.1179  0.3945 -0.6071
  888SOL    HW1 2663   0.593   1.300   1.458  0.7480 -1.4289  1.9936
  888SOL    HW2 2664   0.616   1.146   1.531 -2.6267 -1.0659  1.1748
  889SOL     OW 2665   0.841   2.438   2.244  0.2644 -0.1774 -0.0363
  889SOL    HW1 2666   0.738   2.426   2.258  1.0380 -2.4034  0.1725
  889SOL    HW2 2667   0.877   2.387   2.161  0.1081 -1.5902 -1.5127
  890SOL     OW 2668   2.372   2.511   0.250 -0.1318  0.0301 -0.8558
  890SOL    HW1 2669   2.401   2.603   0.220  1.4100 -0.0431 -2.7727
  890SOL    HW2 2670   2.319   2.517   0.339 -1.1908 -1.4825 -1.7397
  891SOL     OW 2671   2.600   1.682   0.704 -0.7428  0.3455  0.0925
  891SOL    HW1 2672   2.626   1.712   0.799 -0.6015 -1.3260  0.4411
  891SOL    HW2 2673   2.502   1.667   0.682 -0.7645 -3.8116 -0.8069
  892SOL     OW 2674   0.359   0.338   2.204 -0.3533  0.6225 -0.0569
  892SOL    HW1 2675   0.373   0.428   2.158  0.2179 -1.5903 -1.4921
  892SOL    HW2 2676   0.450   0.291   2.230 -1.0857  1.5005  1.4346
  893SOL     OW 2677   1.718   0.256   2.720 -0.1761 -0.0363  0.7753
  893SOL    HW1 2678   1.794   0.330   2.722  0.2442  2.2975 -1.9097
  893SOL    HW2 2679   1.616   0.289   2.718 -2.8739  1.9425 -0.2280
  894SOL     OW 2680   2.141   2.094   0.100  0.2868  0.1858  0.0170
  894SOL    HW1 2681   2.113   2.047   0.008  2.0138  0.7986 -0.5460
  894SOL    HW2 2682   2.163   2.023   0.175 -0.2039 -0.9084  0.4868
  895SOL     OW 2683   2.743   1.456   0.909 -0.1765 -0.0598  0.5551
  895SOL    HW1 2684   2.834   1.414   0.932  2.1751  0.8812 -2.5292
  895SOL    HW2 2685   2.739   1.558   0.940 -1.4770 -0.7519  0.3452
  896SOL     OW 2686   1.796   1.791   1.238 -0.4651  0.6508  0.2427
  896SOL    HW1 2687   1.871   1.737   1.281 -0.8004  3.3242  0.9718
  896SOL    HW2 2688   1.745   1.740   1.164 -1.5817  0.5579 -0.5000
  897SOL     OW 2689   0.245   0.559   3.017  0.2500  0.0631  0.1267
  897SOL    HW1 2690   0.182   0.588   2.934 -0.7605 -1.1187 -3.3646
  897SOL    HW2 2691   0.336   0.611   3.012  1.5697  1.9036 -4.4479
  898SOL     OW 2692   0.689   2.818   1.095  0.5128 -0.0853 -0.1123
  898SOL    HW1 2693   0.755   2.895   1.100 -0.2671 -0.7389 -4.4179
  898SOL    HW2 2694   0.725   2.731   1.142 -0.5102  0.9582  0.1699
  899SOL     OW 2695   2.866   0.947   1.342 -0.4912 -0.0020  0.3243
  899SOL    HW1 2696   2.841   0.980   1.246 -0.3102 -2.8884 -3.8250
  899SOL    HW2 2697   2.972   0.940   1.363  1.2509 -1.5676  3.2091
  900SOL     OW 2698   1.009   2.464   2.467  0.1560 -0.4298 -0.1201
  900SOL    HW1 2699   0.942   2.469   2.391  0.7027 -1.8459  1.2685
  900SOL    HW2 2700   0.963   2.422   2.550 -0.0169  0.9170 -1.2874
  901SOL     OW 2701   1.873   2.392   1.452 -0.2083  0.3676  0.3865
  901SOL    HW1 2702   1.893   2.343   1.361  1.0279  0.4595 -2.8191
  901SOL    HW2 2703   1.953   2.437   1.492  0.3678  0.3181 -0.2135
  902SOL     OW 2704   2.539   1.635   1.500 -0.0398  0.2835  0.2084
  902SOL    HW1 2705   2.590   1.613   1.585  1.3598 -0.9456  0.6535
  902SOL    HW2 2706   2.577   1.584   1.417 -0.8225  2.0529 -1.1056
  903SOL     OW 2707   0.328   2.398   1.985  0.2374  0.1795  0.4418
  903SOL    HW1 2708   0.266   2.312   1.986  0.6627  1.2196 -1.8753
  903SOL    HW2 2709   0.304   2.465   1.909 -1.8091  0.4823  1.3895
  904SOL     OW 2710   1.984   0.822   2.474  0.7694  0.5415  0.1214
  904SOL    HW1 2711   1.930   0.750   2.525 -1.4081  0.8051  1.4858
  904SOL    HW2 2712   1.997   0.808   2.373 -0.8830  0.5970 -0.5451
  905SOL     OW 2713   2.800   0.084   2.414 -0.2927  0.1230  0.1999
  905SOL    HW1 2714   2.847  -0.002   2.446  0.4384  1.6290 -2.8461
  905SOL    HW2 2715   2.865   0.161   2.435 -0.7303  0.7880 -2.3096
  906SOL     OW 2716   0.177   1.737   1.891  0.5773  0.0719  0.3345
  906SOL    HW1 2717   0.115   1.768   1.818  1.9290  0.3337 -0.6009
  906SOL    HW2 2718   0.269   1.779   1.884  0.3052 -0.7126 -0.3604
  907SOL     OW 2719   0.228   2.487   0.965  0.1940  0.1192  0.3147
  907SOL    HW1 2720   0.326   2.456   0.956  1.1151  1.7476  1.1822
  907SOL    HW2 2721   0.226   2.593   0.946  0.5197  1.3200  0.5334
  908SOL     OW 2722   2.830   3.016   0.362 -0.6584  0.0610 -0.4681
  908SOL    HW1 2723   2.738   3.035   0.316 -2.1408 -0.8281  1.7695
  908SOL    HW2 2724   2.884   2.938   0.323 -0.1109 -1.5112  0.4122
  909SOL     OW 2725   0.876   1.034   2.663 -0.1366  0.3475 -0.3836
  909SOL    HW1 2726   0.852   0.930   2.646  1.5864 -0.6925 -0.1753
  909SOL    HW2 2727   0.957   1.064   2.604  1.3150 -0.6297  1.0137
  910SOL     OW 2728   1.805   1.894   2.117 -0.4523  0.2283  0.0248
  910SOL    HW1 2729   1.880   1.916   2.048 -3.2646  2.1406  2.8675
  910SOL    HW2 2730   1.747   1.971   2.155  1.6660 -0.3572 -0.7119
  911SOL     OW 2731   1.768   2.915   1.505 -0.2876  0.2675 -0.6529
  911SOL    HW1 2732   1.869   2.895   1.481  1.4084 -2.3970 -2.1163
  911SOL    HW2 2733   1.729   2.862   1.586  0.8854 -1.0867  0.2554
  912SOL     OW 2734   2.875   1.002   0.734 -0.0343 -0.3003 -0.3081
  912SOL    HW1 2735   2.936   0.985   0.818  0.5927 -1.4964 -0.8848
  912SOL    HW2 2736   2.805   1.072   0.754  0.1495 -2.0622 -1.5315
  913SOL     OW 2737   2.601   1.271   1.571  0.5626  0.0714  0.3775
  913SOL    HW1 2738   2.632   1.170   1.567  1.0661 -0.1218  0.4113
  913SOL    HW2 2739   2.620   1.316   1.477  0.5172 -0.8472 -1.1607
  914SOL     OW 2740   2.846   0.607   1.196 -0.4153 -0.2905  0.0901
  914SOL    HW1 2741   2.825   0.512   1.242  2.2291 -0.5035 -0.7455
  914SOL    HW2 2742   2.796   0.688   1.238 -2.2196 -0.3146 -2.8250
  915SOL     OW 2743   1.216   0.738   0.902 -0.5483  0.3752 -0.4935
  915SOL    HW1 2744   1.267   0.789   0.980  3.5270 -0.2148 -0.3494
  915SOL    HW2 2745   1.113   0.736   0.907  1.1004  1.2484  0.2136
  916SOL     OW 2746   0.633   0.099   0.668 -0.2418 -0.0273 -0.4953
  916SOL    HW1 2747   0.684   0.185   0.682  0.9678  1.2670 -0.3658
  916SOL    HW2 2748   0.603   0.082   0.574  0.4141 -0.2598 -0.6063
  917SOL     OW 2749   2.881   2.607   2.032  0.4160 -0.2685 -0.4164
  917SOL    HW1 2750   2.789   2.644   1.988  1.9035  0.3281 -2.5056
  917SOL    HW2 2751   2.961   2.657   1.983  0.0225  2.2997  1.0211
  918SOL     OW 2752   1.038   2.093   3.030 -0.5136  0.2681 -0.1181
  918SOL    HW1 2753   1.047   2.177   3.093  1.4207  0.1004  0.7096
  918SOL    HW2 2754   1.090   2.103   2.940 -4.6459  0.8720 -0.9304
  919SOL     OW 2755   0.815   1.640   2.811  0.5413  0.2101 -0.1789
  919SOL    HW1 2756   0.857   1.736   2.806  1.9191 -2.6652  1.9894
  919SOL    HW2 2757   0.789   1.599   2.719  0.1452  1.9160  2.1134
  920SOL     OW 2758   1.350   1.816   2.466 -0.0575 -0.0369  0.5495
  920SOL    HW1 2759   1.439   1.784   2.421  1.3533 -1.4557 -0.3528
  920SOL    HW2 2760   1.319   1.743   2.533 -1.2192 -1.1666  0.5588
  921SOL     OW 2761   1.131   0.049   2.597  0.2742 -0.3176 -0.1010
  921SOL    HW1 2762   1.109   0.064   2.497  0.5397 -2.1304  1.5272
  921SOL    HW2 2763   1.050   0.063   2.661 -2.5405  0.2439  1.6501
  922SOL     OW 2764   2.203   2.443   2.794  0.2718 -0.1682 -0.3403
  922SOL    HW1 2765   2.220   2.345   2.801  0.9014 -0.1949  2.5089
  922SOL    HW2 2766   2.143   2.471   2.713 -0.2800 -2.1618  0.7916
  923SOL     OW 2767   1.201   2.738   0.281  0.8150 -0.0657 -0.0632
  923SOL    HW1 2768   1.263   2.808   0.327  1.7562 -2.9271  0.4570
  923SOL    HW2 2769   1.235   2.643   0.300 -2.0418  1.4384  0.9152
  924SOL     OW 2770   2.943   1.700   0.163 -0.1320  0.4268 -0.0620
  924SOL    HW1 2771   2.864   1.661   0.113  0.6777 -0.4917  0.9893
  924SOL    HW2 2772   3.031   1.645   0.154  1.5355 -0.8169 -0.4350
  925SOL     OW 2773   0.044   2.835   1.530  0.0748 -0.0871 -0.1604
  925SOL    HW1 2774  -0.016   2.917   1.536  1.1813 -1.1958 -0.0315
  925SOL    HW2 2775  -0.005   2.749   1.497 -0.5229 -3.2961 -2.1958
  926SOL     OW 2776   1.271   2.778   1.319  0.1058  0.2690 -0.6108
  926SOL    HW1 2777   1.311   2.757   1.224 -1.0076 -1.9776 -0.1356
  926SOL    HW2 2778   1.312   2.863   1.365 -0.5222  0.0407 -0.9031
  927SOL     OW 2779   0.370   2.620   1.801 -0.0453  0.4144 -0.2953
  927SOL    HW1 2780   0.355   2.556   1.720 -1.7835  1.4583 -1.0880
  927SOL    HW2 2781   0.302   2.697   1.792 -1.0220  0.2295  2.4775
  928SOL     OW 2782   1.617   2.096   2.236 -0.7976 -0.3125  0.0175
  928SOL    HW1 2783   1.640   2.168   2.164 -0.6459  0.8664  0.3557
  928SOL    HW2 2784   1.516   2.063   2.232 -1.1732  1.2587 -1.4662
  929SOL     OW 2785   2.471   2.488   2.891 -0.4144 -0.3209 -0.2014
  929SOL    HW1 2786   2.372   2.468   2.884 -0.3355 -2.8557 -2.6733
  929SOL    HW2 2787   2.528   2.495   2.799  0.9663  2.8347  0.7871
  930SOL     OW 2788   2.165   2.075   1.102  0.6183 -0.1080  0.4098
  930SOL    HW1 2789   2.152   2.074   1.206  0.4148 -0.1780 -0.5824
  930SOL    HW2 2790   2.176   2.165   1.061  0.4358 -0.3350  2.4882
  931SOL     OW 2791   0.466   1.639   2.600  0.0307  0.7171 -0.5912
  931SOL    HW1 2792   0.474   1.674   2.700  2.3042 -0.9167  0.2502
  931SOL    HW2 2793   0.558   1.600   2.569  1.3083  0.4640  1.8015
  932SOL     OW 2794   0.365   0.051   0.027  0.2976 -0.1210  0.5879
  932SOL    HW1 2795   0.442   0.107  -0.018 -1.1224 -3.4077 -0.5248
  932SOL    HW2 2796   0.399  -0.042   0.051 -0.3773 -0.7923 -0.6940
  933SOL     OW 2797   1.022   0.822   3.047 -0.0926 -0.0974  0.0432
  933SOL    HW1 2798   1.092   0.857   3.113  0.0949 -0.2053  0.9986
  933SOL    HW2 2799   0.938   0.881   3.051  2.3282  0.8121  1.8259
  934SOL     OW 2800   0.880   2.966   2.631 -0.6608 -0.1203  0.0800
  934SOL    HW1 2801   0.871   2.901   2.553 -1.5760 -2.5906 -0.8612
  934SOL    HW2 2802   0.908   2.914   2.720  0.5233 -2.3871  0.8509
  935SOL     OW 2803   0.041   0.557   0.796  0.0387 -0.2605  0.5778
  935SOL    HW1 2804   0.000   0.516   0.712 -0.1427  0.8572 -3.6379
  935SOL    HW2 2805  -0.026   0.607   0.854  0.5719 -1.4334 -1.2360
  936SOL     OW 2806   1.114   2.889   0.060  0.1305 -0.3183 -0.3819
  936SOL    HW1 2807   1.204   2.930   0.022  0.4632  1.5457  0.8540
  936SOL    HW2 2808   1.132   2.830   0.146  2.6355 -1.3926 -0.2305
  937SOL     OW 2809   1.944   2.608   2.078 -0.0371  0.1399 -0.5285
  937SOL    HW1 2810   1.920   2.645   2.172 -0.4498 -0.8290  1.1979
  937SOL    HW2 2811   1.931   2.675   2.000 -0.5321 -0.5822  1.1008
  938SOL     OW 2812   2.755   2.124   1.557  0.1555  0.1901  0.0804
  938SOL    HW1 2813   2.701   2.209   1.563  2.2219  0.4170 -0.4735
  938SOL    HW2 2814   2.847   2.130   1.602 -2.2269  0.9498 -1.0479
  939SOL     OW 2815   2.817   1.132   2.474 -0.1674 -0.1461 -0.5030
  939SOL    HW1 2816   2.906   1.105   2.427 -0.1848  0.7355 -0.9464
  939SOL    HW2 2817   2.817   1.085   2.568  0.4327 -1.4559 -1.7785
  940SOL     OW 2818   1.091   0.454   2.761  0.2351  0.0765  0.6209
  940SOL    HW1 2819   1.162   0.376   2.777 -0.5194  1.7156 -4.0440
  940SOL    HW2 2820   1.026   0.426   2.687 -0.7263 -1.0013  0.8541
  941SOL     OW 2821   0.088   2.817   2.275  0.1558 -0.1242 -0.2323
  941SOL    HW1 2822   0.136   2.749   2.212 -1.0658 -0.1586 -1.2223
  941SOL    HW2 2823   0.149   2.864   2.348 -1.5184 -0.2455 -0.5408
  942SOL     OW 2824   0.100   0.076   2.453 -0.1404  0.0851  0.7184
  942SOL    HW1 2825   0.154   0.084   2.539  0.3561  0.3717  1.9931
  942SOL    HW2 2826   0.095   0.168   2.405  2.0354 -0.8320 -1.6763
  943SOL     OW 2827   2.127   1.710   2.356 -0.4444  0.1715  0.3507
  943SOL    HW1 2828   2.114   1.700   2.249  0.3273  2.1211  1.5564
  943SOL    HW2 2829   2.136   1.615   2.397 -2.1195 -0.2820 -0.0065
  944SOL     OW 2830   2.171   2.353   1.568  0.0369 -0.1357 -0.4577
  944SOL    HW1 2831   2.261   2.357   1.614  0.6371  2.8078 -0.3618
  944SOL    HW2 2832   2.117   2.270   1.606 -1.6250 -0.9205  1.5813
  945SOL     OW 2833   0.722   1.632   0.130  0.9368 -0.3241 -0.6233
  945SOL    HW1 2834   0.645   1.609   0.060  0.5012 -0.8915 -2.3579
  945SOL    HW2 2835   0.739   1.554   0.197 -0.6082  0.9730  0.1653
  946SOL     OW 2836   0.329   1.021   2.607 -0.3698  0.4039 -0.0948
  946SOL    HW1 2837   0.308   0.975   2.518  0.4382  1.0435  0.3871
  946SOL    HW2 2838   0.372   1.112   2.583  1.0362 -0.7636 -1.2103
  947SOL     OW 2839   1.479   0.516   3.040  0.0341 -0.2539 -0.0030
  947SOL    HW1 2840   1.472   0.574   2.951  1.7387 -0.0610  0.0545
  947SOL    HW2 2841   1.388   0.474   3.072  0.4691  0.4107  1.1998
  948SOL     OW 2842   1.936   2.910   2.169 -0.2577 -0.1850  0.0507
  948SOL    HW1 2843   1.972   2.865   2.086  1.0429  2.0924  0.0772
  948SOL    HW2 2844   1.915   2.839   2.244 -0.6858  0.0784 -2.2415
  949SOL     OW 2845   0.582   2.468   0.444  0.1622 -0.5052  0.6601
  949SOL    HW1 2846   0.582   2.569   0.428  0.4906  2.0247  2.3115
  949SOL    HW2 2847   0.588   2.436   0.544  1.8140 -3.9127 -2.5982
  950SOL     OW 2848   0.169   2.228   2.931  0.2574 -0.5388  0.1218
  950SOL    HW1 2849   0.162   2.323   2.880 -3.5579  0.5266  1.2178
  950SOL    HW2 2850   0.193   2.156   2.863  1.0174 -2.0639  0.4277
  951SOL     OW 2851   1.222   2.676   2.787 -0.6262  0.4061 -0.3851
  951SOL    HW1 2852   1.288   2.603   2.822  0.8698 -0.3204  0.9995
  951SOL    HW2 2853   1.268   2.736   2.717 -1.3688 -1.2511  2.0324
  952SOL     OW 2854   0.046   1.618   0.425  0.4243 -0.4786 -0.2110
  952SOL    HW1 2855   0.099   1.705   0.409  2.8041 -0.8632 -2.2788
  952SOL    HW2 2856   0.082   1.552   0.498  2.5456  2.4304 -0.6528
  953SOL     OW 2857   2.527   1.735   0.291  0.7027  0.2106 -0.3192
  953SOL    HW1 2858   2.504   1.631   0.299 -0.0402 -1.6012  0.7238
  953SOL    HW2 2859   2.485   1.771   0.201 -1.0892 -0.3014  3.6597
  954SOL     OW 2860   2.217   0.539   0.928 -0.0290  0.3266 -0.2048
  954SOL    HW1 2861   2.237   0.539   0.824 -4.3095 -0.4660 -1.5893
  954SOL    HW2 2862   2.303   0.531   0.984  0.9335 -0.2579  1.6159
  955SOL     OW 2863   0.182   2.600   1.396  0.1903 -0.6527  0.3278
  955SOL    HW1 2864   0.080   2.627   1.388 -2.4210 -1.5912 -0.4195
  955SOL    HW2 2865   0.254   2.674   1.374 -2.0101  1.6197  0.7836
  956SOL     OW 2866   2.809   2.500   2.499  0.6816  0.5411  0.0028
  956SOL    HW1 2867   2.822   2.398   2.507  0.8832 -0.3283 -2.6020
  956SOL    HW2 2868   2.874   2.544   2.431 -1.5077 -1.4632 -1.5094
  957SOL     OW 2869   1.633   2.083   2.745  0.4781  0.2093 -0.0538
  957SOL    HW1 2870   1.653   2.003   2.805 -0.4366  1.6549 -0.5818
  957SOL    HW2 2871   1.664   2.058   2.646 -0.6579 -0.2435 -1.1730
  958SOL     OW 2872   2.635   2.299   2.974  0.5179  0.1602 -1.0801
  958SOL    HW1 2873   2.567   2.364   2.932  3.2098 -0.9421  0.9045
  958SOL    HW2 2874   2.595   2.263   3.064 -0.9439 -0.7024  0.1421
  959SOL     OW 2875   0.389   2.794   0.154 -0.6567 -0.2752  0.2982
  959SOL    HW1 2876   0.312   2.863   0.161  0.2352 -2.6014  0.3444
  959SOL    HW2 2877   0.359   2.699   0.165 -0.8303 -0.6757 -1.5925
  960SOL     OW 2878   1.928   0.486   1.921  0.6627 -0.0290 -0.0643
  960SOL    HW1 2879   1.869   0.564   1.884 -1.1617 -1.9297 -0.2546
  960SOL    HW2 2880   1.934   0.488   2.026  1.5370 -1.4186  2.6081
  961SOL     OW 2881   2.528   1.876   1.053  0.0021 -0.1460  0.0819
  961SOL    HW1 2882   2.520   1.966   0.998 -0.0600  0.3236 -0.5351
  961SOL    HW2 2883   2.488   1.879   1.149 -0.7486 -2.5400 -1.3360
  962SOL     OW 2884   1.295   0.861   0.041 -0.4482 -0.4508  0.2566
  962SOL    HW1 2885   1.281   0.902  -0.059 -1.5059  0.0180 -0.7052
  962SOL    HW2 2886   1.277   0.932   0.116 -0.0808 -0.9727 -1.4314
  963SOL     OW 2887   2.309   2.578   1.799 -0.4498  0.3393 -0.4320
  963SOL    HW1 2888   2.262   2.488   1.834 -1.4405 -2.3620 -0.2524
  963SOL    HW2 2889   2.333   2.641   1.878  1.0712 -2.0494 -0.6597
  964SOL     OW 2890   2.359   0.375   1.677 -0.9442 -1.0423  0.3964
  964SOL    HW1 2891   2.460   0.363   1.707  0.6267  0.6611  0.8559
  964SOL    HW2 2892   2.350   0.389   1.572 -1.0982 -0.8256 -3.7640
  965SOL     OW 2893   2.592   3.003   0.201 -0.1077 -0.5824  0.2405
  965SOL    HW1 2894   2.654   2.952   0.136  0.2951 -1.7827  0.6621
  965SOL    HW2 2895   2.511   3.040   0.150 -0.2048  0.7916  0.3876
  966SOL     OW 2896   2.485   2.483   2.258  0.6362 -0.3442  0.0731
  966SOL    HW1 2897   2.518   2.568   2.212  0.1492  0.6427 -1.5125
  966SOL    HW2 2898   2.383   2.472   2.243  1.1157 -2.2810 -2.1656
  967SOL     OW 2899   2.752   2.877   2.458  0.4783  0.0720 -0.0999
  967SOL    HW1 2900   2.770   2.785   2.421  0.5542  0.6418  2.0925
  967SOL    HW2 2901   2.840   2.924   2.486 -0.2905  1.0296  2.4364
  968SOL     OW 2902   1.959   1.058   2.607 -0.0060 -0.6212  0.1648
  968SOL    HW1 2903   1.873   1.121   2.596 -1.4642 -2.3896 -0.7942
  968SOL    HW2 2904   1.969   0.990   2.529 -3.7826  1.2461  1.1801
  969SOL     OW 2905   2.808   2.567   1.100  0.3861  0.0720  0.4315
  969SOL    HW1 2906   2.788   2.655   1.049  1.3279  0.2100 -1.4982
  969SOL    HW2 2907   2.816   2.487   1.037  2.8672  2.0265  1.3278
  970SOL     OW 2908   1.131   2.091   1.844  0.9474 -0.1874  0.4724
  970SOL    HW1 2909   1.100   2.043   1.932  0.5585  1.3614 -1.5319
  970SOL    HW2 2910   1.059   2.082   1.769  0.7980 -1.5976 -0.1577
  971SOL     OW 2911   2.880   2.162   1.930 -0.5278 -0.3574 -0.5017
  971SOL    HW1 2912   2.918   2.215   2.011 -1.0894 -0.6320  1.1207
  971SOL    HW2 2913   2.936   2.168   1.841  1.7159  0.1480 -0.0540
  972SOL     OW 2914   1.934   2.451   0.234  0.1603  0.4953 -0.3352
  972SOL    HW1 2915   1.971   2.368   0.190 -0.5306 -2.6980  1.7785
  972SOL    HW2 2916   1.924   2.427   0.338  3.7858  0.5971 -0.5351
  973SOL     OW 2917   1.126   0.894   1.882 -0.2181 -0.2611 -0.0196
  973SOL    HW1 2918   1.068   0.809   1.897  1.1679  0.6233 -1.2144
  973SOL    HW2 2919   1.061   0.965   1.842  0.5356  1.4252 -0.4987
  974SOL     OW 2920   1.596   0.565   1.988  0.0104  0.1153 -0.2181
  974SOL    HW1 2921   1.669   0.610   1.930 -0.8872  1.6420  1.7420
  974SOL    HW2 2922   1.503   0.613   1.979  1.4218  0.1886 -0.3682
  975SOL     OW 2923   2.395   3.031   0.010  0.2624 -0.0245 -0.4939
  975SOL    HW1 2924   2.305   2.994   0.040 -0.2453  0.3820 -0.0179
  975SOL    HW2 2925   2.411   3.004  -0.091  0.1152  0.4067 -1.8023
  976SOL     OW 2926   1.946   2.696   2.331  0.2279 -0.0295 -0.3314
  976SOL    HW1 2927   1.852   2.699   2.377  0.3306 -1.3569 -0.6213
  976SOL    HW2 2928   2.020   2.720   2.397 -0.3397 -0.7968 -1.8352
  977SOL     OW 2929   0.444   0.688   1.011 -0.3063  0.4886 -0.1490
  977SOL    HW1 2930   0.371   0.689   0.938  2.4888  2.0171  2.2954
  977SOL    HW2 2931   0.515   0.761   0.993 -0.0533 -0.3111  0.1133
   3.10000   3.10000   3.10000
