1000 SPC/Fw water molecules t=   0.03000 step= 30
 2931
    1SOL     OW    1   2.517   0.407   2.576 -0.0524 -0.0028 -0.1098
    1SOL    HW1    2   2.531   0.308   2.583  0.4719  1.9743  1.7748
    1SOL    HW2    3   2.581   0.465   2.632 -0.5419  1.0697 -0.0134
    2SOL     OW    4   2.743   3.003   1.419 -0.7991 -0.5037  0.5301
    2SOL    HW1    5   2.836   3.050   1.390 -0.0477  1.4824  0.7203
    2SOL    HW2    6   2.702   3.043   1.502  0.5680 -2.9550  0.4406
    3SOL     OW    7   2.728   2.633   0.445 -0.2662 -0.0620 -0.0295
    3SOL    HW1    8   2.695   2.536   0.453  0.4019  0.8860 -0.9728
    3SOL    HW2    9   2.788   2.658   0.524 -1.4687  1.3442 -3.5267
    4SOL     OW   10   1.313   1.442   2.328  0.0657  0.0391  0.1769
    4SOL    HW1   11   1.212   1.473   2.346 -2.1909  0.2078 -1.1206
    4SOL    HW2   12   1.330   1.344   2.364  0.5863 -0.5545  1.3084
    5SOL     OW   13   1.175   1.496   3.028  0.4063 -0.6629  0.4265
    5SOL    HW1   14   1.233   1.580   3.057 -0.9742 -0.7532 -0.4349
    5SOL    HW2   15   1.080   1.497   3.073  0.4077 -1.8603 -0.5592
    6SOL     OW   16   0.161   1.914   2.944 -0.0374 -0.1637 -0.2781
    6SOL    HW1   17   0.195   1.913   3.043 -1.2781 -0.0206 -0.1976
    6SOL    HW2   18   0.083   1.843   2.927 -0.7768 -4.5262  2.0691
    7SOL     OW   19   2.598   0.842   1.206 -0.3425  0.2465 -0.3559
    7SOL    HW1   20   2.629   0.759   1.261  2.4341 -2.4865 -4.0235
    7SOL    HW2   21   2.606   0.826   1.103  0.9345 -0.4553  1.6118
    8SOL     OW   22   0.446   0.684   1.592  0.0025  0.1985 -0.2638
    8SOL    HW1   23   0.527   0.619   1.589 -1.6598 -1.2762 -2.5047
    8SOL    HW2   24   0.366   0.642   1.535  1.1887  0.8539 -2.8084
    9SOL     OW   25   1.150   0.900   2.265  0.1459  0.0341 -0.1480
    9SOL    HW1   26   1.207   0.970   2.204  0.9097  1.0804 -0.8512
    9SOL    HW2   27   1.059   0.876   2.223 -3.2679  1.8608 -0.2827
   10SOL     OW   28   0.618   1.367   1.332  0.5795  0.2519 -0.0835
   10SOL    HW1   29   0.534   1.369   1.269 -3.7655 -0.7441  0.7000
   10SOL    HW2   30   0.693   1.434   1.307 -0.7149 -1.9897 -1.1068
   11SOL     OW   31   2.335   2.547   0.904 -0.7675  0.1144 -0.0145
   11SOL    HW1   32   2.332   2.570   1.007  0.4317  1.0744 -1.3411
   11SOL    HW2   33   2.411   2.487   0.876  0.2707 -1.0327  0.6059
   12SOL     OW   34   1.436   0.914   0.472 -0.3077  0.3468  0.5571
   12SOL    HW1   35   1.427   0.957   0.380  1.0175 -3.7589  0.7164
   12SOL    HW2   36   1.404   0.817   0.478 -0.4341  1.3577  0.9136
   13SOL     OW   37   2.433   0.685   1.799  0.2994 -0.2268 -0.7418
   13SOL    HW1   38   2.357   0.687   1.868  1.6339  0.3028  0.0802
   13SOL    HW2   39   2.423   0.606   1.733 -1.3839  2.6211 -0.3215
   14SOL     OW   40   1.790   0.030   0.538 -0.0048 -0.2703 -0.2062
   14SOL    HW1   41   1.690   0.043   0.505 -1.3309  2.8565  1.5401
   14SOL    HW2   42   1.798   0.029   0.642  2.7286  0.9852  0.4904
   15SOL     OW   43   1.980   2.051   2.799 -0.4677 -0.0459  0.2166
   15SOL    HW1   44   1.922   2.139   2.812 -1.7623  1.6807 -3.1888
   15SOL    HW2   45   1.934   1.981   2.741  1.6203  0.9099  0.5505
   16SOL     OW   46   1.560   1.648   3.097  0.3128  0.0843  0.2332
   16SOL    HW1   47   1.583   1.552   3.055  1.8146  0.4819  1.1521
   16SOL    HW2   48   1.588   1.651   3.198 -2.8025 -0.7451 -0.0290
   17SOL     OW   49   0.058   0.491   0.133  0.6389 -0.7102  0.7252
   17SOL    HW1   50   0.148   0.511   0.095 -0.7337 -1.7554 -1.2651
   17SOL    HW2   51  -0.002   0.461   0.061  2.4112 -2.2904  1.9357
   18SOL     OW   52   1.082   2.877   2.139 -0.2086  0.3372  0.3987
   18SOL    HW1   53   0.997   2.874   2.085  1.9497 -1.8675 -1.0131
   18SOL    HW2   54   1.166   2.866   2.079  2.9003  1.3893  0.7733
   19SOL     OW   55   0.597   1.038   1.942 -0.1505 -0.9408  0.6740
   19SOL    HW1   56   0.518   1.067   2.001  0.5997 -0.8782  0.0640
   19SOL    HW2   57   0.665   0.974   1.984  0.0055  0.5099 -1.0633
   20SOL     OW   58   0.246   2.726   0.851  0.6769 -0.1061  0.1306
   20SOL    HW1   59   0.162   2.781   0.823  0.4241 -2.8138  1.8925
   20SOL    HW2   60   0.319   2.726   0.780 -0.4931 -0.2113  1.9700
   21SOL     OW   61   2.822   0.236   2.120  0.2654 -0.4560  0.6657
   21SOL    HW1   62   2.911   0.187   2.094 -0.5441 -0.6931 -0.4377
   21SOL    HW2   63   2.784   0.217   2.218 -3.0950 -0.5572 -0.9110
   22SOL     OW   64   2.354   0.171   0.082  0.0014  0.2930 -0.0029
   22SOL    HW1   65   2.356   0.072   0.065 -0.6009 -0.4691  0.4818
   22SOL    HW2   66   2.273   0.222   0.044 -0.1464  0.1179  1.2362
   23SOL     OW   67   2.744   0.647   0.719  0.1701  0.1906 -0.7985
   23SOL    HW1   68   2.749   0.564   0.663  2.5476  0.5677 -0.5641
   23SOL    HW2   69   2.729   0.730   0.657  2.9638  3.2624 -0.2044
   24SOL     OW   70   0.144   1.872   0.415 -0.0953 -0.5375  0.9620
   24SOL    HW1   71   0.052   1.921   0.397 -2.2113 -0.1424  0.4305
   24SOL    HW2   72   0.222   1.913   0.355 -1.3902 -0.6859 -0.4741
   25SOL     OW   73   2.273   0.526   0.198 -0.3643 -0.5167 -0.0404
   25SOL    HW1   74   2.347   0.452   0.235  2.6503 -0.6977 -0.3335
   25SOL    HW2   75   2.259   0.524   0.090  0.1474  1.4577 -0.3533
   26SOL     OW   76   2.520   2.156   2.074  0.4906 -0.0026 -0.4272
   26SOL    HW1   77   2.582   2.218   2.128 -0.9917  0.2472 -0.6877
   26SOL    HW2   78   2.570   2.088   2.015  0.7312  1.2984 -2.7784
   27SOL     OW   79   0.662   3.002   0.140  0.2803 -0.5829  0.0496
   27SOL    HW1   80   0.755   3.042   0.130 -1.1682  2.2582  0.5519
   27SOL    HW2   81   0.615   3.004   0.047 -1.8832 -1.9605  2.4006
   28SOL     OW   82   1.462   0.227   0.184 -0.0243 -0.0183  0.3001
   28SOL    HW1   83   1.556   0.203   0.159  0.7084 -2.9778  0.8658
   28SOL    HW2   84   1.440   0.332   0.189 -2.2632  0.4940  3.2327
   29SOL     OW   85   2.019   0.576   0.316 -0.1217 -0.0446 -0.1866
   29SOL    HW1   86   2.004   0.645   0.388  0.9128 -1.7435  0.5510
   29SOL    HW2   87   2.120   0.556   0.300 -2.6512  1.8892 -1.4804
   30SOL     OW   88   0.201   2.042   0.904 -0.7489  0.6947 -0.4103
   30SOL    HW1   89   0.179   2.033   0.804  2.2579  0.7633  0.9043
   30SOL    HW2   90   0.115   2.062   0.966  0.4136 -2.1843  2.0032
   31SOL     OW   91   2.112   0.011   2.338 -0.6595  0.4884 -0.1788
   31SOL    HW1   92   2.133  -0.004   2.439  1.2182  0.8138 -2.0199
   31SOL    HW2   93   2.032  -0.046   2.303  0.7374  0.9118 -1.7525
   32SOL     OW   94   3.007   0.103   0.258  0.0656  0.5918 -0.4447
   32SOL    HW1   95   2.928   0.039   0.278  0.4032 -0.6295 -3.1351
   32SOL    HW2   96   3.089   0.051   0.229 -2.1323 -0.4140 -2.6401
   33SOL     OW   97   0.964   0.321   0.454  0.2348  0.1110 -0.4066
   33SOL    HW1   98   0.909   0.229   0.470  1.1440 -1.7280  0.4376
   33SOL    HW2   99   1.021   0.342   0.534 -3.3772 -3.3228 -0.6900
   34SOL     OW  100   0.374   2.900   1.038 -0.1750 -0.2245 -0.2112
   34SOL    HW1  101   0.324   2.819   0.994  0.0872 -2.4595  1.4399
   34SOL    HW2  102   0.478   2.893   1.027 -1.0695 -1.3299 -0.9168
   35SOL     OW  103   0.052   3.092   1.783 -0.3937 -0.3786  0.6339
   35SOL    HW1  104   0.064   3.008   1.728  3.4626  1.6254  1.7250
   35SOL    HW2  105   0.012   3.166   1.728 -1.1988 -0.0836 -0.3611
   36SOL     OW  106   1.901   1.153   1.774 -0.4014 -0.0551  0.3366
   36SOL    HW1  107   1.999   1.143   1.745  0.1737  1.3342 -0.3019
   36SOL    HW2  108   1.863   1.243   1.765  1.1001  1.1196  1.2504
   37SOL     OW  109   1.128   0.331   1.009  0.0300 -0.2107 -0.0640
   37SOL    HW1  110   1.120   0.433   1.030 -2.1009 -2.5029  1.3422
   37SOL    HW2  111   1.207   0.294   1.064  0.1643  1.8432  1.2777
   38SOL     OW  112   1.164   2.687   2.337  0.0770  0.6852  0.3127
   38SOL    HW1  113   1.094   2.620   2.393 -1.3984 -0.8458 -0.6036
   38SOL    HW2  114   1.118   2.752   2.271 -0.7633  1.3770  0.1860
   39SOL     OW  115   2.427   1.505   0.023  0.0106  0.0774 -1.1315
   39SOL    HW1  116   2.443   1.410  -0.002 -1.2540  3.1631  0.6737
   39SOL    HW2  117   2.347   1.513   0.085  1.5340  0.2996 -1.5202
   40SOL     OW  118   2.021   2.505   2.617  1.0246 -0.3711 -0.5605
   40SOL    HW1  119   1.971   2.585   2.648  1.5071 -3.0064  0.4850
   40SOL    HW2  120   1.964   2.453   2.558  1.1900 -0.5236  2.3712
   41SOL     OW  121   2.965   0.719   2.714 -0.3268  0.0608  0.7287
   41SOL    HW1  122   2.873   0.764   2.689  2.5369  1.8787  1.2031
   41SOL    HW2  123   2.944   0.624   2.756 -1.8454  0.4616  0.6599
   42SOL     OW  124   1.696   1.731   0.593  0.1346  0.6877 -0.2992
   42SOL    HW1  125   1.681   1.636   0.563 -0.2755  0.9000  0.0940
   42SOL    HW2  126   1.750   1.786   0.520  1.4837 -1.2735  0.3662
   43SOL     OW  127   0.452   1.746   1.210  0.1148  0.1467 -0.3457
   43SOL    HW1  128   0.411   1.692   1.289  2.7660 -1.8068  0.7099
   43SOL    HW2  129   0.380   1.766   1.136  1.2216 -0.8696 -0.9169
   44SOL     OW  130   1.749   2.473   0.014  0.4789 -0.8250  0.1763
   44SOL    HW1  131   1.754   2.537  -0.070  0.3360  1.1147  0.6382
   44SOL    HW2  132   1.821   2.483   0.094 -1.0711  0.3516  1.1312
   45SOL     OW  133   0.347   1.895   2.560  1.2022 -0.1151 -0.4421
   45SOL    HW1  134   0.322   1.919   2.466 -0.1220 -1.0417  2.4342
   45SOL    HW2  135   0.370   1.797   2.568 -1.2569 -1.8262  0.4796
   46SOL     OW  136   1.201   0.691   0.149 -0.4559 -0.4356  0.7868
   46SOL    HW1  137   1.247   0.752   0.077 -3.0732  2.3254 -0.4093
   46SOL    HW2  138   1.116   0.728   0.193 -0.1376  1.5295  3.2243
   47SOL     OW  139   0.231   2.418   1.574  0.1151 -0.1520  0.0259
   47SOL    HW1  140   0.307   2.359   1.558 -1.8007  0.5084  0.6186
   47SOL    HW2  141   0.218   2.494   1.500 -1.0012 -0.1471  1.2783
   48SOL     OW  142   2.659   0.550   0.110 -0.2417  0.4988 -0.3302
   48SOL    HW1  143   2.597   0.597   0.185 -5.0046 -0.2774  2.1630
   48SOL    HW2  144   2.736   0.608   0.069  0.4996 -0.5289  0.9697
   49SOL     OW  145   0.369   0.872   1.762 -0.2939 -0.8076 -0.1963
   49SOL    HW1  146   0.433   0.904   1.830 -2.5147 -1.2259 -0.2380
   49SOL    HW2  147   0.400   0.784   1.718  1.4905  1.1471  0.5061
   50SOL     OW  148   1.692   1.063   0.272  0.5329  0.2770  0.5418
   50SOL    HW1  149   1.691   0.959   0.266  2.9788  0.0258  0.8794
   50SOL    HW2  150   1.677   1.102   0.363 -0.1020  1.2497 -4.4260
   51SOL     OW  151   2.994   1.904   0.327 -0.1384 -0.5345  0.0475
   51SOL    HW1  152   2.987   1.924   0.228 -0.4422 -1.7121  1.8332
   51SOL    HW2  153   2.990   1.803   0.349  0.9653  0.2789 -0.4195
   52SOL     OW  154   0.804   1.887   0.496  0.2121  0.0444 -0.9563
   52SOL    HW1  155   0.786   1.980   0.541 -0.9454 -1.1420  0.2798
   52SOL    HW2  156   0.864   1.830   0.551 -2.8406  2.3622 -1.8579
   53SOL     OW  157   3.097   0.404   1.527  0.1209 -0.8041  0.2535
   53SOL    HW1  158   3.021   0.365   1.583  2.9644  1.3072 -0.0107
   53SOL    HW2  159   3.079   0.505   1.497  1.1040 -0.0637 -0.4946
   54SOL     OW  160   1.767   0.467   3.009 -0.1412  0.5236 -0.2608
   54SOL    HW1  161   1.813   0.442   3.096 -0.4936 -0.6265  0.7843
   54SOL    HW2  162   1.667   0.448   3.002  1.2779 -2.9140 -0.1853
   55SOL     OW  163   0.685   2.903   0.644  0.5043  0.0903  0.1040
   55SOL    HW1  164   0.656   3.003   0.658 -2.9637  1.4214 -2.1241
   55SOL    HW2  165   0.788   2.893   0.640 -3.2780 -0.4735  1.8314
   56SOL     OW  166   0.467   1.542   3.097  0.3245  0.0528 -0.1517
   56SOL    HW1  167   0.372   1.586   3.105  0.0026 -0.1428 -0.9628
   56SOL    HW2  168   0.468   1.443   3.102  0.9230  0.5992  0.1930
   57SOL     OW  169   1.735   2.382   2.670  0.5792  0.0363  0.2492
   57SOL    HW1  170   1.777   2.363   2.580  2.4411 -2.7317  1.1037
   57SOL    HW2  171   1.642   2.427   2.670  1.3216 -1.2227  0.1890
   58SOL     OW  172   0.656   0.477   1.101 -0.6909 -0.0697  0.0469
   58SOL    HW1  173   0.610   0.556   1.048  1.3823  2.6023  1.7654
   58SOL    HW2  174   0.607   0.389   1.105  3.6057  1.2798  0.7177
   59SOL     OW  175   0.480   2.394   2.708 -0.0505 -0.3214 -0.4571
   59SOL    HW1  176   0.461   2.296   2.715  1.3404  0.9378  2.2302
   59SOL    HW2  177   0.555   2.421   2.767 -3.5796  2.5897 -1.2967
   60SOL     OW  178   2.323   2.159   2.263 -0.2465  0.1620 -0.3585
   60SOL    HW1  179   2.398   2.157   2.194 -0.8538  2.6751  0.8293
   60SOL    HW2  180   2.350   2.186   2.358 -0.7318  0.6297 -2.5620
   61SOL     OW  181   1.338   0.651   0.442  0.0997  0.2181 -0.3099
   61SOL    HW1  182   1.242   0.661   0.483  1.1591 -2.1174  2.5135
   61SOL    HW2  183   1.342   0.634   0.342 -3.0394  0.5274 -0.2795
   62SOL     OW  184   2.730   1.879   3.062 -0.0632 -0.1820  0.4086
   62SOL    HW1  185   2.700   1.783   3.084  2.0379 -0.5650 -0.3305
   62SOL    HW2  186   2.666   1.932   3.000  0.5340  1.6194  1.6417
   63SOL     OW  187   0.579   0.820   0.129 -0.3449 -0.2053  0.0947
   63SOL    HW1  188   0.529   0.910   0.109  0.2353 -1.0118  1.3700
   63SOL    HW2  189   0.612   0.807   0.224 -2.1869 -1.1849 -0.1037
   64SOL     OW  190   0.070   0.561   2.482 -0.2894 -0.1587  0.3425
   64SOL    HW1  191   0.120   0.630   2.541  0.7021 -0.8040 -0.3038
   64SOL    HW2  192   0.032   0.608   2.403  2.9947  1.9134  1.3358
   65SOL     OW  193   0.178   1.490   0.614 -0.2065 -0.2276  0.0278
   65SOL    HW1  194   0.209   1.555   0.692 -0.6605  2.4824 -0.7643
   65SOL    HW2  195   0.258   1.473   0.553 -1.2279  3.5484 -0.4620
   66SOL     OW  196   2.456   0.327   0.626  0.5275  0.4640  0.0362
   66SOL    HW1  197   2.370   0.382   0.610  0.8838  0.2586 -1.1441
   66SOL    HW2  198   2.438   0.231   0.670 -0.2703  0.3169  1.0420
   67SOL     OW  199   0.473   2.553   1.303 -0.3969  0.6801 -0.2756
   67SOL    HW1  200   0.575   2.591   1.317  2.3252  1.5592  1.7294
   67SOL    HW2  201   0.467   2.449   1.308 -1.9860  0.4943 -1.3256
   68SOL     OW  202   0.989   1.103   2.393 -0.2839 -0.2223  0.4205
   68SOL    HW1  203   1.045   1.035   2.334  2.7781 -0.2248  1.9319
   68SOL    HW2  204   0.924   1.157   2.330 -2.0411  1.2585  2.0201
   69SOL     OW  205   0.773   2.718   2.175  0.2541  0.3801  0.3910
   69SOL    HW1  206   0.786   2.615   2.199  0.7235 -1.1465  2.4892
   69SOL    HW2  207   0.676   2.739   2.190  1.1954  0.6332  1.0676
   70SOL     OW  208   0.542   0.228   2.697  0.6224 -0.0891  0.1628
   70SOL    HW1  209   0.518   0.251   2.793  0.2842  1.6952 -1.2680
   70SOL    HW2  210   0.554   0.125   2.683  2.1857 -0.6444  0.0397
   71SOL     OW  211   1.101   1.773   0.352  0.4765 -0.0753  0.3897
   71SOL    HW1  212   1.073   1.670   0.374  1.3233 -0.0120  0.5099
   71SOL    HW2  213   1.079   1.795   0.253  0.9598 -1.5085  0.1962
   72SOL     OW  214   1.787   0.125   2.076 -0.4927 -0.8115 -0.2242
   72SOL    HW1  215   1.842   0.178   2.002 -1.0609 -1.9694 -3.3286
   72SOL    HW2  216   1.823   0.029   2.095 -1.4460  1.8686  0.6839
   73SOL     OW  217   2.851   2.201   2.499  0.1706  0.0619 -0.2724
   73SOL    HW1  218   2.838   2.123   2.431 -3.0994 -0.4541 -0.6331
   73SOL    HW2  219   2.878   2.168   2.596  1.3058 -1.3099 -1.4770
   74SOL     OW  220   2.706   2.962   2.112  0.0938  0.2439 -0.6108
   74SOL    HW1  221   2.625   2.923   2.167  0.4589 -0.8361  0.2217
   74SOL    HW2  222   2.791   2.983   2.163 -0.9717 -0.3913  0.5099
   75SOL     OW  223   0.918   0.767   0.956  0.0592  0.0713 -0.2804
   75SOL    HW1  224   0.821   0.818   0.966 -3.0297  0.0049 -0.4559
   75SOL    HW2  225   0.973   0.774   1.043 -2.3407 -0.4846 -0.4526
   76SOL     OW  226   1.753   1.254   2.552 -0.0567 -0.2436  0.5944
   76SOL    HW1  227   1.652   1.243   2.529  0.4190 -1.1203  0.2710
   76SOL    HW2  228   1.769   1.333   2.621  0.7691 -1.0993 -0.1230
   77SOL     OW  229   2.988   1.002   1.025  0.1592  0.1602 -0.4735
   77SOL    HW1  230   2.979   0.906   0.983 -2.8974  0.2010  0.0743
   77SOL    HW2  231   3.051   1.011   1.110  0.8565 -2.0901 -0.4814
   78SOL     OW  232   1.990   1.392   1.438 -0.1469  0.0947  0.3357
   78SOL    HW1  233   2.028   1.391   1.340 -1.5444  0.1722 -0.5720
   78SOL    HW2  234   1.887   1.401   1.445  0.2039  1.0746 -2.4463
   79SOL     OW  235   0.639   1.287   0.828 -0.2707 -0.0517  0.1974
   79SOL    HW1  236   0.540   1.252   0.807 -3.4388  0.6339  0.2394
   79SOL    HW2  237   0.713   1.222   0.797 -2.3647 -0.0701  0.4840
   80SOL     OW  238   0.662   0.505   1.614 -0.1186 -0.1319 -0.4698
   80SOL    HW1  239   0.716   0.558   1.546 -0.4741 -1.7480  1.4786
   80SOL    HW2  240   0.645   0.404   1.592  0.2998  2.3417 -0.9727
   81SOL     OW  241   1.112   1.460   2.601  0.2307 -0.2956  0.0119
   81SOL    HW1  242   1.054   1.422   2.676  0.8803  0.0938  0.3258
   81SOL    HW2  243   1.047   1.500   2.528 -1.9073  0.1550  0.8684
   82SOL     OW  244   0.897   3.003   1.532 -0.1413  0.1864 -0.2080
   82SOL    HW1  245   0.968   3.012   1.458  0.7057 -0.8042  2.7266
   82SOL    HW2  246   0.823   2.929   1.522  0.3285  2.2019 -1.0621
   83SOL     OW  247   2.721   2.424   0.800  0.6370  0.1025  0.1726
   83SOL    HW1  248   2.620   2.392   0.774 -1.0351 -2.5677  0.9165
   83SOL    HW2  249   2.746   2.498   0.734 -0.9172  0.4779 -0.4397
   84SOL     OW  250   0.662   0.012   2.413 -0.5410  0.4046 -0.2034
   84SOL    HW1  251   0.580  -0.019   2.468  1.1858 -1.1808  1.2751
   84SOL    HW2  252   0.736  -0.063   2.410  1.9802 -2.0371  0.4738
   85SOL     OW  253   0.341   1.646   1.461  0.0332 -0.2210  0.2157
   85SOL    HW1  254   0.279   1.725   1.504  0.0403  1.0566  0.5014
   85SOL    HW2  255   0.367   1.579   1.540  3.2440  0.6853  1.4646
   86SOL     OW  256   0.346   0.979   1.480  0.2268  0.4061  0.0812
   86SOL    HW1  257   0.353   0.917   1.399  0.2982 -0.2720  1.1057
   86SOL    HW2  258   0.382   0.936   1.565  2.8265  2.1335 -1.1568
   87SOL     OW  259   1.537   0.554   0.199  0.3538  0.2391 -0.0572
   87SOL    HW1  260   1.592   0.640   0.226 -0.0591  0.7000  0.8218
   87SOL    HW2  261   1.525   0.547   0.093  1.9795 -1.1611 -0.5641
   88SOL     OW  262   1.618   1.346   0.204 -0.1167 -0.6082  0.3406
   88SOL    HW1  263   1.628   1.246   0.230  0.2392  0.8544 -1.4054
   88SOL    HW2  264   1.516   1.371   0.196  0.0490  0.7832  1.6723
   89SOL     OW  265   2.995   0.437   0.595 -0.0199 -0.2323 -0.1800
   89SOL    HW1  266   3.055   0.352   0.632  2.6105 -4.5181 -0.9759
   89SOL    HW2  267   2.891   0.427   0.601 -0.4212 -0.3030 -0.4616
   90SOL     OW  268   0.844   1.639   3.082  0.0460 -0.3387  0.0719
   90SOL    HW1  269   0.781   1.654   3.163  2.3744 -1.8450  0.9559
   90SOL    HW2  270   0.807   1.573   3.012  1.2784 -0.2986 -1.2720
   91SOL     OW  271   1.257   1.346   1.803 -0.3545  0.6355  0.3686
   91SOL    HW1  272   1.291   1.441   1.833 -0.3587  2.0416 -1.9879
   91SOL    HW2  273   1.334   1.286   1.783  0.1549  2.3401  2.4422
   92SOL     OW  274   0.072   1.100   1.218  0.0833  0.0194 -0.5780
   92SOL    HW1  275   0.171   1.095   1.181  2.2251 -1.0471 -2.3412
   92SOL    HW2  276   0.060   1.054   1.309  2.1290 -1.5778  0.3924
   93SOL     OW  277   0.112   2.817   3.057  0.4587  0.3181 -0.7394
   93SOL    HW1  278   0.013   2.822   3.032  1.8980 -2.4618  1.6521
   93SOL    HW2  279   0.121   2.751   3.135  0.9726  2.6147 -0.8179
   94SOL     OW  280   1.505   1.264   1.682 -0.0870 -0.4198 -0.1648
   94SOL    HW1  281   1.559   1.202   1.746  0.4474  0.1422  0.1462
   94SOL    HW2  282   1.525   1.364   1.716  0.3974  0.6661 -0.7171
   95SOL     OW  283   1.426   2.492   2.934 -0.8390 -0.0663 -0.8298
   95SOL    HW1  284   1.387   2.494   3.030  0.9219  0.9673 -1.1047
   95SOL    HW2  285   1.457   2.397   2.918  1.7360  1.8187  0.7248
   96SOL     OW  286   0.528   2.039   1.240 -0.0460 -0.0233  0.1266
   96SOL    HW1  287   0.507   2.057   1.140  1.5370  0.5666 -0.3680
   96SOL    HW2  288   0.505   1.940   1.259 -2.3869  0.1148  0.1881
   97SOL     OW  289   0.324   1.449   2.456 -0.6923 -0.2526 -0.0041
   97SOL    HW1  290   0.226   1.416   2.477 -2.4505 -0.9907 -2.5127
   97SOL    HW2  291   0.368   1.501   2.532  1.3286 -0.6508  1.9890
   98SOL     OW  292   2.124   1.655   1.235 -0.0138  0.1184  0.5887
   98SOL    HW1  293   2.115   1.554   1.195 -0.8623 -2.0135 -0.6804
   98SOL    HW2  294   2.144   1.648   1.336  0.3175 -0.4901 -2.0326
   99SOL     OW  295   2.529   2.196   1.388  0.0929 -0.8258 -0.6039
   99SOL    HW1  296   2.482   2.115   1.429 -0.8408 -0.9941  1.3542
   99SOL    HW2  297   2.566   2.254   1.465  2.4509  0.1006 -1.8632
  100SOL     OW  298   2.277   0.378   2.066 -0.0020  0.3959  0.2301
  100SOL    HW1  299   2.203   0.347   2.136 -0.9304  0.7416 -1.1496
  100SOL    HW2  300   2.364   0.403   2.110  0.6614  0.0484  0.1979
  101SOL     OW  301   0.398   1.415   0.228  0.5984  0.1383 -0.0849
  101SOL    HW1  302   0.420   1.443   0.330 -0.5834  0.4179 -0.8410
  101SOL    HW2  303   0.381   1.496   0.166 -0.1192  1.9766  1.0472
  102SOL     OW  304   2.239   1.132   0.875 -0.0632 -0.4871  0.0263
  102SOL    HW1  305   2.179   1.064   0.821  0.2376 -1.3430  0.2269
  102SOL    HW2  306   2.269   1.212   0.816 -1.6224 -0.2179 -0.5147
  103SOL     OW  307   2.281   0.093   0.403  0.0308 -0.2461 -0.4886
  103SOL    HW1  308   2.344   0.170   0.369  1.2653  1.9085 -0.5951
  103SOL    HW2  309   2.338   0.005   0.426 -0.5189 -0.8539  2.9578
  104SOL     OW  310   0.098   1.857   2.162 -0.2656  0.1118 -0.1200
  104SOL    HW1  311   0.141   1.774   2.106 -1.8055  0.6507 -1.2043
  104SOL    HW2  312   0.002   1.888   2.137  1.3857  0.3543  0.9991
  105SOL     OW  313   1.064   1.972   0.810  0.4361 -0.1314  0.4452
  105SOL    HW1  314   1.003   2.015   0.736  0.1561  0.8930 -1.2568
  105SOL    HW2  315   1.113   1.889   0.772 -0.1008 -1.4843  1.0199
  106SOL     OW  316   2.076   0.511   1.353 -0.4526 -0.3812  0.1370
  106SOL    HW1  317   2.023   0.434   1.394 -1.3202  1.6251 -1.2584
  106SOL    HW2  318   2.081   0.595   1.407  0.1957 -0.6822 -1.3103
  107SOL     OW  319   1.849   3.004   1.127  0.1870  0.0366  0.2116
  107SOL    HW1  320   1.884   3.085   1.183  0.4644 -1.2047 -0.0885
  107SOL    HW2  321   1.801   2.933   1.187  0.9006  0.0892  1.2432
  108SOL     OW  322   0.732   2.657   1.312  0.7864 -0.8253 -0.1422
  108SOL    HW1  323   0.733   2.706   1.407 -1.4058 -0.0926 -0.8049
  108SOL    HW2  324   0.825   2.624   1.285  1.9949  0.1303  2.7131
  109SOL     OW  325   2.025   0.169   0.674  0.0053 -0.4492  0.0972
  109SOL    HW1  326   2.001   0.070   0.685 -0.6531 -1.8743  0.0171
  109SOL    HW2  327   1.967   0.229   0.741  0.4336 -0.0167  2.8361
  110SOL     OW  328   0.507   2.699   2.808 -0.1653 -0.4752 -0.2273
  110SOL    HW1  329   0.512   2.712   2.706  1.2044 -0.8617 -2.7421
  110SOL    HW2  330   0.595   2.658   2.849 -1.8245  0.7373 -0.9762
  111SOL     OW  331   1.283   0.527   2.349 -0.2854  0.4280  0.1526
  111SOL    HW1  332   1.228   0.608   2.380  0.7462 -2.3352  0.6105
  111SOL    HW2  333   1.311   0.480   2.437  0.7179  0.2212 -0.9948
  112SOL     OW  334   1.728   0.523   1.419 -0.7291 -0.0140  0.2707
  112SOL    HW1  335   1.742   0.511   1.315  1.0328 -2.1560  0.5195
  112SOL    HW2  336   1.718   0.433   1.476 -1.1888 -1.7184 -0.9839
  113SOL     OW  337   2.268   1.677   1.778  0.4030 -0.5655 -0.3539
  113SOL    HW1  338   2.349   1.625   1.741 -1.1155  0.3732  2.7894
  113SOL    HW2  339   2.281   1.708   1.878 -0.8983  1.3585  2.1981
  114SOL     OW  340   0.425   0.575   1.304 -0.0586 -0.0223 -0.1828
  114SOL    HW1  341   0.366   0.652   1.275 -0.0524 -1.8724  0.2154
  114SOL    HW2  342   0.473   0.529   1.225 -2.3110 -0.8399 -0.0786
  115SOL     OW  343   2.709   1.585   1.272 -0.0825 -0.3529  0.1049
  115SOL    HW1  344   2.737   1.488   1.294  0.0028  0.4857  1.3266
  115SOL    HW2  345   2.760   1.618   1.190  0.6426  1.2806  0.7476
  116SOL     OW  346   1.811   1.070   0.758  0.2354 -0.0967  0.1445
  116SOL    HW1  347   1.746   1.000   0.708  1.1445 -1.5023 -0.8548
  116SOL    HW2  348   1.786   1.168   0.731  0.1234  1.1958 -2.5397
  117SOL     OW  349   1.078   0.416   0.708  0.3463  0.2496 -0.5306
  117SOL    HW1  350   1.071   0.412   0.813 -2.1345  1.6358  0.6368
  117SOL    HW2  351   1.108   0.510   0.675 -1.5343 -0.7017 -0.9550
  118SOL     OW  352   1.107   1.054   0.969 -0.5360 -0.3284  0.8636
  118SOL    HW1  353   1.069   0.970   1.018 -1.4759 -0.9911 -0.6911
  118SOL    HW2  354   1.125   1.136   1.029 -1.9925  0.3980 -2.9341
  119SOL     OW  355   1.853   1.621   1.989 -0.2423  0.3958 -0.5852
  119SOL    HW1  356   1.823   1.704   2.034 -1.1005 -0.9455 -0.1402
  119SOL    HW2  357   1.961   1.614   1.996 -0.3163  0.7349  1.8077
  120SOL     OW  358   2.988   2.772   0.222 -0.5710  0.2586  0.3430
  120SOL    HW1  359   2.897   2.756   0.175  2.4261 -1.3206 -0.5968
  120SOL    HW2  360   3.007   2.683   0.274 -1.9672  1.2491  0.6597
  121SOL     OW  361   2.104   0.695   2.246  0.0636  0.2631 -0.3685
  121SOL    HW1  362   2.187   0.689   2.179 -1.6983  0.1012 -0.8018
  121SOL    HW2  363   2.022   0.650   2.210 -0.4379  0.3097  1.6588
  122SOL     OW  364   2.706   2.557   1.326 -0.1862 -0.7102 -0.0717
  122SOL    HW1  365   2.715   2.580   1.228 -0.3410  0.9226 -1.9401
  122SOL    HW2  366   2.621   2.497   1.346  0.9989  1.3724  1.4077
  123SOL     OW  367   1.728   0.002   1.694  0.0051  0.6380 -0.0929
  123SOL    HW1  368   1.697  -0.077   1.635  2.8428  2.1311 -1.1146
  123SOL    HW2  369   1.781   0.072   1.647  0.9764  2.1218  2.2798
  124SOL     OW  370   0.160   0.473   0.938  0.7735  0.3762  0.4681
  124SOL    HW1  371   0.147   0.503   1.033 -0.5959  0.8151 -0.7041
  124SOL    HW2  372   0.105   0.508   0.855 -2.6730 -1.9612  1.7188
  125SOL     OW  373   0.891   1.691   0.696 -0.2658  0.0669 -0.3192
  125SOL    HW1  374   0.994   1.703   0.676  0.2801  2.3943 -0.7232
  125SOL    HW2  375   0.867   1.617   0.769  1.6539  0.1542 -1.5062
  126SOL     OW  376   1.883   2.363   2.411  0.4309  0.4704 -0.1300
  126SOL    HW1  377   1.945   2.311   2.345  0.5790  0.2989 -1.0083
  126SOL    HW2  378   1.785   2.358   2.392  0.2900 -0.9311  1.5648
  127SOL     OW  379   1.031   0.958   0.155 -0.6725  0.1713  0.9543
  127SOL    HW1  380   1.108   1.009   0.208  0.9466 -0.5097 -0.1719
  127SOL    HW2  381   0.975   0.883   0.202 -2.2623 -1.6971  1.3455
  128SOL     OW  382   0.966   0.202   1.438  0.2943 -0.3921 -0.1639
  128SOL    HW1  383   0.935   0.267   1.367 -0.5070  0.6312  0.8280
  128SOL    HW2  384   0.893   0.139   1.462 -0.2216 -0.3356  1.4204
  129SOL     OW  385   1.764   0.728   1.817 -0.0343  0.0226 -0.1539
  129SOL    HW1  386   1.747   0.748   1.711 -0.3793 -1.2398 -1.3309
  129SOL    HW2  387   1.776   0.820   1.868  0.4784 -1.8242  2.3349
  130SOL     OW  388   1.244   2.100   0.984  0.1673 -0.3177  0.4347
  130SOL    HW1  389   1.188   2.048   0.915  0.2974  2.0101 -1.5788
  130SOL    HW2  390   1.325   2.149   0.943 -1.9268 -1.0616  2.2680
  131SOL     OW  391   3.020   1.520   1.300  0.1559 -0.3294  1.0305
  131SOL    HW1  392   2.964   1.434   1.313  0.9192 -1.5103  0.0663
  131SOL    HW2  393   3.124   1.499   1.313  1.4666 -1.9817  0.1983
  132SOL     OW  394   1.940   2.474   0.533 -0.9287  0.3461 -0.9322
  132SOL    HW1  395   1.837   2.485   0.534  0.2193 -0.0571 -1.1185
  132SOL    HW2  396   1.978   2.463   0.628 -0.6660 -1.4473 -2.8354
  133SOL     OW  397   1.810   2.269   2.905 -0.4987  0.6419  0.1086
  133SOL    HW1  398   1.796   2.325   2.992 -2.6674  2.3642 -0.2985
  133SOL    HW2  399   1.770   2.316   2.823  1.3473  1.2511  2.4631
  134SOL     OW  400   2.638   2.339   1.609 -0.0824 -0.4723 -0.1800
  134SOL    HW1  401   2.603   2.291   1.700  1.0667 -2.7153  0.6261
  134SOL    HW2  402   2.698   2.421   1.634  0.8375 -0.4126 -1.2220
  135SOL     OW  403   0.778   1.505   2.542  0.0329 -0.3519  0.0854
  135SOL    HW1  404   0.768   1.399   2.563 -0.6994  0.1865 -1.8302
  135SOL    HW2  405   0.836   1.527   2.461  1.8625  1.7738 -2.5127
  136SOL     OW  406   1.144   2.046   0.453 -0.0735  0.7456  0.0384
  136SOL    HW1  407   1.067   2.104   0.487 -0.4144 -0.2029 -0.4039
  136SOL    HW2  408   1.114   1.957   0.404  2.6486  0.0878  0.1763
  137SOL     OW  409   0.393   1.031   2.133 -0.1272 -0.0942 -0.3468
  137SOL    HW1  410   0.290   1.042   2.164 -0.6513  0.9196 -1.1870
  137SOL    HW2  411   0.423   0.935   2.130 -0.9030 -0.1314  0.1477
  138SOL     OW  412   2.418   1.472   0.372  0.5732 -0.2529 -0.2381
  138SOL    HW1  413   2.338   1.447   0.314  2.1928  0.1568  1.5847
  138SOL    HW2  414   2.473   1.388   0.388 -1.8593 -2.2862 -2.2837
  139SOL     OW  415   1.751   2.497   1.188 -0.1136  0.0547  0.5075
  139SOL    HW1  416   1.651   2.513   1.152  0.3714  0.3730 -0.1999
  139SOL    HW2  417   1.762   2.446   1.273 -0.7127  0.9907 -1.6361
  140SOL     OW  418   2.988   2.984   2.471 -0.3352  0.2514  0.2520
  140SOL    HW1  419   3.027   2.892   2.502  2.9570  0.9612  2.7726
  140SOL    HW2  420   3.062   3.054   2.433 -1.3359  1.9451  2.4890
  141SOL     OW  421   1.138   1.499   1.592  0.2516  0.7530 -0.1992
  141SOL    HW1  422   1.140   1.582   1.661 -1.2491  2.6392 -0.3837
  141SOL    HW2  423   1.199   1.416   1.622  1.1301  0.9976  1.0572
  142SOL     OW  424   1.519   0.604   2.239  0.8875 -0.1999  0.2120
  142SOL    HW1  425   1.553   0.558   2.157 -2.7881 -0.7524 -0.9547
  142SOL    HW2  426   1.418   0.580   2.248  1.2029 -1.0132  0.8574
  143SOL     OW  427   2.766   0.844   0.503  0.6101 -0.1602  0.5101
  143SOL    HW1  428   2.807   0.887   0.416  0.6291  0.8110  1.4635
  143SOL    HW2  429   2.786   0.903   0.586 -1.8186  0.7786 -1.0961
  144SOL     OW  430   2.987   1.250   1.354 -0.2120 -0.2757  0.1910
  144SOL    HW1  431   3.041   1.260   1.447  1.2653 -0.9293 -0.2778
  144SOL    HW2  432   3.048   1.207   1.275  2.1638 -2.0649 -0.6550
  145SOL     OW  433   0.994   1.860   0.075  0.1430  0.3439  0.3161
  145SOL    HW1  434   1.036   1.925   0.002 -0.0026  0.7057  0.2850
  145SOL    HW2  435   0.941   1.778   0.028 -0.2356 -1.4598 -0.3007
  146SOL     OW  436   2.510   0.635   1.513  0.4493 -0.3166 -0.2210
  146SOL    HW1  437   2.479   0.562   1.448  2.6953  1.1137 -0.3309
  146SOL    HW2  438   2.447   0.719   1.525  2.2361  0.4006  1.7787
  147SOL     OW  439   1.101   2.605   0.651 -0.3306  0.1726 -0.3964
  147SOL    HW1  440   1.050   2.634   0.563  1.9660  1.6811 -0.9586
  147SOL    HW2  441   1.189   2.563   0.630 -0.9359  0.7182 -0.2403
  148SOL     OW  442   1.656   1.410   3.029  0.0859  0.8887 -0.5983
  148SOL    HW1  443   1.679   1.337   2.958 -0.9844 -2.0438 -0.2555
  148SOL    HW2  444   1.660   1.367   3.127 -3.4545  0.9102 -1.9575
  149SOL     OW  445   0.604   1.418   1.959  0.3203 -0.4370 -0.5979
  149SOL    HW1  446   0.512   1.409   2.006 -0.0661 -1.1812 -0.1704
  149SOL    HW2  447   0.642   1.325   1.938 -0.9174 -1.6667  1.3504
  150SOL     OW  448   2.992   1.277   0.900 -0.5090  0.2948  0.6875
  150SOL    HW1  449   3.071   1.334   0.945  0.9898 -1.1703  1.0540
  150SOL    HW2  450   2.983   1.189   0.952  1.1673 -0.5224 -0.5471
  151SOL     OW  451   0.181   0.797   2.090  0.0362 -0.5715  0.1392
  151SOL    HW1  452   0.148   0.881   2.040 -0.1514  0.2427 -1.0167
  151SOL    HW2  453   0.239   0.730   2.029  1.5439  0.3255 -1.8087
  152SOL     OW  454   1.402   1.748   1.257  0.4463  0.5605  0.1118
  152SOL    HW1  455   1.405   1.820   1.329  1.8060 -0.1957 -2.1129
  152SOL    HW2  456   1.316   1.753   1.199  1.1687 -0.8835  0.7604
  153SOL     OW  457   0.054   1.508   0.170 -0.3443  0.0707  0.4431
  153SOL    HW1  458   0.058   1.403   0.155  1.1533  1.7413  0.1852
  153SOL    HW2  459   0.011   1.530   0.258  1.1086  0.4846  1.6535
  154SOL     OW  460   2.421   1.959   2.824 -0.3219  0.3954  0.1808
  154SOL    HW1  461   2.384   1.868   2.827 -0.1148  1.2017 -0.7475
  154SOL    HW2  462   2.482   1.980   2.747 -0.6379  0.8085  1.0642
  155SOL     OW  463   2.537   1.239   0.473 -0.2596  0.0191 -0.7613
  155SOL    HW1  464   2.607   1.244   0.393 -1.2680 -1.3157 -2.4774
  155SOL    HW2  465   2.509   1.141   0.498  3.3215 -2.1477  0.3835
  156SOL     OW  466   2.483   0.996   0.894  0.3368 -0.0249  0.1495
  156SOL    HW1  467   2.389   1.029   0.906  0.3636  1.6519 -0.3331
  156SOL    HW2  468   2.547   1.066   0.855 -1.6574 -2.3518 -0.4504
  157SOL     OW  469   1.357   2.966   3.092  0.1944  0.0350  0.1301
  157SOL    HW1  470   1.425   2.903   3.046  1.7096 -0.3779  1.3030
  157SOL    HW2  471   1.347   3.061   3.052  1.0326  3.1277  0.7568
  158SOL     OW  472   1.062   1.901   2.022  0.2645 -0.0500 -0.2982
  158SOL    HW1  473   1.119   1.873   2.103 -0.5821  0.2626  2.3022
  158SOL    HW2  474   0.963   1.922   2.049  1.0333  1.0561  1.1542
  159SOL     OW  475   0.873   0.463   1.286  0.0984 -0.2260  0.6116
  159SOL    HW1  476   0.865   0.538   1.357 -1.3108 -0.7680  0.3241
  159SOL    HW2  477   0.799   0.460   1.216  0.7868 -1.0723 -0.0699
  160SOL     OW  478   1.454   2.332   1.654  0.0014  0.2851  0.0805
  160SOL    HW1  479   1.526   2.404   1.621  1.1474  0.8746 -0.8388
  160SOL    HW2  480   1.499   2.254   1.703 -0.1618 -0.8064 -2.2922
  161SOL     OW  481   0.088   2.933   0.361  0.1893  0.0047  0.0458
  161SOL    HW1  482  -0.012   2.901   0.376 -2.5879  0.8155  0.1381
  161SOL    HW2  483   0.099   2.981   0.268 -0.5110 -2.1272  1.2105
  162SOL     OW  484   2.613   1.892   0.521  0.3689  0.1227  0.1802
  162SOL    HW1  485   2.568   1.836   0.448 -0.1410 -0.0397  1.2884
  162SOL    HW2  486   2.621   1.835   0.611  1.8779  0.7674  1.1240
  163SOL     OW  487   1.952   2.768   0.747  0.2902  0.0764  0.2227
  163SOL    HW1  488   1.920   2.798   0.650  1.0426 -1.6718 -1.2820
  163SOL    HW2  489   2.021   2.690   0.746  0.2971 -0.1024  1.1612
  164SOL     OW  490   0.055   0.227   1.201 -0.1027  0.4113 -0.1425
  164SOL    HW1  491   0.111   0.142   1.166 -1.8766 -0.9606 -0.0335
  164SOL    HW2  492   0.091   0.266   1.292 -0.5084 -0.5671  0.8026
  165SOL     OW  493   1.021   1.431   0.642  0.1160 -0.3314  0.1142
  165SOL    HW1  494   0.969   1.457   0.729  0.9316 -0.1628 -0.2649
  165SOL    HW2  495   0.987   1.495   0.569 -1.2679 -0.1799  0.6841
  166SOL     OW  496   1.388   1.021   1.808 -0.1805  0.0333 -0.4499
  166SOL    HW1  497   1.293   0.984   1.833  1.4040  2.4999  1.8819
  166SOL    HW2  498   1.435   1.053   1.893  0.0619  0.8589  1.8459
  167SOL     OW  499   0.930   1.837   1.596  0.0871  0.0914  0.1917
  167SOL    HW1  500   0.910   1.938   1.590 -0.0439  0.8627  0.4558
  167SOL    HW2  501   0.847   1.775   1.580  0.4275 -0.8727  1.0341
  168SOL     OW  502   1.549   2.339   0.194 -0.4669  0.4022 -0.4617
  168SOL    HW1  503   1.622   2.396   0.148 -1.6979  0.5552 -1.0158
  168SOL    HW2  504   1.584   2.290   0.278  1.3407  1.4559 -1.1072
  169SOL     OW  505   0.173   2.557   2.154 -0.1950 -0.1143  0.0864
  169SOL    HW1  506   0.211   2.476   2.098  0.7731 -0.3608  1.1625
  169SOL    HW2  507   0.132   2.529   2.245 -0.6281  1.9588  1.6524
  170SOL     OW  508   1.248   0.335   1.929  0.5456 -0.1658  0.1115
  170SOL    HW1  509   1.285   0.262   1.994 -0.9260 -2.1686  1.9801
  170SOL    HW2  510   1.191   0.296   1.856  2.2391 -0.6176  1.4913
  171SOL     OW  511   0.232   0.821   2.409  0.1795  0.3612  1.0634
  171SOL    HW1  512   0.141   0.855   2.447  0.1426 -1.5428 -3.4372
  171SOL    HW2  513   0.223   0.787   2.305  0.2306 -0.9295 -0.1359
  172SOL     OW  514   0.888   1.122   2.893 -0.0784 -0.1883  0.1566
  172SOL    HW1  515   0.965   1.187   2.910  1.0660 -1.7174 -1.9022
  172SOL    HW2  516   0.908   1.067   2.811  2.7840  1.6036  2.9092
  173SOL     OW  517   0.697   2.725   0.144 -0.4197  0.0763  0.5498
  173SOL    HW1  518   0.671   2.823   0.127  1.3575 -0.3496 -1.9229
  173SOL    HW2  519   0.617   2.659   0.134 -1.2507  1.7745  1.0984
  174SOL     OW  520   1.274   2.748   1.058  0.3923  0.5790  0.2804
  174SOL    HW1  521   1.282   2.810   0.974 -0.2981  0.6829 -0.5423
  174SOL    HW2  522   1.242   2.653   1.032  3.2267 -0.0451 -2.0926
  175SOL     OW  523   0.372   0.032   1.692 -0.4147 -0.1054 -0.2807
  175SOL    HW1  524   0.437   0.087   1.754  2.1806  0.2356 -0.4359
  175SOL    HW2  525   0.305   0.088   1.633 -0.0765 -1.4879  1.0214
  176SOL     OW  526   2.614   0.320   3.019  0.5243  0.2469 -0.4611
  176SOL    HW1  527   2.645   0.410   3.066 -1.5662 -0.5954 -0.2050
  176SOL    HW2  528   2.631   0.236   3.075 -0.3227  3.3591 -0.7487
  177SOL     OW  529   0.389   0.303   0.871 -0.2657  0.0998  0.2159
  177SOL    HW1  530   0.459   0.290   0.950  0.9858 -2.5062 -1.4738
  177SOL    HW2  531   0.311   0.371   0.895 -0.7230  1.9267 -2.1172
  178SOL     OW  532   3.090   2.693   2.601 -0.4390 -0.1779 -0.1326
  178SOL    HW1  533   3.003   2.675   2.654  0.0572 -2.5976 -0.4037
  178SOL    HW2  534   3.158   2.721   2.676  1.1202 -2.5457 -2.9596
  179SOL     OW  535   0.012   1.767   1.179  0.0006  0.2898 -0.0006
  179SOL    HW1  536  -0.070   1.814   1.144 -1.0344 -2.0240  0.4813
  179SOL    HW2  537  -0.024   1.680   1.226  1.6833  2.2687 -0.1501
  180SOL     OW  538   0.161   1.267   1.807 -0.2535 -0.2678  0.3273
  180SOL    HW1  539   0.262   1.237   1.802 -1.6658  0.5349  0.0691
  180SOL    HW2  540   0.133   1.347   1.863  0.1272  2.5972  1.6286
  181SOL     OW  541   3.014   1.832   2.525 -0.3618 -0.2497  0.1245
  181SOL    HW1  542   3.107   1.849   2.516  0.0982  1.3635  2.1458
  181SOL    HW2  543   2.963   1.886   2.449  1.6836  0.6462 -0.3966
  182SOL     OW  544   2.323   1.232   1.253  0.5053  0.5645  0.4565
  182SOL    HW1  545   2.239   1.218   1.195 -0.2747 -0.3068  0.2437
  182SOL    HW2  546   2.359   1.325   1.232  0.6551 -0.3364 -0.8477
  183SOL     OW  547   1.521   2.272   2.499  0.0774  0.0282  0.3000
  183SOL    HW1  548   1.437   2.211   2.496 -0.8188 -0.3704  1.0892
  183SOL    HW2  549   1.608   2.219   2.516  0.1668  0.5218 -2.8566
  184SOL     OW  550   2.077   0.939   0.753 -0.0270 -0.4184 -0.5825
  184SOL    HW1  551   1.991   0.997   0.734 -3.6001 -0.6636 -0.0751
  184SOL    HW2  552   2.055   0.838   0.758 -0.7685  0.2227 -0.7491
  185SOL     OW  553   1.636   2.749   2.168  0.2236  0.3884  0.0751
  185SOL    HW1  554   1.585   2.819   2.115  1.6806  0.9723 -1.0871
  185SOL    HW2  555   1.626   2.756   2.272 -0.4349 -1.0170 -0.8964
  186SOL     OW  556   0.081   2.198   1.657 -0.0043  0.2661  0.3809
  186SOL    HW1  557   0.094   2.285   1.598 -2.7364  0.0656  0.7799
  186SOL    HW2  558   0.170   2.159   1.691 -0.4664 -0.7883  0.2205
  187SOL     OW  559   1.423   0.685   1.711  0.0714 -0.0747  0.2658
  187SOL    HW1  560   1.473   0.762   1.663  1.8187 -2.4185 -0.4819
  187SOL    HW2  561   1.379   0.720   1.801 -2.3950  0.7980  1.2323
  188SOL     OW  562   2.761   2.747   1.543 -0.1632  0.3942 -0.1200
  188SOL    HW1  563   2.750   2.848   1.512 -0.4397  0.1699 -1.6906
  188SOL    HW2  564   2.736   2.677   1.468  0.5224 -0.3151  0.9526
  189SOL     OW  565   0.734   0.977   1.481 -0.0731 -0.2864  0.4149
  189SOL    HW1  566   0.827   1.023   1.457  0.4109  1.7463 -2.2722
  189SOL    HW2  567   0.692   0.923   1.402  0.8884  0.0320  0.9031
  190SOL     OW  568   1.490   1.760   1.662 -0.2021 -0.4518  0.3003
  190SOL    HW1  569   1.436   1.834   1.618 -0.3805 -1.3903  0.9738
  190SOL    HW2  570   1.563   1.797   1.722 -0.0854  1.3380 -1.8488
  191SOL     OW  571   1.023   0.835   1.544 -0.5733 -0.4269 -0.1444
  191SOL    HW1  572   1.094   0.780   1.603  0.9943 -1.5101  2.1519
  191SOL    HW2  573   1.077   0.898   1.478  0.4855  0.3188 -1.9185
  192SOL     OW  574   1.893   2.185   1.237  0.3988  0.5874 -0.2601
  192SOL    HW1  575   1.803   2.177   1.190  0.0149 -0.3732  0.7189
  192SOL    HW2  576   1.974   2.232   1.194 -1.9604  0.7920  1.7555
  193SOL     OW  577   0.502   0.567   0.336  0.1149  0.0945 -0.3993
  193SOL    HW1  578   0.498   0.490   0.398  2.2156 -1.3736  0.1040
  193SOL    HW2  579   0.523   0.535   0.242 -0.2423 -0.0494  0.8019
  194SOL     OW  580   0.296   0.857   1.244 -0.5093 -0.6100  0.1269
  194SOL    HW1  581   0.211   0.811   1.207  0.2810 -2.6739 -0.5769
  194SOL    HW2  582   0.323   0.945   1.194  2.8387 -0.5964  1.6508
  195SOL     OW  583   0.956   2.932   0.524 -0.3126  0.2132 -0.4810
  195SOL    HW1  584   0.923   2.853   0.471  1.1969 -0.1915  1.7097
  195SOL    HW2  585   1.053   2.954   0.500 -3.6547  0.5341  1.0466
  196SOL     OW  586   0.183   1.449   1.336  0.3522 -0.0302  0.7920
  196SOL    HW1  587   0.243   1.533   1.350  0.0630  1.6203  0.8271
  196SOL    HW2  588   0.200   1.369   1.404 -1.6242 -0.9059 -0.5064
  197SOL     OW  589   0.787   2.001   0.240  0.3141 -0.0183 -0.2757
  197SOL    HW1  590   0.786   1.960   0.336  2.2609  0.5862  1.8216
  197SOL    HW2  591   0.848   1.949   0.173 -3.2809  0.4936 -2.5550
  198SOL     OW  592   0.284   1.157   0.218  0.4292  0.0842 -0.1678
  198SOL    HW1  593   0.183   1.163   0.201  1.3887 -0.5701  0.6342
  198SOL    HW2  594   0.333   1.251   0.216 -0.1525  1.4265  0.2059
  199SOL     OW  595   2.253   0.424   2.458  0.3416 -0.1125  0.3199
  199SOL    HW1  596   2.194   0.378   2.529 -0.7219 -0.6897 -2.1375
  199SOL    HW2  597   2.350   0.400   2.463 -1.0964  1.7657 -2.0374
  200SOL     OW  598   0.042   2.900   0.822  0.0875  0.1588 -0.3048
  200SOL    HW1  599  -0.031   2.900   0.757 -0.1423 -1.8540  1.0051
  200SOL    HW2  600   0.080   2.992   0.850  2.3638 -0.7202  0.5172
  201SOL     OW  601   1.104   0.658   0.571  0.4500  0.6554 -0.1955
  201SOL    HW1  602   1.118   0.748   0.618 -1.0058 -1.1398 -1.4247
  201SOL    HW2  603   1.005   0.646   0.527 -1.6394 -1.9907 -3.0999
  202SOL     OW  604   0.433   1.203   1.798  0.1615  0.4509 -0.3598
  202SOL    HW1  605   0.492   1.227   1.711  2.8717  0.0784  1.4248
  202SOL    HW2  606   0.489   1.151   1.869  1.3131 -0.9893  1.4771
  203SOL     OW  607   0.591   0.243   1.534 -0.4664 -0.3700 -0.4974
  203SOL    HW1  608   0.604   0.188   1.441 -0.4271 -0.1089 -2.0095
  203SOL    HW2  609   0.622   0.181   1.611 -0.8588 -3.5789 -0.9870
  204SOL     OW  610   2.118   1.891   3.000 -0.6896 -0.2711 -0.5206
  204SOL    HW1  611   2.135   1.784   2.989 -0.2531 -1.2791 -1.4903
  204SOL    HW2  612   2.068   1.939   2.923 -0.2792 -0.3711  0.6645
  205SOL     OW  613   1.880   1.851   0.165  0.2781 -0.1950 -0.2966
  205SOL    HW1  614   1.976   1.835   0.119  1.7738 -1.3261 -0.1002
  205SOL    HW2  615   1.821   1.919   0.114 -1.5622  0.8521 -0.6039
  206SOL     OW  616   2.512   2.817   0.352  0.5378  0.6747 -0.3097
  206SOL    HW1  617   2.585   2.755   0.389  0.1119  0.8044 -1.7523
  206SOL    HW2  618   2.553   2.882   0.284  3.0156  0.2251  0.7807
  207SOL     OW  619   0.532   1.717   2.894 -0.3192 -0.1558  0.1739
  207SOL    HW1  620   0.620   1.698   2.839 -1.0800 -0.6991 -0.7581
  207SOL    HW2  621   0.530   1.650   2.978  0.3757 -1.6112  1.6401
  208SOL     OW  622   1.034   1.438   1.349  0.0244  0.5431 -0.2437
  208SOL    HW1  623   0.953   1.501   1.331 -1.7352 -1.2203 -0.3228
  208SOL    HW2  624   1.059   1.443   1.449 -1.1268 -0.0182  0.5107
  209SOL     OW  625   0.147   0.891   0.002  0.0282 -0.2986 -0.5662
  209SOL    HW1  626   0.185   0.855  -0.083  1.0625 -1.3220  0.3987
  209SOL    HW2  627   0.205   0.863   0.088  0.8509  0.8458  1.5098
  210SOL     OW  628   1.726   0.412   1.167  0.0083 -0.5652  0.2987
  210SOL    HW1  629   1.686   0.491   1.122  0.9765 -0.4214  1.8903
  210SOL    HW2  630   1.828   0.400   1.144 -0.8683  0.9701  0.6360
  211SOL     OW  631   2.114   1.044   1.639  0.6679 -0.2387  0.4545
  211SOL    HW1  632   2.133   0.964   1.704 -1.3247  0.9525 -1.4961
  211SOL    HW2  633   2.193   1.100   1.600  0.4610  0.3674 -0.5949
  212SOL     OW  634   0.024   1.006   1.480 -0.0179 -0.0004 -0.3326
  212SOL    HW1  635   0.084   1.088   1.495  1.8155  1.4579 -1.4247
  212SOL    HW2  636   0.073   0.923   1.516 -0.6298  2.8002  0.2786
  213SOL     OW  637   2.785   0.313   0.309 -0.1173 -0.8574 -0.0609
  213SOL    HW1  638   2.852   0.238   0.282 -2.5662 -0.3601 -1.3418
  213SOL    HW2  639   2.798   0.401   0.264 -0.6202 -0.3406  0.7167
  214SOL     OW  640   2.109   0.318   2.273  0.1394  0.0350 -0.2878
  214SOL    HW1  641   2.164   0.358   2.350  0.1495 -0.3922  1.0384
  214SOL    HW2  642   2.070   0.222   2.296 -1.2951  0.0444  0.1530
  215SOL     OW  643   1.716   2.287   2.053 -0.2882 -0.0979  0.0445
  215SOL    HW1  644   1.819   2.294   2.035 -1.2250 -1.2083  0.2641
  215SOL    HW2  645   1.689   2.349   2.130 -2.1159 -0.6990 -0.5469
  216SOL     OW  646   2.256   0.520   0.641 -0.2984  0.0569 -0.1116
  216SOL    HW1  647   2.205   0.449   0.582 -1.1050 -0.4001 -1.1175
  216SOL    HW2  648   2.266   0.602   0.588 -0.8890 -3.7342  1.0116
  217SOL     OW  649   0.792   2.782   2.437  0.3114 -0.2448 -0.6179
  217SOL    HW1  650   0.755   2.699   2.485 -1.0928  2.9613 -0.3696
  217SOL    HW2  651   0.819   2.766   2.339 -1.2038  0.2216  1.5848
  218SOL     OW  652   1.945   1.443   3.062 -0.3874 -0.1607  0.1738
  218SOL    HW1  653   1.848   1.472   3.030 -0.8891  0.7935 -1.9206
  218SOL    HW2  654   1.940   1.344   3.095  2.0443 -1.8051  2.3086
  219SOL     OW  655   2.373   1.296   2.598 -0.0131 -0.2598 -0.1254
  219SOL    HW1  656   2.341   1.245   2.511  1.5137  0.1276  0.3808
  219SOL    HW2  657   2.347   1.251   2.686 -1.1269  0.7614  3.3846
  220SOL     OW  658   1.500   1.009   1.301 -0.4598  0.0588 -0.3773
  220SOL    HW1  659   1.580   1.035   1.357 -2.6766 -1.5200  2.7189
  220SOL    HW2  660   1.449   1.084   1.263  2.5674  1.6543  2.4730
  221SOL     OW  661   1.298   1.106   2.192 -0.4498  0.0494 -0.1385
  221SOL    HW1  662   1.223   1.153   2.135 -1.7970 -0.2806 -2.4926
  221SOL    HW2  663   1.393   1.101   2.147  0.3952 -0.8671 -0.5633
  222SOL     OW  664   1.344   0.155   1.108 -0.2223  0.1997 -0.1193
  222SOL    HW1  665   1.408   0.091   1.050 -1.3556 -0.9480 -0.6505
  222SOL    HW2  666   1.372   0.176   1.204 -2.1039 -1.0045  0.1099
  223SOL     OW  667   2.905   0.761   2.003  0.0732  0.3648 -0.0372
  223SOL    HW1  668   2.910   0.757   2.109 -2.5997  1.7262 -0.1022
  223SOL    HW2  669   2.923   0.858   1.961  1.1702 -0.8732 -1.7750
  224SOL     OW  670   1.554   1.056   2.798 -0.2350  0.1667  0.5909
  224SOL    HW1  671   1.566   0.972   2.728  1.4377  0.0153 -1.6060
  224SOL    HW2  672   1.507   1.136   2.754 -0.4150  2.1702 -0.3638
  225SOL     OW  673   2.956   2.829   2.925  0.1223  0.0244  0.4474
  225SOL    HW1  674   2.941   2.744   2.864 -2.0522 -2.4559 -0.8357
  225SOL    HW2  675   2.985   2.912   2.867 -1.6618  1.0192  0.9252
  226SOL     OW  676   2.462   1.667   2.871 -0.0158 -0.5484 -0.3268
  226SOL    HW1  677   2.501   1.630   2.782  0.5951  0.6560 -0.8543
  226SOL    HW2  678   2.453   1.606   2.950 -0.9048 -1.0475  1.4820
  227SOL     OW  679   0.788   0.164   2.951 -0.5718 -0.5110 -0.2637
  227SOL    HW1  680   0.823   0.094   3.020  1.0630 -0.2067  0.4855
  227SOL    HW2  681   0.811   0.140   2.856 -0.2131  2.0726  0.6422
  228SOL     OW  682   2.340   0.545   2.764  0.4475 -0.0460  0.0657
  228SOL    HW1  683   2.292   0.618   2.706 -0.8537  2.0616  0.6940
  228SOL    HW2  684   2.373   0.469   2.700 -1.2850 -0.6461 -0.4613
  229SOL     OW  685   0.581   0.475   1.894  0.7418  0.2038 -0.2243
  229SOL    HW1  686   0.604   0.519   1.811 -0.3577 -0.3837 -0.4085
  229SOL    HW2  687   0.660   0.451   1.948 -3.4044  1.9177 -1.6899
  230SOL     OW  688   1.937   1.252   2.113 -0.1903 -0.3239 -0.3323
  230SOL    HW1  689   2.020   1.285   2.057  2.4847 -0.7781 -1.1071
  230SOL    HW2  690   1.848   1.282   2.075  1.1304 -2.0473  2.1234
  231SOL     OW  691   0.601   1.117   2.935  0.3441 -0.3032  0.0715
  231SOL    HW1  692   0.692   1.162   2.963  1.4184  2.5412 -1.1823
  231SOL    HW2  693   0.532   1.095   3.010 -3.1424 -2.0908  0.4209
  232SOL     OW  694   2.505   0.045   2.707  0.5824 -0.9210  0.3494
  232SOL    HW1  695   2.545  -0.045   2.732  1.2231 -1.2765 -0.7043
  232SOL    HW2  696   2.525   0.069   2.604 -2.6673 -0.0912 -0.9402
  233SOL     OW  697   1.741   1.294   1.087 -0.1030 -0.0342 -0.3205
  233SOL    HW1  698   1.671   1.268   1.016  2.0237  0.8192 -0.2167
  233SOL    HW2  699   1.797   1.208   1.111 -0.2266  1.9619 -0.0759
  234SOL     OW  700   1.660   2.596   1.948 -0.2572 -0.1830 -0.4534
  234SOL    HW1  701   1.668   2.654   2.034 -1.6087 -0.8203 -0.6006
  234SOL    HW2  702   1.614   2.504   1.959  0.4324  1.4247 -4.5565
  235SOL     OW  703   3.070   3.066   2.835  0.6937 -0.2359 -0.0237
  235SOL    HW1  704   3.139   3.077   2.757  0.8278  0.3562  0.3448
  235SOL    HW2  705   3.026   3.151   2.868 -0.2311 -0.5203  0.1097
  236SOL     OW  706   2.877   0.694   0.040 -0.3101 -0.6001 -0.0877
  236SOL    HW1  707   2.930   0.744   0.113  0.8174  1.8403 -2.2175
  236SOL    HW2  708   2.941   0.641  -0.028 -0.1902 -3.9230 -1.0501
  237SOL     OW  709   1.491   1.595   1.056 -0.0087  0.3614 -0.3360
  237SOL    HW1  710   1.593   1.587   1.047  0.1067  2.0349  1.9599
  237SOL    HW2  711   1.460   1.658   1.134 -2.1997  1.9660  0.8237
  238SOL     OW  712   1.740   1.349   0.748  0.6756  0.6513 -0.1849
  238SOL    HW1  713   1.808   1.353   0.668 -2.1868  0.1486  2.5010
  238SOL    HW2  714   1.687   1.437   0.759  0.3752 -0.7160  0.9118
  239SOL     OW  715   2.146   0.291   2.660  0.1069 -0.2289  0.0879
  239SOL    HW1  716   2.211   0.268   2.737 -1.3334  2.2423 -2.0382
  239SOL    HW2  717   2.074   0.361   2.685 -0.2833  0.4150 -0.2420
  240SOL     OW  718   0.889   0.737   0.224 -0.3882 -0.0655  0.2713
  240SOL    HW1  719   0.870   0.665   0.153  0.4309  0.5975 -1.8328
  240SOL    HW2  720   0.858   0.691   0.312 -0.8171  1.8833 -2.6977
  241SOL     OW  721   0.572   0.023   0.358  0.1285 -0.7165 -0.2316
  241SOL    HW1  722   0.602  -0.009   0.262 -1.4374  0.8651  2.0750
  241SOL    HW2  723   0.487  -0.018   0.392 -1.1361 -0.5116  0.2115
  242SOL     OW  724   0.690   2.435   1.118 -0.1224  0.2079  0.9285
  242SOL    HW1  725   0.674   2.502   1.197 -1.0446 -0.2631 -0.1128
  242SOL    HW2  726   0.772   2.470   1.058 -1.0894  0.7400 -2.1215
  243SOL     OW  727   1.074   0.655   2.509  0.8798 -0.1330  0.1993
  243SOL    HW1  728   1.041   0.718   2.434 -0.7404  0.0612 -1.5791
  243SOL    HW2  729   1.002   0.582   2.529  2.3097 -1.2657  0.8144
  244SOL     OW  730   2.826   1.987   2.338  0.1557  0.5355 -0.3289
  244SOL    HW1  731   2.874   1.968   2.242  2.8490  0.7227 -1.9161
  244SOL    HW2  732   2.731   1.943   2.346  1.1597 -0.2317 -0.7480
  245SOL     OW  733   2.468   0.719   2.198 -0.1909  0.0825 -0.0313
  245SOL    HW1  734   2.475   0.797   2.265 -2.1787 -2.2188  0.8962
  245SOL    HW2  735   2.558   0.695   2.152 -0.4690  0.4801  1.2657
  246SOL     OW  736   0.333   2.870   1.774 -0.4581 -0.0650 -0.1658
  246SOL    HW1  737   0.245   2.838   1.730  1.3636 -1.2848 -0.3659
  246SOL    HW2  738   0.346   2.970   1.768  1.2545 -0.5343  1.7716
  247SOL     OW  739   2.190   0.516   2.998  0.2602 -0.6643 -0.0257
  247SOL    HW1  740   2.257   0.495   2.924 -2.5489 -0.7605  0.6929
  247SOL    HW2  741   2.155   0.615   2.982 -0.5478 -1.3924 -3.6185
  248SOL     OW  742   2.183   1.846   1.542 -0.5167  0.4399  0.9725
  248SOL    HW1  743   2.227   1.775   1.602 -0.4116  1.8420  1.6702
  248SOL    HW2  744   2.084   1.853   1.568  1.1926 -0.7958  1.3029
  249SOL     OW  745   1.987   1.998   1.916  0.0826 -0.9228 -0.1214
  249SOL    HW1  746   1.991   1.927   1.837 -0.7906 -1.7042 -1.8241
  249SOL    HW2  747   2.081   2.049   1.922  1.6694 -0.5968 -0.4482
  250SOL     OW  748   1.048   0.634   1.904 -0.6813  0.7767 -0.4551
  250SOL    HW1  749   1.050   0.562   1.984 -2.3025 -3.1727  0.8749
  250SOL    HW2  750   1.106   0.600   1.828  1.4340 -0.6959  2.3586
  251SOL     OW  751   3.047   1.535   2.612 -0.3418 -0.3553 -0.0574
  251SOL    HW1  752   3.066   1.621   2.562 -1.3382 -0.1443  0.0857
  251SOL    HW2  753   2.946   1.510   2.619 -1.1262 -3.1236 -3.5411
  252SOL     OW  754   1.541   0.896   1.593  0.3174  0.0673  0.4975
  252SOL    HW1  755   1.630   0.936   1.558 -0.9370  0.9727  3.0020
  252SOL    HW2  756   1.487   0.967   1.651 -2.9996 -1.0595  1.1288
  253SOL     OW  757   1.010   1.536   0.375 -0.0010  0.2546 -0.5998
  253SOL    HW1  758   1.075   1.495   0.311 -0.9116  0.2345  1.5033
  253SOL    HW2  759   0.909   1.496   0.347  1.2593 -2.8121 -2.2881
  254SOL     OW  760   2.014   2.072   1.593 -0.4793  0.5759  0.1536
  254SOL    HW1  761   1.957   2.026   1.518  0.9480  0.7272 -0.2620
  254SOL    HW2  762   1.956   2.111   1.663  0.0462 -2.2361 -0.2688
  255SOL     OW  763   0.099   1.162   2.979  0.5987  0.5337 -0.1345
  255SOL    HW1  764   0.167   1.237   2.978 -0.7727 -0.2667 -0.5944
  255SOL    HW2  765   0.110   1.098   3.065 -1.8207 -1.3218  1.3961
  256SOL     OW  766   2.744   1.317   1.822 -1.2654 -0.2298 -0.2815
  256SOL    HW1  767   2.700   1.315   1.729  0.5168 -0.2857 -0.0522
  256SOL    HW2  768   2.701   1.253   1.885 -0.8289  0.2260 -4.1778
  257SOL     OW  769   0.826   0.189   1.858  0.3046 -0.0071  0.1108
  257SOL    HW1  770   0.896   0.257   1.822  2.8667 -1.8728  0.8682
  257SOL    HW2  771   0.855   0.095   1.828  0.0130  0.9854 -0.0488
  258SOL     OW  772   2.955   1.262   0.411  0.0023  0.2041  0.2051
  258SOL    HW1  773   2.915   1.351   0.376 -1.0040 -3.2970  0.0642
  258SOL    HW2  774   3.004   1.267   0.503  2.0892  1.6810 -2.6565
  259SOL     OW  775   0.475   2.925   2.976  0.5696 -0.5312  0.3552
  259SOL    HW1  776   0.450   2.872   3.065  1.6176  2.0383  1.5812
  259SOL    HW2  777   0.520   2.857   2.906 -1.8323  1.1335 -1.0443
  260SOL     OW  778   2.667   0.757   2.687 -0.5565 -0.1226  0.2667
  260SOL    HW1  779   2.586   0.819   2.708  0.0903  0.1850 -0.2584
  260SOL    HW2  780   2.658   0.676   2.751 -0.0630  1.8958  0.4384
  261SOL     OW  781   2.706   1.299   1.348 -0.1491  0.1578 -0.3989
  261SOL    HW1  782   2.654   1.230   1.290 -0.4246 -0.1071  1.6258
  261SOL    HW2  783   2.805   1.272   1.359 -2.5678 -1.7840  2.6969
  262SOL     OW  784   1.492   2.952   2.059  0.1237  0.2298 -0.1258
  262SOL    HW1  785   1.536   3.028   1.999 -0.2080 -0.5956  0.2629
  262SOL    HW2  786   1.431   2.884   2.012 -1.2630  0.0008  1.1703
  263SOL     OW  787   0.830   0.713   2.324  0.0156  0.3358  0.5890
  263SOL    HW1  788   0.761   0.634   2.304  2.3366 -1.3908  0.5272
  263SOL    HW2  789   0.859   0.761   2.234  2.5077  1.5274  1.7011
  264SOL     OW  790   2.305   0.730   0.476  0.5525  0.9603 -0.2170
  264SOL    HW1  791   2.220   0.732   0.425  2.5352  1.3377  1.1421
  264SOL    HW2  792   2.367   0.815   0.469 -0.7237  0.5116  1.5460
  265SOL     OW  793   0.913   2.283   2.707  0.1575  0.4177 -0.1473
  265SOL    HW1  794   0.973   2.338   2.769 -0.0777  0.5257 -0.5041
  265SOL    HW2  795   0.880   2.192   2.754 -1.8745 -0.5532 -1.2025
  266SOL     OW  796   1.296   1.733   0.012 -0.4532  0.2756  0.2687
  266SOL    HW1  797   1.263   1.794   0.089 -1.6854 -0.2084 -1.0317
  266SOL    HW2  798   1.401   1.715   0.017  1.3848  0.6034  0.1370
  267SOL     OW  799   1.111   0.027   2.306 -0.2756  0.1784  0.5995
  267SOL    HW1  800   1.099  -0.067   2.264 -0.3539 -0.4926  3.0200
  267SOL    HW2  801   1.207   0.061   2.281 -0.1191  0.3904 -1.2718
  268SOL     OW  802   0.676   1.142   1.096 -0.3892  0.1379  0.2458
  268SOL    HW1  803   0.709   1.175   1.183 -0.6950  1.0081 -2.1591
  268SOL    HW2  804   0.665   1.228   1.038  2.6775  0.4967  0.9363
  269SOL     OW  805   2.385   2.552   1.557  0.4113  0.3618  0.3416
  269SOL    HW1  806   2.451   2.474   1.545 -0.7817  1.1694 -0.3357
  269SOL    HW2  807   2.355   2.558   1.653 -0.5298 -0.3751 -0.2378
  270SOL     OW  808   0.306   2.802   2.072 -0.3295 -0.6697  0.4699
  270SOL    HW1  809   0.334   2.827   1.977  0.6819  0.2652  1.8045
  270SOL    HW2  810   0.235   2.725   2.071  1.6839 -1.7951 -1.1906
  271SOL     OW  811   0.379   1.381   1.145  0.3586 -0.1438 -0.4517
  271SOL    HW1  812   0.355   1.376   1.038  0.9334  1.2899 -0.1489
  271SOL    HW2  813   0.289   1.386   1.197 -0.2763 -1.3447 -2.4115
  272SOL     OW  814   1.978   2.812   1.901 -0.0406 -0.0052 -0.3069
  272SOL    HW1  815   1.903   2.768   1.847  0.8815  0.5604  0.2667
  272SOL    HW2  816   2.047   2.863   1.837  1.0630  0.4911 -2.0252
  273SOL     OW  817   1.416   1.455   2.886  0.3222 -0.6357  0.2430
  273SOL    HW1  818   1.504   1.448   2.941 -1.3157  1.8110  1.1504
  273SOL    HW2  819   1.335   1.459   2.954 -0.3267 -1.8465 -0.3739
  274SOL     OW  820   1.090   0.471   2.128  0.4616  0.1264 -0.5074
  274SOL    HW1  821   1.130   0.405   2.058 -1.2928  0.2515 -0.0099
  274SOL    HW2  822   1.142   0.468   2.211  1.2263 -0.3441 -0.7475
  275SOL     OW  823   0.680   2.087   1.881 -0.0469 -0.2121  0.1488
  275SOL    HW1  824   0.683   2.182   1.928  1.2015 -0.9199  0.9238
  275SOL    HW2  825   0.586   2.040   1.888  1.8112 -2.4235  0.9928
  276SOL     OW  826   2.127   0.908   2.729  0.4746 -0.1906  0.1012
  276SOL    HW1  827   2.059   0.973   2.686  2.8805  0.0333 -0.0023
  276SOL    HW2  828   2.093   0.862   2.815  3.0618  1.2403  3.3472
  277SOL     OW  829   3.076   0.865   0.212  0.1262 -0.2373  0.2867
  277SOL    HW1  830   3.122   0.887   0.121 -0.4235 -0.4565  2.7553
  277SOL    HW2  831   3.127   0.816   0.286 -0.8145  0.1338 -4.4058
  278SOL     OW  832   0.275   0.279   2.875 -0.1301  0.0441  0.6966
  278SOL    HW1  833   0.373   0.255   2.877 -0.5798  0.4987  1.4943
  278SOL    HW2  834   0.259   0.366   2.937 -2.8639 -0.3041  2.4839
  279SOL     OW  835   0.122   0.054   0.900  0.1114  0.7332 -0.2867
  279SOL    HW1  836   0.167   0.023   0.993  2.0182 -1.4978 -0.9046
  279SOL    HW2  837   0.178   0.041   0.816  0.9409 -0.1701 -0.2447
  280SOL     OW  838   1.626   2.976   2.489  0.1343 -0.7011 -0.2296
  280SOL    HW1  839   1.673   3.024   2.572 -1.7383 -0.7507 -0.5704
  280SOL    HW2  840   1.527   2.963   2.503  2.2458  1.1398  1.9815
  281SOL     OW  841   0.649   1.040   2.350  0.3445  0.4336 -0.0954
  281SOL    HW1  842   0.583   0.989   2.288  0.4826  0.0619  0.5031
  281SOL    HW2  843   0.718   0.976   2.394  0.8284  1.7070 -1.1716
  282SOL     OW  844   1.659   2.512   0.563  0.1640 -0.2334  0.2335
  282SOL    HW1  845   1.603   2.442   0.508  3.0148 -0.2089 -1.7215
  282SOL    HW2  846   1.662   2.608   0.523  0.4998 -3.3798 -2.0482
  283SOL     OW  847   1.144   0.877   0.720 -0.4525 -0.4180  0.4071
  283SOL    HW1  848   1.173   0.812   0.795 -3.9756  2.3411 -0.6976
  283SOL    HW2  849   1.040   0.902   0.724 -2.1886  2.3888 -0.1645
  284SOL     OW  850   2.209   2.820   2.422  0.1874 -0.5688  0.8173
  284SOL    HW1  851   2.229   2.888   2.503 -0.1948 -0.3027 -1.0002
  284SOL    HW2  852   2.213   2.869   2.332  0.0095  1.4552 -1.3817
  285SOL     OW  853   1.372   3.054   2.537  0.5616  0.1313  0.0179
  285SOL    HW1  854   1.388   3.071   2.439  1.2025 -1.9659  0.3667
  285SOL    HW2  855   1.303   3.118   2.583  1.5652 -0.1930 -1.0895
  286SOL     OW  856   0.425   0.424   0.636  0.3738  0.8281 -0.3997
  286SOL    HW1  857   0.409   0.389   0.738 -0.6648 -4.2807  1.7030
  286SOL    HW2  858   0.418   0.346   0.562 -2.5885 -2.2401 -0.9197
  287SOL     OW  859   0.083   1.308   2.543 -0.1051 -0.1193 -0.1713
  287SOL    HW1  860   0.084   1.224   2.605 -0.9084 -1.7023 -0.0821
  287SOL    HW2  861   0.003   1.380   2.567 -3.5825  0.7159 -0.1706
  288SOL     OW  862   1.583   2.593   1.472  0.2214 -0.1825 -0.3335
  288SOL    HW1  863   1.681   2.589   1.499  4.5383 -2.5383  2.1365
  288SOL    HW2  864   1.566   2.592   1.373  1.1624 -1.3720  1.7622
  289SOL     OW  865   0.624   2.708   0.848 -0.0241  0.1792 -0.3731
  289SOL    HW1  866   0.665   2.785   0.787 -1.3650  0.2517  0.5012
  289SOL    HW2  867   0.632   2.735   0.947  0.7152 -0.9627  0.8542
  290SOL     OW  868   3.007   1.287   1.663 -0.6881  0.1784 -0.2494
  290SOL    HW1  869   2.914   1.272   1.696  2.0891 -0.3341 -1.9701
  290SOL    HW2  870   3.074   1.218   1.702 -1.2062 -0.0428  1.8011
  291SOL     OW  871   1.990   0.045   0.115  0.2319 -0.1961 -0.6430
  291SOL    HW1  872   2.026   0.003   0.201 -1.3573  0.4591  0.4140
  291SOL    HW2  873   2.033   0.136   0.087 -2.5492  2.0326 -0.9948
  292SOL     OW  874   2.938   1.169   3.076  0.5037  0.6118  0.0198
  292SOL    HW1  875   2.872   1.240   3.041  0.6316  1.0804  0.8343
  292SOL    HW2  876   3.025   1.157   3.022 -0.6780 -2.0472 -1.7701
  293SOL     OW  877   0.538   2.127   0.170 -0.2921 -0.0315 -0.7922
  293SOL    HW1  878   0.509   2.147   0.270 -1.6535  0.0713  0.1806
  293SOL    HW2  879   0.637   2.092   0.171  1.3242  0.4838 -2.0872
  294SOL     OW  880   1.607   2.122   1.820  0.4185 -0.9812  0.2921
  294SOL    HW1  881   1.602   2.179   1.905 -3.0876  1.1108  1.9802
  294SOL    HW2  882   1.684   2.159   1.758  1.2629 -2.2365  1.0387
  295SOL     OW  883   0.979   1.174   0.424  0.3307 -0.1737  0.0717
  295SOL    HW1  884   1.057   1.139   0.480 -2.2800  0.3833 -0.4217
  295SOL    HW2  885   0.895   1.129   0.456  3.2700  0.9260 -0.0616
  296SOL     OW  886   1.283   2.105   2.519 -0.1955  0.1705 -0.2846
  296SOL    HW1  887   1.227   2.160   2.454  1.4425 -1.8668  0.1683
  296SOL    HW2  888   1.302   2.018   2.480  1.0954  1.5680 -0.8698
  297SOL     OW  889   1.494   0.706   1.392  0.3485  0.2629 -0.5755
  297SOL    HW1  890   1.545   0.626   1.428 -1.0056  0.0641  1.5792
  297SOL    HW2  891   1.491   0.789   1.456 -2.2710 -0.3450 -0.5774
  298SOL     OW  892   0.573   1.372   2.829 -0.3854 -0.6809  0.3214
  298SOL    HW1  893   0.559   1.287   2.885  0.7411 -0.3978  0.6706
  298SOL    HW2  894   0.631   1.355   2.743 -2.1017 -0.9417 -1.4616
  299SOL     OW  895   0.355   0.384   1.511 -0.0062 -0.3429  0.0664
  299SOL    HW1  896   0.383   0.459   1.447 -0.2402  0.7223  0.5670
  299SOL    HW2  897   0.438   0.326   1.539  0.1750  1.6313  1.8836
  300SOL     OW  898   1.254   1.826   2.858  0.8679 -0.2561 -0.1922
  300SOL    HW1  899   1.280   1.748   2.792  3.4601  2.1714  0.6887
  300SOL    HW2  900   1.269   1.809   2.962 -0.7367  0.8639  1.4184
  301SOL     OW  901   0.417   0.238   0.424  0.5954  0.7620  0.4520
  301SOL    HW1  902   0.315   0.238   0.401  0.1408  2.0032  1.7696
  301SOL    HW2  903   0.469   0.153   0.399 -0.1002  3.2536  0.7854
  302SOL     OW  904   1.151   2.308   2.379  0.6363 -0.2003 -0.5362
  302SOL    HW1  905   1.093   2.388   2.402 -1.0516 -0.3048  1.2720
  302SOL    HW2  906   1.101   2.239   2.311  0.4127  1.2863 -0.0370
  303SOL     OW  907   0.926   2.406   0.775 -0.0296  0.0321  0.0295
  303SOL    HW1  908   0.983   2.483   0.731  0.3316 -0.9152 -0.6661
  303SOL    HW2  909   0.921   2.414   0.878 -2.1763  1.0831 -0.2492
  304SOL     OW  910   0.077   1.991   0.666  0.4434 -0.1010  0.4749
  304SOL    HW1  911   0.114   1.920   0.598 -2.6660  0.9004  3.3018
  304SOL    HW2  912   0.044   2.082   0.635  0.1433  0.2335 -2.5339
  305SOL     OW  913   1.618   0.868   0.682 -0.3602  0.3867  0.1855
  305SOL    HW1  914   1.551   0.886   0.601 -4.5614  0.0159  2.0331
  305SOL    HW2  915   1.701   0.806   0.657 -0.5712  0.0391 -2.5459
  306SOL     OW  916   0.430   1.957   1.932 -0.6757 -0.2794 -0.2157
  306SOL    HW1  917   0.472   1.859   1.912  0.6791  0.2535 -0.0565
  306SOL    HW2  918   0.412   1.962   2.034  1.2784  0.3575 -1.2622
  307SOL     OW  919   0.009   0.859   2.547 -0.1960 -0.0211 -0.0968
  307SOL    HW1  920   0.013   0.948   2.599 -0.6621  1.4226  0.8026
  307SOL    HW2  921  -0.072   0.806   2.575 -0.3075 -0.1655  1.7591
  308SOL     OW  922   1.572   2.707   2.782 -0.4349 -0.4547  0.3634
  308SOL    HW1  923   1.512   2.709   2.696  1.9737 -0.1422  0.3383
  308SOL    HW2  924   1.547   2.630   2.841  0.0432 -3.7849 -0.5504
  309SOL     OW  925   1.252   0.023   1.806  1.0464 -0.4125  0.5772
  309SOL    HW1  926   1.342   0.017   1.847 -2.2041 -0.5957  1.0350
  309SOL    HW2  927   1.239   0.058   1.711 -1.5208  0.0217  0.5009
  310SOL     OW  928   1.433   2.632   0.736 -0.1052  0.0229 -0.6984
  310SOL    HW1  929   1.386   2.722   0.750 -3.9751 -0.9082 -3.2990
  310SOL    HW2  930   1.517   2.632   0.678  1.5640  2.7469 -0.7745
  311SOL     OW  931   1.220   1.016   1.456  0.3837 -0.9465 -0.2049
  311SOL    HW1  932   1.302   0.951   1.457 -1.5535  0.3531  2.8510
  311SOL    HW2  933   1.258   1.108   1.490 -1.1154  1.8086  0.4226
  312SOL     OW  934   1.640   0.645   1.039 -0.3831 -0.0235 -0.4783
  312SOL    HW1  935   1.635   0.747   1.022 -0.7084 -0.2528  0.6460
  312SOL    HW2  936   1.563   0.599   0.990  2.0186  0.8232 -1.0203
  313SOL     OW  937   1.599   1.451   0.485  0.0345 -0.5141 -0.2813
  313SOL    HW1  938   1.510   1.472   0.536  0.2958  2.0723  0.7419
  313SOL    HW2  939   1.593   1.391   0.402 -3.2441  1.3933  0.4689
  314SOL     OW  940   2.957   0.085   3.082 -0.6386 -0.4360 -0.4210
  314SOL    HW1  941   2.973   0.114   3.180 -1.4055 -0.0239 -0.3245
  314SOL    HW2  942   2.868   0.039   3.059 -1.4191 -1.3559  0.1322
  315SOL     OW  943   1.290   0.253   2.750 -0.3602 -0.7661 -0.2777
  315SOL    HW1  944   1.228   0.210   2.677  0.8728 -2.2096 -1.8972
  315SOL    HW2  945   1.306   0.193   2.836 -0.7067  2.5080  1.9441
  316SOL     OW  946   1.677   2.081   0.923  0.5828  0.4443 -0.2308
  316SOL    HW1  947   1.637   2.075   1.010  2.4367 -0.2840 -2.1292
  316SOL    HW2  948   1.694   2.181   0.889  0.4110 -0.4165  1.8581
  317SOL     OW  949   1.164   0.682   2.803 -0.1803  0.2212  0.0327
  317SOL    HW1  950   1.096   0.748   2.852  0.2397  2.4417 -0.3354
  317SOL    HW2  951   1.129   0.586   2.779  0.3722 -1.5323  0.5340
  318SOL     OW  952   1.394   3.087   2.277  0.3718  0.7943 -0.6589
  318SOL    HW1  953   1.402   3.186   2.237 -0.8487 -0.6359 -1.0270
  318SOL    HW2  954   1.418   3.019   2.206  1.7582  0.6726  0.8846
  319SOL     OW  955   0.659   2.398   2.926  0.0439  0.0103  0.0463
  319SOL    HW1  956   0.570   2.376   2.978 -1.9347  2.8553  0.4155
  319SOL    HW2  957   0.741   2.336   2.938 -0.9984  0.2130 -1.1553
  320SOL     OW  958   1.581   2.262   0.454 -0.1688  0.2165 -0.1417
  320SOL    HW1  959   1.675   2.232   0.487  0.0992 -1.4733  0.2335
  320SOL    HW2  960   1.499   2.217   0.503 -0.6121 -2.1536 -1.6754
  321SOL     OW  961   1.620   2.782   0.497  0.6839  0.2780  0.1677
  321SOL    HW1  962   1.551   2.825   0.436  0.6372  0.5225 -0.3579
  321SOL    HW2  963   1.713   2.812   0.469  0.2407 -1.5672  0.0740
  322SOL     OW  964   2.657   1.141   2.285  0.5187 -1.0160 -0.4813
  322SOL    HW1  965   2.734   1.173   2.343  1.1625  1.8229 -0.9635
  322SOL    HW2  966   2.600   1.064   2.319  1.5643  1.1550  1.0093
  323SOL     OW  967   0.998   2.751   0.862  0.4963 -0.4535  0.3416
  323SOL    HW1  968   1.038   2.705   0.775 -4.2624  1.4351 -1.1671
  323SOL    HW2  969   1.000   2.852   0.865 -1.5188 -1.2946 -1.1069
  324SOL     OW  970   0.089   2.508   2.408 -0.5881 -0.2111  0.4084
  324SOL    HW1  971   0.071   2.416   2.445  2.5779 -2.0687  0.0635
  324SOL    HW2  972   0.048   2.584   2.466 -1.1363 -0.9102  2.3911
  325SOL     OW  973   1.201   3.052   0.489  0.0882  0.2238 -0.2457
  325SOL    HW1  974   1.194   3.119   0.403  1.0145  3.5878  0.5327
  325SOL    HW2  975   1.184   3.109   0.576  0.5244  0.3916  0.4322
  326SOL     OW  976   2.311   0.830   0.089 -0.2013 -0.0730  0.0106
  326SOL    HW1  977   2.259   0.774   0.020  1.4367 -1.1870 -2.0671
  326SOL    HW2  978   2.337   0.771   0.170  0.8190 -1.1832 -1.2597
  327SOL     OW  979   2.698   0.430   0.537 -0.4610  0.3285 -0.0225
  327SOL    HW1  980   2.733   0.379   0.453  0.0995 -0.7996  1.0273
  327SOL    HW2  981   2.604   0.392   0.568 -0.0486  0.1907 -0.1708
  328SOL     OW  982   2.556   0.614   0.356 -0.2199  0.1188  0.0080
  328SOL    HW1  983   2.475   0.678   0.380  0.1621  3.2052 -2.4992
  328SOL    HW2  984   2.573   0.548   0.437 -0.8577 -3.3123 -1.1533
  329SOL     OW  985   3.012   2.942   2.132 -0.3009 -0.2992  0.0988
  329SOL    HW1  986   3.081   2.899   2.202  2.5492  1.2942  0.1718
  329SOL    HW2  987   3.028   3.048   2.105  0.8983  3.2243 -0.7460
  330SOL     OW  988   0.486   0.214   1.884 -0.0232  0.4949 -0.5223
  330SOL    HW1  989   0.506   0.317   1.898 -0.8370  0.2866  0.0027
  330SOL    HW2  990   0.543   0.151   1.944  0.7509  1.1612 -1.5274
  331SOL     OW  991   2.872   1.927   1.082 -0.3070  0.4879  0.1373
  331SOL    HW1  992   2.934   2.005   1.055  1.5102 -0.6320  1.0782
  331SOL    HW2  993   2.802   1.955   1.163  1.1196  0.3414  3.1518
  332SOL     OW  994   0.405   1.024   0.028 -0.0406  0.5730  0.5644
  332SOL    HW1  995   0.326   1.006  -0.041 -0.2045  0.7977 -2.9250
  332SOL    HW2  996   0.365   1.066   0.118  1.7591 -1.4978  0.1765
  333SOL     OW  997   2.868   1.028   0.317 -0.1245  0.1046 -0.0073
  333SOL    HW1  998   2.893   1.109   0.374 -1.5852  0.9998  0.0908
  333SOL    HW2  999   2.946   0.973   0.289 -2.3221  0.4165  2.3370
  334SOL     OW 1000   1.633   1.148   1.890  0.2063  0.0387 -0.3949
  334SOL    HW1 1001   1.715   1.140   1.831 -0.2172 -2.7608  1.3850
  334SOL    HW2 1002   1.636   1.234   1.944 -1.5118  0.6410  1.3532
  335SOL     OW 1003   1.911   2.810   2.621  1.0002 -0.0670 -0.1487
  335SOL    HW1 1004   2.000   2.793   2.664 -1.1210 -0.0683  0.3785
  335SOL    HW2 1005   1.873   2.904   2.624 -0.5286 -1.1531 -0.9142
  336SOL     OW 1006   0.214   0.069   2.709 -0.0774 -0.1487 -0.4031
  336SOL    HW1 1007   0.298   0.014   2.689 -3.6267  1.0081 -0.8770
  336SOL    HW2 1008   0.235   0.159   2.754 -1.9892 -0.6973  0.6301
  337SOL     OW 1009   1.017   2.803   2.828 -0.4888  0.0008  0.0841
  337SOL    HW1 1010   0.973   2.779   2.919 -1.4236  2.6973  1.8261
  337SOL    HW2 1011   1.118   2.772   2.824  1.9771 -0.7952 -1.0533
  338SOL     OW 1012   0.015   1.029   0.637 -0.2599  0.1652 -0.7933
  338SOL    HW1 1013  -0.071   0.981   0.659  0.5233 -1.1546 -1.5480
  338SOL    HW2 1014   0.013   1.130   0.639  0.8291 -2.7279 -1.3321
  339SOL     OW 1015   1.703   1.388   2.036 -0.2060  0.4953  0.8037
  339SOL    HW1 1016   1.606   1.408   2.066  1.3436  1.6257 -1.1492
  339SOL    HW2 1017   1.762   1.475   2.031  1.5953 -0.7926  1.6563
  340SOL     OW 1018   2.279   0.794   1.279  0.3853 -0.0456  0.0863
  340SOL    HW1 1019   2.193   0.823   1.232 -0.6978  2.3553  0.0151
  340SOL    HW2 1020   2.337   0.732   1.220 -0.2019 -0.6151  1.8377
  341SOL     OW 1021   1.849   2.169   0.458  0.9245 -0.5492  0.7224
  341SOL    HW1 1022   1.870   2.178   0.354  0.0915  1.8757 -2.6726
  341SOL    HW2 1023   1.932   2.202   0.516  1.3986 -0.7161 -0.8539
  342SOL     OW 1024   2.242   2.174   2.782  0.0432  0.4925  0.5400
  342SOL    HW1 1025   2.326   2.107   2.780  0.5357  1.1988  1.1060
  342SOL    HW2 1026   2.156   2.125   2.801 -0.6163  2.9152  1.9312
  343SOL     OW 1027   0.311   0.889   2.856 -0.1822 -0.3165  0.6485
  343SOL    HW1 1028   0.321   0.949   2.775  0.1797 -0.5191 -0.0588
  343SOL    HW2 1029   0.404   0.852   2.880 -1.6881  0.4299 -1.8230
  344SOL     OW 1030   1.910   1.461   0.288 -0.3547 -0.1334  0.0869
  344SOL    HW1 1031   1.833   1.391   0.275 -1.2187 -1.0707  0.8788
  344SOL    HW2 1032   1.872   1.558   0.263 -2.0287  2.1591  2.8499
  345SOL     OW 1033   1.473   2.217   2.878 -0.2176 -0.1115 -0.5318
  345SOL    HW1 1034   1.372   2.193   2.862 -0.5579 -0.4661 -1.5848
  345SOL    HW2 1035   1.535   2.166   2.812 -1.3800 -1.9120  0.0868
  346SOL     OW 1036   2.380   0.878   1.524  0.9408  0.4021 -0.0960
  346SOL    HW1 1037   2.341   0.970   1.552  0.0115 -1.7999 -0.5382
  346SOL    HW2 1038   2.341   0.841   1.435  0.1969  0.1166 -1.8200
  347SOL     OW 1039   0.683   2.838   1.542 -0.5648 -0.5920 -0.3856
  347SOL    HW1 1040   0.663   2.792   1.634 -1.2915 -1.6585 -0.9296
  347SOL    HW2 1041   0.608   2.904   1.509  0.7021  1.4757 -3.1179
  348SOL     OW 1042   0.126   0.704   2.824 -0.4241 -0.1097 -0.2545
  348SOL    HW1 1043   0.032   0.740   2.807  1.2873 -2.0617  0.8949
  348SOL    HW2 1044   0.199   0.774   2.823 -1.9092 -1.3046  0.1901
  349SOL     OW 1045   1.938   0.473   2.723 -0.1002 -0.1398  0.4315
  349SOL    HW1 1046   1.868   0.515   2.659 -2.0667 -0.1672  0.2353
  349SOL    HW2 1047   1.907   0.466   2.822  0.7353  1.7323  0.5371
  350SOL     OW 1048   1.688   0.373   0.345  0.1049  0.0842  0.1542
  350SOL    HW1 1049   1.734   0.429   0.424 -0.8737  0.7227  0.7791
  350SOL    HW2 1050   1.627   0.439   0.292 -2.4901 -0.2530 -0.5412
  351SOL     OW 1051   0.903   0.897   2.119  0.7744  0.6032 -0.3135
  351SOL    HW1 1052   0.905   1.000   2.086 -1.6354 -1.2674  0.0485
  351SOL    HW2 1053   0.858   0.837   2.044  1.4144 -0.7611  0.3470
  352SOL     OW 1054   1.968   1.372   0.548  0.3873 -0.1146  0.4250
  352SOL    HW1 1055   1.941   1.418   0.460 -0.4567 -0.5764 -0.4380
  352SOL    HW2 1056   2.031   1.434   0.610  1.4844 -0.9524  2.2404
  353SOL     OW 1057   2.127   2.801   1.189  0.5334  0.0684  0.0898
  353SOL    HW1 1058   2.218   2.749   1.204 -0.9653  1.4075 -0.6163
  353SOL    HW2 1059   2.058   2.738   1.153  1.4813  0.7733  0.5955
  354SOL     OW 1060   0.291   1.367   2.932  0.2138  0.2921 -0.1797
  354SOL    HW1 1061   0.240   1.438   2.879 -1.2201 -2.4513  0.4217
  354SOL    HW2 1062   0.392   1.371   2.912 -0.0680  0.5899 -3.1836
  355SOL     OW 1063   0.455   1.488   0.486  0.1914  0.4674  1.1402
  355SOL    HW1 1064   0.498   1.581   0.461  1.1091  1.4995 -2.2424
  355SOL    HW2 1065   0.522   1.407   0.488  1.0429 -1.0971  1.8527
  356SOL     OW 1066   0.777   0.395   2.077  0.4584  0.3217 -0.0258
  356SOL    HW1 1067   0.873   0.426   2.110  1.4807 -2.5966 -0.9034
  356SOL    HW2 1068   0.781   0.295   2.044 -1.0827 -0.0275 -1.9919
  357SOL     OW 1069   1.073   1.316   0.175 -0.2824  0.1836  0.1600
  357SOL    HW1 1070   1.053   1.253   0.092 -1.4862  0.5399  0.1645
  357SOL    HW2 1071   1.013   1.299   0.258 -2.6126 -0.8334 -2.4422
  358SOL     OW 1072   1.604   1.641   0.273  0.4289 -0.1651  0.1422
  358SOL    HW1 1073   1.597   1.560   0.336  0.1193 -1.5041 -1.2036
  358SOL    HW2 1074   1.547   1.718   0.309 -1.1670  1.4984 -1.3240
  359SOL     OW 1075   1.569   2.709   0.119  0.0834  0.2780  0.0891
  359SOL    HW1 1076   1.575   2.623   0.054  0.1461 -0.4806 -0.8769
  359SOL    HW2 1077   1.492   2.706   0.186 -1.2433 -0.4155 -0.1189
  360SOL     OW 1078   0.835   0.575   0.444  0.7076  0.1360  0.1102
  360SOL    HW1 1079   0.746   0.578   0.510 -0.8860 -1.5353  0.9013
  360SOL    HW2 1080   0.883   0.484   0.440 -0.3351  2.1435  0.3873
  361SOL     OW 1081   1.281   1.373   0.633 -0.2137 -0.0704  0.0840
  361SOL    HW1 1082   1.315   1.379   0.732  1.2269 -0.3922 -1.5023
  361SOL    HW2 1083   1.177   1.393   0.631 -0.9983 -1.6156 -1.7391
  362SOL     OW 1084   1.379   1.739   0.797  0.3614 -0.1233 -0.4036
  362SOL    HW1 1085   1.395   1.666   0.865 -0.1687  1.3998 -1.8799
  362SOL    HW2 1086   1.444   1.818   0.799  0.5546 -1.1936  2.2544
  363SOL     OW 1087   1.123   1.274   2.054 -0.1640  0.1895 -0.0923
  363SOL    HW1 1088   1.097   1.372   2.080  0.2052  0.6717 -0.1793
  363SOL    HW2 1089   1.188   1.276   1.974 -0.9734 -0.2743 -1.1188
  364SOL     OW 1090   0.572   2.386   1.982  0.1991 -0.3754  0.5667
  364SOL    HW1 1091   0.469   2.369   1.989 -0.5603 -1.2658  2.5660
  364SOL    HW2 1092   0.619   2.382   1.888  1.8764 -0.4530  0.0627
  365SOL     OW 1093   1.140   1.758   1.440  0.2011  0.3779  0.2992
  365SOL    HW1 1094   1.058   1.785   1.498 -0.4254 -1.0921 -1.1618
  365SOL    HW2 1095   1.151   1.658   1.440  1.9316  2.9478 -0.0495
  366SOL     OW 1096   2.833   2.077   0.490 -0.1168 -0.0761  0.1118
  366SOL    HW1 1097   2.743   2.025   0.481 -0.3546  0.8728 -0.8483
  366SOL    HW2 1098   2.907   2.029   0.429  1.8781 -0.5721  1.0611
  367SOL     OW 1099   0.835   1.173   0.080 -0.3856  0.0517  0.0866
  367SOL    HW1 1100   0.872   1.113   0.151  1.2843  0.5695 -2.6105
  367SOL    HW2 1101   0.840   1.137  -0.014  1.5305  0.1655 -0.2794
  368SOL     OW 1102   1.499   0.500   0.598  0.2166 -0.0949 -0.1102
  368SOL    HW1 1103   1.440   0.562   0.540 -2.6842  0.5438 -0.7355
  368SOL    HW2 1104   1.595   0.497   0.566 -0.4656 -0.1785  0.2389
  369SOL     OW 1105   0.268   1.667   0.132  0.7953  0.2727 -0.8819
  369SOL    HW1 1106   0.275   1.757   0.171 -1.1153 -1.2734  1.6914
  369SOL    HW2 1107   0.175   1.625   0.151  1.5913  0.4651  0.7743
  370SOL     OW 1108   0.458   2.121   0.979  0.0965  0.0779  0.0064
  370SOL    HW1 1109   0.464   2.216   0.937  0.1965 -1.0778 -0.0205
  370SOL    HW2 1110   0.368   2.071   0.970 -0.6311  0.1452 -0.2125
  371SOL     OW 1111   2.976   2.162   2.787  0.1086  0.4297  0.0930
  371SOL    HW1 1112   2.961   2.175   2.887 -3.2654  1.8588 -0.4435
  371SOL    HW2 1113   3.047   2.233   2.742  1.7577  0.9301 -1.0399
  372SOL     OW 1114   0.859   1.929   1.009  0.0666 -0.3685 -0.0128
  372SOL    HW1 1115   0.892   2.022   1.046  2.0266 -1.1878  2.0332
  372SOL    HW2 1116   0.909   1.907   0.923  2.8184  2.7676  1.1822
  373SOL     OW 1117   1.925   1.933   0.914  0.2801 -0.7166  0.0407
  373SOL    HW1 1118   2.003   1.960   0.979  0.0549  2.4645  0.8639
  373SOL    HW2 1119   1.838   1.990   0.926  2.5618 -0.0665 -1.8675
  374SOL     OW 1120   1.809   0.440   0.574 -0.0930  0.1029  0.2619
  374SOL    HW1 1121   1.790   0.406   0.670  2.6107  1.1947 -2.0406
  374SOL    HW2 1122   1.902   0.417   0.529  1.2453 -0.6961 -1.3207
  375SOL     OW 1123   2.461   2.323   1.161  0.1939 -0.2404 -0.9236
  375SOL    HW1 1124   2.517   2.283   1.084  0.5403  0.5599 -1.1344
  375SOL    HW2 1125   2.486   2.279   1.254 -2.0413  2.1143 -2.0218
  376SOL     OW 1126   3.030   0.663   1.480  0.0718 -0.1237 -0.0910
  376SOL    HW1 1127   3.081   0.709   1.554  0.4681 -2.7138  1.0987
  376SOL    HW2 1128   2.930   0.694   1.476  1.3095  0.3212 -1.0385
  377SOL     OW 1129   2.167   2.811   0.315 -0.1140 -0.4736  0.3245
  377SOL    HW1 1130   2.103   2.887   0.342  2.6118 -1.1205  0.0377
  377SOL    HW2 1131   2.259   2.833   0.347  0.5563 -2.0207 -0.2888
  378SOL     OW 1132   1.870   1.821   2.684  0.1738  0.1559 -0.4164
  378SOL    HW1 1133   1.956   1.765   2.684 -0.9057 -1.2900  1.6592
  378SOL    HW2 1134   1.798   1.769   2.733  1.2993  0.5452 -1.3098
  379SOL     OW 1135   0.870   0.118   2.676  0.3880 -0.9758  0.1512
  379SOL    HW1 1136   0.873   0.016   2.649  1.3971 -0.1424 -0.3864
  379SOL    HW2 1137   0.820   0.179   2.609 -0.0551  1.2621  1.4837
  380SOL     OW 1138   1.592   1.132   0.509 -0.4299 -0.3870  0.4304
  380SOL    HW1 1139   1.546   1.043   0.528 -0.7584 -0.3546  2.7303
  380SOL    HW2 1140   1.598   1.191   0.593 -0.0177 -2.0795 -0.4616
  381SOL     OW 1141   1.303   1.272   1.499  0.0166  0.0775  0.5562
  381SOL    HW1 1142   1.320   1.341   1.425 -1.8354 -2.5684  0.6078
  381SOL    HW2 1143   1.383   1.270   1.564  2.1073  1.6648 -1.7398
  382SOL     OW 1144   1.728   0.797   0.239  0.0047  0.0737  0.6677
  382SOL    HW1 1145   1.723   0.781   0.138 -1.6515  2.0574 -1.0749
  382SOL    HW2 1146   1.825   0.798   0.278 -2.3586 -0.8820  0.8809
  383SOL     OW 1147   2.640   1.008   1.527  0.6679 -0.0221 -0.0778
  383SOL    HW1 1148   2.558   0.982   1.478  1.1268 -1.8621 -0.0373
  383SOL    HW2 1149   2.725   1.021   1.466 -2.7998 -1.9433  0.4102
  384SOL     OW 1150   1.022   2.304   0.126 -0.4189  0.1900 -0.5217
  384SOL    HW1 1151   0.952   2.368   0.170  0.7477 -1.8416 -0.6081
  384SOL    HW2 1152   1.053   2.227   0.188  1.9514 -1.5391  2.1894
  385SOL     OW 1153   2.957   2.042   1.679  0.2368  0.6323  0.0648
  385SOL    HW1 1154   3.050   2.098   1.675  2.7143  1.2723  0.0010
  385SOL    HW2 1155   2.978   1.943   1.681  4.0060 -1.5489 -0.2640
  386SOL     OW 1156   0.407   1.064   0.429  0.2347 -0.4048  0.4292
  386SOL    HW1 1157   0.401   0.960   0.455  2.6813 -0.7444  0.9921
  386SOL    HW2 1158   0.340   1.094   0.352 -0.8750  1.4356 -2.0663
  387SOL     OW 1159   1.027   0.349   1.700 -0.4980  0.1023 -0.1364
  387SOL    HW1 1160   1.067   0.445   1.681  1.3556  2.4937  0.6164
  387SOL    HW2 1161   1.004   0.299   1.614  1.0969  3.7698  0.6808
  388SOL     OW 1162   1.256   2.556   1.770  0.0986  0.1298 -0.3592
  388SOL    HW1 1163   1.252   2.527   1.671  1.2724 -0.1867 -1.8176
  388SOL    HW2 1164   1.307   2.492   1.834  0.9752  2.4724 -1.3484
  389SOL     OW 1165   0.229   0.009   1.141  0.1620 -0.3246 -1.0264
  389SOL    HW1 1166   0.193  -0.014   1.238 -0.5589  3.1111  1.2357
  389SOL    HW2 1167   0.302  -0.065   1.110  2.3845 -0.6361  1.8865
  390SOL     OW 1168   1.070   0.854   1.186  0.3226  0.2536 -0.3785
  390SOL    HW1 1169   1.167   0.828   1.198  0.8424 -0.1534 -0.1840
  390SOL    HW2 1170   1.023   0.859   1.280 -0.6003  0.6989 -1.8620
  391SOL     OW 1171   2.092   1.142   1.106 -0.7749 -0.4071 -0.5164
  391SOL    HW1 1172   2.044   1.053   1.136  1.2217  0.2044 -1.9184
  391SOL    HW2 1173   2.162   1.119   1.028  2.4326 -0.4067  1.6524
  392SOL     OW 1174   0.929   2.720   3.064 -0.1526 -0.3204  0.1267
  392SOL    HW1 1175   0.841   2.710   3.117 -1.2541  0.2087  0.5256
  392SOL    HW2 1176   0.999   2.789   3.099 -0.1463 -0.6025  2.1396
  393SOL     OW 1177   0.351   0.593   1.989  0.4304 -0.1938  0.2310
  393SOL    HW1 1178   0.276   0.521   1.981  1.0764 -0.2239 -0.9947
  393SOL    HW2 1179   0.444   0.563   1.953  1.3887 -0.9526  3.4146
  394SOL     OW 1180   2.813   1.831   2.749  0.3878 -0.3922 -0.2832
  394SOL    HW1 1181   2.897   1.807   2.691 -0.9876 -1.1952  0.2976
  394SOL    HW2 1182   2.791   1.935   2.765 -3.1821  0.8161  0.9542
  395SOL     OW 1183   1.540   1.951   0.716  0.3453  0.2250  0.1275
  395SOL    HW1 1184   1.601   1.901   0.653 -2.7068 -1.3402  0.6218
  395SOL    HW2 1185   1.598   2.002   0.781  1.1437 -2.1587 -4.4885
  396SOL     OW 1186   2.736   1.950   1.320 -0.3734  0.3922  0.2218
  396SOL    HW1 1187   2.703   2.022   1.388 -0.1747 -0.7252  1.3048
  396SOL    HW2 1188   2.682   1.860   1.321  0.3143 -0.7258  1.2943
  397SOL     OW 1189   0.945   2.155   0.635  0.0792 -0.0749  0.0316
  397SOL    HW1 1190   0.847   2.164   0.613  3.0490 -0.1984 -1.7583
  397SOL    HW2 1191   0.982   2.238   0.682 -2.3723  0.3619 -0.3024
  398SOL     OW 1192   2.226   3.074   1.144 -0.0705  0.3041 -1.0225
  398SOL    HW1 1193   2.180   2.977   1.151 -0.4031 -0.1434 -2.0889
  398SOL    HW2 1194   2.166   3.141   1.100  0.3808  0.0292  0.1677
  399SOL     OW 1195   2.891   2.601   2.796  0.2473 -0.3111 -0.6343
  399SOL    HW1 1196   2.843   2.548   2.717 -1.2238  2.4589  0.9418
  399SOL    HW2 1197   2.848   2.570   2.888  0.4625 -2.6745 -2.6738
  400SOL     OW 1198   0.813   1.575   1.298 -0.0402 -0.7758  0.4161
  400SOL    HW1 1199   0.776   1.633   1.376  3.0008  2.5619 -0.0260
  400SOL    HW2 1200   0.809   1.630   1.208  0.8678  0.6648  1.1587
  401SOL     OW 1201   1.869   0.154   1.272 -0.1373  0.3310  0.0504
  401SOL    HW1 1202   1.914   0.213   1.343  1.0758 -2.2080 -0.3318
  401SOL    HW2 1203   1.786   0.109   1.306 -0.0234  2.3160  1.0576
  402SOL     OW 1204   1.388   0.143   3.021 -0.8818 -0.0064 -0.0039
  402SOL    HW1 1205   1.484   0.127   2.973  2.8920 -2.6902 -1.6342
  402SOL    HW2 1206   1.405   0.221   3.092 -2.8504  0.0010  3.1117
  403SOL     OW 1207   2.261   1.855   0.945  0.2317  0.2479  0.1828
  403SOL    HW1 1208   2.359   1.849   0.974 -0.7416  0.8104  2.8084
  403SOL    HW2 1209   2.211   1.936   0.994 -0.6510 -1.3854  1.5372
  404SOL     OW 1210   0.214   2.495   2.770 -0.0894 -0.2588 -0.3157
  404SOL    HW1 1211   0.313   2.482   2.747  1.3467 -0.0749  2.3475
  404SOL    HW2 1212   0.195   2.596   2.786 -0.5178 -1.1396 -0.9275
  405SOL     OW 1213   0.183   2.547   0.557 -0.0754 -0.7524  0.2000
  405SOL    HW1 1214   0.225   2.455   0.577  0.0706  0.1956  0.4858
  405SOL    HW2 1215   0.249   2.624   0.561 -0.1255  0.6454 -1.2828
  406SOL     OW 1216   0.041   1.638   3.013  0.0921 -0.0795  0.5734
  406SOL    HW1 1217   0.104   1.604   2.934 -1.5635 -0.2132  1.4090
  406SOL    HW2 1218   0.082   1.637   3.107 -1.1290  1.0494  3.0482
  407SOL     OW 1219   1.534   0.907   0.932  0.7450  0.3186  0.0524
  407SOL    HW1 1220   1.558   0.863   0.840  0.8317  3.8834 -1.8891
  407SOL    HW2 1221   1.488   0.999   0.922 -0.7337 -0.9020 -0.0307
  408SOL     OW 1222   1.465   2.319   0.913  0.1755 -0.1531 -0.1717
  408SOL    HW1 1223   1.535   2.297   0.838  2.5659 -0.2041  0.9792
  408SOL    HW2 1224   1.476   2.418   0.945 -1.3266  0.6866  2.0534
  409SOL     OW 1225   0.610   0.843   0.694 -0.1105  0.3024 -0.3044
  409SOL    HW1 1226   0.520   0.848   0.648  2.1868  1.7452 -2.1782
  409SOL    HW2 1227   0.651   0.752   0.691 -2.5230  1.4516  0.4338
  410SOL     OW 1228   1.348   1.910   1.470 -0.3796  0.4955 -0.1398
  410SOL    HW1 1229   1.316   2.006   1.492  1.1781 -1.7254 -0.9159
  410SOL    HW2 1230   1.279   1.836   1.467  0.4708  1.0867  2.5326
  411SOL     OW 1231   2.370   1.867   0.062  0.3794 -0.0446  0.0749
  411SOL    HW1 1232   2.276   1.849   0.023 -2.4335 -0.4021 -0.6366
  411SOL    HW2 1233   2.440   1.885  -0.012  0.1167 -0.7625  0.6983
  412SOL     OW 1234   1.630   2.445   2.248 -0.3360 -0.0529  0.3317
  412SOL    HW1 1235   1.654   2.536   2.214 -0.7580 -1.0543  0.1593
  412SOL    HW2 1236   1.536   2.428   2.283  0.0497 -0.6893  0.5616
  413SOL     OW 1237   3.073   0.235   2.908  0.1030  0.4437 -0.4256
  413SOL    HW1 1238   3.037   0.192   2.993 -1.5506  2.2727 -2.7274
  413SOL    HW2 1239   3.174   0.226   2.890 -2.8263  0.4393 -0.0383
  414SOL     OW 1240   1.711   1.362   1.394 -0.2155  0.0575 -0.3640
  414SOL    HW1 1241   1.627   1.412   1.439  2.1701 -2.0597 -0.0383
  414SOL    HW2 1242   1.690   1.340   1.296 -0.4245  1.2717 -3.2522
  415SOL     OW 1243   0.217   2.263   0.673 -0.4622  0.1324 -0.2848
  415SOL    HW1 1244   0.252   2.239   0.772  1.4703 -1.1216 -0.5933
  415SOL    HW2 1245   0.111   2.265   0.661 -2.5777 -0.2748 -3.4701
  416SOL     OW 1246   0.317   1.080   1.089  0.1215  0.0609  0.2151
  416SOL    HW1 1247   0.284   1.050   0.993 -2.3100  0.5523 -1.7544
  416SOL    HW2 1248   0.374   1.164   1.091  1.3326 -3.1383 -2.0418
  417SOL     OW 1249   2.208   2.326   1.842 -0.1898  0.5290  0.7544
  417SOL    HW1 1250   2.278   2.252   1.856 -0.2961  0.7901 -0.2705
  417SOL    HW2 1251   2.129   2.327   1.908  1.6701 -1.8631  0.0266
  418SOL     OW 1252   1.153   0.565   1.348 -0.6337 -0.2416 -0.0524
  418SOL    HW1 1253   1.063   0.528   1.321  2.6316 -2.1244  1.8294
  418SOL    HW2 1254   1.222   0.544   1.283  0.4306  2.7582 -1.0702
  419SOL     OW 1255   0.956   0.385   2.988  0.0528  0.1686  0.0387
  419SOL    HW1 1256   1.002   0.395   2.895  0.8324 -1.6147  0.2035
  419SOL    HW2 1257   0.873   0.323   2.984 -0.3958  1.1496  1.9647
  420SOL     OW 1258   0.199   2.217   0.318  0.0806  0.7188  0.6359
  420SOL    HW1 1259   0.154   2.159   0.236 -3.5506 -0.7511  2.3241
  420SOL    HW2 1260   0.133   2.229   0.396 -0.1651 -1.6821 -0.0792
  421SOL     OW 1261   0.294   0.054   0.702  0.2007 -0.0397  0.5667
  421SOL    HW1 1262   0.332  -0.013   0.635  0.0811  3.8869 -0.8402
  421SOL    HW2 1263   0.361   0.120   0.742  0.9266 -0.2501 -0.5046
  422SOL     OW 1264   0.915   2.537   1.005  0.3127 -0.2469  0.8356
  422SOL    HW1 1265   0.926   2.619   0.947  0.2592 -1.6195  3.3116
  422SOL    HW2 1266   0.964   2.556   1.094  0.4764 -2.0116 -1.0110
  423SOL     OW 1267   0.056   0.658   1.218  0.1427  0.6700  0.2283
  423SOL    HW1 1268   0.015   0.661   1.314  0.6188  2.8369 -2.6136
  423SOL    HW2 1269  -0.011   0.613   1.157 -1.7700  1.9356  0.8192
  424SOL     OW 1270   1.016   2.167   2.214 -0.3027 -0.1991  0.0789
  424SOL    HW1 1271   0.974   2.234   2.147  0.0720  1.5886  1.0737
  424SOL    HW2 1272   0.947   2.136   2.287  0.4947  0.4322  0.1205
  425SOL     OW 1273   2.077   1.419   1.127 -0.0707 -0.4118 -0.0963
  425SOL    HW1 1274   2.047   1.319   1.126 -3.9273 -1.5109  0.7838
  425SOL    HW2 1275   2.117   1.450   1.037 -2.3554  1.3039  0.6748
  426SOL     OW 1276   1.453   1.550   1.438  0.5532 -0.3066  0.0191
  426SOL    HW1 1277   1.438   1.629   1.370 -0.2274  1.3318 -1.4470
  426SOL    HW2 1278   1.461   1.582   1.538  1.2300 -1.0930 -0.3401
  427SOL     OW 1279   1.986   2.334   2.023  0.1803 -0.3131 -0.3875
  427SOL    HW1 1280   2.010   2.282   2.102  0.6706  0.5864 -1.9016
  427SOL    HW2 1281   1.976   2.436   2.036 -0.6839  1.3422  0.6292
  428SOL     OW 1282   0.914   0.019   0.058  0.2735 -0.1548 -0.1954
  428SOL    HW1 1283   0.943   0.114   0.097 -0.0781  1.5977 -0.3241
  428SOL    HW2 1284   0.985  -0.058   0.068 -1.2836  1.0345  0.4422
  429SOL     OW 1285   1.241   0.066   0.233 -0.1457  0.0984  0.2415
  429SOL    HW1 1286   1.318   0.139   0.253 -0.7415 -0.1490 -2.8327
  429SOL    HW2 1287   1.266  -0.005   0.158 -0.1961  1.6084 -3.8082
  430SOL     OW 1288   2.783   1.458   0.282 -0.0580  0.4858  0.3106
  430SOL    HW1 1289   2.749   1.502   0.197 -0.5105  0.1776  4.0573
  430SOL    HW2 1290   2.816   1.524   0.352  0.0252  2.0689  0.6932
  431SOL     OW 1291   2.127   1.596   0.926 -0.4819  0.4370 -0.2422
  431SOL    HW1 1292   2.201   1.657   0.967  1.9169 -0.3277  0.7114
  431SOL    HW2 1293   2.035   1.642   0.928 -1.1926 -2.4293  1.5721
  432SOL     OW 1294   2.941   2.162   1.274 -0.2375  0.4902 -0.4495
  432SOL    HW1 1295   2.869   2.094   1.313  1.0923 -2.7410 -2.0088
  432SOL    HW2 1296   2.920   2.257   1.314 -0.1211  1.3795  1.0914
  433SOL     OW 1297   1.847   0.347   0.836  0.3694 -1.7163 -0.5599
  433SOL    HW1 1298   1.779   0.280   0.874  0.6957  0.8920 -0.1989
  433SOL    HW2 1299   1.900   0.401   0.903 -0.4048 -1.8512  1.9823
  434SOL     OW 1300   1.467   0.220   0.738 -0.0519 -0.0322 -0.5752
  434SOL    HW1 1301   1.462   0.308   0.680  0.9912 -0.8954  1.5220
  434SOL    HW2 1302   1.510   0.243   0.827  0.9292 -1.5013 -0.8224
  435SOL     OW 1303   1.442   1.384   2.080  0.0975  0.1828 -0.4356
  435SOL    HW1 1304   1.403   1.397   2.177  1.7293 -0.3317  2.0437
  435SOL    HW2 1305   1.395   1.447   2.014  0.3432  1.5064 -1.1646
  436SOL     OW 1306   1.672   2.700   2.440 -0.1681 -0.5247  0.5851
  436SOL    HW1 1307   1.693   2.790   2.489 -0.3172 -0.8521  1.0792
  436SOL    HW2 1308   1.605   2.630   2.481  1.4304  0.5625 -0.1596
  437SOL     OW 1309   1.035   3.028   0.871 -0.3763 -0.4828 -0.0288
  437SOL    HW1 1310   0.984   3.105   0.824 -2.0602  0.8228  0.6866
  437SOL    HW2 1311   1.072   3.051   0.970  0.3016  2.2982 -0.2612
  438SOL     OW 1312   1.000   2.570   1.263 -0.4517 -0.1858  0.2229
  438SOL    HW1 1313   1.072   2.644   1.272  1.5365 -2.1344  0.1926
  438SOL    HW2 1314   1.027   2.487   1.314  0.2565  1.3807 -0.2063
  439SOL     OW 1315   0.725   1.688   1.068 -0.4484 -0.2247 -0.0762
  439SOL    HW1 1316   0.772   1.778   1.050 -1.2402 -0.3963 -2.2395
  439SOL    HW2 1317   0.626   1.699   1.100  0.2165 -1.1251 -1.5739
  440SOL     OW 1318   0.940   2.328   2.008  0.5928  0.3883 -0.3911
  440SOL    HW1 1319   0.961   2.408   1.944 -1.4653 -2.1350 -2.9026
  440SOL    HW2 1320   0.954   2.236   1.958 -0.3406 -1.1607  1.2224
  441SOL     OW 1321   0.362   2.801   1.312  0.0433  0.3044  0.4283
  441SOL    HW1 1322   0.400   2.704   1.318 -2.2490  2.0031  1.1727
  441SOL    HW2 1323   0.344   2.838   1.216  1.8651  0.5612 -0.8133
  442SOL     OW 1324   2.223   0.684   2.561  0.0426 -0.1911  0.3717
  442SOL    HW1 1325   2.214   0.606   2.494 -2.0127 -1.0545  1.0663
  442SOL    HW2 1326   2.137   0.743   2.566  0.4372 -1.6321 -1.1472
  443SOL     OW 1327   1.334   2.488   2.250 -0.5085  0.0783 -0.3544
  443SOL    HW1 1328   1.292   2.420   2.314  0.0457  1.2389 -0.3271
  443SOL    HW2 1329   1.303   2.581   2.274 -0.5238 -0.6176 -1.2765
  444SOL     OW 1330   0.942   1.128   1.425  0.3786  1.0144  0.4457
  444SOL    HW1 1331   1.036   1.090   1.437 -2.1497  1.8563 -0.4492
  444SOL    HW2 1332   0.932   1.230   1.404 -1.2279  0.6977  1.8868
  445SOL     OW 1333   0.158   2.102   2.015  0.0887  0.1781  0.3446
  445SOL    HW1 1334   0.187   2.011   2.062  0.9696 -1.3004  0.3005
  445SOL    HW2 1335   0.101   2.164   2.071 -1.6618  0.0645 -0.1050
  446SOL     OW 1336   0.142   1.996   2.383 -0.7136  0.0964 -0.1859
  446SOL    HW1 1337   0.106   2.096   2.360 -0.9902  0.3890  1.9266
  446SOL    HW2 1338   0.150   1.938   2.295  0.8660  1.1643 -0.9790
  447SOL     OW 1339   1.328   1.583   1.892 -0.4461  1.1153  0.9553
  447SOL    HW1 1340   1.266   1.651   1.842 -2.5193  0.8520  1.2825
  447SOL    HW2 1341   1.400   1.637   1.950  0.7022  1.3619  0.4978
  448SOL     OW 1342   0.144   1.471   2.027  0.2374 -0.0836 -0.0350
  448SOL    HW1 1343   0.138   1.561   1.978  1.1161  1.9156  0.8260
  448SOL    HW2 1344   0.087   1.472   2.117 -2.4449 -1.8848 -1.6539
  449SOL     OW 1345   1.867   3.028   0.836  0.2723  0.3190  0.3536
  449SOL    HW1 1346   1.878   3.047   0.937 -1.4265 -0.6779 -4.2001
  449SOL    HW2 1347   1.868   2.932   0.804  0.3713  1.3104  0.2934
  450SOL     OW 1348   2.158   1.503   0.676  0.3296  0.2298  0.1627
  450SOL    HW1 1349   2.135   1.520   0.775  0.2302 -0.2428 -1.0912
  450SOL    HW2 1350   2.231   1.564   0.643 -0.1651 -2.8201  2.2351
  451SOL     OW 1351   1.398   2.980   1.494  0.1181  0.1845 -0.3627
  451SOL    HW1 1352   1.337   3.054   1.533  2.5123  0.4077 -2.9495
  451SOL    HW2 1353   1.415   2.907   1.562 -1.1374 -0.1430 -3.4038
  452SOL     OW 1354   2.683   2.301   2.259 -0.3208  1.0183  0.3198
  452SOL    HW1 1355   2.610   2.381   2.262 -2.3006  0.3261 -0.3204
  452SOL    HW2 1356   2.703   2.256   2.352 -2.0910  0.7707  0.4873
  453SOL     OW 1357   2.485   2.684   0.010  0.4979 -0.4035  0.1525
  453SOL    HW1 1358   2.397   2.739   0.025 -0.9503  3.6158 -0.2579
  453SOL    HW2 1359   2.476   2.626  -0.078 -0.6007 -0.1891 -1.7783
  454SOL     OW 1360   0.873   1.167   2.016  0.4562 -0.4190  0.3815
  454SOL    HW1 1361   0.831   1.175   1.920 -1.7502  0.2215  1.9817
  454SOL    HW2 1362   0.976   1.192   2.022  2.1341  4.1254 -0.4308
  455SOL     OW 1363   0.792   2.609   2.784 -0.2549  0.0185  0.3418
  455SOL    HW1 1364   0.897   2.623   2.786  0.3640 -0.6040 -0.2849
  455SOL    HW2 1365   0.753   2.529   2.843 -0.2103  0.3530 -3.4132
  456SOL     OW 1366   0.298   1.933   0.193  0.3739 -0.2544  0.3384
  456SOL    HW1 1367   0.396   1.955   0.170 -0.4734 -2.2249 -0.1766
  456SOL    HW2 1368   0.230   2.006   0.168 -0.9164  0.0008  2.2630
  457SOL     OW 1369   0.413   2.701   0.633 -0.1340 -0.3596  0.0483
  457SOL    HW1 1370   0.475   2.748   0.562  0.9632 -2.1920  1.6202
  457SOL    HW2 1371   0.460   2.625   0.685  1.9996 -0.5829  0.6179
  458SOL     OW 1372   2.971   0.014   1.300 -0.0716 -0.3177 -0.8496
  458SOL    HW1 1373   3.016   0.095   1.253 -2.6021  2.0267  0.0414
  458SOL    HW2 1374   2.967  -0.068   1.234  2.5646  0.0404  0.4616
  459SOL     OW 1375   2.115   2.537   0.746  0.0547 -0.3711 -0.2504
  459SOL    HW1 1376   2.192   2.530   0.818 -0.3187 -4.6869 -2.0422
  459SOL    HW2 1377   2.140   2.549   0.652  0.1358  1.1005  2.1466
  460SOL     OW 1378   1.221   2.086   2.801 -0.2275 -0.3230  0.0595
  460SOL    HW1 1379   1.241   2.093   2.701  2.4520 -1.9026 -0.2481
  460SOL    HW2 1380   1.210   1.986   2.831  0.4698 -0.8767 -0.2452
  461SOL     OW 1381   0.471   2.113   2.726  0.0372 -0.2306  0.8260
  461SOL    HW1 1382   0.371   2.099   2.717 -0.3668 -0.1643 -0.0969
  461SOL    HW2 1383   0.526   2.032   2.758 -0.9462  0.7873  0.9448
  462SOL     OW 1384   0.977   1.043   1.731 -0.2910 -0.4131 -0.4316
  462SOL    HW1 1385   0.980   0.987   1.645 -0.6501 -0.6676  0.8143
  462SOL    HW2 1386   0.901   1.111   1.734  1.4325  0.0034 -1.4720
  463SOL     OW 1387   0.416   0.786   0.500  0.0848 -0.2883  0.0136
  463SOL    HW1 1388   0.454   0.710   0.438  2.0722 -2.7472 -0.0569
  463SOL    HW2 1389   0.323   0.767   0.548  1.7463 -1.9366  2.4712
  464SOL     OW 1390   0.546   2.339   2.289 -0.4497  0.1450 -0.0996
  464SOL    HW1 1391   0.478   2.398   2.342 -1.0288 -2.3392 -1.8459
  464SOL    HW2 1392   0.544   2.358   2.187 -2.2176  0.2439  1.4376
  465SOL     OW 1393   0.237   0.956   0.813  0.1701  0.8980  0.0927
  465SOL    HW1 1394   0.157   0.981   0.751 -0.8878  1.2574  0.8262
  465SOL    HW2 1395   0.264   0.854   0.795  0.0063 -1.7298 -1.8841
  466SOL     OW 1396   1.362   1.141   0.847 -0.2886  0.4019 -0.0802
  466SOL    HW1 1397   1.348   1.237   0.887 -0.6948  1.9470 -1.4889
  466SOL    HW2 1398   1.278   1.084   0.861  0.0331  1.5194  1.7346
  467SOL     OW 1399   0.600   0.450   2.540  0.8015 -0.5036  1.2153
  467SOL    HW1 1400   0.538   0.533   2.560  2.7109  1.9178 -1.1843
  467SOL    HW2 1401   0.557   0.371   2.585 -1.0265  1.0513 -2.3518
  468SOL     OW 1402   0.484   2.272   1.609 -0.1276 -0.3875 -0.4680
  468SOL    HW1 1403   0.572   2.322   1.638  0.6189 -2.0536 -1.5013
  468SOL    HW2 1404   0.474   2.267   1.504 -2.2264  3.8782  0.3782
  469SOL     OW 1405   1.445   1.349   1.206 -0.4774  0.0838  0.5631
  469SOL    HW1 1406   1.538   1.338   1.163 -0.9257 -2.4328  0.2214
  469SOL    HW2 1407   1.434   1.442   1.247 -1.3344 -1.0661 -0.5827
  470SOL     OW 1408   2.964   1.844   0.801  0.3329 -0.0001 -0.0087
  470SOL    HW1 1409   3.038   1.895   0.751  1.5284  2.4718  0.5141
  470SOL    HW2 1410   2.984   1.833   0.901 -0.4998  0.4014 -0.5645
  471SOL     OW 1411   2.688   1.390   2.168  0.2791  0.1013  0.3245
  471SOL    HW1 1412   2.663   1.289   2.186 -0.3170 -0.9146  1.0850
  471SOL    HW2 1413   2.699   1.450   2.249  0.8215 -1.7858  2.8225
  472SOL     OW 1414   1.287   2.397   0.052  0.2870 -0.3359  0.4365
  472SOL    HW1 1415   1.354   2.322   0.085  1.5998 -0.2340  3.4644
  472SOL    HW2 1416   1.192   2.390   0.096  1.0967 -0.1162  3.1253
  473SOL     OW 1417   1.068   1.491   0.962  0.0584  0.2233 -0.2084
  473SOL    HW1 1418   0.968   1.485   0.935  0.7069  1.0933 -0.2115
  473SOL    HW2 1419   1.099   1.414   1.024 -0.1651 -0.0053  0.7803
  474SOL     OW 1420   0.627   1.273   0.423  0.6849  0.1832  0.6342
  474SOL    HW1 1421   0.554   1.212   0.382  2.3918 -0.3494 -2.4765
  474SOL    HW2 1422   0.688   1.221   0.489 -4.5946 -1.3868  0.2452
  475SOL     OW 1423   2.894   0.007   0.882 -0.1437  0.5474 -0.6412
  475SOL    HW1 1424   2.916   0.096   0.926  1.4327  0.6206 -1.2364
  475SOL    HW2 1425   2.801   0.016   0.838  0.4541 -0.8638 -0.3616
  476SOL     OW 1426   0.972   3.071   1.820  0.2477  0.0370 -0.3280
  476SOL    HW1 1427   1.067   3.085   1.856 -2.5003  0.2491  1.8064
  476SOL    HW2 1428   0.964   3.021   1.730  1.2925 -1.2272  2.9032
  477SOL     OW 1429   1.469   0.305   2.453 -0.4592  0.3977  0.1109
  477SOL    HW1 1430   1.495   0.329   2.549  1.0528 -2.4803  1.1506
  477SOL    HW2 1431   1.535   0.238   2.413  1.2779  1.2239 -1.9804
  478SOL     OW 1432   2.268   1.952   0.346 -0.3491 -0.3985  0.2365
  478SOL    HW1 1433   2.194   1.904   0.396  0.9179 -1.0324  3.6222
  478SOL    HW2 1434   2.331   1.883   0.294 -0.0848  1.9172 -0.6932
  479SOL     OW 1435   1.290   1.030   2.886 -0.3020 -0.1726 -0.1146
  479SOL    HW1 1436   1.389   1.020   2.851  3.5269 -2.3218 -0.2272
  479SOL    HW2 1437   1.223   0.959   2.844  0.7055 -2.4755 -1.9582
  480SOL     OW 1438   2.635   2.250   0.432  0.1637  0.6077  0.0034
  480SOL    HW1 1439   2.713   2.194   0.480 -0.2458 -0.6078 -0.1602
  480SOL    HW2 1440   2.541   2.221   0.462 -0.2557 -1.8811  1.7111
  481SOL     OW 1441   0.942   1.108   0.734  0.1510  0.1952 -0.0842
  481SOL    HW1 1442   0.996   1.171   0.684 -0.0493 -0.6142  1.1333
  481SOL    HW2 1443   0.988   1.077   0.822 -0.2400 -1.2949 -0.9376
  482SOL     OW 1444   1.575   0.278   2.013 -0.2746  0.0965  0.5581
  482SOL    HW1 1445   1.576   0.372   1.972 -1.8280 -1.7679 -0.2999
  482SOL    HW2 1446   1.663   0.243   2.056  0.3856  2.0625  1.2311
  483SOL     OW 1447   0.171   2.363   1.200  0.0022  0.6107 -0.5478
  483SOL    HW1 1448   0.171   2.440   1.262 -0.5785  2.3164 -0.9412
  483SOL    HW2 1449   0.213   2.394   1.108 -0.2590 -2.2545  0.2755
  484SOL     OW 1450   1.730   1.050   1.445  0.3235 -0.4806  0.1085
  484SOL    HW1 1451   1.814   0.989   1.438 -1.3106  0.2122  0.2857
  484SOL    HW2 1452   1.742   1.150   1.441 -0.5254 -1.7603  0.0518
  485SOL     OW 1453   0.792   0.739   1.924 -0.3450  0.1335  0.2946
  485SOL    HW1 1454   0.744   0.765   1.836  0.0191  2.1718  0.1689
  485SOL    HW2 1455   0.872   0.680   1.905 -0.9316 -0.1326 -0.4653
  486SOL     OW 1456   0.915   1.842   2.477 -0.0357  0.6182  0.1537
  486SOL    HW1 1457   0.937   1.814   2.580  1.7936  0.5710  0.9297
  486SOL    HW2 1458   0.890   1.944   2.476 -2.4530  1.9475  2.9375
  487SOL     OW 1459   1.757   1.560   1.037 -0.3743  0.4600 -0.3973
  487SOL    HW1 1460   1.773   1.459   1.053 -0.0658  0.9310 -1.1631
  487SOL    HW2 1461   1.799   1.592   0.945 -0.1527 -2.8689 -1.5510
  488SOL     OW 1462   2.879   0.854   2.286  0.6863 -0.7495 -0.5181
  488SOL    HW1 1463   2.977   0.828   2.290 -0.1871 -1.5885 -2.0432
  488SOL    HW2 1464   2.817   0.787   2.339  1.7800  0.2748 -0.1506
  489SOL     OW 1465   2.867   0.317   1.287 -1.0777  0.1601  0.1523
  489SOL    HW1 1466   2.853   0.321   1.392  1.0448  0.2703  1.2030
  489SOL    HW2 1467   2.956   0.283   1.255  0.1657  1.6218 -0.7739
  490SOL     OW 1468   1.526   3.009   2.786 -0.5302  0.5178  0.1235
  490SOL    HW1 1469   1.533   2.906   2.806 -0.6843  0.1619  0.0878
  490SOL    HW2 1470   1.461   3.036   2.709 -2.2722 -0.2740  0.4170
  491SOL     OW 1471   1.785   1.518   2.741 -0.0005 -0.5314  0.6373
  491SOL    HW1 1472   1.769   1.440   2.812 -1.8084 -2.7278  1.6510
  491SOL    HW2 1473   1.890   1.546   2.741  2.9983 -0.9372  0.5626
  492SOL     OW 1474   0.684   2.150   0.591  0.0424 -0.7940  0.4387
  492SOL    HW1 1475   0.679   2.196   0.692 -0.9606  3.0418  0.9082
  492SOL    HW2 1476   0.604   2.171   0.535  0.4755  0.3317  1.1913
  493SOL     OW 1477   0.390   1.343   2.098 -0.0882 -0.3555 -0.0406
  493SOL    HW1 1478   0.297   1.388   2.083  0.2724  1.8341  1.5790
  493SOL    HW2 1479   0.376   1.245   2.123 -0.8788  0.0309 -0.4222
  494SOL     OW 1480   2.718   2.653   0.155 -0.3102 -0.0994  0.1789
  494SOL    HW1 1481   2.710   2.641   0.261 -1.5596  0.0233  2.4415
  494SOL    HW2 1482   2.624   2.658   0.102 -1.8374  1.1180  0.1186
  495SOL     OW 1483   2.543   2.807   2.679  0.1174  0.2225 -0.7004
  495SOL    HW1 1484   2.516   2.708   2.678 -1.7117 -0.9889 -0.2277
  495SOL    HW2 1485   2.608   2.822   2.594  1.1278  0.9813 -1.9588
  496SOL     OW 1486   1.995   2.240   0.847 -0.1738  0.2014  0.0433
  496SOL    HW1 1487   2.053   2.159   0.830 -0.7689  3.4845  0.9892
  496SOL    HW2 1488   2.043   2.301   0.915  0.0747  1.0833 -1.5390
  497SOL     OW 1489   0.355   2.972   2.346  0.4066 -0.3347 -0.2909
  497SOL    HW1 1490   0.277   3.020   2.392 -3.4527 -1.1978  0.4878
  497SOL    HW2 1491   0.386   3.020   2.262  0.7638  0.4099 -0.7987
  498SOL     OW 1492   1.150   1.281   1.144  0.7337  0.2113  0.4472
  498SOL    HW1 1493   1.245   1.280   1.179 -0.5787  1.0582  2.0853
  498SOL    HW2 1494   1.092   1.337   1.206  3.5313  0.4228 -0.3927
  499SOL     OW 1495   0.626   1.686   0.456 -0.1611  0.6898 -0.1237
  499SOL    HW1 1496   0.630   1.677   0.351  0.7402 -1.1576  0.3990
  499SOL    HW2 1497   0.700   1.750   0.491  1.3999 -0.3568  0.1595
  500SOL     OW 1498   1.464   2.790   1.658 -0.1665 -0.3581  0.3859
  500SOL    HW1 1499   1.470   2.765   1.753  1.4536  0.5365  0.4647
  500SOL    HW2 1500   1.512   2.720   1.599 -0.5822  1.7892 -1.3282
  501SOL     OW 1501   0.805   1.252   2.260 -0.5677 -0.1740  0.5538
  501SOL    HW1 1502   0.738   1.178   2.290 -0.0945 -1.3491  2.1392
  501SOL    HW2 1503   0.828   1.245   2.162  0.0231  0.8607  1.3757
  502SOL     OW 1504   2.531   0.950   1.784  0.1166 -0.7231  0.0643
  502SOL    HW1 1505   2.553   0.973   1.689 -0.2911  0.3707  3.4171
  502SOL    HW2 1506   2.522   0.843   1.790 -2.4156 -0.2020 -3.0364
  503SOL     OW 1507   1.198   0.135   0.688  0.1971  0.1035  0.2073
  503SOL    HW1 1508   1.132   0.202   0.730  2.4969 -2.7902  2.9309
  503SOL    HW2 1509   1.301   0.156   0.696  2.0290 -1.6740 -0.5665
  504SOL     OW 1510   2.955   2.384   1.499 -0.3124  0.1017  0.5762
  504SOL    HW1 1511   2.911   2.442   1.570  1.6739  1.0271  3.9234
  504SOL    HW2 1512   2.991   2.293   1.536 -1.9285 -1.4659 -0.7302
  505SOL     OW 1513   2.334   1.163   1.513 -0.3468 -0.1877 -0.4507
  505SOL    HW1 1514   2.325   1.178   1.407 -0.0312 -0.4913 -0.6643
  505SOL    HW2 1515   2.382   1.239   1.571  0.2306  0.6987 -0.6134
  506SOL     OW 1516   1.930   0.245   1.900 -0.0028  0.2219 -0.0690
  506SOL    HW1 1517   2.018   0.196   1.874 -0.8970  0.9736 -0.8970
  506SOL    HW2 1518   1.941   0.343   1.897 -1.4586 -3.0400 -0.7694
  507SOL     OW 1519   0.496   0.766   2.167 -0.3210 -0.0097 -0.3429
  507SOL    HW1 1520   0.443   0.726   2.085 -0.7305  0.8029 -3.2913
  507SOL    HW2 1521   0.556   0.699   2.213 -3.9399 -1.9040 -1.8207
  508SOL     OW 1522   0.320   1.631   0.805 -0.0424  0.2083 -0.5570
  508SOL    HW1 1523   0.408   1.658   0.752 -0.5518  0.1371 -3.3886
  508SOL    HW2 1524   0.288   1.697   0.884  1.2180 -0.8846 -1.2114
  509SOL     OW 1525   1.278   1.181   2.442 -0.3592  0.0036  0.2817
  509SOL    HW1 1526   1.280   1.147   2.340  0.9343 -1.6263  1.0702
  509SOL    HW2 1527   1.189   1.140   2.482  1.8041 -0.9806  2.8005
  510SOL     OW 1528   1.412   2.044   2.175  0.4609  0.2268  0.6772
  510SOL    HW1 1529   1.346   2.091   2.108  2.8239 -1.6332  0.5823
  510SOL    HW2 1530   1.381   1.949   2.192 -0.1955 -1.0071  2.9585
  511SOL     OW 1531   2.999   2.644   1.385  0.0620  0.1720 -0.6085
  511SOL    HW1 1532   2.940   2.680   1.310  0.9432  0.8358  0.3325
  511SOL    HW2 1533   2.980   2.545   1.412  0.3683  1.7403  0.0114
  512SOL     OW 1534   2.384   0.435   1.370 -0.1688 -0.0823 -0.2364
  512SOL    HW1 1535   2.289   0.442   1.329 -1.2574  0.8032 -0.7516
  512SOL    HW2 1536   2.433   0.356   1.324 -0.8469 -0.1893  0.2668
  513SOL     OW 1537   2.583   2.154   0.951 -0.4257 -0.4161 -0.5622
  513SOL    HW1 1538   2.530   2.214   0.890  0.9655  0.5133 -2.8770
  513SOL    HW2 1539   2.666   2.113   0.904 -0.5984 -1.1943  0.8261
  514SOL     OW 1540   0.566   2.798   0.437 -0.4482 -0.2348  0.5815
  514SOL    HW1 1541   0.598   2.828   0.342  1.6169  1.6680 -0.4228
  514SOL    HW2 1542   0.629   2.827   0.514 -0.6151  1.2679 -2.3898
  515SOL     OW 1543   1.943   1.349   2.399  0.1415  0.0313  0.5710
  515SOL    HW1 1544   1.972   1.304   2.312  1.0593 -0.8598  1.7316
  515SOL    HW2 1545   1.857   1.308   2.439 -1.3480 -0.1781  1.2020
  516SOL     OW 1546   0.226   0.147   1.927  0.5477 -0.1106  0.0349
  516SOL    HW1 1547   0.316   0.180   1.884  1.0937 -0.3183  1.0839
  516SOL    HW2 1548   0.160   0.107   1.861  0.0336  1.8977  2.4358
  517SOL     OW 1549   0.485   0.251   1.113  0.5942  0.1425 -0.2615
  517SOL    HW1 1550   0.535   0.199   1.185  0.0643 -0.5228 -1.2671
  517SOL    HW2 1551   0.400   0.202   1.095  1.6903  1.6010 -1.8671
  518SOL     OW 1552   2.235   3.043   1.873 -0.4822 -0.9602  0.4856
  518SOL    HW1 1553   2.236   3.148   1.864  1.1467  0.3864  2.4963
  518SOL    HW2 1554   2.220   2.993   1.786 -0.2217 -0.9276 -0.0297
  519SOL     OW 1555   2.382   2.239   2.532 -0.1925 -0.2840 -0.0292
  519SOL    HW1 1556   2.293   2.227   2.580  0.5674 -1.3092  0.5971
  519SOL    HW2 1557   2.429   2.328   2.558 -0.8108  1.2556  0.2249
  520SOL     OW 1558   1.779   2.635   1.709 -0.4378  0.0056 -0.4371
  520SOL    HW1 1559   1.727   2.601   1.797 -0.9554 -0.6254  1.0277
  520SOL    HW2 1560   1.854   2.572   1.687 -0.9406 -0.0345  0.7338
  521SOL     OW 1561   0.626   0.087   2.156  0.7423 -0.1523 -0.0336
  521SOL    HW1 1562   0.539   0.043   2.115 -0.3447 -1.5299 -4.5874
  521SOL    HW2 1563   0.641   0.074   2.257  0.3423 -1.1879 -0.5633
  522SOL     OW 1564   0.202   1.903   1.544  0.5892  0.6106 -0.3803
  522SOL    HW1 1565   0.252   1.972   1.601 -0.5586  0.3383  1.3275
  522SOL    HW2 1566   0.163   1.942   1.454 -0.0536  4.0093  1.6504
  523SOL     OW 1567   2.211   2.990   1.582  0.1632 -0.4703 -0.1855
  523SOL    HW1 1568   2.301   2.931   1.561 -2.5137 -1.3377 -0.4499
  523SOL    HW2 1569   2.123   2.952   1.541 -0.5775 -1.4594  0.2128
  524SOL     OW 1570   0.203   2.751   2.808 -0.0203  0.3551  0.3360
  524SOL    HW1 1571   0.165   2.780   2.899 -0.5017  2.9525  1.2984
  524SOL    HW2 1572   0.307   2.743   2.814 -3.0128 -0.0432  2.9352
  525SOL     OW 1573   2.141   2.139   0.497 -0.4834 -0.1963 -0.2055
  525SOL    HW1 1574   2.102   2.084   0.575  1.4308 -2.5184  1.2824
  525SOL    HW2 1575   2.184   2.081   0.417 -0.4374 -1.2557 -1.1141
  526SOL     OW 1576   0.415   1.486   1.673 -0.2685  0.3402  0.1216
  526SOL    HW1 1577   0.434   1.566   1.738 -2.5317 -0.9155  0.8120
  526SOL    HW2 1578   0.407   1.397   1.721 -1.3989  0.1447  0.2244
  527SOL     OW 1579   1.145   3.070   1.119  0.4298 -0.1976 -0.2615
  527SOL    HW1 1580   1.191   2.989   1.168  0.5835 -1.9403 -3.2548
  527SOL    HW2 1581   1.212   3.150   1.119 -2.3152  2.1378  0.0961
  528SOL     OW 1582   1.306   2.428   0.629 -0.3499  0.2270 -0.1922
  528SOL    HW1 1583   1.338   2.325   0.642  0.2137 -0.3180 -1.2361
  528SOL    HW2 1584   1.374   2.498   0.655 -1.1174 -2.1791  0.5170
  529SOL     OW 1585   1.878   1.692   0.811 -0.5514  0.4929  0.3211
  529SOL    HW1 1586   1.811   1.684   0.729  0.5912 -0.6843 -2.7069
  529SOL    HW2 1587   1.894   1.792   0.833 -0.9624  1.8537  0.5204
  530SOL     OW 1588   0.475   2.551   0.140 -0.3671 -0.2091 -0.5160
  530SOL    HW1 1589   0.484   2.529   0.239  1.2711  1.2559  0.3893
  530SOL    HW2 1590   0.461   2.458   0.086 -0.1123 -2.1656  0.7029
  531SOL     OW 1591   1.797   0.965   1.034  0.7045  0.3507  0.2228
  531SOL    HW1 1592   1.815   0.980   0.933 -0.7828  1.8849  0.9401
  531SOL    HW2 1593   1.695   0.957   1.059  0.0390  1.1784 -1.2809
  532SOL     OW 1594   0.393   1.148   0.690  0.4304  0.8047 -0.0708
  532SOL    HW1 1595   0.397   1.144   0.582  0.0104  1.0252  0.2394
  532SOL    HW2 1596   0.336   1.071   0.725  1.0017  0.5042  1.1217
  533SOL     OW 1597   1.822   3.084   2.661 -0.6816  0.1253 -0.1014
  533SOL    HW1 1598   1.922   3.089   2.646 -2.1178 -0.0076 -1.2361
  533SOL    HW2 1599   1.770   3.174   2.666  1.3696  0.1898  0.4657
  534SOL     OW 1600   0.181   0.185   1.565 -0.4783 -0.0664 -0.2886
  534SOL    HW1 1601   0.243   0.259   1.537 -1.7653 -1.5669 -1.0550
  534SOL    HW2 1602   0.087   0.213   1.552  2.1658  0.0512  0.6548
  535SOL     OW 1603   1.890   0.394   0.174  0.3553 -0.2673  0.0212
  535SOL    HW1 1604   1.952   0.461   0.223  3.3017 -4.2944  0.6084
  535SOL    HW2 1605   1.790   0.375   0.224 -1.7527  1.6544 -1.2006
  536SOL     OW 1606   1.222   2.488   0.918  0.0593 -0.2331 -0.1679
  536SOL    HW1 1607   1.305   2.440   0.886  1.3842 -0.9906  0.3297
  536SOL    HW2 1608   1.170   2.536   0.842  0.3839  0.2788  0.1076
  537SOL     OW 1609   0.909   0.206   2.310 -0.2144  0.5101 -0.1166
  537SOL    HW1 1610   0.835   0.155   2.258 -2.2515 -0.1889  1.4251
  537SOL    HW2 1611   0.999   0.148   2.327  1.5255 -0.5659  1.1522
  538SOL     OW 1612   1.742   2.209   1.610 -0.2415 -0.0272  0.1946
  538SOL    HW1 1613   1.676   2.143   1.566 -1.2498  0.6600 -0.7733
  538SOL    HW2 1614   1.804   2.273   1.547  0.5781  0.1039  0.7576
  539SOL     OW 1615   0.168   1.558   2.777 -0.1284 -0.2924  0.0366
  539SOL    HW1 1616   0.082   1.542   2.733  0.1593  0.2311  1.9929
  539SOL    HW2 1617   0.238   1.602   2.719 -1.0503  0.0042  1.5874
  540SOL     OW 1618   2.687   1.789   2.130 -0.9060 -0.0967  0.5507
  540SOL    HW1 1619   2.627   1.707   2.111  1.1770 -1.1173 -2.5913
  540SOL    HW2 1620   2.680   1.872   2.068  2.2707 -0.2990 -2.4899
  541SOL     OW 1621   0.440   2.319   0.025 -0.4899 -0.1864 -0.1355
  541SOL    HW1 1622   0.476   2.236   0.076 -2.4619 -0.2502  1.1959
  541SOL    HW2 1623   0.368   2.289  -0.038 -0.6008 -3.7351  0.5157
  542SOL     OW 1624   2.177   2.584   0.479 -0.4254 -0.2792 -0.2382
  542SOL    HW1 1625   2.156   2.674   0.430  1.0223  0.3119  0.6293
  542SOL    HW2 1626   2.099   2.524   0.491  0.8441  0.8210 -0.1663
  543SOL     OW 1627   1.107   1.716   1.780  0.1458  0.8924 -0.8292
  543SOL    HW1 1628   1.103   1.788   1.857 -2.8297  1.8125  0.1774
  543SOL    HW2 1629   1.045   1.746   1.708  0.3878 -1.8417  2.3118
  544SOL     OW 1630   0.841   0.490   0.107 -0.1336 -0.4415  0.2057
  544SOL    HW1 1631   0.883   0.424   0.173 -2.5854 -0.3678 -1.1734
  544SOL    HW2 1632   0.881   0.479   0.011  0.2687  1.9156 -0.1396
  545SOL     OW 1633   1.142   1.723   0.624 -0.2523 -0.4365  0.0717
  545SOL    HW1 1634   1.236   1.697   0.657  0.1724  1.9479  0.9331
  545SOL    HW2 1635   1.138   1.746   0.525 -0.7751 -0.9676  0.6960
  546SOL     OW 1636   2.685   1.608   0.031  0.9031 -0.0891 -0.0669
  546SOL    HW1 1637   2.718   1.605  -0.062  1.1743 -3.7530  2.2054
  546SOL    HW2 1638   2.590   1.566   0.034 -0.0139  1.9182 -3.7470
  547SOL     OW 1639   0.466   3.045   2.723  0.2040  0.1069  0.0732
  547SOL    HW1 1640   0.494   2.965   2.660  0.2734  1.3652 -0.5186
  547SOL    HW2 1641   0.460   3.011   2.817  0.9546  2.6233 -3.2775
  548SOL     OW 1642   2.070   0.773   2.969 -0.1355 -0.0789 -0.0334
  548SOL    HW1 1643   1.966   0.740   2.985 -2.2256 -3.2321  1.4014
  548SOL    HW2 1644   2.093   0.867   3.008  2.2178 -0.6696  0.8683
  549SOL     OW 1645   0.577   0.464   0.067  0.0323 -0.2956  0.4956
  549SOL    HW1 1646   0.533   0.543   0.019 -1.9205 -1.3277  2.6842
  549SOL    HW2 1647   0.677   0.470   0.080  0.7211  2.3046  0.2871
  550SOL     OW 1648   2.522   2.901   2.932 -0.3749  0.0093 -1.0005
  550SOL    HW1 1649   2.521   2.841   3.019 -0.7499  1.2113  0.8179
  550SOL    HW2 1650   2.546   2.854   2.842  3.0986 -1.1042 -0.5854
  551SOL     OW 1651   0.274   0.821   0.229 -0.0835  0.4052 -0.2680
  551SOL    HW1 1652   0.352   0.763   0.197 -1.9003  1.6380  0.6097
  551SOL    HW2 1653   0.249   0.806   0.329 -0.1289 -0.0655  1.2531
  552SOL     OW 1654   0.857   2.824   1.903  0.0757  0.3142  0.0840
  552SOL    HW1 1655   0.808   2.816   1.998  0.5295 -0.3902  2.9041
  552SOL    HW2 1656   0.889   2.919   1.884 -1.9684  0.8487 -1.7086
  553SOL     OW 1657   3.098   2.557   0.352 -0.4558  0.2507  0.3984
  553SOL    HW1 1658   3.034   2.472   0.359  1.0369 -1.5764 -2.0459
  553SOL    HW2 1659   3.164   2.560   0.433  3.2136 -2.7158 -1.4476
  554SOL     OW 1660   2.109   0.349   0.498 -0.0612  0.3547 -0.1252
  554SOL    HW1 1661   2.121   0.301   0.404  3.9463  2.1947 -0.5771
  554SOL    HW2 1662   2.079   0.281   0.567 -1.3537  0.6891 -1.0102
  555SOL     OW 1663   0.522   2.862   2.544  0.3146 -0.0158 -0.3499
  555SOL    HW1 1664   0.465   2.896   2.464  0.4540  0.1372 -2.5342
  555SOL    HW2 1665   0.592   2.793   2.503 -0.9372 -0.2970 -1.1424
  556SOL     OW 1666   0.984   2.357   1.622 -0.1174  0.5458  0.5711
  556SOL    HW1 1667   1.010   2.441   1.683  1.9088  1.8817 -0.1840
  556SOL    HW2 1668   1.024   2.355   1.528  0.5610 -0.8745 -0.1664
  557SOL     OW 1669   0.117   2.117   0.078  0.3602  0.3869  0.4518
  557SOL    HW1 1670   0.021   2.079   0.066 -0.5247  0.1833 -0.1699
  557SOL    HW2 1671   0.155   2.161  -0.009 -3.4222 -1.3889 -0.3260
  558SOL     OW 1672   2.995   2.311   0.279  0.5368 -0.0165  0.0169
  558SOL    HW1 1673   2.915   2.249   0.262 -2.1882 -0.7541 -1.2630
  558SOL    HW2 1674   3.021   2.366   0.195 -2.1605 -0.0291 -0.9073
  559SOL     OW 1675   0.436   2.264   1.352 -0.3644  0.2221 -0.1442
  559SOL    HW1 1676   0.343   2.286   1.309 -2.3846 -1.4038  0.0332
  559SOL    HW2 1677   0.477   2.172   1.318 -0.4272  0.2562 -0.1950
  560SOL     OW 1678   2.091   1.052   3.020 -0.5205  0.4621 -0.4008
  560SOL    HW1 1679   2.077   1.100   2.929  0.2528  0.6545 -2.3101
  560SOL    HW2 1680   2.033   1.096   3.093 -0.5572 -0.1642  0.2678
  561SOL     OW 1681   3.008   1.965   0.061  0.0600 -0.3767  0.5493
  561SOL    HW1 1682   2.977   1.866   0.064 -0.5131  1.9578  2.2532
  561SOL    HW2 1683   2.943   2.024   0.005 -0.1045  0.5041  0.9503
  562SOL     OW 1684   0.853   2.112   2.465  0.0825  0.1536 -0.1139
  562SOL    HW1 1685   0.751   2.094   2.488 -2.3319  2.1692  2.4523
  562SOL    HW2 1686   0.899   2.167   2.534 -1.7068  0.1356  1.9363
  563SOL     OW 1687   0.687   2.571   2.550 -0.7163 -0.1183  0.3086
  563SOL    HW1 1688   0.634   2.485   2.539 -0.5104 -0.1181 -1.3368
  563SOL    HW2 1689   0.721   2.602   2.642  0.1538  1.1359 -0.3852
  564SOL     OW 1690   2.761   1.340   2.937  0.1088 -0.1476  0.1692
  564SOL    HW1 1691   2.662   1.348   2.979 -1.3578  2.1658  1.6527
  564SOL    HW2 1692   2.799   1.425   2.887  0.1352 -1.4299 -1.7748
  565SOL     OW 1693   2.567   2.038   2.590 -0.4467 -0.1845 -0.8016
  565SOL    HW1 1694   2.501   2.106   2.541 -0.8928  0.1568  3.4601
  565SOL    HW2 1695   2.618   2.072   2.676  0.0767 -1.9356  0.2317
  566SOL     OW 1696   2.030   2.811   1.461  0.4514  0.1824 -0.1357
  566SOL    HW1 1697   2.049   2.715   1.491 -1.2399  2.7326 -0.2708
  566SOL    HW2 1698   2.057   2.832   1.366  0.4754 -0.0195 -0.5017
  567SOL     OW 1699   2.393   0.076   2.217 -0.0652  0.6110 -0.2651
  567SOL    HW1 1700   2.432   0.038   2.131  0.4759  0.4783  0.8463
  567SOL    HW2 1701   2.291   0.082   2.229 -0.4144 -0.9846 -1.2128
  568SOL     OW 1702   1.396   1.802   0.445  0.4088  0.1978  0.7871
  568SOL    HW1 1703   1.373   1.878   0.385  2.0936 -1.4654  2.0958
  568SOL    HW2 1704   1.384   1.820   0.549  1.6136 -1.3795  1.5935
  569SOL     OW 1705   0.286   0.693   0.764  0.1713 -0.0817 -0.2694
  569SOL    HW1 1706   0.342   0.637   0.699  2.0042 -0.7232 -2.5094
  569SOL    HW2 1707   0.184   0.655   0.758 -3.1630  2.1105  1.4433
  570SOL     OW 1708   0.584   0.879   2.808  0.0314  0.1054 -0.0160
  570SOL    HW1 1709   0.640   0.882   2.722  1.1025  1.3303 -0.4201
  570SOL    HW2 1710   0.598   0.963   2.872  1.5691 -0.5684  1.4106
  571SOL     OW 1711   0.860   3.078   1.188 -0.2816 -0.2460  0.2466
  571SOL    HW1 1712   0.831   3.140   1.109 -0.8459  0.1148  1.4741
  571SOL    HW2 1713   0.965   3.072   1.189  0.5350  0.1555  0.1536
  572SOL     OW 1714   1.484   2.564   1.179  0.1733  0.5302  0.0284
  572SOL    HW1 1715   1.422   2.479   1.205 -2.1508 -2.3152 -0.7769
  572SOL    HW2 1716   1.430   2.653   1.152  0.9971  1.4359 -1.5012
  573SOL     OW 1717   2.936   0.479   2.073  0.0769  0.4702 -0.5393
  573SOL    HW1 1718   2.925   0.383   2.115 -1.3988 -0.3732  0.8445
  573SOL    HW2 1719   2.850   0.516   2.042 -0.2424  1.1090  2.1659
  574SOL     OW 1720   0.260   1.781   1.029 -0.1010 -0.8878 -0.0412
  574SOL    HW1 1721   0.261   1.870   0.968 -1.3208 -0.3233 -1.3866
  574SOL    HW2 1722   0.167   1.766   1.075  0.9857 -1.8593  2.7829
  575SOL     OW 1723   0.974   2.186   1.027 -0.0325 -0.1280  0.0287
  575SOL    HW1 1724   0.973   2.262   1.098  2.2631  1.1364  0.5512
  575SOL    HW2 1725   1.060   2.186   0.973 -2.6279  1.9741 -2.2671
  576SOL     OW 1726   2.860   2.898   1.741  0.3289  0.3458  0.2251
  576SOL    HW1 1727   2.823   2.831   1.677  0.2776  1.5074  1.4175
  576SOL    HW2 1728   2.790   2.929   1.811 -0.1945  1.0044 -1.7031
  577SOL     OW 1729   2.534   1.253   3.059 -0.2393 -0.0226 -0.0075
  577SOL    HW1 1730   2.497   1.166   3.021 -0.4984  1.0638 -0.9306
  577SOL    HW2 1731   2.601   1.242   3.144  1.1656  0.6310 -0.7286
  578SOL     OW 1732   1.302   2.780   2.547  0.4581 -0.2899  0.6655
  578SOL    HW1 1733   1.251   2.752   2.465  1.0359  1.1961  2.8734
  578SOL    HW2 1734   1.332   2.879   2.544  2.6995 -2.7041  0.4811
  579SOL     OW 1735   0.149   2.583   0.104 -0.3789 -0.1982  0.3598
  579SOL    HW1 1736   0.106   2.562   0.194 -1.8035 -0.5174  1.2187
  579SOL    HW2 1737   0.247   2.549   0.098 -1.8346  1.2160 -0.8903
  580SOL     OW 1738   0.929   2.672   0.390 -0.3049  0.1163 -0.1951
  580SOL    HW1 1739   1.024   2.698   0.361  1.3522  1.2870  2.7765
  580SOL    HW2 1740   0.893   2.589   0.333 -0.7479  0.6346 -0.4385
  581SOL     OW 1741   1.228   2.480   1.455 -0.3896  0.1398 -0.2216
  581SOL    HW1 1742   1.281   2.422   1.393 -1.9266  2.4185 -1.4359
  581SOL    HW2 1743   1.228   2.581   1.433 -0.2684  0.2079 -1.6440
  582SOL     OW 1744   1.523   0.061   1.869 -0.4134  0.4671 -0.1839
  582SOL    HW1 1745   1.529   0.147   1.918 -0.6535 -1.9115 -1.1187
  582SOL    HW2 1746   1.601   0.037   1.800  0.3689 -3.7981  0.9386
  583SOL     OW 1747   2.348   2.958   0.540  0.7053 -0.2342  0.5116
  583SOL    HW1 1748   2.406   2.902   0.475 -0.8529 -0.5178  1.5783
  583SOL    HW2 1749   2.319   2.911   0.629  0.3132 -0.0192 -1.2708
  584SOL     OW 1750   1.525   0.961   2.071  0.0930  0.0733 -0.2213
  584SOL    HW1 1751   1.590   1.005   1.997  0.4772  1.1923 -3.1520
  584SOL    HW2 1752   1.576   0.936   2.161  1.7421 -1.4634  0.7903
  585SOL     OW 1753   2.090   2.736   2.855 -0.2276 -0.2106 -0.4969
  585SOL    HW1 1754   2.125   2.634   2.851  1.6735 -1.5127  2.5522
  585SOL    HW2 1755   1.984   2.742   2.874  0.2984 -2.4977  4.2644
  586SOL     OW 1756   2.797   0.272   1.550  1.2091 -0.0182  0.4749
  586SOL    HW1 1757   2.769   0.358   1.602 -1.1698  1.2323 -1.1540
  586SOL    HW2 1758   2.728   0.193   1.545 -1.8203 -0.2613 -1.2377
  587SOL     OW 1759   2.050   1.606   2.711 -0.3838  0.0757  0.5752
  587SOL    HW1 1760   2.103   1.551   2.639  0.9936  2.6598 -1.4018
  587SOL    HW2 1761   2.093   1.635   2.799  0.8685 -0.9577 -3.2144
  588SOL     OW 1762   0.508   2.711   2.240  0.0300 -0.2680  0.1175
  588SOL    HW1 1763   0.433   2.746   2.173 -2.4715  0.2981 -1.2248
  588SOL    HW2 1764   0.469   2.635   2.303 -0.4902 -0.8200  1.0707
  589SOL     OW 1765   2.167   1.459   2.518 -0.0642  0.5463  0.0061
  589SOL    HW1 1766   2.089   1.406   2.473  1.6090 -0.8621 -1.8248
  589SOL    HW2 1767   2.240   1.406   2.572 -0.4385  0.5712 -0.6658
  590SOL     OW 1768   2.325   1.756   2.023  0.0375  0.1744  0.0625
  590SOL    HW1 1769   2.419   1.707   2.022 -1.5651 -0.1939 -0.3085
  590SOL    HW2 1770   2.315   1.814   2.113  0.6016 -1.7899  1.0969
  591SOL     OW 1771   1.331   2.445   0.340 -0.5180  0.5575  0.0227
  591SOL    HW1 1772   1.413   2.397   0.294  1.0081 -0.1369 -2.0531
  591SOL    HW2 1773   1.347   2.454   0.444  0.7072 -0.6155 -0.7132
  592SOL     OW 1774   1.725   2.338   0.774 -0.8852 -0.2520 -0.0563
  592SOL    HW1 1775   1.703   2.411   0.698 -1.5192 -1.8810 -0.5938
  592SOL    HW2 1776   1.826   2.316   0.782  0.5943  0.4080  1.1728
  593SOL     OW 1777   0.543   0.261   2.991  0.0411  0.4824  0.2281
  593SOL    HW1 1778   0.635   0.219   2.962 -2.7588 -0.0166 -2.8632
  593SOL    HW2 1779   0.560   0.318   3.073 -0.6582 -0.3543 -2.2578
  594SOL     OW 1780   0.953   1.873   2.756 -0.8276  0.1225 -0.6385
  594SOL    HW1 1781   1.057   1.880   2.742  0.7166 -3.2857 -2.2050
  594SOL    HW2 1782   0.915   1.952   2.814  0.2375 -1.4367  0.3573
  595SOL     OW 1783   1.543   3.072   1.044 -0.0938 -0.3494 -0.0331
  595SOL    HW1 1784   1.612   3.005   1.082  1.8798 -0.6049 -0.8448
  595SOL    HW2 1785   1.525   3.055   0.942  0.8616  3.1457  0.4233
  596SOL     OW 1786   3.068   1.487   2.229  0.3814 -0.0719 -0.1373
  596SOL    HW1 1787   2.973   1.519   2.237 -0.0529  2.7192  2.6397
  596SOL    HW2 1788   3.125   1.489   2.316 -1.8610  1.1522  0.9049
  597SOL     OW 1789   2.079   2.563   1.620 -0.5526  0.2224 -0.6642
  597SOL    HW1 1790   2.110   2.471   1.597 -2.1535  2.2941  1.3663
  597SOL    HW2 1791   2.115   2.601   1.707 -4.1454  0.2096 -0.6685
  598SOL     OW 1792   2.591   2.852   1.248  0.7444  0.2122 -0.2768
  598SOL    HW1 1793   2.651   2.882   1.329 -0.2023 -0.4448  0.4681
  598SOL    HW2 1794   2.642   2.864   1.155  0.8956 -0.7039 -0.6155
  599SOL     OW 1795   2.932   0.366   2.438 -0.2082 -0.2364 -0.4569
  599SOL    HW1 1796   3.032   0.385   2.417 -1.0522 -0.8881  0.9809
  599SOL    HW2 1797   2.871   0.416   2.370  2.7857  0.9353 -2.4752
  600SOL     OW 1798   2.794   1.106   2.747 -0.7369 -0.3240  0.3705
  600SOL    HW1 1799   2.819   1.047   2.830  1.0059 -1.1207  0.7582
  600SOL    HW2 1800   2.736   1.184   2.773  0.0462 -3.1244  0.2270
  601SOL     OW 1801   2.963   1.285   2.037  0.1177  0.0049  0.3772
  601SOL    HW1 1802   2.872   1.317   1.988 -0.6914  3.6766 -0.0523
  601SOL    HW2 1803   2.994   1.365   2.100 -0.2480  0.9200 -0.8055
  602SOL     OW 1804   1.533   1.629   2.283  0.7849  0.5086  0.2664
  602SOL    HW1 1805   1.458   1.565   2.314 -0.0057 -0.0893 -2.0332
  602SOL    HW2 1806   1.621   1.589   2.326  4.6147 -0.2322 -1.7083
  603SOL     OW 1807   0.724   1.245   2.596  0.0464 -0.4256 -0.0206
  603SOL    HW1 1808   0.636   1.208   2.557 -0.3886  1.7020 -0.3827
  603SOL    HW2 1809   0.785   1.173   2.624 -0.0477 -1.5430 -1.5576
  604SOL     OW 1810   2.396   1.052   0.213  0.0752 -0.1505  0.1100
  604SOL    HW1 1811   2.482   1.074   0.158  1.4868 -1.7598 -1.4332
  604SOL    HW2 1812   2.323   0.999   0.156 -1.3167  0.1148  0.3666
  605SOL     OW 1813   2.581   1.111   1.998  0.3919 -0.4400 -0.2063
  605SOL    HW1 1814   2.595   1.036   1.929 -1.0451  0.6405 -1.2736
  605SOL    HW2 1815   2.597   1.077   2.095  0.7451 -0.1011 -0.6650
  606SOL     OW 1816   1.477   2.538   2.553 -0.4149  0.1243 -0.1476
  606SOL    HW1 1817   1.393   2.595   2.534  2.5604 -1.9185 -0.4260
  606SOL    HW2 1818   1.478   2.439   2.519 -2.0969 -0.4612  1.2166
  607SOL     OW 1819   1.310   1.535   0.410 -0.2427  0.6412  0.8260
  607SOL    HW1 1820   1.283   1.505   0.505  1.6388 -1.5308  1.2785
  607SOL    HW2 1821   1.302   1.634   0.381 -1.0350 -0.1657  1.2715
  608SOL     OW 1822   1.388   2.869   0.374 -0.1300 -0.2231  0.3953
  608SOL    HW1 1823   1.429   2.941   0.314  0.8575 -3.1232  2.6225
  608SOL    HW2 1824   1.333   2.911   0.452 -0.0074  1.1775 -1.6788
  609SOL     OW 1825   1.355   1.358   0.225 -0.3527 -0.3831 -0.5371
  609SOL    HW1 1826   1.348   1.421   0.307  0.9514 -3.7510 -1.3698
  609SOL    HW2 1827   1.268   1.346   0.172 -0.9152 -0.1085 -1.0177
  610SOL     OW 1828   2.988   1.136   2.262  0.2183  0.1116 -0.1236
  610SOL    HW1 1829   2.928   1.052   2.268  2.0310 -0.2851 -0.1477
  610SOL    HW2 1830   3.001   1.167   2.163 -1.8659 -1.5050  0.2593
  611SOL     OW 1831   2.596   0.303   1.203  0.1571 -0.0184  0.5692
  611SOL    HW1 1832   2.572   0.217   1.155 -1.1911  1.8133  1.6914
  611SOL    HW2 1833   2.689   0.296   1.251 -0.4711  1.2868  1.8945
  612SOL     OW 1834   0.733   2.213   1.275 -0.0043 -0.7344 -0.3923
  612SOL    HW1 1835   0.672   2.128   1.272  0.5063  0.5554  1.8895
  612SOL    HW2 1836   0.710   2.280   1.206  2.5561 -1.2223 -0.7438
  613SOL     OW 1837   0.965   1.496   2.342 -0.1111 -1.0891  0.0482
  613SOL    HW1 1838   0.993   1.541   2.254  1.6544  1.5207 -0.6258
  613SOL    HW2 1839   0.931   1.398   2.327  0.5151 -2.6750  2.3233
  614SOL     OW 1840   1.605   1.527   1.731 -0.1282  0.6068  0.1439
  614SOL    HW1 1841   1.573   1.622   1.705  1.1292  1.2993 -3.9329
  614SOL    HW2 1842   1.657   1.533   1.821  0.6148  1.4312 -0.0110
  615SOL     OW 1843   0.788   1.236   1.757 -0.0676  0.2240 -0.4232
  615SOL    HW1 1844   0.720   1.226   1.687  0.6390  2.5253 -1.2499
  615SOL    HW2 1845   0.829   1.331   1.761 -0.0385 -1.4743  0.4795
  616SOL     OW 1846   1.075   1.557   2.086  0.2014  0.3154  0.1603
  616SOL    HW1 1847   1.051   1.584   1.986 -0.7371 -1.7755 -1.3760
  616SOL    HW2 1848   1.106   1.640   2.135 -0.9558 -0.3997 -1.5754
  617SOL     OW 1849   3.004   1.557   1.588 -0.2340 -0.6295 -0.1400
  617SOL    HW1 1850   3.017   1.468   1.640  0.1954  0.0335  0.9040
  617SOL    HW2 1851   3.008   1.549   1.483 -3.3112 -2.1393 -1.4197
  618SOL     OW 1852   1.873   1.949   1.406 -0.0927  0.4093 -0.1151
  618SOL    HW1 1853   1.898   2.015   1.335 -0.7597  0.7816 -1.1065
  618SOL    HW2 1854   1.866   1.849   1.368  1.1345 -1.9466  0.9437
  619SOL     OW 1855   1.714   0.434   2.341 -0.2894 -0.2655 -0.1127
  619SOL    HW1 1856   1.614   0.469   2.337  2.6323 -2.1062  0.0191
  619SOL    HW2 1857   1.716   0.333   2.368  1.5118 -1.2139 -1.5983
  620SOL     OW 1858   2.251   2.816   0.775 -0.2135  0.0544 -0.0145
  620SOL    HW1 1859   2.157   2.841   0.807  0.2835  0.1823  1.5502
  620SOL    HW2 1860   2.294   2.735   0.828  0.0263  0.9089 -0.4496
  621SOL     OW 1861   2.200   1.909   1.276 -0.0215 -0.0305  0.5759
  621SOL    HW1 1862   2.187   1.925   1.377  0.4703 -0.7804  0.7163
  621SOL    HW2 1863   2.185   1.809   1.249 -2.4096  1.6823 -2.4986
  622SOL     OW 1864   2.230   0.906   1.874  0.0391  0.8653 -0.1036
  622SOL    HW1 1865   2.328   0.888   1.872 -1.6474  1.4036  0.7926
  622SOL    HW2 1866   2.183   0.822   1.918 -1.2514  0.8645 -1.5788
  623SOL     OW 1867   1.277   0.847   2.536 -0.3669 -0.4550 -0.4002
  623SOL    HW1 1868   1.220   0.775   2.578 -1.3174  2.2217  0.0033
  623SOL    HW2 1869   1.239   0.885   2.450  1.4424 -0.8264  3.2914
  624SOL     OW 1870   0.500   0.680   3.028 -0.5226 -0.6573 -0.4230
  624SOL    HW1 1871   0.549   0.700   2.941  0.2806 -0.7839  0.6681
  624SOL    HW2 1872   0.531   0.743   3.107 -2.8835 -1.8009  1.5011
  625SOL     OW 1873   2.721   1.690   0.991  0.3662  0.0124 -0.0164
  625SOL    HW1 1874   2.621   1.719   1.003 -0.6916 -0.1383  3.1758
  625SOL    HW2 1875   2.784   1.776   0.989 -0.9463  1.8197  2.9134
  626SOL     OW 1876   0.646   2.665   1.785  0.2807 -0.4761 -0.6541
  626SOL    HW1 1877   0.702   2.704   1.865  1.0167 -1.5099  1.3997
  626SOL    HW2 1878   0.554   2.618   1.816 -0.5761 -1.9058 -1.1174
  627SOL     OW 1879   0.653   0.834   1.685  0.0786 -0.1349  1.1424
  627SOL    HW1 1880   0.574   0.772   1.660  1.0716 -2.3204 -1.1008
  627SOL    HW2 1881   0.699   0.881   1.608  0.0689  1.5892  0.7606
  628SOL     OW 1882   2.394   0.035   0.742 -0.7069  0.4399  0.3624
  628SOL    HW1 1883   2.387  -0.012   0.653 -0.2815  2.0356 -2.2443
  628SOL    HW2 1884   2.314   0.019   0.803  2.3826 -0.9159  0.0428
  629SOL     OW 1885   1.848   0.954   1.949  0.1587 -0.4967  0.1757
  629SOL    HW1 1886   1.885   1.019   1.874  2.5642 -1.1115  3.1695
  629SOL    HW2 1887   1.887   0.971   2.044 -1.1952  0.1207 -0.3809
  630SOL     OW 1888   2.916   2.208   0.790 -0.1184 -0.1681 -0.5054
  630SOL    HW1 1889   2.858   2.291   0.768 -1.0663 -2.3631  1.4541
  630SOL    HW2 1890   2.863   2.121   0.782  0.0778 -0.4021  2.6602
  631SOL     OW 1891   3.070   0.094   2.049 -1.0246  0.1978 -0.3834
  631SOL    HW1 1892   3.164   0.139   2.063  0.2966  0.3364  1.7034
  631SOL    HW2 1893   3.055   0.050   1.959  2.5211 -2.6202 -1.4353
  632SOL     OW 1894   2.471   2.582   0.635  0.8289 -0.2483 -0.3826
  632SOL    HW1 1895   2.525   2.672   0.646  0.2464 -0.0415 -0.6895
  632SOL    HW2 1896   2.374   2.600   0.616  0.1165  1.2659  0.0129
  633SOL     OW 1897   1.436   1.240   2.646  0.2948  0.0798  0.8591
  633SOL    HW1 1898   1.427   1.338   2.681  0.0191 -1.8082  2.7596
  633SOL    HW2 1899   1.369   1.220   2.570  2.2256  0.6940 -1.5234
  634SOL     OW 1900   0.717   2.193   0.869  0.0294 -0.5156 -0.3187
  634SOL    HW1 1901   0.638   2.146   0.919  0.1492 -0.0535 -0.8587
  634SOL    HW2 1902   0.812   2.176   0.905 -0.0298  2.4213  0.6074
  635SOL     OW 1903   3.015   2.441   0.025  0.2737 -0.5801 -0.6347
  635SOL    HW1 1904   2.936   2.485  -0.027  1.3081  0.4296 -1.1421
  635SOL    HW2 1905   3.097   2.507   0.026  1.4471 -0.1732 -0.5261
  636SOL     OW 1906   2.372   2.683   2.084  0.1465 -0.5758  0.0994
  636SOL    HW1 1907   2.317   2.771   2.061 -0.5735  1.0237 -0.6454
  636SOL    HW2 1908   2.308   2.617   2.134  1.3167 -3.2767 -1.3525
  637SOL     OW 1909   2.666   0.617   1.946 -0.0801 -0.3255  0.3299
  637SOL    HW1 1910   2.590   0.660   1.887 -0.2213  0.2258 -0.9320
  637SOL    HW2 1911   2.760   0.672   1.948  2.8027  0.1477 -1.9238
  638SOL     OW 1912   2.458   1.862   1.329  0.3299 -0.6937  0.7031
  638SOL    HW1 1913   2.380   1.912   1.281 -1.1040 -2.2898  0.5556
  638SOL    HW2 1914   2.426   1.773   1.377 -0.2150 -0.0440  1.1120
  639SOL     OW 1915   1.256   2.186   1.537 -0.1364 -0.0141  0.4395
  639SOL    HW1 1916   1.329   2.253   1.582  3.8332 -0.0230  1.9451
  639SOL    HW2 1917   1.161   2.221   1.545  1.2694  0.0499 -1.7698
  640SOL     OW 1918   0.205   1.243   1.526 -0.5601  0.6543 -0.2853
  640SOL    HW1 1919   0.183   1.283   1.615  1.0020 -2.7553  0.8089
  640SOL    HW2 1920   0.276   1.170   1.533 -1.2131  2.4239  0.6021
  641SOL     OW 1921   1.961   0.292   1.486  0.1452 -0.5304  0.1755
  641SOL    HW1 1922   1.869   0.296   1.543 -1.0450 -1.1015  0.7566
  641SOL    HW2 1923   2.032   0.330   1.547  0.9534  1.2299 -0.3966
  642SOL     OW 1924   2.034   3.073   0.415 -0.0557 -0.1653 -0.2532
  642SOL    HW1 1925   2.125   3.131   0.413  1.0452 -0.0343  0.6363
  642SOL    HW2 1926   1.946   3.134   0.426 -0.8789  1.5008 -1.5245
  643SOL     OW 1927   2.943   1.931   2.090 -0.4275 -0.0561  0.1344
  643SOL    HW1 1928   2.878   1.861   2.054 -0.2988  1.3464  1.6697
  643SOL    HW2 1929   2.951   2.014   2.031 -0.4863 -1.3711  1.7403
  644SOL     OW 1930   2.273   2.461   1.298 -0.0672 -0.3493  0.0533
  644SOL    HW1 1931   2.328   2.399   1.229  3.4530 -1.5513  2.0104
  644SOL    HW2 1932   2.272   2.426   1.396  0.6135 -2.0037 -0.4757
  645SOL     OW 1933   0.634   0.783   1.279  0.6833 -0.0136 -0.1970
  645SOL    HW1 1934   0.555   0.723   1.314 -1.3790  3.7980 -1.9529
  645SOL    HW2 1935   0.621   0.801   1.181  0.5662 -2.6746  0.8648
  646SOL     OW 1936   1.505   1.737   2.012  0.2450  0.0428 -0.1091
  646SOL    HW1 1937   1.576   1.798   1.960 -0.2430  2.1789 -1.6558
  646SOL    HW2 1938   1.527   1.709   2.111 -1.7149 -2.0744  1.4854
  647SOL     OW 1939   0.754   1.057   0.559 -0.4508  0.5723  0.2781
  647SOL    HW1 1940   0.834   1.080   0.623 -0.0942  1.3423  1.6325
  647SOL    HW2 1941   0.712   0.964   0.583  1.7230 -1.3947 -2.3131
  648SOL     OW 1942   0.131   0.245   0.371  0.1108 -0.5384  0.0840
  648SOL    HW1 1943   0.042   0.201   0.340 -0.3113  2.2253 -1.8893
  648SOL    HW2 1944   0.143   0.342   0.351  0.4555 -2.7492  0.2218
  649SOL     OW 1945   3.017   0.265   0.965  0.2402 -0.3354 -0.3380
  649SOL    HW1 1946   3.066   0.283   0.877  0.8510  1.7125  0.3314
  649SOL    HW2 1947   3.078   0.264   1.048 -3.2101  1.3124 -0.5903
  650SOL     OW 1948   2.768   0.689   1.425 -0.3113  0.2924  0.2531
  650SOL    HW1 1949   2.670   0.661   1.461 -3.2041  0.9605  1.1208
  650SOL    HW2 1950   2.771   0.794   1.409 -0.1426  2.7821 -1.2059
  651SOL     OW 1951   0.879   1.513   1.692  0.1245  0.4774 -0.1783
  651SOL    HW1 1952   0.864   1.558   1.786  0.7406 -0.3195  1.0706
  651SOL    HW2 1953   0.977   1.491   1.670 -1.6280 -0.2343 -0.5844
  652SOL     OW 1954   2.271   2.569   2.497  0.0834  0.2665  0.4171
  652SOL    HW1 1955   2.191   2.522   2.536 -0.4086  2.7898  1.5350
  652SOL    HW2 1956   2.261   2.674   2.488  2.7271 -1.0154 -0.4492
  653SOL     OW 1957   2.678   1.216   0.210  0.2581  0.3044 -0.6365
  653SOL    HW1 1958   2.743   1.296   0.223 -0.3427  2.4159  0.3126
  653SOL    HW2 1959   2.729   1.123   0.221  0.0367  0.6671 -0.8980
  654SOL     OW 1960   1.172   2.056   1.259  0.7048 -0.2374  0.2810
  654SOL    HW1 1961   1.119   1.968   1.269  0.5230  0.7978 -1.1520
  654SOL    HW2 1962   1.202   2.065   1.155 -0.4502  2.0033 -1.0559
  655SOL     OW 1963   0.140   0.995   1.874  0.1529 -0.4045  0.2921
  655SOL    HW1 1964   0.225   0.954   1.826  0.6345  0.6943  0.2941
  655SOL    HW2 1965   0.142   1.100   1.858 -0.6937  0.0229  0.2169
  656SOL     OW 1966   2.514   2.534   2.641  1.1195 -0.0189 -0.2103
  656SOL    HW1 1967   2.606   2.519   2.590  0.2057  0.7080 -1.8414
  656SOL    HW2 1968   2.434   2.557   2.581  1.2474  2.5922  2.4765
  657SOL     OW 1969   2.977   1.028   1.936  0.7325 -0.6410  0.3800
  657SOL    HW1 1970   2.943   1.119   1.969  1.4840 -0.5099  1.4908
  657SOL    HW2 1971   3.081   1.025   1.918 -1.2098  0.1396  0.7566
  658SOL     OW 1972   1.679   0.137   2.352  0.1706  0.4551 -0.0319
  658SOL    HW1 1973   1.693   0.059   2.415 -0.0692  3.9587 -1.5455
  658SOL    HW2 1974   1.703   0.118   2.257  0.4738  0.8106  1.1841
  659SOL     OW 1975   1.443   0.672   2.772 -0.4274  0.2550  0.7094
  659SOL    HW1 1976   1.481   0.742   2.705  1.4329  0.7229  1.0815
  659SOL    HW2 1977   1.343   0.668   2.766 -0.3958  2.0532  0.2153
  660SOL     OW 1978   1.433   0.309   1.419 -0.1669 -0.1323 -0.2404
  660SOL    HW1 1979   1.442   0.362   1.512 -1.2131  0.3183  1.7668
  660SOL    HW2 1980   1.495   0.228   1.421 -0.4744 -2.4057  0.2680
  661SOL     OW 1981   2.335   1.300   0.693  0.8690 -0.3307 -0.4791
  661SOL    HW1 1982   2.388   1.293   0.598  1.4789 -0.5105 -4.7091
  661SOL    HW2 1983   2.268   1.380   0.702  0.2542 -0.8044  4.5814
  662SOL     OW 1984   1.460   0.384   1.689  0.2403 -0.3171 -0.5471
  662SOL    HW1 1985   1.416   0.356   1.775  0.6803  1.7742 -0.0568
  662SOL    HW2 1986   1.450   0.489   1.679  4.2823 -2.1066  0.7333
  663SOL     OW 1987   0.779   1.639   1.920  0.3226 -0.2574  0.2801
  663SOL    HW1 1988   0.781   1.720   1.988 -2.5542  2.7367  0.0241
  663SOL    HW2 1989   0.713   1.558   1.954 -3.0014  0.7558 -0.5796
  664SOL     OW 1990   1.602   2.044   1.455  0.7705  0.9679  0.4108
  664SOL    HW1 1991   1.512   1.992   1.467 -0.5061 -1.7925 -0.3236
  664SOL    HW2 1992   1.682   1.980   1.445  0.3376  0.0113  0.6655
  665SOL     OW 1993   2.282   0.663   2.010  0.0994  0.7769  0.6355
  665SOL    HW1 1994   2.263   0.558   2.012 -0.7870 -1.7800  1.4782
  665SOL    HW2 1995   2.358   0.686   2.076  0.6848  0.3847 -1.0777
  666SOL     OW 1996   0.466   2.235   0.395 -0.8787  0.0708 -0.3614
  666SOL    HW1 1997   0.485   2.339   0.404 -0.6828 -0.1258 -0.9027
  666SOL    HW2 1998   0.366   2.221   0.373 -0.1845 -0.5431 -0.1928
  667SOL     OW 1999   2.056   0.172   1.073 -0.3591  0.3548  0.4169
  667SOL    HW1 2000   2.097   0.262   1.053 -1.5544  0.2676  0.3879
  667SOL    HW2 2001   1.980   0.166   1.145 -0.7001 -0.0698 -0.8250
  668SOL     OW 2002   2.004   0.452   1.072 -0.3332  0.8903  0.0749
  668SOL    HW1 2003   2.078   0.464   1.002  0.2490 -0.3210 -0.9730
  668SOL    HW2 2004   2.041   0.486   1.167 -2.2609  1.9671 -0.2317
  669SOL     OW 2005   3.066   2.135   1.030  0.3177 -0.0498 -0.0982
  669SOL    HW1 2006   3.011   2.190   0.961  2.0539 -0.9234  0.0540
  669SOL    HW2 2007   3.060   2.171   1.126  0.6788  0.8174  1.3128
  670SOL     OW 2008   2.908   2.391   2.170 -0.0390  0.3022  0.5368
  670SOL    HW1 2009   2.822   2.343   2.195  2.4355  0.7963  1.8353
  670SOL    HW2 2010   2.887   2.475   2.121  2.0140 -1.4044 -1.8133
  671SOL     OW 2011   1.819   1.653   1.528 -0.0404 -0.0884  0.0755
  671SOL    HW1 2012   1.819   1.682   1.430  3.5926  0.6055 -0.6004
  671SOL    HW2 2013   1.806   1.555   1.537 -2.5707 -0.4842 -4.3439
  672SOL     OW 2014   0.457   0.728   2.543  0.1972  0.2954  0.2623
  672SOL    HW1 2015   0.376   0.762   2.481  1.0032 -0.8300  1.8723
  672SOL    HW2 2016   0.447   0.768   2.640 -1.6838  2.4863  2.7868
  673SOL     OW 2017   0.080   1.444   0.998 -0.2025 -0.5465  0.0923
  673SOL    HW1 2018   0.118   1.419   1.092  2.2024  0.6800  1.9019
  673SOL    HW2 2019   0.134   1.513   0.952  0.8429 -1.4724  1.1962
  674SOL     OW 2020   1.545   3.041   0.215  0.4059 -0.1989  0.1655
  674SOL    HW1 2021   1.611   3.114   0.178 -1.1390  1.3391  1.9149
  674SOL    HW2 2022   1.522   2.983   0.137  0.5260  1.1104  0.5587
  675SOL     OW 2023   1.652   0.834   2.303 -0.4274  0.0421  0.0018
  675SOL    HW1 2024   1.741   0.829   2.357  0.0556  0.9350 -0.7007
  675SOL    HW2 2025   1.607   0.745   2.288  0.5099  2.1977 -0.1813
  676SOL     OW 2026   2.525   1.570   1.996  0.3668  0.4022  0.2209
  676SOL    HW1 2027   2.479   1.511   1.928 -0.8036  0.1161 -0.0892
  676SOL    HW2 2028   2.599   1.518   2.055  0.1475 -2.9769 -1.3886
  677SOL     OW 2029   1.921   0.675   0.900 -1.0035  0.3758 -0.1331
  677SOL    HW1 2030   1.835   0.658   0.948  0.1217 -0.1039 -0.6833
  677SOL    HW2 2031   2.001   0.645   0.954 -2.8292  0.5139 -0.2244
  678SOL     OW 2032   0.114   0.790   1.641 -0.0424  0.7204 -0.1829
  678SOL    HW1 2033   0.208   0.822   1.669  1.7451 -2.1155  1.0777
  678SOL    HW2 2034   0.057   0.744   1.717 -1.2941  3.4263 -0.5783
  679SOL     OW 2035   2.571   1.106   1.221  0.1402 -0.5547 -0.3436
  679SOL    HW1 2036   2.472   1.145   1.225 -3.2522 -0.0548  1.3264
  679SOL    HW2 2037   2.574   1.003   1.226 -1.3280  0.5071  0.1105
  680SOL     OW 2038   2.844   0.520   1.669 -0.4248 -0.2134 -0.0850
  680SOL    HW1 2039   2.808   0.574   1.586 -0.5193 -0.5721  0.4539
  680SOL    HW2 2040   2.934   0.556   1.703 -0.3236 -0.4629  0.0281
  681SOL     OW 2041   3.007   0.126   1.578 -0.4323  0.2458 -0.3327
  681SOL    HW1 2042   3.030   0.082   1.492 -0.3069 -1.4915  1.2635
  681SOL    HW2 2043   2.929   0.194   1.574  1.9307  0.8069  0.6164
  682SOL     OW 2044   0.628   0.094   1.307 -0.6589  0.6703 -0.1906
  682SOL    HW1 2045   0.570   0.018   1.358 -1.2161  0.2119  2.1670
  682SOL    HW2 2046   0.718   0.053   1.272 -2.2250 -0.3486 -1.8787
  683SOL     OW 2047   1.355   0.257   2.183  0.1260 -0.3508  0.1149
  683SOL    HW1 2048   1.344   0.313   2.270  2.9592  0.0647 -0.5721
  683SOL    HW2 2049   1.450   0.277   2.134 -0.4880  1.1120 -0.9425
  684SOL     OW 2050   1.372   2.158   0.584  0.3281  0.6306 -0.5017
  684SOL    HW1 2051   1.436   2.086   0.616  1.7497  2.6189  1.1495
  684SOL    HW2 2052   1.293   2.113   0.535  1.5099 -1.4343 -0.4009
  685SOL     OW 2053   2.261   2.070   1.983  0.4035  0.6220 -0.1159
  685SOL    HW1 2054   2.272   1.970   1.988  0.5080  2.3802  0.8495
  685SOL    HW2 2055   2.306   2.109   2.067 -1.5002 -1.3452  1.2428
  686SOL     OW 2056   1.568   1.835   2.898 -0.8309 -0.0129 -0.0493
  686SOL    HW1 2057   1.593   1.752   2.958 -0.4520  0.1723 -0.0315
  686SOL    HW2 2058   1.466   1.836   2.883 -2.7913  0.7089 -0.8554
  687SOL     OW 2059   1.418   2.434   1.996 -0.5405 -0.7346 -0.4047
  687SOL    HW1 2060   1.370   2.356   1.949 -0.8233 -0.9975 -1.9194
  687SOL    HW2 2061   1.380   2.459   2.090  1.7175  0.1746 -2.0177
  688SOL     OW 2062   2.049   1.494   1.707 -0.1591  0.4107  0.3079
  688SOL    HW1 2063   2.136   1.554   1.711  1.6084 -0.7719 -1.5463
  688SOL    HW2 2064   2.035   1.461   1.609 -0.2982  1.2703  1.5453
  689SOL     OW 2065   2.297   1.100   2.802  0.1593  0.2879  0.1937
  689SOL    HW1 2066   2.235   1.019   2.781 -0.9142 -0.2236  0.7943
  689SOL    HW2 2067   2.368   1.070   2.870  0.1611  2.7297 -0.7313
  690SOL     OW 2068   2.224   2.792   0.013  0.2891 -0.3088  0.1303
  690SOL    HW1 2069   2.183   2.735  -0.060  0.7867  1.2400 -3.4175
  690SOL    HW2 2070   2.160   2.793   0.095  3.0368  0.1457  0.8920
  691SOL     OW 2071   2.573   0.401   2.090  0.5516  0.4017  0.2404
  691SOL    HW1 2072   2.595   0.301   2.059  0.1465 -1.3016 -0.5355
  691SOL    HW2 2073   2.595   0.477   2.020  2.3738  2.1741  0.3909
  692SOL     OW 2074   2.664   1.233   0.707 -0.4653  0.1207  0.2806
  692SOL    HW1 2075   2.618   1.253   0.615 -0.2344  0.3670  0.1624
  692SOL    HW2 2076   2.704   1.323   0.752  3.2536  1.3700  0.5421
  693SOL     OW 2077   2.910   2.918   0.678 -0.1032 -0.1081 -0.3639
  693SOL    HW1 2078   2.905   3.001   0.741 -1.7998 -2.1303  0.2907
  693SOL    HW2 2079   2.898   2.938   0.575  0.0747 -0.5480 -0.1304
  694SOL     OW 2080   2.384   2.268   0.106  0.6779  0.0758  0.1810
  694SOL    HW1 2081   2.379   2.334   0.184 -2.8989  0.2323 -0.8265
  694SOL    HW2 2082   2.285   2.243   0.078  1.6849  0.1131  1.1930
  695SOL     OW 2083   0.489   3.017   1.485  0.4372 -0.0703 -0.0249
  695SOL    HW1 2084   0.436   2.935   1.443  1.7117 -1.7847 -4.5662
  695SOL    HW2 2085   0.428   3.065   1.555  0.8006  0.3216  0.2898
  696SOL     OW 2086   2.730   1.991   0.765  0.4759 -0.3687 -0.4756
  696SOL    HW1 2087   2.812   1.924   0.766  0.0239 -1.0169 -0.3964
  696SOL    HW2 2088   2.657   1.977   0.687 -2.2041  0.6330  0.5294
  697SOL     OW 2089   1.675   1.855   1.841  0.6730  0.1696  0.3236
  697SOL    HW1 2090   1.779   1.851   1.858 -0.3141 -1.0999  2.0789
  697SOL    HW2 2091   1.643   1.952   1.837  2.3712  1.9259  0.7382
  698SOL     OW 2092   2.932   0.403   2.718 -0.7827 -0.3657 -0.3608
  698SOL    HW1 2093   2.928   0.397   2.615 -2.2316  0.7922 -0.9461
  698SOL    HW2 2094   2.999   0.334   2.758 -0.6662  0.1306 -1.3256
  699SOL     OW 2095   1.631   0.128   2.915  0.2585 -0.2744 -0.0574
  699SOL    HW1 2096   1.623   0.034   2.868  2.6900 -2.6428  0.8711
  699SOL    HW2 2097   1.677   0.204   2.860  0.1411  0.1228  0.2278
  700SOL     OW 2098   0.979   2.280   1.354 -0.1777  0.2027  0.4830
  700SOL    HW1 2099   1.042   2.210   1.324  0.1550 -0.7882  1.2783
  700SOL    HW2 2100   0.882   2.251   1.331  3.1968 -4.0616 -2.2115
  701SOL     OW 2101   1.860   2.907   0.011  0.3675 -0.1124  0.5527
  701SOL    HW1 2102   1.865   2.858   0.103  0.1779 -1.8114 -2.5638
  701SOL    HW2 2103   1.897   3.003   0.026 -1.4345  1.5364 -0.0580
  702SOL     OW 2104   2.116   1.364   1.935 -0.4748  0.2372  0.4789
  702SOL    HW1 2105   2.185   1.289   1.903  0.3431  0.3940  0.5513
  702SOL    HW2 2106   2.096   1.434   1.857 -0.2933  1.0126  1.1892
  703SOL     OW 2107   1.971   0.922   1.444  0.3971  0.5099 -0.1651
  703SOL    HW1 2108   1.961   0.827   1.489  0.7140 -0.8605 -0.7962
  703SOL    HW2 2109   2.019   0.986   1.510  0.1843 -1.1611 -0.7681
  704SOL     OW 2110   0.336   2.071   1.707  0.1131 -0.4712  0.1233
  704SOL    HW1 2111   0.357   2.026   1.797  0.9005  0.2669 -1.3623
  704SOL    HW2 2112   0.405   2.148   1.683  0.0642  2.1122  0.0178
  705SOL     OW 2113   2.484   1.410   0.920 -0.3459  0.0370  0.6411
  705SOL    HW1 2114   2.435   1.361   0.843 -0.0675 -0.8609  0.7996
  705SOL    HW2 2115   2.585   1.415   0.902 -0.9850  1.5433 -0.0363
  706SOL     OW 2116   0.527   1.727   1.802  0.3605 -0.2884 -0.1794
  706SOL    HW1 2117   0.526   1.790   1.723  0.4433  1.4229 -2.0788
  706SOL    HW2 2118   0.619   1.679   1.818 -0.9309 -1.3941 -1.5847
  707SOL     OW 2119   2.317   1.180   1.868  0.1297 -0.1155 -0.0748
  707SOL    HW1 2120   2.381   1.169   1.950 -2.4895  2.0932  1.7319
  707SOL    HW2 2121   2.273   1.088   1.836  1.3915 -0.1059 -0.4141
  708SOL     OW 2122   3.031   0.544   2.966  0.0485  0.1030  0.9204
  708SOL    HW1 2123   3.099   0.599   2.905  0.0152  2.9702 -1.7860
  708SOL    HW2 2124   2.975   0.467   2.912 -0.1037  0.3230 -1.4439
  709SOL     OW 2125   1.834   1.888   0.426  0.2956  0.9458  0.4162
  709SOL    HW1 2126   1.809   1.984   0.453 -0.9625  0.5877  0.4780
  709SOL    HW2 2127   1.841   1.875   0.323  0.7849  1.6340  2.1456
  710SOL     OW 2128   1.755   1.556   2.424 -0.5610 -0.2583 -0.0356
  710SOL    HW1 2129   1.845   1.537   2.382  0.6582  0.7657  0.0760
  710SOL    HW2 2130   1.765   1.585   2.525  0.5221 -2.0630 -2.1658
  711SOL     OW 2131   2.724   2.844   0.985 -0.2854 -0.1126  0.1945
  711SOL    HW1 2132   2.693   2.939   0.946  1.5124 -0.2463 -2.2832
  711SOL    HW2 2133   2.825   2.848   1.020  2.2319 -2.8262 -2.4607
  712SOL     OW 2134   1.321   2.195   1.916  0.7963 -0.1721  0.3674
  712SOL    HW1 2135   1.379   2.122   1.864 -2.1418  1.1422 -2.5066
  712SOL    HW2 2136   1.218   2.177   1.911  0.5283  3.6078  0.5020
  713SOL     OW 2137   2.790   1.476   2.546  0.1617 -0.8750 -0.2049
  713SOL    HW1 2138   2.818   1.387   2.502 -0.9044  1.0439  1.5542
  713SOL    HW2 2139   2.692   1.476   2.576  1.6230  1.1826  2.6353
  714SOL     OW 2140   2.678   0.420   2.347 -0.7502 -0.1200  0.1862
  714SOL    HW1 2141   2.611   0.417   2.425  1.0235 -3.5704 -1.9370
  714SOL    HW2 2142   2.643   0.419   2.254  1.6604  1.8474 -0.0155
  715SOL     OW 2143   1.594   2.184   1.185  0.6821  0.0564 -0.3414
  715SOL    HW1 2144   1.528   2.267   1.180 -0.5514 -1.3277 -1.9272
  715SOL    HW2 2145   1.596   2.144   1.278  4.0103 -0.4936 -1.0024
  716SOL     OW 2146   1.238   0.128   1.517  0.6763  0.0043  0.3084
  716SOL    HW1 2147   1.134   0.148   1.502  1.7002  0.3490  1.4636
  716SOL    HW2 2148   1.296   0.207   1.477 -0.6136 -1.9735  0.7414
  717SOL     OW 2149   1.164   0.597   1.619  0.0423  0.0680 -0.1614
  717SOL    HW1 2150   1.261   0.599   1.656  2.6346 -3.2544  0.9596
  717SOL    HW2 2151   1.159   0.593   1.515 -1.5603 -1.0695  0.3992
  718SOL     OW 2152   0.683   0.899   0.968 -0.5272 -0.0402 -0.0355
  718SOL    HW1 2153   0.644   0.909   0.871  1.8545 -2.7175 -0.4156
  718SOL    HW2 2154   0.681   0.988   1.022 -2.2030 -2.1138  1.2158
  719SOL     OW 2155   0.738   1.747   2.285 -0.1831 -0.6320 -0.3611
  719SOL    HW1 2156   0.806   1.788   2.353  0.0459  1.1182  0.5367
  719SOL    HW2 2157   0.659   1.692   2.325  0.9467 -0.8899 -1.8115
  720SOL     OW 2158   2.193   1.218   0.269 -0.5277 -0.0764 -0.1482
  720SOL    HW1 2159   2.278   1.157   0.247 -1.4066 -1.5838 -0.0064
  720SOL    HW2 2160   2.157   1.193   0.367 -0.0172 -0.3808  1.5202
  721SOL     OW 2161   2.238   2.912   2.110 -0.1550  0.3390 -0.1474
  721SOL    HW1 2162   2.246   2.978   2.027  1.0197  3.9347  0.1451
  721SOL    HW2 2163   2.133   2.903   2.134 -0.4217  0.0416  1.8543
  722SOL     OW 2164   2.339   1.705   0.577 -0.1622 -0.3080 -0.4439
  722SOL    HW1 2165   2.411   1.688   0.503  0.1769 -0.1102 -0.8186
  722SOL    HW2 2166   2.258   1.751   0.539  0.7547 -2.4962  0.7087
  723SOL     OW 2167   2.593   2.753   1.951  0.3189  0.0899 -0.1555
  723SOL    HW1 2168   2.646   2.821   2.007  0.2348  0.6502 -0.8309
  723SOL    HW2 2169   2.510   2.705   1.994  0.3736  0.8464  1.0308
  724SOL     OW 2170   0.367   2.509   2.444  0.5994  0.4226 -0.7638
  724SOL    HW1 2171   0.260   2.518   2.434  0.0146 -1.2750 -1.1145
  724SOL    HW2 2172   0.393   2.501   2.540 -0.2121 -0.0420 -0.8268
  725SOL     OW 2173   2.421   2.811   1.510  0.4489  0.2310 -0.4012
  725SOL    HW1 2174   2.495   2.826   1.445  4.2080 -0.2482  0.0298
  725SOL    HW2 2175   2.414   2.708   1.541  1.6296 -1.1444 -1.6566
  726SOL     OW 2176   2.473   2.327   0.751  0.1101  0.1663 -0.5024
  726SOL    HW1 2177   2.455   2.412   0.692 -0.4615 -2.2829 -1.4313
  726SOL    HW2 2178   2.436   2.239   0.699  1.4288 -1.2205 -1.5711
  727SOL     OW 2179   0.115   3.081   0.130  0.1191  0.2961  0.1736
  727SOL    HW1 2180   0.196   3.128   0.089 -2.1295 -1.2931  1.0577
  727SOL    HW2 2181   0.057   3.039   0.059  0.4154  2.1142 -0.3343
  728SOL     OW 2182   2.937   0.733   0.924  0.8187  0.3815  0.1641
  728SOL    HW1 2183   2.858   0.704   0.860 -0.2467 -1.4526  1.7401
  728SOL    HW2 2184   2.934   0.685   1.020  1.6912 -0.7970  0.5858
  729SOL     OW 2185   0.010   2.511   0.781  0.2569  0.7014  0.0883
  729SOL    HW1 2186   0.047   2.469   0.866 -1.2288  0.5456 -1.9530
  729SOL    HW2 2187   0.075   2.521   0.704 -1.3017 -0.8122  0.7735
  730SOL     OW 2188   2.589   0.741   0.929 -0.4789 -0.4300 -0.1952
  730SOL    HW1 2189   2.553   0.835   0.907 -0.0490 -0.2741  1.2222
  730SOL    HW2 2190   2.630   0.695   0.844 -1.3899  0.3562 -1.5116
  731SOL     OW 2191   3.092   2.236   2.315  0.0093 -0.1723  0.5169
  731SOL    HW1 2192   3.040   2.211   2.400  1.4755  1.8938  3.6952
  731SOL    HW2 2193   3.033   2.308   2.263 -0.1693  0.9964  0.0823
  732SOL     OW 2194   1.344   2.735   1.977 -0.2300  0.4170  0.0521
  732SOL    HW1 2195   1.397   2.662   2.028  0.3290 -1.1629 -1.3277
  732SOL    HW2 2196   1.292   2.691   1.896 -1.6795 -1.5146  2.2464
  733SOL     OW 2197   3.092   0.655   2.232  0.2774 -0.2597 -0.0465
  733SOL    HW1 2198   3.167   0.693   2.169  0.4453  0.5165  0.0308
  733SOL    HW2 2199   3.031   0.588   2.175 -1.0674 -0.0081 -0.7779
  734SOL     OW 2200   1.517   0.416   2.723  0.0039 -0.3784  0.0323
  734SOL    HW1 2201   1.518   0.511   2.764 -1.5508 -0.3824 -1.7143
  734SOL    HW2 2202   1.431   0.358   2.738 -1.1419  1.7758 -1.1249
  735SOL     OW 2203   2.873   2.680   2.308  0.2938 -0.0172  0.4936
  735SOL    HW1 2204   2.858   2.676   2.205 -0.8850 -1.8730  1.1820
  735SOL    HW2 2205   2.966   2.685   2.338 -0.7533  0.1631  0.5536
  736SOL     OW 2206   0.879   0.415   2.520  0.0328  0.0715  0.0266
  736SOL    HW1 2207   0.781   0.434   2.547 -0.4016 -0.9915 -0.2463
  736SOL    HW2 2208   0.877   0.348   2.438 -1.6723 -0.1722  0.2494
  737SOL     OW 2209   2.680   0.479   2.792  0.3482  0.0474  0.0344
  737SOL    HW1 2210   2.638   0.433   2.872 -0.6873 -3.0005  0.5628
  737SOL    HW2 2211   2.771   0.445   2.756 -0.3188 -0.2866  0.5573
  738SOL     OW 2212   1.768   1.240   2.856 -0.1973  0.1377  0.1326
  738SOL    HW1 2213   1.874   1.227   2.865 -0.8516 -0.5109 -1.7765
  738SOL    HW2 2214   1.716   1.150   2.849  0.2973 -0.3230  0.1951
  739SOL     OW 2215   1.838   0.736   0.622  0.2273  0.2353 -0.0255
  739SOL    HW1 2216   1.866   0.742   0.725  0.2803 -0.9548 -1.5526
  739SOL    HW2 2217   1.845   0.640   0.593 -2.3413 -2.2013 -1.5531
  740SOL     OW 2218   1.987   1.910   2.354  0.0085 -0.2196  0.1908
  740SOL    HW1 2219   2.046   1.822   2.384  1.9831  2.2961 -0.7069
  740SOL    HW2 2220   1.917   1.887   2.282 -2.0322  1.5297 -2.3033
  741SOL     OW 2221   2.542   0.121   2.453  0.3025 -0.1734  0.3041
  741SOL    HW1 2222   2.643   0.106   2.429  1.5993 -2.8959 -2.0075
  741SOL    HW2 2223   2.482   0.099   2.372 -0.9684 -0.2009  1.4181
  742SOL     OW 2224   2.202   1.464   0.189 -0.2148 -0.4398  0.1406
  742SOL    HW1 2225   2.101   1.491   0.190  2.1690  0.1323 -2.3399
  742SOL    HW2 2226   2.217   1.363   0.198 -0.3096  0.6846  1.1152
  743SOL     OW 2227   1.758   0.649   2.548  0.2948 -0.1680  0.2694
  743SOL    HW1 2228   1.732   0.565   2.495 -1.1839  1.7410 -1.5051
  743SOL    HW2 2229   1.674   0.698   2.582 -0.0857 -0.6236  3.2722
  744SOL     OW 2230   2.739   2.141   0.185 -1.2402 -0.6847 -0.2700
  744SOL    HW1 2231   2.689   2.194   0.258 -0.6610 -0.7030  2.7891
  744SOL    HW2 2232   2.710   2.045   0.186 -1.9294  1.3183  1.8982
  745SOL     OW 2233   2.226   2.511   2.221  0.3040  0.0801 -0.5764
  745SOL    HW1 2234   2.136   2.528   2.179  1.1196 -0.4660 -0.4538
  745SOL    HW2 2235   2.231   2.532   2.326 -2.9514  1.5807  0.0505
  746SOL     OW 2236   3.079   2.539   1.798 -0.0890  0.0587 -0.2627
  746SOL    HW1 2237   3.160   2.486   1.766  1.4022  0.1510  0.8443
  746SOL    HW2 2238   3.100   2.619   1.863  0.9443  0.6420 -1.3049
  747SOL     OW 2239   3.088   1.807   1.669 -0.2389 -0.3063 -0.4198
  747SOL    HW1 2240   3.040   1.732   1.624 -2.1380  1.8574  2.1898
  747SOL    HW2 2241   3.162   1.858   1.616  4.4267 -1.5737  1.0119
  748SOL     OW 2242   1.819   2.673   2.952  0.0284 -0.0539 -0.3374
  748SOL    HW1 2243   1.847   2.763   2.997  1.2549  1.0142  3.5145
  748SOL    HW2 2244   1.759   2.693   2.875  0.6885 -1.7768 -0.8287
  749SOL     OW 2245   1.286   2.873   0.814 -0.1584  0.1420  0.1558
  749SOL    HW1 2246   1.199   2.927   0.829 -4.8132  1.6923 -0.8176
  749SOL    HW2 2247   1.370   2.934   0.782 -0.8827  0.0478 -0.6607
  750SOL     OW 2248   2.253   0.208   1.849  1.1454  0.9359 -0.3152
  750SOL    HW1 2249   2.281   0.249   1.754 -1.1493  0.0922  0.5349
  750SOL    HW2 2250   2.274   0.268   1.931 -1.1980 -1.6352  0.0582
  751SOL     OW 2251   0.828   2.101   2.903 -0.0553  0.6655  0.4323
  751SOL    HW1 2252   0.892   2.129   2.979 -2.7823  1.2963 -0.2940
  751SOL    HW2 2253   0.753   2.036   2.936 -0.6331 -0.5955  0.1072
  752SOL     OW 2254   1.324   0.766   1.152  0.5124  0.1950 -0.5957
  752SOL    HW1 2255   1.385   0.844   1.190 -0.4290  1.2563  0.1516
  752SOL    HW2 2256   1.344   0.676   1.200  2.9123 -0.5127  0.6787
  753SOL     OW 2257   1.000   2.536   1.849  0.2905  0.1581 -0.8202
  753SOL    HW1 2258   1.108   2.545   1.826  1.1109  1.2206  1.3370
  753SOL    HW2 2259   0.957   2.635   1.873 -0.9707  0.0587 -0.1340
  754SOL     OW 2260   1.138   1.238   3.006  0.2567 -0.4702  0.0359
  754SOL    HW1 2261   1.199   1.179   2.947 -0.2094  0.4574 -2.9017
  754SOL    HW2 2262   1.167   1.336   3.009 -1.5385 -0.5861 -0.8756
  755SOL     OW 2263   1.928   0.497   2.187  0.4775 -0.2759  0.1952
  755SOL    HW1 2264   1.999   0.429   2.223 -0.2239  0.9542  1.6275
  755SOL    HW2 2265   1.844   0.482   2.234 -0.3598 -3.6075 -1.2514
  756SOL     OW 2266   2.500   0.984   2.988  0.3662 -0.4798 -0.4144
  756SOL    HW1 2267   2.597   0.957   2.960  0.0280  1.6908 -2.3948
  756SOL    HW2 2268   2.455   0.910   3.042 -1.7913 -0.2000 -0.8893
  757SOL     OW 2269   0.133   0.418   1.958 -0.0032  0.1010  0.0366
  757SOL    HW1 2270   0.156   0.324   1.927 -4.3691 -1.8023 -0.9934
  757SOL    HW2 2271   0.047   0.418   2.020  1.5603 -2.2621 -0.3183
  758SOL     OW 2272   2.337   0.080   1.408 -0.4615  0.1624 -0.0702
  758SOL    HW1 2273   2.286   0.025   1.482 -2.6204  0.3960  0.1476
  758SOL    HW2 2274   2.301   0.065   1.310  1.5612 -2.0653  0.4495
  759SOL     OW 2275   1.720   0.120   0.094  0.8620  0.0540 -0.1620
  759SOL    HW1 2276   1.698   0.131  -0.005 -1.7950 -0.0170  0.6394
  759SOL    HW2 2277   1.814   0.094   0.120 -1.0625 -1.4586 -0.0847
  760SOL     OW 2278   2.708   2.113   2.803  0.3281 -0.3527  0.4562
  760SOL    HW1 2279   2.652   2.157   2.881 -0.5230 -1.1937  0.0493
  760SOL    HW2 2280   2.800   2.154   2.802  0.1779 -0.5717  3.6586
  761SOL     OW 2281   1.956   1.782   1.760 -0.0114  0.2088 -0.4235
  761SOL    HW1 2282   1.994   1.686   1.772 -1.6248 -0.7837 -1.8611
  761SOL    HW2 2283   1.878   1.786   1.690 -0.9464 -2.4209 -0.0689
  762SOL     OW 2284   0.491   2.386   0.927  0.3801 -0.2004  0.0161
  762SOL    HW1 2285   0.527   2.413   0.832  1.3500  1.2598 -0.0342
  762SOL    HW2 2286   0.572   2.391   0.998  1.0173  0.8992  1.5496
  763SOL     OW 2287   2.137   1.611   2.972 -0.5276 -0.0557  0.7240
  763SOL    HW1 2288   2.229   1.568   3.002 -0.8010  0.8459  0.0347
  763SOL    HW2 2289   2.058   1.550   2.990  0.1925 -0.8929 -0.8466
  764SOL     OW 2290   0.659   0.573   0.659  0.3092 -0.2698 -0.7044
  764SOL    HW1 2291   0.580   0.512   0.658 -2.0228  0.7915  1.7059
  764SOL    HW2 2292   0.731   0.540   0.724 -2.9781  0.6210  0.4043
  765SOL     OW 2293   0.819   0.249   0.733  0.4725  1.0156  0.2305
  765SOL    HW1 2294   0.827   0.175   0.667  1.8549 -0.8850  1.1438
  765SOL    HW2 2295   0.857   0.343   0.698 -1.2528 -1.0651  1.9984
  766SOL     OW 2296   2.902   2.205   3.057 -0.2591  0.1837 -0.0089
  766SOL    HW1 2297   2.832   2.197   3.131  0.7458  1.9750 -1.6082
  766SOL    HW2 2298   2.951   2.297   3.064 -0.4259  1.5975  1.1048
  767SOL     OW 2299   2.845   1.626   0.502  0.2034 -0.0002  0.4997
  767SOL    HW1 2300   2.754   1.645   0.548  0.4296 -2.8861 -0.0664
  767SOL    HW2 2301   2.928   1.639   0.563 -0.8272  0.3148  0.1655
  768SOL     OW 2302   1.023   0.230   0.202  0.2293 -0.3732 -0.5471
  768SOL    HW1 2303   1.002   0.263   0.298  0.7771  0.8273 -1.0534
  768SOL    HW2 2304   1.106   0.171   0.197 -1.9950 -0.4112 -0.0461
  769SOL     OW 2305   1.141   1.790   2.281 -0.2753  0.3193 -0.4164
  769SOL    HW1 2306   1.059   1.789   2.343  0.1544 -0.8854  2.0814
  769SOL    HW2 2307   1.232   1.805   2.337 -0.6263 -0.0086  1.8268
  770SOL     OW 2308   0.183   1.155   2.284  0.3235 -0.0716  0.2656
  770SOL    HW1 2309   0.234   1.220   2.350  0.2194  2.2228 -1.2798
  770SOL    HW2 2310   0.084   1.166   2.296  1.8421 -1.8435 -1.8260
  771SOL     OW 2311   3.073   2.812   1.890  0.0853  0.1252  0.1714
  771SOL    HW1 2312   3.005   2.861   1.834  0.2008 -2.6002 -0.4598
  771SOL    HW2 2313   3.076   2.853   1.986 -0.3341 -0.9731 -1.0180
  772SOL     OW 2314   2.337   0.208   2.844  0.3464 -0.1823 -0.5870
  772SOL    HW1 2315   2.403   0.146   2.795  1.6862  0.8961  2.9263
  772SOL    HW2 2316   2.380   0.242   2.929 -0.5586 -0.1415  2.8023
  773SOL     OW 2317   0.578   2.075   2.449 -0.1294  0.2045 -0.6152
  773SOL    HW1 2318   0.594   2.167   2.393 -0.0865 -0.4036 -1.5451
  773SOL    HW2 2319   0.505   2.081   2.525 -0.2601  1.3081  1.5374
  774SOL     OW 2320   2.099   0.010   2.639  0.2378  0.0276  0.2020
  774SOL    HW1 2321   2.116   0.114   2.653  0.9255 -0.4367  1.1194
  774SOL    HW2 2322   2.178  -0.056   2.661 -0.2297 -1.4548  2.6859
  775SOL     OW 2323   2.526   2.864   2.301  0.2441  0.1168 -0.3757
  775SOL    HW1 2324   2.436   2.859   2.253 -2.3564  1.5046  0.8536
  775SOL    HW2 2325   2.520   2.889   2.404  1.7978 -0.2419 -1.3398
  776SOL     OW 2326   0.008   1.233   0.186 -0.2059 -0.5025  0.0242
  776SOL    HW1 2327  -0.053   1.210   0.109  2.9275  2.5377 -1.3018
  776SOL    HW2 2328  -0.038   1.234   0.278  0.2805 -0.2618  0.7773
  777SOL     OW 2329   0.384   3.004   0.497  0.4435  0.0937  0.0971
  777SOL    HW1 2330   0.283   2.992   0.496  2.3261  1.3842  0.4579
  777SOL    HW2 2331   0.443   2.926   0.464 -1.0670  0.7458  1.0441
  778SOL     OW 2332   1.325   1.994   0.260  0.4598  0.2433  0.3343
  778SOL    HW1 2333   1.244   2.044   0.304  1.2119  3.0558  0.6885
  778SOL    HW2 2334   1.363   2.055   0.186 -0.5361 -0.4029  1.3056
  779SOL     OW 2335   0.139   0.786   0.500 -0.1498  0.0229 -0.2403
  779SOL    HW1 2336   0.075   0.708   0.459  0.7850  2.4104 -0.5274
  779SOL    HW2 2337   0.086   0.850   0.561 -1.5103  1.5970 -0.3402
  780SOL     OW 2338   0.129   0.333   2.346  0.2408  0.4656 -0.3649
  780SOL    HW1 2339   0.128   0.415   2.408 -0.8562  0.3822  1.4201
  780SOL    HW2 2340   0.222   0.312   2.306  0.6378  0.6259  1.5226
  781SOL     OW 2341   0.702   1.665   1.528 -0.1478 -0.2700  0.1577
  781SOL    HW1 2342   0.756   1.593   1.585 -2.1526 -1.1167 -0.6205
  781SOL    HW2 2343   0.605   1.633   1.518 -0.4224  1.9419  1.0426
  782SOL     OW 2344   2.620   3.097   0.887 -0.6933  0.0170  0.3266
  782SOL    HW1 2345   2.540   3.114   0.821  0.2732  2.4954 -0.9692
  782SOL    HW2 2346   2.586   3.094   0.989  0.6391  0.8748 -1.2360
  783SOL     OW 2347   2.718   0.697   2.419 -0.0055  0.2630 -0.4517
  783SOL    HW1 2348   2.711   0.713   2.523 -0.2902  2.5712 -1.5930
  783SOL    HW2 2349   2.711   0.597   2.392  2.3622  0.0001 -0.8732
  784SOL     OW 2350   1.429   2.140   0.045  0.0330 -0.4888  0.1087
  784SOL    HW1 2351   1.504   2.188   0.105  2.6790  0.7494  0.9586
  784SOL    HW2 2352   1.439   2.158  -0.056 -0.9252 -2.5869 -0.8265
  785SOL     OW 2353   2.104   0.292   0.039 -0.4595  0.1297 -0.1473
  785SOL    HW1 2354   2.054   0.353   0.106  2.6617  1.1954 -0.8605
  785SOL    HW2 2355   2.137   0.344  -0.048  0.4626  1.7550  1.4022
  786SOL     OW 2356   2.048   2.180   2.277  0.1011  0.4039  0.3563
  786SOL    HW1 2357   2.003   2.097   2.324 -0.5992 -2.0124  0.8713
  786SOL    HW2 2358   2.149   2.157   2.253 -2.2266  2.4635  0.7981
  787SOL     OW 2359   1.415   0.522   0.879 -0.0661  0.2382  0.4569
  787SOL    HW1 2360   1.332   0.578   0.896  0.8682 -0.7386  0.9329
  787SOL    HW2 2361   1.451   0.517   0.779  0.3865  0.2334  1.8564
  788SOL     OW 2362   1.230   0.437   0.003 -0.2268 -0.0587 -0.0799
  788SOL    HW1 2363   1.138   0.401  -0.026 -0.5500 -1.4469  0.9662
  788SOL    HW2 2364   1.225   0.526   0.052  2.8942  0.3254 -2.7904
  789SOL     OW 2365   2.577   0.100   1.980 -0.0441  0.1890 -0.5061
  789SOL    HW1 2366   2.531   0.038   1.908  0.6074  0.2994  2.9413
  789SOL    HW2 2367   2.667   0.063   2.015 -1.8804  1.2242 -0.1687
  790SOL     OW 2368   2.592   2.819   0.708  0.1192  0.3864  0.3356
  790SOL    HW1 2369   2.672   2.853   0.662  1.7058 -2.0640 -0.6373
  790SOL    HW2 2370   2.609   2.805   0.810  0.8512 -1.0528 -2.2951
  791SOL     OW 2371   1.940   1.185   0.146 -0.3729  0.2287 -0.9008
  791SOL    HW1 2372   1.858   1.134   0.188  1.0306 -0.7938  3.1669
  791SOL    HW2 2373   2.004   1.234   0.208 -1.0537  0.0101  0.3965
  792SOL     OW 2374   0.470   1.900   2.226 -0.4999 -0.7620 -0.1337
  792SOL    HW1 2375   0.533   1.950   2.291  0.1038 -2.1429 -0.5127
  792SOL    HW2 2376   0.457   1.796   2.236 -0.3806  0.8732 -2.1640
  793SOL     OW 2377   2.111   1.608   2.076 -0.1619  0.3051  0.0848
  793SOL    HW1 2378   2.193   1.660   2.052 -0.5357  2.6920 -1.1820
  793SOL    HW2 2379   2.114   1.509   2.054  0.1222  2.3296 -1.1337
  794SOL     OW 2380   0.438   1.598   2.245  0.4423 -0.4437  0.0119
  794SOL    HW1 2381   0.458   1.548   2.157 -1.8230 -1.8262  2.2982
  794SOL    HW2 2382   0.388   1.532   2.307  1.6718 -2.6910 -0.3182
  795SOL     OW 2383   2.473   2.232   1.798 -0.1390 -0.0512 -0.2534
  795SOL    HW1 2384   2.480   2.183   1.888 -2.0080 -0.0232  0.3119
  795SOL    HW2 2385   2.424   2.177   1.726 -1.9623 -0.7254 -0.9821
  796SOL     OW 2386   3.089   1.092   2.732  0.1296 -0.7761 -0.6397
  796SOL    HW1 2387   2.984   1.105   2.728 -1.3138 -0.3351  0.8265
  796SOL    HW2 2388   3.127   1.119   2.826  0.5659 -0.1124  1.7343
  797SOL     OW 2389   0.806   0.679   1.455 -0.0432 -0.4336  0.5448
  797SOL    HW1 2390   0.867   0.750   1.506  0.8479  1.3377 -1.2994
  797SOL    HW2 2391   0.733   0.728   1.397 -0.4857  0.3887  1.4017
  798SOL     OW 2392   1.373   0.487   1.175  0.1317 -0.3513  0.2964
  798SOL    HW1 2393   1.430   0.422   1.230  1.2757 -0.0620 -2.5195
  798SOL    HW2 2394   1.401   0.497   1.078 -1.3489  2.1117  0.4470
  799SOL     OW 2395   1.943   2.640   1.064 -0.1833 -0.0115 -0.0725
  799SOL    HW1 2396   1.861   2.598   1.119  0.8827 -2.0522  0.2746
  799SOL    HW2 2397   1.911   2.687   0.979  0.2415  0.2568  0.1508
  800SOL     OW 2398   3.053   0.627   1.830  0.4055  0.0170 -0.1084
  800SOL    HW1 2399   2.997   0.691   1.894 -0.6079 -1.7696  1.2919
  800SOL    HW2 2400   3.071   0.533   1.874 -0.4846 -0.0389 -0.5124
  801SOL     OW 2401   1.885   2.186   0.184  0.4987  0.2183  0.2878
  801SOL    HW1 2402   1.825   2.151   0.109 -1.1228 -0.7353  0.8152
  801SOL    HW2 2403   1.988   2.157   0.178  1.6157  0.4407  1.1983
  802SOL     OW 2404   0.739   0.830   2.557  0.3742 -0.0775  0.0656
  802SOL    HW1 2405   0.789   0.781   2.477  1.3565 -1.9000  0.8048
  802SOL    HW2 2406   0.642   0.808   2.546  0.8778 -0.0719  0.9245
  803SOL     OW 2407   0.884   0.163   0.977  0.3170  0.1434 -0.6338
  803SOL    HW1 2408   0.970   0.219   1.003  0.0009 -1.1611 -0.0213
  803SOL    HW2 2409   0.843   0.204   0.888  1.0543  1.7194  0.1031
  804SOL     OW 2410   0.381   3.074   2.072  0.4283 -0.1239 -0.0127
  804SOL    HW1 2411   0.327   3.142   2.009 -1.1458  0.4585 -0.3285
  804SOL    HW2 2412   0.347   2.974   2.062  1.0761 -0.8540 -0.2354
  805SOL     OW 2413   2.438   0.294   0.298  0.2591  0.5316  0.4713
  805SOL    HW1 2414   2.540   0.296   0.326 -0.4506 -0.2468 -1.4170
  805SOL    HW2 2415   2.407   0.238   0.208  1.8725 -0.3336 -3.1764
  806SOL     OW 2416   0.706   2.400   1.671 -0.0614  0.6688 -0.1018
  806SOL    HW1 2417   0.694   2.496   1.703 -0.2615 -1.3887 -0.8036
  806SOL    HW2 2418   0.803   2.384   1.644 -1.4280  1.2416  2.0687
  807SOL     OW 2419   2.491   0.930   0.440 -0.1052  0.1753 -0.5593
  807SOL    HW1 2420   2.593   0.922   0.458 -0.2941 -1.4650  3.5882
  807SOL    HW2 2421   2.470   0.977   0.346 -1.2981 -0.5763 -0.2294
  808SOL     OW 2422   0.610   1.976   3.011 -0.9379  0.2907 -0.3679
  808SOL    HW1 2423   0.555   2.015   3.083  0.2425 -0.9921  0.9240
  808SOL    HW2 2424   0.588   1.876   2.989  1.2349 -0.5369 -0.4946
  809SOL     OW 2425   2.697   2.000   1.916 -0.2136 -0.1891  0.0154
  809SOL    HW1 2426   2.777   2.067   1.906 -1.8234  1.4006 -0.4005
  809SOL    HW2 2427   2.661   1.973   1.822  0.0120  1.3722  0.1810
  810SOL     OW 2428   2.101   1.133   0.522 -0.0297  0.4480  0.3805
  810SOL    HW1 2429   2.163   1.095   0.599  0.4576 -2.1206  3.2701
  810SOL    HW2 2430   2.038   1.218   0.555  0.4058  0.7304  0.6183
  811SOL     OW 2431   1.341   2.309   1.214 -0.4321  0.5666  0.0921
  811SOL    HW1 2432   1.329   2.236   1.288  0.5808 -0.2861 -1.2658
  811SOL    HW2 2433   1.343   2.259   1.122  1.0490  0.1675 -0.1353
  812SOL     OW 2434   1.357   0.757   1.984 -0.2946  0.3446  0.1377
  812SOL    HW1 2435   1.424   0.832   2.013  2.7021 -1.6919 -0.2248
  812SOL    HW2 2436   1.257   0.781   1.977  0.4471 -1.3957 -0.8674
  813SOL     OW 2437   1.704   2.022   2.464 -0.4768 -0.0788  0.3067
  813SOL    HW1 2438   1.778   1.955   2.470  0.2086  1.7088  1.4721
  813SOL    HW2 2439   1.673   2.043   2.362 -0.0602  2.2418 -3.8538
  814SOL     OW 2440   2.866   1.593   2.921  0.0504 -1.1393 -0.1445
  814SOL    HW1 2441   2.965   1.594   2.943 -0.4423  0.0156 -1.5141
  814SOL    HW2 2442   2.832   1.662   2.849 -1.6030 -0.1188  0.7511
  815SOL     OW 2443   2.279   2.888   2.678  0.3035  0.0397  0.2478
  815SOL    HW1 2444   2.226   2.818   2.738 -1.0450 -0.7224 -0.1226
  815SOL    HW2 2445   2.380   2.868   2.674 -0.9288  0.0274 -3.3861
  816SOL     OW 2446   1.747   0.333   1.636  0.1271 -0.0953  0.3723
  816SOL    HW1 2447   1.643   0.345   1.646 -0.4389 -1.1855 -0.4280
  816SOL    HW2 2448   1.787   0.335   1.728  0.8451  2.5237  0.4233
  817SOL     OW 2449   0.472   1.201   2.469  0.2019 -0.0648  0.0231
  817SOL    HW1 2450   0.436   1.295   2.432 -0.0867  1.7969  1.3689
  817SOL    HW2 2451   0.524   1.146   2.399 -3.9758 -2.6200  0.8706
  818SOL     OW 2452   2.024   0.820   0.442 -0.2761  0.3411 -0.3120
  818SOL    HW1 2453   2.068   0.913   0.449 -1.6357 -0.8533  1.9337
  818SOL    HW2 2454   1.948   0.810   0.510 -1.7109 -0.3808  1.6758
  819SOL     OW 2455   2.759   2.974   3.054  0.0005 -0.4180  0.0395
  819SOL    HW1 2456   2.838   2.913   3.027  0.6902  0.1809 -0.1153
  819SOL    HW2 2457   2.671   2.950   2.997 -0.9687  3.1919 -3.0887
  820SOL     OW 2458   1.191   1.091   0.560 -0.2526  0.2287 -0.5385
  820SOL    HW1 2459   1.249   1.175   0.595  0.9565 -1.0474  2.9280
  820SOL    HW2 2460   1.192   1.005   0.621 -0.6057 -1.6203 -2.2157
  821SOL     OW 2461   3.078   1.307   0.648 -0.5586 -0.9013  0.2558
  821SOL    HW1 2462   3.034   1.304   0.746  1.0877 -0.3304 -2.2595
  821SOL    HW2 2463   3.140   1.390   0.627  0.3046  0.4235 -0.3118
  822SOL     OW 2464   2.563   1.772   2.480  0.2013  0.2842 -0.0122
  822SOL    HW1 2465   2.604   1.849   2.537 -0.2002 -0.9961  0.0401
  822SOL    HW2 2466   2.499   1.805   2.401  1.1225 -0.8394 -3.5255
  823SOL     OW 2467   2.010   0.880   1.184  0.5358  0.6237 -0.1524
  823SOL    HW1 2468   1.993   0.899   1.287 -0.4933  0.7418  0.6582
  823SOL    HW2 2469   1.923   0.895   1.129 -0.3976  1.2708 -0.3867
  824SOL     OW 2470   0.198   2.061   2.731 -0.3900 -0.3650  0.0392
  824SOL    HW1 2471   0.183   2.007   2.821 -0.2874  2.9978 -0.7579
  824SOL    HW2 2472   0.255   2.003   2.664 -0.2524  2.2585  0.8687
  825SOL     OW 2473   1.261   1.079   0.284 -0.7336 -0.5159 -0.5381
  825SOL    HW1 2474   1.217   1.088   0.378 -0.8025 -5.0224 -0.9527
  825SOL    HW2 2475   1.296   1.174   0.253  2.2584 -1.5083  1.3542
  826SOL     OW 2476   1.909   0.684   1.550 -0.0804  0.0577 -0.0180
  826SOL    HW1 2477   1.968   0.634   1.616  3.6060  1.2721 -0.9405
  826SOL    HW2 2478   1.834   0.624   1.515  0.1511 -1.9965  1.7714
  827SOL     OW 2479   0.788   1.400   0.243 -0.1660 -0.0135  0.2346
  827SOL    HW1 2480   0.811   1.337   0.165  1.8149  0.0562 -0.7312
  827SOL    HW2 2481   0.721   1.350   0.310 -1.4570  0.0238 -0.8928
  828SOL     OW 2482   2.575   0.055   1.597  0.3261  0.0963  0.0684
  828SOL    HW1 2483   2.488   0.100   1.564  0.5973 -1.1062 -0.2858
  828SOL    HW2 2484   2.568  -0.033   1.650 -2.2480 -0.7169 -0.3600
  829SOL     OW 2485   2.740   2.502   3.005  0.1627 -0.3576  0.5377
  829SOL    HW1 2486   2.678   2.419   3.029 -1.9462 -0.9743  0.3236
  829SOL    HW2 2487   2.722   2.591   3.053 -1.1760  0.3012 -1.2869
  830SOL     OW 2488   2.781   0.923   2.984 -0.1145 -0.1702  0.0116
  830SOL    HW1 2489   2.816   1.005   3.033 -0.6428  1.4790  0.1226
  830SOL    HW2 2490   2.833   0.838   3.006 -0.2130  0.4050 -1.2804
  831SOL     OW 2491   0.003   0.599   0.390 -0.4568 -0.2410  0.0731
  831SOL    HW1 2492  -0.041   0.526   0.448 -2.3352 -0.1685  1.2806
  831SOL    HW2 2493   0.023   0.570   0.289  1.5919 -1.0717  1.3028
  832SOL     OW 2494   1.801   0.749   3.066  0.2225  0.2473 -0.2546
  832SOL    HW1 2495   1.717   0.810   3.058  1.2315  0.4694  1.3525
  832SOL    HW2 2496   1.785   0.654   3.024  0.4066 -1.1827 -1.6173
  833SOL     OW 2497   2.413   2.126   0.582  0.4009  0.0216 -0.8587
  833SOL    HW1 2498   2.314   2.119   0.553  1.8456 -1.5528  2.7868
  833SOL    HW2 2499   2.460   2.037   0.554  0.9435  1.5163  0.9941
  834SOL     OW 2500   0.044   0.221   0.697  0.7874  0.2297 -0.3100
  834SOL    HW1 2501   0.041   0.165   0.781 -3.2292 -2.2325 -2.7024
  834SOL    HW2 2502   0.120   0.199   0.627  0.6443 -0.5517 -0.5364
  835SOL     OW 2503   2.459   1.475   1.189 -0.7881 -0.5783 -0.1842
  835SOL    HW1 2504   2.554   1.517   1.195  0.6043  1.0612 -1.4133
  835SOL    HW2 2505   2.436   1.431   1.094 -0.3012 -0.5552 -0.3723
  836SOL     OW 2506   1.548   0.865   2.589 -0.2547  0.0424  0.1257
  836SOL    HW1 2507   1.448   0.873   2.559 -1.7621 -0.5475 -0.5078
  836SOL    HW2 2508   1.612   0.886   2.511  0.7523 -1.4628  0.0732
  837SOL     OW 2509   1.517   0.078   0.463  0.1583 -0.8492  1.0257
  837SOL    HW1 2510   1.505   0.173   0.422  0.9082  0.5458 -1.2281
  837SOL    HW2 2511   1.518   0.011   0.383 -1.8038  0.9947  1.2232
  838SOL     OW 2512   1.339   1.625   2.674 -0.5058 -0.3731  0.0122
  838SOL    HW1 2513   1.395   1.578   2.749 -1.6358 -1.7708 -2.1678
  838SOL    HW2 2514   1.276   1.560   2.620 -0.0958 -2.1691  0.3177
  839SOL     OW 2515   1.613   0.247   0.971 -0.4243  0.3056  0.4167
  839SOL    HW1 2516   1.651   0.302   1.047  0.2678 -1.2743  0.3320
  839SOL    HW2 2517   1.587   0.150   1.005 -1.9083  2.5835  0.9252
  840SOL     OW 2518   2.564   2.907   1.720 -0.0205 -0.1235 -0.1620
  840SOL    HW1 2519   2.515   2.872   1.632 -0.7753 -0.7742 -0.4266
  840SOL    HW2 2520   2.587   2.819   1.781 -0.6931  2.3894  1.8901
  841SOL     OW 2521   1.582   0.913   3.051 -0.5399  0.5252 -0.1773
  841SOL    HW1 2522   1.495   0.911   3.102  1.4187 -1.6343 -4.5063
  841SOL    HW2 2523   1.570   0.973   2.965  0.6809  1.9684 -0.1189
  842SOL     OW 2524   0.799   1.494   0.883  0.5686  0.6720 -0.2951
  842SOL    HW1 2525   0.769   1.567   0.953 -1.5880 -0.6984  1.2939
  842SOL    HW2 2526   0.728   1.413   0.873 -0.4411  0.3129  0.6956
  843SOL     OW 2527   0.133   3.064   1.400  0.2675  0.0624  0.0590
  843SOL    HW1 2528   0.148   3.146   1.460 -0.7904 -0.7448  1.1434
  843SOL    HW2 2529   0.103   2.977   1.446 -0.9162 -0.6359 -1.0486
  844SOL     OW 2530   0.790   2.455   0.237  0.1918 -0.0552  0.2455
  844SOL    HW1 2531   0.741   2.417   0.319 -0.6399  0.0637  0.5372
  844SOL    HW2 2532   0.748   2.545   0.209 -0.6853 -0.4388 -1.1026
  845SOL     OW 2533   1.653   2.836   1.277 -0.4963 -0.2553  0.0380
  845SOL    HW1 2534   1.688   2.740   1.244 -0.7673 -1.5511 -3.1404
  845SOL    HW2 2535   1.670   2.848   1.383  1.2493  0.0724 -1.5668
  846SOL     OW 2536   1.512   3.031   0.758  0.1915 -0.4343 -0.5124
  846SOL    HW1 2537   1.540   3.130   0.753  2.0724 -1.8037  0.3304
  846SOL    HW2 2538   1.551   2.968   0.686  1.7736  1.1562  1.7778
  847SOL     OW 2539   2.086   1.769   0.451  0.0466  0.5476 -0.3058
  847SOL    HW1 2540   2.080   1.673   0.450 -0.8455 -0.7780  2.4541
  847SOL    HW2 2541   1.997   1.816   0.466  1.5975  2.6294 -1.6303
  848SOL     OW 2542   2.424   0.880   2.633  0.6149 -0.0075  0.3999
  848SOL    HW1 2543   2.397   0.959   2.692 -0.5757  1.9531 -2.5739
  848SOL    HW2 2544   2.352   0.812   2.613 -0.1401  0.5438 -0.3904
  849SOL     OW 2545   2.535   0.910   2.376 -0.9247 -0.5429 -0.1864
  849SOL    HW1 2546   2.611   0.843   2.388 -0.6031 -1.6259  0.1581
  849SOL    HW2 2547   2.479   0.910   2.464  3.1215 -1.2830  0.0766
  850SOL     OW 2548   1.569   0.030   1.352 -0.1596  0.3896 -0.1296
  850SOL    HW1 2549   1.598  -0.017   1.265 -2.6475  0.4891  2.4997
  850SOL    HW2 2550   1.498  -0.027   1.407  2.9539 -1.8626 -1.9656
  851SOL     OW 2551   0.584   1.707   0.729  0.3589  0.1563 -0.6169
  851SOL    HW1 2552   0.683   1.717   0.768 -0.7856 -0.4666  0.5312
  851SOL    HW2 2553   0.582   1.683   0.622  0.9936  0.4579 -1.3906
  852SOL     OW 2554   0.837   2.087   1.656 -0.1793  0.0251  0.0393
  852SOL    HW1 2555   0.836   2.171   1.598  4.6483  0.4617 -0.2275
  852SOL    HW2 2556   0.766   2.093   1.732  1.0974  1.4419 -0.5677
  853SOL     OW 2557   2.535   1.534   2.636  0.1532 -0.2892 -0.1480
  853SOL    HW1 2558   2.463   1.467   2.599 -0.1664 -1.6992 -0.9949
  853SOL    HW2 2559   2.545   1.618   2.575 -0.0185  0.9682 -0.4475
  854SOL     OW 2560   2.416   1.413   1.771 -0.2922 -0.0716  0.2900
  854SOL    HW1 2561   2.497   1.391   1.709  0.3612  1.1644  0.5538
  854SOL    HW2 2562   2.370   1.325   1.809  0.0501 -4.2881 -0.1140
  855SOL     OW 2563   2.065   2.382   1.130 -0.3682 -0.0172 -0.1403
  855SOL    HW1 2564   2.009   2.456   1.082  1.7929  0.6152 -2.0397
  855SOL    HW2 2565   2.139   2.425   1.191 -1.2076 -0.4384  0.2896
  856SOL     OW 2566   1.345   1.411   0.908 -0.4658  0.3676  0.4997
  856SOL    HW1 2567   1.410   1.465   0.964 -1.3023  0.1044  1.6113
  856SOL    HW2 2568   1.250   1.455   0.901 -0.4529  0.4109 -1.9224
  857SOL     OW 2569   0.036   2.712   1.058 -0.4270  0.2203  0.7378
  857SOL    HW1 2570   0.049   2.765   0.974 -1.3730  0.1524  0.8010
  857SOL    HW2 2571   0.103   2.629   1.069 -0.7488  0.4741  1.2787
  858SOL     OW 2572   2.386   2.044   1.637  0.3805  0.2864 -0.3279
  858SOL    HW1 2573   2.295   2.009   1.587 -0.5424 -0.3968  0.5807
  858SOL    HW2 2574   2.451   1.965   1.659 -0.4745  0.1886 -2.5838
  859SOL     OW 2575   2.424   0.571   1.096  0.7039 -0.3472 -0.0997
  859SOL    HW1 2576   2.486   0.636   1.048 -0.7306 -1.1384  1.2737
  859SOL    HW2 2577   2.471   0.483   1.109  0.3638  1.3963  0.0515
  860SOL     OW 2578   1.882   2.827   0.473 -0.3118 -0.4092  0.4941
  860SOL    HW1 2579   1.891   2.786   0.378  1.3752  1.4981 -0.6645
  860SOL    HW2 2580   1.919   2.927   0.467 -1.8089 -0.2853  1.9041
  861SOL     OW 2581   1.050   2.486   2.885 -0.5769  0.4299 -0.4281
  861SOL    HW1 2582   1.138   2.532   2.849  0.6486 -1.1685  2.5434
  861SOL    HW2 2583   1.039   2.504   2.988  0.8719  0.6551  0.4452
  862SOL     OW 2584   2.818   2.538   1.704  0.5537  0.3176 -0.8881
  862SOL    HW1 2585   2.907   2.512   1.756 -0.5083  1.4997  0.5189
  862SOL    HW2 2586   2.808   2.632   1.665 -0.9293  1.3663  3.0580
  863SOL     OW 2587   1.828   2.729   0.230 -0.0499  0.4902  0.0975
  863SOL    HW1 2588   1.862   2.627   0.222  3.2499 -2.8099 -1.5480
  863SOL    HW2 2589   1.729   2.745   0.195  0.2173 -0.8549  0.2125
  864SOL     OW 2590   2.055   1.212   2.777 -0.3290 -0.0586  0.3875
  864SOL    HW1 2591   2.023   1.174   2.682  0.5935 -1.4462 -1.5028
  864SOL    HW2 2592   2.154   1.185   2.794  1.0168  0.5739  1.7141
  865SOL     OW 2593   2.098   1.976   0.710  0.2048 -0.1792  0.0843
  865SOL    HW1 2594   2.178   1.918   0.732  0.5649 -1.1849 -1.0662
  865SOL    HW2 2595   2.011   1.957   0.765 -2.0989 -1.8581 -1.4276
  866SOL     OW 2596   2.959   2.932   1.086 -0.2880  0.5682 -0.2075
  866SOL    HW1 2597   2.966   2.993   0.996 -0.8392  0.1190 -0.2068
  866SOL    HW2 2598   3.024   2.854   1.094 -0.0348  0.8308  0.2768
  867SOL     OW 2599   0.337   1.364   0.881 -0.8737  0.1924  0.5734
  867SOL    HW1 2600   0.311   1.298   0.806  1.2161  0.6942 -3.0176
  867SOL    HW2 2601   0.346   1.461   0.848  1.8028 -0.3138  1.0910
  868SOL     OW 2602   0.801   1.905   2.066 -0.0991 -0.3427 -0.0327
  868SOL    HW1 2603   0.766   1.862   2.156  1.5387  2.9131  1.1070
  868SOL    HW2 2604   0.722   1.961   2.020 -5.0280  1.0214 -0.5030
  869SOL     OW 2605   2.624   1.892   1.666  0.1353 -0.1597 -0.3430
  869SOL    HW1 2606   2.659   1.976   1.613 -2.2772 -1.8130 -2.6496
  869SOL    HW2 2607   2.642   1.802   1.624 -0.7912  0.1362 -1.0042
  870SOL     OW 2608   2.378   2.677   1.148 -0.1395  0.5198 -0.5311
  870SOL    HW1 2609   2.369   2.585   1.200  2.3297  0.9536  0.0187
  870SOL    HW2 2610   2.462   2.724   1.186  2.1507  1.0509 -0.5585
  871SOL     OW 2611   3.067   2.255   0.556  0.1264  0.2865  0.0369
  871SOL    HW1 2612   3.032   2.322   0.624  0.2026  1.2319 -0.1529
  871SOL    HW2 2613   3.023   2.273   0.466  1.3271  2.8990 -0.1753
  872SOL     OW 2614   2.075   0.504   1.692  0.1066 -0.6092  0.7926
  872SOL    HW1 2615   2.017   0.519   1.782  1.2427 -2.8518  0.6838
  872SOL    HW2 2616   2.171   0.469   1.702 -1.8258 -1.5576  2.0865
  873SOL     OW 2617   1.720   2.058   3.086 -0.9306  0.7312 -0.3938
  873SOL    HW1 2618   1.653   1.985   3.057 -0.4911  1.4162 -2.7002
  873SOL    HW2 2619   1.762   2.112   3.005  1.0968  0.3234  0.3212
  874SOL     OW 2620   0.657   2.491   0.702  0.1125  0.5607 -0.1669
  874SOL    HW1 2621   0.647   2.587   0.745  0.6614 -2.4927  0.2677
  874SOL    HW2 2622   0.745   2.444   0.728  2.0740 -0.7113  1.0048
  875SOL     OW 2623   2.363   1.607   1.402 -0.8942  1.4103 -0.1841
  875SOL    HW1 2624   2.444   1.616   1.468  1.3061  0.6070 -2.3516
  875SOL    HW2 2625   2.388   1.554   1.320 -2.8007 -0.0420 -1.0006
  876SOL     OW 2626   0.075   2.299   2.656  0.1403  0.0585 -0.1011
  876SOL    HW1 2627   0.139   2.219   2.651  0.4891 -2.1690 -1.6741
  876SOL    HW2 2628   0.110   2.380   2.708 -0.5183  0.2205 -0.2915
  877SOL     OW 2629   2.878   2.619   0.679 -0.3966 -0.4138 -0.1103
  877SOL    HW1 2630   2.861   2.711   0.717  2.7688  0.0880  0.3421
  877SOL    HW2 2631   2.955   2.573   0.726 -3.3132  1.2930  1.6606
  878SOL     OW 2632   2.839   1.615   2.303  0.0099  0.0708 -0.0012
  878SOL    HW1 2633   2.801   1.712   2.294  0.6790  0.9657 -1.2749
  878SOL    HW2 2634   2.815   1.575   2.397  1.0348 -1.9864  0.6963
  879SOL     OW 2635   2.508   0.008   1.125 -0.6280  0.1375  0.1749
  879SOL    HW1 2636   2.539  -0.016   1.221  0.4165 -0.0925 -0.5651
  879SOL    HW2 2637   2.403  -0.011   1.114 -1.4763 -1.7682  0.6956
  880SOL     OW 2638   0.640   0.538   2.272 -0.2471  0.1208 -0.1452
  880SOL    HW1 2639   0.610   0.509   2.369 -2.2444 -1.3756 -1.3441
  880SOL    HW2 2640   0.665   0.461   2.202  1.1817  1.4822 -0.9856
  881SOL     OW 2641   0.819   0.101   0.489 -0.3807 -0.5157 -1.0687
  881SOL    HW1 2642   0.860   0.006   0.470  1.1418 -0.4091  1.4690
  881SOL    HW2 2643   0.724   0.107   0.441  0.0076  0.7575 -1.2541
  882SOL     OW 2644   2.753   1.626   1.743 -0.4721  0.3664 -0.8723
  882SOL    HW1 2645   2.826   1.585   1.687 -2.6460 -0.5344 -0.7080
  882SOL    HW2 2646   2.707   1.555   1.810 -1.3488 -1.5642  0.2723
  883SOL     OW 2647   0.831   0.514   0.858 -0.6503 -0.7542 -0.5200
  883SOL    HW1 2648   0.875   0.607   0.877 -1.4420 -1.7043 -0.1595
  883SOL    HW2 2649   0.764   0.479   0.927  0.9353 -0.3363 -0.2881
  884SOL     OW 2650   1.194   1.733   1.077 -0.2716 -0.3740  0.5388
  884SOL    HW1 2651   1.137   1.642   1.079  3.3550  1.3082  0.5335
  884SOL    HW2 2652   1.197   1.776   0.986  1.9279 -2.2016 -0.1735
  885SOL     OW 2653   2.347   1.867   2.288 -0.6083  0.3921 -0.3809
  885SOL    HW1 2654   2.281   1.800   2.331 -0.9097  1.8859  1.6504
  885SOL    HW2 2655   2.314   1.964   2.285 -0.8680 -1.0759  2.2193
  886SOL     OW 2656   2.592   0.380   1.769  0.3747 -0.3299  0.6401
  886SOL    HW1 2657   2.617   0.295   1.812  0.3723  0.5370  0.8328
  886SOL    HW2 2658   2.653   0.457   1.802  1.5096 -2.3145  0.6836
  887SOL     OW 2659   0.116   2.052   1.353  0.5057 -0.0888 -0.2898
  887SOL    HW1 2660   0.015   2.037   1.338  1.9867 -2.2302  0.0071
  887SOL    HW2 2661   0.148   2.127   1.296 -1.7886  0.0056  1.2057
  888SOL     OW 2662   0.604   1.221   1.565 -0.5352  0.7283  0.0276
  888SOL    HW1 2663   0.627   1.296   1.494  0.2198  0.0372  0.5139
  888SOL    HW2 2664   0.601   1.130   1.528  0.6136  0.9319 -0.4721
  889SOL     OW 2665   0.818   2.443   2.210  0.0755 -0.2198  0.0489
  889SOL    HW1 2666   0.745   2.379   2.252  2.4630 -0.4676  1.4403
  889SOL    HW2 2667   0.865   2.402   2.125  0.9320  0.3734 -0.2955
  890SOL     OW 2668   2.395   2.473   0.323  0.1756 -0.1700 -0.6227
  890SOL    HW1 2669   2.489   2.502   0.321 -1.1419  1.9712 -0.2655
  890SOL    HW2 2670   2.338   2.536   0.383  1.4504  1.7337 -3.2038
  891SOL     OW 2671   2.607   1.722   0.733  0.1851  0.0223 -0.6860
  891SOL    HW1 2672   2.673   1.664   0.795  3.3273  0.1819  2.3007
  891SOL    HW2 2673   2.507   1.692   0.745 -0.4225 -0.4167 -0.5380
  892SOL     OW 2674   0.368   0.285   2.244 -0.2853  0.7117  0.3176
  892SOL    HW1 2675   0.462   0.305   2.273 -2.3325  1.3570 -1.4630
  892SOL    HW2 2676   0.352   0.289   2.144 -1.4221  0.1193 -0.5543
  893SOL     OW 2677   1.753   0.247   2.677  0.3101  0.3078 -0.0125
  893SOL    HW1 2678   1.839   0.307   2.686 -3.5469  2.3018 -2.3963
  893SOL    HW2 2679   1.671   0.311   2.682  0.6116 -4.1603 -0.4429
  894SOL     OW 2680   2.133   2.097   0.117 -0.1355 -0.5937 -0.4469
  894SOL    HW1 2681   2.141   2.051   0.027  0.8631  1.9349  1.6589
  894SOL    HW2 2682   2.183   2.046   0.188 -0.9197 -0.8082 -0.1042
  895SOL     OW 2683   2.768   1.460   0.853  0.2122 -0.4663  0.2234
  895SOL    HW1 2684   2.857   1.407   0.857  1.0503  0.8029 -0.9999
  895SOL    HW2 2685   2.765   1.551   0.911  0.1813 -0.4456 -2.8220
  896SOL     OW 2686   1.837   1.704   1.265  0.0675  0.8256  0.4387
  896SOL    HW1 2687   1.939   1.706   1.248 -1.1201  0.7009 -1.9184
  896SOL    HW2 2688   1.785   1.657   1.187 -0.8619 -0.4134  0.2062
  897SOL     OW 2689   0.257   0.537   2.994 -0.4506  0.8057 -0.2780
  897SOL    HW1 2690   0.209   0.583   2.917  1.0941 -0.9045 -0.1846
  897SOL    HW2 2691   0.349   0.576   3.016 -2.9401 -0.8295  2.9973
  898SOL     OW 2692   0.668   2.843   1.110 -0.0351 -0.0182 -0.2953
  898SOL    HW1 2693   0.752   2.898   1.095 -1.2212  0.0060  1.2184
  898SOL    HW2 2694   0.672   2.790   1.200  2.2546 -1.8436  0.1485
  899SOL     OW 2695   2.875   0.936   1.375  0.3659  0.0455 -0.4956
  899SOL    HW1 2696   2.853   1.013   1.313  1.2280 -1.7779 -1.1171
  899SOL    HW2 2697   2.961   0.966   1.430 -1.0124  2.4995 -0.3659
  900SOL     OW 2698   0.959   2.513   2.446 -0.1148  0.1408  0.7914
  900SOL    HW1 2699   0.916   2.487   2.356 -0.5215 -1.0470 -0.4544
  900SOL    HW2 2700   0.904   2.487   2.532  0.9967 -2.1764  1.4221
  901SOL     OW 2701   1.884   2.367   1.437  0.1769 -0.0171 -0.6193
  901SOL    HW1 2702   1.889   2.285   1.368 -1.4248 -0.3728 -2.5173
  901SOL    HW2 2703   1.972   2.421   1.442  0.5754 -2.7897  1.0045
  902SOL     OW 2704   2.601   1.666   1.503 -0.6529 -0.2149  0.1624
  902SOL    HW1 2705   2.642   1.618   1.586 -1.1312 -3.3840 -0.2957
  902SOL    HW2 2706   2.652   1.647   1.410 -0.4204  1.1954 -0.0762
  903SOL     OW 2707   0.289   2.354   2.005  0.3275  0.0972 -0.2881
  903SOL    HW1 2708   0.246   2.263   1.982 -2.2201  1.7879 -0.8342
  903SOL    HW2 2709   0.298   2.422   1.931  1.0676  0.9060  1.6908
  904SOL     OW 2710   1.976   0.806   2.453  0.4501  0.5542 -0.0217
  904SOL    HW1 2711   1.905   0.732   2.479 -2.3018  0.1380 -1.0635
  904SOL    HW2 2712   2.041   0.770   2.377 -2.4153 -0.7061 -0.6126
  905SOL     OW 2713   2.815   0.120   2.404 -0.0777  0.1906 -0.1438
  905SOL    HW1 2714   2.872   0.032   2.422 -1.8160 -0.7403  3.2638
  905SOL    HW2 2715   2.857   0.214   2.426  1.6195  1.3337 -0.7737
  906SOL     OW 2716   0.155   1.733   1.902 -0.3932  0.3067  0.2729
  906SOL    HW1 2717   0.077   1.741   1.833 -2.2936  0.5983  0.6403
  906SOL    HW2 2718   0.225   1.812   1.893  3.3634 -0.0559 -1.8568
  907SOL     OW 2719   0.247   2.494   0.981 -0.5547  0.1960 -0.1465
  907SOL    HW1 2720   0.336   2.442   0.969  0.6098  2.1589  2.3121
  907SOL    HW2 2721   0.236   2.579   0.924 -0.2465  1.8578  1.4061
  908SOL     OW 2722   2.873   2.953   0.395 -0.0283  0.3397  0.1540
  908SOL    HW1 2723   2.768   2.963   0.375 -0.8732 -1.8660 -0.5365
  908SOL    HW2 2724   2.921   2.898   0.324 -1.2938  0.3618 -0.3433
  909SOL     OW 2725   0.899   1.032   2.629  0.1939 -0.0928 -0.4860
  909SOL    HW1 2726   0.840   0.946   2.609 -0.9660  0.6456  1.1097
  909SOL    HW2 2727   0.947   1.065   2.545 -1.6699  1.4879 -0.7512
  910SOL     OW 2728   1.849   1.869   2.112 -0.7465  0.1890  0.3001
  910SOL    HW1 2729   1.910   1.917   2.040 -0.4749 -0.6724  1.8868
  910SOL    HW2 2730   1.785   1.944   2.147 -1.0215 -0.9233  2.5022
  911SOL     OW 2731   1.765   2.854   1.555 -0.7330  0.3138  0.0592
  911SOL    HW1 2732   1.864   2.858   1.522 -0.6278  2.0543  1.5902
  911SOL    HW2 2733   1.756   2.771   1.619 -0.0591  1.3844  0.5639
  912SOL     OW 2734   2.829   0.991   0.713  0.4223 -0.6155 -0.4148
  912SOL    HW1 2735   2.852   0.928   0.794 -0.4113  0.1232  1.0802
  912SOL    HW2 2736   2.765   1.070   0.737  0.4641 -1.4681 -0.1595
  913SOL     OW 2737   2.592   1.290   1.600 -0.1214 -0.4523  0.1832
  913SOL    HW1 2738   2.557   1.197   1.614  1.5431  2.1978  0.5384
  913SOL    HW2 2739   2.634   1.306   1.506  1.1994 -1.0658  0.2298
  914SOL     OW 2740   2.894   0.566   1.154 -0.4572 -0.0278  0.5481
  914SOL    HW1 2741   2.897   0.464   1.165 -0.9672  0.9963  1.5298
  914SOL    HW2 2742   2.836   0.600   1.231 -1.8819  0.7787 -2.0405
  915SOL     OW 2743   1.207   0.680   0.915  0.2134  0.6626 -0.5686
  915SOL    HW1 2744   1.254   0.723   0.996 -0.0695 -0.9972  1.7758
  915SOL    HW2 2745   1.104   0.682   0.929  0.5472  1.9047 -1.4188
  916SOL     OW 2746   0.598   0.092   0.669  0.0255 -0.2384  0.0594
  916SOL    HW1 2747   0.632   0.149   0.753  0.5095  1.2937  1.2116
  916SOL    HW2 2748   0.574   0.152   0.583  2.1804 -1.1176 -1.5992
  917SOL     OW 2749   2.844   2.631   2.036 -0.0827 -0.3477  0.0024
  917SOL    HW1 2750   2.753   2.642   1.992 -0.6907  0.5754 -0.4620
  917SOL    HW2 2751   2.925   2.676   1.997 -0.4183  0.3459 -0.5692
  918SOL     OW 2752   1.079   2.088   3.041  0.1123  0.1297  0.2115
  918SOL    HW1 2753   1.063   2.156   3.118  0.6798  1.0300  1.1735
  918SOL    HW2 2754   1.125   2.130   2.960  0.5093 -0.7523  2.0271
  919SOL     OW 2755   0.760   1.675   2.780 -0.0203 -0.5814  0.3696
  919SOL    HW1 2756   0.841   1.738   2.779  0.4840 -0.1136  3.2651
  919SOL    HW2 2757   0.767   1.602   2.710  1.8622  0.1803 -1.3272
  920SOL     OW 2758   1.351   1.811   2.474 -0.3435  0.4124  0.4795
  920SOL    HW1 2759   1.439   1.773   2.429 -1.2455 -0.9672 -1.6963
  920SOL    HW2 2760   1.330   1.760   2.566  0.4323  0.0179  0.0973
  921SOL     OW 2761   1.121   0.134   2.564  0.0859 -0.4049 -0.2769
  921SOL    HW1 2762   1.093   0.088   2.474 -1.4345  0.9020  2.6317
  921SOL    HW2 2763   1.042   0.138   2.630  0.1616  0.4422  2.4855
  922SOL     OW 2764   2.174   2.460   2.847  0.2734  0.6548 -0.5993
  922SOL    HW1 2765   2.200   2.360   2.849 -1.9169 -1.1656 -0.5497
  922SOL    HW2 2766   2.110   2.476   2.761  0.9415 -0.2025 -2.9598
  923SOL     OW 2767   1.171   2.708   0.281  0.1561 -0.0334 -0.3754
  923SOL    HW1 2768   1.241   2.783   0.283 -0.5082  1.5887 -0.1873
  923SOL    HW2 2769   1.213   2.616   0.280  0.0376 -0.1961  1.9785
  924SOL     OW 2770   2.933   1.685   0.140  0.5126  0.3571  0.1503
  924SOL    HW1 2771   2.835   1.660   0.103  0.7772 -0.3770  0.9324
  924SOL    HW2 2772   2.995   1.600   0.120  2.2094 -1.6883  0.3267
  925SOL     OW 2773   3.098   2.893   1.583  0.7406  0.3199 -0.1263
  925SOL    HW1 2774   3.010   2.896   1.646  1.0061  2.4812 -0.5934
  925SOL    HW2 2775   3.098   2.807   1.526 -2.2025 -3.7012  0.0866
  926SOL     OW 2776   1.250   2.738   1.325  0.3310  0.6592  0.2286
  926SOL    HW1 2777   1.255   2.727   1.225 -1.7041  1.6419 -0.2246
  926SOL    HW2 2778   1.313   2.808   1.365  2.8265 -1.0383 -2.9866
  927SOL     OW 2779   0.368   2.578   1.784 -0.3634  0.4423 -0.0975
  927SOL    HW1 2780   0.337   2.517   1.705 -0.1274 -0.0017  0.1342
  927SOL    HW2 2781   0.367   2.682   1.769  0.6715  0.7022  0.3228
  928SOL     OW 2782   1.674   2.070   2.201 -0.1412  0.1064  0.5356
  928SOL    HW1 2783   1.693   2.160   2.161  1.6138 -0.7756  3.0667
  928SOL    HW2 2784   1.572   2.048   2.204  0.9095 -0.7847 -0.2335
  929SOL     OW 2785   2.434   2.515   2.912 -0.1756 -0.1972 -0.2130
  929SOL    HW1 2786   2.341   2.474   2.925 -0.4189 -0.1211 -0.8792
  929SOL    HW2 2787   2.480   2.475   2.820  1.2663 -0.8644 -1.7885
  930SOL     OW 2788   2.130   2.072   1.065 -0.4288  0.9216  0.3849
  930SOL    HW1 2789   2.156   2.018   1.153  0.5453 -1.1700  0.2313
  930SOL    HW2 2790   2.113   2.170   1.082 -0.5313 -0.3665  1.7421
  931SOL     OW 2791   0.474   1.599   2.636  0.1381 -0.2069  0.0022
  931SOL    HW1 2792   0.492   1.637   2.728 -1.6292  2.2783 -1.1957
  931SOL    HW2 2793   0.550   1.553   2.587  0.5786  1.2400 -1.0717
  932SOL     OW 2794   0.361   0.023   3.088 -0.1778  0.0180 -0.1581
  932SOL    HW1 2795   0.380   0.120   3.065  0.6278 -0.5094  1.0249
  932SOL    HW2 2796   0.391  -0.048   3.022  0.1639 -0.8017 -2.2853
  933SOL     OW 2797   0.994   0.838   2.990  0.4871 -0.0424  0.1289
  933SOL    HW1 2798   1.001   0.896   3.075 -1.6661  1.4176  1.0700
  933SOL    HW2 2799   0.971   0.737   3.004 -1.2102 -0.1347  2.1455
  934SOL     OW 2800   0.880   2.948   2.608 -0.0067  0.5046  0.3049
  934SOL    HW1 2801   0.844   2.887   2.536  2.0681  3.2542  0.2309
  934SOL    HW2 2802   0.922   2.895   2.694  1.3146  1.2150  0.1434
  935SOL     OW 2803   0.019   0.634   0.751 -0.8220 -0.0333  0.4096
  935SOL    HW1 2804  -0.029   0.562   0.691 -1.2437 -4.7809  0.6896
  935SOL    HW2 2805  -0.055   0.693   0.805  0.0850 -1.5687  2.1480
  936SOL     OW 2806   1.111   2.885   0.088  0.2045 -0.2887  0.2102
  936SOL    HW1 2807   1.197   2.912   0.036  1.3155 -1.6475  0.4901
  936SOL    HW2 2808   1.124   2.807   0.157 -2.0158 -1.0480  0.4996
  937SOL     OW 2809   2.001   2.605   2.093 -0.5161 -0.0689 -0.4130
  937SOL    HW1 2810   1.978   2.647   2.185 -2.2302 -0.3429  2.1243
  937SOL    HW2 2811   1.985   2.675   2.015 -2.1431 -0.0795  1.5088
  938SOL     OW 2812   2.763   2.116   1.536 -0.6362  0.5357 -0.0357
  938SOL    HW1 2813   2.734   2.215   1.553 -3.9777  0.9915  1.6322
  938SOL    HW2 2814   2.845   2.090   1.603  0.9493 -0.9259  0.8616
  939SOL     OW 2815   2.836   1.208   2.484 -0.1868 -0.2488  0.0081
  939SOL    HW1 2816   2.909   1.167   2.420  0.3529 -1.0404 -0.1616
  939SOL    HW2 2817   2.830   1.176   2.585  1.4475 -0.9161  1.7269
  940SOL     OW 2818   1.061   0.424   2.737 -0.1804  0.3113  0.2639
  940SOL    HW1 2819   1.137   0.353   2.731 -1.3191  0.2940  0.2547
  940SOL    HW2 2820   0.987   0.415   2.668 -1.7043  1.7794  0.7143
  941SOL     OW 2821   0.084   2.813   2.286 -0.2142  0.2255 -0.5119
  941SOL    HW1 2822   0.083   2.715   2.263  0.2255 -0.2746 -0.7763
  941SOL    HW2 2823   0.180   2.839   2.317  0.0244 -0.8442  2.8584
  942SOL     OW 2824   0.142   0.043   2.428 -0.4957  0.1519  0.1022
  942SOL    HW1 2825   0.139   0.057   2.533  0.6970  0.8450  0.5589
  942SOL    HW2 2826   0.173   0.131   2.377  0.4442  0.8589  1.3050
  943SOL     OW 2827   2.131   1.687   2.363  0.0471  0.2735 -0.2911
  943SOL    HW1 2828   2.103   1.674   2.262 -1.4055  0.5143  0.1067
  943SOL    HW2 2829   2.132   1.608   2.424 -0.6654  0.7710 -1.6496
  944SOL     OW 2830   2.188   2.308   1.567  0.5620 -0.0051  0.2874
  944SOL    HW1 2831   2.233   2.311   1.658 -0.2002 -2.5518 -1.6320
  944SOL    HW2 2832   2.137   2.216   1.556  1.8033 -1.2280  1.0535
  945SOL     OW 2833   0.655   1.642   0.169  0.5272  0.7551  0.2696
  945SOL    HW1 2834   0.573   1.619   0.106  1.6966 -0.3486 -2.3167
  945SOL    HW2 2835   0.705   1.556   0.195 -0.1686  1.5745  0.9756
  946SOL     OW 2836   0.374   0.993   2.583  0.1865 -0.1381 -0.2372
  946SOL    HW1 2837   0.312   0.932   2.522 -1.9715  2.0539  0.4740
  946SOL    HW2 2838   0.413   1.083   2.537  0.5593  1.8949 -0.1147
  947SOL     OW 2839   1.477   0.539   3.032 -0.3914  0.0064 -0.0196
  947SOL    HW1 2840   1.482   0.605   2.954 -1.8175 -0.0717 -0.7006
  947SOL    HW2 2841   1.386   0.491   3.038 -1.5101  1.1618  1.6696
  948SOL     OW 2842   1.946   2.942   2.143  0.6333 -0.2047  0.4861
  948SOL    HW1 2843   1.960   2.897   2.054 -1.0971 -2.5331  2.0203
  948SOL    HW2 2844   1.907   2.879   2.217  0.4390  0.1845  0.3573
  949SOL     OW 2845   0.584   2.512   0.440 -0.1018 -0.5410  0.1865
  949SOL    HW1 2846   0.571   2.612   0.419 -1.6345  1.6201  1.3721
  949SOL    HW2 2847   0.584   2.492   0.546  1.6187 -2.2698 -0.3939
  950SOL     OW 2848   0.228   2.233   2.959 -0.0251 -0.1228 -0.0822
  950SOL    HW1 2849   0.214   2.324   2.905  0.4488 -0.0342  0.0787
  950SOL    HW2 2850   0.191   2.158   2.908 -2.7711  4.8927  1.4691
  951SOL     OW 2851   1.259   2.681   2.798 -0.0757 -0.0155 -0.3010
  951SOL    HW1 2852   1.330   2.614   2.832  2.1154 -1.5310  2.3198
  951SOL    HW2 2853   1.267   2.705   2.695  3.4113  0.9265  1.6858
  952SOL     OW 2854   0.025   1.635   0.408  0.2628  0.7542 -0.1701
  952SOL    HW1 2855   0.074   1.725   0.390  0.1836 -1.5722 -1.6116
  952SOL    HW2 2856   0.086   1.584   0.479 -2.3927 -0.5797 -2.3552
  953SOL     OW 2857   2.471   1.728   0.314  0.2470 -0.2431 -0.3141
  953SOL    HW1 2858   2.454   1.628   0.320 -1.9554 -1.5459  1.1977
  953SOL    HW2 2859   2.461   1.767   0.219  0.5366 -1.4985  1.2931
  954SOL     OW 2860   2.216   0.514   0.918 -0.4392  0.1569  0.2664
  954SOL    HW1 2861   2.249   0.501   0.822  1.5724 -1.7156  3.6202
  954SOL    HW2 2862   2.291   0.523   0.986  0.2753 -1.4491 -1.0631
  955SOL     OW 2863   0.158   2.620   1.382  0.6460  0.0465 -0.0938
  955SOL    HW1 2864   0.058   2.645   1.384  1.5302 -0.6960  0.2566
  955SOL    HW2 2865   0.211   2.701   1.342 -0.6389 -1.0629  0.6632
  956SOL     OW 2866   2.797   2.482   2.538 -0.1683  0.7569  0.1070
  956SOL    HW1 2867   2.825   2.381   2.524 -0.8457 -1.3343  1.2812
  956SOL    HW2 2868   2.835   2.537   2.458  0.9887  0.9004  2.1457
  957SOL     OW 2869   1.644   2.043   2.747 -0.5841  0.3509 -0.2753
  957SOL    HW1 2870   1.615   1.966   2.810  3.3882  1.9496  0.2282
  957SOL    HW2 2871   1.681   2.015   2.649  1.9811 -0.5394 -1.9413
  958SOL     OW 2872   2.602   2.247   3.026  0.0078  0.8009  0.0830
  958SOL    HW1 2873   2.498   2.256   3.027  2.2473 -0.0775 -0.2576
  958SOL    HW2 2874   2.635   2.203   3.113  0.2844 -0.8778  2.6344
  959SOL     OW 2875   0.380   2.813   0.116 -0.0967 -0.1042  0.3770
  959SOL    HW1 2876   0.280   2.841   0.137  0.3701  0.5035  1.7957
  959SOL    HW2 2877   0.396   2.711   0.122  1.7031 -1.5471  0.0843
  960SOL     OW 2878   1.922   0.527   1.912 -0.3611  0.0676  0.0960
  960SOL    HW1 2879   1.850   0.601   1.885  0.6324 -1.2319  1.1419
  960SOL    HW2 2880   1.927   0.507   2.012  0.9069 -0.8645  0.8196
  961SOL     OW 2881   2.507   1.897   1.063 -0.3025 -0.1423  0.1442
  961SOL    HW1 2882   2.543   1.993   1.053  0.1079  0.8880 -1.8761
  961SOL    HW2 2883   2.494   1.875   1.164 -0.6347  2.2815 -0.2529
  962SOL     OW 2884   1.329   0.915   0.042  0.3185  0.0524 -0.0311
  962SOL    HW1 2885   1.296   0.960  -0.046 -1.9544 -0.4222 -1.4200
  962SOL    HW2 2886   1.313   0.965   0.127 -1.1184 -1.8486 -2.6451
  963SOL     OW 2887   2.283   2.583   1.816  0.8275 -0.2619  0.4317
  963SOL    HW1 2888   2.264   2.481   1.824  1.1955 -1.3598 -0.2560
  963SOL    HW2 2889   2.335   2.626   1.894  0.5121 -0.1856 -0.8104
  964SOL     OW 2890   2.337   0.396   1.660  0.6499  0.3171  0.6174
  964SOL    HW1 2891   2.430   0.403   1.702 -3.3736 -0.5731 -0.6334
  964SOL    HW2 2892   2.335   0.392   1.556 -0.3745 -0.8057  1.6202
  965SOL     OW 2893   2.649   3.020   0.224 -0.7010 -1.0103  0.1930
  965SOL    HW1 2894   2.686   2.990   0.130 -1.6420  0.7611 -0.2093
  965SOL    HW2 2895   2.558   3.069   0.214  0.7780 -0.8705 -0.4795
  966SOL     OW 2896   2.498   2.495   2.247 -0.3743 -0.3634 -0.3430
  966SOL    HW1 2897   2.512   2.585   2.199 -0.2855 -0.4388 -0.9061
  966SOL    HW2 2898   2.394   2.475   2.259  0.3769  0.3681 -0.0855
  967SOL     OW 2899   2.739   2.855   2.503 -0.2842 -1.1920 -0.3942
  967SOL    HW1 2900   2.768   2.791   2.428  0.5626  1.0765 -2.5409
  967SOL    HW2 2901   2.813   2.922   2.527  2.0099 -1.4093  1.9671
  968SOL     OW 2902   1.951   1.069   2.585  0.5448  0.1319  0.2157
  968SOL    HW1 2903   1.867   1.121   2.560  0.5652 -0.6205  0.5118
  968SOL    HW2 2904   1.969   1.004   2.508  3.4047  0.3807  1.9581
  969SOL     OW 2905   2.692   2.586   1.057  1.1241 -0.3685 -0.1051
  969SOL    HW1 2906   2.719   2.683   1.028 -0.6290  1.9814  0.4689
  969SOL    HW2 2907   2.706   2.514   0.983  0.6937 -0.2671  1.4746
  970SOL     OW 2908   1.074   2.110   1.871  0.1686 -0.4836  0.0801
  970SOL    HW1 2909   1.074   2.023   1.931  2.0004 -1.4386 -2.0077
  970SOL    HW2 2910   1.005   2.111   1.797  1.2887 -0.6104 -0.7532
  971SOL     OW 2911   2.925   2.181   1.966 -0.2989  0.3896 -0.3873
  971SOL    HW1 2912   2.899   2.267   2.017  0.2036  0.5084 -1.1638
  971SOL    HW2 2913   3.020   2.184   1.920  1.1986 -2.1914 -0.8124
  972SOL     OW 2914   1.875   2.450   0.260  0.2846 -0.2763 -0.0159
  972SOL    HW1 2915   1.894   2.359   0.223 -1.9419 -1.4075 -1.6662
  972SOL    HW2 2916   1.900   2.465   0.363 -0.9212  1.1075  0.3538
  973SOL     OW 2917   1.133   0.885   1.890  0.3477  0.1387 -0.1412
  973SOL    HW1 2918   1.079   0.804   1.932  0.2333  1.7800 -0.3783
  973SOL    HW2 2919   1.077   0.956   1.839 -0.6847  1.3249  0.8612
  974SOL     OW 2920   1.566   0.542   1.971  0.6416  0.0189  0.1903
  974SOL    HW1 2921   1.635   0.589   1.911  0.4204 -1.8214 -0.5803
  974SOL    HW2 2922   1.483   0.602   1.985  0.2145 -1.1609  0.8107
  975SOL     OW 2923   2.376   3.010   0.036 -0.7708 -0.0166  0.2999
  975SOL    HW1 2924   2.308   2.931   0.027  0.9983  0.0689 -2.0046
  975SOL    HW2 2925   2.437   3.023  -0.052  0.1393  1.9453 -0.5999
  976SOL     OW 2926   1.924   2.740   2.324 -0.2318 -0.0356 -0.5137
  976SOL    HW1 2927   1.837   2.708   2.371  1.8028 -1.5878 -0.2843
  976SOL    HW2 2928   2.007   2.740   2.384 -2.6919 -0.4198  0.0836
  977SOL     OW 2929   0.498   0.670   0.967 -0.5482  0.5035  0.2734
  977SOL    HW1 2930   0.415   0.682   0.909  1.2804  0.8664 -1.2576
  977SOL    HW2 2931   0.560   0.750   0.965  1.8363  1.0529  1.4840
   3.10000   3.10000   3.10000
