1000 SPC/Fw water molecules t=   0.96000 step= 960
 2931
    1SOL     OW    1   2.538   0.313   2.660  0.8604 -0.5931 -0.0538
    1SOL    HW1    2   2.527   0.213   2.632  0.8591  1.6542 -1.9046
    1SOL    HW2    3   2.567   0.333   2.759  0.1807 -1.2653  0.7028
    2SOL     OW    4   2.696   3.045   1.431 -0.0029 -0.0991 -0.2474
    2SOL    HW1    5   2.789   3.051   1.378 -0.4501 -0.1473  0.0600
    2SOL    HW2    6   2.678   3.123   1.495 -0.7750 -0.1568 -2.3973
    3SOL     OW    7   2.684   2.616   0.438  0.3059  0.2846  0.7137
    3SOL    HW1    8   2.660   2.515   0.442 -2.5730  1.4628  0.8747
    3SOL    HW2    9   2.760   2.642   0.498 -0.9841 -2.2662 -0.5301
    4SOL     OW   10   1.245   1.543   2.308 -0.3461  0.3763  0.0838
    4SOL    HW1   11   1.161   1.575   2.256  1.3393 -1.6813  3.0675
    4SOL    HW2   12   1.220   1.451   2.355 -0.5708 -0.7280 -1.8491
    5SOL     OW   13   1.163   1.488   3.071  0.0108 -0.2445 -0.2575
    5SOL    HW1   14   1.225   1.570   3.090  0.3600  0.4611  1.9655
    5SOL    HW2   15   1.067   1.504   3.112  0.7564 -1.6905  0.9417
    6SOL     OW   16   0.138   1.779   2.963 -0.0641 -0.2934  0.8076
    6SOL    HW1   17   0.048   1.817   3.001  0.0454 -2.3028 -3.1649
    6SOL    HW2   18   0.194   1.745   3.039 -0.5170 -0.6761 -0.7122
    7SOL     OW   19   2.607   0.911   1.097 -0.3723 -0.4063 -0.4415
    7SOL    HW1   20   2.525   0.866   1.138  0.0601  1.3459 -0.1078
    7SOL    HW2   21   2.595   0.927   0.998 -2.1455  1.3164  2.4755
    8SOL     OW   22   0.378   0.649   1.562  0.3693  0.6852 -0.6369
    8SOL    HW1   23   0.472   0.615   1.586  0.2663 -2.6768 -3.5989
    8SOL    HW2   24   0.369   0.653   1.460 -0.8718 -1.6472  1.2616
    9SOL     OW   25   1.192   0.897   2.413  0.0349  0.2108 -0.3084
    9SOL    HW1   26   1.238   0.943   2.335 -4.4068  0.3628  1.7088
    9SOL    HW2   27   1.141   0.812   2.390  1.6209  3.1104 -0.2897
   10SOL     OW   28   0.665   1.357   1.273  0.2220  0.2045  0.1210
   10SOL    HW1   29   0.560   1.374   1.262 -3.6407 -0.0645 -2.6905
   10SOL    HW2   30   0.723   1.441   1.292  0.5776 -0.6119  1.2687
   11SOL     OW   31   2.324   2.766   0.841 -0.0957  0.8569 -0.1092
   11SOL    HW1   32   2.266   2.798   0.925 -3.1372  0.5972 -0.8060
   11SOL    HW2   33   2.427   2.761   0.860  1.6552  1.1786 -0.2196
   12SOL     OW   34   1.491   0.891   0.333  0.2834 -0.3640 -0.3270
   12SOL    HW1   35   1.426   0.967   0.304  0.5008 -0.9744  2.8388
   12SOL    HW2   36   1.509   0.814   0.264  0.0244  2.1120 -2.0494
   13SOL     OW   37   2.497   0.709   1.776  0.2480  0.6824 -0.4026
   13SOL    HW1   38   2.404   0.674   1.809 -1.3005 -2.4808 -1.4524
   13SOL    HW2   39   2.518   0.681   1.681  0.2544  0.5243  0.3330
   14SOL     OW   40   1.884   0.104   0.687  0.1829  0.5222 -0.4862
   14SOL    HW1   41   1.812   0.112   0.612  0.2229  1.0371  0.7940
   14SOL    HW2   42   1.847   0.046   0.767  2.5391 -2.5180  0.9360
   15SOL     OW   43   1.992   2.088   2.719 -0.4410  0.2162 -0.0718
   15SOL    HW1   44   1.937   2.162   2.772 -0.3167  0.7908  1.2037
   15SOL    HW2   45   1.938   2.001   2.710 -0.0466  1.4824 -0.7552
   16SOL     OW   46   1.607   1.723   2.978  0.2249 -0.4198  0.1623
   16SOL    HW1   47   1.586   1.632   3.030  1.4092 -2.6743 -2.8461
   16SOL    HW2   48   1.707   1.753   2.994  0.9678 -0.4589  0.2568
   17SOL     OW   49   0.116   0.502   0.201  0.1368 -0.5989 -0.5191
   17SOL    HW1   50   0.210   0.521   0.166 -0.9426  2.5143 -0.0454
   17SOL    HW2   51   0.039   0.538   0.136 -1.5336  0.4388 -2.3563
   18SOL     OW   52   0.958   2.889   2.146  0.4259 -0.2059 -0.0111
   18SOL    HW1   53   0.875   2.843   2.109 -1.2338  3.1317  0.9164
   18SOL    HW2   54   1.040   2.877   2.078 -0.9733  0.1160  0.0518
   19SOL     OW   55   0.538   0.821   1.900  0.5481  0.2812  0.1581
   19SOL    HW1   56   0.568   0.737   1.962  1.3912  0.6788 -0.7779
   19SOL    HW2   57   0.615   0.874   1.853  2.4864 -1.6258  1.2129
   20SOL     OW   58   0.185   2.698   0.817  0.1429 -0.0329 -0.0145
   20SOL    HW1   59   0.130   2.776   0.777 -1.6116  0.2676  1.7678
   20SOL    HW2   60   0.240   2.648   0.746 -1.1025 -0.4988 -0.7529
   21SOL     OW   61   2.679   0.245   2.053  0.3492  0.0594 -0.4778
   21SOL    HW1   62   2.630   0.199   1.971  0.4968 -2.1837 -0.5940
   21SOL    HW2   63   2.769   0.192   2.080  0.8520  1.6974  0.8778
   22SOL     OW   64   2.371   0.253   0.166 -0.2323  0.4131 -0.2575
   22SOL    HW1   65   2.364   0.155   0.189 -1.4727  1.4936  3.1149
   22SOL    HW2   66   2.281   0.289   0.123 -1.4440 -0.0616  0.0083
   23SOL     OW   67   2.791   0.624   0.634  0.1248 -0.2829 -0.2962
   23SOL    HW1   68   2.785   0.517   0.643 -1.7500 -4.3954  2.8555
   23SOL    HW2   69   2.779   0.654   0.536 -2.2334 -1.7062 -2.0470
   24SOL     OW   70   0.218   1.915   0.385 -0.2348 -0.1337  0.3895
   24SOL    HW1   71   0.171   1.980   0.325  0.8024  1.4288 -0.5809
   24SOL    HW2   72   0.319   1.903   0.353  1.7101 -1.2164 -1.9783
   25SOL     OW   73   2.218   0.618   0.242  0.4979  0.7055 -0.0520
   25SOL    HW1   74   2.238   0.617   0.141 -0.2148 -3.4840 -0.3436
   25SOL    HW2   75   2.223   0.520   0.280 -0.8492 -3.1152  1.2939
   26SOL     OW   76   2.504   2.117   2.074 -0.4909  0.6030  0.2037
   26SOL    HW1   77   2.574   2.185   2.115  1.1728  0.2048 -0.8928
   26SOL    HW2   78   2.553   2.056   1.999  3.1910 -2.1172  0.0171
   27SOL     OW   79   0.605   2.939   0.195 -0.6568 -0.7808  0.0929
   27SOL    HW1   80   0.707   2.950   0.184 -1.8063 -1.0868 -1.1088
   27SOL    HW2   81   0.551   2.958   0.107  0.3397  2.4426 -0.9410
   28SOL     OW   82   1.589   0.194   0.290 -0.2930  0.4849  0.0778
   28SOL    HW1   83   1.626   0.165   0.196 -2.6707  0.4312 -0.0233
   28SOL    HW2   84   1.603   0.296   0.306  0.8854  2.3368 -0.5097
   29SOL     OW   85   1.980   0.644   0.390 -0.1053 -0.1965 -0.7182
   29SOL    HW1   86   1.955   0.729   0.442  2.2377  0.0154  2.3835
   29SOL    HW2   87   2.075   0.643   0.351  0.4193  0.0722  2.1630
   30SOL     OW   88   0.154   1.973   0.883 -0.0922  0.1716 -0.2560
   30SOL    HW1   89   0.104   1.953   0.791 -1.2849 -1.3857  1.5368
   30SOL    HW2   90   0.092   2.027   0.949  0.1406 -0.3818  3.1786
   31SOL     OW   91   2.108   3.087   2.372  0.0962 -0.2408 -0.0003
   31SOL    HW1   92   2.098   3.065   2.475  0.8864 -1.3436  0.3355
   31SOL    HW2   93   2.034   3.033   2.322  0.0547  2.0902  1.9583
   32SOL     OW   94   2.970   0.038   0.215 -0.2794 -0.2920  0.9550
   32SOL    HW1   95   2.962  -0.066   0.194  1.5216  1.3489  2.2179
   32SOL    HW2   96   3.059   0.091   0.192  1.0272  1.0255 -2.3114
   33SOL     OW   97   0.940   0.295   0.574 -0.0597 -0.0266 -0.2497
   33SOL    HW1   98   0.931   0.200   0.532 -0.1826  1.6269  1.8410
   33SOL    HW2   99   1.038   0.324   0.599 -0.9361  1.7704 -1.4597
   34SOL     OW  100   0.307   2.753   1.100  0.6758  0.5067 -0.2880
   34SOL    HW1  101   0.276   2.700   1.016  2.9500 -0.7865  2.1604
   34SOL    HW2  102   0.413   2.778   1.102  0.5313 -0.9104  0.5271
   35SOL     OW  103   0.022   0.073   1.907  0.1734  0.0677 -0.3084
   35SOL    HW1  104   0.066  -0.019   1.920 -0.0547  2.5848  0.8138
   35SOL    HW2  105  -0.023   0.083   1.816  0.6336 -1.0169  2.1166
   36SOL     OW  106   1.917   1.231   1.707  0.4034  1.2292 -0.1255
   36SOL    HW1  107   1.979   1.168   1.655 -2.4282  1.3254 -2.4501
   36SOL    HW2  108   1.963   1.322   1.736 -2.8846  4.2779 -0.3944
   37SOL     OW  109   1.169   0.209   0.979 -0.1709  0.5919  0.5372
   37SOL    HW1  110   1.231   0.278   1.024  0.5673  0.4913 -0.9647
   37SOL    HW2  111   1.215   0.155   0.906 -0.4434 -1.9447  0.4543
   38SOL     OW  112   1.085   2.821   2.496  0.1008  0.2799 -0.0542
   38SOL    HW1  113   0.997   2.767   2.503  1.3181  1.1852 -2.1949
   38SOL    HW2  114   1.072   2.917   2.461  0.8089  2.5635 -1.6251
   39SOL     OW  115   2.317   1.427   3.054 -0.5645  1.0906  0.4345
   39SOL    HW1  116   2.393   1.353   3.058 -0.8210 -1.7147 -1.2899
   39SOL    HW2  117   2.294   1.464   3.152 -0.7078 -0.7361  2.2388
   40SOL     OW  118   2.025   2.427   2.537 -0.6304  0.1720  0.1763
   40SOL    HW1  119   1.962   2.504   2.562  1.0668  1.3263 -1.3285
   40SOL    HW2  120   1.979   2.357   2.478  1.0145 -0.6268 -1.6828
   41SOL     OW  121   3.050   0.684   2.845 -0.0268  0.3124 -0.0973
   41SOL    HW1  122   2.999   0.771   2.842  1.5625 -1.2552 -3.5961
   41SOL    HW2  123   2.984   0.614   2.811  0.9346 -0.0650 -2.7740
   42SOL     OW  124   1.790   1.738   0.498 -0.0815  0.2281  0.5186
   42SOL    HW1  125   1.742   1.648   0.503 -0.8933  5.4825 -0.0389
   42SOL    HW2  126   1.789   1.778   0.404 -0.2577 -1.0922  1.4415
   43SOL     OW  127   0.461   1.660   1.135 -0.0621  0.3036  0.1272
   43SOL    HW1  128   0.459   1.612   1.226 -0.3284  1.0461 -2.7785
   43SOL    HW2  129   0.365   1.679   1.101 -2.2078  0.9763 -2.0160
   44SOL     OW  130   1.747   2.484   3.016 -0.3190 -0.8658  0.2872
   44SOL    HW1  131   1.759   2.584   2.990 -0.3961  1.1332 -0.3386
   44SOL    HW2  132   1.781   2.422   2.937  0.3434  1.3428 -1.8950
   45SOL     OW  133   0.392   1.928   2.619 -0.4177 -0.4464  0.4795
   45SOL    HW1  134   0.341   1.911   2.529 -0.9292 -1.4944  0.5946
   45SOL    HW2  135   0.440   1.844   2.648  0.8789  0.1743 -0.0626
   46SOL     OW  136   1.239   0.670   0.178 -0.2965 -0.3839 -0.4105
   46SOL    HW1  137   1.284   0.759   0.136  1.5137  0.1771  0.9283
   46SOL    HW2  138   1.138   0.669   0.166  0.3821 -0.1589  0.8182
   47SOL     OW  139   0.207   2.508   1.544 -0.7047 -0.0539 -0.0842
   47SOL    HW1  140   0.223   2.409   1.569  3.8732 -2.0420  2.6259
   47SOL    HW2  141   0.173   2.525   1.446  0.3250 -0.7612 -0.1648
   48SOL     OW  142   2.643   0.635   0.122 -0.2482 -0.3325  0.1516
   48SOL    HW1  143   2.611   0.607   0.220 -3.0900 -0.4235 -0.7856
   48SOL    HW2  144   2.732   0.685   0.119 -0.0003 -2.0363  2.5283
   49SOL     OW  145   0.286   0.797   1.772  0.0632 -0.0658  0.6611
   49SOL    HW1  146   0.370   0.820   1.830  0.5539 -0.3157 -1.4300
   49SOL    HW2  147   0.309   0.726   1.698 -2.3221 -0.3159 -0.9315
   50SOL     OW  148   1.679   1.137   0.344 -0.2370 -0.1995  0.0532
   50SOL    HW1  149   1.653   1.041   0.312  0.3145 -0.6006 -4.1733
   50SOL    HW2  150   1.646   1.155   0.441  2.4114  2.2732  1.7826
   51SOL     OW  151   2.869   1.776   0.252  0.4329 -0.2904 -0.0835
   51SOL    HW1  152   2.832   1.697   0.191 -0.4712 -1.0538 -4.4538
   51SOL    HW2  153   2.936   1.730   0.318  1.2252  0.5360 -2.8840
   52SOL     OW  154   0.770   2.027   0.530  0.3594  0.2947  0.5098
   52SOL    HW1  155   0.683   2.077   0.568 -2.4421  2.4256 -0.7535
   52SOL    HW2  156   0.797   1.941   0.590  1.0686 -0.0357 -1.8326
   53SOL     OW  157   0.189   0.426   1.591 -0.0089 -0.3258  0.3603
   53SOL    HW1  158   0.258   0.504   1.600 -2.2891  1.6797 -1.5274
   53SOL    HW2  159   0.114   0.457   1.527  0.9660 -1.0465 -0.9587
   54SOL     OW  160   1.786   0.514   3.082 -0.0350  0.1138 -0.0007
   54SOL    HW1  161   1.845   0.463   3.148 -0.8171  0.6220  2.4307
   54SOL    HW2  162   1.679   0.504   3.088 -0.9292  0.2588  0.9686
   55SOL     OW  163   0.738   2.865   0.677  0.2951  0.2123 -0.0603
   55SOL    HW1  164   0.693   2.957   0.678 -0.3166  2.2032 -2.9402
   55SOL    HW2  165   0.840   2.871   0.687  0.7641  3.2371  4.5208
   56SOL     OW  166   0.575   1.566   0.018  0.0704 -0.1803  0.0392
   56SOL    HW1  167   0.482   1.612   0.014  0.5431 -0.5435 -1.0840
   56SOL    HW2  168   0.576   1.472  -0.031 -0.0668 -3.3170 -0.2771
   57SOL     OW  169   1.751   2.517   2.429  0.4617 -0.0108 -0.8177
   57SOL    HW1  170   1.796   2.431   2.392 -0.0406  3.7778  1.4629
   57SOL    HW2  171   1.663   2.496   2.485 -2.5778  2.4267  1.8065
   58SOL     OW  172   0.675   0.283   1.062  0.3081  0.2088  0.0594
   58SOL    HW1  173   0.578   0.288   1.108  1.5163 -0.2028 -0.0035
   58SOL    HW2  174   0.710   0.184   1.057 -2.6084  1.9799 -1.2833
   59SOL     OW  175   0.451   2.401   2.726 -0.1973 -1.1853  0.1701
   59SOL    HW1  176   0.481   2.306   2.701 -0.5504  2.4372  0.3572
   59SOL    HW2  177   0.496   2.448   2.810 -0.7725 -0.7360  1.3061
   60SOL     OW  178   2.299   2.056   2.235  0.3226  0.1859  0.0813
   60SOL    HW1  179   2.379   2.081   2.168 -1.6490  0.4047  1.3376
   60SOL    HW2  180   2.328   2.086   2.336 -0.4352 -0.6334  0.8878
   61SOL     OW  181   1.328   0.657   0.496  0.0020  0.2187 -0.8531
   61SOL    HW1  182   1.248   0.713   0.527 -2.0801  0.4048 -2.8268
   61SOL    HW2  183   1.359   0.673   0.400  2.4388  0.0841  1.0689
   62SOL     OW  184   2.731   1.816   2.931 -0.9215  0.2660  0.0997
   62SOL    HW1  185   2.711   1.712   2.932  1.9765 -2.6929 -0.2632
   62SOL    HW2  186   2.830   1.836   2.903 -1.2767 -0.1525  2.1058
   63SOL     OW  187   0.551   0.823   0.192 -0.3879 -0.6494  0.0938
   63SOL    HW1  188   0.587   0.901   0.134  0.7937 -2.1422 -0.8829
   63SOL    HW2  189   0.588   0.828   0.284 -0.5165  1.4575 -0.5543
   64SOL     OW  190   0.074   0.469   2.453 -0.0353 -0.5145  0.4545
   64SOL    HW1  191   0.179   0.477   2.452  2.7038 -1.1405  1.4036
   64SOL    HW2  192   0.027   0.522   2.371 -1.2403 -2.9423 -0.1723
   65SOL     OW  193   0.136   1.524   0.558 -0.2203 -0.0917  0.6007
   65SOL    HW1  194   0.196   1.574   0.629  1.5773  0.2956 -1.4490
   65SOL    HW2  195   0.198   1.472   0.489 -2.4006 -0.7413  0.5039
   66SOL     OW  196   2.553   0.361   0.607 -0.0859  0.0746  0.0243
   66SOL    HW1  197   2.653   0.351   0.623  0.0274  0.3215 -2.5399
   66SOL    HW2  198   2.491   0.291   0.651 -1.2801  0.4260 -3.1023
   67SOL     OW  199   0.561   2.520   1.417  0.5282  0.0327  0.5063
   67SOL    HW1  200   0.648   2.470   1.442 -0.3132 -1.0749 -5.0733
   67SOL    HW2  201   0.479   2.456   1.395  1.1654  0.3008  0.9307
   68SOL     OW  202   0.994   1.078   2.472  0.9850  0.2087  0.1335
   68SOL    HW1  203   1.063   1.010   2.431  1.6036 -0.4385 -1.7590
   68SOL    HW2  204   0.920   1.109   2.401 -0.6056  3.7260 -0.4940
   69SOL     OW  205   0.717   2.726   2.141  0.0762 -0.0816 -0.2937
   69SOL    HW1  206   0.759   2.628   2.125  0.2086  0.0615 -0.8609
   69SOL    HW2  207   0.616   2.717   2.162  2.5853 -0.1796 -4.2511
   70SOL     OW  208   0.517   0.274   2.665 -0.7969 -0.8425  0.3429
   70SOL    HW1  209   0.431   0.317   2.702  1.8004  0.0806 -0.8025
   70SOL    HW2  210   0.522   0.170   2.662 -0.2042 -0.5608 -0.0827
   71SOL     OW  211   1.107   1.781   0.450  0.1167  0.4688 -0.2899
   71SOL    HW1  212   1.067   1.708   0.514 -1.0132  2.1350 -3.3922
   71SOL    HW2  213   1.044   1.815   0.370  1.2022  2.2775 -4.0558
   72SOL     OW  214   1.831   0.201   2.154 -0.4260 -0.1815 -0.2659
   72SOL    HW1  215   1.908   0.272   2.178  3.7485  2.2284  0.2411
   72SOL    HW2  216   1.864   0.104   2.152  0.5800  0.3964 -0.9920
   73SOL     OW  217   2.810   2.146   2.403  0.1029  0.2131  0.2467
   73SOL    HW1  218   2.804   2.051   2.374  1.4090  1.7881  0.6875
   73SOL    HW2  219   2.849   2.152   2.503  1.2450 -2.1159 -0.8424
   74SOL     OW  220   2.689   2.878   2.126  0.7139 -0.0300  0.4019
   74SOL    HW1  221   2.637   2.889   2.220  0.2973 -0.2119  3.9853
   74SOL    HW2  222   2.790   2.899   2.134  0.7293  3.4273 -3.4983
   75SOL     OW  223   0.911   0.830   1.097  0.8601  0.3643  0.1844
   75SOL    HW1  224   0.822   0.857   1.052  2.0155  1.8509 -2.1513
   75SOL    HW2  225   0.918   0.887   1.185 -0.1767 -0.0152  2.8337
   76SOL     OW  226   1.716   1.186   2.511  0.5288  0.4532 -0.0022
   76SOL    HW1  227   1.623   1.160   2.475  0.8445  0.5445 -1.1966
   76SOL    HW2  228   1.713   1.283   2.539  2.4329 -0.4957 -1.1257
   77SOL     OW  229   2.956   0.942   0.960 -0.1722  0.5083  0.1140
   77SOL    HW1  230   2.897   0.858   0.952  1.6641  0.3964 -0.6952
   77SOL    HW2  231   3.033   0.923   1.029 -2.2930 -0.4720  0.6115
   78SOL     OW  232   2.030   1.479   1.483 -0.1853 -0.0434 -0.5685
   78SOL    HW1  233   2.094   1.555   1.451 -2.0856 -0.3304 -0.3817
   78SOL    HW2  234   1.943   1.471   1.429 -0.1554 -1.2832  0.8947
   79SOL     OW  235   0.620   1.377   0.831  0.5138  0.0289  0.2812
   79SOL    HW1  236   0.534   1.413   0.870  1.4263  3.3178 -1.7240
   79SOL    HW2  237   0.608   1.315   0.746  0.0512 -4.4168 -0.3522
   80SOL     OW  238   0.607   0.497   1.574  0.2560 -0.3604 -0.4336
   80SOL    HW1  239   0.697   0.530   1.538  1.4965 -0.9699  0.3370
   80SOL    HW2  240   0.581   0.404   1.535 -0.0695  0.9657  0.5586
   81SOL     OW  241   1.033   1.367   2.640 -0.3500 -0.6191 -0.3477
   81SOL    HW1  242   1.031   1.264   2.648  0.9101 -1.3344  2.3066
   81SOL    HW2  243   0.985   1.409   2.561  0.4579  0.4987  0.4945
   82SOL     OW  244   0.986   2.986   1.503 -0.4366  0.2650 -0.2155
   82SOL    HW1  245   0.943   3.031   1.417 -1.3014  0.2185 -0.6371
   82SOL    HW2  246   1.015   2.890   1.484  1.6520  2.4406  0.2608
   83SOL     OW  247   2.704   2.422   0.844 -0.5791 -0.2703 -0.2784
   83SOL    HW1  248   2.633   2.365   0.792 -0.3224 -1.1246 -2.3295
   83SOL    HW2  249   2.685   2.519   0.833 -3.1845 -3.5408 -0.9388
   84SOL     OW  250   0.650   3.034   2.349  0.0283  0.3165 -0.5795
   84SOL    HW1  251   0.591   3.055   2.433 -1.9528 -0.6555  2.2981
   84SOL    HW2  252   0.701   2.948   2.369 -1.4028  1.3279  1.9842
   85SOL     OW  253   0.270   1.587   1.482  0.4135  0.6292 -0.0564
   85SOL    HW1  254   0.280   1.693   1.484 -2.9585  2.4870 -1.2652
   85SOL    HW2  255   0.347   1.541   1.538  0.0994  1.1542  0.6676
   86SOL     OW  256   0.414   0.987   1.544  0.2466  0.0423  0.1999
   86SOL    HW1  257   0.397   0.955   1.449 -1.0130  1.5046  1.4053
   86SOL    HW2  258   0.428   0.907   1.607  1.4688  0.2528 -0.5407
   87SOL     OW  259   1.557   0.641   0.212 -0.0438  0.2315 -0.0898
   87SOL    HW1  260   1.639   0.702   0.203 -0.1000  0.0001 -0.8632
   87SOL    HW2  261   1.548   0.579   0.134 -0.3935  0.6117  0.2523
   88SOL     OW  262   1.575   1.387   0.248  0.3562 -0.4275  0.4410
   88SOL    HW1  263   1.624   1.308   0.289 -1.9313 -0.7081  0.3756
   88SOL    HW2  264   1.472   1.382   0.263  0.3318  1.9438  0.9528
   89SOL     OW  265   3.089   0.458   0.581 -0.1566 -0.1117  0.1117
   89SOL    HW1  266   3.142   0.394   0.519 -3.2013  1.4460 -0.8532
   89SOL    HW2  267   2.992   0.425   0.600  2.8689 -0.9324  0.6445
   90SOL     OW  268   0.910   1.562   0.083 -0.1188 -0.0646  0.3131
   90SOL    HW1  269   0.831   1.567   0.149  0.4127  0.7545  0.8580
   90SOL    HW2  270   0.885   1.577  -0.018 -0.6682  1.0823  0.4685
   91SOL     OW  271   1.247   1.437   1.853  0.4415  0.1829 -0.1168
   91SOL    HW1  272   1.210   1.527   1.901  0.0259  2.5942 -1.5516
   91SOL    HW2  273   1.337   1.450   1.801  0.3126  0.8414  1.4838
   92SOL     OW  274   3.078   0.956   1.228 -0.0923 -0.1030 -0.0187
   92SOL    HW1  275   3.138   1.037   1.201 -1.2095  0.3577 -0.2165
   92SOL    HW2  276   3.083   0.935   1.329  1.3532 -1.3140 -0.9908
   93SOL     OW  277   0.031   2.721   3.051 -0.3341  0.3334  0.5561
   93SOL    HW1  278  -0.047   2.728   2.981  0.9082  1.6597 -0.0531
   93SOL    HW2  279   0.025   2.640   3.116  0.4188 -1.3001 -0.5397
   94SOL     OW  280   1.493   1.481   1.734 -0.1713 -0.6706  0.1492
   94SOL    HW1  281   1.548   1.393   1.726 -3.2365 -1.5305 -1.4984
   94SOL    HW2  282   1.516   1.545   1.815 -0.4147  1.1259  0.9366
   95SOL     OW  283   1.413   2.515   2.977  0.7118 -0.0158  0.3396
   95SOL    HW1  284   1.352   2.515   3.056  0.7877  0.0680 -0.1664
   95SOL    HW2  285   1.439   2.417   2.946 -1.0888 -2.9782 -0.1437
   96SOL     OW  286   0.546   2.123   1.234 -0.2155 -0.0383 -0.1994
   96SOL    HW1  287   0.517   2.084   1.139  0.1974 -0.8096  0.2481
   96SOL    HW2  288   0.606   2.059   1.295  0.1097  0.5460  1.8400
   97SOL     OW  289   0.452   1.632   2.474  0.1171  0.5977 -0.6550
   97SOL    HW1  290   0.361   1.673   2.451 -0.8817  1.4391  0.7713
   97SOL    HW2  291   0.466   1.638   2.576 -0.1902  0.9946 -3.2566
   98SOL     OW  292   2.028   1.608   1.199  0.5653  0.8017 -0.0079
   98SOL    HW1  293   1.962   1.542   1.242  0.4115  1.4113 -2.4925
   98SOL    HW2  294   2.102   1.567   1.143 -0.3947  1.4014  0.2588
   99SOL     OW  295   2.500   2.042   1.310 -0.1027 -0.3508 -0.4236
   99SOL    HW1  296   2.505   2.055   1.412  0.3554 -2.3446 -0.3416
   99SOL    HW2  297   2.477   1.945   1.281  1.6106 -0.6043 -0.9395
  100SOL     OW  298   2.381   0.311   2.127 -0.4155  0.2375 -0.2062
  100SOL    HW1  299   2.311   0.262   2.187 -1.2449 -0.1293  0.9084
  100SOL    HW2  300   2.432   0.372   2.193  0.8738  2.0214  2.0290
  101SOL     OW  301   0.397   1.460   0.436  0.1668 -0.5516  0.2534
  101SOL    HW1  302   0.393   1.515   0.522  0.0797  2.0258 -0.7397
  101SOL    HW2  303   0.490   1.429   0.414 -1.2221 -0.5771  0.7727
  102SOL     OW  304   2.241   1.035   0.853 -0.1908  0.0195 -0.1561
  102SOL    HW1  305   2.180   0.949   0.837  1.2913  1.0504 -1.1680
  102SOL    HW2  306   2.278   1.074   0.767 -2.9331  0.6040 -0.6173
  103SOL     OW  307   2.259   0.084   0.413 -0.1958  0.0532 -0.2060
  103SOL    HW1  308   2.282   0.183   0.419  0.7318 -0.9755  3.5956
  103SOL    HW2  309   2.330   0.023   0.462 -1.1373  0.8355  0.4197
  104SOL     OW  310   0.085   1.770   2.192  0.4023  0.1410 -0.2500
  104SOL    HW1  311   0.145   1.744   2.110  2.3970  1.7233 -0.6865
  104SOL    HW2  312  -0.007   1.795   2.161  2.3138  0.8190  2.7670
  105SOL     OW  313   1.261   2.086   0.783  0.5295 -0.2381 -0.2436
  105SOL    HW1  314   1.163   2.072   0.757  0.4124  0.1705  0.8839
  105SOL    HW2  315   1.316   1.997   0.795  1.4112  1.9160  0.3797
  106SOL     OW  316   2.090   0.421   1.404  0.1321  0.4027 -0.1961
  106SOL    HW1  317   2.053   0.324   1.409  2.8447 -0.9650  2.7935
  106SOL    HW2  318   2.080   0.464   1.497 -0.5830 -0.6072 -0.8884
  107SOL     OW  319   1.819   2.966   1.201  0.3576 -0.6869  0.5659
  107SOL    HW1  320   1.841   3.054   1.247  1.0211 -0.9053  0.1903
  107SOL    HW2  321   1.734   2.925   1.245 -0.7501 -2.4017  3.2715
  108SOL     OW  322   0.763   2.761   1.270  0.1887  0.1494  0.0501
  108SOL    HW1  323   0.753   2.730   1.371  2.5148 -0.3248  1.1381
  108SOL    HW2  324   0.860   2.793   1.242 -1.2799  1.9471 -0.9814
  109SOL     OW  325   2.136   0.096   0.808 -0.0431 -0.1978  0.3008
  109SOL    HW1  326   2.051   0.109   0.750  0.5818  1.5620 -0.5490
  109SOL    HW2  327   2.115   0.055   0.902  0.2316 -0.4364  1.8024
  110SOL     OW  328   0.457   2.847   2.780  0.5141  0.3423  0.1250
  110SOL    HW1  329   0.428   2.823   2.679 -0.2288  0.0262 -1.9325
  110SOL    HW2  330   0.534   2.778   2.816  1.6210  0.3978 -0.8494
  111SOL     OW  331   1.302   0.513   2.317 -0.4699 -0.5414  0.3995
  111SOL    HW1  332   1.232   0.568   2.373 -0.7846 -1.5923 -0.4482
  111SOL    HW2  333   1.347   0.442   2.376  0.6931  0.7548  1.3151
  112SOL     OW  334   1.666   0.512   1.448  0.4771 -0.3185  0.0625
  112SOL    HW1  335   1.707   0.486   1.355  1.1747  0.1317 -1.8356
  112SOL    HW2  336   1.651   0.425   1.506  0.3246  2.0820  3.4721
  113SOL     OW  337   2.304   1.684   1.768 -0.3032  0.3268  0.2044
  113SOL    HW1  338   2.377   1.619   1.737  1.0880  2.6703  0.7575
  113SOL    HW2  339   2.326   1.714   1.866  0.9539  0.8472 -1.2021
  114SOL     OW  340   0.403   0.552   1.271 -0.5501 -0.0664  0.3437
  114SOL    HW1  341   0.422   0.594   1.175  3.0213 -0.5264  1.4048
  114SOL    HW2  342   0.298   0.540   1.287 -1.0287 -0.7338  1.6121
  115SOL     OW  343   2.725   1.616   1.203 -0.0630  0.6616 -0.2360
  115SOL    HW1  344   2.702   1.516   1.220 -2.1554 -1.6203  2.1797
  115SOL    HW2  345   2.785   1.633   1.122 -3.3427 -1.6558  0.8242
  116SOL     OW  346   1.802   1.065   0.650  0.0437 -0.0550 -0.5931
  116SOL    HW1  347   1.720   1.003   0.634 -0.1516  1.8353  0.5122
  116SOL    HW2  348   1.772   1.137   0.715 -0.2669 -2.7508 -1.0024
  117SOL     OW  349   1.210   0.339   0.573 -0.4573 -0.8349  0.6498
  117SOL    HW1  350   1.253   0.414   0.629  1.7973 -2.1492 -1.1166
  117SOL    HW2  351   1.234   0.348   0.469  1.9708  0.8743 -3.9667
  118SOL     OW  352   1.174   1.079   1.121 -0.0860 -0.1518  0.2066
  118SOL    HW1  353   1.128   1.021   1.191 -0.4336 -1.6528  0.6042
  118SOL    HW2  354   1.154   1.176   1.145 -2.1654 -5.1143  0.9885
  119SOL     OW  355   1.822   1.618   2.176  0.0775  0.4807 -0.0151
  119SOL    HW1  356   1.785   1.708   2.136  0.9840  2.5942 -1.1688
  119SOL    HW2  357   1.926   1.615   2.178 -0.0529 -0.4262 -0.4753
  120SOL     OW  358   2.954   2.871   0.123 -0.2954 -0.5611  0.2724
  120SOL    HW1  359   3.028   2.818   0.071  1.7587 -1.7152  1.1629
  120SOL    HW2  360   2.866   2.814   0.114  1.7520  0.3034 -0.4794
  121SOL     OW  361   2.006   0.749   2.222  0.0238  0.1332  0.4578
  121SOL    HW1  362   1.993   0.798   2.131 -0.1178 -0.0717  2.2534
  121SOL    HW2  363   2.019   0.644   2.214 -1.8662 -1.9056 -0.3042
  122SOL     OW  364   2.575   2.619   1.283 -0.2454 -0.4063  0.4992
  122SOL    HW1  365   2.616   2.531   1.239 -0.9857 -0.3491 -0.6875
  122SOL    HW2  366   2.478   2.644   1.259 -1.2106 -1.6175  1.7374
  123SOL     OW  367   1.742   0.079   1.686  0.2406 -0.2110 -0.1674
  123SOL    HW1  368   1.773  -0.009   1.638 -0.7412  0.3402  2.6263
  123SOL    HW2  369   1.810   0.121   1.748  0.2717 -0.0662  1.9542
  124SOL     OW  370   0.074   0.466   1.101 -0.3623 -0.6531  0.1606
  124SOL    HW1  371   0.079   0.541   1.173  1.7854  2.3460  3.5990
  124SOL    HW2  372   0.060   0.513   1.008  0.7489 -1.5918  0.0984
  125SOL     OW  373   0.862   1.839   0.695 -0.1553  0.2357  0.0857
  125SOL    HW1  374   0.963   1.822   0.720  2.1627 -0.0639 -1.4865
  125SOL    HW2  375   0.805   1.873   0.778  0.3221 -0.5866  0.2527
  126SOL     OW  376   1.850   2.274   2.371 -0.3541 -0.1483 -0.4703
  126SOL    HW1  377   1.915   2.242   2.292  0.0634 -2.1357 -0.5451
  126SOL    HW2  378   1.790   2.194   2.396  0.3601  1.2161 -2.9160
  127SOL     OW  379   1.025   0.900   0.247 -0.4213 -0.2070 -0.4844
  127SOL    HW1  380   1.016   0.960   0.332 -0.2930  0.1086  0.4688
  127SOL    HW2  381   0.987   0.805   0.262  1.8966  1.7982  1.4342
  128SOL     OW  382   0.962   0.207   1.393  0.7783 -0.4418 -0.1714
  128SOL    HW1  383   0.974   0.273   1.318  1.4798 -1.9360  3.2088
  128SOL    HW2  384   0.911   0.119   1.353  0.3287 -0.1479  0.9436
  129SOL     OW  385   1.837   0.657   1.877  0.2117 -0.7061 -0.5758
  129SOL    HW1  386   1.828   0.652   1.770 -1.7115 -0.6112  1.1236
  129SOL    HW2  387   1.858   0.755   1.909  0.3531  1.3876 -1.0463
  130SOL     OW  388   1.384   2.174   1.000  0.1748  0.0925 -0.2261
  130SOL    HW1  389   1.347   2.161   0.899 -0.8830 -2.4579 -1.1119
  130SOL    HW2  390   1.446   2.257   1.011 -1.2351 -1.5228  2.1391
  131SOL     OW  391   3.020   1.433   1.394 -0.5007 -0.9734 -0.2133
  131SOL    HW1  392   2.962   1.346   1.416 -2.4926 -0.2884 -0.5226
  131SOL    HW2  393   3.123   1.413   1.394  0.8248  1.0107 -0.2725
  132SOL     OW  394   2.052   2.433   0.519  0.0037  0.3088 -0.5516
  132SOL    HW1  395   1.952   2.461   0.522  1.7467 -2.1100 -4.5669
  132SOL    HW2  396   2.072   2.350   0.584 -0.6758 -2.0778  3.2313
  133SOL     OW  397   1.837   2.330   2.783 -0.5768 -0.2490 -0.9820
  133SOL    HW1  398   1.801   2.313   2.687 -1.6087  1.8484 -0.8872
  133SOL    HW2  399   1.938   2.361   2.792  0.3772  2.0183  3.3590
  134SOL     OW  400   2.652   2.340   1.585  0.2844 -0.4101 -0.1023
  134SOL    HW1  401   2.587   2.307   1.659 -2.0562 -0.7546 -1.7949
  134SOL    HW2  402   2.714   2.417   1.613 -1.2853 -0.0700 -0.1924
  135SOL     OW  403   0.670   1.465   2.631  0.3930  0.2981 -0.0554
  135SOL    HW1  404   0.640   1.381   2.684  5.1346 -0.4706 -0.4057
  135SOL    HW2  405   0.709   1.434   2.543  2.9015  0.3127 -1.6328
  136SOL     OW  406   1.203   2.022   0.427 -0.9250 -0.1252  0.2713
  136SOL    HW1  407   1.134   2.091   0.464  1.8197  0.2368 -1.4778
  136SOL    HW2  408   1.174   1.922   0.451 -1.4137  0.6076  1.5068
  137SOL     OW  409   0.399   1.195   2.157  0.0801 -0.2194  0.4569
  137SOL    HW1  410   0.314   1.162   2.204 -0.0402 -0.3226  0.4591
  137SOL    HW2  411   0.472   1.129   2.184 -2.5178  2.4347  1.1999
  138SOL     OW  412   2.501   1.485   0.241  0.3725 -0.1533  0.2416
  138SOL    HW1  413   2.415   1.430   0.216  0.6429  0.4224  0.2450
  138SOL    HW2  414   2.554   1.426   0.308  0.5471  0.4232  0.3965
  139SOL     OW  415   1.857   2.599   1.324  0.9554  0.4243  0.5333
  139SOL    HW1  416   1.753   2.619   1.335 -0.1028 -0.5554 -2.7721
  139SOL    HW2  417   1.882   2.499   1.306 -0.9656  1.5656 -0.0863
  140SOL     OW  418   3.037   3.008   2.547 -0.6134 -0.4429 -0.5479
  140SOL    HW1  419   3.089   2.920   2.549 -3.0250  0.5577  0.7752
  140SOL    HW2  420   3.097   3.088   2.516 -0.8322 -1.8026 -1.9719
  141SOL     OW  421   1.340   1.662   1.610 -0.2031  0.1330 -0.1863
  141SOL    HW1  422   1.252   1.698   1.654  1.3777  3.2426 -0.1350
  141SOL    HW2  423   1.374   1.574   1.652  0.3997  1.5476  1.8278
  142SOL     OW  424   1.566   0.619   2.257 -0.0358  0.2244 -0.4069
  142SOL    HW1  425   1.597   0.583   2.163  2.3488  0.9055  1.8174
  142SOL    HW2  426   1.464   0.596   2.285 -1.1970 -1.9905  2.1532
  143SOL     OW  427   2.686   0.884   0.500  0.1666 -0.0955 -0.5213
  143SOL    HW1  428   2.747   0.913   0.426 -1.3944 -0.5896  2.4365
  143SOL    HW2  429   2.727   0.904   0.589 -1.5278  1.3210 -0.4064
  144SOL     OW  430   2.921   1.192   1.467  0.4434  0.9169 -0.1639
  144SOL    HW1  431   2.845   1.198   1.541  0.7694 -0.5869  1.8145
  144SOL    HW2  432   2.987   1.111   1.489  0.1327 -1.9706  1.5100
  145SOL     OW  433   0.977   1.830   0.221  0.1419 -0.1361  0.0455
  145SOL    HW1  434   1.040   1.895   0.170  0.9619  0.8947  2.4610
  145SOL    HW2  435   0.946   1.749   0.165 -0.4042 -0.1454  1.6769
  146SOL     OW  436   2.512   0.632   1.487 -0.4419 -0.0657  0.1137
  146SOL    HW1  437   2.456   0.541   1.477 -1.0305  1.4313 -1.9678
  146SOL    HW2  438   2.466   0.720   1.447  2.5273  1.5562  0.6894
  147SOL     OW  439   1.124   2.479   0.605  0.4759 -0.2186 -0.7562
  147SOL    HW1  440   1.089   2.540   0.528 -4.9335 -0.6954  0.0843
  147SOL    HW2  441   1.198   2.412   0.588 -2.3411 -0.4288  2.0023
  148SOL     OW  442   1.628   1.469   3.094  0.1749 -0.2342  0.4555
  148SOL    HW1  443   1.628   1.386   3.029  0.0876  0.9138 -0.5036
  148SOL    HW2  444   1.613   1.443   3.198  3.0998  3.5983  1.7623
  149SOL     OW  445   0.700   1.399   1.994 -0.4064  0.5974  0.4128
  149SOL    HW1  446   0.597   1.419   2.004 -2.1017  1.0078 -0.1467
  149SOL    HW2  447   0.727   1.367   1.897 -1.3220 -0.9236 -0.9201
  150SOL     OW  448   3.014   1.227   0.939  0.0888  0.6260 -0.1170
  150SOL    HW1  449   3.077   1.235   1.017  0.3457 -4.1895 -0.9755
  150SOL    HW2  450   2.941   1.158   0.950  0.7816  1.6236 -0.0795
  151SOL     OW  451   0.145   0.688   2.079 -0.1860 -0.3605 -0.4049
  151SOL    HW1  452   0.182   0.781   2.052  0.8108  0.3182  1.9105
  151SOL    HW2  453   0.192   0.611   2.028  2.0413  0.7280 -1.4932
  152SOL     OW  454   1.471   1.781   1.262  0.3673  0.1140 -0.7593
  152SOL    HW1  455   1.518   1.871   1.258 -2.2453 -1.6384 -1.9730
  152SOL    HW2  456   1.366   1.789   1.244 -1.1583 -1.0807 -1.5712
  153SOL     OW  457   0.092   1.573   0.153  0.8397  0.6853 -0.1649
  153SOL    HW1  458   0.075   1.476   0.186  0.5572  0.3259 -0.0832
  153SOL    HW2  459   0.082   1.648   0.230  0.2842 -1.2122  3.2057
  154SOL     OW  460   2.382   1.822   2.830 -0.1404  0.1775  0.0902
  154SOL    HW1  461   2.441   1.734   2.850  0.3030  1.6564 -0.5061
  154SOL    HW2  462   2.427   1.881   2.753  0.3443  1.4113 -0.5294
  155SOL     OW  463   2.466   1.197   0.392 -0.2316 -0.1619 -0.8269
  155SOL    HW1  464   2.544   1.134   0.367  2.2387  2.2872 -0.3836
  155SOL    HW2  465   2.372   1.175   0.356  1.2287  0.1676  2.1053
  156SOL     OW  466   2.547   0.962   0.829 -0.6341 -0.4609 -0.0280
  156SOL    HW1  467   2.450   0.986   0.856  0.8889 -2.6624 -1.8291
  156SOL    HW2  468   2.588   1.023   0.757  2.3636  0.5953  1.9455
  157SOL     OW  469   1.241   2.941   2.993 -0.5688  0.3316 -0.3825
  157SOL    HW1  470   1.337   2.896   2.985  1.9042 -0.8879 -0.0307
  157SOL    HW2  471   1.243   3.043   2.995 -0.0405  1.1294 -0.9724
  158SOL     OW  472   0.971   1.852   1.903  0.2083  0.3526 -0.6165
  158SOL    HW1  473   0.996   1.950   1.884 -1.6097 -0.3434  2.0178
  158SOL    HW2  474   0.890   1.844   1.964  0.3997 -1.0348  0.4202
  159SOL     OW  475   0.880   0.399   1.211  0.4695  0.7424 -0.2180
  159SOL    HW1  476   0.837   0.475   1.275  2.2525 -0.4295 -0.0169
  159SOL    HW2  477   0.805   0.342   1.160 -0.0231  0.7074 -2.9435
  160SOL     OW  478   1.405   2.388   1.586 -0.3246  0.8267 -0.0135
  160SOL    HW1  479   1.368   2.318   1.650 -0.5953  0.4550  2.2167
  160SOL    HW2  480   1.507   2.379   1.572  0.3980  3.6910  1.2351
  161SOL     OW  481   0.076   2.954   0.398 -0.6477  0.2314  0.4087
  161SOL    HW1  482   0.003   2.887   0.364  0.6009  0.2300  0.8971
  161SOL    HW2  483   0.078   3.030   0.328 -0.4367  1.1081  0.0530
  162SOL     OW  484   2.577   1.880   0.497 -0.1410 -0.3755  0.9637
  162SOL    HW1  485   2.561   1.831   0.407  1.9099 -0.0287  2.5542
  162SOL    HW2  486   2.565   1.821   0.581  2.2651  0.1399 -3.0174
  163SOL     OW  487   1.926   2.804   0.716  0.3435 -0.9808 -0.1146
  163SOL    HW1  488   1.913   2.806   0.613 -0.0364  0.0350 -0.3502
  163SOL    HW2  489   1.977   2.713   0.744  1.0692 -0.5795  0.1009
  164SOL     OW  490   3.048   0.226   1.254 -0.1156 -0.4407  0.1690
  164SOL    HW1  491   3.103   0.311   1.243  1.9201  1.6324  0.7882
  164SOL    HW2  492   3.097   0.159   1.317  0.8718 -2.5611  2.2359
  165SOL     OW  493   0.954   1.373   0.724 -0.2836 -0.1364 -0.4753
  165SOL    HW1  494   0.895   1.418   0.796 -2.9852 -3.7707  1.3450
  165SOL    HW2  495   0.958   1.424   0.633  0.4979 -4.6291  0.7721
  166SOL     OW  496   1.535   1.073   1.737 -0.4065  0.0560 -0.2818
  166SOL    HW1  497   1.458   1.041   1.805 -1.6604  0.4694 -1.0279
  166SOL    HW2  498   1.606   1.132   1.791  1.0197 -2.0924  0.4930
  167SOL     OW  499   0.734   1.998   1.436  0.2199 -0.5184  0.4300
  167SOL    HW1  500   0.752   2.080   1.499  0.1766  0.5746  2.6647
  167SOL    HW2  501   0.736   1.908   1.492  0.6817 -1.9106  0.1045
  168SOL     OW  502   1.644   2.363   0.153 -0.6535  0.2987 -0.3325
  168SOL    HW1  503   1.684   2.412   0.063 -0.2045  1.5540 -0.3520
  168SOL    HW2  504   1.721   2.366   0.228 -0.4087  0.4611 -0.0346
  169SOL     OW  505   0.223   2.557   2.225 -0.2265  0.2408 -0.2871
  169SOL    HW1  506   0.248   2.510   2.130  2.8752 -1.1189 -1.1720
  169SOL    HW2  507   0.223   2.481   2.298  3.6224 -0.6685 -0.0191
  170SOL     OW  508   1.111   0.204   2.041 -0.8473  0.2174 -0.5333
  170SOL    HW1  509   1.184   0.185   2.118  0.9842  0.5544  2.8680
  170SOL    HW2  510   1.135   0.167   1.944 -1.8390 -0.1889 -1.0818
  171SOL     OW  511   0.186   0.781   2.358  0.1250 -0.0528 -0.4879
  171SOL    HW1  512   0.106   0.791   2.423 -0.5405  1.6473  1.5770
  171SOL    HW2  513   0.173   0.749   2.261  1.1127  1.1270 -0.3744
  172SOL     OW  514   0.954   1.019   2.863  0.2477 -0.3111  0.2934
  172SOL    HW1  515   0.987   1.107   2.904 -0.0840 -2.2316  0.8329
  172SOL    HW2  516   0.900   1.032   2.773 -1.5834 -0.1087  0.2374
  173SOL     OW  517   0.663   2.666   0.121 -0.3910 -0.4091  0.0708
  173SOL    HW1  518   0.664   2.763   0.152 -1.1637 -3.3264 -1.6627
  173SOL    HW2  519   0.577   2.647   0.064  0.7374  1.2401  3.1945
  174SOL     OW  520   1.515   2.820   1.055  0.2668 -0.6951  0.1769
  174SOL    HW1  521   1.510   2.873   0.968 -0.0029 -1.9718 -1.8486
  174SOL    HW2  522   1.497   2.717   1.033  0.4171  1.7951  1.7806
  175SOL     OW  523   0.450   3.054   1.676  0.2236 -0.7839  0.0044
  175SOL    HW1  524   0.520   3.075   1.747  0.3268 -2.7251  1.7657
  175SOL    HW2  525   0.398   3.139   1.638 -0.4301  0.9628  1.7252
  176SOL     OW  526   2.593   0.385   0.007 -0.7234  0.0164  0.3216
  176SOL    HW1  527   2.629   0.477   0.046  1.4432  0.2899 -0.3382
  176SOL    HW2  528   2.509   0.345   0.051  1.9199  2.3250 -0.5221
  177SOL     OW  529   0.325   0.316   0.933 -0.4957  0.2934 -0.0116
  177SOL    HW1  530   0.326   0.213   0.903  0.0641 -0.3013  1.9748
  177SOL    HW2  531   0.233   0.342   0.977  0.7296  1.7761  0.2364
  178SOL     OW  532   0.025   2.733   2.575  0.1324 -0.3326 -0.0530
  178SOL    HW1  533  -0.038   2.649   2.585  0.1069 -1.3159  0.5704
  178SOL    HW2  534   0.099   2.737   2.645 -0.4314  0.1837 -0.4869
  179SOL     OW  535   3.063   1.561   1.130  0.1149 -0.2630  0.1972
  179SOL    HW1  536   3.008   1.655   1.123 -0.4041  2.0372 -3.3784
  179SOL    HW2  537   3.034   1.501   1.209  0.7273  0.1695  0.8457
  180SOL     OW  538   0.183   1.229   1.845  0.2699  0.1167 -0.0180
  180SOL    HW1  539   0.279   1.185   1.862 -0.0524  2.5099 -0.7582
  180SOL    HW2  540   0.156   1.295   1.918  2.4425  0.8954 -2.8801
  181SOL     OW  541   3.027   1.849   2.495  0.1891  0.6898  0.5447
  181SOL    HW1  542   3.078   1.937   2.487  1.1803 -1.3870  1.5872
  181SOL    HW2  543   2.943   1.844   2.435 -0.6155 -0.0943 -0.3231
  182SOL     OW  544   2.323   1.273   1.149 -0.0585 -0.8908 -0.5623
  182SOL    HW1  545   2.238   1.231   1.117 -0.1965 -1.2411  2.1876
  182SOL    HW2  546   2.322   1.375   1.141 -1.5049  1.8943 -1.9871
  183SOL     OW  547   1.440   2.251   2.598  0.2870  0.0488 -0.1581
  183SOL    HW1  548   1.348   2.207   2.575 -2.7151  0.9822  0.2677
  183SOL    HW2  549   1.514   2.193   2.566 -1.7114  4.3512 -0.7230
  184SOL     OW  550   1.991   0.879   0.728  0.3828  0.6794 -0.3144
  184SOL    HW1  551   1.911   0.950   0.729 -0.0069 -1.0869 -0.8624
  184SOL    HW2  552   1.969   0.793   0.786  0.4234  0.9078 -2.8569
  185SOL     OW  553   1.626   2.795   1.989  0.0199  0.3124 -0.7106
  185SOL    HW1  554   1.547   2.863   1.982 -0.8565 -0.1609 -1.2513
  185SOL    HW2  555   1.663   2.789   2.084 -0.4473  3.1711 -2.3275
  186SOL     OW  556   0.112   2.258   1.646 -0.0431  0.4852 -0.3040
  186SOL    HW1  557   0.071   2.301   1.731  2.3900  2.1855 -2.8471
  186SOL    HW2  558   0.192   2.187   1.658  1.4679 -0.2385 -1.0169
  187SOL     OW  559   1.311   0.701   1.666  0.4050 -0.1440 -0.2614
  187SOL    HW1  560   1.386   0.744   1.612  1.2791  1.2935  2.6968
  187SOL    HW2  561   1.351   0.676   1.757  1.1983 -2.6275 -1.8694
  188SOL     OW  562   2.771   2.767   1.429  0.0829  0.4698  0.4068
  188SOL    HW1  563   2.758   2.866   1.436 -1.9699 -1.8416  0.9082
  188SOL    HW2  564   2.696   2.716   1.375  0.3031  0.6445 -1.8582
  189SOL     OW  565   0.949   1.201   1.444  0.0264 -0.2464  0.1979
  189SOL    HW1  566   1.020   1.250   1.511 -0.1704  1.0735  2.8245
  189SOL    HW2  567   0.891   1.272   1.393  0.5389  2.3590 -2.9421
  190SOL     OW  568   1.441   1.930   1.622 -0.3397  0.2613  0.2097
  190SOL    HW1  569   1.447   1.829   1.613 -3.1466  2.7035 -0.3400
  190SOL    HW2  570   1.488   1.958   1.713 -0.3536  1.8471 -0.7969
  191SOL     OW  571   0.951   0.713   1.568  0.0765 -0.0437 -0.3491
  191SOL    HW1  572   1.033   0.653   1.580 -1.0851 -2.8125 -1.2318
  191SOL    HW2  573   0.916   0.764   1.651 -0.8563  1.5557  0.1171
  192SOL     OW  574   1.855   2.278   1.087 -0.3351  0.7192 -0.3126
  192SOL    HW1  575   1.762   2.279   1.038 -0.8458  0.7518 -1.0233
  192SOL    HW2  576   1.936   2.313   1.028  1.1737 -0.0081 -2.2043
  193SOL     OW  577   0.572   0.581   0.450 -0.7258 -0.3175 -0.0708
  193SOL    HW1  578   0.525   0.494   0.481 -0.1643  2.8482 -0.5027
  193SOL    HW2  579   0.611   0.558   0.357  0.0452 -1.5186 -1.5146
  194SOL     OW  580   0.323   0.908   1.288  0.0817 -0.1319  0.2857
  194SOL    HW1  581   0.258   0.829   1.270  1.7257 -1.6333 -0.4437
  194SOL    HW2  582   0.345   0.958   1.200  0.2025 -2.7328  1.8904
  195SOL     OW  583   0.996   2.942   0.533 -0.0929  0.3493 -0.2486
  195SOL    HW1  584   1.000   2.844   0.502 -0.2586  2.5773  0.7736
  195SOL    HW2  585   1.091   2.987   0.541 -0.0613 -3.9431 -2.5155
  196SOL     OW  586   0.208   1.319   1.370 -0.9194  0.1791  0.0382
  196SOL    HW1  587   0.232   1.416   1.405  1.0874  0.6973  1.0289
  196SOL    HW2  588   0.207   1.250   1.448 -0.9500 -1.8509 -0.6919
  197SOL     OW  589   0.848   2.060   0.264  0.4408 -0.2020 -0.1086
  197SOL    HW1  590   0.832   2.060   0.367 -0.1319 -2.2133  1.7948
  197SOL    HW2  591   0.872   1.962   0.237  2.2509 -0.8807  0.2040
  198SOL     OW  592   0.284   1.276   0.280 -0.8992  0.1835  0.4022
  198SOL    HW1  593   0.190   1.300   0.258  4.1832  1.9715  0.9491
  198SOL    HW2  594   0.329   1.352   0.338  1.6350  0.4025 -1.9883
  199SOL     OW  595   2.283   0.355   2.492 -0.1218 -0.1318 -0.3418
  199SOL    HW1  596   2.201   0.320   2.551 -0.3374  1.8232  0.7787
  199SOL    HW2  597   2.369   0.358   2.549  3.5506  0.9843  0.5732
  200SOL     OW  598   0.011   2.942   0.725  0.1837  0.0879 -0.4037
  200SOL    HW1  599  -0.065   2.941   0.653 -1.0794  1.9244 -0.2851
  200SOL    HW2  600   0.083   3.018   0.718 -1.5839  4.6195 -0.5555
  201SOL     OW  601   1.079   0.747   0.590 -0.4179 -0.3850 -0.8755
  201SOL    HW1  602   1.083   0.784   0.692 -4.1191 -1.5825  1.1725
  201SOL    HW2  603   1.015   0.665   0.591 -1.8632  1.6774  0.3964
  202SOL     OW  604   0.420   1.085   1.905 -0.5734 -0.0861  0.3847
  202SOL    HW1  605   0.468   0.998   1.901 -0.5364 -1.2191 -1.3178
  202SOL    HW2  606   0.454   1.139   1.983  2.2691  0.2110 -0.4247
  203SOL     OW  607   0.656   0.225   1.502  0.0697  0.2885 -0.4857
  203SOL    HW1  608   0.735   0.233   1.440  0.3719  0.6721 -0.6818
  203SOL    HW2  609   0.688   0.210   1.599 -0.4266  2.6922  0.1026
  204SOL     OW  610   2.089   1.804   2.878  0.4620  0.1611 -0.1984
  204SOL    HW1  611   2.063   1.710   2.914 -0.3285 -1.2136  2.7381
  204SOL    HW2  612   2.187   1.808   2.838 -0.1960  2.4246  1.7558
  205SOL     OW  613   1.839   1.885   3.022  0.3523  0.0216 -0.3374
  205SOL    HW1  614   1.917   1.886   2.956 -0.7406 -2.5989  0.6082
  205SOL    HW2  615   1.788   1.977   3.039 -0.2234 -1.3074 -0.2783
  206SOL     OW  616   2.493   2.821   0.326 -0.3420 -0.3029 -0.1964
  206SOL    HW1  617   2.530   2.741   0.384  0.9171 -0.0805  2.4850
  206SOL    HW2  618   2.568   2.883   0.293 -0.5077  2.9646  2.3263
  207SOL     OW  619   0.681   1.828   3.004  0.4061  0.2001 -0.3371
  207SOL    HW1  620   0.761   1.771   2.973  2.4823 -0.2899  2.0781
  207SOL    HW2  621   0.627   1.787   3.083  0.3454 -0.3664  1.0990
  208SOL     OW  622   1.096   1.577   1.387  0.4739 -0.0220  0.1678
  208SOL    HW1  623   1.064   1.669   1.358 -0.1919  1.0497 -0.2502
  208SOL    HW2  624   1.179   1.578   1.446 -0.2224  0.8891 -0.4722
  209SOL     OW  625   0.229   0.931   3.037  0.4549  0.0966  0.5001
  209SOL    HW1  626   0.205   0.840   2.993 -0.5128  2.8961 -1.0791
  209SOL    HW2  627   0.189   0.942   3.130  0.8515  1.1847 -0.9000
  210SOL     OW  628   1.774   0.476   1.192 -0.5028 -0.1118 -0.0728
  210SOL    HW1  629   1.724   0.565   1.171 -0.3506 -0.9991  0.9388
  210SOL    HW2  630   1.879   0.486   1.170  2.0085  2.9763 -1.4182
  211SOL     OW  631   2.105   1.088   1.581 -0.2372 -0.3758  0.3416
  211SOL    HW1  632   2.167   1.051   1.653 -1.8771  1.6785  1.3454
  211SOL    HW2  633   2.165   1.136   1.508 -0.7721 -1.3719  0.2485
  212SOL     OW  634   0.018   0.958   1.499 -0.8011  0.2158  0.3737
  212SOL    HW1  635   0.087   1.031   1.523  1.4761 -1.3110 -1.8065
  212SOL    HW2  636   0.015   0.879   1.568  0.5746  1.2919  2.3018
  213SOL     OW  637   2.821   0.227   0.372 -0.2676 -0.6487  0.0346
  213SOL    HW1  638   2.884   0.155   0.334  1.9808 -1.7978 -1.2255
  213SOL    HW2  639   2.723   0.237   0.341  0.7765 -0.2343  0.8571
  214SOL     OW  640   2.181   0.242   2.279  0.4103  0.1980  0.0318
  214SOL    HW1  641   2.230   0.274   2.368  1.0014 -3.6471  0.7620
  214SOL    HW2  642   2.150   0.142   2.299 -0.1190 -0.0339 -0.5009
  215SOL     OW  643   1.604   2.274   2.120 -0.5825  0.9035 -0.2291
  215SOL    HW1  644   1.706   2.296   2.102 -0.8624 -0.8396  2.2057
  215SOL    HW2  645   1.563   2.361   2.154  1.0869  0.6172 -0.1561
  216SOL     OW  646   2.180   0.617   0.692 -0.3767  0.2488  0.6420
  216SOL    HW1  647   2.153   0.520   0.662 -0.3186  0.2676 -0.8446
  216SOL    HW2  648   2.154   0.690   0.627  0.0320 -1.0594 -2.3049
  217SOL     OW  649   0.759   2.774   2.422 -0.0021 -0.0766  0.0720
  217SOL    HW1  650   0.734   2.703   2.495 -1.0022  0.3667 -0.7992
  217SOL    HW2  651   0.721   2.761   2.325  0.2112  1.8050 -1.3792
  218SOL     OW  652   1.901   1.423   0.013  0.1777 -0.0581 -0.4354
  218SOL    HW1  653   1.805   1.452  -0.014 -3.7528  0.0673 -0.5215
  218SOL    HW2  654   1.903   1.348   0.087  1.7158  0.3844  2.6457
  219SOL     OW  655   2.428   1.279   2.522  0.4893  0.3577 -0.5826
  219SOL    HW1  656   2.464   1.214   2.451 -2.1010  0.4372 -1.1041
  219SOL    HW2  657   2.422   1.229   2.616  0.5022 -0.7665 -0.9660
  220SOL     OW  658   1.500   1.051   1.248 -0.1706  0.0406  0.0573
  220SOL    HW1  659   1.603   1.037   1.261 -0.3335 -1.2216 -0.8232
  220SOL    HW2  660   1.467   1.097   1.161  1.4494  0.4217  0.2158
  221SOL     OW  661   1.304   1.004   2.194 -0.6102  0.0357 -0.1522
  221SOL    HW1  662   1.254   0.982   2.105 -0.5771 -2.4716 -0.6794
  221SOL    HW2  663   1.402   0.978   2.183 -2.5196 -2.6850 -1.1303
  222SOL     OW  664   1.101   0.026   1.167  0.0198  0.5307  0.1353
  222SOL    HW1  665   1.145   0.041   1.259  0.8780 -0.5828  3.6918
  222SOL    HW2  666   1.120   0.104   1.101  0.7802  0.3432 -1.2884
  223SOL     OW  667   2.744   0.944   2.086 -0.0512  0.2659  1.1047
  223SOL    HW1  668   2.711   1.042   2.076  2.5742 -0.3288 -1.9048
  223SOL    HW2  669   2.829   0.934   2.143 -0.6359  1.4869  1.6515
  224SOL     OW  670   1.518   1.052   2.770 -0.2721  0.5373 -0.1317
  224SOL    HW1  671   1.579   0.976   2.728  1.6582 -2.1909 -1.0667
  224SOL    HW2  672   1.478   1.117   2.694  0.3996 -0.5556  0.4041
  225SOL     OW  673   2.930   2.766   2.872  0.1781  0.0580 -0.0564
  225SOL    HW1  674   2.863   2.695   2.842 -1.6263  1.0113  0.9787
  225SOL    HW2  675   2.969   2.830   2.798 -1.1325  0.6438  2.3763
  226SOL     OW  676   2.503   1.581   2.882 -0.1320  0.3420  0.7037
  226SOL    HW1  677   2.531   1.557   2.781  2.6421  0.4255  1.7739
  226SOL    HW2  678   2.415   1.539   2.903  1.0748  0.3323 -0.1955
  227SOL     OW  679   0.864   0.135   0.036  0.1690 -0.1598 -0.2153
  227SOL    HW1  680   0.947   0.081   0.015  1.4988  1.5453 -0.9067
  227SOL    HW2  681   0.808   0.142  -0.052 -2.2506  0.5090 -0.3703
  228SOL     OW  682   2.414   0.610   2.845  0.8478 -0.5784 -0.0294
  228SOL    HW1  683   2.390   0.645   2.752 -0.9238 -0.2651 -0.6382
  228SOL    HW2  684   2.512   0.599   2.859 -1.6372  1.1602 -0.2801
  229SOL     OW  685   0.578   0.471   1.878 -0.2930  0.2652  0.4036
  229SOL    HW1  686   0.559   0.372   1.875  2.5482  1.5759 -3.3041
  229SOL    HW2  687   0.635   0.502   1.796 -0.6105 -4.3441 -0.6892
  230SOL     OW  688   1.881   1.144   2.064 -0.8158 -0.0779  0.4246
  230SOL    HW1  689   1.970   1.198   2.055  1.1607  0.2920 -0.9663
  230SOL    HW2  690   1.812   1.209   2.098  0.6100  1.8474 -1.8339
  231SOL     OW  691   0.621   1.018   0.017 -0.1675 -0.1792  0.6980
  231SOL    HW1  692   0.720   1.049   0.019  0.0904  2.5677 -0.5284
  231SOL    HW2  693   0.558   1.094   0.048 -0.1822 -1.4580  0.6724
  232SOL     OW  694   2.366   3.085   2.882  0.5656 -0.1808 -0.4929
  232SOL    HW1  695   2.416   2.995   2.889  1.9410  1.1605  0.8879
  232SOL    HW2  696   2.417   3.146   2.814  0.8735  0.7060 -1.8169
  233SOL     OW  697   1.702   1.273   1.127 -0.1177 -0.6370 -0.9213
  233SOL    HW1  698   1.767   1.262   1.042  2.5482 -2.1084 -2.9757
  233SOL    HW2  699   1.717   1.197   1.198 -0.3773  0.2408  1.4430
  234SOL     OW  700   1.560   2.542   1.867  0.0010 -0.0975  0.0099
  234SOL    HW1  701   1.592   2.621   1.925  0.8556 -0.2144 -2.6747
  234SOL    HW2  702   1.467   2.512   1.895 -2.4373  0.7784 -2.0680
  235SOL     OW  703   3.103   3.015   2.809  0.1366  0.3306  0.4669
  235SOL    HW1  704   3.080   3.021   2.705  0.1156 -0.3530 -0.6504
  235SOL    HW2  705   3.038   3.065   2.877  0.1670  0.7475 -2.0665
  236SOL     OW  706   2.905   0.737   0.087  0.4632 -0.2360 -0.0112
  236SOL    HW1  707   2.968   0.802   0.141 -1.4194  2.0805  0.2064
  236SOL    HW2  708   2.963   0.678   0.027  0.2891  2.6123  0.6596
  237SOL     OW  709   1.529   1.675   1.007  0.4226 -0.1524  0.3165
  237SOL    HW1  710   1.629   1.673   0.986 -0.3964 -0.0102 -0.9126
  237SOL    HW2  711   1.502   1.695   1.109  0.1072 -1.1208 -1.0964
  238SOL     OW  712   1.781   1.278   0.854  0.0621  0.2631  0.2889
  238SOL    HW1  713   1.848   1.350   0.896 -2.2589  1.5922  0.9420
  238SOL    HW2  714   1.693   1.320   0.812 -3.6114 -1.4227 -1.0263
  239SOL     OW  715   2.079   0.282   2.650  0.5436  0.3398  0.0646
  239SOL    HW1  716   2.138   0.261   2.736  1.4975  1.1219  2.2136
  239SOL    HW2  717   1.982   0.309   2.672  0.7632 -1.1246 -0.8362
  240SOL     OW  718   0.917   0.645   0.313  0.1339  0.1856  0.2402
  240SOL    HW1  719   0.960   0.560   0.273 -0.1811  0.0412 -1.1131
  240SOL    HW2  720   0.907   0.646   0.418 -2.2227  3.2162  1.1891
  241SOL     OW  721   0.553   0.042   0.387  0.4488 -0.0082  0.2547
  241SOL    HW1  722   0.592   0.125   0.338  1.1639 -2.2631  1.1505
  241SOL    HW2  723   0.562  -0.048   0.340  1.0752 -3.4554  0.6303
  242SOL     OW  724   0.645   2.533   1.145 -0.7758 -0.6150 -0.0706
  242SOL    HW1  725   0.605   2.533   1.241 -1.7685 -0.5668  2.0748
  242SOL    HW2  726   0.710   2.610   1.123  0.9385  0.1065  0.5610
  243SOL     OW  727   1.080   0.618   2.482 -0.0201  0.4270 -0.4956
  243SOL    HW1  728   0.995   0.656   2.443  1.5209  0.5748 -3.5362
  243SOL    HW2  729   1.057   0.548   2.556  1.1436  3.2226  1.1996
  244SOL     OW  730   2.839   1.897   2.320 -0.2157 -0.4720  0.0477
  244SOL    HW1  731   2.872   1.872   2.223 -0.3064  0.0116  2.6878
  244SOL    HW2  732   2.764   1.842   2.355  1.4721  3.8429  0.8672
  245SOL     OW  733   2.318   0.725   2.193 -0.3658  0.9746 -0.1717
  245SOL    HW1  734   2.404   0.710   2.258  2.8297 -1.6151  1.9855
  245SOL    HW2  735   2.278   0.818   2.204 -0.8796  0.5251  0.2590
  246SOL     OW  736   0.229   2.907   1.734  0.3914 -0.1364  0.0718
  246SOL    HW1  737   0.150   2.923   1.671  1.7205  4.2372  0.1793
  246SOL    HW2  738   0.311   2.964   1.698 -1.0340 -0.4420 -1.0693
  247SOL     OW  739   2.243   0.603   3.061  0.8851  0.9521 -0.2462
  247SOL    HW1  740   2.318   0.562   3.006  1.2759 -3.6830 -0.7941
  247SOL    HW2  741   2.193   0.680   3.018  0.3604  0.9157 -0.6490
  248SOL     OW  742   2.142   1.814   1.590  0.5919 -0.1380 -0.0724
  248SOL    HW1  743   2.210   1.762   1.646  1.5489  0.8187 -1.7691
  248SOL    HW2  744   2.052   1.811   1.635  0.0995 -2.1114  3.1573
  249SOL     OW  745   1.845   1.949   1.926 -0.2387  0.3240  0.3774
  249SOL    HW1  746   1.867   1.912   1.832 -0.5727  0.0570  2.5424
  249SOL    HW2  747   1.929   1.984   1.977  0.2475 -0.9218  2.0421
  250SOL     OW  748   1.129   0.710   1.915 -0.2210 -0.6256 -0.4832
  250SOL    HW1  749   1.158   0.630   1.976 -1.0091  1.2245  0.3304
  250SOL    HW2  750   1.161   0.700   1.816 -1.0491 -2.7481 -1.5552
  251SOL     OW  751   0.061   1.583   2.474 -0.0127 -0.0858  0.3654
  251SOL    HW1  752   0.067   1.665   2.412 -1.5123 -2.1377 -0.8603
  251SOL    HW2  753  -0.035   1.560   2.492  2.8666  0.8223 -1.2633
  252SOL     OW  754   1.530   0.839   1.570  0.3175 -0.1680  0.3420
  252SOL    HW1  755   1.585   0.851   1.488 -0.4074  1.0806  1.1058
  252SOL    HW2  756   1.544   0.916   1.632 -1.7102 -2.9928 -2.0330
  253SOL     OW  757   0.963   1.557   0.510  0.2206  0.7218  0.7065
  253SOL    HW1  758   0.981   1.491   0.429  1.8953  0.9755  1.6282
  253SOL    HW2  759   0.863   1.572   0.528 -4.2344 -2.0367  2.0568
  254SOL     OW  760   2.045   2.160   1.629  0.3376  0.8413  0.6878
  254SOL    HW1  761   2.005   2.098   1.555  1.1065  0.9942  0.6905
  254SOL    HW2  762   1.979   2.200   1.699 -0.3917  0.1038  0.0512
  255SOL     OW  763   0.136   1.129   2.884 -0.1684 -0.0879  0.2047
  255SOL    HW1  764   0.201   1.209   2.893  2.0597  0.5127 -1.2629
  255SOL    HW2  765   0.191   1.049   2.924  0.6963 -3.3949  0.7875
  256SOL     OW  766   2.784   1.359   1.777 -0.4453 -0.3564  0.0551
  256SOL    HW1  767   2.685   1.384   1.789 -0.6236 -1.6407  0.7611
  256SOL    HW2  768   2.802   1.260   1.759  0.5795  2.2058 -0.4694
  257SOL     OW  769   0.772   0.204   1.761 -0.1133 -0.2537 -0.0874
  257SOL    HW1  770   0.835   0.271   1.710 -0.3274  1.7324 -0.6685
  257SOL    HW2  771   0.815   0.112   1.780  0.4677 -3.3630  1.3688
  258SOL     OW  772   2.974   1.271   0.441 -0.4758 -0.4315  0.2030
  258SOL    HW1  773   2.894   1.338   0.441  1.6260 -1.5215 -1.2558
  258SOL    HW2  774   3.006   1.252   0.534  2.7655 -1.6360 -1.1143
  259SOL     OW  775   0.469   2.961   3.039  0.0910  0.1879 -0.5195
  259SOL    HW1  776   0.378   2.921   3.082 -1.3314 -3.0426  0.6600
  259SOL    HW2  777   0.479   2.934   2.942  2.0367 -1.9315  0.4078
  260SOL     OW  778   2.708   0.827   2.814 -0.0259 -0.1852 -0.0155
  260SOL    HW1  779   2.623   0.846   2.764  2.6002  1.2030  3.3862
  260SOL    HW2  780   2.698   0.850   2.914 -1.3645  0.4205 -1.8011
  261SOL     OW  781   2.753   1.344   1.233  0.4416  0.4271  0.2786
  261SOL    HW1  782   2.701   1.288   1.156 -0.8842  1.1067 -2.7289
  261SOL    HW2  783   2.846   1.311   1.257  1.8496  0.6947  0.8284
  262SOL     OW  784   1.422   2.963   2.039  0.0387  0.1391 -0.3529
  262SOL    HW1  785   1.435   3.053   1.991  0.5172  0.4218  2.4152
  262SOL    HW2  786   1.339   2.907   2.012  0.8017 -1.5414  0.6714
  263SOL     OW  787   0.845   0.705   2.356  0.2935 -0.7859  0.2481
  263SOL    HW1  788   0.791   0.621   2.322 -1.0674  0.6495  1.3173
  263SOL    HW2  789   0.897   0.769   2.291  0.4076 -0.5780  2.2172
  264SOL     OW  790   2.205   0.822   0.403 -0.0219 -0.1642  0.6350
  264SOL    HW1  791   2.203   0.736   0.345  2.8473  3.5514  1.6907
  264SOL    HW2  792   2.307   0.844   0.425 -0.1138 -4.6618 -0.2186
  265SOL     OW  793   0.919   2.383   2.631  0.5558  0.0283 -0.1788
  265SOL    HW1  794   0.978   2.413   2.705 -2.3685 -0.9786 -0.0869
  265SOL    HW2  795   0.880   2.289   2.646 -0.7919  0.1081 -1.0106
  266SOL     OW  796   1.324   1.714   0.022 -0.2850  0.9459  0.4694
  266SOL    HW1  797   1.318   1.801   0.082 -0.1154 -0.3256 -0.4847
  266SOL    HW2  798   1.414   1.716  -0.029 -3.6663  1.3741  0.8879
  267SOL     OW  799   0.992   3.078   2.358  0.5121  0.4687  0.0664
  267SOL    HW1  800   0.968   2.997   2.294 -1.5427 -0.6852 -1.2104
  267SOL    HW2  801   0.935   3.164   2.337  1.9806  1.9529  0.0135
  268SOL     OW  802   0.603   1.209   1.048 -0.3788  0.3301 -0.8453
  268SOL    HW1  803   0.618   1.253   1.139 -3.8558 -1.4686  2.6977
  268SOL    HW2  804   0.621   1.270   0.964 -1.3329 -2.0107 -0.6438
  269SOL     OW  805   2.352   2.531   1.609  0.2455  0.3050 -0.0217
  269SOL    HW1  806   2.398   2.438   1.620 -0.6044  2.3816  1.6019
  269SOL    HW2  807   2.309   2.573   1.696 -1.1531  1.2985 -2.4100
  270SOL     OW  808   0.193   2.926   2.003  0.0309 -0.5503  0.4994
  270SOL    HW1  809   0.197   2.907   1.901 -0.5542  2.2691  1.7425
  270SOL    HW2  810   0.164   2.844   2.057 -2.9620  0.3183 -2.9328
  271SOL     OW  811   0.404   1.367   1.188  0.4210  0.1489 -0.0945
  271SOL    HW1  812   0.356   1.393   1.098 -1.1020 -0.2013  2.3670
  271SOL    HW2  813   0.337   1.317   1.250  2.0420  2.6669  0.6617
  272SOL     OW  814   1.995   2.876   1.957  0.5898  0.0949 -0.6267
  272SOL    HW1  815   1.938   2.824   1.886 -0.3757  1.0376 -2.8433
  272SOL    HW2  816   2.055   2.953   1.906 -0.9784 -0.1192  0.8742
  273SOL     OW  817   1.472   1.439   2.728  0.4485 -0.2096 -0.4793
  273SOL    HW1  818   1.379   1.485   2.751 -0.9868  1.9573 -1.8037
  273SOL    HW2  819   1.513   1.391   2.811 -0.3437 -1.1121  0.2678
  274SOL     OW  820   1.215   0.481   2.056 -0.2328  0.4403  0.0528
  274SOL    HW1  821   1.156   0.395   2.057 -0.8627  0.5834  2.4528
  274SOL    HW2  822   1.238   0.510   2.150 -4.8515  1.4604  0.0952
  275SOL     OW  823   0.593   2.098   1.906  0.5044  0.0292  0.0502
  275SOL    HW1  824   0.538   2.171   1.952 -0.9778 -2.2110 -2.6494
  275SOL    HW2  825   0.542   2.011   1.895 -3.0712  1.1865  0.0477
  276SOL     OW  826   2.193   0.937   2.748 -0.1169  0.4031  0.3451
  276SOL    HW1  827   2.104   0.920   2.699 -2.0210  0.4239  0.5284
  276SOL    HW2  828   2.189   0.921   2.849  0.2124  0.4542 -3.0703
  277SOL     OW  829   3.085   0.883   0.227  0.3954 -0.1311  0.0303
  277SOL    HW1  830   3.179   0.929   0.227 -0.1061 -2.0610 -1.8495
  277SOL    HW2  831   3.076   0.806   0.299 -0.7554  0.1123 -1.5351
  278SOL     OW  832   0.240   0.276   3.070  0.2561 -0.4339  0.1597
  278SOL    HW1  833   0.323   0.220   3.047 -1.8855 -1.2987  2.9043
  278SOL    HW2  834   0.259   0.377   3.093 -2.2697  0.8277  0.1722
  279SOL     OW  835   0.210   0.081   0.868  0.0453 -0.3600  0.2242
  279SOL    HW1  836   0.194   0.018   0.948  1.7995  0.2185 -0.9599
  279SOL    HW2  837   0.245   0.026   0.785  1.6912 -1.6302  0.5928
  280SOL     OW  838   1.595   2.939   2.421  0.2839  0.2254  0.2238
  280SOL    HW1  839   1.670   2.990   2.472  1.0393 -1.2234 -0.5479
  280SOL    HW2  840   1.527   2.998   2.367  0.9823 -0.9443 -2.6903
  281SOL     OW  841   0.578   0.988   2.224 -0.1403  0.0293 -0.0821
  281SOL    HW1  842   0.598   0.897   2.183  2.5108  1.5010 -2.0719
  281SOL    HW2  843   0.515   0.977   2.309 -1.3433 -0.0502 -1.9978
  282SOL     OW  844   1.781   2.496   0.528 -0.2516  0.2207  0.0801
  282SOL    HW1  845   1.725   2.417   0.493  2.7778 -0.4213 -1.0373
  282SOL    HW2  846   1.721   2.576   0.554 -1.6818 -0.4869 -0.9415
  283SOL     OW  847   1.150   0.890   0.816  0.6842  0.9281  0.5078
  283SOL    HW1  848   1.213   0.881   0.897 -2.0554 -0.3153 -1.3475
  283SOL    HW2  849   1.051   0.921   0.830  0.8416 -1.4193 -0.5313
  284SOL     OW  850   2.281   2.756   2.548  0.0996  1.2568  0.2140
  284SOL    HW1  851   2.374   2.757   2.515  1.3759 -1.5098  3.6288
  284SOL    HW2  852   2.254   2.839   2.604  0.2694 -2.0187  1.6254
  285SOL     OW  853   1.312   3.046   2.596  0.2942  0.1359 -0.5007
  285SOL    HW1  854   1.313   3.040   2.497 -2.6948 -1.0411  2.2199
  285SOL    HW2  855   1.210   3.054   2.628  1.2596 -1.5890 -1.1004
  286SOL     OW  856   0.442   0.460   0.739  0.4315  0.2665 -0.5800
  286SOL    HW1  857   0.403   0.412   0.827  0.8856 -1.3024  1.5709
  286SOL    HW2  858   0.441   0.400   0.656  0.9212 -0.7311 -0.3784
  287SOL     OW  859   0.099   1.300   2.503  0.2550 -0.1308 -0.4849
  287SOL    HW1  860   0.023   1.248   2.554 -1.4953 -1.8689  0.3596
  287SOL    HW2  861   0.110   1.409   2.514  0.7399  0.3774 -1.8555
  288SOL     OW  862   1.574   2.630   1.595  0.1740 -0.6809  1.0281
  288SOL    HW1  863   1.607   2.560   1.658 -0.4965 -0.3300 -2.4044
  288SOL    HW2  864   1.582   2.587   1.496  3.6897  1.4926 -2.7919
  289SOL     OW  865   0.667   2.695   0.880 -0.2969  0.4163  0.8716
  289SOL    HW1  866   0.703   2.751   0.797  0.8286 -1.2590 -1.1831
  289SOL    HW2  867   0.635   2.756   0.956  0.0953  0.5183 -0.7381
  290SOL     OW  868   2.817   1.094   1.723 -0.1541  0.4769  0.2303
  290SOL    HW1  869   2.740   1.025   1.715  1.5645  0.2549  1.7956
  290SOL    HW2  870   2.893   1.052   1.778  0.4684 -0.1654 -1.7683
  291SOL     OW  871   1.984   0.051   0.032  0.5530 -0.0072 -0.2891
  291SOL    HW1  872   1.999   0.061   0.133  0.6768  0.4492 -1.3268
  291SOL    HW2  873   2.042   0.107  -0.025 -0.3977 -0.8521  4.4751
  292SOL     OW  874   3.002   1.149   3.017  0.0295  0.0555  0.6152
  292SOL    HW1  875   2.933   1.212   2.970  1.7195 -0.4163  1.6869
  292SOL    HW2  876   3.095   1.142   2.966 -0.7561 -1.1303  2.2884
  293SOL     OW  877   0.562   2.141   0.212 -0.1204 -0.0466  0.4252
  293SOL    HW1  878   0.501   2.202   0.268 -1.9051 -0.7376  1.9411
  293SOL    HW2  879   0.633   2.101   0.274 -3.4942  0.4258 -0.5853
  294SOL     OW  880   1.821   2.266   1.799  0.3546 -0.2887 -0.1521
  294SOL    HW1  881   1.814   2.315   1.887 -0.2972 -0.9734 -3.4159
  294SOL    HW2  882   1.778   2.318   1.718 -0.7235  2.8474  2.1706
  295SOL     OW  883   0.978   1.072   0.475  0.0370 -0.0886  0.2578
  295SOL    HW1  884   1.066   1.060   0.522 -4.3419 -0.7990 -0.5161
  295SOL    HW2  885   0.903   1.064   0.542 -1.9075 -1.3491  0.7844
  296SOL     OW  886   1.201   2.139   2.563 -0.4281 -0.6447  0.2282
  296SOL    HW1  887   1.134   2.211   2.550 -3.2733 -1.4634 -0.7797
  296SOL    HW2  888   1.183   2.057   2.502  0.9148  2.5402 -1.3597
  297SOL     OW  889   1.432   0.615   1.344 -0.5872 -0.2283 -0.1242
  297SOL    HW1  890   1.396   0.524   1.372  2.7109  2.6941  1.4166
  297SOL    HW2  891   1.525   0.637   1.389  0.8635  0.1855 -0.2552
  298SOL     OW  892   0.536   1.331   2.982 -0.2324 -0.2252  0.5933
  298SOL    HW1  893   0.468   1.270   3.041  0.0927 -0.6704  2.0886
  298SOL    HW2  894   0.575   1.283   2.904 -4.6989 -0.2976  4.1924
  299SOL     OW  895   0.480   0.268   1.294 -0.0392  0.0999 -0.2573
  299SOL    HW1  896   0.447   0.363   1.312 -0.2882 -0.9593 -1.1803
  299SOL    HW2  897   0.529   0.224   1.366 -2.2062 -0.7590 -2.3368
  300SOL     OW  898   1.252   1.792   2.735 -0.3762 -0.5409 -0.1309
  300SOL    HW1  899   1.235   1.702   2.776  2.3026  1.8180 -1.7597
  300SOL    HW2  900   1.354   1.817   2.720 -0.3820  2.3699  0.7533
  301SOL     OW  901   0.439   0.303   0.503  0.0227 -0.5841 -0.3872
  301SOL    HW1  902   0.338   0.297   0.480 -0.4707 -0.4429  1.3239
  301SOL    HW2  903   0.484   0.220   0.459  0.1489 -1.8744 -0.5897
  302SOL     OW  904   1.275   2.464   2.342  0.2427 -0.5712 -0.2899
  302SOL    HW1  905   1.201   2.534   2.372 -1.4293  1.8068 -0.4423
  302SOL    HW2  906   1.234   2.376   2.314  0.4248  1.6811  3.1371
  303SOL     OW  907   0.939   2.401   0.830  0.0814  0.4032 -0.3718
  303SOL    HW1  908   1.002   2.407   0.748  1.3355 -2.4551  1.0969
  303SOL    HW2  909   0.947   2.480   0.901  0.3467 -0.3438 -0.1349
  304SOL     OW  910   0.068   1.951   0.619 -0.5846 -0.4801  1.0498
  304SOL    HW1  911   0.141   1.925   0.548 -3.2262  0.0379 -0.1687
  304SOL    HW2  912   0.021   2.044   0.606 -0.2674 -1.0659  2.0002
  305SOL     OW  913   1.605   0.881   0.585 -0.8113  0.2772  0.2339
  305SOL    HW1  914   1.564   0.878   0.489 -1.8894 -0.3239 -0.9608
  305SOL    HW2  915   1.640   0.790   0.617 -2.2057  1.2211 -0.4512
  306SOL     OW  916   0.413   1.843   1.923 -0.0555 -0.0020 -0.0772
  306SOL    HW1  917   0.506   1.806   1.898 -1.2591  1.1922  0.9186
  306SOL    HW2  918   0.423   1.894   2.009 -1.1679 -0.8826 -0.7861
  307SOL     OW  919   3.054   0.897   2.472 -0.4395  0.0332  0.0112
  307SOL    HW1  920   3.052   0.985   2.530  1.2999 -1.6053  1.1465
  307SOL    HW2  921   2.974   0.834   2.501 -0.6848  0.8879 -1.6870
  308SOL     OW  922   1.544   2.677   2.809 -0.0379  0.0646  0.9347
  308SOL    HW1  923   1.539   2.641   2.712  4.1685  4.7313 -0.4622
  308SOL    HW2  924   1.516   2.607   2.882  0.1481 -0.1933 -2.0881
  309SOL     OW  925   1.271   0.191   1.732  0.2031  0.3373 -0.2013
  309SOL    HW1  926   1.360   0.147   1.763 -0.2123  1.0427  0.7009
  309SOL    HW2  927   1.256   0.180   1.628  0.5954  0.2462  0.9105
  310SOL     OW  928   1.511   2.577   0.700 -0.3905 -0.2841  0.5621
  310SOL    HW1  929   1.475   2.599   0.793  2.8352  0.2304 -1.2403
  310SOL    HW2  930   1.547   2.663   0.652 -0.3824  0.1561 -0.9288
  311SOL     OW  931   1.183   0.972   1.652 -0.0609 -0.5969  0.3525
  311SOL    HW1  932   1.237   0.889   1.630  1.0741 -0.7149 -0.6410
  311SOL    HW2  933   1.226   1.058   1.615 -1.7298  0.1674  0.4520
  312SOL     OW  934   1.656   0.735   1.109  0.1340 -0.0544  0.4554
  312SOL    HW1  935   1.660   0.794   1.026  0.8735 -0.4486  1.8931
  312SOL    HW2  936   1.563   0.693   1.122  2.9963  1.5082  0.1770
  313SOL     OW  937   1.556   1.362   0.718  0.3953  0.1040 -0.0914
  313SOL    HW1  938   1.472   1.392   0.763  0.1060 -0.4760 -0.3972
  313SOL    HW2  939   1.543   1.283   0.648  4.2910 -0.5974 -0.2677
  314SOL     OW  940   2.947   0.041   2.995 -0.1494 -0.4988 -0.0197
  314SOL    HW1  941   2.964   0.045   3.097  2.1411  0.3822 -0.6265
  314SOL    HW2  942   2.856  -0.002   2.969  1.3277 -1.5183 -2.5045
  315SOL     OW  943   1.208   0.192   2.757 -0.5777 -0.1944  0.0720
  315SOL    HW1  944   1.131   0.134   2.727 -0.2524 -0.8771  2.1879
  315SOL    HW2  945   1.290   0.141   2.793 -2.3572  1.1484  0.3023
  316SOL     OW  946   1.743   2.034   0.876 -0.4641 -0.4426  0.1516
  316SOL    HW1  947   1.701   2.053   0.967  2.7958 -0.5514  0.7340
  316SOL    HW2  948   1.767   2.123   0.822 -0.1623  1.8135 -0.7636
  317SOL     OW  949   1.143   0.612   2.872  0.8606 -0.2561 -0.3365
  317SOL    HW1  950   1.071   0.679   2.910 -1.9873  1.1086  1.1225
  317SOL    HW2  951   1.105   0.544   2.807  0.3691  3.8393  0.7329
  318SOL     OW  952   1.348   3.056   2.293 -0.0258 -0.6908 -0.0402
  318SOL    HW1  953   1.326   3.156   2.288  0.8676 -1.8409  1.7934
  318SOL    HW2  954   1.383   3.029   2.198  3.1573  1.1938  0.5003
  319SOL     OW  955   0.642   2.420   2.927 -0.6254  0.5388  0.1273
  319SOL    HW1  956   0.568   2.382   2.992  0.2350  0.5106 -2.2695
  319SOL    HW2  957   0.727   2.364   2.918 -0.0186  2.2935 -0.6167
  320SOL     OW  958   1.689   2.250   0.426 -0.4163 -0.4499  0.4787
  320SOL    HW1  959   1.760   2.175   0.396  0.4627 -4.0087 -0.3440
  320SOL    HW2  960   1.601   2.207   0.453  2.7994  1.0907 -0.6415
  321SOL     OW  961   1.618   2.768   0.512  0.2922  0.9936 -0.2952
  321SOL    HW1  962   1.546   2.805   0.447 -1.9391 -0.5484  0.1346
  321SOL    HW2  963   1.710   2.822   0.507  2.2908  2.2304  2.7698
  322SOL     OW  964   2.601   1.115   2.363  0.0615 -0.3225 -0.6656
  322SOL    HW1  965   2.689   1.140   2.411  0.4830 -1.6128 -0.9783
  322SOL    HW2  966   2.571   1.015   2.368 -2.3089  1.3328  1.8608
  323SOL     OW  967   1.192   2.664   0.830 -0.1322  0.7404 -0.0974
  323SOL    HW1  968   1.157   2.612   0.744 -0.9554 -0.7845  0.3554
  323SOL    HW2  969   1.148   2.761   0.844 -0.7043  0.5952  2.0023
  324SOL     OW  970   0.263   2.456   2.519  0.0143 -0.3660 -0.4820
  324SOL    HW1  971   0.328   2.454   2.605 -1.7447  1.2112  1.8474
  324SOL    HW2  972   0.165   2.474   2.552  0.5290  0.2060 -0.4411
  325SOL     OW  973   1.293   3.064   0.489 -0.1752  0.2399 -0.0541
  325SOL    HW1  974   1.327   3.118   0.403 -2.5812  0.3136 -1.5261
  325SOL    HW2  975   1.308   3.116   0.580  0.3868  0.1930 -1.3757
  326SOL     OW  976   2.472   0.811   3.087 -0.3034  0.2181  0.6113
  326SOL    HW1  977   2.441   0.750   3.006  1.9479  0.4872 -2.8298
  326SOL    HW2  978   2.526   0.750   3.156 -0.4525 -0.1521  0.1221
  327SOL     OW  979   2.854   0.335   0.667 -0.0558  0.1297 -0.0174
  327SOL    HW1  980   2.867   0.248   0.614  3.1526 -1.0781  2.3732
  327SOL    HW2  981   2.907   0.331   0.752 -1.0625 -1.7154 -3.1225
  328SOL     OW  982   2.597   0.578   0.413  0.5958 -0.3271 -0.1949
  328SOL    HW1  983   2.526   0.656   0.406 -2.8667  0.2810  1.9329
  328SOL    HW2  984   2.574   0.503   0.483  0.5556 -1.8373 -0.7522
  329SOL     OW  985   2.943   2.981   2.146 -0.2339  0.4755 -0.1368
  329SOL    HW1  986   3.017   2.948   2.210  1.9950  0.8527 -0.2196
  329SOL    HW2  987   2.920   3.085   2.150 -0.6004  1.4207  1.6801
  330SOL     OW  988   0.535   0.159   1.864 -0.2322  0.1906  0.5690
  330SOL    HW1  989   0.626   0.182   1.820  0.5181 -0.6389 -0.7595
  330SOL    HW2  990   0.537   0.101   1.947 -1.0530  0.8290  2.5773
  331SOL     OW  991   2.988   1.922   1.162 -0.6620  0.3948 -0.3071
  331SOL    HW1  992   2.982   1.999   1.093  2.3148 -0.1379  0.8639
  331SOL    HW2  993   2.906   1.908   1.224  0.9177  0.0847  2.4021
  332SOL     OW  994   0.384   1.165   0.045 -0.4860 -0.3668  0.4232
  332SOL    HW1  995   0.362   1.076   0.003  0.6076  2.8599 -1.4909
  332SOL    HW2  996   0.331   1.184   0.133  2.2739 -0.2458  2.8359
  333SOL     OW  997   2.861   1.042   0.297  0.2738  0.2877  0.0170
  333SOL    HW1  998   2.912   1.107   0.362  1.6925 -0.4810 -2.8271
  333SOL    HW2  999   2.923   0.963   0.275  1.1017  2.0097  1.6558
  334SOL     OW 1000   1.684   1.265   1.847  0.6207 -0.0844  0.1392
  334SOL    HW1 1001   1.767   1.237   1.790  0.7060 -1.6318 -0.9745
  334SOL    HW2 1002   1.710   1.306   1.937 -0.4346  0.8455  2.5158
  335SOL     OW 1003   1.985   2.735   2.598 -0.1636 -0.1210 -0.5930
  335SOL    HW1 1004   1.915   2.749   2.672  0.4871  5.1052 -1.6236
  335SOL    HW2 1005   2.078   2.752   2.638 -1.2122 -3.0567  1.7915
  336SOL     OW 1006   0.231   0.152   2.768  0.3148 -0.3619 -0.3814
  336SOL    HW1 1007   0.321   0.133   2.813 -1.0144 -0.9401  0.9471
  336SOL    HW2 1008   0.153   0.104   2.815 -0.1379 -1.3224 -1.0524
  337SOL     OW 1009   0.916   2.868   2.848  0.5613  0.2135  0.5107
  337SOL    HW1 1010   0.902   2.809   2.934 -0.8157  0.7622 -0.1768
  337SOL    HW2 1011   1.012   2.855   2.808  0.5637  0.7184 -0.5617
  338SOL     OW 1012   0.017   1.016   0.624  0.4835  0.0251  0.4103
  338SOL    HW1 1013  -0.079   0.986   0.658 -0.6605 -1.8148  1.0955
  338SOL    HW2 1014   0.036   1.120   0.626 -1.2259  2.5299 -1.1399
  339SOL     OW 1015   1.682   1.351   2.113 -0.1136 -0.3204 -0.3774
  339SOL    HW1 1016   1.581   1.368   2.106  1.0135  0.2079 -1.2848
  339SOL    HW2 1017   1.733   1.427   2.151 -3.5915  0.0085 -0.0745
  340SOL     OW 1018   2.340   0.796   1.104 -0.1830  0.3938 -0.4120
  340SOL    HW1 1019   2.239   0.793   1.096  1.0329  0.2726  1.7156
  340SOL    HW2 1020   2.394   0.710   1.068  1.2525 -0.6514  1.5933
  341SOL     OW 1021   1.894   2.111   0.326 -0.7643  0.1403 -0.2371
  341SOL    HW1 1022   1.897   2.161   0.237 -0.0879 -0.5213 -0.9894
  341SOL    HW2 1023   1.986   2.086   0.361 -2.8422  1.0701 -1.4588
  342SOL     OW 1024   2.253   2.134   2.742  0.4087  0.3127  0.8400
  342SOL    HW1 1025   2.265   2.058   2.813 -1.8227 -1.1782 -1.0695
  342SOL    HW2 1026   2.157   2.118   2.697  0.0772 -0.9964 -0.6573
  343SOL     OW 1027   0.351   0.852   2.728  0.8370 -0.4298  0.0511
  343SOL    HW1 1028   0.332   0.941   2.679  0.5500  0.9681  2.1537
  343SOL    HW2 1029   0.432   0.856   2.786 -3.8217 -3.0089  0.2236
  344SOL     OW 1030   1.911   1.421   0.424  0.3725  0.0422  0.4382
  344SOL    HW1 1031   1.903   1.363   0.338 -0.5324 -0.2385  1.4174
  344SOL    HW2 1032   1.819   1.447   0.467  0.6377 -1.1237 -0.7314
  345SOL     OW 1033   1.410   2.251   2.924 -0.4408 -0.1699  0.4651
  345SOL    HW1 1034   1.313   2.217   2.896 -0.6246  1.0917 -2.2960
  345SOL    HW2 1035   1.485   2.197   2.876 -1.1532  0.0948  1.2109
  346SOL     OW 1036   2.373   0.879   1.361 -0.4642  0.0181  0.2017
  346SOL    HW1 1037   2.294   0.944   1.372 -1.2647  1.0917 -1.4247
  346SOL    HW2 1038   2.369   0.835   1.268 -0.6052  2.6733 -1.2547
  347SOL     OW 1039   0.745   2.768   1.561 -0.4295 -0.2567  0.1005
  347SOL    HW1 1040   0.670   2.747   1.629  0.1424  1.0400  1.5654
  347SOL    HW2 1041   0.735   2.866   1.526  2.3023 -1.4283  1.1757
  348SOL     OW 1042   0.209   0.687   2.913  0.1158 -0.4138  0.6832
  348SOL    HW1 1043   0.112   0.699   2.874 -1.2082  0.8482 -0.1101
  348SOL    HW2 1044   0.282   0.717   2.840 -3.2119  1.5743  0.7987
  349SOL     OW 1045   1.885   0.469   2.815 -0.4717  0.3891  0.5047
  349SOL    HW1 1046   1.875   0.552   2.748  0.6857  0.0313 -3.6577
  349SOL    HW2 1047   1.869   0.492   2.914  2.0169  0.1211  1.6340
  350SOL     OW 1048   1.656   0.448   0.378  0.1776 -0.2661  0.4070
  350SOL    HW1 1049   1.719   0.445   0.461  2.7449  1.6342  0.9130
  350SOL    HW2 1050   1.609   0.538   0.359  1.8465  0.0616  0.1649
  351SOL     OW 1051   1.006   0.836   2.153  0.1296 -0.4988  0.1513
  351SOL    HW1 1052   1.003   0.938   2.160  0.7131 -1.0274 -1.0682
  351SOL    HW2 1053   1.005   0.794   2.056  0.2681 -2.2304 -0.5496
  352SOL     OW 1054   1.996   1.306   0.667 -0.7233 -0.2062 -0.4401
  352SOL    HW1 1055   1.960   1.339   0.578  0.6305 -0.0721  0.3020
  352SOL    HW2 1056   1.916   1.318   0.739 -1.2870  2.1706  2.3289
  353SOL     OW 1057   2.150   2.803   1.079 -0.5044 -0.5212  0.4093
  353SOL    HW1 1058   2.193   2.743   1.153  2.3483  1.9343  0.0094
  353SOL    HW2 1059   2.065   2.752   1.043 -1.1780  0.5639 -0.3621
  354SOL     OW 1060   0.280   1.378   2.912 -0.4121 -0.1735 -0.1070
  354SOL    HW1 1061   0.257   1.433   2.830  0.6381 -0.7420  1.9096
  354SOL    HW2 1062   0.377   1.387   2.946 -1.2202  1.0078 -0.6209
  355SOL     OW 1063   0.660   1.559   0.588  0.9292  0.4212 -0.3298
  355SOL    HW1 1064   0.666   1.573   0.688  0.5119  2.6891 -0.5120
  355SOL    HW2 1065   0.644   1.459   0.559  1.5227 -1.3044  1.9446
  356SOL     OW 1066   0.847   0.329   2.073  0.0403  0.3578  0.0465
  356SOL    HW1 1067   0.934   0.282   2.064 -2.4977  0.9094  0.8474
  356SOL    HW2 1068   0.816   0.375   1.988 -0.1051 -1.1374 -2.2419
  357SOL     OW 1069   1.015   1.311   0.324  0.2498  0.3052 -0.4839
  357SOL    HW1 1070   0.993   1.278   0.230  0.2097 -0.3713  1.3114
  357SOL    HW2 1071   0.989   1.242   0.393 -0.7345  1.6122 -0.7712
  358SOL     OW 1072   1.660   1.507   0.496  0.1820 -0.1848 -0.0149
  358SOL    HW1 1073   1.625   1.462   0.584  2.7386 -0.4129 -1.3973
  358SOL    HW2 1074   1.599   1.499   0.410  2.1468  2.0095 -2.0952
  359SOL     OW 1075   1.578   2.627   0.195 -0.1094 -0.0810  0.1745
  359SOL    HW1 1076   1.563   2.532   0.156 -1.2294 -1.5061  0.3554
  359SOL    HW2 1077   1.502   2.694   0.171  2.3364 -1.7069 -0.5081
  360SOL     OW 1078   0.853   0.570   0.563 -0.1016 -0.0580 -0.7339
  360SOL    HW1 1079   0.748   0.579   0.541 -1.9143  1.8625 -1.0900
  360SOL    HW2 1080   0.881   0.471   0.589 -2.0768  0.2741  0.1546
  361SOL     OW 1081   1.241   1.304   0.723 -0.1253 -0.2754 -0.5394
  361SOL    HW1 1082   1.296   1.375   0.778 -2.5909 -0.8204  0.0301
  361SOL    HW2 1083   1.143   1.339   0.710  0.3344 -0.4364 -0.0900
  362SOL     OW 1084   1.391   1.845   0.812  0.0495  0.4985  0.2168
  362SOL    HW1 1085   1.449   1.805   0.891  0.3041 -3.5356 -0.3991
  362SOL    HW2 1086   1.452   1.858   0.729 -1.1078 -1.7000 -1.8448
  363SOL     OW 1087   1.224   1.250   2.044  0.3474 -0.2529 -0.1706
  363SOL    HW1 1088   1.326   1.259   2.071  1.9388  1.7093  2.0513
  363SOL    HW2 1089   1.202   1.329   1.976  1.2372  0.4749 -2.9907
  364SOL     OW 1090   0.495   2.337   1.998  0.1511 -0.2764  0.9000
  364SOL    HW1 1091   0.414   2.402   1.994 -1.9484 -2.0288  0.4748
  364SOL    HW2 1092   0.562   2.350   1.915  0.5936  1.9983 -1.1500
  365SOL     OW 1093   0.998   1.911   1.404 -0.2340  0.8048 -0.8178
  365SOL    HW1 1094   0.904   1.959   1.400 -0.9558  0.9333  1.1119
  365SOL    HW2 1095   1.051   1.914   1.318  0.6414 -1.8819  1.2187
  366SOL     OW 1096   2.813   2.034   0.418  0.3642  0.0297 -0.5193
  366SOL    HW1 1097   2.721   1.997   0.438 -0.0736 -0.1530 -2.7559
  366SOL    HW2 1098   2.868   1.962   0.360 -0.1958 -4.0916 -1.4353
  367SOL     OW 1099   0.917   1.111   0.115 -0.5020 -0.2620 -0.7191
  367SOL    HW1 1100   0.958   1.019   0.140 -1.9664  0.6169 -0.6132
  367SOL    HW2 1101   0.953   1.151   0.024  0.7461 -0.9401 -0.6083
  368SOL     OW 1102   1.442   0.547   0.702  0.5850  0.5457 -0.4282
  368SOL    HW1 1103   1.379   0.583   0.626  1.8181 -2.6704 -1.3380
  368SOL    HW2 1104   1.548   0.566   0.698 -1.3048  0.8758  1.7973
  369SOL     OW 1105   0.329   1.704   0.070 -0.1387 -0.6641 -0.1165
  369SOL    HW1 1106   0.357   1.769   0.146 -2.0862  1.2162 -0.3459
  369SOL    HW2 1107   0.272   1.628   0.106  2.8792 -1.3053  0.7826
  370SOL     OW 1108   0.455   2.080   0.981 -0.0586 -0.5108  0.3482
  370SOL    HW1 1109   0.472   2.183   0.965  0.4634  2.5793 -1.8775
  370SOL    HW2 1110   0.360   2.050   0.960 -0.6781  1.1329  0.8181
  371SOL     OW 1111   2.919   2.185   2.656 -0.5619  0.1977 -0.2841
  371SOL    HW1 1112   2.842   2.155   2.715  0.2148 -0.1842 -0.2782
  371SOL    HW2 1113   3.009   2.198   2.712 -2.0853 -0.3169  2.5273
  372SOL     OW 1114   1.128   2.031   1.093 -0.0616  0.3121 -0.1548
  372SOL    HW1 1115   1.041   2.055   1.045 -0.5513 -0.5954  1.1011
  372SOL    HW2 1116   1.214   2.075   1.058 -1.8275  0.2978 -2.3562
  373SOL     OW 1117   2.013   1.990   0.854  0.6727  0.0313  0.1835
  373SOL    HW1 1118   2.070   2.003   0.939 -2.5111  0.3382  1.4510
  373SOL    HW2 1119   1.916   2.018   0.877  0.4782  1.2031  0.7541
  374SOL     OW 1120   1.845   0.389   0.574  0.1586  0.0804 -0.3650
  374SOL    HW1 1121   1.817   0.328   0.650  1.5452 -4.1608 -0.1293
  374SOL    HW2 1122   1.948   0.390   0.553 -2.0467 -1.9294  1.4657
  375SOL     OW 1123   2.425   2.175   1.091 -0.6806  0.2156 -0.5336
  375SOL    HW1 1124   2.491   2.156   1.009 -0.6289 -2.9297 -1.0929
  375SOL    HW2 1125   2.471   2.142   1.179 -0.9628  2.4633  0.3918
  376SOL     OW 1126   3.064   0.565   1.465 -0.2460  0.5989  0.1361
  376SOL    HW1 1127   3.063   0.615   1.555  0.1229 -4.3248 -0.0574
  376SOL    HW2 1128   2.976   0.509   1.450 -0.7491 -0.1810 -1.0773
  377SOL     OW 1129   2.224   2.877   0.325 -0.0967  0.6099 -0.0407
  377SOL    HW1 1130   2.215   2.977   0.342 -1.9336  0.9648 -1.3476
  377SOL    HW2 1131   2.322   2.840   0.330 -2.5356 -0.3765 -0.8105
  378SOL     OW 1132   1.858   1.852   2.592 -0.1317  0.1808  0.3745
  378SOL    HW1 1133   1.939   1.806   2.631 -3.4185 -1.5520 -0.7866
  378SOL    HW2 1134   1.805   1.779   2.537  2.6655  0.4493  1.5695
  379SOL     OW 1135   0.744   0.150   2.883 -0.0208 -0.5359  1.1038
  379SOL    HW1 1136   0.736   0.061   2.834 -1.6962 -1.4091  0.3543
  379SOL    HW2 1137   0.802   0.226   2.835 -1.0199  3.4771  0.5671
  380SOL     OW 1138   1.484   1.139   0.574 -0.2181 -0.2030  0.5466
  380SOL    HW1 1139   1.378   1.142   0.568  2.5800  0.9631 -2.6654
  380SOL    HW2 1140   1.517   1.043   0.601  1.4041 -0.1009  1.4086
  381SOL     OW 1141   1.380   1.176   1.532 -0.1434 -0.0895  1.3400
  381SOL    HW1 1142   1.423   1.177   1.436  0.1736  0.6412 -0.4827
  381SOL    HW2 1143   1.444   1.131   1.603 -1.5130  0.2106  2.1591
  382SOL     OW 1144   1.778   0.829   0.176 -0.3549 -0.1912  0.1725
  382SOL    HW1 1145   1.795   0.843   0.076  1.7539  2.4094 -0.9540
  382SOL    HW2 1146   1.847   0.878   0.237 -0.5383  1.5944  1.5103
  383SOL     OW 1147   2.603   0.986   1.450  0.1886 -0.1078  0.2133
  383SOL    HW1 1148   2.516   0.934   1.414  1.3004 -0.9704  2.7436
  383SOL    HW2 1149   2.692   0.972   1.403  0.1590  0.1231  1.8370
  384SOL     OW 1150   0.895   2.307   0.126  0.0343 -0.2781  0.3409
  384SOL    HW1 1151   0.892   2.381   0.197  0.4495  0.4499 -1.8793
  384SOL    HW2 1152   0.867   2.214   0.162  0.3608  1.0150  3.8099
  385SOL     OW 1153   3.050   2.032   1.664  0.0112  0.3922 -0.2197
  385SOL    HW1 1154   3.123   2.098   1.634 -0.2771  2.3115 -1.5436
  385SOL    HW2 1155   3.091   1.935   1.657  1.5520  3.3444 -1.7610
  386SOL     OW 1156   0.480   1.098   0.399  0.3089 -0.1172 -0.3138
  386SOL    HW1 1157   0.473   0.992   0.415 -0.4048  0.3203 -0.8628
  386SOL    HW2 1158   0.393   1.142   0.368 -1.2494 -1.1789  0.8505
  387SOL     OW 1159   0.922   0.369   1.620  0.0468 -0.6356  0.3872
  387SOL    HW1 1160   1.012   0.420   1.632  1.2008 -1.5943 -0.8180
  387SOL    HW2 1161   0.924   0.302   1.536 -1.6867  0.3073  0.1497
  388SOL     OW 1162   1.191   2.594   1.766 -0.0993  0.4135 -0.1842
  388SOL    HW1 1163   1.227   2.596   1.665  2.2766 -0.9067  0.7037
  388SOL    HW2 1164   1.244   2.533   1.835 -3.1837 -0.3503 -1.9586
  389SOL     OW 1165   0.153   3.007   1.084 -0.2840 -0.3778  0.0773
  389SOL    HW1 1166   0.052   3.004   1.070  0.3081 -0.8456 -3.4222
  389SOL    HW2 1167   0.208   2.916   1.082  0.9506  1.1217 -0.9757
  390SOL     OW 1168   1.021   0.941   1.338  0.4096  0.1304  0.4379
  390SOL    HW1 1169   1.111   0.894   1.355  1.3206  2.3717 -1.4482
  390SOL    HW2 1170   1.017   1.027   1.394 -1.0481 -2.1065 -0.8826
  391SOL     OW 1171   2.092   1.167   1.043  0.5854 -1.0620  0.5967
  391SOL    HW1 1172   2.020   1.100   1.074 -1.9267 -1.0799  2.2860
  391SOL    HW2 1173   2.146   1.134   0.958 -0.6183  1.2885  1.2236
  392SOL     OW 1174   0.880   2.676   3.057  0.4057  0.4808  0.6457
  392SOL    HW1 1175   0.792   2.662   3.118  0.2387 -2.3583 -3.6846
  392SOL    HW2 1176   0.967   2.686   3.112  0.1562  1.5248  0.6905
  393SOL     OW 1177   0.305   0.504   1.987 -0.8996  0.6270  0.0175
  393SOL    HW1 1178   0.253   0.416   1.970  0.6461 -1.1876 -2.8647
  393SOL    HW2 1179   0.366   0.533   1.909 -3.0085 -0.8406  1.3773
  394SOL     OW 1180   3.001   1.866   2.755  1.1166  0.0867 -0.5572
  394SOL    HW1 1181   3.079   1.909   2.801 -0.5962  0.2624 -0.8062
  394SOL    HW2 1182   3.019   1.846   2.651  2.0957 -1.4133 -1.0419
  395SOL     OW 1183   1.603   1.939   0.639  0.2342  0.1692  1.1441
  395SOL    HW1 1184   1.637   1.866   0.576 -1.6570  1.3107 -0.9474
  395SOL    HW2 1185   1.671   1.950   0.717  1.6294  2.4104  0.1048
  396SOL     OW 1186   2.765   1.954   1.340  1.0156 -0.7346  0.6192
  396SOL    HW1 1187   2.663   1.980   1.328 -2.4835  1.0072 -0.9313
  396SOL    HW2 1188   2.786   1.925   1.440  1.6819 -0.8167  0.6326
  397SOL     OW 1189   0.992   2.198   0.506  0.8015  0.2690 -0.2823
  397SOL    HW1 1190   0.911   2.138   0.519 -1.8717 -0.5070 -0.4140
  397SOL    HW2 1191   0.969   2.300   0.498 -0.3307 -1.2931 -0.1602
  398SOL     OW 1192   2.117   3.072   1.076 -0.4230 -0.3778  0.0637
  398SOL    HW1 1193   2.108   2.962   1.079  1.4379 -4.6061  1.2387
  398SOL    HW2 1194   2.040   3.123   1.121 -0.0265 -0.8147 -2.7347
  399SOL     OW 1195   2.967   2.521   2.676  0.4891  0.4218 -1.7860
  399SOL    HW1 1196   2.894   2.488   2.618  1.0368  1.6506  0.4011
  399SOL    HW2 1197   2.995   2.447   2.745  0.2090  0.3146  1.2275
  400SOL     OW 1198   0.796   1.602   1.313 -0.0302  0.5078 -0.0122
  400SOL    HW1 1199   0.797   1.643   1.405  0.9661 -0.9516  1.0055
  400SOL    HW2 1200   0.757   1.664   1.236 -1.0166 -0.6959 -0.9644
  401SOL     OW 1201   1.821   0.104   1.369 -0.3434  0.2191 -0.0524
  401SOL    HW1 1202   1.868   0.158   1.444 -0.5018  1.3106 -2.4032
  401SOL    HW2 1203   1.714   0.101   1.386 -2.3064 -0.2883 -1.4906
  402SOL     OW 1204   1.330   0.135   3.036  0.3133  0.5406 -0.3156
  402SOL    HW1 1205   1.428   0.123   3.013 -3.7637  0.4251 -1.2949
  402SOL    HW2 1206   1.307   0.233   3.061 -1.6876  1.4192  0.8081
  403SOL     OW 1207   2.313   1.818   0.887 -0.3574 -0.3220 -0.5521
  403SOL    HW1 1208   2.413   1.803   0.905  2.8548  2.7283  1.4401
  403SOL    HW2 1209   2.275   1.889   0.952  0.4298 -2.2371  2.0571
  404SOL     OW 1210   0.178   2.505   2.811 -0.1431  0.1197  0.2583
  404SOL    HW1 1211   0.272   2.467   2.839  2.9999  0.5373 -0.9508
  404SOL    HW2 1212   0.165   2.607   2.806 -0.8816 -0.0405 -0.0037
  405SOL     OW 1213   0.154   2.425   0.623  0.9177  0.3957  0.1472
  405SOL    HW1 1214   0.104   2.377   0.547 -0.5892 -2.5471  2.4172
  405SOL    HW2 1215   0.225   2.486   0.588 -1.6691 -0.2636  0.5080
  406SOL     OW 1216   0.030   1.481   3.001 -0.2411  0.1078 -0.0978
  406SOL    HW1 1217   0.113   1.448   2.950  1.4601  0.9210  0.3163
  406SOL    HW2 1218   0.057   1.527   3.084 -1.0816 -1.5574 -3.4335
  407SOL     OW 1219   1.576   0.929   0.904  0.2705  0.0984  0.0411
  407SOL    HW1 1220   1.527   0.851   0.850  0.5132 -2.0263 -0.1806
  407SOL    HW2 1221   1.510   1.001   0.940 -0.2694 -0.2405  1.1329
  408SOL     OW 1222   1.605   2.332   0.942 -0.1311 -0.8730  0.5651
  408SOL    HW1 1223   1.668   2.336   0.864 -2.4038 -2.1593  0.0749
  408SOL    HW2 1224   1.560   2.430   0.963 -0.7991  0.0900  0.6265
  409SOL     OW 1225   0.645   0.866   0.720  0.6529 -0.2548 -0.6081
  409SOL    HW1 1226   0.574   0.843   0.655 -1.0152  0.0325  3.4158
  409SOL    HW2 1227   0.673   0.781   0.778 -0.2453 -0.3635  0.7570
  410SOL     OW 1228   1.261   2.021   1.430  0.1343  0.1843  0.3024
  410SOL    HW1 1229   1.343   1.983   1.470 -4.9207  3.6387 -0.6479
  410SOL    HW2 1230   1.178   1.970   1.454 -0.6129 -0.1188  1.2987
  411SOL     OW 1231   2.504   1.858   0.010 -0.1937 -0.4942  0.5523
  411SOL    HW1 1232   2.421   1.876  -0.049 -0.1860 -0.1134  1.7645
  411SOL    HW2 1233   2.595   1.867  -0.044  0.7864  0.6605 -0.0883
  412SOL     OW 1234   1.496   2.540   2.172 -0.3159 -0.6303  0.1567
  412SOL    HW1 1235   1.565   2.611   2.202  1.1166 -0.1568 -0.5365
  412SOL    HW2 1236   1.415   2.535   2.241 -2.7991  1.5256 -0.4644
  413SOL     OW 1237   3.094   0.264   2.923  0.1986  0.4325 -0.0332
  413SOL    HW1 1238   3.052   0.169   2.932 -0.5536  0.3909  1.1065
  413SOL    HW2 1239   3.175   0.279   2.986 -0.9638 -2.0282 -1.5342
  414SOL     OW 1240   1.813   1.473   1.280  0.4784 -0.6117 -0.6751
  414SOL    HW1 1241   1.724   1.506   1.321 -1.0017 -0.8576 -2.8989
  414SOL    HW2 1242   1.797   1.416   1.200  1.1431  1.5465 -1.6955
  415SOL     OW 1243   0.294   2.182   0.728 -0.3835  0.0504  0.2306
  415SOL    HW1 1244   0.215   2.235   0.685  0.3781 -1.3342  1.9222
  415SOL    HW2 1245   0.265   2.111   0.803 -0.7054 -2.2428  2.0910
  416SOL     OW 1246   0.373   1.065   1.055  0.1928  0.2148 -0.0748
  416SOL    HW1 1247   0.328   1.039   0.962 -1.2681 -2.3867  1.8461
  416SOL    HW2 1248   0.449   1.138   1.049  2.0335  2.0556 -0.5671
  417SOL     OW 1249   2.140   2.311   1.904  0.2534  0.1776  0.0361
  417SOL    HW1 1250   2.137   2.213   1.935  0.9785  0.4648  0.9660
  417SOL    HW2 1251   2.043   2.347   1.890  0.0434 -0.7763  0.7857
  418SOL     OW 1252   1.134   0.494   1.311  0.0867 -0.0347  0.0355
  418SOL    HW1 1253   1.050   0.464   1.265 -1.7180  1.3741 -1.2594
  418SOL    HW2 1254   1.186   0.565   1.256 -1.2068  0.9869 -0.2903
  419SOL     OW 1255   0.995   0.370   3.026 -0.2023  0.0741  0.1929
  419SOL    HW1 1256   0.941   0.425   2.956 -0.0452  1.4085 -0.7186
  419SOL    HW2 1257   0.951   0.301   3.088  0.9649 -0.9214  0.5942
  420SOL     OW 1258   0.136   2.272   0.382 -0.3587 -0.1366  0.2094
  420SOL    HW1 1259   0.143   2.231   0.287 -2.2377  1.9659  0.7586
  420SOL    HW2 1260   0.052   2.234   0.433 -0.4721  0.4211  0.0214
  421SOL     OW 1261   0.315   2.995   0.711 -0.4483 -0.8839  0.1193
  421SOL    HW1 1262   0.310   2.898   0.672  1.0512 -3.3889  0.0281
  421SOL    HW2 1263   0.416   3.024   0.718 -0.9626 -1.3980 -1.3272
  422SOL     OW 1264   0.990   2.584   1.031  0.4566 -0.4002 -0.0817
  422SOL    HW1 1265   1.074   2.632   0.999 -2.8418 -0.0231  2.0918
  422SOL    HW2 1266   0.985   2.580   1.135 -2.0926 -1.3943 -1.8135
  423SOL     OW 1267   0.104   0.702   1.273  0.2442 -0.5032 -0.2928
  423SOL    HW1 1268   0.049   0.654   1.341 -1.9078  0.0313  0.5274
  423SOL    HW2 1269   0.058   0.788   1.238  2.4917  0.6842  1.9464
  424SOL     OW 1270   1.023   2.258   2.065  0.2460 -0.2651 -0.3291
  424SOL    HW1 1271   0.991   2.348   2.020  0.2059 -0.0198 -1.5391
  424SOL    HW2 1272   1.049   2.263   2.166 -1.6380  1.5706  0.6553
  425SOL     OW 1273   1.980   1.430   0.961  0.0343  0.0314  0.0540
  425SOL    HW1 1274   2.041   1.373   1.019 -0.4853  2.0557  3.6585
  425SOL    HW2 1275   2.028   1.499   0.903  0.0155  1.4633 -2.6099
  426SOL     OW 1276   1.525   1.536   1.389  0.4203  0.5734 -0.2640
  426SOL    HW1 1277   1.501   1.628   1.343  0.8960  0.2704 -2.5460
  426SOL    HW2 1278   1.485   1.523   1.485  0.0788  0.9391  3.5006
  427SOL     OW 1279   1.854   2.353   2.053 -0.2436  0.2068  0.3363
  427SOL    HW1 1280   1.909   2.273   2.086 -2.6066 -0.6817 -1.4733
  427SOL    HW2 1281   1.889   2.443   2.088  0.6770  0.0532  1.4948
  428SOL     OW 1282   0.865   2.964   0.192  0.2865  0.4736 -0.1157
  428SOL    HW1 1283   0.879   3.067   0.210 -2.2350  3.2898 -0.8970
  428SOL    HW2 1284   0.954   2.912   0.167 -0.2262 -1.6167  3.3708
  429SOL     OW 1285   1.325   0.086   0.219  0.2834  0.1146 -0.2099
  429SOL    HW1 1286   1.410   0.128   0.263 -0.1307  0.3851 -0.1683
  429SOL    HW2 1287   1.332   0.080   0.114  1.4279  1.8129 -0.1070
  430SOL     OW 1288   2.765   1.442   0.394  1.2125 -0.4948  0.0793
  430SOL    HW1 1289   2.799   1.479   0.302 -1.4438  0.9994  0.8877
  430SOL    HW2 1290   2.788   1.516   0.468  2.0390  1.5541  0.0406
  431SOL     OW 1291   2.171   1.584   0.811 -0.0254 -0.3038  0.0989
  431SOL    HW1 1292   2.224   1.660   0.856 -1.6469 -0.5746 -1.1688
  431SOL    HW2 1293   2.086   1.620   0.764  0.8614 -1.4646 -1.8895
  432SOL     OW 1294   2.861   2.210   1.269  0.1366  0.4400 -0.7999
  432SOL    HW1 1295   2.828   2.110   1.286  0.1340  1.5198  0.4756
  432SOL    HW2 1296   2.899   2.261   1.356  1.2014 -0.0470  0.7959
  433SOL     OW 1297   1.927   0.389   0.860  0.3075  0.6364  0.0826
  433SOL    HW1 1298   1.850   0.340   0.912  0.4399  1.4107  0.3983
  433SOL    HW2 1299   2.016   0.366   0.903 -1.0084 -0.7024  0.1525
  434SOL     OW 1300   1.529   0.297   0.788 -0.2774  0.5406 -0.1005
  434SOL    HW1 1301   1.499   0.392   0.764  0.8183 -5.2493 -0.6834
  434SOL    HW2 1302   1.579   0.292   0.878  0.4135  1.2670  0.0765
  435SOL     OW 1303   1.412   1.437   2.119  0.6140 -0.0011 -0.2897
  435SOL    HW1 1304   1.343   1.476   2.193 -1.3390 -0.6943  4.1443
  435SOL    HW2 1305   1.453   1.508   2.051  0.3854  1.5003  3.4307
  436SOL     OW 1306   1.684   2.738   2.273 -0.0198 -0.1378 -0.5207
  436SOL    HW1 1307   1.643   2.806   2.339  1.4902  0.2601 -2.4232
  436SOL    HW2 1308   1.718   2.656   2.325  1.9988 -1.0007  0.3200
  437SOL     OW 1309   1.064   2.909   0.917 -0.6672  0.1173 -0.1422
  437SOL    HW1 1310   1.045   2.997   0.864  2.8427  1.6483 -2.4076
  437SOL    HW2 1311   1.038   2.905   1.016 -0.6896 -0.3864  2.2433
  438SOL     OW 1312   1.047   2.580   1.312 -0.4894 -0.2765 -0.2555
  438SOL    HW1 1313   1.119   2.588   1.390 -1.9075  1.3521  2.6146
  438SOL    HW2 1314   1.019   2.483   1.306 -0.7468  1.5525 -0.1972
  439SOL     OW 1315   0.698   1.741   1.067 -0.1994 -0.4156  0.0548
  439SOL    HW1 1316   0.711   1.825   1.006 -0.3312 -3.9470 -3.4878
  439SOL    HW2 1317   0.597   1.719   1.078  1.0439  0.5907 -0.2250
  440SOL     OW 1318   0.972   2.483   1.919  0.0515  0.3267  0.3824
  440SOL    HW1 1319   0.951   2.535   1.829  2.4689 -0.2632  1.4104
  440SOL    HW2 1320   1.069   2.491   1.949 -0.4297 -1.6684 -0.4873
  441SOL     OW 1321   0.401   2.778   1.392 -0.1499 -0.2873  0.2589
  441SOL    HW1 1322   0.460   2.693   1.415 -0.2148 -0.9855  1.6268
  441SOL    HW2 1323   0.340   2.767   1.313  5.7057 -0.0615 -1.4590
  442SOL     OW 1324   2.294   0.652   2.519  0.5867  0.5557 -0.5514
  442SOL    HW1 1325   2.284   0.556   2.486  0.3211  1.5409 -1.0507
  442SOL    HW2 1326   2.209   0.708   2.501 -1.3338  0.5635 -1.3195
  443SOL     OW 1327   1.212   2.725   2.194 -0.0651 -0.0199 -0.0765
  443SOL    HW1 1328   1.292   2.752   2.251 -2.5093  1.7354  2.1802
  443SOL    HW2 1329   1.120   2.708   2.245  0.7450 -2.0098  1.7171
  444SOL     OW 1330   1.156   1.298   1.592  0.2570  0.0072 -0.3916
  444SOL    HW1 1331   1.250   1.260   1.567 -1.0304  0.9532  1.9862
  444SOL    HW2 1332   1.154   1.364   1.671  1.1544  0.4451  0.0556
  445SOL     OW 1333   0.016   2.395   1.888  0.3172  0.7459  0.3852
  445SOL    HW1 1334   0.002   2.481   1.835  1.2156 -1.0070  3.4950
  445SOL    HW2 1335  -0.078   2.363   1.930 -0.1591  0.5227 -0.0306
  446SOL     OW 1336   0.265   1.909   2.342  0.2418  0.2723 -0.2746
  446SOL    HW1 1337   0.213   1.988   2.393  1.0001 -0.7112 -4.2293
  446SOL    HW2 1338   0.194   1.846   2.302 -1.2654  1.7426 -0.0461
  447SOL     OW 1339   1.220   1.716   1.906  0.1258 -0.2118  0.0603
  447SOL    HW1 1340   1.126   1.760   1.927  0.2966  0.4259 -2.2271
  447SOL    HW2 1341   1.293   1.762   1.965 -0.3166  1.0009 -0.6405
  448SOL     OW 1342   0.116   1.451   2.018  0.1244  0.3201  0.1699
  448SOL    HW1 1343   0.106   1.541   1.966  2.9312 -2.2380 -0.4569
  448SOL    HW2 1344   0.065   1.447   2.114 -4.2496  1.4172 -1.0759
  449SOL     OW 1345   1.817   2.988   0.868  0.8625  0.6930 -0.2425
  449SOL    HW1 1346   1.820   2.960   0.967 -2.3582 -0.1687 -0.2425
  449SOL    HW2 1347   1.849   2.911   0.807  0.9635 -0.5971 -0.9775
  450SOL     OW 1348   2.379   1.443   0.721  0.4489  0.7209  0.2146
  450SOL    HW1 1349   2.282   1.466   0.752 -0.2899  1.9482 -2.7904
  450SOL    HW2 1350   2.389   1.460   0.615  0.5876 -1.0937  0.3195
  451SOL     OW 1351   1.360   3.016   1.436  0.8017 -0.8555  0.1385
  451SOL    HW1 1352   1.291   3.095   1.442  2.1108  0.2320 -1.4575
  451SOL    HW2 1353   1.357   2.954   1.520  0.0776  1.4563  0.1431
  452SOL     OW 1354   2.694   2.284   2.177  0.3783 -0.5231  0.1634
  452SOL    HW1 1355   2.657   2.378   2.207 -0.2796  1.2485 -0.8912
  452SOL    HW2 1356   2.747   2.234   2.253 -1.3727  0.4595 -1.5091
  453SOL     OW 1357   2.472   2.628   3.087 -0.2120 -0.0822 -0.3645
  453SOL    HW1 1358   2.394   2.675   3.150 -0.1564  0.2550  1.7056
  453SOL    HW2 1359   2.434   2.569   3.007 -2.2536  0.0709  1.1310
  454SOL     OW 1360   0.961   1.139   2.085 -0.6079  0.2240  0.2583
  454SOL    HW1 1361   0.938   1.141   1.983 -1.6781 -0.5907 -0.2558
  454SOL    HW2 1362   1.042   1.204   2.101  0.0404  1.3763 -0.6992
  455SOL     OW 1363   0.669   2.677   2.869 -0.6965  0.2087  0.3383
  455SOL    HW1 1364   0.739   2.711   2.929 -5.7258 -3.5798  3.0583
  455SOL    HW2 1365   0.671   2.574   2.875 -0.6974 -0.6828  2.1675
  456SOL     OW 1366   0.460   1.891   0.267  0.2616 -0.1581  0.0615
  456SOL    HW1 1367   0.536   1.826   0.308  1.3277 -1.4545  0.7192
  456SOL    HW2 1368   0.494   1.985   0.235 -0.9207 -1.8898 -3.0954
  457SOL     OW 1369   0.334   2.648   0.590  0.1852  0.1799 -0.3702
  457SOL    HW1 1370   0.345   2.732   0.525 -0.1094 -1.3413  0.1211
  457SOL    HW2 1371   0.414   2.585   0.607 -1.0621 -1.9008  2.2695
  458SOL     OW 1372   2.908   3.093   1.271  0.1433 -0.2070 -0.0531
  458SOL    HW1 1373   2.965   3.183   1.275  0.4019  0.2125 -0.5172
  458SOL    HW2 1374   2.937   3.022   1.201 -0.7302  0.7598  2.2670
  459SOL     OW 1375   2.113   2.607   0.752  0.1089 -0.3952  0.6610
  459SOL    HW1 1376   2.192   2.676   0.778  1.1327  0.1758  1.0674
  459SOL    HW2 1377   2.141   2.531   0.687  1.2329  1.3116  1.6428
  460SOL     OW 1378   1.230   2.066   2.825  0.4422 -0.3887  0.2090
  460SOL    HW1 1379   1.236   2.099   2.724  1.3267 -2.8860 -3.1318
  460SOL    HW2 1380   1.228   1.963   2.825  1.8108 -2.5103  2.6533
  461SOL     OW 1381   0.546   2.150   2.635  0.1482 -0.6654 -0.4994
  461SOL    HW1 1382   0.495   2.074   2.593  0.2061  0.4763 -0.5160
  461SOL    HW2 1383   0.586   2.131   2.731 -1.5601 -0.6039  0.6547
  462SOL     OW 1384   0.975   1.155   1.813  0.1403 -0.0813  0.2391
  462SOL    HW1 1385   1.034   1.120   1.739  2.7231  0.1968  2.0682
  462SOL    HW2 1386   0.910   1.227   1.773 -0.5726  2.7392  2.6447
  463SOL     OW 1387   0.469   0.843   0.505  0.3058  0.4922 -0.5390
  463SOL    HW1 1388   0.516   0.753   0.514  0.9050  1.7304 -0.1743
  463SOL    HW2 1389   0.362   0.845   0.523  1.0722 -1.6717  1.8849
  464SOL     OW 1390   0.603   2.293   2.240  0.0909  0.2232 -0.2636
  464SOL    HW1 1391   0.587   2.371   2.313  0.7243  2.5014  0.2734
  464SOL    HW2 1392   0.568   2.312   2.141  3.5065 -0.0309  0.2701
  465SOL     OW 1393   0.239   0.952   0.820  0.2962 -0.3210 -0.9459
  465SOL    HW1 1394   0.139   0.987   0.802  0.3028 -0.4936 -0.5720
  465SOL    HW2 1395   0.248   0.857   0.788 -0.4587  2.1150  3.4694
  466SOL     OW 1396   1.399   1.154   0.990  0.2388  0.4925  0.5078
  466SOL    HW1 1397   1.373   1.255   0.995 -3.2828 -0.6161 -0.7581
  466SOL    HW2 1398   1.310   1.093   0.997  0.9054 -1.0860 -1.3131
  467SOL     OW 1399   0.521   0.372   2.414 -0.2437  0.1521 -0.6759
  467SOL    HW1 1400   0.469   0.466   2.418 -0.8909 -0.4490  0.7770
  467SOL    HW2 1401   0.516   0.328   2.512 -0.5148  0.0203 -2.2660
  468SOL     OW 1402   0.474   2.279   1.657  0.2047  0.2746  0.1985
  468SOL    HW1 1403   0.540   2.351   1.688 -1.9901 -1.9703 -1.4909
  468SOL    HW2 1404   0.444   2.289   1.556  1.3179  1.8543 -1.1240
  469SOL     OW 1405   1.443   1.377   1.162  0.4502  0.4487 -0.3773
  469SOL    HW1 1406   1.519   1.356   1.091 -1.2067  0.1548  0.1825
  469SOL    HW2 1407   1.483   1.434   1.235  2.1470  0.5588  0.2156
  470SOL     OW 1408   3.003   1.748   0.722 -0.0540 -0.3253 -0.4902
  470SOL    HW1 1409   3.049   1.817   0.661  0.7871 -2.1723 -3.1005
  470SOL    HW2 1410   3.057   1.658   0.732  0.5522 -3.4050  1.2132
  471SOL     OW 1411   2.693   1.257   2.125  0.2983  0.1684  0.2397
  471SOL    HW1 1412   2.675   1.217   2.219  0.3493 -2.1535  2.0367
  471SOL    HW2 1413   2.748   1.347   2.126 -2.2504  1.4522  0.7600
  472SOL     OW 1414   1.133   2.453   0.044  0.5986  0.1079 -0.2789
  472SOL    HW1 1415   1.190   2.445   0.132 -0.2625 -0.6271  1.2819
  472SOL    HW2 1416   1.044   2.398   0.040  0.0074  0.2133 -0.6982
  473SOL     OW 1417   1.095   1.555   1.010 -0.6629 -0.2290  0.1193
  473SOL    HW1 1418   0.998   1.539   0.964  0.0679 -0.9877 -0.7252
  473SOL    HW2 1419   1.116   1.473   1.067  1.1027  1.5218 -0.0653
  474SOL     OW 1420   0.654   1.281   0.543  0.3586  0.4746  0.7714
  474SOL    HW1 1421   0.598   1.216   0.483 -0.8254  1.1854 -0.5317
  474SOL    HW2 1422   0.731   1.228   0.591  2.7333 -1.6306 -1.7236
  475SOL     OW 1423   2.837   0.050   0.796 -0.1920  0.2421 -0.2111
  475SOL    HW1 1424   2.910   0.105   0.849  2.0390  0.5460 -0.7535
  475SOL    HW2 1425   2.739   0.081   0.828 -3.5030  1.2082 -1.2768
  476SOL     OW 1426   0.985   3.070   1.806 -0.0002 -0.2049  0.6198
  476SOL    HW1 1427   1.050   3.002   1.849  0.6786 -0.9056 -0.0718
  476SOL    HW2 1428   0.990   3.069   1.704 -1.6188 -0.6258  1.3977
  477SOL     OW 1429   1.413   0.328   2.469  0.0129  0.2186 -0.0662
  477SOL    HW1 1430   1.410   0.340   2.577  1.7959 -1.2466  0.9962
  477SOL    HW2 1431   1.497   0.269   2.447  1.9794 -0.3470 -0.3324
  478SOL     OW 1432   2.237   1.841   0.178 -0.2639  0.3051  0.8599
  478SOL    HW1 1433   2.181   1.754   0.160 -1.3611 -0.0433 -1.1648
  478SOL    HW2 1434   2.327   1.823   0.216  1.8514  0.1962 -0.4834
  479SOL     OW 1435   1.255   1.010   2.905  0.0829  0.3174  0.4657
  479SOL    HW1 1436   1.336   1.013   2.843  3.7638  2.1383  0.1157
  479SOL    HW2 1437   1.196   0.924   2.895 -1.4807  0.5714 -2.8752
  480SOL     OW 1438   2.641   2.349   0.376 -0.7972  0.4777  0.5369
  480SOL    HW1 1439   2.607   2.273   0.440 -1.4264 -1.9315 -0.9854
  480SOL    HW2 1440   2.586   2.344   0.288  1.0888 -0.9231 -1.0237
  481SOL     OW 1441   0.976   1.150   0.904  0.3067 -0.2682 -0.2705
  481SOL    HW1 1442   1.017   1.227   0.848  0.4807  0.4547 -1.5629
  481SOL    HW2 1443   1.012   1.143   1.001 -1.6963  1.8109  1.5874
  482SOL     OW 1444   1.580   0.312   2.036  0.1784 -0.4166 -0.1465
  482SOL    HW1 1445   1.575   0.414   2.009  0.1550  2.6659  0.9824
  482SOL    HW2 1446   1.676   0.283   2.076 -1.1913 -0.0684 -1.0261
  483SOL     OW 1447   0.123   2.324   1.271  0.5704  0.5479  0.0542
  483SOL    HW1 1448   0.039   2.324   1.333  0.8518 -0.3784 -0.3604
  483SOL    HW2 1449   0.150   2.424   1.262 -2.8142 -0.3332  0.1678
  484SOL     OW 1450   1.763   1.094   1.342 -0.2657 -0.2655 -0.0572
  484SOL    HW1 1451   1.817   1.008   1.352  0.3789 -0.5012 -1.0960
  484SOL    HW2 1452   1.779   1.153   1.425  1.2165  0.4824  1.3790
  485SOL     OW 1453   0.724   1.020   1.796 -0.4433  0.3477  0.3292
  485SOL    HW1 1454   0.699   1.025   1.691 -0.6062 -2.6387 -0.4725
  485SOL    HW2 1455   0.798   1.084   1.825  1.2546 -0.5261  1.4191
  486SOL     OW 1456   0.820   1.906   2.430  0.0632 -0.0959  0.0478
  486SOL    HW1 1457   0.886   1.866   2.497 -1.7735  3.5153  1.2729
  486SOL    HW2 1458   0.795   2.004   2.454  1.9403  3.0650  1.1275
  487SOL     OW 1459   1.804   1.655   0.958 -0.0146  0.0386 -0.1628
  487SOL    HW1 1460   1.874   1.594   1.010  1.8110  3.3899  1.5812
  487SOL    HW2 1461   1.858   1.718   0.898  1.4338 -0.1930 -1.3594
  488SOL     OW 1462   2.995   0.881   2.212 -0.4172  0.1641 -0.2218
  488SOL    HW1 1463   2.989   0.780   2.191 -2.2041  0.2893 -0.1697
  488SOL    HW2 1464   3.023   0.893   2.312 -2.5405 -0.1372 -0.0133
  489SOL     OW 1465   2.777   0.318   1.270 -0.1549  0.3892 -0.3334
  489SOL    HW1 1466   2.790   0.335   1.373  1.0250 -0.8478  3.6702
  489SOL    HW2 1467   2.853   0.259   1.232  1.9416  0.3411 -0.3913
  490SOL     OW 1468   1.525   2.962   2.771  0.2034  0.1474  0.0292
  490SOL    HW1 1469   1.562   2.865   2.771 -1.1415  0.2282  0.1527
  490SOL    HW2 1470   1.463   2.982   2.693 -0.5066 -0.3241 -0.0726
  491SOL     OW 1471   1.746   1.419   2.622 -0.1070  0.2528  0.2127
  491SOL    HW1 1472   1.651   1.459   2.646  0.1060 -0.2817  2.0831
  491SOL    HW2 1473   1.826   1.473   2.665  1.0117  1.7787  0.6607
  492SOL     OW 1474   0.559   2.102   0.659  0.1527 -0.8618  0.1713
  492SOL    HW1 1475   0.626   2.077   0.739  0.7072  0.0505  0.4024
  492SOL    HW2 1476   0.474   2.145   0.692  0.1341 -1.9920 -2.2396
  493SOL     OW 1477   0.419   1.439   2.016  0.3055 -0.1261 -0.0391
  493SOL    HW1 1478   0.323   1.485   2.000 -1.4230  0.7970  0.9356
  493SOL    HW2 1479   0.412   1.357   2.078  2.1344  1.5159 -1.7850
  494SOL     OW 1480   2.724   2.703   0.153  0.3457 -0.5847  0.2482
  494SOL    HW1 1481   2.727   2.669   0.252 -0.0486  3.1200  0.6452
  494SOL    HW2 1482   2.648   2.662   0.093  0.1984  0.3999 -3.2560
  495SOL     OW 1483   2.688   2.719   2.734  0.3783 -0.5148  0.5604
  495SOL    HW1 1484   2.692   2.622   2.750  0.7207  1.5052  0.4428
  495SOL    HW2 1485   2.738   2.756   2.652 -0.0129 -0.3348 -0.3223
  496SOL     OW 1486   2.081   2.224   0.705  0.1087 -0.0943 -0.1561
  496SOL    HW1 1487   2.113   2.265   0.798  0.6856 -1.0963  1.3529
  496SOL    HW2 1488   2.057   2.123   0.720  0.8922  0.3580 -2.9516
  497SOL     OW 1489   0.220   2.982   2.402  0.5025 -0.3562  0.3086
  497SOL    HW1 1490   0.189   3.062   2.463  1.5678  0.7770  0.6768
  497SOL    HW2 1491   0.259   3.023   2.311  1.9721  0.7494 -0.6814
  498SOL     OW 1492   1.173   1.350   1.189  0.0669 -0.1417  0.3926
  498SOL    HW1 1493   1.273   1.369   1.168  1.0695 -0.7449  1.7299
  498SOL    HW2 1494   1.137   1.397   1.273 -0.0415  0.8354 -0.0940
  499SOL     OW 1495   0.659   1.770   0.383  0.3816  0.8072  0.7395
  499SOL    HW1 1496   0.671   1.669   0.365  2.3170 -0.3907  2.3479
  499SOL    HW2 1497   0.723   1.812   0.454 -3.1624  3.7371 -0.1602
  500SOL     OW 1498   1.420   2.835   1.630 -0.5486  0.2436 -0.0709
  500SOL    HW1 1499   1.390   2.840   1.728  0.1610 -1.8318 -3.3660
  500SOL    HW2 1500   1.507   2.780   1.603  1.9834  0.1935  2.9558
  501SOL     OW 1501   0.800   1.120   2.299  0.0077  0.7603  0.0305
  501SOL    HW1 1502   0.701   1.074   2.288 -2.9567 -0.7233 -3.1455
  501SOL    HW2 1503   0.842   1.148   2.210 -0.4597  1.1006  2.3593
  502SOL     OW 1504   2.572   0.968   1.719  0.1728  0.4057 -0.1238
  502SOL    HW1 1505   2.583   0.966   1.615  0.6322 -0.1820  1.5987
  502SOL    HW2 1506   2.534   0.882   1.755 -1.9005  0.1692 -0.5227
  503SOL     OW 1507   1.340   0.127   0.701 -0.1365 -0.1246  0.2476
  503SOL    HW1 1508   1.275   0.193   0.655 -1.3102  1.1397 -1.1185
  503SOL    HW2 1509   1.428   0.174   0.730 -0.9054  0.1668 -2.1432
  504SOL     OW 1510   3.008   2.347   1.468 -0.5797  0.1118  0.5053
  504SOL    HW1 1511   2.950   2.418   1.522 -1.0051 -2.2270  3.0425
  504SOL    HW2 1512   3.084   2.304   1.534  2.6379  0.0328 -1.4673
  505SOL     OW 1513   2.321   1.193   1.427 -0.2315  0.0042  0.1220
  505SOL    HW1 1514   2.313   1.226   1.331  0.5408  0.2042  0.9435
  505SOL    HW2 1515   2.410   1.213   1.471  3.2523  1.1332  1.9424
  506SOL     OW 1516   1.955   0.198   1.816 -0.1031 -0.2500 -0.2266
  506SOL    HW1 1517   1.999   0.129   1.874  0.2007 -1.4523 -3.5044
  506SOL    HW2 1518   1.965   0.291   1.853 -0.4117 -0.5086  0.1442
  507SOL     OW 1519   0.522   0.674   2.135 -0.2814  0.7529 -0.4670
  507SOL    HW1 1520   0.444   0.607   2.108 -1.6920  1.1542 -1.3541
  507SOL    HW2 1521   0.603   0.620   2.177  3.6997 -3.4626  2.6844
  508SOL     OW 1522   0.296   1.604   0.764  0.1752  0.6439  1.0815
  508SOL    HW1 1523   0.375   1.647   0.709  0.5536 -1.9534  0.6808
  508SOL    HW2 1524   0.280   1.659   0.853 -0.6359 -0.5534  0.0945
  509SOL     OW 1525   1.185   1.252   2.350 -0.2858  0.4090 -0.1223
  509SOL    HW1 1526   1.220   1.197   2.281 -2.9814  0.4501  4.0628
  509SOL    HW2 1527   1.109   1.206   2.409  0.1847  1.0734 -0.5340
  510SOL     OW 1528   1.259   2.079   2.220  0.4341 -0.7073 -0.0688
  510SOL    HW1 1529   1.291   2.125   2.135 -1.0591  0.7941 -1.0944
  510SOL    HW2 1530   1.154   2.063   2.219 -2.9681  0.9399  0.0119
  511SOL     OW 1531   3.014   2.714   1.316  0.0133  0.3237 -0.8663
  511SOL    HW1 1532   3.007   2.695   1.217  1.4387 -0.0341  2.8427
  511SOL    HW2 1533   2.926   2.733   1.363  1.1955  0.3531 -0.6595
  512SOL     OW 1534   2.376   0.422   1.379  0.0178 -0.6935  0.2122
  512SOL    HW1 1535   2.278   0.412   1.361  3.9976 -2.8326 -0.1007
  512SOL    HW2 1536   2.422   0.420   1.285 -1.4524  1.7829  0.2801
  513SOL     OW 1537   2.595   2.095   0.907 -0.4794 -0.1804 -0.3856
  513SOL    HW1 1538   2.543   2.153   0.836 -0.9180  0.1069  1.5634
  513SOL    HW2 1539   2.682   2.047   0.867  3.3535 -1.7109  0.0260
  514SOL     OW 1540   0.621   2.739   0.470 -0.1405 -0.0627 -0.6353
  514SOL    HW1 1541   0.601   2.815   0.401 -1.6582 -1.6109 -1.6756
  514SOL    HW2 1542   0.672   2.774   0.554  0.3601 -0.0276 -0.3765
  515SOL     OW 1543   1.958   1.243   2.372 -0.2403 -0.5829  0.0302
  515SOL    HW1 1544   1.939   1.198   2.285  1.3494  1.6231  2.2721
  515SOL    HW2 1545   1.890   1.235   2.447  4.2613  1.6024 -0.9253
  516SOL     OW 1546   0.263   0.240   1.914 -0.2080  0.3011 -0.6135
  516SOL    HW1 1547   0.339   0.194   1.861 -2.5368  2.0641  0.6701
  516SOL    HW2 1548   0.177   0.181   1.913 -1.1482  0.6929  0.4593
  517SOL     OW 1549   0.405   0.021   1.125 -1.0742 -0.1924 -0.2129
  517SOL    HW1 1550   0.419   0.109   1.173  0.8244  0.9671 -3.0556
  517SOL    HW2 1551   0.312   0.010   1.088  2.0499 -1.3976 -4.0868
  518SOL     OW 1552   2.178   3.038   1.807 -0.1251 -0.0549  0.6028
  518SOL    HW1 1553   2.205   3.129   1.837  1.8385 -0.4136 -1.1313
  518SOL    HW2 1554   2.206   3.016   1.709  2.1095  0.0469  0.5235
  519SOL     OW 1555   2.389   2.136   2.493 -0.5321  0.1339  0.3142
  519SOL    HW1 1556   2.347   2.115   2.589 -1.7859 -0.2363  1.2287
  519SOL    HW2 1557   2.378   2.234   2.466  1.2816  0.0224  2.0692
  520SOL     OW 1558   1.851   2.737   1.786 -0.4512  0.0850  0.3832
  520SOL    HW1 1559   1.745   2.737   1.798 -1.7474  0.7234  1.9864
  520SOL    HW2 1560   1.889   2.659   1.727 -0.2483  0.7353 -0.4794
  521SOL     OW 1561   0.564   3.054   2.055  0.3407  0.3291 -0.5163
  521SOL    HW1 1562   0.466   3.043   2.087  1.4861 -0.8568 -0.6405
  521SOL    HW2 1563   0.627   3.030   2.131 -2.0395 -1.1124  0.4827
  522SOL     OW 1564   0.243   1.873   1.472 -0.1515  0.1690 -0.4244
  522SOL    HW1 1565   0.299   1.932   1.539  0.8110 -0.4603  1.4984
  522SOL    HW2 1566   0.189   1.939   1.407  0.1263  1.3653  0.6228
  523SOL     OW 1567   2.218   2.934   1.547 -0.3711  0.3525  0.0827
  523SOL    HW1 1568   2.308   2.888   1.513  2.6947 -0.2256  1.8554
  523SOL    HW2 1569   2.133   2.892   1.497 -2.9180 -0.4806 -1.3635
  524SOL     OW 1570   0.183   2.786   2.811 -0.2401 -0.0005  0.2043
  524SOL    HW1 1571   0.107   2.858   2.827 -3.7934  1.4814  1.6532
  524SOL    HW2 1572   0.279   2.827   2.811  1.0310  1.5117  0.0958
  525SOL     OW 1573   2.158   2.029   0.384  0.4808  0.3956  0.2903
  525SOL    HW1 1574   2.194   1.994   0.476  0.5572  0.3482 -1.7155
  525SOL    HW2 1575   2.185   1.957   0.310  1.3465 -0.3463 -2.0624
  526SOL     OW 1576   0.478   1.486   1.653 -0.0417 -0.0929  0.0056
  526SOL    HW1 1577   0.519   1.543   1.726 -1.7834  1.8133 -1.3050
  526SOL    HW2 1578   0.512   1.386   1.642 -2.0400 -1.0958 -0.0339
  527SOL     OW 1579   1.017   2.865   1.227  0.0922  0.2268  0.6737
  527SOL    HW1 1580   1.097   2.801   1.246 -0.8634  1.7243  1.2788
  527SOL    HW2 1581   1.038   2.968   1.210 -0.8789  0.1684  0.5377
  528SOL     OW 1582   1.358   2.367   0.542  0.2638  0.0484  0.1217
  528SOL    HW1 1583   1.370   2.261   0.550 -0.5982  0.7323 -0.6361
  528SOL    HW2 1584   1.401   2.420   0.620  0.0583  0.5505 -0.3924
  529SOL     OW 1585   1.965   1.763   0.717  0.1293 -0.1320  0.2183
  529SOL    HW1 1586   1.910   1.776   0.628  2.8143 -3.5417 -0.7709
  529SOL    HW2 1587   1.993   1.848   0.769 -0.9180 -1.7016  3.4675
  530SOL     OW 1588   0.326   2.620   0.251 -0.1437 -0.1084  0.5069
  530SOL    HW1 1589   0.295   2.697   0.319 -1.1445  3.7774 -0.3348
  530SOL    HW2 1590   0.390   2.557   0.302 -0.6966  0.5156  0.0549
  531SOL     OW 1591   1.827   1.023   1.030 -0.0697  0.0642 -0.1905
  531SOL    HW1 1592   1.857   1.055   0.936  0.8417  0.5567  2.1197
  531SOL    HW2 1593   1.730   0.982   1.042  0.2673 -1.6615 -1.2564
  532SOL     OW 1594   0.383   1.196   0.680 -0.0191 -0.0104  0.1299
  532SOL    HW1 1595   0.418   1.197   0.580 -0.4131 -1.4715 -2.2399
  532SOL    HW2 1596   0.325   1.113   0.708 -0.3160 -1.8999 -1.5792
  533SOL     OW 1597   1.779   0.035   2.569 -0.1403 -0.4717  0.6281
  533SOL    HW1 1598   1.878   0.005   2.576 -2.7039  0.5529 -2.2741
  533SOL    HW2 1599   1.729   0.049   2.658  1.0873 -0.9560 -1.5344
  534SOL     OW 1600   0.321   0.167   1.568  0.0322  0.0896  0.6779
  534SOL    HW1 1601   0.419   0.197   1.542  2.6006  0.0748  1.0554
  534SOL    HW2 1602   0.254   0.247   1.564 -1.5557  2.2978  1.8999
  535SOL     OW 1603   1.920   0.423   0.242 -0.0475 -0.2139 -0.1094
  535SOL    HW1 1604   1.942   0.512   0.297 -0.0936 -1.6161 -1.5661
  535SOL    HW2 1605   1.828   0.384   0.280 -2.0243  0.3756  1.1280
  536SOL     OW 1606   1.408   2.569   0.969  0.5382 -0.1612  0.4902
  536SOL    HW1 1607   1.376   2.535   1.065 -0.1491 -1.1573 -0.8436
  536SOL    HW2 1608   1.324   2.589   0.912  0.5028 -2.1028  1.4633
  537SOL     OW 1609   0.823   0.178   2.325  0.0422  0.3241 -0.3220
  537SOL    HW1 1610   0.795   0.193   2.228 -3.2352 -2.8411  0.4843
  537SOL    HW2 1611   0.758   0.116   2.377 -0.3121  2.0665  1.6314
  538SOL     OW 1612   1.702   2.345   1.519  0.0114  0.3155 -0.1073
  538SOL    HW1 1613   1.678   2.249   1.481  0.4840  0.7718 -0.6103
  538SOL    HW2 1614   1.782   2.400   1.475 -1.2250  2.5284 -1.7642
  539SOL     OW 1615   0.193   1.560   2.708  0.2713 -0.4696  0.0714
  539SOL    HW1 1616   0.139   1.567   2.618 -0.5649  0.6972 -2.2980
  539SOL    HW2 1617   0.170   1.636   2.773  0.2013  1.7343 -0.4278
  540SOL     OW 1618   2.733   1.692   1.988  0.2888 -0.5989  0.2403
  540SOL    HW1 1619   2.713   1.607   2.045 -2.2139 -0.3698  1.3906
  540SOL    HW2 1620   2.652   1.760   1.972 -0.9462  0.2294 -1.9387
  541SOL     OW 1621   0.455   2.299   3.075  0.1053 -0.2356  0.5325
  541SOL    HW1 1622   0.510   2.260   3.152 -0.0525  2.6885 -0.2062
  541SOL    HW2 1623   0.360   2.268   3.061 -1.1666  0.9912 -0.1379
  542SOL     OW 1624   2.266   2.571   0.392  0.0341 -0.5241  0.3241
  542SOL    HW1 1625   2.230   2.662   0.358  0.5358  0.3152  2.7265
  542SOL    HW2 1626   2.191   2.521   0.444 -1.2748  0.1224 -0.8878
  543SOL     OW 1627   1.094   1.762   1.656 -0.1525 -0.0577  0.0491
  543SOL    HW1 1628   1.075   1.806   1.749  0.7558 -1.1175 -1.1550
  543SOL    HW2 1629   1.050   1.814   1.576 -2.5087  0.4907 -0.4778
  544SOL     OW 1630   1.020   0.417   0.218  0.3326 -1.1122 -0.4386
  544SOL    HW1 1631   1.019   0.330   0.269  1.9172  2.5089 -1.0435
  544SOL    HW2 1632   1.021   0.408   0.117  0.1593  2.6368  2.7533
  545SOL     OW 1633   1.098   1.804   0.829  0.1818  0.6909 -0.6439
  545SOL    HW1 1634   1.201   1.791   0.821  0.3478 -2.0921  0.1543
  545SOL    HW2 1635   1.050   1.732   0.885 -0.4395 -1.1340 -0.9023
  546SOL     OW 1636   2.643   1.525   0.000 -0.1109 -0.4435  0.5991
  546SOL    HW1 1637   2.585   1.560  -0.086 -4.0366 -0.9605 -0.8726
  546SOL    HW2 1638   2.591   1.501   0.086  0.4664 -2.1523  0.8875
  547SOL     OW 1639   0.557   3.093   2.686 -0.0777 -0.2293  0.0882
  547SOL    HW1 1640   0.644   3.038   2.663  1.1507 -0.9051 -1.3364
  547SOL    HW2 1641   0.480   3.033   2.734 -1.4694 -3.5019  3.4254
  548SOL     OW 1642   2.099   0.836   2.998  0.2876  0.0595 -0.6026
  548SOL    HW1 1643   1.997   0.809   2.995 -0.5367  1.3028 -1.8713
  548SOL    HW2 1644   2.120   0.919   3.052  0.6021 -2.7224 -3.3321
  549SOL     OW 1645   0.684   0.518   0.214  0.7032  0.2048  0.3379
  549SOL    HW1 1646   0.644   0.524   0.116 -3.8508 -1.2340 -0.9824
  549SOL    HW2 1647   0.775   0.566   0.220 -2.4422 -0.0802  0.8311
  550SOL     OW 1648   2.474   2.842   2.893  0.4659 -0.2222  0.5372
  550SOL    HW1 1649   2.436   2.783   2.971  0.3789  3.0341 -0.9746
  550SOL    HW2 1650   2.529   2.786   2.825 -0.9238 -0.3949  0.1996
  551SOL     OW 1651   0.266   0.916   0.213 -0.3882  0.5386 -0.2034
  551SOL    HW1 1652   0.363   0.897   0.192 -1.3315  2.7064 -2.1211
  551SOL    HW2 1653   0.234   0.884   0.307 -1.0037 -2.1780  0.6263
  552SOL     OW 1654   0.730   2.980   1.840  0.1026 -0.1176  0.0209
  552SOL    HW1 1655   0.667   3.000   1.923 -3.1601 -0.7920 -0.4847
  552SOL    HW2 1656   0.827   2.975   1.864  1.3534 -1.4948  1.8824
  553SOL     OW 1657   3.006   2.552   0.325 -0.0939 -0.1546  0.0607
  553SOL    HW1 1658   2.975   2.456   0.304 -0.6317 -0.7281 -1.1786
  553SOL    HW2 1659   2.956   2.591   0.402 -1.8727  1.9592 -3.2166
  554SOL     OW 1660   2.132   0.360   0.593  0.5303 -0.6633 -0.2220
  554SOL    HW1 1661   2.208   0.369   0.522 -0.4944  0.5669  0.0909
  554SOL    HW2 1662   2.166   0.303   0.671  2.3461  0.6270 -1.1695
  555SOL     OW 1663   0.410   2.791   2.530 -0.5830 -0.6568  0.2181
  555SOL    HW1 1664   0.330   2.849   2.497  3.1598 -0.1166 -0.1486
  555SOL    HW2 1665   0.449   2.741   2.448  1.3026  0.0956 -1.9085
  556SOL     OW 1666   0.785   2.404   1.512  0.6019  0.0253 -0.2644
  556SOL    HW1 1667   0.822   2.480   1.576 -1.6388 -0.4734  0.3886
  556SOL    HW2 1668   0.854   2.364   1.442  1.4336 -1.8822 -1.2260
  557SOL     OW 1669   0.108   2.060   0.147 -0.1785  0.5195 -0.2336
  557SOL    HW1 1670   0.030   2.003   0.112 -0.1727 -0.7812 -1.6169
  557SOL    HW2 1671   0.152   2.124   0.077  3.2292  0.9627  2.4716
  558SOL     OW 1672   2.932   2.286   0.286 -0.2801 -0.2714 -0.0577
  558SOL    HW1 1673   2.830   2.293   0.303 -0.3417 -0.6694 -1.9695
  558SOL    HW2 1674   2.949   2.248   0.192  0.7096 -3.5895 -0.1498
  559SOL     OW 1675   0.404   2.299   1.366  0.0786 -0.2329  0.5968
  559SOL    HW1 1676   0.303   2.295   1.330 -1.6543 -2.0110 -1.0273
  559SOL    HW2 1677   0.471   2.227   1.332  2.2269  0.2626 -0.5133
  560SOL     OW 1678   2.092   1.146   3.075  0.0111  0.2582  0.0720
  560SOL    HW1 1679   2.003   1.187   3.113 -0.5293 -1.0577  0.9365
  560SOL    HW2 1680   2.167   1.218   3.058  1.0878  0.9087  0.1185
  561SOL     OW 1681   3.011   1.876   0.008  0.6964 -0.5859  0.2192
  561SOL    HW1 1682   2.999   1.816   0.087  0.1407 -1.2002 -2.3696
  561SOL    HW2 1683   2.945   1.953   0.012  0.1997 -2.5105  0.5957
  562SOL     OW 1684   1.037   2.272   2.331 -0.3992  0.1302 -0.0866
  562SOL    HW1 1685   0.942   2.216   2.333  1.2984  0.2590 -1.5708
  562SOL    HW2 1686   1.020   2.372   2.344 -3.8875 -2.1118  0.4884
  563SOL     OW 1687   0.712   2.556   2.625 -0.0621 -0.0024  0.5589
  563SOL    HW1 1688   0.790   2.484   2.642 -0.3892  0.5764  0.9229
  563SOL    HW2 1689   0.697   2.622   2.709 -1.5922  0.6192  3.1298
  564SOL     OW 1690   2.748   1.317   2.957  0.8199 -0.2400 -0.4590
  564SOL    HW1 1691   2.715   1.323   3.053 -1.4775 -1.3403 -0.4788
  564SOL    HW2 1692   2.786   1.406   2.915 -1.6876  0.9101 -0.6600
  565SOL     OW 1693   2.555   1.977   2.612 -0.2394  0.0034  0.2771
  565SOL    HW1 1694   2.504   2.032   2.539 -1.4459  0.5123  2.7898
  565SOL    HW2 1695   2.609   2.035   2.681  1.0419  0.6985 -0.2153
  566SOL     OW 1696   2.025   2.817   1.394  1.0035 -0.2292 -0.1724
  566SOL    HW1 1697   1.953   2.735   1.399 -1.6170 -0.1619  0.0684
  566SOL    HW2 1698   2.024   2.858   1.301  0.5363 -1.4211 -0.1577
  567SOL     OW 1699   2.473   0.089   2.281 -0.6702 -0.2750  0.6320
  567SOL    HW1 1700   2.550   0.148   2.254  0.2887  0.2137  4.7755
  567SOL    HW2 1701   2.432   0.044   2.194  2.3001 -1.2874 -2.5801
  568SOL     OW 1702   1.519   1.793   0.306 -0.5938  0.1319 -0.2962
  568SOL    HW1 1703   1.452   1.869   0.284 -1.7984  0.8231  0.2860
  568SOL    HW2 1704   1.596   1.786   0.239  0.4465 -0.2356  0.0255
  569SOL     OW 1705   0.271   0.674   0.777 -0.7970  0.1576 -0.0719
  569SOL    HW1 1706   0.337   0.594   0.751  2.8185  1.8228 -0.1568
  569SOL    HW2 1707   0.175   0.649   0.806  0.9687 -1.2719  0.2149
  570SOL     OW 1708   0.591   0.860   2.868 -0.2641  0.7999  0.4879
  570SOL    HW1 1709   0.639   0.870   2.776 -1.4158  0.2553 -0.2992
  570SOL    HW2 1710   0.621   0.934   2.928  0.1409 -1.1285 -0.3771
  571SOL     OW 1711   0.771   3.079   1.010 -0.1879 -0.3657 -0.3264
  571SOL    HW1 1712   0.834   3.082   0.924 -0.3596 -2.0069 -0.5348
  571SOL    HW2 1713   0.682   3.028   0.995 -1.7897 -1.0144 -1.8435
  572SOL     OW 1714   1.579   2.624   1.290 -0.0877  0.3065  0.3675
  572SOL    HW1 1715   1.497   2.562   1.286  1.9762  1.6244 -1.6288
  572SOL    HW2 1716   1.559   2.728   1.291  1.8709 -0.5289  1.9526
  573SOL     OW 1717   2.889   0.462   2.059  0.0520  0.3374  0.1412
  573SOL    HW1 1718   2.835   0.378   2.048  1.0546  2.2022 -2.3756
  573SOL    HW2 1719   2.835   0.553   2.054  0.6391 -0.5890 -0.1441
  574SOL     OW 1720   0.196   1.700   1.028 -0.1547 -0.1766 -0.0115
  574SOL    HW1 1721   0.173   1.800   1.004  0.8873  0.5974 -1.1060
  574SOL    HW2 1722   0.116   1.654   1.081 -2.3356  0.2458  1.2415
  575SOL     OW 1723   0.904   2.153   0.959 -0.9596 -0.0945 -0.3599
  575SOL    HW1 1724   0.847   2.177   1.043  0.4380 -0.6482 -0.8595
  575SOL    HW2 1725   0.922   2.240   0.903  2.3586 -0.8150 -0.6192
  576SOL     OW 1726   2.895   3.017   1.703  1.0204  0.6003  0.3885
  576SOL    HW1 1727   2.797   2.986   1.692  1.5909 -1.4086 -2.9138
  576SOL    HW2 1728   2.904   3.118   1.680  0.0860  0.4475  0.0470
  577SOL     OW 1729   2.501   1.240   0.023 -0.6317 -0.6542 -0.1444
  577SOL    HW1 1730   2.533   1.219  -0.074  1.7158  1.0940  2.0906
  577SOL    HW2 1731   2.585   1.246   0.082  0.9923  1.5250 -2.1979
  578SOL     OW 1732   1.353   2.772   2.455  0.4709 -0.3185 -0.3885
  578SOL    HW1 1733   1.252   2.796   2.481  2.4760  0.9407  0.6249
  578SOL    HW2 1734   1.421   2.851   2.453  0.9762 -1.6089 -0.4208
  579SOL     OW 1735   0.088   2.517   0.126  0.0705  0.2651  0.2903
  579SOL    HW1 1736   0.026   2.536   0.211 -0.3272 -0.3284  1.1432
  579SOL    HW2 1737   0.190   2.504   0.154  0.3050  1.3747 -2.7028
  580SOL     OW 1738   1.022   2.654   0.415 -0.5295  0.7530 -0.1637
  580SOL    HW1 1739   1.108   2.666   0.352 -1.5682 -0.0817  2.1836
  580SOL    HW2 1740   0.947   2.606   0.369  1.8220 -0.8802 -2.0793
  581SOL     OW 1741   1.271   2.623   1.489  0.4226  0.5686 -0.1323
  581SOL    HW1 1742   1.326   2.537   1.514 -2.2111  0.7395  0.6216
  581SOL    HW2 1743   1.332   2.709   1.506  2.7675 -0.0747 -0.3951
  582SOL     OW 1744   1.501   0.092   1.861  0.1804 -0.0921 -0.0827
  582SOL    HW1 1745   1.507   0.165   1.937 -2.1502 -2.0094  2.2463
  582SOL    HW2 1746   1.591   0.072   1.815  1.9161  1.1219  0.8440
  583SOL     OW 1747   2.490   3.086   0.527 -0.2332  0.1924  0.5551
  583SOL    HW1 1748   2.578   3.060   0.475 -2.1701 -0.8939 -0.3970
  583SOL    HW2 1749   2.423   3.013   0.555 -1.5226 -0.2479  1.3510
  584SOL     OW 1750   1.579   0.895   2.093  0.0825  0.1678  0.0801
  584SOL    HW1 1751   1.606   0.994   2.080 -2.4309 -1.2505 -0.0855
  584SOL    HW2 1752   1.645   0.835   2.152  1.3310 -1.3110  1.1704
  585SOL     OW 1753   2.109   2.656   2.890 -0.0516  0.1634 -0.0196
  585SOL    HW1 1754   2.148   2.562   2.861  1.1462 -2.9907 -1.0972
  585SOL    HW2 1755   2.007   2.661   2.893  1.7617  0.4863  1.4508
  586SOL     OW 1756   2.832   0.388   1.532  0.5747  0.2111  0.0380
  586SOL    HW1 1757   2.844   0.468   1.602  1.8885  0.7550 -1.8787
  586SOL    HW2 1758   2.739   0.339   1.547 -1.2207 -2.4956 -0.2058
  587SOL     OW 1759   1.984   1.557   2.691  0.1170 -0.1095 -0.4128
  587SOL    HW1 1760   2.028   1.493   2.621  0.5691 -1.5242 -0.0674
  587SOL    HW2 1761   2.020   1.556   2.788  1.7409 -0.3648  0.0440
  588SOL     OW 1762   0.469   2.706   2.256 -0.5702 -0.1698  0.3307
  588SOL    HW1 1763   0.370   2.707   2.223  1.5918 -0.3232  0.2627
  588SOL    HW2 1764   0.487   2.620   2.314  0.3364 -0.0324  1.0431
  589SOL     OW 1765   2.144   1.410   2.519  0.2198 -0.5033  0.2173
  589SOL    HW1 1766   2.075   1.357   2.463 -0.8714 -0.9225 -0.7076
  589SOL    HW2 1767   2.245   1.390   2.498  0.2280  0.5994 -1.1630
  590SOL     OW 1768   2.339   1.673   2.035  0.3947 -0.0415 -0.1736
  590SOL    HW1 1769   2.396   1.587   2.024  0.5218 -0.3108 -1.7874
  590SOL    HW2 1770   2.373   1.735   2.109 -2.7329  1.8229 -0.3275
  591SOL     OW 1771   1.311   2.378   0.267 -0.6167  0.3678 -0.3612
  591SOL    HW1 1772   1.342   2.289   0.223 -1.5309 -0.2369  0.8479
  591SOL    HW2 1773   1.338   2.384   0.367  2.3229  1.6469  0.4241
  592SOL     OW 1774   1.807   2.286   0.726  0.0200  0.0028 -0.4304
  592SOL    HW1 1775   1.756   2.340   0.654  0.3434 -1.1468  0.9351
  592SOL    HW2 1776   1.911   2.284   0.706  0.9994 -1.8828 -2.4514
  593SOL     OW 1777   0.705   0.235   0.249 -0.2506 -0.5375  0.4828
  593SOL    HW1 1778   0.792   0.204   0.201 -2.2306  0.4588 -0.6480
  593SOL    HW2 1779   0.676   0.333   0.225 -0.2308  0.7862  0.9166
  594SOL     OW 1780   0.959   1.881   2.707  0.5165  0.2242  0.2641
  594SOL    HW1 1781   1.055   1.838   2.724  0.2158 -0.0365  1.4085
  594SOL    HW2 1782   0.956   1.981   2.734 -1.2326 -1.8557 -0.5586
  595SOL     OW 1783   1.555   0.069   1.076 -0.3823  0.1266  0.0297
  595SOL    HW1 1784   1.611  -0.015   1.062 -0.0538 -0.3792  3.6813
  595SOL    HW2 1785   1.460   0.064   1.029  1.2928  1.2423 -1.5087
  596SOL     OW 1786   0.001   1.431   2.246 -0.2780  0.1076  0.4955
  596SOL    HW1 1787   0.007   1.327   2.252 -0.2057  1.7580 -2.2911
  596SOL    HW2 1788   0.043   1.479   2.326 -1.2473  2.1563 -1.8201
  597SOL     OW 1789   1.998   2.547   1.643 -0.3581  0.2744  0.5455
  597SOL    HW1 1790   2.006   2.477   1.570  4.3415 -0.4622 -1.2156
  597SOL    HW2 1791   2.091   2.560   1.679 -0.3046  0.7539  2.6904
  598SOL     OW 1792   2.515   2.959   1.254 -0.1730  0.0768 -0.5405
  598SOL    HW1 1793   2.579   2.995   1.328  0.1822 -1.7489 -0.6968
  598SOL    HW2 1794   2.572   2.927   1.174  0.1023  0.0360 -2.1345
  599SOL     OW 1795   2.933   0.324   2.495 -0.4606 -0.0389 -0.2808
  599SOL    HW1 1796   3.024   0.376   2.485 -2.5449  2.1163  2.5971
  599SOL    HW2 1797   2.852   0.382   2.472  1.6779 -1.2196  1.7286
  600SOL     OW 1798   2.813   1.125   2.771 -0.1768 -0.4734 -0.1977
  600SOL    HW1 1799   2.785   1.028   2.762  3.7082  0.0224 -0.6775
  600SOL    HW2 1800   2.751   1.182   2.831  0.0435 -0.4794 -2.7586
  601SOL     OW 1801   2.980   1.299   1.973 -0.0802  0.2269  0.0278
  601SOL    HW1 1802   2.894   1.337   1.939  0.5600  1.2954 -0.1635
  601SOL    HW2 1803   3.052   1.374   1.961 -1.0492  0.9005  0.0011
  602SOL     OW 1804   1.456   1.746   2.368  0.5177 -0.3699 -0.4911
  602SOL    HW1 1805   1.392   1.662   2.374  1.4487 -0.5092  0.0826
  602SOL    HW2 1806   1.557   1.730   2.394  3.2597 -0.9852  2.5069
  603SOL     OW 1807   0.594   1.204   2.725 -0.2174  0.0399 -0.4813
  603SOL    HW1 1808   0.499   1.193   2.694  0.5456  0.6939  1.2620
  603SOL    HW2 1809   0.659   1.141   2.678  0.2575 -0.3152 -0.2186
  604SOL     OW 1810   2.391   1.015   0.154  0.1881  0.1129 -0.1356
  604SOL    HW1 1811   2.412   1.106   0.105 -1.7656  0.5365  1.1982
  604SOL    HW2 1812   2.408   0.935   0.096  1.6086  4.9310 -0.6660
  605SOL     OW 1813   2.535   1.138   1.947 -0.0004 -0.0987  0.2083
  605SOL    HW1 1814   2.568   1.104   1.849 -1.0526 -0.6024 -0.3567
  605SOL    HW2 1815   2.612   1.157   2.016  3.3478  0.3349  0.0005
  606SOL     OW 1816   1.492   2.527   2.566  0.2584 -0.1102 -0.7415
  606SOL    HW1 1817   1.439   2.592   2.510  2.0465 -3.4877 -0.8631
  606SOL    HW2 1818   1.442   2.439   2.592 -1.4820  0.5427 -3.0212
  607SOL     OW 1819   1.342   1.584   0.323 -0.2229 -0.3087 -0.3516
  607SOL    HW1 1820   1.254   1.625   0.354  0.5112  2.5551  1.9711
  607SOL    HW2 1821   1.418   1.654   0.326 -1.1282 -0.9924 -1.2919
  608SOL     OW 1822   1.425   2.874   0.334  0.4759 -0.8480  0.3604
  608SOL    HW1 1823   1.502   2.922   0.284 -2.1363  0.6714 -0.8929
  608SOL    HW2 1824   1.370   2.935   0.399 -0.5555 -2.9564  1.3249
  609SOL     OW 1825   1.286   1.352   0.189 -0.7688 -0.9181  0.4822
  609SOL    HW1 1826   1.283   1.427   0.254  0.8552  1.0154 -1.4317
  609SOL    HW2 1827   1.259   1.381   0.092  0.1134  1.4993 -2.9560
  610SOL     OW 1828   3.014   1.156   2.205 -0.1508  0.0445  0.3081
  610SOL    HW1 1829   3.009   1.055   2.188  0.0456 -0.3169 -0.6005
  610SOL    HW2 1830   2.983   1.210   2.123  0.7242  0.2195 -0.1829
  611SOL     OW 1831   2.538   0.296   1.122  0.0911  0.0062  0.1652
  611SOL    HW1 1832   2.469   0.218   1.123  1.2580  1.2021  0.6345
  611SOL    HW2 1833   2.605   0.292   1.201  0.1712 -0.4743  0.6800
  612SOL     OW 1834   0.751   2.278   1.168 -0.0912  0.2452 -0.0997
  612SOL    HW1 1835   0.669   2.221   1.205 -0.4694  0.5439  2.8246
  612SOL    HW2 1836   0.720   2.358   1.110  1.8962 -1.1348  1.0509
  613SOL     OW 1837   0.826   1.370   2.422  0.0257  0.0602  0.0507
  613SOL    HW1 1838   0.785   1.429   2.348  0.1032 -0.7147 -3.0690
  613SOL    HW2 1839   0.800   1.270   2.409 -0.5893 -0.8308  2.3429
  614SOL     OW 1840   1.547   1.620   1.991 -0.1438  0.5464  0.1031
  614SOL    HW1 1841   1.510   1.715   1.977 -0.2815 -0.2512  3.1515
  614SOL    HW2 1842   1.641   1.611   2.035 -1.0285 -1.3062  0.7100
  615SOL     OW 1843   0.770   1.356   1.733  0.3717  0.0293  0.4854
  615SOL    HW1 1844   0.691   1.326   1.672 -0.0565  1.8461  1.5435
  615SOL    HW2 1845   0.832   1.437   1.695 -0.3184  4.1438 -1.5023
  616SOL     OW 1846   1.004   1.633   2.166 -0.0071 -0.3890 -0.4123
  616SOL    HW1 1847   0.910   1.592   2.180  1.4273  1.3993 -0.9447
  616SOL    HW2 1848   1.015   1.732   2.192  1.1705 -1.9757 -2.2066
  617SOL     OW 1849   2.952   1.561   1.639  0.4609 -0.3144  0.0585
  617SOL    HW1 1850   2.915   1.491   1.710  0.3899 -0.2944 -1.4304
  617SOL    HW2 1851   2.954   1.519   1.548 -0.9537 -0.0174  0.9413
  618SOL     OW 1852   1.887   1.988   1.453  0.3930 -0.7508  0.1092
  618SOL    HW1 1853   1.899   1.979   1.351  0.1558 -0.8970  0.4627
  618SOL    HW2 1854   1.874   1.895   1.495 -0.8055  2.9979  1.3784
  619SOL     OW 1855   1.769   0.471   2.419  0.0987  0.8574  0.5310
  619SOL    HW1 1856   1.695   0.535   2.392 -0.7864 -1.5012  1.0502
  619SOL    HW2 1857   1.734   0.375   2.408 -1.8262  2.6921  0.4536
  620SOL     OW 1858   2.242   2.975   0.631 -0.5732  0.3280  0.3076
  620SOL    HW1 1859   2.159   3.033   0.663  0.9860 -3.0969 -0.1073
  620SOL    HW2 1860   2.261   2.897   0.697  1.5815 -1.0770  1.4785
  621SOL     OW 1861   2.171   1.829   1.309 -0.0438 -0.0551 -0.1021
  621SOL    HW1 1862   2.160   1.826   1.411  0.3891  1.4841 -1.8319
  621SOL    HW2 1863   2.105   1.772   1.252 -3.0778 -1.5736 -1.2431
  622SOL     OW 1864   2.245   0.930   1.815 -0.2473 -0.4898 -0.3138
  622SOL    HW1 1865   2.340   0.971   1.801  0.5044  0.7621  3.3380
  622SOL    HW2 1866   2.244   0.839   1.863  0.2031  1.8349  0.9291
  623SOL     OW 1867   1.331   0.843   2.645  0.0379 -0.0576  0.0226
  623SOL    HW1 1868   1.301   0.756   2.692 -0.2184  1.6262  3.2306
  623SOL    HW2 1869   1.278   0.859   2.556  0.6361 -0.7044 -1.1732
  624SOL     OW 1870   0.594   0.674   3.075  0.2022 -0.2337 -0.3093
  624SOL    HW1 1871   0.607   0.738   2.996 -0.7042  0.3995  1.0343
  624SOL    HW2 1872   0.565   0.724   3.165 -2.2207 -2.3167 -1.3146
  625SOL     OW 1873   2.828   1.696   0.957  0.2933  0.1445 -0.2648
  625SOL    HW1 1874   2.738   1.743   0.955  0.7359 -1.1427 -4.0416
  625SOL    HW2 1875   2.912   1.754   0.933  2.4008  1.0293  2.3117
  626SOL     OW 1876   0.596   2.747   1.797 -0.1259  0.0942  0.5512
  626SOL    HW1 1877   0.642   2.842   1.792 -1.9636 -0.5177  2.3871
  626SOL    HW2 1878   0.491   2.753   1.794  0.0604  0.6452  2.6463
  627SOL     OW 1879   0.753   1.015   1.524 -0.7994  0.3452  0.4302
  627SOL    HW1 1880   0.770   0.920   1.500 -0.3800  2.2479  2.5371
  627SOL    HW2 1881   0.822   1.072   1.470  1.7169 -2.6117  0.2506
  628SOL     OW 1882   2.380   0.159   0.714  0.2570 -0.0876  0.5320
  628SOL    HW1 1883   2.408   0.085   0.646 -0.5971 -0.4410 -0.4820
  628SOL    HW2 1884   2.290   0.146   0.775 -1.3749 -0.5858 -3.7986
  629SOL     OW 1885   1.966   0.888   1.973  0.1591 -0.0449 -0.2132
  629SOL    HW1 1886   2.008   0.914   1.882  1.2777  0.9522  0.9779
  629SOL    HW2 1887   1.923   0.971   2.024  2.8769  0.1150 -1.3933
  630SOL     OW 1888   2.916   2.250   0.844 -0.5243 -0.3527  0.0069
  630SOL    HW1 1889   2.829   2.307   0.852  1.1327  0.1058 -0.7033
  630SOL    HW2 1890   2.888   2.153   0.819  1.4552  0.5571  0.1270
  631SOL     OW 1891   2.964   0.146   2.120 -0.6092  0.0357  0.2704
  631SOL    HW1 1892   3.016   0.175   2.202  0.7376 -2.0978  0.0423
  631SOL    HW2 1893   3.028   0.120   2.036  0.0888 -1.7365 -1.6441
  632SOL     OW 1894   2.385   2.522   0.651  0.8667 -0.5216 -0.0551
  632SOL    HW1 1895   2.398   2.605   0.711 -3.1590  0.2355  0.4237
  632SOL    HW2 1896   2.352   2.538   0.557  1.8637 -0.2253 -2.8336
  633SOL     OW 1897   1.420   1.213   2.557 -0.1127 -0.1621 -0.5269
  633SOL    HW1 1898   1.433   1.312   2.594 -1.9451  2.5220 -1.4617
  633SOL    HW2 1899   1.334   1.198   2.506 -0.4392  1.5320  0.4002
  634SOL     OW 1900   0.720   1.967   0.876  0.1107 -0.4770  0.4221
  634SOL    HW1 1901   0.624   1.985   0.914 -0.3666 -1.3253 -0.7068
  634SOL    HW2 1902   0.790   2.038   0.911 -1.4662 -0.1539  1.7292
  635SOL     OW 1903   3.023   2.329   0.002  0.2829 -0.2999  0.1862
  635SOL    HW1 1904   2.960   2.377  -0.069 -0.1024  0.0508 -1.4651
  635SOL    HW2 1905   3.089   2.396   0.046  2.0632  1.0629 -2.5291
  636SOL     OW 1906   2.268   2.720   2.082 -0.5055  0.1272  0.0854
  636SOL    HW1 1907   2.259   2.824   2.096  0.9221 -0.8393 -1.8592
  636SOL    HW2 1908   2.228   2.666   2.160 -3.5001 -2.0383  1.0311
  637SOL     OW 1909   2.638   0.690   2.054 -0.1325  0.3373  0.3688
  637SOL    HW1 1910   2.569   0.682   1.978  1.2711 -0.8132  1.5611
  637SOL    HW2 1911   2.681   0.788   2.053  2.1854  2.0609  0.4331
  638SOL     OW 1912   2.432   1.780   1.255  0.0591  0.2104  0.1995
  638SOL    HW1 1913   2.331   1.799   1.275  0.5997 -0.6783 -1.6346
  638SOL    HW2 1914   2.478   1.728   1.335 -0.6687 -1.1375  1.7780
  639SOL     OW 1915   1.287   2.173   1.724  0.3285 -0.0814 -0.3957
  639SOL    HW1 1916   1.320   2.091   1.673 -0.7375  1.3727  0.3102
  639SOL    HW2 1917   1.194   2.156   1.766  0.3569  1.3006  1.3867
  640SOL     OW 1918   0.191   1.162   1.584  0.3292 -0.0066  0.4650
  640SOL    HW1 1919   0.175   1.191   1.683  0.1082  1.3758 -1.0028
  640SOL    HW2 1920   0.277   1.107   1.585  1.2853  0.3137  0.3367
  641SOL     OW 1921   2.043   0.179   1.542 -0.2980 -0.0287  0.4996
  641SOL    HW1 1922   2.025   0.184   1.643  2.4789 -3.0998  0.0085
  641SOL    HW2 1923   2.138   0.137   1.520 -0.1569 -0.7142  0.3577
  642SOL     OW 1924   1.990   0.075   0.313 -0.3224  0.5942 -0.3395
  642SOL    HW1 1925   2.096   0.073   0.329 -1.0968  1.9920  0.3783
  642SOL    HW2 1926   1.943   0.075   0.405 -0.1033 -0.4417 -1.5298
  643SOL     OW 1927   2.942   1.847   2.068 -0.7194 -0.1937 -0.1614
  643SOL    HW1 1928   2.857   1.797   2.034  1.5434  0.0745 -0.3191
  643SOL    HW2 1929   2.966   1.930   2.012 -1.6777  2.4230  3.2035
  644SOL     OW 1930   2.244   2.378   1.203  0.4466  0.7243  0.3651
  644SOL    HW1 1931   2.316   2.327   1.137  0.6713 -3.0291  0.3527
  644SOL    HW2 1932   2.252   2.354   1.305  2.0296  1.1207 -0.8287
  645SOL     OW 1933   0.628   0.806   1.264  0.1515  0.4312 -0.6179
  645SOL    HW1 1934   0.559   0.838   1.333 -0.1987  0.0674  2.6366
  645SOL    HW2 1935   0.617   0.841   1.166  2.1955  1.4940 -0.4494
  646SOL     OW 1936   1.454   1.889   2.023 -0.1660  0.2767 -1.0183
  646SOL    HW1 1937   1.490   1.967   1.967  2.3457  1.3092  1.3552
  646SOL    HW2 1938   1.397   1.917   2.105 -0.7141  0.4136 -0.3007
  647SOL     OW 1939   0.813   1.084   0.681  0.2128  0.3533 -1.0264
  647SOL    HW1 1940   0.870   1.096   0.770  2.1692 -0.4092  2.9138
  647SOL    HW2 1941   0.746   1.003   0.687 -0.0787 -0.2890  1.5592
  648SOL     OW 1942   0.093   0.209   0.203  0.6102 -0.3688  0.2420
  648SOL    HW1 1943   0.151   0.179   0.116 -0.3308  0.3960 -2.0412
  648SOL    HW2 1944   0.075   0.311   0.206 -0.4542  0.8762 -1.5178
  649SOL     OW 1945   3.023   0.254   0.888 -0.1394 -0.1551  0.1327
  649SOL    HW1 1946   3.121   0.233   0.868  0.6434  2.8210  1.4286
  649SOL    HW2 1947   3.014   0.295   0.981  0.8122  2.0408  0.2028
  650SOL     OW 1948   2.773   0.703   1.458 -0.3467 -0.4270 -0.0563
  650SOL    HW1 1949   2.675   0.672   1.467 -0.7831  1.8511 -2.9866
  650SOL    HW2 1950   2.783   0.784   1.395  0.4777 -2.4782 -1.4482
  651SOL     OW 1951   0.911   1.553   1.608 -0.0005  0.6558  0.3428
  651SOL    HW1 1952   0.975   1.612   1.664 -0.9114  0.4797  0.0718
  651SOL    HW2 1953   0.959   1.531   1.516  4.3316  0.3192 -2.2740
  652SOL     OW 1954   2.324   2.413   2.501  0.4009 -0.1019  0.1175
  652SOL    HW1 1955   2.219   2.414   2.503  3.2587 -0.3563  0.7399
  652SOL    HW2 1956   2.358   2.507   2.472 -1.6116  0.0740 -0.2919
  653SOL     OW 1957   2.719   1.236   0.191  0.4801  0.1489 -0.0610
  653SOL    HW1 1958   2.744   1.301   0.266 -1.1547 -0.3627  3.1580
  653SOL    HW2 1959   2.756   1.141   0.212  1.0557  0.1710 -0.5249
  654SOL     OW 1960   1.227   2.236   1.259  0.4523 -0.2501  0.2065
  654SOL    HW1 1961   1.234   2.153   1.325  0.4559  1.2013 -0.9645
  654SOL    HW2 1962   1.292   2.226   1.176  0.5185 -0.5881 -0.3203
  655SOL     OW 1963   0.155   0.949   1.955  0.3493 -0.3267 -0.7844
  655SOL    HW1 1964   0.180   0.911   1.860 -1.2574 -0.1888 -1.0907
  655SOL    HW2 1965   0.201   1.039   1.983  2.4393 -1.0665  2.5171
  656SOL     OW 1966   2.573   2.444   2.638  0.0959  0.7627 -0.6226
  656SOL    HW1 1967   2.644   2.489   2.579 -1.5932 -0.5249  2.5408
  656SOL    HW2 1968   2.495   2.391   2.591 -0.5097 -1.5217  0.1645
  657SOL     OW 1969   2.998   1.019   1.907 -0.4664  0.8381  0.4888
  657SOL    HW1 1970   2.996   1.117   1.937  1.8360 -1.4530  1.5261
  657SOL    HW2 1971   3.097   0.984   1.931  0.9724 -1.4824  1.0127
  658SOL     OW 1972   1.651   0.200   2.383  0.6999  0.3326 -0.2477
  658SOL    HW1 1973   1.709   0.139   2.450 -1.0750  0.2938  1.3158
  658SOL    HW2 1974   1.685   0.190   2.282 -0.9594 -1.2945 -1.6848
  659SOL     OW 1975   1.426   0.610   2.863  0.0933  0.4106  0.3849
  659SOL    HW1 1976   1.466   0.705   2.869  1.0429 -1.9307  0.2943
  659SOL    HW2 1977   1.319   0.604   2.881 -1.9018 -1.4457  1.3899
  660SOL     OW 1978   1.395   0.337   1.418  0.6939 -0.0577 -0.0476
  660SOL    HW1 1979   1.417   0.366   1.519  0.1040 -0.3911  2.0969
  660SOL    HW2 1980   1.463   0.267   1.389  1.6240  2.5973  3.4560
  661SOL     OW 1981   2.475   1.191   0.652 -0.1995 -0.0473  0.3883
  661SOL    HW1 1982   2.473   1.190   0.547 -1.7389 -0.4154 -2.7970
  661SOL    HW2 1983   2.443   1.281   0.691 -0.1075 -2.0012  1.2796
  662SOL     OW 1984   1.417   0.424   1.755 -0.0185  0.3778  0.6256
  662SOL    HW1 1985   1.333   0.362   1.748  1.7438 -0.3799 -1.3596
  662SOL    HW2 1986   1.426   0.469   1.847 -2.2219  2.5384 -0.8493
  663SOL     OW 1987   0.744   1.537   2.223 -0.7470 -0.2902 -0.5190
  663SOL    HW1 1988   0.690   1.624   2.247 -3.3403  2.5237  2.8292
  663SOL    HW2 1989   0.714   1.504   2.132  1.4910 -2.2480 -0.7900
  664SOL     OW 1990   1.639   2.083   1.446 -0.3630  0.1153  0.1287
  664SOL    HW1 1991   1.584   2.000   1.479  0.2422  0.6002  2.3120
  664SOL    HW2 1992   1.743   2.065   1.453  2.2020 -0.3443 -0.2817
  665SOL     OW 1993   2.272   0.667   1.918  0.1735 -0.4083 -0.1374
  665SOL    HW1 1994   2.197   0.592   1.920 -0.4098  3.3844  0.1517
  665SOL    HW2 1995   2.303   0.682   2.016 -1.9600  1.4297 -0.7346
  666SOL     OW 1996   0.408   2.309   0.353 -0.7412  0.1928 -0.2313
  666SOL    HW1 1997   0.456   2.366   0.429 -1.8759  1.2856 -1.5176
  666SOL    HW2 1998   0.309   2.286   0.374 -0.2653  0.0600 -1.9244
  667SOL     OW 1999   2.001   0.207   1.193 -0.9117  0.1676  0.2532
  667SOL    HW1 2000   1.993   0.304   1.152 -1.1804 -2.0057 -2.2843
  667SOL    HW2 2001   1.916   0.185   1.252 -1.0419 -1.9425 -0.8447
  668SOL     OW 2002   2.056   0.473   1.123 -0.4858  0.3806  0.0545
  668SOL    HW1 2003   2.131   0.500   1.062 -2.7293 -1.3079  2.0357
  668SOL    HW2 2004   2.088   0.450   1.219 -0.2414 -2.1561 -1.7830
  669SOL     OW 2005   0.013   2.168   1.014  0.1432  0.1438 -0.6314
  669SOL    HW1 2006  -0.059   2.204   0.950 -1.2651 -0.5214 -2.5426
  669SOL    HW2 2007   0.017   2.222   1.102  0.4198  2.4426  2.9308
  670SOL     OW 2008   2.861   2.350   1.957 -0.2248  0.2616 -0.4192
  670SOL    HW1 2009   2.815   2.318   2.045 -1.3996 -1.9714  1.9226
  670SOL    HW2 2010   2.834   2.446   1.936 -0.3579 -0.9377 -0.2220
  671SOL     OW 2011   1.747   1.713   1.479  0.2438  0.1250 -0.0149
  671SOL    HW1 2012   1.746   1.756   1.379  1.0326  2.6681 -2.1655
  671SOL    HW2 2013   1.690   1.627   1.482 -0.2117  0.7598 -1.7693
  672SOL     OW 2014   0.414   0.618   2.392 -0.1364 -0.3050  0.3748
  672SOL    HW1 2015   0.446   0.669   2.309 -1.9629 -1.3816 -2.3552
  672SOL    HW2 2016   0.327   0.661   2.433  0.3245 -0.7722  0.3111
  673SOL     OW 2017   0.132   1.168   1.153 -0.2446 -0.7142 -0.0926
  673SOL    HW1 2018   0.159   1.232   1.233  1.5567 -1.3436  0.0873
  673SOL    HW2 2019   0.216   1.142   1.103 -0.0959  0.3176 -0.5644
  674SOL     OW 2020   1.667   2.952   0.223 -0.2607  0.7273 -0.2508
  674SOL    HW1 2021   1.690   3.045   0.190 -3.4807  1.0625 -1.0618
  674SOL    HW2 2022   1.750   2.892   0.245 -1.0319 -0.9343 -0.1273
  675SOL     OW 2023   1.738   0.821   2.350 -0.1762  0.0795  0.3536
  675SOL    HW1 2024   1.839   0.814   2.313  0.1317  1.4784 -2.1008
  675SOL    HW2 2025   1.673   0.742   2.336 -1.2922  0.2009  0.6569
  676SOL     OW 2026   2.514   1.458   1.976  0.0166 -0.1661  0.6331
  676SOL    HW1 2027   2.472   1.426   1.888 -0.8588 -0.7159 -1.5870
  676SOL    HW2 2028   2.576   1.380   2.013 -1.5017 -0.7412  0.6790
  677SOL     OW 2029   1.904   0.653   0.875  1.0162  0.1515 -0.4865
  677SOL    HW1 2030   1.902   0.670   0.973  0.8744 -0.1482 -2.5265
  677SOL    HW2 2031   1.922   0.554   0.856 -0.9973 -0.7628 -0.9669
  678SOL     OW 2032   0.022   0.767   1.682 -0.6400  0.1793  0.0363
  678SOL    HW1 2033   0.121   0.758   1.710  1.7650 -0.2619 -2.1484
  678SOL    HW2 2034  -0.044   0.760   1.762  1.0619 -0.9809 -0.8162
  679SOL     OW 2035   2.576   1.200   1.094  0.2282 -0.4654 -0.4041
  679SOL    HW1 2036   2.471   1.213   1.120 -1.3259  1.2842  0.4748
  679SOL    HW2 2037   2.596   1.098   1.093 -0.3693 -0.3679  0.4794
  680SOL     OW 2038   2.819   0.605   1.713 -0.8510  0.0059 -0.0353
  680SOL    HW1 2039   2.802   0.652   1.623 -0.7505  1.3078  2.3377
  680SOL    HW2 2040   2.845   0.674   1.790 -0.2003  1.3982 -0.2960
  681SOL     OW 2041   3.007   0.187   1.649  0.0019  0.2245  0.0809
  681SOL    HW1 2042   3.072   0.176   1.568 -5.5711  3.5718  1.7632
  681SOL    HW2 2043   2.942   0.263   1.634  2.4242  0.9060  1.5542
  682SOL     OW 2044   0.821   3.081   1.312 -0.5120 -0.5279  0.3220
  682SOL    HW1 2045   0.725   3.054   1.355  1.7402  1.7183  2.5841
  682SOL    HW2 2046   0.830   3.062   1.208 -1.2383  1.2236  0.1830
  683SOL     OW 2047   1.346   0.220   2.206  0.4029 -0.2376  0.2967
  683SOL    HW1 2048   1.316   0.290   2.279 -4.0820 -0.6135  0.0284
  683SOL    HW2 2049   1.431   0.255   2.158 -1.2758 -1.4244  1.8179
  684SOL     OW 2050   1.462   2.109   0.514  0.1750  0.3167  0.4210
  684SOL    HW1 2051   1.529   2.048   0.566 -0.6718  0.9501  1.9004
  684SOL    HW2 2052   1.379   2.054   0.476 -1.1042  0.7386  1.2067
  685SOL     OW 2053   2.112   2.017   1.958  0.0325 -0.4135 -0.3123
  685SOL    HW1 2054   2.191   2.025   1.889  0.7368 -2.1600 -0.1831
  685SOL    HW2 2055   2.152   2.004   2.054 -0.0783 -2.3403  3.8320
  686SOL     OW 2056   1.511   1.797   2.710 -0.3073 -0.3152  0.1840
  686SOL    HW1 2057   1.553   1.735   2.783 -0.6411  1.6898  1.1663
  686SOL    HW2 2058   1.572   1.802   2.626 -0.7790 -0.5843 -0.2507
  687SOL     OW 2059   1.284   2.479   1.983 -0.1271 -0.1076  0.5396
  687SOL    HW1 2060   1.291   2.374   1.981  2.7947  2.0915  3.4121
  687SOL    HW2 2061   1.332   2.515   2.064  0.5985 -0.0061 -2.5517
  688SOL     OW 2062   2.074   1.513   1.734 -0.3060  0.5350 -0.4013
  688SOL    HW1 2063   2.156   1.578   1.744  0.7072  0.1495  0.4768
  688SOL    HW2 2064   2.049   1.486   1.639 -1.1687 -1.5749  0.8444
  689SOL     OW 2065   2.427   1.070   2.708  0.6685 -0.1152 -0.3224
  689SOL    HW1 2066   2.327   1.032   2.728 -0.2421 -2.0078  0.8203
  689SOL    HW2 2067   2.485   1.058   2.795  1.2702  0.2127  0.8306
  690SOL     OW 2068   2.233   2.814   0.016  0.4206 -0.2821 -0.2641
  690SOL    HW1 2069   2.194   2.747  -0.050  2.9694 -0.7308  0.4027
  690SOL    HW2 2070   2.191   2.823   0.111 -0.2713  2.5835  0.6762
  691SOL     OW 2071   2.594   0.471   2.202 -0.1931  0.1890  0.1968
  691SOL    HW1 2072   2.618   0.387   2.143 -0.6121  1.6795 -1.1915
  691SOL    HW2 2073   2.591   0.566   2.146 -1.1075  4.2865 -0.1428
  692SOL     OW 2074   2.730   1.232   0.739  0.6661 -0.1610 -0.5611
  692SOL    HW1 2075   2.628   1.220   0.712  1.1137  1.2371  1.5504
  692SOL    HW2 2076   2.747   1.300   0.815  2.3514  0.9854 -0.2959
  693SOL     OW 2077   2.846   2.930   0.621 -1.2157 -0.1570 -0.3575
  693SOL    HW1 2078   2.848   3.014   0.688  1.5381  0.5090 -2.1791
  693SOL    HW2 2079   2.809   2.945   0.526  0.0117  0.1814  1.2914
  694SOL     OW 2080   2.354   2.184   0.079 -0.3917  0.2956  0.1411
  694SOL    HW1 2081   2.350   2.285   0.109 -0.6738  2.2281 -1.9890
  694SOL    HW2 2082   2.260   2.141   0.055  1.0593 -1.7570 -3.2440
  695SOL     OW 2083   0.579   2.980   1.436  0.1026 -0.4912  0.4313
  695SOL    HW1 2084   0.498   2.928   1.392 -1.6124 -0.0886  1.1832
  695SOL    HW2 2085   0.556   3.012   1.536  0.8058 -1.0825  0.5656
  696SOL     OW 2086   2.784   1.946   0.749  0.5215 -0.0756  0.8510
  696SOL    HW1 2087   2.862   1.881   0.759  0.8657  1.2472 -1.6393
  696SOL    HW2 2088   2.710   1.906   0.687 -0.7121 -0.6184  1.5423
  697SOL     OW 2089   1.612   2.026   1.825  0.4708 -0.1157 -0.0077
  697SOL    HW1 2090   1.700   1.996   1.870 -1.0679  3.2220  0.8856
  697SOL    HW2 2091   1.613   2.123   1.798 -0.7383  1.8643  0.3332
  698SOL     OW 2092   2.941   0.439   2.766 -0.2134 -0.0388 -0.5446
  698SOL    HW1 2093   2.968   0.391   2.675  1.3223 -0.5433 -1.4251
  698SOL    HW2 2094   3.000   0.394   2.838  1.4468  1.9283  2.5675
  699SOL     OW 2095   1.578   0.075   2.917  0.1281  0.3121  0.3369
  699SOL    HW1 2096   1.547  -0.018   2.870  0.6075 -3.2667  1.7267
  699SOL    HW2 2097   1.619   0.149   2.852  0.0548 -2.3693  0.2631
  700SOL     OW 2098   0.970   2.304   1.320 -0.0674  0.0882  0.0807
  700SOL    HW1 2099   1.052   2.251   1.284  1.4135  1.0218 -1.1498
  700SOL    HW2 2100   0.888   2.297   1.254  1.9036 -1.7649 -0.7136
  701SOL     OW 2101   1.923   2.853   3.059  0.4072 -0.7373 -0.4475
  701SOL    HW1 2102   1.874   2.796   3.132  3.2241  0.0931  2.5189
  701SOL    HW2 2103   1.948   2.947   3.087 -1.0786 -0.4432  0.4912
  702SOL     OW 2104   2.073   1.339   2.006  0.1540  0.6672 -0.2957
  702SOL    HW1 2105   2.158   1.293   1.962  2.7415  1.0859 -0.3850
  702SOL    HW2 2106   2.032   1.398   1.936  1.0208 -1.9829 -0.0303
  703SOL     OW 2107   1.927   0.892   1.421  0.0389  0.2945  0.0224
  703SOL    HW1 2108   1.896   0.807   1.467  0.0317 -1.0329 -2.8074
  703SOL    HW2 2109   1.991   0.946   1.482  2.2815 -0.5008  0.6809
  704SOL     OW 2110   0.312   2.058   1.678  0.1180 -0.0831 -0.7922
  704SOL    HW1 2111   0.319   1.985   1.754  0.1130 -1.1647 -1.3351
  704SOL    HW2 2112   0.398   2.113   1.683  0.5956  0.6402  1.6729
  705SOL     OW 2113   2.506   1.487   0.969 -0.5021 -0.5752 -0.0988
  705SOL    HW1 2114   2.468   1.438   0.886  0.2208  0.2314 -2.6777
  705SOL    HW2 2115   2.602   1.454   0.991 -2.3878 -1.9365  2.2183
  706SOL     OW 2116   0.640   1.641   1.824  0.2418  0.7375  0.0267
  706SOL    HW1 2117   0.652   1.541   1.855  0.5757 -0.3014 -0.7339
  706SOL    HW2 2118   0.681   1.711   1.892  0.4256  1.1325 -2.0605
  707SOL     OW 2119   2.274   1.212   1.883  0.4214  0.0486  0.1831
  707SOL    HW1 2120   2.375   1.213   1.913  0.2944 -1.9607 -0.5683
  707SOL    HW2 2121   2.241   1.119   1.870 -1.3773 -0.0167  0.2795
  708SOL     OW 2122   3.062   0.543   3.065 -0.6219  0.3668  0.6821
  708SOL    HW1 2123   3.052   0.606   2.979 -1.0952 -2.3936 -0.7104
  708SOL    HW2 2124   3.086   0.451   3.028  0.1235  2.8518 -2.4856
  709SOL     OW 2125   1.821   1.849   0.226  0.0225  0.0574 -0.6113
  709SOL    HW1 2126   1.846   1.946   0.255 -2.9357  2.1355  0.1395
  709SOL    HW2 2127   1.842   1.838   0.127  0.3133  0.3226 -0.5903
  710SOL     OW 2128   1.760   1.660   2.444 -0.3471 -0.3298  0.1068
  710SOL    HW1 2129   1.797   1.638   2.349 -0.1847 -1.4679 -0.2304
  710SOL    HW2 2130   1.737   1.573   2.489 -1.7394 -2.0661 -0.4786
  711SOL     OW 2131   2.649   2.977   0.976  0.8645  0.1298 -0.4670
  711SOL    HW1 2132   2.616   3.075   0.959  1.2918 -1.2251 -0.1059
  711SOL    HW2 2133   2.753   2.971   0.984  0.0143  1.6665 -3.6343
  712SOL     OW 2134   1.349   2.219   1.987 -0.5709 -0.0574  0.2217
  712SOL    HW1 2135   1.444   2.242   2.015  0.7743 -2.5128 -2.0803
  712SOL    HW2 2136   1.335   2.204   1.886 -3.0046 -0.4260  0.1715
  713SOL     OW 2137   2.919   1.458   2.534  0.8186 -0.2280 -0.0318
  713SOL    HW1 2138   2.861   1.377   2.506  0.2131  0.6710  3.6908
  713SOL    HW2 2139   2.920   1.462   2.638 -0.5820  1.8608 -0.7693
  714SOL     OW 2140   2.727   0.500   2.476 -0.1491 -0.3072  0.3971
  714SOL    HW1 2141   2.663   0.450   2.537  0.0116  0.0152  0.0762
  714SOL    HW2 2142   2.690   0.511   2.381 -0.3967  1.5471 -0.2896
  715SOL     OW 2143   1.591   2.012   1.123  0.5260 -0.1029  0.2831
  715SOL    HW1 2144   1.503   2.037   1.078  0.5662 -0.0083  3.2675
  715SOL    HW2 2145   1.620   2.077   1.202  1.3685 -1.2981  4.3482
  716SOL     OW 2146   1.209   0.146   1.463 -0.6256 -0.4745 -0.0544
  716SOL    HW1 2147   1.109   0.152   1.450  0.0384 -3.2404 -0.3051
  716SOL    HW2 2148   1.262   0.232   1.445 -0.8346 -2.6392  2.2445
  717SOL     OW 2149   1.148   0.506   1.588 -0.1948  0.4381  0.5959
  717SOL    HW1 2150   1.214   0.581   1.613  2.0665  0.3608  2.5533
  717SOL    HW2 2151   1.144   0.486   1.486 -3.2065 -1.7963  0.6286
  718SOL     OW 2152   0.683   0.952   0.973 -0.3876  0.1310 -0.0413
  718SOL    HW1 2153   0.654   0.919   0.879 -0.9561  0.0887  1.6206
  718SOL    HW2 2154   0.642   1.040   1.004  0.5894 -1.8492 -2.7404
  719SOL     OW 2155   0.627   1.781   2.274 -0.0578 -0.4600  0.9276
  719SOL    HW1 2156   0.698   1.837   2.327  2.4095 -0.3731 -1.1325
  719SOL    HW2 2157   0.548   1.760   2.332  0.5165 -0.2764 -2.8335
  720SOL     OW 2158   2.190   1.156   0.292 -0.0884 -0.0843 -0.4786
  720SOL    HW1 2159   2.216   1.089   0.224 -0.9842 -0.6568  0.9525
  720SOL    HW2 2160   2.172   1.116   0.383  1.3667  1.3956 -0.4453
  721SOL     OW 2161   2.253   2.999   2.128 -0.1859 -0.4871  0.0273
  721SOL    HW1 2162   2.248   3.036   2.028 -1.2595  1.4259 -0.3310
  721SOL    HW2 2163   2.197   3.055   2.197  2.2431  2.3725  0.1416
  722SOL     OW 2164   2.395   1.575   0.476  0.4275  0.0834 -0.5944
  722SOL    HW1 2165   2.405   1.536   0.378  0.8721 -1.1455 -0.7163
  722SOL    HW2 2166   2.407   1.676   0.487 -0.6542  0.9320  1.0352
  723SOL     OW 2167   2.541   2.716   1.964 -0.6602 -0.4510 -0.3766
  723SOL    HW1 2168   2.587   2.782   2.033  0.0412 -1.1354 -0.3941
  723SOL    HW2 2169   2.438   2.712   1.978 -2.0907  1.1849  2.1052
  724SOL     OW 2170   0.530   2.479   2.421  0.0527 -0.3450 -0.4347
  724SOL    HW1 2171   0.432   2.465   2.456 -2.2503  0.6333 -3.0743
  724SOL    HW2 2172   0.603   2.489   2.498  0.5823  1.1981  2.9201
  725SOL     OW 2173   2.482   2.824   1.514  0.1708 -0.6338  0.0167
  725SOL    HW1 2174   2.500   2.849   1.417 -1.1437 -1.0571  2.7007
  725SOL    HW2 2175   2.480   2.719   1.523  1.7591 -2.0502 -2.5186
  726SOL     OW 2176   2.509   2.266   0.704 -0.6597 -0.3454 -0.6313
  726SOL    HW1 2177   2.454   2.355   0.688  0.9312 -0.4729  0.0693
  726SOL    HW2 2178   2.485   2.199   0.636  0.3376 -0.3889  0.8792
  727SOL     OW 2179   0.157   3.078   0.042  0.1109 -0.6208 -0.1955
  727SOL    HW1 2180   0.196   2.990   0.075 -0.1979  1.0212  0.0449
  727SOL    HW2 2181   0.169   3.080  -0.062  1.2353  0.6879 -0.5440
  728SOL     OW 2182   2.870   0.648   0.972 -0.1966  0.1304 -0.5877
  728SOL    HW1 2183   2.782   0.653   0.918 -1.1569  0.8928  3.4640
  728SOL    HW2 2184   2.857   0.607   1.071 -1.2775  0.4516  1.4049
  729SOL     OW 2185   3.022   2.465   0.759 -1.1797  0.5671 -0.4984
  729SOL    HW1 2186   2.995   2.389   0.820  2.4981  2.1609  0.0773
  729SOL    HW2 2187   3.126   2.452   0.732  0.6846 -2.9543  1.9307
  730SOL     OW 2188   2.626   0.693   0.846  0.2583 -1.1785  0.0970
  730SOL    HW1 2189   2.607   0.792   0.827  0.1632  0.6329 -2.4608
  730SOL    HW2 2190   2.676   0.653   0.763  0.0644 -0.9094 -1.7678
  731SOL     OW 2191   0.112   2.100   2.509  0.2642  0.1356 -0.2721
  731SOL    HW1 2192   0.049   2.100   2.589 -0.6122  1.1045 -2.5634
  731SOL    HW2 2193   0.139   2.193   2.473  0.5940  1.8268  0.9920
  732SOL     OW 2194   1.141   2.816   1.936 -0.4576  0.1311 -0.2343
  732SOL    HW1 2195   1.178   2.768   2.024 -0.0174  0.8611 -0.3829
  732SOL    HW2 2196   1.146   2.750   1.853 -0.3325 -0.8207 -0.1832
  733SOL     OW 2197   3.059   0.579   2.243 -0.3385  0.1933 -0.5431
  733SOL    HW1 2198   3.134   0.614   2.171 -3.4256  1.2113 -3.2237
  733SOL    HW2 2199   2.995   0.507   2.202 -0.0790 -4.1081  0.7659
  734SOL     OW 2200   1.413   0.373   2.738 -0.5567  0.1915  0.8555
  734SOL    HW1 2201   1.425   0.462   2.792 -0.8947  0.5398  2.8132
  734SOL    HW2 2202   1.324   0.323   2.764 -0.0788  0.1150  1.4673
  735SOL     OW 2203   2.895   2.642   2.283 -0.2711 -0.3641 -0.1342
  735SOL    HW1 2204   2.856   2.602   2.197 -0.1914 -1.5906  0.2821
  735SOL    HW2 2205   2.989   2.692   2.266  1.1800 -0.5215  2.2388
  736SOL     OW 2206   0.800   0.306   2.627 -0.2558  0.0023  0.4339
  736SOL    HW1 2207   0.703   0.285   2.646  2.1515  1.7645  0.7435
  736SOL    HW2 2208   0.816   0.326   2.532  0.8856 -1.9832  0.9750
  737SOL     OW 2209   2.675   0.505   2.879 -0.5578  0.0833  0.1826
  737SOL    HW1 2210   2.649   0.451   2.965  1.1766 -1.3878  0.6086
  737SOL    HW2 2211   2.761   0.477   2.828 -1.1575  1.0267 -1.9984
  738SOL     OW 2212   1.643   1.261   2.899 -0.1996  0.2627  0.5043
  738SOL    HW1 2213   1.742   1.245   2.878 -1.3046  1.0718 -2.2087
  738SOL    HW2 2214   1.583   1.181   2.869 -0.2844  3.6179 -0.5942
  739SOL     OW 2215   1.720   0.647   0.658 -0.3293 -0.7173  0.2434
  739SOL    HW1 2216   1.765   0.674   0.751  1.5841  1.3343  1.3675
  739SOL    HW2 2217   1.789   0.586   0.606  0.0598  0.4548  0.5909
  740SOL     OW 2218   1.977   1.906   2.245 -0.5705 -0.3928 -0.4605
  740SOL    HW1 2219   2.016   1.851   2.321  0.6694 -0.8422 -5.3087
  740SOL    HW2 2220   1.874   1.879   2.235 -0.5183 -1.1918  0.5239
  741SOL     OW 2221   2.547   0.046   2.590 -0.5784  0.1913  0.3301
  741SOL    HW1 2222   2.651   0.045   2.578  0.0024 -1.5378  1.3038
  741SOL    HW2 2223   2.503   0.072   2.502 -0.3261  2.0068  2.9842
  742SOL     OW 2224   2.232   1.443   0.222  0.5085 -0.0774  0.0554
  742SOL    HW1 2225   2.183   1.524   0.264 -3.4205  1.8836 -1.4333
  742SOL    HW2 2226   2.191   1.348   0.237  1.3078 -2.9174  0.1318
  743SOL     OW 2227   1.858   0.666   2.611 -0.0286 -0.1913 -0.6988
  743SOL    HW1 2228   1.809   0.607   2.536 -0.1080  1.5024 -1.8019
  743SOL    HW2 2229   1.789   0.733   2.642 -0.0121 -2.2488 -0.5408
  744SOL     OW 2230   2.615   2.123   0.151 -0.2585 -0.0111 -0.3537
  744SOL    HW1 2231   2.515   2.131   0.146  1.0989 -0.1217 -3.6597
  744SOL    HW2 2232   2.638   2.035   0.202  3.5929 -3.4787 -0.4344
  745SOL     OW 2233   2.162   2.616   2.300  0.3207  0.0993  0.6339
  745SOL    HW1 2234   2.068   2.582   2.322  1.1381 -1.7313 -1.5078
  745SOL    HW2 2235   2.196   2.669   2.384 -3.2271 -1.0677  1.7267
  746SOL     OW 2236   0.001   2.620   1.723  0.1378  0.1901 -0.4413
  746SOL    HW1 2237   0.078   2.611   1.656 -0.3449 -1.5478 -0.1443
  746SOL    HW2 2238  -0.003   2.715   1.760  0.4830 -1.4452 -1.5366
  747SOL     OW 2239   0.058   1.760   1.671  0.0478  0.2935 -0.4274
  747SOL    HW1 2240  -0.018   1.687   1.662  0.3786 -0.2075  2.5302
  747SOL    HW2 2241   0.112   1.771   1.590 -2.0788 -0.5903  2.2311
  748SOL     OW 2242   1.824   2.746   2.829 -0.1597 -0.2689  0.0906
  748SOL    HW1 2243   1.858   2.815   2.901 -4.5802  2.8000  0.4551
  748SOL    HW2 2244   1.724   2.739   2.809 -1.0607  1.2946 -0.0605
  749SOL     OW 2245   1.349   3.051   0.967  0.0518 -0.0763 -0.1066
  749SOL    HW1 2246   1.264   2.992   0.981 -2.4149 -1.0821  0.1060
  749SOL    HW2 2247   1.408   3.022   0.892 -1.2687  0.3429  2.2612
  750SOL     OW 2248   2.297   0.178   1.899  0.3135  0.2366 -0.2638
  750SOL    HW1 2249   2.313   0.237   1.812 -0.7087 -1.0159 -1.8937
  750SOL    HW2 2250   2.316   0.235   1.985 -0.8305 -0.7428 -2.4797
  751SOL     OW 2251   0.902   2.165   2.798  0.3620 -0.2098 -0.3032
  751SOL    HW1 2252   0.965   2.177   2.882  0.5456  0.2202  1.3522
  751SOL    HW2 2253   0.807   2.134   2.828 -0.0744  2.3900 -2.5273
  752SOL     OW 2254   1.302   0.855   1.357 -0.7906  0.1123  0.6057
  752SOL    HW1 2255   1.358   0.936   1.316  2.0326 -0.8048  0.1894
  752SOL    HW2 2256   1.368   0.773   1.369  2.1762  2.2452  0.8734
  753SOL     OW 2257   0.928   2.586   1.672 -0.4262 -0.5840  0.3550
  753SOL    HW1 2258   1.027   2.599   1.672  0.0254 -2.9107  1.0204
  753SOL    HW2 2259   0.874   2.671   1.645  1.4506  0.2279 -1.8185
  754SOL     OW 2260   1.080   1.206   2.993  0.0227  0.1833  0.4725
  754SOL    HW1 2261   1.160   1.141   2.974 -0.2792 -3.2000  2.5536
  754SOL    HW2 2262   1.117   1.300   2.999  0.5181  0.8778  0.4378
  755SOL     OW 2263   1.983   0.470   2.238 -0.3323  0.0747 -0.0922
  755SOL    HW1 2264   2.056   0.398   2.253 -0.8444 -2.1448 -2.8755
  755SOL    HW2 2265   1.924   0.488   2.323 -0.1330  2.0107  1.7370
  756SOL     OW 2266   2.549   1.041   2.945  0.1489 -0.4725  0.1441
  756SOL    HW1 2267   2.647   1.020   2.981  0.1794 -0.1131 -1.0821
  756SOL    HW2 2268   2.473   0.993   2.997 -3.1142  0.6400 -0.0614
  757SOL     OW 2269   0.039   0.513   1.863 -0.4309 -0.4575 -0.7928
  757SOL    HW1 2270   0.092   0.431   1.829  1.5875 -2.0865 -1.8962
  757SOL    HW2 2271  -0.058   0.495   1.844  1.1296 -1.6408  0.3361
  758SOL     OW 2272   2.376   0.090   1.488  0.2835  0.1214 -0.1508
  758SOL    HW1 2273   2.340  -0.003   1.515  1.6482 -2.5471 -0.3973
  758SOL    HW2 2274   2.374   0.114   1.389  2.1767  0.9221 -2.9791
  759SOL     OW 2275   1.706   0.083   0.059 -0.3025 -0.8962 -0.0217
  759SOL    HW1 2276   1.656   0.088  -0.032  0.7525  1.6339  0.9584
  759SOL    HW2 2277   1.807   0.070   0.047  0.2095 -0.8464  1.9780
  760SOL     OW 2278   2.705   2.112   2.817  0.5391  0.1969 -0.3553
  760SOL    HW1 2279   2.730   2.024   2.866  1.4188 -1.5431 -0.9801
  760SOL    HW2 2280   2.681   2.189   2.885  1.5229 -0.6999  0.3836
  761SOL     OW 2281   1.891   1.755   1.700  0.1545  0.2337  0.3615
  761SOL    HW1 2282   1.956   1.682   1.739 -1.1950 -0.8192 -1.7264
  761SOL    HW2 2283   1.829   1.717   1.617 -2.3594 -0.8170  0.4124
  762SOL     OW 2284   0.480   2.368   0.981 -0.3794  0.4717  0.5647
  762SOL    HW1 2285   0.538   2.393   0.903 -0.2604 -2.1641  3.2126
  762SOL    HW2 2286   0.502   2.430   1.062  1.4144 -4.5152  1.9532
  763SOL     OW 2287   2.086   1.526   2.942 -0.6476 -1.3332 -0.2338
  763SOL    HW1 2288   2.173   1.483   2.982 -4.3294  1.1321  0.5464
  763SOL    HW2 2289   1.997   1.492   2.985  0.2675  2.3740 -1.3211
  764SOL     OW 2290   0.665   0.614   0.832 -0.0788 -0.4977  0.4478
  764SOL    HW1 2291   0.600   0.540   0.793 -2.1326 -0.0210 -0.3879
  764SOL    HW2 2292   0.752   0.572   0.865  0.3904  1.4376  1.3620
  765SOL     OW 2293   0.714   0.263   0.753 -0.1705  0.0049  0.2480
  765SOL    HW1 2294   0.793   0.289   0.692  0.4309  1.1620  0.3385
  765SOL    HW2 2295   0.691   0.330   0.819  2.9166  0.5444 -0.7760
  766SOL     OW 2296   2.865   2.095   0.021 -0.1172 -0.1579 -0.2124
  766SOL    HW1 2297   2.777   2.125   0.073 -0.4868  1.3269 -1.3707
  766SOL    HW2 2298   2.924   2.177  -0.007  1.9125  4.0131  2.5346
  767SOL     OW 2299   2.813   1.578   0.616 -0.0453 -0.4498 -0.4344
  767SOL    HW1 2300   2.734   1.594   0.679  2.3423  2.6744 -0.1076
  767SOL    HW2 2301   2.885   1.653   0.646  1.9662 -3.1560  1.4608
  768SOL     OW 2302   1.044   0.132   0.261  0.1286  1.1669  0.3831
  768SOL    HW1 2303   0.987   0.114   0.345  1.9003  1.2510 -1.4864
  768SOL    HW2 2304   1.132   0.079   0.269  3.1132  2.1626  0.0422
  769SOL     OW 2305   1.004   1.914   2.225 -0.4437 -0.0297 -0.7069
  769SOL    HW1 2306   0.918   1.921   2.287 -2.2515 -0.2434  3.7108
  769SOL    HW2 2307   1.085   1.894   2.287 -0.7775 -2.9989 -1.9373
  770SOL     OW 2308   0.190   1.116   2.309 -0.0295  0.2845  0.2201
  770SOL    HW1 2309   0.163   1.192   2.371 -2.4039  0.5302 -1.5593
  770SOL    HW2 2310   0.118   1.043   2.306  2.4673  1.1103  0.2687
  771SOL     OW 2311   2.997   2.830   1.889  0.4288  0.2027  0.3742
  771SOL    HW1 2312   2.961   2.895   1.817  2.3748 -2.2526 -0.5182
  771SOL    HW2 2313   2.992   2.866   1.988 -0.7331 -1.7704  1.8687
  772SOL     OW 2314   2.204   0.225   2.896 -0.1664  0.1002 -0.0357
  772SOL    HW1 2315   2.245   0.135   2.912 -0.4707  0.1850 -1.8240
  772SOL    HW2 2316   2.214   0.284   2.978  1.4857  1.5565  2.8641
  773SOL     OW 2317   0.740   2.168   2.452  0.3356  0.6103  0.4552
  773SOL    HW1 2318   0.689   2.196   2.368 -0.9651 -0.0599 -2.6777
  773SOL    HW2 2319   0.673   2.171   2.531  0.4298  3.0176  0.0571
  774SOL     OW 2320   2.032   3.088   2.627 -0.0223  0.0214  0.2011
  774SOL    HW1 2321   2.054   3.185   2.643 -1.0683 -2.9753 -1.1282
  774SOL    HW2 2322   2.069   3.028   2.701  0.9985 -0.3085  3.3761
  775SOL     OW 2323   2.528   2.845   2.400 -0.2153 -0.0797  0.1581
  775SOL    HW1 2324   2.497   2.938   2.367  1.7737  1.4207  0.7488
  775SOL    HW2 2325   2.622   2.856   2.442  0.7168 -4.2424  1.1268
  776SOL     OW 2326   0.012   1.312   0.200  0.6408  0.5815 -0.0695
  776SOL    HW1 2327   0.003   1.230   0.138  0.8358 -0.1733 -3.2341
  776SOL    HW2 2328  -0.033   1.297   0.296 -0.0647  0.2099  1.1328
  777SOL     OW 2329   0.307   2.838   0.415 -0.3867 -0.1434  0.0929
  777SOL    HW1 2330   0.207   2.862   0.407  0.7843  0.1337  1.1095
  777SOL    HW2 2331   0.364   2.921   0.423 -1.3056 -4.0876 -0.2347
  778SOL     OW 2332   1.327   1.950   0.179 -0.2909 -0.2904  0.0744
  778SOL    HW1 2333   1.298   1.983   0.272 -0.9018 -1.7771 -0.4442
  778SOL    HW2 2334   1.376   2.024   0.123  1.0863  2.1840 -1.8180
  779SOL     OW 2335   0.190   0.843   0.471  0.0073  0.1341 -0.4939
  779SOL    HW1 2336   0.155   0.750   0.441  2.5939  0.4561 -1.3316
  779SOL    HW2 2337   0.124   0.889   0.536 -1.4524 -1.0403 -0.0096
  780SOL     OW 2338   0.123   0.201   2.267 -0.3906  0.1285 -0.0965
  780SOL    HW1 2339   0.173   0.287   2.228  0.0768  0.2846 -1.9816
  780SOL    HW2 2340   0.188   0.118   2.269 -1.4847  0.8792 -2.4697
  781SOL     OW 2341   0.663   1.761   1.562  0.1688  0.8834 -0.0465
  781SOL    HW1 2342   0.686   1.711   1.650 -1.0450 -1.4432  1.8785
  781SOL    HW2 2343   0.562   1.749   1.540 -1.0763  0.8091  2.2616
  782SOL     OW 2344   2.609   0.154   0.880 -0.2627  0.8411 -0.0978
  782SOL    HW1 2345   2.527   0.151   0.816  0.3415  0.4110  1.4922
  782SOL    HW2 2346   2.581   0.207   0.969  0.7511  3.1756  2.6225
  783SOL     OW 2347   2.844   0.760   2.602  0.0074 -0.2009  0.1993
  783SOL    HW1 2348   2.794   0.768   2.695 -0.8396  0.9854  0.5601
  783SOL    HW2 2349   2.815   0.672   2.549 -2.9599 -3.6213 -1.4055
  784SOL     OW 2350   1.474   2.173   0.088 -0.0286  0.2582 -0.1658
  784SOL    HW1 2351   1.532   2.244   0.136 -1.1971  0.4868 -2.6906
  784SOL    HW2 2352   1.445   2.205  -0.003  0.4069 -2.0633 -0.9406
  785SOL     OW 2353   2.131   0.355   0.055  0.2255 -0.0830 -0.1996
  785SOL    HW1 2354   2.045   0.360   0.112  0.1041  1.4137 -2.0315
  785SOL    HW2 2355   2.156   0.446   0.007 -2.2516 -1.4638 -1.0512
  786SOL     OW 2356   2.006   2.167   2.181  0.7141  0.5205  0.5868
  786SOL    HW1 2357   1.995   2.064   2.186  0.6404 -1.2557  0.0223
  786SOL    HW2 2358   2.097   2.206   2.187  0.5753  1.4647 -3.3809
  787SOL     OW 2359   1.401   0.612   1.005 -0.3233  0.2210 -0.2830
  787SOL    HW1 2360   1.325   0.678   1.026  0.1861  1.6926 -0.3475
  787SOL    HW2 2361   1.417   0.595   0.907  2.2644  0.5103  1.2696
  788SOL     OW 2362   1.245   0.415   0.013 -0.6154 -0.2033 -0.4557
  788SOL    HW1 2363   1.156   0.410  -0.043 -1.5623 -1.4204 -0.2639
  788SOL    HW2 2364   1.226   0.484   0.094 -0.5559  2.1668  0.6465
  789SOL     OW 2365   2.561   0.119   1.861  0.2989 -0.3802 -0.6103
  789SOL    HW1 2366   2.463   0.135   1.878 -1.4429  0.6482  2.3433
  789SOL    HW2 2367   2.587   0.023   1.823  0.2429 -0.9204  0.6473
  790SOL     OW 2368   2.639   2.758   0.811 -0.3671 -0.7184  0.1368
  790SOL    HW1 2369   2.694   2.758   0.725 -2.2552  0.2087  3.7517
  790SOL    HW2 2370   2.640   2.844   0.870 -4.2850  1.6350 -2.3884
  791SOL     OW 2371   1.909   1.233   0.214  0.1082 -0.0163  0.2726
  791SOL    HW1 2372   1.839   1.171   0.259 -2.2688  2.7059  0.9092
  791SOL    HW2 2373   2.009   1.200   0.229  1.8170  2.7356  1.5919
  792SOL     OW 2374   0.444   1.996   2.144  0.0221 -0.0646  0.1656
  792SOL    HW1 2375   0.511   2.067   2.177 -4.2448 -0.2493 -2.0405
  792SOL    HW2 2376   0.375   1.964   2.216  3.5455 -1.3431  2.3117
  793SOL     OW 2377   2.102   1.554   2.162 -0.3356 -0.0128  0.1707
  793SOL    HW1 2378   2.185   1.595   2.114  1.5779  1.8729 -1.4410
  793SOL    HW2 2379   2.086   1.450   2.133  0.1942 -1.7265 -3.1280
  794SOL     OW 2380   0.442   1.333   2.423 -0.1329  0.0466  0.1323
  794SOL    HW1 2381   0.441   1.309   2.323 -0.5446 -2.7697  1.7156
  794SOL    HW2 2382   0.479   1.429   2.439 -3.0119  0.9861 -1.4154
  795SOL     OW 2383   2.403   2.289   1.731 -0.5908 -0.4373 -0.7366
  795SOL    HW1 2384   2.350   2.361   1.785 -0.3816  0.3152 -1.3446
  795SOL    HW2 2385   2.368   2.191   1.737 -0.0091  0.6931 -1.3089
  796SOL     OW 2386   3.069   1.123   2.667 -0.0215 -0.0861 -0.5012
  796SOL    HW1 2387   2.969   1.098   2.703 -0.2742 -1.4007  1.3992
  796SOL    HW2 2388   3.139   1.122   2.747  3.1253  1.2174 -0.5388
  797SOL     OW 2389   0.794   0.606   1.357 -0.2965 -0.1407 -0.7239
  797SOL    HW1 2390   0.860   0.662   1.419  0.8072 -2.1674  1.0091
  797SOL    HW2 2391   0.723   0.666   1.305 -0.0650  0.2978 -0.2097
  798SOL     OW 2392   1.364   0.367   1.117 -0.2015  0.5261  0.1195
  798SOL    HW1 2393   1.339   0.369   1.216  0.7543  1.3130 -1.6162
  798SOL    HW2 2394   1.388   0.466   1.081  1.2533  4.8816 -1.9869
  799SOL     OW 2395   1.908   2.665   1.034  0.2713 -0.5656  0.1660
  799SOL    HW1 2396   1.878   2.660   1.132  0.6318 -2.7190 -0.0726
  799SOL    HW2 2397   1.819   2.666   0.974 -1.7130 -0.7590 -1.7801
  800SOL     OW 2398   2.952   0.742   1.893  0.3266  0.0338  0.5428
  800SOL    HW1 2399   2.942   0.837   1.931 -0.7150 -0.9108 -0.0537
  800SOL    HW2 2400   3.025   0.692   1.940  0.5012  2.5033  0.2309
  801SOL     OW 2401   1.949   2.224   0.072  0.3921 -0.3329 -0.3622
  801SOL    HW1 2402   1.847   2.199   0.050  1.7661 -0.5554  1.3703
  801SOL    HW2 2403   2.023   2.149   0.060  1.7456 -1.0223 -3.2728
  802SOL     OW 2404   0.652   0.803   2.557 -1.1063  0.2986  0.6674
  802SOL    HW1 2405   0.722   0.755   2.493 -1.2799  0.2797 -0.1811
  802SOL    HW2 2406   0.556   0.785   2.532 -0.0136 -2.2752  0.5585
  803SOL     OW 2407   0.976   0.035   0.786 -0.0867  0.3596 -0.0750
  803SOL    HW1 2408   0.994   0.117   0.847  0.5826  2.7245 -0.7035
  803SOL    HW2 2409   0.949   0.054   0.687 -0.9638 -1.6231 -1.2387
  804SOL     OW 2410   0.315   0.038   2.147 -0.1319 -0.7146  0.4385
  804SOL    HW1 2411   0.345   0.136   2.122 -0.5976  0.2647 -2.0341
  804SOL    HW2 2412   0.253  -0.005   2.076  0.9496 -0.7202 -1.4860
  805SOL     OW 2413   2.340   0.340   0.427 -0.2730  0.3246 -0.2160
  805SOL    HW1 2414   2.422   0.353   0.493 -1.7464  1.0820 -0.9196
  805SOL    HW2 2415   2.373   0.318   0.328 -1.1828 -0.3039 -1.3216
  806SOL     OW 2416   0.650   2.456   1.781  0.1707 -0.1678 -0.0951
  806SOL    HW1 2417   0.637   2.556   1.798  1.8360  0.6218 -0.3451
  806SOL    HW2 2418   0.730   2.435   1.717 -1.1435  0.9917 -2.9183
  807SOL     OW 2419   2.465   0.814   0.353  0.5766  0.0046  0.0083
  807SOL    HW1 2420   2.544   0.840   0.418 -0.1326 -1.2808  2.8309
  807SOL    HW2 2421   2.461   0.859   0.263  1.1495  0.0362  0.9169
  808SOL     OW 2422   0.658   2.064   2.882  0.3202  0.3312  0.4630
  808SOL    HW1 2423   0.588   2.118   2.936  1.3415  0.2174 -0.6273
  808SOL    HW2 2424   0.662   1.961   2.907  0.5425  0.7046 -0.7276
  809SOL     OW 2425   2.631   1.961   1.877 -0.6727  0.0428  0.1574
  809SOL    HW1 2426   2.730   1.987   1.874 -1.4676 -0.2862 -1.5267
  809SOL    HW2 2427   2.577   2.016   1.813  1.1231  0.1656 -0.9494
  810SOL     OW 2428   2.125   1.086   0.580  0.2099  0.4412  0.2128
  810SOL    HW1 2429   2.064   1.005   0.606  2.5608  1.3977 -0.8373
  810SOL    HW2 2430   2.106   1.175   0.627  0.0388 -0.8230 -2.0567
  811SOL     OW 2431   1.340   2.508   1.216 -0.0328 -0.4275 -0.1448
  811SOL    HW1 2432   1.270   2.432   1.234  0.4555  0.5454 -1.8786
  811SOL    HW2 2433   1.307   2.604   1.247 -1.1333  1.8106  0.3702
  812SOL     OW 2434   1.414   0.754   1.932  0.5473  0.0741  0.1205
  812SOL    HW1 2435   1.468   0.832   1.980 -0.4351  1.4720  0.2840
  812SOL    HW2 2436   1.308   0.766   1.928 -1.5085  2.3234  1.5733
  813SOL     OW 2437   1.662   2.044   2.519 -0.5067 -0.2893 -0.2621
  813SOL    HW1 2438   1.733   1.969   2.534 -0.8078  0.4376  0.6553
  813SOL    HW2 2439   1.622   2.042   2.425  1.7210 -1.9334  1.3872
  814SOL     OW 2440   2.925   1.515   2.827  0.4308  0.4529 -0.2554
  814SOL    HW1 2441   3.007   1.498   2.894 -0.7707  0.9571  2.3507
  814SOL    HW2 2442   2.926   1.608   2.782  0.8318 -1.4082 -0.0997
  815SOL     OW 2443   2.176   2.888   2.763 -0.0957 -0.2411 -0.2655
  815SOL    HW1 2444   2.148   2.805   2.816 -0.6323  1.9062 -2.3994
  815SOL    HW2 2445   2.251   2.947   2.810  0.4721  2.3522 -0.7201
  816SOL     OW 2446   1.623   0.319   1.628 -0.2483  0.1119  0.2410
  816SOL    HW1 2447   1.648   0.216   1.650 -2.2407 -2.8054 -1.3437
  816SOL    HW2 2448   1.552   0.352   1.695 -0.6261 -0.5510 -0.0210
  817SOL     OW 2449   0.331   1.153   2.609 -0.3995  0.0514  0.3908
  817SOL    HW1 2450   0.234   1.167   2.640 -2.0233 -1.5760  0.0748
  817SOL    HW2 2451   0.364   1.213   2.527  1.7236 -1.7218 -0.8691
  818SOL     OW 2452   1.964   0.948   0.343  0.1620  0.7575 -0.6900
  818SOL    HW1 2453   2.050   0.901   0.375 -3.1392  1.5727 -0.4071
  818SOL    HW2 2454   1.921   1.007   0.418 -4.1483  2.6735 -0.2943
  819SOL     OW 2455   2.723   2.982   2.961 -0.7996 -0.2722  0.0200
  819SOL    HW1 2456   2.805   2.926   2.941 -0.3610 -2.6216 -0.3818
  819SOL    HW2 2457   2.641   2.945   2.916 -0.4963 -1.1684  0.2184
  820SOL     OW 2458   1.226   1.070   0.599 -0.0231 -0.0117 -0.2283
  820SOL    HW1 2459   1.240   1.164   0.649 -0.6782 -1.7891  1.9276
  820SOL    HW2 2460   1.202   0.997   0.666 -1.1878 -2.0682  0.9926
  821SOL     OW 2461   0.036   1.284   0.670 -0.0282  0.0740  0.0233
  821SOL    HW1 2462  -0.009   1.290   0.762  1.9727 -1.1383 -0.7885
  821SOL    HW2 2463   0.088   1.369   0.658 -0.2789  0.1234 -2.6029
  822SOL     OW 2464   2.606   1.761   2.414  0.8205  0.7065 -0.2423
  822SOL    HW1 2465   2.603   1.834   2.487 -2.4401 -1.3670  0.2293
  822SOL    HW2 2466   2.518   1.766   2.355  0.4304  0.6548  1.4624
  823SOL     OW 2467   2.048   0.871   1.163 -0.2594 -0.6462 -0.7584
  823SOL    HW1 2468   2.038   0.870   1.263 -0.2770  1.7317  1.0277
  823SOL    HW2 2469   1.957   0.892   1.114 -1.7785 -0.7136 -0.1538
  824SOL     OW 2470   0.284   2.000   2.863  0.1363 -0.7260 -0.1489
  824SOL    HW1 2471   0.255   1.917   2.919 -0.4463 -1.5218 -1.0481
  824SOL    HW2 2472   0.335   1.965   2.779  1.1667 -0.9286  1.8058
  825SOL     OW 2473   1.283   1.103   0.293 -0.0845  0.4430  0.0048
  825SOL    HW1 2474   1.299   1.200   0.248 -1.4625 -0.0279 -1.0254
  825SOL    HW2 2475   1.218   1.108   0.372  0.9760  1.3866  1.6911
  826SOL     OW 2476   1.889   0.643   1.575 -0.1770 -0.2708 -0.6145
  826SOL    HW1 2477   1.952   0.565   1.601 -0.3959 -0.9870 -0.2872
  826SOL    HW2 2478   1.813   0.603   1.513 -0.6579 -1.9495 -2.3299
  827SOL     OW 2479   0.708   1.250   0.214  0.4909 -0.1508  0.6809
  827SOL    HW1 2480   0.786   1.200   0.176 -1.5896  1.5818 -0.1798
  827SOL    HW2 2481   0.665   1.188   0.280  1.3119 -1.2932 -2.8071
  828SOL     OW 2482   2.625   0.189   1.553 -0.0282 -0.0888 -0.1175
  828SOL    HW1 2483   2.525   0.166   1.527  0.0381  3.7593  1.1042
  828SOL    HW2 2484   2.621   0.234   1.646  1.0571  1.2905  0.8357
  829SOL     OW 2485   2.820   2.459   2.975  0.6697 -0.1958  0.0694
  829SOL    HW1 2486   2.744   2.384   2.976 -0.5414 -1.5523 -0.8731
  829SOL    HW2 2487   2.796   2.539   3.033  0.7212  0.8039 -3.8958
  830SOL     OW 2488   2.780   0.945   3.063 -0.3424  0.0857 -0.4738
  830SOL    HW1 2489   2.850   1.018   3.050 -0.0928 -1.3105  0.0723
  830SOL    HW2 2490   2.815   0.878   3.131  0.7818  0.7191 -0.3494
  831SOL     OW 2491   3.073   0.662   0.368  0.1777 -0.2331  0.1460
  831SOL    HW1 2492   3.039   0.602   0.448  0.7243 -3.0464 -1.4397
  831SOL    HW2 2493   3.135   0.603   0.311 -0.9539  0.2559 -0.5636
  832SOL     OW 2494   1.823   0.773   2.999 -0.0932  0.6374  0.6503
  832SOL    HW1 2495   1.744   0.816   2.951 -0.9637 -3.2100  1.1018
  832SOL    HW2 2496   1.802   0.678   3.039  0.5034 -1.6403 -1.4744
  833SOL     OW 2497   2.404   2.098   0.490 -0.0401  0.0596 -0.0049
  833SOL    HW1 2498   2.317   2.112   0.438  0.7731 -2.3578 -0.5323
  833SOL    HW2 2499   2.444   2.000   0.472  3.3462  0.8709  0.6613
  834SOL     OW 2500   0.141   0.237   0.482 -1.1603  0.4478 -0.0461
  834SOL    HW1 2501   0.192   0.152   0.516  3.5891 -1.8268  0.0024
  834SOL    HW2 2502   0.072   0.222   0.406 -2.1118  1.2263  1.8283
  835SOL     OW 2503   2.283   1.551   1.100  0.0603 -0.2210  0.6807
  835SOL    HW1 2504   2.295   1.644   1.150  0.2387  1.1424  5.5989
  835SOL    HW2 2505   2.365   1.529   1.037 -1.5352 -2.6200 -0.2546
  836SOL     OW 2506   1.595   0.853   2.610  0.3433 -0.1504 -0.3008
  836SOL    HW1 2507   1.491   0.841   2.610  3.2985  0.8477 -0.9289
  836SOL    HW2 2508   1.633   0.872   2.515 -2.1209 -0.5247  1.7905
  837SOL     OW 2509   1.657   0.100   0.540 -0.6000 -0.3672  0.6129
  837SOL    HW1 2510   1.614   0.173   0.599 -0.8208 -0.3805 -0.4722
  837SOL    HW2 2511   1.636   0.111   0.442 -0.3831 -0.8240 -0.1298
  838SOL     OW 2512   1.220   1.530   2.809  0.8823 -0.1059 -0.6144
  838SOL    HW1 2513   1.199   1.521   2.912  0.6542  1.7280 -0.8397
  838SOL    HW2 2514   1.163   1.472   2.744  1.1528 -0.4963 -2.7754
  839SOL     OW 2515   1.742   0.252   1.020  0.1542 -0.4100  0.2569
  839SOL    HW1 2516   1.742   0.319   1.098 -0.8812 -2.0962  0.3978
  839SOL    HW2 2517   1.676   0.175   1.049 -2.0626  0.2334 -0.7504
  840SOL     OW 2518   2.628   2.934   1.723 -0.9956 -0.7229 -0.0041
  840SOL    HW1 2519   2.571   2.911   1.640  0.3262  0.4026  0.2407
  840SOL    HW2 2520   2.618   2.862   1.794  0.1300  1.3867 -3.4539
  841SOL     OW 2521   1.534   0.847   2.968  0.3886  0.7381 -0.5421
  841SOL    HW1 2522   1.525   0.851   3.070  3.0603  1.1717 -2.1608
  841SOL    HW2 2523   1.516   0.939   2.923 -0.9382 -1.8123  1.5807
  842SOL     OW 2524   0.825   1.526   0.933 -0.2968 -0.5279 -0.3897
  842SOL    HW1 2525   0.794   1.585   1.016  0.3111  2.5596 -0.0867
  842SOL    HW2 2526   0.749   1.459   0.895 -0.4814 -2.1981 -1.3631
  843SOL     OW 2527   0.097   0.080   1.445 -0.2581  0.3011  0.1730
  843SOL    HW1 2528   0.196   0.110   1.464  1.2730  0.7784 -0.5103
  843SOL    HW2 2529   0.075  -0.013   1.481 -0.2633 -1.1363 -5.5071
  844SOL     OW 2530   0.795   2.494   0.301  0.1150  0.2539 -0.2756
  844SOL    HW1 2531   0.729   2.449   0.370  0.5012 -0.9920  0.1002
  844SOL    HW2 2532   0.757   2.546   0.218 -1.0404 -0.1755  1.0777
  845SOL     OW 2533   1.609   2.897   1.357 -0.2087 -0.1081 -0.0574
  845SOL    HW1 2534   1.658   2.875   1.445 -0.6834 -1.7709  0.3976
  845SOL    HW2 2535   1.531   2.962   1.372 -2.3065 -1.6324 -0.4453
  846SOL     OW 2536   1.537   2.948   0.789 -0.3540  0.3226  0.7854
  846SOL    HW1 2537   1.517   2.884   0.709  0.0433  2.1540  0.9414
  846SOL    HW2 2538   1.636   2.990   0.789  1.0227 -1.3690  0.0157
  847SOL     OW 2539   2.035   1.625   0.281 -0.4712 -0.1930 -0.0401
  847SOL    HW1 2540   1.990   1.551   0.345 -0.1650 -2.1887 -0.0967
  847SOL    HW2 2541   1.973   1.704   0.266  0.1446  1.8312 -1.1482
  848SOL     OW 2542   2.497   0.820   2.610 -0.0801 -0.6333  0.0560
  848SOL    HW1 2543   2.449   0.906   2.613  1.3515 -2.5520  1.0911
  848SOL    HW2 2544   2.427   0.744   2.595  3.2455 -2.1348 -0.2791
  849SOL     OW 2545   2.577   0.850   2.342 -0.2529  0.2944  0.1207
  849SOL    HW1 2546   2.645   0.791   2.295 -0.8964  1.1981 -1.3263
  849SOL    HW2 2547   2.550   0.819   2.440  1.7078 -0.5376  0.4835
  850SOL     OW 2548   1.546   0.104   1.354  0.1382  0.0067 -0.5953
  850SOL    HW1 2549   1.551   0.101   1.250  0.2858  2.9056  0.1817
  850SOL    HW2 2550   1.475   0.036   1.392 -0.4965  0.3990  4.4893
  851SOL     OW 2551   0.447   1.777   0.620  0.2053 -0.6453 -0.0419
  851SOL    HW1 2552   0.433   1.879   0.610  0.1070 -0.2978  1.2068
  851SOL    HW2 2553   0.526   1.738   0.563 -0.8672 -0.1291  1.2535
  852SOL     OW 2554   0.775   2.146   1.687  0.1316  0.4166 -0.2817
  852SOL    HW1 2555   0.760   2.233   1.630 -0.2534  4.1507 -0.0831
  852SOL    HW2 2556   0.715   2.151   1.778 -0.1608  1.5031  0.5443
  853SOL     OW 2557   2.526   1.552   2.618 -0.5504 -0.1093 -0.6433
  853SOL    HW1 2558   2.512   1.456   2.591 -0.7307  3.4369 -1.3919
  853SOL    HW2 2559   2.545   1.614   2.539  1.1014  4.2043  2.2720
  854SOL     OW 2560   2.445   1.421   1.696  0.8668 -0.9251  0.0464
  854SOL    HW1 2561   2.497   1.395   1.612 -0.0369  0.9960  1.6038
  854SOL    HW2 2562   2.353   1.371   1.695 -1.6854 -0.1688 -0.3563
  855SOL     OW 2563   2.104   2.368   0.967  0.4113 -0.1514  0.5998
  855SOL    HW1 2564   2.091   2.456   0.915  1.3569 -3.8726  0.4925
  855SOL    HW2 2565   2.140   2.378   1.065 -0.1452  0.8910 -1.1962
  856SOL     OW 2566   1.358   1.499   0.854  0.4958  0.1443 -0.5005
  856SOL    HW1 2567   1.430   1.564   0.907  0.4358  0.1489 -0.1721
  856SOL    HW2 2568   1.266   1.505   0.898  1.7284  0.6985  0.7606
  857SOL     OW 2569   3.077   2.654   1.045 -1.1191 -0.1398  0.4428
  857SOL    HW1 2570   2.998   2.583   1.039  0.8547 -1.1727 -0.6114
  857SOL    HW2 2571   3.144   2.648   0.969  1.3746  2.3485  2.3094
  858SOL     OW 2572   2.316   2.017   1.773 -0.3467  0.1051  0.2277
  858SOL    HW1 2573   2.226   1.993   1.727 -0.7769  1.4926  0.1529
  858SOL    HW2 2574   2.400   1.965   1.738  2.5396  0.0920 -2.6027
  859SOL     OW 2575   2.491   0.565   1.042  0.4864 -0.2868 -0.4837
  859SOL    HW1 2576   2.548   0.618   0.972 -0.9324  1.2349  0.9472
  859SOL    HW2 2577   2.527   0.469   1.067 -1.5116  0.1734  2.7153
  860SOL     OW 2578   1.932   2.811   0.444 -0.3382  0.0510 -0.3505
  860SOL    HW1 2579   1.931   2.740   0.373  0.9888 -2.6048 -2.1499
  860SOL    HW2 2580   2.025   2.854   0.441 -3.0099 -1.4194  0.0138
  861SOL     OW 2581   1.092   2.505   2.821 -0.5989  0.2100 -0.2726
  861SOL    HW1 2582   1.143   2.590   2.777 -1.6040  2.2365 -0.3657
  861SOL    HW2 2583   1.097   2.502   2.927  1.4611 -0.9732  0.1684
  862SOL     OW 2584   2.848   2.547   1.613  0.5936 -0.7194  0.0727
  862SOL    HW1 2585   2.934   2.568   1.666 -0.2455 -0.1777  3.6704
  862SOL    HW2 2586   2.836   2.624   1.540  2.2526  1.2605 -0.2988
  863SOL     OW 2587   1.828   2.701   0.171 -0.3497 -0.0754  0.4136
  863SOL    HW1 2588   1.896   2.622   0.166  1.7102  0.5455  0.8161
  863SOL    HW2 2589   1.734   2.669   0.211 -0.2229  0.0283  0.5624
  864SOL     OW 2590   1.906   1.184   2.859  0.0346 -0.0383 -0.4896
  864SOL    HW1 2591   1.893   1.122   2.775 -1.0871 -3.0641  0.9781
  864SOL    HW2 2592   2.006   1.182   2.892  1.0277 -3.9897 -0.1663
  865SOL     OW 2593   2.250   1.860   0.590  0.1731  0.0789 -0.0150
  865SOL    HW1 2594   2.325   1.863   0.662  0.5562  2.3356  0.0014
  865SOL    HW2 2595   2.177   1.786   0.604 -1.0159 -1.3095 -0.7115
  866SOL     OW 2596   2.962   2.941   1.030  0.5772  0.3393  0.1802
  866SOL    HW1 2597   2.981   2.975   0.933  1.2973 -0.5946  1.0322
  866SOL    HW2 2598   3.009   2.852   1.042  0.8649  0.1903  1.0306
  867SOL     OW 2599   0.325   1.372   0.918  0.3358  0.7516  0.1317
  867SOL    HW1 2600   0.340   1.298   0.843 -0.8178 -1.4737 -1.8593
  867SOL    HW2 2601   0.320   1.465   0.878  1.8685 -1.9595  1.0011
  868SOL     OW 2602   0.719   1.842   2.043 -0.2855 -0.6158  0.2632
  868SOL    HW1 2603   0.682   1.804   2.133  1.4818  1.5080 -0.3265
  868SOL    HW2 2604   0.732   1.946   2.047 -1.7753  1.3284  0.1002
  869SOL     OW 2605   2.566   1.948   1.592 -0.5217 -0.0844 -0.0797
  869SOL    HW1 2606   2.650   2.012   1.591 -3.3859 -0.1391 -0.5239
  869SOL    HW2 2607   2.595   1.847   1.612 -0.2630 -0.6969  1.5492
  870SOL     OW 2608   2.295   2.653   1.273  0.7900 -0.2090  0.0226
  870SOL    HW1 2609   2.260   2.555   1.279 -3.0995 -0.2661  3.1325
  870SOL    HW2 2610   2.268   2.710   1.353  3.5182 -3.4914 -1.2924
  871SOL     OW 2611   3.030   2.187   0.567  0.0006 -0.7076  0.4593
  871SOL    HW1 2612   2.994   2.259   0.636 -0.8150  2.1314 -1.0571
  871SOL    HW2 2613   2.958   2.157   0.497  0.4587 -1.3137  1.1084
  872SOL     OW 2614   2.109   0.483   1.677  0.0722 -0.3767  0.5838
  872SOL    HW1 2615   2.065   0.479   1.771  1.4119 -0.8362  1.2531
  872SOL    HW2 2616   2.191   0.425   1.663 -0.7603  2.2807 -0.2048
  873SOL     OW 2617   1.718   2.119   3.062 -0.1529 -0.3611 -0.2761
  873SOL    HW1 2618   1.640   2.127   3.132 -1.7503 -0.3710  0.4835
  873SOL    HW2 2619   1.686   2.120   2.962 -1.7246  0.4684 -0.2159
  874SOL     OW 2620   0.647   2.455   0.772  0.1419 -0.5222 -0.2228
  874SOL    HW1 2621   0.636   2.550   0.824 -1.9935  0.0215 -1.0474
  874SOL    HW2 2622   0.746   2.430   0.771  1.2040 -0.7604 -0.0770
  875SOL     OW 2623   2.301   1.570   1.420 -0.6872  0.5237  0.2764
  875SOL    HW1 2624   2.384   1.588   1.472 -3.0623  0.2265 -1.6263
  875SOL    HW2 2625   2.321   1.526   1.329 -0.7406 -0.3107 -2.6991
  876SOL     OW 2626   0.094   2.221   2.750 -0.1423  0.0460 -0.3724
  876SOL    HW1 2627   0.167   2.148   2.765 -0.1374  0.5071 -0.4643
  876SOL    HW2 2628   0.128   2.319   2.785  0.0435 -1.4383  0.6251
  877SOL     OW 2629   2.909   2.655   0.592 -0.0466 -0.2743  0.4199
  877SOL    HW1 2630   2.921   2.753   0.622 -0.0063  0.9452  1.0750
  877SOL    HW2 2631   2.935   2.588   0.666  0.6335  0.6456 -2.2889
  878SOL     OW 2632   2.799   1.516   2.208  0.7720  0.5640 -0.5603
  878SOL    HW1 2633   2.903   1.512   2.216  1.4131 -1.5411  0.9373
  878SOL    HW2 2634   2.759   1.558   2.296  0.6946 -1.1558 -0.1194
  879SOL     OW 2635   2.363   0.085   1.179 -0.1706 -0.5078 -0.8014
  879SOL    HW1 2636   2.423   0.003   1.198  0.8514  1.0091 -0.2563
  879SOL    HW2 2637   2.265   0.061   1.157 -1.2343 -2.6319  1.0369
  880SOL     OW 2638   0.728   0.478   2.280 -0.1243 -0.2506  0.0948
  880SOL    HW1 2639   0.660   0.421   2.339  0.2825 -2.1827 -0.6111
  880SOL    HW2 2640   0.768   0.429   2.198  1.2679  0.1905 -1.1246
  881SOL     OW 2641   0.855   0.059   0.479  0.1096  0.0164 -0.3676
  881SOL    HW1 2642   0.914  -0.028   0.494  3.9833  1.5840  2.8358
  881SOL    HW2 2643   0.758   0.045   0.459 -1.6599  1.6816  1.0980
  882SOL     OW 2644   2.716   1.713   1.696 -0.2756  0.4431 -0.5300
  882SOL    HW1 2645   2.794   1.639   1.692  1.5804 -3.3245  0.3843
  882SOL    HW2 2646   2.701   1.740   1.795  1.5169  1.0228  0.0301
  883SOL     OW 2647   0.899   0.566   0.992 -0.7565  0.0617  0.2108
  883SOL    HW1 2648   0.920   0.660   1.025  2.5682 -1.0405 -1.6678
  883SOL    HW2 2649   0.880   0.499   1.067 -0.6941 -0.1747  1.5848
  884SOL     OW 2650   1.202   1.761   1.159  0.2913  0.0145  0.2752
  884SOL    HW1 2651   1.171   1.680   1.109  2.0984  2.7559  3.2967
  884SOL    HW2 2652   1.158   1.849   1.133 -0.9682  2.0849  2.3898
  885SOL     OW 2653   2.355   1.797   2.304  0.3300  0.3617 -0.0087
  885SOL    HW1 2654   2.276   1.744   2.350 -3.0153  1.4033  1.2267
  885SOL    HW2 2655   2.337   1.898   2.269  1.7688  0.6504  0.0073
  886SOL     OW 2656   2.630   0.422   1.790  0.3988  0.2167  0.1612
  886SOL    HW1 2657   2.606   0.424   1.889 -0.6184  1.5411 -1.9165
  886SOL    HW2 2658   2.686   0.506   1.764 -0.5485  0.7108 -0.0710
  887SOL     OW 2659   0.097   2.048   1.323  0.4561  0.0551  0.1942
  887SOL    HW1 2660   0.007   2.016   1.282 -0.4771 -1.2153 -1.2827
  887SOL    HW2 2661   0.143   2.129   1.277 -1.3252  0.7525 -1.1721
  888SOL     OW 2662   0.565   1.259   1.541 -0.0930  0.4888 -0.0236
  888SOL    HW1 2663   0.598   1.258   1.441 -0.0592 -0.0656  1.5689
  888SOL    HW2 2664   0.503   1.178   1.558 -0.9521  0.1839 -2.5796
  889SOL     OW 2665   0.823   2.481   2.159 -0.5383 -0.0624 -0.5904
  889SOL    HW1 2666   0.764   2.398   2.160  2.0048  0.6999  2.7710
  889SOL    HW2 2667   0.878   2.507   2.073  0.8715  0.5876  0.6659
  890SOL     OW 2668   2.422   2.426   0.188  0.0475  0.6156  0.0504
  890SOL    HW1 2669   2.458   2.468   0.102  1.6362  0.4200  0.6714
  890SOL    HW2 2670   2.376   2.492   0.251 -1.0177 -1.6391  0.1494
  891SOL     OW 2671   2.546   1.690   0.717 -0.0230 -0.2483 -0.2343
  891SOL    HW1 2672   2.559   1.724   0.817  0.9728 -0.6524  1.6659
  891SOL    HW2 2673   2.487   1.600   0.727  0.6337 -1.3771 -1.9282
  892SOL     OW 2674   0.372   0.318   2.182  0.2907 -0.4150 -0.2785
  892SOL    HW1 2675   0.368   0.394   2.111 -1.1682 -0.9494 -1.0252
  892SOL    HW2 2676   0.449   0.326   2.255 -1.2235  0.3166 -1.0071
  893SOL     OW 2677   1.658   0.270   2.757  0.2824 -0.1372 -0.0636
  893SOL    HW1 2678   1.730   0.343   2.748 -1.8090 -0.3046 -0.6974
  893SOL    HW2 2679   1.565   0.304   2.722 -0.5269  1.1228  0.1937
  894SOL     OW 2680   2.121   2.028   3.091  0.2534 -0.2623 -0.0655
  894SOL    HW1 2681   2.103   1.989   2.997  1.8386  1.1048 -1.6113
  894SOL    HW2 2682   2.178   1.956   3.147  0.0414  0.2159 -2.8142
  895SOL     OW 2683   2.791   1.425   0.928  0.5801  0.1396  0.4221
  895SOL    HW1 2684   2.869   1.363   0.936 -2.3110 -0.8688 -0.6496
  895SOL    HW2 2685   2.819   1.527   0.935  1.6015  1.1989 -0.8584
  896SOL     OW 2686   1.769   1.815   1.227 -0.3221  0.0722 -0.0352
  896SOL    HW1 2687   1.809   1.735   1.177  2.0142  0.1957 -0.7495
  896SOL    HW2 2688   1.702   1.871   1.172 -0.5063 -1.3234 -0.2488
  897SOL     OW 2689   0.336   0.547   0.024 -0.1111  1.0197  0.1908
  897SOL    HW1 2690   0.262   0.594  -0.043 -1.7943  2.4251  0.0831
  897SOL    HW2 2691   0.436   0.575   0.006  0.5537  1.7771  1.5384
  898SOL     OW 2692   0.559   2.879   1.087  0.3017  0.3880  0.2114
  898SOL    HW1 2693   0.504   2.956   1.127  1.5135 -1.0152  0.5517
  898SOL    HW2 2694   0.627   2.840   1.160  0.0420  0.0302  0.2439
  899SOL     OW 2695   2.800   0.908   1.288 -0.5490  0.0080  0.1902
  899SOL    HW1 2696   2.746   0.896   1.201  3.2905 -1.4042 -0.1879
  899SOL    HW2 2697   2.890   0.957   1.273 -2.2184  1.2225 -1.4325
  900SOL     OW 2698   0.995   2.551   2.402  0.8937  0.2395 -0.6001
  900SOL    HW1 2699   0.917   2.597   2.357  2.7096  1.8370 -0.2691
  900SOL    HW2 2700   0.973   2.511   2.497  1.3668  0.9078  1.1369
  901SOL     OW 2701   1.925   2.339   1.347  0.3379 -0.1510 -0.1861
  901SOL    HW1 2702   1.889   2.300   1.253  0.1704 -0.4039 -3.8743
  901SOL    HW2 2703   2.027   2.322   1.358  0.1482  1.4407  0.3789
  902SOL     OW 2704   2.579   1.650   1.464  0.2014 -0.0153 -0.2743
  902SOL    HW1 2705   2.625   1.670   1.554 -1.0958  0.3458 -2.5368
  902SOL    HW2 2706   2.646   1.650   1.387  1.3765 -0.8259  1.2803
  903SOL     OW 2707   0.256   2.493   1.975 -0.5300  0.5646 -0.3908
  903SOL    HW1 2708   0.175   2.438   1.952  1.8224  1.3240 -3.0516
  903SOL    HW2 2709   0.286   2.557   1.900  0.4072 -0.3614  1.1543
  904SOL     OW 2710   2.053   0.801   2.469  0.5725 -0.4173 -0.2500
  904SOL    HW1 2711   1.985   0.750   2.533 -1.1519  0.9749  0.2961
  904SOL    HW2 2712   2.033   0.776   2.372 -1.9881  0.0222  2.4501
  905SOL     OW 2713   2.826   0.080   2.558  0.2471 -0.2006 -0.1174
  905SOL    HW1 2714   2.899   0.010   2.548  1.3135  3.2130  1.8165
  905SOL    HW2 2715   2.869   0.171   2.530 -1.3308  1.1065  1.9053
  906SOL     OW 2716   0.146   1.718   1.930 -0.8078  0.2508 -0.3141
  906SOL    HW1 2717   0.095   1.723   1.840  0.5389 -2.4807 -2.0131
  906SOL    HW2 2718   0.237   1.771   1.938  0.6795 -1.1180  0.2946
  907SOL     OW 2719   0.233   2.458   1.001 -0.6870 -0.1728 -0.3499
  907SOL    HW1 2720   0.329   2.424   0.975 -2.0847 -0.7333  0.2342
  907SOL    HW2 2721   0.197   2.398   1.079  0.8871 -2.3744 -0.3446
  908SOL     OW 2722   2.729   2.992   0.372  0.2323  0.2279  0.4798
  908SOL    HW1 2723   2.706   3.060   0.295  0.9738  1.4679 -1.9079
  908SOL    HW2 2724   2.784   2.917   0.335 -1.9075  0.2078 -0.2144
  909SOL     OW 2725   0.802   1.024   2.645 -0.3654 -0.2080 -0.1830
  909SOL    HW1 2726   0.727   0.955   2.613 -0.5023  1.0261 -0.1542
  909SOL    HW2 2727   0.881   1.033   2.575 -0.0303  0.2680  0.6721
  910SOL     OW 2728   1.717   1.867   2.158 -0.0523 -0.4169 -0.3690
  910SOL    HW1 2729   1.750   1.904   2.065 -1.9337  1.3164  1.4310
  910SOL    HW2 2730   1.625   1.904   2.179  2.5169 -2.2714 -2.5663
  911SOL     OW 2731   1.802   2.934   1.560  0.1086 -0.2400 -0.1640
  911SOL    HW1 2732   1.879   2.924   1.489  1.9476  0.2065  0.3951
  911SOL    HW2 2733   1.810   2.873   1.640 -1.8030 -2.5545 -0.6486
  912SOL     OW 2734   2.855   0.986   0.696  0.6447 -0.2487  0.3486
  912SOL    HW1 2735   2.887   0.948   0.789 -0.2541 -1.4144  0.3124
  912SOL    HW2 2736   2.800   1.072   0.719 -2.0676  0.0786  2.6783
  913SOL     OW 2737   2.600   1.253   1.478 -0.2287  0.5585 -0.4004
  913SOL    HW1 2738   2.601   1.150   1.474  2.5628 -0.1802  1.5072
  913SOL    HW2 2739   2.632   1.289   1.388  1.5820 -0.6164  0.7305
  914SOL     OW 2740   2.860   0.556   1.231  0.8032 -1.2692  0.2620
  914SOL    HW1 2741   2.835   0.456   1.238 -0.9933 -2.6485 -2.1907
  914SOL    HW2 2742   2.832   0.619   1.310 -0.5043  1.9821 -1.1429
  915SOL     OW 2743   1.210   0.777   1.091 -0.2154  0.0454 -0.1105
  915SOL    HW1 2744   1.250   0.814   1.180  2.1096 -1.3845 -0.5108
  915SOL    HW2 2745   1.113   0.792   1.077  2.4795 -0.1959  0.1518
  916SOL     OW 2746   0.578   0.017   0.667  0.1334  0.3121 -0.1678
  916SOL    HW1 2747   0.619   0.098   0.721  2.3654  1.0360 -0.6871
  916SOL    HW2 2748   0.566   0.036   0.566 -0.1419  2.2806 -0.3834
  917SOL     OW 2749   2.813   2.634   1.959  0.2499 -0.2115 -0.3722
  917SOL    HW1 2750   2.714   2.657   1.967  0.8875 -0.5304  2.9513
  917SOL    HW2 2751   2.869   2.702   1.906  0.6660  1.3067 -1.7272
  918SOL     OW 2752   1.031   2.176   3.022  0.1228  0.1731 -0.6508
  918SOL    HW1 2753   0.983   2.198   3.113 -1.0644  0.2732  0.9081
  918SOL    HW2 2754   1.135   2.161   3.018  1.8744 -0.0945 -4.8746
  919SOL     OW 2755   0.841   1.676   2.853  0.0964  0.4936 -0.7312
  919SOL    HW1 2756   0.887   1.739   2.787  1.4304 -1.2826 -1.5183
  919SOL    HW2 2757   0.827   1.586   2.806 -2.1105  0.7130 -0.7225
  920SOL     OW 2758   1.213   1.877   2.428  0.0683  0.5817  0.1488
  920SOL    HW1 2759   1.312   1.858   2.399  0.4586  4.7136 -3.2577
  920SOL    HW2 2760   1.173   1.815   2.501  0.8345 -0.2988 -1.0234
  921SOL     OW 2761   1.022   0.028   2.644 -0.1983  0.0474 -0.4207
  921SOL    HW1 2762   1.021   0.042   2.541 -2.3228 -0.2839  3.4024
  921SOL    HW2 2763   0.941  -0.025   2.675  1.5375 -0.7111  2.2658
  922SOL     OW 2764   2.149   2.401   2.794  0.6515 -0.2932  0.1313
  922SOL    HW1 2765   2.183   2.306   2.806  1.0591 -1.5360 -0.5680
  922SOL    HW2 2766   2.124   2.422   2.699  1.6340  1.3183  1.0182
  923SOL     OW 2767   1.241   2.690   0.273 -0.7359 -0.3524 -0.3684
  923SOL    HW1 2768   1.309   2.765   0.296  0.8101  1.9921 -2.8974
  923SOL    HW2 2769   1.280   2.595   0.290  1.9868 -1.3649  0.7318
  924SOL     OW 2770   2.855   1.523   0.154  0.7328 -0.1958  0.1287
  924SOL    HW1 2771   2.777   1.500   0.087 -1.6294 -4.3219  2.9457
  924SOL    HW2 2772   2.944   1.484   0.123  0.7438 -0.8707 -0.6965
  925SOL     OW 2773   0.023   2.932   1.545  0.7341  0.7860  0.1879
  925SOL    HW1 2774  -0.055   2.937   1.612  0.4030  3.1079 -0.2137
  925SOL    HW2 2775  -0.014   2.912   1.453 -0.5578 -1.5083  4.2716
  926SOL     OW 2776   1.307   2.817   1.236  0.0688  0.1842 -0.3205
  926SOL    HW1 2777   1.368   2.842   1.156  0.1839  1.8641  0.4997
  926SOL    HW2 2778   1.308   2.884   1.313 -0.4722  1.0993 -0.2107
  927SOL     OW 2779   0.322   2.656   1.759  0.0775 -0.0887  0.4456
  927SOL    HW1 2780   0.313   2.624   1.660  3.1308  1.4489 -1.4312
  927SOL    HW2 2781   0.287   2.750   1.770  0.0125 -2.9824  0.3011
  928SOL     OW 2782   1.520   2.067   2.279  0.0090  0.0824 -0.1524
  928SOL    HW1 2783   1.561   2.142   2.214  1.4929  1.4225  3.0702
  928SOL    HW2 2784   1.419   2.056   2.273  0.0556 -1.4263  2.4885
  929SOL     OW 2785   2.393   2.497   2.877 -0.1849  0.0200  0.2278
  929SOL    HW1 2786   2.301   2.455   2.848 -1.3931  1.8183 -0.3813
  929SOL    HW2 2787   2.463   2.514   2.804  0.7058  0.2119  2.7991
  930SOL     OW 2788   2.195   2.003   1.068 -0.4278 -0.6661 -0.2356
  930SOL    HW1 2789   2.191   1.949   1.159 -1.7079 -0.0161 -1.3277
  930SOL    HW2 2790   2.258   2.085   1.074 -1.7496  1.7629  0.4878
  931SOL     OW 2791   0.547   1.715   2.716  0.2077  0.0257 -0.1018
  931SOL    HW1 2792   0.596   1.757   2.792  0.2081 -1.5849 -3.9480
  931SOL    HW2 2793   0.596   1.638   2.673 -0.9520  0.6113  2.9565
  932SOL     OW 2794   0.440   0.116   2.951 -0.1827 -0.2190 -0.7371
  932SOL    HW1 2795   0.530   0.135   2.903 -1.1122 -1.1787  2.0314
  932SOL    HW2 2796   0.445   0.020   3.004  1.4891 -3.8673 -0.9633
  933SOL     OW 2797   0.993   0.824   3.052  0.1460  0.0331 -0.2834
  933SOL    HW1 2798   1.042   0.857   3.140  0.9702 -0.7545  0.2939
  933SOL    HW2 2799   0.964   0.898   2.986 -1.3822  1.1173  0.6583
  934SOL     OW 2800   0.787   2.965   2.631  0.0286 -0.2483 -0.2423
  934SOL    HW1 2801   0.773   2.904   2.554 -0.9620  2.4109  0.8065
  934SOL    HW2 2802   0.821   2.916   2.714 -0.6048  0.9567  0.2986
  935SOL     OW 2803   0.028   0.570   0.846 -0.3244  0.1498 -0.3967
  935SOL    HW1 2804  -0.002   0.540   0.757 -1.0426  1.0740  1.5979
  935SOL    HW2 2805  -0.042   0.627   0.898  1.0587 -1.9064  1.0290
  936SOL     OW 2806   1.075   2.825   0.091  0.6181  0.0432 -0.0762
  936SOL    HW1 2807   1.142   2.858   0.017 -0.4379  0.4641  1.7766
  936SOL    HW2 2808   1.129   2.777   0.162 -0.7412 -1.4875 -1.4412
  937SOL     OW 2809   1.938   2.602   2.083  0.3759 -0.3091 -0.3096
  937SOL    HW1 2810   1.835   2.616   2.075  1.9841  0.4151  0.8226
  937SOL    HW2 2811   1.987   2.693   2.055  0.1053  3.0778 -1.4129
  938SOL     OW 2812   2.787   2.096   1.579  0.0661 -0.4820 -0.6756
  938SOL    HW1 2813   2.751   2.195   1.577  0.8915 -0.4185 -2.7651
  938SOL    HW2 2814   2.889   2.085   1.612  2.6044  1.9795 -2.5286
  939SOL     OW 2815   2.820   1.202   2.477 -0.6427 -0.1661  1.2177
  939SOL    HW1 2816   2.906   1.194   2.424 -1.2159 -0.3719 -0.7948
  939SOL    HW2 2817   2.841   1.183   2.576 -0.5573  0.7672  0.7418
  940SOL     OW 2818   1.032   0.418   2.726  0.0128  0.1462 -0.1793
  940SOL    HW1 2819   1.101   0.336   2.742  0.5732  1.8612  0.7047
  940SOL    HW2 2820   0.946   0.381   2.674 -1.1300 -0.5924  3.0090
  941SOL     OW 2821   0.048   2.777   2.246  0.1852  0.5007 -0.1742
  941SOL    HW1 2822   0.102   2.697   2.215 -2.4442 -0.7224  0.2809
  941SOL    HW2 2823   0.088   2.814   2.330  0.9884  0.2019  4.1948
  942SOL     OW 2824   0.111   0.115   2.526 -0.2484  0.3288 -1.2483
  942SOL    HW1 2825   0.153   0.145   2.618 -1.6972  0.0082 -3.3328
  942SOL    HW2 2826   0.113   0.192   2.457  0.7533 -2.2760  0.8347
  943SOL     OW 2827   2.090   1.688   2.382  0.4633  0.4950 -0.5504
  943SOL    HW1 2828   2.108   1.636   2.293  0.3671 -0.9825  2.2546
  943SOL    HW2 2829   2.091   1.620   2.466 -1.0665  0.1827 -0.9546
  944SOL     OW 2830   2.184   2.345   1.469 -0.4850 -0.1598 -0.0646
  944SOL    HW1 2831   2.231   2.415   1.531  0.8273 -1.4645 -2.7556
  944SOL    HW2 2832   2.130   2.278   1.526  2.3000  0.3240 -2.0611
  945SOL     OW 2833   0.691   1.517   0.276  0.2301 -0.3621 -0.2008
  945SOL    HW1 2834   0.628   1.550   0.198  0.5709 -0.1561  0.9064
  945SOL    HW2 2835   0.704   1.415   0.274  2.0998  2.7756  0.9684
  946SOL     OW 2836   0.411   0.945   2.425 -0.4683  0.5601  0.4422
  946SOL    HW1 2837   0.333   0.884   2.400  2.4408  0.5842  1.3889
  946SOL    HW2 2838   0.388   1.013   2.495  1.3996 -1.6195  1.4229
  947SOL     OW 2839   1.523   0.470   3.077  0.6990 -0.3759 -0.0832
  947SOL    HW1 2840   1.517   0.514   2.984  0.3596 -2.4577  2.0367
  947SOL    HW2 2841   1.421   0.447   3.108 -2.0663 -2.5691  3.1244
  948SOL     OW 2842   1.891   3.042   2.171  0.5644  0.1783  0.3146
  948SOL    HW1 2843   1.941   3.003   2.091  0.3811  1.4317  0.2727
  948SOL    HW2 2844   1.880   2.967   2.246 -0.0782  1.5833  3.9111
  949SOL     OW 2845   0.558   2.480   0.514 -0.5719  0.6139  0.7950
  949SOL    HW1 2846   0.565   2.585   0.512  0.7545 -0.1299 -1.1854
  949SOL    HW2 2847   0.568   2.445   0.613  0.3028 -1.3309 -0.1456
  950SOL     OW 2848   0.196   2.191   3.039 -0.6623 -0.1796 -0.0347
  950SOL    HW1 2849   0.123   2.250   3.001 -0.8712 -0.5488  0.3968
  950SOL    HW2 2850   0.227   2.118   2.969 -2.4939  0.6347  0.2988
  951SOL     OW 2851   1.258   2.700   2.731  0.2418  0.3854  0.1112
  951SOL    HW1 2852   1.332   2.713   2.801 -1.9669 -3.0233 -1.2713
  951SOL    HW2 2853   1.289   2.719   2.636 -0.5046  1.6800 -0.7842
  952SOL     OW 2854   0.003   1.699   0.376 -0.1904  0.5047  0.4860
  952SOL    HW1 2855   0.060   1.791   0.371  2.9476  1.3633  0.6772
  952SOL    HW2 2856   0.039   1.625   0.450 -1.3247  0.8970 -1.5972
  953SOL     OW 2857   2.517   1.763   0.252 -0.7699 -0.6203  0.1251
  953SOL    HW1 2858   2.519   1.658   0.262  0.0742 -2.8479  1.7035
  953SOL    HW2 2859   2.519   1.788   0.152  0.7232  0.1727  1.4942
  954SOL     OW 2860   2.228   0.561   0.952 -0.2920  0.0115  0.4217
  954SOL    HW1 2861   2.206   0.618   0.868 -0.3348  0.7777  1.3416
  954SOL    HW2 2862   2.330   0.548   0.964 -1.9922 -1.1665 -1.5167
  955SOL     OW 2863   0.172   2.585   1.287  0.1899 -0.1322  0.0006
  955SOL    HW1 2864   0.084   2.632   1.314  4.0278 -1.5047  1.7488
  955SOL    HW2 2865   0.209   2.624   1.197  2.7644  2.5261 -0.9171
  956SOL     OW 2866   2.786   2.461   2.462 -0.3019 -0.4160 -0.2170
  956SOL    HW1 2867   2.767   2.371   2.422 -3.2914  1.5302 -0.1181
  956SOL    HW2 2868   2.839   2.524   2.394 -0.0016  3.6413 -1.0033
  957SOL     OW 2869   1.596   2.070   2.806 -0.2912  0.2211  0.1156
  957SOL    HW1 2870   1.530   1.994   2.824  1.8595  0.6735  2.3856
  957SOL    HW2 2871   1.636   2.061   2.712 -1.5627  0.3180  2.0491
  958SOL     OW 2872   2.610   2.262   3.012  0.9809 -0.4421  0.2094
  958SOL    HW1 2873   2.513   2.277   2.974 -0.8532 -0.5184  2.0331
  958SOL    HW2 2874   2.610   2.205   3.100 -0.4989 -0.3999  1.9996
  959SOL     OW 2875   0.245   2.830   0.084  0.1471 -0.0290  0.6178
  959SOL    HW1 2876   0.176   2.802   0.011 -0.3634  1.8027  0.5360
  959SOL    HW2 2877   0.260   2.756   0.153  1.2259  1.7313  0.0208
  960SOL     OW 2878   2.040   0.488   1.949  0.0126 -0.1862 -0.0767
  960SOL    HW1 2879   1.968   0.553   1.905 -4.5565 -2.1151 -0.7916
  960SOL    HW2 2880   2.017   0.475   2.046 -0.6870  0.7283  0.0363
  961SOL     OW 2881   2.565   1.811   1.002  0.3365  0.0093 -0.1514
  961SOL    HW1 2882   2.565   1.914   0.999  1.2157 -1.7163  1.7986
  961SOL    HW2 2883   2.548   1.765   1.091  0.0806 -0.6588 -0.6619
  962SOL     OW 2884   1.332   0.910   0.071  0.2516 -1.1456  0.5827
  962SOL    HW1 2885   1.288   0.962  -0.010  1.8858  1.7413 -1.0472
  962SOL    HW2 2886   1.303   0.936   0.170  1.1184 -1.1416  0.1187
  963SOL     OW 2887   2.210   2.565   1.845  0.0123  0.1491  0.6651
  963SOL    HW1 2888   2.187   2.466   1.879 -2.0765 -3.3036  1.6948
  963SOL    HW2 2889   2.217   2.634   1.924 -1.7275 -1.7840  2.5212
  964SOL     OW 2890   2.363   0.343   1.684 -0.2127 -0.1179  0.2391
  964SOL    HW1 2891   2.448   0.394   1.718  1.7620 -0.3860 -1.1003
  964SOL    HW2 2892   2.367   0.318   1.583 -0.4161 -2.1233 -1.8188
  965SOL     OW 2893   2.642   3.068   0.129  0.2550 -0.2757 -0.4363
  965SOL    HW1 2894   2.692   3.028   0.051  0.0189 -0.5275  1.5125
  965SOL    HW2 2895   2.542   3.090   0.114 -3.0491  0.5629  2.4930
  966SOL     OW 2896   2.582   2.542   2.210 -0.7671 -0.1969  0.4204
  966SOL    HW1 2897   2.498   2.584   2.254 -1.1870 -2.6748 -0.9620
  966SOL    HW2 2898   2.584   2.574   2.112 -2.5387 -1.3070  0.1958
  967SOL     OW 2899   2.806   2.800   2.497  0.0301  0.0721 -0.3157
  967SOL    HW1 2900   2.817   2.735   2.420  1.6524 -1.3819  2.6943
  967SOL    HW2 2901   2.873   2.878   2.498  0.9035 -1.1899  0.5808
  968SOL     OW 2902   1.893   1.016   2.637 -0.0392 -0.0070 -0.0247
  968SOL    HW1 2903   1.824   1.081   2.589 -0.9327 -2.8248  3.3852
  968SOL    HW2 2904   1.956   0.967   2.571  2.6390 -0.5953  0.9915
  969SOL     OW 2905   2.826   2.448   1.105 -0.1498  0.0933 -0.2796
  969SOL    HW1 2906   2.786   2.438   1.012 -1.3582  1.6852  1.8745
  969SOL    HW2 2907   2.830   2.360   1.161  0.5091 -0.9461  0.8616
  970SOL     OW 2908   1.013   2.105   1.817 -0.0135  0.2131 -0.0651
  970SOL    HW1 2909   0.939   2.100   1.742 -1.5196  1.4237 -0.2530
  970SOL    HW2 2910   1.003   2.179   1.889  2.5527 -0.7614  2.4061
  971SOL     OW 2911   2.870   2.069   1.892  0.0286  0.2200 -0.6437
  971SOL    HW1 2912   2.868   2.163   1.917 -2.4292 -2.8150 -1.2629
  971SOL    HW2 2913   2.923   2.054   1.806 -0.7362 -1.8608  0.0751
  972SOL     OW 2914   2.002   2.490   0.218  0.0876  0.1545 -0.1393
  972SOL    HW1 2915   2.000   2.418   0.141  3.2886  0.5024 -2.1277
  972SOL    HW2 2916   2.035   2.440   0.309 -1.1848 -3.0652  2.8691
  973SOL     OW 2917   1.296   1.031   1.892  0.0950  0.9029 -0.3360
  973SOL    HW1 2918   1.228   1.010   1.818  0.6110 -0.5716  0.8472
  973SOL    HW2 2919   1.276   1.118   1.946  1.6371  2.6159  1.3809
  974SOL     OW 2920   1.596   0.564   1.958 -0.1632 -0.2787 -0.2120
  974SOL    HW1 2921   1.692   0.572   1.926 -1.2868  2.4101 -2.0171
  974SOL    HW2 2922   1.541   0.650   1.950  1.5958  0.0172  2.2950
  975SOL     OW 2923   2.368   3.079   0.053 -0.1239  0.5027  0.3817
  975SOL    HW1 2924   2.322   2.986   0.059 -0.3475  0.8570  2.1796
  975SOL    HW2 2925   2.369   3.115  -0.046  2.9942  1.2866 -1.3514
  976SOL     OW 2926   1.910   2.856   2.365  0.0000 -0.1835 -0.2715
  976SOL    HW1 2927   1.833   2.798   2.325  0.1843  0.6368  0.0236
  976SOL    HW2 2928   1.934   2.830   2.460 -1.4662  0.3272 -0.5766
  977SOL     OW 2929   0.419   0.662   1.009  0.7355  0.6154  0.2759
  977SOL    HW1 2930   0.351   0.703   0.943  1.2535 -2.3777  0.6102
  977SOL    HW2 2931   0.518   0.662   0.981 -2.3841 -0.9270  0.7302
   3.10000   3.10000   3.10000
