1000 SPC/Fw water molecules t=   1.90000 step= 1900
 2931
    1SOL     OW    1   2.526   0.289   2.697  0.3030 -0.5972  0.4222
    1SOL    HW1    2   2.523   0.189   2.713  2.7668 -2.0732  1.6897
    1SOL    HW2    3   2.585   0.345   2.765  0.8904 -0.0680  1.1046
    2SOL     OW    4   2.783   2.814   1.298  0.5066 -0.8368 -0.6962
    2SOL    HW1    5   2.876   2.849   1.260 -1.9311  0.9171 -1.9097
    2SOL    HW2    6   2.757   2.865   1.387 -0.2736 -1.4478 -1.0676
    3SOL     OW    7   2.746   2.452   0.462  0.0755 -0.4565  0.1131
    3SOL    HW1    8   2.665   2.389   0.482 -0.9025 -0.6338  0.4535
    3SOL    HW2    9   2.765   2.538   0.520  5.3697 -2.2876  0.8992
    4SOL     OW   10   1.217   1.560   2.435 -0.8204 -0.6265 -0.2903
    4SOL    HW1   11   1.183   1.568   2.337 -1.9111 -1.3364 -0.2218
    4SOL    HW2   12   1.200   1.471   2.487 -0.7858 -0.9050 -2.3575
    5SOL     OW   13   1.153   1.580   2.907 -0.1461 -0.4174 -0.0426
    5SOL    HW1   14   1.194   1.659   2.952  0.4042 -0.7350 -1.5103
    5SOL    HW2   15   1.063   1.599   2.866  0.0646  0.7815 -1.3844
    6SOL     OW   16   0.185   1.854   0.021  0.2778  0.3502 -0.3452
    6SOL    HW1   17   0.089   1.867   0.063  0.8403  1.3509 -1.8284
    6SOL    HW2   18   0.239   1.779   0.077 -3.3716  0.5815  0.8070
    7SOL     OW   19   2.545   0.860   1.045  0.4464 -0.0062  0.5149
    7SOL    HW1   20   2.457   0.815   1.083  0.2170 -1.3112  5.2904
    7SOL    HW2   21   2.545   0.879   0.940  0.1833  0.2833  0.5893
    8SOL     OW   22   0.460   0.733   1.500  0.4593 -0.0744 -0.7300
    8SOL    HW1   23   0.556   0.718   1.536  0.8450 -0.2522  0.6597
    8SOL    HW2   24   0.449   0.729   1.398 -0.8159 -1.2514  0.0157
    9SOL     OW   25   1.123   0.868   2.332  0.6367 -0.9732 -0.5416
    9SOL    HW1   26   1.172   0.919   2.253  0.7983  1.5019 -0.5950
    9SOL    HW2   27   1.097   0.771   2.330  1.2893  1.5347  0.4841
   10SOL     OW   28   0.600   1.483   1.256 -0.0678  0.2197 -0.1778
   10SOL    HW1   29   0.512   1.459   1.197 -0.8197 -0.0912 -1.1688
   10SOL    HW2   30   0.616   1.583   1.272  0.1050  0.0683  0.4815
   11SOL     OW   31   2.349   2.828   0.940  0.1944  0.0142 -0.0230
   11SOL    HW1   32   2.300   2.820   1.024  0.2192  2.2165 -1.3642
   11SOL    HW2   33   2.452   2.843   0.962  0.2936 -2.4611  1.5624
   12SOL     OW   34   1.438   0.834   0.508 -0.5458 -0.0316  0.2962
   12SOL    HW1   35   1.341   0.800   0.493 -1.3446  0.1176  2.3502
   12SOL    HW2   36   1.500   0.768   0.454 -0.1788  1.3362  1.8063
   13SOL     OW   37   2.441   0.717   1.840  0.0961 -0.8382  0.6003
   13SOL    HW1   38   2.354   0.676   1.882  1.1318 -0.2371  0.2811
   13SOL    HW2   39   2.458   0.686   1.737 -1.5653  1.1552 -0.9197
   14SOL     OW   40   1.923   3.034   0.641 -0.1224 -0.2090  0.2136
   14SOL    HW1   41   1.833   3.093   0.618 -0.6583  1.5542  0.3003
   14SOL    HW2   42   1.945   3.028   0.743 -0.7723 -2.0093  0.6108
   15SOL     OW   43   1.884   2.111   2.643 -0.7502 -0.1910 -0.3689
   15SOL    HW1   44   1.827   2.089   2.732 -1.9289 -0.5656 -1.5111
   15SOL    HW2   45   1.881   2.030   2.571  0.6569 -1.4858 -0.9817
   16SOL     OW   46   1.556   1.752   2.993 -0.1742 -0.2636 -0.1684
   16SOL    HW1   47   1.536   1.726   3.091  3.2180 -0.4491  0.8426
   16SOL    HW2   48   1.645   1.803   2.989 -2.1719 -1.6188  1.4179
   17SOL     OW   49   0.060   0.465   0.212 -0.3103  0.0786  0.1349
   17SOL    HW1   50   0.161   0.464   0.190 -1.6770  2.1301 -2.3125
   17SOL    HW2   51   0.008   0.476   0.126  2.0252 -0.4743  2.7713
   18SOL     OW   52   0.848   2.834   2.235  0.4329  0.0800  0.4001
   18SOL    HW1   53   0.792   2.755   2.273 -0.3353  0.2063  0.8035
   18SOL    HW2   54   0.903   2.808   2.151  0.7422  1.6915 -2.1168
   19SOL     OW   55   0.496   0.920   1.928  0.1822 -0.0738 -0.0558
   19SOL    HW1   56   0.539   0.844   1.982  0.5003  1.4600 -1.4949
   19SOL    HW2   57   0.567   0.990   1.896 -0.3383 -2.4929 -0.8541
   20SOL     OW   58   0.219   2.787   0.749 -0.0176 -0.0938  0.6388
   20SOL    HW1   59   0.123   2.819   0.752 -1.9638  1.9941  0.5163
   20SOL    HW2   60   0.223   2.696   0.692 -1.8375  0.4131  0.2698
   21SOL     OW   61   2.829   0.277   1.984  0.4981  0.2772 -0.3010
   21SOL    HW1   62   2.767   0.196   1.962  1.1572  2.6484 -0.9049
   21SOL    HW2   63   2.908   0.249   2.046 -1.5746  0.5221  1.1520
   22SOL     OW   64   2.423   0.205   0.080 -0.1239  0.0911 -0.7255
   22SOL    HW1   65   2.466   0.132   0.023 -2.2448 -0.9675 -0.8703
   22SOL    HW2   66   2.341   0.238   0.037  3.5636 -1.6129 -0.7992
   23SOL     OW   67   2.819   0.504   0.663  0.0611  0.3353  0.0154
   23SOL    HW1   68   2.846   0.404   0.660 -1.5354  2.6848  0.0780
   23SOL    HW2   69   2.880   0.562   0.607 -2.5052 -1.5591  1.1204
   24SOL     OW   70   0.271   1.917   0.455  0.0395 -0.2596 -0.5279
   24SOL    HW1   71   0.245   1.979   0.374  1.9839 -0.6229 -0.6281
   24SOL    HW2   72   0.343   1.850   0.430 -0.8581 -1.8966 -0.9874
   25SOL     OW   73   2.294   0.584   0.252  0.4377 -0.3215  0.0871
   25SOL    HW1   74   2.268   0.605   0.154 -0.9946 -2.4602  0.0821
   25SOL    HW2   75   2.342   0.492   0.269 -0.1349  1.4127  2.2786
   26SOL     OW   76   2.474   2.161   2.143 -0.5164 -0.5105 -0.2870
   26SOL    HW1   77   2.541   2.224   2.195 -1.5260 -1.8638 -0.5283
   26SOL    HW2   78   2.522   2.116   2.062  1.0451 -0.2771  2.1130
   27SOL     OW   79   0.642   3.010   0.172  0.0199  0.0692  0.7218
   27SOL    HW1   80   0.733   3.061   0.144  0.2822 -2.3928  0.2885
   27SOL    HW2   81   0.564   3.001   0.100 -1.1646  4.0120 -2.6644
   28SOL     OW   82   1.556   0.180   0.328  0.3839 -0.4283  0.4327
   28SOL    HW1   83   1.587   0.150   0.232 -1.3301 -0.1098  0.7888
   28SOL    HW2   84   1.627   0.246   0.364  1.6181  1.8297  0.8145
   29SOL     OW   85   2.016   0.550   0.306 -0.5780 -0.0446  0.0023
   29SOL    HW1   86   1.985   0.610   0.384  1.4379  0.0277  0.6706
   29SOL    HW2   87   2.114   0.561   0.286 -1.7129  1.1518  2.0672
   30SOL     OW   88   0.198   2.125   0.888 -0.5417 -0.6830  0.0682
   30SOL    HW1   89   0.158   2.034   0.857 -1.4537  0.5957  1.6063
   30SOL    HW2   90   0.126   2.192   0.927 -0.0085 -0.3282 -2.0371
   31SOL     OW   91   2.098   0.109   2.373 -0.0709  0.1305 -0.0244
   31SOL    HW1   92   2.043   0.074   2.454 -0.3935 -2.7892 -0.1248
   31SOL    HW2   93   2.084   0.044   2.289 -0.9033 -0.6686 -1.2827
   32SOL     OW   94   3.082   3.052   0.226  0.3285  0.0535 -0.0496
   32SOL    HW1   95   3.050   2.953   0.252 -2.5415  1.0637 -0.6740
   32SOL    HW2   96   3.188   3.063   0.210 -1.9723 -1.0432 -1.3697
   33SOL     OW   97   0.871   0.278   0.654  0.5347 -0.3337  0.3207
   33SOL    HW1   98   0.854   0.197   0.586  1.0691 -0.9278  1.2162
   33SOL    HW2   99   0.949   0.338   0.622 -2.3050 -2.0344  0.2414
   34SOL     OW  100   0.339   2.655   1.014  0.2393 -0.0774 -0.4985
   34SOL    HW1  101   0.281   2.678   0.929 -1.5186  0.6971 -2.3619
   34SOL    HW2  102   0.437   2.692   1.011 -0.0438  1.3792  2.3754
   35SOL     OW  103   0.102   0.212   1.892  0.0634  0.1256  0.6766
   35SOL    HW1  104   0.108   0.110   1.922 -0.9691 -1.0993  0.9434
   35SOL    HW2  105   0.106   0.216   1.790  1.1833 -3.7858  0.1679
   36SOL     OW  106   1.863   1.227   1.467 -0.5283  0.1522  0.0162
   36SOL    HW1  107   1.956   1.211   1.509  0.7351  0.9419  0.0598
   36SOL    HW2  108   1.869   1.272   1.374 -0.7376  1.3025  2.9955
   37SOL     OW  109   1.167   0.247   1.000  0.0639  0.1028 -0.3890
   37SOL    HW1  110   1.181   0.348   1.013 -1.0543 -1.3871  0.3924
   37SOL    HW2  111   1.247   0.192   0.953  0.2620 -0.8965 -0.9764
   38SOL     OW  112   1.111   2.813   2.456  0.0429  0.4572  0.4607
   38SOL    HW1  113   1.019   2.771   2.486  1.2814 -2.5890  0.2471
   38SOL    HW2  114   1.097   2.890   2.386  1.0529 -3.1077 -2.7241
   39SOL     OW  115   2.468   1.416   3.004 -0.0844  0.0039  0.6669
   39SOL    HW1  116   2.531   1.334   3.017  1.9845  1.2766  1.7903
   39SOL    HW2  117   2.390   1.419   3.075 -0.7790  0.4329 -2.0701
   40SOL     OW  118   2.041   2.494   2.549  0.0823  0.4315  0.7700
   40SOL    HW1  119   2.006   2.590   2.558 -0.7484 -1.4742 -3.4991
   40SOL    HW2  120   1.958   2.434   2.519 -2.5159 -1.0271  0.4249
   41SOL     OW  121   3.019   0.704   2.806  0.1603 -0.2594 -0.3545
   41SOL    HW1  122   2.985   0.784   2.864  1.3483  1.2080 -0.4097
   41SOL    HW2  123   2.944   0.656   2.758 -0.1861 -0.4735  1.6504
   42SOL     OW  124   1.732   1.756   0.477  0.6247 -0.6095 -0.4005
   42SOL    HW1  125   1.702   1.654   0.476  1.3917 -1.5958 -0.4792
   42SOL    HW2  126   1.765   1.791   0.383  1.2568 -0.8428  0.2217
   43SOL     OW  127   0.433   1.766   1.126 -0.6054  0.6816  0.0842
   43SOL    HW1  128   0.391   1.689   1.076 -0.3387  2.3201 -1.9870
   43SOL    HW2  129   0.412   1.761   1.229  2.1298  3.1740  0.7379
   44SOL     OW  130   1.706   2.367   2.957  0.2370  0.5887  0.3651
   44SOL    HW1  131   1.618   2.412   2.993 -0.3262 -0.8003  0.9041
   44SOL    HW2  132   1.733   2.402   2.862 -1.7256  0.9136 -0.9890
   45SOL     OW  133   0.361   1.939   2.613 -0.1375 -0.5641 -0.3557
   45SOL    HW1  134   0.297   1.933   2.532 -0.2088  2.5862 -1.1317
   45SOL    HW2  135   0.431   1.866   2.617 -0.9437  0.8829  2.4165
   46SOL     OW  136   1.307   0.717   0.251 -0.2310  0.5743 -0.6460
   46SOL    HW1  137   1.318   0.816   0.235 -1.7845 -2.0965 -0.5295
   46SOL    HW2  138   1.240   0.667   0.187  1.1788  0.0228  2.7399
   47SOL     OW  139   0.155   2.344   1.606  0.4910 -0.0813  0.3341
   47SOL    HW1  140   0.066   2.307   1.644 -0.5686 -0.1313  1.0778
   47SOL    HW2  141   0.163   2.344   1.502 -1.2462 -1.8380 -0.6450
   48SOL     OW  142   2.648   0.699   0.142  0.1819 -0.6463  0.7830
   48SOL    HW1  143   2.658   0.670   0.243  1.8224  0.3703  1.6140
   48SOL    HW2  144   2.737   0.744   0.108  0.4421  1.3244 -0.1874
   49SOL     OW  145   0.336   0.844   1.732  0.0590  0.2607 -0.0155
   49SOL    HW1  146   0.405   0.867   1.807 -4.1949  0.9355  1.7464
   49SOL    HW2  147   0.380   0.845   1.637  2.2691 -1.0407  0.0621
   50SOL     OW  148   1.681   1.099   0.326 -0.0565 -0.4487  0.4500
   50SOL    HW1  149   1.700   1.001   0.312 -1.0242  0.4868 -1.4856
   50SOL    HW2  150   1.648   1.112   0.423 -0.6666 -2.2185  1.5944
   51SOL     OW  151   2.941   1.725   0.314 -0.5913 -0.6538  0.1188
   51SOL    HW1  152   2.918   1.677   0.225 -1.1125 -1.6462  1.3355
   51SOL    HW2  153   3.024   1.680   0.360 -1.7588  0.8877  1.6000
   52SOL     OW  154   0.803   2.179   0.564  0.0954  0.1987 -0.3225
   52SOL    HW1  155   0.717   2.195   0.511 -0.7556 -1.4484  0.0615
   52SOL    HW2  156   0.787   2.128   0.651 -0.2691  1.1455  0.3637
   53SOL     OW  157   0.296   0.477   1.483  0.3540  0.3926  0.3339
   53SOL    HW1  158   0.361   0.556   1.466 -0.3228 -0.5736 -0.6305
   53SOL    HW2  159   0.209   0.494   1.431  1.4584  1.0652  1.6689
   54SOL     OW  160   1.779   0.442   0.003  0.7042  0.2269  0.1066
   54SOL    HW1  161   1.860   0.396   0.051  0.1420 -0.7421  1.1013
   54SOL    HW2  162   1.688   0.410   0.039  1.5640 -0.9889 -1.7907
   55SOL     OW  163   0.790   2.902   0.631 -0.0974 -0.2342 -0.4194
   55SOL    HW1  164   0.723   2.980   0.656  0.3725  0.9806  0.6631
   55SOL    HW2  165   0.884   2.937   0.598 -0.4395  2.4018 -0.8397
   56SOL     OW  166   0.518   1.600   3.048 -0.2674  0.6675  0.6856
   56SOL    HW1  167   0.428   1.622   3.102 -1.6943 -1.1917  2.3836
   56SOL    HW2  168   0.526   1.508   3.004  3.2568 -0.4123  2.0867
   57SOL     OW  169   1.685   2.480   2.373 -0.3554 -0.1805  0.4738
   57SOL    HW1  170   1.758   2.407   2.383  0.6232  0.9527  1.8604
   57SOL    HW2  171   1.615   2.470   2.451 -1.3424  1.1215 -0.1220
   58SOL     OW  172   0.647   0.180   1.067  0.5034 -0.4609  0.4744
   58SOL    HW1  173   0.555   0.189   1.116 -2.3467  1.5185 -0.4419
   58SOL    HW2  174   0.705   0.103   1.100 -0.8260 -1.2880 -1.1904
   59SOL     OW  175   0.457   2.367   2.583 -0.0714 -0.1183  0.1513
   59SOL    HW1  176   0.490   2.279   2.636  2.5798 -1.3304 -0.8571
   59SOL    HW2  177   0.535   2.436   2.580 -1.8214 -0.1667  0.3493
   60SOL     OW  178   2.321   2.069   2.359  0.3163 -0.1732  0.3004
   60SOL    HW1  179   2.393   2.091   2.292 -1.3874 -0.9510  1.8352
   60SOL    HW2  180   2.323   2.121   2.450  0.0643 -1.0813 -0.3625
   61SOL     OW  181   1.205   0.642   0.476 -0.0904 -0.1157  0.3805
   61SOL    HW1  182   1.102   0.654   0.499 -0.6560 -0.2942 -0.4649
   61SOL    HW2  183   1.232   0.676   0.384  0.6691 -0.4201  0.6726
   62SOL     OW  184   2.794   1.697   2.689 -0.4093  0.6832 -0.1619
   62SOL    HW1  185   2.701   1.659   2.694  0.2409 -1.0240 -1.8075
   62SOL    HW2  186   2.847   1.700   2.782 -1.3779 -1.8827 -0.1965
   63SOL     OW  187   0.535   0.824   0.203 -0.3785 -0.3686 -0.0997
   63SOL    HW1  188   0.598   0.906   0.191 -0.6803 -0.9187 -0.4778
   63SOL    HW2  189   0.543   0.779   0.300 -2.1317 -0.9197  2.2996
   64SOL     OW  190   3.045   0.566   2.379  0.7827  0.0771  0.1553
   64SOL    HW1  191   2.987   0.611   2.449  1.0690 -2.8148 -1.7933
   64SOL    HW2  192   3.031   0.607   2.285  1.0730  1.3438  1.5667
   65SOL     OW  193   0.152   1.446   0.639 -0.6550 -0.4530  0.0462
   65SOL    HW1  194   0.170   1.512   0.722 -0.7324  0.8355  1.7703
   65SOL    HW2  195   0.178   1.492   0.550  0.0763  2.4352  0.4648
   66SOL     OW  196   2.602   0.310   0.520 -0.1683  0.1633  0.1055
   66SOL    HW1  197   2.709   0.296   0.528  0.5422 -0.9768 -0.9316
   66SOL    HW2  198   2.552   0.252   0.596  3.3237 -0.3661 -2.1730
   67SOL     OW  199   0.568   2.497   1.531  0.0266 -0.4309 -0.0168
   67SOL    HW1  200   0.662   2.471   1.577  0.1663 -0.0383  0.5724
   67SOL    HW2  201   0.519   2.413   1.501 -1.4739 -0.1061  1.2856
   68SOL     OW  202   0.904   1.006   2.528  0.0266 -0.4105  0.0467
   68SOL    HW1  203   0.982   0.971   2.474 -1.9625 -2.2743  1.9014
   68SOL    HW2  204   0.841   1.068   2.471  0.5327  0.8845  0.9058
   69SOL     OW  205   0.724   2.606   2.310 -1.2124 -0.1058 -0.4207
   69SOL    HW1  206   0.739   2.534   2.237  1.6780 -1.8002  1.0854
   69SOL    HW2  207   0.640   2.657   2.292 -1.1754 -3.1233 -1.2605
   70SOL     OW  208   0.543   0.163   2.572  0.1399 -0.2703  0.3216
   70SOL    HW1  209   0.452   0.128   2.608 -0.3109 -1.3982 -1.9870
   70SOL    HW2  210   0.603   0.082   2.552  0.6476 -0.7317 -0.2821
   71SOL     OW  211   1.072   1.775   0.325  0.0396  0.8085  0.2850
   71SOL    HW1  212   0.987   1.771   0.388  0.6755 -0.1618  0.6515
   71SOL    HW2  213   1.045   1.793   0.224  1.7908 -0.2416 -0.9170
   72SOL     OW  214   1.846   0.210   2.144 -0.4123 -0.2240 -0.0167
   72SOL    HW1  215   1.876   0.301   2.103  0.3897  1.3659 -2.5673
   72SOL    HW2  216   1.907   0.126   2.119 -1.2987 -1.7441 -3.2124
   73SOL     OW  217   2.763   2.201   2.446  0.4583 -0.1912 -0.2932
   73SOL    HW1  218   2.769   2.124   2.380  0.1682  1.5102 -1.1286
   73SOL    HW2  219   2.830   2.190   2.526 -0.7036  2.3132 -0.6866
   74SOL     OW  220   2.684   2.987   2.132  0.4728  0.7129 -0.1293
   74SOL    HW1  221   2.618   2.965   2.210  2.0970 -0.9732 -2.1656
   74SOL    HW2  222   2.770   3.041   2.169  0.7570 -1.1881  1.5022
   75SOL     OW  223   0.934   0.809   1.152  0.0917  0.2724 -0.6017
   75SOL    HW1  224   0.834   0.821   1.133 -0.1924  0.7728 -1.7665
   75SOL    HW2  225   0.977   0.871   1.223 -3.3018 -0.2859 -0.6123
   76SOL     OW  226   1.837   1.270   2.593 -0.0844 -0.1093 -0.3226
   76SOL    HW1  227   1.741   1.246   2.623 -3.3760 -0.7824 -2.2776
   76SOL    HW2  228   1.879   1.335   2.660 -1.2024  3.3610  0.1328
   77SOL     OW  229   2.944   0.906   1.026 -0.4046  0.2801 -0.1671
   77SOL    HW1  230   2.893   0.824   1.063 -0.5450  1.0472 -1.2073
   77SOL    HW2  231   3.043   0.910   1.056 -0.0091 -0.3689 -0.2278
   78SOL     OW  232   1.942   1.464   1.291 -0.3504  0.3213 -0.7332
   78SOL    HW1  233   2.030   1.431   1.244  1.0218 -0.5504 -0.5404
   78SOL    HW2  234   1.865   1.491   1.229  1.6689 -1.5175 -0.9157
   79SOL     OW  235   0.644   1.496   0.842  0.0122  0.4138 -0.1322
   79SOL    HW1  236   0.539   1.491   0.845 -2.8831 -1.3073 -1.6166
   79SOL    HW2  237   0.688   1.406   0.821  2.1704  0.6675  0.1735
   80SOL     OW  238   0.702   0.464   1.571  0.3492 -0.4881  0.0039
   80SOL    HW1  239   0.696   0.523   1.482 -2.7917  0.8501 -0.8856
   80SOL    HW2  240   0.675   0.363   1.566 -1.2514  2.0247  0.4374
   81SOL     OW  241   1.056   1.295   2.457  0.0667 -0.0071 -0.5465
   81SOL    HW1  242   0.958   1.330   2.435 -0.0561  2.4526 -0.8463
   81SOL    HW2  243   1.091   1.221   2.391 -1.0573 -1.2778 -1.6074
   82SOL     OW  244   0.947   2.937   1.650  0.2491  0.0280  0.3958
   82SOL    HW1  245   0.997   2.865   1.602  0.7276  1.8537  3.2292
   82SOL    HW2  246   0.956   3.027   1.596 -1.6741  0.3159 -0.8598
   83SOL     OW  247   2.632   2.361   0.903  0.3163  0.5443 -0.1048
   83SOL    HW1  248   2.543   2.315   0.893  0.5604  1.5764  1.1832
   83SOL    HW2  249   2.626   2.467   0.900 -0.1164 -0.0052  1.1370
   84SOL     OW  250   0.773   3.068   2.335  0.6584  0.5042  0.3798
   84SOL    HW1  251   0.742   3.073   2.431  2.2268  0.9391 -2.1098
   84SOL    HW2  252   0.809   2.974   2.311 -3.6053 -2.2156 -0.0285
   85SOL     OW  253   0.261   1.697   1.349 -0.3614  0.3888  0.6516
   85SOL    HW1  254   0.235   1.786   1.399 -2.6433 -0.2271 -0.1974
   85SOL    HW2  255   0.295   1.624   1.421  2.7274 -0.6861  1.7254
   86SOL     OW  256   0.466   1.064   1.401  0.1994  0.0328 -0.1532
   86SOL    HW1  257   0.437   1.054   1.300 -1.3448  3.0222  1.5676
   86SOL    HW2  258   0.550   1.015   1.435 -1.5087 -2.3292  0.5908
   87SOL     OW  259   1.616   0.665   0.358 -0.3423  0.2299 -0.1412
   87SOL    HW1  260   1.676   0.737   0.308  0.4259  0.9715  0.5400
   87SOL    HW2  261   1.523   0.641   0.313  0.4743  0.9811 -0.3543
   88SOL     OW  262   1.542   1.348   0.289 -0.3783  0.3240  0.5624
   88SOL    HW1  263   1.605   1.258   0.282  0.4156  2.5511 -2.5795
   88SOL    HW2  264   1.441   1.330   0.278  0.0967  0.1964  2.1872
   89SOL     OW  265   3.058   0.351   0.654  0.1769  0.1392 -0.6425
   89SOL    HW1  266   3.161   0.358   0.639  0.1072  0.6878  1.1946
   89SOL    HW2  267   3.009   0.272   0.602 -3.2637  1.0643 -3.2609
   90SOL     OW  268   0.756   1.572   0.131 -0.2942  0.3158  0.6214
   90SOL    HW1  269   0.861   1.581   0.132 -1.4307  2.2541  1.1886
   90SOL    HW2  270   0.716   1.551   0.039  2.5803 -2.9159 -0.0858
   91SOL     OW  271   1.270   1.534   1.664 -0.4021 -0.2040  0.0875
   91SOL    HW1  272   1.237   1.534   1.759  2.3557 -1.0197  1.1729
   91SOL    HW2  273   1.357   1.485   1.654  0.9408  2.6632 -0.3837
   92SOL     OW  274   0.074   0.969   1.145  0.4422 -0.1565 -0.2079
   92SOL    HW1  275   0.088   1.062   1.104 -1.4008  1.7893 -1.8876
   92SOL    HW2  276   0.080   0.969   1.247 -0.5979  0.6832  2.2721
   93SOL     OW  277   3.026   2.673   0.061 -0.4145  0.2381  0.1628
   93SOL    HW1  278   2.988   2.667  -0.033  3.3728  0.6807  0.3796
   93SOL    HW2  279   3.085   2.596   0.086  1.4633  3.6380  0.4198
   94SOL     OW  280   1.552   1.424   1.625  0.1773  0.6547 -0.5104
   94SOL    HW1  281   1.571   1.336   1.671  1.1080  1.5266  0.6823
   94SOL    HW2  282   1.633   1.473   1.591 -1.1235 -0.3089 -0.5441
   95SOL     OW  283   1.411   2.472   2.931  0.7274 -0.2121 -0.3862
   95SOL    HW1  284   1.315   2.465   2.975 -1.3133 -0.3805 -0.1188
   95SOL    HW2  285   1.426   2.396   2.865  3.4079  0.7211 -0.0386
   96SOL     OW  286   0.598   2.156   1.269 -0.0238 -0.6995  0.1675
   96SOL    HW1  287   0.544   2.113   1.191  1.1292 -0.7551 -1.2140
   96SOL    HW2  288   0.642   2.089   1.335 -0.5246  0.7494  0.1147
   97SOL     OW  289   0.282   1.616   2.408  0.3021 -0.0079  0.1866
   97SOL    HW1  290   0.243   1.707   2.429  0.6317  1.7300  0.0075
   97SOL    HW2  291   0.282   1.557   2.491  1.2132 -0.6283 -1.2992
   98SOL     OW  292   2.271   1.678   1.216 -0.0775  0.2921 -0.2267
   98SOL    HW1  293   2.242   1.578   1.190  1.3662  1.4060  0.1085
   98SOL    HW2  294   2.363   1.703   1.171  1.1738 -2.5104 -2.7341
   99SOL     OW  295   2.619   2.087   1.263 -0.6750  0.2949  0.7005
   99SOL    HW1  296   2.662   2.128   1.349 -1.8456  1.5987  2.8583
   99SOL    HW2  297   2.540   2.033   1.291  0.4238  0.1223 -1.0387
  100SOL     OW  298   2.335   0.387   2.118 -0.0580 -0.0802  0.2543
  100SOL    HW1  299   2.299   0.380   2.219  1.6026 -0.4657  0.7119
  100SOL    HW2  300   2.436   0.406   2.112 -2.7469 -1.0269 -1.6768
  101SOL     OW  301   0.334   1.496   0.408  0.4615 -0.4268  0.4325
  101SOL    HW1  302   0.348   1.566   0.489  0.5506 -0.0207  1.4827
  101SOL    HW2  303   0.423   1.450   0.368  1.0813 -4.6736  3.0550
  102SOL     OW  304   2.293   1.045   0.891  0.2790  0.2840  0.1264
  102SOL    HW1  305   2.275   0.946   0.884 -1.2012  0.8193 -2.7015
  102SOL    HW2  306   2.352   1.082   0.808  1.0076 -0.0271 -1.5766
  103SOL     OW  307   2.251   0.053   0.350  0.0490 -0.0626 -0.6308
  103SOL    HW1  308   2.260   0.146   0.317 -0.1527  1.0954  0.9374
  103SOL    HW2  309   2.336   0.022   0.397 -1.9628 -0.6843 -3.0116
  104SOL     OW  310   0.036   1.820   2.185  0.4752  0.1886  0.2421
  104SOL    HW1  311   0.080   1.826   2.087 -1.9668  0.8040 -3.1063
  104SOL    HW2  312  -0.064   1.825   2.178  2.8856 -0.1133 -0.1592
  105SOL     OW  313   1.267   2.090   0.796 -0.3671  0.1114  0.1859
  105SOL    HW1  314   1.185   2.076   0.739  0.6409 -1.3742  2.5833
  105SOL    HW2  315   1.352   2.041   0.762 -0.9609  0.9598 -1.6557
  106SOL     OW  316   2.134   0.401   1.449  0.0382 -0.2677  0.4009
  106SOL    HW1  317   2.044   0.347   1.445 -2.6763  1.1202  1.1904
  106SOL    HW2  318   2.145   0.450   1.538  2.5570  2.1598  0.2965
  107SOL     OW  319   1.929   2.919   1.184  0.4283  0.4248  0.5201
  107SOL    HW1  320   1.860   2.990   1.226 -0.7552  0.3481 -0.9294
  107SOL    HW2  321   1.872   2.844   1.138 -1.8199  0.2281  0.2979
  108SOL     OW  322   0.905   2.778   1.079 -0.3112  0.1389  0.2000
  108SOL    HW1  323   0.924   2.694   1.018  3.5092  0.8192  0.2426
  108SOL    HW2  324   0.993   2.822   1.119  0.7383  4.0533 -1.7416
  109SOL     OW  325   2.195   0.115   0.747  0.0063 -0.3509 -0.1095
  109SOL    HW1  326   2.146   0.038   0.696 -0.7553  0.1252  0.8056
  109SOL    HW2  327   2.164   0.126   0.845  0.4323 -0.3090  0.3615
  110SOL     OW  328   0.503   2.827   2.782 -0.0725 -0.3379  1.3116
  110SOL    HW1  329   0.516   2.839   2.678  1.1580 -0.3232  1.5506
  110SOL    HW2  330   0.546   2.737   2.820 -0.2748 -0.3919  0.1215
  111SOL     OW  331   1.318   0.627   2.367  0.0595 -0.0582 -0.0922
  111SOL    HW1  332   1.219   0.646   2.400  0.1920  0.1304  2.4041
  111SOL    HW2  333   1.357   0.543   2.413 -0.6891  0.7790  0.5739
  112SOL     OW  334   1.754   0.534   1.518 -0.1849  0.3237 -0.2928
  112SOL    HW1  335   1.710   0.549   1.422  2.7065  0.2004  0.5804
  112SOL    HW2  336   1.693   0.561   1.590  0.2400 -1.5109 -1.2545
  113SOL     OW  337   2.276   1.693   1.772  0.1420  0.5191 -0.3010
  113SOL    HW1  338   2.335   1.607   1.744  0.8740 -1.4007  0.0008
  113SOL    HW2  339   2.278   1.708   1.871  1.1627  0.5292 -0.7892
  114SOL     OW  340   0.311   0.440   1.178  0.4040  0.2633  0.3651
  114SOL    HW1  341   0.212   0.457   1.153  2.0594  1.4290 -0.8309
  114SOL    HW2  342   0.373   0.500   1.128  0.1137  0.5613 -1.7668
  115SOL     OW  343   2.704   1.576   1.271  0.5128  0.6175  0.0764
  115SOL    HW1  344   2.684   1.474   1.284  1.6176  0.7951 -0.0706
  115SOL    HW2  345   2.805   1.587   1.251 -2.5632  1.8846 -0.0569
  116SOL     OW  346   1.881   0.930   0.659 -0.4388  0.4183  0.2994
  116SOL    HW1  347   1.784   0.893   0.644  2.5451 -1.5096  0.3019
  116SOL    HW2  348   1.894   1.024   0.696 -0.5300 -2.5728  3.0530
  117SOL     OW  349   1.104   0.375   0.537 -0.1155  0.2082 -0.2936
  117SOL    HW1  350   1.165   0.462   0.542  0.2721  2.7274 -0.3743
  117SOL    HW2  351   1.070   0.339   0.443 -0.8403 -1.9572  0.9037
  118SOL     OW  352   1.140   1.227   1.119 -0.1104 -0.1258  0.2843
  118SOL    HW1  353   1.141   1.211   1.223 -0.5946 -0.8749  1.0367
  118SOL    HW2  354   1.184   1.317   1.095 -2.7045 -1.6721  3.0786
  119SOL     OW  355   1.903   1.609   2.232  0.6487  0.3294  0.4396
  119SOL    HW1  356   1.840   1.667   2.172 -0.1553 -0.2067 -1.6443
  119SOL    HW2  357   1.978   1.557   2.181  0.4870  1.7923  1.9566
  120SOL     OW  358   2.975   2.816   0.294 -0.5258  0.2457 -0.1937
  120SOL    HW1  359   3.002   2.747   0.217 -0.3790 -0.0194 -0.4948
  120SOL    HW2  360   2.870   2.820   0.317  1.6982  0.5046 -0.9530
  121SOL     OW  361   2.002   0.793   2.331 -0.4290  0.1183  0.1682
  121SOL    HW1  362   2.030   0.863   2.266 -1.0710 -2.7447  0.2514
  121SOL    HW2  363   2.027   0.694   2.307  0.1441 -1.5773  2.4531
  122SOL     OW  364   2.583   2.470   1.397 -0.7141 -0.0510  0.3686
  122SOL    HW1  365   2.643   2.402   1.337 -0.9423  1.0519 -2.0747
  122SOL    HW2  366   2.571   2.443   1.496  1.3238 -0.9915 -0.3288
  123SOL     OW  367   1.650   0.194   1.647  0.2715 -0.3475  0.2764
  123SOL    HW1  368   1.689   0.101   1.617  0.5327  0.8359  0.5089
  123SOL    HW2  369   1.726   0.261   1.679  1.0940  0.2285  0.2890
  124SOL     OW  370   3.026   0.407   1.162  0.1743  0.5962  0.4028
  124SOL    HW1  371   2.943   0.454   1.203 -4.1362 -0.7870 -1.8913
  124SOL    HW2  372   3.061   0.451   1.070 -3.2447  1.6603 -0.6795
  125SOL     OW  373   0.922   1.934   0.729  0.3362  0.1008  0.2646
  125SOL    HW1  374   0.988   1.862   0.767 -1.4833  0.6019  1.6620
  125SOL    HW2  375   0.845   1.955   0.790 -0.4961 -0.0565  1.1052
  126SOL     OW  376   1.913   2.276   2.430 -0.2017 -0.1839  0.5374
  126SOL    HW1  377   1.992   2.261   2.362 -1.2318 -0.9373  1.4368
  126SOL    HW2  378   1.914   2.203   2.506 -0.9576 -1.1520  1.4172
  127SOL     OW  379   0.957   0.945   0.184  0.6987  0.3279  0.2075
  127SOL    HW1  380   0.963   0.981   0.279 -1.2707  1.0732 -1.4116
  127SOL    HW2  381   0.916   0.849   0.182  0.9798 -0.0876  0.3144
  128SOL     OW  382   0.891   0.185   1.399 -0.2746  0.1481 -0.0115
  128SOL    HW1  383   0.874   0.260   1.333  0.9397  0.1947  0.9347
  128SOL    HW2  384   0.846   0.101   1.362  0.9210  0.9401  0.9163
  129SOL     OW  385   1.902   0.685   1.876 -0.0179 -0.0994  0.6969
  129SOL    HW1  386   1.921   0.692   1.775  0.2516 -2.0637 -1.5696
  129SOL    HW2  387   1.909   0.777   1.923  1.6764 -0.8396 -1.9364
  130SOL     OW  388   1.394   2.194   1.012 -0.1768  0.3607 -0.5496
  130SOL    HW1  389   1.343   2.158   0.926 -0.8883  0.9751  0.3445
  130SOL    HW2  390   1.445   2.284   0.988 -0.4844  1.4859 -1.6903
  131SOL     OW  391   3.039   1.391   1.409 -0.4964  0.1400 -0.4058
  131SOL    HW1  392   3.006   1.299   1.393 -0.6400 -0.6955 -3.4904
  131SOL    HW2  393   3.141   1.394   1.393 -1.7499 -1.3137 -1.2862
  132SOL     OW  394   2.040   2.438   0.545 -0.2498  0.2590 -0.5041
  132SOL    HW1  395   1.939   2.452   0.531 -0.2184 -1.5731  0.6633
  132SOL    HW2  396   2.050   2.355   0.613  0.8453 -3.8135  0.0227
  133SOL     OW  397   1.748   2.478   2.712 -0.0070 -0.4640  0.1265
  133SOL    HW1  398   1.665   2.457   2.657 -1.3271 -0.6248 -0.7049
  133SOL    HW2  399   1.762   2.578   2.739  3.1732 -0.3593 -2.0863
  134SOL     OW  400   2.577   2.408   1.665 -0.0104  0.4841  0.3080
  134SOL    HW1  401   2.535   2.364   1.753  1.6325 -1.7073  0.6435
  134SOL    HW2  402   2.637   2.492   1.689  0.7874  0.5135 -2.0512
  135SOL     OW  403   0.786   1.322   2.660 -0.2287  0.3410 -0.2811
  135SOL    HW1  404   0.706   1.289   2.721  0.3944 -0.5412  0.5714
  135SOL    HW2  405   0.761   1.351   2.563 -1.4412 -2.0781  3.9065
  136SOL     OW  406   1.207   2.014   0.418  0.3481  0.2118 -0.2310
  136SOL    HW1  407   1.151   2.095   0.455 -0.2472  2.0131  1.2425
  136SOL    HW2  408   1.157   1.921   0.423 -2.6083 -0.1689 -0.6344
  137SOL     OW  409   0.455   1.155   2.259 -0.0005  0.6385 -0.2885
  137SOL    HW1  410   0.352   1.140   2.254  0.8540 -2.5457 -2.3300
  137SOL    HW2  411   0.506   1.076   2.297  0.3025  2.9255 -0.5366
  138SOL     OW  412   2.424   1.503   0.298 -0.1180  0.9991  0.3919
  138SOL    HW1  413   2.342   1.468   0.246 -1.4617 -1.2648  1.5702
  138SOL    HW2  414   2.498   1.422   0.301 -0.1417 -1.7116  0.6422
  139SOL     OW  415   1.917   2.632   1.558  0.1278  0.0858 -0.5967
  139SOL    HW1  416   1.819   2.648   1.528 -2.4805 -0.4593  0.9312
  139SOL    HW2  417   1.962   2.564   1.494 -0.5094  0.3345 -0.0209
  140SOL     OW  418   3.044   3.017   2.643 -0.0111  0.1778  0.3224
  140SOL    HW1  419   3.036   2.915   2.610 -1.6590 -3.4646 -2.2778
  140SOL    HW2  420   3.098   3.078   2.573 -0.8254  1.5489 -1.8480
  141SOL     OW  421   1.267   1.624   1.427 -0.1271 -0.4839 -0.7899
  141SOL    HW1  422   1.179   1.667   1.384 -1.9018  1.2866 -1.9448
  141SOL    HW2  423   1.256   1.589   1.525  1.4665  0.4448 -0.4484
  142SOL     OW  424   1.589   0.652   2.235 -0.0554  0.3703  0.1039
  142SOL    HW1  425   1.612   0.608   2.147  0.4120  0.5867  0.8863
  142SOL    HW2  426   1.496   0.629   2.274  1.7695 -1.0529 -0.6145
  143SOL     OW  427   2.820   0.785   0.564  0.0282 -0.1147  0.1283
  143SOL    HW1  428   2.855   0.853   0.494  1.7010 -2.5008  0.2155
  143SOL    HW2  429   2.832   0.820   0.663  2.0420 -0.0454  0.4791
  144SOL     OW  430   2.936   1.098   1.410  0.2036 -0.1253 -0.3182
  144SOL    HW1  431   2.907   1.091   1.510  0.6363  1.4806  1.7034
  144SOL    HW2  432   3.025   1.052   1.388 -1.0461 -0.7509 -0.2576
  145SOL     OW  433   0.958   1.846   0.048 -0.2935  0.9459  0.3590
  145SOL    HW1  434   0.994   1.867  -0.046  0.4479  0.2501 -1.7695
  145SOL    HW2  435   0.874   1.785   0.045  0.6730 -0.3756  0.9641
  146SOL     OW  436   2.467   0.626   1.536 -0.5906 -0.2104  0.0183
  146SOL    HW1  437   2.444   0.537   1.487  0.3806  3.5849 -0.8663
  146SOL    HW2  438   2.394   0.695   1.510 -3.3409  0.5717  0.1145
  147SOL     OW  439   1.065   2.505   0.529 -0.4758 -0.3831 -0.4638
  147SOL    HW1  440   1.007   2.568   0.470 -3.1449 -0.9892 -1.0470
  147SOL    HW2  441   1.162   2.492   0.494 -2.0794 -1.9301 -1.1028
  148SOL     OW  442   1.569   1.388   0.002 -0.2028 -0.3782  0.1305
  148SOL    HW1  443   1.584   1.286  -0.006 -2.4947 -1.0839  0.0963
  148SOL    HW2  444   1.558   1.424   0.101 -0.7908 -0.8771 -0.9912
  149SOL     OW  445   0.701   1.467   1.979  0.3773  0.1317 -0.5093
  149SOL    HW1  446   0.615   1.441   2.037  0.2024  1.4957  0.0172
  149SOL    HW2  447   0.701   1.429   1.885  1.8237  0.1184  0.3869
  150SOL     OW  448   2.949   1.224   1.010  0.3196  0.4934  0.1311
  150SOL    HW1  449   3.024   1.277   1.052  1.7306 -2.5839  1.3624
  150SOL    HW2  450   2.940   1.122   1.040 -0.6599 -3.9988 -2.0407
  151SOL     OW  451   0.141   0.831   2.113 -0.0482  0.0386  0.1203
  151SOL    HW1  452   0.145   0.928   2.075 -0.1734  0.2834 -0.3890
  151SOL    HW2  453   0.215   0.764   2.082 -1.1423  0.6031 -1.5913
  152SOL     OW  454   1.419   1.875   1.113 -0.4273 -0.1322  0.0643
  152SOL    HW1  455   1.472   1.965   1.106 -1.9775  0.4683 -0.4333
  152SOL    HW2  456   1.317   1.894   1.099  1.4135 -0.2179 -0.0098
  153SOL     OW  457   0.068   1.511   0.253 -0.0234  0.1606 -0.1841
  153SOL    HW1  458  -0.013   1.449   0.268  1.2042 -0.7317 -1.1058
  153SOL    HW2  459   0.100   1.562   0.341  3.9448  0.5644 -0.5506
  154SOL     OW  460   2.253   1.882   2.790 -0.3811  0.3538  0.0391
  154SOL    HW1  461   2.248   1.783   2.784  0.6942  0.8761  1.4351
  154SOL    HW2  462   2.344   1.921   2.757  1.1873 -0.4081 -0.3329
  155SOL     OW  463   2.628   1.345   0.360  0.1691  0.0583  0.0990
  155SOL    HW1  464   2.655   1.429   0.415 -0.1474  0.6003  0.5980
  155SOL    HW2  465   2.712   1.289   0.332 -1.1902 -2.8598  1.5345
  156SOL     OW  466   2.518   0.814   0.752 -0.0890 -0.1960 -0.6579
  156SOL    HW1  467   2.415   0.807   0.748  2.0393  1.3914 -0.3122
  156SOL    HW2  468   2.560   0.843   0.664 -0.0670 -1.1237  1.9936
  157SOL     OW  469   1.223   0.009   3.026  0.0959  0.4567  0.1690
  157SOL    HW1  470   1.262  -0.041   2.943 -2.5237  0.7364  0.6024
  157SOL    HW2  471   1.275   0.102   3.039 -1.7361  1.5599 -0.5232
  158SOL     OW  472   1.058   1.830   1.861 -0.1024 -0.8370 -0.0937
  158SOL    HW1  473   1.107   1.919   1.839 -3.3389 -0.5077 -0.9059
  158SOL    HW2  474   0.983   1.844   1.938 -3.5436  0.0273  3.3567
  159SOL     OW  475   0.808   0.368   1.197  0.2162 -0.1861 -0.2725
  159SOL    HW1  476   0.773   0.462   1.204 -0.5790 -1.2325 -2.5582
  159SOL    HW2  477   0.733   0.312   1.150 -0.8219  0.5772 -0.8866
  160SOL     OW  478   1.375   2.461   1.446  0.1308 -0.5791  0.4231
  160SOL    HW1  479   1.341   2.396   1.522  1.8092 -0.4072  1.9707
  160SOL    HW2  480   1.476   2.448   1.418 -1.4454  0.7060 -3.3769
  161SOL     OW  481   0.061   2.660   0.401  0.3248 -0.1825  0.1133
  161SOL    HW1  482   0.013   2.570   0.409  0.6555  1.3518  0.1623
  161SOL    HW2  483  -0.000   2.736   0.373  2.5721 -1.3959 -1.1376
  162SOL     OW  484   2.564   1.940   0.465  0.4567  0.3022  0.2472
  162SOL    HW1  485   2.632   1.912   0.388  1.3030  0.8358 -1.6420
  162SOL    HW2  486   2.507   1.852   0.487 -2.2659 -3.3140 -1.3268
  163SOL     OW  487   1.902   2.693   0.813 -0.6540  0.0050 -0.2933
  163SOL    HW1  488   1.876   2.713   0.714  2.8787 -1.4246 -1.1155
  163SOL    HW2  489   1.991   2.637   0.816 -1.9848  0.3827  0.4895
  164SOL     OW  490   3.035   0.147   1.248 -0.2080 -0.4609  0.2353
  164SOL    HW1  491   3.032   0.253   1.224 -1.1458  1.2555 -0.4668
  164SOL    HW2  492   3.100   0.140   1.330 -0.6220  0.5273  1.5081
  165SOL     OW  493   1.098   1.389   0.647 -0.3032 -0.5907 -0.0557
  165SOL    HW1  494   1.079   1.456   0.722  0.0538  1.3306 -2.8191
  165SOL    HW2  495   1.054   1.422   0.557 -2.7016  0.5009 -0.3132
  166SOL     OW  496   1.555   0.923   1.812 -0.1029  0.2172 -0.4497
  166SOL    HW1  497   1.460   0.957   1.831  0.3700 -3.0928 -1.6377
  166SOL    HW2  498   1.619   1.004   1.794 -0.9538 -0.8947 -0.2814
  167SOL     OW  499   0.671   2.026   1.515 -0.3665  0.1705  0.0367
  167SOL    HW1  500   0.641   2.110   1.570  0.2463  0.7606 -1.2693
  167SOL    HW2  501   0.623   1.936   1.540 -1.8749  0.2495  0.8144
  168SOL     OW  502   1.681   2.310   0.140  0.3791  0.1359  0.3929
  168SOL    HW1  503   1.759   2.284   0.072 -0.1916 -0.6366  0.9472
  168SOL    HW2  504   1.698   2.280   0.237 -0.4004  1.3673 -1.8013
  169SOL     OW  505   3.048   2.592   2.160  0.2044  0.0722  0.1564
  169SOL    HW1  506   3.092   2.540   2.080 -0.0175  1.2391  0.8289
  169SOL    HW2  507   3.093   2.556   2.251  1.4293 -1.5225  0.4570
  170SOL     OW  508   1.163   0.144   2.110 -0.3874  0.1606  0.2880
  170SOL    HW1  509   1.263   0.161   2.136  1.3284 -0.5974 -0.7394
  170SOL    HW2  510   1.151   0.127   2.010  0.0051 -3.2049 -0.2093
  171SOL     OW  511   0.173   0.880   2.439 -0.2259  0.4273  0.0759
  171SOL    HW1  512   0.080   0.872   2.481 -0.7684  0.2463 -0.0357
  171SOL    HW2  513   0.176   0.892   2.334 -2.7728 -1.8954  0.2578
  172SOL     OW  514   0.996   1.000   2.786  0.3976  0.2035  0.5457
  172SOL    HW1  515   0.942   1.034   2.866 -0.0911  1.0030  0.5193
  172SOL    HW2  516   0.953   1.033   2.695 -1.8013  1.5968  0.1129
  173SOL     OW  517   0.344   2.555   3.037 -0.7710  0.1382 -0.7205
  173SOL    HW1  518   0.327   2.525   2.939  0.6406  0.0151 -1.6296
  173SOL    HW2  519   0.389   2.489   3.103 -0.5210 -0.1903  1.1424
  174SOL     OW  520   1.461   2.862   0.982  0.2028  0.6534 -0.1903
  174SOL    HW1  521   1.550   2.898   0.948 -1.0862  0.5773  0.7082
  174SOL    HW2  522   1.438   2.763   0.956  0.8890  0.6043  1.2360
  175SOL     OW  523   0.440   3.088   1.702 -0.7126  0.4852 -0.1036
  175SOL    HW1  524   0.497   3.102   1.790 -1.2835 -1.0667  0.4071
  175SOL    HW2  525   0.417   3.181   1.659 -1.2747  0.0027  0.4455
  176SOL     OW  526   2.529   0.477   0.053 -0.0972 -0.3501 -0.0115
  176SOL    HW1  527   2.581   0.560   0.086  0.2478 -2.2704 -0.8316
  176SOL    HW2  528   2.475   0.437   0.131  2.8315 -1.6671 -1.7881
  177SOL     OW  529   0.333   0.117   0.804 -0.5523 -0.3469 -0.1163
  177SOL    HW1  530   0.303   0.028   0.840 -2.6974 -1.6301 -1.5127
  177SOL    HW2  531   0.435   0.128   0.807  0.0379 -0.9578 -0.5711
  178SOL     OW  532   0.009   2.713   2.626 -0.2202  0.2447 -0.3252
  178SOL    HW1  533  -0.036   2.617   2.632 -1.4221 -0.7262 -0.8255
  178SOL    HW2  534   0.101   2.724   2.673  0.0299 -1.1793 -2.6171
  179SOL     OW  535   2.972   1.588   1.244  0.4571 -0.4192  0.0883
  179SOL    HW1  536   3.034   1.621   1.168 -0.3124 -0.1064 -0.1444
  179SOL    HW2  537   3.005   1.502   1.293 -2.7751  0.8578 -0.5040
  180SOL     OW  538   0.280   1.377   1.736 -0.2024 -0.5741 -0.4999
  180SOL    HW1  539   0.353   1.338   1.800 -1.2107  2.0316  0.5249
  180SOL    HW2  540   0.204   1.417   1.796 -3.1920 -1.7632  1.9889
  181SOL     OW  541   3.010   1.752   2.471  0.3678 -0.0739 -0.3432
  181SOL    HW1  542   3.049   1.745   2.374  3.6746  0.9305  0.7717
  181SOL    HW2  543   2.920   1.801   2.464  2.0569 -2.7079 -5.2563
  182SOL     OW  544   2.207   1.408   1.198  0.1280  0.1751  0.4135
  182SOL    HW1  545   2.223   1.322   1.260  1.5522 -1.4278  0.4189
  182SOL    HW2  546   2.222   1.387   1.099  1.5363 -0.4378  2.4693
  183SOL     OW  547   1.393   2.222   2.453 -0.2630 -0.3947  0.4462
  183SOL    HW1  548   1.324   2.139   2.461 -0.5562 -1.8546  1.2438
  183SOL    HW2  549   1.492   2.185   2.449 -0.4992  1.9231 -0.5030
  184SOL     OW  550   2.237   0.787   0.819  0.3524  0.1435 -0.1331
  184SOL    HW1  551   2.143   0.805   0.780 -0.4097 -0.1846 -1.1207
  184SOL    HW2  552   2.265   0.686   0.821 -0.0433 -2.7911  0.2283
  185SOL     OW  553   1.587   2.737   2.021  0.2974  0.0409 -0.1770
  185SOL    HW1  554   1.516   2.813   2.020  0.0074  0.4698 -0.7598
  185SOL    HW2  555   1.642   2.735   2.109  2.7091 -0.4965  0.0372
  186SOL     OW  556   0.010   2.138   1.806 -0.3736 -0.4761  0.0042
  186SOL    HW1  557  -0.017   2.218   1.864 -0.4137  2.6830 -2.8636
  186SOL    HW2  558   0.101   2.137   1.758 -0.7634  0.0846  0.5414
  187SOL     OW  559   1.308   0.662   1.668 -0.0916 -0.6643  0.4911
  187SOL    HW1  560   1.395   0.698   1.617 -0.7849  1.1139  0.7615
  187SOL    HW2  561   1.335   0.602   1.744 -1.4604  1.4232  0.7961
  188SOL     OW  562   2.706   2.665   1.574  0.3579 -0.0925  0.2983
  188SOL    HW1  563   2.674   2.761   1.604 -0.0282  0.9590 -1.7969
  188SOL    HW2  564   2.661   2.633   1.488  2.2326  0.0913  2.1336
  189SOL     OW  565   0.867   1.148   1.410 -0.0716 -0.6081  0.5548
  189SOL    HW1  566   0.940   1.192   1.473  1.5690 -1.1320  0.0700
  189SOL    HW2  567   0.834   1.210   1.333 -1.0142 -0.9306  0.0732
  190SOL     OW  568   1.412   1.841   1.522 -0.3847  0.3643  0.0247
  190SOL    HW1  569   1.374   1.750   1.502 -0.6919  1.8725  2.9954
  190SOL    HW2  570   1.407   1.865   1.626 -1.1034 -1.7651  0.6318
  191SOL     OW  571   0.877   0.758   1.499  0.0730 -0.1525  0.2667
  191SOL    HW1  572   0.900   0.680   1.560  1.2287  0.8098 -3.3544
  191SOL    HW2  573   0.951   0.796   1.435 -0.8147 -1.1589 -0.1146
  192SOL     OW  574   1.838   2.430   1.130 -0.1173 -0.6440 -0.0108
  192SOL    HW1  575   1.750   2.383   1.117  0.0105  4.1119  1.9632
  192SOL    HW2  576   1.921   2.392   1.080  3.5010  1.8497  0.6262
  193SOL     OW  577   0.493   0.493   0.385 -0.0492 -0.2740 -0.1765
  193SOL    HW1  578   0.436   0.408   0.383  0.7552  2.1555 -2.0004
  193SOL    HW2  579   0.558   0.505   0.301 -1.6059 -0.0074  0.1297
  194SOL     OW  580   0.409   0.741   1.213  0.5685 -0.7287 -0.3743
  194SOL    HW1  581   0.309   0.726   1.227 -0.3451  0.8209  1.1785
  194SOL    HW2  582   0.444   0.707   1.121 -1.4417 -0.7568 -0.0534
  195SOL     OW  583   1.025   2.927   0.516 -0.2270  0.6015 -0.1083
  195SOL    HW1  584   0.994   2.855   0.447  0.7196  0.3410  1.3177
  195SOL    HW2  585   1.125   2.953   0.501 -1.7071  2.2450 -2.3197
  196SOL     OW  586   0.209   1.368   1.355 -0.2891  0.5358  0.1210
  196SOL    HW1  587   0.246   1.463   1.380  3.1647  0.4781 -3.0761
  196SOL    HW2  588   0.251   1.297   1.420  1.5563 -0.1582  0.6235
  197SOL     OW  589   0.790   1.972   0.242  0.3658 -0.1412  0.3680
  197SOL    HW1  590   0.826   1.976   0.340 -0.3938  0.4304 -1.3303
  197SOL    HW2  591   0.862   1.976   0.171  1.0155  0.9187  0.8845
  198SOL     OW  592   0.297   1.221   0.314 -0.0740  0.0864  0.3475
  198SOL    HW1  593   0.219   1.162   0.282  0.0210  2.5514 -0.0876
  198SOL    HW2  594   0.265   1.315   0.343  0.8745 -0.0522 -0.4596
  199SOL     OW  595   2.262   0.408   2.642 -0.0341  0.1575 -0.1905
  199SOL    HW1  596   2.192   0.391   2.722 -0.6267  0.8434 -0.1542
  199SOL    HW2  597   2.358   0.368   2.664 -1.1580 -1.2550 -1.5090
  200SOL     OW  598   3.074   2.890   0.752  0.1664  0.0369 -0.3578
  200SOL    HW1  599   3.097   2.982   0.796  0.4628  0.5698  0.8004
  200SOL    HW2  600   2.977   2.887   0.715  0.7648 -1.3532  2.3911
  201SOL     OW  601   0.937   0.661   0.502 -0.7099  0.3852 -0.3368
  201SOL    HW1  602   0.923   0.745   0.560  0.4955 -1.9434 -2.8177
  201SOL    HW2  603   0.854   0.601   0.514 -0.2748 -1.0208  0.8371
  202SOL     OW  604   0.456   1.284   1.906 -0.1082 -0.1542 -0.1582
  202SOL    HW1  605   0.550   1.251   1.874 -0.0188 -1.2809  2.0396
  202SOL    HW2  606   0.459   1.333   1.999  0.9312  1.4154 -0.3249
  203SOL     OW  607   0.629   0.181   1.580 -0.2310  0.4503  0.3448
  203SOL    HW1  608   0.675   0.130   1.500  0.1503  0.5988  1.5259
  203SOL    HW2  609   0.685   0.170   1.667 -1.2957  0.5691 -0.2393
  204SOL     OW  610   2.071   1.845   2.982 -0.4862 -0.1022 -0.1677
  204SOL    HW1  611   2.053   1.742   2.978  1.3525 -2.4626  1.4713
  204SOL    HW2  612   2.152   1.881   2.921  2.6540  2.3752  1.0338
  205SOL     OW  613   1.785   1.893   3.008 -0.4189 -0.0186  0.1037
  205SOL    HW1  614   1.884   1.869   3.005 -2.0499  0.2210  0.7572
  205SOL    HW2  615   1.764   1.979   2.953  1.3431  0.8442  1.0360
  206SOL     OW  616   2.389   2.723   0.305  0.7314 -0.2125  0.0524
  206SOL    HW1  617   2.349   2.688   0.396 -1.6884  2.9345 -0.3056
  206SOL    HW2  618   2.474   2.672   0.265  0.7817 -0.3744  1.0862
  207SOL     OW  619   0.718   1.744   2.909 -0.2220  0.9191  0.1494
  207SOL    HW1  620   0.807   1.698   2.883 -0.6564 -0.5158  0.9079
  207SOL    HW2  621   0.642   1.684   2.947  1.1453  1.8742 -2.4636
  208SOL     OW  622   1.030   1.585   1.213 -0.3380  0.3811 -0.2438
  208SOL    HW1  623   0.956   1.601   1.141  0.0903 -1.3916  1.7477
  208SOL    HW2  624   0.986   1.588   1.310  1.2406  0.2029  2.0248
  209SOL     OW  625   0.242   1.013   3.066  0.0700 -0.3090  0.2206
  209SOL    HW1  626   0.267   0.937   3.000  3.5104  0.2431 -2.7369
  209SOL    HW2  627   0.211   0.969   3.156 -1.2899  0.8573  0.0416
  210SOL     OW  628   1.744   0.637   1.249  0.7489  0.2076 -0.0986
  210SOL    HW1  629   1.736   0.722   1.190  0.8375  1.8415 -0.5589
  210SOL    HW2  630   1.842   0.617   1.275 -0.7177  0.1804 -0.7122
  211SOL     OW  631   2.104   1.125   1.588 -0.8387 -0.2547  0.1318
  211SOL    HW1  632   2.155   1.051   1.644 -1.1470 -1.3338 -3.2971
  211SOL    HW2  633   2.183   1.186   1.545  2.0405  2.4239 -0.3205
  212SOL     OW  634   0.070   0.967   1.429 -0.3420 -0.3593 -0.3177
  212SOL    HW1  635   0.123   1.048   1.471  0.7529  0.2371  0.9135
  212SOL    HW2  636   0.120   0.878   1.437 -0.0682  0.2137  0.6728
  213SOL     OW  637   2.845   0.056   0.320  0.4834 -0.0574 -0.3097
  213SOL    HW1  638   2.941   0.035   0.290  1.0269  1.5009  1.1081
  213SOL    HW2  639   2.767   0.023   0.258 -0.6471  0.6500  3.1651
  214SOL     OW  640   2.218   0.354   2.363  0.0603 -0.2091  0.1599
  214SOL    HW1  641   2.223   0.393   2.462  1.6074  0.5557  2.7797
  214SOL    HW2  642   2.182   0.254   2.353 -0.4358  0.9428 -0.7069
  215SOL     OW  643   1.696   2.279   2.073  0.3403  0.3843 -0.1331
  215SOL    HW1  644   1.784   2.328   2.059 -2.5227  0.7939 -1.2518
  215SOL    HW2  645   1.620   2.344   2.089  0.0627 -1.1952  2.5837
  216SOL     OW  646   2.296   0.528   0.775  0.1811  0.4117  0.4530
  216SOL    HW1  647   2.261   0.460   0.699 -2.3982 -4.7526  1.1764
  216SOL    HW2  648   2.392   0.517   0.798 -0.2151 -1.0664 -0.3633
  217SOL     OW  649   0.891   2.690   2.566 -0.5617 -0.1636 -0.5328
  217SOL    HW1  650   0.909   2.645   2.664 -1.3802  0.7927 -0.1233
  217SOL    HW2  651   0.807   2.659   2.523  1.4789  1.3294  1.5292
  218SOL     OW  652   1.848   1.396   0.018  0.0814 -0.0860 -0.1987
  218SOL    HW1  653   1.746   1.414  -0.010 -0.0228 -1.4376  1.1217
  218SOL    HW2  654   1.853   1.309   0.076 -0.9752 -0.8960 -0.4129
  219SOL     OW  655   2.421   1.243   2.526 -0.0110 -0.0998  0.7025
  219SOL    HW1  656   2.442   1.173   2.448  0.7591 -1.4468  0.4766
  219SOL    HW2  657   2.419   1.190   2.617 -2.1709  1.0608  0.2090
  220SOL     OW  658   1.432   1.071   1.409 -0.6138  0.0371  0.6119
  220SOL    HW1  659   1.523   1.029   1.435  0.7004 -0.5875  2.7941
  220SOL    HW2  660   1.421   1.076   1.307  1.8164  1.6498 -0.4614
  221SOL     OW  661   1.278   0.978   2.134 -0.7117  0.3659 -0.9524
  221SOL    HW1  662   1.286   1.000   2.033 -0.4173 -0.3412  2.4099
  221SOL    HW2  663   1.361   1.014   2.190  0.4752  0.9274  0.9889
  222SOL     OW  664   1.159   0.057   1.201 -0.2134 -0.2634  0.2410
  222SOL    HW1  665   1.175   0.096   1.298  0.9356  1.8825 -0.6125
  222SOL    HW2  666   1.148   0.127   1.123 -1.5452 -0.0362 -0.8058
  223SOL     OW  667   2.729   0.960   2.143 -0.2830 -0.3866  0.3310
  223SOL    HW1  668   2.673   1.035   2.189 -1.4802 -0.4424 -0.1081
  223SOL    HW2  669   2.834   0.970   2.158  0.5965  0.2350  1.8593
  224SOL     OW  670   1.506   0.980   2.823  0.4080 -0.5583 -0.0537
  224SOL    HW1  671   1.500   0.928   2.736  0.8876 -0.0101  4.5502
  224SOL    HW2  672   1.544   1.080   2.816  0.6948  0.9959 -2.6521
  225SOL     OW  673   2.958   2.682   2.867 -0.4051  0.1344 -0.2257
  225SOL    HW1  674   2.882   2.677   2.798  1.1876 -2.0869  1.3096
  225SOL    HW2  675   3.045   2.718   2.818  0.3230 -1.5593 -1.4654
  226SOL     OW  676   2.409   1.620   2.833  0.0724 -0.7688  0.4210
  226SOL    HW1  677   2.436   1.596   2.731  0.1382  0.1597  0.4237
  226SOL    HW2  678   2.432   1.545   2.904 -2.9041 -2.2193 -0.8326
  227SOL     OW  679   0.913   0.273   2.992 -0.7019 -0.2006 -0.5262
  227SOL    HW1  680   0.888   0.376   2.977  0.5764  2.2690  2.9003
  227SOL    HW2  681   0.869   0.213   2.917  0.0207 -1.9931 -1.4877
  228SOL     OW  682   2.405   0.673   2.908 -0.8280  0.2404  0.2112
  228SOL    HW1  683   2.433   0.706   2.813 -2.6847 -0.9138 -2.0604
  228SOL    HW2  684   2.458   0.592   2.932  1.1479  0.8974  0.7557
  229SOL     OW  685   0.734   0.679   1.797  0.5462  0.0163 -0.7950
  229SOL    HW1  686   0.834   0.705   1.826  2.1196  2.3059  0.0772
  229SOL    HW2  687   0.719   0.594   1.743 -0.7506  0.7867 -1.2335
  230SOL     OW  688   1.900   1.215   1.928  0.5028 -0.1453  0.5723
  230SOL    HW1  689   1.966   1.270   1.868  2.1949 -0.1486  0.2463
  230SOL    HW2  690   1.871   1.260   2.019  1.7923 -2.1107 -1.1603
  231SOL     OW  691   0.657   1.022   0.021 -0.6649 -1.1446  0.1264
  231SOL    HW1  692   0.759   1.052   0.031 -0.9043 -0.7928 -1.1849
  231SOL    HW2  693   0.586   1.086   0.063 -2.0501  2.7531  0.9096
  232SOL     OW  694   2.407   2.962   2.776 -0.0414 -0.3302  0.5253
  232SOL    HW1  695   2.460   2.882   2.817 -2.1680 -1.9293 -2.2957
  232SOL    HW2  696   2.460   3.016   2.706 -3.4489 -0.0556 -0.8106
  233SOL     OW  697   1.806   1.114   1.185  0.4310 -0.2278 -0.1597
  233SOL    HW1  698   1.835   1.166   1.100 -0.7161  0.0591  0.0754
  233SOL    HW2  699   1.884   1.064   1.230  0.0838  0.0604  0.9858
  234SOL     OW  700   1.650   2.527   1.843  0.3178  0.6448  0.3620
  234SOL    HW1  701   1.628   2.594   1.919  0.8548  0.3262  1.9812
  234SOL    HW2  702   1.587   2.440   1.833 -2.2457 -2.2393  0.0113
  235SOL     OW  703   0.092   3.022   2.893  0.9407  0.0660  0.0345
  235SOL    HW1  704   0.033   3.025   2.806 -0.3686  0.7534 -0.2450
  235SOL    HW2  705   0.034   3.053   2.974  0.1372  3.1658 -1.4939
  236SOL     OW  706   2.888   0.765   0.047  0.1559  0.2265 -0.5582
  236SOL    HW1  707   2.944   0.785   0.130 -1.4073 -0.5553 -0.1958
  236SOL    HW2  708   2.911   0.675   0.007 -3.9234  2.0929 -0.6850
  237SOL     OW  709   1.523   1.687   0.913 -0.5326 -0.0670 -0.1347
  237SOL    HW1  710   1.622   1.682   0.886  2.3993 -2.1940 -0.9873
  237SOL    HW2  711   1.498   1.758   0.989 -1.2014 -1.3932 -0.8021
  238SOL     OW  712   1.916   1.203   0.722 -0.2517  0.2200 -0.1899
  238SOL    HW1  713   1.948   1.224   0.817 -0.9612 -0.2503 -1.1899
  238SOL    HW2  714   1.820   1.240   0.707 -2.2420  3.5268 -1.5871
  239SOL     OW  715   2.068   0.341   2.829  0.8237  0.4370 -0.1701
  239SOL    HW1  716   2.089   0.355   2.929  0.3340 -2.5630 -2.9229
  239SOL    HW2  717   1.967   0.359   2.804 -0.7555 -1.7572  1.0659
  240SOL     OW  718   0.903   0.677   0.220  0.0508  0.1663 -0.1146
  240SOL    HW1  719   0.982   0.641   0.165 -2.5397 -1.4877 -0.8561
  240SOL    HW2  720   0.926   0.691   0.319 -2.5222 -2.3735  0.5958
  241SOL     OW  721   0.542   0.163   0.297  0.1931  0.1092 -0.2299
  241SOL    HW1  722   0.607   0.221   0.244 -0.4151 -0.7822 -0.0462
  241SOL    HW2  723   0.544   0.063   0.264  0.6759 -2.5380  0.0319
  242SOL     OW  724   0.611   2.617   1.275  0.0476  0.3680  0.2316
  242SOL    HW1  725   0.602   2.585   1.376  0.7377 -0.2813  3.7358
  242SOL    HW2  726   0.603   2.720   1.273 -1.1738 -1.1874 -0.9316
  243SOL     OW  727   1.040   0.590   2.398 -0.4060 -0.1220  0.1519
  243SOL    HW1  728   0.948   0.614   2.353 -0.8210 -0.6365  1.3599
  243SOL    HW2  729   1.029   0.531   2.483  0.5345  1.6699 -1.6556
  244SOL     OW  730   2.797   1.913   2.393  0.1406 -0.7874 -0.7230
  244SOL    HW1  731   2.820   1.920   2.292 -0.2903 -1.5167 -0.5711
  244SOL    HW2  732   2.712   1.858   2.412  2.5929  1.7641  1.8460
  245SOL     OW  733   2.113   1.028   2.215  0.2768  0.1140 -0.4580
  245SOL    HW1  734   2.211   1.030   2.247  0.1397  1.3051 -2.6559
  245SOL    HW2  735   2.048   1.083   2.272  0.8327  0.2116  1.5042
  246SOL     OW  736   0.255   2.929   1.824  0.0365  0.1864 -0.1548
  246SOL    HW1  737   0.184   2.884   1.764  0.7019  0.1118  0.9832
  246SOL    HW2  738   0.338   2.958   1.773  2.8813 -1.4625  1.7646
  247SOL     OW  739   2.207   0.590   3.078  0.0223  0.2547 -0.0909
  247SOL    HW1  740   2.282   0.602   3.010 -0.5831  0.8906  0.2904
  247SOL    HW2  741   2.134   0.667   3.077 -1.4152  1.8171  1.5843
  248SOL     OW  742   2.163   1.885   1.629  0.3926 -0.1425  0.1196
  248SOL    HW1  743   2.200   1.804   1.674 -2.1535  1.1829 -1.7673
  248SOL    HW2  744   2.116   1.947   1.699  0.6622  0.4437  1.3448
  249SOL     OW  745   1.880   1.867   1.877 -0.0841 -0.2359  0.3608
  249SOL    HW1  746   1.862   1.823   1.786 -0.0851 -0.8613  2.8988
  249SOL    HW2  747   1.978   1.855   1.910  0.3194 -2.0501  0.1485
  250SOL     OW  748   1.052   0.688   1.863  0.6815 -0.5849  0.0046
  250SOL    HW1  749   1.114   0.653   1.941  3.8562 -0.6515  1.5200
  250SOL    HW2  750   1.061   0.644   1.770 -0.0724 -0.3532 -2.2868
  251SOL     OW  751   3.039   1.479   2.586 -0.4966  0.1111 -0.7669
  251SOL    HW1  752   3.015   1.581   2.575 -1.8627 -2.3141 -1.3207
  251SOL    HW2  753   2.960   1.417   2.558 -0.7202  0.0921  2.3085
  252SOL     OW  754   1.562   0.768   1.578  0.4115 -0.6110 -0.2527
  252SOL    HW1  755   1.602   0.810   1.493 -2.0607 -0.5815 -1.4098
  252SOL    HW2  756   1.565   0.839   1.656  0.0176 -1.8113  0.7947
  253SOL     OW  757   0.972   1.464   0.424  0.7900 -0.1173 -0.4336
  253SOL    HW1  758   0.953   1.503   0.328  0.7709  0.1794 -2.4052
  253SOL    HW2  759   0.898   1.495   0.495 -0.8468  0.0953  0.9547
  254SOL     OW  760   2.020   2.200   1.662  0.5686 -0.2481 -0.1856
  254SOL    HW1  761   1.960   2.128   1.610 -0.4578 -1.0842 -1.7996
  254SOL    HW2  762   1.968   2.261   1.731  1.0683 -1.7056  1.2375
  255SOL     OW  763   0.062   1.204   2.961  0.3164 -0.8638  0.4001
  255SOL    HW1  764   0.124   1.282   2.938 -0.5705 -2.0850  0.9144
  255SOL    HW2  765   0.120   1.126   3.002 -1.1275  2.9080  0.9694
  256SOL     OW  766   2.772   1.438   1.801  0.4732  0.5838  0.0696
  256SOL    HW1  767   2.745   1.449   1.897 -1.0381 -0.4984 -1.0315
  256SOL    HW2  768   2.698   1.381   1.746 -1.2972 -2.6713 -2.2683
  257SOL     OW  769   0.808   0.187   1.869 -0.0638 -0.0725  0.0577
  257SOL    HW1  770   0.859   0.242   1.801 -1.1301  0.3516  0.9640
  257SOL    HW2  771   0.859   0.095   1.905  0.4175 -0.8028  1.3295
  258SOL     OW  772   2.963   1.175   0.518  0.4437 -0.0968  0.1635
  258SOL    HW1  773   2.872   1.192   0.565  0.4188 -0.2962  1.7422
  258SOL    HW2  774   3.049   1.182   0.583  0.2415  1.2167  2.0107
  259SOL     OW  775   0.441   2.961   3.029 -0.0435  0.2447  0.0532
  259SOL    HW1  776   0.376   2.888   3.065  1.0298  1.7765  0.8706
  259SOL    HW2  777   0.479   2.932   2.936  1.3827 -1.1734 -3.3215
  260SOL     OW  778   2.698   0.689   2.785 -0.6642 -0.2678  0.0257
  260SOL    HW1  779   2.619   0.747   2.750  1.8479  0.7592  1.6348
  260SOL    HW2  780   2.662   0.599   2.822  0.7577  0.0624  1.4809
  261SOL     OW  781   2.696   1.266   1.287  0.9850  0.0302 -0.4533
  261SOL    HW1  782   2.629   1.221   1.219  1.6237 -1.5576  1.5633
  261SOL    HW2  783   2.758   1.199   1.338 -0.0211  1.6393 -0.7393
  262SOL     OW  784   1.420   2.959   1.999  0.0605  0.4980 -0.2806
  262SOL    HW1  785   1.454   3.052   1.965 -1.2560  1.1468  0.8494
  262SOL    HW2  786   1.317   2.948   2.006 -2.1095  0.2781  0.3504
  263SOL     OW  787   0.799   0.668   2.265  0.5526  0.0789 -0.3079
  263SOL    HW1  788   0.737   0.590   2.233  1.0391 -0.7619 -0.5699
  263SOL    HW2  789   0.827   0.735   2.180  0.0596  2.7739 -2.5840
  264SOL     OW  790   2.275   0.821   0.454  0.2015  0.0913  0.3359
  264SOL    HW1  791   2.276   0.769   0.367 -1.3975  1.2852  0.1141
  264SOL    HW2  792   2.364   0.867   0.468 -0.3742 -0.5864  0.7619
  265SOL     OW  793   0.865   2.308   2.636  0.2998 -0.2392  0.0269
  265SOL    HW1  794   0.848   2.304   2.741  0.7125 -2.7127  1.7152
  265SOL    HW2  795   0.839   2.225   2.584  2.3871  3.6405 -0.7023
  266SOL     OW  796   1.283   1.815   3.053  0.0397  0.3113  0.0749
  266SOL    HW1  797   1.274   1.881   3.137  0.7184 -0.4813  0.7476
  266SOL    HW2  798   1.384   1.794   3.022  2.0407  0.8842 -0.9543
  267SOL     OW  799   1.075   3.023   2.286  0.6289 -0.4085  0.1941
  267SOL    HW1  800   1.026   2.960   2.218  0.3635 -0.3355 -3.4893
  267SOL    HW2  801   1.109   3.121   2.252  3.0048  1.7756 -2.4084
  268SOL     OW  802   0.796   1.300   1.176 -1.0784 -0.2453  0.7016
  268SOL    HW1  803   0.724   1.372   1.201 -1.2982 -0.2955  2.1562
  268SOL    HW2  804   0.883   1.343   1.135  2.2006  2.8809  1.8136
  269SOL     OW  805   2.320   2.520   1.611 -0.5218 -0.2562  0.3519
  269SOL    HW1  806   2.415   2.475   1.634 -0.3866 -0.2209 -0.4973
  269SOL    HW2  807   2.246   2.500   1.684 -0.4299  1.5655 -1.2391
  270SOL     OW  808   0.113   3.051   2.003 -0.2843  0.4218  0.0397
  270SOL    HW1  809   0.184   3.007   1.935 -0.1046  0.6260 -0.1058
  270SOL    HW2  810   0.089   2.981   2.073 -1.3060 -0.2419 -1.9712
  271SOL     OW  811   0.384   1.419   1.115 -0.1452 -0.0688  0.1041
  271SOL    HW1  812   0.390   1.398   1.013 -2.6235  3.2745 -0.1673
  271SOL    HW2  813   0.336   1.345   1.165 -2.0872 -1.2732  0.5821
  272SOL     OW  814   1.868   0.023   1.894 -0.0332 -0.3056 -0.1520
  272SOL    HW1  815   1.823  -0.063   1.857 -0.6043 -1.2334  0.6540
  272SOL    HW2  816   1.860   0.104   1.829  1.5140  1.8814  1.2105
  273SOL     OW  817   1.436   1.467   2.850  0.1623 -0.1570  0.0450
  273SOL    HW1  818   1.336   1.449   2.836  0.0173  3.0183  0.4733
  273SOL    HW2  819   1.457   1.484   2.951 -1.3505 -0.4507  1.3886
  274SOL     OW  820   1.175   0.562   2.091 -0.2737 -0.6266  0.4321
  274SOL    HW1  821   1.106   0.481   2.104  1.8186  0.2743 -2.0721
  274SOL    HW2  822   1.228   0.579   2.178 -1.0207  0.3360  0.5900
  275SOL     OW  823   0.638   2.126   1.975  0.2373  0.4044 -0.3094
  275SOL    HW1  824   0.578   2.042   1.984  0.0684  2.3151  1.1481
  275SOL    HW2  825   0.586   2.217   1.985 -1.5593  1.2578  0.9709
  276SOL     OW  826   2.252   0.939   2.876 -0.2536 -0.4946  0.0147
  276SOL    HW1  827   2.150   0.943   2.854 -0.5972 -0.5668 -0.3169
  276SOL    HW2  828   2.288   0.843   2.893 -1.4544  0.4179 -0.6221
  277SOL     OW  829   3.081   0.775   0.248 -0.2299  0.5309  0.0298
  277SOL    HW1  830   3.173   0.817   0.224 -0.8095  0.8281  0.8331
  277SOL    HW2  831   3.081   0.705   0.327  0.1856 -0.7666 -1.5387
  278SOL     OW  832   0.339   0.239   0.011  0.3712  0.3370  0.0948
  278SOL    HW1  833   0.412   0.202  -0.054 -0.4500 -0.3475 -1.0644
  278SOL    HW2  834   0.321   0.341  -0.004  0.9700 -1.4467  0.3687
  279SOL     OW  835   0.253   2.987   0.923 -0.2423 -0.0937  0.2306
  279SOL    HW1  836   0.269   2.968   1.025  1.0874  3.5997 -1.4651
  279SOL    HW2  837   0.257   2.902   0.863 -1.3250 -0.9097 -0.1409
  280SOL     OW  838   1.596   2.893   2.450  0.2307  0.1615 -0.1328
  280SOL    HW1  839   1.643   2.970   2.504 -0.6751 -0.1795  2.7463
  280SOL    HW2  840   1.529   2.923   2.379  0.2924 -0.9901  3.8818
  281SOL     OW  841   0.598   0.942   2.353  0.6443 -0.3006 -0.7392
  281SOL    HW1  842   0.568   0.863   2.292  2.0205  1.1711 -0.6466
  281SOL    HW2  843   0.598   0.911   2.453  0.8568  3.3903  2.3008
  282SOL     OW  844   1.773   2.462   0.535 -0.7809  0.2118  0.2668
  282SOL    HW1  845   1.741   2.382   0.470 -0.8877  1.0195  0.3732
  282SOL    HW2  846   1.706   2.541   0.535 -0.1255 -0.6084 -2.8056
  283SOL     OW  847   1.166   0.923   0.782 -0.6390 -0.2892  0.1620
  283SOL    HW1  848   1.173   0.853   0.858  1.6383 -1.2482 -1.9926
  283SOL    HW2  849   1.107   1.005   0.810 -0.9964 -0.2006  2.0809
  284SOL     OW  850   2.250   2.835   2.456 -0.2935  0.1214  0.0928
  284SOL    HW1  851   2.349   2.861   2.437 -0.1306  0.9652  2.6773
  284SOL    HW2  852   2.229   2.834   2.558 -2.5383 -1.9665 -0.5287
  285SOL     OW  853   1.329   3.062   2.558  0.0596  0.0228 -0.3376
  285SOL    HW1  854   1.380   3.056   2.469 -0.3800 -0.0765  1.8926
  285SOL    HW2  855   1.252   3.133   2.554  3.2150 -0.9050 -1.1557
  286SOL     OW  856   0.244   0.334   0.651 -0.3582 -0.5893  0.3857
  286SOL    HW1  857   0.261   0.250   0.700  0.7021  2.6883  0.8387
  286SOL    HW2  858   0.284   0.322   0.553 -1.4933  0.2494 -0.6056
  287SOL     OW  859   0.104   1.252   2.518 -0.1047  0.3269  0.3342
  287SOL    HW1  860   0.063   1.203   2.597  0.7782  0.4222 -1.9437
  287SOL    HW2  861   0.071   1.350   2.498  1.0294 -0.2434  0.0034
  288SOL     OW  862   1.509   2.684   1.645 -0.0723  0.5750 -0.0678
  288SOL    HW1  863   1.555   2.618   1.714  2.4158 -1.7014  1.3655
  288SOL    HW2  864   1.570   2.715   1.569 -1.7366  2.7950  2.0669
  289SOL     OW  865   0.610   2.754   0.792 -1.0357 -0.6725 -0.0540
  289SOL    HW1  866   0.692   2.793   0.739 -1.2056 -0.7410  2.7324
  289SOL    HW2  867   0.600   2.800   0.885  1.9065 -0.5807  0.8703
  290SOL     OW  868   2.830   1.098   1.683 -0.5067 -0.3612 -0.3081
  290SOL    HW1  869   2.748   1.038   1.696  0.9147 -0.7730  0.3892
  290SOL    HW2  870   2.897   1.103   1.766  1.9943 -0.6646 -2.3027
  291SOL     OW  871   1.926   0.018   0.078 -0.0884 -0.0156 -0.3988
  291SOL    HW1  872   1.947   0.044   0.179 -2.9068  1.9199  1.1858
  291SOL    HW2  873   2.015   0.031   0.027  1.9166  1.0921  2.4451
  292SOL     OW  874   2.971   1.286   0.038 -0.6129 -0.3065  0.1586
  292SOL    HW1  875   2.888   1.288  -0.028 -0.5297  0.9531 -2.4719
  292SOL    HW2  876   3.052   1.266  -0.021  0.4004  0.4544  0.5220
  293SOL     OW  877   0.516   2.060   0.243 -0.0043 -0.1371 -0.4204
  293SOL    HW1  878   0.513   2.122   0.330  1.9674  1.4674  0.5970
  293SOL    HW2  879   0.616   2.031   0.222  1.5858 -4.4670 -2.4057
  294SOL     OW  880   1.878   2.365   1.820  0.2828  0.7457  0.0449
  294SOL    HW1  881   1.929   2.370   1.909 -1.9319  1.1214  1.3307
  294SOL    HW2  882   1.796   2.428   1.818  0.0661 -1.2025 -1.9759
  295SOL     OW  883   0.948   1.037   0.455 -0.7435  0.8433 -0.5045
  295SOL    HW1  884   1.051   1.044   0.470  1.5566 -0.0568 -1.4854
  295SOL    HW2  885   0.908   0.989   0.540 -0.9681 -2.2264  1.0611
  296SOL     OW  886   1.151   2.123   2.709 -0.3418  0.0232 -0.6992
  296SOL    HW1  887   1.094   2.207   2.701  1.3206 -0.6916  2.6425
  296SOL    HW2  888   1.175   2.086   2.613 -0.3947  1.4389 -0.2737
  297SOL     OW  889   1.325   0.602   1.238  0.3652  0.2398  0.2298
  297SOL    HW1  890   1.336   0.515   1.293 -0.5611  0.7130 -2.1859
  297SOL    HW2  891   1.395   0.610   1.158  1.3537  0.1931  1.0335
  298SOL     OW  892   0.474   1.334   2.957  0.0898  0.2474 -0.4134
  298SOL    HW1  893   0.466   1.279   3.048  2.1068 -0.2284  2.0325
  298SOL    HW2  894   0.512   1.275   2.882  0.7331 -0.0710  3.5857
  299SOL     OW  895   0.422   0.190   1.237  0.4618  0.3121 -0.7425
  299SOL    HW1  896   0.380   0.279   1.201  0.2196 -0.6907  2.2381
  299SOL    HW2  897   0.404   0.183   1.345  1.2904 -1.8815 -0.2302
  300SOL     OW  898   1.258   1.782   2.590 -0.4280  0.0068  0.6183
  300SOL    HW1  899   1.242   1.703   2.529  0.8046 -2.1347  1.5166
  300SOL    HW2  900   1.344   1.764   2.648 -2.5434 -4.4209  0.7910
  301SOL     OW  901   0.311   0.285   0.386  0.2066  0.2562 -0.2550
  301SOL    HW1  902   0.217   0.274   0.348  1.9471  2.2340 -0.9685
  301SOL    HW2  903   0.376   0.210   0.364 -0.5998  2.3479  1.4390
  302SOL     OW  904   1.267   2.396   2.303  0.4765  0.0209  0.1201
  302SOL    HW1  905   1.165   2.407   2.322  0.5345  1.0801 -2.3964
  302SOL    HW2  906   1.305   2.309   2.339 -1.5261  1.5866  0.8430
  303SOL     OW  907   0.881   2.453   0.733  0.1781 -0.2169 -0.6041
  303SOL    HW1  908   0.933   2.454   0.642  0.3213  1.0484 -3.0274
  303SOL    HW2  909   0.907   2.527   0.800 -0.2370 -3.4069  2.1577
  304SOL     OW  910   0.137   1.918   0.699 -0.3397  0.1820 -0.0125
  304SOL    HW1  911   0.210   1.948   0.636 -0.1268 -1.9425 -0.4935
  304SOL    HW2  912   0.041   1.931   0.655 -3.2233 -0.8209  1.7564
  305SOL     OW  913   1.660   0.771   0.683  0.1061 -0.0972  0.2173
  305SOL    HW1  914   1.568   0.758   0.633  0.3540  0.5213 -1.0953
  305SOL    HW2  915   1.722   0.686   0.671 -0.8231 -1.9158 -0.1471
  306SOL     OW  916   0.427   1.926   1.994 -0.0558  0.3408  0.2056
  306SOL    HW1  917   0.500   1.855   1.969 -0.3538  0.6311 -0.9888
  306SOL    HW2  918   0.425   1.956   2.093  1.4785  0.1442 -3.3775
  307SOL     OW  919   3.027   0.902   2.598 -0.0199  0.1641  0.1305
  307SOL    HW1  920   3.037   0.996   2.638  0.1234 -1.1279 -1.3921
  307SOL    HW2  921   3.025   0.827   2.672 -2.8548  1.2739 -2.2408
  308SOL     OW  922   1.490   2.724   2.807  0.6662  0.8867  0.1307
  308SOL    HW1  923   1.462   2.722   2.708 -1.4257  1.0367  1.3584
  308SOL    HW2  924   1.437   2.657   2.862  0.5421  0.1198  0.7153
  309SOL     OW  925   1.147   0.204   1.817 -0.0245 -0.0083 -0.0173
  309SOL    HW1  926   1.198   0.119   1.796  0.1138  1.4004  0.3538
  309SOL    HW2  927   1.081   0.225   1.738  1.8863  0.3896 -0.9553
  310SOL     OW  928   1.403   2.577   0.656 -0.1498  0.1994 -0.1105
  310SOL    HW1  929   1.421   2.584   0.756 -0.0658 -1.3698  0.3377
  310SOL    HW2  930   1.476   2.631   0.600 -0.2824  0.3578  1.2173
  311SOL     OW  931   1.121   0.936   1.721  0.0376 -0.2781 -0.4036
  311SOL    HW1  932   1.089   0.841   1.752 -1.1787  0.0604 -1.4774
  311SOL    HW2  933   1.149   0.941   1.622 -0.8429  1.3352  0.1000
  312SOL     OW  934   1.488   0.625   1.004  0.3707  0.0069 -0.5138
  312SOL    HW1  935   1.564   0.699   1.006  1.2013 -0.2857  1.3755
  312SOL    HW2  936   1.411   0.654   0.937 -0.0525  1.5881 -1.4646
  313SOL     OW  937   1.654   1.313   0.707 -0.2575  0.3199  0.0417
  313SOL    HW1  938   1.578   1.335   0.773  0.9770  1.8672 -2.0490
  313SOL    HW2  939   1.633   1.238   0.638  1.1411  3.7575 -2.7345
  314SOL     OW  940   2.997   0.020   3.078 -0.9736 -0.3568  0.0798
  314SOL    HW1  941   3.018  -0.008   3.174  0.1222 -0.8282  0.1583
  314SOL    HW2  942   2.919  -0.036   3.034  0.3344 -0.5642  1.2882
  315SOL     OW  943   1.147   0.220   2.776 -1.1643  0.0815 -0.7799
  315SOL    HW1  944   1.092   0.182   2.692  0.2095 -0.0306 -1.6376
  315SOL    HW2  945   1.102   0.189   2.864 -0.6147 -0.0609 -1.0906
  316SOL     OW  946   1.758   2.065   0.852  0.2936  0.1263  0.1415
  316SOL    HW1  947   1.719   2.094   0.945  2.9457  0.1744 -0.0044
  316SOL    HW2  948   1.807   2.144   0.809  0.3615  1.4038  1.4441
  317SOL     OW  949   1.166   0.695   2.733 -0.2814 -0.4769  0.2831
  317SOL    HW1  950   1.130   0.747   2.815 -0.5081 -0.0507 -1.2271
  317SOL    HW2  951   1.108   0.616   2.702  1.4417  0.9009 -1.0613
  318SOL     OW  952   1.416   3.039   2.283  0.2499 -0.3887 -0.5034
  318SOL    HW1  953   1.428   3.139   2.261  0.3584 -0.6501 -1.6940
  318SOL    HW2  954   1.406   2.979   2.197 -0.4343  0.2301 -4.6676
  319SOL     OW  955   0.631   2.381   3.048  0.6066 -0.7625  0.3016
  319SOL    HW1  956   0.569   2.298   3.043 -1.0681  0.8800  0.7973
  319SOL    HW2  957   0.726   2.363   3.017 -0.0997  1.0492  0.3609
  320SOL     OW  958   1.706   2.232   0.405  0.1813 -0.4768 -0.5274
  320SOL    HW1  959   1.786   2.166   0.390 -0.9433 -0.7214  0.5703
  320SOL    HW2  960   1.616   2.183   0.411  1.3722 -1.8816  0.3942
  321SOL     OW  961   1.607   2.703   0.511 -0.2796 -0.0223 -0.0191
  321SOL    HW1  962   1.547   2.746   0.432  2.0966 -0.7577 -1.1998
  321SOL    HW2  963   1.685   2.767   0.534  1.2213  0.2254  0.9092
  322SOL     OW  964   2.544   1.064   2.352  0.2380 -0.6795  0.3786
  322SOL    HW1  965   2.625   1.043   2.417 -0.0137 -0.4774 -1.9695
  322SOL    HW2  966   2.496   0.975   2.335 -0.7120 -0.8364  0.2746
  323SOL     OW  967   1.183   2.701   0.779 -0.2486 -0.0828  0.7524
  323SOL    HW1  968   1.188   2.648   0.691  0.3367  1.8218 -0.8124
  323SOL    HW2  969   1.186   2.807   0.774  2.9029  4.0228  2.0055
  324SOL     OW  970   0.069   2.523   2.392 -0.0643  0.0145 -0.4280
  324SOL    HW1  971   0.026   2.464   2.468  0.7175 -0.8807 -0.7463
  324SOL    HW2  972   0.126   2.602   2.423 -0.4033  2.3059 -2.0694
  325SOL     OW  973   1.266   3.036   0.417 -0.6070  0.1663  0.3540
  325SOL    HW1  974   1.211   3.047   0.332 -1.3796  1.3627 -0.5650
  325SOL    HW2  975   1.279   3.122   0.470 -2.3149 -0.1101  1.1500
  326SOL     OW  976   2.474   0.868   0.032  0.3989 -0.7457 -0.0724
  326SOL    HW1  977   2.414   0.826  -0.040  3.3362 -1.4516 -0.6718
  326SOL    HW2  978   2.535   0.798   0.076  2.6221  1.9545  3.0227
  327SOL     OW  979   2.847   0.187   0.571  0.2012 -0.0282  0.2464
  327SOL    HW1  980   2.857   0.157   0.471  0.9116 -0.0340 -0.9652
  327SOL    HW2  981   2.887   0.118   0.640  1.6163  0.8485  2.7036
  328SOL     OW  982   2.658   0.590   0.411  0.0553 -0.2621  0.2566
  328SOL    HW1  983   2.690   0.656   0.483 -0.3886  1.3646  0.6237
  328SOL    HW2  984   2.658   0.495   0.450  1.3931  0.6852  1.5755
  329SOL     OW  985   2.925   3.066   2.231  0.0248  0.0231 -0.5329
  329SOL    HW1  986   3.005   3.001   2.239 -0.8018  0.9583 -3.2340
  329SOL    HW2  987   2.953   3.160   2.201 -0.0871 -0.1589 -1.0705
  330SOL     OW  988   0.594   0.337   2.016  1.0598 -0.7192 -0.0668
  330SOL    HW1  989   0.672   0.335   1.947  1.3620  0.7330 -0.5445
  330SOL    HW2  990   0.584   0.248   2.072 -2.3379  0.9827 -0.2768
  331SOL     OW  991   0.011   1.938   1.126 -0.0101 -0.2141 -0.2246
  331SOL    HW1  992  -0.038   1.970   1.044 -0.7262  2.5379  2.2064
  331SOL    HW2  993  -0.044   1.940   1.214  0.0459 -0.3195 -0.5857
  332SOL     OW  994   0.450   1.148   0.105  0.2812  0.2534 -0.4885
  332SOL    HW1  995   0.386   1.095   0.048 -0.2937 -1.9195  3.2152
  332SOL    HW2  996   0.397   1.193   0.187  1.8164 -0.8449  1.0876
  333SOL     OW  997   2.907   0.955   0.379 -0.0194 -0.7735 -0.2021
  333SOL    HW1  998   2.966   1.033   0.435  1.0375  2.5935  1.8937
  333SOL    HW2  999   2.968   0.875   0.346 -0.7320  0.1202  2.7940
  334SOL     OW 1000   1.702   1.177   1.720 -0.2832  0.0980  0.0023
  334SOL    HW1 1001   1.753   1.185   1.629 -1.3929  2.6096 -4.1870
  334SOL    HW2 1002   1.768   1.201   1.797  0.3685 -0.3407  0.9298
  335SOL     OW 1003   1.946   2.757   2.604 -0.0752 -0.0670 -0.0085
  335SOL    HW1 1004   1.857   2.767   2.656  1.2145 -0.3597 -1.6450
  335SOL    HW2 1005   2.029   2.800   2.655  0.2639  2.1368  1.7389
  336SOL     OW 1006   0.273   0.097   2.756 -0.0449 -0.2947  0.6262
  336SOL    HW1 1007   0.362   0.137   2.800  1.4901  1.5291  0.9918
  336SOL    HW2 1008   0.217   0.039   2.820 -2.3358 -1.9973 -0.6161
  337SOL     OW 1009   0.782   2.792   3.043  0.1406 -0.6436 -0.3103
  337SOL    HW1 1010   0.842   2.711   3.084 -2.2008  0.1117 -0.1082
  337SOL    HW2 1011   0.730   2.830   3.128 -2.5261  1.3959  1.8898
  338SOL     OW 1012   0.080   0.949   0.725 -0.2405  0.3241  0.1308
  338SOL    HW1 1013  -0.015   0.909   0.729 -0.3820  0.1037 -1.1612
  338SOL    HW2 1014   0.085   1.050   0.737 -1.0216 -0.4769  0.1384
  339SOL     OW 1015   1.764   1.371   2.146 -0.2969  0.0779  0.0421
  339SOL    HW1 1016   1.660   1.375   2.137  1.4877  0.1361 -0.9058
  339SOL    HW2 1017   1.803   1.467   2.157 -0.8333 -1.1196 -1.9990
  340SOL     OW 1018   2.302   0.786   1.141  0.5173  0.5724  0.9456
  340SOL    HW1 1019   2.210   0.828   1.152  2.2866 -0.4633 -0.0366
  340SOL    HW2 1020   2.285   0.683   1.121  1.1836 -1.9825  2.8237
  341SOL     OW 1021   1.906   2.075   0.292  0.7648 -0.0491  0.0531
  341SOL    HW1 1022   1.959   2.122   0.216 -0.5703  0.6272  2.6699
  341SOL    HW2 1023   1.966   2.020   0.356 -0.5548  0.6200 -0.3128
  342SOL     OW 1024   2.134   2.128   2.766 -0.3114 -0.0721  0.1146
  342SOL    HW1 1025   2.172   2.034   2.785 -1.2300 -0.6486 -0.1844
  342SOL    HW2 1026   2.040   2.123   2.726  0.6864 -0.0493 -1.7680
  343SOL     OW 1027   0.355   0.831   2.878  0.1269 -0.0233  0.3070
  343SOL    HW1 1028   0.336   0.887   2.792 -0.7050  0.9709  1.1288
  343SOL    HW2 1029   0.452   0.826   2.912 -1.4919 -2.6713 -3.6066
  344SOL     OW 1030   1.929   1.407   0.373 -0.4528 -0.4161  0.4824
  344SOL    HW1 1031   1.924   1.315   0.326  1.9192 -0.7830  0.7840
  344SOL    HW2 1032   1.835   1.442   0.405 -0.1216  1.2736 -1.1330
  345SOL     OW 1033   1.389   2.187   2.839 -0.5723  0.1579 -0.4241
  345SOL    HW1 1034   1.289   2.163   2.811  0.3491 -1.3006 -1.9952
  345SOL    HW2 1035   1.458   2.167   2.765 -4.0267  1.0179 -0.9109
  346SOL     OW 1036   2.283   0.823   1.420 -0.1457  0.1255  0.5867
  346SOL    HW1 1037   2.190   0.843   1.453  1.3300 -1.4770  0.5174
  346SOL    HW2 1038   2.295   0.819   1.318  0.7416 -2.9258  1.7654
  347SOL     OW 1039   0.711   2.800   1.708  0.0886  0.4030  0.2529
  347SOL    HW1 1040   0.798   2.845   1.676 -2.0946 -3.6269  4.0256
  347SOL    HW2 1041   0.631   2.840   1.651  1.7012 -0.6407 -2.3555
  348SOL     OW 1042   0.185   0.628   2.834  0.0426  0.0876  0.2644
  348SOL    HW1 1043   0.085   0.659   2.831 -0.0223  0.5668  2.1701
  348SOL    HW2 1044   0.251   0.707   2.834 -0.9216 -0.4710 -1.2660
  349SOL     OW 1045   1.799   0.422   2.823  0.2849  0.3045 -0.2070
  349SOL    HW1 1046   1.796   0.508   2.768  1.1422 -0.5094 -1.5032
  349SOL    HW2 1047   1.794   0.444   2.925  0.7409  0.0179  0.1136
  350SOL     OW 1048   1.752   0.364   0.400 -0.1893 -0.3849  0.4347
  350SOL    HW1 1049   1.822   0.337   0.477  2.5172  1.4671  2.2118
  350SOL    HW2 1050   1.791   0.457   0.361  3.3190  2.7322 -0.5087
  351SOL     OW 1051   0.913   0.816   2.041  0.6355  0.4240  0.0006
  351SOL    HW1 1052   0.919   0.920   2.037  0.0403 -2.2633 -3.5827
  351SOL    HW2 1053   0.976   0.768   1.975  1.9848 -0.2554 -1.1134
  352SOL     OW 1054   2.085   1.467   0.587 -0.0357  0.9449  0.2668
  352SOL    HW1 1055   2.042   1.455   0.491 -0.5450 -2.0460  2.1600
  352SOL    HW2 1056   2.038   1.412   0.659  3.9370 -1.0505 -1.2263
  353SOL     OW 1057   2.174   2.715   1.155 -0.2189  0.3059 -0.1756
  353SOL    HW1 1058   2.250   2.649   1.189  1.2592  1.7762  3.4734
  353SOL    HW2 1059   2.086   2.716   1.209  0.2906  1.2797  0.8320
  354SOL     OW 1060   0.228   1.408   2.885  0.3670 -0.1376 -0.0947
  354SOL    HW1 1061   0.223   1.475   2.806  2.2703  1.2406  1.6676
  354SOL    HW2 1062   0.329   1.396   2.915  2.5417  0.8053 -1.2718
  355SOL     OW 1063   0.736   1.586   0.556  0.2295 -0.1830 -1.1573
  355SOL    HW1 1064   0.724   1.554   0.654 -2.9165 -2.4072  0.1038
  355SOL    HW2 1065   0.694   1.517   0.484 -0.3923 -1.3722 -0.8592
  356SOL     OW 1066   0.998   0.361   2.086 -0.3153 -0.2236 -0.2983
  356SOL    HW1 1067   1.066   0.282   2.109  1.4714  0.4239  0.4204
  356SOL    HW2 1068   0.949   0.349   1.994  0.3893  2.3592 -0.9301
  357SOL     OW 1069   1.028   1.526   0.149 -0.3846  0.5287 -0.0092
  357SOL    HW1 1070   1.050   1.455   0.076  1.3908 -0.1077 -0.5962
  357SOL    HW2 1071   1.118   1.564   0.194  1.7018 -1.4292 -1.1926
  358SOL     OW 1072   1.674   1.487   0.470 -0.6099 -0.3960  0.7138
  358SOL    HW1 1073   1.674   1.434   0.557 -1.6482 -0.9086  0.0489
  358SOL    HW2 1074   1.605   1.448   0.400  1.8485 -2.1072 -0.2402
  359SOL     OW 1075   1.626   2.583   0.191  0.2203  0.3309  0.0459
  359SOL    HW1 1076   1.630   2.494   0.136  0.6418  0.7136 -0.2493
  359SOL    HW2 1077   1.528   2.617   0.203  0.1853  1.1582 -1.8159
  360SOL     OW 1078   0.700   0.517   0.557 -0.4852  0.0661  0.2376
  360SOL    HW1 1079   0.602   0.519   0.512  2.1833 -1.3455  0.2232
  360SOL    HW2 1080   0.735   0.419   0.586  0.5883 -0.2422  0.6359
  361SOL     OW 1081   1.357   1.313   0.571 -0.0251  0.2522 -0.2598
  361SOL    HW1 1082   1.405   1.353   0.652  0.0399  2.9921 -1.3685
  361SOL    HW2 1083   1.263   1.354   0.567 -2.7261  0.7973 -0.5303
  362SOL     OW 1084   1.396   1.859   0.731 -0.5194  0.3122  0.1472
  362SOL    HW1 1085   1.405   1.783   0.803  1.4421  1.6034 -0.0741
  362SOL    HW2 1086   1.487   1.895   0.690 -1.3797  0.9946  0.2194
  363SOL     OW 1087   1.258   1.315   1.928  0.5028 -0.0705  0.6259
  363SOL    HW1 1088   1.350   1.325   1.973 -1.2717  1.2352 -0.0475
  363SOL    HW2 1089   1.199   1.401   1.937 -1.2288 -0.9790 -0.7699
  364SOL     OW 1090   0.554   2.404   2.000 -0.0658 -0.0127  0.5547
  364SOL    HW1 1091   0.451   2.420   1.987 -1.7752 -1.2866  0.2963
  364SOL    HW2 1092   0.603   2.499   2.015  0.3236  0.4627  1.4515
  365SOL     OW 1093   0.919   1.958   1.411 -0.0871  0.5332 -0.5639
  365SOL    HW1 1094   0.833   1.974   1.465  2.2404  0.1181  1.3541
  365SOL    HW2 1095   0.915   1.985   1.311  0.4471 -0.7161 -0.4906
  366SOL     OW 1096   2.696   1.856   0.258 -0.6370 -0.5120 -0.1536
  366SOL    HW1 1097   2.612   1.803   0.220  0.1498 -2.3821  0.6408
  366SOL    HW2 1098   2.778   1.795   0.276 -2.9925 -1.1805 -0.5680
  367SOL     OW 1099   0.940   1.099   3.049  0.4717  0.5776  0.4033
  367SOL    HW1 1100   0.989   1.042   3.123  1.0945  0.3487  0.4224
  367SOL    HW2 1101   0.981   1.192   3.047 -0.1538 -0.9456 -0.5028
  368SOL     OW 1102   1.467   0.473   0.497 -0.0512 -0.2957  0.0673
  368SOL    HW1 1103   1.422   0.423   0.422 -1.4976 -1.3146  1.8367
  368SOL    HW2 1104   1.553   0.523   0.462  1.5543  4.4869  1.5368
  369SOL     OW 1105   0.308   1.623   0.138 -0.0389  0.1030 -0.3061
  369SOL    HW1 1106   0.378   1.665   0.204  1.2585  0.2110  1.7368
  369SOL    HW2 1107   0.243   1.556   0.188 -1.0662  1.9435 -2.5946
  370SOL     OW 1108   0.454   2.125   1.017  0.7241 -0.0338  0.0741
  370SOL    HW1 1109   0.455   2.232   1.029  0.0853  1.6552 -2.5706
  370SOL    HW2 1110   0.363   2.089   0.981  0.0453 -2.6765 -0.5695
  371SOL     OW 1111   2.916   2.166   2.681  0.6991  0.5220  0.1691
  371SOL    HW1 1112   2.984   2.093   2.655 -2.2314  3.5952 -0.7081
  371SOL    HW2 1113   2.945   2.225   2.761  0.3874 -1.6989  1.2390
  372SOL     OW 1114   0.968   2.129   1.128 -0.1378  0.9696 -0.5124
  372SOL    HW1 1115   0.908   2.189   1.062 -0.6436 -1.5326 -1.4203
  372SOL    HW2 1116   1.060   2.171   1.146 -1.0899  2.5254  0.4894
  373SOL     OW 1117   1.914   1.859   1.000  0.5599  0.0930 -0.8714
  373SOL    HW1 1118   2.011   1.900   1.012 -1.0390  0.0854 -1.4866
  373SOL    HW2 1119   1.840   1.921   0.966  0.8908  0.4687 -0.9551
  374SOL     OW 1120   1.956   0.274   0.569  0.2884  0.0119  0.4594
  374SOL    HW1 1121   1.916   0.257   0.664 -1.2580 -1.4540 -2.0905
  374SOL    HW2 1122   2.056   0.307   0.581  2.6301  1.0687  1.4617
  375SOL     OW 1123   2.412   2.117   1.077 -0.7343 -0.5339 -0.9080
  375SOL    HW1 1124   2.426   2.064   0.986  1.0801 -1.2919 -1.7152
  375SOL    HW2 1125   2.499   2.131   1.131  0.2606 -1.0188  2.0856
  376SOL     OW 1126   3.084   0.598   1.465  0.6335 -0.2893  0.2209
  376SOL    HW1 1127   3.106   0.644   1.557 -0.7010 -1.2216 -1.6503
  376SOL    HW2 1128   3.019   0.519   1.466  1.4109  0.9959  2.5327
  377SOL     OW 1129   2.278   2.943   0.158  0.6624  0.3929  0.1693
  377SOL    HW1 1130   2.251   3.022   0.222 -2.8499 -1.2802  0.4474
  377SOL    HW2 1131   2.314   2.865   0.218 -1.6361 -0.3253  0.4707
  378SOL     OW 1132   1.906   1.893   2.487  0.0794 -0.2218 -0.4914
  378SOL    HW1 1133   1.999   1.851   2.474 -1.0686 -0.3750  0.4847
  378SOL    HW2 1134   1.828   1.833   2.451  0.4134 -0.0305  1.1431
  379SOL     OW 1135   0.801   0.166   2.784  0.3807  0.0618  0.9037
  379SOL    HW1 1136   0.829   0.073   2.763  0.1239  1.9351 -0.4452
  379SOL    HW2 1137   0.772   0.221   2.704 -0.4835 -0.0451 -1.2793
  380SOL     OW 1138   1.533   1.098   0.573 -0.5505 -0.1039  0.0752
  380SOL    HW1 1139   1.450   1.164   0.559 -0.5287  1.6231  1.4422
  380SOL    HW2 1140   1.512   1.003   0.545  0.4922  0.6061  1.2871
  381SOL     OW 1141   1.275   1.274   1.436  0.3035  0.0176 -0.2112
  381SOL    HW1 1142   1.346   1.200   1.435  1.8171 -0.7723  1.8726
  381SOL    HW2 1143   1.305   1.369   1.399 -1.9639  1.7577 -0.8580
  382SOL     OW 1144   1.810   0.842   0.264  0.1456  0.0122 -0.3458
  382SOL    HW1 1145   1.822   0.798   0.173  0.2822 -1.3361 -0.3705
  382SOL    HW2 1146   1.870   0.802   0.342 -1.8905 -1.4809  3.3679
  383SOL     OW 1147   2.508   0.974   1.471  0.4832 -0.3820  0.3344
  383SOL    HW1 1148   2.416   0.949   1.436  0.4429  0.7348  0.1583
  383SOL    HW2 1149   2.582   0.979   1.392  1.2492 -0.9810 -2.8445
  384SOL     OW 1150   0.958   2.268   0.229 -0.1206 -0.3189 -0.5919
  384SOL    HW1 1151   0.881   2.336   0.227  1.4418 -1.0573 -4.6072
  384SOL    HW2 1152   1.014   2.269   0.319 -0.6953 -1.7279 -0.7649
  385SOL     OW 1153   2.901   2.026   1.624 -0.1912 -0.3016  0.2596
  385SOL    HW1 1154   2.981   2.060   1.687  1.4429 -0.1002  1.6564
  385SOL    HW2 1155   2.871   1.930   1.648 -1.7714 -0.8940 -0.7356
  386SOL     OW 1156   0.496   1.031   0.460  0.5161 -0.1065 -0.8084
  386SOL    HW1 1157   0.506   0.929   0.455  0.0163 -0.6469  1.6093
  386SOL    HW2 1158   0.433   1.074   0.382 -2.1414  2.2811  0.1587
  387SOL     OW 1159   0.954   0.271   1.645 -0.1316  0.2283  0.6935
  387SOL    HW1 1160   0.970   0.372   1.624 -2.0373 -0.7417 -2.0028
  387SOL    HW2 1161   0.947   0.214   1.555  2.5624  0.7689  0.7145
  388SOL     OW 1162   1.243   2.734   1.807  0.5143 -0.3516  0.2325
  388SOL    HW1 1163   1.293   2.759   1.719 -0.3121  0.0064  0.9377
  388SOL    HW2 1164   1.284   2.649   1.852  3.3063  0.5762 -1.2561
  389SOL     OW 1165   0.119   2.927   1.352 -0.4256 -0.4842  0.4162
  389SOL    HW1 1166   0.028   2.946   1.297 -0.2942 -0.3867  1.7717
  389SOL    HW2 1167   0.146   2.825   1.347  2.6908  0.8398 -0.3623
  390SOL     OW 1168   1.035   0.955   1.352 -0.0370 -0.4446 -0.1387
  390SOL    HW1 1169   1.122   0.953   1.407  0.1211 -0.5742 -3.3632
  390SOL    HW2 1170   0.957   1.014   1.386  0.0370 -2.3265 -0.5005
  391SOL     OW 1171   2.148   1.108   1.119  0.5305 -0.3092 -0.2551
  391SOL    HW1 1172   2.106   1.020   1.161 -2.3760 -0.0369 -1.3449
  391SOL    HW2 1173   2.218   1.095   1.041 -1.8957 -0.1824 -2.5444
  392SOL     OW 1174   0.921   2.590   0.039  0.5147 -0.3644 -0.3435
  392SOL    HW1 1175   1.015   2.543   0.024  1.3813 -3.9719 -0.5625
  392SOL    HW2 1176   0.858   2.531   0.097  0.4400  1.1319 -0.4226
  393SOL     OW 1177   0.338   0.677   1.951  0.1448 -0.0488  0.5568
  393SOL    HW1 1178   0.304   0.578   1.952 -0.6000  0.7032 -1.5119
  393SOL    HW2 1179   0.347   0.714   1.852  0.0479  1.4810 -0.5207
  394SOL     OW 1180   3.091   1.931   2.696  0.4329 -0.2092 -0.4578
  394SOL    HW1 1181   3.149   1.885   2.772  0.5999  4.1294  1.2064
  394SOL    HW2 1182   3.100   1.887   2.606  0.6025  1.7737  0.6595
  395SOL     OW 1183   1.634   1.967   0.629 -0.1058 -0.1265  0.1189
  395SOL    HW1 1184   1.698   1.904   0.571  2.7707 -0.4145 -1.3653
  395SOL    HW2 1185   1.678   2.012   0.714 -0.5130 -0.6547 -0.8660
  396SOL     OW 1186   2.906   1.911   1.323  0.0610  0.4403  0.6211
  396SOL    HW1 1187   2.885   1.819   1.282 -0.5571  0.0652  1.0257
  396SOL    HW2 1188   2.928   1.909   1.427 -0.2542  1.4453 -0.0665
  397SOL     OW 1189   1.053   2.230   0.486  0.1731  0.3607  0.0875
  397SOL    HW1 1190   0.957   2.208   0.530  0.2815  0.9057  0.3905
  397SOL    HW2 1191   1.071   2.330   0.498  1.5514 -0.0286  1.7394
  398SOL     OW 1192   2.184   3.061   1.177 -0.2887  0.5773  0.1543
  398SOL    HW1 1193   2.101   2.995   1.191 -2.0076  0.7718 -0.9334
  398SOL    HW2 1194   2.151   3.141   1.121 -1.7699 -0.8805 -1.6207
  399SOL     OW 1195   3.065   2.417   2.634  0.0365 -0.5486 -0.4421
  399SOL    HW1 1196   3.016   2.336   2.599  2.1678 -1.3286  0.4962
  399SOL    HW2 1197   3.140   2.382   2.700  1.1647 -2.2353 -0.4578
  400SOL     OW 1198   0.664   1.745   1.360  0.6091  0.0921  0.5661
  400SOL    HW1 1199   0.618   1.755   1.455 -0.6978 -0.1020 -0.1421
  400SOL    HW2 1200   0.738   1.819   1.335  1.0816  0.3626 -1.0299
  401SOL     OW 1201   1.854   0.310   1.143  0.2740  0.3112 -0.4401
  401SOL    HW1 1202   1.857   0.299   1.244  2.0451  0.6846 -0.1321
  401SOL    HW2 1203   1.767   0.345   1.100  0.8975 -0.0883  3.2612
  402SOL     OW 1204   1.336   0.242   3.085 -0.2094  0.0256 -0.0315
  402SOL    HW1 1205   1.409   0.197   3.024  0.2698 -0.7381 -1.3960
  402SOL    HW2 1206   1.295   0.331   3.044 -0.3825 -0.3675 -2.7244
  403SOL     OW 1207   2.209   1.884   0.812 -0.2647  0.0514  0.1986
  403SOL    HW1 1208   2.310   1.880   0.815 -0.6952  0.8868  0.9676
  403SOL    HW2 1209   2.180   1.919   0.904 -2.5751 -0.7952  1.6873
  404SOL     OW 1210   0.299   2.494   2.763  0.3542  0.7732  0.3515
  404SOL    HW1 1211   0.362   2.459   2.687  0.2821  1.9226  0.1941
  404SOL    HW2 1212   0.265   2.594   2.755  0.2743 -0.0988  2.2358
  405SOL     OW 1213   0.156   2.413   0.679  0.1093  0.5704 -0.6119
  405SOL    HW1 1214   0.136   2.328   0.622 -3.9827 -3.6730 -2.3510
  405SOL    HW2 1215   0.241   2.467   0.648  0.5934  2.1319 -2.3611
  406SOL     OW 1216   0.055   1.554   3.049  0.2581  0.0994  0.1391
  406SOL    HW1 1217   0.108   1.509   2.972  0.1773 -1.4190 -2.6367
  406SOL    HW2 1218   0.104   1.554   3.140  0.2434  2.9242  0.8696
  407SOL     OW 1219   1.616   0.866   0.958 -0.3310 -0.1924 -0.1337
  407SOL    HW1 1220   1.609   0.841   0.859 -0.3572 -2.0244  1.5612
  407SOL    HW2 1221   1.538   0.928   0.987  0.2371 -1.6189 -0.7797
  408SOL     OW 1222   1.580   2.394   0.983  0.4336  1.0338  0.0642
  408SOL    HW1 1223   1.660   2.394   0.916  1.1756 -0.6388  0.2395
  408SOL    HW2 1224   1.515   2.476   0.967  1.2778 -0.1813 -0.6113
  409SOL     OW 1225   0.601   0.823   0.683 -0.0596 -0.3879 -0.3079
  409SOL    HW1 1226   0.547   0.784   0.604 -0.0104  1.5776  0.1049
  409SOL    HW2 1227   0.628   0.754   0.762 -0.2137 -3.1779 -2.3454
  410SOL     OW 1228   1.188   2.030   1.431 -0.0394  0.1483 -0.0078
  410SOL    HW1 1229   1.251   1.951   1.453 -2.1358  2.1324 -1.8602
  410SOL    HW2 1230   1.084   2.013   1.450 -1.0693 -1.1530  0.3802
  411SOL     OW 1231   2.535   1.825   3.009  0.5171 -0.0805 -0.6886
  411SOL    HW1 1232   2.605   1.893   2.981 -1.6772 -0.1744 -0.0993
  411SOL    HW2 1233   2.492   1.777   2.926 -1.5317 -0.9312  0.0587
  412SOL     OW 1234   1.493   2.449   2.170 -0.3356 -0.0037  0.1977
  412SOL    HW1 1235   1.575   2.487   2.227  1.0324  1.4520 -0.5629
  412SOL    HW2 1236   1.408   2.428   2.226  0.7462 -1.3833  1.7687
  413SOL     OW 1237   0.038   0.258   3.028  0.3137  0.3693 -0.2266
  413SOL    HW1 1238  -0.007   0.166   3.020  2.5778  1.3707  0.0839
  413SOL    HW2 1239   0.132   0.254   3.061 -1.4147  1.7436 -0.6232
  414SOL     OW 1240   1.732   1.527   1.132  0.0786 -0.0695 -0.3566
  414SOL    HW1 1241   1.678   1.610   1.166 -0.5394 -1.0598 -0.4492
  414SOL    HW2 1242   1.746   1.537   1.025  0.4985  1.3636 -0.1921
  415SOL     OW 1243   0.377   2.172   0.652  0.1674  0.4784 -0.1813
  415SOL    HW1 1244   0.360   2.178   0.756  2.8230 -1.5511  4.1986
  415SOL    HW2 1245   0.289   2.174   0.603 -0.6191 -1.0332 -2.1439
  416SOL     OW 1246   0.355   1.100   1.073 -0.1323 -0.0714 -0.2014
  416SOL    HW1 1247   0.328   1.003   1.047 -1.0866 -1.4890 -1.4995
  416SOL    HW2 1248   0.456   1.121   1.049  1.5259  0.0904  0.1110
  417SOL     OW 1249   2.348   2.435   2.121 -0.4765 -0.2696  0.0355
  417SOL    HW1 1250   2.390   2.346   2.107 -0.8270  0.9957 -0.4220
  417SOL    HW2 1251   2.299   2.446   2.209  0.5262  0.6459  0.6307
  418SOL     OW 1252   1.033   0.528   1.327 -0.0030 -0.1991  0.1781
  418SOL    HW1 1253   0.974   0.490   1.255  0.1218 -0.7803  0.3458
  418SOL    HW2 1254   1.127   0.565   1.299  1.0004  2.7921 -0.0640
  419SOL     OW 1255   0.884   0.563   2.960  0.1592  0.7394  0.0012
  419SOL    HW1 1256   0.791   0.614   2.975 -0.5597 -2.8712  1.0337
  419SOL    HW2 1257   0.968   0.623   2.972  1.3319  0.3414 -1.8143
  420SOL     OW 1258   0.110   2.188   0.525 -0.5921  0.2983  0.2754
  420SOL    HW1 1259   0.145   2.199   0.428  2.3188 -0.9898 -1.2594
  420SOL    HW2 1260   0.035   2.116   0.531 -1.8594 -3.3897 -0.3173
  421SOL     OW 1261   0.322   2.970   0.538  0.4121  0.1230  0.0729
  421SOL    HW1 1262   0.291   2.930   0.630 -0.0926  0.5427  1.8219
  421SOL    HW2 1263   0.412   3.021   0.544  0.2964 -0.4264  0.5652
  422SOL     OW 1264   1.013   2.566   0.943 -0.0475  0.3196  0.0160
  422SOL    HW1 1265   1.080   2.615   0.880  2.2238 -1.4085  0.0886
  422SOL    HW2 1266   1.053   2.532   1.029  0.1880 -1.1849 -0.6496
  423SOL     OW 1267   0.143   0.702   1.252  0.0441 -0.9834 -0.1176
  423SOL    HW1 1268   0.089   0.637   1.314  0.9229  0.3347  1.4952
  423SOL    HW2 1269   0.086   0.766   1.199  0.7525  0.7274 -2.3499
  424SOL     OW 1270   1.129   2.206   2.039 -0.1115 -0.4962 -0.1399
  424SOL    HW1 1271   1.097   2.305   2.035 -0.2133 -0.3512  1.3240
  424SOL    HW2 1272   1.082   2.163   2.120  1.9688 -1.3949 -0.0365
  425SOL     OW 1273   1.930   1.286   0.996  0.4509 -0.4628  0.3577
  425SOL    HW1 1274   2.005   1.234   1.053  0.8061 -4.3979 -0.1046
  425SOL    HW2 1275   1.946   1.386   0.976 -2.4315  1.0036  1.3105
  426SOL     OW 1276   1.463   1.619   1.231 -0.0296  0.4398  0.5489
  426SOL    HW1 1277   1.478   1.718   1.198  0.2917  2.1918 -1.3516
  426SOL    HW2 1278   1.408   1.619   1.321 -0.0760  3.8473  0.6275
  427SOL     OW 1279   1.938   2.413   2.087  0.2597  0.8249  0.0232
  427SOL    HW1 1280   2.005   2.357   2.146 -1.2231 -1.0513  0.5454
  427SOL    HW2 1281   1.949   2.514   2.095 -1.2122 -3.3832 -1.3656
  428SOL     OW 1282   0.872   0.051   0.053 -0.0494 -0.2450 -0.7268
  428SOL    HW1 1283   0.893   0.133  -0.007  0.0212 -0.5535  0.2678
  428SOL    HW2 1284   0.957  -0.008   0.069  0.0279 -4.6919 -1.0243
  429SOL     OW 1285   1.292   0.166   0.243 -0.1827  0.1757 -0.1505
  429SOL    HW1 1286   1.385   0.155   0.291 -1.4002  2.2200 -1.0888
  429SOL    HW2 1287   1.293   0.187   0.137 -1.1058  0.5821 -2.3130
  430SOL     OW 1288   2.895   1.397   0.276  0.3508  0.8837 -0.2388
  430SOL    HW1 1289   2.904   1.422   0.177  1.8497 -0.0145  2.4083
  430SOL    HW2 1290   2.815   1.446   0.329  3.4814 -1.4626  1.1470
  431SOL     OW 1291   2.063   1.563   0.901  0.2310 -0.2923 -0.0838
  431SOL    HW1 1292   2.107   1.619   0.976  0.4655 -1.4899 -0.8290
  431SOL    HW2 1293   1.998   1.617   0.842 -0.4955  0.0870  1.1117
  432SOL     OW 1294   2.930   2.160   1.219  0.3060  0.4416 -0.2295
  432SOL    HW1 1295   2.925   2.058   1.246  1.8574 -1.2361  0.2631
  432SOL    HW2 1296   2.973   2.219   1.294 -0.1567 -1.7191  0.1842
  433SOL     OW 1297   1.862   0.258   0.817  0.4884 -0.1413 -0.3087
  433SOL    HW1 1298   1.782   0.308   0.863 -0.6150 -0.2409  1.3240
  433SOL    HW2 1299   1.959   0.263   0.860 -1.6681 -0.2346 -1.2861
  434SOL     OW 1300   1.564   0.281   0.688  0.3183 -0.6507  1.0921
  434SOL    HW1 1301   1.540   0.352   0.613  0.3142  2.6709 -0.0194
  434SOL    HW2 1302   1.614   0.315   0.775  0.7747  1.0843  0.2447
  435SOL     OW 1303   1.478   1.423   2.111  0.0130  0.6280 -0.3314
  435SOL    HW1 1304   1.473   1.442   2.217  0.6899 -1.3680  2.5611
  435SOL    HW2 1305   1.488   1.510   2.056  2.1610  1.6224  0.4975
  436SOL     OW 1306   1.714   2.720   2.255  0.0159  0.2049 -0.0397
  436SOL    HW1 1307   1.678   2.787   2.327  0.1658 -1.9825 -0.9806
  436SOL    HW2 1308   1.719   2.623   2.294 -0.4192 -1.9134 -0.1240
  437SOL     OW 1309   1.125   2.969   0.902  0.2331 -0.0316 -0.2891
  437SOL    HW1 1310   1.058   3.051   0.890 -2.7131 -1.3623 -0.2156
  437SOL    HW2 1311   1.121   2.929   0.997 -0.5649  2.3476 -1.1286
  438SOL     OW 1312   1.023   2.698   1.517 -0.6049 -0.2468  0.2222
  438SOL    HW1 1313   1.125   2.714   1.510 -0.1894  1.0224  2.1561
  438SOL    HW2 1314   0.989   2.639   1.443 -1.9308 -1.4503 -0.7213
  439SOL     OW 1315   0.710   1.859   1.109  0.1389  0.2608  0.4697
  439SOL    HW1 1316   0.718   1.964   1.102 -1.0463  1.0715 -1.3794
  439SOL    HW2 1317   0.616   1.824   1.138  1.0361 -0.8286  2.6044
  440SOL     OW 1318   1.048   2.472   1.986 -0.3183 -0.5741 -0.2340
  440SOL    HW1 1319   1.001   2.510   1.903 -1.3210 -1.6273 -1.7823
  440SOL    HW2 1320   1.151   2.475   1.982 -1.3932  2.9593  3.6723
  441SOL     OW 1321   0.384   2.705   1.507  0.5828  0.2990  0.6738
  441SOL    HW1 1322   0.452   2.633   1.540 -2.0225  2.3142  2.5600
  441SOL    HW2 1323   0.308   2.672   1.443  1.7880  0.6905 -0.9851
  442SOL     OW 1324   2.250   0.669   2.526  0.2331  0.6756 -0.1435
  442SOL    HW1 1325   2.274   0.573   2.558  0.4626 -0.7626  0.8448
  442SOL    HW2 1326   2.159   0.692   2.566 -1.2158 -1.1240 -1.5766
  443SOL     OW 1327   1.212   2.657   2.219 -0.1616  0.3089 -0.4984
  443SOL    HW1 1328   1.152   2.686   2.295  2.4567  0.5374 -1.4046
  443SOL    HW2 1329   1.259   2.567   2.243 -0.2912  1.4132  0.0907
  444SOL     OW 1330   1.033   1.326   1.549  0.0108 -0.3950  0.1306
  444SOL    HW1 1331   1.132   1.309   1.515 -0.0521  1.1037  0.0329
  444SOL    HW2 1332   1.001   1.421   1.525  1.2790 -0.4927 -1.6179
  445SOL     OW 1333   3.089   2.390   1.961  0.1230 -0.0155 -0.7075
  445SOL    HW1 1334   3.091   2.452   1.879  0.3411 -1.9150  0.9238
  445SOL    HW2 1335   2.994   2.383   2.004  1.7491  0.1078  0.0763
  446SOL     OW 1336   0.204   1.887   2.385 -0.5185 -0.1911  0.4975
  446SOL    HW1 1337   0.186   1.984   2.417  1.5713 -0.6922 -2.4308
  446SOL    HW2 1338   0.151   1.859   2.301 -0.0027  0.7187  3.8025
  447SOL     OW 1339   1.236   1.638   1.931  0.1408 -0.4478  0.0572
  447SOL    HW1 1340   1.177   1.714   1.891  1.0786  0.1710  1.9730
  447SOL    HW2 1341   1.334   1.669   1.954 -0.8338  3.0669  0.7155
  448SOL     OW 1342   0.117   1.563   1.918 -0.2126 -0.2448 -0.2124
  448SOL    HW1 1343   0.101   1.666   1.926  2.4790  0.5460  1.1606
  448SOL    HW2 1344   0.177   1.528   2.003  1.4528  0.8621 -0.7473
  449SOL     OW 1345   2.021   2.961   0.894  0.1633 -0.9690  0.6201
  449SOL    HW1 1346   2.072   2.968   0.980 -0.4809  1.4734  0.8298
  449SOL    HW2 1347   1.984   2.864   0.881 -1.8722 -1.5116  2.3582
  450SOL     OW 1348   2.269   1.336   0.919 -0.4727 -0.4526 -0.0852
  450SOL    HW1 1349   2.276   1.235   0.917  1.1446 -0.2639  3.3545
  450SOL    HW2 1350   2.217   1.388   0.848  0.7139  2.0810 -2.5261
  451SOL     OW 1351   1.423   0.042   1.434  0.4863 -0.4506  0.1191
  451SOL    HW1 1352   1.330   0.080   1.451  0.0428 -1.2169  0.4924
  451SOL    HW2 1353   1.448  -0.027   1.510  0.1117 -0.3994  0.4289
  452SOL     OW 1354   2.640   2.339   2.244  0.7863  0.6492 -0.1655
  452SOL    HW1 1355   2.599   2.427   2.278 -0.5386  3.5691  4.0804
  452SOL    HW2 1356   2.694   2.289   2.320  0.3248 -0.7274 -1.8462
  453SOL     OW 1357   2.436   2.614   3.043  0.0921  0.2742  0.4550
  453SOL    HW1 1358   2.352   2.679   3.031  2.0850  0.3029 -0.2816
  453SOL    HW2 1359   2.428   2.528   2.989 -0.1509  2.6551 -0.5119
  454SOL     OW 1360   0.967   1.065   2.036  0.2211  0.5618  0.0510
  454SOL    HW1 1361   0.975   1.115   1.947 -1.5586 -1.5675  2.2982
  454SOL    HW2 1362   1.061   1.029   2.064 -0.2718 -0.6614  1.7232
  455SOL     OW 1363   0.637   2.620   2.901  0.1325 -0.1340 -0.0912
  455SOL    HW1 1364   0.699   2.695   2.947 -1.0158  1.3289 -0.1336
  455SOL    HW2 1365   0.622   2.543   2.967 -1.1257  0.0507  1.7299
  456SOL     OW 1366   0.498   1.775   0.317 -0.6812 -0.1309 -0.6737
  456SOL    HW1 1367   0.578   1.715   0.314 -2.1191  2.6303 -0.7657
  456SOL    HW2 1368   0.525   1.879   0.312  0.6077 -0.0346 -2.0320
  457SOL     OW 1369   0.353   2.553   0.610 -0.1915  0.0990 -0.4234
  457SOL    HW1 1370   0.366   2.619   0.529  0.6206  0.4276 -1.3762
  457SOL    HW2 1371   0.440   2.520   0.656 -1.2352  1.0175  0.9798
  458SOL     OW 1372   2.998   2.971   1.222  0.1265  0.0225 -0.5857
  458SOL    HW1 1373   3.016   3.076   1.213 -2.3887  0.3632  2.7214
  458SOL    HW2 1374   2.984   2.924   1.129  2.4111 -1.1371 -0.6358
  459SOL     OW 1375   2.172   2.586   0.847  0.5563  0.0047 -0.6517
  459SOL    HW1 1376   2.180   2.649   0.931  0.9179  0.0954  1.4905
  459SOL    HW2 1377   2.265   2.560   0.799 -0.2878 -0.9195 -0.3734
  460SOL     OW 1378   1.058   1.934   2.901  0.4811  0.6512 -0.1084
  460SOL    HW1 1379   1.089   2.019   2.852  0.6450  0.4780 -1.6743
  460SOL    HW2 1380   1.134   1.892   2.955 -1.9659  0.7751 -0.7657
  461SOL     OW 1381   0.554   2.132   2.680 -0.0359  0.6430 -0.0710
  461SOL    HW1 1382   0.486   2.057   2.651  3.6025  0.5085 -1.9344
  461SOL    HW2 1383   0.603   2.106   2.768 -1.2475  1.6932  2.5108
  462SOL     OW 1384   0.966   1.156   1.763 -0.4710 -0.0939 -0.3679
  462SOL    HW1 1385   1.032   1.079   1.743 -3.2977  0.5348  0.2419
  462SOL    HW2 1386   0.949   1.219   1.689  0.9685  0.7226  0.2318
  463SOL     OW 1387   0.456   0.757   0.458  0.2779  0.0847 -0.5359
  463SOL    HW1 1388   0.475   0.654   0.441  0.3842 -1.6025  0.5789
  463SOL    HW2 1389   0.355   0.773   0.484  0.4794 -0.1881 -2.3300
  464SOL     OW 1390   0.510   2.235   2.237  0.1102 -0.1161  0.1841
  464SOL    HW1 1391   0.440   2.289   2.292 -0.1000 -0.0480  0.6930
  464SOL    HW2 1392   0.547   2.293   2.160  2.5026 -0.5651 -0.2766
  465SOL     OW 1393   0.299   0.887   0.872  0.5536 -0.4387  0.1030
  465SOL    HW1 1394   0.216   0.912   0.810 -0.3045  0.4373 -2.1022
  465SOL    HW2 1395   0.327   0.787   0.869  1.6863  0.0077  4.1379
  466SOL     OW 1396   1.388   1.110   1.130  0.1102  0.3182  0.1902
  466SOL    HW1 1397   1.438   1.197   1.106 -1.9658 -0.5873 -0.9664
  466SOL    HW2 1398   1.285   1.121   1.126  0.6291  1.4465 -1.7930
  467SOL     OW 1399   0.463   0.400   2.428  0.1357  0.0841 -0.0413
  467SOL    HW1 1400   0.448   0.499   2.462 -0.0521  0.7166 -2.0818
  467SOL    HW2 1401   0.506   0.333   2.494 -0.3502 -1.3591 -4.4064
  468SOL     OW 1402   0.492   2.252   1.718 -0.0411  0.3896  0.3102
  468SOL    HW1 1403   0.512   2.331   1.782  0.7754  0.0863  0.3583
  468SOL    HW2 1404   0.468   2.282   1.619  0.3680  1.7441 -0.6483
  469SOL     OW 1405   1.582   1.296   1.106 -0.2704  0.3331  0.1553
  469SOL    HW1 1406   1.640   1.220   1.140 -0.5585 -1.1465 -1.3228
  469SOL    HW2 1407   1.627   1.392   1.111 -1.5940  2.0071  1.0294
  470SOL     OW 1408   3.000   1.606   0.753  0.1836 -0.2041  0.2363
  470SOL    HW1 1409   3.093   1.589   0.800 -1.0426  1.7319 -1.2835
  470SOL    HW2 1410   2.946   1.685   0.789 -0.1754 -2.5504 -0.0101
  471SOL     OW 1411   2.595   1.297   2.186 -0.1745  0.1953 -0.0162
  471SOL    HW1 1412   2.565   1.219   2.253  0.1148 -2.5413  3.3818
  471SOL    HW2 1413   2.632   1.379   2.240 -1.7746  3.5055 -1.2497
  472SOL     OW 1414   1.153   2.456   3.075  0.2138  0.2277 -0.0910
  472SOL    HW1 1415   1.222   2.461   3.152  1.4176  1.9970 -1.1135
  472SOL    HW2 1416   1.127   2.360   3.048  1.0443  2.5987 -3.3693
  473SOL     OW 1417   1.044   1.533   0.891 -0.0708 -0.2705  0.4239
  473SOL    HW1 1418   0.955   1.564   0.933  1.0824 -2.0147 -1.6783
  473SOL    HW2 1419   1.121   1.514   0.962 -0.5864 -0.7533  1.7299
  474SOL     OW 1420   0.768   1.262   0.780 -0.7989  0.2044  0.1297
  474SOL    HW1 1421   0.753   1.223   0.687 -0.1782  1.2408  0.9455
  474SOL    HW2 1422   0.852   1.226   0.821 -1.2484  0.1521 -0.7264
  475SOL     OW 1423   2.886   0.030   0.822 -0.1724 -0.3054  0.3007
  475SOL    HW1 1424   2.963   0.069   0.887 -2.5794 -0.5375  0.9190
  475SOL    HW2 1425   2.790   0.061   0.854 -1.2324  1.2979  0.3932
  476SOL     OW 1426   0.958   3.066   1.956  0.3253 -0.2707  0.4819
  476SOL    HW1 1427   1.034   3.019   2.008 -0.2053 -2.5935  0.1398
  476SOL    HW2 1428   0.942   3.022   1.866  1.1412 -0.1758  0.1183
  477SOL     OW 1429   1.492   0.411   2.438 -0.0588 -0.2899 -0.2965
  477SOL    HW1 1430   1.445   0.405   2.533  2.3623 -0.1915  0.8631
  477SOL    HW2 1431   1.579   0.351   2.434  0.9157 -1.4139  0.7505
  478SOL     OW 1432   2.198   1.840   0.245  0.3041  0.2526 -0.3163
  478SOL    HW1 1433   2.142   1.759   0.224  1.5551  1.7639 -0.2318
  478SOL    HW2 1434   2.300   1.824   0.229 -0.2716 -1.0083 -0.1503
  479SOL     OW 1435   1.233   1.166   2.857  1.4974  0.4090  0.5779
  479SOL    HW1 1436   1.318   1.140   2.805  1.0741 -1.0631  1.2607
  479SOL    HW2 1437   1.152   1.114   2.817 -2.3511 -0.4760 -0.3398
  480SOL     OW 1438   2.495   2.334   0.406  0.2555  0.3120  0.3025
  480SOL    HW1 1439   2.444   2.259   0.463 -1.0040  0.4829  2.1472
  480SOL    HW2 1440   2.436   2.366   0.331  0.0301 -1.5134  0.3080
  481SOL     OW 1441   1.055   1.181   0.834  0.2853 -0.2137  0.1059
  481SOL    HW1 1442   1.067   1.257   0.761  0.1796 -2.7158 -0.8248
  481SOL    HW2 1443   1.078   1.200   0.935  0.1994  0.1166  0.4507
  482SOL     OW 1444   1.597   0.286   2.007 -0.4325  0.1630  0.6094
  482SOL    HW1 1445   1.608   0.388   1.989  0.4376 -0.1773 -1.8854
  482SOL    HW2 1446   1.680   0.246   2.045  1.2096 -0.3452  0.4526
  483SOL     OW 1447   0.108   2.366   1.322  0.2786  0.0267  0.2563
  483SOL    HW1 1448   0.007   2.350   1.340  0.2784  0.3694 -0.5953
  483SOL    HW2 1449   0.126   2.363   1.216 -2.1199 -1.3267  0.9394
  484SOL     OW 1450   1.697   0.951   1.384  0.1283  0.3385 -0.3533
  484SOL    HW1 1451   1.792   0.932   1.422 -0.6712 -0.7861  2.0031
  484SOL    HW2 1452   1.706   1.029   1.316  0.2751  2.1593 -0.9735
  485SOL     OW 1453   0.670   1.148   1.803  0.0112 -0.1061  0.3043
  485SOL    HW1 1454   0.640   1.099   1.717 -0.3155 -0.5547 -0.9132
  485SOL    HW2 1455   0.772   1.147   1.822 -0.5113  1.5658  0.8929
  486SOL     OW 1456   0.866   1.910   2.446  0.0221  0.1084  0.4115
  486SOL    HW1 1457   0.921   1.876   2.524 -0.2318 -0.0746 -0.0282
  486SOL    HW2 1458   0.819   1.997   2.460  0.7414 -1.2014 -0.9556
  487SOL     OW 1459   1.776   1.538   0.850  0.2117  0.3259 -0.0907
  487SOL    HW1 1460   1.734   1.455   0.813  2.0401  0.5509  0.8719
  487SOL    HW2 1461   1.807   1.601   0.777 -0.4016 -0.1491  1.5138
  488SOL     OW 1462   2.980   0.955   2.217  0.2936  0.4590 -0.5124
  488SOL    HW1 1463   3.003   0.861   2.171 -0.9534  0.4230  0.1726
  488SOL    HW2 1464   2.966   0.936   2.317  0.3326 -1.6566  1.5040
  489SOL     OW 1465   2.761   0.206   1.365 -0.1637  0.0649  0.5137
  489SOL    HW1 1466   2.758   0.220   1.470 -0.3617 -1.2400 -0.5303
  489SOL    HW2 1467   2.848   0.160   1.330  1.4392  2.3761  0.0785
  490SOL     OW 1468   1.398   3.000   2.824 -0.1266 -0.3331 -0.7787
  490SOL    HW1 1469   1.449   2.910   2.835 -2.4449  0.2399 -2.4525
  490SOL    HW2 1470   1.379   3.008   2.722  1.1676 -1.6989  1.6867
  491SOL     OW 1471   1.891   1.550   2.686 -0.0917 -0.1324  0.2892
  491SOL    HW1 1472   1.896   1.565   2.791 -1.9859  0.9676 -1.8984
  491SOL    HW2 1473   1.981   1.512   2.651 -1.2787 -0.4308 -0.8797
  492SOL     OW 1474   0.507   1.938   0.729 -0.2538  0.2543 -0.3554
  492SOL    HW1 1475   0.592   1.952   0.790  1.1597 -0.8434  0.9177
  492SOL    HW2 1476   0.460   2.023   0.708  0.9553  0.0877 -0.6678
  493SOL     OW 1477   0.493   1.404   2.142  0.0851 -0.2319  0.1240
  493SOL    HW1 1478   0.421   1.471   2.174 -1.1616 -1.8913 -0.8135
  493SOL    HW2 1479   0.491   1.313   2.196 -1.5777 -1.4992 -0.5599
  494SOL     OW 1480   2.581   2.587   0.185 -0.1565 -0.3988  0.6456
  494SOL    HW1 1481   2.597   2.490   0.207 -1.6296 -0.5102 -0.6093
  494SOL    HW2 1482   2.527   2.600   0.093  0.0433  0.5730 -2.3798
  495SOL     OW 1483   2.745   2.665   2.684  0.0611 -0.1675 -0.1644
  495SOL    HW1 1484   2.759   2.579   2.623  0.8488  1.0917  1.2024
  495SOL    HW2 1485   2.733   2.747   2.628  2.4789  0.8679  0.4767
  496SOL     OW 1486   2.078   2.206   0.707  0.8323 -0.3887  0.1342
  496SOL    HW1 1487   2.082   2.240   0.812  2.1309  1.2001  3.0956
  496SOL    HW2 1488   2.084   2.106   0.697 -0.9289  1.9503 -1.3124
  497SOL     OW 1489   0.258   2.970   2.393 -0.1022 -0.0413 -0.0480
  497SOL    HW1 1490   0.195   3.044   2.433  1.7411  0.2012  1.2036
  497SOL    HW2 1491   0.309   3.024   2.318 -0.1526  1.3841  0.9869
  498SOL     OW 1492   1.243   1.488   1.087  0.6017  0.2666  0.1916
  498SOL    HW1 1493   1.333   1.542   1.105 -2.0159 -0.3206  3.9500
  498SOL    HW2 1494   1.167   1.525   1.154 -2.9715  1.3572  1.1426
  499SOL     OW 1495   0.872   1.826   0.486 -0.6141 -0.8165 -0.2258
  499SOL    HW1 1496   0.812   1.749   0.516  0.9416 -0.2441 -3.3329
  499SOL    HW2 1497   0.901   1.884   0.571 -2.9295 -2.4256 -0.3113
  500SOL     OW 1498   1.441   2.962   1.656 -0.0738  0.0522 -0.3805
  500SOL    HW1 1499   1.385   2.980   1.739 -1.4331 -0.8013 -0.0997
  500SOL    HW2 1500   1.486   2.867   1.665  1.2740  1.8622 -1.1296
  501SOL     OW 1501   0.790   1.105   2.281  0.3192  0.1566 -0.4514
  501SOL    HW1 1502   0.718   1.028   2.301 -2.2210 -2.0445  0.4382
  501SOL    HW2 1503   0.851   1.081   2.197 -0.1650 -1.6081  2.6506
  502SOL     OW 1504   2.581   0.956   1.749 -0.5538  0.0968 -0.3630
  502SOL    HW1 1505   2.547   0.968   1.652  0.9792  0.9107  1.6497
  502SOL    HW2 1506   2.547   0.876   1.805  2.0023 -0.2781  1.1249
  503SOL     OW 1507   1.312   0.155   0.611  0.0882  0.2062 -0.6729
  503SOL    HW1 1508   1.229   0.215   0.627 -0.5405 -0.1655 -0.7315
  503SOL    HW2 1509   1.400   0.199   0.644  0.5047 -0.2025 -1.7802
  504SOL     OW 1510   2.970   2.303   1.432 -0.1596  0.1641 -0.0594
  504SOL    HW1 1511   2.986   2.398   1.477  1.9943 -2.5371 -0.5283
  504SOL    HW2 1512   2.878   2.263   1.452 -0.7760 -0.5721 -1.2269
  505SOL     OW 1513   2.279   1.308   1.474 -0.0648 -0.1114 -0.3323
  505SOL    HW1 1514   2.287   1.403   1.431 -0.8152  0.9339  1.7694
  505SOL    HW2 1515   2.366   1.277   1.513 -3.3400 -0.0888 -0.1993
  506SOL     OW 1516   1.877   0.302   1.741  0.0549  0.4187 -0.4694
  506SOL    HW1 1517   1.966   0.242   1.721  0.3772  1.4714  1.7603
  506SOL    HW2 1518   1.892   0.356   1.828 -0.9070  1.8267 -0.7322
  507SOL     OW 1519   0.507   0.750   2.173  0.5962 -0.0742 -0.1049
  507SOL    HW1 1520   0.432   0.729   2.104  1.0163  0.6826 -0.3890
  507SOL    HW2 1521   0.563   0.662   2.187  0.0144 -1.8822 -0.1398
  508SOL     OW 1522   0.189   1.594   0.862 -0.3710 -0.1269  0.2536
  508SOL    HW1 1523   0.245   1.673   0.819  0.4206  2.6967  0.9221
  508SOL    HW2 1524   0.174   1.601   0.963  0.3261  0.8812  0.6994
  509SOL     OW 1525   1.321   1.182   2.582  0.5528 -0.5423 -0.1245
  509SOL    HW1 1526   1.255   1.262   2.583  1.6230 -2.3905 -2.0621
  509SOL    HW2 1527   1.279   1.085   2.560 -2.7709 -3.2221 -1.2472
  510SOL     OW 1528   1.358   2.025   2.046 -0.0991 -0.3423  0.4596
  510SOL    HW1 1529   1.292   2.112   2.055 -0.5599  1.4708 -1.9284
  510SOL    HW2 1530   1.329   1.947   2.107 -1.4060  0.6335 -2.5256
  511SOL     OW 1531   3.027   2.636   1.292 -0.1189  0.1241  0.2221
  511SOL    HW1 1532   2.985   2.623   1.196  0.1943 -0.3433 -0.2664
  511SOL    HW2 1533   2.955   2.634   1.367  0.1330  0.4792 -2.4523
  512SOL     OW 1534   2.406   0.359   1.443  0.1478 -0.4010  0.5221
  512SOL    HW1 1535   2.305   0.356   1.436  1.2844  1.1648  2.1591
  512SOL    HW2 1536   2.453   0.293   1.377  1.4102  0.4735 -2.2453
  513SOL     OW 1537   2.502   2.018   0.846 -0.1835  0.8448  0.0937
  513SOL    HW1 1538   2.445   2.103   0.825 -2.0991 -0.2453 -0.8443
  513SOL    HW2 1539   2.565   1.995   0.767 -0.7421  0.2273 -0.4857
  514SOL     OW 1540   0.692   2.818   0.363  0.0815  0.4893 -1.0160
  514SOL    HW1 1541   0.684   2.892   0.290  0.5830 -0.8447  0.0527
  514SOL    HW2 1542   0.714   2.857   0.455  1.2424 -1.8084 -2.7171
  515SOL     OW 1543   1.937   1.230   2.329  0.0193  0.4768  0.1082
  515SOL    HW1 1544   1.875   1.277   2.262 -0.5879 -4.1351 -0.1209
  515SOL    HW2 1545   1.879   1.228   2.418  0.9277  0.6792  0.7596
  516SOL     OW 1546   0.295   0.409   2.003  0.1653 -0.4468  0.3590
  516SOL    HW1 1547   0.394   0.374   1.982  3.1811 -0.9258 -2.0107
  516SOL    HW2 1548   0.222   0.368   1.944 -2.1340  1.3392  0.3175
  517SOL     OW 1549   0.357   2.973   1.202 -0.4782 -0.5451  0.0917
  517SOL    HW1 1550   0.364   3.073   1.228  1.6991  0.4535 -1.1377
  517SOL    HW2 1551   0.290   2.927   1.263  1.6026  1.1783 -0.6818
  518SOL     OW 1552   2.101   0.180   1.690 -0.0135 -0.0975  0.7732
  518SOL    HW1 1553   2.174   0.204   1.759  0.0065 -0.6907 -0.6877
  518SOL    HW2 1554   2.138   0.125   1.610 -1.0214 -1.1037 -1.4480
  519SOL     OW 1555   2.355   2.187   2.609  0.0645  0.9992  0.9213
  519SOL    HW1 1556   2.267   2.171   2.665 -0.0330  0.8879  2.7519
  519SOL    HW2 1557   2.393   2.285   2.601  1.2881 -1.9398  0.5186
  520SOL     OW 1558   1.752   2.884   1.826 -0.4046 -0.4556 -0.0831
  520SOL    HW1 1559   1.676   2.830   1.874 -1.9592  2.3810  0.2090
  520SOL    HW2 1560   1.839   2.827   1.806  2.2029  0.7914  1.9521
  521SOL     OW 1561   0.602   0.108   2.151  0.0909  0.2723 -0.2703
  521SOL    HW1 1562   0.507   0.074   2.186  0.2078 -3.3512 -2.1464
  521SOL    HW2 1563   0.681   0.063   2.205  2.1062  0.9244 -0.9733
  522SOL     OW 1564   0.214   1.899   1.522  0.2279 -0.0718 -0.1966
  522SOL    HW1 1565   0.258   1.953   1.599 -0.3357  1.5847  0.1583
  522SOL    HW2 1566   0.199   1.962   1.437 -1.2850 -2.1448 -0.8915
  523SOL     OW 1567   2.267   3.029   1.611 -0.1170 -0.0657  0.3342
  523SOL    HW1 1568   2.288   2.961   1.538 -0.8520 -1.2713  1.2908
  523SOL    HW2 1569   2.212   2.979   1.684  1.9512 -1.2517 -0.6749
  524SOL     OW 1570   0.239   2.781   2.803 -0.1503  0.0197  0.4100
  524SOL    HW1 1571   0.195   2.854   2.862 -2.8612 -2.0248 -0.3552
  524SOL    HW2 1572   0.345   2.794   2.797 -1.5678 -2.6291 -3.6912
  525SOL     OW 1573   2.091   1.934   0.484 -0.5411 -0.2275  0.3948
  525SOL    HW1 1574   2.091   1.854   0.548 -0.6250 -0.6271 -3.8062
  525SOL    HW2 1575   2.149   1.917   0.396 -0.0319  0.4662 -1.5080
  526SOL     OW 1576   0.382   1.517   1.539 -0.4016 -0.1024 -0.2942
  526SOL    HW1 1577   0.336   1.484   1.626  0.6111  0.3826 -1.7870
  526SOL    HW2 1578   0.473   1.467   1.534 -3.6374 -2.5414 -0.9311
  527SOL     OW 1579   1.125   2.877   1.183  0.3074  0.3828 -0.3770
  527SOL    HW1 1580   1.216   2.834   1.207  1.2488 -2.2127  2.2271
  527SOL    HW2 1581   1.133   2.980   1.200  1.6217 -0.5190 -1.3366
  528SOL     OW 1582   1.323   2.400   0.483 -0.3864  0.2673 -0.0176
  528SOL    HW1 1583   1.358   2.304   0.492 -3.8846  0.9642 -1.6886
  528SOL    HW2 1584   1.358   2.467   0.554  0.4769  0.5451 -1.0973
  529SOL     OW 1585   1.889   1.738   0.702  0.1788  0.3074  0.0756
  529SOL    HW1 1586   1.854   1.746   0.605  2.4211  0.3361 -0.2734
  529SOL    HW2 1587   1.917   1.830   0.742  3.5005 -0.8961 -3.3423
  530SOL     OW 1588   0.348   2.468   0.211 -0.0265  0.5602  0.0763
  530SOL    HW1 1589   0.382   2.558   0.235 -3.6360 -3.7215  0.9795
  530SOL    HW2 1590   0.380   2.397   0.274 -0.3193  1.7359  1.7861
  531SOL     OW 1591   1.879   0.815   0.934  0.5982 -0.1214  0.1918
  531SOL    HW1 1592   1.911   0.837   0.833  0.5807 -2.1207 -3.4188
  531SOL    HW2 1593   1.779   0.838   0.954 -1.3171 -0.0867  0.6208
  532SOL     OW 1594   0.456   1.120   0.743 -0.0130 -0.1996 -0.2577
  532SOL    HW1 1595   0.492   1.110   0.646  3.7122 -2.8278 -0.5873
  532SOL    HW2 1596   0.415   1.034   0.787  0.6561 -2.3526 -0.3793
  533SOL     OW 1597   1.702   0.012   2.574  0.1563 -0.1977 -0.2851
  533SOL    HW1 1598   1.800   0.022   2.605 -0.2755 -1.5427 -1.6064
  533SOL    HW2 1599   1.636   0.077   2.620  0.3535  1.7992  2.1009
  534SOL     OW 1600   0.357   0.217   1.501 -0.1958  0.5747 -0.4846
  534SOL    HW1 1601   0.456   0.203   1.530  2.0292  0.1896 -1.2166
  534SOL    HW2 1602   0.324   0.317   1.492 -0.4380  1.4082  0.6559
  535SOL     OW 1603   1.967   0.334   0.154 -0.0731 -0.2895 -0.5978
  535SOL    HW1 1604   1.981   0.421   0.215  1.6443 -0.6311  1.8783
  535SOL    HW2 1605   1.974   0.254   0.217  2.3583  1.5271  0.7734
  536SOL     OW 1606   1.365   2.601   0.945 -0.0623  0.0537  0.8508
  536SOL    HW1 1607   1.321   2.562   1.033  1.2779  1.2294 -1.1793
  536SOL    HW2 1608   1.287   2.642   0.892  1.3974 -2.6312  2.7149
  537SOL     OW 1609   0.890   0.251   2.335 -0.2278 -0.6132  0.5577
  537SOL    HW1 1610   0.927   0.296   2.247  2.7216  1.4133 -1.2328
  537SOL    HW2 1611   0.848   0.162   2.311 -1.6247 -2.1505 -2.1204
  538SOL     OW 1612   1.633   2.391   1.407 -0.2708 -0.3206 -0.0888
  538SOL    HW1 1613   1.587   2.297   1.401 -0.8257 -1.8642  0.5547
  538SOL    HW2 1614   1.726   2.382   1.452  1.1034 -1.1990  1.2424
  539SOL     OW 1615   0.198   1.588   2.686  0.1332  0.1174 -0.1014
  539SOL    HW1 1616   0.098   1.596   2.652 -0.6629 -0.3102 -1.9123
  539SOL    HW2 1617   0.222   1.663   2.753 -0.8761 -1.1690 -1.6894
  540SOL     OW 1618   2.653   1.749   1.948  0.5575  0.3373 -0.0110
  540SOL    HW1 1619   2.612   1.651   1.953 -0.1532 -1.2683  3.3844
  540SOL    HW2 1620   2.590   1.824   1.976 -3.4086 -1.5216  2.5467
  541SOL     OW 1621   0.490   2.143   3.086 -0.1830 -0.1509 -0.7028
  541SOL    HW1 1622   0.502   2.116   3.185 -1.5448  0.2455 -0.1820
  541SOL    HW2 1623   0.391   2.142   3.054 -1.3048  0.8464 -0.8633
  542SOL     OW 1624   2.260   2.615   0.533 -0.0476  0.0534 -0.5963
  542SOL    HW1 1625   2.250   2.706   0.582  1.1084  1.4389 -1.2189
  542SOL    HW2 1626   2.178   2.556   0.560 -0.6822  0.1555 -0.0097
  543SOL     OW 1627   1.044   1.780   1.591 -1.1081 -0.2365  0.0354
  543SOL    HW1 1628   1.085   1.791   1.692  0.7303  1.1575  1.4640
  543SOL    HW2 1629   1.029   1.872   1.546  0.1028 -0.5143 -1.9458
  544SOL     OW 1630   1.124   0.532   0.147 -0.3914 -0.3972  0.4981
  544SOL    HW1 1631   1.106   0.459   0.218  2.4847  1.2641  3.0059
  544SOL    HW2 1632   1.137   0.491   0.049  1.1548 -1.7537 -0.4999
  545SOL     OW 1633   1.130   1.789   0.810  0.6653 -0.1149 -0.0203
  545SOL    HW1 1634   1.223   1.828   0.776  0.2801 -0.5682 -0.7722
  545SOL    HW2 1635   1.121   1.686   0.811 -1.9236 -1.2918 -1.6629
  546SOL     OW 1636   2.681   1.589   2.998  1.1045 -0.2910  0.1454
  546SOL    HW1 1637   2.633   1.679   3.013  0.8759  1.7084  0.8843
  546SOL    HW2 1638   2.614   1.514   2.988  2.4075  1.4554  0.7663
  547SOL     OW 1639   0.690   3.005   2.584  1.2255  0.1817  0.3333
  547SOL    HW1 1640   0.746   2.982   2.666  1.4619  0.5755  0.8111
  547SOL    HW2 1641   0.616   2.926   2.555 -2.4241 -0.1224  0.8264
  548SOL     OW 1642   2.041   0.793   3.046 -0.0450  0.4825  0.3283
  548SOL    HW1 1643   1.949   0.773   3.085  1.0962 -0.4850  0.9166
  548SOL    HW2 1644   2.083   0.883   3.072 -0.1494 -0.8781  2.9692
  549SOL     OW 1645   0.679   0.541   0.185 -0.7418 -1.0721  0.0412
  549SOL    HW1 1646   0.634   0.554   0.091  0.2068 -0.9593  1.9609
  549SOL    HW2 1647   0.765   0.604   0.201  0.6963  0.4765  0.0919
  550SOL     OW 1648   2.594   2.785   2.893  0.3737  0.6246  0.0599
  550SOL    HW1 1649   2.559   2.735   2.980  0.4496 -0.6441 -0.4513
  550SOL    HW2 1650   2.635   2.723   2.822  0.6510  1.6402  0.1331
  551SOL     OW 1651   0.260   0.866   0.214 -0.1825 -0.3684  0.6232
  551SOL    HW1 1652   0.359   0.852   0.187  1.8930  2.9649  1.9984
  551SOL    HW2 1653   0.248   0.855   0.312  1.4135  1.4493 -0.9157
  552SOL     OW 1654   0.621   3.031   1.921  0.0564 -0.1999 -0.4023
  552SOL    HW1 1655   0.611   3.110   1.984 -1.2487 -0.7034 -0.3996
  552SOL    HW2 1656   0.720   3.002   1.902  0.0884  0.8109  0.8938
  553SOL     OW 1657   3.038   2.422   0.374  0.6883  0.0147  0.0523
  553SOL    HW1 1658   3.099   2.353   0.415  0.9635 -1.9812  0.9737
  553SOL    HW2 1659   2.940   2.404   0.397  2.5914 -0.5277 -2.2185
  554SOL     OW 1660   2.225   0.345   0.577 -0.0300 -0.5195  0.4280
  554SOL    HW1 1661   2.283   0.362   0.494 -0.4989  1.4083  1.1085
  554SOL    HW2 1662   2.254   0.257   0.625  1.5635 -1.1410 -0.3221
  555SOL     OW 1663   0.478   2.823   2.474 -0.4445 -0.0944  0.1253
  555SOL    HW1 1664   0.410   2.897   2.455  0.4154 -1.6041  3.6342
  555SOL    HW2 1665   0.463   2.737   2.410  0.1177 -2.6800 -1.0050
  556SOL     OW 1666   0.852   2.369   1.592  0.0568 -0.1039 -0.0040
  556SOL    HW1 1667   0.869   2.450   1.648  1.6225 -2.7353  1.0849
  556SOL    HW2 1668   0.896   2.374   1.496 -0.9945 -0.2740  0.9057
  557SOL     OW 1669   0.169   2.147   0.245 -0.8445  1.1038 -0.1277
  557SOL    HW1 1670   0.105   2.082   0.201 -1.7085 -1.7827  2.3593
  557SOL    HW2 1671   0.197   2.219   0.182 -0.1994 -0.0388  1.9019
  558SOL     OW 1672   2.842   2.183   0.404 -0.6412  0.2232 -0.1802
  558SOL    HW1 1673   2.787   2.269   0.438  3.0303 -2.3090 -1.0717
  558SOL    HW2 1674   2.833   2.162   0.302  0.1267  2.2355  1.1645
  559SOL     OW 1675   0.434   2.266   1.464  0.1512  0.1381 -0.2411
  559SOL    HW1 1676   0.331   2.246   1.461  3.3424 -1.8024 -0.9766
  559SOL    HW2 1677   0.479   2.232   1.377 -0.7335 -0.1225 -2.6297
  560SOL     OW 1678   2.173   1.031   0.014  0.2690  0.2187  0.0242
  560SOL    HW1 1679   2.216   1.073   0.102  1.5163  0.5686  3.3462
  560SOL    HW2 1680   2.228   1.035  -0.072  0.7618  2.3123 -0.9824
  561SOL     OW 1681   3.048   1.989   0.163 -0.8220  0.2349 -0.7569
  561SOL    HW1 1682   3.014   1.907   0.221  1.4561  0.0478 -0.0679
  561SOL    HW2 1683   2.979   2.042   0.105 -0.4573  0.3084  0.8056
  562SOL     OW 1684   1.016   2.085   2.279 -0.0878 -0.1146  0.6986
  562SOL    HW1 1685   1.003   2.182   2.311  0.9823  0.3103  1.6650
  562SOL    HW2 1686   0.932   2.021   2.287  1.6456  0.4230 -3.1310
  563SOL     OW 1687   0.664   2.538   2.653  0.0589 -0.4176 -0.3085
  563SOL    HW1 1688   0.753   2.479   2.645 -0.9915 -2.3743  1.3365
  563SOL    HW2 1689   0.649   2.583   2.747 -0.1611 -0.3132 -0.6219
  564SOL     OW 1690   2.871   1.429   2.866  0.0924 -0.0136  0.9792
  564SOL    HW1 1691   2.820   1.499   2.924  1.1079 -2.7979 -0.2260
  564SOL    HW2 1692   2.943   1.471   2.805  0.0960 -0.4240 -0.6160
  565SOL     OW 1693   2.480   1.952   2.651  0.4090 -0.5303 -0.2841
  565SOL    HW1 1694   2.434   2.037   2.607 -0.3902 -0.0904 -0.0425
  565SOL    HW2 1695   2.569   1.979   2.704  0.1981  2.3503 -2.0065
  566SOL     OW 1696   1.989   2.918   1.474  1.1044  0.3785  0.7395
  566SOL    HW1 1697   1.977   2.830   1.527 -1.8456 -1.3438  1.7818
  566SOL    HW2 1698   2.059   2.908   1.398  1.8937  1.0278 -1.9116
  567SOL     OW 1699   2.362   0.044   2.306  0.2732  0.2039 -0.0024
  567SOL    HW1 1700   2.269   0.075   2.336 -0.4931 -2.1579 -2.1574
  567SOL    HW2 1701   2.356   0.032   2.201 -0.1471  1.0809 -0.6482
  568SOL     OW 1702   1.478   1.762   0.205  0.1933 -0.1321 -0.2985
  568SOL    HW1 1703   1.415   1.847   0.195  0.0058 -1.9313 -0.3472
  568SOL    HW2 1704   1.574   1.788   0.239 -1.9694 -0.9303 -0.4325
  569SOL     OW 1705   0.262   0.535   0.857 -1.1893 -0.3141 -0.6144
  569SOL    HW1 1706   0.280   0.473   0.779  0.2660  2.1396  0.6869
  569SOL    HW2 1707   0.161   0.533   0.882 -1.4238 -1.0030  1.9663
  570SOL     OW 1708   0.660   0.838   2.909 -0.2037 -0.1505  0.5558
  570SOL    HW1 1709   0.663   0.874   2.813 -1.0252 -1.2722  0.7565
  570SOL    HW2 1710   0.676   0.914   2.983  2.7704  0.1710  0.5680
  571SOL     OW 1711   0.804   3.031   1.077  0.8784 -0.2220 -0.0665
  571SOL    HW1 1712   0.848   3.091   1.003 -0.1267  1.8796  0.8248
  571SOL    HW2 1713   0.860   2.944   1.093 -1.0962 -0.7428  0.8414
  572SOL     OW 1714   1.662   2.745   1.424 -0.0334 -0.4074 -0.4736
  572SOL    HW1 1715   1.635   2.671   1.359  1.1797  2.2969  0.0812
  572SOL    HW2 1716   1.698   2.832   1.379  0.1952  1.4516 -0.9103
  573SOL     OW 1717   3.031   0.472   1.952  0.2292  0.5691  0.5354
  573SOL    HW1 1718   2.949   0.403   1.965 -0.8451 -1.2170  1.7358
  573SOL    HW2 1719   3.102   0.435   1.889  0.4224  1.0822 -1.4954
  574SOL     OW 1720   0.120   1.687   1.117 -0.5153  0.2710 -0.5201
  574SOL    HW1 1721   0.177   1.679   1.206  0.4485 -1.8376 -0.3729
  574SOL    HW2 1722   0.063   1.773   1.110  3.0359  1.2866  1.4390
  575SOL     OW 1723   0.839   2.277   0.954  0.0772  0.1999 -0.9363
  575SOL    HW1 1724   0.786   2.342   1.017  1.8611  1.0935  0.6398
  575SOL    HW2 1725   0.878   2.332   0.877 -0.3531 -0.1038  3.1719
  576SOL     OW 1726   2.942   3.038   1.668  0.0878  0.4165  0.1246
  576SOL    HW1 1727   2.847   3.009   1.623 -0.7639 -1.3216 -0.9417
  576SOL    HW2 1728   2.958   3.139   1.658 -2.5319 -1.2353 -1.1438
  577SOL     OW 1729   2.660   1.197   3.066 -0.1907 -0.5640 -0.2503
  577SOL    HW1 1730   2.644   1.117   3.006  1.2000 -0.1365 -2.2887
  577SOL    HW2 1731   2.711   1.177   3.155 -0.4046  2.2994  2.7042
  578SOL     OW 1732   1.371   2.713   2.561 -0.5230  0.1782 -0.0427
  578SOL    HW1 1733   1.275   2.741   2.535  1.3782 -0.3414 -0.2095
  578SOL    HW2 1734   1.440   2.783   2.529  1.5709 -0.3040  1.2513
  579SOL     OW 1735   0.083   2.442   0.122 -0.0248  0.4683  0.0615
  579SOL    HW1 1736   0.026   2.425   0.214 -1.8147  0.1358  0.0322
  579SOL    HW2 1737   0.176   2.485   0.143 -0.4406  3.1270 -0.7762
  580SOL     OW 1738   0.972   2.694   0.344  0.0789 -0.0862 -0.0626
  580SOL    HW1 1739   1.048   2.707   0.276  0.5147 -0.8684  0.8942
  580SOL    HW2 1740   0.879   2.683   0.301  0.5501  0.8975 -0.9985
  581SOL     OW 1741   1.276   2.708   1.431  0.3925 -0.0617 -0.6115
  581SOL    HW1 1742   1.322   2.620   1.467 -1.8855  1.3364 -1.0093
  581SOL    HW2 1743   1.339   2.769   1.377 -0.2828  0.7764  1.9229
  582SOL     OW 1744   1.447   0.087   1.846 -0.6893  0.3560 -0.1321
  582SOL    HW1 1745   1.487   0.159   1.909 -2.8063 -0.3880 -2.1503
  582SOL    HW2 1746   1.496   0.087   1.753  0.4798 -3.1884  0.6198
  583SOL     OW 1747   2.474   2.988   0.482  0.5639 -0.2042  0.2756
  583SOL    HW1 1748   2.555   2.936   0.442  2.6864  0.3141 -3.0134
  583SOL    HW2 1749   2.397   2.924   0.504  1.2211  0.4009  1.6184
  584SOL     OW 1750   1.505   1.049   2.273 -0.8417 -0.3709  0.0028
  584SOL    HW1 1751   1.536   1.143   2.237  1.0738 -0.4707  1.6400
  584SOL    HW2 1752   1.574   0.997   2.333  0.4906  0.8031  1.3870
  585SOL     OW 1753   2.036   2.674   2.891  0.4856 -0.2645 -0.7636
  585SOL    HW1 1754   2.079   2.585   2.855  3.3837 -0.5616  0.3112
  585SOL    HW2 1755   1.932   2.668   2.875  1.5190 -0.0331  1.7033
  586SOL     OW 1756   2.899   0.389   1.584 -1.0219 -0.3520  0.7775
  586SOL    HW1 1757   2.894   0.486   1.633  0.2027  2.7785 -0.7242
  586SOL    HW2 1758   2.832   0.321   1.611  2.1447  1.2939 -1.4215
  587SOL     OW 1759   2.174   1.472   2.762 -0.6795 -0.0566 -0.4191
  587SOL    HW1 1760   2.205   1.419   2.677 -1.8862  0.8320  1.0375
  587SOL    HW2 1761   2.255   1.529   2.803  0.3634 -1.0838  1.3257
  588SOL     OW 1762   0.444   2.634   2.264 -0.0639 -0.1959 -0.6432
  588SOL    HW1 1763   0.452   2.685   2.171  2.5812  2.9194 -2.3440
  588SOL    HW2 1764   0.390   2.550   2.254  2.4866  2.0126 -1.2727
  589SOL     OW 1765   2.167   1.379   2.495 -0.2867 -0.0254 -0.1637
  589SOL    HW1 1766   2.097   1.348   2.429  2.5575 -0.1197 -1.9613
  589SOL    HW2 1767   2.242   1.304   2.506 -0.3048 -0.5498 -2.2115
  590SOL     OW 1768   2.336   1.674   2.056  0.0200 -0.0795 -0.0535
  590SOL    HW1 1769   2.407   1.605   2.021  0.5091 -0.9924 -2.0757
  590SOL    HW2 1770   2.362   1.721   2.145 -2.1618  1.0534  0.7840
  591SOL     OW 1771   1.284   2.403   0.205 -0.1711 -0.1703  0.3596
  591SOL    HW1 1772   1.339   2.340   0.149 -1.4254 -0.6287 -1.2783
  591SOL    HW2 1773   1.302   2.391   0.309  1.0029  0.4111 -1.0060
  592SOL     OW 1774   1.801   2.349   0.796 -0.0752 -0.6895 -0.4818
  592SOL    HW1 1775   1.776   2.392   0.703 -0.9166  1.9135  0.3335
  592SOL    HW2 1776   1.888   2.394   0.844  0.1556  3.4999 -0.2596
  593SOL     OW 1777   0.764   0.297   0.185  0.1549 -0.3567  0.5985
  593SOL    HW1 1778   0.779   0.245   0.097  1.0958  0.4492  1.6237
  593SOL    HW2 1779   0.719   0.392   0.177 -1.1173 -0.5902  0.3235
  594SOL     OW 1780   1.013   1.821   2.660 -1.1465 -0.2921  0.2667
  594SOL    HW1 1781   1.108   1.818   2.614  1.8697 -1.4560  1.0519
  594SOL    HW2 1782   1.019   1.870   2.753 -0.4160  0.7451  4.1044
  595SOL     OW 1783   1.572   0.126   1.000  0.4882 -0.1817  0.1520
  595SOL    HW1 1784   1.612   0.031   1.004 -1.9136 -1.2378  1.1435
  595SOL    HW2 1785   1.482   0.133   0.945 -0.4638 -1.3056 -1.4607
  596SOL     OW 1786   0.212   1.472   2.160  0.3325  0.8263  0.4360
  596SOL    HW1 1787   0.215   1.369   2.180  2.0733 -0.1040  1.1645
  596SOL    HW2 1788   0.210   1.527   2.247 -0.9428 -1.7046 -2.6160
  597SOL     OW 1789   1.958   2.700   1.821 -0.3087  0.2167 -0.3601
  597SOL    HW1 1790   1.926   2.657   1.734 -2.7319 -1.9593 -0.0366
  597SOL    HW2 1791   2.040   2.649   1.862 -0.1795  0.5174  0.6348
  598SOL     OW 1792   2.514   2.780   1.231  0.6183 -0.0706  0.2137
  598SOL    HW1 1793   2.619   2.781   1.244  1.5467  0.0196 -2.1016
  598SOL    HW2 1794   2.478   2.684   1.222  1.3171 -0.9925 -0.9401
  599SOL     OW 1795   2.893   0.305   2.515  0.2461  0.3655 -0.2818
  599SOL    HW1 1796   2.970   0.352   2.473 -4.2084 -1.0506 -1.8285
  599SOL    HW2 1797   2.804   0.350   2.495  2.3306  0.4702 -1.4237
  600SOL     OW 1798   2.748   1.204   2.742 -0.3777  0.0659 -0.4233
  600SOL    HW1 1799   2.649   1.207   2.712 -0.2585 -2.0493  2.1744
  600SOL    HW2 1800   2.783   1.286   2.797  1.9034  0.6100 -1.1799
  601SOL     OW 1801   3.027   1.367   1.892  0.6402  0.1928 -0.0491
  601SOL    HW1 1802   2.934   1.408   1.865  0.5581  0.2346  1.2985
  601SOL    HW2 1803   3.093   1.446   1.907  0.3778  0.8591  2.5596
  602SOL     OW 1804   1.489   1.588   2.361  0.1611  0.0908  0.2491
  602SOL    HW1 1805   1.424   1.572   2.438  1.2002  0.8903 -1.7286
  602SOL    HW2 1806   1.562   1.658   2.391 -2.1968  2.9488 -0.3119
  603SOL     OW 1807   0.574   1.164   2.743 -0.1945 -0.0032 -0.0748
  603SOL    HW1 1808   0.506   1.216   2.687  2.3854  0.6431  1.5735
  603SOL    HW2 1809   0.583   1.065   2.712  0.0814 -1.0667  1.2978
  604SOL     OW 1810   2.521   0.996   0.265 -0.0188 -0.2520  0.1862
  604SOL    HW1 1811   2.598   1.064   0.245 -0.9689 -2.0176 -1.0411
  604SOL    HW2 1812   2.489   0.939   0.184 -1.4497  0.7119  3.3040
  605SOL     OW 1813   2.587   1.197   1.921 -0.4754 -0.6175 -0.0713
  605SOL    HW1 1814   2.620   1.108   1.877 -0.1322 -0.1788 -2.5376
  605SOL    HW2 1815   2.615   1.208   2.020  0.5126 -0.0662  1.1577
  606SOL     OW 1816   1.495   2.458   2.570 -0.4525 -0.3756 -0.7655
  606SOL    HW1 1817   1.459   2.552   2.587  0.3738  1.1157 -2.8956
  606SOL    HW2 1818   1.422   2.386   2.543 -2.0256  3.2308  1.1659
  607SOL     OW 1819   1.267   1.560   0.270  0.1438  0.0942 -0.4577
  607SOL    HW1 1820   1.216   1.626   0.335 -3.2083 -0.8854  0.8870
  607SOL    HW2 1821   1.355   1.606   0.237  1.3194 -0.9752 -3.1577
  608SOL     OW 1822   1.438   2.839   0.331  0.5612  0.2128  0.4340
  608SOL    HW1 1823   1.504   2.879   0.258  0.9763  3.2824  2.7132
  608SOL    HW2 1824   1.382   2.914   0.378 -1.2617  0.3774  0.9951
  609SOL     OW 1825   1.273   1.306   0.186 -0.4357  0.2682 -0.0311
  609SOL    HW1 1826   1.285   1.408   0.210 -0.1818  3.0274  3.4380
  609SOL    HW2 1827   1.219   1.292   0.096 -1.2553 -0.0223  0.5933
  610SOL     OW 1828   3.092   1.240   2.127 -0.1221 -0.4460 -0.7994
  610SOL    HW1 1829   3.049   1.154   2.100  0.6348  2.0844  0.5941
  610SOL    HW2 1830   3.084   1.321   2.066  0.5467  1.0750  2.0342
  611SOL     OW 1831   2.555   0.189   1.167  0.3759 -0.5357 -0.0182
  611SOL    HW1 1832   2.505   0.097   1.186  0.4959 -1.6469  2.5156
  611SOL    HW2 1833   2.642   0.195   1.229  0.0980  0.5641  2.5952
  612SOL     OW 1834   0.760   2.374   1.229 -0.3757 -0.1539 -0.6259
  612SOL    HW1 1835   0.688   2.300   1.235 -0.7024  3.1220  1.8523
  612SOL    HW2 1836   0.711   2.464   1.237  1.9408  0.6489 -2.7766
  613SOL     OW 1837   0.777   1.373   2.402  0.3377 -0.0176 -0.1928
  613SOL    HW1 1838   0.810   1.453   2.345  0.9297 -0.8543 -1.2812
  613SOL    HW2 1839   0.785   1.280   2.356  1.6602 -0.3410  1.2711
  614SOL     OW 1840   1.507   1.674   1.956 -0.2992  0.1366 -0.0213
  614SOL    HW1 1841   1.496   1.735   1.879  0.6266 -1.3233  3.4454
  614SOL    HW2 1842   1.582   1.714   2.020  1.3126 -1.8069 -1.0313
  615SOL     OW 1843   0.711   1.446   1.703  0.2568 -0.2650 -0.6653
  615SOL    HW1 1844   0.650   1.371   1.659 -2.0891  0.5597  1.2297
  615SOL    HW2 1845   0.768   1.490   1.634 -2.1186 -1.5236  1.2443
  616SOL     OW 1846   1.103   1.625   2.209 -0.1896  0.2697 -0.2494
  616SOL    HW1 1847   1.003   1.626   2.242 -2.7539  0.8751 -1.0922
  616SOL    HW2 1848   1.113   1.619   2.109 -1.1118  0.0772 -1.1542
  617SOL     OW 1849   2.902   1.569   1.578  0.0269 -0.1046  0.1928
  617SOL    HW1 1850   2.838   1.512   1.639  0.5463 -1.2272 -1.3886
  617SOL    HW2 1851   2.963   1.509   1.517  0.5330 -1.3190 -0.2303
  618SOL     OW 1852   1.875   1.983   1.509 -0.1405  0.4967  0.7994
  618SOL    HW1 1853   1.926   1.955   1.420 -0.6189  0.6486 -1.8544
  618SOL    HW2 1854   1.863   1.903   1.571  1.5955 -0.5318 -2.4259
  619SOL     OW 1855   1.783   0.535   2.399 -0.1603 -0.5860  0.2225
  619SOL    HW1 1856   1.715   0.582   2.330  2.4782 -0.1785 -2.5049
  619SOL    HW2 1857   1.761   0.431   2.403 -0.3784  0.8704 -1.0514
  620SOL     OW 1858   2.234   2.843   0.653 -0.1942 -0.9028  0.4288
  620SOL    HW1 1859   2.154   2.908   0.638 -0.7494 -1.2583  0.6835
  620SOL    HW2 1860   2.262   2.832   0.752  2.5904  0.2664 -3.3644
  621SOL     OW 1861   2.127   1.916   1.357 -0.1250  0.9348 -0.1664
  621SOL    HW1 1862   2.136   1.897   1.458 -1.0968 -1.4578  0.8912
  621SOL    HW2 1863   2.154   1.835   1.302  1.0992 -1.6909 -1.4102
  622SOL     OW 1864   2.213   0.956   1.748 -1.0351 -0.2625 -0.7903
  622SOL    HW1 1865   2.270   0.872   1.755 -0.0486  4.3613 -0.3564
  622SOL    HW2 1866   2.156   0.965   1.831  1.4391 -2.8338  1.6598
  623SOL     OW 1867   1.277   0.911   2.545  0.4527 -0.1531 -0.6275
  623SOL    HW1 1868   1.284   0.839   2.621 -1.7219  0.4393  1.2789
  623SOL    HW2 1869   1.208   0.890   2.465 -1.4910  2.4351  1.1840
  624SOL     OW 1870   0.565   0.646   3.061 -0.1638 -0.3245  0.2039
  624SOL    HW1 1871   0.600   0.704   2.978 -0.7623 -2.1146  3.1745
  624SOL    HW2 1872   0.554   0.705   3.150  0.2921 -2.1302 -1.4396
  625SOL     OW 1873   2.802   1.798   0.834  0.4997  0.3745  0.2682
  625SOL    HW1 1874   2.762   1.853   0.914 -1.2906  1.5479  0.8488
  625SOL    HW2 1875   2.725   1.742   0.791 -1.1958  0.8456  1.6086
  626SOL     OW 1876   0.451   2.841   2.040  0.4027  0.0701 -0.3901
  626SOL    HW1 1877   0.522   2.905   2.001 -0.7958  1.3759 -0.3772
  626SOL    HW2 1878   0.367   2.846   1.983  2.2933 -2.0323 -2.0315
  627SOL     OW 1879   0.704   0.965   1.548  0.3343 -0.7422  0.1556
  627SOL    HW1 1880   0.754   0.881   1.569 -1.1987  3.8417  0.6316
  627SOL    HW2 1881   0.768   1.036   1.498 -0.5514 -0.0620  0.1519
  628SOL     OW 1882   2.459   0.122   0.665 -0.4963  0.0312  0.1896
  628SOL    HW1 1883   2.504   0.037   0.618  0.0307 -1.2410 -1.1213
  628SOL    HW2 1884   2.362   0.113   0.703  1.2215  0.8568  2.6475
  629SOL     OW 1885   2.015   0.953   1.970  0.2555  0.0747  0.2765
  629SOL    HW1 1886   2.054   0.979   2.063  1.4303  3.0933  1.2426
  629SOL    HW2 1887   1.955   1.033   1.931 -0.4678 -0.4314  0.4890
  630SOL     OW 1888   2.831   2.228   0.781 -0.4540 -0.0212  0.1301
  630SOL    HW1 1889   2.750   2.295   0.818 -3.8235 -0.8502  2.1875
  630SOL    HW2 1890   2.795   2.153   0.719 -0.9303  0.6425  1.9695
  631SOL     OW 1891   3.036   0.203   2.130  0.0540 -0.0620 -0.1620
  631SOL    HW1 1892   3.064   0.254   2.217 -0.2135  2.8416 -0.0239
  631SOL    HW2 1893   3.107   0.206   2.055  2.7849 -2.9113 -0.9264
  632SOL     OW 1894   2.415   2.513   0.734  0.2096  0.5595  0.2662
  632SOL    HW1 1895   2.505   2.547   0.762  0.2804 -0.8398 -0.5569
  632SOL    HW2 1896   2.390   2.554   0.638 -1.6334  1.6986 -1.1175
  633SOL     OW 1897   1.545   1.235   2.740  0.1832 -0.2204 -0.0943
  633SOL    HW1 1898   1.520   1.325   2.783  1.6669  0.4203 -2.1609
  633SOL    HW2 1899   1.478   1.209   2.667 -0.9598  1.8087  0.7047
  634SOL     OW 1900   0.687   2.077   0.868  0.2147  0.1822  0.0812
  634SOL    HW1 1901   0.609   2.088   0.928  0.1450  3.1530 -0.5872
  634SOL    HW2 1902   0.761   2.148   0.896 -0.0713  1.5919 -1.3598
  635SOL     OW 1903   3.086   2.259   3.037 -0.3422 -0.0392  0.0650
  635SOL    HW1 1904   3.006   2.299   2.978 -1.3362  1.9046 -2.5844
  635SOL    HW2 1905   3.122   2.331   3.107 -0.2355 -0.9094  3.3615
  636SOL     OW 1906   2.342   2.826   1.969 -0.4743 -0.4118 -0.0634
  636SOL    HW1 1907   2.306   2.924   1.954 -2.5138  0.9785 -0.5189
  636SOL    HW2 1908   2.326   2.789   2.064  1.4358 -1.4235 -0.5665
  637SOL     OW 1909   2.556   0.738   2.092  0.0125 -0.0791 -0.8975
  637SOL    HW1 1910   2.522   0.733   1.994  0.5993 -1.4358  0.1711
  637SOL    HW2 1911   2.625   0.812   2.118 -1.8271  1.0639  2.4027
  638SOL     OW 1912   2.418   1.933   1.364  0.1133 -0.1003 -0.4581
  638SOL    HW1 1913   2.316   1.935   1.355  0.3132 -1.7837 -3.1573
  638SOL    HW2 1914   2.459   1.835   1.381  0.6081  2.1035 -0.7288
  639SOL     OW 1915   1.285   2.257   1.602  0.0119  0.4278  0.9803
  639SOL    HW1 1916   1.290   2.202   1.514 -0.3487 -0.4458 -0.7470
  639SOL    HW2 1917   1.219   2.209   1.671 -1.6675  0.8648 -0.5903
  640SOL     OW 1918   0.261   1.167   1.534  0.1397 -0.5730  0.0761
  640SOL    HW1 1919   0.257   1.237   1.612 -0.2963 -0.3030  2.6576
  640SOL    HW2 1920   0.357   1.139   1.504  0.1369  0.0404  1.8877
  641SOL     OW 1921   1.877   0.315   1.436 -0.1117  0.2249  0.2338
  641SOL    HW1 1922   1.836   0.401   1.470 -0.4238  0.5278  0.4499
  641SOL    HW2 1923   1.855   0.239   1.505 -1.8544  1.3307 -0.1846
  642SOL     OW 1924   1.979   0.104   0.324 -0.0894 -0.6109 -0.3374
  642SOL    HW1 1925   2.072   0.055   0.327  1.3151 -0.2966 -0.2703
  642SOL    HW2 1926   1.940   0.128   0.418  1.7940 -1.0893 -2.3651
  643SOL     OW 1927   2.849   1.889   2.105  0.1623 -0.0874 -0.0569
  643SOL    HW1 1928   2.789   1.809   2.071  1.6813 -1.1380  1.4567
  643SOL    HW2 1929   2.846   1.966   2.035  0.6889  0.8438  1.3950
  644SOL     OW 1930   2.215   2.288   1.159  0.0230 -1.2507 -0.2834
  644SOL    HW1 1931   2.294   2.232   1.114  0.0296 -0.6969 -2.1096
  644SOL    HW2 1932   2.206   2.280   1.263 -2.8132  2.5885 -1.2314
  645SOL     OW 1933   0.679   0.871   1.106 -0.1228  0.3037  0.5298
  645SOL    HW1 1934   0.595   0.849   1.165 -2.1684  1.3209  0.9787
  645SOL    HW2 1935   0.647   0.949   1.039 -1.3291  0.9911 -1.4170
  646SOL     OW 1936   1.454   1.918   1.777  0.5527  0.9245 -0.2710
  646SOL    HW1 1937   1.540   1.968   1.757 -0.5941 -3.5217 -2.2218
  646SOL    HW2 1938   1.405   1.960   1.860 -0.8867 -2.2264 -0.9521
  647SOL     OW 1939   0.874   0.876   0.674 -0.4019 -0.7675  0.6465
  647SOL    HW1 1940   0.913   0.882   0.766  0.2233  0.2923 -2.5515
  647SOL    HW2 1941   0.769   0.878   0.678 -0.3858  1.2002 -1.5384
  648SOL     OW 1942   0.034   0.228   0.341  0.4026 -0.2446  0.3678
  648SOL    HW1 1943   0.003   0.150   0.288 -0.9012 -0.4655  3.0092
  648SOL    HW2 1944   0.027   0.320   0.289  0.0677 -0.3186  0.8078
  649SOL     OW 1945   0.048   0.052   1.001 -0.1040 -0.0791 -0.0702
  649SOL    HW1 1946   0.130  -0.005   0.969  0.7538  0.3421  0.0012
  649SOL    HW2 1947   0.054   0.102   1.094  0.6004  1.0733  1.6134
  650SOL     OW 1948   2.736   0.706   1.457 -0.0033 -0.3190  0.2870
  650SOL    HW1 1949   2.640   0.680   1.497 -2.1736 -2.7946 -1.0935
  650SOL    HW2 1950   2.728   0.795   1.400 -3.6506  0.5656  0.5805
  651SOL     OW 1951   0.908   1.582   1.469  0.7349 -0.2049  0.4188
  651SOL    HW1 1952   0.957   1.643   1.538  0.2122  0.4207 -5.0747
  651SOL    HW2 1953   0.822   1.622   1.425 -1.6997 -3.7409 -1.4278
  652SOL     OW 1954   2.257   2.523   2.364 -0.3494  0.4468  0.1822
  652SOL    HW1 1955   2.169   2.501   2.426 -3.0245  1.4596  2.3160
  652SOL    HW2 1956   2.255   2.621   2.334 -2.1699 -0.0154  2.6578
  653SOL     OW 1957   2.786   1.123   0.203 -0.8449  0.3099 -0.2396
  653SOL    HW1 1958   2.845   1.203   0.168 -0.4009 -2.3730  0.4196
  653SOL    HW2 1959   2.833   1.060   0.273  1.5338 -2.3350  1.0840
  654SOL     OW 1960   1.213   2.228   1.211  0.2057  0.1047  0.5170
  654SOL    HW1 1961   1.218   2.164   1.294 -1.6304  2.2132  1.7333
  654SOL    HW2 1962   1.283   2.196   1.140 -0.7090 -0.0748  0.3086
  655SOL     OW 1963   0.220   1.043   1.918  0.1892 -0.3904 -0.0035
  655SOL    HW1 1964   0.239   0.957   1.857  2.0353 -0.5450 -0.4298
  655SOL    HW2 1965   0.311   1.093   1.934  3.2394  2.1108  2.7817
  656SOL     OW 1966   2.438   2.445   2.539 -0.0608  1.0737 -0.8093
  656SOL    HW1 1967   2.507   2.514   2.564 -1.8734  0.0623  2.7239
  656SOL    HW2 1968   2.377   2.468   2.456 -1.8379 -1.1252  1.8148
  657SOL     OW 1969   3.053   1.102   1.860 -0.4911  0.0278 -0.4861
  657SOL    HW1 1970   3.052   1.205   1.857 -0.6247 -0.3647  1.2338
  657SOL    HW2 1971   3.149   1.066   1.870  0.3422 -1.1856 -0.9930
  658SOL     OW 1972   1.730   0.244   2.400  0.1211 -0.1442  0.3997
  658SOL    HW1 1973   1.716   0.155   2.454  1.5993  4.7347 -0.6109
  658SOL    HW2 1974   1.787   0.222   2.315  1.0431  1.2338 -1.9329
  659SOL     OW 1975   1.430   0.610   2.803  0.3835 -0.0608  0.0529
  659SOL    HW1 1976   1.489   0.661   2.870 -0.7721  0.0113  0.3355
  659SOL    HW2 1977   1.349   0.666   2.774  0.7515 -3.1259 -1.7218
  660SOL     OW 1978   1.358   0.398   1.434 -0.1889  0.1840 -0.4718
  660SOL    HW1 1979   1.406   0.432   1.518  0.5106 -1.1505  0.8988
  660SOL    HW2 1980   1.424   0.342   1.368  0.8660 -1.2206 -0.0388
  661SOL     OW 1981   2.428   1.141   0.630 -0.2311 -0.1686 -0.4955
  661SOL    HW1 1982   2.501   1.088   0.579 -0.7671  1.5169 -2.2934
  661SOL    HW2 1983   2.340   1.150   0.579  0.3879  2.2452  1.7947
  662SOL     OW 1984   1.292   0.435   1.868  0.3702  0.5321  0.3554
  662SOL    HW1 1985   1.235   0.350   1.862  1.5173 -2.9056 -2.6895
  662SOL    HW2 1986   1.259   0.485   1.950 -1.5895  1.2070 -0.2605
  663SOL     OW 1987   0.838   1.571   2.225  0.3541 -0.8536  0.3380
  663SOL    HW1 1988   0.778   1.653   2.264 -4.0698  2.2057  1.1164
  663SOL    HW2 1989   0.813   1.538   2.126  1.8940 -0.3905 -0.2771
  664SOL     OW 1990   1.603   2.084   1.420 -0.3979  0.3029  0.3500
  664SOL    HW1 1991   1.517   2.034   1.436  1.3550 -0.4013 -0.9850
  664SOL    HW2 1992   1.686   2.030   1.456 -0.1610 -0.3639 -2.0361
  665SOL     OW 1993   2.232   0.605   1.973 -1.0007  0.2176  0.4674
  665SOL    HW1 1994   2.233   0.504   1.993 -0.8373  1.3956 -0.3899
  665SOL    HW2 1995   2.184   0.659   2.044 -0.1031  3.0245 -2.2157
  666SOL     OW 1996   0.547   2.239   0.455  0.7281 -0.0876 -0.2924
  666SOL    HW1 1997   0.542   2.340   0.449  1.9771 -1.8039 -0.4348
  666SOL    HW2 1998   0.487   2.190   0.529  0.4985 -1.0094  0.2487
  667SOL     OW 1999   2.070   0.225   0.995 -0.2318 -0.1983  0.6097
  667SOL    HW1 2000   2.148   0.298   1.007  1.7629  2.1156  1.9624
  667SOL    HW2 2001   1.992   0.250   1.058 -1.3252 -1.8120 -1.9104
  668SOL     OW 2002   2.065   0.602   1.251 -0.8346 -0.2606  0.0139
  668SOL    HW1 2003   2.139   0.552   1.190 -0.3660 -1.2879 -0.6655
  668SOL    HW2 2004   2.081   0.576   1.349 -0.9867 -1.2471 -1.0992
  669SOL     OW 2005   3.027   2.250   0.976  0.1892  0.4246  0.0305
  669SOL    HW1 2006   2.961   2.240   0.895  1.2015  0.5787  1.4540
  669SOL    HW2 2007   2.984   2.201   1.062 -2.0113 -1.6876 -1.8256
  670SOL     OW 2008   2.817   2.376   2.021 -0.0244  0.2195  0.0176
  670SOL    HW1 2009   2.751   2.369   2.104  0.2383 -0.2407  0.8723
  670SOL    HW2 2010   2.792   2.456   1.959 -2.2888 -1.1229  1.1622
  671SOL     OW 2011   1.685   1.770   1.457 -0.3868 -0.1689  0.4464
  671SOL    HW1 2012   1.681   1.752   1.353  0.8049 -1.0764 -3.5835
  671SOL    HW2 2013   1.594   1.804   1.489  1.2584  1.8790  1.8530
  672SOL     OW 2014   0.416   0.661   2.427  0.2287 -0.0906 -0.0582
  672SOL    HW1 2015   0.420   0.665   2.321  0.8267  2.7181  0.7229
  672SOL    HW2 2016   0.324   0.695   2.468 -0.3480  1.5721  3.0176
  673SOL     OW 2017   0.126   1.243   1.117  0.1009 -0.3020  0.5628
  673SOL    HW1 2018   0.135   1.294   1.209 -0.9538 -3.1007  0.7338
  673SOL    HW2 2019   0.214   1.199   1.083 -0.3203  1.5740 -0.5710
  674SOL     OW 2020   1.597   2.949   0.143 -0.1548 -0.1033 -0.4050
  674SOL    HW1 2021   1.602   3.047   0.119  1.2757 -2.6225  0.5797
  674SOL    HW2 2022   1.663   2.889   0.089  1.6504 -0.0346 -0.0514
  675SOL     OW 2023   1.698   0.878   2.360  0.2088 -0.5361 -0.4398
  675SOL    HW1 2024   1.799   0.864   2.363  1.5148  0.8252 -0.5226
  675SOL    HW2 2025   1.653   0.795   2.317 -0.0270  0.4091  0.7796
  676SOL     OW 2026   2.544   1.492   1.985 -0.3670  0.5317 -0.1790
  676SOL    HW1 2027   2.505   1.483   1.885  0.0827 -0.2327 -0.2666
  676SOL    HW2 2028   2.534   1.408   2.045  0.2595  1.3044  0.6616
  677SOL     OW 2029   1.943   0.533   0.948 -0.2368 -0.0867  0.2714
  677SOL    HW1 2030   1.933   0.628   0.968  1.5859 -1.1513 -1.1441
  677SOL    HW2 2031   1.904   0.463   1.014 -0.6097  1.1746  0.2161
  678SOL     OW 2032   0.068   0.720   1.696  0.1298 -0.6657  0.2476
  678SOL    HW1 2033   0.160   0.773   1.703 -0.0800 -0.3105 -1.2296
  678SOL    HW2 2034  -0.011   0.772   1.744 -0.3894  2.1777 -1.7207
  679SOL     OW 2035   2.495   1.144   1.149  0.2906 -0.6588 -0.2066
  679SOL    HW1 2036   2.400   1.173   1.170  2.4643 -1.0231 -0.4915
  679SOL    HW2 2037   2.498   1.063   1.087 -1.5958 -1.1454 -0.3960
  680SOL     OW 2038   2.854   0.632   1.690 -0.0353  0.2918  0.0270
  680SOL    HW1 2039   2.812   0.688   1.618 -0.2527  1.0449  2.4232
  680SOL    HW2 2040   2.900   0.692   1.760 -1.7804  0.1432 -1.2378
  681SOL     OW 2041   3.058   0.188   1.643  0.3754  0.1529  0.6574
  681SOL    HW1 2042   3.129   0.146   1.579  1.6433  3.3721  1.0052
  681SOL    HW2 2043   3.006   0.274   1.603 -1.4432  1.0160 -0.1721
  682SOL     OW 2044   0.731   3.068   1.365  0.0775 -0.2513  0.0458
  682SOL    HW1 2045   0.662   3.010   1.418 -0.8301  2.2095 -0.2103
  682SOL    HW2 2046   0.763   3.038   1.272  1.5835  1.8580  2.8846
  683SOL     OW 2047   1.424   0.230   2.208 -0.1134  0.4711 -0.8368
  683SOL    HW1 2048   1.424   0.308   2.278  0.8530 -3.3625  2.5498
  683SOL    HW2 2049   1.490   0.246   2.133 -0.2612  2.3157  1.7324
  684SOL     OW 2050   1.444   2.139   0.477 -0.3019 -0.3634 -0.1125
  684SOL    HW1 2051   1.507   2.084   0.539  0.9467 -1.2296 -1.1870
  684SOL    HW2 2052   1.367   2.085   0.432 -1.4533  1.1045 -0.5013
  685SOL     OW 2053   2.133   1.932   2.018 -0.0926  0.2540 -0.0581
  685SOL    HW1 2054   2.198   2.007   1.988  0.7522  0.5236 -1.2653
  685SOL    HW2 2055   2.183   1.861   2.075  0.8807  0.3996 -0.3834
  686SOL     OW 2056   1.486   1.695   2.722 -0.2304  0.6971 -0.8938
  686SOL    HW1 2057   1.528   1.607   2.686  0.3789  0.1194 -0.5057
  686SOL    HW2 2058   1.506   1.711   2.825  1.2815 -0.0051  2.8226
  687SOL     OW 2059   1.330   2.498   1.928  0.2528  0.1728  0.1786
  687SOL    HW1 2060   1.378   2.458   1.848  0.6490 -0.6031  1.7868
  687SOL    HW2 2061   1.361   2.461   2.023  0.6832 -2.6818 -1.3247
  688SOL     OW 2062   2.060   1.492   1.565  0.4052 -0.2440 -0.5691
  688SOL    HW1 2063   2.150   1.544   1.555  0.8462  0.2148 -1.0996
  688SOL    HW2 2064   2.012   1.492   1.471 -0.7207  1.6418  1.2609
  689SOL     OW 2065   2.447   1.093   2.743 -0.2582  0.2543 -0.1939
  689SOL    HW1 2066   2.370   1.031   2.774 -1.0051  0.8283 -1.6852
  689SOL    HW2 2067   2.528   1.083   2.809  3.1483  1.6281  1.5428
  690SOL     OW 2068   2.238   2.796   3.042 -0.4699 -0.2534  0.1456
  690SOL    HW1 2069   2.152   2.736   3.038 -1.4504  2.0568  0.8148
  690SOL    HW2 2070   2.243   2.871   3.111 -0.0601  1.4647  0.0459
  691SOL     OW 2071   2.599   0.463   2.145  0.3845  0.4234  0.5432
  691SOL    HW1 2072   2.671   0.414   2.088 -0.4171  0.9808  0.9894
  691SOL    HW2 2073   2.590   0.564   2.118  0.5935 -0.1479  2.0238
  692SOL     OW 2074   2.715   1.187   0.683 -0.2990 -0.7581  0.2437
  692SOL    HW1 2075   2.614   1.187   0.677  0.8296 -1.0101  4.0279
  692SOL    HW2 2076   2.758   1.278   0.716  2.6074  0.9639  1.1809
  693SOL     OW 2077   2.840   2.922   0.642  0.2186  0.1156 -0.3008
  693SOL    HW1 2078   2.848   3.010   0.700 -1.1436  1.0351 -0.2328
  693SOL    HW2 2079   2.796   2.943   0.554  0.0203 -1.0991  0.3264
  694SOL     OW 2080   2.418   2.199   0.068  0.3806  0.3070  0.1494
  694SOL    HW1 2081   2.377   2.269   0.138 -1.4531 -0.3576  0.0773
  694SOL    HW2 2082   2.341   2.160   0.019  0.8433  1.0057  2.2442
  695SOL     OW 2083   0.538   2.934   1.515 -0.3183  0.0527  0.6887
  695SOL    HW1 2084   0.471   2.859   1.488 -0.1520  0.9123  1.7993
  695SOL    HW2 2085   0.500   2.999   1.583 -0.1761  2.8647 -1.4641
  696SOL     OW 2086   2.712   2.014   0.665 -0.0609  0.5924  0.5990
  696SOL    HW1 2087   2.775   1.938   0.697 -0.7600  1.4847  2.2801
  696SOL    HW2 2088   2.661   1.995   0.577  0.5802  3.6795  0.3396
  697SOL     OW 2089   1.684   2.062   1.763 -0.5394  0.1695 -0.0888
  697SOL    HW1 2090   1.753   2.007   1.820  1.6040 -0.4577  0.1911
  697SOL    HW2 2091   1.730   2.098   1.678  0.0475  2.3884  1.9475
  698SOL     OW 2092   2.922   0.355   2.807 -0.7442  0.5883  0.5293
  698SOL    HW1 2093   2.905   0.337   2.708  0.6768 -1.5863  0.5434
  698SOL    HW2 2094   3.017   0.324   2.848 -0.3471 -1.3159 -0.0901
  699SOL     OW 2095   1.551   0.116   2.932  0.1308  0.4690  0.3807
  699SOL    HW1 2096   1.493   0.036   2.905  0.1629 -0.3615 -0.7799
  699SOL    HW2 2097   1.600   0.153   2.848 -0.9180 -1.1031 -0.4330
  700SOL     OW 2098   0.978   2.456   1.361  0.2432  0.4788  0.8879
  700SOL    HW1 2099   1.070   2.427   1.331 -1.2196  1.1605 -1.9800
  700SOL    HW2 2100   0.907   2.430   1.286 -0.7240 -0.0829 -1.0891
  701SOL     OW 2101   1.831   2.841   3.081  0.0717  0.0486  0.0421
  701SOL    HW1 2102   1.859   2.768   3.150  0.7978  0.6095  0.5022
  701SOL    HW2 2103   1.871   2.935   3.106  1.8181 -0.0784 -1.3825
  702SOL     OW 2104   2.114   1.363   1.802  0.3097  0.0790  0.3746
  702SOL    HW1 2105   2.190   1.301   1.784 -0.9651  1.0894 -0.1690
  702SOL    HW2 2106   2.090   1.429   1.720 -0.8055 -0.6580 -2.3071
  703SOL     OW 2107   1.991   0.893   1.469  0.4418 -0.1435  0.1256
  703SOL    HW1 2108   1.986   0.808   1.523  0.6663  0.5434  0.8024
  703SOL    HW2 2109   1.994   0.978   1.529  0.9509 -0.6356  1.3108
  704SOL     OW 2110   0.298   2.040   1.751  0.8604 -0.3501 -0.5008
  704SOL    HW1 2111   0.349   1.970   1.808 -0.0126 -1.2318  0.2604
  704SOL    HW2 2112   0.342   2.138   1.746 -1.5591 -0.6580 -0.8570
  705SOL     OW 2113   2.528   1.436   0.872 -0.1848  0.9642 -0.3583
  705SOL    HW1 2114   2.458   1.387   0.930  1.6243  1.3750 -0.1432
  705SOL    HW2 2115   2.617   1.381   0.876 -1.1872 -2.0451 -0.3367
  706SOL     OW 2116   0.629   1.770   1.862  0.4418 -0.3917  0.1929
  706SOL    HW1 2117   0.619   1.664   1.857  0.6632 -0.8125 -0.3524
  706SOL    HW2 2118   0.715   1.807   1.906 -0.3008  1.4619  1.2162
  707SOL     OW 2119   2.355   1.202   1.748  0.3533 -0.0018 -0.4719
  707SOL    HW1 2120   2.417   1.209   1.834  0.9065 -2.2946  1.5777
  707SOL    HW2 2121   2.314   1.105   1.733 -1.5523 -1.8439 -2.2216
  708SOL     OW 2122   3.016   0.526   3.066 -0.1393 -0.1805 -0.2661
  708SOL    HW1 2123   3.039   0.582   2.985 -0.9936  2.0465  1.1560
  708SOL    HW2 2124   3.037   0.428   3.061 -2.8303  3.6784  0.1506
  709SOL     OW 2125   1.757   1.842   0.219 -0.0826  0.4753 -0.5449
  709SOL    HW1 2126   1.765   1.945   0.218 -0.3223  1.6316  0.1297
  709SOL    HW2 2127   1.749   1.802   0.123 -2.4999 -0.2655  2.1854
  710SOL     OW 2128   1.746   1.676   2.447  0.0195 -0.3726  0.3132
  710SOL    HW1 2129   1.804   1.631   2.375 -2.6981 -0.3399 -1.7134
  710SOL    HW2 2130   1.786   1.642   2.536 -1.2530 -2.3660  1.9212
  711SOL     OW 2131   2.611   2.888   0.975 -0.0743 -0.7816 -0.2120
  711SOL    HW1 2132   2.614   2.976   0.924  1.0450  0.3405 -1.6815
  711SOL    HW2 2133   2.687   2.880   1.045  0.6520  0.1595 -0.2790
  712SOL     OW 2134   1.504   2.298   1.767 -0.6036 -0.5888  0.3602
  712SOL    HW1 2135   1.567   2.214   1.780  0.1332 -1.7862  1.7985
  712SOL    HW2 2136   1.436   2.280   1.691  0.3084 -1.7749 -1.0086
  713SOL     OW 2137   2.840   1.309   2.514  0.4794 -0.3071 -0.3092
  713SOL    HW1 2138   2.887   1.240   2.458  2.7389 -0.9057 -0.4073
  713SOL    HW2 2139   2.810   1.273   2.608  0.1285 -0.6386  0.2128
  714SOL     OW 2140   2.648   0.432   2.440 -0.3249  0.1013 -0.3390
  714SOL    HW1 2141   2.579   0.405   2.510  0.8589 -0.1456 -0.4532
  714SOL    HW2 2142   2.617   0.422   2.342 -0.7871 -0.4196  0.5491
  715SOL     OW 2143   1.628   2.101   1.119 -0.2583  0.8354  0.4196
  715SOL    HW1 2144   1.542   2.140   1.068 -3.1357 -4.1823 -2.3347
  715SOL    HW2 2145   1.630   2.117   1.220  0.3412 -0.8442  1.5209
  716SOL     OW 2146   1.169   0.160   1.456 -0.4879 -0.4003  0.0250
  716SOL    HW1 2147   1.078   0.193   1.428  1.1573 -2.5238  0.9700
  716SOL    HW2 2148   1.239   0.235   1.466 -2.8092 -0.6255 -1.1211
  717SOL     OW 2149   1.064   0.519   1.606  0.6599 -0.1589  0.0857
  717SOL    HW1 2150   1.163   0.535   1.644  0.9875  1.2497  0.3533
  717SOL    HW2 2151   1.061   0.505   1.501 -1.1047 -0.8016 -1.8057
  718SOL     OW 2152   0.639   1.142   1.029 -0.4170  0.6210  0.0311
  718SOL    HW1 2153   0.646   1.183   0.934 -0.2431  1.1880  1.5528
  718SOL    HW2 2154   0.715   1.175   1.095 -1.4628  0.2271  0.6843
  719SOL     OW 2155   0.707   1.822   2.271 -0.5482  0.6419 -0.3824
  719SOL    HW1 2156   0.758   1.863   2.354  0.8196  2.4489  0.9204
  719SOL    HW2 2157   0.612   1.868   2.262  1.9258  0.3569 -2.0350
  720SOL     OW 2158   2.279   1.151   0.231  0.6411 -0.6832  0.6824
  720SOL    HW1 2159   2.366   1.093   0.234  0.7597  1.3605 -1.5626
  720SOL    HW2 2160   2.252   1.206   0.317  0.3152  0.9763 -1.5662
  721SOL     OW 2161   2.286   3.096   2.021  0.8793  0.1221  0.2773
  721SOL    HW1 2162   2.293   3.176   1.958 -1.1201  0.0121  0.2776
  721SOL    HW2 2163   2.187   3.069   2.031  2.0533  0.5215  0.6711
  722SOL     OW 2164   2.432   1.700   0.496  0.3482  0.1373 -0.0623
  722SOL    HW1 2165   2.453   1.636   0.416 -2.5248 -3.5408  0.8542
  722SOL    HW2 2166   2.333   1.686   0.530  0.2374 -0.6308  2.6838
  723SOL     OW 2167   2.607   2.879   1.895 -0.1518  0.1965 -0.4891
  723SOL    HW1 2168   2.652   2.915   1.979 -0.7959 -0.6779 -2.4985
  723SOL    HW2 2169   2.526   2.822   1.922  1.3539 -3.4773  3.0493
  724SOL     OW 2170   0.307   2.403   2.337  0.1683 -0.3790  0.4057
  724SOL    HW1 2171   0.206   2.432   2.348 -0.3384 -2.1054 -0.0571
  724SOL    HW2 2172   0.357   2.417   2.422  0.8732 -2.1216 -0.1199
  725SOL     OW 2173   2.330   2.801   1.472  0.4656  0.2714  0.3457
  725SOL    HW1 2174   2.366   2.811   1.372 -1.1545  1.2776 -4.5593
  725SOL    HW2 2175   2.311   2.701   1.495 -0.4328 -3.7552  1.5886
  726SOL     OW 2176   2.376   2.246   0.761 -0.1701  0.2893 -0.6570
  726SOL    HW1 2177   2.385   2.345   0.732 -1.5085 -2.6411 -0.6279
  726SOL    HW2 2178   2.345   2.188   0.679  0.8094 -1.2191 -0.3172
  727SOL     OW 2179   0.222   0.008   0.142  0.2197  0.3550 -0.5225
  727SOL    HW1 2180   0.246  -0.080   0.094 -1.1346 -1.4625  3.4889
  727SOL    HW2 2181   0.256   0.092   0.093 -1.3609 -1.2544 -1.7104
  728SOL     OW 2182   2.795   0.666   1.063 -0.2913 -0.4329 -0.3087
  728SOL    HW1 2183   2.715   0.684   1.000 -0.3045  0.8780  1.2584
  728SOL    HW2 2184   2.780   0.601   1.141 -1.1456  0.6672  0.9516
  729SOL     OW 2185   2.997   2.473   0.706  0.3055 -0.1252  0.0137
  729SOL    HW1 2186   2.937   2.385   0.692 -0.2252 -2.2098  0.9241
  729SOL    HW2 2187   3.098   2.453   0.698  3.0651 -0.2540 -1.8054
  730SOL     OW 2188   2.626   0.577   0.854  0.0874 -0.0290  0.4630
  730SOL    HW1 2189   2.588   0.669   0.829  1.5885  0.4256 -1.1393
  730SOL    HW2 2190   2.692   0.547   0.783  0.3654  0.0626 -2.6996
  731SOL     OW 2191   0.172   2.154   2.494  0.5740  0.7351  0.3051
  731SOL    HW1 2192   0.164   2.164   2.598  1.0550  1.9851 -1.7884
  731SOL    HW2 2193   0.246   2.205   2.452  1.4524  0.7905 -1.4089
  732SOL     OW 2194   1.132   2.839   2.034 -0.3694  0.0867  0.6592
  732SOL    HW1 2195   1.159   2.760   2.098  2.4642  0.7759 -1.1452
  732SOL    HW2 2196   1.156   2.817   1.934 -2.4837  1.2392  1.0767
  733SOL     OW 2197   3.022   0.674   2.119  0.1596 -0.2471 -0.6888
  733SOL    HW1 2198   3.111   0.728   2.116 -2.0074  1.5817  0.7951
  733SOL    HW2 2199   3.024   0.584   2.061 -0.2559 -0.3458 -1.2845
  734SOL     OW 2200   1.383   0.371   2.688  0.1963 -0.4517 -0.2262
  734SOL    HW1 2201   1.382   0.470   2.730 -0.2749  1.9611  1.3140
  734SOL    HW2 2202   1.301   0.313   2.708  0.7183  2.8171  2.3600
  735SOL     OW 2203   2.797   2.652   2.283 -0.2186  0.4340  0.3642
  735SOL    HW1 2204   2.699   2.645   2.248 -0.3680 -0.6120 -1.5786
  735SOL    HW2 2205   2.866   2.642   2.202  3.0589 -0.0798  0.2548
  736SOL     OW 2206   0.802   0.371   2.564 -0.1325 -0.4854 -0.5694
  736SOL    HW1 2207   0.744   0.460   2.557 -1.1126  0.4947 -1.3223
  736SOL    HW2 2208   0.822   0.334   2.466  1.0242  1.1149 -0.3566
  737SOL     OW 2209   2.670   0.430   2.899 -0.0219 -0.8259  0.6011
  737SOL    HW1 2210   2.622   0.398   2.988 -0.7987  0.5699  1.2293
  737SOL    HW2 2211   2.775   0.408   2.892  0.3839 -0.9176 -1.2367
  738SOL     OW 2212   1.660   1.136   0.014 -0.4011  0.2023  1.1026
  738SOL    HW1 2213   1.748   1.125  -0.041  1.6111 -0.0482  0.6870
  738SOL    HW2 2214   1.621   1.047   0.045  0.3457 -3.0342 -0.4404
  739SOL     OW 2215   1.816   0.548   0.695  0.1380  0.3186 -0.0586
  739SOL    HW1 2216   1.859   0.554   0.788  0.2574  0.9797  0.8459
  739SOL    HW2 2217   1.821   0.458   0.649  0.1356  2.2723  0.5098
  740SOL     OW 2218   1.905   2.067   2.152  0.6746  0.3309  0.1895
  740SOL    HW1 2219   1.969   2.009   2.096 -1.4838  0.0559  1.6069
  740SOL    HW2 2220   1.807   2.053   2.128 -0.0549  0.7387  1.8481
  741SOL     OW 2221   2.544   0.020   2.598  0.5551  0.1100 -0.9096
  741SOL    HW1 2222   2.649   0.035   2.597  1.8388 -3.2136  0.2969
  741SOL    HW2 2223   2.499   0.050   2.513  1.6994  3.3051  1.9261
  742SOL     OW 2224   2.266   1.410   0.087 -0.1467  0.0748 -0.0139
  742SOL    HW1 2225   2.191   1.479   0.117  2.1627  1.9853 -2.6517
  742SOL    HW2 2226   2.247   1.311   0.107  1.8327  2.1067 -0.3020
  743SOL     OW 2227   1.756   0.655   2.655 -0.3305  0.2222  0.4254
  743SOL    HW1 2228   1.751   0.605   2.561  1.3106 -2.7948 -1.2690
  743SOL    HW2 2229   1.682   0.727   2.666  0.0797 -0.4976  1.8616
  744SOL     OW 2230   2.674   2.113   0.115  0.0016  1.0956  0.2118
  744SOL    HW1 2231   2.570   2.124   0.114 -3.3073 -2.3569  1.4810
  744SOL    HW2 2232   2.710   2.030   0.172 -0.0747 -0.8526  2.0679
  745SOL     OW 2233   2.208   2.760   2.195 -0.0442 -0.0018 -0.3385
  745SOL    HW1 2234   2.110   2.748   2.167 -0.9782 -0.2603 -0.3362
  745SOL    HW2 2235   2.219   2.808   2.292  0.1580  4.1685  1.7418
  746SOL     OW 2236   3.071   2.610   1.807  0.0196  0.3415  0.0697
  746SOL    HW1 2237   3.161   2.620   1.752 -1.6787 -0.2484 -0.5044
  746SOL    HW2 2238   3.024   2.703   1.834  1.4847  0.3237 -0.0542
  747SOL     OW 2239   0.009   1.779   1.687 -0.3468 -0.2318  0.1829
  747SOL    HW1 2240  -0.040   1.690   1.672 -1.9569  0.2866  0.6730
  747SOL    HW2 2241   0.078   1.807   1.614 -3.6401  0.3048 -0.0357
  748SOL     OW 2242   1.762   2.717   2.846  0.0214  0.2715 -0.3342
  748SOL    HW1 2243   1.797   2.766   2.936 -1.4638 -1.7474  0.4981
  748SOL    HW2 2244   1.657   2.731   2.833 -1.3956  2.9644  1.0297
  749SOL     OW 2245   1.341   0.072   0.884  0.4856  0.0236 -0.5449
  749SOL    HW1 2246   1.295  -0.020   0.907 -1.6621 -1.3929  0.6696
  749SOL    HW2 2247   1.325   0.093   0.785 -1.7011 -0.5855 -0.3745
  750SOL     OW 2248   2.277   0.225   1.896  0.2834 -0.5469  0.8022
  750SOL    HW1 2249   2.331   0.273   1.822 -0.5605 -0.7981  1.9330
  750SOL    HW2 2250   2.293   0.276   1.985 -0.8583  3.1009  1.9273
  751SOL     OW 2251   0.857   2.253   2.925 -0.1802 -0.2428  0.1162
  751SOL    HW1 2252   0.961   2.243   2.938 -2.4466  0.3114  1.7372
  751SOL    HW2 2253   0.812   2.165   2.903  0.8728  0.2865  1.9053
  752SOL     OW 2254   1.248   0.872   1.486  0.0533 -0.6503 -0.2667
  752SOL    HW1 2255   1.343   0.916   1.472  1.6271 -0.6160  0.7910
  752SOL    HW2 2256   1.254   0.789   1.550 -2.2262 -2.1176 -1.7079
  753SOL     OW 2257   0.902   2.592   1.748  0.1221 -0.2690  0.0331
  753SOL    HW1 2258   0.970   2.610   1.669 -1.2776 -3.1627 -2.6093
  753SOL    HW2 2259   0.826   2.664   1.748 -0.5890 -1.6865  0.0015
  754SOL     OW 2260   1.138   1.328   3.041  0.0996  0.3685  0.0897
  754SOL    HW1 2261   1.173   1.253   2.981 -1.5888  1.1379 -2.1625
  754SOL    HW2 2262   1.157   1.421   2.995 -0.6596 -0.1470  0.2646
  755SOL     OW 2263   2.032   0.531   2.268  0.0524  0.6529  0.5029
  755SOL    HW1 2264   2.109   0.467   2.301  1.7031 -0.5472  0.4027
  755SOL    HW2 2265   1.946   0.527   2.325 -0.0212  0.1335 -0.2396
  756SOL     OW 2266   2.640   0.965   2.928 -0.1987 -0.2243  0.0968
  756SOL    HW1 2267   2.731   0.911   2.924  0.8905  1.1137  1.0376
  756SOL    HW2 2268   2.573   0.929   3.002  0.0781  1.6709 -0.1774
  757SOL     OW 2269   0.160   0.452   1.721 -0.4785 -0.1433  0.4816
  757SOL    HW1 2270   0.109   0.539   1.717  1.6904  1.1493  2.1240
  757SOL    HW2 2271   0.219   0.441   1.632 -0.0106  0.1693 -1.9603
  758SOL     OW 2272   2.470   0.066   1.499 -0.2191  0.1342 -0.0467
  758SOL    HW1 2273   2.387   0.033   1.553 -0.5121 -2.7268  0.7867
  758SOL    HW2 2274   2.458   0.049   1.399 -0.1418  0.2326  0.6223
  759SOL     OW 2275   1.663   0.127   0.077  0.3328  0.7920 -0.1534
  759SOL    HW1 2276   1.611   0.151  -0.011 -0.5441 -0.8392 -2.2356
  759SOL    HW2 2277   1.756   0.083   0.063  0.0248 -0.5352 -2.7415
  760SOL     OW 2278   2.743   1.963   2.757 -0.0445  0.0818  0.1563
  760SOL    HW1 2279   2.769   1.872   2.712 -2.4434  1.3058  1.8434
  760SOL    HW2 2280   2.802   2.046   2.735  2.4562 -1.5369 -2.0226
  761SOL     OW 2281   1.856   1.727   1.657 -0.8667 -0.5497  0.0012
  761SOL    HW1 2282   1.939   1.668   1.637 -0.2626 -0.7040 -1.2399
  761SOL    HW2 2283   1.792   1.722   1.578  0.8787 -0.0985  1.6599
  762SOL     OW 2284   0.508   2.390   1.001 -0.0518 -0.2886  0.6281
  762SOL    HW1 2285   0.537   2.394   0.905  0.3284  1.3087  2.8159
  762SOL    HW2 2286   0.499   2.487   1.043 -2.1275  1.2086 -0.6770
  763SOL     OW 2287   2.003   1.581   2.953 -0.0768 -0.5812 -0.0957
  763SOL    HW1 2288   2.071   1.530   2.896  0.2433  0.5101 -0.2791
  763SOL    HW2 2289   1.943   1.526   3.016 -1.3367 -0.3165 -2.7216
  764SOL     OW 2290   0.701   0.592   0.824  0.2453  0.0052 -0.4450
  764SOL    HW1 2291   0.700   0.563   0.723  0.7201  1.2923 -1.8637
  764SOL    HW2 2292   0.779   0.550   0.880  0.5470  1.6046  2.7888
  765SOL     OW 2293   0.624   0.227   0.792 -0.4395 -0.2192 -0.3796
  765SOL    HW1 2294   0.713   0.274   0.764  0.1081 -2.2751 -2.0503
  765SOL    HW2 2295   0.620   0.207   0.891 -1.4209 -0.9004 -0.8401
  766SOL     OW 2296   2.994   1.968   2.957 -0.9037  0.5821 -0.4652
  766SOL    HW1 2297   2.908   1.958   2.905 -1.5941 -0.6273  0.1365
  766SOL    HW2 2298   3.026   2.066   2.966 -2.0320 -1.0535 -0.8421
  767SOL     OW 2299   2.724   1.556   0.487 -0.2695 -0.0287  0.2870
  767SOL    HW1 2300   2.660   1.581   0.565  1.7091 -0.9943 -0.6245
  767SOL    HW2 2301   2.816   1.596   0.499 -0.3638 -1.3027 -0.1262
  768SOL     OW 2302   1.065   0.310   0.292 -0.1506  0.2449 -0.3398
  768SOL    HW1 2303   0.977   0.288   0.234  0.1972  0.9748  1.4178
  768SOL    HW2 2304   1.149   0.253   0.266 -0.8456  0.8756 -0.1861
  769SOL     OW 2305   1.358   1.782   2.231  0.3900 -0.1318 -0.8135
  769SOL    HW1 2306   1.402   1.698   2.273 -1.1559 -2.2997  0.6638
  769SOL    HW2 2307   1.257   1.763   2.206  2.2542  0.9579 -2.3583
  770SOL     OW 2308   0.192   1.153   2.287 -0.1387  0.1967 -0.3005
  770SOL    HW1 2309   0.170   1.185   2.387  0.7023  1.4586 -1.3111
  770SOL    HW2 2310   0.117   1.182   2.219 -1.4866  4.0124 -2.4791
  771SOL     OW 2311   2.965   2.840   1.885  0.1958  0.1660 -0.2565
  771SOL    HW1 2312   2.938   2.908   1.811 -2.2419  0.0593  0.2576
  771SOL    HW2 2313   2.985   2.883   1.971 -0.4605  1.0137 -3.9172
  772SOL     OW 2314   2.160   0.067   3.020  0.3897 -0.1987  0.0146
  772SOL    HW1 2315   2.208   0.031   2.937 -0.8932 -0.9790  0.9572
  772SOL    HW2 2316   2.171   0.165   3.024  0.0965 -2.7981 -0.2463
  773SOL     OW 2317   0.727   2.131   2.455 -0.9898  0.1678 -0.2547
  773SOL    HW1 2318   0.687   2.199   2.386 -0.9255 -1.5218 -1.9217
  773SOL    HW2 2319   0.660   2.124   2.532  1.5648  1.8892 -1.4940
  774SOL     OW 2320   1.974   0.010   2.664  0.3872 -0.1661 -0.1173
  774SOL    HW1 2321   1.988   0.084   2.733 -0.8583  0.8831  0.9758
  774SOL    HW2 2322   2.045  -0.068   2.682  0.6433  2.6006 -1.1845
  775SOL     OW 2323   2.493   2.895   2.331 -0.4861 -0.5295 -0.3427
  775SOL    HW1 2324   2.446   2.991   2.316  0.3089  2.2275 -0.1539
  775SOL    HW2 2325   2.565   2.891   2.410  2.0148 -0.1365 -0.4136
  776SOL     OW 2326   0.027   1.174   0.256  0.3727  0.7739  0.3253
  776SOL    HW1 2327  -0.032   1.201   0.174  0.0742  0.0439 -0.0771
  776SOL    HW2 2328  -0.018   1.195   0.348 -0.9964 -0.9769 -1.5364
  777SOL     OW 2329   0.322   2.726   0.385  0.0123  0.2647 -0.4957
  777SOL    HW1 2330   0.223   2.689   0.388  1.5898 -2.7442  0.2888
  777SOL    HW2 2331   0.335   2.828   0.415  1.8193  2.3217 -0.3603
  778SOL     OW 2332   1.298   2.001   0.156 -0.3632 -0.1821 -0.4809
  778SOL    HW1 2333   1.248   2.003   0.246 -0.0385  0.9050 -1.9651
  778SOL    HW2 2334   1.350   2.088   0.136 -1.9877  1.6781 -0.6559
  779SOL     OW 2335   0.197   0.797   0.493  0.3384 -0.0289 -0.1100
  779SOL    HW1 2336   0.163   0.700   0.486  1.0675 -1.1374  1.6585
  779SOL    HW2 2337   0.142   0.851   0.563 -2.2738 -0.4547  1.8530
  780SOL     OW 2338   0.076   0.320   2.370  0.4348  0.3231  0.4357
  780SOL    HW1 2339   0.064   0.420   2.388 -2.0270 -2.5852 -2.9358
  780SOL    HW2 2340   0.164   0.304   2.311  1.4967  2.5776  0.3432
  781SOL     OW 2341   0.550   1.790   1.590 -0.5235  0.1382  0.0547
  781SOL    HW1 2342   0.587   1.807   1.685  1.2356 -0.2854 -3.8063
  781SOL    HW2 2343   0.470   1.723   1.587  0.3171 -0.7765 -0.1133
  782SOL     OW 2344   2.600   0.097   0.898 -0.2837  0.1183  0.2474
  782SOL    HW1 2345   2.535   0.131   0.828  0.4835  3.2335  0.1664
  782SOL    HW2 2346   2.581   0.145   0.989  2.4981  0.2879  2.7474
  783SOL     OW 2347   2.844   0.634   2.568  0.1419 -0.1644 -0.2091
  783SOL    HW1 2348   2.785   0.660   2.652 -1.4549 -2.2581  0.8365
  783SOL    HW2 2349   2.792   0.573   2.506  0.7200  1.9357  1.4968
  784SOL     OW 2350   1.419   2.223   0.046  0.1070  0.0410  0.9147
  784SOL    HW1 2351   1.513   2.261   0.075 -3.2970  0.8310  0.5461
  784SOL    HW2 2352   1.423   2.195  -0.055  1.4526  0.1932 -1.6226
  785SOL     OW 2353   2.186   0.326   3.096  0.0377 -0.0163 -0.4757
  785SOL    HW1 2354   2.097   0.313   3.149 -1.8661  2.2211  0.4219
  785SOL    HW2 2355   2.218   0.423   3.098 -0.6258  1.7191 -0.0619
  786SOL     OW 2356   2.106   2.204   2.245  0.2394  0.3985 -0.4431
  786SOL    HW1 2357   2.033   2.141   2.211 -1.2804  2.2698  2.4616
  786SOL    HW2 2358   2.193   2.160   2.272  0.3988 -0.2109  0.8968
  787SOL     OW 2359   1.352   0.622   0.728 -0.1328 -0.7498  0.5778
  787SOL    HW1 2360   1.281   0.679   0.676  1.1850  2.7758 -0.3439
  787SOL    HW2 2361   1.407   0.563   0.652  1.2664 -2.0807  0.8780
  788SOL     OW 2362   1.230   0.483   2.976  0.2671 -0.4032 -0.5169
  788SOL    HW1 2363   1.159   0.460   2.901 -0.3662 -0.1412  1.8405
  788SOL    HW2 2364   1.283   0.569   2.953 -2.3178  0.9647  0.9517
  789SOL     OW 2365   2.622   0.100   1.915 -0.3701  0.3415  0.5241
  789SOL    HW1 2366   2.524   0.116   1.948  2.3734  1.5376 -1.1330
  789SOL    HW2 2367   2.655   0.009   1.947 -1.1797 -1.7130  1.5123
  790SOL     OW 2368   2.647   2.621   0.845 -0.0765 -0.8982 -0.1870
  790SOL    HW1 2369   2.702   2.630   0.757 -1.8896 -1.1373 -1.2876
  790SOL    HW2 2370   2.652   2.701   0.907  1.1251 -0.0933  2.3989
  791SOL     OW 2371   1.927   1.183   0.223  0.0520  0.3762 -0.1672
  791SOL    HW1 2372   1.835   1.138   0.251 -2.2557 -0.2414 -0.1613
  791SOL    HW2 2373   1.969   1.141   0.140 -0.1244  1.4051  1.5353
  792SOL     OW 2374   0.461   1.980   2.252  0.4262 -0.0545  0.1355
  792SOL    HW1 2375   0.482   2.079   2.267  0.9928 -1.1852  0.8212
  792SOL    HW2 2376   0.383   1.941   2.309  0.2031 -2.0225  1.3084
  793SOL     OW 2377   2.086   1.560   2.012 -0.7629  0.6229  0.1660
  793SOL    HW1 2378   2.185   1.604   2.024  2.4564 -2.4405 -2.6990
  793SOL    HW2 2379   2.085   1.482   1.944  1.2493 -2.6105  1.2716
  794SOL     OW 2380   0.575   1.544   2.489 -0.3140  0.3380  0.5003
  794SOL    HW1 2381   0.629   1.480   2.428 -0.8252  0.0565 -0.0872
  794SOL    HW2 2382   0.493   1.578   2.439 -0.9426  0.8674  1.6380
  795SOL     OW 2383   2.400   2.363   1.855 -0.9197 -0.8043  0.0575
  795SOL    HW1 2384   2.329   2.407   1.917 -1.6748  3.1439  1.9802
  795SOL    HW2 2385   2.384   2.260   1.849 -1.0069  1.2058 -0.0075
  796SOL     OW 2386   3.045   1.152   2.721 -0.6041 -0.1962 -0.1415
  796SOL    HW1 2387   2.945   1.172   2.740  0.1768  0.2138 -1.3128
  796SOL    HW2 2388   3.103   1.180   2.803 -0.5636  0.7233  0.6484
  797SOL     OW 2389   0.704   0.635   1.343 -0.0994  0.2426 -0.3162
  797SOL    HW1 2390   0.780   0.695   1.394  2.3083  1.5265 -2.4625
  797SOL    HW2 2391   0.675   0.679   1.254  3.6389  1.9302  0.8659
  798SOL     OW 2392   1.204   0.532   0.973 -0.3358 -0.1548  0.6177
  798SOL    HW1 2393   1.204   0.620   1.034  0.5516  1.8760  1.0614
  798SOL    HW2 2394   1.259   0.535   0.883 -0.4099  1.6258 -0.0293
  799SOL     OW 2395   1.784   2.706   1.064 -0.2677 -0.0730  0.7381
  799SOL    HW1 2396   1.832   2.617   1.097  2.8075 -1.7728 -0.5407
  799SOL    HW2 2397   1.814   2.733   0.966  2.5400  0.3154 -0.5601
  800SOL     OW 2398   2.963   0.832   1.861 -0.4353 -0.2765  0.3334
  800SOL    HW1 2399   2.993   0.933   1.846 -1.0739 -1.5820  0.6839
  800SOL    HW2 2400   2.974   0.795   1.959 -0.6825  0.8500 -1.2459
  801SOL     OW 2401   2.002   2.252   0.103 -0.1749  0.8585 -0.5752
  801SOL    HW1 2402   1.981   2.299   0.012 -1.8913  1.3095  0.7092
  801SOL    HW2 2403   2.081   2.187   0.092  1.1203  0.8370 -0.4387
  802SOL     OW 2404   0.689   0.610   2.524 -0.1765 -0.1467 -0.4180
  802SOL    HW1 2405   0.741   0.634   2.436  1.7823 -3.5087 -0.0720
  802SOL    HW2 2406   0.588   0.628   2.515  0.9467 -1.9585 -0.3409
  803SOL     OW 2407   0.950   0.093   0.908 -0.1351 -0.3779  0.6275
  803SOL    HW1 2408   1.025   0.149   0.956  2.2276  1.7541  0.8999
  803SOL    HW2 2409   0.898   0.140   0.829 -1.6371 -0.6211 -2.7232
  804SOL     OW 2410   0.342   0.025   2.197  0.0290  0.1942 -0.3289
  804SOL    HW1 2411   0.310   0.123   2.227 -0.9075  0.7752  0.8797
  804SOL    HW2 2412   0.291  -0.018   2.115  0.1668  0.4694  0.0321
  805SOL     OW 2413   2.391   0.328   0.315  0.3790 -0.7207 -0.2061
  805SOL    HW1 2414   2.473   0.331   0.379 -1.7123  1.2554 -0.0520
  805SOL    HW2 2415   2.411   0.276   0.226 -1.8936  2.4528  1.1851
  806SOL     OW 2416   0.650   2.653   1.989  0.3299 -0.2039  0.3841
  806SOL    HW1 2417   0.570   2.717   1.997  3.4994 -0.5111  2.3290
  806SOL    HW2 2418   0.719   2.683   1.916  0.1274 -0.6019 -1.9498
  807SOL     OW 2419   2.570   0.912   0.518  0.1680  0.1672 -0.1226
  807SOL    HW1 2420   2.668   0.886   0.541  2.5722 -0.0432  1.3977
  807SOL    HW2 2421   2.556   0.933   0.414  3.7544  0.8512 -0.2642
  808SOL     OW 2422   0.687   2.022   2.892 -0.1894  0.0664 -0.2101
  808SOL    HW1 2423   0.643   2.041   2.984 -2.0541  1.3192  1.2661
  808SOL    HW2 2424   0.708   1.922   2.871  1.0085 -0.6109 -1.3610
  809SOL     OW 2425   2.556   2.029   1.919  0.3015  0.5035  0.4924
  809SOL    HW1 2426   2.655   2.060   1.899 -1.1139  0.1270 -3.2871
  809SOL    HW2 2427   2.508   2.009   1.826  1.4256 -0.7922 -0.1993
  810SOL     OW 2428   2.198   1.206   0.490 -0.1480  0.6239  0.3658
  810SOL    HW1 2429   2.103   1.167   0.495  2.0396  2.6324  1.5251
  810SOL    HW2 2430   2.206   1.300   0.531 -1.1893 -0.1161 -1.5929
  811SOL     OW 2431   1.243   2.507   1.168  0.0182 -0.5495  0.4507
  811SOL    HW1 2432   1.238   2.405   1.164 -0.2708  3.3534 -0.6836
  811SOL    HW2 2433   1.234   2.542   1.260 -2.6098 -2.7686 -3.0172
  812SOL     OW 2434   1.461   0.746   2.000 -0.3728  0.0316  0.1137
  812SOL    HW1 2435   1.445   0.808   2.078  1.6281 -1.6869 -1.7591
  812SOL    HW2 2436   1.493   0.802   1.915 -1.8783  1.7892  1.9870
  813SOL     OW 2437   1.617   2.065   2.402  0.2385  0.2745  0.6167
  813SOL    HW1 2438   1.711   2.031   2.420  0.0089  0.3578 -0.8671
  813SOL    HW2 2439   1.600   2.062   2.302 -1.2084 -0.1706 -0.0694
  814SOL     OW 2440   2.972   1.695   2.896 -0.2272 -0.1138 -0.1949
  814SOL    HW1 2441   3.042   1.642   2.953  2.3030  1.5590 -3.6294
  814SOL    HW2 2442   2.996   1.797   2.899  0.7428  0.5180 -0.2528
  815SOL     OW 2443   2.145   2.888   2.746 -0.4363  0.4398  0.7376
  815SOL    HW1 2444   2.115   2.819   2.825 -1.2260 -0.8639  1.2799
  815SOL    HW2 2445   2.244   2.917   2.758  0.7816 -0.2940  0.7760
  816SOL     OW 2446   1.521   0.444   1.685  0.4970  0.8141  0.2232
  816SOL    HW1 2447   1.583   0.364   1.652 -0.3825 -0.4441 -0.1358
  816SOL    HW2 2448   1.455   0.408   1.753  3.1278 -0.1564  0.6998
  817SOL     OW 2449   0.389   1.247   2.563  0.6498 -0.4283  0.1316
  817SOL    HW1 2450   0.287   1.272   2.565 -1.7890  1.7404  1.8345
  817SOL    HW2 2451   0.415   1.218   2.467  0.8606 -1.8487 -0.3599
  818SOL     OW 2452   1.990   0.773   0.466  0.0101 -0.2924  0.0064
  818SOL    HW1 2453   2.095   0.771   0.468  2.9782  0.5644 -1.6970
  818SOL    HW2 2454   1.949   0.829   0.543  0.9838  0.1640  0.8984
  819SOL     OW 2455   2.838   2.888   3.021  0.4529 -0.2212 -0.0356
  819SOL    HW1 2456   2.875   2.802   2.978 -0.2144  2.8990  3.6908
  819SOL    HW2 2457   2.744   2.896   2.996  3.2718 -0.1220  1.8941
  820SOL     OW 2458   1.203   1.057   0.543  0.3928 -0.7318 -0.6552
  820SOL    HW1 2459   1.235   1.151   0.570 -0.3782  3.1226 -0.7906
  820SOL    HW2 2460   1.218   0.987   0.617  2.5058 -4.0471  1.0425
  821SOL     OW 2461   0.042   1.206   0.762  0.3302 -0.4306  0.0730
  821SOL    HW1 2462  -0.008   1.228   0.846  1.5669 -1.1430 -1.9334
  821SOL    HW2 2463   0.078   1.295   0.719  0.3692  0.0064 -1.5061
  822SOL     OW 2464   2.562   1.771   2.448 -0.1649 -0.0715 -0.1444
  822SOL    HW1 2465   2.534   1.823   2.537  1.7639  1.5561 -0.1313
  822SOL    HW2 2466   2.494   1.782   2.370 -2.4733  1.7539 -0.4923
  823SOL     OW 2467   2.012   0.897   1.192  0.2776 -0.0240 -0.7160
  823SOL    HW1 2468   1.985   0.861   1.290 -0.8704 -2.2690  2.2982
  823SOL    HW2 2469   1.971   0.846   1.112  0.8514 -0.8344 -1.9537
  824SOL     OW 2470   0.202   1.799   2.853 -0.1507 -0.1508  0.0005
  824SOL    HW1 2471   0.184   1.830   2.950 -0.5901  0.5216 -1.4215
  824SOL    HW2 2472   0.273   1.854   2.800 -0.8974 -1.7286 -1.9293
  825SOL     OW 2473   1.255   1.032   0.283 -0.0526  0.1470 -0.2879
  825SOL    HW1 2474   1.290   1.128   0.254  0.8842 -0.6024  0.3512
  825SOL    HW2 2475   1.248   1.016   0.385  0.0030 -0.2150  0.4703
  826SOL     OW 2476   1.984   0.673   1.623  0.1331  0.1906  0.2034
  826SOL    HW1 2477   2.074   0.626   1.645  0.1490 -2.5108  0.9185
  826SOL    HW2 2478   1.910   0.616   1.580  1.4584 -2.3031  0.8263
  827SOL     OW 2479   0.727   1.201   0.497  0.0440 -0.4461 -0.3197
  827SOL    HW1 2480   0.814   1.169   0.452 -0.2232 -0.8766 -2.0829
  827SOL    HW2 2481   0.649   1.133   0.489 -2.7259 -1.0444 -2.8973
  828SOL     OW 2482   2.736   0.160   1.646 -0.1669  0.1269  0.1170
  828SOL    HW1 2483   2.665   0.099   1.597 -0.8476  0.4118 -0.4065
  828SOL    HW2 2484   2.715   0.166   1.748  1.0577 -0.3591 -1.4386
  829SOL     OW 2485   2.904   2.372   2.890 -0.7520 -0.1264 -0.1034
  829SOL    HW1 2486   2.799   2.370   2.901 -0.7821  1.2521 -3.0188
  829SOL    HW2 2487   2.934   2.459   2.842  0.2125  2.4336  1.7517
  830SOL     OW 2488   2.997   0.936   2.962  0.0978 -0.0425  0.0459
  830SOL    HW1 2489   3.064   1.011   2.983  0.9966 -1.6865  0.7805
  830SOL    HW2 2490   2.947   0.904   3.050  1.3975  2.0917  1.0915
  831SOL     OW 2491   3.086   0.562   0.437 -0.3065 -0.5531  0.0354
  831SOL    HW1 2492   3.059   0.510   0.522  0.5705  0.5576  0.9171
  831SOL    HW2 2493   3.116   0.497   0.360  0.9447  0.4184  0.5422
  832SOL     OW 2494   1.782   0.701   0.038 -0.5607 -0.1837 -0.1712
  832SOL    HW1 2495   1.705   0.752  -0.007 -0.9817 -0.7907 -2.0712
  832SOL    HW2 2496   1.772   0.600   0.035 -0.7531  3.2209 -2.8593
  833SOL     OW 2497   2.357   2.123   0.508 -0.4627 -0.3443 -0.6186
  833SOL    HW1 2498   2.269   2.087   0.467  1.4492 -0.9509 -2.1430
  833SOL    HW2 2499   2.431   2.052   0.491 -1.5395  0.5160 -1.3134
  834SOL     OW 2500   0.051   0.073   0.569 -0.4304 -0.1018 -0.3120
  834SOL    HW1 2501   0.123  -0.005   0.581 -0.4200  0.5159  1.3241
  834SOL    HW2 2502   0.068   0.129   0.486 -0.8647 -1.6472  1.2708
  835SOL     OW 2503   2.529   1.716   1.099  0.6935  0.4190  0.1699
  835SOL    HW1 2504   2.609   1.667   1.140  1.2310  2.4232 -1.2330
  835SOL    HW2 2505   2.564   1.783   1.026  1.0932 -0.5484 -0.0562
  836SOL     OW 2506   1.561   0.864   2.581 -0.4998 -0.3291 -0.1574
  836SOL    HW1 2507   1.480   0.900   2.530  1.7293  0.9995 -0.1446
  836SOL    HW2 2508   1.642   0.868   2.517  1.7735  4.0934 -1.0157
  837SOL     OW 2509   1.674   0.033   0.622 -0.2364 -0.9999  0.9739
  837SOL    HW1 2510   1.640   0.117   0.669  0.0703 -0.6018 -0.9568
  837SOL    HW2 2511   1.611  -0.008   0.552  2.7752 -1.3477  0.7791
  838SOL     OW 2512   1.200   1.404   2.677 -0.3366 -0.2555 -0.0681
  838SOL    HW1 2513   1.165   1.476   2.742  2.0551 -2.5808  0.9148
  838SOL    HW2 2514   1.116   1.346   2.648 -0.6707  1.0104 -0.8666
  839SOL     OW 2515   1.629   0.396   0.978 -0.9020 -0.4113  0.5183
  839SOL    HW1 2516   1.558   0.472   1.001 -1.3880  0.3915  0.7801
  839SOL    HW2 2517   1.598   0.307   1.020  3.2959  1.2531 -1.2372
  840SOL     OW 2518   2.662   2.952   1.641 -0.2016 -0.2807 -0.2178
  840SOL    HW1 2519   2.575   2.938   1.589 -0.0081 -0.4739  1.2571
  840SOL    HW2 2520   2.645   2.941   1.742  1.4237 -0.4731 -0.3080
  841SOL     OW 2521   1.535   0.849   3.057  0.1796  0.0973 -0.2365
  841SOL    HW1 2522   1.440   0.867   3.102 -0.0078  1.4068 -3.9604
  841SOL    HW2 2523   1.548   0.893   2.960 -1.6419  1.1992 -1.0716
  842SOL     OW 2524   0.815   1.611   1.032  0.7069 -0.3939  0.0121
  842SOL    HW1 2525   0.760   1.695   1.064  0.3431  0.2286  1.2475
  842SOL    HW2 2526   0.756   1.556   0.963 -0.2510 -0.3002  3.1443
  843SOL     OW 2527   0.126   0.077   1.434  0.3028 -0.4700 -0.2716
  843SOL    HW1 2528   0.218   0.120   1.458  0.4031  1.1625 -0.7539
  843SOL    HW2 2529   0.132  -0.025   1.421  1.0552  1.7577  0.3578
  844SOL     OW 2530   0.748   2.447   0.201  0.8768  0.0024  0.0278
  844SOL    HW1 2531   0.715   2.481   0.295  1.2549  2.7939  0.1711
  844SOL    HW2 2532   0.673   2.405   0.141  0.8151  0.0785 -1.1941
  845SOL     OW 2533   1.731   0.016   1.312  0.0460  0.0112  0.4481
  845SOL    HW1 2534   1.701  -0.004   1.411 -0.7375  0.4271 -0.7203
  845SOL    HW2 2535   1.723   0.112   1.286 -1.9778 -0.6876  0.2248
  846SOL     OW 2536   1.701   2.998   0.886  0.2485 -0.3854 -0.2229
  846SOL    HW1 2537   1.681   3.060   0.805 -0.9767  4.3013  0.8597
  846SOL    HW2 2538   1.804   3.008   0.914  2.7535  1.3109  0.8615
  847SOL     OW 2539   2.071   1.569   0.193 -0.2519  0.1399 -0.0589
  847SOL    HW1 2540   2.040   1.494   0.263 -0.4071 -1.8545  0.5758
  847SOL    HW2 2541   1.999   1.588   0.128  1.9833  0.1311  1.3673
  848SOL     OW 2542   2.475   0.793   2.668 -0.5698 -0.0592  0.2676
  848SOL    HW1 2543   2.489   0.898   2.669  0.8620 -2.8119  2.0722
  848SOL    HW2 2544   2.407   0.753   2.596  1.7422  0.0495 -0.2162
  849SOL     OW 2545   2.347   0.838   2.298 -0.0872  0.2209  0.6145
  849SOL    HW1 2546   2.411   0.786   2.237 -1.9333  3.0668 -0.8885
  849SOL    HW2 2547   2.276   0.773   2.349 -1.0155 -3.5855  0.7099
  850SOL     OW 2548   1.515   0.229   1.267  0.3742 -0.6827  0.1031
  850SOL    HW1 2549   1.537   0.174   1.185 -1.1701  1.6781 -1.0024
  850SOL    HW2 2550   1.488   0.164   1.345  2.7005 -0.2385 -0.0468
  851SOL     OW 2551   0.428   1.673   0.646 -0.2664  0.0714  0.7176
  851SOL    HW1 2552   0.432   1.767   0.697 -0.9245  2.0126 -3.0170
  851SOL    HW2 2553   0.515   1.655   0.594 -2.2730 -1.4837 -1.8435
  852SOL     OW 2554   0.852   2.164   1.782 -0.1981 -0.4077 -0.3301
  852SOL    HW1 2555   0.851   2.237   1.698 -0.9129  0.6680 -2.9294
  852SOL    HW2 2556   0.758   2.144   1.816  0.4048  0.2273 -0.3132
  853SOL     OW 2557   2.523   1.504   2.598 -0.1746 -0.0038  0.0192
  853SOL    HW1 2558   2.498   1.404   2.576  0.4611  0.9687  0.6125
  853SOL    HW2 2559   2.569   1.549   2.515 -2.7447  0.1753  2.8509
  854SOL     OW 2560   2.419   1.474   1.726 -0.0840 -0.0939 -0.9241
  854SOL    HW1 2561   2.459   1.525   1.645 -2.2952 -0.4990 -0.4779
  854SOL    HW2 2562   2.402   1.373   1.714 -0.0676  0.3188  2.8638
  855SOL     OW 2563   2.060   2.364   0.960  0.0541  0.4983 -0.3987
  855SOL    HW1 2564   2.096   2.452   0.911  2.2608  2.8900 -0.2577
  855SOL    HW2 2565   2.123   2.340   1.043 -0.6445  2.4249 -0.0754
  856SOL     OW 2566   1.428   1.438   0.821  0.6699 -0.7606 -0.1411
  856SOL    HW1 2567   1.472   1.531   0.831 -0.7185  1.5738  0.3350
  856SOL    HW2 2568   1.357   1.422   0.896 -0.7255  2.2268 -0.1370
  857SOL     OW 2569   2.925   2.537   1.059 -0.1868  0.2979 -0.3108
  857SOL    HW1 2570   2.838   2.509   1.107  0.2988  0.5325 -1.1077
  857SOL    HW2 2571   2.953   2.460   0.998  0.9589 -2.2772  3.8260
  858SOL     OW 2572   2.296   2.114   1.774 -0.2012 -0.3781 -0.2638
  858SOL    HW1 2573   2.215   2.163   1.736  3.0507  2.5823  0.9908
  858SOL    HW2 2574   2.331   2.032   1.721 -0.9485  1.6775  0.4767
  859SOL     OW 2575   2.477   0.443   1.034  0.6621  0.6128 -0.1759
  859SOL    HW1 2576   2.545   0.509   0.980 -0.4823  1.3966 -1.4038
  859SOL    HW2 2577   2.515   0.353   1.068 -0.5961 -1.5447 -0.6497
  860SOL     OW 2578   1.890   2.789   0.522  0.5107  0.6138 -0.5261
  860SOL    HW1 2579   1.927   2.797   0.427  2.7245 -3.0158  0.3962
  860SOL    HW2 2580   1.905   2.873   0.585  0.3162 -0.7041  1.9667
  861SOL     OW 2581   0.989   2.598   2.840  0.0506  0.3146  0.6547
  861SOL    HW1 2582   1.009   2.699   2.855 -5.2820  0.9243  3.1398
  861SOL    HW2 2583   0.956   2.554   2.927  0.1487  1.9015 -0.6225
  862SOL     OW 2584   2.944   2.537   1.581 -0.6488 -0.5504  0.1886
  862SOL    HW1 2585   3.012   2.542   1.661 -0.9047  0.7134  0.2466
  862SOL    HW2 2586   2.879   2.618   1.577 -0.5093 -0.8168  0.0685
  863SOL     OW 2587   1.907   2.693   0.182  0.1066  0.6452 -0.7041
  863SOL    HW1 2588   1.974   2.619   0.218 -1.5910 -0.0534  2.8755
  863SOL    HW2 2589   1.815   2.664   0.209  1.5489 -0.6183 -1.1563
  864SOL     OW 2590   1.929   1.095   2.985  0.0434 -0.3583  0.0250
  864SOL    HW1 2591   1.931   1.079   2.884  2.4227 -0.4658  1.0420
  864SOL    HW2 2592   2.027   1.088   3.021  1.6990 -0.1782 -1.9923
  865SOL     OW 2593   2.195   1.705   0.617  0.3062  0.3869  0.6275
  865SOL    HW1 2594   2.181   1.769   0.697  2.4527  0.4642 -0.2294
  865SOL    HW2 2595   2.142   1.612   0.606  1.9609 -2.8832  0.3185
  866SOL     OW 2596   2.949   2.794   1.006  0.4896 -0.0110 -0.7253
  866SOL    HW1 2597   2.974   2.804   0.907  1.6761  0.8745 -0.8031
  866SOL    HW2 2598   2.956   2.691   1.030  1.9425 -2.2973  0.3520
  867SOL     OW 2599   0.373   1.381   0.840 -0.7659  0.3977  0.4420
  867SOL    HW1 2600   0.406   1.293   0.807 -1.5208  2.1586  2.4540
  867SOL    HW2 2601   0.279   1.407   0.803 -1.5870  0.1699  0.0548
  868SOL     OW 2602   0.834   1.907   2.021 -0.6983  0.1725  0.1210
  868SOL    HW1 2603   0.810   1.883   2.121  2.1950 -1.6727  1.2175
  868SOL    HW2 2604   0.795   2.005   1.993  0.6035  3.8463 -1.1441
  869SOL     OW 2605   2.521   1.955   1.631 -0.5200  0.3132  0.3417
  869SOL    HW1 2606   2.617   1.927   1.629 -0.0478 -1.0668  2.0262
  869SOL    HW2 2607   2.482   1.965   1.536 -2.4943  3.5240 -1.6066
  870SOL     OW 2608   2.354   2.530   1.268 -0.1991  0.3683  0.3482
  870SOL    HW1 2609   2.329   2.444   1.218 -0.8013  1.5088 -1.7292
  870SOL    HW2 2610   2.444   2.514   1.324  2.6953 -0.8471  2.3519
  871SOL     OW 2611   2.996   1.990   0.530  0.3301 -0.2347  0.1283
  871SOL    HW1 2612   2.942   2.076   0.512  1.5735  0.3648  2.3104
  871SOL    HW2 2613   2.980   1.910   0.466 -1.1735 -1.2712 -1.0603
  872SOL     OW 2614   2.194   0.537   1.719 -0.1268  0.1825 -0.0797
  872SOL    HW1 2615   2.170   0.552   1.826 -0.9296  0.2833  1.6673
  872SOL    HW2 2616   2.280   0.478   1.712 -0.3289  1.3077 -2.1729
  873SOL     OW 2617   1.691   2.107   2.885  0.3879  0.3631  0.2380
  873SOL    HW1 2618   1.709   2.210   2.896  0.1233 -2.2566  1.2374
  873SOL    HW2 2619   1.609   2.075   2.828  2.0848  1.3371  2.5595
  874SOL     OW 2620   0.589   2.496   0.748  0.0219 -0.3751 -0.5302
  874SOL    HW1 2621   0.601   2.597   0.773  4.1411 -2.0187  0.3737
  874SOL    HW2 2622   0.682   2.445   0.738  1.9497  0.2746 -1.6908
  875SOL     OW 2623   2.327   1.571   1.451 -0.7205  0.8258  0.6020
  875SOL    HW1 2624   2.429   1.593   1.466  1.6863 -1.5267  3.0626
  875SOL    HW2 2625   2.292   1.622   1.366  1.1238 -2.9609 -0.8692
  876SOL     OW 2626   0.164   2.259   2.746  0.2277  0.3133  0.7687
  876SOL    HW1 2627   0.175   2.194   2.822 -0.0314 -0.6379 -1.9895
  876SOL    HW2 2628   0.207   2.350   2.755  2.4352 -0.9547 -1.9953
  877SOL     OW 2629   2.823   2.644   0.624  0.1545 -0.3299  0.6864
  877SOL    HW1 2630   2.834   2.747   0.624 -0.1941 -2.4762  1.2328
  877SOL    HW2 2631   2.912   2.597   0.636  0.0218  4.3637  0.8147
  878SOL     OW 2632   2.730   1.490   2.353 -0.6031 -0.2789  0.6532
  878SOL    HW1 2633   2.757   1.578   2.396 -0.3265 -3.2726  1.4897
  878SOL    HW2 2634   2.762   1.407   2.406 -4.9518  1.3800  2.4149
  879SOL     OW 2635   2.454   3.049   1.247  0.4812  0.0134 -0.7460
  879SOL    HW1 2636   2.483   2.949   1.233  1.1879  1.2696 -1.4279
  879SOL    HW2 2637   2.351   3.057   1.229 -2.3265  1.7592  0.4329
  880SOL     OW 2638   0.608   0.503   2.213  0.5100  0.2493 -0.1130
  880SOL    HW1 2639   0.561   0.462   2.295  3.0531  1.3626  1.4815
  880SOL    HW2 2640   0.611   0.443   2.126 -0.4162  0.7385  2.7803
  881SOL     OW 2641   0.883   0.076   0.457  0.5772 -0.1192 -0.3074
  881SOL    HW1 2642   0.940  -0.008   0.490  1.9139 -0.4120  0.8638
  881SOL    HW2 2643   0.899   0.097   0.358  0.8531 -0.7235  0.2284
  882SOL     OW 2644   2.757   1.792   1.676  0.3868 -0.1012 -0.0928
  882SOL    HW1 2645   2.828   1.723   1.649  0.0288 -0.9837  3.5779
  882SOL    HW2 2646   2.702   1.760   1.761  0.1783 -1.6304  0.3513
  883SOL     OW 2647   0.934   0.568   0.960 -0.1386 -0.2732 -0.2369
  883SOL    HW1 2648   0.943   0.651   1.019  0.1500 -0.7673  0.8401
  883SOL    HW2 2649   1.027   0.528   0.939 -1.1262 -0.8171 -0.2793
  884SOL     OW 2650   1.161   1.913   1.061 -0.2867 -0.2504 -0.4131
  884SOL    HW1 2651   1.135   1.860   0.978 -0.9950 -1.1283  2.3076
  884SOL    HW2 2652   1.097   1.994   1.081 -0.4381 -0.3810  1.1106
  885SOL     OW 2653   2.318   1.788   2.298  0.1636  0.1579 -0.4287
  885SOL    HW1 2654   2.233   1.738   2.341 -3.0645  0.5168  1.4592
  885SOL    HW2 2655   2.330   1.886   2.330  3.3941  0.4752  2.0659
  886SOL     OW 2656   2.675   0.459   1.816 -0.0899 -0.0696  0.5062
  886SOL    HW1 2657   2.732   0.401   1.871 -1.9964  0.1611 -1.8789
  886SOL    HW2 2658   2.725   0.525   1.753 -0.0352 -0.3316  0.9052
  887SOL     OW 2659   0.199   2.045   1.287 -0.0463 -0.2303 -0.4312
  887SOL    HW1 2660   0.149   1.992   1.213  2.0607  1.1354 -0.9656
  887SOL    HW2 2661   0.228   2.135   1.244  1.0245 -0.4279 -0.8848
  888SOL     OW 2662   0.578   1.327   1.484 -0.1548  0.6397 -0.4186
  888SOL    HW1 2663   0.584   1.361   1.385 -0.0284 -1.2508 -1.7145
  888SOL    HW2 2664   0.564   1.227   1.498  2.2193  3.9816  0.2039
  889SOL     OW 2665   0.835   2.405   2.147 -0.1359  0.1285  0.3317
  889SOL    HW1 2666   0.765   2.354   2.090  2.6234 -0.1904  1.3336
  889SOL    HW2 2667   0.917   2.443   2.096  0.4344 -0.6599  3.6090
  890SOL     OW 2668   2.327   2.421   0.197  0.6098  0.0413  0.4284
  890SOL    HW1 2669   2.352   2.519   0.203 -0.4540 -0.5332  2.9596
  890SOL    HW2 2670   2.233   2.406   0.244 -1.9422  0.2886 -0.8125
  891SOL     OW 2671   2.602   1.664   0.716  0.0882 -0.2604  0.0064
  891SOL    HW1 2672   2.567   1.582   0.769 -0.0846 -0.8410  1.3969
  891SOL    HW2 2673   2.532   1.708   0.653 -1.9530 -1.6593  0.2070
  892SOL     OW 2674   0.301   0.285   2.249 -0.5096 -0.3189  0.0675
  892SOL    HW1 2675   0.297   0.322   2.152  1.9093  0.7981  0.6123
  892SOL    HW2 2676   0.366   0.325   2.318  1.6049  0.5682 -0.1893
  893SOL     OW 2677   1.626   0.249   2.703 -0.0148  0.4817  0.9766
  893SOL    HW1 2678   1.690   0.329   2.737 -1.7050  1.8971  0.9337
  893SOL    HW2 2679   1.531   0.288   2.698  0.9587 -1.0120  3.0497
  894SOL     OW 2680   2.161   2.044   0.052  0.2099 -0.4444 -0.3545
  894SOL    HW1 2681   2.112   1.986  -0.024  0.3227 -2.8329 -0.3286
  894SOL    HW2 2682   2.203   1.986   0.130  2.5620  0.7870  1.2815
  895SOL     OW 2683   2.830   1.383   0.844 -0.6464 -0.1567  0.0198
  895SOL    HW1 2684   2.879   1.326   0.917 -0.0443 -3.0428 -1.3307
  895SOL    HW2 2685   2.871   1.478   0.827 -3.2613 -1.8026  2.7031
  896SOL     OW 2686   1.703   1.790   1.171  0.2534  0.0689 -0.1661
  896SOL    HW1 2687   1.797   1.791   1.127 -0.2887  1.0425  0.7289
  896SOL    HW2 2688   1.649   1.877   1.156  1.6060  1.2788  0.7882
  897SOL     OW 2689   0.324   0.493   3.060 -0.1573 -0.4762  0.1780
  897SOL    HW1 2690   0.257   0.546   2.995 -1.2760  0.6686 -1.1364
  897SOL    HW2 2691   0.422   0.529   3.052 -1.1180  1.7894  1.0372
  898SOL     OW 2692   0.563   2.927   0.992 -0.3761 -0.0312 -0.2863
  898SOL    HW1 2693   0.487   2.981   1.038 -2.9463 -0.7260 -2.3472
  898SOL    HW2 2694   0.657   2.957   1.030 -0.3987  0.0937  2.8512
  899SOL     OW 2695   2.706   0.938   1.279 -0.4595  0.3259 -0.3042
  899SOL    HW1 2696   2.674   0.879   1.207  0.7748 -0.9426  2.6896
  899SOL    HW2 2697   2.781   1.005   1.257 -0.4372 -0.5858 -1.2915
  900SOL     OW 2698   0.993   2.360   2.387 -0.1243  0.3047  0.2840
  900SOL    HW1 2699   0.943   2.404   2.305  1.5102  1.5735 -1.0770
  900SOL    HW2 2700   0.942   2.355   2.477 -0.1997  2.1704 -1.2199
  901SOL     OW 2701   1.997   2.489   1.347 -0.4614  0.4496 -0.2466
  901SOL    HW1 2702   1.924   2.468   1.277 -0.2809  1.0040  2.7453
  901SOL    HW2 2703   2.051   2.406   1.380 -0.8579 -2.7508  0.8885
  902SOL     OW 2704   2.568   1.670   1.476  0.1939 -0.6156 -0.1781
  902SOL    HW1 2705   2.633   1.722   1.536  1.4228  2.0922  1.4483
  902SOL    HW2 2706   2.612   1.624   1.395 -1.0165 -0.2541 -2.6532
  903SOL     OW 2707   0.275   2.458   1.981 -0.0771  0.6875 -0.9875
  903SOL    HW1 2708   0.188   2.399   1.995 -0.2618  0.3668  1.0255
  903SOL    HW2 2709   0.264   2.530   1.915 -0.9890 -0.4642  2.5986
  904SOL     OW 2710   1.992   0.777   2.600 -0.4321  0.5175  0.3372
  904SOL    HW1 2711   1.917   0.713   2.638 -0.5297  1.8272 -1.2497
  904SOL    HW2 2712   1.983   0.795   2.492  0.9565 -0.9274 -4.4592
  905SOL     OW 2713   2.806   0.035   2.555  0.9329 -0.0854  0.6414
  905SOL    HW1 2714   2.880  -0.022   2.605  0.7471  2.6090  0.4209
  905SOL    HW2 2715   2.841   0.133   2.528  1.4365  1.0790  1.9408
  906SOL     OW 2716   0.121   1.852   1.927  0.1576  0.2405 -0.8074
  906SOL    HW1 2717   0.075   1.826   1.835  0.0242 -1.3786  0.7552
  906SOL    HW2 2718   0.176   1.938   1.929 -2.5753  1.1300  2.1737
  907SOL     OW 2719   0.197   2.389   1.063  0.3041  0.4006  0.0397
  907SOL    HW1 2720   0.276   2.448   1.041 -0.0840 -1.1417  0.0846
  907SOL    HW2 2721   0.121   2.391   0.991 -2.7377  1.3688  1.6746
  908SOL     OW 2722   2.692   2.817   0.359 -0.4080 -0.5585 -0.1349
  908SOL    HW1 2723   2.690   2.871   0.269  0.4701  0.5516 -1.5708
  908SOL    HW2 2724   2.649   2.726   0.349  2.2479 -2.1402  0.8646
  909SOL     OW 2725   0.679   0.913   2.639 -0.3972  0.2958  0.1921
  909SOL    HW1 2726   0.677   0.813   2.615  1.5328 -2.3774 -1.9539
  909SOL    HW2 2727   0.757   0.960   2.587 -1.4866 -1.3822 -0.8534
  910SOL     OW 2728   1.720   1.798   2.100 -0.2022 -0.4076  0.5201
  910SOL    HW1 2729   1.783   1.818   2.018 -0.7581 -1.4356  1.6836
  910SOL    HW2 2730   1.660   1.883   2.120 -0.7264 -1.2138  0.1732
  911SOL     OW 2731   1.756   3.049   1.574  0.3279 -0.2260 -0.5335
  911SOL    HW1 2732   1.847   3.011   1.530 -0.1483  1.2954  1.8679
  911SOL    HW2 2733   1.715   2.987   1.646  0.5944  2.0614  1.0748
  912SOL     OW 2734   2.869   0.962   0.773  0.2791  0.1726 -0.2341
  912SOL    HW1 2735   2.888   0.949   0.874 -0.8940  0.2269 -1.2551
  912SOL    HW2 2736   2.830   1.056   0.754  0.2682  0.6957  0.2774
  913SOL     OW 2737   2.579   1.282   1.546 -0.0394 -0.0313  0.1587
  913SOL    HW1 2738   2.603   1.184   1.570 -0.1086 -0.0182  1.8618
  913SOL    HW2 2739   2.614   1.301   1.453 -1.1786  1.5888  1.7844
  914SOL     OW 2740   2.785   0.487   1.295 -0.4697  0.1822 -0.7809
  914SOL    HW1 2741   2.753   0.397   1.332  1.1787  3.3142  1.6177
  914SOL    HW2 2742   2.778   0.556   1.371 -0.0632  0.2876 -0.1464
  915SOL     OW 2743   1.171   0.799   1.040 -0.0077 -0.2492 -0.3434
  915SOL    HW1 2744   1.240   0.820   1.108 -0.4494 -1.5811  0.9055
  915SOL    HW2 2745   1.075   0.808   1.081  0.0139 -1.8431  0.1924
  916SOL     OW 2746   0.608   0.029   0.586 -0.0503  0.0064 -0.0409
  916SOL    HW1 2747   0.620   0.098   0.665  3.1245 -1.5019 -0.0233
  916SOL    HW2 2748   0.607   0.077   0.494 -1.0177 -0.9197 -0.4954
  917SOL     OW 2749   2.736   2.609   1.868  0.2709  0.1394 -0.5734
  917SOL    HW1 2750   2.700   2.701   1.910 -1.4728  2.6995  2.1033
  917SOL    HW2 2751   2.801   2.614   1.793  0.8031  1.8740  1.5778
  918SOL     OW 2752   1.081   2.193   3.085 -0.3677 -0.0743 -0.0716
  918SOL    HW1 2753   1.037   2.220   3.176  0.6170 -1.0842 -1.2526
  918SOL    HW2 2754   1.124   2.097   3.089  2.1890  0.2943  4.1135
  919SOL     OW 2755   0.903   1.580   2.778  0.3694 -0.0515 -0.0712
  919SOL    HW1 2756   0.930   1.638   2.694  0.8539  0.6677 -0.8903
  919SOL    HW2 2757   0.856   1.493   2.744 -0.4109 -0.0899 -0.6169
  920SOL     OW 2758   1.218   2.007   2.466 -0.1010  0.2231 -0.2861
  920SOL    HW1 2759   1.152   2.003   2.386 -0.5490 -2.6500  0.7535
  920SOL    HW2 2760   1.247   1.912   2.494 -2.7310 -2.1754  0.2312
  921SOL     OW 2761   1.040   0.104   2.541 -0.0533  0.3381 -0.4567
  921SOL    HW1 2762   1.073   0.022   2.489  1.3362 -0.9214 -0.9202
  921SOL    HW2 2763   0.989   0.170   2.483  4.8190  0.5413  1.6422
  922SOL     OW 2764   2.139   2.430   2.800  0.2328 -0.0929  0.3479
  922SOL    HW1 2765   2.137   2.330   2.829  0.2412 -0.7150 -0.6600
  922SOL    HW2 2766   2.104   2.439   2.698 -0.0150 -0.4976  0.9719
  923SOL     OW 2767   1.214   2.726   0.215  0.4095 -0.5797 -0.5801
  923SOL    HW1 2768   1.301   2.772   0.252 -1.6347 -0.9038  2.6346
  923SOL    HW2 2769   1.222   2.626   0.211  0.9895  2.2704 -0.8403
  924SOL     OW 2770   2.917   1.604   0.075  0.3740  0.5617  0.2326
  924SOL    HW1 2771   2.838   1.595   0.006 -1.4394  0.9272  0.7838
  924SOL    HW2 2772   3.012   1.606   0.030  0.0611 -0.6752  1.1052
  925SOL     OW 2773   0.076   2.885   1.626 -0.0389 -0.3462  0.0400
  925SOL    HW1 2774  -0.018   2.938   1.647 -1.6470  2.1500  1.0520
  925SOL    HW2 2775   0.101   2.881   1.526 -2.7867 -1.4517 -1.1681
  926SOL     OW 2776   1.413   2.912   1.251 -0.3182 -0.2173 -0.1574
  926SOL    HW1 2777   1.444   2.917   1.149  2.2678 -0.3039 -1.2248
  926SOL    HW2 2778   1.449   2.993   1.305  0.3511 -1.4211 -1.1517
  927SOL     OW 2779   0.245   2.593   1.740  0.5112  0.2481 -0.5899
  927SOL    HW1 2780   0.264   2.499   1.706 -1.4249 -0.3613  0.7783
  927SOL    HW2 2781   0.266   2.668   1.671  0.1631  1.3452 -0.8175
  928SOL     OW 2782   1.607   2.040   2.130 -0.1333  0.0576 -0.3663
  928SOL    HW1 2783   1.643   2.137   2.098  0.2858 -1.3126  0.4523
  928SOL    HW2 2784   1.513   2.027   2.088  1.6691 -1.7132  1.1980
  929SOL     OW 2785   2.400   2.411   2.860  0.6253 -0.3900  0.1957
  929SOL    HW1 2786   2.307   2.443   2.828  1.7656 -0.7452 -0.6109
  929SOL    HW2 2787   2.467   2.404   2.781  0.5888 -0.7857  0.1761
  930SOL     OW 2788   2.169   1.987   1.078 -0.8162  0.0222 -0.8590
  930SOL    HW1 2789   2.116   2.002   1.166  0.7944  1.0863 -0.3888
  930SOL    HW2 2790   2.261   2.033   1.089 -2.6472 -0.6082  1.4012
  931SOL     OW 2791   0.542   1.755   2.661 -0.1293 -0.2661 -0.2267
  931SOL    HW1 2792   0.608   1.776   2.739 -3.0142  1.0433 -0.8139
  931SOL    HW2 2793   0.568   1.683   2.592 -1.7186  2.3848 -3.8241
  932SOL     OW 2794   0.502   0.113   2.951  0.2743  0.0318  0.1652
  932SOL    HW1 2795   0.598   0.123   2.915  0.4797  0.6744  1.6894
  932SOL    HW2 2796   0.472   0.015   2.978 -1.1406  1.1459  0.9536
  933SOL     OW 2797   1.064   0.766   2.990 -0.1876 -0.0931  0.3677
  933SOL    HW1 2798   1.123   0.811   3.063 -0.5521  0.7524  1.9947
  933SOL    HW2 2799   1.013   0.833   2.928 -0.9045  0.3071 -2.4010
  934SOL     OW 2800   0.869   2.978   2.813 -0.5817 -0.1362  0.1947
  934SOL    HW1 2801   0.970   2.950   2.785  3.4123  0.3021  1.4951
  934SOL    HW2 2802   0.842   2.946   2.907  3.1590  0.5603  2.6751
  935SOL     OW 2803   3.041   0.533   0.880 -0.1776  0.3464 -0.8760
  935SOL    HW1 2804   3.026   0.465   0.795  0.6208 -4.1297 -0.3575
  935SOL    HW2 2805   2.955   0.589   0.897 -0.6084  0.8683 -0.7409
  936SOL     OW 2806   1.136   3.002   0.162 -0.0485  0.0162 -0.3146
  936SOL    HW1 2807   1.163   3.049   0.070  0.8072  0.4845  1.3541
  936SOL    HW2 2808   1.154   2.903   0.157  0.3310 -0.3340  1.1853
  937SOL     OW 2809   1.943   2.708   2.096  0.2328 -0.0329  0.0494
  937SOL    HW1 2810   1.864   2.727   2.157 -0.5627  1.5105 -1.8420
  937SOL    HW2 2811   1.912   2.725   1.998 -0.6845  0.7720  2.0798
  938SOL     OW 2812   2.725   2.219   1.508 -0.0356 -0.2484 -0.5251
  938SOL    HW1 2813   2.677   2.274   1.584 -2.4371  0.2446 -0.5468
  938SOL    HW2 2814   2.779   2.136   1.540  0.1234  1.3768 -0.4409
  939SOL     OW 2815   2.756   0.973   2.522  0.1029  0.2001  0.3368
  939SOL    HW1 2816   2.852   0.927   2.514  2.4988 -1.8640  0.8380
  939SOL    HW2 2817   2.741   1.021   2.609  0.8637  1.0542 -1.7004
  940SOL     OW 2818   1.055   0.450   2.660  0.2058  0.2100  0.0806
  940SOL    HW1 2819   1.081   0.368   2.714 -1.2471 -0.0664  0.9208
  940SOL    HW2 2820   0.956   0.452   2.655  0.7071 -0.8222 -1.8034
  941SOL     OW 2821   0.057   2.867   2.199 -0.3916  0.3396 -0.3223
  941SOL    HW1 2822   0.017   2.775   2.180 -2.3053  2.3059  1.7792
  941SOL    HW2 2823   0.121   2.879   2.280  0.9979 -0.8184 -0.8354
  942SOL     OW 2824   0.122   0.083   2.511  0.5577 -0.3738 -0.1489
  942SOL    HW1 2825   0.190   0.122   2.583  1.3499  1.8710  2.8523
  942SOL    HW2 2826   0.081   0.161   2.458  0.7992  2.6667  1.6842
  943SOL     OW 2827   2.108   1.674   2.423 -0.2710 -0.3286 -0.7628
  943SOL    HW1 2828   2.147   1.592   2.479  2.7419  1.7884  1.9497
  943SOL    HW2 2829   2.031   1.659   2.350 -3.1877 -0.5460 -3.5578
  944SOL     OW 2830   2.186   2.290   1.441  0.2813  0.0529 -0.7170
  944SOL    HW1 2831   2.262   2.331   1.490 -1.0078 -0.1242 -1.6871
  944SOL    HW2 2832   2.117   2.241   1.504  0.0380 -0.5943 -2.7633
  945SOL     OW 2833   0.657   1.435   0.357 -0.0674  0.0878  0.0118
  945SOL    HW1 2834   0.702   1.457   0.267  0.6532  0.4138 -0.3230
  945SOL    HW2 2835   0.676   1.335   0.384 -1.9411  0.3258  1.1895
  946SOL     OW 2836   0.327   0.983   2.666 -0.1262 -0.1925  0.0919
  946SOL    HW1 2837   0.280   0.951   2.581 -0.6380 -0.6012 -0.4966
  946SOL    HW2 2838   0.358   1.081   2.667  2.9162 -2.5279 -0.1769
  947SOL     OW 2839   1.525   0.420   0.170 -0.0699  0.7211 -0.3924
  947SOL    HW1 2840   1.567   0.343   0.227  0.3459 -0.1582 -1.8296
  947SOL    HW2 2841   1.431   0.403   0.142 -0.5708 -0.3975  0.1091
  948SOL     OW 2842   2.008   3.075   2.124  0.0473 -0.4940  0.2060
  948SOL    HW1 2843   1.951   3.089   2.037  0.4935 -0.7549  0.3258
  948SOL    HW2 2844   1.983   2.991   2.184  1.3441 -0.0189 -1.4920
  949SOL     OW 2845   0.658   2.546   0.451  0.7403 -0.1974 -0.3082
  949SOL    HW1 2846   0.676   2.644   0.419 -0.2602  0.8982  3.2597
  949SOL    HW2 2847   0.638   2.542   0.551  2.4403  0.7327 -0.6043
  950SOL     OW 2848   0.205   2.112   3.016 -0.3726 -0.1512 -0.0517
  950SOL    HW1 2849   0.119   2.170   3.020 -1.8354 -0.5775  2.0344
  950SOL    HW2 2850   0.198   2.008   3.035  1.8685 -1.5000  0.1699
  951SOL     OW 2851   1.153   2.822   2.805 -0.3357  0.0473 -0.0231
  951SOL    HW1 2852   1.176   2.746   2.747 -1.2656  1.8796  0.7139
  951SOL    HW2 2853   1.225   2.895   2.800  0.0950 -0.0344  1.2341
  952SOL     OW 2854   0.093   1.700   0.477 -0.8273 -0.4557 -0.1746
  952SOL    HW1 2855   0.163   1.769   0.491 -2.4929  0.7547  3.3982
  952SOL    HW2 2856   0.022   1.700   0.554  0.6344  1.6760 -0.7949
  953SOL     OW 2857   2.473   1.743   0.157 -0.3105  0.6564  0.4722
  953SOL    HW1 2858   2.502   1.645   0.174 -1.4806  1.1740 -3.8433
  953SOL    HW2 2859   2.475   1.777   0.057  2.5632  0.6165 -0.6999
  954SOL     OW 2860   2.197   0.489   1.054  0.3435  0.2880 -0.8335
  954SOL    HW1 2861   2.132   0.511   0.976  2.3908  0.9548  1.7409
  954SOL    HW2 2862   2.296   0.475   1.030  2.8802 -0.9893  0.2745
  955SOL     OW 2863   0.216   2.674   1.264 -0.3824  0.6563 -0.7376
  955SOL    HW1 2864   0.118   2.644   1.256  3.3947 -1.4751 -0.6403
  955SOL    HW2 2865   0.270   2.659   1.176  0.8284 -0.0469 -1.1233
  956SOL     OW 2866   2.744   2.476   2.502  0.1793  0.3704  0.2608
  956SOL    HW1 2867   2.742   2.373   2.489  1.7207 -1.0575  0.0830
  956SOL    HW2 2868   2.780   2.530   2.418  0.1926  0.1346 -0.5075
  957SOL     OW 2869   1.564   1.996   2.664 -0.0833 -0.2960  0.2104
  957SOL    HW1 2870   1.544   1.896   2.684 -1.7882 -3.8813  0.3212
  957SOL    HW2 2871   1.591   2.022   2.566  0.6759  1.0868 -0.9105
  958SOL     OW 2872   2.652   2.289   2.988  0.3203 -0.2724 -0.4846
  958SOL    HW1 2873   2.551   2.290   2.978  0.5017  1.1268  0.7548
  958SOL    HW2 2874   2.686   2.256   3.083 -1.7674 -0.6571  1.3656
  959SOL     OW 2875   0.257   2.785   0.028  0.3376 -0.1814  0.0555
  959SOL    HW1 2876   0.161   2.775   0.058  0.8439 -1.2656 -2.4508
  959SOL    HW2 2877   0.288   2.697  -0.017  0.4680 -0.4360  1.7751
  960SOL     OW 2878   1.946   0.448   2.035 -0.4904 -0.1617  0.6858
  960SOL    HW1 2879   1.943   0.541   1.981  1.2100  1.7558  0.7037
  960SOL    HW2 2880   1.979   0.462   2.133  0.6408  0.5637  1.9358
  961SOL     OW 2881   2.708   1.960   1.030  0.9152 -0.0808 -0.3423
  961SOL    HW1 2882   2.634   1.982   0.961  4.9075  1.9472 -3.9432
  961SOL    HW2 2883   2.706   2.015   1.118  0.4997  1.0760  1.1417
  962SOL     OW 2884   1.267   0.954   0.004 -0.3581 -0.1405 -0.5482
  962SOL    HW1 2885   1.284   1.027  -0.064 -1.9389 -1.6534  1.4214
  962SOL    HW2 2886   1.255   0.988   0.102 -0.8203  2.4421 -1.5237
  963SOL     OW 2887   2.204   2.577   1.922 -0.5799 -0.1963  0.2799
  963SOL    HW1 2888   2.248   2.542   2.006  0.3533  1.4704  1.4907
  963SOL    HW2 2889   2.240   2.668   1.890 -0.5204  1.6332 -1.1368
  964SOL     OW 2890   2.432   0.381   1.734 -0.0854 -0.2438 -0.1393
  964SOL    HW1 2891   2.517   0.411   1.785  1.3268 -1.0630 -2.7729
  964SOL    HW2 2892   2.457   0.371   1.633  0.6564  0.8340 -0.3300
  965SOL     OW 2893   2.675   2.987   0.166 -0.3681  0.4441 -0.2154
  965SOL    HW1 2894   2.738   2.920   0.109  2.3573 -2.2224 -0.3714
  965SOL    HW2 2895   2.619   3.056   0.113 -2.3507 -0.4414  0.7433
  966SOL     OW 2896   2.540   2.641   2.206 -0.0189 -0.0856  0.4451
  966SOL    HW1 2897   2.467   2.590   2.152 -0.8678  0.7552 -0.1484
  966SOL    HW2 2898   2.504   2.732   2.240 -0.9433 -2.5284  3.5320
  967SOL     OW 2899   2.719   2.854   2.471 -0.2834 -0.0325  0.1077
  967SOL    HW1 2900   2.774   2.797   2.401 -0.9315 -0.2503 -2.1772
  967SOL    HW2 2901   2.751   2.953   2.469 -3.4543 -0.6752  0.4607
  968SOL     OW 2902   1.983   1.053   2.724 -0.3819  0.0682 -0.0340
  968SOL    HW1 2903   1.919   1.121   2.670 -2.3299 -2.0000 -1.6148
  968SOL    HW2 2904   1.953   0.954   2.700  1.4147 -0.5794  1.2367
  969SOL     OW 2905   2.737   2.364   1.182  0.3180  0.2901 -0.1988
  969SOL    HW1 2906   2.703   2.337   1.088  1.7444  0.2093  1.0199
  969SOL    HW2 2907   2.805   2.292   1.218  3.2441  2.2570  0.5125
  970SOL     OW 2908   1.124   2.120   1.786  0.2987 -0.3190  0.1073
  970SOL    HW1 2909   1.021   2.135   1.762 -0.1494  1.2640 -0.1404
  970SOL    HW2 2910   1.135   2.158   1.886  0.6650  1.5449 -2.0912
  971SOL     OW 2911   2.825   2.103   1.933  0.0178  0.5590 -0.6721
  971SOL    HW1 2912   2.824   2.205   1.965 -2.9526  0.5059  3.7177
  971SOL    HW2 2913   2.887   2.089   1.849  1.8919 -0.0365  0.3626
  972SOL     OW 2914   2.079   2.450   0.278  0.1097  0.3561  0.7929
  972SOL    HW1 2915   2.036   2.384   0.213 -0.5016  0.4829  0.6968
  972SOL    HW2 2916   2.053   2.433   0.381 -2.7748 -1.6112  1.5218
  973SOL     OW 2917   1.303   1.047   1.875 -0.3277 -0.6783 -0.2903
  973SOL    HW1 2918   1.238   1.000   1.813  2.8303  0.4827  0.9294
  973SOL    HW2 2919   1.279   1.151   1.885 -0.1235 -0.0788  0.3513
  974SOL     OW 2920   1.639   0.564   1.962 -0.1782 -0.0664  1.2265
  974SOL    HW1 2921   1.714   0.613   1.909  3.4290 -3.5392 -1.5460
  974SOL    HW2 2922   1.548   0.623   1.975 -3.8913  0.6643  0.1868
  975SOL     OW 2923   2.452   3.050   3.064  0.3383  0.3828  0.2532
  975SOL    HW1 2924   2.389   3.014   3.138  0.2218 -0.9262  1.4460
  975SOL    HW2 2925   2.434   3.016   2.969 -0.4310  1.0701  3.4320
  976SOL     OW 2926   1.957   2.911   2.352 -0.0608  0.1942  0.0567
  976SOL    HW1 2927   1.889   2.840   2.343  0.6473  0.5807  3.5962
  976SOL    HW2 2928   2.026   2.885   2.423  3.4027  0.8491  1.6045
  977SOL     OW 2929   0.483   0.586   0.994  0.6065 -0.4925  0.2768
  977SOL    HW1 2930   0.401   0.582   0.926 -1.2364  1.3486 -2.9488
  977SOL    HW2 2931   0.569   0.591   0.942 -1.0047 -1.1174 -1.2240
   3.10000   3.10000   3.10000
