1000 SPC/Fw water molecules t=   1.92000 step= 1920
 2931
    1SOL     OW    1   2.532   0.279   2.707  0.2563 -0.5227  0.3269
    1SOL    HW1    2   2.571   0.184   2.701  1.1847  3.3148  0.0365
    1SOL    HW2    3   2.580   0.330   2.783 -0.8972 -2.1182  1.8420
    2SOL     OW    4   2.789   2.799   1.283  0.0795 -0.6529 -0.8337
    2SOL    HW1    5   2.867   2.853   1.240  2.8758 -0.7794 -0.5860
    2SOL    HW2    6   2.762   2.833   1.375  0.7028 -1.3930  1.5383
    3SOL     OW    7   2.753   2.434   0.463  0.6095 -1.0680 -0.0503
    3SOL    HW1    8   2.654   2.456   0.450  1.6575  2.4259 -2.2248
    3SOL    HW2    9   2.796   2.495   0.535 -2.5048  1.4344  0.8357
    4SOL     OW   10   1.205   1.548   2.432 -0.4349 -0.2984 -0.0559
    4SOL    HW1   11   1.149   1.583   2.350 -0.7897 -0.3662  0.9669
    4SOL    HW2   12   1.168   1.452   2.456 -2.4270 -1.4173 -2.4368
    5SOL     OW   13   1.151   1.570   2.905  0.0124 -0.3327 -0.1564
    5SOL    HW1   14   1.197   1.658   2.947 -1.5865 -0.7279  0.3655
    5SOL    HW2   15   1.054   1.592   2.865  0.7778 -1.5995  1.5720
    6SOL     OW   16   0.186   1.863   0.015 -0.0239  0.5690 -0.2299
    6SOL    HW1   17   0.093   1.897   0.039 -1.4168  1.6738 -0.5099
    6SOL    HW2   18   0.212   1.777   0.064  1.9363 -2.7177 -0.1730
    7SOL     OW   19   2.554   0.859   1.056  0.3176  0.0242  0.7364
    7SOL    HW1   20   2.473   0.845   1.115  1.0998  0.8858 -2.4383
    7SOL    HW2   21   2.540   0.846   0.955  0.7277 -2.3937 -0.2485
    8SOL     OW   22   0.468   0.730   1.486  0.3156 -0.2266 -0.6587
    8SOL    HW1   23   0.565   0.723   1.517  0.1938  1.2109 -1.9778
    8SOL    HW2   24   0.458   0.737   1.381  1.2932  1.1210 -0.6542
    9SOL     OW   25   1.131   0.857   2.323  0.1700 -0.2479 -0.1176
    9SOL    HW1   26   1.186   0.894   2.244 -0.7458 -4.1231 -3.7695
    9SOL    HW2   27   1.095   0.757   2.303  0.2032 -1.2857 -3.6240
   10SOL     OW   28   0.600   1.487   1.252  0.2227  0.2982 -0.0946
   10SOL    HW1   29   0.521   1.479   1.188 -0.3480  1.5512 -0.2536
   10SOL    HW2   30   0.613   1.584   1.287 -0.9304 -0.7525 -0.7556
   11SOL     OW   31   2.349   2.827   0.937 -0.3542 -0.0898 -0.0423
   11SOL    HW1   32   2.288   2.834   1.025 -0.0949 -0.8013 -1.7893
   11SOL    HW2   33   2.451   2.833   0.959  1.5817  1.3463 -1.7260
   12SOL     OW   34   1.430   0.833   0.518 -0.3107 -0.3989  0.6511
   12SOL    HW1   35   1.332   0.802   0.520 -1.3501  2.2732  0.8567
   12SOL    HW2   36   1.491   0.799   0.440  0.8493  3.2399 -3.2629
   13SOL     OW   37   2.443   0.705   1.843  0.1039 -0.4281 -0.0808
   13SOL    HW1   38   2.380   0.654   1.908  0.5111 -0.7940  1.1223
   13SOL    HW2   39   2.447   0.661   1.753  0.8111 -3.5653 -0.6505
   14SOL     OW   40   1.926   3.032   0.648  0.4607 -0.1272  0.5766
   14SOL    HW1   41   1.831   3.062   0.647 -0.8627 -2.2481  2.1209
   14SOL    HW2   42   1.951   2.987   0.738  1.2466 -1.3246 -1.5450
   15SOL     OW   43   1.870   2.102   2.637 -0.5103 -0.5575 -0.1935
   15SOL    HW1   44   1.786   2.100   2.694 -2.8333  0.7674  0.0570
   15SOL    HW2   45   1.891   2.012   2.599 -1.5716 -0.3520  0.6655
   16SOL     OW   46   1.549   1.745   2.994 -0.4351 -0.3804  0.0878
   16SOL    HW1   47   1.557   1.691   3.081 -1.5485 -2.3130 -1.4510
   16SOL    HW2   48   1.639   1.802   2.985  0.3939  1.1189 -0.1499
   17SOL     OW   49   0.060   0.463   0.204  0.0407  0.0711 -0.6385
   17SOL    HW1   50   0.150   0.498   0.166  1.5691 -0.3820 -1.1248
   17SOL    HW2   51  -0.020   0.496   0.140 -2.8325 -0.4557 -1.3363
   18SOL     OW   52   0.859   2.833   2.237  0.5915 -0.1493 -0.1128
   18SOL    HW1   53   0.814   2.751   2.284  0.4403  0.6966 -0.1569
   18SOL    HW2   54   0.887   2.815   2.141 -1.6629 -1.1454  1.2987
   19SOL     OW   55   0.505   0.922   1.925  0.5667  0.2442 -0.2513
   19SOL    HW1   56   0.553   0.856   1.990  1.1866  0.1907  1.4530
   19SOL    HW2   57   0.574   0.991   1.888  1.9661  2.5353 -0.6993
   20SOL     OW   58   0.216   2.781   0.762 -0.3108 -0.3766  0.4569
   20SOL    HW1   59   0.119   2.818   0.745  3.0775 -2.6581  2.0051
   20SOL    HW2   60   0.243   2.703   0.697  3.5325 -1.5571 -0.1293
   21SOL     OW   61   2.833   0.287   1.977 -0.0422  0.5859 -0.3664
   21SOL    HW1   62   2.754   0.220   1.955 -2.6529 -0.9436  0.6445
   21SOL    HW2   63   2.905   0.244   2.040  1.3236  0.2580 -1.3482
   22SOL     OW   64   2.424   0.203   0.065 -0.1028 -0.1115 -0.5489
   22SOL    HW1   65   2.421   0.103   0.034 -0.2970 -0.4906 -0.1195
   22SOL    HW2   66   2.339   0.260   0.023 -0.0557  2.5620 -0.5016
   23SOL     OW   67   2.812   0.509   0.667 -0.5535  0.2264  0.3825
   23SOL    HW1   68   2.866   0.419   0.650  3.2157 -0.9046 -1.2857
   23SOL    HW2   69   2.841   0.589   0.602 -2.1456  3.5604 -0.1239
   24SOL     OW   70   0.273   1.909   0.441  0.1425 -0.6476 -0.7282
   24SOL    HW1   71   0.280   1.991   0.379  0.8605  2.3998  0.0537
   24SOL    HW2   72   0.352   1.843   0.422 -0.0294  1.4251  0.0818
   25SOL     OW   73   2.296   0.581   0.254 -0.2699 -0.0194  0.1362
   25SOL    HW1   74   2.290   0.560   0.152  2.6826 -0.6321  0.0153
   25SOL    HW2   75   2.345   0.506   0.307  1.8790 -1.3979  0.5934
   26SOL     OW   76   2.463   2.151   2.143 -0.5193 -0.3575  0.1450
   26SOL    HW1   77   2.535   2.226   2.153  1.0064  1.8656 -1.2612
   26SOL    HW2   78   2.480   2.099   2.053 -4.3591 -1.4319 -1.1018
   27SOL     OW   79   0.641   3.015   0.177 -0.2603  0.4487  0.0708
   27SOL    HW1   80   0.732   3.052   0.145  0.3057  2.5950 -2.2576
   27SOL    HW2   81   0.576   3.050   0.109  2.6366  0.0615  0.5417
   28SOL     OW   82   1.566   0.176   0.335  0.6711 -0.0063  0.4397
   28SOL    HW1   83   1.605   0.133   0.248  0.9300 -0.9813 -0.4623
   28SOL    HW2   84   1.630   0.234   0.391 -3.2451 -1.2977  0.6381
   29SOL     OW   85   2.007   0.549   0.309 -0.2685 -0.1027  0.1646
   29SOL    HW1   86   1.981   0.626   0.376 -0.1819  0.8799 -0.8181
   29SOL    HW2   87   2.112   0.564   0.291 -1.3489 -0.4526 -0.3372
   30SOL     OW   88   0.189   2.111   0.893 -0.2483 -0.7898  0.2833
   30SOL    HW1   89   0.159   2.037   0.824  1.4097  0.3222 -3.3069
   30SOL    HW2   90   0.121   2.188   0.897 -1.8111  0.3754 -0.1865
   31SOL     OW   91   2.096   0.102   2.369 -0.3220 -0.4840 -0.2608
   31SOL    HW1   92   2.047   0.069   2.453  1.5448  0.9867 -0.2026
   31SOL    HW2   93   2.036   0.092   2.288 -1.6952  2.5330  0.9272
   32SOL     OW   94   3.079   3.057   0.227 -0.4557  0.4103  0.0976
   32SOL    HW1   95   3.056   2.965   0.265  2.0608 -1.2117  0.7026
   32SOL    HW2   96   3.180   3.071   0.200  2.2676  2.1162 -0.0508
   33SOL     OW   97   0.875   0.267   0.659  0.0336 -0.6769  0.2307
   33SOL    HW1   98   0.876   0.189   0.592  0.9182 -0.5183 -2.0502
   33SOL    HW2   99   0.966   0.321   0.652  2.4506  0.0691  2.4698
   34SOL     OW  100   0.345   2.654   1.002  0.2981 -0.0311 -0.6376
   34SOL    HW1  101   0.300   2.675   0.914  2.2185  0.0905  0.5335
   34SOL    HW2  102   0.407   2.729   1.036 -1.5619  1.4961 -0.5290
   35SOL     OW  103   0.107   0.206   1.908  0.0701 -0.4632  0.5915
   35SOL    HW1  104   0.108   0.107   1.938  3.8646 -0.4747  0.3233
   35SOL    HW2  105   0.054   0.220   1.818 -2.4240  2.6292  4.2088
   36SOL     OW  106   1.853   1.230   1.472 -0.5813  0.2502  0.4727
   36SOL    HW1  107   1.944   1.205   1.514 -1.9183 -1.9202 -0.6757
   36SOL    HW2  108   1.855   1.322   1.418  0.5717  2.9756  0.9299
   37SOL     OW  109   1.166   0.246   0.994 -0.2425 -0.0411 -0.2091
   37SOL    HW1  110   1.180   0.351   0.992  1.0491  0.1013 -1.8137
   37SOL    HW2  111   1.241   0.194   0.948  0.4888  0.6153 -1.2052
   38SOL     OW  112   1.117   2.812   2.463  0.3165 -0.4095  0.1629
   38SOL    HW1  113   1.034   2.772   2.511  0.4045  0.8090  2.1649
   38SOL    HW2  114   1.097   2.900   2.409  1.6292  3.0124  4.0770
   39SOL     OW  115   2.471   1.413   3.017  0.4525 -0.2339  0.6145
   39SOL    HW1  116   2.540   1.343   3.049 -0.2773 -1.0789 -0.3424
   39SOL    HW2  117   2.382   1.415   3.071 -0.7393 -0.2982  2.1922
   40SOL     OW  118   2.040   2.500   2.560 -0.2309  0.1244  0.3622
   40SOL    HW1  119   1.983   2.590   2.554  0.1895  1.2783  2.9009
   40SOL    HW2  120   1.990   2.420   2.528  3.5956 -0.2207 -0.0627
   41SOL     OW  121   3.023   0.702   2.804  0.0454  0.0087  0.1045
   41SOL    HW1  122   3.011   0.792   2.855  1.2382  0.0548  0.1704
   41SOL    HW2  123   2.932   0.651   2.782  1.3647  0.0840  0.8713
   42SOL     OW  124   1.750   1.742   0.468  0.9548 -0.6598 -0.4910
   42SOL    HW1  125   1.709   1.648   0.473  0.0086  0.0375 -0.0312
   42SOL    HW2  126   1.750   1.777   0.370 -1.4089 -0.5592 -0.9966
   43SOL     OW  127   0.427   1.782   1.129 -0.1772  0.6541  0.1980
   43SOL    HW1  128   0.378   1.726   1.056  0.8330  3.7375 -0.7912
   43SOL    HW2  129   0.388   1.790   1.224 -3.2557  2.1648  0.0197
   44SOL     OW  130   1.709   2.379   2.962  0.1379  0.5339  0.2460
   44SOL    HW1  131   1.627   2.420   3.007  0.1674  2.3027  0.4418
   44SOL    HW2  132   1.729   2.426   2.872  0.4166 -0.4942  1.0829
   45SOL     OW  133   0.357   1.935   2.610 -0.1896 -0.0284  0.0748
   45SOL    HW1  134   0.293   1.914   2.530 -1.0580 -2.1517  1.5996
   45SOL    HW2  135   0.424   1.857   2.644  0.9692  0.3732 -1.0237
   46SOL     OW  136   1.305   0.728   0.238  0.0057  0.5111 -0.5772
   46SOL    HW1  137   1.275   0.827   0.215 -1.9449  2.0889 -0.5211
   46SOL    HW2  138   1.242   0.653   0.199 -2.3066 -2.0563 -1.9349
   47SOL     OW  139   0.163   2.340   1.610  0.4190 -0.0517  0.0915
   47SOL    HW1  140   0.078   2.315   1.658  0.3755 -0.3002 -0.9815
   47SOL    HW2  141   0.141   2.362   1.510 -1.0700  0.7616  1.9234
   48SOL     OW  142   2.655   0.689   0.162  0.5363 -0.4551  1.1688
   48SOL    HW1  143   2.660   0.651   0.259 -1.9199 -1.9345  0.7982
   48SOL    HW2  144   2.747   0.718   0.124 -0.0462 -1.5399  1.7485
   49SOL     OW  145   0.334   0.849   1.730 -0.0095  0.1242 -0.2294
   49SOL    HW1  146   0.399   0.896   1.800  2.7418 -0.4872 -1.2169
   49SOL    HW2  147   0.382   0.791   1.659 -3.2485 -1.9999  0.0557
   50SOL     OW  148   1.680   1.089   0.337  0.0507 -0.7446  0.5689
   50SOL    HW1  149   1.713   1.002   0.284  1.2329  1.1155 -0.3652
   50SOL    HW2  150   1.620   1.069   0.420 -1.3606  0.6355 -1.2940
   51SOL     OW  151   2.929   1.714   0.322 -0.5257 -0.4736  0.5667
   51SOL    HW1  152   2.933   1.675   0.224 -0.0636  2.2482 -0.1214
   51SOL    HW2  153   3.020   1.713   0.370  2.2328  1.6119  0.6151
   52SOL     OW  154   0.802   2.181   0.558 -0.1219  0.0057 -0.2820
   52SOL    HW1  155   0.709   2.187   0.510  0.7750 -0.1231  0.6380
   52SOL    HW2  156   0.792   2.139   0.652  0.5680 -0.1298 -0.4606
   53SOL     OW  157   0.301   0.487   1.491  0.0863  0.7058  0.4806
   53SOL    HW1  158   0.377   0.559   1.487  1.8597  0.2433  2.4688
   53SOL    HW2  159   0.218   0.514   1.431 -0.3368  0.0918 -1.2250
   54SOL     OW  160   1.789   0.441  -0.000  0.2493 -0.1189 -0.5105
   54SOL    HW1  161   1.857   0.394   0.064 -0.5134 -0.6543 -0.4944
   54SOL    HW2  162   1.690   0.417   0.027 -0.0336  0.7840  0.9957
   55SOL     OW  163   0.779   2.900   0.626 -0.8400 -0.0900 -0.2730
   55SOL    HW1  164   0.732   2.988   0.610  0.6697 -0.3961 -3.5453
   55SOL    HW2  165   0.878   2.911   0.600 -0.6252 -2.1154  1.4744
   56SOL     OW  166   0.514   1.610   3.060  0.1771  0.4152  0.3245
   56SOL    HW1  167   0.438   1.621   3.128 -0.3743 -1.0092  0.2224
   56SOL    HW2  168   0.513   1.512   3.023 -5.3005  1.8670  0.8560
   57SOL     OW  169   1.682   2.476   2.382  0.0486 -0.3180  0.3794
   57SOL    HW1  170   1.763   2.413   2.402  0.5843  0.4272 -1.0454
   57SOL    HW2  171   1.599   2.463   2.444 -0.5338 -0.5744  0.0876
   58SOL     OW  172   0.652   0.172   1.075  0.1622 -0.3211  0.1776
   58SOL    HW1  173   0.567   0.185   1.132  3.0472 -2.8596  1.2525
   58SOL    HW2  174   0.691   0.073   1.072 -0.3971 -0.4419 -0.5841
   59SOL     OW  175   0.457   2.367   2.581 -0.0459  0.2835 -0.3115
   59SOL    HW1  176   0.486   2.274   2.611 -2.4507 -0.6512  0.4190
   59SOL    HW2  177   0.532   2.439   2.600  0.8679 -0.1889  0.0790
   60SOL     OW  178   2.327   2.061   2.367  0.3009 -0.4929  0.2597
   60SOL    HW1  179   2.367   2.109   2.279 -0.7361  1.3448 -0.6612
   60SOL    HW2  180   2.338   2.121   2.452  1.4135  1.5047  1.0300
   61SOL     OW  181   1.200   0.640   0.488 -0.2433 -0.0488  0.4752
   61SOL    HW1  182   1.099   0.658   0.471 -0.2689  1.6046 -0.4552
   61SOL    HW2  183   1.258   0.657   0.402 -0.0500 -0.3249  2.0034
   62SOL     OW  184   2.780   1.709   2.686 -1.1139  0.3846 -0.2014
   62SOL    HW1  185   2.721   1.627   2.660  2.8427 -0.6661 -0.7868
   62SOL    HW2  186   2.860   1.682   2.747  2.5678  0.8244 -1.0736
   63SOL     OW  187   0.527   0.814   0.198 -0.4815 -0.5112 -0.4505
   63SOL    HW1  188   0.601   0.878   0.165  0.3150 -1.7532 -2.3555
   63SOL    HW2  189   0.512   0.809   0.297  0.5132  0.6846 -1.4958
   64SOL     OW  190   3.061   0.565   2.380  0.7175 -0.0432 -0.0057
   64SOL    HW1  191   2.997   0.588   2.463  0.3250 -0.2213  2.5299
   64SOL    HW2  192   3.041   0.622   2.295 -0.1242  0.4218 -1.1854
   65SOL     OW  193   0.140   1.439   0.644 -0.5312 -0.3252  0.3478
   65SOL    HW1  194   0.131   1.503   0.722 -2.2616 -0.9085 -0.6972
   65SOL    HW2  195   0.163   1.487   0.557 -1.7414 -2.5762  0.8094
   66SOL     OW  196   2.603   0.314   0.519  0.0251  0.2147 -0.4144
   66SOL    HW1  197   2.693   0.271   0.508  0.4563 -0.9443  1.2678
   66SOL    HW2  198   2.538   0.246   0.563 -3.5319 -1.0613  2.0812
   67SOL     OW  199   0.570   2.490   1.533  0.0112 -0.3323  0.0988
   67SOL    HW1  200   0.661   2.454   1.564  2.1855 -1.2737 -0.8791
   67SOL    HW2  201   0.507   2.417   1.490  0.6274  2.3324 -1.1350
   68SOL     OW  202   0.903   1.001   2.527  0.0695 -0.2671 -0.0357
   68SOL    HW1  203   0.950   0.912   2.493 -1.9234 -2.0979  0.8882
   68SOL    HW2  204   0.896   1.075   2.455  2.6257 -0.6939 -1.7882
   69SOL     OW  205   0.702   2.602   2.301 -0.9224 -0.3708 -0.2835
   69SOL    HW1  206   0.771   2.531   2.269  0.6278  0.8079 -0.0273
   69SOL    HW2  207   0.598   2.574   2.293 -0.3923 -0.9998  0.9626
   70SOL     OW  208   0.544   0.156   2.576  0.0606 -0.4972  0.0724
   70SOL    HW1  209   0.449   0.119   2.589 -1.3991  0.5660  0.7909
   70SOL    HW2  210   0.616   0.082   2.581  0.4724  1.7376  2.5669
   71SOL     OW  211   1.079   1.790   0.326  0.4413  0.7510 -0.0736
   71SOL    HW1  212   1.001   1.811   0.392  0.7407  0.9425  0.3470
   71SOL    HW2  213   1.059   1.800   0.226  0.2867  0.8272 -0.1173
   72SOL     OW  214   1.837   0.210   2.140 -0.5353  0.2208 -0.2829
   72SOL    HW1  215   1.888   0.287   2.093 -0.0529 -3.4195  1.6734
   72SOL    HW2  216   1.868   0.120   2.103 -0.5010  0.4934 -1.1137
   73SOL     OW  217   2.775   2.199   2.438  0.7528 -0.3255 -0.3520
   73SOL    HW1  218   2.780   2.101   2.403 -0.0454 -0.7314  1.6930
   73SOL    HW2  219   2.795   2.212   2.540 -1.6031  1.2944  1.6707
   74SOL     OW  220   2.693   3.001   2.127  0.1208  0.4955 -0.5774
   74SOL    HW1  221   2.629   2.930   2.168 -0.6505 -2.0091 -0.0618
   74SOL    HW2  222   2.784   3.010   2.173  1.4016  1.4883  0.3374
   75SOL     OW  223   0.929   0.810   1.136 -0.4655 -0.1972 -1.1449
   75SOL    HW1  224   0.835   0.850   1.111  0.9681  0.5857  2.3190
   75SOL    HW2  225   0.965   0.867   1.220  0.9073  0.8029  0.4824
   76SOL     OW  226   1.829   1.268   2.590 -0.7327  0.1809 -0.3382
   76SOL    HW1  227   1.732   1.235   2.579  2.5236 -0.8670  0.6598
   76SOL    HW2  228   1.841   1.367   2.613 -1.4755 -2.5707 -1.6718
   77SOL     OW  229   2.933   0.913   1.023 -0.6515  0.3627 -0.0833
   77SOL    HW1  230   2.890   0.816   1.026  0.2147 -1.1188 -0.8763
   77SOL    HW2  231   3.026   0.919   1.072 -2.1712  0.6330  0.4591
   78SOL     OW  232   1.941   1.466   1.282  0.1504 -0.0263 -0.0838
   78SOL    HW1  233   2.031   1.453   1.236 -0.7618  1.3020 -1.2331
   78SOL    HW2  234   1.863   1.481   1.210 -0.2563  0.7044 -0.4817
   79SOL     OW  235   0.641   1.502   0.838 -0.1978  0.1821 -0.3710
   79SOL    HW1  236   0.543   1.481   0.827  1.9048  0.5744  1.4175
   79SOL    HW2  237   0.703   1.417   0.826 -1.6627  0.7268  0.7128
   80SOL     OW  238   0.708   0.461   1.570  0.3422  0.2532  0.0744
   80SOL    HW1  239   0.680   0.505   1.483  0.3686 -3.0663 -0.7146
   80SOL    HW2  240   0.662   0.368   1.575 -1.5691 -1.9154 -1.1007
   81SOL     OW  241   1.057   1.295   2.444  0.0109  0.0801 -0.6679
   81SOL    HW1  242   0.972   1.351   2.443 -0.1922 -0.3120  0.5508
   81SOL    HW2  243   1.056   1.224   2.374 -0.8393  0.2948 -0.7160
   82SOL     OW  244   0.952   2.943   1.661  0.3042  0.2273  0.5453
   82SOL    HW1  245   0.994   2.847   1.634 -1.2094 -1.5833  2.8614
   82SOL    HW2  246   0.920   2.999   1.582 -2.5308 -0.1350 -0.1541
   83SOL     OW  247   2.635   2.364   0.911 -0.2406 -0.2258  0.7963
   83SOL    HW1  248   2.536   2.343   0.883  1.5103  0.3776 -0.4737
   83SOL    HW2  249   2.658   2.459   0.873  2.3519 -0.1686 -1.8940
   84SOL     OW  250   0.783   3.082   2.336  0.3753  0.8422 -0.2096
   84SOL    HW1  251   0.782   3.057   2.441  0.9772 -1.1102  0.9099
   84SOL    HW2  252   0.795   2.994   2.281  2.4532  2.6233 -0.7429
   85SOL     OW  253   0.258   1.696   1.364  0.1112 -0.2439  0.5995
   85SOL    HW1  254   0.214   1.771   1.421 -0.0075 -0.2915  1.0908
   85SOL    HW2  255   0.328   1.643   1.412 -1.1233 -1.6537 -0.9867
   86SOL     OW  256   0.475   1.066   1.400  0.6266  0.0812  0.1112
   86SOL    HW1  257   0.435   1.078   1.305 -0.5558 -0.9764 -2.2490
   86SOL    HW2  258   0.503   0.970   1.427 -2.4806 -0.9112 -0.9008
   87SOL     OW  259   1.603   0.674   0.355 -0.8503  0.5316 -0.0965
   87SOL    HW1  260   1.691   0.723   0.338 -0.0169 -0.8856  1.9731
   87SOL    HW2  261   1.562   0.640   0.267  2.8445 -0.9894 -3.3712
   88SOL     OW  262   1.535   1.352   0.294 -0.4528  0.2791  0.0629
   88SOL    HW1  263   1.587   1.274   0.255  0.7972 -4.4276 -0.9465
   88SOL    HW2  264   1.436   1.331   0.309  0.3970  0.6525  0.6883
   89SOL     OW  265   3.063   0.359   0.639  0.3292  0.4113 -0.7976
   89SOL    HW1  266   3.150   0.315   0.677 -1.4825 -1.3735  0.7599
   89SOL    HW2  267   3.002   0.297   0.587  0.9414  0.3979  1.5134
   90SOL     OW  268   0.753   1.577   0.144 -0.0877  0.1756  0.7597
   90SOL    HW1  269   0.857   1.579   0.157  1.1295 -1.5423  0.3330
   90SOL    HW2  270   0.728   1.542   0.051 -1.0621  1.8976  0.6970
   91SOL     OW  271   1.269   1.527   1.671  0.3571 -0.3273  0.4249
   91SOL    HW1  272   1.258   1.558   1.771 -0.4712  2.2076 -1.1456
   91SOL    HW2  273   1.371   1.504   1.649 -0.6407 -1.3312  0.9259
   92SOL     OW  274   0.081   0.966   1.145  0.1657 -0.2114  0.1883
   92SOL    HW1  275   0.098   1.061   1.107  1.9552 -2.4181  2.2890
   92SOL    HW2  276   0.079   0.965   1.250  0.8035 -0.6546 -3.1669
   93SOL     OW  277   3.024   2.679   0.063  0.1007  0.3143  0.0950
   93SOL    HW1  278   3.019   2.681  -0.043  0.5656 -0.6422 -1.1605
   93SOL    HW2  279   3.089   2.600   0.098 -1.9629 -1.6099 -0.8966
   94SOL     OW  280   1.552   1.437   1.617 -0.2099  0.6623 -0.2930
   94SOL    HW1  281   1.587   1.357   1.675  0.8484  1.9055 -0.9614
   94SOL    HW2  282   1.629   1.482   1.560  0.7348  0.2100 -1.7265
   95SOL     OW  283   1.425   2.470   2.924  0.7327 -0.1316 -0.3815
   95SOL    HW1  284   1.328   2.483   2.950  1.5932  2.5883 -0.3384
   95SOL    HW2  285   1.446   2.383   2.868 -1.1116 -0.1456  0.7672
   96SOL     OW  286   0.595   2.144   1.271 -0.1721 -0.4143  0.0578
   96SOL    HW1  287   0.563   2.108   1.179  0.2213  0.6344  0.2136
   96SOL    HW2  288   0.615   2.070   1.343 -1.2155 -2.3736 -0.0160
   97SOL     OW  289   0.289   1.614   2.411  0.3789  0.0653  0.2869
   97SOL    HW1  290   0.280   1.717   2.394  2.3890 -2.6999 -2.8590
   97SOL    HW2  291   0.276   1.585   2.513 -1.1796  2.6919  0.9598
   98SOL     OW  292   2.273   1.684   1.205  0.1906  0.3247 -0.6662
   98SOL    HW1  293   2.236   1.587   1.199 -0.7465 -1.2174 -1.2171
   98SOL    HW2  294   2.359   1.686   1.150 -0.8891  0.7665  0.4356
   99SOL     OW  295   2.606   2.095   1.277 -0.7267  0.4129  0.6743
   99SOL    HW1  296   2.644   2.161   1.348  1.0871  1.1045 -2.2225
   99SOL    HW2  297   2.541   2.017   1.318  0.4071  0.5209  0.9237
  100SOL     OW  298   2.331   0.384   2.121 -0.2339  0.0062  0.0297
  100SOL    HW1  299   2.299   0.362   2.216 -1.6605 -1.2835  0.8641
  100SOL    HW2  300   2.432   0.417   2.121  1.4279  0.5494  2.4688
  101SOL     OW  301   0.348   1.485   0.421  0.6120 -0.6467  0.7096
  101SOL    HW1  302   0.350   1.556   0.491  0.1461 -0.0290  0.5874
  101SOL    HW2  303   0.418   1.416   0.439  2.1435  1.2835  3.8158
  102SOL     OW  304   2.301   1.053   0.885  0.2412  0.3402 -0.5181
  102SOL    HW1  305   2.267   0.954   0.866  2.3293  1.8916  0.3505
  102SOL    HW2  306   2.362   1.080   0.810  1.3491 -0.2807 -1.0670
  103SOL     OW  307   2.251   0.055   0.337  0.0261  0.5022 -0.5127
  103SOL    HW1  308   2.283   0.155   0.346  0.8574 -2.9105  0.9451
  103SOL    HW2  309   2.328  -0.017   0.361  0.3307 -3.3864 -0.7244
  104SOL     OW  310   0.043   1.823   2.185  0.1447  0.2219 -0.0676
  104SOL    HW1  311   0.078   1.827   2.091  1.3047 -1.8606  0.7842
  104SOL    HW2  312  -0.060   1.848   2.179  0.2066  1.1506 -0.7102
  105SOL     OW  313   1.259   2.097   0.796 -0.6363  0.4000 -0.1880
  105SOL    HW1  314   1.156   2.072   0.810 -1.0732  1.2612  4.2327
  105SOL    HW2  315   1.310   2.010   0.767 -2.9947 -2.2574  2.3132
  106SOL     OW  316   2.135   0.400   1.461  0.0501  0.3384  0.7949
  106SOL    HW1  317   2.038   0.365   1.458  1.6522 -1.7599 -0.5891
  106SOL    HW2  318   2.162   0.443   1.552 -0.9874 -2.2354 -0.5239
  107SOL     OW  319   1.932   2.928   1.192 -0.1118  0.3747  0.4021
  107SOL    HW1  320   1.876   3.001   1.237  0.6487  2.2024  1.8778
  107SOL    HW2  321   1.873   2.850   1.165  2.5312  0.6419  0.6463
  108SOL     OW  322   0.903   2.784   1.081 -0.0261  0.3084  0.1624
  108SOL    HW1  323   0.933   2.701   1.026 -1.0278 -0.5372 -0.0541
  108SOL    HW2  324   0.981   2.813   1.140 -1.2504 -3.7198  0.3101
  109SOL     OW  325   2.195   0.104   0.749 -0.1570 -0.5720  0.3491
  109SOL    HW1  326   2.116   0.059   0.699 -2.1564  0.8082 -0.3555
  109SOL    HW2  327   2.164   0.148   0.837  0.3377  0.8598 -1.2046
  110SOL     OW  328   0.501   2.821   2.804 -0.1664 -0.2329  0.8798
  110SOL    HW1  329   0.522   2.823   2.704 -0.2586 -0.8151  0.5652
  110SOL    HW2  330   0.553   2.744   2.849  0.9912 -0.3481  2.1653
  111SOL     OW  331   1.320   0.623   2.364  0.3566 -0.3486 -0.2291
  111SOL    HW1  332   1.235   0.629   2.420 -0.4802 -1.3783  0.0772
  111SOL    HW2  333   1.384   0.549   2.403  1.0276 -0.2794 -1.7342
  112SOL     OW  334   1.752   0.543   1.512 -0.2073  0.5045 -0.0205
  112SOL    HW1  335   1.751   0.599   1.422  1.6612  4.6104 -2.3384
  112SOL    HW2  336   1.660   0.541   1.568 -0.1537 -0.6780 -2.4784
  113SOL     OW  337   2.280   1.700   1.769  0.3116  0.2927  0.1951
  113SOL    HW1  338   2.316   1.609   1.747 -0.6273  0.0392 -1.2377
  113SOL    HW2  339   2.299   1.726   1.869  0.6429  0.2671 -0.9777
  114SOL     OW  340   0.321   0.444   1.181  0.7252  0.0317 -0.1337
  114SOL    HW1  341   0.228   0.488   1.160 -0.5537  3.0553  1.7671
  114SOL    HW2  342   0.392   0.477   1.112 -0.7267 -2.2269  1.9951
  115SOL     OW  343   2.713   1.583   1.268  0.4920  0.1960 -0.4081
  115SOL    HW1  344   2.700   1.481   1.257 -1.2318 -0.8993 -1.9298
  115SOL    HW2  345   2.817   1.611   1.260  2.9168  0.4755 -0.1728
  116SOL     OW  346   1.879   0.932   0.668  0.2661 -0.1046  0.4346
  116SOL    HW1  347   1.789   0.877   0.678 -3.3712  0.6266  2.6959
  116SOL    HW2  348   1.870   1.036   0.691 -2.3756  1.4515 -2.7202
  117SOL     OW  349   1.105   0.381   0.541  0.1851  0.1681  0.6202
  117SOL    HW1  350   1.135   0.477   0.534 -1.1347  0.0758 -1.1649
  117SOL    HW2  351   1.087   0.342   0.447  1.1290  4.1797 -1.6329
  118SOL     OW  352   1.134   1.226   1.126 -0.4320  0.0458  0.2481
  118SOL    HW1  353   1.116   1.178   1.213 -1.0731 -2.3932 -0.3436
  118SOL    HW2  354   1.177   1.322   1.143  1.4411  1.2285  2.3700
  119SOL     OW  355   1.914   1.614   2.233  0.2888  0.3605 -0.2081
  119SOL    HW1  356   1.852   1.694   2.213  1.7344  0.1719  3.2956
  119SOL    HW2  357   1.993   1.612   2.162 -0.7799  2.1995 -3.8158
  120SOL     OW  358   2.965   2.820   0.286 -0.3207  0.2348 -0.4118
  120SOL    HW1  359   2.957   2.778   0.194 -2.9051  1.1713 -1.1184
  120SOL    HW2  360   2.877   2.812   0.340 -2.8874 -1.7552  2.2094
  121SOL     OW  361   1.990   0.795   2.335 -0.6570  0.2604  0.1539
  121SOL    HW1  362   2.042   0.865   2.272  1.2873  0.5562  1.6371
  121SOL    HW2  363   2.008   0.695   2.308 -0.4851  1.8362 -2.6215
  122SOL     OW  364   2.571   2.469   1.400 -0.4184  0.0534  0.0966
  122SOL    HW1  365   2.628   2.445   1.319  1.4581  0.4487 -0.6341
  122SOL    HW2  366   2.596   2.416   1.486  0.3809 -0.5634 -1.0040
  123SOL     OW  367   1.657   0.189   1.653  0.2752 -0.1850  0.3277
  123SOL    HW1  368   1.674   0.097   1.607 -0.6867 -0.3311 -1.3017
  123SOL    HW2  369   1.741   0.225   1.698  0.8688 -1.9576 -0.4672
  124SOL     OW  370   3.023   0.422   1.166 -0.3462  0.4485  0.1653
  124SOL    HW1  371   2.928   0.425   1.201  2.1662  2.4369 -0.6620
  124SOL    HW2  372   3.019   0.458   1.071 -1.8760  1.9928 -0.3918
  125SOL     OW  373   0.921   1.938   0.736 -0.3806  0.3086  0.5256
  125SOL    HW1  374   1.010   1.897   0.776  1.7918  1.1728 -1.0709
  125SOL    HW2  375   0.853   1.963   0.810  2.1748 -0.0786 -0.5996
  126SOL     OW  376   1.906   2.278   2.442 -0.4633  0.2920  0.7059
  126SOL    HW1  377   1.975   2.229   2.381  0.4315 -0.8565 -0.8610
  126SOL    HW2  378   1.877   2.221   2.521 -1.6144  2.3251 -0.4578
  127SOL     OW  379   0.969   0.952   0.185  0.4861  0.4233  0.0257
  127SOL    HW1  380   0.949   1.006   0.274  0.1147  0.8804  0.0217
  127SOL    HW2  381   0.959   0.849   0.195  2.3160 -0.3218 -0.3304
  128SOL     OW  382   0.891   0.189   1.397 -0.0464  0.2124 -0.1720
  128SOL    HW1  383   0.864   0.265   1.326  0.6285  0.5053  0.0757
  128SOL    HW2  384   0.831   0.099   1.394 -0.2687 -1.1521  1.7778
  129SOL     OW  385   1.902   0.682   1.889  0.1134 -0.3519  0.5107
  129SOL    HW1  386   1.922   0.663   1.789 -1.2727  1.3870  3.2183
  129SOL    HW2  387   1.941   0.775   1.921  0.7002  1.1086  1.7633
  130SOL     OW  388   1.391   2.201   1.002 -0.0198  0.3960 -0.3246
  130SOL    HW1  389   1.334   2.169   0.921 -0.0358 -0.9917 -1.3447
  130SOL    HW2  390   1.453   2.279   0.979  0.3733 -0.8842  1.3233
  131SOL     OW  391   3.029   1.386   1.399 -0.6704 -0.7852 -0.4378
  131SOL    HW1  392   2.981   1.294   1.379  0.2814  2.8139  1.4233
  131SOL    HW2  393   3.135   1.373   1.398  1.2719  1.1447  0.9329
  132SOL     OW  394   2.034   2.434   0.544 -0.4870 -0.5182  0.3570
  132SOL    HW1  395   1.934   2.452   0.574  1.5452  2.0183  0.7707
  132SOL    HW2  396   2.071   2.350   0.582  1.5191  1.9087 -0.3730
  133SOL     OW  397   1.746   2.466   2.711 -0.2827 -0.6583 -0.3094
  133SOL    HW1  398   1.656   2.470   2.659  1.8129  1.1355  1.4094
  133SOL    HW2  399   1.788   2.559   2.730 -0.5795 -0.2557  0.4882
  134SOL     OW  400   2.584   2.415   1.669  0.4832  0.2701  0.3157
  134SOL    HW1  401   2.519   2.392   1.744 -2.2217  0.7141 -1.4745
  134SOL    HW2  402   2.636   2.503   1.679  0.0400  1.0082  0.7007
  135SOL     OW  403   0.783   1.331   2.668 -0.0367  0.5418  0.8480
  135SOL    HW1  404   0.727   1.250   2.695 -0.1012 -1.2636 -1.9217
  135SOL    HW2  405   0.779   1.343   2.562  2.3746  0.8939 -3.4581
  136SOL     OW  406   1.208   2.019   0.414 -0.2505  0.4383 -0.2318
  136SOL    HW1  407   1.147   2.098   0.440 -0.4101 -2.2694 -1.3659
  136SOL    HW2  408   1.154   1.937   0.388  1.8684  0.2688 -1.0469
  137SOL     OW  409   0.457   1.169   2.255  0.3401  0.5356 -0.1399
  137SOL    HW1  410   0.359   1.131   2.250 -0.6035  1.3513  2.0469
  137SOL    HW2  411   0.530   1.091   2.264 -0.2860 -0.9417 -2.0395
  138SOL     OW  412   2.421   1.516   0.306 -0.4745  0.3133  0.3803
  138SOL    HW1  413   2.350   1.472   0.248  2.5057  1.9054 -1.0565
  138SOL    HW2  414   2.492   1.451   0.333  2.1284  2.6679  0.8723
  139SOL     OW  415   1.912   2.638   1.549 -0.6314  0.5112 -0.4547
  139SOL    HW1  416   1.812   2.658   1.536  1.5762  1.6134  0.6037
  139SOL    HW2  417   1.958   2.595   1.463  0.6405  0.5840 -0.8240
  140SOL     OW  418   3.045   3.014   2.646  0.3395 -0.3447  0.0271
  140SOL    HW1  419   3.052   2.921   2.617  1.2585  2.0536  2.6861
  140SOL    HW2  420   3.103   3.078   2.592  0.0968 -0.9314  1.8786
  141SOL     OW  421   1.262   1.620   1.408 -0.3499 -0.1308 -0.7630
  141SOL    HW1  422   1.177   1.653   1.370  0.0221 -1.3832 -0.9217
  141SOL    HW2  423   1.252   1.573   1.501 -1.3718 -0.9263 -1.7498
  142SOL     OW  424   1.593   0.657   2.240  0.2619  0.1567  0.2209
  142SOL    HW1  425   1.600   0.633   2.138 -0.7179  0.3851  0.4759
  142SOL    HW2  426   1.496   0.636   2.278 -1.1190  0.9720  0.9406
  143SOL     OW  427   2.819   0.781   0.570 -0.0924 -0.3418  0.3008
  143SOL    HW1  428   2.860   0.819   0.481 -0.5007 -0.7932  0.0238
  143SOL    HW2  429   2.852   0.837   0.650 -0.1313  2.1714 -0.1754
  144SOL     OW  430   2.936   1.102   1.406 -0.2562  0.4761 -0.1637
  144SOL    HW1  431   2.886   1.117   1.494 -1.6295 -0.7882 -1.7953
  144SOL    HW2  432   3.007   1.024   1.416 -0.6582  0.4055  2.2089
  145SOL     OW  433   0.954   1.863   0.053 -0.1183  0.8360  0.1481
  145SOL    HW1  434   0.965   1.906  -0.039 -0.7842  2.0018  3.3106
  145SOL    HW2  435   0.870   1.804   0.062 -0.7590  1.2460  0.0043
  146SOL     OW  436   2.452   0.629   1.536 -0.8606  0.4417 -0.1667
  146SOL    HW1  437   2.449   0.533   1.488  0.0367 -4.7655  1.6174
  146SOL    HW2  438   2.387   0.698   1.498  1.5679 -0.2474  1.1812
  147SOL     OW  439   1.053   2.500   0.518 -0.6645  0.0461 -0.6248
  147SOL    HW1  440   1.012   2.568   0.452  2.0806 -0.0284 -0.2598
  147SOL    HW2  441   1.152   2.472   0.496  0.9280 -0.3128  0.6715
  148SOL     OW  442   1.562   1.386   0.005 -0.4909  0.0117 -0.0322
  148SOL    HW1  443   1.579   1.284  -0.011  1.1815  1.2009  1.5606
  148SOL    HW2  444   1.526   1.400   0.100 -2.6206 -1.6517  2.0456
  149SOL     OW  445   0.713   1.475   1.974  0.8661  0.6059 -0.2517
  149SOL    HW1  446   0.634   1.441   2.029  0.5068 -0.5821  0.4749
  149SOL    HW2  447   0.716   1.449   1.871  0.0313  1.8802 -0.0760
  150SOL     OW  448   2.963   1.223   1.015  0.9190 -0.3055  0.1625
  150SOL    HW1  449   3.046   1.211   1.079 -1.1732 -2.8613 -0.7297
  150SOL    HW2  450   2.923   1.135   0.992  0.9110  1.2098  0.7226
  151SOL     OW  451   0.142   0.832   2.113  0.0533 -0.0369  0.0657
  151SOL    HW1  452   0.155   0.931   2.086  1.9187 -0.6543 -0.5791
  151SOL    HW2  453   0.208   0.777   2.053  1.6306  1.6915 -1.6163
  152SOL     OW  454   1.415   1.873   1.113 -0.1995 -0.1606 -0.1299
  152SOL    HW1  455   1.444   1.970   1.096  0.7788  0.9740 -0.3748
  152SOL    HW2  456   1.312   1.864   1.093 -1.4920 -1.5507  0.0839
  153SOL     OW  457   0.074   1.516   0.248  0.5635  0.1876 -0.3276
  153SOL    HW1  458  -0.004   1.449   0.263  0.2461  1.1721 -0.7777
  153SOL    HW2  459   0.120   1.554   0.329 -0.9353  0.3091  0.7507
  154SOL     OW  460   2.253   1.888   2.791  0.2421 -0.0045 -0.0474
  154SOL    HW1  461   2.251   1.782   2.802  0.7755  1.6363  0.2925
  154SOL    HW2  462   2.336   1.911   2.732 -1.3157 -1.2427 -0.4766
  155SOL     OW  463   2.628   1.341   0.361 -0.1931 -0.3381  0.1754
  155SOL    HW1  464   2.667   1.418   0.421 -0.3494 -1.4690 -0.7540
  155SOL    HW2  465   2.678   1.252   0.357 -0.9177 -1.4201 -0.1420
  156SOL     OW  466   2.515   0.807   0.750 -0.1181 -0.4622  0.2806
  156SOL    HW1  467   2.412   0.808   0.778 -2.4110 -0.4872  2.2751
  156SOL    HW2  468   2.534   0.858   0.657 -2.5767  1.3044 -0.7046
  157SOL     OW  469   1.218   0.015   3.028 -0.3727  0.1402 -0.1347
  157SOL    HW1  470   1.269  -0.027   2.947  1.7622 -1.0002  0.2057
  157SOL    HW2  471   1.239   0.113   3.049 -0.6081  0.9369  2.2605
  158SOL     OW  472   1.052   1.823   1.868 -0.5461 -0.1408  0.3477
  158SOL    HW1  473   1.065   1.918   1.825 -0.2132  0.5845  1.6443
  158SOL    HW2  474   0.964   1.812   1.906  2.1701 -0.0586 -2.4444
  159SOL     OW  475   0.810   0.365   1.193  0.1127 -0.0115 -0.2200
  159SOL    HW1  476   0.764   0.458   1.180 -0.0928 -0.1851  0.9331
  159SOL    HW2  477   0.773   0.296   1.125  3.0771 -2.7294 -0.0288
  160SOL     OW  478   1.374   2.453   1.452 -0.1273 -0.1041  0.1238
  160SOL    HW1  479   1.357   2.394   1.534 -1.9772 -0.1134 -0.4064
  160SOL    HW2  480   1.470   2.442   1.413  1.5223 -1.7746  2.0525
  161SOL     OW  481   0.073   2.657   0.404  0.6748  0.0180  0.1395
  161SOL    HW1  482   0.024   2.561   0.406  1.0145 -1.6287 -0.0110
  161SOL    HW2  483   0.005   2.735   0.376 -1.3810 -0.2107  0.7558
  162SOL     OW  484   2.565   1.940   0.468 -0.3950  0.0035 -0.0816
  162SOL    HW1  485   2.619   1.952   0.382 -0.0613  0.8228  1.8117
  162SOL    HW2  486   2.518   1.851   0.476  3.3631  1.6366  2.9249
  163SOL     OW  487   1.894   2.694   0.804 -0.2826  0.0214 -0.4266
  163SOL    HW1  488   1.890   2.700   0.701 -0.7220  0.6206 -0.5928
  163SOL    HW2  489   1.981   2.646   0.832  1.8671 -0.2122  0.4752
  164SOL     OW  490   3.028   0.145   1.257 -0.2159  0.2764  0.5856
  164SOL    HW1  491   3.039   0.234   1.210 -0.3939 -0.8211 -1.4476
  164SOL    HW2  492   3.101   0.118   1.326 -1.6092 -4.2657 -1.1758
  165SOL     OW  493   1.091   1.378   0.645 -0.4392 -0.4962 -0.1157
  165SOL    HW1  494   1.071   1.453   0.717 -0.0366 -2.5962  2.0695
  165SOL    HW2  495   1.041   1.400   0.558  1.3249 -1.1598  0.2253
  166SOL     OW  496   1.550   0.929   1.799 -0.3496  0.3868 -0.6752
  166SOL    HW1  497   1.450   0.961   1.814 -0.7717  1.2952 -0.3031
  166SOL    HW2  498   1.619   1.004   1.779  1.8603  1.0366 -1.5516
  167SOL     OW  499   0.663   2.029   1.515 -0.4435  0.1357 -0.1586
  167SOL    HW1  500   0.649   2.121   1.559 -0.0911  0.6797  1.4949
  167SOL    HW2  501   0.599   1.958   1.553 -0.1271  1.4975  1.0553
  168SOL     OW  502   1.683   2.314   0.144 -0.2196  0.3981  0.2497
  168SOL    HW1  503   1.757   2.275   0.087  1.7036 -1.2987 -0.9013
  168SOL    HW2  504   1.694   2.291   0.248 -0.6876 -1.1836  1.7476
  169SOL     OW  505   3.053   2.597   2.165  0.1212  0.3683  0.1975
  169SOL    HW1  506   3.071   2.554   2.072 -2.1711  0.8320 -1.9164
  169SOL    HW2  507   3.098   2.549   2.242 -0.0479  0.9277  0.6380
  170SOL     OW  508   1.160   0.144   2.117  0.0879 -0.1403  0.2206
  170SOL    HW1  509   1.254   0.187   2.125 -1.7256  1.8054  0.5691
  170SOL    HW2  510   1.143   0.110   2.020 -0.1382  1.0457  2.5139
  171SOL     OW  511   0.168   0.886   2.442 -0.2858  0.2714  0.4647
  171SOL    HW1  512   0.081   0.883   2.500  0.4853  0.4524 -1.1516
  171SOL    HW2  513   0.140   0.873   2.343 -1.5036 -0.6597 -0.8941
  172SOL     OW  514   1.004   1.007   2.801  0.3233  0.3322  0.8652
  172SOL    HW1  515   0.959   1.064   2.876  2.3246  0.9156 -0.2540
  172SOL    HW2  516   0.954   1.012   2.711  1.9143 -1.3288  1.0534
  173SOL     OW  517   0.333   2.554   3.023 -0.3754 -0.0799 -0.2896
  173SOL    HW1  518   0.335   2.506   2.931 -1.0062 -2.3227  1.5555
  173SOL    HW2  519   0.351   2.490   3.101 -1.8446 -0.6560 -2.4559
  174SOL     OW  520   1.467   2.878   0.980  0.3971  0.8898 -0.0246
  174SOL    HW1  521   1.555   2.903   0.927  0.2392 -0.3264 -1.3957
  174SOL    HW2  522   1.449   2.776   0.984  0.4902 -0.6556 -0.0670
  175SOL     OW  523   0.425   0.001   1.703 -0.6407  0.7796  0.2334
  175SOL    HW1  524   0.498  -0.015   1.774  2.0460 -1.2691 -0.7986
  175SOL    HW2  525   0.387   0.096   1.692 -2.2988  1.2961  1.1816
  176SOL     OW  526   2.529   0.470   0.047  0.1543 -0.1918 -0.5130
  176SOL    HW1  527   2.569   0.552   0.101 -1.9283  0.8752  2.5010
  176SOL    HW2  528   2.527   0.374   0.092  2.2643 -4.0785 -3.3067
  177SOL     OW  529   0.323   0.112   0.798 -0.4153 -0.2830 -0.3675
  177SOL    HW1  530   0.286   0.021   0.838  0.9400  2.4771  0.5464
  177SOL    HW2  531   0.427   0.118   0.786 -1.0279  0.7226 -1.1008
  178SOL     OW  532   0.004   2.716   2.619 -0.2997  0.1715 -0.4131
  178SOL    HW1  533  -0.022   2.618   2.611  2.2361 -0.2007 -0.3413
  178SOL    HW2  534   0.101   2.727   2.655 -0.5480  0.0516  0.7035
  179SOL     OW  535   2.977   1.589   1.238  0.2408  0.4329 -0.5929
  179SOL    HW1  536   3.068   1.606   1.191  1.6423  1.1916  1.2361
  179SOL    HW2  537   2.981   1.518   1.317  0.6374 -0.3201  2.2707
  180SOL     OW  538   0.266   1.366   1.731 -1.1265 -0.5818 -0.0258
  180SOL    HW1  539   0.338   1.342   1.804  0.9064 -1.3350 -0.5201
  180SOL    HW2  540   0.180   1.394   1.774  0.9316 -0.2652 -3.1243
  181SOL     OW  541   3.022   1.746   2.459  0.8061 -0.3683 -0.7424
  181SOL    HW1  542   3.116   1.764   2.421  4.0666 -0.2211  2.5657
  181SOL    HW2  543   2.949   1.812   2.419 -0.7955  1.7548  1.0549
  182SOL     OW  544   2.210   1.409   1.204  0.1012  0.1320  0.1060
  182SOL    HW1  545   2.234   1.346   1.279  0.4689  1.6114  2.3500
  182SOL    HW2  546   2.246   1.371   1.112 -0.1736 -1.5310  0.7548
  183SOL     OW  547   1.386   2.210   2.465 -0.2668 -0.5302  0.7080
  183SOL    HW1  548   1.325   2.128   2.464 -2.0263  0.6672 -1.1206
  183SOL    HW2  549   1.483   2.190   2.436  0.7419 -1.2777 -0.2632
  184SOL     OW  550   2.240   0.788   0.816  0.0689  0.0797 -0.3005
  184SOL    HW1  551   2.168   0.814   0.747  2.1518 -0.2039 -1.7286
  184SOL    HW2  552   2.268   0.689   0.797 -1.3791  2.6514 -0.7251
  185SOL     OW  553   1.595   2.740   2.014  0.3631  0.3366 -0.2657
  185SOL    HW1  554   1.518   2.811   2.008  0.3807 -0.6164 -0.6971
  185SOL    HW2  555   1.635   2.726   2.109 -1.7107  0.1432 -1.4418
  186SOL     OW  556  -0.000   2.135   1.802 -0.5035  0.0086 -0.1649
  186SOL    HW1  557   0.014   2.226   1.852  2.9903 -2.3083 -0.1247
  186SOL    HW2  558   0.094   2.089   1.796 -1.0716 -1.5098  1.7864
  187SOL     OW  559   1.307   0.651   1.675  0.0128 -0.5745  0.3953
  187SOL    HW1  560   1.402   0.676   1.646  2.4231 -1.9775  0.8730
  187SOL    HW2  561   1.302   0.598   1.768 -2.1937 -0.6567 -0.3002
  188SOL     OW  562   2.712   2.668   1.578  0.1797  0.1253 -0.0474
  188SOL    HW1  563   2.684   2.766   1.587  0.8957  1.7937  1.0934
  188SOL    HW2  564   2.659   2.617   1.502 -2.0324 -0.2256  0.4071
  189SOL     OW  565   0.864   1.140   1.424 -0.1052 -0.3023  0.6387
  189SOL    HW1  566   0.914   1.216   1.472 -3.7676  1.7008 -0.0148
  189SOL    HW2  567   0.820   1.169   1.335  0.4184 -0.8738  0.8069
  190SOL     OW  568   1.405   1.851   1.522 -0.3836  0.4253 -0.2174
  190SOL    HW1  569   1.344   1.764   1.514 -1.1255  1.1315 -0.1058
  190SOL    HW2  570   1.417   1.869   1.622  1.0434  1.8524  0.3125
  191SOL     OW  571   0.886   0.754   1.505  0.4480 -0.3584  0.4103
  191SOL    HW1  572   0.934   0.660   1.523  4.0228 -0.2864 -2.1347
  191SOL    HW2  573   0.945   0.808   1.439  2.3452  1.4485  0.6498
  192SOL     OW  574   1.841   2.423   1.132  0.1357 -0.2544  0.1122
  192SOL    HW1  575   1.737   2.415   1.108  0.0771  0.0962 -1.8381
  192SOL    HW2  576   1.914   2.392   1.068 -2.8588  0.8151 -1.0949
  193SOL     OW  577   0.492   0.493   0.382 -0.0373  0.2281  0.0272
  193SOL    HW1  578   0.413   0.422   0.372 -1.8903 -0.2742  0.4974
  193SOL    HW2  579   0.549   0.494   0.295  0.0646 -1.7190 -2.2253
  194SOL     OW  580   0.421   0.731   1.208  0.4947 -0.2222  0.0020
  194SOL    HW1  581   0.319   0.723   1.233  1.9688 -1.8066 -1.6375
  194SOL    HW2  582   0.450   0.660   1.134  2.6037 -2.0455  0.6987
  195SOL     OW  583   1.023   2.942   0.509 -0.1108  0.5816 -0.5485
  195SOL    HW1  584   1.016   2.840   0.487  0.6252 -1.2829  1.9291
  195SOL    HW2  585   1.114   2.981   0.473  0.7773  1.3550 -0.0199
  196SOL     OW  586   0.204   1.377   1.356 -0.2180  0.0040 -0.0740
  196SOL    HW1  587   0.284   1.437   1.331  0.1180 -0.4019 -0.5806
  196SOL    HW2  588   0.224   1.310   1.431 -2.8499  2.3535  0.7430
  197SOL     OW  589   0.792   1.973   0.248 -0.0395  0.1526  0.1405
  197SOL    HW1  590   0.821   1.944   0.346 -0.0296 -3.5918  1.7688
  197SOL    HW2  591   0.872   1.961   0.181 -1.0656 -1.4375  1.5238
  198SOL     OW  592   0.296   1.223   0.321 -0.0517  0.1520  0.5071
  198SOL    HW1  593   0.193   1.213   0.297 -1.4946  1.7931  1.1131
  198SOL    HW2  594   0.314   1.321   0.353  1.6095  0.0295 -0.2221
  199SOL     OW  595   2.264   0.411   2.636  0.2556  0.1532 -0.4926
  199SOL    HW1  596   2.181   0.397   2.694 -0.5726  0.3076 -1.0323
  199SOL    HW2  597   2.343   0.349   2.661  1.0496 -0.1367  1.6849
  200SOL     OW  598   3.080   2.892   0.754  0.2353  0.2900  0.2965
  200SOL    HW1  599   3.094   2.989   0.782  0.0819  0.8553 -0.7552
  200SOL    HW2  600   3.006   2.886   0.678  1.9213  0.0784 -2.8576
  201SOL     OW  601   0.920   0.667   0.493 -1.0180  0.0730 -0.4347
  201SOL    HW1  602   0.922   0.753   0.558  0.5904  2.9204  1.4999
  201SOL    HW2  603   0.850   0.595   0.519  0.0444  0.3938 -1.5562
  202SOL     OW  604   0.455   1.280   1.904 -0.1284 -0.2957  0.0379
  202SOL    HW1  605   0.528   1.210   1.880 -0.3654 -0.4607 -1.9945
  202SOL    HW2  606   0.480   1.328   1.992  1.1394 -1.2293 -0.1838
  203SOL     OW  607   0.624   0.191   1.585 -0.2361  0.6529  0.2696
  203SOL    HW1  608   0.682   0.136   1.520  1.1230 -0.7786 -0.7928
  203SOL    HW2  609   0.656   0.185   1.684 -1.9106  0.7084  1.5655
  204SOL     OW  610   2.062   1.842   2.984 -0.5508 -0.2572  0.3009
  204SOL    HW1  611   2.039   1.742   2.977 -1.2611  2.4118 -1.3618
  204SOL    HW2  612   2.128   1.870   2.912 -3.2304 -2.6905 -1.3723
  205SOL     OW  613   1.780   1.889   3.014 -0.0381 -0.3062  0.4777
  205SOL    HW1  614   1.885   1.879   2.996  0.5058  0.3274 -1.0740
  205SOL    HW2  615   1.746   1.980   2.977 -1.7018 -0.7599 -0.0430
  206SOL     OW  616   2.394   2.726   0.309 -0.2249  0.5250  0.3147
  206SOL    HW1  617   2.337   2.674   0.377  0.7763 -3.0709 -0.2092
  206SOL    HW2  618   2.477   2.676   0.276  0.4357  0.1772 -1.0364
  207SOL     OW  619   0.715   1.762   2.908 -0.0845  0.7987 -0.1952
  207SOL    HW1  620   0.767   1.680   2.873 -3.1062 -1.0713 -0.6613
  207SOL    HW2  621   0.633   1.728   2.967 -0.2868  0.6784  3.2785
  208SOL     OW  622   1.022   1.590   1.214 -0.3190  0.1426  0.2939
  208SOL    HW1  623   0.937   1.605   1.152 -0.7383  0.3623 -1.7970
  208SOL    HW2  624   1.002   1.572   1.312 -0.5421 -1.3730 -0.7878
  209SOL     OW  625   0.243   1.004   3.070  0.3107 -0.6791  0.1680
  209SOL    HW1  626   0.305   0.966   2.996 -1.8761  2.5869  1.2467
  209SOL    HW2  627   0.217   0.944   3.151  0.3178 -0.8571  1.1522
  210SOL     OW  628   1.762   0.642   1.246  0.9727  0.3187 -0.1313
  210SOL    HW1  629   1.728   0.733   1.220 -0.8478 -0.5643  3.1923
  210SOL    HW2  630   1.865   0.626   1.233  2.1733  1.1757 -2.5143
  211SOL     OW  631   2.086   1.128   1.579 -0.7626  0.5060 -0.7029
  211SOL    HW1  632   2.127   1.058   1.647 -3.5374 -0.2555  3.4310
  211SOL    HW2  633   2.143   1.202   1.545 -4.2076  0.0241 -2.2140
  212SOL     OW  634   0.072   0.962   1.422  0.2748 -0.2438 -0.2779
  212SOL    HW1  635   0.131   1.027   1.477  0.6608 -1.5976 -0.4688
  212SOL    HW2  636   0.093   0.863   1.446 -1.3525 -0.0176  0.4312
  213SOL     OW  637   2.853   0.059   0.320  0.4137  0.2446  0.2522
  213SOL    HW1  638   2.944   0.019   0.290 -1.6521 -1.1782 -0.2560
  213SOL    HW2  639   2.767   0.009   0.292 -0.7823 -1.4482 -0.5594
  214SOL     OW  640   2.219   0.353   2.372  0.1388  0.1164  0.4505
  214SOL    HW1  641   2.254   0.365   2.466 -1.2163 -1.7204 -1.2209
  214SOL    HW2  642   2.158   0.268   2.369 -0.4318 -1.1589  3.1534
  215SOL     OW  643   1.696   2.288   2.070 -0.1403  0.5804 -0.0234
  215SOL    HW1  644   1.791   2.338   2.075  1.9952 -0.7523  0.9057
  215SOL    HW2  645   1.619   2.336   2.124 -0.9410  0.0018 -1.1112
  216SOL     OW  646   2.299   0.529   0.782  0.2837 -0.1338  0.3478
  216SOL    HW1  647   2.246   0.457   0.735  1.4001  1.8699 -0.4622
  216SOL    HW2  648   2.401   0.503   0.788 -1.7452 -0.1060 -0.9161
  217SOL     OW  649   0.886   2.688   2.557 -0.2128  0.0130 -0.6283
  217SOL    HW1  650   0.900   2.662   2.653  0.9461 -0.9480  2.6906
  217SOL    HW2  651   0.787   2.662   2.524 -0.5199 -0.4524 -0.1752
  218SOL     OW  652   1.848   1.396   0.014  0.0461  0.0807 -0.2349
  218SOL    HW1  653   1.747   1.387   0.004 -1.6565 -1.2796  0.8213
  218SOL    HW2  654   1.884   1.317   0.067  2.4492  1.2801 -0.2270
  219SOL     OW  655   2.419   1.243   2.533 -0.1423  0.0678  0.0557
  219SOL    HW1  656   2.475   1.191   2.468  1.3263  3.0012 -0.8239
  219SOL    HW2  657   2.414   1.200   2.629  0.7183  1.3781  1.6717
  220SOL     OW  658   1.432   1.064   1.419  0.5327 -0.5128  0.4179
  220SOL    HW1  659   1.529   1.051   1.451 -0.5150  1.2033 -1.2878
  220SOL    HW2  660   1.425   1.087   1.317 -1.9741 -1.7592  1.7336
  221SOL     OW  661   1.263   0.986   2.124 -0.7156  0.4000  0.0090
  221SOL    HW1  662   1.288   1.000   2.021 -0.2170 -0.2689 -3.0650
  221SOL    HW2  663   1.341   1.003   2.186 -1.5042 -0.0258 -1.3930
  222SOL     OW  664   1.154   0.051   1.202 -0.2202 -0.3303 -0.1728
  222SOL    HW1  665   1.176   0.097   1.291 -1.2065  0.2272  0.2849
  222SOL    HW2  666   1.147   0.123   1.130  0.9796  0.4380  1.8919
  223SOL     OW  667   2.718   0.953   2.148 -0.8027 -0.2853  0.1862
  223SOL    HW1  668   2.653   1.010   2.203 -0.4930 -1.5190  1.6342
  223SOL    HW2  669   2.814   0.958   2.181 -1.3788 -0.5877 -0.3961
  224SOL     OW  670   1.516   0.974   2.823  0.4431 -0.1531 -0.0188
  224SOL    HW1  671   1.545   0.909   2.741  3.2670  0.1864 -3.6390
  224SOL    HW2  672   1.535   1.069   2.791  0.6917 -0.6403 -0.7522
  225SOL     OW  673   2.953   2.681   2.865 -0.2394 -0.2270 -0.0043
  225SOL    HW1  674   2.860   2.667   2.814 -2.3445  0.9414  1.1432
  225SOL    HW2  675   3.028   2.702   2.801  0.8387  0.4066 -0.9164
  226SOL     OW  676   2.406   1.604   2.837 -0.3411 -0.7740  0.1304
  226SOL    HW1  677   2.469   1.588   2.759  2.4470 -1.5232  0.4534
  226SOL    HW2  678   2.430   1.535   2.911  2.5053  1.3566  1.5622
  227SOL     OW  679   0.904   0.276   2.992 -0.1159  0.5455  0.6032
  227SOL    HW1  680   0.915   0.376   3.007  0.8930 -0.0864 -0.9902
  227SOL    HW2  681   0.858   0.241   2.906  0.3586  0.7127  2.6076
  228SOL     OW  682   2.390   0.678   2.912 -0.4362  0.0717  0.2087
  228SOL    HW1  683   2.392   0.697   2.809 -1.3585  1.2341  1.2156
  228SOL    HW2  684   2.469   0.617   2.946 -2.2851  1.5478  0.4830
  229SOL     OW  685   0.745   0.681   1.780  0.3311  0.1184 -0.9590
  229SOL    HW1  686   0.832   0.696   1.826  0.5239 -1.9795 -0.2539
  229SOL    HW2  687   0.740   0.603   1.712  2.6891  1.0567 -0.3193
  230SOL     OW  688   1.912   1.211   1.933  0.6601 -0.3500 -0.0162
  230SOL    HW1  689   1.997   1.260   1.902 -0.3919  0.1946  2.7799
  230SOL    HW2  690   1.867   1.260   2.015 -1.5144  2.8638  1.2842
  231SOL     OW  691   0.654   1.000   0.024  0.0366 -0.9552  0.1179
  231SOL    HW1  692   0.741   1.053   0.007 -0.0181  1.3437 -0.4680
  231SOL    HW2  693   0.575   1.064   0.038  3.1454 -4.2557 -0.9843
  232SOL     OW  694   2.401   2.955   2.784 -0.3783 -0.2686  0.2708
  232SOL    HW1  695   2.477   2.887   2.815  2.5425  2.1127  2.4985
  232SOL    HW2  696   2.436   3.029   2.718  0.4442  0.5259  1.5542
  233SOL     OW  697   1.811   1.111   1.180  0.1775 -0.0128 -0.3513
  233SOL    HW1  698   1.840   1.180   1.106  1.2674  0.7752  0.8248
  233SOL    HW2  699   1.891   1.058   1.221  0.0060 -0.7801 -0.8352
  234SOL     OW  700   1.652   2.535   1.847  0.0076  0.2212  0.0125
  234SOL    HW1  701   1.622   2.602   1.923 -1.0547 -0.6303 -2.6000
  234SOL    HW2  702   1.597   2.452   1.846  0.8499  2.3706  2.1458
  235SOL     OW  703   0.106   3.026   2.890  0.3513  0.2085 -0.3810
  235SOL    HW1  704   0.048   3.011   2.806  1.1083 -1.9062  0.9365
  235SOL    HW2  705   0.049   3.074   2.961  1.2740 -0.5888  0.9683
  236SOL     OW  706   2.887   0.771   0.041 -0.1326  0.2613  0.0048
  236SOL    HW1  707   2.961   0.780   0.117  1.2864  0.3791 -1.0612
  236SOL    HW2  708   2.888   0.678  -0.014  1.4647 -0.7164 -0.9138
  237SOL     OW  709   1.515   1.686   0.905 -0.0988 -0.1837 -0.5763
  237SOL    HW1  710   1.606   1.643   0.911 -4.2666 -0.4928  1.3947
  237SOL    HW2  711   1.481   1.731   0.993 -1.0717 -0.4061  2.1316
  238SOL     OW  712   1.908   1.212   0.719 -0.5188  0.6766 -0.0234
  238SOL    HW1  713   1.917   1.217   0.825 -1.5027 -0.0134  0.7069
  238SOL    HW2  714   1.824   1.259   0.686  1.9403 -1.8415 -0.2993
  239SOL     OW  715   2.081   0.347   2.823  0.5895  0.1388 -0.5145
  239SOL    HW1  716   2.126   0.324   2.916  1.5937 -0.7982  1.6789
  239SOL    HW2  717   1.981   0.363   2.833  0.9380  2.6800  1.7532
  240SOL     OW  718   0.901   0.680   0.219 -0.3479  0.0463 -0.0636
  240SOL    HW1  719   0.972   0.617   0.170  1.3921 -0.0099  2.3777
  240SOL    HW2  720   0.888   0.667   0.323  1.0090  0.7756  0.1227
  241SOL     OW  721   0.546   0.157   0.294  0.3094 -0.5046  0.0047
  241SOL    HW1  722   0.633   0.216   0.273  0.3503 -0.3470  2.0064
  241SOL    HW2  723   0.561   0.059   0.274  0.1338  1.0197  0.0874
  242SOL     OW  724   0.613   2.620   1.283  0.0441  0.1153  0.5670
  242SOL    HW1  725   0.598   2.592   1.377  0.2566 -1.3300 -2.0003
  242SOL    HW2  726   0.585   2.717   1.256 -0.1082  0.9209 -1.8794
  243SOL     OW  727   1.034   0.592   2.400 -0.1233  0.2320  0.0016
  243SOL    HW1  728   0.942   0.605   2.355  0.2649  0.3411 -1.1966
  243SOL    HW2  729   1.031   0.530   2.484 -0.6942 -1.7435  2.6312
  244SOL     OW  730   2.802   1.899   2.375  0.3218 -0.5722 -0.9570
  244SOL    HW1  731   2.806   1.882   2.273 -0.1585 -0.6984 -1.6912
  244SOL    HW2  732   2.718   1.857   2.427 -1.3197 -1.8029 -0.0722
  245SOL     OW  733   2.116   1.032   2.208  0.0780  0.3007 -0.2678
  245SOL    HW1  734   2.221   1.027   2.220  1.0278 -0.6274  0.8889
  245SOL    HW2  735   2.073   1.109   2.265  1.9540  0.5003 -2.2697
  246SOL     OW  736   0.261   2.924   1.823  0.4109 -0.3485 -0.2247
  246SOL    HW1  737   0.184   2.913   1.752 -0.4229 -0.4769 -0.6261
  246SOL    HW2  738   0.338   2.986   1.789 -3.7607  1.8051  1.6126
  247SOL     OW  739   2.208   0.597   3.080  0.0452  0.2167  0.2468
  247SOL    HW1  740   2.283   0.630   3.011 -0.0972  1.3988  0.4136
  247SOL    HW2  741   2.126   0.660   3.077  1.3753 -0.1376 -1.2397
  248SOL     OW  742   2.163   1.888   1.627 -0.0744  0.2674 -0.2178
  248SOL    HW1  743   2.223   1.806   1.671  1.4119 -0.3383 -0.3344
  248SOL    HW2  744   2.136   1.958   1.696 -0.2753  1.5601 -1.2009
  249SOL     OW  745   1.878   1.862   1.890 -0.1905 -0.2535  0.9261
  249SOL    HW1  746   1.869   1.787   1.813  1.7475 -0.5789 -0.7841
  249SOL    HW2  747   1.975   1.866   1.925 -0.0900  1.9778 -0.5664
  250SOL     OW  748   1.070   0.673   1.857  0.8609 -0.7844 -0.4937
  250SOL    HW1  749   1.130   0.649   1.935 -0.9559 -1.1038 -2.3857
  250SOL    HW2  750   1.072   0.600   1.783  2.0657 -1.2618  4.0602
  251SOL     OW  751   3.030   1.487   2.573 -0.2991  0.5335 -0.4549
  251SOL    HW1  752   2.999   1.576   2.526  0.5728  1.9298 -3.3545
  251SOL    HW2  753   2.956   1.414   2.560 -0.3483 -0.0300 -1.9884
  252SOL     OW  754   1.566   0.757   1.572  0.0548 -0.3561 -0.3223
  252SOL    HW1  755   1.588   0.814   1.488  0.0856 -1.1127 -0.1242
  252SOL    HW2  756   1.586   0.797   1.666  0.3780 -2.5645  1.3687
  253SOL     OW  757   0.982   1.465   0.416  0.3103  0.0626 -0.5244
  253SOL    HW1  758   1.008   1.475   0.319  2.1027 -1.3870  1.9837
  253SOL    HW2  759   0.897   1.512   0.441  1.1753  1.3779 -3.1413
  254SOL     OW  760   2.033   2.190   1.654  0.7165 -0.5500 -0.4748
  254SOL    HW1  761   1.971   2.122   1.614  0.2614 -0.6292  1.7770
  254SOL    HW2  762   1.984   2.255   1.718  0.3676  0.7693 -2.2140
  255SOL     OW  763   0.072   1.189   2.970  0.5738 -0.4828  0.3119
  255SOL    HW1  764   0.116   1.272   2.922 -0.5300 -0.7297 -1.0192
  255SOL    HW2  765   0.148   1.130   3.018  4.3508 -3.6412  1.6665
  256SOL     OW  766   2.776   1.443   1.798  0.0791  0.0442 -0.0942
  256SOL    HW1  767   2.703   1.464   1.872 -0.9094  1.5204 -4.0947
  256SOL    HW2  768   2.747   1.368   1.742  2.2027  0.3329  0.7586
  257SOL     OW  769   0.807   0.186   1.871 -0.1020  0.1904 -0.2054
  257SOL    HW1  770   0.862   0.212   1.784  0.7512 -3.0575  0.8639
  257SOL    HW2  771   0.860   0.134   1.935  1.8413  0.1787  2.4793
  258SOL     OW  772   2.975   1.174   0.527  0.4507 -0.1403  0.3594
  258SOL    HW1  773   2.878   1.177   0.561  2.1890  0.0605 -0.1092
  258SOL    HW2  774   3.033   1.201   0.605 -0.7150  0.2480  2.0055
  259SOL     OW  775   0.445   2.964   3.026  0.3382 -0.0328 -0.2713
  259SOL    HW1  776   0.373   2.914   3.086 -1.0725  0.4737  0.8266
  259SOL    HW2  777   0.468   2.914   2.940 -0.6018  2.3170  2.9889
  260SOL     OW  778   2.692   0.682   2.789 -0.1084 -0.4597  0.4315
  260SOL    HW1  779   2.603   0.725   2.749 -1.3700 -1.6130 -1.8425
  260SOL    HW2  780   2.689   0.594   2.844  2.1443 -1.1266 -0.3315
  261SOL     OW  781   2.715   1.269   1.282  0.8853  0.3661 -0.0189
  261SOL    HW1  782   2.643   1.209   1.237 -0.0872 -0.5981 -0.8828
  261SOL    HW2  783   2.796   1.212   1.313  3.0572 -1.3365 -2.4594
  262SOL     OW  784   1.416   2.968   1.999 -0.5531  0.3031  0.0661
  262SOL    HW1  785   1.418   3.051   1.935 -1.5534 -0.3436 -1.1791
  262SOL    HW2  786   1.326   2.922   1.992  2.7280 -1.0225 -1.1835
  263SOL     OW  787   0.818   0.675   2.258  1.0693  0.3364 -0.2202
  263SOL    HW1  788   0.746   0.610   2.223  0.9434  2.7892  0.0317
  263SOL    HW2  789   0.857   0.733   2.189  3.1173 -0.6839  0.2948
  264SOL     OW  790   2.277   0.822   0.458  0.1972  0.0089 -0.0381
  264SOL    HW1  791   2.286   0.756   0.377  0.3173 -2.0687  1.5950
  264SOL    HW2  792   2.368   0.853   0.501 -1.0259 -0.4270  2.6872
  265SOL     OW  793   0.872   2.307   2.641  0.3189  0.0527  0.2986
  265SOL    HW1  794   0.872   2.265   2.733  0.6592 -1.1187 -0.1955
  265SOL    HW2  795   0.834   2.243   2.563 -1.9678 -1.0086 -0.4703
  266SOL     OW  796   1.284   1.820   3.048 -0.1261  0.1365 -0.6911
  266SOL    HW1  797   1.283   1.879   3.133  0.2375  1.0495 -0.6342
  266SOL    HW2  798   1.377   1.810   3.016  0.5331 -0.3851  1.5235
  267SOL     OW  799   1.093   3.021   2.283  0.9565 -0.0586 -0.0659
  267SOL    HW1  800   1.019   2.977   2.229  0.8828  3.6093  1.9630
  267SOL    HW2  801   1.125   3.096   2.225 -2.1648 -2.7033 -2.8219
  268SOL     OW  802   0.781   1.301   1.196 -0.5839  0.1797  1.2591
  268SOL    HW1  803   0.703   1.370   1.214  0.3989  0.4045 -1.0975
  268SOL    HW2  804   0.867   1.347   1.183 -2.5214 -1.9219  1.3574
  269SOL     OW  805   2.309   2.515   1.615 -0.6498 -0.1919 -0.0703
  269SOL    HW1  806   2.399   2.482   1.642  0.7698 -0.0798  0.6853
  269SOL    HW2  807   2.241   2.534   1.690 -1.2221  1.8835  2.1035
  270SOL     OW  808   0.108   3.062   2.005 -0.4117  0.4277  0.2090
  270SOL    HW1  809   0.150   3.015   1.923  0.8716 -0.4448 -0.8882
  270SOL    HW2  810   0.080   2.995   2.083  1.5258  2.6108  1.7302
  271SOL     OW  811   0.378   1.419   1.117 -0.6303  0.1046  0.2508
  271SOL    HW1  812   0.364   1.441   1.014  1.4258 -0.4825 -0.8983
  271SOL    HW2  813   0.308   1.354   1.155  0.8892  2.2554 -1.9800
  272SOL     OW  814   1.868   0.018   1.895 -0.0016 -0.2539  0.1374
  272SOL    HW1  815   1.811  -0.064   1.863  0.9974  0.8766  0.7523
  272SOL    HW2  816   1.880   0.099   1.832  1.0691 -1.6402 -0.4858
  273SOL     OW  817   1.442   1.460   2.855  0.3346 -0.3486  0.3434
  273SOL    HW1  818   1.344   1.494   2.840  1.3781  1.4858  0.7824
  273SOL    HW2  819   1.459   1.435   2.954  1.7899 -3.4933 -0.7184
  274SOL     OW  820   1.174   0.552   2.097  0.1769 -0.3198  0.3601
  274SOL    HW1  821   1.088   0.492   2.099 -3.6614 -0.8060 -0.0288
  274SOL    HW2  822   1.208   0.590   2.187  0.5968  0.9237 -0.8039
  275SOL     OW  823   0.642   2.137   1.971  0.3051  0.7068 -0.1855
  275SOL    HW1  824   0.558   2.074   1.972 -1.6459  1.7384 -1.9234
  275SOL    HW2  825   0.606   2.232   1.961  1.2103 -0.7185 -1.6422
  276SOL     OW  826   2.248   0.930   2.868 -0.0661 -0.2222 -0.6874
  276SOL    HW1  827   2.149   0.942   2.845 -0.0304 -0.9134  0.3480
  276SOL    HW2  828   2.268   0.829   2.890 -1.3006 -1.8908  0.5614
  277SOL     OW  829   3.076   0.785   0.251 -0.1726  0.4552 -0.0488
  277SOL    HW1  830   3.173   0.817   0.225  1.2728 -1.1148  0.1880
  277SOL    HW2  831   3.076   0.688   0.284 -0.0328 -0.3679  0.4193
  278SOL     OW  832   0.339   0.239   0.015 -0.1581 -0.4015  0.1941
  278SOL    HW1  833   0.408   0.189  -0.046  0.6335  0.3060  1.2215
  278SOL    HW2  834   0.347   0.343   0.006 -0.5343  1.8501  0.8964
  279SOL     OW  835   0.249   2.988   0.930 -0.0525  0.0952  0.3560
  279SOL    HW1  836   0.286   2.973   1.028 -0.9780 -2.3262  3.4992
  279SOL    HW2  837   0.230   2.902   0.875 -0.9684  0.9228  0.8400
  280SOL     OW  838   1.598   2.892   2.451 -0.0709 -0.3500  0.0893
  280SOL    HW1  839   1.648   2.961   2.510 -0.3859  0.7173 -1.7709
  280SOL    HW2  840   1.531   2.946   2.385  0.5630  2.8332 -2.4797
  281SOL     OW  841   0.608   0.939   2.343  0.2514 -0.1841 -0.2900
  281SOL    HW1  842   0.591   0.858   2.275  1.2348  0.5853 -2.5936
  281SOL    HW2  843   0.597   0.930   2.444  1.0286  0.0900 -1.4551
  282SOL     OW  844   1.753   2.466   0.540 -0.9196  0.2009  0.2468
  282SOL    HW1  845   1.728   2.380   0.491 -1.4866 -2.0482 -0.1343
  282SOL    HW2  846   1.708   2.546   0.489 -0.9634 -0.2737 -0.5296
  283SOL     OW  847   1.154   0.916   0.785 -0.5043 -0.2774  0.1904
  283SOL    HW1  848   1.184   0.856   0.867 -0.7147  0.2621  1.6909
  283SOL    HW2  849   1.127   1.012   0.810  0.9408  0.2541 -2.1455
  284SOL     OW  850   2.239   2.838   2.461 -0.8229  0.2363  0.4875
  284SOL    HW1  851   2.338   2.867   2.464 -0.2701  0.0812 -0.7282
  284SOL    HW2  852   2.201   2.806   2.552 -0.4789 -0.8688  0.0356
  285SOL     OW  853   1.335   3.063   2.553  0.5265  0.0014 -0.3024
  285SOL    HW1  854   1.353   3.032   2.454 -2.3948 -1.8010 -1.4619
  285SOL    HW2  855   1.259   3.136   2.556 -3.5132  2.3643  1.3104
  286SOL     OW  856   0.237   0.327   0.657 -0.2684 -0.3914  0.4545
  286SOL    HW1  857   0.280   0.254   0.728 -0.6734 -0.1278  1.0454
  286SOL    HW2  858   0.253   0.311   0.557 -1.0876  0.6500 -1.7489
  287SOL     OW  859   0.106   1.262   2.525  0.2492  0.4601  0.3236
  287SOL    HW1  860   0.052   1.194   2.586 -1.2701  0.5782  0.7065
  287SOL    HW2  861   0.064   1.357   2.532 -2.7286  1.6753  3.0612
  288SOL     OW  862   1.512   2.697   1.650  0.3901  0.7225  0.3079
  288SOL    HW1  863   1.565   2.635   1.709 -1.7664  2.7935 -0.2672
  288SOL    HW2  864   1.551   2.704   1.551 -0.2237 -3.3499 -1.5961
  289SOL     OW  865   0.597   2.742   0.795 -0.5356 -0.2742  0.1782
  289SOL    HW1  866   0.656   2.785   0.721 -0.2344 -0.9022 -2.8898
  289SOL    HW2  867   0.570   2.820   0.858 -1.6357 -1.0626 -1.2889
  290SOL     OW  868   2.822   1.090   1.674 -0.4320 -0.3432 -0.6313
  290SOL    HW1  869   2.759   1.021   1.721  0.9592  0.0070  0.5551
  290SOL    HW2  870   2.917   1.091   1.713  1.4151 -0.9733 -0.1830
  291SOL     OW  871   1.924   0.017   0.067 -0.1330  0.0815 -0.6347
  291SOL    HW1  872   1.916   0.038   0.168  0.5058 -3.7535  0.1353
  291SOL    HW2  873   2.020   0.030   0.027 -1.9544 -2.2560 -4.3528
  292SOL     OW  874   2.957   1.276   0.032 -0.4861 -0.4513 -0.6710
  292SOL    HW1  875   2.891   1.326  -0.026 -1.7423  0.8874  1.7041
  292SOL    HW2  876   3.053   1.271  -0.008 -1.0765 -2.6365  0.8148
  293SOL     OW  877   0.525   2.054   0.236  0.8286 -0.4208 -0.3655
  293SOL    HW1  878   0.541   2.133   0.300 -1.9184 -0.6636 -1.7455
  293SOL    HW2  879   0.610   2.004   0.214 -0.2338  2.0255  0.6725
  294SOL     OW  880   1.884   2.378   1.820  0.3489  0.4566 -0.0832
  294SOL    HW1  881   1.905   2.395   1.921  0.3722  1.3182 -0.3263
  294SOL    HW2  882   1.797   2.429   1.791  0.2802  1.8547  0.2035
  295SOL     OW  883   0.936   1.048   0.447 -0.2443  0.1948 -0.2289
  295SOL    HW1  884   1.036   1.071   0.456 -2.7978  1.8822 -0.8567
  295SOL    HW2  885   0.905   0.976   0.511 -1.0783  1.0733 -2.7757
  296SOL     OW  886   1.143   2.125   2.700 -0.5440  0.2038 -0.2654
  296SOL    HW1  887   1.095   2.218   2.706 -0.9619  1.0985 -0.2655
  296SOL    HW2  888   1.165   2.088   2.605  0.3722 -1.9647 -1.2706
  297SOL     OW  889   1.331   0.608   1.240  0.0842  0.4313  0.2152
  297SOL    HW1  890   1.339   0.533   1.314  0.8230  1.2465  2.3565
  297SOL    HW2  891   1.410   0.605   1.176  0.5395 -0.8820 -0.9602
  298SOL     OW  892   0.483   1.334   2.958  0.7699 -0.0120  0.3478
  298SOL    HW1  893   0.479   1.292   3.049 -0.8696 -1.2816 -0.9442
  298SOL    HW2  894   0.528   1.264   2.890  0.2941 -0.9278 -1.2375
  299SOL     OW  895   0.430   0.193   1.223  0.3311  0.0552 -0.8392
  299SOL    HW1  896   0.386   0.288   1.207  0.3437  1.5097 -1.7985
  299SOL    HW2  897   0.425   0.167   1.319  0.3592  0.0383  1.2418
  300SOL     OW  898   1.252   1.769   2.600 -0.6146 -1.1458  0.3195
  300SOL    HW1  899   1.237   1.688   2.535  0.3072  1.6958  1.2033
  300SOL    HW2  900   1.337   1.742   2.657  2.9762  1.6560 -0.7686
  301SOL     OW  901   0.315   0.294   0.383  0.1926  0.4534 -0.1112
  301SOL    HW1  902   0.222   0.258   0.347 -0.4301 -2.5973  0.6144
  301SOL    HW2  903   0.402   0.244   0.345  1.3593  0.8517 -2.7431
  302SOL     OW  904   1.269   2.399   2.304 -0.0568  0.1847  0.3102
  302SOL    HW1  905   1.166   2.395   2.312 -0.9829 -1.8038  0.5737
  302SOL    HW2  906   1.316   2.341   2.381  0.7448  0.2416  0.7722
  303SOL     OW  907   0.882   2.449   0.721  0.0591 -0.0947 -0.4981
  303SOL    HW1  908   0.938   2.472   0.638 -0.2589 -1.0120  1.4776
  303SOL    HW2  909   0.928   2.480   0.811  1.8626  2.1675 -1.2526
  304SOL     OW  910   0.125   1.920   0.700 -0.6089  0.0123 -0.1618
  304SOL    HW1  911   0.188   1.902   0.618 -1.5416 -1.2239  1.9201
  304SOL    HW2  912   0.026   1.935   0.683 -0.6604  0.1936  0.7401
  305SOL     OW  913   1.659   0.769   0.688 -0.2783  0.0367  0.3845
  305SOL    HW1  914   1.582   0.785   0.622  0.5230  1.5993 -0.6657
  305SOL    HW2  915   1.698   0.674   0.684 -0.0419  0.6275  0.8961
  306SOL     OW  916   0.430   1.934   1.988  0.2919  0.5082 -0.6334
  306SOL    HW1  917   0.471   1.853   1.940 -1.4230 -0.7028 -1.5811
  306SOL    HW2  918   0.437   1.922   2.094 -0.2806 -2.9652  2.6533
  307SOL     OW  919   3.025   0.905   2.594  0.0616  0.2056 -0.4796
  307SOL    HW1  920   3.050   0.987   2.657 -0.3855 -0.0268  1.8149
  307SOL    HW2  921   3.012   0.812   2.643  1.0382 -3.4611 -0.3757
  308SOL     OW  922   1.497   2.742   2.811  0.0515  0.5947  0.2926
  308SOL    HW1  923   1.427   2.725   2.734 -0.8580 -0.6986  0.9070
  308SOL    HW2  924   1.500   2.659   2.875  3.1683  2.0564 -1.0949
  309SOL     OW  925   1.152   0.203   1.820  0.5333 -0.1308  0.1845
  309SOL    HW1  926   1.234   0.152   1.779  2.8368  1.8916 -0.7377
  309SOL    HW2  927   1.079   0.232   1.749 -2.1646 -0.0712  2.0657
  310SOL     OW  928   1.406   2.582   0.656  0.2228  0.2128  0.2082
  310SOL    HW1  929   1.407   2.571   0.758 -0.8716  0.0370 -0.8306
  310SOL    HW2  930   1.485   2.638   0.618  1.6318  0.6509 -0.9615
  311SOL     OW  931   1.115   0.931   1.710 -0.5160 -0.2745 -0.6925
  311SOL    HW1  932   1.089   0.843   1.758  0.7508 -0.2688  2.4782
  311SOL    HW2  933   1.170   0.911   1.623  1.8122 -2.4941  0.6490
  312SOL     OW  934   1.491   0.627   0.997 -0.0371  0.0663 -0.2971
  312SOL    HW1  935   1.560   0.700   1.015 -1.1375  1.1064 -0.6146
  312SOL    HW2  936   1.452   0.630   0.903  2.0290 -3.9463 -1.0388
  313SOL     OW  937   1.653   1.324   0.702  0.1554  0.6541 -0.4904
  313SOL    HW1  938   1.578   1.360   0.769 -1.5734 -0.0271  1.0722
  313SOL    HW2  939   1.621   1.235   0.654 -1.6276 -2.5857  3.9596
  314SOL     OW  940   2.982   0.013   3.077 -0.3776 -0.1717 -0.0164
  314SOL    HW1  941   3.025   0.007   3.171 -1.8472  1.0332 -1.4403
  314SOL    HW2  942   2.929  -0.076   3.056 -0.5619 -3.5684  0.7198
  315SOL     OW  943   1.124   0.221   2.760 -0.9364 -0.0468 -0.5864
  315SOL    HW1  944   1.109   0.164   2.676 -0.1233 -0.6335 -2.2549
  315SOL    HW2  945   1.078   0.189   2.847 -1.7898  0.9013 -0.6121
  316SOL     OW  946   1.768   2.071   0.859  0.5952  0.5076  0.3570
  316SOL    HW1  947   1.723   2.078   0.953 -1.3730 -1.4875  1.6770
  316SOL    HW2  948   1.783   2.168   0.822 -1.5941 -0.7134  1.0394
  317SOL     OW  949   1.168   0.689   2.735  0.3517 -0.1298 -0.0901
  317SOL    HW1  950   1.109   0.723   2.814 -0.8655 -1.6453  1.8582
  317SOL    HW2  951   1.134   0.597   2.694  0.8456 -2.1643  0.7581
  318SOL     OW  952   1.423   3.032   2.269  0.4624 -0.2605 -0.7911
  318SOL    HW1  953   1.434   3.135   2.259 -0.1912 -0.6815  0.4026
  318SOL    HW2  954   1.416   2.996   2.175  1.4668  1.1789  1.3157
  319SOL     OW  955   0.641   2.369   3.055  0.5141 -0.4761  0.4293
  319SOL    HW1  956   0.571   2.294   3.077  0.5495 -1.3942  1.1504
  319SOL    HW2  957   0.724   2.342   2.995 -1.4569 -1.6528 -1.3795
  320SOL     OW  958   1.709   2.223   0.394  0.0607 -0.3710 -0.3057
  320SOL    HW1  959   1.774   2.145   0.371 -0.3677 -1.6732 -2.0509
  320SOL    HW2  960   1.622   2.186   0.438  0.3161  1.4394  0.6864
  321SOL     OW  961   1.606   2.704   0.513  0.4465 -0.0321  0.2096
  321SOL    HW1  962   1.556   2.740   0.430 -3.0774  1.5651 -0.1464
  321SOL    HW2  963   1.703   2.733   0.522 -0.8062 -1.7013 -0.9343
  322SOL     OW  964   2.548   1.049   2.358  0.0060 -0.8919  0.1987
  322SOL    HW1  965   2.631   1.004   2.406  1.9731 -1.9209  2.2342
  322SOL    HW2  966   2.463   0.989   2.351 -0.5788  3.2907  1.1882
  323SOL     OW  967   1.178   2.707   0.793 -0.1794  0.4413  0.7470
  323SOL    HW1  968   1.203   2.704   0.691  1.2527  4.3563  2.2388
  323SOL    HW2  969   1.181   2.802   0.827 -2.8436 -2.2875 -0.7892
  324SOL     OW  970   0.070   2.522   2.387  0.2177 -0.0109 -0.0942
  324SOL    HW1  971   0.026   2.475   2.469 -0.8650  0.9167  0.6457
  324SOL    HW2  972   0.074   2.624   2.396 -3.4246 -1.7373 -0.1597
  325SOL     OW  973   1.249   3.039   0.425 -0.7805  0.3640  0.2065
  325SOL    HW1  974   1.243   3.077   0.328  2.1895  0.2810  2.7425
  325SOL    HW2  975   1.281   3.115   0.492  1.0429 -1.7609  0.8036
  326SOL     OW  976   2.485   0.851   0.029  0.6993 -0.9317 -0.1409
  326SOL    HW1  977   2.441   0.786  -0.041 -1.5278 -1.2475 -0.2415
  326SOL    HW2  978   2.544   0.806   0.103 -1.3871 -1.1148 -1.4371
  327SOL     OW  979   2.854   0.186   0.573  0.3862 -0.0981 -0.0338
  327SOL    HW1  980   2.856   0.122   0.493  0.0485 -0.8237  2.3563
  327SOL    HW2  981   2.898   0.151   0.658 -0.7408  0.2956 -0.8264
  328SOL     OW  982   2.661   0.588   0.417  0.2591 -0.0282  0.4562
  328SOL    HW1  983   2.698   0.665   0.473  0.8321 -0.2951 -1.6828
  328SOL    HW2  984   2.643   0.501   0.473 -2.2933 -0.2982 -0.5105
  329SOL     OW  985   2.929   3.067   2.218  0.3465 -0.0187 -0.6960
  329SOL    HW1  986   3.007   2.997   2.210  2.0920 -0.6786  0.5662
  329SOL    HW2  987   2.964   3.163   2.195  1.0808 -0.7352  0.9531
  330SOL     OW  988   0.611   0.325   2.008  0.7200 -0.3718 -0.6954
  330SOL    HW1  989   0.690   0.306   1.944  0.2622 -2.5550  0.1967
  330SOL    HW2  990   0.594   0.250   2.078  1.8738 -0.4917  0.6762
  331SOL     OW  991   0.008   1.933   1.120 -0.1953 -0.1059 -0.4128
  331SOL    HW1  992  -0.026   2.018   1.069  1.3034  1.3814  2.1419
  331SOL    HW2  993  -0.054   1.916   1.203 -2.0065 -1.1398 -1.1350
  332SOL     OW  994   0.450   1.159   0.098 -0.0989  0.5052 -0.4591
  332SOL    HW1  995   0.376   1.091   0.061 -0.9586  3.1589 -1.3349
  332SOL    HW2  996   0.427   1.188   0.194 -0.8363  1.4309  1.0779
  333SOL     OW  997   2.909   0.944   0.377  0.0285 -0.3004 -0.0850
  333SOL    HW1  998   2.923   1.024   0.429 -1.7694 -1.3918 -0.0934
  333SOL    HW2  999   2.994   0.909   0.326  0.7297  1.3054 -3.7277
  334SOL     OW 1000   1.698   1.180   1.716  0.0633  0.3548 -0.3149
  334SOL    HW1 1001   1.723   1.209   1.622 -1.6999 -2.5765  1.5079
  334SOL    HW2 1002   1.773   1.181   1.788 -1.3860 -1.9224  0.0457
  335SOL     OW 1003   1.948   2.758   2.604  0.0087  0.1314 -0.1270
  335SOL    HW1 1004   1.850   2.754   2.643 -1.2420 -0.2576  1.4610
  335SOL    HW2 1005   2.006   2.814   2.665 -1.5445 -0.7197 -0.1044
  336SOL     OW 1006   0.274   0.092   2.767  0.0035 -0.3646  0.4200
  336SOL    HW1 1007   0.342   0.130   2.830 -0.3980 -0.8720  0.3735
  336SOL    HW2 1008   0.212   0.019   2.807  2.2600  1.3018  0.1982
  337SOL     OW 1009   0.780   2.788   3.043 -0.2807  0.2268  0.2878
  337SOL    HW1 1010   0.849   2.721   3.082  4.3711 -1.0888 -1.2079
  337SOL    HW2 1011   0.719   2.835   3.104  0.3052  0.2128 -2.9079
  338SOL     OW 1012   0.074   0.947   0.722 -0.1965 -0.5579 -0.2954
  338SOL    HW1 1013  -0.024   0.914   0.734 -0.8517  1.0739  0.9786
  338SOL    HW2 1014   0.076   1.053   0.740 -0.9742 -0.5506 -0.8576
  339SOL     OW 1015   1.759   1.369   2.145 -0.1717 -0.3772 -0.2039
  339SOL    HW1 1016   1.663   1.378   2.106 -1.6999  0.8993 -1.4029
  339SOL    HW2 1017   1.807   1.460   2.159  1.4101  0.5664  2.1135
  340SOL     OW 1018   2.311   0.790   1.164  0.2285 -0.0634  1.2154
  340SOL    HW1 1019   2.221   0.839   1.134  1.2632  2.7562 -0.6697
  340SOL    HW2 1020   2.309   0.690   1.154  2.3564 -0.4230  0.2403
  341SOL     OW 1021   1.917   2.073   0.297  0.4312 -0.1568  0.2618
  341SOL    HW1 1022   1.957   2.153   0.241  0.7479  2.2666 -0.1576
  341SOL    HW2 1023   1.981   2.031   0.368  1.0929  0.5131  2.6658
  342SOL     OW 1024   2.126   2.130   2.768 -0.5597  0.3388 -0.0640
  342SOL    HW1 1025   2.161   2.032   2.779  0.5148  0.3677  0.2622
  342SOL    HW2 1026   2.037   2.135   2.710 -0.3329  0.3552  1.7152
  343SOL     OW 1027   0.359   0.834   2.886  0.0861  0.2790  0.5191
  343SOL    HW1 1028   0.339   0.896   2.802  1.8662 -0.7500 -0.9551
  343SOL    HW2 1029   0.450   0.781   2.866  1.6021 -1.7656 -1.8180
  344SOL     OW 1030   1.924   1.401   0.383 -0.1107 -0.2499  0.4149
  344SOL    HW1 1031   1.936   1.316   0.322 -0.1739  1.7044  0.0178
  344SOL    HW2 1032   1.828   1.438   0.394 -1.3699 -0.2438  1.6743
  345SOL     OW 1033   1.377   2.191   2.828 -0.4139  0.3084 -0.4290
  345SOL    HW1 1034   1.285   2.152   2.803 -1.0390  0.0131 -1.1015
  345SOL    HW2 1035   1.438   2.161   2.747 -0.2673 -1.9489 -1.4263
  346SOL     OW 1036   2.281   0.822   1.435 -0.0761 -0.1731  0.9017
  346SOL    HW1 1037   2.178   0.850   1.444 -0.9078  0.5606 -0.9221
  346SOL    HW2 1038   2.305   0.787   1.337 -0.6413  1.2243 -0.6641
  347SOL     OW 1039   0.712   2.803   1.714  0.1769 -0.1884  0.2867
  347SOL    HW1 1040   0.806   2.855   1.727  2.6941  3.7557  2.6869
  347SOL    HW2 1041   0.657   2.833   1.633 -1.3057  0.6812 -0.0745
  348SOL     OW 1042   0.183   0.626   2.843 -0.1355 -0.2281  0.5497
  348SOL    HW1 1043   0.090   0.651   2.805  0.6956 -1.2491 -3.0117
  348SOL    HW2 1044   0.249   0.708   2.854 -0.5236  0.3704  2.9388
  349SOL     OW 1045   1.807   0.430   2.819  0.4534  0.6034 -0.1483
  349SOL    HW1 1046   1.796   0.521   2.764 -0.4642 -0.5822  0.6005
  349SOL    HW2 1047   1.802   0.438   2.923  0.4688 -1.0291 -0.4113
  350SOL     OW 1048   1.756   0.362   0.412  0.7208 -0.1464  0.4487
  350SOL    HW1 1049   1.837   0.325   0.460 -2.3098 -1.1404  1.0493
  350SOL    HW2 1050   1.775   0.436   0.351 -4.7124 -0.4414  0.3263
  351SOL     OW 1051   0.920   0.814   2.043  0.1188 -0.6547  0.1203
  351SOL    HW1 1052   0.929   0.917   2.019  1.7961  2.1376  1.2033
  351SOL    HW2 1053   0.977   0.759   1.977 -1.2301  1.6961  1.4580
  352SOL     OW 1054   2.085   1.475   0.592  0.1175 -0.0145  0.3231
  352SOL    HW1 1055   2.004   1.456   0.530 -3.4700  0.7226  1.0957
  352SOL    HW2 1056   2.073   1.416   0.678 -0.7057  1.1757  1.7162
  353SOL     OW 1057   2.173   2.721   1.153  0.0856  0.4891 -0.1960
  353SOL    HW1 1058   2.233   2.669   1.219 -3.3622 -1.3430  1.2031
  353SOL    HW2 1059   2.081   2.738   1.197  0.4480 -0.2324  0.0737
  354SOL     OW 1060   0.235   1.408   2.884  0.2366 -0.0136 -0.1396
  354SOL    HW1 1061   0.239   1.471   2.799 -0.7597 -0.4262 -0.3199
  354SOL    HW2 1062   0.329   1.371   2.901 -1.6623 -0.8783  1.1673
  355SOL     OW 1063   0.740   1.580   0.542  0.0533 -0.2272 -0.3346
  355SOL    HW1 1064   0.689   1.562   0.628  2.0546  2.0458 -1.8123
  355SOL    HW2 1065   0.694   1.531   0.464 -0.1301  0.2045  0.0065
  356SOL     OW 1066   0.992   0.354   2.082 -0.3457 -0.3516 -0.0467
  356SOL    HW1 1067   1.053   0.272   2.089 -1.6275 -1.1376 -1.3315
  356SOL    HW2 1068   0.947   0.371   1.992 -0.5303 -0.4461  0.0795
  357SOL     OW 1069   1.023   1.534   0.144 -0.2603  0.1023 -0.3110
  357SOL    HW1 1070   1.028   1.458   0.075 -1.4105  1.4310  0.4470
  357SOL    HW2 1071   1.119   1.548   0.178  0.4875  1.0158 -2.4370
  358SOL     OW 1072   1.667   1.480   0.485 -0.2233 -0.2680  0.8412
  358SOL    HW1 1073   1.647   1.433   0.578  0.2784  0.6505  0.5903
  358SOL    HW2 1074   1.614   1.429   0.410 -2.1839  0.4717  1.0337
  359SOL     OW 1075   1.634   2.593   0.191  0.5788  0.5365 -0.0897
  359SOL    HW1 1076   1.643   2.491   0.181  0.6344 -0.2139  3.5855
  359SOL    HW2 1077   1.541   2.630   0.167  0.4444  1.0206 -1.6540
  360SOL     OW 1078   0.697   0.512   0.565  0.3468 -0.2657  0.4205
  360SOL    HW1 1079   0.629   0.496   0.488 -1.8688 -2.0074 -2.3268
  360SOL    HW2 1080   0.745   0.429   0.588 -0.1916 -2.0309 -0.3483
  361SOL     OW 1081   1.352   1.320   0.568 -0.5702  0.5426 -0.1160
  361SOL    HW1 1082   1.398   1.391   0.631  0.1782 -0.8316 -0.6981
  361SOL    HW2 1083   1.251   1.339   0.559  2.3926 -1.6008  0.6762
  362SOL     OW 1084   1.391   1.863   0.733 -0.1995  0.1523  0.0098
  362SOL    HW1 1085   1.446   1.800   0.796  2.7782  0.1946 -0.5198
  362SOL    HW2 1086   1.456   1.901   0.663  0.0638 -0.6531 -1.1989
  363SOL     OW 1087   1.268   1.313   1.941  0.5283 -0.2037  0.6822
  363SOL    HW1 1088   1.339   1.365   1.999 -0.1244  2.1973  1.9580
  363SOL    HW2 1089   1.188   1.370   1.914  0.2142 -1.1960 -1.4919
  364SOL     OW 1090   0.548   2.400   2.013 -0.5221 -0.3036  0.5613
  364SOL    HW1 1091   0.446   2.409   2.005  1.1762 -0.3791  0.5121
  364SOL    HW2 1092   0.600   2.488   2.000  0.6366 -1.0314  0.0428
  365SOL     OW 1093   0.920   1.968   1.401  0.0700  0.5042 -0.4656
  365SOL    HW1 1094   0.844   2.010   1.462 -0.1337  1.4689 -1.6333
  365SOL    HW2 1095   0.920   1.999   1.302 -0.0935  1.8587 -0.9136
  366SOL     OW 1096   2.691   1.847   0.250  0.1719 -0.2422 -0.5549
  366SOL    HW1 1097   2.602   1.799   0.235 -0.9950  0.4995 -0.1800
  366SOL    HW2 1098   2.761   1.777   0.286  0.4988 -0.1656  0.5996
  367SOL     OW 1099   0.949   1.109   3.056  0.3561  0.5611  0.4762
  367SOL    HW1 1100   0.949   1.054   3.145 -3.3715 -0.8568  0.3609
  367SOL    HW2 1101   1.008   1.197   3.056  2.4978  0.4190  0.0695
  368SOL     OW 1102   1.471   0.468   0.505  0.2517 -0.1696  0.3606
  368SOL    HW1 1103   1.415   0.406   0.441  1.0329  0.4139  2.6519
  368SOL    HW2 1104   1.525   0.546   0.467 -1.7437 -2.0924  1.6782
  369SOL     OW 1105   0.308   1.629   0.134 -0.0389  0.4840  0.0188
  369SOL    HW1 1106   0.371   1.661   0.206 -1.7691 -0.2191 -1.7289
  369SOL    HW2 1107   0.226   1.575   0.171 -1.4179 -1.6145  0.7131
  370SOL     OW 1108   0.468   2.123   1.017  0.6135 -0.3769 -0.2353
  370SOL    HW1 1109   0.472   2.226   1.013  0.4788 -0.2329  2.9210
  370SOL    HW2 1110   0.376   2.086   0.992  0.9195  2.5892  1.5930
  371SOL     OW 1111   2.930   2.176   2.680  0.5546  0.3186 -0.2144
  371SOL    HW1 1112   3.007   2.100   2.685  3.2617 -1.7172  3.3766
  371SOL    HW2 1113   2.913   2.226   2.770 -2.2556  1.9965 -0.9364
  372SOL     OW 1114   0.969   2.140   1.122  0.2459  0.1884  0.0137
  372SOL    HW1 1115   0.919   2.175   1.038 -0.0952  1.0677 -1.9824
  372SOL    HW2 1116   1.031   2.210   1.167 -1.3781 -0.7023  0.0535
  373SOL     OW 1117   1.923   1.863   0.983  0.1129  0.0499 -0.8457
  373SOL    HW1 1118   2.010   1.909   1.015  1.4904  3.0184  1.0114
  373SOL    HW2 1119   1.879   1.921   0.909  4.1870 -0.2822 -2.3236
  374SOL     OW 1120   1.962   0.275   0.571  0.3991 -0.0232 -0.2410
  374SOL    HW1 1121   1.914   0.253   0.665 -0.9965  1.9554  0.7230
  374SOL    HW2 1122   2.058   0.308   0.574 -1.5183 -0.2871 -2.4709
  375SOL     OW 1123   2.401   2.105   1.066 -0.3960 -0.6226  0.0971
  375SOL    HW1 1124   2.459   2.079   0.984  0.2778  1.2749  1.0199
  375SOL    HW2 1125   2.458   2.106   1.152 -2.1385 -1.4459 -2.5579
  376SOL     OW 1126   3.099   0.590   1.466  0.7692 -0.3825 -0.1445
  376SOL    HW1 1127   3.121   0.639   1.556  1.3008 -1.0793  3.2649
  376SOL    HW2 1128   3.030   0.515   1.492  0.4002 -0.9942  0.9357
  377SOL     OW 1129   2.291   2.949   0.164  0.6535 -0.0418  0.2358
  377SOL    HW1 1130   2.231   3.013   0.221  0.4411  1.9446  0.1102
  377SOL    HW2 1131   2.319   2.862   0.214  2.9266  0.5655  0.3995
  378SOL     OW 1132   1.907   1.889   2.477  0.0966 -0.2131 -0.4490
  378SOL    HW1 1133   2.001   1.846   2.472  0.6830 -0.5131 -1.5722
  378SOL    HW2 1134   1.831   1.818   2.487 -0.3645 -1.7156  1.2305
  379SOL     OW 1135   0.802   0.164   2.789 -0.2946 -0.1971 -0.4617
  379SOL    HW1 1136   0.821   0.062   2.761 -1.6551 -0.2749 -0.0156
  379SOL    HW2 1137   0.775   0.220   2.705  1.4033 -2.4559  1.8687
  380SOL     OW 1138   1.524   1.098   0.572 -0.4550 -0.0946 -0.0081
  380SOL    HW1 1139   1.461   1.179   0.576  0.2227  1.0053 -0.8996
  380SOL    HW2 1140   1.478   1.002   0.572 -1.5777  1.1444  0.2501
  381SOL     OW 1141   1.274   1.284   1.432 -0.2704  0.6809 -0.1741
  381SOL    HW1 1142   1.334   1.201   1.449 -3.0823  1.9813 -1.3787
  381SOL    HW2 1143   1.322   1.368   1.402  3.5060 -0.9213  0.8555
  382SOL     OW 1144   1.809   0.843   0.264 -0.1810  0.0490  0.2116
  382SOL    HW1 1145   1.807   0.777   0.181 -0.0339  1.0393  1.3600
  382SOL    HW2 1146   1.882   0.823   0.333  2.6265  1.0142 -4.2557
  383SOL     OW 1147   2.521   0.969   1.477  0.4841 -0.2927  0.4071
  383SOL    HW1 1148   2.429   0.923   1.460  1.9062 -1.4756  1.5956
  383SOL    HW2 1149   2.583   0.963   1.398  0.6080  1.0930  1.4635
  384SOL     OW 1150   0.960   2.260   0.211  0.0655 -0.3565 -1.0153
  384SOL    HW1 1151   0.883   2.330   0.193 -0.8824 -0.5457  0.4085
  384SOL    HW2 1152   0.975   2.228   0.308 -0.2605 -2.6617  0.0602
  385SOL     OW 1153   2.897   2.021   1.629 -0.3013 -0.3794  0.1288
  385SOL    HW1 1154   2.987   2.028   1.676 -0.2630 -0.3476 -0.7673
  385SOL    HW2 1155   2.836   1.942   1.661  0.0502  2.2544  0.4043
  386SOL     OW 1156   0.506   1.035   0.441  0.3440  0.2030 -1.0133
  386SOL    HW1 1157   0.490   0.938   0.471  0.4388  2.4893  0.1163
  386SOL    HW2 1158   0.428   1.098   0.445  0.1889  1.7900  3.7400
  387SOL     OW 1159   0.949   0.275   1.657 -0.4968  0.2328  0.5223
  387SOL    HW1 1160   0.955   0.379   1.649  1.9268  0.3977  3.3231
  387SOL    HW2 1161   0.918   0.239   1.565 -2.6904  1.5579 -0.7902
  388SOL     OW 1162   1.255   2.730   1.810  0.6061 -0.0075  0.1634
  388SOL    HW1 1163   1.296   2.734   1.715  0.9366 -2.6335 -1.1027
  388SOL    HW2 1164   1.295   2.648   1.860 -1.5845 -0.8958  1.3746
  389SOL     OW 1165   0.117   2.908   1.361  0.1486 -1.1056  0.3679
  389SOL    HW1 1166   0.024   2.933   1.327 -1.3797  0.2431  0.5202
  389SOL    HW2 1167   0.157   2.823   1.317 -1.1969 -2.7657 -0.2696
  390SOL     OW 1168   1.032   0.941   1.343 -0.2484 -0.8921 -0.6403
  390SOL    HW1 1169   1.129   0.917   1.378 -0.4268 -1.7389  0.7065
  390SOL    HW2 1170   0.990   1.030   1.381  2.2245  1.8899  0.2239
  391SOL     OW 1171   2.158   1.107   1.109  0.4351  0.4548 -0.5070
  391SOL    HW1 1172   2.089   1.041   1.147  2.1699 -2.3675 -1.3349
  391SOL    HW2 1173   2.199   1.071   1.021  0.6531 -3.0880  0.4399
  392SOL     OW 1174   0.932   2.578   0.033  0.3952 -0.6763 -0.2406
  392SOL    HW1 1175   1.023   2.535   0.016 -0.0563  3.1889 -0.5291
  392SOL    HW2 1176   0.878   2.528   0.108  2.0100 -1.1887  0.8111
  393SOL     OW 1177   0.336   0.678   1.964 -0.2773  0.0702  0.7490
  393SOL    HW1 1178   0.326   0.574   1.968  1.8054 -0.4205  2.4970
  393SOL    HW2 1179   0.339   0.715   1.871 -0.6232 -0.7955  0.6229
  394SOL     OW 1180  -0.000   1.935   2.684  0.3395  0.4735 -0.9900
  394SOL    HW1 1181   0.065   1.924   2.762  1.2495 -0.7923  0.7976
  394SOL    HW2 1182  -0.009   1.855   2.614 -2.2703 -1.9298  1.9207
  395SOL     OW 1183   1.631   1.965   0.627 -0.2482 -0.1055 -0.3314
  395SOL    HW1 1184   1.670   1.886   0.582 -2.9368 -0.2734  2.1732
  395SOL    HW2 1185   1.687   1.989   0.712  1.1465 -1.1420  0.3905
  396SOL     OW 1186   2.911   1.917   1.335  0.3143  0.1073  0.4879
  396SOL    HW1 1187   2.870   1.824   1.325  0.1999  1.0945  3.1358
  396SOL    HW2 1188   2.903   1.956   1.430 -1.7413  3.1472  1.8501
  397SOL     OW 1189   1.058   2.234   0.489  0.2492 -0.0325  0.2528
  397SOL    HW1 1190   0.959   2.208   0.507 -1.0182 -1.5396 -1.5251
  397SOL    HW2 1191   1.085   2.321   0.540  0.1689 -0.8623 -0.0678
  398SOL     OW 1192   2.172   3.071   1.176 -0.6728  0.5748 -0.2408
  398SOL    HW1 1193   2.087   3.020   1.193 -0.7541  0.6194  1.0629
  398SOL    HW2 1194   2.152   3.155   1.119  1.7316  1.1457  1.6681
  399SOL     OW 1195   3.072   2.406   2.622  0.4655 -0.6222 -0.7402
  399SOL    HW1 1196   2.989   2.340   2.621 -1.7087  3.2850  2.2905
  399SOL    HW2 1197   3.145   2.363   2.680  1.0818  0.4750 -0.6127
  400SOL     OW 1198   0.680   1.739   1.369  0.8466 -0.7108  0.3930
  400SOL    HW1 1199   0.623   1.771   1.448  0.9713  1.2781  0.0349
  400SOL    HW2 1200   0.730   1.812   1.320 -0.9583  0.4232 -1.3948
  401SOL     OW 1201   1.859   0.318   1.138  0.4147  0.4258 -0.0620
  401SOL    HW1 1202   1.898   0.321   1.235 -1.2366  1.0061 -0.5805
  401SOL    HW2 1203   1.759   0.353   1.141 -2.0083  0.4870  2.1089
  402SOL     OW 1204   1.335   0.248   3.076  0.2192  0.5767 -0.6142
  402SOL    HW1 1205   1.428   0.221   3.041 -0.7791  1.6804  0.9172
  402SOL    HW2 1206   1.304   0.333   3.028  0.8635  0.4125  0.0364
  403SOL     OW 1207   2.203   1.887   0.824 -0.0534  0.3056  0.9190
  403SOL    HW1 1208   2.305   1.915   0.809 -1.1373  1.8041 -2.6556
  403SOL    HW2 1209   2.164   1.918   0.916 -1.1017 -0.1379 -1.0911
  404SOL     OW 1210   0.304   2.510   2.771  0.2470  0.6714  0.2591
  404SOL    HW1 1211   0.374   2.495   2.697  0.3501  1.9450 -0.0027
  404SOL    HW2 1212   0.292   2.609   2.799  0.6428  2.7312  1.2022
  405SOL     OW 1213   0.148   2.413   0.667 -0.3534 -0.4219 -0.7112
  405SOL    HW1 1214   0.139   2.324   0.619  1.7115  4.3964  1.3901
  405SOL    HW2 1215   0.230   2.472   0.636 -1.2626 -1.3855  1.4845
  406SOL     OW 1216   0.062   1.555   3.048  0.4791 -0.1193 -0.2334
  406SOL    HW1 1217   0.124   1.494   2.995  0.4319  1.9110  3.4198
  406SOL    HW2 1218   0.100   1.591   3.137 -0.4959  0.2173 -0.7424
  407SOL     OW 1219   1.612   0.861   0.955 -0.0588 -0.2409 -0.2412
  407SOL    HW1 1220   1.613   0.831   0.853  1.5367  0.5146 -0.6757
  407SOL    HW2 1221   1.542   0.935   0.979 -0.3703  2.4648  0.8471
  408SOL     OW 1222   1.591   2.414   0.982  0.7156  0.8311 -0.1658
  408SOL    HW1 1223   1.651   2.379   0.907 -1.5612 -0.1466 -0.7530
  408SOL    HW2 1224   1.542   2.504   0.965 -0.5871  2.9913  0.3466
  409SOL     OW 1225   0.602   0.814   0.680  0.0308 -0.2429 -0.1326
  409SOL    HW1 1226   0.543   0.807   0.594  0.0052 -1.5004 -0.5250
  409SOL    HW2 1227   0.620   0.721   0.715 -0.8668 -1.9973  0.2141
  410SOL     OW 1228   1.187   2.039   1.430  0.0124  0.7534 -0.2747
  410SOL    HW1 1229   1.252   1.956   1.443  1.4267 -0.7959  1.2914
  410SOL    HW2 1230   1.094   2.008   1.405  0.7887 -0.6824 -1.8301
  411SOL     OW 1231   2.545   1.820   2.993  0.4814 -0.1749 -0.8806
  411SOL    HW1 1232   2.572   1.915   2.954 -1.6193  0.8852 -1.2556
  411SOL    HW2 1233   2.471   1.769   2.943 -0.0503 -1.0806  1.6791
  412SOL     OW 1234   1.491   2.448   2.171  0.1124 -0.1167 -0.1363
  412SOL    HW1 1235   1.562   2.486   2.233 -1.6466 -1.0438  2.5316
  412SOL    HW2 1236   1.406   2.417   2.223 -0.8329  1.1210 -1.6770
  413SOL     OW 1237   0.042   0.269   3.021  0.0934  0.6316 -0.4240
  413SOL    HW1 1238  -0.004   0.185   3.065 -1.3572  0.5660  3.5011
  413SOL    HW2 1239   0.145   0.277   3.050  0.3574  0.4006 -0.7577
  414SOL     OW 1240   1.734   1.522   1.119  0.0940 -0.2965 -0.5904
  414SOL    HW1 1241   1.676   1.596   1.162  0.5169 -0.1806  0.1800
  414SOL    HW2 1242   1.758   1.539   1.022  0.7268 -1.3188 -2.8755
  415SOL     OW 1243   0.378   2.178   0.654 -0.2747  0.1337  0.2042
  415SOL    HW1 1244   0.374   2.186   0.754  0.3820  1.7936 -2.7689
  415SOL    HW2 1245   0.289   2.170   0.600  3.1452  1.0744  1.0418
  416SOL     OW 1246   0.357   1.096   1.069  0.1743 -0.3144 -0.4001
  416SOL    HW1 1247   0.321   1.031   0.998  0.9516  2.3982 -0.5311
  416SOL    HW2 1248   0.455   1.123   1.053 -1.0720  0.3630  0.9474
  417SOL     OW 1249   2.338   2.435   2.124 -0.4755  0.1004  0.3100
  417SOL    HW1 1250   2.363   2.331   2.108 -2.5070 -0.0696  1.0507
  417SOL    HW2 1251   2.300   2.453   2.222 -0.7398 -0.3696 -0.4103
  418SOL     OW 1252   1.038   0.526   1.332  0.1972 -0.0603  0.3412
  418SOL    HW1 1253   0.986   0.461   1.267  2.0724 -0.1147  1.1765
  418SOL    HW2 1254   1.107   0.585   1.285 -1.5692 -1.9231 -1.8599
  419SOL     OW 1255   0.887   0.570   2.961  0.3377  0.1067  0.0630
  419SOL    HW1 1256   0.789   0.580   2.987 -2.1498 -0.5951  0.5560
  419SOL    HW2 1257   0.951   0.650   2.976 -1.9674  0.1155  2.0379
  420SOL     OW 1258   0.098   2.191   0.522 -0.3988 -0.1377 -0.2206
  420SOL    HW1 1259   0.143   2.171   0.430 -4.6035  0.2306  0.6351
  420SOL    HW2 1260   0.039   2.113   0.554  1.0175  2.9055 -0.7019
  421SOL     OW 1261   0.331   2.973   0.543  0.5143  0.0721  0.3378
  421SOL    HW1 1262   0.304   2.916   0.622  1.1417 -1.0405 -1.3278
  421SOL    HW2 1263   0.421   3.022   0.558 -0.2490  0.3791  0.9174
  422SOL     OW 1264   1.013   2.568   0.945 -0.0120 -0.2373  0.2155
  422SOL    HW1 1265   1.075   2.626   0.881 -1.4029  1.7049  1.0453
  422SOL    HW2 1266   1.073   2.520   1.018  1.6629  1.6009 -2.0900
  423SOL     OW 1267   0.144   0.684   1.251  0.0894 -0.6157 -0.1652
  423SOL    HW1 1268   0.069   0.664   1.322 -2.4418 -0.2441 -1.2206
  423SOL    HW2 1269   0.121   0.754   1.178  1.4737 -2.7444  2.0542
  424SOL     OW 1270   1.130   2.196   2.042  0.0562 -0.4733  0.4797
  424SOL    HW1 1271   1.092   2.292   2.029  1.3027 -0.0992 -3.2173
  424SOL    HW2 1272   1.104   2.147   2.131  0.5924 -0.9767  0.9599
  425SOL     OW 1273   1.942   1.272   1.003  0.6651 -0.7933  0.2637
  425SOL    HW1 1274   2.032   1.230   1.025  1.3937  2.1910 -0.7373
  425SOL    HW2 1275   1.932   1.373   1.011  0.6629 -2.0080  0.2918
  426SOL     OW 1276   1.463   1.633   1.240 -0.0486  0.8541  0.2209
  426SOL    HW1 1277   1.456   1.718   1.185 -0.0469 -0.4249  1.6840
  426SOL    HW2 1278   1.386   1.628   1.309 -0.2820 -2.5800  0.0574
  427SOL     OW 1279   1.942   2.424   2.087  0.0667  0.3559 -0.0232
  427SOL    HW1 1280   1.996   2.357   2.143  1.5375  0.1335 -0.3036
  427SOL    HW2 1281   1.967   2.528   2.096  1.8121  3.7640  0.6473
  428SOL     OW 1282   0.873   0.040   0.041  0.1787 -0.8198 -0.5308
  428SOL    HW1 1283   0.901   0.118  -0.024 -1.5478 -0.7287 -1.1682
  428SOL    HW2 1284   0.937  -0.037   0.050 -0.4662  0.8679 -0.0607
  429SOL     OW 1285   1.286   0.175   0.236 -0.3649  0.4627 -0.3167
  429SOL    HW1 1286   1.375   0.172   0.292  1.7356 -0.2739  0.0948
  429SOL    HW2 1287   1.307   0.181   0.139  2.1000  0.2920  0.8962
  430SOL     OW 1288   2.908   1.413   0.280  1.0749  0.7898  0.3135
  430SOL    HW1 1289   2.919   1.450   0.182 -0.3837  1.3677 -0.7227
  430SOL    HW2 1290   2.836   1.454   0.340 -3.6820  1.8360  2.9404
  431SOL     OW 1291   2.068   1.557   0.899  0.2498 -0.3955 -0.1362
  431SOL    HW1 1292   2.124   1.608   0.971  1.3792  0.6317  0.2421
  431SOL    HW2 1293   1.984   1.609   0.870 -0.0439 -0.3895  1.7648
  432SOL     OW 1294   2.937   2.163   1.211  0.1747  0.0090 -0.4454
  432SOL    HW1 1295   2.890   2.076   1.237 -0.6333  2.3225 -1.5386
  432SOL    HW2 1296   2.959   2.216   1.299  1.4551  0.3137  0.1845
  433SOL     OW 1297   1.864   0.256   0.815 -0.1904 -0.1709 -0.0310
  433SOL    HW1 1298   1.794   0.284   0.882  1.9175 -0.9987  1.0433
  433SOL    HW2 1299   1.951   0.233   0.868  1.5245 -1.7123  4.1116
  434SOL     OW 1300   1.569   0.274   0.705  0.1050 -0.2118  0.4891
  434SOL    HW1 1301   1.555   0.349   0.639  2.2860 -0.8661  3.8528
  434SOL    HW2 1302   1.596   0.320   0.793 -1.5609  1.4658  1.3527
  435SOL     OW 1303   1.482   1.436   2.108  0.3036  0.8168 -0.1690
  435SOL    HW1 1304   1.467   1.454   2.205 -0.5187  1.7225 -0.7453
  435SOL    HW2 1305   1.483   1.521   2.049 -1.8479 -1.5794 -1.1241
  436SOL     OW 1306   1.717   2.722   2.259  0.0954 -0.0945  0.2329
  436SOL    HW1 1307   1.668   2.791   2.322 -0.3917  2.4315  1.3855
  436SOL    HW2 1308   1.713   2.626   2.296  1.2693  2.3282  1.5235
  437SOL     OW 1309   1.130   2.972   0.896  0.3502 -0.0563 -0.2791
  437SOL    HW1 1310   1.037   3.010   0.882  0.0504 -0.4580 -0.1945
  437SOL    HW2 1311   1.137   2.938   0.995  1.1462 -0.0540  0.9396
  438SOL     OW 1312   1.012   2.692   1.522 -0.4622 -0.3282  0.0867
  438SOL    HW1 1313   1.110   2.715   1.493 -1.7206 -0.9968 -1.6473
  438SOL    HW2 1314   0.967   2.618   1.462  1.0607  0.8638  3.0016
  439SOL     OW 1315   0.713   1.867   1.119 -0.0253  0.5270  0.3733
  439SOL    HW1 1316   0.708   1.933   1.041  1.7220 -2.8958 -3.6013
  439SOL    HW2 1317   0.621   1.821   1.133  0.9935 -0.4328 -1.6790
  440SOL     OW 1318   1.042   2.462   1.981 -0.3935 -0.4211 -0.2016
  440SOL    HW1 1319   0.991   2.482   1.894  0.5903  0.0146  1.5383
  440SOL    HW2 1320   1.107   2.539   2.011 -2.0676  1.6105 -0.1088
  441SOL     OW 1321   0.390   2.712   1.519  0.1481  0.2907  0.5322
  441SOL    HW1 1322   0.458   2.638   1.552  2.3676 -2.0155 -0.8140
  441SOL    HW2 1323   0.366   2.704   1.420  1.4354  2.2118 -0.6036
  442SOL     OW 1324   2.254   0.678   2.524 -0.0713  0.2165  0.0365
  442SOL    HW1 1325   2.263   0.586   2.570  0.5419  1.2218 -0.7710
  442SOL    HW2 1326   2.163   0.725   2.547  3.1800  3.6063 -0.9568
  443SOL     OW 1327   1.209   2.664   2.212 -0.0500  0.3845 -0.1183
  443SOL    HW1 1328   1.197   2.721   2.300  1.5765  1.7163  0.5534
  443SOL    HW2 1329   1.260   2.574   2.228 -0.2796 -1.8851 -1.5461
  444SOL     OW 1330   1.031   1.319   1.547 -0.1960 -0.2042 -0.1148
  444SOL    HW1 1331   1.133   1.310   1.528  0.5730 -1.0356 -0.7744
  444SOL    HW2 1332   1.003   1.418   1.535 -0.4050 -0.4963  1.8012
  445SOL     OW 1333   3.092   2.385   1.947  0.1913 -0.3203 -0.6396
  445SOL    HW1 1334   3.089   2.480   1.897 -1.1512  1.6356 -0.2178
  445SOL    HW2 1335   3.002   2.361   1.995 -1.6459 -1.6710 -1.3384
  446SOL     OW 1336   0.197   1.889   2.397 -0.1786  0.1699  0.6290
  446SOL    HW1 1337   0.168   1.989   2.417 -2.5735  1.3430  2.4883
  446SOL    HW2 1338   0.142   1.855   2.311 -0.2647  1.0493 -3.5310
  447SOL     OW 1339   1.235   1.628   1.936 -0.2769 -0.5431  0.4188
  447SOL    HW1 1340   1.176   1.713   1.914  0.1940 -0.1978 -0.4652
  447SOL    HW2 1341   1.331   1.661   1.956  0.9283 -2.2120 -1.0241
  448SOL     OW 1342   0.117   1.561   1.918  0.2122  0.0761 -0.1035
  448SOL    HW1 1343   0.141   1.659   1.900  1.2859 -1.4091 -1.2261
  448SOL    HW2 1344   0.161   1.534   2.005 -1.7551  0.9275  3.6059
  449SOL     OW 1345   2.020   2.941   0.904 -0.2235 -0.9261  0.5622
  449SOL    HW1 1346   2.064   2.974   0.993 -0.8309 -1.0982 -1.3439
  449SOL    HW2 1347   1.979   2.846   0.910  0.4332 -0.9603 -0.1610
  450SOL     OW 1348   2.261   1.330   0.924 -0.2017 -0.1598  0.5120
  450SOL    HW1 1349   2.271   1.224   0.915 -0.2958  0.2750 -3.3535
  450SOL    HW2 1350   2.241   1.383   0.840  0.9042 -3.2147  1.7496
  451SOL     OW 1351   1.432   0.029   1.442  0.2438 -0.8229  0.2943
  451SOL    HW1 1352   1.331   0.055   1.436  1.4255  0.3625 -0.3318
  451SOL    HW2 1353   1.449  -0.034   1.523  0.2088 -0.0896  1.4047
  452SOL     OW 1354   2.655   2.357   2.244  0.6102  1.0154  0.1716
  452SOL    HW1 1355   2.609   2.433   2.289  2.1577 -2.9569 -3.6825
  452SOL    HW2 1356   2.695   2.287   2.312  0.5583 -0.1726  1.2489
  453SOL     OW 1357   2.443   2.620   3.052  0.6025  0.2875  0.2942
  453SOL    HW1 1358   2.363   2.687   3.064 -2.1109  0.5650  2.2665
  453SOL    HW2 1359   2.416   2.543   2.985  0.0374 -0.0496  0.8923
  454SOL     OW 1360   0.973   1.082   2.041  0.4325  1.0338  0.2924
  454SOL    HW1 1361   0.965   1.127   1.944 -1.5566  2.0306 -1.4815
  454SOL    HW2 1362   1.065   1.060   2.079  0.9604  2.0555  1.4305
  455SOL     OW 1363   0.636   2.617   2.902 -0.2564 -0.3713  0.2696
  455SOL    HW1 1364   0.700   2.683   2.948  2.3099 -1.7156 -0.4583
  455SOL    HW2 1365   0.614   2.533   2.959  0.8818 -0.1523 -3.0114
  456SOL     OW 1366   0.482   1.775   0.305 -0.7648 -0.1957 -0.5938
  456SOL    HW1 1367   0.572   1.722   0.279 -0.1596  0.5737 -1.7838
  456SOL    HW2 1368   0.483   1.865   0.258 -3.1659  0.9784 -2.4269
  457SOL     OW 1369   0.358   2.562   0.596  0.4390  0.7150 -0.7719
  457SOL    HW1 1370   0.380   2.623   0.516  0.7419 -0.1163 -0.3294
  457SOL    HW2 1371   0.434   2.556   0.667  1.1644  0.9774 -1.2659
  458SOL     OW 1372   2.996   2.971   1.209 -0.2680 -0.0432 -0.6731
  458SOL    HW1 1373   2.975   3.071   1.217  0.0996  1.2237 -0.3920
  458SOL    HW2 1374   3.026   2.933   1.118  0.1072  0.0056  0.3036
  459SOL     OW 1375   2.180   2.588   0.841  0.1217  0.2077  0.0746
  459SOL    HW1 1376   2.214   2.650   0.913  2.0605  0.2672 -2.9915
  459SOL    HW2 1377   2.260   2.552   0.786  2.0975  0.7176 -0.9233
  460SOL     OW 1378   1.070   1.946   2.900  0.6248  0.4429 -0.0657
  460SOL    HW1 1379   1.089   2.010   2.820 -0.2859 -0.0218 -0.2596
  460SOL    HW2 1380   1.156   1.907   2.951  2.1573  1.1294  0.8054
  461SOL     OW 1381   0.555   2.142   2.677  0.0541  0.3838 -0.1533
  461SOL    HW1 1382   0.488   2.067   2.644 -3.1428 -0.2255 -0.1151
  461SOL    HW2 1383   0.597   2.124   2.769  2.0107  0.1762 -2.8834
  462SOL     OW 1384   0.951   1.156   1.759 -0.6841  0.2728 -0.0263
  462SOL    HW1 1385   0.997   1.060   1.743 -0.4518 -2.5225 -1.2297
  462SOL    HW2 1386   1.010   1.235   1.717  0.2680 -2.5872  1.8987
  463SOL     OW 1387   0.463   0.753   0.449  0.2184 -0.2212 -0.3125
  463SOL    HW1 1388   0.478   0.652   0.435  1.3711  1.2665 -0.6309
  463SOL    HW2 1389   0.361   0.774   0.462 -0.3781 -0.5129  1.1405
  464SOL     OW 1390   0.515   2.240   2.245  0.3309  0.4303  0.4335
  464SOL    HW1 1391   0.428   2.293   2.267  0.1781 -0.3920 -0.4994
  464SOL    HW2 1392   0.567   2.276   2.162 -0.3198 -1.2654  0.7966
  465SOL     OW 1393   0.312   0.882   0.875  0.6588 -0.1360  0.0918
  465SOL    HW1 1394   0.229   0.894   0.818  0.6048 -0.5726  2.3029
  465SOL    HW2 1395   0.325   0.790   0.919 -0.2789  0.0774  1.5996
  466SOL     OW 1396   1.388   1.112   1.133  0.0929 -0.0756  0.0995
  466SOL    HW1 1397   1.464   1.184   1.115  2.0326  0.4241  1.9128
  466SOL    HW2 1398   1.300   1.148   1.094  0.4901  1.6012  0.0581
  467SOL     OW 1399   0.470   0.394   2.421  0.5824 -0.6344 -0.3859
  467SOL    HW1 1400   0.423   0.480   2.451 -2.8296 -1.0608 -0.2809
  467SOL    HW2 1401   0.501   0.321   2.492 -1.0008 -0.5002  1.9672
  468SOL     OW 1402   0.491   2.259   1.730 -0.0138  0.2500  0.5817
  468SOL    HW1 1403   0.526   2.343   1.776 -0.3699  1.0927 -0.3765
  468SOL    HW2 1404   0.469   2.274   1.631 -0.9575 -1.0367  1.8233
  469SOL     OW 1405   1.576   1.302   1.109 -0.2625  0.0050  0.1932
  469SOL    HW1 1406   1.651   1.230   1.120  0.0433  2.7736 -0.4468
  469SOL    HW2 1407   1.607   1.397   1.133  0.4313 -0.1742 -0.6274
  470SOL     OW 1408   3.002   1.604   0.758 -0.0909  0.0445  0.1936
  470SOL    HW1 1409   3.095   1.627   0.797  2.4466  2.0270  2.3973
  470SOL    HW2 1410   2.928   1.673   0.788 -1.0331  0.5265 -0.6200
  471SOL     OW 1411   2.590   1.299   2.190 -0.1984  0.2611  0.5155
  471SOL    HW1 1412   2.580   1.228   2.259 -0.2379  0.3629 -3.6057
  471SOL    HW2 1413   2.630   1.389   2.226  1.4350 -1.9631 -0.3689
  472SOL     OW 1414   1.163   2.463   3.068  0.7477  0.2012 -0.3312
  472SOL    HW1 1415   1.192   2.462   3.168 -2.4961 -1.3095 -0.0784
  472SOL    HW2 1416   1.132   2.369   3.032 -0.7401 -0.9116  0.2545
  473SOL     OW 1417   1.047   1.524   0.895  0.2449 -0.4508 -0.1692
  473SOL    HW1 1418   0.953   1.555   0.935 -0.6694 -0.0775  2.2456
  473SOL    HW2 1419   1.118   1.517   0.968  1.3487  0.1253 -0.5844
  474SOL     OW 1420   0.754   1.264   0.783 -0.4631  0.0054  0.0689
  474SOL    HW1 1421   0.730   1.259   0.679 -1.7276  1.1358 -0.7767
  474SOL    HW2 1422   0.852   1.228   0.804 -0.7503  0.3276 -0.5159
  475SOL     OW 1423   2.877   0.027   0.829 -0.6990  0.0554  0.2308
  475SOL    HW1 1424   2.951   0.041   0.899  2.0113 -1.6868  2.0154
  475SOL    HW2 1425   2.790   0.066   0.860  0.2500 -0.9878  0.7903
  476SOL     OW 1426   0.965   3.055   1.960  0.2422 -0.7235 -0.0494
  476SOL    HW1 1427   1.008   2.977   2.014 -0.5237 -1.0866 -1.2177
  476SOL    HW2 1428   0.972   3.035   1.858  2.4910  1.5700  0.8909
  477SOL     OW 1429   1.492   0.400   2.434  0.1005 -0.6635 -0.1893
  477SOL    HW1 1430   1.463   0.388   2.533 -1.0751 -2.4219 -0.7338
  477SOL    HW2 1431   1.580   0.351   2.420 -0.2067  0.2138 -0.3020
  478SOL     OW 1432   2.209   1.845   0.239  0.5330  0.1492 -0.1284
  478SOL    HW1 1433   2.140   1.764   0.232  0.6995  0.0051  0.4802
  478SOL    HW2 1434   2.306   1.807   0.235  1.7286 -0.4960 -0.3849
  479SOL     OW 1435   1.255   1.162   2.871  0.7801 -0.6395  0.6338
  479SOL    HW1 1436   1.346   1.155   2.819  1.9704  2.4263  1.4878
  479SOL    HW2 1437   1.177   1.119   2.823  3.6014  1.1617  2.2057
  480SOL     OW 1438   2.498   2.340   0.415 -0.1064  0.3943  0.3897
  480SOL    HW1 1439   2.455   2.267   0.471  1.6959 -0.9302  0.3949
  480SOL    HW2 1440   2.439   2.361   0.329  0.9453  0.7050  1.1055
  481SOL     OW 1441   1.057   1.174   0.839 -0.0267 -0.6156  0.2653
  481SOL    HW1 1442   1.085   1.237   0.760  1.3341  2.5198  0.8107
  481SOL    HW2 1443   1.089   1.207   0.930  0.7273  0.9715  0.0014
  482SOL     OW 1444   1.593   0.289   2.015  0.2526  0.0957  0.0971
  482SOL    HW1 1445   1.604   0.390   1.985 -0.6499  1.1957  2.7805
  482SOL    HW2 1446   1.681   0.251   2.059 -2.7520  1.4080  0.2091
  483SOL     OW 1447   0.117   2.364   1.330  0.5329 -0.1443  0.5632
  483SOL    HW1 1448   0.015   2.351   1.344  0.9823 -1.1271  0.8651
  483SOL    HW2 1449   0.142   2.376   1.231  3.6907  1.0625 -1.3071
  484SOL     OW 1450   1.699   0.957   1.380  0.2175  0.3772 -0.0544
  484SOL    HW1 1451   1.772   0.932   1.450 -1.3282 -0.2998  1.0370
  484SOL    HW2 1452   1.727   1.022   1.304 -1.1148 -2.4378 -0.1961
  485SOL     OW 1453   0.670   1.140   1.806 -0.0394 -0.7396  0.0943
  485SOL    HW1 1454   0.672   1.086   1.719  2.6845  0.2770  1.2888
  485SOL    HW2 1455   0.760   1.191   1.820 -0.6325  2.1095 -1.4532
  486SOL     OW 1456   0.870   1.911   2.456  0.1799  0.1603  0.4480
  486SOL    HW1 1457   0.915   1.870   2.545 -0.6269 -0.1884  1.0809
  486SOL    HW2 1458   0.811   2.001   2.475 -0.8992 -0.5964  1.6746
  487SOL     OW 1459   1.776   1.545   0.852 -0.1682  0.4007  0.0607
  487SOL    HW1 1460   1.768   1.452   0.800  0.8935  0.4407 -0.3792
  487SOL    HW2 1461   1.820   1.625   0.795  0.3527  2.1821  1.1485
  488SOL     OW 1462   2.986   0.960   2.212  0.2331  0.1543  0.1892
  488SOL    HW1 1463   3.005   0.870   2.167  0.9110 -1.2196 -2.3176
  488SOL    HW2 1464   3.004   0.957   2.312  2.0155  3.8070 -3.0046
  489SOL     OW 1465   2.760   0.210   1.371  0.0615  0.3659  0.0615
  489SOL    HW1 1466   2.750   0.170   1.466  0.0026 -2.1724  0.8911
  489SOL    HW2 1467   2.856   0.200   1.338 -0.2847  0.0192  0.6288
  490SOL     OW 1468   1.394   2.993   2.809 -0.3316 -0.3173 -0.6449
  490SOL    HW1 1469   1.438   2.898   2.813  2.3387 -2.2952  1.0079
  490SOL    HW2 1470   1.383   3.027   2.709 -1.2444  3.4613 -2.3427
  491SOL     OW 1471   1.886   1.545   2.687 -0.2092 -0.3490 -0.2234
  491SOL    HW1 1472   1.868   1.602   2.773 -3.6834  2.8130  0.9112
  491SOL    HW2 1473   1.983   1.522   2.663  0.5541  0.0604  0.6900
  492SOL     OW 1474   0.500   1.937   0.721 -0.3921 -0.1029 -0.6561
  492SOL    HW1 1475   0.579   1.962   0.780 -0.9938  1.2206 -0.9391
  492SOL    HW2 1476   0.466   2.019   0.660  0.2010 -2.2399 -0.9574
  493SOL     OW 1477   0.492   1.399   2.146 -0.0140 -0.1000  0.0185
  493SOL    HW1 1478   0.400   1.448   2.151 -0.6114 -0.5213 -0.7486
  493SOL    HW2 1479   0.487   1.306   2.192  0.0958  1.3309  1.6320
  494SOL     OW 1480   2.579   2.577   0.192  0.2113 -0.7701  0.2310
  494SOL    HW1 1481   2.603   2.476   0.208  1.2780  1.0664  0.2639
  494SOL    HW2 1482   2.555   2.596   0.096  0.6299 -0.8763  1.4481
  495SOL     OW 1483   2.749   2.668   2.687  0.1870  0.6688  0.3334
  495SOL    HW1 1484   2.733   2.580   2.631 -1.5497 -2.2223 -0.5448
  495SOL    HW2 1485   2.756   2.752   2.623 -0.5854 -1.6233  0.6006
  496SOL     OW 1486   2.092   2.205   0.710  0.5679 -0.1380 -0.0563
  496SOL    HW1 1487   2.120   2.230   0.799  1.5049  0.5989 -0.0594
  496SOL    HW2 1488   2.091   2.101   0.689  0.9842  0.0663 -0.4516
  497SOL     OW 1489   0.254   2.969   2.395 -0.0773  0.0278  0.1868
  497SOL    HW1 1490   0.212   3.035   2.465 -2.4323 -0.7640  2.0431
  497SOL    HW2 1491   0.294   3.017   2.312 -0.3754 -3.0467 -3.1442
  498SOL     OW 1492   1.249   1.495   1.096 -0.0712  0.4017  0.6420
  498SOL    HW1 1493   1.335   1.503   1.156  3.0816 -2.3686  0.8904
  498SOL    HW2 1494   1.172   1.545   1.135  3.1866  0.8626 -0.7639
  499SOL     OW 1495   0.857   1.810   0.483 -0.9173 -0.7179 -0.2038
  499SOL    HW1 1496   0.809   1.715   0.485 -0.2855 -2.3154  0.0748
  499SOL    HW2 1497   0.864   1.853   0.577  0.8178  1.5161  2.3057
  500SOL     OW 1498   1.441   2.964   1.649 -0.0558  0.0586 -0.0894
  500SOL    HW1 1499   1.380   2.977   1.731  0.4909  1.2936 -2.1807
  500SOL    HW2 1500   1.478   2.867   1.638 -0.3704 -2.1519 -2.0917
  501SOL     OW 1501   0.800   1.110   2.276  0.5123  0.4125 -0.0911
  501SOL    HW1 1502   0.724   1.047   2.292  3.7954  1.4346  0.4376
  501SOL    HW2 1503   0.857   1.084   2.191  1.6423  1.7742 -3.3711
  502SOL     OW 1504   2.574   0.960   1.745 -0.2482  0.2477  0.0233
  502SOL    HW1 1505   2.561   0.961   1.639  1.4182 -1.6870 -2.6786
  502SOL    HW2 1506   2.564   0.866   1.787 -0.3105 -0.6875 -2.8654
  503SOL     OW 1507   1.311   0.159   0.600 -0.1657  0.3678 -0.6844
  503SOL    HW1 1508   1.239   0.230   0.575  0.7774  0.3071 -2.2658
  503SOL    HW2 1509   1.411   0.192   0.599  0.7324 -1.8140 -0.6793
  504SOL     OW 1510   2.967   2.310   1.434 -0.2917  0.3108 -0.0177
  504SOL    HW1 1511   2.978   2.396   1.495 -2.1402  2.5574  2.5957
  504SOL    HW2 1512   2.873   2.265   1.446  1.4222  0.9261  1.3361
  505SOL     OW 1513   2.279   1.303   1.465  0.0508 -0.4361 -0.3643
  505SOL    HW1 1514   2.263   1.401   1.495 -0.5175 -0.4585  1.7946
  505SOL    HW2 1515   2.358   1.253   1.517  1.2185 -1.2958 -0.8568
  506SOL     OW 1516   1.876   0.313   1.739 -0.1966  0.7590  0.2742
  506SOL    HW1 1517   1.973   0.285   1.717  1.3200 -0.2608 -1.8621
  506SOL    HW2 1518   1.870   0.392   1.803 -0.6399  0.7832 -1.3278
  507SOL     OW 1519   0.516   0.746   2.169  0.3105 -0.2828 -0.3353
  507SOL    HW1 1520   0.449   0.751   2.089 -0.7503  0.9526  0.6305
  507SOL    HW2 1521   0.557   0.652   2.181 -0.2927  0.5320  1.3271
  508SOL     OW 1522   0.178   1.600   0.866 -0.7972  0.5162  0.1108
  508SOL    HW1 1523   0.242   1.669   0.830 -0.1496 -1.5959  1.4427
  508SOL    HW2 1524   0.143   1.632   0.960 -1.2216  2.4711 -2.8277
  509SOL     OW 1525   1.338   1.165   2.576  1.1113 -0.7310 -0.2817
  509SOL    HW1 1526   1.263   1.239   2.578 -1.3457 -1.9517  0.5235
  509SOL    HW2 1527   1.301   1.077   2.549  3.2088  1.0489  0.2409
  510SOL     OW 1528   1.352   2.020   2.049 -0.3791 -0.2898 -0.1132
  510SOL    HW1 1529   1.281   2.088   2.027 -2.5577 -0.5489 -0.0543
  510SOL    HW2 1530   1.323   1.942   2.114  1.5291 -0.7097  1.6693
  511SOL     OW 1531   3.029   2.637   1.294  0.4244 -0.1900  0.0204
  511SOL    HW1 1532   2.998   2.600   1.204 -0.4136  0.2325 -0.1415
  511SOL    HW2 1533   2.950   2.654   1.358 -1.6577  2.6356  1.4351
  512SOL     OW 1534   2.412   0.357   1.452  0.1895  0.2084  0.3496
  512SOL    HW1 1535   2.305   0.356   1.451  0.6391 -0.8721  0.1321
  512SOL    HW2 1536   2.457   0.304   1.379  0.4677 -0.8876  1.7440
  513SOL     OW 1537   2.496   2.031   0.839 -0.2872  0.5572 -0.7885
  513SOL    HW1 1538   2.442   2.116   0.809  0.7991  0.8885 -0.5312
  513SOL    HW2 1539   2.582   2.022   0.780  0.5314  1.1846  1.4971
  514SOL     OW 1540   0.698   2.820   0.345  0.3974 -0.1985 -0.6325
  514SOL    HW1 1541   0.645   2.891   0.289 -2.7290  0.1144 -1.2327
  514SOL    HW2 1542   0.736   2.854   0.438  1.0163  0.5140  0.3985
  515SOL     OW 1543   1.939   1.237   2.333  0.0993  0.2472  0.2357
  515SOL    HW1 1544   1.857   1.241   2.265  0.3273  0.3755 -1.5360
  515SOL    HW2 1545   1.921   1.259   2.433  3.7967  1.5015  3.0496
  516SOL     OW 1546   0.302   0.398   2.006  0.3222 -0.4425 -0.1663
  516SOL    HW1 1547   0.390   0.382   1.961 -1.6380 -0.6029  0.6131
  516SOL    HW2 1548   0.220   0.356   1.957  3.1968 -2.1658  1.5116
  517SOL     OW 1549   0.351   2.969   1.197 -0.2182  0.1462 -0.3810
  517SOL    HW1 1550   0.397   3.061   1.206  1.6881 -1.3575 -1.8347
  517SOL    HW2 1551   0.275   2.946   1.270 -1.8768 -0.1954 -0.1048
  518SOL     OW 1552   2.104   0.175   1.700  0.3155 -0.4492  0.3933
  518SOL    HW1 1553   2.164   0.171   1.787 -1.2556 -0.8134  1.7902
  518SOL    HW2 1554   2.124   0.102   1.633 -0.3643 -0.5392  2.4190
  519SOL     OW 1555   2.357   2.202   2.626  0.2472  0.4072  0.6697
  519SOL    HW1 1556   2.286   2.214   2.698  0.3287  3.0561 -0.1088
  519SOL    HW2 1557   2.386   2.295   2.584 -2.2026  3.6989 -0.9138
  520SOL     OW 1558   1.744   2.879   1.823 -0.3590  0.0658 -0.2380
  520SOL    HW1 1559   1.664   2.847   1.879  0.0314 -1.6185  0.5267
  520SOL    HW2 1560   1.827   2.817   1.823 -2.5235 -1.3850 -1.8398
  521SOL     OW 1561   0.605   0.103   2.146  0.2490 -0.7520 -0.2620
  521SOL    HW1 1562   0.513   0.062   2.167 -1.5048  2.4703  1.0725
  521SOL    HW2 1563   0.674   0.079   2.217 -2.1875  0.6824  1.8949
  522SOL     OW 1564   0.213   1.903   1.518 -0.3829  0.5046  0.0114
  522SOL    HW1 1565   0.247   1.947   1.606  0.3343 -2.3389 -0.6069
  522SOL    HW2 1566   0.213   1.965   1.434  1.8122  1.5807 -0.5286
  523SOL     OW 1567   2.264   3.024   1.618  0.0781 -0.5291  0.3377
  523SOL    HW1 1568   2.281   2.933   1.566 -1.3962  0.1181  0.9284
  523SOL    HW2 1569   2.226   3.005   1.713 -0.9724  2.9652  2.9953
  524SOL     OW 1570   0.229   2.775   2.805 -0.7882 -0.2851 -0.1794
  524SOL    HW1 1571   0.170   2.839   2.860 -0.2558 -0.8615  0.0124
  524SOL    HW2 1572   0.328   2.795   2.788  1.1980  0.7389  1.9723
  525SOL     OW 1573   2.081   1.929   0.482 -0.4755 -0.2231 -0.4275
  525SOL    HW1 1574   2.111   1.844   0.539  2.8905  0.3290  1.2811
  525SOL    HW2 1575   2.118   1.917   0.389 -0.3480 -2.3105  0.1024
  526SOL     OW 1576   0.378   1.521   1.530 -0.1528  0.3065 -0.5640
  526SOL    HW1 1577   0.314   1.480   1.604 -1.1792  0.7775  0.8361
  526SOL    HW2 1578   0.439   1.447   1.487  2.5577  0.2932 -1.3678
  527SOL     OW 1579   1.137   2.887   1.174  0.7721  0.4099 -0.3205
  527SOL    HW1 1580   1.188   2.827   1.237 -2.7545  1.4277 -0.7622
  527SOL    HW2 1581   1.156   2.991   1.188 -0.7202  1.9051 -0.9258
  528SOL     OW 1582   1.312   2.402   0.475 -0.6388  0.0889 -0.4903
  528SOL    HW1 1583   1.345   2.303   0.492  1.9685 -0.3763  1.1841
  528SOL    HW2 1584   1.353   2.475   0.540 -1.0967 -0.1114 -0.4670
  529SOL     OW 1585   1.896   1.744   0.703  0.3334  0.1406  0.0856
  529SOL    HW1 1586   1.850   1.743   0.609 -1.3918  0.9251  1.0897
  529SOL    HW2 1587   1.980   1.806   0.702  3.9978 -0.6019 -1.9343
  530SOL     OW 1588   0.348   2.478   0.216 -0.0451  0.4776  0.3485
  530SOL    HW1 1589   0.324   2.575   0.263 -1.5853  3.0311  1.5758
  530SOL    HW2 1590   0.365   2.407   0.290 -0.1396  0.2872 -0.7191
  531SOL     OW 1591   1.892   0.810   0.936  0.5567 -0.3615  0.3073
  531SOL    HW1 1592   1.897   0.810   0.836 -0.9582  1.0065  0.4662
  531SOL    HW2 1593   1.799   0.845   0.965  3.2097 -0.2074 -1.4290
  532SOL     OW 1594   0.456   1.113   0.736  0.0089 -0.3422 -0.2712
  532SOL    HW1 1595   0.525   1.075   0.672 -0.6954 -1.9325  3.2212
  532SOL    HW2 1596   0.424   1.034   0.793  1.0062 -0.0938 -0.9225
  533SOL     OW 1597   1.705   0.013   2.572  0.3047  0.3038  0.1232
  533SOL    HW1 1598   1.800  -0.031   2.585  0.3295 -1.1656  0.4263
  533SOL    HW2 1599   1.692   0.094   2.634  2.6338 -1.3921 -1.4719
  534SOL     OW 1600   0.360   0.225   1.495  0.4044  0.1317 -0.2269
  534SOL    HW1 1601   0.460   0.221   1.522 -2.3520  2.0957  0.9961
  534SOL    HW2 1602   0.330   0.325   1.491  2.3489  0.4446 -0.6530
  535SOL     OW 1603   1.973   0.328   0.152  0.4991 -0.5206  0.4297
  535SOL    HW1 1604   1.985   0.410   0.211 -0.1184  1.1249 -1.1071
  535SOL    HW2 1605   1.968   0.242   0.212 -1.3759 -1.3265 -1.9496
  536SOL     OW 1606   1.371   2.600   0.961  0.5579  0.0474  0.5886
  536SOL    HW1 1607   1.332   2.571   1.054  0.0597 -2.5128  4.4314
  536SOL    HW2 1608   1.296   2.636   0.893  0.4508  1.2844 -2.4425
  537SOL     OW 1609   0.888   0.239   2.339  0.0282 -0.6760 -0.2405
  537SOL    HW1 1610   0.927   0.289   2.260 -1.6568 -1.0450  1.3810
  537SOL    HW2 1611   0.853   0.142   2.318  2.0368  2.1035  4.4777
  538SOL     OW 1612   1.631   2.377   1.406  0.0987 -0.9456 -0.0116
  538SOL    HW1 1613   1.610   2.277   1.411  2.0231  0.2368  0.5417
  538SOL    HW2 1614   1.717   2.401   1.454 -1.8353  2.2413 -1.2792
  539SOL     OW 1615   0.198   1.588   2.679 -0.1032 -0.1424 -0.6129
  539SOL    HW1 1616   0.112   1.554   2.636 -0.0001 -2.7707  0.6358
  539SOL    HW2 1617   0.183   1.672   2.743 -2.2334  0.6068  0.6402
  540SOL     OW 1618   2.659   1.751   1.950  0.2892  0.1999  0.2717
  540SOL    HW1 1619   2.633   1.662   1.991 -1.1548  1.9369 -0.7918
  540SOL    HW2 1620   2.583   1.816   1.974  2.8671 -1.7690 -2.0182
  541SOL     OW 1621   0.482   2.141   3.071 -0.5163 -0.1082 -0.8243
  541SOL    HW1 1622   0.482   2.107   3.170 -0.7672 -0.3492 -1.8305
  541SOL    HW2 1623   0.386   2.138   3.031  0.5842 -0.6875 -0.0617
  542SOL     OW 1624   2.260   2.614   0.518 -0.2076 -0.0906 -0.8305
  542SOL    HW1 1625   2.243   2.700   0.576  0.8469 -1.8319  0.1547
  542SOL    HW2 1626   2.182   2.546   0.504  2.4036 -1.6340 -3.3438
  543SOL     OW 1627   1.026   1.777   1.590 -0.8289  0.2300 -0.2856
  543SOL    HW1 1628   1.026   1.790   1.688 -3.0161 -3.2124  0.7526
  543SOL    HW2 1629   0.986   1.853   1.534 -2.7124 -1.3068 -0.1990
  544SOL     OW 1630   1.122   0.528   0.152  0.2318 -0.0073  0.1898
  544SOL    HW1 1631   1.105   0.453   0.224 -2.7679 -0.8872 -3.1597
  544SOL    HW2 1632   1.156   0.496   0.063  0.3264  1.7238 -0.4699
  545SOL     OW 1633   1.142   1.784   0.810  0.2806 -0.3598  0.0379
  545SOL    HW1 1634   1.233   1.798   0.763  1.9359 -1.9070 -0.3647
  545SOL    HW2 1635   1.107   1.688   0.809  1.6532  1.5189  1.1122
  546SOL     OW 1636   2.705   1.587   3.005  0.9681  0.0612  0.5016
  546SOL    HW1 1637   2.680   1.687   3.002  3.2632 -1.0650 -2.1044
  546SOL    HW2 1638   2.620   1.521   3.013  0.3280 -0.2876  1.2848
  547SOL     OW 1639   0.709   3.010   2.592  1.0326  0.3658  0.6328
  547SOL    HW1 1640   0.769   2.974   2.670 -0.8634  0.4258 -1.2775
  547SOL    HW2 1641   0.645   2.944   2.558  1.4722 -1.2090 -1.7855
  548SOL     OW 1642   2.039   0.802   3.057 -0.2552  0.2164  0.6622
  548SOL    HW1 1643   1.937   0.780   3.078 -1.5015  2.9737 -0.6881
  548SOL    HW2 1644   2.071   0.887   3.111 -1.7219  1.1181  0.2432
  549SOL     OW 1645   0.664   0.525   0.186 -0.5135 -0.6661  0.0643
  549SOL    HW1 1646   0.620   0.556   0.096 -1.5312  0.5243 -1.2034
  549SOL    HW2 1647   0.742   0.586   0.205 -2.3320 -0.1855 -0.3708
  550SOL     OW 1648   2.602   2.796   2.895  0.5520  0.5283 -0.0356
  550SOL    HW1 1649   2.545   2.721   2.938 -1.0087 -1.1751 -1.7726
  550SOL    HW2 1650   2.666   2.756   2.821  0.5345  0.6962  0.4921
  551SOL     OW 1651   0.257   0.863   0.226 -0.3297  0.0250  0.6119
  551SOL    HW1 1652   0.360   0.856   0.216 -1.1624 -2.7434  1.1998
  551SOL    HW2 1653   0.231   0.865   0.332 -1.1665 -0.4409 -0.0637
  552SOL     OW 1654   0.619   3.031   1.916 -0.3837  0.3679 -0.0280
  552SOL    HW1 1655   0.616   3.108   1.988  2.5861 -0.5400 -0.7942
  552SOL    HW2 1656   0.717   3.002   1.899  1.3498 -0.5820 -0.9444
  553SOL     OW 1657   3.055   2.416   0.374  0.8221 -0.6927  0.0136
  553SOL    HW1 1658   3.082   2.337   0.434 -1.1729  1.4185 -0.6511
  553SOL    HW2 1659   2.949   2.428   0.372 -0.3276  2.4310 -0.6419
  554SOL     OW 1660   2.226   0.335   0.587  0.1628 -0.4513  0.3881
  554SOL    HW1 1661   2.275   0.374   0.503 -0.6781  0.1008  0.9425
  554SOL    HW2 1662   2.258   0.240   0.614 -0.7699 -0.5323  0.4001
  555SOL     OW 1663   0.472   2.817   2.482 -0.3053 -0.3427  0.6331
  555SOL    HW1 1664   0.378   2.866   2.469 -1.2037 -1.0219 -1.9839
  555SOL    HW2 1665   0.496   2.755   2.409  2.5640  2.1811  0.6775
  556SOL     OW 1666   0.849   2.364   1.593 -0.2983 -0.2953  0.2606
  556SOL    HW1 1667   0.888   2.407   1.682 -1.0208 -1.8206 -0.1375
  556SOL    HW2 1668   0.900   2.398   1.509  1.8679  1.5822 -0.5135
  557SOL     OW 1669   0.151   2.165   0.250 -0.9391  0.6517  0.2510
  557SOL    HW1 1670   0.065   2.107   0.233 -0.4776  3.6211  1.7053
  557SOL    HW2 1671   0.187   2.228   0.170 -0.8599  0.4978 -0.0168
  558SOL     OW 1672   2.833   2.187   0.400 -0.1530 -0.1912 -0.1895
  558SOL    HW1 1673   2.798   2.275   0.445 -3.1019  4.8820  1.7773
  558SOL    HW2 1674   2.809   2.189   0.299 -3.3052  1.0318 -1.7796
  559SOL     OW 1675   0.437   2.270   1.452  0.3621  0.1289 -0.8313
  559SOL    HW1 1676   0.344   2.221   1.458 -2.9675 -0.5177  0.7579
  559SOL    HW2 1677   0.491   2.230   1.374  0.6362  0.7525  1.5079
  560SOL     OW 1678   2.175   1.042   0.021  0.0111  0.6788  0.4862
  560SOL    HW1 1679   2.224   1.067   0.107  0.2550  0.4910 -3.2332
  560SOL    HW2 1680   2.242   1.018  -0.056 -1.0957 -2.5851  3.3727
  561SOL     OW 1681   3.037   1.992   0.151 -0.2837  0.1837 -0.4306
  561SOL    HW1 1682   3.010   1.905   0.197 -2.4156 -1.4566 -1.3326
  561SOL    HW2 1683   2.962   2.030   0.090 -1.5408 -1.3165 -2.3537
  562SOL     OW 1684   1.020   2.089   2.286  0.3478  0.5589  0.1233
  562SOL    HW1 1685   1.008   2.167   2.352  0.2323 -1.1145  0.2556
  562SOL    HW2 1686   0.944   2.016   2.289 -1.0891 -2.6269  2.8626
  563SOL     OW 1687   0.665   2.524   2.645 -0.1046 -0.7948 -0.3929
  563SOL    HW1 1688   0.729   2.444   2.642  1.5892 -1.8061 -0.4200
  563SOL    HW2 1689   0.658   2.561   2.742  2.0225 -1.5205  0.1473
  564SOL     OW 1690   2.873   1.420   2.880  0.1926 -0.9029  0.4093
  564SOL    HW1 1691   2.807   1.486   2.931 -2.4406  1.7165  0.8856
  564SOL    HW2 1692   2.945   1.469   2.826 -0.1576  0.1345  2.5773
  565SOL     OW 1693   2.490   1.946   2.645  0.3847 -0.1294 -0.3108
  565SOL    HW1 1694   2.438   2.033   2.637  2.2691  0.3923  1.3053
  565SOL    HW2 1695   2.583   1.968   2.682  2.0549 -2.1919  0.6490
  566SOL     OW 1696   2.008   2.922   1.493  0.7324 -0.0714  0.9243
  566SOL    HW1 1697   1.980   2.828   1.520  2.0353  2.4171 -0.5495
  566SOL    HW2 1698   2.060   2.934   1.406 -1.0047  1.8204  3.0428
  567SOL     OW 1699   2.368   0.045   2.302  0.2031 -0.0600 -0.2408
  567SOL    HW1 1700   2.271   0.055   2.342  1.2611  0.0171  1.9014
  567SOL    HW2 1701   2.366   0.052   2.200  1.9699  0.5071 -1.0214
  568SOL     OW 1702   1.479   1.757   0.196 -0.1151 -0.4228 -0.4542
  568SOL    HW1 1703   1.409   1.833   0.193 -1.2777  1.4346 -0.7559
  568SOL    HW2 1704   1.567   1.779   0.247  2.3574 -0.1178  0.6449
  569SOL     OW 1705   0.237   0.532   0.847 -1.2382 -0.2055 -0.3601
  569SOL    HW1 1706   0.255   0.466   0.764 -1.8205 -0.4334 -1.2572
  569SOL    HW2 1707   0.140   0.537   0.882 -1.3071  2.7472 -1.4733
  570SOL     OW 1708   0.657   0.835   2.915 -0.0356 -0.3303 -0.0815
  570SOL    HW1 1709   0.674   0.875   2.820  0.8271  0.8098  1.5305
  570SOL    HW2 1710   0.661   0.902   2.993 -4.0319 -0.4769  1.6652
  571SOL     OW 1711   0.815   3.030   1.082  0.1801  0.0263  0.4385
  571SOL    HW1 1712   0.884   3.095   1.038  0.8392 -0.5203  1.7015
  571SOL    HW2 1713   0.818   2.929   1.055 -0.7976  0.0363 -1.4263
  572SOL     OW 1714   1.665   2.740   1.415  0.1528 -0.1873 -0.2565
  572SOL    HW1 1715   1.641   2.678   1.332  0.3096  0.2396 -2.8365
  572SOL    HW2 1716   1.688   2.834   1.385 -1.1666 -0.9006  0.1959
  573SOL     OW 1717   3.036   0.475   1.956  0.3741 -0.2381 -0.3406
  573SOL    HW1 1718   2.965   0.406   1.971  0.5178  0.2191 -0.6112
  573SOL    HW2 1719   3.096   0.455   1.875 -1.0889  1.1698  1.3048
  574SOL     OW 1720   0.112   1.688   1.109 -0.1095 -0.3958 -0.3843
  574SOL    HW1 1721   0.169   1.662   1.191 -1.5608  2.0051  1.2509
  574SOL    HW2 1722   0.103   1.793   1.103 -1.3952  0.9675  0.0255
  575SOL     OW 1723   0.839   2.288   0.938  0.0862  0.6848 -0.5870
  575SOL    HW1 1724   0.826   2.332   1.029  0.4419 -0.3027  0.4079
  575SOL    HW2 1725   0.866   2.356   0.860 -2.6255  2.0676 -3.9410
  576SOL     OW 1726   2.938   3.038   1.669 -0.2502 -0.1763  0.1732
  576SOL    HW1 1727   2.842   3.024   1.643 -1.7944  1.9164  0.6380
  576SOL    HW2 1728   2.967   3.139   1.663  2.4604 -0.8325  0.3509
  577SOL     OW 1729   2.655   1.194   3.062 -0.3502  0.2111 -0.2146
  577SOL    HW1 1730   2.685   1.115   3.000  0.0262  1.0986  2.7069
  577SOL    HW2 1731   2.673   1.180   3.163  0.0942 -1.1349 -1.7460
  578SOL     OW 1732   1.366   2.720   2.559 -0.0372  0.4096 -0.1510
  578SOL    HW1 1733   1.271   2.752   2.522 -1.4198  1.3951  0.3711
  578SOL    HW2 1734   1.448   2.770   2.522 -0.4593  0.0800 -0.6972
  579SOL     OW 1735   0.078   2.453   0.126 -0.2260  0.7132  0.2686
  579SOL    HW1 1736   0.026   2.443   0.213 -0.0126 -0.5102  1.7920
  579SOL    HW2 1737   0.180   2.464   0.137 -0.6803 -4.0669 -0.8745
  580SOL     OW 1738   0.973   2.693   0.344  0.1678  0.0381 -0.0076
  580SOL    HW1 1739   1.063   2.699   0.288 -0.1013 -0.2134  0.1881
  580SOL    HW2 1740   0.889   2.721   0.290 -0.0260  2.3682  0.7894
  581SOL     OW 1741   1.281   2.712   1.419 -0.0076  0.3957 -0.6199
  581SOL    HW1 1742   1.325   2.617   1.429  1.9429 -2.1696 -0.5615
  581SOL    HW2 1743   1.346   2.790   1.393  0.5810  0.5877 -0.6425
  582SOL     OW 1744   1.432   0.094   1.844 -0.8232  0.3326 -0.0794
  582SOL    HW1 1745   1.464   0.187   1.884 -0.0286  2.2686  0.5796
  582SOL    HW2 1746   1.495   0.056   1.772 -0.1616 -0.2930 -0.6162
  583SOL     OW 1747   2.487   2.986   0.486  0.5532 -0.1441  0.1033
  583SOL    HW1 1748   2.549   2.949   0.416 -1.0319  1.4030  1.7520
  583SOL    HW2 1749   2.434   2.914   0.542  1.6725  0.5302  2.6617
  584SOL     OW 1750   1.490   1.044   2.274 -0.8162 -0.3650  0.0125
  584SOL    HW1 1751   1.536   1.135   2.259  0.3429 -0.3181  1.6628
  584SOL    HW2 1752   1.565   0.979   2.299 -0.4986  0.9640 -3.1448
  585SOL     OW 1753   2.048   2.667   2.878  0.5534 -0.5591 -0.5367
  585SOL    HW1 1754   2.103   2.580   2.870  0.7923  1.1759  0.0436
  585SOL    HW2 1755   1.943   2.666   2.880 -1.2646  1.5865 -0.7718
  586SOL     OW 1756   2.883   0.389   1.594 -0.6252  0.0676  0.3109
  586SOL    HW1 1757   2.869   0.482   1.629 -2.4657 -0.4517  2.5966
  586SOL    HW2 1758   2.813   0.314   1.631 -2.2908  0.3491  0.4987
  587SOL     OW 1759   2.162   1.474   2.757 -0.5898  0.1789 -0.3035
  587SOL    HW1 1760   2.150   1.426   2.665 -3.5417 -1.2662 -1.6465
  587SOL    HW2 1761   2.257   1.493   2.782  0.7244 -0.9317 -1.3426
  588SOL     OW 1762   0.447   2.639   2.247  0.0492  0.4537 -1.0347
  588SOL    HW1 1763   0.440   2.717   2.184 -1.4239  0.8786  2.0027
  588SOL    HW2 1764   0.392   2.549   2.222 -0.9439 -0.4335 -0.3667
  589SOL     OW 1765   2.163   1.376   2.490 -0.1636 -0.0168 -0.4562
  589SOL    HW1 1766   2.105   1.345   2.408 -0.6072 -1.1360  1.3007
  589SOL    HW2 1767   2.259   1.341   2.481  1.8206  1.0606  0.3805
  590SOL     OW 1768   2.335   1.672   2.049 -0.1816  0.0056 -0.3547
  590SOL    HW1 1769   2.421   1.615   2.041 -1.1733  1.0531  1.2940
  590SOL    HW2 1770   2.312   1.704   2.146  0.4649 -1.3438 -1.2303
  591SOL     OW 1771   1.283   2.404   0.209 -0.0091  0.1416 -0.1042
  591SOL    HW1 1772   1.310   2.313   0.166 -0.6367  1.4661  2.2281
  591SOL    HW2 1773   1.301   2.410   0.313 -1.7000  1.7262  3.0857
  592SOL     OW 1774   1.799   2.343   0.789 -0.3617 -0.1761 -0.2972
  592SOL    HW1 1775   1.779   2.386   0.698  1.7061 -0.5830  0.2656
  592SOL    HW2 1776   1.885   2.381   0.822  1.6526 -2.8314 -1.8669
  593SOL     OW 1777   0.771   0.282   0.199  0.6217 -0.9666  0.7636
  593SOL    HW1 1778   0.796   0.251   0.102  0.4611 -0.3998 -0.8753
  593SOL    HW2 1779   0.738   0.381   0.201  0.7142 -1.4055  0.6936
  594SOL     OW 1780   0.990   1.816   2.670 -1.1441 -0.4115  0.8383
  594SOL    HW1 1781   1.089   1.788   2.655 -2.6219  1.3366  1.3635
  594SOL    HW2 1782   0.979   1.859   2.762 -0.7093 -0.5916 -3.7954
  595SOL     OW 1783   1.577   0.121   1.006  0.0057 -0.2299  0.4281
  595SOL    HW1 1784   1.630   0.033   1.024  1.1961  0.7581 -0.2858
  595SOL    HW2 1785   1.495   0.095   0.948  2.1016 -3.5317  0.9757
  596SOL     OW 1786   0.222   1.482   2.167  0.6434  0.2824  0.2932
  596SOL    HW1 1787   0.217   1.386   2.198 -2.2023  0.7765  0.4958
  596SOL    HW2 1788   0.219   1.551   2.250  1.9237  3.6204  2.0111
  597SOL     OW 1789   1.952   2.701   1.817 -0.2394 -0.1302 -0.1179
  597SOL    HW1 1790   1.927   2.669   1.721  2.2574  3.7628  0.9837
  597SOL    HW2 1791   2.036   2.652   1.854  0.5921 -0.5096 -1.1808
  598SOL     OW 1792   2.526   2.776   1.235  0.4823 -0.3143  0.1370
  598SOL    HW1 1793   2.630   2.775   1.239 -0.0396 -0.9426  2.0324
  598SOL    HW2 1794   2.486   2.682   1.222 -0.1746  0.9785  1.5309
  599SOL     OW 1795   2.893   0.312   2.511 -0.1679  0.2045 -0.1333
  599SOL    HW1 1796   2.976   0.321   2.443  2.0256 -2.0889 -0.5440
  599SOL    HW2 1797   2.809   0.358   2.465  0.2396  1.6579 -1.4356
  600SOL     OW 1798   2.743   1.208   2.734 -0.2125  0.2866 -0.2730
  600SOL    HW1 1799   2.647   1.183   2.766 -0.0073 -1.2159  2.4394
  600SOL    HW2 1800   2.792   1.272   2.799 -0.2361 -1.2708  0.6048
  601SOL     OW 1801   3.038   1.376   1.892  0.2799  0.6959 -0.0748
  601SOL    HW1 1802   2.947   1.396   1.844 -0.4247 -1.5215 -1.6473
  601SOL    HW2 1803   3.106   1.457   1.892  1.7223 -1.7562 -1.1881
  602SOL     OW 1804   1.493   1.588   2.364 -0.0629 -0.0146  0.0805
  602SOL    HW1 1805   1.398   1.579   2.411 -2.0234 -0.6916 -1.7495
  602SOL    HW2 1806   1.558   1.657   2.407  2.9073 -2.1303  2.6249
  603SOL     OW 1807   0.573   1.164   2.748  0.1537 -0.1007  0.4199
  603SOL    HW1 1808   0.511   1.210   2.672 -1.5370 -0.3303 -0.6581
  603SOL    HW2 1809   0.605   1.068   2.730  0.8547  0.7294  0.5947
  604SOL     OW 1810   2.521   0.996   0.268  0.0067  0.1898  0.1844
  604SOL    HW1 1811   2.611   1.032   0.229  2.1680 -0.3517 -1.9542
  604SOL    HW2 1812   2.469   0.939   0.196 -0.4215 -0.6588 -2.2848
  605SOL     OW 1813   2.576   1.185   1.918 -0.5105 -0.5942 -0.2134
  605SOL    HW1 1814   2.606   1.103   1.863 -1.3593 -0.6219  0.7771
  605SOL    HW2 1815   2.613   1.194   2.013 -1.7541 -0.5105 -1.5659
  606SOL     OW 1816   1.485   2.459   2.557 -0.4189  0.5157 -0.5736
  606SOL    HW1 1817   1.431   2.546   2.536 -3.3372 -3.3654  0.3950
  606SOL    HW2 1818   1.423   2.375   2.541  0.1432 -3.4169 -0.2260
  607SOL     OW 1819   1.271   1.569   0.262  0.1427  0.9702 -0.2128
  607SOL    HW1 1820   1.210   1.616   0.330  1.2988 -0.4937 -0.6217
  607SOL    HW2 1821   1.356   1.616   0.227 -0.8931 -1.8217  0.5250
  608SOL     OW 1822   1.447   2.847   0.342  0.2005  0.5067  0.6876
  608SOL    HW1 1823   1.499   2.896   0.267 -0.7766 -1.3235 -2.3943
  608SOL    HW2 1824   1.378   2.909   0.385  2.1319  0.1977  0.0195
  609SOL     OW 1825   1.266   1.309   0.189 -0.4972 -0.1544  0.4759
  609SOL    HW1 1826   1.255   1.392   0.245  0.8461 -1.7035 -3.1078
  609SOL    HW2 1827   1.228   1.318   0.093  2.1930  2.2267 -0.8240
  610SOL     OW 1828   3.093   1.234   2.118  0.1200 -0.2648 -0.1962
  610SOL    HW1 1829   3.036   1.142   2.105 -1.8829 -0.5788  0.0525
  610SOL    HW2 1830   3.067   1.312   2.050 -2.4694 -2.8919 -3.4343
  611SOL     OW 1831   2.567   0.180   1.170  0.6526 -0.1798  0.2112
  611SOL    HW1 1832   2.530   0.085   1.192  1.4082  0.7554 -1.6999
  611SOL    HW2 1833   2.626   0.212   1.245  0.6492 -0.6196 -0.0715
  612SOL     OW 1834   0.754   2.378   1.213 -0.2507  0.5471 -0.7739
  612SOL    HW1 1835   0.690   2.301   1.248  1.6094 -3.8568 -1.2478
  612SOL    HW2 1836   0.706   2.470   1.196 -0.7598  0.7491 -1.4657
  613SOL     OW 1837   0.786   1.367   2.392  0.3837 -0.6197 -0.5833
  613SOL    HW1 1838   0.795   1.444   2.321 -0.9954 -0.3797  0.6946
  613SOL    HW2 1839   0.767   1.276   2.344 -1.3237  0.5551 -2.0604
  614SOL     OW 1840   1.506   1.677   1.960  0.0644  0.1081  0.0919
  614SOL    HW1 1841   1.500   1.740   1.872 -0.7531  0.5330 -1.4051
  614SOL    HW2 1842   1.590   1.696   2.017  0.7711  1.1438  2.6540
  615SOL     OW 1843   0.713   1.440   1.694  0.1407 -0.1236 -0.2445
  615SOL    HW1 1844   0.633   1.398   1.644 -1.3491  0.6009 -3.0130
  615SOL    HW2 1845   0.791   1.478   1.632  2.7870 -0.8763  0.8898
  616SOL     OW 1846   1.095   1.634   2.196 -0.3377  0.4645 -1.0061
  616SOL    HW1 1847   0.998   1.603   2.201  1.9333 -0.8240 -2.3646
  616SOL    HW2 1848   1.136   1.603   2.104  0.6539 -0.0805  2.3569
  617SOL     OW 1849   2.906   1.566   1.583  0.3723 -0.0196  0.2710
  617SOL    HW1 1850   2.860   1.507   1.655  1.3397 -0.4538  2.2833
  617SOL    HW2 1851   2.948   1.505   1.512 -1.6463 -0.6299  0.9012
  618SOL     OW 1852   1.874   1.995   1.521 -0.0165  0.7141  0.4896
  618SOL    HW1 1853   1.928   2.002   1.437  1.6759  1.5255  1.8367
  618SOL    HW2 1854   1.876   1.895   1.556 -0.1906  1.3341  0.1045
  619SOL     OW 1855   1.783   0.523   2.401  0.1999 -0.5757 -0.0026
  619SOL    HW1 1856   1.724   0.576   2.337 -2.5497  0.6043  2.2257
  619SOL    HW2 1857   1.757   0.423   2.407  0.3950 -3.0609  1.8979
  620SOL     OW 1858   2.232   2.834   0.661 -0.0493 -0.0154  0.4338
  620SOL    HW1 1859   2.138   2.867   0.687 -0.9139 -2.4524  3.1054
  620SOL    HW2 1860   2.301   2.837   0.743  1.9635 -0.6751  2.2375
  621SOL     OW 1861   2.125   1.926   1.351  0.0112  0.0285 -0.3142
  621SOL    HW1 1862   2.140   1.920   1.456  0.6938  2.9120 -2.1890
  621SOL    HW2 1863   2.145   1.836   1.305 -2.1057  3.2627  1.6952
  622SOL     OW 1864   2.197   0.946   1.741 -0.6356 -0.6405 -0.0646
  622SOL    HW1 1865   2.295   0.902   1.742  2.0834 -0.5131 -0.2241
  622SOL    HW2 1866   2.147   0.920   1.830 -1.4521 -1.2226 -2.6480
  623SOL     OW 1867   1.283   0.907   2.540  0.2274 -0.2117  0.0750
  623SOL    HW1 1868   1.228   0.852   2.606 -2.9851  0.4035 -2.6309
  623SOL    HW2 1869   1.242   0.899   2.445  1.9481 -3.4037 -2.4883
  624SOL     OW 1870   0.560   0.637   3.071 -0.3940 -0.6356  0.7180
  624SOL    HW1 1871   0.600   0.700   3.000  1.5933  2.5560 -1.5994
  624SOL    HW2 1872   0.521   0.693   3.148 -3.1603  2.0579  2.1672
  625SOL     OW 1873   2.811   1.803   0.837  0.3996  0.0616  0.0227
  625SOL    HW1 1874   2.799   1.853   0.927  3.6795 -0.9795 -0.1156
  625SOL    HW2 1875   2.724   1.753   0.808  1.8563 -0.0845 -1.4275
  626SOL     OW 1876   0.460   2.840   2.029  0.3020 -0.1177 -0.6377
  626SOL    HW1 1877   0.509   2.930   2.003  0.9428 -0.2445  0.6667
  626SOL    HW2 1878   0.383   2.818   1.960  0.0390 -1.6856  0.1723
  627SOL     OW 1879   0.705   0.961   1.553 -0.1190 -0.1157  0.4039
  627SOL    HW1 1880   0.766   0.869   1.559  0.6706 -2.3502 -1.0898
  627SOL    HW2 1881   0.753   1.034   1.501  0.2035  1.9186 -0.5905
  628SOL     OW 1882   2.451   0.122   0.666 -0.2797  0.0902 -0.2064
  628SOL    HW1 1883   2.460   0.045   0.601 -2.5354 -0.1880  0.4400
  628SOL    HW2 1884   2.365   0.110   0.724 -1.3500 -1.7729 -0.8088
  629SOL     OW 1885   2.021   0.956   1.974  0.4443  0.0304  0.1387
  629SOL    HW1 1886   2.061   0.986   2.065 -1.2855 -2.3782 -1.1964
  629SOL    HW2 1887   1.954   1.027   1.944 -0.5318  1.4668 -0.0596
  630SOL     OW 1888   2.824   2.234   0.785  0.1531  0.3438  0.4618
  630SOL    HW1 1889   2.754   2.279   0.838 -0.3547  1.9807 -1.8183
  630SOL    HW2 1890   2.779   2.150   0.739 -1.4567  1.4125 -0.9272
  631SOL     OW 1891   3.041   0.203   2.132  0.4389  0.0571  0.2368
  631SOL    HW1 1892   3.079   0.271   2.198  0.8395 -1.2680  0.0242
  631SOL    HW2 1893   3.108   0.179   2.057 -2.7726  1.0702  1.4381
  632SOL     OW 1894   2.416   2.523   0.734  0.0195  0.5316 -0.1676
  632SOL    HW1 1895   2.503   2.574   0.772 -2.2764  0.1875  1.5705
  632SOL    HW2 1896   2.376   2.563   0.649 -0.2143 -1.0129 -0.5083
  633SOL     OW 1897   1.549   1.233   2.732  0.1425 -0.0273 -0.5361
  633SOL    HW1 1898   1.540   1.321   2.791 -0.3345 -1.1038  0.7790
  633SOL    HW2 1899   1.462   1.225   2.671  0.8075  0.0228 -0.8422
  634SOL     OW 1900   0.694   2.081   0.871  0.0703  0.0872  0.0608
  634SOL    HW1 1901   0.595   2.096   0.911  2.0700 -2.7268 -0.0074
  634SOL    HW2 1902   0.753   2.165   0.887  0.8160  0.5226  2.1088
  635SOL     OW 1903   3.077   2.258   3.042 -0.5799 -0.0382  0.4402
  635SOL    HW1 1904   3.015   2.307   2.977  1.2523 -2.6876  1.2470
  635SOL    HW2 1905   3.110   2.317   3.119 -0.4309  0.5644 -1.5327
  636SOL     OW 1906   2.333   2.818   1.964 -0.3326 -0.3917 -0.3998
  636SOL    HW1 1907   2.338   2.920   1.969  2.7456 -1.5018  2.0384
  636SOL    HW2 1908   2.291   2.779   2.054 -2.6427  2.0994 -1.1552
  637SOL     OW 1909   2.556   0.737   2.083 -0.0137  0.0001  0.0068
  637SOL    HW1 1910   2.533   0.717   1.983  0.1569  0.3590 -1.6583
  637SOL    HW2 1911   2.621   0.817   2.097  1.4083 -1.0928 -3.4028
  638SOL     OW 1912   2.421   1.930   1.355  0.1002 -0.0607 -0.4010
  638SOL    HW1 1913   2.322   1.926   1.323  0.7313  0.4261  0.2244
  638SOL    HW2 1914   2.459   1.834   1.371 -0.0712 -4.7395 -0.0902
  639SOL     OW 1915   1.284   2.259   1.618 -0.2157 -0.1806  0.5622
  639SOL    HW1 1916   1.264   2.203   1.535 -0.8193  0.4703  2.5290
  639SOL    HW2 1917   1.220   2.229   1.694  0.9879 -0.4499  2.6035
  640SOL     OW 1918   0.257   1.160   1.541 -0.4362 -0.3291  0.4984
  640SOL    HW1 1919   0.275   1.206   1.630  1.2703 -1.1542 -1.8098
  640SOL    HW2 1920   0.341   1.108   1.506 -0.6535 -0.7581 -0.8213
  641SOL     OW 1921   1.874   0.318   1.439 -0.2484  0.2494 -0.0020
  641SOL    HW1 1922   1.815   0.402   1.467  0.6257 -1.3231 -1.3407
  641SOL    HW2 1923   1.843   0.232   1.489  0.2941 -3.1493 -0.5736
  642SOL     OW 1924   1.981   0.093   0.320  0.1831 -0.3631 -0.1122
  642SOL    HW1 1925   2.083   0.075   0.327 -0.3792  0.5817  0.3568
  642SOL    HW2 1926   1.948   0.142   0.408 -0.2625  1.4504  2.2821
  643SOL     OW 1927   2.853   1.886   2.109  0.2560 -0.1100  0.1505
  643SOL    HW1 1928   2.812   1.809   2.053  0.2179 -0.5659 -1.5566
  643SOL    HW2 1929   2.856   1.981   2.067  1.0417  0.8329  2.4664
  644SOL     OW 1930   2.214   2.270   1.154 -0.1581 -0.4790 -0.2017
  644SOL    HW1 1931   2.283   2.202   1.121 -0.5971 -1.0652  0.3177
  644SOL    HW2 1932   2.193   2.276   1.256  0.6550 -3.0796  0.6836
  645SOL     OW 1933   0.667   0.878   1.117 -0.9360  0.4580  0.5105
  645SOL    HW1 1934   0.573   0.855   1.151  0.2790 -2.6042 -1.6281
  645SOL    HW2 1935   0.672   0.965   1.065  2.5599  1.4139  2.5484
  646SOL     OW 1936   1.459   1.928   1.775  0.1376  0.1774  0.0756
  646SOL    HW1 1937   1.554   1.975   1.755  0.3423  2.2640  0.4551
  646SOL    HW2 1938   1.398   1.956   1.854 -1.2317  0.8690  0.6876
  647SOL     OW 1939   0.866   0.864   0.678 -0.3446 -0.3998 -0.0397
  647SOL    HW1 1940   0.929   0.886   0.762  1.5424 -0.3118 -0.4827
  647SOL    HW2 1941   0.763   0.853   0.692 -0.7879 -3.2327  1.2430
  648SOL     OW 1942   0.043   0.222   0.348  0.3261 -0.5310  0.2843
  648SOL    HW1 1943   0.004   0.131   0.313  1.4653  0.9844  0.2874
  648SOL    HW2 1944   0.032   0.303   0.284  1.1499  0.6881 -1.1879
  649SOL     OW 1945   0.041   0.052   0.998 -0.6273  0.0142 -0.3215
  649SOL    HW1 1946   0.131   0.012   0.971 -0.5349  0.9691  1.6299
  649SOL    HW2 1947   0.046   0.096   1.087  0.1240 -1.5067 -0.5089
  650SOL     OW 1948   2.725   0.702   1.462 -0.7561 -0.1790  0.1521
  650SOL    HW1 1949   2.637   0.655   1.473 -0.1528  0.8365  0.5205
  650SOL    HW2 1950   2.711   0.794   1.420  1.1861  0.6252  0.6699
  651SOL     OW 1951   0.918   1.571   1.469  0.3124 -0.9912 -0.4434
  651SOL    HW1 1952   0.957   1.662   1.515 -0.1008  0.6181  4.2870
  651SOL    HW2 1953   0.819   1.577   1.448  0.6025  0.7901  1.9928
  652SOL     OW 1954   2.240   2.534   2.371 -1.0912  0.6929  0.3754
  652SOL    HW1 1955   2.167   2.513   2.434 -0.3668  0.3379  0.0849
  652SOL    HW2 1956   2.221   2.628   2.331 -1.2499 -0.7543 -1.7051
  653SOL     OW 1957   2.771   1.126   0.203 -0.9108 -0.3060  0.2289
  653SOL    HW1 1958   2.850   1.190   0.175  1.2827  0.6148 -0.3375
  653SOL    HW2 1959   2.811   1.045   0.247 -0.6653  3.4258 -2.9484
  654SOL     OW 1960   1.214   2.232   1.223  0.0743  0.1610  0.7066
  654SOL    HW1 1961   1.195   2.167   1.302 -1.0425 -0.8064  1.1114
  654SOL    HW2 1962   1.281   2.204   1.148 -0.2752  2.2867 -1.0094
  655SOL     OW 1963   0.226   1.036   1.918  0.2978 -0.0812  0.1904
  655SOL    HW1 1964   0.272   0.984   1.844 -0.0029  1.0086 -1.9967
  655SOL    HW2 1965   0.284   1.099   1.967 -4.0560 -1.7852 -0.7600
  656SOL     OW 1966   2.438   2.460   2.533  0.1883  0.4445  0.1187
  656SOL    HW1 1967   2.503   2.537   2.558  0.0022  1.2539 -2.1470
  656SOL    HW2 1968   2.355   2.482   2.473 -0.5612  2.5264 -1.3065
  657SOL     OW 1969   3.045   1.098   1.849 -0.2072 -0.2488 -0.4966
  657SOL    HW1 1970   3.019   1.198   1.875 -1.0084 -0.7332 -0.4789
  657SOL    HW2 1971   3.146   1.078   1.866 -1.8772  0.5885 -0.2163
  658SOL     OW 1972   1.734   0.250   2.401  0.2514  0.5636 -0.4054
  658SOL    HW1 1973   1.739   0.169   2.472  0.0366 -2.6356  3.6529
  658SOL    HW2 1974   1.761   0.231   2.304 -2.3692  1.1873  1.0600
  659SOL     OW 1975   1.437   0.610   2.804  0.3116  0.1597  0.0143
  659SOL    HW1 1976   1.475   0.681   2.869  0.5928  0.8977  0.2765
  659SOL    HW2 1977   1.351   0.637   2.748 -0.4405 -1.5416 -0.8749
  660SOL     OW 1978   1.358   0.396   1.425  0.0623 -0.1049 -0.2869
  660SOL    HW1 1979   1.397   0.427   1.514 -1.2059 -0.2198 -2.3635
  660SOL    HW2 1980   1.423   0.338   1.375  0.9503 -0.9902 -0.3422
  661SOL     OW 1981   2.424   1.138   0.625 -0.1563 -0.1743  0.0115
  661SOL    HW1 1982   2.475   1.078   0.556 -1.0871 -1.4265 -0.3127
  661SOL    HW2 1983   2.340   1.186   0.582  0.0920  0.7648 -1.7179
  662SOL     OW 1984   1.299   0.444   1.872  0.1629  0.2720  0.2782
  662SOL    HW1 1985   1.263   0.352   1.837  2.0111  2.5935 -0.9496
  662SOL    HW2 1986   1.264   0.481   1.966  4.2278  1.0263  0.1750
  663SOL     OW 1987   0.837   1.562   2.230 -0.2823 -0.1195 -0.0323
  663SOL    HW1 1988   0.776   1.637   2.240  2.1579 -1.9824 -1.9926
  663SOL    HW2 1989   0.819   1.516   2.139 -2.5018 -0.5741  0.0179
  664SOL     OW 1990   1.596   2.089   1.423 -0.4245  0.1800 -0.1217
  664SOL    HW1 1991   1.522   2.018   1.448  0.3613  0.4578  2.0421
  664SOL    HW2 1992   1.691   2.052   1.441  1.6776  1.5431  2.2018
  665SOL     OW 1993   2.210   0.611   1.983 -1.1236  0.3421  0.6390
  665SOL    HW1 1994   2.254   0.543   2.052  1.3121  2.6619  2.5771
  665SOL    HW2 1995   2.165   0.699   2.019 -0.7388  0.3866 -1.4806
  666SOL     OW 1996   0.560   2.235   0.448  0.7087 -0.1818 -0.4653
  666SOL    HW1 1997   0.608   2.330   0.445  2.4216 -0.6759  0.7250
  666SOL    HW2 1998   0.496   2.225   0.528 -0.0265  4.3288  0.4022
  667SOL     OW 1999   2.073   0.222   1.008  0.3088 -0.1260  0.6929
  667SOL    HW1 2000   2.126   0.301   1.039  0.1741 -0.7374 -0.4839
  667SOL    HW2 2001   1.973   0.219   1.043  0.0676 -1.5741 -0.2623
  668SOL     OW 2002   2.047   0.595   1.254 -1.0925 -0.6076  0.2244
  668SOL    HW1 2003   2.068   0.562   1.161 -2.0053  2.6913 -2.0458
  668SOL    HW2 2004   2.073   0.528   1.330  0.5555 -1.1181 -0.8100
  669SOL     OW 2005   3.030   2.259   0.976  0.1420  0.5487 -0.1499
  669SOL    HW1 2006   2.962   2.249   0.898 -1.2061 -0.7014 -0.5822
  669SOL    HW2 2007   2.989   2.222   1.061  2.3866  1.4569  2.6587
  670SOL     OW 2008   2.813   2.380   2.023 -0.2072  0.0947  0.1202
  670SOL    HW1 2009   2.761   2.369   2.111 -0.8316  1.3416  0.6032
  670SOL    HW2 2010   2.767   2.455   1.964  0.3536  0.5522 -0.3173
  671SOL     OW 2011   1.674   1.765   1.460 -0.8000 -0.2123 -0.2144
  671SOL    HW1 2012   1.689   1.753   1.361  0.6135  0.1965  2.9912
  671SOL    HW2 2013   1.578   1.798   1.491 -0.3196 -2.4426 -0.2459
  672SOL     OW 2014   0.418   0.667   2.432  0.1325  0.5309  0.5638
  672SOL    HW1 2015   0.443   0.719   2.347  0.5245  2.1679 -0.2997
  672SOL    HW2 2016   0.352   0.711   2.492  1.1467  0.7544 -0.8552
  673SOL     OW 2017   0.124   1.238   1.126 -0.2363 -0.3493  0.2369
  673SOL    HW1 2018   0.139   1.267   1.225  0.9137  1.3925  2.4193
  673SOL    HW2 2019   0.210   1.196   1.083  0.0616 -1.4784  1.1864
  674SOL     OW 2020   1.598   2.945   0.134  0.2423 -0.1471 -0.4228
  674SOL    HW1 2021   1.619   3.050   0.123  0.7388  0.9729 -0.8870
  674SOL    HW2 2022   1.674   2.891   0.091 -0.0859  0.3287 -0.8627
  675SOL     OW 2023   1.711   0.870   2.350  0.9673 -0.2901 -0.6789
  675SOL    HW1 2024   1.814   0.863   2.333 -0.4640  0.1330  0.1201
  675SOL    HW2 2025   1.653   0.790   2.308 -0.4692 -1.2128 -0.1064
  676SOL     OW 2026   2.535   1.504   1.981 -0.2025  0.4980  0.0058
  676SOL    HW1 2027   2.498   1.476   1.889 -1.7461 -0.1475 -0.9744
  676SOL    HW2 2028   2.556   1.422   2.042 -0.2031 -0.4936 -2.1542
  677SOL     OW 2029   1.938   0.532   0.950 -0.1463  0.2387 -0.1653
  677SOL    HW1 2030   1.930   0.640   0.956 -2.1255 -1.1865  1.2088
  677SOL    HW2 2031   1.897   0.483   1.034 -1.6057  0.7118  2.0499
  678SOL     OW 2032   0.073   0.712   1.701  0.3234 -0.1604  0.1257
  678SOL    HW1 2033   0.162   0.761   1.697  1.1865  0.5632  1.5059
  678SOL    HW2 2034  -0.001   0.769   1.740  0.2219 -1.8541  2.6891
  679SOL     OW 2035   2.501   1.130   1.143  0.2984 -0.7326 -0.3458
  679SOL    HW1 2036   2.402   1.154   1.174 -1.3261 -0.9528  0.0935
  679SOL    HW2 2037   2.507   1.033   1.108  2.3768 -0.2119  1.3403
  680SOL     OW 2038   2.851   0.639   1.695 -0.3335  0.4399  0.2524
  680SOL    HW1 2039   2.818   0.679   1.601  0.9581 -2.5739 -0.5583
  680SOL    HW2 2040   2.883   0.718   1.759  0.5741  1.9660  0.3123
  681SOL     OW 2041   3.070   0.191   1.653  0.6454  0.1469  0.5453
  681SOL    HW1 2042   3.137   0.188   1.574 -0.7348  0.2184 -1.0495
  681SOL    HW2 2043   3.009   0.271   1.645  1.1595  0.0296  1.4140
  682SOL     OW 2044   0.733   3.068   1.368  0.1878  0.3232  0.3604
  682SOL    HW1 2045   0.653   3.014   1.411 -0.2352 -2.9592 -0.4862
  682SOL    HW2 2046   0.774   3.025   1.280 -0.6941 -2.6331 -1.5968
  683SOL     OW 2047   1.416   0.235   2.199 -0.7189 -0.0857 -0.1776
  683SOL    HW1 2048   1.441   0.260   2.297  0.9502  1.2047  0.9491
  683SOL    HW2 2049   1.480   0.284   2.127 -0.9463 -0.1997 -1.0534
  684SOL     OW 2050   1.442   2.130   0.474  0.1145 -0.4268 -0.0679
  684SOL    HW1 2051   1.503   2.063   0.525 -0.9512 -0.3563  0.4139
  684SOL    HW2 2052   1.345   2.095   0.463  0.3958 -1.2548  1.4191
  685SOL     OW 2053   2.133   1.936   2.016  0.0838  0.1762 -0.2143
  685SOL    HW1 2054   2.184   2.008   1.963 -2.2169 -0.1566 -1.1031
  685SOL    HW2 2055   2.196   1.871   2.065  0.2257  0.3964 -0.4664
  686SOL     OW 2056   1.488   1.716   2.709  0.2757  1.0945 -0.3191
  686SOL    HW1 2057   1.497   1.618   2.679 -1.5603  1.1320  0.7871
  686SOL    HW2 2058   1.505   1.720   2.808  0.3853  0.2037 -3.5218
  687SOL     OW 2059   1.337   2.496   1.933  0.3904 -0.1031  0.0925
  687SOL    HW1 2060   1.371   2.430   1.859 -0.6632 -2.2789  2.7409
  687SOL    HW2 2061   1.398   2.478   2.014  3.9994  1.5797 -0.1709
  688SOL     OW 2062   2.066   1.494   1.554  0.2115  0.2681 -0.6902
  688SOL    HW1 2063   2.158   1.534   1.529  0.2525  1.3462  1.0690
  688SOL    HW2 2064   2.000   1.483   1.474 -1.8278 -1.7671 -1.0168
  689SOL     OW 2065   2.447   1.093   2.748  0.1238 -0.3811  0.9380
  689SOL    HW1 2066   2.347   1.069   2.770 -0.1862  2.0423 -0.7383
  689SOL    HW2 2067   2.515   1.063   2.816 -2.8705 -1.8436 -1.8537
  690SOL     OW 2068   2.229   2.793   3.044 -0.0458 -0.0130  0.2632
  690SOL    HW1 2069   2.130   2.780   3.014 -1.6747  2.3277 -1.1819
  690SOL    HW2 2070   2.233   2.856   3.128 -4.0049 -2.4773 -0.9788
  691SOL     OW 2071   2.606   0.470   2.157  0.2501  0.3567  0.6665
  691SOL    HW1 2072   2.685   0.436   2.099  1.6292  0.1397  0.0152
  691SOL    HW2 2073   2.594   0.574   2.155 -0.7006  1.0942  0.7811
  692SOL     OW 2074   2.715   1.177   0.691  0.2211 -0.5457  0.5028
  692SOL    HW1 2075   2.611   1.159   0.709  0.4657 -0.3954 -1.0567
  692SOL    HW2 2076   2.755   1.252   0.748 -3.4636 -0.4968  0.3475
  693SOL     OW 2077   2.837   2.924   0.635 -0.3527  0.0812 -0.6036
  693SOL    HW1 2078   2.838   3.008   0.695  0.4672 -0.9471  1.3794
  693SOL    HW2 2079   2.793   2.935   0.540 -0.1011 -0.7098  0.1627
  694SOL     OW 2080   2.421   2.202   0.073 -0.1085  0.0137  0.0580
  694SOL    HW1 2081   2.395   2.299   0.097  2.0742  3.0083 -0.5400
  694SOL    HW2 2082   2.338   2.147   0.036  1.0706 -1.8388  2.0366
  695SOL     OW 2083   0.535   2.935   1.522 -0.0681  0.1942  0.2719
  695SOL    HW1 2084   0.479   2.846   1.536  0.5879 -1.8382  1.0295
  695SOL    HW2 2085   0.500   3.011   1.587  0.6976 -2.0445  0.2494
  696SOL     OW 2086   2.714   2.026   0.681  0.1492  0.3600  0.8339
  696SOL    HW1 2087   2.761   1.939   0.717 -0.3984 -1.3443  0.2875
  696SOL    HW2 2088   2.662   2.017   0.589 -0.6935 -0.5707  2.1208
  697SOL     OW 2089   1.681   2.065   1.762  0.1920  0.2133  0.1367
  697SOL    HW1 2090   1.749   2.018   1.821 -1.3244 -0.3541 -0.9508
  697SOL    HW2 2091   1.720   2.146   1.710 -1.1629  1.9366  0.6725
  698SOL     OW 2092   2.911   0.363   2.817 -0.6620  0.2928  0.3292
  698SOL    HW1 2093   2.918   0.339   2.715  2.3307  1.2971  1.8249
  698SOL    HW2 2094   2.991   0.319   2.861  0.4643 -1.2392 -0.1357
  699SOL     OW 2095   1.546   0.121   2.937 -0.4710 -0.0506  0.1643
  699SOL    HW1 2096   1.513   0.029   2.901  0.8828  1.2614  0.9207
  699SOL    HW2 2097   1.587   0.176   2.856 -1.3721  2.3360  1.0697
  700SOL     OW 2098   0.981   2.464   1.372 -0.0207  0.1637  0.2384
  700SOL    HW1 2099   1.066   2.431   1.321  0.1022  1.0316  1.6762
  700SOL    HW2 2100   0.897   2.428   1.326 -0.2604  1.4098  2.2559
  701SOL     OW 2101   1.833   2.848   3.080  0.0842  0.4733 -0.2335
  701SOL    HW1 2102   1.878   2.795   3.160  0.1138  2.2600 -0.1297
  701SOL    HW2 2103   1.877   2.940   3.065 -0.6864  1.2368 -0.7802
  702SOL     OW 2104   2.116   1.366   1.808 -0.0248 -0.0894  0.5046
  702SOL    HW1 2105   2.205   1.308   1.792  0.3044  1.8977 -0.4901
  702SOL    HW2 2106   2.079   1.395   1.717  1.9132 -0.2457 -0.4818
  703SOL     OW 2107   1.998   0.889   1.472  0.3203 -0.2148  0.1060
  703SOL    HW1 2108   1.991   0.820   1.554  0.1517  1.4601 -0.0968
  703SOL    HW2 2109   2.030   0.983   1.505  1.0541  0.4270 -1.4573
  704SOL     OW 2110   0.313   2.033   1.741  0.5253 -0.4138 -0.3787
  704SOL    HW1 2111   0.337   1.981   1.826 -0.1523  2.3107  0.3234
  704SOL    HW2 2112   0.374   2.115   1.725  4.5631  0.4100 -0.2500
  705SOL     OW 2113   2.529   1.455   0.864 -0.0011  0.7901 -0.3224
  705SOL    HW1 2114   2.440   1.418   0.906 -2.3490  1.6600 -1.7545
  705SOL    HW2 2115   2.607   1.391   0.879  1.7721  2.4646  0.3291
  706SOL     OW 2116   0.639   1.761   1.866  0.4525 -0.2914  0.1761
  706SOL    HW1 2117   0.665   1.663   1.876  3.5558 -0.4245  2.8210
  706SOL    HW2 2118   0.700   1.825   1.921 -1.1066 -0.8501 -0.1361
  707SOL     OW 2119   2.360   1.199   1.745  0.0907 -0.1911 -0.0540
  707SOL    HW1 2120   2.446   1.171   1.790  0.4740  0.1322 -3.1661
  707SOL    HW2 2121   2.307   1.120   1.714  0.8369  1.1138  1.2971
  708SOL     OW 2122   3.010   0.527   3.062 -0.4025  0.2815 -0.0786
  708SOL    HW1 2123   3.039   0.592   2.986  1.3410 -1.6004 -1.2136
  708SOL    HW2 2124   3.026   0.420   3.039  1.8973 -2.2302 -1.7101
  709SOL     OW 2125   1.752   1.852   0.210 -0.2426  0.7262 -0.3347
  709SOL    HW1 2126   1.817   1.929   0.232  2.3842 -4.3545  2.0159
  709SOL    HW2 2127   1.738   1.833   0.108  0.5783  2.1235 -3.8334
  710SOL     OW 2128   1.745   1.668   2.458 -0.0021 -0.7136  0.7274
  710SOL    HW1 2129   1.770   1.639   2.359 -1.1535  2.6059 -0.2609
  710SOL    HW2 2130   1.765   1.605   2.538 -1.0036  1.6058  0.8479
  711SOL     OW 2131   2.618   2.875   0.968  0.6732 -0.4452 -0.4964
  711SOL    HW1 2132   2.606   2.964   0.918 -1.0858 -2.4546  1.4410
  711SOL    HW2 2133   2.700   2.878   1.031  0.6080 -0.4577 -1.5023
  712SOL     OW 2134   1.496   2.287   1.776 -0.3462 -0.5861  0.6016
  712SOL    HW1 2135   1.547   2.209   1.816 -0.2030  0.4346  1.3563
  712SOL    HW2 2136   1.413   2.259   1.720 -0.6335  1.7351  2.3570
  713SOL     OW 2137   2.851   1.297   2.508  0.6631 -0.9070 -0.4163
  713SOL    HW1 2138   2.920   1.238   2.458 -1.2749  0.8904  1.5316
  713SOL    HW2 2139   2.796   1.244   2.579 -0.3895 -1.2588 -1.8828
  714SOL     OW 2140   2.646   0.433   2.435  0.0545  0.0153 -0.1347
  714SOL    HW1 2141   2.578   0.391   2.503 -0.7462 -0.6064 -0.6159
  714SOL    HW2 2142   2.607   0.445   2.339 -0.1645  1.6017 -0.7006
  715SOL     OW 2143   1.621   2.109   1.126 -0.4757  0.1016  0.4229
  715SOL    HW1 2144   1.546   2.155   1.074  2.5988  4.7412  1.4493
  715SOL    HW2 2145   1.624   2.135   1.226 -0.1886  1.5238 -2.1290
  716SOL     OW 2146   1.164   0.155   1.456 -0.1077 -0.2206 -0.0679
  716SOL    HW1 2147   1.060   0.134   1.436 -0.9934 -2.2017  0.5719
  716SOL    HW2 2148   1.181   0.259   1.455 -2.0854  2.3192  0.0976
  717SOL     OW 2149   1.078   0.521   1.604  0.5010  0.2777 -0.2586
  717SOL    HW1 2150   1.171   0.562   1.616  0.7074  1.5973 -1.3664
  717SOL    HW2 2151   1.047   0.514   1.507  1.7421  0.1071  1.5072
  718SOL     OW 2152   0.626   1.151   1.026 -0.8326  0.3486 -0.2204
  718SOL    HW1 2153   0.641   1.190   0.930  0.4629 -0.4640 -1.2545
  718SOL    HW2 2154   0.674   1.209   1.098 -0.5679  2.3758 -0.4274
  719SOL     OW 2155   0.696   1.832   2.256 -0.1454  0.3775 -0.7813
  719SOL    HW1 2156   0.760   1.841   2.336 -1.4808 -3.6166 -2.4530
  719SOL    HW2 2157   0.609   1.891   2.261 -3.8877  0.8450  0.8069
  720SOL     OW 2158   2.294   1.143   0.241  0.6617 -0.1193  0.3328
  720SOL    HW1 2159   2.389   1.101   0.256  1.6876 -0.7495  3.6971
  720SOL    HW2 2160   2.240   1.146   0.329  0.0668 -4.9413  2.2512
  721SOL     OW 2161   2.299   3.092   2.029  0.4283 -0.3128  0.6080
  721SOL    HW1 2162   2.293   3.187   1.980  1.6549 -0.7863  0.3408
  721SOL    HW2 2163   2.217   3.076   2.093  1.0579 -0.9079  3.1160
  722SOL     OW 2164   2.437   1.700   0.497  0.0749 -0.0240  0.2533
  722SOL    HW1 2165   2.414   1.626   0.426  1.2574  2.5292 -0.4364
  722SOL    HW2 2166   2.350   1.726   0.545 -0.0096  1.3691 -1.9510
  723SOL     OW 2167   2.607   2.876   1.890 -0.1726 -0.3715  0.0844
  723SOL    HW1 2168   2.646   2.922   1.978  0.9292  0.3030  0.7201
  723SOL    HW2 2169   2.508   2.847   1.907  0.0565  4.3762 -3.5167
  724SOL     OW 2170   0.313   2.388   2.347  0.4082 -1.0381  0.7241
  724SOL    HW1 2171   0.217   2.431   2.346  0.4797  2.7601 -0.5653
  724SOL    HW2 2172   0.364   2.387   2.441  0.8360 -0.2098 -0.9926
  725SOL     OW 2173   2.339   2.802   1.473  0.3468 -0.3848 -0.0175
  725SOL    HW1 2174   2.361   2.798   1.376  1.8426  0.1750  3.4026
  725SOL    HW2 2175   2.336   2.712   1.519  1.4923  5.2225  0.3206
  726SOL     OW 2176   2.374   2.245   0.747 -0.0623 -0.1445 -0.7335
  726SOL    HW1 2177   2.375   2.352   0.753  0.9954  2.3944  1.7656
  726SOL    HW2 2178   2.347   2.210   0.654 -0.2820  1.4895 -1.5899
  727SOL     OW 2179   0.228   0.011   0.129  0.3295 -0.1188 -0.7565
  727SOL    HW1 2180   0.279  -0.080   0.134  3.1146  1.0995  1.4793
  727SOL    HW2 2181   0.278   0.091   0.083  1.7936  2.1698  2.0941
  728SOL     OW 2182   2.793   0.662   1.063  0.1622  0.0566  0.1963
  728SOL    HW1 2183   2.709   0.653   1.001 -0.7463 -4.2487 -0.5706
  728SOL    HW2 2184   2.783   0.594   1.141  0.2788 -0.9328 -1.7015
  729SOL     OW 2185   3.006   2.463   0.707  0.4439 -0.6248  0.2565
  729SOL    HW1 2186   2.961   2.381   0.743 -0.2496  0.2119  2.2049
  729SOL    HW2 2187   3.109   2.454   0.696 -3.1982  0.7515  0.3029
  730SOL     OW 2188   2.628   0.581   0.852  0.1887  0.2839 -0.7126
  730SOL    HW1 2189   2.590   0.668   0.805 -0.8388 -0.6487 -0.1424
  730SOL    HW2 2190   2.700   0.538   0.790 -0.6980  1.0362  3.3434
  731SOL     OW 2191   0.186   2.167   2.494  0.8745  0.5908 -0.5594
  731SOL    HW1 2192   0.171   2.208   2.591  0.4449  2.5364  1.9234
  731SOL    HW2 2193   0.243   2.230   2.433 -2.6037  0.4356  2.0570
  732SOL     OW 2194   1.124   2.846   2.043 -0.4352  0.6071  0.1387
  732SOL    HW1 2195   1.168   2.786   2.117 -2.1651 -0.0799  2.7013
  732SOL    HW2 2196   1.130   2.798   1.950  0.4385 -2.1198  0.4257
  733SOL     OW 2197   3.023   0.680   2.112 -0.0567  0.8636 -0.1029
  733SOL    HW1 2198   3.119   0.721   2.121  1.6389 -1.1050 -0.7310
  733SOL    HW2 2199   3.020   0.598   2.048  0.2812  0.0787  1.5212
  734SOL     OW 2200   1.383   0.366   2.687  0.1047 -0.1533  0.2021
  734SOL    HW1 2201   1.420   0.443   2.741 -0.8097 -1.9398  0.1277
  734SOL    HW2 2202   1.298   0.331   2.740 -0.2740  0.5258  0.2086
  735SOL     OW 2203   2.797   2.661   2.288  0.2832  0.3538  0.1140
  735SOL    HW1 2204   2.717   2.645   2.223  1.1671  0.9557  1.7597
  735SOL    HW2 2205   2.888   2.630   2.254 -0.1074 -0.1494  2.3428
  736SOL     OW 2206   0.801   0.363   2.556  0.1410 -0.2785 -0.1893
  736SOL    HW1 2207   0.745   0.446   2.542  0.0597 -0.5827  0.6098
  736SOL    HW2 2208   0.822   0.311   2.468 -1.3067 -3.5695 -0.1224
  737SOL     OW 2209   2.665   0.416   2.909 -0.4279 -0.5375  0.3357
  737SOL    HW1 2210   2.650   0.428   3.009  1.1727  0.6934  0.9057
  737SOL    HW2 2211   2.757   0.382   2.880 -0.1115 -0.4678  0.6528
  738SOL     OW 2212   1.657   1.130   0.033  0.0398 -0.6825  0.6858
  738SOL    HW1 2213   1.745   1.138  -0.020 -1.6336 -0.5249  1.7318
  738SOL    HW2 2214   1.619   1.036   0.021  0.4962  2.6053 -0.8101
  739SOL     OW 2215   1.818   0.555   0.697  0.1505  0.3180  0.1756
  739SOL    HW1 2216   1.866   0.544   0.790  0.0387 -2.8840 -0.9413
  739SOL    HW2 2217   1.842   0.475   0.630  1.5764  0.4388 -0.8984
  740SOL     OW 2218   1.914   2.069   2.157  0.1764  0.0125  0.3583
  740SOL    HW1 2219   1.959   2.000   2.089  0.9034 -0.4559 -1.6921
  740SOL    HW2 2220   1.811   2.068   2.155  0.9802  0.3856  0.2151
  741SOL     OW 2221   2.553   0.020   2.582  0.3206 -0.0489 -0.7770
  741SOL    HW1 2222   2.653  -0.004   2.578  0.4561 -0.0142 -0.3941
  741SOL    HW2 2223   2.528   0.110   2.531  0.5194  1.1066  0.5696
  742SOL     OW 2224   2.265   1.412   0.084  0.0027  0.0334 -0.2318
  742SOL    HW1 2225   2.192   1.485   0.094 -2.5534  0.3726  1.1273
  742SOL    HW2 2226   2.251   1.320   0.132  0.0166 -0.4624  1.3575
  743SOL     OW 2227   1.750   0.653   2.661 -0.3949 -0.2943  0.0901
  743SOL    HW1 2228   1.769   0.602   2.577  0.8442  1.3478  1.9767
  743SOL    HW2 2229   1.663   0.713   2.663 -0.3607 -0.2281 -0.9879
  744SOL     OW 2230   2.675   2.128   0.126  0.0189  0.5380  0.5623
  744SOL    HW1 2231   2.579   2.155   0.105  4.0354  1.9305  1.9637
  744SOL    HW2 2232   2.670   2.034   0.162 -3.3349  1.6473 -1.8842
  745SOL     OW 2233   2.205   2.761   2.194 -0.3917 -0.0467 -0.1005
  745SOL    HW1 2234   2.109   2.738   2.159  1.8565  0.4079  0.7590
  745SOL    HW2 2235   2.205   2.827   2.268  0.1134 -1.4862 -0.4096
  746SOL     OW 2236   3.075   2.615   1.804  0.3806  0.0319 -0.1150
  746SOL    HW1 2237   3.173   2.631   1.777  2.0448  1.9179  1.0486
  746SOL    HW2 2238   3.035   2.701   1.846 -1.3649  1.8539 -0.4545
  747SOL     OW 2239   3.099   1.773   1.691 -0.6797 -0.2865  0.1783
  747SOL    HW1 2240   3.039   1.694   1.661  0.2386  0.7589 -1.9746
  747SOL    HW2 2241   3.152   1.816   1.610  0.5514  0.1089 -1.4073
  748SOL     OW 2242   1.761   2.727   2.841  0.0003  0.4147 -0.3048
  748SOL    HW1 2243   1.776   2.767   2.935 -0.9065  3.2360  0.4915
  748SOL    HW2 2244   1.661   2.735   2.823  1.7889 -0.3198 -0.7772
  749SOL     OW 2245   1.344   0.070   0.869 -0.0810 -0.2101 -0.8137
  749SOL    HW1 2246   1.300  -0.013   0.908  1.1685  0.8577 -1.2512
  749SOL    HW2 2247   1.329   0.076   0.766  2.2444  0.2718  0.0342
  750SOL     OW 2248   2.287   0.225   1.911  0.4878  0.4753  0.6131
  750SOL    HW1 2249   2.351   0.276   1.843  0.9501  0.4816 -0.5922
  750SOL    HW2 2250   2.265   0.286   1.991  0.1703 -2.1808 -0.8789
  751SOL     OW 2251   0.854   2.247   2.924 -0.3324 -0.4289 -0.0318
  751SOL    HW1 2252   0.919   2.246   3.007  0.4487 -1.3074  3.3641
  751SOL    HW2 2253   0.784   2.167   2.922 -0.9423  0.0510 -1.5503
  752SOL     OW 2254   1.249   0.858   1.484  0.1668 -0.7934 -0.0943
  752SOL    HW1 2255   1.330   0.919   1.464 -2.8013  1.9469 -1.6678
  752SOL    HW2 2256   1.270   0.759   1.502  1.9802 -1.0050 -1.6962
  753SOL     OW 2257   0.904   2.584   1.746  0.1214 -0.5615 -0.1048
  753SOL    HW1 2258   0.966   2.622   1.671  0.6557  3.1923  2.4265
  753SOL    HW2 2259   0.814   2.634   1.751 -0.8121 -0.4444  0.3092
  754SOL     OW 2260   1.135   1.338   3.042 -0.2836  0.4290 -0.0022
  754SOL    HW1 2261   1.197   1.281   2.976  1.7958  1.6294  3.2704
  754SOL    HW2 2262   1.133   1.438   3.009 -0.4551  2.1805 -0.8983
  755SOL     OW 2263   2.036   0.540   2.283  0.2454  0.2231  0.9449
  755SOL    HW1 2264   2.111   0.478   2.317 -0.5743  1.4297  1.4163
  755SOL    HW2 2265   1.945   0.526   2.335  0.8364 -0.2305  0.6253
  756SOL     OW 2266   2.637   0.962   2.928 -0.1224 -0.0239 -0.2122
  756SOL    HW1 2267   2.728   0.917   2.929 -0.0678 -1.3103 -0.1377
  756SOL    HW2 2268   2.576   0.933   3.008 -0.5677 -1.5232  1.4157
  757SOL     OW 2269   0.152   0.452   1.730 -0.3746  0.3036  0.5747
  757SOL    HW1 2270   0.128   0.553   1.753 -0.9350 -1.6643  0.1576
  757SOL    HW2 2271   0.209   0.444   1.647 -0.4620 -1.0410  0.9447
  758SOL     OW 2272   2.467   0.067   1.500  0.1295 -0.2970  0.1111
  758SOL    HW1 2273   2.393   0.021   1.556 -1.4275  2.6529 -1.1155
  758SOL    HW2 2274   2.483   0.021   1.406  0.5659 -0.8197  0.8876
  759SOL     OW 2275   1.669   0.139   0.071  0.3810  0.3389 -0.1680
  759SOL    HW1 2276   1.628   0.120  -0.022  2.6201 -0.5199  0.7299
  759SOL    HW2 2277   1.770   0.112   0.063 -0.4185  2.3536 -0.5259
  760SOL     OW 2278   2.742   1.967   2.761 -0.1246  0.3123  0.2584
  760SOL    HW1 2279   2.758   1.863   2.741  2.1562 -1.7702  0.4647
  760SOL    HW2 2280   2.812   2.020   2.706  0.1431 -1.2840 -0.8155
  761SOL     OW 2281   1.845   1.714   1.656 -0.3618 -0.7977  0.0210
  761SOL    HW1 2282   1.912   1.640   1.632 -0.7180 -1.5751  0.4921
  761SOL    HW2 2283   1.769   1.730   1.580 -1.6979  1.5062 -0.3480
  762SOL     OW 2284   0.506   2.391   1.012 -0.1062  0.2233  0.2157
  762SOL    HW1 2285   0.545   2.429   0.920  0.3679  2.0959  1.4602
  762SOL    HW2 2286   0.458   2.466   1.061 -1.2048 -0.8114  2.1542
  763SOL     OW 2287   2.000   1.568   2.953 -0.1539 -0.4975  0.0690
  763SOL    HW1 2288   2.061   1.528   2.877 -1.6946 -1.9681 -0.2253
  763SOL    HW2 2289   1.935   1.493   2.995  1.5181 -2.3446  0.1922
  764SOL     OW 2290   0.704   0.594   0.817  0.0358  0.2278 -0.2019
  764SOL    HW1 2291   0.711   0.563   0.719 -0.3995 -0.7541  1.5698
  764SOL    HW2 2292   0.791   0.610   0.870  0.4204  0.3753 -3.1641
  765SOL     OW 2293   0.618   0.217   0.784 -0.1450 -0.6751 -0.1964
  765SOL    HW1 2294   0.703   0.252   0.737 -0.0617  1.3132 -1.1626
  765SOL    HW2 2295   0.619   0.229   0.890 -0.1196  1.4739 -2.0303
  766SOL     OW 2296   2.972   1.979   2.950 -1.3877  0.4753 -0.2515
  766SOL    HW1 2297   2.876   1.976   2.907 -0.4048  2.3471  0.1617
  766SOL    HW2 2298   3.007   2.077   2.971 -0.2524  1.8135  0.9153
  767SOL     OW 2299   2.724   1.555   0.493  0.3221 -0.1805  0.3104
  767SOL    HW1 2300   2.674   1.595   0.578 -0.0417  2.1337  1.8631
  767SOL    HW2 2301   2.823   1.587   0.488 -0.1067  0.5519 -0.8720
  768SOL     OW 2302   1.059   0.311   0.283 -0.3471 -0.2019 -0.3108
  768SOL    HW1 2303   0.961   0.292   0.256 -3.8043 -0.9475  0.3088
  768SOL    HW2 2304   1.127   0.234   0.267 -0.6238 -1.1066 -0.5823
  769SOL     OW 2305   1.361   1.780   2.211  0.0864 -0.0673 -0.9917
  769SOL    HW1 2306   1.417   1.713   2.265  1.5448  3.1967 -2.7899
  769SOL    HW2 2307   1.265   1.745   2.193 -2.4245 -2.8127  0.5899
  770SOL     OW 2308   0.186   1.162   2.275 -0.4817  0.5268 -0.8184
  770SOL    HW1 2309   0.156   1.175   2.373 -1.0665 -0.7659  0.6253
  770SOL    HW2 2310   0.106   1.178   2.213  1.5649 -2.1074  1.2851
  771SOL     OW 2311   2.964   2.848   1.877 -0.1400  0.6121 -0.2626
  771SOL    HW1 2312   2.939   2.909   1.796  1.9115  0.2630 -1.7178
  771SOL    HW2 2313   3.002   2.911   1.956  0.6213  0.7513 -0.7817
  772SOL     OW 2314   2.163   0.057   3.021  0.0501 -0.4446  0.0691
  772SOL    HW1 2315   2.213   0.005   2.945  0.9543 -2.8212 -0.2841
  772SOL    HW2 2316   2.196   0.160   3.039  0.2807 -0.2357  2.1302
  773SOL     OW 2317   0.708   2.140   2.449 -0.8932  0.6033 -0.3863
  773SOL    HW1 2318   0.655   2.155   2.361 -1.7333 -2.0067 -1.7143
  773SOL    HW2 2319   0.651   2.157   2.539 -0.5211  0.3813  2.6492
  774SOL     OW 2320   1.983   0.011   2.660  0.3917  0.3062 -0.1673
  774SOL    HW1 2321   1.966   0.085   2.728 -1.4708 -0.5526 -2.7259
  774SOL    HW2 2322   2.046  -0.065   2.694  0.6761 -3.6412  1.5220
  775SOL     OW 2323   2.485   2.890   2.325 -0.2647 -0.1346 -0.2371
  775SOL    HW1 2324   2.457   2.988   2.331  0.4476 -1.5164  0.6528
  775SOL    HW2 2325   2.570   2.875   2.378 -1.8510  0.7107  0.1098
  776SOL     OW 2326   0.031   1.188   0.262  0.1514  0.6817  0.2109
  776SOL    HW1 2327  -0.018   1.225   0.180 -0.0087  1.6178  0.8622
  776SOL    HW2 2328  -0.033   1.186   0.344 -1.0171  0.1976  1.4520
  777SOL     OW 2329   0.327   2.730   0.376  0.4049  0.1099 -0.4208
  777SOL    HW1 2330   0.229   2.697   0.388 -1.1328  2.6986 -0.3463
  777SOL    HW2 2331   0.346   2.823   0.406 -0.2240 -0.9116 -0.4329
  778SOL     OW 2332   1.290   1.998   0.146 -0.4739 -0.0705 -0.4604
  778SOL    HW1 2333   1.259   2.016   0.247  2.0163  0.6702  0.6594
  778SOL    HW2 2334   1.334   2.085   0.109  1.7388 -2.1236  0.2448
  779SOL     OW 2335   0.197   0.795   0.495 -0.1057 -0.1024  0.3114
  779SOL    HW1 2336   0.162   0.698   0.507 -1.3082  1.6964  0.0070
  779SOL    HW2 2337   0.166   0.854   0.573  2.3888  0.3521 -1.6172
  780SOL     OW 2338   0.074   0.326   2.379 -0.5434  0.2920  0.5351
  780SOL    HW1 2339   0.031   0.423   2.365 -1.2120  3.2607  1.6759
  780SOL    HW2 2340   0.170   0.323   2.343  0.5048 -2.2639  0.4317
  781SOL     OW 2341   0.538   1.792   1.594 -0.6371  0.0991  0.3079
  781SOL    HW1 2342   0.594   1.784   1.685 -0.5861 -1.6315  2.6116
  781SOL    HW2 2343   0.467   1.718   1.582 -1.3886 -0.8399 -0.1840
  782SOL     OW 2344   2.601   0.099   0.908  0.4034  0.1995  0.5929
  782SOL    HW1 2345   2.560   0.159   0.832  1.8660 -2.6338  0.8160
  782SOL    HW2 2346   2.591   0.130   1.007 -1.4018 -2.0598  0.0385
  783SOL     OW 2347   2.844   0.630   2.564 -0.1552 -0.2437 -0.2590
  783SOL    HW1 2348   2.788   0.652   2.646  0.7617  0.6827 -0.4224
  783SOL    HW2 2349   2.782   0.583   2.492 -0.9941 -0.7170 -1.4725
  784SOL     OW 2350   1.422   2.224   0.059  0.0633 -0.0105  0.3243
  784SOL    HW1 2351   1.514   2.255   0.102  3.0237 -0.9653  2.8050
  784SOL    HW2 2352   1.424   2.217  -0.042 -1.2171  1.1697  1.9984
  785SOL     OW 2353   2.184   0.329   3.086 -0.1261  0.2406 -0.6575
  785SOL    HW1 2354   2.103   0.327   3.153  1.7383  0.3318 -0.3631
  785SOL    HW2 2355   2.199   0.431   3.064 -1.6476 -1.7482  0.0729
  786SOL     OW 2356   2.113   2.219   2.242  0.3433  0.8477  0.1362
  786SOL    HW1 2357   2.031   2.172   2.188  2.5335 -0.1310 -3.3482
  786SOL    HW2 2358   2.180   2.148   2.279 -1.3733  0.8089 -0.6161
  787SOL     OW 2359   1.350   0.606   0.741 -0.0296 -0.5823  0.7195
  787SOL    HW1 2360   1.311   0.685   0.691 -0.2015 -1.4028  2.8730
  787SOL    HW2 2361   1.389   0.532   0.687 -0.6665 -4.0077  0.9886
  788SOL     OW 2362   1.231   0.472   2.970 -0.0990 -0.5809 -0.1212
  788SOL    HW1 2363   1.137   0.455   2.930 -3.2254 -0.9927  0.1433
  788SOL    HW2 2364   1.263   0.570   2.964  0.5818 -0.8571 -0.0700
  789SOL     OW 2365   2.620   0.106   1.926  0.0836  0.1818  0.5690
  789SOL    HW1 2366   2.526   0.155   1.916 -2.0503  3.1821 -2.4195
  789SOL    HW2 2367   2.617   0.019   1.980 -0.4372  3.6503  1.9343
  790SOL     OW 2368   2.646   2.612   0.841  0.0663  0.1165 -0.1658
  790SOL    HW1 2369   2.715   2.613   0.762  2.2026  0.7269  0.7146
  790SOL    HW2 2370   2.650   2.696   0.901 -1.1640 -1.7959 -3.8988
  791SOL     OW 2371   1.923   1.191   0.218 -0.2817  0.2667 -0.3861
  791SOL    HW1 2372   1.837   1.149   0.254  0.7806  1.4178  0.6767
  791SOL    HW2 2373   1.984   1.121   0.167  0.6169 -1.6622  1.9428
  792SOL     OW 2374   0.470   1.969   2.259  0.3831 -0.6121  0.4507
  792SOL    HW1 2375   0.477   2.075   2.248 -0.7041 -0.9559 -1.7842
  792SOL    HW2 2376   0.394   1.938   2.320  0.7365  0.8388 -0.2274
  793SOL     OW 2377   2.076   1.566   2.016 -0.4052 -0.0275  0.1924
  793SOL    HW1 2378   2.171   1.599   2.011 -0.9136  1.2635 -0.1083
  793SOL    HW2 2379   2.075   1.489   1.949 -0.3886  4.3459  0.0852
  794SOL     OW 2380   0.567   1.552   2.495 -0.5375  0.2536 -0.1238
  794SOL    HW1 2381   0.628   1.478   2.456  2.1858  0.0484  3.0475
  794SOL    HW2 2382   0.473   1.564   2.449 -0.6654 -0.6816  0.7686
  795SOL     OW 2383   2.382   2.348   1.858 -0.8301 -0.4829  0.2313
  795SOL    HW1 2384   2.344   2.417   1.920  1.9170 -2.1035 -1.2413
  795SOL    HW2 2385   2.335   2.254   1.850 -1.2698 -2.5874 -0.7682
  796SOL     OW 2386   3.033   1.150   2.719 -0.5650 -0.0745  0.0895
  796SOL    HW1 2387   2.929   1.152   2.724 -1.6698 -1.1753 -1.1717
  796SOL    HW2 2388   3.078   1.154   2.811 -0.6997 -1.7818 -0.4265
  797SOL     OW 2389   0.704   0.640   1.332 -0.0482  0.1545 -0.7041
  797SOL    HW1 2390   0.777   0.680   1.386 -1.3075  0.0876  1.0788
  797SOL    HW2 2391   0.703   0.696   1.246  0.0653  0.9907 -0.5829
  798SOL     OW 2392   1.201   0.526   0.980 -0.2032 -0.6749  0.0694
  798SOL    HW1 2393   1.200   0.613   1.030  1.1468 -0.0904 -1.2002
  798SOL    HW2 2394   1.239   0.549   0.888 -0.0391  1.0454  1.2286
  799SOL     OW 2395   1.791   2.704   1.077  0.4254 -0.3247  0.4903
  799SOL    HW1 2396   1.781   2.609   1.108 -2.6458  2.4621  1.8371
  799SOL    HW2 2397   1.785   2.702   0.976 -1.6473 -0.5075  2.3923
  800SOL     OW 2398   2.956   0.827   1.865 -0.3991 -0.3176 -0.0417
  800SOL    HW1 2399   2.963   0.928   1.884 -0.3896  1.7853  3.2350
  800SOL    HW2 2400   2.945   0.774   1.954 -1.0750 -2.1006  1.5426
  801SOL     OW 2401   2.000   2.271   0.090  0.0281  0.7359 -0.6832
  801SOL    HW1 2402   1.949   2.326   0.018 -1.6769  2.1846 -0.5913
  801SOL    HW2 2403   2.055   2.190   0.056 -3.0581  1.1658 -0.4116
  802SOL     OW 2404   0.685   0.610   2.514 -0.2039  0.0648 -0.6587
  802SOL    HW1 2405   0.751   0.625   2.434 -0.3142  2.9568 -0.0206
  802SOL    HW2 2406   0.583   0.623   2.493 -1.1396  1.2049 -1.0098
  803SOL     OW 2407   0.948   0.091   0.916 -0.0376  0.0056  0.2484
  803SOL    HW1 2408   1.020   0.157   0.946 -2.1663 -0.6340 -2.5681
  803SOL    HW2 2409   0.909   0.119   0.828  2.6197  0.8640  2.2197
  804SOL     OW 2410   0.343   0.027   2.187  0.1071 -0.0813 -0.5825
  804SOL    HW1 2411   0.334   0.125   2.218  1.5013  0.1529 -2.2760
  804SOL    HW2 2412   0.269   0.005   2.120 -2.4630  1.8292 -0.3043
  805SOL     OW 2413   2.396   0.319   0.316  0.1248 -0.4043  0.3471
  805SOL    HW1 2414   2.476   0.322   0.382  2.0325 -0.9041  0.5053
  805SOL    HW2 2415   2.406   0.262   0.226  0.5823 -2.3561 -2.3322
  806SOL     OW 2416   0.661   2.651   1.995  0.6682 -0.1220  0.0698
  806SOL    HW1 2417   0.609   2.731   2.042  0.5132  0.6372  2.5848
  806SOL    HW2 2418   0.685   2.671   1.899 -2.4805  0.1703 -0.5099
  807SOL     OW 2419   2.583   0.917   0.512  0.9038  0.2540 -0.1151
  807SOL    HW1 2420   2.678   0.884   0.526 -1.9810  0.3035 -3.2556
  807SOL    HW2 2421   2.571   0.950   0.413 -1.2559  0.1646 -1.1154
  808SOL     OW 2422   0.683   2.027   2.893 -0.2728  0.5084  0.3550
  808SOL    HW1 2423   0.603   2.055   2.951 -0.2135 -1.4101 -2.4378
  808SOL    HW2 2424   0.711   1.927   2.904 -2.1770  1.1362  2.3538
  809SOL     OW 2425   2.563   2.036   1.923  0.3412  0.1172  0.1147
  809SOL    HW1 2426   2.662   2.057   1.902  1.5460  0.4003  2.2989
  809SOL    HW2 2427   2.517   2.014   1.835 -0.6043  2.1239 -1.0629
  810SOL     OW 2428   2.196   1.224   0.499 -0.0496  1.0496  0.4334
  810SOL    HW1 2429   2.106   1.171   0.518 -1.2608 -1.1780  1.8854
  810SOL    HW2 2430   2.173   1.326   0.497 -2.4516  1.9227 -2.0406
  811SOL     OW 2431   1.238   2.497   1.172 -0.5058 -0.3784  0.2702
  811SOL    HW1 2432   1.250   2.391   1.191  1.2414 -3.5348  2.5318
  811SOL    HW2 2433   1.250   2.551   1.265  3.0082  2.3668  0.5917
  812SOL     OW 2434   1.448   0.752   1.996 -0.6658  0.3657 -0.2366
  812SOL    HW1 2435   1.436   0.774   2.100 -2.4292 -1.8678  1.5082
  812SOL    HW2 2436   1.488   0.833   1.945  0.5296  2.5371  0.0036
  813SOL     OW 2437   1.625   2.070   2.413  0.4824  0.1931  0.2387
  813SOL    HW1 2438   1.730   2.059   2.414  0.5270  2.1448  1.3191
  813SOL    HW2 2439   1.584   2.046   2.319  0.2389 -1.0305  2.9135
  814SOL     OW 2440   2.973   1.698   2.889  0.2578  0.3404 -0.5648
  814SOL    HW1 2441   3.062   1.650   2.914  0.7629 -0.7082  0.9819
  814SOL    HW2 2442   2.982   1.798   2.909 -2.0047 -0.6539  1.1581
  815SOL     OW 2443   2.138   2.896   2.760 -0.2951  0.5011  0.6994
  815SOL    HW1 2444   2.103   2.817   2.814  0.3119 -0.9716 -1.3235
  815SOL    HW2 2445   2.236   2.919   2.784 -1.7182 -0.1575  0.0848
  816SOL     OW 2446   1.533   0.454   1.686  0.5883  0.2759  0.0940
  816SOL    HW1 2447   1.557   0.355   1.673 -1.2029 -1.7697  1.3017
  816SOL    HW2 2448   1.485   0.468   1.780  0.6821  4.6098 -0.7571
  817SOL     OW 2449   0.398   1.237   2.562  0.1832 -0.4889 -0.4104
  817SOL    HW1 2450   0.306   1.274   2.583  2.9401 -1.2150  1.5964
  817SOL    HW2 2451   0.421   1.220   2.462  1.3891  1.3060  0.7479
  818SOL     OW 2452   1.996   0.768   0.470  0.3704  0.0688  0.1573
  818SOL    HW1 2453   2.089   0.804   0.447 -2.2777  0.5511  1.8403
  818SOL    HW2 2454   1.949   0.830   0.541  0.3463 -0.9267 -0.6710
  819SOL     OW 2455   2.843   2.890   3.026 -0.2220  0.1953  0.3163
  819SOL    HW1 2456   2.920   2.822   2.994  5.6904 -0.1883 -0.7120
  819SOL    HW2 2457   2.748   2.879   2.974 -0.3825 -0.0825 -1.2029
  820SOL     OW 2458   1.215   1.043   0.536  0.4045 -0.5450  0.1664
  820SOL    HW1 2459   1.222   1.145   0.548  0.8843 -4.3428 -1.3545
  820SOL    HW2 2460   1.196   0.987   0.621 -2.1521  2.4162 -4.0180
  821SOL     OW 2461   0.049   1.207   0.758  0.2858  0.4838 -0.2044
  821SOL    HW1 2462  -0.003   1.230   0.850 -0.1260  0.0268  0.6509
  821SOL    HW2 2463   0.094   1.287   0.710  1.3655 -0.5285 -0.7894
  822SOL     OW 2464   2.558   1.772   2.445 -0.3176  0.0181 -0.1706
  822SOL    HW1 2465   2.540   1.837   2.523 -1.8821  0.5688 -0.1050
  822SOL    HW2 2466   2.471   1.755   2.395  1.8702 -1.4592  1.4629
  823SOL     OW 2467   2.016   0.892   1.178  0.0837 -0.3992 -0.7662
  823SOL    HW1 2468   2.003   0.851   1.268  1.1846 -0.3124 -2.6447
  823SOL    HW2 2469   1.966   0.844   1.102  0.0950  0.9329  1.7285
  824SOL     OW 2470   0.199   1.799   2.847 -0.1813  0.1463 -0.5035
  824SOL    HW1 2471   0.211   1.802   2.951  1.4314 -2.0541 -0.0358
  824SOL    HW2 2472   0.271   1.851   2.793  0.7402  0.9211  0.7882
  825SOL     OW 2473   1.260   1.034   0.271  0.2517 -0.0064 -0.8640
  825SOL    HW1 2474   1.264   1.134   0.242 -1.8046  2.1107 -0.3925
  825SOL    HW2 2475   1.234   1.028   0.373  1.6732  1.3482 -1.9259
  826SOL     OW 2476   1.985   0.670   1.623 -0.1809 -0.2752  0.1372
  826SOL    HW1 2477   2.061   0.611   1.664 -1.4693 -1.0473 -3.3231
  826SOL    HW2 2478   1.907   0.606   1.594  0.5274  0.0698 -0.3634
  827SOL     OW 2479   0.721   1.192   0.486 -0.5395 -0.4620 -0.6562
  827SOL    HW1 2480   0.808   1.132   0.484 -2.0850 -0.2838  3.0708
  827SOL    HW2 2481   0.640   1.133   0.462  1.8187  0.4675  0.6164
  828SOL     OW 2482   2.727   0.163   1.645 -0.6692  0.1377 -0.1269
  828SOL    HW1 2483   2.645   0.125   1.597 -2.2246  2.1666  0.3620
  828SOL    HW2 2484   2.727   0.140   1.747  0.3038 -2.2080  1.6447
  829SOL     OW 2485   2.890   2.375   2.881 -0.7385  0.5654 -0.4434
  829SOL    HW1 2486   2.795   2.343   2.915  0.9470 -4.5439  2.8416
  829SOL    HW2 2487   2.902   2.475   2.898 -1.2639 -1.3135  1.3192
  830SOL     OW 2488   2.998   0.937   2.961  0.2197  0.1166 -0.3310
  830SOL    HW1 2489   3.076   1.003   2.976 -0.5340  1.3617 -0.4452
  830SOL    HW2 2490   2.974   0.887   3.048 -0.5023 -2.5228 -0.3537
  831SOL     OW 2491   3.079   0.558   0.448 -0.2364 -0.1847  0.7752
  831SOL    HW1 2492   3.088   0.487   0.524  0.8164 -0.2924  0.8198
  831SOL    HW2 2493   3.110   0.525   0.354 -0.6646  0.9276 -0.6922
  832SOL     OW 2494   1.771   0.708   0.030 -0.5081  0.7220 -0.5060
  832SOL    HW1 2495   1.680   0.745  -0.005 -0.6491 -0.5973  1.4730
  832SOL    HW2 2496   1.780   0.604  -0.002 -0.3820 -1.4567 -1.2523
  833SOL     OW 2497   2.348   2.114   0.497 -0.3783 -0.4612 -0.5619
  833SOL    HW1 2498   2.262   2.073   0.457 -2.8288 -1.0558  1.0610
  833SOL    HW2 2499   2.433   2.056   0.472  1.1019 -0.1003  0.9156
  834SOL     OW 2500   0.041   0.066   0.568 -0.5464 -0.4507  0.0366
  834SOL    HW1 2501   0.127   0.013   0.580  2.5383 -0.0755 -0.2633
  834SOL    HW2 2502   0.043   0.133   0.485 -1.8556  2.0563  0.3012
  835SOL     OW 2503   2.540   1.726   1.102  0.4751  0.4399  0.2334
  835SOL    HW1 2504   2.610   1.673   1.159 -1.8389 -1.2693  1.5624
  835SOL    HW2 2505   2.586   1.791   1.038  1.6702  2.7821 -0.4610
  836SOL     OW 2506   1.553   0.860   2.581 -0.4116 -0.0747 -0.0221
  836SOL    HW1 2507   1.448   0.874   2.561 -2.0905 -2.9333  2.8359
  836SOL    HW2 2508   1.608   0.892   2.501 -3.1865 -2.4649  0.2321
  837SOL     OW 2509   1.667   0.017   0.642 -0.4159 -0.5603  1.0088
  837SOL    HW1 2510   1.640   0.119   0.640 -0.5541 -0.9277 -0.9699
  837SOL    HW2 2511   1.647  -0.036   0.554 -0.0408 -0.5795 -1.0271
  838SOL     OW 2512   1.188   1.401   2.676 -0.7716 -0.0626  0.0896
  838SOL    HW1 2513   1.175   1.440   2.774  0.1914 -1.1875  2.7549
  838SOL    HW2 2514   1.104   1.380   2.622 -0.5002  0.2521 -3.2773
  839SOL     OW 2515   1.620   0.387   0.985 -0.2601 -0.5483  0.2773
  839SOL    HW1 2516   1.560   0.468   1.002  1.7488  1.0318 -1.2546
  839SOL    HW2 2517   1.580   0.286   0.986 -1.5574 -3.0959 -1.9148
  840SOL     OW 2518   2.659   2.942   1.633 -0.2214 -0.6010 -0.4861
  840SOL    HW1 2519   2.570   2.985   1.595  1.4352  3.6167 -0.4625
  840SOL    HW2 2520   2.653   2.914   1.736 -0.2482 -1.8699 -1.1484
  841SOL     OW 2521   1.537   0.852   3.050  0.2958 -0.0044 -0.2023
  841SOL    HW1 2522   1.440   0.867   3.085 -1.1815  0.5297  0.0890
  841SOL    HW2 2523   1.535   0.912   2.966 -2.6256  0.5270  1.1021
  842SOL     OW 2524   0.825   1.605   1.035  0.3357 -0.0309  0.2977
  842SOL    HW1 2525   0.819   1.704   1.055  3.0862 -0.6693 -1.5217
  842SOL    HW2 2526   0.738   1.570   0.988 -1.7726 -0.1047 -1.5151
  843SOL     OW 2527   0.132   0.079   1.433  0.2826  0.4979 -0.0529
  843SOL    HW1 2528   0.224   0.125   1.453  0.6078 -0.8480  0.7274
  843SOL    HW2 2529   0.140  -0.025   1.409 -0.2648 -0.9906  0.1472
  844SOL     OW 2530   0.766   2.450   0.202  0.8395  0.2215  0.0309
  844SOL    HW1 2531   0.724   2.488   0.289  0.5608 -1.3778 -0.6082
  844SOL    HW2 2532   0.702   2.431   0.124  0.9340  1.9149 -0.6282
  845SOL     OW 2533   1.732   0.015   1.312  0.0139  0.0208 -0.4134
  845SOL    HW1 2534   1.739  -0.005   1.414  3.3469 -0.1245  1.4701
  845SOL    HW2 2535   1.680   0.105   1.295 -1.1203 -2.2049  1.4248
  846SOL     OW 2536   1.710   2.994   0.884  0.3658 -0.0133  0.0884
  846SOL    HW1 2537   1.680   3.059   0.810  1.4287 -4.4469 -0.4562
  846SOL    HW2 2538   1.802   3.010   0.917 -0.2608 -1.1053 -0.5875
  847SOL     OW 2539   2.066   1.570   0.194 -0.3533  0.1616  0.0073
  847SOL    HW1 2540   2.018   1.523   0.271 -1.0555  2.3595  0.7744
  847SOL    HW2 2541   2.002   1.595   0.112  0.3871 -0.6156 -0.9065
  848SOL     OW 2542   2.464   0.791   2.673 -0.3690 -0.3365  0.3882
  848SOL    HW1 2543   2.481   0.893   2.682 -1.7834  3.4944 -0.4653
  848SOL    HW2 2544   2.405   0.765   2.593 -3.2421  0.9652 -1.1715
  849SOL     OW 2545   2.346   0.842   2.310  0.0950  0.2911  0.4192
  849SOL    HW1 2546   2.384   0.807   2.218 -1.1756 -0.9988  0.0599
  849SOL    HW2 2547   2.329   0.769   2.376  2.8180  1.5407  2.4405
  850SOL     OW 2548   1.526   0.218   1.268  0.5845 -0.5121 -0.1250
  850SOL    HW1 2549   1.504   0.209   1.165 -0.3731  1.9465  0.8711
  850SOL    HW2 2550   1.500   0.136   1.329 -2.1418 -1.0769  1.1456
  851SOL     OW 2551   0.420   1.678   0.654 -0.5580  0.1917  0.0239
  851SOL    HW1 2552   0.443   1.777   0.673  2.5894  0.7648  2.3184
  851SOL    HW2 2553   0.494   1.629   0.602  0.6841  0.1597  2.3209
  852SOL     OW 2554   0.847   2.158   1.769 -0.2853 -0.3923 -0.5117
  852SOL    HW1 2555   0.829   2.225   1.700 -0.9021  0.1135 -0.5408
  852SOL    HW2 2556   0.774   2.152   1.843  2.1678 -0.0082  0.1659
  853SOL     OW 2557   2.519   1.504   2.602 -0.1594  0.1048  0.3093
  853SOL    HW1 2558   2.481   1.413   2.572 -1.5233 -1.0647  0.0804
  853SOL    HW2 2559   2.515   1.582   2.531 -2.3146  3.8624 -1.1241
  854SOL     OW 2560   2.420   1.471   1.713  0.0851 -0.2730 -0.3010
  854SOL    HW1 2561   2.441   1.482   1.611  0.7359 -3.2979 -2.4138
  854SOL    HW2 2562   2.404   1.372   1.741  0.1867 -0.4770 -0.6979
  855SOL     OW 2563   2.059   2.380   0.951 -0.0280  0.7776 -0.3748
  855SOL    HW1 2564   2.117   2.447   0.903 -2.3453 -0.4012  0.1711
  855SOL    HW2 2565   2.115   2.327   1.020 -0.5434 -1.7136 -1.1569
  856SOL     OW 2566   1.439   1.430   0.819  0.5226 -0.0479 -0.0649
  856SOL    HW1 2567   1.468   1.526   0.846 -1.0579 -2.5820  1.4023
  856SOL    HW2 2568   1.364   1.403   0.883  1.0934 -2.4266  0.0597
  857SOL     OW 2569   2.923   2.535   1.053  0.1154 -0.4110 -0.1830
  857SOL    HW1 2570   2.830   2.509   1.097 -1.2861 -0.1071 -0.8123
  857SOL    HW2 2571   2.986   2.452   1.045  0.7146  1.2188 -0.0482
  858SOL     OW 2572   2.290   2.109   1.772 -0.5267 -0.1986  0.1807
  858SOL    HW1 2573   2.223   2.179   1.731 -1.5495 -1.5080 -2.2123
  858SOL    HW2 2574   2.330   2.041   1.702  2.1551 -0.7380 -2.9397
  859SOL     OW 2575   2.485   0.452   1.032 -0.0108  0.1685  0.0779
  859SOL    HW1 2576   2.548   0.492   0.961  2.4617 -1.0115 -0.2006
  859SOL    HW2 2577   2.517   0.366   1.075  1.4207  2.7726 -0.3066
  860SOL     OW 2578   1.898   2.798   0.516  0.2471  0.1500 -0.1774
  860SOL    HW1 2579   1.968   2.761   0.449  1.2969  0.5427  1.3999
  860SOL    HW2 2580   1.903   2.898   0.539  1.2034  0.9927 -3.8532
  861SOL     OW 2581   0.982   2.607   2.851 -0.6186  0.4662  0.3114
  861SOL    HW1 2582   0.982   2.705   2.880  1.5882  0.0012  0.3965
  861SOL    HW2 2583   0.967   2.552   2.938  0.9062 -0.9090  1.5075
  862SOL     OW 2584   2.935   2.525   1.584 -0.3832 -0.6382  0.1911
  862SOL    HW1 2585   2.978   2.572   1.665 -0.3093  1.6439 -0.3079
  862SOL    HW2 2586   2.835   2.549   1.575 -0.7268 -3.0135  0.6468
  863SOL     OW 2587   1.909   2.695   0.178 -0.0663 -0.2845  0.1875
  863SOL    HW1 2588   1.973   2.638   0.234  2.8743  0.2176 -0.5041
  863SOL    HW2 2589   1.810   2.655   0.184  0.1404  0.7470 -2.1361
  864SOL     OW 2590   1.932   1.090   2.989  0.1800 -0.1708  0.3563
  864SOL    HW1 2591   1.948   1.084   2.885 -1.0123  0.7120  0.1578
  864SOL    HW2 2592   2.021   1.071   3.036 -1.4613 -1.4566  1.5536
  865SOL     OW 2593   2.204   1.712   0.625  0.6639  0.5841  0.0516
  865SOL    HW1 2594   2.205   1.765   0.718 -1.1812 -2.5316  2.6779
  865SOL    HW2 2595   2.161   1.620   0.631 -1.7027  1.6848  2.9558
  866SOL     OW 2596   2.961   2.797   0.990  0.7335  0.2377 -1.0536
  866SOL    HW1 2597   3.019   2.827   0.908  1.2991  0.9791  0.7807
  866SOL    HW2 2598   2.936   2.698   0.995 -1.8236  2.8682 -1.1180
  867SOL     OW 2599   0.363   1.385   0.850 -0.2083 -0.1117  0.4089
  867SOL    HW1 2600   0.385   1.284   0.817 -1.5399 -0.2073 -0.3654
  867SOL    HW2 2601   0.283   1.426   0.800  0.3035  1.5501 -0.8813
  868SOL     OW 2602   0.822   1.911   2.022 -0.4733  0.0713  0.0762
  868SOL    HW1 2603   0.794   1.865   2.109 -3.1959 -0.3067 -2.4719
  868SOL    HW2 2604   0.806   2.008   2.013 -1.1567 -1.0701  0.5029
  869SOL     OW 2605   2.509   1.965   1.639 -0.4249  0.4656  0.2195
  869SOL    HW1 2606   2.589   1.897   1.645 -4.1506  0.3352  1.3495
  869SOL    HW2 2607   2.475   1.990   1.546 -0.5198 -0.8277  3.0571
  870SOL     OW 2608   2.353   2.541   1.272 -0.1449  0.4429 -0.0180
  870SOL    HW1 2609   2.299   2.472   1.215 -1.2928  1.9316  1.0285
  870SOL    HW2 2610   2.420   2.502   1.336 -2.2793  2.4937 -1.0378
  871SOL     OW 2611   3.005   1.984   0.532  0.4775 -0.3164  0.1401
  871SOL    HW1 2612   2.941   2.068   0.529 -1.2456 -1.9629 -1.2168
  871SOL    HW2 2613   2.966   1.908   0.476 -0.7785  1.0419  1.2983
  872SOL     OW 2614   2.193   0.537   1.715  0.2478 -0.1413 -0.1858
  872SOL    HW1 2615   2.186   0.577   1.807 -0.1174  1.0545 -0.0358
  872SOL    HW2 2616   2.283   0.493   1.689 -0.2118 -0.7784 -1.1002
  873SOL     OW 2617   1.705   2.114   2.891  0.9669  0.1790  0.3866
  873SOL    HW1 2618   1.689   2.210   2.928 -2.3934  3.3095 -0.0339
  873SOL    HW2 2619   1.631   2.086   2.822 -1.2681  0.5887 -2.3691
  874SOL     OW 2620   0.599   2.482   0.735  0.7119 -0.8229 -0.6545
  874SOL    HW1 2621   0.601   2.583   0.766 -1.8034 -0.9570 -0.7051
  874SOL    HW2 2622   0.697   2.455   0.728  0.5014  0.4174  1.4522
  875SOL     OW 2623   2.313   1.584   1.465 -0.5524  0.5692  0.8177
  875SOL    HW1 2624   2.395   1.636   1.500 -4.4621  2.2483  0.4481
  875SOL    HW2 2625   2.292   1.601   1.364 -1.9790  1.2180 -0.1905
  876SOL     OW 2626   0.170   2.264   2.760  0.2341  0.1770  0.4316
  876SOL    HW1 2627   0.173   2.190   2.837  1.7341  1.2869  2.8970
  876SOL    HW2 2628   0.250   2.335   2.763  0.3569 -1.2525  3.8047
  877SOL     OW 2629   2.819   2.647   0.638 -0.3624  0.2401  0.8121
  877SOL    HW1 2630   2.835   2.752   0.639  1.1824  2.5077  0.0014
  877SOL    HW2 2631   2.899   2.598   0.693 -1.2802 -1.5822  1.1588
  878SOL     OW 2632   2.710   1.486   2.365 -1.2920 -0.0569  0.5210
  878SOL    HW1 2633   2.754   1.577   2.394 -0.3227  1.8547 -1.1400
  878SOL    HW2 2634   2.746   1.413   2.433  3.1102 -0.3362  0.6539
  879SOL     OW 2635   2.455   3.051   1.232 -0.3912  0.0098 -0.7119
  879SOL    HW1 2636   2.498   2.956   1.215  1.1170 -1.0124  0.3445
  879SOL    HW2 2637   2.354   3.060   1.214  2.9638  0.3208 -0.5704
  880SOL     OW 2638   0.617   0.505   2.216  0.4340 -0.0570  0.3660
  880SOL    HW1 2639   0.575   0.459   2.301 -1.7128 -1.1056 -1.8640
  880SOL    HW2 2640   0.604   0.443   2.132  0.4554 -1.7102 -2.8615
  881SOL     OW 2641   0.899   0.073   0.454  0.8815 -0.0547 -0.0912
  881SOL    HW1 2642   0.947  -0.015   0.476 -0.9119 -0.8176 -1.2187
  881SOL    HW2 2643   0.891   0.089   0.352 -1.4862 -0.2334 -0.0094
  882SOL     OW 2644   2.762   1.786   1.677  0.0467 -0.3157  0.1445
  882SOL    HW1 2645   2.819   1.700   1.656 -2.2439 -0.4135 -1.5251
  882SOL    HW2 2646   2.735   1.783   1.776  2.8690  0.6302  1.4795
  883SOL     OW 2647   0.928   0.564   0.958 -0.3017  0.0144  0.0864
  883SOL    HW1 2648   0.921   0.637   1.033 -2.1607 -0.5752  0.0772
  883SOL    HW2 2649   1.023   0.520   0.954  0.0701 -0.1131  0.8357
  884SOL     OW 2650   1.152   1.910   1.058 -0.5078 -0.2436  0.0888
  884SOL    HW1 2651   1.135   1.854   0.969  0.6542  1.4092 -1.7877
  884SOL    HW2 2652   1.075   1.973   1.084 -2.1124 -0.2680 -1.1823
  885SOL     OW 2653   2.322   1.795   2.297  0.1237  0.5471  0.1233
  885SOL    HW1 2654   2.235   1.758   2.333  2.1955  1.2847 -0.9077
  885SOL    HW2 2655   2.324   1.899   2.310 -2.8638 -0.9698 -2.4632
  886SOL     OW 2656   2.673   0.457   1.825 -0.0264 -0.2072  0.4652
  886SOL    HW1 2657   2.735   0.386   1.880  1.0522  0.4081  1.0247
  886SOL    HW2 2658   2.731   0.541   1.799  1.3298  1.7983  1.9797
  887SOL     OW 2659   0.203   2.043   1.279  0.4656  0.0264 -0.3889
  887SOL    HW1 2660   0.142   2.005   1.202 -3.2109 -0.3791  0.4811
  887SOL    HW2 2661   0.245   2.133   1.254  0.7099  0.7298  1.5392
  888SOL     OW 2662   0.573   1.339   1.476 -0.3602  0.5344 -0.2995
  888SOL    HW1 2663   0.598   1.387   1.389  1.1414  1.8505  0.5479
  888SOL    HW2 2664   0.587   1.233   1.466  0.4880 -1.3647 -4.2826
  889SOL     OW 2665   0.836   2.407   2.158  0.2382  0.1278  0.7811
  889SOL    HW1 2666   0.780   2.343   2.097 -1.5548 -1.4189 -1.0537
  889SOL    HW2 2667   0.919   2.449   2.108 -0.3829  0.7729 -3.1101
  890SOL     OW 2668   2.336   2.423   0.212  0.3756  0.2761  0.6119
  890SOL    HW1 2669   2.386   2.515   0.203  2.5134 -1.5363 -0.8865
  890SOL    HW2 2670   2.234   2.436   0.212  1.2845  1.4351  1.5631
  891SOL     OW 2671   2.599   1.657   0.719 -0.1757 -0.3191  0.2471
  891SOL    HW1 2672   2.574   1.581   0.786 -0.9017  0.4641 -1.4154
  891SOL    HW2 2673   2.530   1.655   0.641  1.5040 -1.8694 -0.1223
  892SOL     OW 2674   0.299   0.281   2.246  0.2374 -0.0502 -0.0271
  892SOL    HW1 2675   0.302   0.346   2.161  0.7855  0.8489  0.8293
  892SOL    HW2 2676   0.369   0.323   2.314 -0.6189  0.6975 -3.8205
  893SOL     OW 2677   1.626   0.256   2.724 -0.0066  0.1362  1.0719
  893SOL    HW1 2678   1.697   0.321   2.757  3.5463 -0.2539  0.6292
  893SOL    HW2 2679   1.532   0.300   2.705 -0.3113  0.7340 -2.8167
  894SOL     OW 2680   2.169   2.035   0.045  0.4460 -0.2186 -0.2956
  894SOL    HW1 2681   2.117   1.963  -0.006  0.3632 -0.0004  0.3186
  894SOL    HW2 2682   2.201   1.996   0.133 -1.4673 -1.3390 -0.7712
  895SOL     OW 2683   2.811   1.377   0.841 -1.0225 -0.6629 -0.0402
  895SOL    HW1 2684   2.853   1.312   0.910 -1.6842  2.4065  0.9873
  895SOL    HW2 2685   2.857   1.472   0.838  0.8674  2.4397 -2.2267
  896SOL     OW 2686   1.709   1.800   1.171  0.3948  0.7435  0.1268
  896SOL    HW1 2687   1.795   1.796   1.111 -0.4678  0.8199 -1.9941
  896SOL    HW2 2688   1.671   1.896   1.166  0.5817  1.0382 -0.3593
  897SOL     OW 2689   0.317   0.496   3.060 -0.4485  0.5417 -0.0378
  897SOL    HW1 2690   0.266   0.513   2.976  1.4263 -1.6792 -0.9147
  897SOL    HW2 2691   0.397   0.561   3.068 -1.0528  0.5495 -0.6882
  898SOL     OW 2692   0.556   2.925   0.991 -0.4728 -0.0763  0.1043
  898SOL    HW1 2693   0.460   2.952   1.017 -0.0750 -1.4262 -0.1795
  898SOL    HW2 2694   0.631   2.970   1.043  0.2539 -0.0518 -1.9858
  899SOL     OW 2695   2.699   0.939   1.276 -0.4502 -0.2897 -0.1377
  899SOL    HW1 2696   2.650   0.903   1.185  0.4503  4.6042 -1.4860
  899SOL    HW2 2697   2.786   0.992   1.252  0.8461 -0.7827 -0.2841
  900SOL     OW 2698   0.991   2.367   2.387  0.1686  0.2423 -0.1062
  900SOL    HW1 2699   0.930   2.402   2.313 -3.5923 -1.0584  2.2291
  900SOL    HW2 2700   0.963   2.403   2.482  0.7539  2.9390  0.1087
  901SOL     OW 2701   1.990   2.492   1.346 -0.2147 -0.0982 -0.0220
  901SOL    HW1 2702   1.932   2.470   1.259  0.8785 -0.2600 -3.1385
  901SOL    HW2 2703   2.061   2.422   1.359  0.4335  3.9065 -0.7395
  902SOL     OW 2704   2.574   1.663   1.477  0.3241  0.0680  0.2562
  902SOL    HW1 2705   2.632   1.701   1.552 -0.6862 -4.4322 -1.5119
  902SOL    HW2 2706   2.629   1.634   1.391  1.5956 -0.5554  3.9108
  903SOL     OW 2707   0.275   2.468   1.969  0.2321  0.5265 -0.3587
  903SOL    HW1 2708   0.187   2.422   1.995 -1.9173  0.7073 -1.8689
  903SOL    HW2 2709   0.264   2.536   1.883  1.1524 -1.8096 -3.0559
  904SOL     OW 2710   1.986   0.788   2.602 -0.0861  0.6164 -0.0219
  904SOL    HW1 2711   1.890   0.760   2.630 -0.9720  1.8717  1.4936
  904SOL    HW2 2712   1.991   0.798   2.504 -2.2393  2.5210  2.4313
  905SOL     OW 2713   2.826   0.038   2.569  0.7360  0.1737  0.6526
  905SOL    HW1 2714   2.913  -0.001   2.614  2.7768 -0.2013 -0.0669
  905SOL    HW2 2715   2.845   0.134   2.548  1.2825  0.2709  0.0076
  906SOL     OW 2716   0.122   1.853   1.915  0.0743 -0.0191 -0.2555
  906SOL    HW1 2717   0.074   1.825   1.827 -1.7225  1.2635 -1.9184
  906SOL    HW2 2718   0.142   1.954   1.927 -1.5881 -0.0734 -2.2663
  907SOL     OW 2719   0.197   2.396   1.065 -0.1272  0.4662  0.1048
  907SOL    HW1 2720   0.278   2.442   1.016 -0.8394 -0.7235 -1.1986
  907SOL    HW2 2721   0.107   2.406   1.019 -0.0197 -0.9758  0.0943
  908SOL     OW 2722   2.687   2.805   0.361 -0.1545 -0.6346 -0.0063
  908SOL    HW1 2723   2.647   2.872   0.294  0.1496 -1.4274  2.3265
  908SOL    HW2 2724   2.698   2.707   0.324  1.5859  1.0719 -0.2357
  909SOL     OW 2725   0.669   0.909   2.639 -0.4163 -0.6146  0.0803
  909SOL    HW1 2726   0.676   0.809   2.629 -2.4996  2.6301  0.4252
  909SOL    HW2 2727   0.763   0.952   2.619  0.3384  0.5754 -0.2019
  910SOL     OW 2728   1.718   1.784   2.107  0.1080 -0.8260  0.3461
  910SOL    HW1 2729   1.780   1.809   2.025  0.3483 -0.6386 -1.2330
  910SOL    HW2 2730   1.666   1.864   2.148 -0.4919 -1.0482  1.7109
  911SOL     OW 2731   1.762   3.044   1.571  0.1841 -0.2192  0.2441
  911SOL    HW1 2732   1.859   3.024   1.540  3.3687 -1.0795 -0.8646
  911SOL    HW2 2733   1.739   2.996   1.659  1.3592 -1.8562 -0.3779
  912SOL     OW 2734   2.876   0.965   0.765  0.3450  0.1461 -0.4749
  912SOL    HW1 2735   2.889   0.943   0.868  1.3716 -0.4071  0.5819
  912SOL    HW2 2736   2.799   1.032   0.745 -1.1599 -2.3967 -1.6387
  913SOL     OW 2737   2.578   1.283   1.551  0.0991  0.0031  0.0685
  913SOL    HW1 2738   2.596   1.192   1.595 -1.0487  0.1753  1.9312
  913SOL    HW2 2739   2.612   1.302   1.452 -0.5816  0.6598 -0.2694
  914SOL     OW 2740   2.775   0.493   1.280 -0.3404  0.3659 -0.5152
  914SOL    HW1 2741   2.776   0.407   1.343 -0.2236 -2.2845 -0.2922
  914SOL    HW2 2742   2.785   0.579   1.338 -0.5659  1.1471 -3.5934
  915SOL     OW 2743   1.177   0.793   1.035  0.5937 -0.2958  0.0193
  915SOL    HW1 2744   1.243   0.799   1.117 -0.9358 -1.0380 -2.1592
  915SOL    HW2 2745   1.076   0.807   1.064 -0.2463  1.9765 -0.9941
  916SOL     OW 2746   0.607   0.027   0.585 -0.0572 -0.1876 -0.1685
  916SOL    HW1 2747   0.615   0.096   0.663 -3.6790  0.4153  1.6196
  916SOL    HW2 2748   0.594   0.067   0.491 -0.7675 -0.7989  0.0334
  917SOL     OW 2749   2.741   2.613   1.863  0.3079 -0.0268 -0.0538
  917SOL    HW1 2750   2.686   2.690   1.895  0.6926  0.2260 -3.1755
  917SOL    HW2 2751   2.822   2.650   1.804 -1.3492  2.5319  1.8728
  918SOL     OW 2752   1.076   2.189   3.086 -0.1257 -0.0308  0.2141
  918SOL    HW1 2753   1.025   2.220   3.173 -1.0476 -1.2434  1.7704
  918SOL    HW2 2754   1.150   2.129   3.119  0.5976  0.0003 -1.1589
  919SOL     OW 2755   0.910   1.578   2.774  0.1930 -0.1560 -0.3531
  919SOL    HW1 2756   0.923   1.662   2.715 -0.8155  1.7291  2.4488
  919SOL    HW2 2757   0.866   1.496   2.728  0.7183 -0.4762  0.5298
  920SOL     OW 2758   1.215   2.010   2.459 -0.2766 -0.0611 -0.0599
  920SOL    HW1 2759   1.134   2.009   2.392  0.3307  1.9258 -0.8077
  920SOL    HW2 2760   1.218   1.921   2.512  0.5950  2.0935 -1.6273
  921SOL     OW 2761   1.049   0.107   2.532  0.6789 -0.2135 -0.6781
  921SOL    HW1 2762   1.021   0.018   2.488 -2.8285  2.0838  2.0925
  921SOL    HW2 2763   1.007   0.191   2.478 -1.9897  1.6652 -0.9423
  922SOL     OW 2764   2.143   2.424   2.805  0.2205 -0.6562  0.2237
  922SOL    HW1 2765   2.123   2.324   2.812 -1.3804  0.1357 -0.3779
  922SOL    HW2 2766   2.101   2.465   2.721  0.1031  3.2240 -0.6894
  923SOL     OW 2767   1.222   2.717   0.207  0.2694 -0.4620 -0.2266
  923SOL    HW1 2768   1.293   2.751   0.276  2.2632 -0.7145 -0.1514
  923SOL    HW2 2769   1.246   2.618   0.173  1.3844 -1.2376 -2.8755
  924SOL     OW 2770   2.918   1.613   0.079 -0.0026  0.2516  0.1363
  924SOL    HW1 2771   2.840   1.635   0.017  0.9972  1.3049  0.2604
  924SOL    HW2 2772   3.002   1.575   0.029 -0.2396 -0.5240 -1.5666
  925SOL     OW 2773   0.068   2.879   1.628 -0.3891 -0.2536  0.2203
  925SOL    HW1 2774   0.006   2.950   1.658 -0.5692 -0.7408 -1.3950
  925SOL    HW2 2775   0.070   2.877   1.525  0.4584  0.3118  1.7559
  926SOL     OW 2776   1.410   2.904   1.249  0.0714 -0.5001 -0.0072
  926SOL    HW1 2777   1.429   2.893   1.151 -2.8799 -1.4013  0.3087
  926SOL    HW2 2778   1.430   3.001   1.281 -1.8326  1.3977  0.1335
  927SOL     OW 2779   0.252   2.599   1.727  0.1468  0.1644 -0.6760
  927SOL    HW1 2780   0.215   2.509   1.685 -1.3360  2.0335 -1.8310
  927SOL    HW2 2781   0.294   2.664   1.659  1.0178 -0.8088 -0.5342
  928SOL     OW 2782   1.609   2.039   2.125  0.0887 -0.0956 -0.0142
  928SOL    HW1 2783   1.649   2.131   2.096  2.0142  1.6243 -1.7587
  928SOL    HW2 2784   1.506   2.022   2.104 -0.7157 -0.8456 -0.0499
  929SOL     OW 2785   2.417   2.406   2.863  0.9229 -0.2258  0.1780
  929SOL    HW1 2786   2.314   2.401   2.842  0.1202 -1.2296  2.3902
  929SOL    HW2 2787   2.474   2.377   2.782  0.7897 -1.2153 -0.3529
  930SOL     OW 2788   2.148   1.986   1.063 -1.1199 -0.0785 -0.5466
  930SOL    HW1 2789   2.120   1.996   1.162 -0.1316 -1.0950  0.4811
  930SOL    HW2 2790   2.243   2.032   1.053  0.0234  0.5541 -4.0811
  931SOL     OW 2791   0.539   1.754   2.655 -0.0615  0.0861 -0.3013
  931SOL    HW1 2792   0.593   1.749   2.744  1.0269 -2.6266  2.6517
  931SOL    HW2 2793   0.549   1.673   2.589 -1.4343 -2.0148  3.3576
  932SOL     OW 2794   0.510   0.114   2.951  0.4814  0.1030 -0.0715
  932SOL    HW1 2795   0.609   0.127   2.922 -0.3046  0.4231 -0.9882
  932SOL    HW2 2796   0.485   0.018   2.983  1.8642 -2.1035 -1.4608
  933SOL     OW 2797   1.059   0.772   2.993 -0.2953  0.6261 -0.0238
  933SOL    HW1 2798   1.120   0.812   3.067  0.2054 -0.6226 -1.8020
  933SOL    HW2 2799   1.020   0.845   2.934  1.7488  1.2093  2.7163
  934SOL     OW 2800   0.865   2.975   2.819 -0.0563 -0.1514  0.3695
  934SOL    HW1 2801   0.959   2.951   2.797 -0.8833 -1.5801  1.5709
  934SOL    HW2 2802   0.850   2.937   2.915 -0.1230 -0.9920 -3.2900
  935SOL     OW 2803   3.039   0.535   0.865 -0.1739 -0.0914 -0.4298
  935SOL    HW1 2804   3.048   0.455   0.806  2.7146  1.8031 -2.5164
  935SOL    HW2 2805   2.949   0.584   0.865  1.3278  0.3150 -1.6473
  936SOL     OW 2806   1.133   3.000   0.157 -0.1224 -0.3794  0.0321
  936SOL    HW1 2807   1.181   3.046   0.077 -0.6757  0.5980 -2.4823
  936SOL    HW2 2808   1.155   2.900   0.175 -1.1221  1.0566 -0.1576
  937SOL     OW 2809   1.947   2.709   2.100  0.1558  0.0741  0.2955
  937SOL    HW1 2810   1.853   2.727   2.144  1.0024 -0.7613  1.1818
  937SOL    HW2 2811   1.937   2.715   1.995  2.2246 -1.0895 -2.0672
  938SOL     OW 2812   2.722   2.211   1.499 -0.2714 -0.4482 -0.3119
  938SOL    HW1 2813   2.650   2.261   1.553  0.3674 -1.5117 -0.3549
  938SOL    HW2 2814   2.784   2.152   1.562  0.1421  0.0214  1.2825
  939SOL     OW 2815   2.763   0.979   2.527  0.2212  0.3399  0.2112
  939SOL    HW1 2816   2.826   0.905   2.550 -1.8598  0.8817  1.8291
  939SOL    HW2 2817   2.749   1.045   2.609  0.7090 -0.0817 -0.2008
  940SOL     OW 2818   1.052   0.456   2.661 -0.5377  0.0464 -0.2336
  940SOL    HW1 2819   1.107   0.373   2.699  1.9382  2.4403 -0.7568
  940SOL    HW2 2820   0.958   0.422   2.621  0.4362  0.7406  0.9747
  941SOL     OW 2821   0.045   2.875   2.194 -0.8153  0.5112 -0.2861
  941SOL    HW1 2822   0.001   2.779   2.207  1.7819 -1.5537  0.8536
  941SOL    HW2 2823   0.135   2.879   2.246 -0.5105  0.1089 -0.7863
  942SOL     OW 2824   0.135   0.083   2.514  0.6131  0.2557  0.6108
  942SOL    HW1 2825   0.169   0.089   2.609 -0.7024 -1.2058 -1.5860
  942SOL    HW2 2826   0.126   0.178   2.474  2.5356 -2.8029 -0.2159
  943SOL     OW 2827   2.102   1.669   2.407 -0.1541  0.0050 -0.7021
  943SOL    HW1 2828   2.145   1.598   2.466 -3.2548 -2.4394 -1.9002
  943SOL    HW2 2829   2.017   1.641   2.363  1.5850 -1.0017  2.7231
  944SOL     OW 2830   2.188   2.290   1.424  0.2098  0.2307 -0.8777
  944SOL    HW1 2831   2.240   2.375   1.463 -3.3380  1.1894 -2.0900
  944SOL    HW2 2832   2.139   2.234   1.497  0.5662 -0.5363  2.1380
  945SOL     OW 2833   0.648   1.432   0.354 -0.5529 -0.4325 -0.4056
  945SOL    HW1 2834   0.688   1.471   0.266 -3.1736  1.6539  0.7336
  945SOL    HW2 2835   0.689   1.344   0.394  1.2929  0.1940  0.6079
  946SOL     OW 2836   0.323   0.977   2.663 -0.2900 -0.3779 -0.3127
  946SOL    HW1 2837   0.258   0.945   2.587  0.4931  0.7471  0.5724
  946SOL    HW2 2838   0.377   1.065   2.634 -1.0526  0.9704 -2.7422
  947SOL     OW 2839   1.523   0.433   0.162 -0.2775  0.6078 -0.5894
  947SOL    HW1 2840   1.574   0.353   0.203  0.1552 -0.0103  0.2143
  947SOL    HW2 2841   1.434   0.401   0.119  2.6551  0.6088 -0.9025
  948SOL     OW 2842   2.013   3.066   2.125  0.5434 -0.2992 -0.0080
  948SOL    HW1 2843   1.968   3.052   2.032  0.5300 -2.4395  0.6410
  948SOL    HW2 2844   1.980   2.995   2.195 -2.4064 -1.1847  1.7799
  949SOL     OW 2845   0.672   2.546   0.445  0.6060 -0.0160 -0.2719
  949SOL    HW1 2846   0.656   2.647   0.432 -0.8657  0.0739 -1.1863
  949SOL    HW2 2847   0.681   2.529   0.547  2.1778 -0.1225 -0.7889
  950SOL     OW 2848   0.203   2.108   3.012  0.2421 -0.0548 -0.2945
  950SOL    HW1 2849   0.113   2.156   3.036  0.9720 -1.5886 -0.8425
  950SOL    HW2 2850   0.218   2.023   3.068 -2.8767  1.2988  1.7825
  951SOL     OW 2851   1.145   2.832   2.806 -0.3999  0.7320 -0.0386
  951SOL    HW1 2852   1.146   2.746   2.743 -2.4858  0.1932  0.7864
  951SOL    HW2 2853   1.237   2.879   2.820  0.3234 -0.5099  1.0942
  952SOL     OW 2854   0.074   1.692   0.477 -0.9222 -0.2384 -0.0213
  952SOL    HW1 2855   0.131   1.780   0.484 -4.0158 -2.3768 -2.2526
  952SOL    HW2 2856   0.024   1.680   0.569  0.4947 -1.7049  3.1841
  953SOL     OW 2857   2.464   1.758   0.160 -0.6807  0.8295 -0.0661
  953SOL    HW1 2858   2.428   1.660   0.159 -3.0451  1.2261  0.8598
  953SOL    HW2 2859   2.505   1.774   0.068 -0.5823 -2.6027  0.6388
  954SOL     OW 2860   2.213   0.491   1.043  1.0823 -0.1231 -0.2208
  954SOL    HW1 2861   2.169   0.527   0.953  1.6370  0.9607 -3.7735
  954SOL    HW2 2862   2.314   0.474   1.037 -2.0053  1.6056  1.0826
  955SOL     OW 2863   0.213   2.688   1.251  0.1384  0.7218 -0.6267
  955SOL    HW1 2864   0.138   2.618   1.282 -0.5007 -0.4061  2.5828
  955SOL    HW2 2865   0.256   2.663   1.161 -2.7355 -0.1662 -1.0371
  956SOL     OW 2866   2.751   2.479   2.503  0.4054 -0.0864 -0.0611
  956SOL    HW1 2867   2.762   2.380   2.482  0.2684  2.2823 -1.2349
  956SOL    HW2 2868   2.769   2.537   2.421 -0.5799  1.1046  0.0460
  957SOL     OW 2869   1.560   1.987   2.669 -0.3562 -0.4937  0.3474
  957SOL    HW1 2870   1.527   1.891   2.669  0.8605  3.3242 -1.2203
  957SOL    HW2 2871   1.570   2.024   2.573 -1.4196 -2.2545  0.6311
  958SOL     OW 2872   2.656   2.285   2.982  0.1130 -0.0981 -0.3998
  958SOL    HW1 2873   2.558   2.321   2.973  1.4039  0.5118  1.0196
  958SOL    HW2 2874   2.658   2.217   3.059 -2.1187 -1.5667 -1.9780
  959SOL     OW 2875   0.261   2.786   0.031  0.0539  0.1909  0.3561
  959SOL    HW1 2876   0.157   2.777   0.027 -0.8539  2.4417 -1.0340
  959SOL    HW2 2877   0.307   2.697  -0.003  1.5339  0.9237 -1.4516
  960SOL     OW 2878   1.937   0.447   2.045 -0.3997  0.0311  0.3853
  960SOL    HW1 2879   1.916   0.526   1.984 -1.9105 -0.5079  0.4251
  960SOL    HW2 2880   1.982   0.484   2.130 -1.0866  0.5140 -2.4817
  961SOL     OW 2881   2.725   1.963   1.024  0.8310  0.3821 -0.0981
  961SOL    HW1 2882   2.724   2.041   0.954  2.9028  3.0476  3.0368
  961SOL    HW2 2883   2.699   1.995   1.118 -0.4936 -0.8708 -1.9091
  962SOL     OW 2884   1.259   0.951   3.097 -0.4378 -0.2581 -0.2778
  962SOL    HW1 2885   1.254   1.019   3.015 -1.0300  0.9990 -1.4855
  962SOL    HW2 2886   1.236   1.002   3.185  0.0474  0.0744 -0.2511
  963SOL     OW 2887   2.192   2.578   1.925 -0.5174  0.2674  0.1130
  963SOL    HW1 2888   2.218   2.536   2.018 -2.4222 -0.6148 -1.9484
  963SOL    HW2 2889   2.247   2.665   1.909  0.5284 -2.0886  3.5078
  964SOL     OW 2890   2.430   0.376   1.727 -0.0822 -0.2993 -0.5181
  964SOL    HW1 2891   2.527   0.411   1.746 -0.4332  0.5007 -0.5866
  964SOL    HW2 2892   2.425   0.347   1.627 -1.9088 -2.6078 -0.0916
  965SOL     OW 2893   2.671   2.996   0.154 -0.2289  0.3511 -0.6362
  965SOL    HW1 2894   2.744   2.972   0.092 -0.9624  4.1124 -1.7594
  965SOL    HW2 2895   2.580   3.009   0.107  0.7969 -2.0620 -1.8833
  966SOL     OW 2896   2.536   2.638   2.214 -0.4310 -0.3097  0.3835
  966SOL    HW1 2897   2.468   2.578   2.165  0.8471 -1.8292 -0.0109
  966SOL    HW2 2898   2.491   2.704   2.282 -0.1787  0.8620 -0.1409
  967SOL     OW 2899   2.714   2.854   2.473 -0.1963  0.1096 -0.0643
  967SOL    HW1 2900   2.751   2.793   2.398 -0.2643 -1.9473  2.3973
  967SOL    HW2 2901   2.758   2.949   2.483  3.0747  0.1763  1.6337
  968SOL     OW 2902   1.972   1.049   2.721 -0.4486 -0.5614 -0.3102
  968SOL    HW1 2903   1.922   1.110   2.657 -0.3702  4.0501  1.3139
  968SOL    HW2 2904   2.006   0.961   2.681  2.0344 -0.1631 -1.3187
  969SOL     OW 2905   2.745   2.372   1.180  0.3833  0.5241 -0.0966
  969SOL    HW1 2906   2.696   2.353   1.088 -2.8265  1.1838 -0.2981
  969SOL    HW2 2907   2.825   2.311   1.200 -1.0566 -1.5551 -0.8624
  970SOL     OW 2908   1.125   2.114   1.784 -0.2600 -0.2198 -0.2300
  970SOL    HW1 2909   1.025   2.120   1.773 -0.4988 -2.4042 -0.7115
  970SOL    HW2 2910   1.156   2.146   1.877  1.6978 -2.3006  2.8053
  971SOL     OW 2911   2.826   2.116   1.922  0.2565  0.7389 -0.3697
  971SOL    HW1 2912   2.792   2.197   1.972 -1.1946  0.1837 -2.1027
  971SOL    HW2 2913   2.920   2.113   1.880  0.6093  0.0825  0.6279
  972SOL     OW 2914   2.073   2.456   0.290 -0.5380  0.3122  0.0948
  972SOL    HW1 2915   2.024   2.379   0.239  0.6396  0.8616  2.3954
  972SOL    HW2 2916   2.062   2.445   0.391  1.7583  1.3404 -0.0680
  973SOL     OW 2917   1.304   1.038   1.870  0.2835 -0.3218 -0.3750
  973SOL    HW1 2918   1.223   0.997   1.809 -2.1066  0.0251 -0.3884
  973SOL    HW2 2919   1.298   1.139   1.886  1.3961  0.6387 -0.0784
  974SOL     OW 2920   1.638   0.556   1.985  0.0971 -0.4963  0.9241
  974SOL    HW1 2921   1.726   0.567   1.935 -1.5985  0.9905  3.2076
  974SOL    HW2 2922   1.569   0.628   1.971  2.5907 -1.5744  0.4571
  975SOL     OW 2923   2.459   3.057   3.075  0.3468  0.1978  0.8429
  975SOL    HW1 2924   2.395   3.011   3.141 -0.8352  0.1134 -2.2242
  975SOL    HW2 2925   2.446   3.016   2.977  1.3052 -1.4376 -1.6467
  976SOL     OW 2926   1.961   2.913   2.354  0.3147  0.0786  0.3860
  976SOL    HW1 2927   1.882   2.867   2.411  1.3623  2.4210  0.6816
  976SOL    HW2 2928   2.049   2.919   2.406 -0.8864  0.7447 -4.0181
  977SOL     OW 2929   0.489   0.578   0.994  0.0432 -0.6686 -0.3664
  977SOL    HW1 2930   0.408   0.546   0.944  0.9422 -0.7310  1.9247
  977SOL    HW2 2931   0.577   0.572   0.931  0.2351  1.7367  1.4974
   3.10000   3.10000   3.10000
