1000 SPC/Fw water molecules t=   0.91000 step= 910
 2931
    1SOL     OW    1   2.501   0.344   2.660  0.1860 -0.7159  0.1425
    1SOL    HW1    2   2.529   0.249   2.630  1.2101 -1.1249 -1.9350
    1SOL    HW2    3   2.550   0.372   2.746  0.3402  2.7964 -1.2857
    2SOL     OW    4   2.718   3.050   1.445 -0.4489 -0.0493 -0.2035
    2SOL    HW1    5   2.796   3.061   1.377  1.1422 -0.3950  0.8393
    2SOL    HW2    6   2.674   3.143   1.470 -0.9536  1.2670  1.9345
    3SOL     OW    7   2.683   2.607   0.399 -0.2449 -0.0820  0.6771
    3SOL    HW1    8   2.649   2.507   0.395 -0.6630  0.7887 -0.2303
    3SOL    HW2    9   2.761   2.620   0.471  1.1537  0.3702  1.2768
    4SOL     OW   10   1.242   1.538   2.304  0.5059  0.1981 -0.1163
    4SOL    HW1   11   1.160   1.587   2.254 -4.8103  0.7941  0.7329
    4SOL    HW2   12   1.215   1.449   2.351 -1.1791  0.4611 -0.4115
    5SOL     OW   13   1.154   1.493  -0.001  0.2189  0.2242 -0.4380
    5SOL    HW1   14   1.228   1.569   0.004 -0.6311  0.2255 -1.4366
    5SOL    HW2   15   1.061   1.530   0.023 -0.2397  0.5700 -1.8494
    6SOL     OW   16   0.138   1.805   2.945  0.1857 -0.4480 -0.1400
    6SOL    HW1   17   0.066   1.835   3.012  0.4921 -2.3709  2.7265
    6SOL    HW2   18   0.224   1.777   3.004  0.2705 -1.1741  2.5481
    7SOL     OW   19   2.616   0.926   1.104 -0.0802 -0.0275  0.0579
    7SOL    HW1   20   2.525   0.871   1.105 -0.2176  0.4028 -0.8662
    7SOL    HW2   21   2.656   0.943   1.006  2.5331 -0.4297 -1.2443
    8SOL     OW   22   0.369   0.620   1.568  0.0937  0.3756  0.5090
    8SOL    HW1   23   0.466   0.587   1.596  0.3098  0.2324 -0.0398
    8SOL    HW2   24   0.363   0.682   1.486 -1.0519  0.0086 -1.1846
    9SOL     OW   25   1.181   0.881   2.416  0.2494  0.2699  0.3703
    9SOL    HW1   26   1.235   0.926   2.333 -0.2475  3.9561 -2.1356
    9SOL    HW2   27   1.162   0.777   2.409 -0.5169 -1.7300  0.9705
   10SOL     OW   28   0.661   1.350   1.288  0.1053  0.2134 -0.6831
   10SOL    HW1   29   0.564   1.379   1.272  3.7299 -0.5631 -1.1660
   10SOL    HW2   30   0.715   1.435   1.313 -0.1277  0.3106  1.1108
   11SOL     OW   31   2.339   2.737   0.851 -0.2920  0.2724 -0.0502
   11SOL    HW1   32   2.260   2.756   0.913 -1.0670  1.2462 -0.6786
   11SOL    HW2   33   2.412   2.806   0.872  0.7764  0.0763 -2.0016
   12SOL     OW   34   1.488   0.902   0.351  0.0071 -0.0691 -0.2632
   12SOL    HW1   35   1.416   0.968   0.314 -2.0112  1.4607  2.1797
   12SOL    HW2   36   1.508   0.819   0.293  0.3794 -0.7864  0.1836
   13SOL     OW   37   2.500   0.686   1.789 -0.1818  0.4807  0.0171
   13SOL    HW1   38   2.412   0.670   1.842  3.1470  0.2350  0.4589
   13SOL    HW2   39   2.507   0.638   1.696 -0.5210 -0.5756  0.2777
   14SOL     OW   40   1.877   0.071   0.717  0.3156  0.8059 -0.4836
   14SOL    HW1   41   1.811   0.102   0.643 -1.8242 -0.1060 -0.9616
   14SOL    HW2   42   1.839  -0.012   0.761  1.1962  1.3855 -1.3555
   15SOL     OW   43   1.981   2.072   2.728  0.2523  0.0601 -0.1342
   15SOL    HW1   44   1.922   2.146   2.767  0.6093 -0.8800  0.4063
   15SOL    HW2   45   1.930   2.008   2.663 -1.0807  1.5768 -3.9010
   16SOL     OW   46   1.592   1.741   2.974  0.2322 -0.1742  0.3745
   16SOL    HW1   47   1.581   1.641   2.986  2.4462 -1.0377 -1.6701
   16SOL    HW2   48   1.670   1.782   3.031  0.0821  0.8286  1.4050
   17SOL     OW   49   0.119   0.510   0.205 -0.2546 -0.0050 -0.1545
   17SOL    HW1   50   0.220   0.538   0.206  1.0064  0.2489  1.4529
   17SOL    HW2   51   0.076   0.502   0.112  0.9798  0.0364  2.4426
   18SOL     OW   52   0.942   2.893   2.140  0.4075 -0.0242  0.3768
   18SOL    HW1   53   0.844   2.847   2.146 -1.7753 -0.5625  0.4494
   18SOL    HW2   54   0.992   2.857   2.060 -3.4947 -1.1940 -1.9966
   19SOL     OW   55   0.520   0.825   1.891 -0.3100 -0.1647 -0.1450
   19SOL    HW1   56   0.538   0.765   1.968 -1.5553  0.9734  2.7408
   19SOL    HW2   57   0.604   0.861   1.838  1.8242 -0.3825 -2.1615
   20SOL     OW   58   0.176   2.717   0.831  0.1108 -0.4017 -0.2811
   20SOL    HW1   59   0.110   2.796   0.810 -2.7861 -3.2753  1.3507
   20SOL    HW2   60   0.222   2.684   0.743  0.1014  3.2474 -1.2367
   21SOL     OW   61   2.701   0.237   2.087 -0.7913  0.6384 -0.4867
   21SOL    HW1   62   2.663   0.177   2.011 -2.0314 -0.5230  0.0832
   21SOL    HW2   63   2.772   0.192   2.141 -1.4729  0.2320  0.1682
   22SOL     OW   64   2.382   0.232   0.157 -0.1314  0.5026  0.2570
   22SOL    HW1   65   2.379   0.125   0.154  0.0115 -0.4330 -0.7434
   22SOL    HW2   66   2.293   0.277   0.129  0.6878 -0.5013  1.3154
   23SOL     OW   67   2.787   0.649   0.652  0.2259 -0.8880 -0.2859
   23SOL    HW1   68   2.816   0.555   0.637  0.9185  3.9421 -1.6603
   23SOL    HW2   69   2.743   0.690   0.571 -0.5684 -0.2166  1.1334
   24SOL     OW   70   0.204   1.913   0.363  0.4791  0.7185 -0.0091
   24SOL    HW1   71   0.141   1.962   0.293  1.6463  1.7473  1.1055
   24SOL    HW2   72   0.302   1.920   0.343 -2.1282 -1.4205  1.9998
   25SOL     OW   73   2.199   0.584   0.247  0.0150  0.3861 -0.4370
   25SOL    HW1   74   2.191   0.548   0.151  2.9127  2.4869 -0.7114
   25SOL    HW2   75   2.275   0.546   0.308 -1.5366  2.6797 -2.9390
   26SOL     OW   76   2.513   2.094   2.074 -0.0710  0.0947 -0.2711
   26SOL    HW1   77   2.569   2.172   2.112  1.2422  2.2829 -0.9208
   26SOL    HW2   78   2.542   2.052   1.986 -0.1680  0.2820  1.8545
   27SOL     OW   79   0.600   2.959   0.201  0.2712 -0.1688 -0.3803
   27SOL    HW1   80   0.704   2.962   0.182  1.1732 -1.0121  1.1541
   27SOL    HW2   81   0.535   2.971   0.121  0.8241  2.4239  1.4427
   28SOL     OW   82   1.584   0.173   0.273  0.6112  0.4704  0.4467
   28SOL    HW1   83   1.636   0.159   0.185 -0.8092  0.4855 -0.4736
   28SOL    HW2   84   1.594   0.270   0.311  1.3937 -1.4244 -1.3358
   29SOL     OW   85   1.963   0.637   0.411  0.5046  0.5453 -0.2561
   29SOL    HW1   86   1.938   0.739   0.409 -0.5443 -0.1651 -1.2984
   29SOL    HW2   87   2.063   0.612   0.406  0.6935 -0.0928 -1.4529
   30SOL     OW   88   0.167   1.972   0.884 -0.2924  0.0682  0.1024
   30SOL    HW1   89   0.129   1.963   0.790 -1.5104 -0.4460 -1.6719
   30SOL    HW2   90   0.105   2.027   0.945 -1.4507 -1.2650 -0.4138
   31SOL     OW   91   2.093   3.082   2.350  0.1903  0.8676  0.3543
   31SOL    HW1   92   2.116   3.101   2.449  1.0548 -0.8193  0.1882
   31SOL    HW2   93   2.053   2.986   2.340  0.7142 -2.1051  1.6899
   32SOL     OW   94   2.965   0.056   0.174  0.6556 -0.6797  0.1890
   32SOL    HW1   95   2.973  -0.043   0.157 -0.9469 -3.4440  1.7417
   32SOL    HW2   96   3.052   0.107   0.201 -1.4066  1.7969 -0.3405
   33SOL     OW   97   0.939   0.300   0.596 -0.0498 -0.0139 -0.4767
   33SOL    HW1   98   0.929   0.217   0.532 -1.2481 -2.1751 -1.0826
   33SOL    HW2   99   1.033   0.346   0.588  1.2491  0.9018 -0.5045
   34SOL     OW  100   0.267   2.751   1.086  0.7158 -0.1567  0.4198
   34SOL    HW1  101   0.260   2.664   1.028 -2.9781 -2.1110 -2.7691
   34SOL    HW2  102   0.359   2.769   1.125  1.6455 -0.8434 -0.3031
   35SOL     OW  103   0.027   0.073   1.895  0.0876 -0.1967  0.7754
   35SOL    HW1  104   0.054  -0.028   1.913 -0.9774 -2.9469 -2.4481
   35SOL    HW2  105  -0.024   0.086   1.802 -2.2537  0.9661 -0.3672
   36SOL     OW  106   1.910   1.186   1.728  0.1180  0.6173 -0.3069
   36SOL    HW1  107   1.982   1.145   1.658  0.2250 -0.0888 -3.0461
   36SOL    HW2  108   1.939   1.282   1.742 -1.0920 -0.7485 -0.5010
   37SOL     OW  109   1.181   0.183   0.945 -0.1146  0.5432  0.7273
   37SOL    HW1  110   1.225   0.249   1.011 -0.5472  0.8603  0.3856
   37SOL    HW2  111   1.253   0.133   0.887 -1.8754  1.9824  0.4874
   38SOL     OW  112   1.064   2.813   2.493  0.5062  0.4729  0.2014
   38SOL    HW1  113   1.027   2.725   2.457  2.8632 -1.8710  0.4490
   38SOL    HW2  114   1.023   2.900   2.447  0.0886 -1.9735 -0.5333
   39SOL     OW  115   2.323   1.402   3.029  0.4734  0.1917  0.2853
   39SOL    HW1  116   2.415   1.358   3.045 -0.4419 -0.6386  1.2623
   39SOL    HW2  117   2.285   1.435   3.117  0.0758 -1.5994  0.0272
   40SOL     OW  118   2.042   2.431   2.532  0.0175 -0.5450  0.5713
   40SOL    HW1  119   2.020   2.531   2.511  1.5220 -0.4399 -1.4623
   40SOL    HW2  120   1.961   2.372   2.501  0.9414  1.5672 -1.4948
   41SOL     OW  121   3.039   0.698   2.843  0.2282 -0.3884  0.0876
   41SOL    HW1  122   2.951   0.748   2.825 -1.2774 -2.7375 -0.5948
   41SOL    HW2  123   3.038   0.616   2.778 -1.8898  2.3755 -1.2484
   42SOL     OW  124   1.791   1.741   0.486  0.0746  0.2279 -0.3004
   42SOL    HW1  125   1.724   1.657   0.496 -3.0384 -0.5238  0.9550
   42SOL    HW2  126   1.836   1.750   0.388  1.8844 -0.4019 -0.1269
   43SOL     OW  127   0.455   1.644   1.141 -0.0962  0.4035  0.2066
   43SOL    HW1  128   0.433   1.545   1.130 -0.3625 -1.1190 -0.9541
   43SOL    HW2  129   0.368   1.702   1.122  2.3296 -0.2306 -2.9478
   44SOL     OW  130   1.766   2.505   3.012 -0.5703 -0.2914  0.0176
   44SOL    HW1  131   1.781   2.599   2.975 -0.6678 -1.5863 -0.2039
   44SOL    HW2  132   1.811   2.426   2.965 -0.4886  1.0928 -2.9224
   45SOL     OW  133   0.409   1.940   2.598 -0.6017 -0.0969  0.2339
   45SOL    HW1  134   0.348   1.910   2.521  2.5814 -0.8776  0.2311
   45SOL    HW2  135   0.475   1.864   2.633 -0.2172  0.9682 -1.1466
   46SOL     OW  136   1.248   0.679   0.190 -0.1659 -0.3001 -0.3056
   46SOL    HW1  137   1.283   0.759   0.141  1.4265  0.6574  2.4152
   46SOL    HW2  138   1.155   0.702   0.232 -2.5775  0.8651 -0.0832
   47SOL     OW  139   0.223   2.517   1.552 -0.0736 -0.0941  0.0250
   47SOL    HW1  140   0.172   2.432   1.589 -3.5051  3.2114 -2.4306
   47SOL    HW2  141   0.244   2.507   1.454  2.5128  0.6909  1.0179
   48SOL     OW  142   2.648   0.643   0.129  0.5055 -0.0281 -0.3477
   48SOL    HW1  143   2.606   0.640   0.222 -0.3858  1.4678 -1.8478
   48SOL    HW2  144   2.754   0.663   0.135  2.2340  3.0253  1.3030
   49SOL     OW  145   0.291   0.808   1.758 -0.2457 -0.3158  0.1812
   49SOL    HW1  146   0.368   0.838   1.823  3.0624 -0.7515 -0.5264
   49SOL    HW2  147   0.321   0.720   1.710 -1.4575  0.3335 -0.2683
   50SOL     OW  148   1.676   1.141   0.340  0.1838 -0.1860  0.4158
   50SOL    HW1  149   1.661   1.041   0.320  0.4382 -0.4527  1.1138
   50SOL    HW2  150   1.616   1.155   0.425 -2.1607  0.8453 -0.4468
   51SOL     OW  151   2.863   1.804   0.275 -0.5772 -0.6227 -0.3911
   51SOL    HW1  152   2.828   1.720   0.231  2.8445  0.8792  0.2057
   51SOL    HW2  153   2.958   1.788   0.306  2.6587 -0.7526 -1.8435
   52SOL     OW  154   0.766   2.013   0.511  0.1428  0.2970  0.0411
   52SOL    HW1  155   0.709   2.080   0.566  0.1989 -0.1466  0.0083
   52SOL    HW2  156   0.809   1.949   0.577  2.2824 -0.6784  2.0457
   53SOL     OW  157   0.193   0.424   1.581  0.0423  0.4099  0.0305
   53SOL    HW1  158   0.257   0.508   1.593 -1.8587  2.4014 -2.1484
   53SOL    HW2  159   0.111   0.440   1.518 -1.3447 -0.2241  0.5524
   54SOL     OW  160   1.797   0.494   3.072 -0.5563  0.3116  0.5003
   54SOL    HW1  161   1.834   0.506   3.170  2.1974  3.1497 -0.6859
   54SOL    HW2  162   1.698   0.495   3.064  0.9136  0.5843 -2.3609
   55SOL     OW  163   0.750   2.884   0.680 -0.5729 -0.7326 -0.0265
   55SOL    HW1  164   0.692   2.971   0.667  1.0072 -2.1763  1.6368
   55SOL    HW2  165   0.853   2.896   0.683 -1.6098 -1.9336 -1.5688
   56SOL     OW  166   0.560   1.585   0.027  0.7021 -0.4440 -0.0406
   56SOL    HW1  167   0.468   1.631   0.033  0.1039  0.3720  0.4916
   56SOL    HW2  168   0.569   1.514  -0.047  0.1305  1.2901  1.5253
   57SOL     OW  169   1.722   2.521   2.458  0.3596  0.1116 -0.6652
   57SOL    HW1  170   1.766   2.430   2.437  1.8674 -4.3952  0.6205
   57SOL    HW2  171   1.631   2.499   2.507  3.6068  1.2311  1.1160
   58SOL     OW  172   0.666   0.253   1.058  0.1270  1.0999  0.3441
   58SOL    HW1  173   0.565   0.249   1.048 -1.1856 -0.1251  1.5218
   58SOL    HW2  174   0.711   0.160   1.076  0.9216 -2.7297  1.6641
   59SOL     OW  175   0.461   2.433   2.716 -0.1130 -0.3698  0.0518
   59SOL    HW1  176   0.485   2.333   2.689 -2.4326 -2.8092 -3.7787
   59SOL    HW2  177   0.512   2.464   2.802  0.1571  1.0378 -2.2185
   60SOL     OW  178   2.289   2.053   2.226 -0.3185 -0.1775  0.4039
   60SOL    HW1  179   2.367   2.067   2.158  3.4528  3.3235 -2.0505
   60SOL    HW2  180   2.307   2.099   2.316  2.3780  1.3931  0.8872
   61SOL     OW  181   1.314   0.651   0.506 -0.3225  0.7659  0.2219
   61SOL    HW1  182   1.225   0.702   0.537 -0.2016 -2.1149 -0.0649
   61SOL    HW2  183   1.329   0.654   0.403  0.0775 -2.7586  0.4867
   62SOL     OW  184   2.750   1.821   2.929  0.7741 -0.2065 -0.5679
   62SOL    HW1  185   2.702   1.745   2.881  2.2392  0.6834  0.1870
   62SOL    HW2  186   2.844   1.847   2.891  2.8061  0.7549 -0.8136
   63SOL     OW  187   0.560   0.860   0.203 -0.3696 -0.9829 -0.0448
   63SOL    HW1  188   0.600   0.913   0.122 -1.8524 -0.4952  1.7054
   63SOL    HW2  189   0.622   0.861   0.289  1.2009  0.7675 -1.2742
   64SOL     OW  190   0.092   0.471   2.461 -0.3275 -0.0798 -0.2148
   64SOL    HW1  191   0.138   0.550   2.508  1.0897 -0.6248 -2.6331
   64SOL    HW2  192   0.049   0.504   2.376 -3.4230  0.6756 -1.7858
   65SOL     OW  193   0.145   1.521   0.530 -0.2922  0.4788  0.1879
   65SOL    HW1  194   0.188   1.562   0.618  3.6249  0.9682  0.5326
   65SOL    HW2  195   0.219   1.486   0.469  0.4905  1.9622 -1.8988
   66SOL     OW  196   2.563   0.362   0.619 -0.2916 -0.5537 -0.1661
   66SOL    HW1  197   2.662   0.364   0.662 -0.8583  1.7308  0.2658
   66SOL    HW2  198   2.507   0.283   0.661 -0.8477 -0.2270  0.1662
   67SOL     OW  199   0.534   2.540   1.393  0.4064 -0.6742  0.4207
   67SOL    HW1  200   0.626   2.503   1.428  2.6888  0.1309  3.2861
   67SOL    HW2  201   0.459   2.470   1.383 -1.8645 -0.5596  0.1516
   68SOL     OW  202   1.005   1.073   2.473 -0.5366 -0.1969 -0.1068
   68SOL    HW1  203   1.070   0.994   2.457 -1.2926  0.5847 -0.2681
   68SOL    HW2  204   0.938   1.083   2.396 -0.9759 -0.4764  1.9599
   69SOL     OW  205   0.732   2.741   2.161 -0.4016 -0.1742 -0.3959
   69SOL    HW1  206   0.784   2.653   2.146 -1.5957 -1.2131  0.5523
   69SOL    HW2  207   0.632   2.723   2.193 -4.3294 -1.1423  0.6862
   70SOL     OW  208   0.539   0.285   2.684  0.0757 -0.3173 -0.5797
   70SOL    HW1  209   0.464   0.326   2.743 -1.0115  2.9480 -1.0482
   70SOL    HW2  210   0.535   0.177   2.683  0.1787 -1.3515 -0.5171
   71SOL     OW  211   1.119   1.755   0.468 -0.4368  0.5451 -0.1957
   71SOL    HW1  212   1.060   1.682   0.505  1.0447 -2.4533  2.0329
   71SOL    HW2  213   1.075   1.802   0.387 -0.0636 -0.0144  1.1552
   72SOL     OW  214   1.823   0.210   2.167  0.6139  0.2546  0.0532
   72SOL    HW1  215   1.903   0.265   2.194 -1.5060 -3.1692 -2.6469
   72SOL    HW2  216   1.839   0.106   2.161  0.6777 -0.6042 -3.7449
   73SOL     OW  217   2.804   2.171   2.404 -0.0560 -0.5644 -0.1713
   73SOL    HW1  218   2.785   2.072   2.358 -0.2526 -2.0013 -1.5117
   73SOL    HW2  219   2.860   2.168   2.490 -0.3039 -2.0474 -0.7924
   74SOL     OW  220   2.665   2.898   2.135  0.1492 -0.8150 -0.2104
   74SOL    HW1  221   2.630   2.896   2.227  1.3334  0.9888 -3.1372
   74SOL    HW2  222   2.746   2.963   2.127  0.2406  1.4746 -1.5482
   75SOL     OW  223   0.895   0.805   1.098 -0.3838  0.6682 -0.3718
   75SOL    HW1  224   0.809   0.843   1.053  0.8594  1.2889  1.5898
   75SOL    HW2  225   0.917   0.848   1.188 -3.1911 -1.4862 -1.9891
   76SOL     OW  226   1.688   1.162   2.505  0.4712 -0.1625  0.1614
   76SOL    HW1  227   1.588   1.165   2.533  2.6489  4.0047 -0.3646
   76SOL    HW2  228   1.728   1.258   2.531 -0.4546  1.5244 -1.0430
   77SOL     OW  229   2.961   0.911   0.953 -0.4180  0.4446  0.1445
   77SOL    HW1  230   2.972   0.813   0.917  1.1886 -1.0752  0.2633
   77SOL    HW2  231   2.972   0.920   1.056  2.2828 -0.1428  0.7477
   78SOL     OW  232   2.043   1.486   1.490 -0.5222 -0.0715 -0.4320
   78SOL    HW1  233   2.140   1.504   1.459  0.6202 -2.4415  0.2442
   78SOL    HW2  234   1.971   1.513   1.418  0.0938  1.5223 -1.1670
   79SOL     OW  235   0.589   1.383   0.829  0.5421 -0.2533 -0.5241
   79SOL    HW1  236   0.494   1.393   0.872  0.4019  0.2794  1.3362
   79SOL    HW2  237   0.591   1.317   0.751 -1.3911  5.4199 -1.0247
   80SOL     OW  238   0.616   0.504   1.596 -0.5428 -0.0156 -0.2389
   80SOL    HW1  239   0.642   0.572   1.520 -1.0046 -0.2445 -0.7079
   80SOL    HW2  240   0.675   0.421   1.590 -0.2679 -0.5101 -0.5115
   81SOL     OW  241   1.037   1.395   2.646  0.2499 -0.4398  0.1318
   81SOL    HW1  242   1.105   1.318   2.635 -1.2703  0.1406  1.9418
   81SOL    HW2  243   0.970   1.397   2.564 -0.3552  2.9524  0.1650
   82SOL     OW  244   1.005   2.969   1.523 -0.0845  0.4120 -0.3199
   82SOL    HW1  245   0.988   3.009   1.430 -2.2050  0.5605  0.5715
   82SOL    HW2  246   0.967   2.873   1.531 -0.0226 -1.4885 -0.9980
   83SOL     OW  247   2.732   2.447   0.862 -0.4598 -0.6941 -0.0972
   83SOL    HW1  248   2.665   2.393   0.803  1.5573  1.0011  0.9261
   83SOL    HW2  249   2.737   2.551   0.839  0.1774  1.6272 -1.6954
   84SOL     OW  250   0.654   3.023   2.352  0.1115  0.5040  0.1765
   84SOL    HW1  251   0.604   3.085   2.417  0.4787 -4.0568 -0.1759
   84SOL    HW2  252   0.699   2.939   2.394  0.0980 -0.2034  0.9509
   85SOL     OW  253   0.263   1.555   1.487  0.1551 -0.2790 -0.2044
   85SOL    HW1  254   0.258   1.646   1.442 -0.7566 -0.0371 -1.4171
   85SOL    HW2  255   0.352   1.546   1.537  1.5479  2.7333  0.8584
   86SOL     OW  256   0.393   0.994   1.533  0.2380 -0.0366  0.1149
   86SOL    HW1  257   0.378   0.958   1.433  0.7427 -2.5983  0.2675
   86SOL    HW2  258   0.366   0.922   1.602  0.5586  0.1733 -0.5238
   87SOL     OW  259   1.567   0.661   0.211 -0.1275 -0.8038  0.0794
   87SOL    HW1  260   1.645   0.728   0.192 -5.0960  2.1531 -0.0209
   87SOL    HW2  261   1.529   0.619   0.119 -1.6033  0.1532  0.1114
   88SOL     OW  262   1.574   1.385   0.235 -0.7656  0.4870  0.1211
   88SOL    HW1  263   1.609   1.289   0.265 -1.1460 -0.9028 -0.5707
   88SOL    HW2  264   1.473   1.384   0.212  0.5973 -1.3691  0.3764
   89SOL     OW  265   3.101   0.461   0.585 -0.2600  0.0963 -0.1214
   89SOL    HW1  266   3.155   0.419   0.505  2.8156 -1.3982 -0.2209
   89SOL    HW2  267   3.016   0.407   0.617 -2.4561 -0.8448 -0.4437
   90SOL     OW  268   0.910   1.575   0.062  0.2814 -0.4461  0.2371
   90SOL    HW1  269   0.869   1.499   0.121  1.2613 -1.6162  0.9680
   90SOL    HW2  270   0.845   1.613  -0.008  0.2115  0.5915  1.8026
   91SOL     OW  271   1.219   1.438   1.831  0.2682 -0.2910  0.8453
   91SOL    HW1  272   1.192   1.525   1.878  1.4043  2.1982 -3.2301
   91SOL    HW2  273   1.319   1.418   1.832  2.2846 -0.9754 -0.1389
   92SOL     OW  274   3.086   0.970   1.219 -0.1147 -0.6021  0.3220
   92SOL    HW1  275   3.138   1.056   1.189 -2.5123  1.2603  1.1096
   92SOL    HW2  276   3.101   0.954   1.323 -0.4719 -0.9968  0.3751
   93SOL     OW  277   0.029   2.710   3.044  0.4183 -0.0070  0.0546
   93SOL    HW1  278  -0.058   2.721   2.987  0.1757  1.3231 -0.3520
   93SOL    HW2  279   0.036   2.615   3.086  1.3365 -1.1919 -2.0464
   94SOL     OW  280   1.519   1.489   1.749  0.0173  0.0119  0.1505
   94SOL    HW1  281   1.577   1.402   1.753 -1.2665 -1.8938 -3.3504
   94SOL    HW2  282   1.547   1.550   1.830 -0.2527 -1.3565 -1.0127
   95SOL     OW  283   1.372   2.530   2.978  0.8341 -0.5017  0.0477
   95SOL    HW1  284   1.274   2.556   3.005 -0.1863  0.0470 -0.9844
   95SOL    HW2  285   1.397   2.432   2.991 -0.0112  1.6796 -1.7029
   96SOL     OW  286   0.550   2.106   1.239  0.0045 -0.0183 -0.2294
   96SOL    HW1  287   0.531   2.052   1.157 -0.5698  0.1443 -1.2973
   96SOL    HW2  288   0.626   2.066   1.298  0.4109  0.3897  0.7896
   97SOL     OW  289   0.435   1.607   2.475  0.4837  0.1376  0.2016
   97SOL    HW1  290   0.345   1.566   2.511  0.6794  1.0452 -1.0948
   97SOL    HW2  291   0.488   1.653   2.552 -1.6493  1.5388  2.8015
   98SOL     OW  292   2.027   1.600   1.203  0.0677 -0.2676 -0.0326
   98SOL    HW1  293   1.937   1.573   1.249 -2.3046  1.7943 -3.7501
   98SOL    HW2  294   2.064   1.524   1.138  1.0403 -0.5261 -0.8582
   99SOL     OW  295   2.483   2.051   1.350  0.7144  0.0908 -1.1235
   99SOL    HW1  296   2.513   2.052   1.450  0.1496  2.7152 -0.9594
   99SOL    HW2  297   2.450   1.958   1.317  3.1654 -1.6174  0.1637
  100SOL     OW  298   2.385   0.308   2.112  0.2158 -0.1640  0.2186
  100SOL    HW1  299   2.303   0.310   2.173  2.6914  2.4496 -0.8130
  100SOL    HW2  300   2.460   0.368   2.147 -3.3939 -0.8844 -0.4464
  101SOL     OW  301   0.399   1.485   0.428 -0.2270 -0.5313  0.6720
  101SOL    HW1  302   0.477   1.477   0.498 -2.0609 -0.1243  1.4492
  101SOL    HW2  303   0.418   1.568   0.365  2.0460 -0.8258 -1.4038
  102SOL     OW  304   2.250   1.029   0.858  0.2013 -0.0727  0.1575
  102SOL    HW1  305   2.205   0.942   0.829 -3.3099  0.8892 -0.2258
  102SOL    HW2  306   2.294   1.086   0.777 -1.1179  2.5593 -2.1274
  103SOL     OW  307   2.260   0.071   0.404 -0.2744  0.0893  0.0569
  103SOL    HW1  308   2.282   0.175   0.416 -0.6563  2.2513 -0.7131
  103SOL    HW2  309   2.339   0.008   0.408 -0.1690 -0.8309 -0.4922
  104SOL     OW  310   0.071   1.759   2.207  0.0237  0.2291 -0.3683
  104SOL    HW1  311   0.128   1.732   2.125 -2.9633  0.2974  0.3292
  104SOL    HW2  312  -0.025   1.789   2.170 -2.4173  1.4496  0.7039
  105SOL     OW  313   1.226   2.090   0.792  0.4900 -0.2668 -0.0897
  105SOL    HW1  314   1.198   2.119   0.695 -1.3746  2.3558  0.3053
  105SOL    HW2  315   1.290   2.008   0.791  1.0283 -1.5021 -1.3322
  106SOL     OW  316   2.093   0.428   1.401 -0.1826 -0.1868  0.0287
  106SOL    HW1  317   2.084   0.323   1.395 -0.6639  0.4344  0.3671
  106SOL    HW2  318   2.065   0.466   1.495 -1.1155 -1.2098  0.1712
  107SOL     OW  319   1.818   3.012   1.165 -0.1936 -0.8940  0.4159
  107SOL    HW1  320   1.830   3.090   1.232 -1.7968 -0.5327  0.0144
  107SOL    HW2  321   1.747   2.946   1.202  1.8357  1.6205 -0.9710
  108SOL     OW  322   0.755   2.779   1.262 -0.0674 -0.8238  0.4721
  108SOL    HW1  323   0.769   2.762   1.362 -0.5890 -2.5318  0.4126
  108SOL    HW2  324   0.841   2.812   1.214  0.2968  0.8677 -1.3629
  109SOL     OW  325   2.130   0.101   0.796 -0.1612 -0.0617  0.5351
  109SOL    HW1  326   2.033   0.092   0.756 -0.5119 -0.1978 -0.2584
  109SOL    HW2  327   2.131   0.057   0.891 -1.1797 -0.1719  0.2286
  110SOL     OW  328   0.460   2.827   2.798 -0.6542  0.2963 -0.1639
  110SOL    HW1  329   0.429   2.819   2.700 -1.2691 -0.1735 -0.3673
  110SOL    HW2  330   0.537   2.767   2.817  0.9816  2.0429 -0.2222
  111SOL     OW  331   1.316   0.550   2.317  0.1837 -0.3878 -0.1279
  111SOL    HW1  332   1.226   0.579   2.358 -1.5936 -2.0367 -4.1441
  111SOL    HW2  333   1.353   0.462   2.365 -1.1160 -0.8918  0.0110
  112SOL     OW  334   1.681   0.529   1.443 -1.0130 -0.1824  0.0577
  112SOL    HW1  335   1.729   0.499   1.357 -0.2897 -1.9316  1.6256
  112SOL    HW2  336   1.652   0.444   1.493  0.7193 -2.7075 -0.1082
  113SOL     OW  337   2.304   1.665   1.759  0.2818  0.0235 -0.0312
  113SOL    HW1  338   2.351   1.577   1.722  0.2012 -0.7966 -0.8336
  113SOL    HW2  339   2.318   1.686   1.861  1.6336 -0.9809  0.6854
  114SOL     OW  340   0.405   0.546   1.254  0.2733  0.4345  0.0860
  114SOL    HW1  341   0.424   0.589   1.159  1.3456  3.3658 -1.7803
  114SOL    HW2  342   0.307   0.560   1.272 -0.1717 -0.5040  0.3835
  115SOL     OW  343   2.731   1.597   1.236  0.0027 -0.0453 -1.0487
  115SOL    HW1  344   2.737   1.493   1.246 -1.0164  3.3615 -0.0347
  115SOL    HW2  345   2.747   1.629   1.139  0.2286  0.7246 -2.6386
  116SOL     OW  346   1.807   1.058   0.683 -0.2929  0.3314 -0.7466
  116SOL    HW1  347   1.727   1.004   0.636 -1.2146  0.5338  1.0533
  116SOL    HW2  348   1.779   1.126   0.760 -2.5120 -0.7876  1.4039
  117SOL     OW  349   1.227   0.371   0.555 -0.1980 -0.3989  0.0907
  117SOL    HW1  350   1.242   0.430   0.637  0.3463  1.8419  0.2490
  117SOL    HW2  351   1.274   0.399   0.469 -2.4646 -1.7573  3.3256
  118SOL     OW  352   1.153   1.106   1.114  0.7771 -0.4425  0.0524
  118SOL    HW1  353   1.147   1.026   1.186 -0.7928  1.6446  0.1889
  118SOL    HW2  354   1.142   1.204   1.154 -2.4042  0.8147  2.6918
  119SOL     OW  355   1.816   1.595   2.167 -0.0241  0.4092  0.6172
  119SOL    HW1  356   1.798   1.694   2.140  1.2772 -1.6196 -0.2441
  119SOL    HW2  357   1.915   1.571   2.165 -0.5120 -1.2433 -2.7052
  120SOL     OW  358   2.955   2.885   0.112  0.1110  0.4734  0.0733
  120SOL    HW1  359   3.029   2.827   0.063 -2.3349 -0.0086 -1.8430
  120SOL    HW2  360   2.865   2.836   0.112  0.4100 -3.8183  1.6924
  121SOL     OW  361   2.003   0.751   2.200  0.2473 -0.2752 -0.1531
  121SOL    HW1  362   1.974   0.801   2.112 -2.5079  2.2715 -0.6269
  121SOL    HW2  363   1.996   0.648   2.195 -0.7201  1.2506  0.4645
  122SOL     OW  364   2.590   2.645   1.259  0.0212 -0.4167  0.6435
  122SOL    HW1  365   2.626   2.572   1.203  0.7885  0.2530  2.0097
  122SOL    HW2  366   2.488   2.641   1.280 -0.9746  0.8135  0.9509
  123SOL     OW  367   1.732   0.074   1.699  0.2347  0.3492 -0.3522
  123SOL    HW1  368   1.771  -0.002   1.642 -2.2804 -1.6746 -0.8510
  123SOL    HW2  369   1.805   0.134   1.748  0.4321 -1.5884 -0.6465
  124SOL     OW  370   0.083   0.479   1.097 -0.1352 -0.0308 -0.0633
  124SOL    HW1  371   0.102   0.557   1.161  0.2437 -2.5180 -3.2883
  124SOL    HW2  372   0.077   0.512   1.003 -1.6344  2.0939  0.3741
  125SOL     OW  373   0.864   1.822   0.691  0.1474  0.1197 -0.0841
  125SOL    HW1  374   0.960   1.803   0.725 -0.1272  1.1479  0.0591
  125SOL    HW2  375   0.810   1.873   0.761 -1.7608 -0.2116  0.4916
  126SOL     OW  376   1.858   2.264   2.413  0.0996  0.4410 -1.1828
  126SOL    HW1  377   1.919   2.229   2.337 -0.7096  0.0954 -0.7928
  126SOL    HW2  378   1.796   2.192   2.458  0.1157 -1.9194  0.1275
  127SOL     OW  379   1.021   0.892   0.268  0.5713  0.4212 -0.3240
  127SOL    HW1  380   1.024   0.963   0.345  0.8090 -0.9773 -0.4670
  127SOL    HW2  381   0.960   0.808   0.287  0.5354 -2.9171 -1.0424
  128SOL     OW  382   0.924   0.215   1.404  0.5471 -0.0857  0.0458
  128SOL    HW1  383   0.904   0.296   1.332 -0.3980  0.9608 -5.0692
  128SOL    HW2  384   0.883   0.127   1.370  0.1868  1.5185 -2.2248
  129SOL     OW  385   1.834   0.689   1.879  0.2341 -0.2838  0.4938
  129SOL    HW1  386   1.846   0.674   1.781 -0.2546 -0.7733 -1.2527
  129SOL    HW2  387   1.878   0.779   1.912 -0.2266  0.5712 -1.3380
  130SOL     OW  388   1.373   2.188   1.016  0.3367 -0.5591 -0.2624
  130SOL    HW1  389   1.331   2.146   0.931  0.5641 -1.9794  0.2579
  130SOL    HW2  390   1.450   2.253   0.988  3.0677  0.4303 -1.3104
  131SOL     OW  391   3.050   1.456   1.408 -0.4751 -0.1913 -0.1955
  131SOL    HW1  392   3.007   1.363   1.395 -1.4699 -0.7012 -0.0557
  131SOL    HW2  393   3.152   1.444   1.407 -0.4199  1.3267  0.1675
  132SOL     OW  394   2.062   2.438   0.525  0.0297 -0.5410  0.2599
  132SOL    HW1  395   1.959   2.452   0.519 -2.2871  0.6052 -0.7492
  132SOL    HW2  396   2.089   2.367   0.595 -1.7370  2.3968 -0.1641
  133SOL     OW  397   1.864   2.325   2.821 -0.0212  0.1980 -0.6485
  133SOL    HW1  398   1.810   2.396   2.768 -4.2138 -1.5167 -1.6809
  133SOL    HW2  399   1.961   2.359   2.834 -1.2581  1.0690 -1.0772
  134SOL     OW  400   2.655   2.358   1.605 -0.1743 -0.1875 -0.6477
  134SOL    HW1  401   2.596   2.340   1.689 -1.3530  0.1567 -1.3667
  134SOL    HW2  402   2.709   2.447   1.615  1.0307  0.2058  0.5704
  135SOL     OW  403   0.646   1.459   2.648  0.2059 -0.0377 -0.5655
  135SOL    HW1  404   0.643   1.363   2.681 -1.1259  0.9492 -1.5433
  135SOL    HW2  405   0.696   1.467   2.554  1.0737 -0.8937  2.2851
  136SOL     OW  406   1.211   2.028   0.417  0.9747 -0.0381 -0.0659
  136SOL    HW1  407   1.132   2.097   0.424 -1.4639  1.8374  0.1822
  136SOL    HW2  408   1.191   1.941   0.471 -0.3495 -0.3329  1.7230
  137SOL     OW  409   0.406   1.193   2.150 -0.3589  0.4097 -0.5495
  137SOL    HW1  410   0.313   1.151   2.182  2.3334 -0.2422  0.2596
  137SOL    HW2  411   0.486   1.135   2.187 -0.4509 -0.0251  2.5219
  138SOL     OW  412   2.491   1.500   0.224  0.4587 -0.5899  0.3225
  138SOL    HW1  413   2.393   1.478   0.210  0.8102 -0.6116  1.8766
  138SOL    HW2  414   2.533   1.431   0.289 -2.0727 -2.6854  0.3945
  139SOL     OW  415   1.836   2.601   1.302 -0.2421 -0.1056  0.2986
  139SOL    HW1  416   1.732   2.604   1.283 -0.8860  2.0384  0.8060
  139SOL    HW2  417   1.876   2.506   1.313  1.9283 -2.1681  2.3397
  140SOL     OW  418   3.038   3.003   2.549  0.6173  0.4766  0.2493
  140SOL    HW1  419   3.086   2.909   2.538  2.4562  0.0701 -1.4364
  140SOL    HW2  420   3.105   3.083   2.530  1.1369 -0.4975 -1.7592
  141SOL     OW  421   1.342   1.659   1.597  0.0631 -0.1091  0.1416
  141SOL    HW1  422   1.246   1.679   1.634 -0.4327 -0.4829  0.4958
  141SOL    HW2  423   1.388   1.583   1.652  0.9749  0.5474  0.2579
  142SOL     OW  424   1.581   0.603   2.256 -0.5776  0.5881  0.3283
  142SOL    HW1  425   1.596   0.612   2.154 -0.0643  0.5413 -1.7556
  142SOL    HW2  426   1.479   0.598   2.270  0.8476 -2.2377  1.7905
  143SOL     OW  427   2.692   0.896   0.494 -0.3278 -0.2896  0.3819
  143SOL    HW1  428   2.752   0.921   0.409  0.1573 -0.6942 -1.0620
  143SOL    HW2  429   2.736   0.935   0.584 -0.0724  0.5376 -1.2035
  144SOL     OW  430   2.907   1.166   1.458  0.1297  0.4126  0.3531
  144SOL    HW1  431   2.887   1.149   1.557  0.3425 -1.6139  0.1191
  144SOL    HW2  432   2.972   1.104   1.411 -0.6615  0.7120  1.0129
  145SOL     OW  433   0.970   1.818   0.195 -0.0062  0.2340  0.5766
  145SOL    HW1  434   1.055   1.844   0.142 -0.2177  2.0715 -0.0292
  145SOL    HW2  435   0.929   1.735   0.148 -0.8169 -0.0116 -0.7857
  146SOL     OW  436   2.521   0.648   1.492 -0.0587 -0.5144 -0.1704
  146SOL    HW1  437   2.459   0.570   1.465  0.6668 -2.8208 -0.3581
  146SOL    HW2  438   2.470   0.736   1.488  2.1853  0.8287  1.3031
  147SOL     OW  439   1.104   2.486   0.644  0.4673  0.6078 -0.4150
  147SOL    HW1  440   1.074   2.551   0.565 -0.7694 -2.0730  0.4436
  147SOL    HW2  441   1.198   2.442   0.611  1.7825 -1.1520 -0.4564
  148SOL     OW  442   1.620   1.471   3.059 -0.1155 -0.0408  0.6817
  148SOL    HW1  443   1.620   1.373   3.018  0.4158 -2.6426  1.2200
  148SOL    HW2  444   1.603   1.460   3.160  0.6794  1.1163  2.2441
  149SOL     OW  445   0.707   1.383   1.984  0.0911  0.2504 -0.0078
  149SOL    HW1  446   0.606   1.392   2.004  0.6231 -2.0335 -0.5502
  149SOL    HW2  447   0.730   1.361   1.887  0.2938 -1.6273  1.0547
  150SOL     OW  448   3.011   1.219   0.944 -0.2631 -0.0561  0.0613
  150SOL    HW1  449   3.081   1.198   1.023  1.7858  1.8225 -1.0614
  150SOL    HW2  450   2.968   1.134   0.898  2.0792  0.3169 -2.1612
  151SOL     OW  451   0.156   0.724   2.109 -0.4515 -0.8929 -0.5105
  151SOL    HW1  452   0.176   0.825   2.086 -1.5723 -0.7542  0.9816
  151SOL    HW2  453   0.190   0.653   2.039  0.7257 -0.3875 -0.0224
  152SOL     OW  454   1.449   1.771   1.295  0.4614  0.1609 -0.1295
  152SOL    HW1  455   1.490   1.862   1.264  2.6630  2.4040 -2.1669
  152SOL    HW2  456   1.347   1.766   1.275  1.6131  1.4222  0.2321
  153SOL     OW  457   0.063   1.544   0.152  0.1993  0.3675 -0.2238
  153SOL    HW1  458   0.061   1.442   0.175  4.3303 -0.1747 -1.6656
  153SOL    HW2  459   0.040   1.608   0.229  1.6816 -0.3130  1.0356
  154SOL     OW  460   2.385   1.827   2.822 -0.0669 -0.2725  0.3154
  154SOL    HW1  461   2.400   1.725   2.832  0.8781 -2.5722  0.7539
  154SOL    HW2  462   2.433   1.866   2.740 -0.2326 -0.7558 -0.6548
  155SOL     OW  463   2.465   1.194   0.385  0.0454 -0.1791  0.2194
  155SOL    HW1  464   2.515   1.180   0.294  0.9883 -3.0342  1.2246
  155SOL    HW2  465   2.360   1.196   0.372 -1.2912  4.6484  2.4515
  156SOL     OW  466   2.549   0.988   0.831  0.2180 -0.5437 -0.1632
  156SOL    HW1  467   2.477   1.006   0.902  0.9784  0.9863  1.6549
  156SOL    HW2  468   2.544   1.062   0.756  2.1198 -1.3888 -0.4296
  157SOL     OW  469   1.262   2.937   3.017 -0.2298 -0.1563 -0.6434
  157SOL    HW1  470   1.337   2.891   2.971 -2.7196  0.9403  2.0303
  157SOL    HW2  471   1.282   3.038   3.039 -1.0191 -0.9546  1.5341
  158SOL     OW  472   0.982   1.832   1.911 -0.6765  0.3458  0.4351
  158SOL    HW1  473   1.005   1.929   1.874 -1.8666  1.1125  0.2947
  158SOL    HW2  474   0.889   1.830   1.963  0.3675 -0.9361 -0.6361
  159SOL     OW  475   0.850   0.400   1.218  0.5653 -0.6897  0.0094
  159SOL    HW1  476   0.808   0.478   1.271 -1.2058  0.8064  1.1044
  159SOL    HW2  477   0.776   0.349   1.164  1.3378 -1.1646 -0.1952
  160SOL     OW  478   1.415   2.358   1.571 -0.0331  0.2648  0.4390
  160SOL    HW1  479   1.384   2.287   1.643  0.4167  1.5549 -0.3392
  160SOL    HW2  480   1.516   2.368   1.567 -1.1495 -0.6747  0.3894
  161SOL     OW  481   0.072   2.951   0.363  0.3364 -0.1824  0.8210
  161SOL    HW1  482   0.011   2.878   0.336 -2.4475  2.8721  0.7412
  161SOL    HW2  483   0.057   3.030   0.299 -0.7814 -0.4631  1.0761
  162SOL     OW  484   2.586   1.881   0.485 -0.0458 -0.0564 -0.5619
  162SOL    HW1  485   2.557   1.829   0.394 -1.2566 -0.2897 -1.4850
  162SOL    HW2  486   2.613   1.819   0.566  1.2223 -0.4453  2.9635
  163SOL     OW  487   1.916   2.828   0.719  0.1947 -0.1852 -0.1685
  163SOL    HW1  488   1.911   2.835   0.616 -0.2276 -1.7354 -0.3377
  163SOL    HW2  489   1.979   2.751   0.743  0.3619 -1.4715 -1.5098
  164SOL     OW  490   3.059   0.248   1.238 -0.1350 -0.5551  0.3409
  164SOL    HW1  491   3.114   0.328   1.204 -2.9844 -1.6878  1.2920
  164SOL    HW2  492   3.104   0.199   1.314 -1.7100  2.9957 -1.6828
  165SOL     OW  493   0.983   1.413   0.745 -0.2592 -1.0698 -0.2992
  165SOL    HW1  494   0.924   1.484   0.801  0.6831  0.5959  0.1699
  165SOL    HW2  495   0.974   1.444   0.645  0.3358 -0.3879 -3.2432
  166SOL     OW  496   1.531   1.054   1.739  0.2991  0.3320 -0.1679
  166SOL    HW1  497   1.457   1.036   1.806  1.7360  0.4180  2.6577
  166SOL    HW2  498   1.591   1.131   1.768  1.3383 -0.4561  2.1101
  167SOL     OW  499   0.724   2.001   1.419  0.1899  0.4863 -0.1090
  167SOL    HW1  500   0.760   2.052   1.501  0.8100 -0.4935 -0.8995
  167SOL    HW2  501   0.696   1.906   1.441 -1.3121  1.6921  0.1678
  168SOL     OW  502   1.670   2.357   0.158 -0.3042 -0.1305 -0.3234
  168SOL    HW1  503   1.738   2.417   0.120  1.5346 -0.1426  2.7183
  168SOL    HW2  504   1.691   2.321   0.251  2.6058 -0.4873  0.2754
  169SOL     OW  505   0.222   2.562   2.252 -0.3777  0.2553 -0.4706
  169SOL    HW1  506   0.217   2.515   2.163  3.1242  0.7082  1.1255
  169SOL    HW2  507   0.250   2.503   2.333 -0.4150 -1.4102 -1.3089
  170SOL     OW  508   1.130   0.207   2.038  0.2230 -0.2266  0.5167
  170SOL    HW1  509   1.205   0.193   2.107 -1.8171  0.8723  1.5049
  170SOL    HW2  510   1.160   0.170   1.950 -0.1222 -1.3601  0.4468
  171SOL     OW  511   0.188   0.780   2.373 -0.3643 -0.0449 -0.4510
  171SOL    HW1  512   0.100   0.823   2.413  1.8319 -0.5759 -0.3417
  171SOL    HW2  513   0.170   0.749   2.275  2.6262  1.6487 -0.1723
  172SOL     OW  514   0.937   1.005   2.874  0.2084  0.2155 -0.6330
  172SOL    HW1  515   0.971   1.100   2.897  0.8938  0.7185  0.2806
  172SOL    HW2  516   0.893   1.002   2.779  0.8832  1.9252 -0.5464
  173SOL     OW  517   0.670   2.688   0.129  0.2848 -0.4264 -0.1301
  173SOL    HW1  518   0.637   2.792   0.133 -2.4721  3.2720  0.8861
  173SOL    HW2  519   0.606   2.624   0.077  0.0241 -0.6705 -3.9475
  174SOL     OW  520   1.505   2.825   1.044  0.5256  0.1700  0.3125
  174SOL    HW1  521   1.457   2.907   0.995  1.2671  0.8436 -1.3596
  174SOL    HW2  522   1.471   2.734   1.017 -3.0319  0.1552 -2.0077
  175SOL     OW  523   0.432   3.081   1.662  0.5451 -0.2111  0.5816
  175SOL    HW1  524   0.490   3.099   1.748  1.1881  0.3544  0.2000
  175SOL    HW2  525   0.409   3.168   1.613  0.0542 -2.1195 -1.5360
  176SOL     OW  526   2.609   0.387   0.005 -0.2635  0.0992  0.0210
  176SOL    HW1  527   2.615   0.480   0.049 -2.2908  0.1139 -1.0966
  176SOL    HW2  528   2.567   0.314   0.066  0.8398 -5.1874  0.4250
  177SOL     OW  529   0.338   0.311   0.955 -0.3093 -0.1014 -1.0011
  177SOL    HW1  530   0.267   0.238   0.944 -1.9334 -0.7892  0.1938
  177SOL    HW2  531   0.338   0.352   1.049  1.2942  2.1719  0.3842
  178SOL     OW  532   0.018   2.749   2.585  0.3013 -0.1118 -0.1537
  178SOL    HW1  533  -0.023   2.656   2.597 -1.2332  2.2176  0.5074
  178SOL    HW2  534   0.098   2.769   2.651  0.9347  0.6312 -0.2639
  179SOL     OW  535   3.066   1.581   1.134 -0.3314 -0.6331 -0.2729
  179SOL    HW1  536   3.011   1.662   1.117  3.4986 -0.3432  1.0225
  179SOL    HW2  537   3.027   1.533   1.217 -0.8109 -3.3443  0.8434
  180SOL     OW  538   0.182   1.208   1.858 -0.0842  0.2971 -0.2288
  180SOL    HW1  539   0.276   1.176   1.885  1.2120  1.7489 -0.9468
  180SOL    HW2  540   0.152   1.299   1.910 -0.3848  4.7574 -1.1202
  181SOL     OW  541   3.044   1.844   2.484 -0.4088 -0.3850 -0.2361
  181SOL    HW1  542   3.095   1.932   2.504  0.6387 -1.3959  0.9335
  181SOL    HW2  543   2.966   1.861   2.414  0.3907 -0.6614  0.8898
  182SOL     OW  544   2.302   1.310   1.172  0.8494 -0.4377 -0.2632
  182SOL    HW1  545   2.229   1.246   1.128 -0.0793 -0.5703  1.7202
  182SOL    HW2  546   2.308   1.404   1.127 -0.5513 -3.4449  1.1958
  183SOL     OW  547   1.469   2.253   2.600 -0.8199 -0.0089 -0.1619
  183SOL    HW1  548   1.368   2.227   2.598  2.2164 -0.1051  1.3618
  183SOL    HW2  549   1.523   2.165   2.592 -1.0500 -3.7553  1.6810
  184SOL     OW  550   1.990   0.857   0.750 -0.3733  0.3320 -0.5082
  184SOL    HW1  551   1.923   0.934   0.733 -2.9259  0.2833 -1.4469
  184SOL    HW2  552   1.954   0.785   0.818 -1.0144 -1.6325  1.0821
  185SOL     OW  553   1.632   2.768   2.039 -0.0409  0.4896 -0.7859
  185SOL    HW1  554   1.551   2.833   2.026 -0.5463 -1.3175 -0.3084
  185SOL    HW2  555   1.672   2.768   2.138  0.7877 -1.0066  0.1853
  186SOL     OW  556   0.106   2.234   1.660  0.4008  0.4723  0.4087
  186SOL    HW1  557   0.068   2.287   1.744 -0.6049  3.7622  1.4417
  186SOL    HW2  558   0.177   2.166   1.691 -0.5852  0.0800 -2.6384
  187SOL     OW  559   1.292   0.736   1.680  0.1870 -1.0994 -0.2250
  187SOL    HW1  560   1.363   0.780   1.612 -0.1062 -2.3950 -0.6261
  187SOL    HW2  561   1.336   0.709   1.771 -0.4803  1.5960  0.6274
  188SOL     OW  562   2.764   2.760   1.420 -0.1143 -0.6058 -0.0888
  188SOL    HW1  563   2.729   2.855   1.453 -0.9398  0.9028  0.5152
  188SOL    HW2  564   2.696   2.704   1.364  3.1201  0.1247 -1.7113
  189SOL     OW  565   0.942   1.206   1.431  0.0902 -0.1238  0.2425
  189SOL    HW1  566   1.009   1.245   1.494 -0.7838 -0.1759 -0.2698
  189SOL    HW2  567   0.900   1.274   1.369  0.1094  0.0743  2.7712
  190SOL     OW  568   1.462   1.915   1.603 -0.3056  0.4599  0.3874
  190SOL    HW1  569   1.442   1.810   1.598 -1.8332 -2.5262  3.1802
  190SOL    HW2  570   1.500   1.938   1.697  3.1442 -2.0590 -0.3689
  191SOL     OW  571   0.956   0.722   1.581 -0.4080 -0.0714 -0.0231
  191SOL    HW1  572   1.027   0.647   1.596 -0.7107  0.0043 -2.0213
  191SOL    HW2  573   0.928   0.766   1.670 -0.3632 -0.2947 -1.9007
  192SOL     OW  574   1.864   2.248   1.104 -0.2098  0.3734 -0.2663
  192SOL    HW1  575   1.778   2.298   1.085  0.3699  0.9750 -1.0427
  192SOL    HW2  576   1.939   2.267   1.037 -0.2788 -1.0744  0.8757
  193SOL     OW  577   0.594   0.581   0.467 -0.0144  0.3193 -0.3728
  193SOL    HW1  578   0.541   0.503   0.506 -0.4479 -1.0246 -0.2665
  193SOL    HW2  579   0.631   0.555   0.372 -3.4905 -2.4882  1.2847
  194SOL     OW  580   0.325   0.908   1.285 -0.2068  0.3056 -0.0510
  194SOL    HW1  581   0.259   0.832   1.258 -0.5030  2.0567  0.2060
  194SOL    HW2  582   0.332   0.985   1.212  0.6482  0.6915 -3.3568
  195SOL     OW  583   1.002   2.905   0.542 -0.0615  0.9820 -0.3032
  195SOL    HW1  584   0.994   2.808   0.497  2.5440 -2.8262 -1.8789
  195SOL    HW2  585   1.096   2.935   0.575  0.2248  3.0115  3.5714
  196SOL     OW  586   0.216   1.329   1.381  0.3726  0.1949 -0.0258
  196SOL    HW1  587   0.220   1.420   1.430 -0.2300 -1.3389  1.5601
  196SOL    HW2  588   0.199   1.251   1.451 -1.2285 -0.3628 -1.9021
  197SOL     OW  589   0.816   2.079   0.249  0.2602  0.0710  0.3679
  197SOL    HW1  590   0.789   2.053   0.346 -0.7612 -0.5629 -1.2250
  197SOL    HW2  591   0.868   2.006   0.199 -0.0712  0.2433  2.4046
  198SOL     OW  592   0.293   1.261   0.256  0.1473  0.3131  0.3428
  198SOL    HW1  593   0.187   1.253   0.244 -4.1056  0.4401  1.8508
  198SOL    HW2  594   0.321   1.329   0.331  0.8264 -2.0123  0.5404
  199SOL     OW  595   2.280   0.363   2.515  0.3497  0.1386 -0.5623
  199SOL    HW1  596   2.201   0.343   2.572  2.2614 -1.3048  0.9645
  199SOL    HW2  597   2.366   0.373   2.576 -0.7862 -0.8215 -2.5563
  200SOL     OW  598   0.029   2.918   0.756 -0.3083  0.5183 -0.7162
  200SOL    HW1  599  -0.058   2.894   0.710 -1.5824  0.7465  1.4585
  200SOL    HW2  600   0.093   2.979   0.707 -0.3694 -1.0563  0.4735
  201SOL     OW  601   1.086   0.743   0.600  1.0381  0.3391  0.0592
  201SOL    HW1  602   1.107   0.771   0.697  0.4455 -0.4151  1.0883
  201SOL    HW2  603   1.012   0.673   0.579 -3.2155  1.3559 -0.4964
  202SOL     OW  604   0.424   1.104   1.886  0.0508 -0.5368  0.6289
  202SOL    HW1  605   0.503   1.049   1.840 -0.9715 -1.8100  2.5275
  202SOL    HW2  606   0.445   1.115   1.987 -1.6225 -1.8536 -1.9215
  203SOL     OW  607   0.656   0.213   1.520 -0.1075  0.2466 -0.1770
  203SOL    HW1  608   0.724   0.159   1.461  0.1908  0.4960  1.0249
  203SOL    HW2  609   0.667   0.186   1.619 -0.3080 -0.5084 -1.8846
  204SOL     OW  610   2.077   1.823   2.886  0.0322 -0.9017 -0.4395
  204SOL    HW1  611   2.094   1.719   2.902 -0.2815  0.3147 -0.7073
  204SOL    HW2  612   2.158   1.859   2.837  1.7580  0.7899  1.5119
  205SOL     OW  613   1.830   1.871   3.045 -0.1221  0.6153 -0.7088
  205SOL    HW1  614   1.906   1.831   2.981  1.3275 -1.9683 -1.3505
  205SOL    HW2  615   1.817   1.972   3.024  2.5933  1.9789  1.6492
  206SOL     OW  616   2.499   2.810   0.328  0.0383  0.2855  0.0129
  206SOL    HW1  617   2.557   2.747   0.382 -1.1433  3.3211  0.7957
  206SOL    HW2  618   2.555   2.878   0.272 -0.2870 -0.2146 -0.1806
  207SOL     OW  619   0.654   1.812   3.009  0.5269  0.1539  0.0930
  207SOL    HW1  620   0.729   1.768   2.952  0.4293  1.1679  1.9639
  207SOL    HW2  621   0.613   1.752   3.082  0.6320  2.9582  0.1371
  208SOL     OW  622   1.095   1.561   1.376 -0.3417  0.6041  0.4179
  208SOL    HW1  623   1.095   1.633   1.299 -1.6570 -0.2124  1.0398
  208SOL    HW2  624   1.127   1.596   1.466  0.0875 -0.6226  0.2997
  209SOL     OW  625   0.212   0.931   3.043  0.1598 -0.2271 -0.4262
  209SOL    HW1  626   0.195   0.853   2.976 -0.8104 -0.3048 -1.8363
  209SOL    HW2  627   0.240   0.891   3.137 -0.1916 -2.8225 -0.3046
  210SOL     OW  628   1.793   0.491   1.186 -0.2460 -0.6386  0.1200
  210SOL    HW1  629   1.739   0.579   1.176 -0.6239  1.7911  0.1478
  210SOL    HW2  630   1.892   0.500   1.164 -2.5674 -1.1269  1.7308
  211SOL     OW  631   2.124   1.072   1.558 -0.3071  1.0121  0.1746
  211SOL    HW1  632   2.167   1.038   1.647  0.6200 -0.5549  0.9297
  211SOL    HW2  633   2.197   1.105   1.493  1.2583 -0.1019  2.7242
  212SOL     OW  634   0.034   0.959   1.481  0.1761 -0.0467  0.5236
  212SOL    HW1  635   0.100   1.033   1.517 -0.5921  1.8055 -1.7791
  212SOL    HW2  636   0.010   0.884   1.547 -0.2159  1.5484  1.0317
  213SOL     OW  637   2.831   0.250   0.381 -0.4425 -0.4765 -0.8097
  213SOL    HW1  638   2.848   0.177   0.308  1.8746  0.4745  3.1702
  213SOL    HW2  639   2.769   0.324   0.355  0.0228 -1.1921  2.6716
  214SOL     OW  640   2.156   0.243   2.288  0.3132 -0.0286 -0.3886
  214SOL    HW1  641   2.185   0.267   2.385  0.5936 -5.2772  1.7587
  214SOL    HW2  642   2.110   0.151   2.279  0.8908 -0.7578 -0.0592
  215SOL     OW  643   1.623   2.259   2.123 -0.5707 -0.2671 -0.0923
  215SOL    HW1  644   1.717   2.272   2.084 -0.9471 -1.3900 -0.5514
  215SOL    HW2  645   1.569   2.352   2.129  1.7726  3.3073 -0.1617
  216SOL     OW  646   2.199   0.626   0.662 -0.2469 -0.7765  0.6641
  216SOL    HW1  647   2.171   0.528   0.661 -0.4096  0.1950 -0.4565
  216SOL    HW2  648   2.123   0.700   0.666  0.7898  0.5644  0.0849
  217SOL     OW  649   0.759   2.780   2.434 -0.1623 -0.8327 -0.3702
  217SOL    HW1  650   0.756   2.699   2.501  0.4307  0.6670  1.3412
  217SOL    HW2  651   0.773   2.750   2.335  2.1141  1.5136  0.3253
  218SOL     OW  652   1.908   1.429   0.024 -0.4682 -0.4427 -0.2096
  218SOL    HW1  653   1.818   1.429  -0.028  0.8158  0.5373  3.4997
  218SOL    HW2  654   1.915   1.349   0.083  0.5955  1.6000 -1.4154
  219SOL     OW  655   2.409   1.284   2.544  0.4432 -0.5353  0.1060
  219SOL    HW1  656   2.463   1.238   2.465 -0.2897 -0.2250 -2.3342
  219SOL    HW2  657   2.413   1.228   2.630  1.4321 -3.0670 -1.1161
  220SOL     OW  658   1.496   1.050   1.261 -0.0294  0.1155 -0.2208
  220SOL    HW1  659   1.592   1.077   1.286 -0.7067  0.5054  1.4026
  220SOL    HW2  660   1.476   1.047   1.159 -1.6478 -2.7319 -0.9415
  221SOL     OW  661   1.346   1.002   2.200 -0.7268  0.3180 -0.0995
  221SOL    HW1  662   1.302   1.023   2.109  1.1151 -0.6719  0.5042
  221SOL    HW2  663   1.437   0.949   2.192  0.5284  0.5100  0.2355
  222SOL     OW  664   1.102   0.007   1.166 -0.1670  0.0185  0.1091
  222SOL    HW1  665   1.157   0.040   1.248 -1.5179  0.0558 -2.8674
  222SOL    HW2  666   1.126   0.069   1.088 -0.4430 -1.5581  0.5018
  223SOL     OW  667   2.747   0.923   2.047 -0.0054  0.4435  0.5142
  223SOL    HW1  668   2.710   0.989   2.116 -1.0729  0.5461  0.9723
  223SOL    HW2  669   2.851   0.927   2.035  1.4908  0.1590  0.8654
  224SOL     OW  670   1.520   1.041   2.781  0.0314  0.2849 -0.1643
  224SOL    HW1  671   1.586   0.981   2.727 -1.3484  0.6969  0.8312
  224SOL    HW2  672   1.465   1.100   2.719 -1.6191  1.2354 -0.4807
  225SOL     OW  673   2.929   2.768   2.871  0.1163 -0.0954 -0.2177
  225SOL    HW1  674   2.906   2.688   2.804 -3.9795 -0.9755  1.6289
  225SOL    HW2  675   2.988   2.840   2.829  2.3314 -0.8996  0.4179
  226SOL     OW  676   2.483   1.567   2.867  1.0572  0.3444  0.6330
  226SOL    HW1  677   2.504   1.539   2.769  0.8674  1.8568  0.3016
  226SOL    HW2  678   2.401   1.513   2.912 -0.9519 -3.9009 -0.2351
  227SOL     OW  679   0.849   0.150   0.018  0.4410 -0.1459  0.2972
  227SOL    HW1  680   0.893   0.095   0.095 -0.3767 -1.0788 -0.3814
  227SOL    HW2  681   0.862   0.096  -0.068 -1.2476 -1.5511  3.4838
  228SOL     OW  682   2.394   0.634   2.856  0.1207 -0.2092 -0.3321
  228SOL    HW1  683   2.360   0.645   2.758  1.7883  0.4596  1.7244
  228SOL    HW2  684   2.489   0.585   2.861  1.4138 -1.0443  0.4425
  229SOL     OW  685   0.589   0.457   1.862 -0.6753  0.6693  0.7459
  229SOL    HW1  686   0.610   0.352   1.873 -0.3757 -3.3401  1.2880
  229SOL    HW2  687   0.595   0.505   1.767 -1.6970  1.5247 -2.1984
  230SOL     OW  688   1.885   1.133   2.074  0.7433 -0.0812 -0.6629
  230SOL    HW1  689   1.972   1.187   2.061 -3.0660 -0.6970  0.6944
  230SOL    HW2  690   1.806   1.194   2.112  1.8501  0.5552 -0.9967
  231SOL     OW  691   0.651   1.022   3.082 -0.5575  0.0492  0.6487
  231SOL    HW1  692   0.715   1.104   3.073 -0.1558 -1.5132  2.5424
  231SOL    HW2  693   0.551   1.053   3.081  0.7714  2.6568  1.1543
  232SOL     OW  694   2.353   3.087   2.874 -0.0801  0.2493  0.7572
  232SOL    HW1  695   2.401   2.994   2.867 -0.2039  0.1954 -0.8170
  232SOL    HW2  696   2.371   3.143   2.790 -0.9427 -0.8479  2.3548
  233SOL     OW  697   1.705   1.295   1.151  0.0879 -0.2001 -0.0517
  233SOL    HW1  698   1.730   1.272   1.058 -2.7801  0.4556  1.9485
  233SOL    HW2  699   1.728   1.220   1.217  2.6927  0.4507 -0.1215
  234SOL     OW  700   1.566   2.562   1.863 -0.3702 -0.6340  0.2604
  234SOL    HW1  701   1.610   2.625   1.934 -1.5859 -0.1015  0.7896
  234SOL    HW2  702   1.503   2.495   1.913  0.7584  0.4484  0.8217
  235SOL     OW  703   0.005   2.993   2.831  0.0449  0.5569 -0.8815
  235SOL    HW1  704   0.020   3.006   2.731 -1.3576 -1.3712 -1.3032
  235SOL    HW2  705  -0.017   3.078   2.881 -3.0095  0.4629  1.5733
  236SOL     OW  706   2.903   0.724   0.076 -0.8604  0.2035  0.0624
  236SOL    HW1  707   2.948   0.802   0.128 -1.1660  0.2369 -1.3916
  236SOL    HW2  708   2.973   0.648   0.061  2.3216  0.8477  1.5756
  237SOL     OW  709   1.517   1.684   1.002 -0.1089 -0.1891 -0.2021
  237SOL    HW1  710   1.624   1.691   0.984  1.5091 -0.1393 -1.2452
  237SOL    HW2  711   1.492   1.721   1.093 -0.7084 -0.7786  0.8237
  238SOL     OW  712   1.774   1.273   0.845  0.5784 -0.0010  0.0382
  238SOL    HW1  713   1.853   1.328   0.874  1.5534  1.3735 -1.7380
  238SOL    HW2  714   1.692   1.332   0.826  1.4200 -1.7176 -1.9137
  239SOL     OW  715   2.057   0.266   2.673  0.3166  0.1210 -0.5479
  239SOL    HW1  716   2.111   0.253   2.760 -1.6108 -1.3765 -1.2007
  239SOL    HW2  717   1.968   0.316   2.693 -0.9079  1.7003 -2.8401
  240SOL     OW  718   0.906   0.658   0.310  0.2915 -0.2329 -0.1853
  240SOL    HW1  719   0.970   0.577   0.277 -1.3973 -0.6208 -1.2376
  240SOL    HW2  720   0.879   0.630   0.406  1.4291  1.6891  0.1932
  241SOL     OW  721   0.554   0.069   0.369 -0.4017 -0.9192 -0.2580
  241SOL    HW1  722   0.592   0.153   0.322 -0.3982  0.3377  2.1531
  241SOL    HW2  723   0.561  -0.016   0.308 -1.6858  1.7598  3.8690
  242SOL     OW  724   0.666   2.529   1.141 -0.2463  1.0723  0.3193
  242SOL    HW1  725   0.596   2.561   1.209  0.5620 -0.9502 -1.6897
  242SOL    HW2  726   0.735   2.600   1.115 -0.2673 -1.1414  0.6098
  243SOL     OW  727   1.081   0.593   2.500  0.0220  0.3038 -0.2169
  243SOL    HW1  728   0.988   0.634   2.465 -1.8038  0.7885  2.5995
  243SOL    HW2  729   1.061   0.548   2.589  0.8137  0.8118  0.0815
  244SOL     OW  730   2.817   1.888   2.295  0.8862  0.1975  0.3260
  244SOL    HW1  731   2.854   1.832   2.215  0.3290  0.7397 -0.7233
  244SOL    HW2  732   2.723   1.844   2.332 -3.4896  0.2735 -0.8970
  245SOL     OW  733   2.333   0.692   2.190 -0.0962  0.4733 -0.0506
  245SOL    HW1  734   2.425   0.718   2.220 -3.0893 -3.0957 -0.2767
  245SOL    HW2  735   2.265   0.720   2.260 -1.5904  4.5471 -1.3865
  246SOL     OW  736   0.212   2.911   1.712  0.4062 -0.4059  0.6148
  246SOL    HW1  737   0.119   2.928   1.660 -0.6445  3.2756  1.1763
  246SOL    HW2  738   0.299   2.951   1.669 -0.0239  0.7668  0.4680
  247SOL     OW  739   2.197   0.586   3.059  0.9894 -0.1198  0.2912
  247SOL    HW1  740   2.281   0.570   2.996 -3.4179 -0.5410  1.1953
  247SOL    HW2  741   2.169   0.687   3.054  0.8013 -1.8641  1.7762
  248SOL     OW  742   2.135   1.831   1.587 -0.3471 -0.2688  0.1982
  248SOL    HW1  743   2.215   1.770   1.617 -1.1968 -0.2600 -1.0126
  248SOL    HW2  744   2.048   1.810   1.644  2.0909 -3.3010 -1.4291
  249SOL     OW  745   1.858   1.916   1.902  0.0648  0.7305  0.2461
  249SOL    HW1  746   1.869   1.855   1.815 -1.3885 -2.3429 -0.8148
  249SOL    HW2  747   1.939   1.981   1.916 -0.8488  0.7792 -1.2881
  250SOL     OW  748   1.134   0.727   1.946  0.0247  0.3279 -0.6971
  250SOL    HW1  749   1.148   0.631   1.982  0.3931 -1.2551  0.0786
  250SOL    HW2  750   1.144   0.733   1.843  2.5314 -1.0690 -0.3696
  251SOL     OW  751   0.038   1.586   2.475  0.8609  0.3745 -0.5583
  251SOL    HW1  752   0.027   1.685   2.438 -0.5949  0.0112 -0.8353
  251SOL    HW2  753  -0.058   1.538   2.499  0.0833 -2.3706  0.4765
  252SOL     OW  754   1.524   0.855   1.557  0.0214 -0.2853  0.2250
  252SOL    HW1  755   1.612   0.843   1.497 -0.5344  0.5522 -0.2468
  252SOL    HW2  756   1.532   0.940   1.621  2.9357  1.1412 -0.1681
  253SOL     OW  757   0.946   1.507   0.486  0.4250  0.4239 -0.0854
  253SOL    HW1  758   0.997   1.435   0.436 -0.5453  0.5920  0.3264
  253SOL    HW2  759   0.861   1.536   0.428  2.6813  1.8309  0.8928
  254SOL     OW  760   2.030   2.138   1.606 -0.0737 -0.2983  0.0350
  254SOL    HW1  761   1.986   2.062   1.547  0.2442  1.3828 -2.4983
  254SOL    HW2  762   1.968   2.167   1.683  1.8124  0.3116  0.7692
  255SOL     OW  763   0.152   1.150   2.871 -0.2519 -0.5097  0.1083
  255SOL    HW1  764   0.200   1.240   2.882  0.1539 -3.7776  0.7793
  255SOL    HW2  765   0.189   1.077   2.931 -1.7641  4.0601 -0.8848
  256SOL     OW  766   2.806   1.374   1.771 -0.3368 -0.2518  0.4470
  256SOL    HW1  767   2.721   1.431   1.748  1.6009  1.3534 -1.0692
  256SOL    HW2  768   2.793   1.270   1.756 -0.8255 -0.9076  0.1931
  257SOL     OW  769   0.798   0.207   1.766 -0.6257 -0.0870 -0.3898
  257SOL    HW1  770   0.844   0.284   1.716 -2.5976 -0.9419 -1.1942
  257SOL    HW2  771   0.870   0.134   1.782 -0.5603  4.0157  1.3012
  258SOL     OW  772   2.965   1.290   0.439  0.5713 -0.2172 -0.5523
  258SOL    HW1  773   2.877   1.333   0.469 -0.3378 -0.1575  2.4642
  258SOL    HW2  774   3.024   1.278   0.529  1.6425  2.2887  0.6011
  259SOL     OW  775   0.457   2.953   3.066  0.1174 -0.0015  0.0770
  259SOL    HW1  776   0.383   2.900   3.108  1.8775  1.4041 -1.5636
  259SOL    HW2  777   0.485   2.912   2.972 -1.0865  0.2053 -2.5814
  260SOL     OW  778   2.705   0.839   2.807 -0.1312 -0.0490  0.0705
  260SOL    HW1  779   2.615   0.780   2.792 -2.4526 -2.8730  1.1039
  260SOL    HW2  780   2.724   0.866   2.908 -2.2533 -2.0527  1.2090
  261SOL     OW  781   2.751   1.328   1.253 -0.3222  0.4185 -0.8734
  261SOL    HW1  782   2.687   1.286   1.189  0.1167  3.9702 -1.0409
  261SOL    HW2  783   2.803   1.256   1.307 -0.7798 -0.7394 -2.1070
  262SOL     OW  784   1.403   2.968   2.027  0.3946 -0.0627  0.3927
  262SOL    HW1  785   1.427   3.060   1.980  0.8204  1.7939  1.9271
  262SOL    HW2  786   1.316   2.927   1.986  0.2648 -0.4087  1.2806
  263SOL     OW  787   0.850   0.741   2.334 -0.4486 -0.4436  0.4100
  263SOL    HW1  788   0.795   0.666   2.284 -3.2624 -0.8842  3.4476
  263SOL    HW2  789   0.898   0.802   2.262  0.7957  0.9717  2.4647
  264SOL     OW  790   2.203   0.841   0.381 -0.3541 -0.0016  0.5556
  264SOL    HW1  791   2.211   0.784   0.292  0.7108 -4.8296 -2.6354
  264SOL    HW2  792   2.284   0.842   0.448  0.8022  1.4563  2.9615
  265SOL     OW  793   0.925   2.388   2.655 -0.2810 -0.1315 -0.6447
  265SOL    HW1  794   1.008   2.420   2.718  1.2919  2.2950 -0.5865
  265SOL    HW2  795   0.901   2.287   2.668  0.9847  1.5292 -0.4006
  266SOL     OW  796   1.349   1.683   3.094 -0.8365  0.0310  0.4942
  266SOL    HW1  797   1.346   1.760   3.164  1.4495  2.1597  0.6090
  266SOL    HW2  798   1.444   1.676   3.051  2.5845  1.7574 -1.3289
  267SOL     OW  799   0.985   3.037   2.370  0.3079  0.7693 -0.2839
  267SOL    HW1  800   0.982   2.980   2.284 -0.5811  0.8347  1.0955
  267SOL    HW2  801   0.911   3.108   2.367 -0.5079  0.1544  0.8550
  268SOL     OW  802   0.643   1.187   1.057 -0.7790  0.1959  0.1708
  268SOL    HW1  803   0.657   1.228   1.156 -0.9257 -0.2869 -0.2477
  268SOL    HW2  804   0.632   1.267   0.996  1.4105  0.9008 -0.1152
  269SOL     OW  805   2.352   2.526   1.589 -0.3150 -0.1909  0.6497
  269SOL    HW1  806   2.427   2.471   1.636  2.1734 -1.4771  0.6393
  269SOL    HW2  807   2.298   2.588   1.654 -3.0532  0.2012  0.7266
  270SOL     OW  808   0.184   2.958   1.992  0.1892 -0.4618  0.3491
  270SOL    HW1  809   0.180   2.938   1.888 -2.4547 -1.1029 -0.8896
  270SOL    HW2  810   0.198   2.872   2.049  2.0748 -2.2067  0.3843
  271SOL     OW  811   0.408   1.376   1.174 -0.2378 -0.3752  0.4478
  271SOL    HW1  812   0.360   1.351   1.085 -1.7712 -2.4090 -0.7007
  271SOL    HW2  813   0.350   1.362   1.262 -1.9792  0.3971  2.4894
  272SOL     OW  814   1.987   2.878   1.967 -0.2081  0.0382  0.7451
  272SOL    HW1  815   1.947   2.822   1.887 -0.5984  1.2618 -1.5959
  272SOL    HW2  816   2.062   2.934   1.939  0.1577  0.7691 -0.3505
  273SOL     OW  817   1.467   1.434   2.752  0.0061  0.1245 -0.4579
  273SOL    HW1  818   1.381   1.486   2.763  1.3126  0.4330 -0.5360
  273SOL    HW2  819   1.495   1.391   2.841 -0.3704  0.3094  0.1552
  274SOL     OW  820   1.229   0.470   2.035 -0.0639 -0.3491  0.5479
  274SOL    HW1  821   1.182   0.378   2.031 -0.8711  0.2759  0.0204
  274SOL    HW2  822   1.253   0.513   2.130 -1.3486  1.4983  1.6663
  275SOL     OW  823   0.594   2.088   1.896  0.0288  0.2163  0.3284
  275SOL    HW1  824   0.583   2.192   1.900 -2.2607  2.3131 -1.2980
  275SOL    HW2  825   0.510   2.030   1.926  0.5575 -2.0732  0.0520
  276SOL     OW  826   2.188   0.909   2.748  0.3802  0.7831 -0.1831
  276SOL    HW1  827   2.138   0.911   2.654  1.7712  2.2877 -0.1307
  276SOL    HW2  828   2.132   0.868   2.825 -0.7874 -0.3689  1.9767
  277SOL     OW  829   3.071   0.900   0.226  0.1575 -0.0367  0.0957
  277SOL    HW1  830   3.166   0.912   0.186  1.9180 -0.7050  0.0012
  277SOL    HW2  831   3.075   0.846   0.315 -1.5158 -0.9565  1.5681
  278SOL     OW  832   0.232   0.284   3.051  0.3462  0.2959 -0.1111
  278SOL    HW1  833   0.320   0.225   3.065  2.8952 -0.8119  1.8128
  278SOL    HW2  834   0.257   0.384   3.073 -0.6316  0.7204 -0.7299
  279SOL     OW  835   0.171   0.092   0.871  1.2961  0.0344 -0.4323
  279SOL    HW1  836   0.169   0.016   0.945 -0.5705 -0.6788  1.7339
  279SOL    HW2  837   0.214   0.063   0.781  0.0146 -2.3586  0.4187
  280SOL     OW  838   1.569   2.958   2.424  0.5573 -0.1869 -0.3023
  280SOL    HW1  839   1.625   3.016   2.492  1.3206 -2.0921  0.8572
  280SOL    HW2  840   1.497   3.018   2.378  0.3155 -1.3852 -0.7000
  281SOL     OW  841   0.571   0.971   2.214  0.2881  0.5729  0.6952
  281SOL    HW1  842   0.598   0.889   2.155 -1.3060  0.3314 -1.5392
  281SOL    HW2  843   0.510   0.938   2.292  0.5719 -1.7037  0.5894
  282SOL     OW  844   1.790   2.491   0.536 -0.1878  0.4215 -0.4182
  282SOL    HW1  845   1.752   2.403   0.491 -0.8516 -0.6988  0.8253
  282SOL    HW2  846   1.709   2.553   0.559 -0.7117 -1.3926  1.6055
  283SOL     OW  847   1.133   0.890   0.839  0.0693 -0.3570 -0.8317
  283SOL    HW1  848   1.158   0.823   0.915  2.8283 -4.7336 -3.2553
  283SOL    HW2  849   1.067   0.963   0.870 -1.7498 -0.6999 -3.7408
  284SOL     OW  850   2.297   2.711   2.509 -0.5667  1.1680  0.8628
  284SOL    HW1  851   2.389   2.759   2.472  0.6051 -0.7244  0.6823
  284SOL    HW2  852   2.309   2.674   2.604 -3.5259  0.3795  0.4655
  285SOL     OW  853   1.306   3.042   2.606 -0.0057  0.1866  0.4018
  285SOL    HW1  854   1.323   3.077   2.504 -0.6796  1.3400 -3.2788
  285SOL    HW2  855   1.209   3.020   2.630  0.2071 -1.4565 -1.2777
  286SOL     OW  856   0.445   0.457   0.749 -0.4589 -0.2367  0.0443
  286SOL    HW1  857   0.400   0.406   0.825 -0.6010 -0.7140 -1.5061
  286SOL    HW2  858   0.446   0.404   0.659  0.3556  1.0472 -1.2708
  287SOL     OW  859   0.098   1.296   2.521 -0.4189  0.4379  0.0082
  287SOL    HW1  860   0.017   1.245   2.560  0.8604 -1.3164 -0.4148
  287SOL    HW2  861   0.089   1.392   2.535  3.3479 -0.9947 -1.6821
  288SOL     OW  862   1.584   2.632   1.578 -0.1923  0.3650 -0.2821
  288SOL    HW1  863   1.571   2.556   1.649  0.6898 -1.8263  0.5784
  288SOL    HW2  864   1.657   2.613   1.511 -4.5734 -3.7350  2.9655
  289SOL     OW  865   0.664   2.706   0.878  0.4712 -0.4212 -0.3515
  289SOL    HW1  866   0.716   2.759   0.807 -0.1039 -0.6648  0.3927
  289SOL    HW2  867   0.614   2.774   0.942 -1.0071  0.9800  0.7732
  290SOL     OW  868   2.802   1.083   1.707  0.3378 -0.1223  0.2197
  290SOL    HW1  869   2.718   1.029   1.737  1.2693  1.2739  2.7802
  290SOL    HW2  870   2.890   1.056   1.760 -0.3880 -1.1759  0.6351
  291SOL     OW  871   1.971   0.046   0.046 -0.3170 -0.0042 -0.5465
  291SOL    HW1  872   1.985   0.009   0.147 -0.5842 -1.3629 -1.2654
  291SOL    HW2  873   2.012   0.141   0.022  1.5019  1.7215 -2.8055
  292SOL     OW  874   2.985   1.146   3.007  0.2575 -0.1636 -0.2545
  292SOL    HW1  875   2.920   1.224   2.987 -0.1445  2.1158 -0.4322
  292SOL    HW2  876   3.080   1.160   2.968  2.3194 -0.9529 -1.6367
  293SOL     OW  877   0.571   2.147   0.175  0.1168 -0.0117  0.8260
  293SOL    HW1  878   0.525   2.213   0.249  1.2030 -3.4387  2.1823
  293SOL    HW2  879   0.669   2.119   0.202  0.8367 -1.6490  2.1852
  294SOL     OW  880   1.809   2.263   1.780 -0.0253  0.2036  0.1183
  294SOL    HW1  881   1.819   2.302   1.880  1.9119 -0.1556  3.3384
  294SOL    HW2  882   1.773   2.323   1.701  0.0591  2.8379  1.6597
  295SOL     OW  883   0.996   1.071   0.471 -0.0292  0.1501 -0.2799
  295SOL    HW1  884   1.083   1.082   0.530 -0.2075  2.5971  1.7893
  295SOL    HW2  885   0.909   1.052   0.532  1.4914  1.7319 -2.4341
  296SOL     OW  886   1.200   2.155   2.534 -0.0070  0.0731  0.8528
  296SOL    HW1  887   1.144   2.190   2.447 -1.3009 -1.2343  1.2339
  296SOL    HW2  888   1.232   2.059   2.533  1.6399  0.7624  0.4272
  297SOL     OW  889   1.433   0.616   1.349  0.3787  0.0263  0.0089
  297SOL    HW1  890   1.373   0.535   1.320 -3.0395 -2.1183 -0.3528
  297SOL    HW2  891   1.528   0.596   1.387 -0.0441  0.0227 -0.0712
  298SOL     OW  892   0.557   1.348   2.954 -0.2598 -0.6578  0.3285
  298SOL    HW1  893   0.514   1.294   3.031  1.3043  1.1611 -0.0077
  298SOL    HW2  894   0.591   1.288   2.868 -0.8998 -2.9871 -4.4045
  299SOL     OW  895   0.477   0.268   1.310  0.2366 -0.1380 -0.2292
  299SOL    HW1  896   0.464   0.372   1.307  0.0115 -0.9717 -2.3078
  299SOL    HW2  897   0.536   0.240   1.398  1.5297  1.1839  0.4133
  300SOL     OW  898   1.235   1.806   2.739  0.7330 -0.1920 -0.0094
  300SOL    HW1  899   1.207   1.706   2.768 -1.6908 -1.4374  0.9417
  300SOL    HW2  900   1.335   1.816   2.712 -1.3959  1.8898  0.0421
  301SOL     OW  901   0.432   0.340   0.516  0.1879 -0.4322 -0.1696
  301SOL    HW1  902   0.340   0.295   0.511  0.7007 -1.1022  1.8984
  301SOL    HW2  903   0.502   0.269   0.496 -3.4863 -2.4870  1.0355
  302SOL     OW  904   1.272   2.477   2.343 -0.0042 -0.0635  0.0349
  302SOL    HW1  905   1.197   2.517   2.400  1.5195 -0.9898 -2.6809
  302SOL    HW2  906   1.269   2.372   2.340 -1.4685 -3.5876  0.9376
  303SOL     OW  907   0.929   2.394   0.835  0.2821 -0.0710  0.0024
  303SOL    HW1  908   1.003   2.416   0.762  0.5234 -0.8040 -0.0582
  303SOL    HW2  909   0.926   2.470   0.905 -2.0660 -1.2321  0.9566
  304SOL     OW  910   0.085   1.979   0.598  0.1845 -0.6659 -0.5288
  304SOL    HW1  911   0.149   1.953   0.521  0.4964 -1.0801 -1.6077
  304SOL    HW2  912   0.036   2.072   0.580 -1.9500  0.3141  2.7384
  305SOL     OW  913   1.632   0.891   0.571 -0.2999 -0.2775 -0.0697
  305SOL    HW1  914   1.586   0.893   0.477 -0.0226 -0.3121  1.9834
  305SOL    HW2  915   1.675   0.797   0.592 -1.0759 -1.4296  2.1345
  306SOL     OW  916   0.420   1.844   1.915 -0.3017 -0.1717 -0.0940
  306SOL    HW1  917   0.482   1.762   1.922 -0.8957  0.2481  2.3854
  306SOL    HW2  918   0.416   1.897   2.010  1.4698 -2.2324  0.7229
  307SOL     OW  919   3.072   0.909   2.496 -0.2914 -0.3660 -0.8635
  307SOL    HW1  920   3.082   0.980   2.571  0.4041 -0.7423  1.5742
  307SOL    HW2  921   2.995   0.841   2.520 -2.7929  0.2289 -0.5582
  308SOL     OW  922   1.558   2.684   2.791 -0.4330 -0.2161 -0.0030
  308SOL    HW1  923   1.530   2.644   2.694 -0.1892  2.7499 -2.5866
  308SOL    HW2  924   1.528   2.619   2.866 -1.6488 -2.2215 -0.5893
  309SOL     OW  925   1.250   0.171   1.756  0.3282  0.4545 -0.8372
  309SOL    HW1  926   1.342   0.124   1.781  0.8672 -0.6357  0.4238
  309SOL    HW2  927   1.222   0.157   1.658  1.2273 -1.2229 -1.6389
  310SOL     OW  928   1.512   2.558   0.683  0.1863  0.8468 -0.0046
  310SOL    HW1  929   1.492   2.588   0.782  0.6883  2.5036  1.4559
  310SOL    HW2  930   1.541   2.637   0.622  1.6299  0.7430  2.2546
  311SOL     OW  931   1.190   0.998   1.632 -0.0002 -0.3106  0.3351
  311SOL    HW1  932   1.199   0.893   1.622 -1.7331  0.9692  0.2645
  311SOL    HW2  933   1.230   1.048   1.550 -0.9522 -1.9025  0.3912
  312SOL     OW  934   1.643   0.723   1.080  0.3008  0.3193  0.7043
  312SOL    HW1  935   1.608   0.803   1.017 -0.2950  1.3727  0.1234
  312SOL    HW2  936   1.574   0.644   1.078 -1.7080 -0.9475  0.3565
  313SOL     OW  937   1.543   1.370   0.731  0.1864 -0.2283 -0.3345
  313SOL    HW1  938   1.456   1.423   0.767 -1.1835  0.1103 -0.2647
  313SOL    HW2  939   1.511   1.300   0.663  0.5160  0.5260  0.4509
  314SOL     OW  940   2.951   0.060   3.019 -0.1198  0.0875 -0.3783
  314SOL    HW1  941   2.941   0.065   3.125 -1.5825 -1.8374  1.1715
  314SOL    HW2  942   2.880  -0.009   2.986  2.2732 -2.3007 -1.6918
  315SOL     OW  943   1.221   0.198   2.756 -0.0643 -0.2843 -0.1953
  315SOL    HW1  944   1.164   0.128   2.695 -2.0665  1.7777  0.1392
  315SOL    HW2  945   1.252   0.160   2.847  2.9445  0.8523 -0.5779
  316SOL     OW  946   1.739   2.051   0.861  0.4270  0.1324  0.1634
  316SOL    HW1  947   1.684   2.023   0.945  1.0391 -0.7520  1.7476
  316SOL    HW2  948   1.729   2.150   0.837  1.0523 -1.5999  1.9582
  317SOL     OW  949   1.130   0.629   2.885 -0.1544 -0.4399  0.0229
  317SOL    HW1  950   1.094   0.688   2.963  0.2283 -3.8774 -1.5446
  317SOL    HW2  951   1.060   0.590   2.817 -0.7967 -0.7557 -4.4289
  318SOL     OW  952   1.358   3.084   2.312 -0.1488 -0.3676 -0.4202
  318SOL    HW1  953   1.338   3.178   2.267 -1.7917 -1.3649 -4.0980
  318SOL    HW2  954   1.353   3.010   2.241 -1.2723  0.2285  0.7391
  319SOL     OW  955   0.676   2.393   2.923 -0.6110  0.3598  0.0728
  319SOL    HW1  956   0.607   2.359   2.994 -2.6673 -1.5849 -0.8765
  319SOL    HW2  957   0.774   2.365   2.949  0.2752 -1.3861 -0.4972
  320SOL     OW  958   1.691   2.269   0.411  0.1134 -0.0211  0.1306
  320SOL    HW1  959   1.767   2.199   0.396 -2.1657  2.2921  1.7999
  320SOL    HW2  960   1.598   2.227   0.439 -2.3311 -2.0245  2.1669
  321SOL     OW  961   1.613   2.743   0.517  0.0579 -0.0742  0.1810
  321SOL    HW1  962   1.551   2.784   0.444 -2.4637  0.2336  1.0090
  321SOL    HW2  963   1.697   2.800   0.517 -1.2202 -0.6865  0.2592
  322SOL     OW  964   2.589   1.140   2.371  0.3678 -0.6289  0.4665
  322SOL    HW1  965   2.689   1.156   2.400  0.3216 -0.7031 -3.1152
  322SOL    HW2  966   2.553   1.047   2.399 -0.4059 -0.3823 -2.2833
  323SOL     OW  967   1.175   2.646   0.834  0.4589 -0.1961 -0.5889
  323SOL    HW1  968   1.137   2.600   0.747  0.8376 -0.4049 -1.3194
  323SOL    HW2  969   1.151   2.745   0.837  0.7366 -0.2222  0.2420
  324SOL     OW  970   0.260   2.466   2.536  0.0168 -0.5903  0.3954
  324SOL    HW1  971   0.329   2.441   2.609  0.4039  0.8907  2.6899
  324SOL    HW2  972   0.202   2.548   2.553 -0.3817  1.5363 -0.7435
  325SOL     OW  973   1.294   3.062   0.494  0.1939 -0.0380 -0.1050
  325SOL    HW1  974   1.272   3.099   0.399 -1.1984  1.3294 -0.2735
  325SOL    HW2  975   1.312   3.136   0.565  2.5491  0.6845  1.8924
  326SOL     OW  976   2.471   0.798   3.062  0.1732  0.1796  0.3584
  326SOL    HW1  977   2.449   0.740   2.980 -1.2097 -0.8224  2.9317
  326SOL    HW2  978   2.521   0.744   3.133 -0.5048 -0.2358  1.4804
  327SOL     OW  979   2.845   0.344   0.655 -0.0564 -0.1379  0.5876
  327SOL    HW1  980   2.834   0.291   0.562  0.4620  0.5635  1.1084
  327SOL    HW2  981   2.886   0.291   0.739  2.3958 -1.4412  1.7734
  328SOL     OW  982   2.578   0.584   0.402  0.2435  0.2186  0.4525
  328SOL    HW1  983   2.524   0.671   0.401 -0.2893 -1.7382 -2.3620
  328SOL    HW2  984   2.572   0.526   0.484  0.5494  0.8366  0.2596
  329SOL     OW  985   2.956   2.944   2.141 -0.4978  0.6100  0.5090
  329SOL    HW1  986   3.018   2.865   2.167  0.2177  1.7413  0.2142
  329SOL    HW2  987   2.953   3.018   2.208  0.9336  2.7018 -3.3905
  330SOL     OW  988   0.539   0.145   1.863 -0.2162  0.3693 -0.5404
  330SOL    HW1  989   0.632   0.164   1.824 -3.0004  0.8839 -0.2842
  330SOL    HW2  990   0.547   0.091   1.953 -0.6989  0.4813 -3.1901
  331SOL     OW  991   3.000   1.907   1.169 -0.2111  0.2823  0.0853
  331SOL    HW1  992   3.024   1.990   1.111  1.9905 -0.1183 -1.9342
  331SOL    HW2  993   2.903   1.920   1.210 -0.6223  0.3822  0.8745
  332SOL     OW  994   0.407   1.170   0.013 -0.4757  0.0032  0.5696
  332SOL    HW1  995   0.320   1.122  -0.028 -3.9002 -1.8115  2.0715
  332SOL    HW2  996   0.381   1.206   0.109  2.0814  1.5566 -0.1919
  333SOL     OW  997   2.847   1.024   0.321  0.0944  0.1602 -0.8010
  333SOL    HW1  998   2.877   1.097   0.389  1.3096 -0.8953  0.6377
  333SOL    HW2  999   2.928   0.963   0.282  0.7682 -2.7374  0.8163
  334SOL     OW 1000   1.667   1.290   1.836 -0.0271 -0.1577 -0.0195
  334SOL    HW1 1001   1.756   1.250   1.803 -0.7269  0.5795  1.9509
  334SOL    HW2 1002   1.683   1.326   1.932 -1.2519 -1.7001 -1.4276
  335SOL     OW 1003   1.991   2.732   2.608 -0.2333 -0.1587  0.0010
  335SOL    HW1 1004   1.920   2.717   2.685 -0.4355  2.6869  0.0207
  335SOL    HW2 1005   2.084   2.773   2.640 -2.0888  1.5012  2.4757
  336SOL     OW 1006   0.238   0.172   2.798 -0.2582 -0.4406 -0.5824
  336SOL    HW1 1007   0.307   0.140   2.869 -1.8147 -2.4090  1.1383
  336SOL    HW2 1008   0.183   0.255   2.831 -0.8417 -1.4573 -1.8329
  337SOL     OW 1009   0.914   2.840   2.842 -0.2783  0.7794 -0.1692
  337SOL    HW1 1010   0.912   2.767   2.917 -0.0439  0.6774  1.7080
  337SOL    HW2 1011   1.013   2.860   2.821 -0.3448  0.8372 -0.5633
  338SOL     OW 1012   0.014   1.013   0.606  0.0134 -0.0281  0.1594
  338SOL    HW1 1013  -0.076   0.979   0.636  1.5771 -1.9746 -1.4695
  338SOL    HW2 1014   0.021   1.113   0.622 -0.5916 -1.0228 -0.7492
  339SOL     OW 1015   1.698   1.357   2.128 -0.4044  0.4169 -0.0153
  339SOL    HW1 1016   1.596   1.340   2.149  0.6813 -1.2181  1.1706
  339SOL    HW2 1017   1.742   1.450   2.160  1.6518 -0.2800 -0.5317
  340SOL     OW 1018   2.345   0.793   1.118 -0.1323 -0.3793 -0.0457
  340SOL    HW1 1019   2.242   0.794   1.100 -1.7362  2.2129 -1.6051
  340SOL    HW2 1020   2.388   0.703   1.096  0.0053  0.7928  2.8756
  341SOL     OW 1021   1.911   2.105   0.331  0.4337  0.2113  0.0445
  341SOL    HW1 1022   1.924   2.168   0.245 -0.9786 -3.5470 -2.3371
  341SOL    HW2 1023   2.004   2.077   0.372  2.3813 -1.1382 -0.8640
  342SOL     OW 1024   2.262   2.125   2.717 -0.1523  0.3553  0.2695
  342SOL    HW1 1025   2.324   2.063   2.770 -0.6787 -0.4149  1.7391
  342SOL    HW2 1026   2.161   2.100   2.713 -0.2845 -1.8359  1.3658
  343SOL     OW 1027   0.332   0.875   2.728 -0.2278 -0.0762  0.0021
  343SOL    HW1 1028   0.345   0.913   2.631 -0.7921 -1.5427  0.2495
  343SOL    HW2 1029   0.429   0.844   2.769  2.6514 -3.6927 -0.4747
  344SOL     OW 1030   1.901   1.423   0.405 -0.0511 -0.2862  0.0878
  344SOL    HW1 1031   1.904   1.340   0.340  1.4521 -2.4565  1.3500
  344SOL    HW2 1032   1.807   1.446   0.445 -0.1577  0.6417  1.7660
  345SOL     OW 1033   1.433   2.242   2.917 -0.1512  0.1846 -0.1073
  345SOL    HW1 1034   1.346   2.208   2.876 -0.0317 -0.4843  0.1946
  345SOL    HW2 1035   1.515   2.231   2.854  1.0820  1.8466 -1.2626
  346SOL     OW 1036   2.377   0.865   1.371  0.1592  0.1123 -0.8560
  346SOL    HW1 1037   2.331   0.957   1.375  1.4162 -0.9119  0.6376
  346SOL    HW2 1038   2.363   0.811   1.280 -0.1926  1.1909 -1.7255
  347SOL     OW 1039   0.756   2.796   1.540 -0.0829 -1.2559  0.5449
  347SOL    HW1 1040   0.702   2.765   1.625 -0.0085  2.8182  2.8519
  347SOL    HW2 1041   0.699   2.860   1.483 -1.0743  2.3274  2.9073
  348SOL     OW 1042   0.226   0.683   2.879 -0.1350  0.4322  0.7157
  348SOL    HW1 1043   0.120   0.681   2.872 -0.7061 -0.0519  1.1747
  348SOL    HW2 1044   0.277   0.732   2.807  0.5726 -0.0991 -2.5211
  349SOL     OW 1045   1.889   0.445   2.798  0.0419  0.5043  0.0445
  349SOL    HW1 1046   1.891   0.542   2.763  1.9074 -0.9933  0.0348
  349SOL    HW2 1047   1.881   0.452   2.902  0.1576  0.6782  0.9973
  350SOL     OW 1048   1.644   0.416   0.360  0.0117  0.8422  0.5461
  350SOL    HW1 1049   1.696   0.422   0.449  0.8005  0.6701 -2.2445
  350SOL    HW2 1050   1.624   0.506   0.315  1.4201  0.2048 -1.3628
  351SOL     OW 1051   0.990   0.866   2.150  0.2961 -0.2650 -0.0939
  351SOL    HW1 1052   0.979   0.964   2.112 -2.3769 -0.5313 -1.8458
  351SOL    HW2 1053   1.050   0.807   2.089  1.4974 -0.9056  5.5565
  352SOL     OW 1054   2.030   1.312   0.664 -0.6377 -0.1292  0.4216
  352SOL    HW1 1055   2.015   1.412   0.641 -3.6692  1.0853  0.2472
  352SOL    HW2 1056   1.946   1.270   0.691  2.1781  2.4454 -1.2426
  353SOL     OW 1057   2.164   2.806   1.054  0.0187 -0.0656  0.2684
  353SOL    HW1 1058   2.196   2.768   1.145 -0.7687  0.3360  3.0682
  353SOL    HW2 1059   2.064   2.782   1.047 -1.1286 -1.3480  2.8470
  354SOL     OW 1060   0.278   1.390   2.895  0.1371 -0.1779  0.5932
  354SOL    HW1 1061   0.247   1.455   2.816 -1.8974  0.0138  0.1125
  354SOL    HW2 1062   0.380   1.397   2.920 -0.3738 -1.9611  1.1249
  355SOL     OW 1063   0.617   1.536   0.603  0.8385  0.3480 -0.1501
  355SOL    HW1 1064   0.635   1.545   0.706  0.8821 -0.0211  0.3415
  355SOL    HW2 1065   0.647   1.446   0.565  0.8027  1.9140 -0.5393
  356SOL     OW 1066   0.861   0.308   2.085 -0.7259  0.4284 -0.4918
  356SOL    HW1 1067   0.957   0.260   2.073  0.1033 -0.5431 -0.5370
  356SOL    HW2 1068   0.812   0.328   1.994  0.6585  2.1113  2.5047
  357SOL     OW 1069   0.992   1.307   0.343  0.1268  0.3931  0.2948
  357SOL    HW1 1070   1.004   1.278   0.243  2.1647  0.3389 -0.4315
  357SOL    HW2 1071   0.990   1.224   0.411  1.8103  0.2029 -0.3651
  358SOL     OW 1072   1.639   1.495   0.497  0.1659  0.3775  0.2961
  358SOL    HW1 1073   1.593   1.450   0.580  0.8582 -2.7971  1.4029
  358SOL    HW2 1074   1.584   1.471   0.410  1.3795  1.2582 -0.8429
  359SOL     OW 1075   1.568   2.640   0.189  0.2531  0.0358  0.2637
  359SOL    HW1 1076   1.571   2.536   0.165 -0.5951 -0.9633  0.6925
  359SOL    HW2 1077   1.486   2.686   0.152 -2.7293 -1.0107  1.6881
  360SOL     OW 1078   0.872   0.566   0.589 -0.5277 -0.1881 -0.2807
  360SOL    HW1 1079   0.777   0.590   0.616  0.1132 -0.5889 -0.1992
  360SOL    HW2 1080   0.896   0.468   0.609  0.6302 -1.9146  0.9628
  361SOL     OW 1081   1.219   1.309   0.733  0.3093 -0.2264 -0.3715
  361SOL    HW1 1082   1.277   1.372   0.795  0.7855  1.6482  2.0977
  361SOL    HW2 1083   1.118   1.343   0.723  0.0000  0.3648 -0.9979
  362SOL     OW 1084   1.385   1.839   0.796  0.1913  0.0889  0.8417
  362SOL    HW1 1085   1.414   1.777   0.872  0.3016 -2.4654 -2.7367
  362SOL    HW2 1086   1.461   1.849   0.727 -0.2233 -1.6746  0.2557
  363SOL     OW 1087   1.213   1.249   2.057 -0.1568 -0.1829  0.2496
  363SOL    HW1 1088   1.288   1.308   2.095 -2.5024  2.1528 -2.4317
  363SOL    HW2 1089   1.171   1.287   1.972  1.7597 -4.1802 -0.7375
  364SOL     OW 1090   0.497   2.343   1.977 -0.1779  0.4970 -0.3111
  364SOL    HW1 1091   0.396   2.369   1.980 -0.9102 -1.7531  0.4158
  364SOL    HW2 1092   0.551   2.405   1.918 -2.0369  1.2348  1.6130
  365SOL     OW 1093   1.013   1.884   1.422 -0.1151  0.3697  0.1014
  365SOL    HW1 1094   0.918   1.909   1.449  0.2705 -2.1792  1.4011
  365SOL    HW2 1095   1.015   1.876   1.317 -0.0325  1.2956 -2.0003
  366SOL     OW 1096   2.790   2.041   0.447  0.7437 -0.3042 -0.4194
  366SOL    HW1 1097   2.714   1.966   0.460 -0.3475 -0.6929 -1.3617
  366SOL    HW2 1098   2.865   2.018   0.386 -3.6032  0.2935 -1.2668
  367SOL     OW 1099   0.941   1.131   0.127 -0.4533 -0.2267  0.0486
  367SOL    HW1 1100   0.964   1.034   0.163 -0.9973 -1.2134  2.0263
  367SOL    HW2 1101   0.989   1.156   0.040  0.5985 -2.8898  0.5228
  368SOL     OW 1102   1.443   0.532   0.740 -0.2747  0.1725 -0.9053
  368SOL    HW1 1103   1.400   0.580   0.655 -2.7481 -0.9172 -0.5500
  368SOL    HW2 1104   1.541   0.561   0.750  0.2543 -3.2155  3.6099
  369SOL     OW 1105   0.328   1.728   0.076  0.4037 -0.4190 -0.0606
  369SOL    HW1 1106   0.364   1.808   0.133 -1.4862 -0.6001 -1.8604
  369SOL    HW2 1107   0.253   1.673   0.127 -1.2151  1.7127  1.2467
  370SOL     OW 1108   0.468   2.084   0.968 -0.1280  0.4490  0.4056
  370SOL    HW1 1109   0.481   2.187   0.970 -0.5247 -2.9328 -2.4410
  370SOL    HW2 1110   0.375   2.052   0.935  0.3648 -1.8975 -0.0453
  371SOL     OW 1111   2.938   2.180   2.661  0.0445  0.3310 -0.1685
  371SOL    HW1 1112   2.859   2.148   2.728 -1.3166 -1.1509  0.9815
  371SOL    HW2 1113   3.031   2.193   2.701  0.3703 -2.4886  1.1480
  372SOL     OW 1114   1.127   2.001   1.089  0.2403  0.4619 -0.1975
  372SOL    HW1 1115   1.054   2.033   1.022 -0.7546 -0.5414  1.2791
  372SOL    HW2 1116   1.166   2.076   1.149  2.6795 -1.9010  0.6964
  373SOL     OW 1117   2.012   1.999   0.854 -0.1895 -0.1722 -0.3701
  373SOL    HW1 1118   2.066   2.012   0.944 -1.4263 -0.5081  0.4837
  373SOL    HW2 1119   1.912   2.031   0.853  1.6147  1.1833 -0.5290
  374SOL     OW 1120   1.834   0.415   0.586  0.4793 -0.5567  0.1532
  374SOL    HW1 1121   1.845   0.368   0.682 -2.1121 -1.0200  0.4088
  374SOL    HW2 1122   1.916   0.430   0.533 -0.2361 -1.8011 -3.1055
  375SOL     OW 1123   2.436   2.185   1.120 -0.1623 -0.2089 -0.3507
  375SOL    HW1 1124   2.492   2.163   1.037 -0.7545 -2.5752  0.3474
  375SOL    HW2 1125   2.481   2.150   1.207  1.5837 -0.6301 -0.4569
  376SOL     OW 1126   3.077   0.554   1.478 -0.0271  0.1783 -0.3684
  376SOL    HW1 1127   3.090   0.604   1.568 -1.7286  2.0594  0.7765
  376SOL    HW2 1128   2.993   0.494   1.474  1.9309 -1.5432  0.9889
  377SOL     OW 1129   2.236   2.852   0.325 -0.1681  0.2778 -0.1369
  377SOL    HW1 1130   2.232   2.928   0.399 -1.9759  0.3494  0.6599
  377SOL    HW2 1131   2.337   2.837   0.304  1.3526 -0.8391  0.4508
  378SOL     OW 1132   1.879   1.863   2.588 -0.3599 -0.0971  0.0618
  378SOL    HW1 1133   1.930   1.813   2.669  2.6460 -2.8456  0.9660
  378SOL    HW2 1134   1.852   1.801   2.505 -2.6408 -1.3208 -0.6506
  379SOL     OW 1135   0.757   0.155   2.835 -0.1077  0.4260  0.6500
  379SOL    HW1 1136   0.666   0.109   2.815 -0.0313 -1.7369  2.7544
  379SOL    HW2 1137   0.770   0.231   2.769 -1.5884 -2.6380  2.6954
  380SOL     OW 1138   1.500   1.135   0.548 -0.1125  0.2369  0.2503
  380SOL    HW1 1139   1.398   1.130   0.561 -3.4261 -2.0633 -0.0757
  380SOL    HW2 1140   1.539   1.041   0.577  1.6118 -0.5590  0.0995
  381SOL     OW 1141   1.392   1.168   1.474  0.0078  0.2164  0.6335
  381SOL    HW1 1142   1.434   1.136   1.384 -1.0508 -1.7738  1.5876
  381SOL    HW2 1143   1.454   1.147   1.552  1.6151  0.4982  1.4392
  382SOL     OW 1144   1.782   0.824   0.165  0.1484 -0.0312  0.2628
  382SOL    HW1 1145   1.836   0.824   0.076 -1.5324  0.1999  0.8832
  382SOL    HW2 1146   1.833   0.856   0.248 -2.0978  2.8827 -2.3655
  383SOL     OW 1147   2.608   0.984   1.442 -0.5198  0.0230 -0.2284
  383SOL    HW1 1148   2.530   0.943   1.391 -1.1217 -0.7440  2.4049
  383SOL    HW2 1149   2.699   0.983   1.385  1.0816  0.7516  0.7533
  384SOL     OW 1150   0.885   2.318   0.129  0.1704 -0.6095 -0.5776
  384SOL    HW1 1151   0.829   2.395   0.174 -0.2352  0.0445  0.1078
  384SOL    HW2 1152   0.875   2.226   0.178  4.9238 -0.3043  0.3782
  385SOL     OW 1153   3.032   1.999   1.692  0.1082  0.2831 -0.5676
  385SOL    HW1 1154   3.099   2.078   1.675  0.5900 -1.1923 -1.3479
  385SOL    HW2 1155   3.079   1.907   1.693  3.2154  1.0698 -1.7636
  386SOL     OW 1156   0.473   1.101   0.417  0.6783  0.4160 -0.1109
  386SOL    HW1 1157   0.471   1.003   0.441  0.1456 -0.0874  0.4616
  386SOL    HW2 1158   0.385   1.139   0.370  0.7621  1.7976 -1.0999
  387SOL     OW 1159   0.912   0.390   1.603  0.2955 -0.2913  0.0992
  387SOL    HW1 1160   1.015   0.413   1.614  0.7689 -0.3598  1.1462
  387SOL    HW2 1161   0.898   0.325   1.525 -0.7807 -3.0811  0.7261
  388SOL     OW 1162   1.190   2.610   1.760  0.3294 -0.5911 -0.5046
  388SOL    HW1 1163   1.212   2.616   1.659 -0.4436 -0.3614 -1.1991
  388SOL    HW2 1164   1.249   2.543   1.815  0.9843 -0.5271  4.5799
  389SOL     OW 1165   0.165   3.018   1.092 -0.3882 -0.3564 -0.2512
  389SOL    HW1 1166   0.073   3.009   1.141 -0.7322  2.8664  0.5497
  389SOL    HW2 1167   0.199   2.929   1.053 -0.1886  0.2381 -1.4979
  390SOL     OW 1168   1.006   0.947   1.310  0.6486 -0.3820  0.4716
  390SOL    HW1 1169   1.001   0.892   1.400  0.8687  1.3700  1.8517
  390SOL    HW2 1170   1.006   1.049   1.331 -1.3681  0.7611  2.0425
  391SOL     OW 1171   2.087   1.196   1.009 -0.2727  0.2283  0.2740
  391SOL    HW1 1172   1.996   1.143   1.021 -0.0225  2.2330  2.0816
  391SOL    HW2 1173   2.146   1.147   0.942 -1.8228 -0.9904 -2.0465
  392SOL     OW 1174   0.888   2.663   3.042 -0.5433  0.1933 -0.2333
  392SOL    HW1 1175   0.812   2.677   3.111 -2.8851 -0.0820  1.2047
  392SOL    HW2 1176   0.981   2.685   3.090  0.7784 -1.2660  1.1770
  393SOL     OW 1177   0.368   0.487   1.987 -0.9943 -0.1357 -0.2330
  393SOL    HW1 1178   0.298   0.411   1.960 -1.8254  1.0816 -0.8716
  393SOL    HW2 1179   0.461   0.481   1.936  2.2371  2.5273 -0.2434
  394SOL     OW 1180   2.954   1.852   2.784 -0.4283  0.4825  0.0969
  394SOL    HW1 1181   3.039   1.823   2.841  1.3982 -1.4849  0.6774
  394SOL    HW2 1182   2.972   1.860   2.684 -0.8257  0.2587  1.5975
  395SOL     OW 1183   1.617   1.896   0.618 -0.3816  0.5456  0.1050
  395SOL    HW1 1184   1.684   1.830   0.571  1.0913  2.5877  0.6295
  395SOL    HW2 1185   1.673   1.952   0.682  2.0573 -0.0646 -2.9240
  396SOL     OW 1186   2.751   1.968   1.308 -0.4652  0.0022  0.4915
  396SOL    HW1 1187   2.649   1.969   1.294  1.5294 -0.7113  0.2119
  396SOL    HW2 1188   2.768   1.961   1.405 -0.8344  1.3352  0.6946
  397SOL     OW 1189   0.987   2.188   0.522 -0.6096  0.0801 -0.3169
  397SOL    HW1 1190   0.908   2.122   0.496 -1.1189  1.4171  1.3342
  397SOL    HW2 1191   0.966   2.264   0.584  1.6763  2.1106 -2.6401
  398SOL     OW 1192   2.154   0.013   1.049 -1.1683 -0.9785  0.8119
  398SOL    HW1 1193   2.129  -0.080   1.075  0.7904  2.5965  3.7233
  398SOL    HW2 1194   2.095   0.085   1.098 -4.0135  2.1183  1.1814
  399SOL     OW 1195   2.940   2.514   2.734  0.6813 -0.3687 -0.4872
  399SOL    HW1 1196   2.893   2.487   2.642 -3.4329  0.0932 -0.6249
  399SOL    HW2 1197   2.917   2.446   2.807  3.0319  0.2977 -3.8815
  400SOL     OW 1198   0.779   1.595   1.312  0.5402 -0.0438 -0.0627
  400SOL    HW1 1199   0.746   1.659   1.391 -0.6816  0.3466  0.1833
  400SOL    HW2 1200   0.773   1.644   1.224  1.8858 -1.3261  0.4794
  401SOL     OW 1201   1.839   0.097   1.368 -0.6267 -0.1167  0.1998
  401SOL    HW1 1202   1.913   0.134   1.432  2.1307 -1.1108  1.8367
  401SOL    HW2 1203   1.746   0.121   1.402  2.1081  2.7655  1.5035
  402SOL     OW 1204   1.326   0.102   3.052 -0.1542  0.5305 -0.1753
  402SOL    HW1 1205   1.427   0.096   3.017  2.2781  0.7365 -1.7199
  402SOL    HW2 1206   1.307   0.200   3.086  1.3372 -0.4575 -2.2089
  403SOL     OW 1207   2.303   1.825   0.898  0.7333 -0.1402 -0.0254
  403SOL    HW1 1208   2.407   1.829   0.889 -1.6578 -0.2399  1.3060
  403SOL    HW2 1209   2.260   1.890   0.967 -1.2467 -0.2981 -1.5570
  404SOL     OW 1210   0.177   2.489   2.812  0.2369  0.4067 -0.4766
  404SOL    HW1 1211   0.272   2.470   2.778 -2.3671 -1.4741  1.3566
  404SOL    HW2 1212   0.147   2.586   2.809 -1.6801 -0.1172  0.1049
  405SOL     OW 1213   0.157   2.418   0.597 -0.9914 -0.2093  0.5270
  405SOL    HW1 1214   0.168   2.360   0.509  2.0102  1.7223  0.3542
  405SOL    HW2 1215   0.209   2.511   0.580  0.6927  1.5687  0.9368
  406SOL     OW 1216   0.036   1.473   2.991  0.1550  0.0222  0.4789
  406SOL    HW1 1217   0.120   1.424   2.951 -1.1796  2.2935  2.3146
  406SOL    HW2 1218   0.051   1.503   3.096  1.7304  2.7514  2.4105
  407SOL     OW 1219   1.563   0.926   0.906 -0.0447  0.4482  0.0672
  407SOL    HW1 1220   1.597   0.947   0.814 -1.4254 -1.1994  1.3574
  407SOL    HW2 1221   1.479   0.983   0.929 -2.3732 -0.3592 -1.9138
  408SOL     OW 1222   1.615   2.376   0.925 -0.0551 -0.4541  0.0713
  408SOL    HW1 1223   1.689   2.352   0.849  1.2689 -0.9474 -2.5444
  408SOL    HW2 1224   1.558   2.452   0.901  0.6444 -3.5592 -0.8966
  409SOL     OW 1225   0.615   0.878   0.730  0.9319 -0.2121 -0.2100
  409SOL    HW1 1226   0.535   0.863   0.658 -1.6324 -0.5330 -0.1288
  409SOL    HW2 1227   0.662   0.790   0.753 -0.7640  0.9160  0.8039
  410SOL     OW 1228   1.270   2.011   1.418 -0.3798  0.0198  0.3444
  410SOL    HW1 1229   1.356   1.960   1.457  1.5832 -2.0542  2.0088
  410SOL    HW2 1230   1.178   1.952   1.424  0.9733  1.7313 -1.1629
  411SOL     OW 1231   2.523   1.878   3.064 -0.4450 -0.1952  0.9884
  411SOL    HW1 1232   2.463   1.875   2.980 -1.3039 -0.5121  0.2806
  411SOL    HW2 1233   2.622   1.874   3.038 -1.2065 -0.9130  1.1700
  412SOL     OW 1234   1.494   2.543   2.189  0.3387  0.6022 -0.2830
  412SOL    HW1 1235   1.570   2.600   2.226 -0.3761  0.3471 -1.8532
  412SOL    HW2 1236   1.416   2.537   2.255  2.1928  0.9045 -0.0165
  413SOL     OW 1237   0.002   0.267   2.934 -0.2261 -0.6626 -0.1404
  413SOL    HW1 1238  -0.052   0.179   2.949  0.3847 -0.0686 -0.8220
  413SOL    HW2 1239   0.087   0.278   2.998 -0.8908  2.5328  3.1481
  414SOL     OW 1240   1.782   1.488   1.330  0.1993 -0.3330 -0.6885
  414SOL    HW1 1241   1.716   1.515   1.404  1.7491  2.4890 -2.7018
  414SOL    HW2 1242   1.744   1.423   1.253  0.1653  1.0080 -1.8866
  415SOL     OW 1243   0.297   2.199   0.709  0.2215 -0.9750  0.3337
  415SOL    HW1 1244   0.265   2.296   0.696  3.1999  1.9489 -0.4190
  415SOL    HW2 1245   0.224   2.131   0.722  0.9171  2.1167  1.9814
  416SOL     OW 1246   0.359   1.059   1.063  0.2525  0.0849  0.0235
  416SOL    HW1 1247   0.299   1.047   0.980  0.0174 -0.9724 -0.1580
  416SOL    HW2 1248   0.444   1.108   1.031 -0.8925 -1.9372 -0.7175
  417SOL     OW 1249   2.118   2.311   1.899  0.2833 -0.1458  0.4138
  417SOL    HW1 1250   2.154   2.213   1.907 -0.0098 -1.5062  0.6371
  417SOL    HW2 1251   2.023   2.314   1.865  1.1537 -0.8015 -1.4835
  418SOL     OW 1252   1.137   0.497   1.289 -0.0714 -0.0923  0.7414
  418SOL    HW1 1253   1.053   0.431   1.283  0.9826 -0.5183  0.6775
  418SOL    HW2 1254   1.148   0.567   1.216  0.7930 -1.9806  2.2953
  419SOL     OW 1255   0.997   0.366   3.034 -0.3765 -0.2159 -0.4915
  419SOL    HW1 1256   1.007   0.371   2.932 -0.6134  3.0170  2.2831
  419SOL    HW2 1257   0.932   0.289   3.063  1.7872  1.0235  1.6217
  420SOL     OW 1258   0.152   2.261   0.365 -0.1249  0.4723  0.3318
  420SOL    HW1 1259   0.124   2.198   0.288 -1.3266 -0.9842 -0.4100
  420SOL    HW2 1260   0.072   2.278   0.429 -0.4301  0.1183  0.5253
  421SOL     OW 1261   0.330   3.029   0.688  0.0264 -0.4126  0.2984
  421SOL    HW1 1262   0.332   2.933   0.725  3.4540  0.6414 -1.2999
  421SOL    HW2 1263   0.420   3.078   0.693  1.1885 -0.9389  0.9356
  422SOL     OW 1264   0.985   2.598   1.034 -0.1172  0.0355  0.0377
  422SOL    HW1 1265   1.072   2.629   0.979  2.0150  1.4469 -1.9938
  422SOL    HW2 1266   1.005   2.589   1.137  1.0699  0.1688  1.3345
  423SOL     OW 1267   0.100   0.709   1.275 -0.2371  0.3729  0.1535
  423SOL    HW1 1268   0.034   0.655   1.340  1.6256 -0.8197 -2.6969
  423SOL    HW2 1269   0.071   0.804   1.256 -0.8396 -0.9926  2.2214
  424SOL     OW 1270   1.018   2.239   2.054  0.0138  0.7855  0.3986
  424SOL    HW1 1271   1.027   2.326   2.001  0.4301 -0.0419  0.2274
  424SOL    HW2 1272   1.031   2.248   2.157 -2.5603  0.5317  1.2109
  425SOL     OW 1273   1.986   1.435   0.950 -0.0046 -1.0426  0.3780
  425SOL    HW1 1274   2.036   1.344   0.965  0.7099  0.9696  1.1000
  425SOL    HW2 1275   2.037   1.489   0.876 -0.5055 -2.5351  2.7855
  426SOL     OW 1276   1.505   1.522   1.398  0.4576 -0.1549 -0.0451
  426SOL    HW1 1277   1.484   1.615   1.362  1.6691 -1.1647 -0.7441
  426SOL    HW2 1278   1.468   1.513   1.493  0.5718 -1.1597 -3.2957
  427SOL     OW 1279   1.867   2.348   2.034  0.0519 -0.0136  0.5762
  427SOL    HW1 1280   1.928   2.292   2.099  0.5177  0.6601 -0.9157
  427SOL    HW2 1281   1.860   2.448   2.069  0.1279 -1.4855  1.9427
  428SOL     OW 1282   0.880   2.961   0.200 -0.3558  0.0820 -0.2255
  428SOL    HW1 1283   0.938   3.044   0.222  0.6215 -2.4265 -0.1768
  428SOL    HW2 1284   0.941   2.900   0.144  0.4341 -1.7125  0.9295
  429SOL     OW 1285   1.321   0.086   0.241  0.1608 -0.2492 -0.6105
  429SOL    HW1 1286   1.412   0.100   0.290  1.3413 -1.9096 -0.0622
  429SOL    HW2 1287   1.331   0.073   0.140 -1.8920  0.2392 -0.8508
  430SOL     OW 1288   2.716   1.453   0.390  0.4307 -0.3183 -0.0393
  430SOL    HW1 1289   2.774   1.476   0.305  1.4096  2.5225 -0.2608
  430SOL    HW2 1290   2.733   1.511   0.473  1.3939 -0.7295 -1.6601
  431SOL     OW 1291   2.150   1.615   0.816  0.5662 -0.6013 -0.0812
  431SOL    HW1 1292   2.219   1.691   0.843  0.3405  0.6649 -0.6972
  431SOL    HW2 1293   2.064   1.660   0.774  0.9767 -1.5891 -0.2551
  432SOL     OW 1294   2.859   2.214   1.278  0.0348 -0.5068  0.5550
  432SOL    HW1 1295   2.818   2.120   1.280 -2.6772 -2.9379 -1.4050
  432SOL    HW2 1296   2.911   2.243   1.362  0.8685 -0.7055  1.1050
  433SOL     OW 1297   1.924   0.365   0.850 -0.1520  0.2187  0.1766
  433SOL    HW1 1298   1.849   0.321   0.906  0.8462 -0.3050  0.8986
  433SOL    HW2 1299   2.020   0.330   0.873  0.0050  0.4690  2.8411
  434SOL     OW 1300   1.554   0.274   0.799 -0.3661  0.3300  0.0706
  434SOL    HW1 1301   1.500   0.363   0.779 -3.7487  3.7967 -0.6218
  434SOL    HW2 1302   1.642   0.291   0.860 -0.2537  2.2442 -1.2808
  435SOL     OW 1303   1.414   1.421   2.128 -0.4678  0.2839 -0.0476
  435SOL    HW1 1304   1.344   1.466   2.188  0.9272 -2.3795 -0.7990
  435SOL    HW2 1305   1.428   1.475   2.044  1.8296  1.4843 -1.2862
  436SOL     OW 1306   1.678   2.726   2.294  0.1008  0.0438 -0.6642
  436SOL    HW1 1307   1.628   2.789   2.361 -1.2251 -1.9013 -0.0895
  436SOL    HW2 1308   1.701   2.634   2.342 -1.1175  1.9470 -2.4254
  437SOL     OW 1309   1.102   2.894   0.918 -0.8280  0.4940  0.2459
  437SOL    HW1 1310   1.045   2.972   0.885  1.3328 -1.3370 -0.4184
  437SOL    HW2 1311   1.069   2.866   1.013 -0.9812 -0.2076 -2.0306
  438SOL     OW 1312   1.068   2.577   1.317  0.2278  0.2140 -0.0726
  438SOL    HW1 1313   1.139   2.561   1.390 -3.1502 -0.1003  0.7136
  438SOL    HW2 1314   1.006   2.491   1.315 -0.2440 -1.4475  2.3432
  439SOL     OW 1315   0.721   1.761   1.081 -0.1535 -0.3781 -0.3003
  439SOL    HW1 1316   0.712   1.829   1.003 -1.4041  0.8141  0.0579
  439SOL    HW2 1317   0.627   1.736   1.125 -2.1351 -0.5945 -0.6068
  440SOL     OW 1318   0.967   2.483   1.917 -0.0385 -0.1041 -0.0167
  440SOL    HW1 1319   0.938   2.524   1.827 -1.9590 -3.0182 -1.4478
  440SOL    HW2 1320   1.059   2.520   1.954  2.7334  1.4138 -1.5089
  441SOL     OW 1321   0.406   2.781   1.376 -0.0766 -0.0988  0.2225
  441SOL    HW1 1322   0.462   2.695   1.394 -0.7802  0.0029 -3.0252
  441SOL    HW2 1323   0.301   2.769   1.389 -3.6520  0.9531  1.3827
  442SOL     OW 1324   2.275   0.637   2.561  0.0541 -0.0115 -1.0334
  442SOL    HW1 1325   2.295   0.543   2.523  1.6769  0.1282 -0.7786
  442SOL    HW2 1326   2.187   0.681   2.526  1.6620 -2.0726 -1.9377
  443SOL     OW 1327   1.216   2.731   2.193 -0.1846  0.2106 -0.1352
  443SOL    HW1 1328   1.230   2.638   2.241  3.3101 -2.2178 -0.0056
  443SOL    HW2 1329   1.173   2.807   2.240 -0.8641 -0.3580 -2.2759
  444SOL     OW 1330   1.149   1.299   1.603 -0.0026  0.0832 -0.0014
  444SOL    HW1 1331   1.232   1.285   1.543  2.0827 -0.8901 -0.9940
  444SOL    HW2 1332   1.155   1.376   1.676 -1.8868 -1.4826  2.3462
  445SOL     OW 1333   0.015   2.373   1.862  0.0571 -0.2412  0.1266
  445SOL    HW1 1334  -0.007   2.470   1.818 -1.1409  2.3757 -0.8413
  445SOL    HW2 1335  -0.063   2.339   1.919 -0.6940  0.8309 -1.4015
  446SOL     OW 1336   0.246   1.905   2.369  0.3565  0.2584 -0.5875
  446SOL    HW1 1337   0.207   1.975   2.432 -0.9664 -0.4096  3.4010
  446SOL    HW2 1338   0.178   1.824   2.343 -0.8550 -0.9141  0.8782
  447SOL     OW 1339   1.228   1.713   1.936 -0.2734  0.0147 -0.6769
  447SOL    HW1 1340   1.134   1.755   1.939 -0.5537  0.9125 -0.9452
  447SOL    HW2 1341   1.298   1.772   1.985 -1.5078  3.8243 -1.1595
  448SOL     OW 1342   0.117   1.447   1.980  0.1460 -0.2555  0.8291
  448SOL    HW1 1343   0.152   1.542   1.951  2.6376  1.0157 -0.9545
  448SOL    HW2 1344   0.087   1.444   2.079 -2.0672 -0.1522  0.2036
  449SOL     OW 1345   1.768   2.985   0.909  0.8475  0.0360 -0.8480
  449SOL    HW1 1346   1.785   2.976   1.010  0.9970 -0.0947 -1.6583
  449SOL    HW2 1347   1.838   2.931   0.852 -2.1853 -1.6208 -0.1557
  450SOL     OW 1348   2.353   1.425   0.722  0.8070 -0.2606 -0.4295
  450SOL    HW1 1349   2.262   1.455   0.768 -1.1715  0.8553 -0.9203
  450SOL    HW2 1350   2.372   1.467   0.630  1.3104 -0.1784 -1.6340
  451SOL     OW 1351   1.333   3.024   1.431  0.5511  0.3178  0.2360
  451SOL    HW1 1352   1.275   3.111   1.440 -1.0971 -1.2074 -2.0727
  451SOL    HW2 1353   1.321   2.961   1.514 -1.0705 -1.1059  0.8829
  452SOL     OW 1354   2.686   2.295   2.183  0.3530 -0.0186 -0.4975
  452SOL    HW1 1355   2.660   2.397   2.191  0.7560 -0.2378 -0.8588
  452SOL    HW2 1356   2.731   2.260   2.269  0.2231  0.6112  3.1365
  453SOL     OW 1357   2.472   2.640   0.009  0.3508 -0.1100 -0.0997
  453SOL    HW1 1358   2.393   2.687   0.045 -0.7466 -2.2521 -1.7155
  453SOL    HW2 1359   2.452   2.578  -0.074  1.5367 -3.7920 -1.4080
  454SOL     OW 1360   0.984   1.114   2.072  0.1392  0.5127  0.6272
  454SOL    HW1 1361   0.934   1.132   1.982  0.2354  0.7602  0.8479
  454SOL    HW2 1362   1.073   1.166   2.075 -0.1453  0.4648 -1.5028
  455SOL     OW 1363   0.679   2.680   2.825  0.0343 -0.2654  1.0975
  455SOL    HW1 1364   0.759   2.753   2.822  3.8320  1.1156 -0.5189
  455SOL    HW2 1365   0.706   2.582   2.860 -1.1784  1.8135  3.4163
  456SOL     OW 1366   0.455   1.900   0.251 -0.1572 -0.1764  0.7849
  456SOL    HW1 1367   0.519   1.830   0.292 -1.1994 -0.2892 -0.1393
  456SOL    HW2 1368   0.510   1.983   0.221 -0.6923  1.2786 -2.2804
  457SOL     OW 1369   0.331   2.630   0.604  0.3372  0.1692  0.0243
  457SOL    HW1 1370   0.345   2.713   0.542 -4.5036  0.3988 -1.7545
  457SOL    HW2 1371   0.422   2.583   0.624  0.3459 -0.3390 -2.1518
  458SOL     OW 1372   2.909   3.090   1.252 -0.2125  0.4367  0.6407
  458SOL    HW1 1373   2.979   3.165   1.251  0.8776 -0.4621  3.6805
  458SOL    HW2 1374   2.927   3.016   1.179 -0.7087 -2.5688 -1.1207
  459SOL     OW 1375   2.094   2.621   0.736  0.6608 -0.0689  0.1853
  459SOL    HW1 1376   2.194   2.622   0.752  0.6506 -0.3108  0.8352
  459SOL    HW2 1377   2.063   2.563   0.654 -0.5827 -2.5792 -1.7226
  460SOL     OW 1378   1.219   2.085   2.824 -0.1725 -0.2567 -0.0280
  460SOL    HW1 1379   1.162   2.117   2.747  0.8784 -2.5899  1.8060
  460SOL    HW2 1380   1.218   1.984   2.841  1.3440  1.3295 -1.9805
  461SOL     OW 1381   0.540   2.182   2.659  0.1733 -0.7959  0.1586
  461SOL    HW1 1382   0.494   2.114   2.592 -0.7163  0.5723 -0.6332
  461SOL    HW2 1383   0.582   2.134   2.741  1.8848  1.9526 -1.3816
  462SOL     OW 1384   0.963   1.151   1.791 -0.0082  0.1596  0.3574
  462SOL    HW1 1385   1.042   1.144   1.724 -0.0217 -1.2653 -0.5908
  462SOL    HW2 1386   0.904   1.225   1.752  4.0145  1.6738 -0.2732
  463SOL     OW 1387   0.452   0.818   0.514 -0.2151  0.2668 -0.1892
  463SOL    HW1 1388   0.511   0.731   0.491  3.8226  0.4504  1.2740
  463SOL    HW2 1389   0.353   0.800   0.528  0.3323 -0.3267  2.6127
  464SOL     OW 1390   0.598   2.286   2.242 -0.1893 -0.0263  0.3498
  464SOL    HW1 1391   0.564   2.359   2.304  0.5252 -1.2782  0.8075
  464SOL    HW2 1392   0.557   2.294   2.148  1.3267 -1.8469 -2.7172
  465SOL     OW 1393   0.231   0.961   0.837  0.0485  0.3981  0.1355
  465SOL    HW1 1394   0.160   0.988   0.770 -1.4978 -3.1756  1.2583
  465SOL    HW2 1395   0.259   0.857   0.826  0.9612 -4.3887  0.2192
  466SOL     OW 1396   1.407   1.128   0.971  0.1869  0.1843 -0.0192
  466SOL    HW1 1397   1.413   1.230   0.986 -1.3333  1.9377  0.6425
  466SOL    HW2 1398   1.317   1.087   0.998 -0.1403  0.4743  1.3594
  467SOL     OW 1399   0.528   0.390   2.416 -0.2770 -0.4888 -0.3747
  467SOL    HW1 1400   0.496   0.490   2.428 -0.2420  1.3032  3.2610
  467SOL    HW2 1401   0.532   0.333   2.504  1.3893 -2.1295  2.2645
  468SOL     OW 1402   0.465   2.270   1.638 -0.1152  0.0923  0.3724
  468SOL    HW1 1403   0.532   2.337   1.683  3.6702 -0.1108  3.1244
  468SOL    HW2 1404   0.436   2.291   1.541  1.9917  0.1308  0.4210
  469SOL     OW 1405   1.439   1.364   1.184 -0.1754  0.2314 -0.5033
  469SOL    HW1 1406   1.523   1.311   1.167  2.3122  1.4727  3.3460
  469SOL    HW2 1407   1.461   1.447   1.249 -1.4055  1.2800 -2.4233
  470SOL     OW 1408   3.002   1.795   0.746  0.1569 -1.1089 -0.2401
  470SOL    HW1 1409   3.061   1.861   0.692  0.8449 -0.5209  2.0085
  470SOL    HW2 1410   3.027   1.698   0.732 -2.3130  1.8738 -2.0898
  471SOL     OW 1411   2.678   1.255   2.126  0.4690 -0.1039 -0.1192
  471SOL    HW1 1412   2.626   1.214   2.207 -1.0204  1.5080 -2.2430
  471SOL    HW2 1413   2.713   1.347   2.148  2.7774 -1.1686 -0.5851
  472SOL     OW 1414   1.118   2.457   0.056 -0.0285 -0.3127 -0.0315
  472SOL    HW1 1415   1.195   2.428   0.114  0.8055 -0.6809 -2.4968
  472SOL    HW2 1416   1.027   2.416   0.083 -0.5856  1.3315  0.4585
  473SOL     OW 1417   1.105   1.548   0.996  0.2463  0.4112  0.0879
  473SOL    HW1 1418   1.005   1.553   0.975 -0.5713 -2.3763  2.8051
  473SOL    HW2 1419   1.124   1.469   1.067  0.6266 -1.1991 -0.2767
  474SOL     OW 1420   0.653   1.264   0.526 -0.5830 -0.0519 -0.1741
  474SOL    HW1 1421   0.576   1.222   0.472 -1.7307  1.7143  0.6470
  474SOL    HW2 1422   0.706   1.196   0.581 -1.3523 -1.4002 -2.6230
  475SOL     OW 1423   2.867   0.029   0.814 -0.6093  0.3718 -0.6984
  475SOL    HW1 1424   2.929   0.094   0.861 -0.5246  0.4002 -0.0309
  475SOL    HW2 1425   2.772   0.049   0.841  0.6237  0.3817  1.3531
  476SOL     OW 1426   0.984   3.079   1.765  0.3991 -0.1177  0.6801
  476SOL    HW1 1427   1.053   3.039   1.830 -2.3695 -0.4077  1.0202
  476SOL    HW2 1428   0.998   3.045   1.666  0.7521 -1.9005  1.2721
  477SOL     OW 1429   1.413   0.314   2.436  0.0548  0.0839  0.9951
  477SOL    HW1 1430   1.400   0.338   2.532  0.4987 -1.0788  1.1869
  477SOL    HW2 1431   1.495   0.251   2.412  1.5872  0.9777  2.2996
  478SOL     OW 1432   2.233   1.831   0.159  0.1617  0.0573  0.1622
  478SOL    HW1 1433   2.201   1.757   0.220  0.7642  1.9106 -1.0068
  478SOL    HW2 1434   2.321   1.802   0.108  0.6577  0.1117  0.9721
  479SOL     OW 1435   1.245   0.987   2.891  0.5798  0.1066  0.3788
  479SOL    HW1 1436   1.311   0.944   2.821 -0.9705  2.9114  0.2646
  479SOL    HW2 1437   1.150   0.962   2.870  2.1806 -0.0252  2.3391
  480SOL     OW 1438   2.672   2.334   0.358 -0.0411  0.2772  0.3074
  480SOL    HW1 1439   2.668   2.269   0.436 -1.5092  0.7970 -0.7518
  480SOL    HW2 1440   2.612   2.313   0.277 -0.7744 -0.3362  1.5541
  481SOL     OW 1441   0.969   1.146   0.910  0.0212  0.2068  0.1805
  481SOL    HW1 1442   0.955   1.240   0.870 -1.0668 -0.8545  0.7829
  481SOL    HW2 1443   1.032   1.145   0.991  1.0514  0.4418 -2.4127
  482SOL     OW 1444   1.580   0.294   2.049 -0.2943  0.7143 -0.3521
  482SOL    HW1 1445   1.579   0.390   2.008  0.4618  0.7899  1.6322
  482SOL    HW2 1446   1.666   0.267   2.093  1.0333 -2.2598  0.1097
  483SOL     OW 1447   0.102   2.314   1.260  0.1473 -0.3066  0.6151
  483SOL    HW1 1448   0.035   2.336   1.340  1.2859  1.5371  1.9007
  483SOL    HW2 1449   0.153   2.398   1.223 -1.3370  2.6173  1.6802
  484SOL     OW 1450   1.764   1.105   1.344  0.0461  0.0497 -0.2510
  484SOL    HW1 1451   1.813   1.015   1.366 -1.2837  0.3358  0.2469
  484SOL    HW2 1452   1.787   1.175   1.415 -0.5931 -3.2569 -0.4162
  485SOL     OW 1453   0.727   0.981   1.784 -0.0232  1.1443  0.3910
  485SOL    HW1 1454   0.708   0.975   1.685  1.4876  0.8221  0.9244
  485SOL    HW2 1455   0.792   1.064   1.795  0.8932  1.4337  0.7108
  486SOL     OW 1456   0.813   1.890   2.429  0.1359  0.4979 -0.2772
  486SOL    HW1 1457   0.855   1.855   2.516 -1.7232  0.2369  3.3314
  486SOL    HW2 1458   0.779   1.990   2.422  0.7388 -1.7594 -2.5456
  487SOL     OW 1459   1.798   1.648   0.970 -0.0657 -0.0513 -0.1574
  487SOL    HW1 1460   1.862   1.573   0.993 -0.4017  2.0538 -2.2438
  487SOL    HW2 1461   1.821   1.704   0.883  2.4326  0.7272  1.5207
  488SOL     OW 1462   3.008   0.871   2.210  0.0766  0.0502  0.0608
  488SOL    HW1 1463   3.039   0.773   2.200  2.1565  1.0499  0.5277
  488SOL    HW2 1464   2.997   0.893   2.311 -2.9076 -2.9269  1.1712
  489SOL     OW 1465   2.773   0.295   1.272  0.2291  0.2051  0.3996
  489SOL    HW1 1466   2.757   0.313   1.371 -1.0190  0.0456 -2.6375
  489SOL    HW2 1467   2.868   0.270   1.246 -1.4262  0.2290  1.8000
  490SOL     OW 1468   1.506   2.945   2.759  0.4624  0.0998 -0.0136
  490SOL    HW1 1469   1.526   2.844   2.763 -0.9586  0.3072 -1.4251
  490SOL    HW2 1470   1.441   2.979   2.680  0.8531  1.1285  0.7493
  491SOL     OW 1471   1.741   1.436   2.609  0.2660 -0.5849  0.2350
  491SOL    HW1 1472   1.662   1.426   2.671  0.1337  1.9224 -0.0126
  491SOL    HW2 1473   1.826   1.471   2.656 -0.3880 -0.9656 -0.1555
  492SOL     OW 1474   0.554   2.136   0.661 -0.1583 -0.2530  0.2408
  492SOL    HW1 1475   0.601   2.106   0.744 -3.3158 -0.6924  0.1091
  492SOL    HW2 1476   0.454   2.169   0.682 -2.6573  0.6475 -0.5663
  493SOL     OW 1477   0.418   1.435   2.023 -0.4593  0.3993 -0.1844
  493SOL    HW1 1478   0.349   1.442   1.951  1.7371 -0.4546  0.5405
  493SOL    HW2 1479   0.405   1.346   2.080 -0.3648 -2.4184  1.5188
  494SOL     OW 1480   2.714   2.721   0.142 -0.0012 -0.3729  0.3265
  494SOL    HW1 1481   2.694   2.697   0.241  0.9584 -0.6447  2.0217
  494SOL    HW2 1482   2.628   2.694   0.088 -0.3124 -0.1057 -0.2731
  495SOL     OW 1483   2.642   2.726   2.707  1.4217  0.2161  0.6336
  495SOL    HW1 1484   2.617   2.624   2.692 -0.6958  0.1089  1.6876
  495SOL    HW2 1485   2.718   2.761   2.644 -1.3591  0.4090  3.2766
  496SOL     OW 1486   2.073   2.231   0.727  0.1591 -0.2583 -0.4372
  496SOL    HW1 1487   2.083   2.281   0.817  0.8747  0.3248 -1.2443
  496SOL    HW2 1488   2.089   2.130   0.739  0.2513 -2.1209  2.2696
  497SOL     OW 1489   0.199   2.991   2.380 -0.0111 -0.2696  0.4774
  497SOL    HW1 1490   0.165   3.065   2.444  0.3396  1.5414 -0.0839
  497SOL    HW2 1491   0.259   3.028   2.309  1.0155 -0.6603  3.7156
  498SOL     OW 1492   1.163   1.369   1.177  0.3765 -0.5159 -0.2442
  498SOL    HW1 1493   1.262   1.336   1.177 -1.5641 -1.1588 -0.6731
  498SOL    HW2 1494   1.140   1.431   1.258 -0.9989 -1.4058 -1.5620
  499SOL     OW 1495   0.650   1.750   0.368  0.3522 -0.4137  0.0710
  499SOL    HW1 1496   0.684   1.652   0.341 -0.3060 -0.1185  0.1170
  499SOL    HW2 1497   0.722   1.807   0.410 -0.3379  1.1811  0.7008
  500SOL     OW 1498   1.414   2.856   1.634  0.3743 -0.8776  0.1554
  500SOL    HW1 1499   1.432   2.891   1.726  0.3940  2.0847  1.4982
  500SOL    HW2 1500   1.470   2.776   1.605 -1.3346  2.3914 -5.3373
  501SOL     OW 1501   0.804   1.103   2.275 -0.5307 -0.2290  0.5712
  501SOL    HW1 1502   0.722   1.048   2.263  1.1086  1.9935  0.5664
  501SOL    HW2 1503   0.868   1.109   2.191  2.2005  1.9018 -2.3811
  502SOL     OW 1504   2.564   0.943   1.716  0.4829  0.5047  0.0461
  502SOL    HW1 1505   2.594   0.960   1.617 -1.8353  1.6345 -0.8239
  502SOL    HW2 1506   2.522   0.846   1.733  0.4710  1.7188  0.3445
  503SOL     OW 1507   1.334   0.141   0.700  0.1258 -0.4153  0.0193
  503SOL    HW1 1508   1.275   0.217   0.661  1.6226 -2.6155 -0.7551
  503SOL    HW2 1509   1.423   0.173   0.745  1.4307 -1.0877 -0.7841
  504SOL     OW 1510   3.027   2.345   1.454 -0.1845 -0.1406 -0.5380
  504SOL    HW1 1511   2.965   2.422   1.473  0.6418  2.7089 -1.2370
  504SOL    HW2 1512   3.084   2.318   1.533 -0.9184  1.2594  1.4161
  505SOL     OW 1513   2.329   1.187   1.413 -0.1993  0.4479  0.1903
  505SOL    HW1 1514   2.309   1.246   1.331 -0.4435 -1.8003  0.6125
  505SOL    HW2 1515   2.417   1.212   1.462 -3.6146 -2.1184 -2.3408
  506SOL     OW 1516   1.962   0.217   1.826 -0.0397 -0.3473 -0.0029
  506SOL    HW1 1517   1.997   0.144   1.893 -1.3356  1.1668  1.7678
  506SOL    HW2 1518   1.985   0.312   1.869 -1.4057 -0.8156 -0.6725
  507SOL     OW 1519   0.543   0.652   2.143 -0.1633  0.1150  0.3752
  507SOL    HW1 1520   0.472   0.604   2.096 -1.1001  1.8416  1.2672
  507SOL    HW2 1521   0.613   0.588   2.180 -4.3713  0.7508 -2.6038
  508SOL     OW 1522   0.287   1.609   0.750  0.0231 -0.7449 -0.4234
  508SOL    HW1 1523   0.345   1.670   0.685  1.9009  0.2618 -0.3200
  508SOL    HW2 1524   0.271   1.662   0.837  2.1552  1.1946  1.1761
  509SOL     OW 1525   1.212   1.235   2.364 -0.8721  0.2665 -0.2456
  509SOL    HW1 1526   1.238   1.181   2.270  0.5092 -1.1594 -5.4839
  509SOL    HW2 1527   1.143   1.189   2.425  0.9203 -0.1462 -0.7804
  510SOL     OW 1528   1.253   2.107   2.206 -0.2721 -0.2296 -0.1028
  510SOL    HW1 1529   1.278   2.157   2.118 -1.7168  0.4070  0.6214
  510SOL    HW2 1530   1.161   2.071   2.214  3.3880 -0.5456  0.6495
  511SOL     OW 1531   3.020   2.703   1.336  0.0762  0.0616 -0.0054
  511SOL    HW1 1532   3.022   2.694   1.230 -1.1689  1.4304 -2.6490
  511SOL    HW2 1533   2.917   2.703   1.371  1.5782 -0.9689  1.1947
  512SOL     OW 1534   2.366   0.435   1.369  0.4679  0.1935  0.1364
  512SOL    HW1 1535   2.259   0.439   1.381 -1.8461 -1.7874 -0.6912
  512SOL    HW2 1536   2.394   0.383   1.283 -3.3807 -1.5052  1.4855
  513SOL     OW 1537   2.624   2.094   0.894 -0.2741 -0.0016  0.2827
  513SOL    HW1 1538   2.578   2.172   0.844 -1.0477  2.2749 -0.3204
  513SOL    HW2 1539   2.670   2.037   0.822 -1.7861  0.1212  1.9896
  514SOL     OW 1540   0.613   2.738   0.473 -0.0195 -0.0878  0.2210
  514SOL    HW1 1541   0.668   2.769   0.395  1.1838  2.7068  1.8238
  514SOL    HW2 1542   0.659   2.763   0.563 -0.1510 -0.6720  0.4431
  515SOL     OW 1543   1.951   1.266   2.369  0.0402 -0.6045  0.1688
  515SOL    HW1 1544   2.020   1.227   2.296  1.9745  0.0869 -1.1772
  515SOL    HW2 1545   1.860   1.211   2.377 -3.0447  1.1777  1.0991
  516SOL     OW 1546   0.269   0.227   1.923 -0.1231  0.2081  0.1961
  516SOL    HW1 1547   0.348   0.185   1.873  1.6791 -2.4416  0.8869
  516SOL    HW2 1548   0.180   0.172   1.909  1.8919 -2.0911 -0.1697
  517SOL     OW 1549   0.455   0.026   1.156 -0.7985  0.0936 -0.7341
  517SOL    HW1 1550   0.457   0.123   1.202 -1.3006 -1.3431 -0.9919
  517SOL    HW2 1551   0.355   0.010   1.123 -2.4056 -0.4308  2.2309
  518SOL     OW 1552   2.169   3.033   1.804  0.2904  0.1770 -0.5311
  518SOL    HW1 1553   2.207   3.130   1.836  0.6098  1.1205 -0.1827
  518SOL    HW2 1554   2.186   3.003   1.706 -0.2803 -0.8635  1.3116
  519SOL     OW 1555   2.384   2.157   2.464  0.3953 -0.5048  0.5361
  519SOL    HW1 1556   2.324   2.140   2.547 -1.5929 -0.7332 -2.2999
  519SOL    HW2 1557   2.401   2.260   2.451  0.2265  1.2160  0.2169
  520SOL     OW 1558   1.861   2.731   1.756 -0.0019 -0.0659  0.5781
  520SOL    HW1 1559   1.787   2.670   1.785  0.7628  0.4792 -1.9253
  520SOL    HW2 1560   1.935   2.678   1.707  1.1730  1.2601  1.1204
  521SOL     OW 1561   0.564   3.053   2.086 -0.2508 -0.1687 -0.8081
  521SOL    HW1 1562   0.466   3.082   2.106 -0.0829  0.7024 -0.9702
  521SOL    HW2 1563   0.613   3.004   2.167 -1.6214 -1.0816  1.0041
  522SOL     OW 1564   0.244   1.858   1.501  0.1243  0.2870 -0.6233
  522SOL    HW1 1565   0.294   1.901   1.579 -0.6503  1.6248 -1.5815
  522SOL    HW2 1566   0.210   1.926   1.434  1.8712  0.2894 -1.9395
  523SOL     OW 1567   2.229   2.945   1.547  0.0771 -0.4738 -0.0959
  523SOL    HW1 1568   2.311   2.886   1.548  0.8393  0.4545 -0.3521
  523SOL    HW2 1569   2.159   2.902   1.491  2.9218 -1.3466 -0.8280
  524SOL     OW 1570   0.188   2.784   2.778 -0.0962 -0.0373  0.6719
  524SOL    HW1 1571   0.121   2.844   2.828  4.2122  0.7032 -1.1938
  524SOL    HW2 1572   0.280   2.786   2.820  0.1026  0.3764 -1.4744
  525SOL     OW 1573   2.158   1.990   0.385 -0.9755  1.1535 -0.3227
  525SOL    HW1 1574   2.205   1.938   0.461  2.2652  1.3675  0.4615
  525SOL    HW2 1575   2.202   1.977   0.293 -1.2626  0.7197  2.1133
  526SOL     OW 1576   0.471   1.501   1.643 -0.1726 -0.4352  0.0745
  526SOL    HW1 1577   0.521   1.538   1.732  1.7719  0.7349  1.2549
  526SOL    HW2 1578   0.484   1.400   1.640  0.9670  0.0669 -1.3294
  527SOL     OW 1579   1.020   2.851   1.181  0.1653  0.3507  0.9292
  527SOL    HW1 1580   1.097   2.798   1.227  1.1888 -1.1452  1.8414
  527SOL    HW2 1581   1.039   2.952   1.171 -2.4321  1.0135 -0.9231
  528SOL     OW 1582   1.359   2.365   0.548 -0.0790 -0.4512 -0.3701
  528SOL    HW1 1583   1.389   2.269   0.556  0.8776 -0.8943  1.5337
  528SOL    HW2 1584   1.407   2.428   0.619  0.9323  1.6936 -1.0865
  529SOL     OW 1585   1.962   1.757   0.695  0.1081  0.3646  0.6626
  529SOL    HW1 1586   1.896   1.768   0.614  1.8116 -0.6738 -2.1063
  529SOL    HW2 1587   1.970   1.853   0.743 -2.7426  1.2574  1.3882
  530SOL     OW 1588   0.344   2.608   0.226 -0.4347  0.5801  0.6251
  530SOL    HW1 1589   0.374   2.667   0.303  0.3842 -2.1137 -0.1277
  530SOL    HW2 1590   0.364   2.511   0.255  0.8240 -1.4789  1.1111
  531SOL     OW 1591   1.845   1.018   1.031 -0.9217 -0.0146 -0.0327
  531SOL    HW1 1592   1.815   1.071   0.949  2.6452  1.0351 -2.1784
  531SOL    HW2 1593   1.786   0.940   1.059  0.5761  0.6068  2.0273
  532SOL     OW 1594   0.376   1.194   0.697  0.2796  0.6043 -0.3893
  532SOL    HW1 1595   0.390   1.203   0.600  1.1037  0.7800  0.9014
  532SOL    HW2 1596   0.333   1.109   0.735  0.2780 -0.0763  0.1830
  533SOL     OW 1597   1.764   0.050   2.559  0.2734 -0.1482 -0.3492
  533SOL    HW1 1598   1.858  -0.004   2.560  2.8309 -0.7918 -1.0708
  533SOL    HW2 1599   1.762   0.123   2.635 -1.4030  2.8126 -0.6027
  534SOL     OW 1600   0.328   0.190   1.524 -0.0046 -0.7050  1.0268
  534SOL    HW1 1601   0.343   0.201   1.425 -0.6530 -1.0884  3.0364
  534SOL    HW2 1602   0.282   0.275   1.561  1.1569 -1.6462  0.8126
  535SOL     OW 1603   1.923   0.429   0.235  0.1982 -0.2195  0.1803
  535SOL    HW1 1604   1.938   0.514   0.293 -1.1552  1.2944  2.5238
  535SOL    HW2 1605   1.837   0.380   0.258  0.9727  1.0631  1.1929
  536SOL     OW 1606   1.414   2.579   0.950 -0.3539 -0.1249  0.2060
  536SOL    HW1 1607   1.397   2.552   1.050 -2.2813 -1.6063  0.9332
  536SOL    HW2 1608   1.324   2.602   0.893 -1.7765  0.5516 -1.3364
  537SOL     OW 1609   0.814   0.173   2.335  0.0615  0.0474 -0.2013
  537SOL    HW1 1610   0.854   0.226   2.253  2.1822 -0.1951  0.5771
  537SOL    HW2 1611   0.729   0.117   2.314  0.6849  0.9979 -3.2615
  538SOL     OW 1612   1.697   2.315   1.534  0.3345  0.2760 -0.4704
  538SOL    HW1 1613   1.665   2.225   1.495  0.7378 -2.5159  2.5794
  538SOL    HW2 1614   1.763   2.360   1.470 -0.1149  2.5569  1.4601
  539SOL     OW 1615   0.187   1.580   2.727  0.0529 -0.4817 -0.4891
  539SOL    HW1 1616   0.150   1.586   2.632  2.8534  0.0042  2.3906
  539SOL    HW2 1617   0.142   1.641   2.796 -0.3831 -2.4402 -1.0593
  540SOL     OW 1618   2.728   1.714   1.987 -0.0055  0.0063 -0.0989
  540SOL    HW1 1619   2.689   1.638   2.044  1.3857 -1.6404 -0.6908
  540SOL    HW2 1620   2.670   1.795   1.974 -0.2873 -2.0681  0.5710
  541SOL     OW 1621   0.473   2.287   3.074 -1.1067  0.0981  0.0607
  541SOL    HW1 1622   0.515   2.247   3.161 -0.8941  2.2474  0.0419
  541SOL    HW2 1623   0.368   2.263   3.070  1.3709  1.0415 -2.2154
  542SOL     OW 1624   2.259   2.581   0.382  0.0443  0.2641 -0.2823
  542SOL    HW1 1625   2.260   2.684   0.383  1.5182 -0.3259  2.2253
  542SOL    HW2 1626   2.184   2.538   0.441  1.3070  1.3500  0.9147
  543SOL     OW 1627   1.080   1.761   1.650  0.4548  0.3190 -0.1065
  543SOL    HW1 1628   1.039   1.811   1.731 -0.2994  0.3069  1.4949
  543SOL    HW2 1629   1.063   1.808   1.558 -1.0590  1.0710  0.8007
  544SOL     OW 1630   1.013   0.413   0.210  0.4255  0.5288  0.4373
  544SOL    HW1 1631   0.983   0.315   0.239  0.2763 -2.1104  2.4472
  544SOL    HW2 1632   0.994   0.428   0.105 -1.7132  2.4889 -1.4824
  545SOL     OW 1633   1.097   1.774   0.849  0.1203  0.4554  0.1696
  545SOL    HW1 1634   1.183   1.827   0.837 -1.2922  1.4043 -3.2872
  545SOL    HW2 1635   1.101   1.679   0.888  1.1221  1.1568  1.6594
  546SOL     OW 1636   2.631   1.568   3.090 -0.0128 -0.5460 -0.7335
  546SOL    HW1 1637   2.585   1.631   3.031  4.0766 -3.3402 -0.4645
  546SOL    HW2 1638   2.576   1.542   3.175  1.2099 -1.4677  0.5560
  547SOL     OW 1639   0.561   0.020   2.670 -0.1910 -0.4307  0.5385
  547SOL    HW1 1640   0.649  -0.031   2.666 -0.3916  0.7135 -0.7376
  547SOL    HW2 1641   0.484  -0.029   2.707  1.9236  1.4300 -2.4179
  548SOL     OW 1642   2.082   0.846   3.038 -0.0063 -0.4001 -0.6591
  548SOL    HW1 1643   1.978   0.837   3.031  0.9673 -1.0170  0.0972
  548SOL    HW2 1644   2.116   0.945   3.051  3.4694  1.7710 -0.5483
  549SOL     OW 1645   0.680   0.523   0.190 -0.4638 -0.2377  0.1395
  549SOL    HW1 1646   0.640   0.553   0.099  1.6339 -0.3993  0.9404
  549SOL    HW2 1647   0.765   0.579   0.202  3.5378 -0.3497  0.1131
  550SOL     OW 1648   2.475   2.847   2.868 -0.3061 -0.2071  0.2279
  550SOL    HW1 1649   2.454   2.783   2.946  0.4692 -3.3231  1.4369
  550SOL    HW2 1650   2.546   2.803   2.801 -0.8004  0.5627 -1.6794
  551SOL     OW 1651   0.289   0.884   0.229 -0.2677  0.8395 -0.1830
  551SOL    HW1 1652   0.392   0.910   0.234  0.3764 -1.6741 -0.3539
  551SOL    HW2 1653   0.250   0.883   0.325  0.1774 -0.1247 -3.0700
  552SOL     OW 1654   0.714   2.988   1.836  0.3742  0.0359  0.2241
  552SOL    HW1 1655   0.685   3.015   1.929  3.0025 -1.6043 -1.5337
  552SOL    HW2 1656   0.816   3.017   1.822 -1.3150  1.0463 -1.3270
  553SOL     OW 1657   3.014   2.560   0.341 -0.1450 -0.4381 -0.4946
  553SOL    HW1 1658   2.975   2.467   0.322 -0.9692  2.0702  0.5681
  553SOL    HW2 1659   2.961   2.607   0.420 -0.0439 -0.4289  0.2787
  554SOL     OW 1660   2.109   0.372   0.596  0.1153  0.4432  0.2862
  554SOL    HW1 1661   2.204   0.349   0.559  1.3319 -2.3501  1.0171
  554SOL    HW2 1662   2.057   0.291   0.638 -0.4468 -1.1529 -0.5596
  555SOL     OW 1663   0.412   2.835   2.508  0.2804 -1.3035  0.5176
  555SOL    HW1 1664   0.326   2.882   2.477 -0.4516  1.2965 -1.5594
  555SOL    HW2 1665   0.477   2.816   2.428 -1.0791 -1.0347  0.6107
  556SOL     OW 1666   0.782   2.400   1.535 -0.0252  0.3005 -0.4902
  556SOL    HW1 1667   0.821   2.483   1.582  0.9886 -0.1897  0.4078
  556SOL    HW2 1668   0.854   2.364   1.468 -2.8970 -2.2290 -1.0622
  557SOL     OW 1669   0.102   2.039   0.167  0.3359 -0.2911  0.0227
  557SOL    HW1 1670   0.042   1.983   0.103 -0.7973  2.6078  1.3385
  557SOL    HW2 1671   0.175   2.089   0.111  0.4248  0.5672  1.3585
  558SOL     OW 1672   2.930   2.306   0.287  0.1157 -0.2228  0.2685
  558SOL    HW1 1673   2.832   2.336   0.278 -0.1161 -2.4156 -0.4020
  558SOL    HW2 1674   2.982   2.297   0.198 -1.2555  0.0213  0.7767
  559SOL     OW 1675   0.385   2.312   1.356  0.2592 -0.1264  0.0223
  559SOL    HW1 1676   0.290   2.296   1.333  2.4018  1.8913  1.3819
  559SOL    HW2 1677   0.447   2.233   1.330  1.9579  1.4083  0.6676
  560SOL     OW 1678   2.100   1.135   3.073 -0.1381  0.2815 -0.0273
  560SOL    HW1 1679   2.023   1.148   3.139 -1.4269  1.3902 -1.0760
  560SOL    HW2 1680   2.188   1.171   3.109 -0.8626  0.8709 -0.5172
  561SOL     OW 1681   3.013   1.875   0.016 -0.3255  0.1423 -0.2104
  561SOL    HW1 1682   2.954   1.800   0.065 -2.9642  1.0993  0.4106
  561SOL    HW2 1683   2.957   1.967   0.011  1.6741  0.9832 -0.5452
  562SOL     OW 1684   1.040   2.280   2.361  0.4464 -0.2607 -1.0126
  562SOL    HW1 1685   0.993   2.209   2.410  1.3463  1.5630  2.2736
  562SOL    HW2 1686   1.017   2.382   2.393 -0.9299  2.8346  0.8149
  563SOL     OW 1687   0.721   2.569   2.587 -0.3407  0.0514  0.2524
  563SOL    HW1 1688   0.786   2.494   2.613  1.1403 -1.6287 -1.3736
  563SOL    HW2 1689   0.695   2.625   2.668  0.5572 -2.0276 -0.1354
  564SOL     OW 1690   2.756   1.319   2.955 -0.3453  0.1052  0.1829
  564SOL    HW1 1691   2.665   1.344   3.003 -0.9559 -1.1238  0.3160
  564SOL    HW2 1692   2.810   1.402   2.928 -0.2203 -1.0540 -0.5272
  565SOL     OW 1693   2.581   1.950   2.607 -0.3555  0.6586  0.2684
  565SOL    HW1 1694   2.523   2.014   2.550 -0.8102  0.8960 -0.8600
  565SOL    HW2 1695   2.626   1.998   2.689  2.0562  0.8463 -1.6351
  566SOL     OW 1696   1.974   2.828   1.388  1.0988 -0.4489  0.5690
  566SOL    HW1 1697   1.923   2.743   1.368 -0.5114  1.8492  1.3161
  566SOL    HW2 1698   1.953   2.906   1.321 -0.3462  1.3404 -0.5790
  567SOL     OW 1699   2.503   0.072   2.264 -0.3800  0.3834 -0.1370
  567SOL    HW1 1700   2.491   0.150   2.196 -1.6325  1.3292 -0.3550
  567SOL    HW2 1701   2.423   0.068   2.325  2.3671  1.8621 -1.4461
  568SOL     OW 1702   1.549   1.788   0.311 -0.5632  0.1016  0.0395
  568SOL    HW1 1703   1.483   1.845   0.257  0.8691 -0.5209  0.8626
  568SOL    HW2 1704   1.646   1.826   0.307 -0.8686  0.1521  0.5460
  569SOL     OW 1705   0.277   0.687   0.768  0.2402 -0.6700  0.1775
  569SOL    HW1 1706   0.336   0.608   0.737  0.6311  2.4258 -1.9443
  569SOL    HW2 1707   0.177   0.653   0.780 -0.6536  0.5631 -0.0775
  570SOL     OW 1708   0.603   0.836   2.849 -0.2235  0.3679 -0.0258
  570SOL    HW1 1709   0.681   0.816   2.785  0.9077  2.0610  4.0169
  570SOL    HW2 1710   0.636   0.907   2.920  0.4115 -0.0089  0.9028
  571SOL     OW 1711   0.782   0.009   1.023 -0.3514 -0.5709 -0.2069
  571SOL    HW1 1712   0.862   0.016   0.962 -0.8766 -0.5721 -0.7659
  571SOL    HW2 1713   0.747  -0.087   1.045  1.0334 -0.4162  0.7768
  572SOL     OW 1714   1.578   2.610   1.272  0.2078 -0.0552  0.2997
  572SOL    HW1 1715   1.488   2.553   1.269 -3.8732 -0.2104 -0.4918
  572SOL    HW2 1716   1.571   2.691   1.336  1.8671  1.2124  0.4515
  573SOL     OW 1717   2.877   0.465   2.057  0.0073 -0.0678  0.0738
  573SOL    HW1 1718   2.863   0.359   2.057  1.5358 -2.9377  1.8797
  573SOL    HW2 1719   2.796   0.521   2.029  0.3150 -0.6165 -1.6253
  574SOL     OW 1720   0.208   1.699   1.013 -0.2579 -0.0019  0.7481
  574SOL    HW1 1721   0.201   1.793   0.976  0.2616  0.0107  1.3064
  574SOL    HW2 1722   0.125   1.669   1.065 -0.4309 -0.0595 -1.1271
  575SOL     OW 1723   0.933   2.162   0.981 -0.1088  0.0253 -0.2832
  575SOL    HW1 1724   0.865   2.207   1.048 -3.0077  1.0251 -1.3752
  575SOL    HW2 1725   0.962   2.236   0.914 -1.1204 -0.1175 -1.5003
  576SOL     OW 1726   2.898   3.004   1.685 -0.7704 -0.0939  0.4875
  576SOL    HW1 1727   2.798   2.989   1.711  0.4242 -0.5609 -0.6960
  576SOL    HW2 1728   2.916   3.104   1.661 -2.3479 -0.4417  1.1664
  577SOL     OW 1729   2.510   1.242   0.026  0.2961  0.6996  0.1523
  577SOL    HW1 1730   2.513   1.175  -0.056 -2.0860 -1.4810 -0.2713
  577SOL    HW2 1731   2.595   1.244   0.093 -0.1803 -1.4026  1.2202
  578SOL     OW 1732   1.333   2.764   2.476 -0.1061  0.3272 -0.4726
  578SOL    HW1 1733   1.240   2.810   2.472 -1.8124  1.1691  1.0158
  578SOL    HW2 1734   1.414   2.827   2.459  1.7817  0.1575  1.7193
  579SOL     OW 1735   0.082   2.504   0.127  0.0138  0.1299 -0.2289
  579SOL    HW1 1736   0.022   2.505   0.211 -1.4296 -0.8286 -0.8944
  579SOL    HW2 1737   0.170   2.549   0.150  0.5129  1.5515  2.4629
  580SOL     OW 1738   1.024   2.634   0.427  0.0596  0.4053 -0.0258
  580SOL    HW1 1739   1.116   2.651   0.387  1.5505 -0.9730  1.0867
  580SOL    HW2 1740   0.957   2.579   0.360  0.7051 -2.4162 -0.9635
  581SOL     OW 1741   1.262   2.587   1.507 -0.4778  0.6944 -0.3431
  581SOL    HW1 1742   1.320   2.502   1.499  3.8750  1.0157 -2.3026
  581SOL    HW2 1743   1.317   2.672   1.508 -1.1359  1.0547  1.5680
  582SOL     OW 1744   1.501   0.089   1.862  0.0658  0.1695 -0.0556
  582SOL    HW1 1745   1.497   0.151   1.943  0.3297 -0.4552 -0.1310
  582SOL    HW2 1746   1.593   0.091   1.812 -1.7103 -0.2935 -1.3569
  583SOL     OW 1747   2.508   3.072   0.503 -0.1643  0.1126  0.4060
  583SOL    HW1 1748   2.587   3.030   0.456  0.3114  3.0268 -1.2742
  583SOL    HW2 1749   2.440   3.009   0.553 -1.0968  0.5103 -0.6667
  584SOL     OW 1750   1.585   0.911   2.095 -0.4460 -0.2953 -0.0143
  584SOL    HW1 1751   1.658   0.897   2.024  1.7031  2.1623 -1.5839
  584SOL    HW2 1752   1.625   0.912   2.189 -3.7209 -1.5353 -0.0780
  585SOL     OW 1753   2.095   2.662   2.897  0.3929 -0.4904 -0.2198
  585SOL    HW1 1754   2.097   2.561   2.881  0.1899  3.5427  0.4734
  585SOL    HW2 1755   2.000   2.702   2.886 -0.3064  2.3352  0.6075
  586SOL     OW 1756   2.809   0.368   1.535  0.1194  0.6774 -0.1045
  586SOL    HW1 1757   2.816   0.450   1.596 -1.1872  3.1796  0.1836
  586SOL    HW2 1758   2.725   0.316   1.564  1.6693  0.6507  1.5569
  587SOL     OW 1759   1.970   1.551   2.706  0.5537  0.2297 -0.3609
  587SOL    HW1 1760   2.024   1.499   2.639 -2.2355  2.1822  0.1013
  587SOL    HW2 1761   2.015   1.566   2.798 -2.5054  0.0033 -0.2118
  588SOL     OW 1762   0.466   2.694   2.255  0.5529  0.4382 -0.1643
  588SOL    HW1 1763   0.371   2.655   2.251 -0.9487 -0.7424 -0.2961
  588SOL    HW2 1764   0.522   2.637   2.323  0.5816 -0.6729 -0.4669
  589SOL     OW 1765   2.135   1.429   2.511  0.1997 -0.0508 -0.2801
  589SOL    HW1 1766   2.062   1.373   2.461  0.5976  1.6864  0.3180
  589SOL    HW2 1767   2.224   1.381   2.517 -0.3555  0.2355  2.1929
  590SOL     OW 1768   2.337   1.661   2.051 -0.3074  0.2739 -0.1538
  590SOL    HW1 1769   2.393   1.573   2.036  1.5661  2.0935  0.6430
  590SOL    HW2 1770   2.357   1.694   2.150 -0.5906 -0.1141  0.6740
  591SOL     OW 1771   1.327   2.376   0.264 -0.1712 -0.2572  0.2957
  591SOL    HW1 1772   1.377   2.298   0.219  1.4236  1.0193  0.4651
  591SOL    HW2 1773   1.335   2.377   0.369 -1.3199 -0.2502 -0.6149
  592SOL     OW 1774   1.797   2.292   0.751 -0.1212 -0.5699 -0.1608
  592SOL    HW1 1775   1.783   2.383   0.706  0.4554  0.5113 -1.1738
  592SOL    HW2 1776   1.894   2.257   0.736  0.0554 -0.0509  2.7282
  593SOL     OW 1777   0.708   0.250   0.240  0.1982 -0.1882  0.2238
  593SOL    HW1 1778   0.757   0.216   0.155 -0.8900 -1.7042 -1.8900
  593SOL    HW2 1779   0.684   0.352   0.236  0.2532 -0.2298  0.9871
  594SOL     OW 1780   0.950   1.877   2.699  0.2325 -0.1625 -0.0823
  594SOL    HW1 1781   1.051   1.867   2.714  0.0858  0.2784  1.1139
  594SOL    HW2 1782   0.917   1.976   2.714 -0.7859  2.6697 -0.1365
  595SOL     OW 1783   1.587   0.050   1.086 -0.6292  0.3449 -0.2160
  595SOL    HW1 1784   1.673  -0.004   1.055  1.2739  2.5976 -1.4126
  595SOL    HW2 1785   1.507   0.034   1.023 -1.4867 -1.4596  1.2863
  596SOL     OW 1786   0.003   1.411   2.247  0.0279  0.1936  0.1987
  596SOL    HW1 1787   0.002   1.316   2.288 -1.5586 -1.6094  0.9776
  596SOL    HW2 1788   0.052   1.478   2.315  1.1078  0.2884  1.9805
  597SOL     OW 1789   1.998   2.540   1.618 -0.0576  0.0905  0.3429
  597SOL    HW1 1790   1.996   2.458   1.555 -0.7220  2.6122  4.1703
  597SOL    HW2 1791   2.073   2.530   1.691  0.1464 -2.2878 -3.0123
  598SOL     OW 1792   2.511   2.961   1.270  0.1636 -0.3791 -0.2035
  598SOL    HW1 1793   2.594   2.985   1.328  0.6608 -1.3345 -1.0033
  598SOL    HW2 1794   2.536   2.944   1.169  0.6843  2.0730  1.1373
  599SOL     OW 1795   2.954   0.335   2.502 -0.1007 -0.4822 -0.3067
  599SOL    HW1 1796   3.048   0.384   2.503  0.5082  0.2464  1.7114
  599SOL    HW2 1797   2.882   0.382   2.439 -2.5560  0.1402 -1.5376
  600SOL     OW 1798   2.796   1.134   2.761  0.5816  0.3984  0.7010
  600SOL    HW1 1799   2.766   1.033   2.776  0.5495 -1.3968  0.4201
  600SOL    HW2 1800   2.757   1.196   2.839 -1.6245  0.4953  0.6243
  601SOL     OW 1801   2.982   1.277   1.963 -0.0755  0.5244  0.3934
  601SOL    HW1 1802   2.891   1.317   1.923  2.3563  1.1067 -1.6109
  601SOL    HW2 1803   3.060   1.343   1.956 -2.6108  1.2074  1.5176
  602SOL     OW 1804   1.429   1.745   2.377  0.3361  0.3484  0.2480
  602SOL    HW1 1805   1.377   1.658   2.374 -0.6850  0.0572 -0.6731
  602SOL    HW2 1806   1.530   1.736   2.379 -2.1076  1.7645 -1.5491
  603SOL     OW 1807   0.593   1.195   2.739  0.2161  0.3652  0.0738
  603SOL    HW1 1808   0.504   1.180   2.682  0.6552 -2.1470 -0.5999
  603SOL    HW2 1809   0.669   1.128   2.706  0.0171  2.0062  1.4003
  604SOL     OW 1810   2.387   1.003   0.152 -0.1748  0.2907  0.2574
  604SOL    HW1 1811   2.408   1.097   0.114  2.3274 -0.4413  1.9885
  604SOL    HW2 1812   2.405   0.921   0.083  0.3142 -2.1784 -1.9859
  605SOL     OW 1813   2.521   1.151   1.925  0.2208 -0.2064  0.4847
  605SOL    HW1 1814   2.512   1.057   1.902 -1.8130  0.7669  1.9718
  605SOL    HW2 1815   2.603   1.171   1.984  1.4010 -0.1091 -1.7749
  606SOL     OW 1816   1.485   2.518   2.580  0.0843  0.1151  0.4497
  606SOL    HW1 1817   1.407   2.579   2.543  0.0383  4.1049 -1.2814
  606SOL    HW2 1818   1.462   2.420   2.610  0.1604  0.4516 -0.6784
  607SOL     OW 1819   1.339   1.602   0.352  0.1375 -0.3112 -0.7076
  607SOL    HW1 1820   1.280   1.648   0.428  0.1951 -0.1625 -1.9002
  607SOL    HW2 1821   1.430   1.646   0.331  0.9661 -1.9476  0.3754
  608SOL     OW 1822   1.432   2.897   0.320 -0.2581  0.1285  0.0713
  608SOL    HW1 1823   1.533   2.923   0.297 -0.4589  1.5571 -0.3817
  608SOL    HW2 1824   1.390   2.961   0.391 -1.2898 -1.7547  1.0198
  609SOL     OW 1825   1.320   1.380   0.181 -0.2015 -0.3961 -0.3704
  609SOL    HW1 1826   1.294   1.445   0.261  2.5324 -0.7362  0.5337
  609SOL    HW2 1827   1.271   1.394   0.094  1.3396 -2.0286  3.4788
  610SOL     OW 1828   3.011   1.149   2.211  0.1024  0.5129 -0.4845
  610SOL    HW1 1829   3.023   1.045   2.201 -1.5585  1.2098  0.6288
  610SOL    HW2 1830   2.974   1.196   2.126  0.9264 -0.5378  0.5192
  611SOL     OW 1831   2.541   0.296   1.114 -0.4724  0.1095  0.1093
  611SOL    HW1 1832   2.464   0.225   1.126  0.2629 -3.1831 -0.3311
  611SOL    HW2 1833   2.616   0.289   1.187  0.7437  0.2113 -1.3501
  612SOL     OW 1834   0.756   2.276   1.145  0.1800 -0.1458  0.5872
  612SOL    HW1 1835   0.676   2.223   1.187 -0.4606 -0.1914  0.5562
  612SOL    HW2 1836   0.730   2.378   1.139 -0.8809  2.3244  0.4847
  613SOL     OW 1837   0.830   1.366   2.436 -0.1218  0.0273 -0.7773
  613SOL    HW1 1838   0.806   1.431   2.358 -3.0761 -0.5167  2.4042
  613SOL    HW2 1839   0.792   1.273   2.421  1.1119  1.2861 -0.8638
  614SOL     OW 1840   1.566   1.626   1.964 -0.4711 -0.2505  0.1031
  614SOL    HW1 1841   1.539   1.716   2.013 -1.3666  0.0422  0.9426
  614SOL    HW2 1842   1.656   1.586   1.998 -1.4004 -3.6233 -1.8891
  615SOL     OW 1843   0.761   1.329   1.710  0.1178  0.7882  0.0636
  615SOL    HW1 1844   0.685   1.288   1.651 -3.2901 -0.8070  2.2434
  615SOL    HW2 1845   0.816   1.399   1.666 -1.1579 -0.3866  0.8682
  616SOL     OW 1846   1.027   1.650   2.200 -0.9100 -0.3010 -0.6866
  616SOL    HW1 1847   0.926   1.624   2.218 -2.9242 -0.6710  0.3771
  616SOL    HW2 1848   1.039   1.748   2.161  0.8146  0.8045 -1.8238
  617SOL     OW 1849   2.942   1.570   1.628  0.0199  0.0687  0.5727
  617SOL    HW1 1850   2.934   1.497   1.699 -3.1311 -0.9606 -1.3856
  617SOL    HW2 1851   2.971   1.529   1.531 -2.3831 -1.9722 -1.2403
  618SOL     OW 1852   1.887   1.989   1.434 -0.0245  0.5545  1.0148
  618SOL    HW1 1853   1.955   2.025   1.362  0.3292  0.0694 -0.4086
  618SOL    HW2 1854   1.891   1.887   1.436  0.3093 -1.4302  0.3055
  619SOL     OW 1855   1.762   0.440   2.388  0.1361  0.1941  0.5516
  619SOL    HW1 1856   1.694   0.507   2.338 -1.7113 -0.1791 -0.9277
  619SOL    HW2 1857   1.720   0.353   2.433  0.1152  0.5094  3.4667
  620SOL     OW 1858   2.266   2.956   0.626 -0.4689  0.4441 -0.2076
  620SOL    HW1 1859   2.224   3.039   0.660  0.5241  2.6147  1.3526
  620SOL    HW2 1860   2.232   2.871   0.676 -0.7273  1.8675  2.0008
  621SOL     OW 1861   2.160   1.829   1.314  0.3738 -0.2324  0.0925
  621SOL    HW1 1862   2.146   1.846   1.416  0.5820  3.7883  0.0340
  621SOL    HW2 1863   2.117   1.741   1.281  1.4549  3.0072  1.8740
  622SOL     OW 1864   2.261   0.940   1.807 -0.0885  0.2945  0.3365
  622SOL    HW1 1865   2.353   0.981   1.792 -2.2211  0.3303  1.0767
  622SOL    HW2 1866   2.262   0.846   1.855 -2.9599  0.2048  3.5165
  623SOL     OW 1867   1.320   0.833   2.646 -0.0064  0.3437 -0.1033
  623SOL    HW1 1868   1.283   0.746   2.688  0.4947 -0.8460 -2.6375
  623SOL    HW2 1869   1.271   0.851   2.555  1.4719  1.0254 -0.0072
  624SOL     OW 1870   0.580   0.665   3.089  0.5261  0.3479  0.0095
  624SOL    HW1 1871   0.596   0.707   2.991 -1.0151 -1.2453 -2.7236
  624SOL    HW2 1872   0.564   0.736   3.160 -0.3531  1.5224 -1.0261
  625SOL     OW 1873   2.807   1.696   0.969  0.3697  0.0407 -0.0684
  625SOL    HW1 1874   2.712   1.739   0.952 -0.4490  0.8715 -0.3759
  625SOL    HW2 1875   2.881   1.750   0.923 -0.2045 -5.0744 -2.6318
  626SOL     OW 1876   0.599   2.721   1.762  0.1754  0.0050  0.5778
  626SOL    HW1 1877   0.625   2.818   1.789  1.0176  1.4012  2.0997
  626SOL    HW2 1878   0.498   2.701   1.758 -0.6954  1.6326  0.2951
  627SOL     OW 1879   0.788   0.986   1.499 -0.2445  0.6444  0.5901
  627SOL    HW1 1880   0.714   0.970   1.423  0.6907  0.7101 -4.0440
  627SOL    HW2 1881   0.854   1.064   1.482 -1.6859  0.3318  0.4070
  628SOL     OW 1882   2.395   0.166   0.706 -0.6094 -0.0744  0.1849
  628SOL    HW1 1883   2.425   0.100   0.630  4.0368  2.2572 -0.4816
  628SOL    HW2 1884   2.302   0.156   0.739 -0.8625  2.8775 -0.4144
  629SOL     OW 1885   1.955   0.904   1.980 -0.1922 -0.4572  0.1320
  629SOL    HW1 1886   2.050   0.907   1.936  0.9844 -2.7597 -1.2996
  629SOL    HW2 1887   1.914   0.996   2.002 -0.9669  1.1486  0.1199
  630SOL     OW 1888   2.905   2.222   0.837  0.6889  0.7050  0.0293
  630SOL    HW1 1889   2.839   2.299   0.859 -1.2846 -0.4868  1.7902
  630SOL    HW2 1890   2.859   2.133   0.863 -1.3038  0.7375  0.2408
  631SOL     OW 1891   2.979   0.160   2.119 -0.1514 -0.3251 -0.4374
  631SOL    HW1 1892   3.046   0.176   2.199 -0.2656  0.0543  1.6440
  631SOL    HW2 1893   3.025   0.129   2.035 -2.1137 -0.5610  1.5914
  632SOL     OW 1894   2.371   2.528   0.649 -0.3479  0.3564 -0.0149
  632SOL    HW1 1895   2.372   2.611   0.710  3.9786 -1.2000  0.0867
  632SOL    HW2 1896   2.360   2.543   0.546 -0.6589 -1.1006  2.4813
  633SOL     OW 1897   1.425   1.217   2.586  0.0579 -0.0258 -0.3100
  633SOL    HW1 1898   1.428   1.308   2.632  0.0687 -1.2440 -0.7491
  633SOL    HW2 1899   1.357   1.200   2.507  0.5857 -1.1063 -2.6231
  634SOL     OW 1900   0.701   2.011   0.875  0.0943 -0.8900 -0.3017
  634SOL    HW1 1901   0.612   2.033   0.926  0.7678  1.6052  0.4201
  634SOL    HW2 1902   0.785   2.065   0.910  1.7551 -1.0960 -0.2849
  635SOL     OW 1903   3.007   2.337   3.094  0.2205 -0.1249 -0.0237
  635SOL    HW1 1904   2.925   2.377   3.051  1.2148 -0.8609  0.1234
  635SOL    HW2 1905   3.075   2.406   3.134  1.0736 -0.3085 -0.0135
  636SOL     OW 1906   2.303   2.729   2.058 -0.7864 -0.2439  0.5351
  636SOL    HW1 1907   2.307   2.830   2.070  2.1918  0.4496  1.7995
  636SOL    HW2 1908   2.275   2.689   2.152 -0.3099 -0.0087 -1.2698
  637SOL     OW 1909   2.642   0.666   2.017 -0.1693  0.7878  0.9345
  637SOL    HW1 1910   2.583   0.664   1.931  0.7922 -0.4913 -3.2554
  637SOL    HW2 1911   2.685   0.759   2.024 -1.8126  0.3547  0.2886
  638SOL     OW 1912   2.440   1.788   1.247 -0.4777 -0.5545  0.0444
  638SOL    HW1 1913   2.338   1.796   1.261 -1.0436 -1.2978  0.1700
  638SOL    HW2 1914   2.484   1.726   1.316 -0.1834  1.4911 -0.6387
  639SOL     OW 1915   1.274   2.154   1.730 -0.1066  0.6723 -0.1049
  639SOL    HW1 1916   1.319   2.073   1.686  0.6751 -0.1738  0.7330
  639SOL    HW2 1917   1.171   2.138   1.740  0.7688 -0.7627  0.0552
  640SOL     OW 1918   0.185   1.152   1.583  0.0256 -0.0524 -0.4721
  640SOL    HW1 1919   0.148   1.156   1.678  1.7201 -0.5973 -0.4928
  640SOL    HW2 1920   0.282   1.112   1.588 -1.8638  1.3088  2.6895
  641SOL     OW 1921   2.047   0.172   1.539 -0.2056  0.2860 -0.4792
  641SOL    HW1 1922   2.018   0.181   1.641 -0.1413  1.5279  1.6991
  641SOL    HW2 1923   2.140   0.134   1.523  0.0601  2.1251  1.1288
  642SOL     OW 1924   2.008   0.043   0.321  0.2361  0.7295  0.0456
  642SOL    HW1 1925   2.103   0.057   0.361 -0.0124  0.1078  4.2023
  642SOL    HW2 1926   1.932   0.056   0.390 -1.4104  2.1374  0.0282
  643SOL     OW 1927   2.956   1.852   2.062  0.2774 -0.2184  0.3513
  643SOL    HW1 1928   2.896   1.785   2.009 -0.9897 -1.5175  0.8443
  643SOL    HW2 1929   2.935   1.953   2.034  0.4251 -0.2957  0.3450
  644SOL     OW 1930   2.230   2.353   1.189  0.3172  0.2369 -0.0008
  644SOL    HW1 1931   2.302   2.291   1.155 -1.0144 -2.3559  1.8410
  644SOL    HW2 1932   2.227   2.365   1.292 -1.4915  1.9912  2.8331
  645SOL     OW 1933   0.612   0.795   1.282  0.1694  0.0251 -0.4087
  645SOL    HW1 1934   0.515   0.831   1.263  1.4837  0.3073  3.0382
  645SOL    HW2 1935   0.671   0.809   1.200 -0.3358 -2.4512 -0.0815
  646SOL     OW 1936   1.438   1.866   2.052  0.4107  0.5010 -0.1835
  646SOL    HW1 1937   1.486   1.917   1.974  0.2494 -0.7758 -0.0934
  646SOL    HW2 1938   1.444   1.910   2.144  0.1329  0.8217 -1.6182
  647SOL     OW 1939   0.797   1.082   0.705  0.3255 -0.1514  0.3539
  647SOL    HW1 1940   0.862   1.081   0.781 -0.7466  0.4476 -3.0431
  647SOL    HW2 1941   0.718   1.018   0.709  0.9389 -1.3387 -0.2299
  648SOL     OW 1942   0.075   0.228   0.214  0.0598 -0.4472 -0.4330
  648SOL    HW1 1943   0.132   0.180   0.149 -1.8240 -0.2445 -0.7993
  648SOL    HW2 1944   0.074   0.332   0.212 -0.4423  0.3959 -0.0371
  649SOL     OW 1945   3.034   0.234   0.870 -0.4627  0.6037  0.5213
  649SOL    HW1 1946   3.130   0.188   0.880 -0.7788  1.1757 -0.1454
  649SOL    HW2 1947   3.026   0.330   0.911  0.1436 -1.1629  2.3010
  650SOL     OW 1948   2.789   0.721   1.476 -0.1412 -0.5746 -0.5127
  650SOL    HW1 1949   2.685   0.696   1.482 -0.9176  0.5513  0.9649
  650SOL    HW2 1950   2.811   0.809   1.422  0.8345 -0.2504  0.3936
  651SOL     OW 1951   0.910   1.528   1.595 -0.0733  0.2910  0.1630
  651SOL    HW1 1952   0.961   1.588   1.658  2.3504  0.9046 -0.4163
  651SOL    HW2 1953   0.957   1.508   1.506 -1.4667 -0.0259  3.5553
  652SOL     OW 1954   2.310   2.421   2.494 -0.0554 -0.3338  0.0706
  652SOL    HW1 1955   2.218   2.376   2.514 -3.6649 -0.3263 -1.2277
  652SOL    HW2 1956   2.301   2.519   2.458 -0.1627  1.4443  2.6772
  653SOL     OW 1957   2.711   1.234   0.202 -0.4385  0.0385 -0.7005
  653SOL    HW1 1958   2.736   1.297   0.281  1.0119  0.8394 -4.1610
  653SOL    HW2 1959   2.741   1.136   0.214 -0.8736  1.5496  0.6165
  654SOL     OW 1960   1.234   2.253   1.256 -0.5139 -0.2676 -0.0193
  654SOL    HW1 1961   1.258   2.179   1.327  0.7459 -2.4164  0.5914
  654SOL    HW2 1962   1.292   2.247   1.170  0.3218  2.8934 -0.1185
  655SOL     OW 1963   0.160   0.959   1.977 -0.6201 -0.1942 -0.3015
  655SOL    HW1 1964   0.223   0.906   1.914  2.1884 -1.0470  1.9428
  655SOL    HW2 1965   0.163   1.059   1.949 -1.2374 -0.5216  1.5790
  656SOL     OW 1966   2.565   2.426   2.655 -0.1474  0.3100 -0.0813
  656SOL    HW1 1967   2.662   2.420   2.614  3.4356 -0.4060  0.6333
  656SOL    HW2 1968   2.493   2.395   2.585 -0.7340 -0.6122  2.5072
  657SOL     OW 1969   3.002   1.008   1.892  0.2002 -0.5279  0.0719
  657SOL    HW1 1970   2.992   1.111   1.914  0.9991  0.7144  0.9448
  657SOL    HW2 1971   3.096   0.972   1.911 -1.4770  2.2634  0.8555
  658SOL     OW 1972   1.632   0.191   2.382  0.0674  0.2220  0.4262
  658SOL    HW1 1973   1.678   0.124   2.448  0.9657 -0.1735  2.2648
  658SOL    HW2 1974   1.696   0.209   2.306  0.3683 -0.2828  0.7347
  659SOL     OW 1975   1.404   0.619   2.838  0.7413 -0.5173  0.3788
  659SOL    HW1 1976   1.450   0.710   2.867  2.6034  2.3528  0.1725
  659SOL    HW2 1977   1.304   0.625   2.862  1.6251  0.5118 -2.4172
  660SOL     OW 1978   1.407   0.347   1.397 -0.9070 -0.2389  0.4633
  660SOL    HW1 1979   1.404   0.429   1.460 -0.2394 -1.5580 -1.1918
  660SOL    HW2 1980   1.484   0.276   1.415  2.8847  0.3333  0.2905
  661SOL     OW 1981   2.463   1.187   0.668  0.7436  0.2578 -0.5629
  661SOL    HW1 1982   2.479   1.175   0.567  1.1696  2.1182  3.0983
  661SOL    HW2 1983   2.414   1.278   0.686  1.4200  2.0071  1.0849
  662SOL     OW 1984   1.415   0.405   1.742  0.1368  0.5766  0.0418
  662SOL    HW1 1985   1.347   0.327   1.748 -0.6064 -0.0777  0.7749
  662SOL    HW2 1986   1.407   0.464   1.827  2.0393 -0.6345  2.4867
  663SOL     OW 1987   0.774   1.547   2.228 -0.1912  0.2137  0.4415
  663SOL    HW1 1988   0.702   1.619   2.225  2.5265 -3.4461 -2.2362
  663SOL    HW2 1989   0.762   1.502   2.138 -2.7437 -1.4460  0.9490
  664SOL     OW 1990   1.614   2.080   1.438  0.8341  0.4991  0.1583
  664SOL    HW1 1991   1.554   2.017   1.490  1.0175  0.1947  0.7534
  664SOL    HW2 1992   1.715   2.054   1.438 -0.1800  0.9432  0.6122
  665SOL     OW 1993   2.260   0.676   1.937  0.3955 -0.1618 -0.4719
  665SOL    HW1 1994   2.167   0.632   1.936  0.2389 -3.8765 -0.2913
  665SOL    HW2 1995   2.303   0.675   2.035 -0.2737 -0.3436  2.0330
  666SOL     OW 1996   0.437   2.299   0.361 -0.1386  0.3264  0.2057
  666SOL    HW1 1997   0.479   2.366   0.426 -1.2319  2.0920  0.9110
  666SOL    HW2 1998   0.332   2.286   0.372 -1.9120 -0.1223 -0.4581
  667SOL     OW 1999   2.040   0.199   1.197 -0.2426 -0.1709 -0.3682
  667SOL    HW1 2000   2.027   0.293   1.155 -0.9549  1.2240  0.7408
  667SOL    HW2 2001   1.951   0.163   1.236 -2.7228  2.4506 -0.5252
  668SOL     OW 2002   2.065   0.469   1.132  0.0017 -0.3053  0.0584
  668SOL    HW1 2003   2.146   0.499   1.063  1.6994 -0.0192 -0.7179
  668SOL    HW2 2004   2.095   0.452   1.231 -1.1837  2.3688  0.4837
  669SOL     OW 2005   0.007   2.152   1.043  0.0764  0.7063 -0.4089
  669SOL    HW1 2006  -0.073   2.188   0.992  1.4137  0.3243  1.7546
  669SOL    HW2 2007   0.040   2.222   1.110 -0.0906 -1.7707 -4.8487
  670SOL     OW 2008   2.855   2.349   1.984 -0.0114 -0.2750 -0.2700
  670SOL    HW1 2009   2.819   2.310   2.072  1.3604  1.9892 -2.8888
  670SOL    HW2 2010   2.843   2.452   1.984 -0.4451 -0.0026  0.1004
  671SOL     OW 2011   1.727   1.710   1.486  0.7670 -0.7228 -0.1944
  671SOL    HW1 2012   1.755   1.719   1.389  0.3773  1.4493  1.5448
  671SOL    HW2 2013   1.626   1.716   1.497 -1.1483 -1.2761 -0.7959
  672SOL     OW 2014   0.414   0.627   2.393  0.0780 -0.0488 -0.1186
  672SOL    HW1 2015   0.465   0.645   2.302  0.9234 -2.3769 -0.4913
  672SOL    HW2 2016   0.326   0.677   2.402  0.4722  1.2170 -0.9735
  673SOL     OW 2017   0.126   1.194   1.149  0.3561 -0.3803  0.2840
  673SOL    HW1 2018   0.153   1.262   1.220  1.6731 -2.4328  0.1674
  673SOL    HW2 2019   0.206   1.156   1.090  0.2933  0.5983 -0.4915
  674SOL     OW 2020   1.691   2.930   0.240 -0.3962 -0.0800 -0.1872
  674SOL    HW1 2021   1.700   3.014   0.175 -1.3816  0.9227 -0.8152
  674SOL    HW2 2022   1.715   2.847   0.185 -0.4919  0.2530  0.2511
  675SOL     OW 2023   1.735   0.808   2.334  0.3284  0.1555  0.1492
  675SOL    HW1 2024   1.809   0.814   2.267  0.6984  1.6253  2.7190
  675SOL    HW2 2025   1.673   0.724   2.319 -0.6988 -0.4635  1.5114
  676SOL     OW 2026   2.518   1.475   1.958 -0.3263 -0.3749  0.2832
  676SOL    HW1 2027   2.475   1.457   1.863  2.7462 -2.0991  0.8659
  676SOL    HW2 2028   2.557   1.393   1.997  0.3054  0.0721 -1.8542
  677SOL     OW 2029   1.855   0.655   0.902  0.9281 -0.2037 -0.4735
  677SOL    HW1 2030   1.800   0.698   0.983  4.2299  2.1045  2.0154
  677SOL    HW2 2031   1.884   0.554   0.920 -1.5426  0.7636 -0.4249
  678SOL     OW 2032   0.035   0.756   1.668  0.1328  0.2639  0.3375
  678SOL    HW1 2033   0.125   0.791   1.710 -1.0634 -1.4460  0.5321
  678SOL    HW2 2034  -0.026   0.718   1.742 -1.3263  0.5146  0.0955
  679SOL     OW 2035   2.558   1.192   1.098  0.6594  0.2370 -0.1460
  679SOL    HW1 2036   2.474   1.229   1.134  2.3961 -0.6056  1.3420
  679SOL    HW2 2037   2.585   1.101   1.136 -1.0296 -1.5143  1.2410
  680SOL     OW 2038   2.839   0.580   1.699  0.0476  0.4901  0.1150
  680SOL    HW1 2039   2.832   0.635   1.607 -2.6533  0.0881 -2.4820
  680SOL    HW2 2040   2.875   0.632   1.780 -1.9141  0.7138 -0.5660
  681SOL     OW 2041   3.011   0.157   1.638  0.0225  0.5963  0.1886
  681SOL    HW1 2042   3.065   0.124   1.554  5.2800  0.7342 -0.9733
  681SOL    HW2 2043   2.948   0.248   1.625 -1.9683  2.7384 -0.4443
  682SOL     OW 2044   0.825   3.096   1.304  0.3827  0.0077 -0.0982
  682SOL    HW1 2045   0.734   3.066   1.341 -2.5742  0.7937  1.8137
  682SOL    HW2 2046   0.815   3.129   1.204  3.0872  1.0976 -2.5988
  683SOL     OW 2047   1.357   0.235   2.188 -0.5827 -0.3252  0.1642
  683SOL    HW1 2048   1.339   0.275   2.282  0.6934 -0.2867  1.3109
  683SOL    HW2 2049   1.441   0.285   2.149  0.7829  3.9086 -0.1021
  684SOL     OW 2050   1.465   2.121   0.477 -0.8379 -0.2295  0.5962
  684SOL    HW1 2051   1.520   2.043   0.523  0.0994 -0.6095  0.2107
  684SOL    HW2 2052   1.380   2.082   0.432 -0.4101 -0.2202 -0.3604
  685SOL     OW 2053   2.130   2.043   1.952 -0.5320 -0.2613  0.3382
  685SOL    HW1 2054   2.201   2.023   1.884  0.0397 -2.0877  2.2613
  685SOL    HW2 2055   2.157   1.999   2.043 -1.8195  2.0681 -0.7222
  686SOL     OW 2056   1.538   1.810   2.707 -0.3525  0.1642 -0.3324
  686SOL    HW1 2057   1.547   1.771   2.802 -0.6328 -1.9431  0.1484
  686SOL    HW2 2058   1.554   1.738   2.635  2.6694  0.4114 -0.4192
  687SOL     OW 2059   1.290   2.477   1.981 -0.3808 -0.1329 -0.1442
  687SOL    HW1 2060   1.336   2.384   1.998  1.7338 -0.4902 -2.2385
  687SOL    HW2 2061   1.341   2.563   2.023  1.1258  2.5541  0.4173
  688SOL     OW 2062   2.080   1.495   1.780  0.3379  0.3249 -0.7398
  688SOL    HW1 2063   2.158   1.563   1.786  0.4202 -2.0012 -1.5391
  688SOL    HW2 2064   2.063   1.475   1.675 -2.3556  1.3456 -0.0012
  689SOL     OW 2065   2.394   1.081   2.725  0.4832 -0.2206 -0.7738
  689SOL    HW1 2066   2.305   1.037   2.748  1.3566  0.3470  1.0612
  689SOL    HW2 2067   2.459   1.095   2.805 -0.4738  3.1116 -0.4559
  690SOL     OW 2068   2.221   2.814   0.038  0.0261  0.0271 -0.6681
  690SOL    HW1 2069   2.142   2.774  -0.017 -1.2426  3.1256 -2.5061
  690SOL    HW2 2070   2.206   2.802   0.141  2.0775  1.6932 -1.9081
  691SOL     OW 2071   2.611   0.462   2.215 -0.2138 -0.0152 -0.2889
  691SOL    HW1 2072   2.652   0.381   2.165  0.1806 -2.8161 -2.9700
  691SOL    HW2 2073   2.607   0.540   2.154 -2.1297 -0.9086  1.7560
  692SOL     OW 2074   2.720   1.226   0.751 -0.1421 -0.1776 -0.2365
  692SOL    HW1 2075   2.623   1.220   0.720 -2.4138  0.1020  1.2282
  692SOL    HW2 2076   2.746   1.320   0.789  0.3312 -1.5630  1.3952
  693SOL     OW 2077   2.876   2.943   0.623 -0.1862  0.0767  0.1308
  693SOL    HW1 2078   2.863   3.022   0.687  1.0524 -1.6930  2.8078
  693SOL    HW2 2079   2.824   2.954   0.532  0.8059 -2.9722 -1.8165
  694SOL     OW 2080   2.363   2.168   0.083 -0.0394  0.5307  0.0401
  694SOL    HW1 2081   2.359   2.266   0.114  0.5419  0.8071 -0.9896
  694SOL    HW2 2082   2.281   2.142   0.029  0.0382  0.2824 -0.7442
  695SOL     OW 2083   0.586   2.999   1.420 -0.2354 -0.2204  0.0457
  695SOL    HW1 2084   0.514   2.931   1.388 -1.5370 -1.1124  0.4984
  695SOL    HW2 2085   0.562   3.045   1.507  0.2683  1.6671  0.9119
  696SOL     OW 2086   2.766   1.952   0.720 -0.0757 -0.4136  0.5908
  696SOL    HW1 2087   2.851   1.891   0.732  1.4395  0.1298 -1.4663
  696SOL    HW2 2088   2.768   2.005   0.630 -1.9004  0.6125  1.8092
  697SOL     OW 2089   1.595   2.029   1.828 -0.0808  0.1501 -0.3299
  697SOL    HW1 2090   1.683   1.977   1.848 -1.3557 -1.7159  1.8122
  697SOL    HW2 2091   1.608   2.126   1.784  1.0936 -0.9813  0.8129
  698SOL     OW 2092   2.940   0.432   2.781 -0.2439  0.3180  0.1668
  698SOL    HW1 2093   2.940   0.385   2.695  0.8252  1.8350  2.4988
  698SOL    HW2 2094   2.988   0.372   2.850  2.5450 -0.5267 -4.4025
  699SOL     OW 2095   1.567   0.076   2.921  0.2211 -0.0879 -0.1032
  699SOL    HW1 2096   1.538  -0.013   2.875  1.2775 -0.2579  3.2951
  699SOL    HW2 2097   1.605   0.142   2.851  1.0623  1.5350 -2.2070
  700SOL     OW 2098   0.958   2.320   1.334  0.0009 -0.5332 -0.4789
  700SOL    HW1 2099   1.055   2.283   1.317  0.6753  2.8993 -0.4474
  700SOL    HW2 2100   0.886   2.292   1.265  0.4909 -2.2072 -1.4176
  701SOL     OW 2101   1.903   2.898   3.062  0.2601 -0.8802  0.2559
  701SOL    HW1 2102   1.894   2.831   3.141  4.0513 -1.7446 -0.3744
  701SOL    HW2 2103   1.905   3.003   3.084 -0.9427 -0.8233 -0.4939
  702SOL     OW 2104   2.067   1.331   1.999 -0.1944 -0.4208  0.6240
  702SOL    HW1 2105   2.149   1.276   1.970 -2.6787  0.6435 -0.4474
  702SOL    HW2 2106   2.037   1.395   1.921  0.7311  1.1851 -1.2705
  703SOL     OW 2107   1.932   0.885   1.440 -0.1788 -0.0154 -0.4279
  703SOL    HW1 2108   1.896   0.810   1.504  1.0618 -1.2208 -1.1749
  703SOL    HW2 2109   2.013   0.927   1.487 -1.9429 -1.7468 -0.8253
  704SOL     OW 2110   0.310   2.055   1.718 -0.2056  0.2672 -0.7219
  704SOL    HW1 2111   0.347   1.978   1.770  0.1048  2.7380 -1.3266
  704SOL    HW2 2112   0.384   2.125   1.687  0.7344 -2.1723 -0.3495
  705SOL     OW 2113   2.529   1.506   0.957 -0.1419 -0.2007  0.5353
  705SOL    HW1 2114   2.482   1.471   0.871  1.4874 -1.2197  1.2168
  705SOL    HW2 2115   2.625   1.468   0.963  0.0615 -0.8281  2.1291
  706SOL     OW 2116   0.643   1.621   1.849 -0.1507 -0.1402 -0.6527
  706SOL    HW1 2117   0.662   1.546   1.917 -0.2918 -0.3295 -0.1941
  706SOL    HW2 2118   0.670   1.712   1.888 -0.6649  1.9220 -0.9192
  707SOL     OW 2119   2.266   1.205   1.873  0.0556 -0.0575  0.4049
  707SOL    HW1 2120   2.366   1.195   1.895  0.2288 -0.8883 -1.6529
  707SOL    HW2 2121   2.223   1.117   1.830  0.0534  1.1001 -1.1777
  708SOL     OW 2122   3.090   0.504   3.077 -0.0847  0.6885 -0.1996
  708SOL    HW1 2123   3.058   0.591   3.031  0.1497  1.3774 -0.4052
  708SOL    HW2 2124   3.064   0.411   3.028 -3.6027  0.4462 -3.1078
  709SOL     OW 2125   1.830   1.844   0.242 -0.3145 -0.1957  0.2736
  709SOL    HW1 2126   1.860   1.938   0.271 -2.0733 -2.1752 -1.0572
  709SOL    HW2 2127   1.838   1.837   0.138 -0.7082  2.1004  0.4929
  710SOL     OW 2128   1.753   1.654   2.434  0.5752  0.3108 -0.0951
  710SOL    HW1 2129   1.779   1.619   2.341 -2.0709 -2.1648  2.2476
  710SOL    HW2 2130   1.735   1.578   2.506  1.5769  2.4110  0.4187
  711SOL     OW 2131   2.623   2.970   1.021  0.2730  0.1909 -0.8873
  711SOL    HW1 2132   2.600   3.059   0.972 -0.4584  0.5294 -3.5433
  711SOL    HW2 2133   2.724   2.948   1.029  2.2267  2.1447  2.2260
  712SOL     OW 2134   1.383   2.211   1.987 -0.2394 -0.0298  0.3760
  712SOL    HW1 2135   1.482   2.184   2.012 -1.0238  0.8322 -0.5210
  712SOL    HW2 2136   1.352   2.184   1.891 -1.6100  2.1306  2.3998
  713SOL     OW 2137   2.894   1.477   2.536  0.1267 -0.2384 -0.1359
  713SOL    HW1 2138   2.880   1.374   2.516  1.4364 -1.4129  1.6988
  713SOL    HW2 2139   2.874   1.503   2.635  0.6848 -1.5242  0.0570
  714SOL     OW 2140   2.723   0.509   2.455  0.2282 -0.2908  0.3024
  714SOL    HW1 2141   2.640   0.507   2.517  0.7893  0.3698  0.3916
  714SOL    HW2 2142   2.695   0.488   2.355 -0.5092  0.2016  1.4152
  715SOL     OW 2143   1.574   2.022   1.107 -0.0707  0.0634 -0.0576
  715SOL    HW1 2144   1.491   2.074   1.066 -3.3140 -1.2363  1.0983
  715SOL    HW2 2145   1.605   2.064   1.195  1.1508 -2.0994 -2.5700
  716SOL     OW 2146   1.191   0.166   1.470  1.0481 -0.1657 -0.1122
  716SOL    HW1 2147   1.085   0.193   1.453  0.8305 -1.4263 -2.7625
  716SOL    HW2 2148   1.252   0.241   1.426  1.3268  0.9848  1.1212
  717SOL     OW 2149   1.163   0.503   1.564 -0.2085  0.0461  0.2105
  717SOL    HW1 2150   1.237   0.564   1.605  1.5164 -3.2685 -1.3640
  717SOL    HW2 2151   1.168   0.521   1.463  1.5801 -0.1801  1.1703
  718SOL     OW 2152   0.690   0.943   0.997  0.1079  0.6578 -0.5410
  718SOL    HW1 2153   0.643   0.919   0.907  0.6932 -2.7729  0.3814
  718SOL    HW2 2154   0.674   1.044   1.032 -0.5230  2.0931  0.9586
  719SOL     OW 2155   0.612   1.785   2.279  0.5779  0.2636 -0.3677
  719SOL    HW1 2156   0.687   1.823   2.340 -0.5222 -0.2208  0.3799
  719SOL    HW2 2157   0.537   1.749   2.345 -0.6157 -2.6728  2.3554
  720SOL     OW 2158   2.193   1.163   0.316 -0.0307 -0.1341 -0.5126
  720SOL    HW1 2159   2.205   1.081   0.248  0.0784  0.2519 -0.0391
  720SOL    HW2 2160   2.163   1.131   0.414  0.2922  0.7270 -1.7052
  721SOL     OW 2161   2.264   3.010   2.122 -0.0781 -0.1693  0.1033
  721SOL    HW1 2162   2.248   3.068   2.042 -1.2696 -0.8768  0.5268
  721SOL    HW2 2163   2.230   3.046   2.214 -1.9886  1.3787  0.5566
  722SOL     OW 2164   2.372   1.573   0.503  0.3355 -0.0754 -0.3953
  722SOL    HW1 2165   2.441   1.590   0.431  0.7116 -4.4893 -0.5531
  722SOL    HW2 2166   2.308   1.656   0.512  1.3546  1.4973  0.6058
  723SOL     OW 2167   2.551   2.726   1.949  0.0389 -0.1884  0.4219
  723SOL    HW1 2168   2.578   2.805   2.009  1.7822 -0.1349  0.6217
  723SOL    HW2 2169   2.448   2.705   1.945  0.6177 -0.3043  4.0884
  724SOL     OW 2170   0.519   2.496   2.420  0.7883 -0.2284  0.4586
  724SOL    HW1 2171   0.432   2.475   2.469 -0.9302  2.2390 -1.5112
  724SOL    HW2 2172   0.598   2.488   2.485 -2.3588  1.3991  2.0444
  725SOL     OW 2173   2.468   2.839   1.520  0.1870  0.0797  0.1430
  725SOL    HW1 2174   2.477   2.893   1.428 -1.2982 -0.1906 -3.4323
  725SOL    HW2 2175   2.473   2.735   1.507 -2.5412  1.1063 -1.8573
  726SOL     OW 2176   2.516   2.293   0.715  0.1785 -0.5934  0.1035
  726SOL    HW1 2177   2.463   2.380   0.705 -0.8495 -2.2524 -0.7298
  726SOL    HW2 2178   2.482   2.225   0.634 -0.2963 -2.2095 -1.0698
  727SOL     OW 2179   0.149   3.098   0.048  0.2574 -0.1519 -0.0100
  727SOL    HW1 2180   0.209   3.012   0.038 -1.1463 -2.1747 -1.9077
  727SOL    HW2 2181   0.073   3.096  -0.017  3.0759 -0.8872 -0.4898
  728SOL     OW 2182   2.897   0.655   0.968 -0.4445 -0.0686  0.4878
  728SOL    HW1 2183   2.811   0.691   0.922 -3.3281 -0.3019 -0.5109
  728SOL    HW2 2184   2.888   0.632   1.067  0.2483 -0.5051  0.1607
  729SOL     OW 2185   3.054   2.490   0.777  0.1458 -0.6597 -0.4036
  729SOL    HW1 2186   3.009   2.422   0.849 -2.8845 -2.2525  2.1116
  729SOL    HW2 2187   3.127   2.460   0.711 -1.9674 -2.0821 -0.4705
  730SOL     OW 2188   2.625   0.727   0.849 -0.3897 -0.0440 -0.4411
  730SOL    HW1 2189   2.591   0.826   0.833  1.1198 -2.0666 -0.1344
  730SOL    HW2 2190   2.676   0.683   0.772  0.0783  0.9723  1.7537
  731SOL     OW 2191   0.100   2.072   2.508  0.1827  0.4296 -0.1496
  731SOL    HW1 2192   0.110   2.131   2.596  1.9233  0.3332  1.4725
  731SOL    HW2 2193   0.066   2.121   2.422  3.3508  0.2443 -0.6725
  732SOL     OW 2194   1.172   2.820   1.948 -0.6944 -0.3414  0.0330
  732SOL    HW1 2195   1.184   2.780   2.044  0.3358 -0.6956  2.0944
  732SOL    HW2 2196   1.194   2.751   1.872  0.8685 -1.6334 -0.1111
  733SOL     OW 2197   3.050   0.588   2.228  0.4608  0.0722  0.6352
  733SOL    HW1 2198   3.126   0.619   2.171  0.0602  1.4871 -0.3988
  733SOL    HW2 2199   2.975   0.531   2.177  1.1037 -2.1733  1.4313
  734SOL     OW 2200   1.424   0.382   2.705 -0.1001 -0.2272  0.3992
  734SOL    HW1 2201   1.426   0.471   2.760 -1.6138 -0.8749  1.1173
  734SOL    HW2 2202   1.348   0.317   2.731 -0.2933 -0.3139 -1.0176
  735SOL     OW 2203   2.896   2.659   2.276  0.4659 -0.3420  0.1645
  735SOL    HW1 2204   2.866   2.658   2.176 -1.4468  1.2813 -0.7045
  735SOL    HW2 2205   2.993   2.688   2.282 -0.0250 -0.7761 -0.4267
  736SOL     OW 2206   0.804   0.309   2.597 -0.2756  0.0729  0.7227
  736SOL    HW1 2207   0.718   0.365   2.574 -1.2295 -0.3931  1.7604
  736SOL    HW2 2208   0.809   0.218   2.537 -1.3399 -0.3475 -0.2673
  737SOL     OW 2209   2.682   0.491   2.857  0.5540  0.2945  0.7744
  737SOL    HW1 2210   2.658   0.444   2.947 -0.8354  0.1844 -0.9183
  737SOL    HW2 2211   2.777   0.465   2.824  0.7628  2.9702  0.4297
  738SOL     OW 2212   1.642   1.263   2.891  0.2793 -0.1925 -0.0392
  738SOL    HW1 2213   1.748   1.251   2.875  0.7964  0.0693 -0.9077
  738SOL    HW2 2214   1.591   1.172   2.871 -1.1146 -1.1172 -0.9912
  739SOL     OW 2215   1.742   0.648   0.656 -0.3223  0.0249 -0.1983
  739SOL    HW1 2216   1.781   0.660   0.750 -0.0947 -0.7552 -1.6511
  739SOL    HW2 2217   1.779   0.565   0.609  2.0726  0.1459 -1.1976
  740SOL     OW 2218   1.984   1.908   2.281 -0.1547  0.7222 -1.1307
  740SOL    HW1 2219   2.035   1.839   2.344  0.4660 -3.1902 -0.0697
  740SOL    HW2 2220   1.883   1.888   2.272  1.5872 -2.1417  1.0170
  741SOL     OW 2221   2.561   0.047   2.557  0.1400 -0.2871  1.0965
  741SOL    HW1 2222   2.661   0.038   2.584 -0.0595 -0.0341 -2.6208
  741SOL    HW2 2223   2.560   0.086   2.461  0.4163 -0.8394 -0.7707
  742SOL     OW 2224   2.219   1.427   0.211  0.0018  0.5336  0.7991
  742SOL    HW1 2225   2.149   1.500   0.227  0.8497 -0.8683 -3.0750
  742SOL    HW2 2226   2.202   1.344   0.266  1.9836  2.4467 -1.8288
  743SOL     OW 2227   1.847   0.677   2.636  0.6932 -0.2411 -0.3828
  743SOL    HW1 2228   1.812   0.602   2.580 -0.7638  0.2331  3.8724
  743SOL    HW2 2229   1.767   0.741   2.671 -2.9160 -0.8093 -1.0803
  744SOL     OW 2230   2.622   2.120   0.164  0.1802  0.2218  0.0072
  744SOL    HW1 2231   2.524   2.098   0.133 -2.4654 -0.1394  1.2606
  744SOL    HW2 2232   2.610   2.139   0.264 -2.0195 -1.2668 -3.5013
  745SOL     OW 2233   2.152   2.621   2.293  0.5230 -0.2702  0.0674
  745SOL    HW1 2234   2.051   2.619   2.276 -0.1017  0.3853  1.4089
  745SOL    HW2 2235   2.179   2.673   2.378 -2.9184 -3.2742  2.6609
  746SOL     OW 2236   3.083   2.614   1.743  0.7003 -0.3046 -0.4015
  746SOL    HW1 2237   3.166   2.638   1.683 -0.4766  3.4414  0.1495
  746SOL    HW2 2238   3.051   2.702   1.793 -0.3032  0.5659 -1.2920
  747SOL     OW 2239   0.052   1.756   1.684 -0.1429  0.0811 -0.2482
  747SOL    HW1 2240  -0.026   1.687   1.673  2.1690 -0.1545 -0.0068
  747SOL    HW2 2241   0.105   1.769   1.589  2.1381  0.3782 -2.8866
  748SOL     OW 2242   1.835   2.736   2.845  0.2101  0.3829 -0.4813
  748SOL    HW1 2243   1.849   2.806   2.918 -0.1313  0.5126 -1.2785
  748SOL    HW2 2244   1.741   2.708   2.811  2.6409 -1.5236 -3.9326
  749SOL     OW 2245   1.334   3.050   0.945 -0.2855  0.1455  0.8291
  749SOL    HW1 2246   1.261   2.981   0.963  3.0128  3.5107  2.0727
  749SOL    HW2 2247   1.389   3.036   0.854  1.9789 -0.0188 -0.8572
  750SOL     OW 2248   2.279   0.178   1.901  0.3855 -0.1725  0.1887
  750SOL    HW1 2249   2.273   0.236   1.817 -1.1366  1.2311  1.6351
  750SOL    HW2 2250   2.325   0.233   1.977  1.2965  2.4575  1.7640
  751SOL     OW 2251   0.877   2.151   2.803  0.4172  0.6746 -0.1398
  751SOL    HW1 2252   0.941   2.148   2.885 -1.4738 -1.5455 -0.2101
  751SOL    HW2 2253   0.780   2.127   2.834 -0.8139  0.2838 -0.9796
  752SOL     OW 2254   1.321   0.857   1.316 -0.3848 -0.1291  0.8939
  752SOL    HW1 2255   1.375   0.941   1.290  0.7133 -0.5892 -1.0310
  752SOL    HW2 2256   1.372   0.769   1.347  1.5835 -1.3270  0.8810
  753SOL     OW 2257   0.925   2.607   1.653 -0.1361  0.1674  0.1635
  753SOL    HW1 2258   1.026   2.631   1.681  0.0442 -0.4658  1.5633
  753SOL    HW2 2259   0.881   2.676   1.590  2.6987 -0.8117 -0.3487
  754SOL     OW 2260   1.093   1.230   2.986 -0.4022 -0.4457 -0.2377
  754SOL    HW1 2261   1.170   1.166   2.975 -1.7513  1.3500  1.6811
  754SOL    HW2 2262   1.134   1.322   3.015  1.4768 -2.4564 -0.4265
  755SOL     OW 2263   2.004   0.460   2.237 -0.1851  0.1425  0.2551
  755SOL    HW1 2264   2.065   0.377   2.254  0.0143  0.8483  1.9447
  755SOL    HW2 2265   1.932   0.462   2.310 -0.4345  0.3334 -2.6168
  756SOL     OW 2266   2.555   1.049   2.961 -0.1057 -0.0653 -0.5700
  756SOL    HW1 2267   2.653   1.037   2.989  0.4048  3.4321 -0.3859
  756SOL    HW2 2268   2.506   0.957   2.983 -0.6557 -0.1483 -1.0651
  757SOL     OW 2269   0.040   0.531   1.896  0.0159 -0.1164 -0.6011
  757SOL    HW1 2270   0.111   0.509   1.825 -1.9744 -1.6853  2.7680
  757SOL    HW2 2271  -0.018   0.449   1.916 -1.7612 -0.1148 -4.9628
  758SOL     OW 2272   2.344   0.085   1.490  0.7138 -0.3151 -0.1830
  758SOL    HW1 2273   2.305  -0.006   1.512  3.2267  1.5399  0.3854
  758SOL    HW2 2274   2.351   0.099   1.386  1.4351 -0.2712  3.2796
  759SOL     OW 2275   1.711   0.115   0.054  0.2710 -0.4334  0.3431
  759SOL    HW1 2276   1.672   0.137  -0.040  0.6530 -0.0185 -0.4718
  759SOL    HW2 2277   1.815   0.094   0.047 -0.9475 -0.7523 -0.4861
  760SOL     OW 2278   2.692   2.084   2.823 -0.1708  0.6364 -0.0799
  760SOL    HW1 2279   2.728   2.007   2.885  0.6384  0.7227 -1.4396
  760SOL    HW2 2280   2.650   2.160   2.877  1.7744  1.1845  1.0164
  761SOL     OW 2281   1.892   1.744   1.706  0.0573  0.8688 -0.0725
  761SOL    HW1 2282   1.943   1.656   1.721 -0.0818 -2.1465 -1.5350
  761SOL    HW2 2283   1.824   1.743   1.632 -0.1643  1.6809 -0.2188
  762SOL     OW 2284   0.504   2.354   0.958 -0.4357  0.1695  0.2000
  762SOL    HW1 2285   0.531   2.411   0.869  1.5171  1.6156 -1.9120
  762SOL    HW2 2286   0.560   2.388   1.038  1.1409  0.5786 -0.7222
  763SOL     OW 2287   2.108   1.565   2.964 -0.1410 -0.3143 -0.5376
  763SOL    HW1 2288   2.188   1.498   2.978  4.2625 -1.1917 -1.2077
  763SOL    HW2 2289   2.017   1.520   2.997 -2.3921 -0.0671  1.4776
  764SOL     OW 2290   0.662   0.626   0.820 -0.2296  0.0798 -0.0591
  764SOL    HW1 2291   0.618   0.537   0.797  3.1276 -0.4074 -0.1654
  764SOL    HW2 2292   0.753   0.604   0.865  1.3933 -0.4168 -0.7815
  765SOL     OW 2293   0.706   0.243   0.743  0.3135  0.8041 -0.2914
  765SOL    HW1 2294   0.791   0.280   0.695 -0.8851 -0.2312  2.1964
  765SOL    HW2 2295   0.703   0.237   0.852 -1.0580 -0.6931  1.6584
  766SOL     OW 2296   2.848   2.119   0.024  0.4206 -0.3667  0.1727
  766SOL    HW1 2297   2.761   2.115   0.076 -0.8474 -0.6136 -1.2819
  766SOL    HW2 2298   2.910   2.201   0.027 -0.7848 -1.5675  2.0194
  767SOL     OW 2299   2.795   1.594   0.627  0.7158 -0.4626 -0.3856
  767SOL    HW1 2300   2.711   1.614   0.687  1.0292  1.2370  1.7779
  767SOL    HW2 2301   2.855   1.674   0.615 -1.6269  0.5227  6.4637
  768SOL     OW 2302   1.026   0.063   0.269  0.2320  0.9718 -0.3457
  768SOL    HW1 2303   0.979   0.086   0.356  1.6940  0.8136  0.9606
  768SOL    HW2 2304   1.122   0.107   0.263 -2.7438  3.5493  1.2090
  769SOL     OW 2305   1.043   1.924   2.255 -0.6918 -0.3133 -0.3699
  769SOL    HW1 2306   0.954   1.930   2.306  3.3106 -1.0940  0.1627
  769SOL    HW2 2307   1.123   1.899   2.314 -0.7204 -4.2697 -0.4560
  770SOL     OW 2308   0.190   1.114   2.308  0.1258 -0.6324  0.1679
  770SOL    HW1 2309   0.166   1.171   2.396  0.4325  2.8778 -1.0757
  770SOL    HW2 2310   0.125   1.133   2.231  1.0375 -0.0915 -1.0958
  771SOL     OW 2311   2.976   2.833   1.875  0.3217  0.0708  0.0753
  771SOL    HW1 2312   2.945   2.899   1.797 -0.2342  0.6284 -2.0301
  771SOL    HW2 2313   2.957   2.880   1.965  2.5475  0.3647 -0.2096
  772SOL     OW 2314   2.193   0.222   2.891  0.4228  0.0569 -0.1603
  772SOL    HW1 2315   2.258   0.142   2.893  1.1135  1.8163  0.3383
  772SOL    HW2 2316   2.192   0.267   2.985  0.1681 -3.3212 -2.7712
  773SOL     OW 2317   0.727   2.145   2.431  0.3263  0.2937  0.3218
  773SOL    HW1 2318   0.670   2.181   2.351  1.3722 -1.3524  2.8216
  773SOL    HW2 2319   0.689   2.172   2.521 -2.4050 -0.3112 -2.3064
  774SOL     OW 2320   2.046   3.097   2.630 -0.1896 -0.4256  0.1517
  774SOL    HW1 2321   2.048   3.199   2.650 -0.6066  1.0131  0.8151
  774SOL    HW2 2322   2.090   3.036   2.705 -0.2391  2.7676 -2.4314
  775SOL     OW 2323   2.519   2.857   2.381  0.1137 -0.3483  0.2765
  775SOL    HW1 2324   2.498   2.953   2.358  0.5003 -1.7669  1.1835
  775SOL    HW2 2325   2.611   2.854   2.427 -0.7446  3.1619  0.4120
  776SOL     OW 2326   3.097   1.276   0.202 -0.2338  0.7925  0.3270
  776SOL    HW1 2327   3.037   1.252   0.121 -0.3237  2.7275  1.5107
  776SOL    HW2 2328   3.040   1.280   0.286  1.5799 -1.3339 -0.4622
  777SOL     OW 2329   0.347   2.858   0.417 -0.8354 -0.0898  0.0565
  777SOL    HW1 2330   0.247   2.896   0.402 -1.8000 -0.0981 -0.6418
  777SOL    HW2 2331   0.422   2.915   0.370  2.2341  0.7393 -0.9724
  778SOL     OW 2332   1.339   1.952   0.181 -0.3289  0.5480 -0.1329
  778SOL    HW1 2333   1.305   1.967   0.278  0.6950 -0.0982  1.1117
  778SOL    HW2 2334   1.376   2.042   0.145 -1.0705 -2.5976  2.2249
  779SOL     OW 2335   0.179   0.845   0.492  0.5347  0.1718 -0.1057
  779SOL    HW1 2336   0.125   0.767   0.454  0.1973 -0.5595  0.5135
  779SOL    HW2 2337   0.115   0.912   0.544 -0.0058 -0.0612 -0.1510
  780SOL     OW 2338   0.121   0.207   2.285  0.4830 -0.0991 -0.2326
  780SOL    HW1 2339   0.199   0.272   2.296 -0.0326  0.6714 -2.2320
  780SOL    HW2 2340   0.148   0.124   2.232  0.7882 -1.6216 -1.5346
  781SOL     OW 2341   0.659   1.725   1.542  0.2008  0.6739  0.6587
  781SOL    HW1 2342   0.701   1.717   1.637 -2.5002  0.3105  0.5996
  781SOL    HW2 2343   0.574   1.671   1.526  1.2922  1.3676  0.3470
  782SOL     OW 2344   2.592   0.110   0.886  0.7686  0.9182 -0.2598
  782SOL    HW1 2345   2.509   0.126   0.824 -3.9324 -0.2835  1.1085
  782SOL    HW2 2346   2.591   0.180   0.960 -2.0569 -1.4446 -1.6708
  783SOL     OW 2347   2.861   0.762   2.573 -0.1226 -0.0996  0.5648
  783SOL    HW1 2348   2.809   0.798   2.652  0.9624  2.6540  0.0177
  783SOL    HW2 2349   2.817   0.682   2.530 -0.5450  3.1541  3.1710
  784SOL     OW 2350   1.472   2.182   0.095  0.0232 -0.7530  0.1262
  784SOL    HW1 2351   1.535   2.266   0.104 -0.5959  1.0543 -0.0217
  784SOL    HW2 2352   1.431   2.174  -0.005 -0.5590 -0.7773  0.7827
  785SOL     OW 2353   2.131   0.344   0.070 -0.0313  0.7695 -0.1607
  785SOL    HW1 2354   2.047   0.361   0.133 -2.1623  2.3367  0.6669
  785SOL    HW2 2355   2.163   0.425   0.017  2.7112 -0.5671 -1.7921
  786SOL     OW 2356   1.995   2.166   2.190 -0.0409 -0.6977 -0.7257
  786SOL    HW1 2357   2.005   2.076   2.240 -2.9709  3.1906 -2.2710
  786SOL    HW2 2358   2.086   2.196   2.142 -0.0674  2.3785  1.5778
  787SOL     OW 2359   1.411   0.591   1.009 -0.2256  0.5723 -0.0638
  787SOL    HW1 2360   1.332   0.659   1.028  3.4476  1.9090 -0.3769
  787SOL    HW2 2361   1.420   0.577   0.904  1.5519  1.6516 -0.0131
  788SOL     OW 2362   1.267   0.411   0.040  0.3997  0.3440 -0.5125
  788SOL    HW1 2363   1.180   0.383  -0.004 -0.5273  3.1869 -1.5203
  788SOL    HW2 2364   1.264   0.504   0.075  0.6048 -0.7072 -2.4723
  789SOL     OW 2365   2.553   0.111   1.855 -0.3169  0.2698  0.2721
  789SOL    HW1 2366   2.451   0.137   1.873  0.8100 -0.0694  1.3940
  789SOL    HW2 2367   2.563   0.015   1.829  2.1498  2.3548  0.9900
  790SOL     OW 2368   2.659   2.771   0.793 -0.2053 -0.2710  0.4687
  790SOL    HW1 2369   2.721   2.824   0.730 -0.4999  0.5058 -3.9576
  790SOL    HW2 2370   2.648   2.811   0.890 -3.8502  0.0905 -0.3308
  791SOL     OW 2371   1.912   1.213   0.206  0.0346  0.7011 -0.0588
  791SOL    HW1 2372   1.822   1.172   0.243 -2.0488  0.5755  0.8396
  791SOL    HW2 2373   1.988   1.155   0.242  0.0659 -0.3624 -2.5600
  792SOL     OW 2374   0.441   2.005   2.154  0.1409  0.5229 -0.4936
  792SOL    HW1 2375   0.521   1.947   2.187  3.0691 -0.2846  0.5974
  792SOL    HW2 2376   0.358   2.008   2.219 -1.4978 -1.3260 -1.3246
  793SOL     OW 2377   2.106   1.567   2.151  0.3972 -0.4092  0.0467
  793SOL    HW1 2378   2.183   1.616   2.101 -0.7593 -0.7943  1.1867
  793SOL    HW2 2379   2.101   1.470   2.134  2.0955  1.7236  2.4586
  794SOL     OW 2380   0.454   1.338   2.418 -0.2456 -0.3228  0.3350
  794SOL    HW1 2381   0.447   1.323   2.315  0.3605  1.9312 -0.8462
  794SOL    HW2 2382   0.473   1.439   2.436  0.7007 -0.2635  0.2913
  795SOL     OW 2383   2.435   2.289   1.779 -0.9751  0.1959 -0.9042
  795SOL    HW1 2384   2.384   2.309   1.866  0.1557  1.0310 -0.3847
  795SOL    HW2 2385   2.428   2.189   1.751  1.5450 -0.9196 -2.2792
  796SOL     OW 2386   3.059   1.119   2.680  0.3101  0.2083 -0.1892
  796SOL    HW1 2387   2.964   1.118   2.716  0.3161 -1.4068  0.3591
  796SOL    HW2 2388   3.123   1.140   2.755  0.0724  0.4951  0.1090
  797SOL     OW 2389   0.795   0.611   1.389  0.3078 -0.0116 -0.6145
  797SOL    HW1 2390   0.858   0.656   1.458 -0.1089 -2.1066  2.0980
  797SOL    HW2 2391   0.734   0.681   1.344  0.7377  1.7708 -1.4044
  798SOL     OW 2392   1.353   0.327   1.123  0.4057  0.9199 -0.2413
  798SOL    HW1 2393   1.375   0.323   1.223  0.8487  1.8338  2.5869
  798SOL    HW2 2394   1.369   0.418   1.083  0.7871 -3.6060  0.9638
  799SOL     OW 2395   1.908   2.700   1.042 -0.2444 -0.4929 -0.2751
  799SOL    HW1 2396   1.863   2.634   1.108 -1.9765 -2.0390 -1.2985
  799SOL    HW2 2397   1.842   2.727   0.973  1.6201 -2.4763  1.8423
  800SOL     OW 2398   2.951   0.744   1.894 -0.0457  0.1350  0.0062
  800SOL    HW1 2399   2.953   0.849   1.902 -0.9073 -0.3515  0.9006
  800SOL    HW2 2400   3.020   0.695   1.960  1.4858  1.9756  0.6044
  801SOL     OW 2401   1.937   2.247   0.100 -0.1189 -0.2637 -0.2731
  801SOL    HW1 2402   1.842   2.223   0.078 -1.7392 -0.2372  1.6662
  801SOL    HW2 2403   2.005   2.186   0.050  1.4082  2.5275 -0.5289
  802SOL     OW 2404   0.698   0.808   2.537 -0.1728 -0.3493  0.0774
  802SOL    HW1 2405   0.768   0.774   2.468 -1.4166 -0.0828 -0.9889
  802SOL    HW2 2406   0.597   0.811   2.502 -1.6058  2.8296  0.7178
  803SOL     OW 2407   0.969   0.029   0.808  0.0252  0.1056 -0.8037
  803SOL    HW1 2408   1.057   0.076   0.835  0.2347 -3.3705  0.4002
  803SOL    HW2 2409   0.914   0.083   0.742  1.6376 -0.4449 -0.4264
  804SOL     OW 2410   0.322   0.048   2.149  0.0599  0.1913 -0.2965
  804SOL    HW1 2411   0.344   0.149   2.135 -1.2937 -0.0930  0.0403
  804SOL    HW2 2412   0.261  -0.001   2.078 -0.5748  0.7390  0.2209
  805SOL     OW 2413   2.361   0.337   0.425 -0.3917  0.1354  0.3580
  805SOL    HW1 2414   2.444   0.362   0.481  1.9281  0.9302 -0.4057
  805SOL    HW2 2415   2.386   0.312   0.329  0.1024 -1.6319  0.7403
  806SOL     OW 2416   0.634   2.468   1.794  0.2757 -0.0495 -0.0909
  806SOL    HW1 2417   0.621   2.565   1.752 -1.1763 -0.7755 -2.3066
  806SOL    HW2 2418   0.727   2.426   1.787 -0.7131  0.1524  0.9517
  807SOL     OW 2419   2.483   0.829   0.352 -0.5629 -0.3596  0.1221
  807SOL    HW1 2420   2.558   0.873   0.409 -2.1038 -2.0696 -0.4556
  807SOL    HW2 2421   2.448   0.899   0.279 -0.0231 -0.1221 -1.4264
  808SOL     OW 2422   0.633   2.059   2.883  0.8973 -0.0004 -0.3428
  808SOL    HW1 2423   0.554   2.105   2.934 -2.0057  1.7115 -2.6871
  808SOL    HW2 2424   0.645   1.962   2.920 -1.5777 -1.7284 -1.4317
  809SOL     OW 2425   2.640   1.961   1.877 -0.2788  0.2055 -0.1536
  809SOL    HW1 2426   2.728   2.020   1.881 -0.2383 -1.8098  2.6595
  809SOL    HW2 2427   2.633   1.891   1.798  0.1630 -0.8941  0.1934
  810SOL     OW 2428   2.111   1.065   0.564  0.0394 -0.0166  0.4699
  810SOL    HW1 2429   2.097   0.981   0.622  3.1772 -1.5940  0.7020
  810SOL    HW2 2430   2.104   1.158   0.619  0.0675  3.4540 -1.2601
  811SOL     OW 2431   1.330   2.512   1.219  0.1885  0.3679  0.2797
  811SOL    HW1 2432   1.292   2.422   1.251  0.7095 -1.5721  2.1771
  811SOL    HW2 2433   1.272   2.594   1.247  1.4682 -1.0831  1.1282
  812SOL     OW 2434   1.408   0.745   1.927 -0.5130  0.1428 -0.1956
  812SOL    HW1 2435   1.453   0.831   1.953  1.9960 -0.2693 -0.4903
  812SOL    HW2 2436   1.307   0.743   1.935  0.4147 -0.0315 -1.7049
  813SOL     OW 2437   1.691   2.071   2.526 -0.8854 -0.4781  0.1103
  813SOL    HW1 2438   1.751   1.986   2.548  0.5424  1.1475  0.2761
  813SOL    HW2 2439   1.633   2.061   2.435 -0.9303 -1.0773 -1.7119
  814SOL     OW 2440   2.904   1.495   2.834  0.2404 -0.0734 -0.0878
  814SOL    HW1 2441   2.994   1.470   2.881  0.5333  0.3288  0.2649
  814SOL    HW2 2442   2.894   1.597   2.824 -0.8370  2.0703 -1.8200
  815SOL     OW 2443   2.174   2.897   2.772  0.3247 -0.0969 -0.0984
  815SOL    HW1 2444   2.156   2.810   2.828 -0.2110 -1.8176  1.2892
  815SOL    HW2 2445   2.229   2.963   2.831 -1.9076  0.3389 -1.4714
  816SOL     OW 2446   1.642   0.321   1.606 -0.1645 -0.1239  0.3906
  816SOL    HW1 2447   1.670   0.226   1.624 -2.1318  1.4854  0.2355
  816SOL    HW2 2448   1.567   0.356   1.672 -1.4793 -2.0566  1.4904
  817SOL     OW 2449   0.365   1.148   2.588 -1.0445  0.5056  0.2517
  817SOL    HW1 2450   0.292   1.193   2.646  1.8088 -0.5802  2.7437
  817SOL    HW2 2451   0.391   1.213   2.512 -1.3236 -1.9141 -0.1209
  818SOL     OW 2452   1.941   0.915   0.377  1.0876  0.2551 -0.3968
  818SOL    HW1 2453   2.047   0.903   0.370  3.5069  0.2660  0.2647
  818SOL    HW2 2454   1.920   0.987   0.450  3.0317 -0.9132 -3.1720
  819SOL     OW 2455   2.750   2.981   2.959 -0.2764  0.3009  0.0189
  819SOL    HW1 2456   2.800   2.892   2.932 -1.7297  3.0507  1.2207
  819SOL    HW2 2457   2.648   2.988   2.933  0.0207  0.2992  1.3819
  820SOL     OW 2458   1.220   1.071   0.610 -0.6126  0.0975 -0.5191
  820SOL    HW1 2459   1.212   1.165   0.654  2.6574  0.0502  0.6147
  820SOL    HW2 2460   1.203   0.992   0.682  3.1139  1.3132 -0.2275
  821SOL     OW 2461   0.023   1.279   0.686  0.2784 -0.3054 -0.2461
  821SOL    HW1 2462  -0.007   1.285   0.784  3.0295  2.7221 -0.6327
  821SOL    HW2 2463   0.085   1.363   0.669 -2.4549  1.0873  1.4153
  822SOL     OW 2464   2.581   1.734   2.424  0.3756  0.2523 -0.2118
  822SOL    HW1 2465   2.585   1.821   2.485  1.2920  1.1351  0.6528
  822SOL    HW2 2466   2.496   1.727   2.364 -0.3882  2.3551 -1.4262
  823SOL     OW 2467   2.054   0.897   1.183 -0.1330 -0.3424 -0.1331
  823SOL    HW1 2468   2.020   0.902   1.283 -0.5070 -1.4615 -1.5348
  823SOL    HW2 2469   1.993   0.936   1.113  2.4867 -1.6691 -0.1228
  824SOL     OW 2470   0.275   2.027   2.845  0.2017 -0.0777  0.7568
  824SOL    HW1 2471   0.209   1.947   2.867 -0.0602  0.2224 -1.1790
  824SOL    HW2 2472   0.335   2.008   2.762  0.3588 -2.4280  0.9941
  825SOL     OW 2473   1.293   1.086   0.280 -0.1413 -0.0870 -0.1918
  825SOL    HW1 2474   1.290   1.183   0.252 -1.5506  0.5229  1.2618
  825SOL    HW2 2475   1.252   1.068   0.375  0.8828 -2.0141  1.4758
  826SOL     OW 2476   1.886   0.668   1.613  0.2052 -0.3316 -0.6020
  826SOL    HW1 2477   1.967   0.605   1.621 -0.4331 -0.5126 -3.1024
  826SOL    HW2 2478   1.813   0.634   1.550  1.9313 -1.2152  1.0149
  827SOL     OW 2479   0.682   1.246   0.202  0.3238  0.7907 -0.0181
  827SOL    HW1 2480   0.784   1.226   0.174 -0.4437 -2.8458  1.4725
  827SOL    HW2 2481   0.654   1.183   0.282  1.3295  1.2421  0.2431
  828SOL     OW 2482   2.615   0.188   1.579  0.6336  0.1413 -0.9432
  828SOL    HW1 2483   2.530   0.187   1.524 -0.2194  1.1056  0.3108
  828SOL    HW2 2484   2.597   0.163   1.680 -1.8889  3.5119 -1.0132
  829SOL     OW 2485   2.785   2.474   2.998  0.5671 -0.4802 -0.7144
  829SOL    HW1 2486   2.708   2.408   2.984  1.4392  0.8821 -2.1098
  829SOL    HW2 2487   2.747   2.569   3.019  0.0483  1.2431  2.6386
  830SOL     OW 2488   2.799   0.969   3.069 -0.2411 -0.7725  0.2599
  830SOL    HW1 2489   2.883   1.031   3.045 -0.7578 -0.5025  1.3356
  830SOL    HW2 2490   2.823   0.879   3.120  0.3380  1.1449  1.0454
  831SOL     OW 2491   3.075   0.669   0.394 -0.4647  0.0671 -0.6657
  831SOL    HW1 2492   3.057   0.597   0.466  0.4171  0.2962 -1.6291
  831SOL    HW2 2493   3.121   0.628   0.307  0.8801 -2.0425  0.1790
  832SOL     OW 2494   1.829   0.758   2.976  0.2368  0.0951  0.1807
  832SOL    HW1 2495   1.730   0.793   2.988 -0.7276  2.1551  0.5492
  832SOL    HW2 2496   1.850   0.661   3.001  0.0925  1.3530 -0.2255
  833SOL     OW 2497   2.413   2.132   0.502 -0.3974 -0.6196 -0.5482
  833SOL    HW1 2498   2.321   2.104   0.461 -1.4846 -2.4663 -0.4653
  833SOL    HW2 2499   2.479   2.054   0.497 -2.3519 -1.1474  1.8772
  834SOL     OW 2500   0.192   0.222   0.480 -0.9287 -0.0735  0.1786
  834SOL    HW1 2501   0.119   0.173   0.535  1.1954  1.7624 -1.2392
  834SOL    HW2 2502   0.158   0.239   0.385  0.9257  1.3223 -1.3046
  835SOL     OW 2503   2.297   1.564   1.084 -0.4012 -0.1808 -0.0232
  835SOL    HW1 2504   2.232   1.620   1.029  1.2820  0.0367  3.0241
  835SOL    HW2 2505   2.382   1.554   1.028  0.5668  1.5040 -1.5533
  836SOL     OW 2506   1.609   0.839   2.603 -0.3994  0.6624  0.4629
  836SOL    HW1 2507   1.504   0.818   2.611 -3.3681 -1.5754  0.6695
  836SOL    HW2 2508   1.645   0.855   2.505 -0.6305  0.1921 -2.9529
  837SOL     OW 2509   1.684   0.120   0.526 -0.5661 -0.2283 -0.1945
  837SOL    HW1 2510   1.618   0.167   0.590  0.0132 -1.6295  0.0550
  837SOL    HW2 2511   1.657   0.131   0.424 -1.1610 -0.8540  1.2182
  838SOL     OW 2512   1.179   1.534   2.817  0.2980 -0.5463  0.1543
  838SOL    HW1 2513   1.149   1.516   2.914 -0.5625  0.8563  0.5612
  838SOL    HW2 2514   1.119   1.480   2.750  3.4973 -0.9228  0.1258
  839SOL     OW 2515   1.719   0.287   1.014  0.7445 -0.8190 -0.3959
  839SOL    HW1 2516   1.743   0.349   1.096  0.4984 -1.4220  0.5745
  839SOL    HW2 2517   1.660   0.205   1.038  1.8335  0.9551  1.8958
  840SOL     OW 2518   2.613   2.953   1.749  1.4999  0.0282 -0.8033
  840SOL    HW1 2519   2.559   2.939   1.658  0.1641 -1.1907 -1.1575
  840SOL    HW2 2520   2.586   2.879   1.818 -1.4356 -0.9870  2.3551
  841SOL     OW 2521   1.516   0.824   2.987  0.2607 -0.0928 -0.1337
  841SOL    HW1 2522   1.462   0.842   3.078 -0.7771  1.5389  0.8860
  841SOL    HW2 2523   1.512   0.907   2.922  1.1032  2.2216 -1.1597
  842SOL     OW 2524   0.838   1.540   0.945 -0.0840 -0.2692  0.0750
  842SOL    HW1 2525   0.814   1.631   0.986 -0.8765  1.1283 -3.2997
  842SOL    HW2 2526   0.762   1.480   0.965 -0.6726  0.1132 -1.2016
  843SOL     OW 2527   0.086   0.064   1.446  0.6271  0.2713  0.1210
  843SOL    HW1 2528   0.175   0.091   1.489 -1.6860  0.0679 -0.0227
  843SOL    HW2 2529   0.082  -0.040   1.428 -0.7404 -1.0421 -0.1884
  844SOL     OW 2530   0.790   2.497   0.310 -0.3477 -0.2619  0.1968
  844SOL    HW1 2531   0.740   2.441   0.379  3.3078 -2.0518 -0.8274
  844SOL    HW2 2532   0.734   2.571   0.266  1.5712 -0.2139 -1.1323
  845SOL     OW 2533   1.617   2.902   1.362 -0.1093  0.1957 -0.0025
  845SOL    HW1 2534   1.667   2.928   1.449 -1.5447 -1.9203  0.2244
  845SOL    HW2 2535   1.522   2.944   1.357  0.7394  1.0115 -0.6882
  846SOL     OW 2536   1.544   2.931   0.752  0.1578  0.4309  0.7443
  846SOL    HW1 2537   1.569   2.918   0.654 -0.2066 -1.4212 -1.5532
  846SOL    HW2 2538   1.621   2.930   0.819 -0.2907 -2.6323  1.3913
  847SOL     OW 2539   2.047   1.651   0.294 -0.1937 -0.6798 -0.2825
  847SOL    HW1 2540   1.990   1.587   0.347  1.7369  1.0366  1.7023
  847SOL    HW2 2541   1.983   1.725   0.255 -0.6380  0.0075  0.2220
  848SOL     OW 2542   2.485   0.849   2.596  0.6301 -0.3862  0.2857
  848SOL    HW1 2543   2.446   0.936   2.646 -1.4390 -1.0213  4.1419
  848SOL    HW2 2544   2.412   0.775   2.607 -1.8634  1.9009 -0.8405
  849SOL     OW 2545   2.590   0.825   2.345 -0.2664  0.4746 -0.1552
  849SOL    HW1 2546   2.663   0.754   2.323  0.5289 -0.5587 -0.2374
  849SOL    HW2 2547   2.547   0.816   2.438 -0.7042  2.0969 -0.7346
  850SOL     OW 2548   1.530   0.108   1.356  0.1482 -0.0624  0.3301
  850SOL    HW1 2549   1.553   0.080   1.258  1.0768 -2.2019 -1.7915
  850SOL    HW2 2550   1.468   0.030   1.388 -1.2051 -0.2377 -1.4771
  851SOL     OW 2551   0.445   1.803   0.611 -0.1173 -0.1528  0.1847
  851SOL    HW1 2552   0.458   1.900   0.576 -0.6103  0.4855  0.0683
  851SOL    HW2 2553   0.517   1.738   0.577  0.7210 -2.0002  0.8477
  852SOL     OW 2554   0.762   2.130   1.688  0.2538 -0.0539  0.1569
  852SOL    HW1 2555   0.754   2.223   1.643 -0.2694  0.8837  4.3510
  852SOL    HW2 2556   0.702   2.109   1.765 -0.4490  0.0143 -0.6667
  853SOL     OW 2557   2.551   1.521   2.602 -0.4105  0.7398  0.8229
  853SOL    HW1 2558   2.482   1.455   2.556 -1.8940  0.3930 -2.2358
  853SOL    HW2 2559   2.575   1.601   2.534  0.4895  0.5378  1.2169
  854SOL     OW 2560   2.420   1.437   1.693  0.1310  0.5665  0.2306
  854SOL    HW1 2561   2.423   1.419   1.591  0.8107 -2.2114 -0.7606
  854SOL    HW2 2562   2.343   1.383   1.735  1.1926  1.3578 -2.8081
  855SOL     OW 2563   2.074   2.390   0.938  0.5618 -0.6107  0.2836
  855SOL    HW1 2564   2.042   2.482   0.898 -1.4619  1.9895 -0.8642
  855SOL    HW2 2565   2.138   2.399   1.023  4.0767 -2.0070  1.4126
  856SOL     OW 2566   1.349   1.514   0.897  0.1382  0.0534 -0.6782
  856SOL    HW1 2567   1.423   1.564   0.944 -0.1846 -1.4945  1.0385
  856SOL    HW2 2568   1.251   1.542   0.931 -2.0752  0.3443  0.2085
  857SOL     OW 2569   3.085   2.661   1.025  0.4135 -0.4475  0.0824
  857SOL    HW1 2570   3.047   2.575   0.989  0.2212 -0.5245  2.2710
  857SOL    HW2 2571   3.173   2.686   0.968  1.8397 -1.2948  0.5075
  858SOL     OW 2572   2.321   2.010   1.750 -0.0195 -0.0894  0.3847
  858SOL    HW1 2573   2.260   2.002   1.669  1.5679  2.3521 -0.2511
  858SOL    HW2 2574   2.404   1.949   1.745 -2.3613  0.8292  3.8413
  859SOL     OW 2575   2.487   0.561   1.042 -0.2708  0.2997  0.1331
  859SOL    HW1 2576   2.545   0.613   0.971  1.3176  1.3039 -1.0623
  859SOL    HW2 2577   2.529   0.466   1.056 -0.6543 -1.2359  1.9775
  860SOL     OW 2578   1.951   2.813   0.439 -0.2989 -0.1293  0.5709
  860SOL    HW1 2579   1.893   2.811   0.348  3.1338 -0.0459  2.3337
  860SOL    HW2 2580   2.048   2.835   0.416 -0.3446  2.1654 -0.5158
  861SOL     OW 2581   1.099   2.480   2.830  0.1077  0.5412 -0.2241
  861SOL    HW1 2582   1.143   2.566   2.800 -0.5990  1.1677 -0.1678
  861SOL    HW2 2583   1.118   2.455   2.926 -0.4974  0.7010  0.6654
  862SOL     OW 2584   2.826   2.572   1.602  0.1509 -0.2215 -0.1222
  862SOL    HW1 2585   2.905   2.581   1.669 -0.0800  0.6008 -0.8368
  862SOL    HW2 2586   2.829   2.638   1.525  1.0160  0.2430  2.8459
  863SOL     OW 2587   1.850   2.711   0.167 -0.4362  0.0121 -0.0738
  863SOL    HW1 2588   1.914   2.628   0.174 -0.4306 -0.6645 -0.1600
  863SOL    HW2 2589   1.754   2.680   0.182 -0.7194 -1.3319 -2.7395
  864SOL     OW 2590   1.905   1.195   2.864 -0.0883 -0.0018  0.2662
  864SOL    HW1 2591   1.892   1.136   2.781 -0.4892 -2.2092  1.8778
  864SOL    HW2 2592   1.994   1.181   2.912 -0.2260  2.4659 -0.5703
  865SOL     OW 2593   2.237   1.843   0.601  0.3475  0.5259 -0.2018
  865SOL    HW1 2594   2.278   1.857   0.693  0.1503  0.1465 -0.1202
  865SOL    HW2 2595   2.147   1.793   0.609  1.2784  0.3349 -3.3246
  866SOL     OW 2596   2.936   2.926   1.021  0.4244  0.2015  0.0517
  866SOL    HW1 2597   2.941   2.987   0.939  1.2078 -0.5533  0.2185
  866SOL    HW2 2598   2.992   2.836   1.007  1.7762  1.4972 -1.5804
  867SOL     OW 2599   0.323   1.343   0.903  0.0934  0.0726  0.1403
  867SOL    HW1 2600   0.350   1.285   0.821 -1.6068  1.3269  1.6948
  867SOL    HW2 2601   0.297   1.441   0.876 -0.6360  3.0254 -1.3711
  868SOL     OW 2602   0.730   1.867   2.004  0.1059 -0.2264  0.7235
  868SOL    HW1 2603   0.721   1.855   2.108 -1.0161 -1.8263  2.3169
  868SOL    HW2 2604   0.676   1.946   1.963  3.3378 -0.6012  1.2236
  869SOL     OW 2605   2.575   1.946   1.600 -0.1276  0.0523 -0.1743
  869SOL    HW1 2606   2.650   2.017   1.625  2.4487  2.9338 -0.0472
  869SOL    HW2 2607   2.617   1.853   1.583 -0.2027  0.1485  0.6630
  870SOL     OW 2608   2.255   2.660   1.268  0.9702  0.2643  0.0041
  870SOL    HW1 2609   2.249   2.573   1.205  0.8370  0.5400 -0.0869
  870SOL    HW2 2610   2.182   2.673   1.342 -2.5591 -0.0685  1.3013
  871SOL     OW 2611   3.031   2.202   0.543  0.0730  0.1045  0.1373
  871SOL    HW1 2612   2.995   2.247   0.628  0.7333 -1.6213  0.8350
  871SOL    HW2 2613   2.961   2.192   0.468 -2.5625 -0.9565  1.2515
  872SOL     OW 2614   2.116   0.489   1.663 -0.2643 -0.3620 -0.0804
  872SOL    HW1 2615   2.071   0.486   1.757 -2.4387  1.3660 -2.1252
  872SOL    HW2 2616   2.215   0.451   1.666  1.4652  0.8093 -0.6798
  873SOL     OW 2617   1.714   2.133   3.044  0.0642 -0.1311  0.7055
  873SOL    HW1 2618   1.641   2.143   3.115  2.3267 -0.3920  1.4232
  873SOL    HW2 2619   1.682   2.123   2.946 -0.2785  0.2910  0.7370
  874SOL     OW 2620   0.660   2.445   0.754 -0.8548  0.3175  0.5080
  874SOL    HW1 2621   0.648   2.538   0.791 -0.2588 -0.0556  0.4791
  874SOL    HW2 2622   0.762   2.418   0.769 -1.1873  0.3845  4.2267
  875SOL     OW 2623   2.331   1.534   1.420 -0.4033  0.8406 -0.0074
  875SOL    HW1 2624   2.429   1.569   1.448  0.1355  3.1627  0.6785
  875SOL    HW2 2625   2.315   1.543   1.317  0.7375 -0.5634  3.3222
  876SOL     OW 2626   0.096   2.231   2.769  0.1290 -0.3309 -0.1824
  876SOL    HW1 2627   0.164   2.166   2.816  0.9419 -0.0182  4.8304
  876SOL    HW2 2628   0.108   2.330   2.789  0.3011  1.6573 -0.4323
  877SOL     OW 2629   2.914   2.659   0.580 -0.1276  0.0710  0.0714
  877SOL    HW1 2630   2.904   2.760   0.609 -1.1448 -2.2904  0.2340
  877SOL    HW2 2631   2.957   2.601   0.656  0.7184  0.4627  1.4472
  878SOL     OW 2632   2.773   1.499   2.228  0.2452  0.1514 -0.4534
  878SOL    HW1 2633   2.873   1.481   2.250  0.4654  1.4522  0.1235
  878SOL    HW2 2634   2.725   1.535   2.310  0.8986  1.0900  0.3799
  879SOL     OW 2635   2.370   0.099   1.224 -0.2465 -0.0396 -0.9131
  879SOL    HW1 2636   2.434   0.018   1.237 -0.7959  0.3240  0.9135
  879SOL    HW2 2637   2.283   0.074   1.173  1.0103  1.5390 -1.5516
  880SOL     OW 2638   0.729   0.492   2.260 -0.0280 -0.3292  0.8271
  880SOL    HW1 2639   0.678   0.439   2.330 -0.6156 -0.1076  0.4434
  880SOL    HW2 2640   0.788   0.434   2.197 -0.7667  0.9813  0.5768
  881SOL     OW 2641   0.851   0.056   0.479 -0.1105 -0.0101 -0.0624
  881SOL    HW1 2642   0.903  -0.036   0.486 -0.9129  0.8261  1.4212
  881SOL    HW2 2643   0.770   0.034   0.411 -0.3773  0.1255 -0.7836
  882SOL     OW 2644   2.713   1.699   1.708  0.2144  0.0805 -0.2693
  882SOL    HW1 2645   2.793   1.654   1.664 -1.7532  2.3506  1.6146
  882SOL    HW2 2646   2.713   1.692   1.810  1.9201  0.1861  0.2910
  883SOL     OW 2647   0.920   0.566   0.974 -0.1938 -0.0607  0.7473
  883SOL    HW1 2648   0.913   0.662   1.018  0.8260  0.3523 -0.6589
  883SOL    HW2 2649   0.956   0.496   1.042  1.2206  1.3611 -0.2771
  884SOL     OW 2650   1.198   1.760   1.156 -0.0479  0.5685 -0.5087
  884SOL    HW1 2651   1.159   1.691   1.083 -1.3805 -1.3911 -1.7505
  884SOL    HW2 2652   1.184   1.858   1.115 -2.3291 -2.9384  1.2633
  885SOL     OW 2653   2.332   1.775   2.294  0.4051  0.3444  0.2167
  885SOL    HW1 2654   2.256   1.758   2.360  1.9379 -1.7165 -0.6138
  885SOL    HW2 2655   2.336   1.870   2.262  3.7474  0.2731 -1.0362
  886SOL     OW 2656   2.607   0.405   1.789  0.1335  0.5779 -0.0281
  886SOL    HW1 2657   2.660   0.326   1.829  2.0273  0.0043  0.7404
  886SOL    HW2 2658   2.664   0.493   1.783  0.1580 -0.0935 -0.0885
  887SOL     OW 2659   0.090   2.026   1.327 -0.4259  0.7646 -0.4133
  887SOL    HW1 2660   0.025   1.960   1.280  3.4945  0.1609 -1.8032
  887SOL    HW2 2661   0.085   2.124   1.296  0.1227  0.9535  1.5041
  888SOL     OW 2662   0.578   1.232   1.542 -0.1781  0.4761  0.3107
  888SOL    HW1 2663   0.615   1.276   1.456 -0.6960  0.2259 -2.1057
  888SOL    HW2 2664   0.548   1.131   1.532  2.0948 -1.1489  0.4974
  889SOL     OW 2665   0.832   2.477   2.175  0.1953  0.0294 -0.5596
  889SOL    HW1 2666   0.776   2.387   2.193 -2.1267 -0.0437  2.4491
  889SOL    HW2 2667   0.881   2.472   2.081 -0.7688  2.6868 -0.0693
  890SOL     OW 2668   2.421   2.419   0.201  0.0961 -0.3708 -0.5372
  890SOL    HW1 2669   2.467   2.510   0.176 -1.5836  0.3322 -1.4619
  890SOL    HW2 2670   2.348   2.440   0.274  0.3073  0.0915  0.2311
  891SOL     OW 2671   2.550   1.708   0.729 -0.1104 -0.2422 -0.2913
  891SOL    HW1 2672   2.545   1.737   0.826 -1.3666 -0.7219 -1.0446
  891SOL    HW2 2673   2.474   1.649   0.708 -0.0126 -1.4458  3.5647
  892SOL     OW 2674   0.367   0.325   2.219  0.2688  0.0234 -0.9414
  892SOL    HW1 2675   0.354   0.398   2.145 -1.2107  1.7236  0.2259
  892SOL    HW2 2676   0.440   0.351   2.287  0.8826  0.6945  1.8585
  893SOL     OW 2677   1.689   0.271   2.752 -1.0568  0.1314  0.3788
  893SOL    HW1 2678   1.763   0.343   2.775  0.4971  0.8017 -0.1442
  893SOL    HW2 2679   1.595   0.309   2.723  0.3979  0.4071  0.1196
  894SOL     OW 2680   2.118   2.024   0.010 -0.0036  0.1302 -0.0935
  894SOL    HW1 2681   2.078   2.002  -0.085  1.1583 -1.4199 -1.7938
  894SOL    HW2 2682   2.148   1.942   0.063  1.1522 -2.0183 -0.3433
  895SOL     OW 2683   2.786   1.425   0.920 -0.5636  0.4797 -0.3090
  895SOL    HW1 2684   2.842   1.348   0.968 -0.7648 -2.9727 -0.3153
  895SOL    HW2 2685   2.819   1.517   0.948 -0.2353 -2.6730  0.9234
  896SOL     OW 2686   1.780   1.815   1.219 -0.2399 -0.1131  0.3657
  896SOL    HW1 2687   1.806   1.756   1.136  1.3141  1.2159  0.7051
  896SOL    HW2 2688   1.702   1.878   1.200  1.4956  2.1479 -0.5688
  897SOL     OW 2689   0.345   0.521   3.103 -0.3118 -0.3703  0.4160
  897SOL    HW1 2690   0.316   0.564   3.018 -1.3097 -2.1990  0.7735
  897SOL    HW2 2691   0.446   0.538   3.118  0.5501 -0.9686  2.5684
  898SOL     OW 2692   0.551   2.867   1.078  0.0297  0.1026 -0.1272
  898SOL    HW1 2693   0.505   2.956   1.113 -0.8112  0.7617  1.9681
  898SOL    HW2 2694   0.601   2.816   1.152 -1.4439  0.6504  1.2843
  899SOL     OW 2695   2.824   0.916   1.282 -0.3073 -0.2942 -0.2506
  899SOL    HW1 2696   2.752   0.902   1.205 -1.7775  0.7247  0.3660
  899SOL    HW2 2697   2.913   0.966   1.259  0.3992 -0.3671  2.3761
  900SOL     OW 2698   0.957   2.526   2.419  0.1900  0.1640  0.5176
  900SOL    HW1 2699   0.877   2.528   2.347  1.7933 -0.1888 -3.2196
  900SOL    HW2 2700   0.933   2.480   2.506 -0.5350  0.8098 -3.0852
  901SOL     OW 2701   1.919   2.342   1.368 -0.2011 -0.1589 -0.6933
  901SOL    HW1 2702   1.906   2.297   1.277  2.1824  0.6362  0.6209
  901SOL    HW2 2703   1.999   2.304   1.419  0.7291 -0.0166  0.9574
  902SOL     OW 2704   2.580   1.649   1.461 -0.1462 -0.0066  0.2579
  902SOL    HW1 2705   2.621   1.660   1.557 -0.2557  2.2769  1.5108
  902SOL    HW2 2706   2.652   1.638   1.381  0.4362 -1.6607  1.0386
  903SOL     OW 2707   0.258   2.471   1.969  0.6497  0.1467  0.0838
  903SOL    HW1 2708   0.170   2.418   1.934 -0.3557 -0.6260  0.4283
  903SOL    HW2 2709   0.294   2.546   1.904  1.0940  1.8999  3.2235
  904SOL     OW 2710   2.039   0.818   2.498  0.2502 -0.1333 -0.3360
  904SOL    HW1 2711   1.973   0.768   2.561  0.0219 -0.8072 -3.5368
  904SOL    HW2 2712   2.029   0.796   2.395 -0.8532  0.0915 -2.2790
  905SOL     OW 2713   2.826   0.086   2.557 -0.8391 -0.2030  0.0340
  905SOL    HW1 2714   2.908   0.020   2.551  1.4178  1.8897 -1.4551
  905SOL    HW2 2715   2.855   0.182   2.530 -0.9350 -1.5191 -0.2251
  906SOL     OW 2716   0.189   1.707   1.935 -0.5700  0.6216 -0.1014
  906SOL    HW1 2717   0.118   1.728   1.860  0.0724 -1.5320  1.1915
  906SOL    HW2 2718   0.258   1.785   1.939 -1.2939 -1.5779  2.6382
  907SOL     OW 2719   0.247   2.464   1.023 -0.3189  0.2396 -0.4413
  907SOL    HW1 2720   0.350   2.451   1.010  0.9209 -2.8589 -0.0693
  907SOL    HW2 2721   0.193   2.377   1.013 -0.1812  0.5644  2.8714
  908SOL     OW 2722   2.745   2.981   0.369 -0.8621  0.0683 -0.0869
  908SOL    HW1 2723   2.716   3.046   0.294  0.6599 -1.6442  2.1036
  908SOL    HW2 2724   2.836   2.933   0.351  0.5887  0.5645  0.9216
  909SOL     OW 2725   0.777   1.030   2.648  0.3993 -0.2493 -0.0094
  909SOL    HW1 2726   0.727   0.944   2.617  0.4777 -2.3594 -0.1307
  909SOL    HW2 2727   0.866   1.040   2.595  1.5285  1.0437 -1.2371
  910SOL     OW 2728   1.739   1.883   2.173 -0.4392 -0.4099 -0.1489
  910SOL    HW1 2729   1.777   1.916   2.081 -1.9663  0.9290 -1.6410
  910SOL    HW2 2730   1.666   1.947   2.222 -3.1537  2.2642  0.7281
  911SOL     OW 2731   1.809   2.939   1.577  0.0481  0.1259 -0.7462
  911SOL    HW1 2732   1.896   2.925   1.524 -1.8184 -1.1338 -0.3198
  911SOL    HW2 2733   1.795   2.863   1.650 -0.9708  1.6516  0.3972
  912SOL     OW 2734   2.841   1.005   0.699 -0.1869  0.0590 -0.3484
  912SOL    HW1 2735   2.866   0.942   0.774  0.4238  0.4448 -1.4302
  912SOL    HW2 2736   2.807   1.101   0.726  0.7316 -2.5550  2.5350
  913SOL     OW 2737   2.591   1.263   1.493  0.3890 -0.6503 -0.2386
  913SOL    HW1 2738   2.582   1.160   1.479 -0.3370  1.3635 -1.9780
  913SOL    HW2 2739   2.663   1.301   1.431  1.0955 -1.6954 -0.7857
  914SOL     OW 2740   2.825   0.612   1.229  0.6857 -0.5862  0.1955
  914SOL    HW1 2741   2.786   0.516   1.225  0.4739 -0.2438 -1.6243
  914SOL    HW2 2742   2.818   0.642   1.328 -0.0016 -0.2926 -0.5591
  915SOL     OW 2743   1.192   0.772   1.092  0.7972  0.3830  0.1743
  915SOL    HW1 2744   1.248   0.785   1.181 -0.8688  2.3165 -0.8465
  915SOL    HW2 2745   1.086   0.784   1.116 -1.7135 -2.0325 -0.3933
  916SOL     OW 2746   0.588   0.006   0.671 -0.8404 -0.0917  0.4702
  916SOL    HW1 2747   0.633   0.087   0.714  0.7216 -2.3098 -0.9364
  916SOL    HW2 2748   0.562   0.018   0.571 -1.0572 -1.8580  0.3534
  917SOL     OW 2749   2.814   2.622   1.977 -0.3467  0.3899 -0.3478
  917SOL    HW1 2750   2.713   2.625   1.952  0.1386  0.7772 -0.0911
  917SOL    HW2 2751   2.865   2.698   1.927 -1.5574 -0.3511  2.5067
  918SOL     OW 2752   1.030   2.157   3.054  0.3002  0.8417  0.0725
  918SOL    HW1 2753   0.991   2.213   3.130 -0.9091  1.4851 -2.6208
  918SOL    HW2 2754   1.129   2.140   3.072 -1.5277 -2.4589 -0.7984
  919SOL     OW 2755   0.846   1.652   2.881 -0.4116  0.3076 -0.2986
  919SOL    HW1 2756   0.890   1.716   2.810 -0.0062 -0.3460  0.7964
  919SOL    HW2 2757   0.832   1.557   2.843  3.0803  2.2812 -2.9157
  920SOL     OW 2758   1.196   1.850   2.458  0.0415  0.2647 -1.3576
  920SOL    HW1 2759   1.290   1.816   2.420  1.0193  2.6042 -3.3454
  920SOL    HW2 2760   1.183   1.807   2.552  0.6189  0.9908 -0.4806
  921SOL     OW 2761   1.036   0.029   2.627 -0.3232  0.1796  0.6954
  921SOL    HW1 2762   1.029  -0.005   2.528  1.8811 -0.5739 -2.2673
  921SOL    HW2 2763   0.957  -0.011   2.688 -0.8127 -2.0164 -0.7777
  922SOL     OW 2764   2.126   2.395   2.781  0.2200  0.2114 -0.0630
  922SOL    HW1 2765   2.172   2.300   2.780 -3.5397 -0.0098 -0.1118
  922SOL    HW2 2766   2.082   2.411   2.687 -0.4096  0.5463  1.5393
  923SOL     OW 2767   1.264   2.686   0.272 -0.0923  0.2840  0.2832
  923SOL    HW1 2768   1.319   2.772   0.288 -2.3186 -1.4654 -1.9963
  923SOL    HW2 2769   1.318   2.600   0.285 -0.8647  2.4361 -0.2264
  924SOL     OW 2770   2.855   1.535   0.153 -0.1385 -0.2738 -0.0551
  924SOL    HW1 2771   2.785   1.529   0.078 -0.3365 -2.5691  2.1204
  924SOL    HW2 2772   2.953   1.527   0.117 -1.2285 -1.3064 -2.0225
  925SOL     OW 2773   3.092   2.896   1.525  0.5041  0.7756  0.4115
  925SOL    HW1 2774   3.024   2.958   1.580 -0.6396 -1.5445  0.4726
  925SOL    HW2 2775   3.058   2.797   1.508  0.4708 -0.4899 -0.2813
  926SOL     OW 2776   1.304   2.802   1.252  0.2063  0.1794 -0.2973
  926SOL    HW1 2777   1.379   2.808   1.182 -1.4073  0.3817 -1.2958
  926SOL    HW2 2778   1.292   2.885   1.316 -1.9386 -0.2302 -1.1701
  927SOL     OW 2779   0.323   2.656   1.755 -0.4468 -0.3380 -0.5977
  927SOL    HW1 2780   0.294   2.602   1.669  2.4045  1.3067 -0.4960
  927SOL    HW2 2781   0.278   2.751   1.763 -1.5996  1.0372 -0.4545
  928SOL     OW 2782   1.528   2.054   2.284 -0.1047  0.2489  0.0416
  928SOL    HW1 2783   1.564   2.137   2.233  0.2307  1.0918 -0.4367
  928SOL    HW2 2784   1.421   2.059   2.270 -1.5716  0.4065 -1.5069
  929SOL     OW 2785   2.415   2.485   2.860 -0.5338  0.1881 -0.4318
  929SOL    HW1 2786   2.326   2.502   2.810  0.1826  0.8997  1.6821
  929SOL    HW2 2787   2.490   2.452   2.791  1.1761 -1.1067  0.9929
  930SOL     OW 2788   2.217   2.024   1.077 -0.0001  0.0096 -0.1526
  930SOL    HW1 2789   2.207   1.967   1.160 -1.7121 -0.2161  0.3146
  930SOL    HW2 2790   2.300   2.088   1.086  0.1819 -0.4826  0.0069
  931SOL     OW 2791   0.548   1.716   2.734  0.2644  0.0491 -0.1811
  931SOL    HW1 2792   0.528   1.738   2.836 -3.0985  0.8242  1.3922
  931SOL    HW2 2793   0.595   1.622   2.711  0.1712  0.0652 -2.8064
  932SOL     OW 2794   0.456   0.144   2.973 -0.8617 -0.4300 -0.5837
  932SOL    HW1 2795   0.543   0.199   2.979  3.2893  0.2410 -2.2060
  932SOL    HW2 2796   0.462   0.044   2.982 -0.7302  1.5809 -0.4828
  933SOL     OW 2797   0.998   0.818   3.053 -0.1389  0.5475  0.1060
  933SOL    HW1 2798   0.979   0.839   3.149 -1.0656 -0.8287 -0.8250
  933SOL    HW2 2799   0.967   0.894   2.988 -0.1310 -0.0928 -0.5608
  934SOL     OW 2800   0.784   2.970   2.636  0.2029  0.0897  0.0307
  934SOL    HW1 2801   0.781   2.892   2.562 -0.1153 -1.1668 -0.3141
  934SOL    HW2 2802   0.836   2.932   2.719 -1.5652 -2.3190 -1.4385
  935SOL     OW 2803   0.025   0.570   0.841  0.3798  0.0159  0.5714
  935SOL    HW1 2804  -0.011   0.551   0.738 -0.3479 -0.6862 -1.3012
  935SOL    HW2 2805  -0.048   0.616   0.900  0.3565 -0.6583  0.7560
  936SOL     OW 2806   1.088   2.812   0.083 -0.9561  0.7855  0.2138
  936SOL    HW1 2807   1.153   2.865   0.023  0.2870  0.2645  0.5206
  936SOL    HW2 2808   1.142   2.744   0.145  1.1390  1.4106 -0.6797
  937SOL     OW 2809   1.909   2.624   2.097  0.3885 -0.6501 -0.1431
  937SOL    HW1 2810   1.858   2.681   2.032  2.1152  0.6459 -2.0624
  937SOL    HW2 2811   2.011   2.634   2.092 -1.8183  1.7292  0.5127
  938SOL     OW 2812   2.790   2.115   1.609  0.2225 -0.4272 -0.2116
  938SOL    HW1 2813   2.757   2.215   1.609 -2.6304  0.7248  0.3054
  938SOL    HW2 2814   2.884   2.093   1.642 -0.1437  1.0613 -0.1728
  939SOL     OW 2815   2.866   1.206   2.433 -0.9733  0.1693  0.6533
  939SOL    HW1 2816   2.928   1.184   2.352  0.6079 -1.8750  4.1476
  939SOL    HW2 2817   2.908   1.164   2.516 -2.5391  0.2221  0.3164
  940SOL     OW 2818   1.033   0.399   2.723 -0.0631  0.3317  0.2404
  940SOL    HW1 2819   1.113   0.335   2.723  1.5797 -0.2311 -1.3484
  940SOL    HW2 2820   0.962   0.367   2.653 -0.3062 -1.4927 -1.0326
  941SOL     OW 2821   0.050   2.768   2.254 -0.0712 -0.3704 -0.1997
  941SOL    HW1 2822   0.115   2.691   2.231  0.1528  0.6283  0.1612
  941SOL    HW2 2823   0.103   2.840   2.311 -1.6560 -3.1148 -2.5596
  942SOL     OW 2824   0.128   0.100   2.558 -0.5724  0.1127 -0.0386
  942SOL    HW1 2825   0.165   0.123   2.657  0.9490  1.3876  1.6928
  942SOL    HW2 2826   0.130   0.184   2.494 -0.6025  4.1944 -0.6443
  943SOL     OW 2827   2.086   1.670   2.418 -0.2541  0.2060  0.0864
  943SOL    HW1 2828   2.073   1.633   2.320 -0.6661 -1.5973 -2.9592
  943SOL    HW2 2829   2.098   1.599   2.491 -0.3856 -1.8173 -1.1048
  944SOL     OW 2830   2.185   2.339   1.475  0.1928  0.4544 -0.1281
  944SOL    HW1 2831   2.253   2.404   1.526  1.8657  0.5735  2.2063
  944SOL    HW2 2832   2.150   2.263   1.541  0.9046 -0.7496  3.5052
  945SOL     OW 2833   0.668   1.501   0.248  0.2330  0.6251  0.6002
  945SOL    HW1 2834   0.623   1.545   0.165  0.5604  0.0668 -0.7488
  945SOL    HW2 2835   0.665   1.394   0.234  0.1231 -1.6651  1.5323
  946SOL     OW 2836   0.408   0.926   2.434  0.0536  0.2278 -0.8720
  946SOL    HW1 2837   0.317   0.874   2.415  0.4469 -1.3570  1.3967
  946SOL    HW2 2838   0.387   1.018   2.487 -0.0071  0.2639  0.2971
  947SOL     OW 2839   1.516   0.501   3.076 -0.5690 -0.9239  0.4415
  947SOL    HW1 2840   1.485   0.536   2.983 -2.9027  0.0655 -3.0059
  947SOL    HW2 2841   1.443   0.445   3.117  0.2882  0.0665 -2.0671
  948SOL     OW 2842   1.865   3.036   2.148  0.4910 -0.2921  0.3277
  948SOL    HW1 2843   1.910   2.964   2.083  4.3773 -1.2240  0.7958
  948SOL    HW2 2844   1.872   2.994   2.239  2.8369 -0.0510 -2.0487
  949SOL     OW 2845   0.597   2.475   0.501 -0.8078 -0.2764 -0.4454
  949SOL    HW1 2846   0.617   2.577   0.498 -1.1482  0.5634  5.4449
  949SOL    HW2 2847   0.629   2.436   0.591 -1.0753  1.7961  1.1685
  950SOL     OW 2848   0.214   2.212   3.043  0.4002 -0.1391 -0.5009
  950SOL    HW1 2849   0.110   2.231   3.047 -0.4355 -2.3668 -0.1961
  950SOL    HW2 2850   0.245   2.146   2.970 -0.0469 -1.4963  0.5286
  951SOL     OW 2851   1.255   2.695   2.733  0.2017 -0.1992 -0.3274
  951SOL    HW1 2852   1.353   2.698   2.767  1.4785  4.1141  0.6755
  951SOL    HW2 2853   1.251   2.729   2.632 -0.3926  1.0050 -0.3173
  952SOL     OW 2854   0.013   1.696   0.380 -0.1362 -0.4578 -0.1890
  952SOL    HW1 2855   0.082   1.772   0.378 -0.1180  0.5885  0.2003
  952SOL    HW2 2856   0.026   1.635   0.458 -1.5094 -4.7978  3.1565
  953SOL     OW 2857   2.535   1.784   0.232 -0.1123 -0.1324  0.8664
  953SOL    HW1 2858   2.518   1.683   0.229  0.0737  3.0234  0.2255
  953SOL    HW2 2859   2.550   1.816   0.134  0.5351 -0.9139 -0.2980
  954SOL     OW 2860   2.241   0.553   0.929  0.0839  0.3115  0.2821
  954SOL    HW1 2861   2.215   0.613   0.848  0.8159  0.6800  0.9893
  954SOL    HW2 2862   2.343   0.555   0.952  1.0708  0.6286 -0.2384
  955SOL     OW 2863   0.156   2.594   1.290 -0.1340 -0.1131 -0.2256
  955SOL    HW1 2864   0.060   2.619   1.323 -2.3687  1.5810 -0.1729
  955SOL    HW2 2865   0.172   2.642   1.197  0.0525  1.4885  2.3709
  956SOL     OW 2866   2.813   2.453   2.483 -0.6009  0.5809 -0.6774
  956SOL    HW1 2867   2.832   2.359   2.441  1.7649 -0.0664 -2.0119
  956SOL    HW2 2868   2.803   2.519   2.407 -2.2666 -2.4282  1.1862
  957SOL     OW 2869   1.622   2.059   2.790 -0.8793  0.1461  0.3277
  957SOL    HW1 2870   1.580   1.961   2.795 -1.7143 -0.9387  0.8507
  957SOL    HW2 2871   1.654   2.077   2.690  0.9609 -2.5270 -1.0724
  958SOL     OW 2872   2.568   2.300   2.996  0.5111 -0.9182  0.3177
  958SOL    HW1 2873   2.489   2.361   2.970  1.0596  0.4739  2.6063
  958SOL    HW2 2874   2.573   2.267   3.093  3.3595  0.0313 -0.4608
  959SOL     OW 2875   0.250   2.822   0.057 -0.1200  0.2999  0.1816
  959SOL    HW1 2876   0.176   2.783  -0.008 -2.6109  1.1606  1.7339
  959SOL    HW2 2877   0.272   2.746   0.127 -0.2496 -1.6264  1.1163
  960SOL     OW 2878   2.043   0.491   1.948  0.1528  0.4638  0.0466
  960SOL    HW1 2879   1.949   0.526   1.928  1.1867 -3.0395  2.4177
  960SOL    HW2 2880   2.062   0.486   2.053 -0.7088 -4.1444  0.3176
  961SOL     OW 2881   2.565   1.833   1.003 -0.1931 -0.7376  0.4408
  961SOL    HW1 2882   2.606   1.928   0.996 -1.3305 -0.5939 -3.8349
  961SOL    HW2 2883   2.531   1.800   1.098 -0.0922 -1.8212 -0.5351
  962SOL     OW 2884   1.313   0.956   0.047 -0.2389 -0.4315  0.3117
  962SOL    HW1 2885   1.258   0.979  -0.037  3.3219  2.4115 -0.1315
  962SOL    HW2 2886   1.282   1.007   0.130  2.7359  0.4197  2.6048
  963SOL     OW 2887   2.223   2.572   1.829 -0.0474 -0.1817 -0.1488
  963SOL    HW1 2888   2.197   2.478   1.856 -0.5386  2.3661 -0.7482
  963SOL    HW2 2889   2.256   2.632   1.905  0.6554  0.5872  0.7741
  964SOL     OW 2890   2.363   0.366   1.682  0.3803 -0.6498 -0.1277
  964SOL    HW1 2891   2.454   0.390   1.724 -0.5210 -1.3630 -0.0222
  964SOL    HW2 2892   2.367   0.326   1.588 -0.2994  0.6544  2.3810
  965SOL     OW 2893   2.626   3.075   0.128 -0.0844 -0.0279 -0.1811
  965SOL    HW1 2894   2.690   3.067   0.046  0.7679  0.4802  0.2454
  965SOL    HW2 2895   2.527   3.074   0.093  2.8510 -0.1620  1.8176
  966SOL     OW 2896   2.621   2.562   2.194 -0.8658 -0.6941  0.2544
  966SOL    HW1 2897   2.639   2.642   2.256 -0.9050  0.6548  0.1681
  966SOL    HW2 2898   2.577   2.593   2.105  3.0534  1.7305 -1.0760
  967SOL     OW 2899   2.808   2.816   2.500 -0.2329 -0.3538  0.0107
  967SOL    HW1 2900   2.844   2.768   2.413  0.1419 -2.1117  0.2925
  967SOL    HW2 2901   2.867   2.897   2.529  0.7312 -2.0426  0.5947
  968SOL     OW 2902   1.899   1.022   2.625 -0.0738 -0.1345  0.1381
  968SOL    HW1 2903   1.825   1.068   2.569 -2.6398  0.8191 -2.0209
  968SOL    HW2 2904   1.962   0.968   2.558 -0.3841 -1.2192 -0.2692
  969SOL     OW 2905   2.842   2.441   1.120 -0.4139  0.0862 -0.4536
  969SOL    HW1 2906   2.780   2.444   1.035 -1.8964  1.0012 -0.5450
  969SOL    HW2 2907   2.833   2.351   1.173  0.4547  0.6832 -1.5757
  970SOL     OW 2908   1.024   2.102   1.822 -0.4078  0.1330 -0.4535
  970SOL    HW1 2909   0.937   2.121   1.770  0.3719  1.7818  1.3519
  970SOL    HW2 2910   1.026   2.152   1.914  3.8036 -2.3136  0.1706
  971SOL     OW 2911   2.908   2.082   1.917 -0.6970 -0.3734 -0.6001
  971SOL    HW1 2912   2.889   2.188   1.907 -1.8316  0.7056 -1.3368
  971SOL    HW2 2913   2.950   2.047   1.827 -1.6140  2.7431  0.0536
  972SOL     OW 2914   1.985   2.479   0.218  0.3161  0.0943 -0.0385
  972SOL    HW1 2915   1.986   2.398   0.155  3.2394 -1.5371  1.1483
  972SOL    HW2 2916   2.021   2.458   0.307 -0.6134  0.9092 -3.4304
  973SOL     OW 2917   1.284   1.009   1.907  0.1129  0.0176  0.0119
  973SOL    HW1 2918   1.229   1.005   1.817  2.2702 -1.9415 -2.2176
  973SOL    HW2 2919   1.261   1.097   1.956 -0.3485 -0.5112 -2.4534
  974SOL     OW 2920   1.600   0.568   1.980  0.0506  0.0991 -0.6673
  974SOL    HW1 2921   1.696   0.587   1.938 -0.2012 -1.0939 -1.3593
  974SOL    HW2 2922   1.524   0.643   1.967 -2.0555 -1.4508  0.2201
  975SOL     OW 2923   2.374   3.053   0.059  0.0309  0.1856 -0.5943
  975SOL    HW1 2924   2.295   2.994   0.091  0.4099  1.0526  1.3167
  975SOL    HW2 2925   2.356   3.072  -0.040 -0.8835 -0.5024  0.9339
  976SOL     OW 2926   1.917   2.860   2.377 -0.2909 -0.1458 -0.0466
  976SOL    HW1 2927   1.844   2.812   2.325  0.3608  0.4135 -0.4782
  976SOL    HW2 2928   1.944   2.812   2.470  0.0528 -0.1204  0.1641
  977SOL     OW 2929   0.421   0.647   1.008 -0.5906  0.1473 -0.0128
  977SOL    HW1 2930   0.348   0.655   0.932 -3.9571 -0.8694  1.4599
  977SOL    HW2 2931   0.519   0.650   0.969  2.4372 -0.3235  1.7301
   3.10000   3.10000   3.10000
