1000 SPC/Fw water molecules t=   1.53000 step= 1530
 2931
    1SOL     OW    1   2.449   0.355   2.651  0.2400  0.4144 -0.2008
    1SOL    HW1    2   2.462   0.250   2.644  0.0022  2.5269 -0.8667
    1SOL    HW2    3   2.506   0.395   2.721 -0.2590 -4.2598 -0.9823
    2SOL     OW    4   2.714   2.990   1.399 -0.1563  0.1362 -0.2619
    2SOL    HW1    5   2.806   2.986   1.353  0.6755 -2.6669 -1.8152
    2SOL    HW2    6   2.710   3.058   1.482  1.3657  0.6355  2.3363
    3SOL     OW    7   2.666   2.550   0.393  0.5851 -0.1793 -0.4197
    3SOL    HW1    8   2.613   2.462   0.402 -1.1437  0.3056  0.2926
    3SOL    HW2    9   2.697   2.584   0.486 -2.9361  1.5344 -0.9672
    4SOL     OW   10   1.248   1.535   2.413  0.5172  0.6324  0.3223
    4SOL    HW1   11   1.173   1.522   2.339  1.2764 -1.3837 -0.3501
    4SOL    HW2   12   1.252   1.462   2.487  1.0743 -1.8493 -0.0622
    5SOL     OW   13   1.189   1.535   2.957 -0.4487 -0.4314  0.6872
    5SOL    HW1   14   1.250   1.613   2.991  1.9224 -4.1607  2.8379
    5SOL    HW2   15   1.095   1.567   2.922 -0.0153 -0.2879  2.5361
    6SOL     OW   16   0.283   1.791   3.011  0.2056  0.1639 -0.1024
    6SOL    HW1   17   0.222   1.820   3.096 -2.2587  1.3743 -0.6645
    6SOL    HW2   18   0.314   1.691   3.016 -0.8989  3.0421 -1.4000
    7SOL     OW   19   2.465   0.899   1.010 -0.1976  0.2131 -0.6201
    7SOL    HW1   20   2.378   0.857   1.052  0.3980 -2.9087  1.3606
    7SOL    HW2   21   2.481   0.861   0.916  0.0040 -0.2971 -1.1135
    8SOL     OW   22   0.368   0.682   1.542 -0.0202 -0.6037  0.7410
    8SOL    HW1   23   0.461   0.636   1.552  0.7222  1.3711  2.3890
    8SOL    HW2   24   0.353   0.734   1.453  1.0022 -0.1447  1.0639
    9SOL     OW   25   1.165   0.864   2.331  0.2425  0.1182 -0.5050
    9SOL    HW1   26   1.247   0.900   2.283 -2.5737  0.3496  1.8662
    9SOL    HW2   27   1.128   0.773   2.294  0.3118  0.9022  0.1163
   10SOL     OW   28   0.744   1.412   1.250 -0.0276  0.1389 -0.3386
   10SOL    HW1   29   0.652   1.405   1.211  0.7116  3.6342  0.8624
   10SOL    HW2   30   0.756   1.495   1.316  2.9744  2.3001  0.6838
   11SOL     OW   31   2.313   2.831   0.861  0.6442  0.4368 -0.3490
   11SOL    HW1   32   2.257   2.784   0.943 -0.4804 -1.0898  1.4732
   11SOL    HW2   33   2.394   2.883   0.891 -0.3167  0.0591 -0.9300
   12SOL     OW   34   1.518   0.910   0.383  0.3351 -0.4163 -0.1043
   12SOL    HW1   35   1.467   0.952   0.303 -1.6775 -2.7586  1.2271
   12SOL    HW2   36   1.532   0.809   0.360 -0.9566 -0.1123  1.9137
   13SOL     OW   37   2.443   0.738   1.795  0.4612 -0.0198 -0.1449
   13SOL    HW1   38   2.363   0.694   1.847  0.2722  3.3347  0.2099
   13SOL    HW2   39   2.457   0.718   1.696  0.3847  2.3682  1.7730
   14SOL     OW   40   1.972   3.077   0.595 -0.2721 -0.0506  0.3434
   14SOL    HW1   41   1.887   3.137   0.604 -1.3294  2.4412 -1.9843
   14SOL    HW2   42   2.000   3.042   0.693 -0.1032  0.2102 -0.8449
   15SOL     OW   43   1.884   2.065   2.652 -0.1581  0.1547 -0.4397
   15SOL    HW1   44   1.828   2.081   2.738 -1.6480 -0.1822  0.3383
   15SOL    HW2   45   1.853   1.983   2.597  1.6554 -1.1121 -0.4912
   16SOL     OW   46   1.594   1.750   3.029  0.5049 -0.0846 -0.2925
   16SOL    HW1   47   1.606   1.645   3.047 -0.9166 -1.9282  1.0458
   16SOL    HW2   48   1.677   1.805   3.052  0.0391  1.9261  0.4912
   17SOL     OW   49   0.121   0.430   0.184  0.4589  0.1124  0.1741
   17SOL    HW1   50   0.207   0.446   0.128 -0.9183 -0.7335  0.8008
   17SOL    HW2   51   0.043   0.425   0.113  0.0484 -0.7967 -1.6016
   18SOL     OW   52   0.887   2.936   2.137 -0.3144 -0.6551  0.3786
   18SOL    HW1   53   0.873   2.861   2.201 -3.5969  1.2721  0.1088
   18SOL    HW2   54   0.963   2.927   2.066  0.2132 -0.2180 -1.3955
   19SOL     OW   55   0.599   0.853   1.915 -0.1379 -0.0476  0.1507
   19SOL    HW1   56   0.664   0.804   1.981  0.1445  0.5395  2.1262
   19SOL    HW2   57   0.636   0.940   1.877 -0.2091 -0.7251 -0.3505
   20SOL     OW   58   0.204   2.859   0.850 -0.4196  0.0233  0.4352
   20SOL    HW1   59   0.106   2.894   0.822  1.3159  0.4472 -1.9783
   20SOL    HW2   60   0.241   2.777   0.803 -0.9193 -0.3545  0.7869
   21SOL     OW   61   2.737   0.312   1.996 -0.7267  0.3634  0.3118
   21SOL    HW1   62   2.704   0.228   1.950 -1.0588 -0.1404  1.6349
   21SOL    HW2   63   2.833   0.294   2.032  1.0384  0.9649 -1.5775
   22SOL     OW   64   2.352   0.194   0.133  0.0518 -0.1863 -0.4035
   22SOL    HW1   65   2.365   0.111   0.080 -1.1497  2.9675  0.8637
   22SOL    HW2   66   2.287   0.256   0.083 -2.0506  0.9417  0.2138
   23SOL     OW   67   2.824   0.539   0.666 -0.4637  0.5997 -0.4238
   23SOL    HW1   68   2.832   0.447   0.619 -0.4169  1.8875  1.6694
   23SOL    HW2   69   2.802   0.614   0.597 -0.8109  1.9208  1.7031
   24SOL     OW   70   0.249   1.853   0.400 -0.2019  0.3819 -0.6466
   24SOL    HW1   71   0.210   1.918   0.330  1.6809  0.6346  0.0417
   24SOL    HW2   72   0.357   1.845   0.397  1.7184  1.8539 -0.5114
   25SOL     OW   73   2.273   0.596   0.204  0.5423 -0.0986 -0.2705
   25SOL    HW1   74   2.277   0.603   0.099  0.7484 -1.2410 -0.8015
   25SOL    HW2   75   2.318   0.509   0.237  1.2388  0.0480 -0.6736
   26SOL     OW   76   2.429   2.150   2.120 -0.1108  0.0929  0.3887
   26SOL    HW1   77   2.496   2.211   2.172 -0.3479 -0.3584 -0.2376
   26SOL    HW2   78   2.475   2.075   2.065  0.7624  1.0741 -0.0180
   27SOL     OW   79   0.568   2.924   0.162  0.6891  0.3295  0.4997
   27SOL    HW1   80   0.653   2.979   0.178  3.3068 -1.4006  0.7447
   27SOL    HW2   81   0.542   2.938   0.061 -1.1128 -0.8207 -0.0199
   28SOL     OW   82   1.610   0.139   0.292 -0.3437  0.6573 -0.4908
   28SOL    HW1   83   1.644   0.085   0.207  0.2685  1.6341 -4.0226
   28SOL    HW2   84   1.645   0.237   0.295 -0.4306 -2.2269 -0.1708
   29SOL     OW   85   2.020   0.617   0.286 -0.0927 -0.1116  0.1420
   29SOL    HW1   86   2.024   0.684   0.367 -0.4192  0.8768 -0.2408
   29SOL    HW2   87   2.113   0.626   0.235  2.2558  0.8520 -0.7648
   30SOL     OW   88   0.177   2.079   0.915 -0.6941  0.2439  0.3633
   30SOL    HW1   89   0.232   2.002   0.871  2.3798  1.7656 -0.5059
   30SOL    HW2   90   0.074   2.074   0.896 -1.2259  1.1300  0.7033
   31SOL     OW   91   2.173   0.048   2.358 -0.5864 -0.1954  0.1082
   31SOL    HW1   92   2.156   0.017   2.458  1.1869 -1.9650 -0.6794
   31SOL    HW2   93   2.092   0.025   2.294  0.8618  0.7895  1.2089
   32SOL     OW   94   3.012   3.075   0.287  0.5834  0.2667  0.7095
   32SOL    HW1   95   2.989   2.973   0.302  0.2937  1.9987 -0.8843
   32SOL    HW2   96   3.089   3.114   0.342  0.5864  1.4006  0.2570
   33SOL     OW   97   0.895   0.188   0.618  0.0549 -0.5818 -0.5554
   33SOL    HW1   98   0.893   0.136   0.530 -0.0224  2.2964  0.2014
   33SOL    HW2   99   0.972   0.259   0.622  0.1937  2.4336 -1.8288
   34SOL     OW  100   0.327   2.693   1.062  0.1711  0.1351 -0.8406
   34SOL    HW1  101   0.268   2.746   0.998  0.8487 -0.6017  0.5333
   34SOL    HW2  102   0.414   2.743   1.071 -0.6918 -1.5749  0.1131
   35SOL     OW  103   0.050   0.128   1.886  0.2290  0.0162  0.4661
   35SOL    HW1  104   0.076   0.036   1.922  0.7675 -0.2592 -3.7633
   35SOL    HW2  105   0.008   0.130   1.792  0.9173 -0.7948 -0.6191
   36SOL     OW  106   1.894   1.182   1.516 -0.0328 -0.1671  0.0788
   36SOL    HW1  107   1.961   1.116   1.566  0.2125 -1.7394  1.3503
   36SOL    HW2  108   1.926   1.228   1.428  1.4766  1.3855 -0.9325
   37SOL     OW  109   1.122   0.202   0.970  0.2053  0.3186  0.3093
   37SOL    HW1  110   1.140   0.308   0.966 -0.7535  1.5743 -2.1489
   37SOL    HW2  111   1.200   0.156   0.921  0.8843 -0.1587  2.5756
   38SOL     OW  112   1.155   2.888   2.466 -0.8302 -0.0186  0.0766
   38SOL    HW1  113   1.072   2.831   2.494  4.2326  0.5234 -0.2271
   38SOL    HW2  114   1.120   2.969   2.410 -0.9811 -0.0949 -0.9059
   39SOL     OW  115   2.460   1.400   3.061 -0.5516 -0.1218  0.3556
   39SOL    HW1  116   2.538   1.339   3.096 -1.0212  0.3661 -1.3554
   39SOL    HW2  117   2.365   1.376   3.099 -3.5711 -0.7319 -1.1421
   40SOL     OW  118   2.029   2.532   2.613 -0.1119 -0.0837 -0.1648
   40SOL    HW1  119   1.998   2.634   2.596  0.0683  1.3972 -1.9449
   40SOL    HW2  120   1.971   2.467   2.552 -1.8957  2.7236  1.8628
   41SOL     OW  121   3.027   0.720   2.811 -0.0224  1.2112  0.2535
   41SOL    HW1  122   2.941   0.766   2.843 -1.6942  0.1813 -1.8325
   41SOL    HW2  123   3.023   0.665   2.722  2.3008 -2.2427 -1.3551
   42SOL     OW  124   1.799   1.727   0.565 -0.0245 -0.2695 -0.1625
   42SOL    HW1  125   1.758   1.630   0.568 -0.2776  1.3352 -1.6593
   42SOL    HW2  126   1.829   1.762   0.472  1.1656  0.9933 -0.1575
   43SOL     OW  127   0.464   1.674   1.197 -0.5442  0.1474 -0.6202
   43SOL    HW1  128   0.439   1.584   1.145  0.5192 -0.1728 -0.2622
   43SOL    HW2  129   0.384   1.707   1.251  0.6689  1.4414 -0.4357
   44SOL     OW  130   1.639   2.369   2.980  0.0139 -0.2490 -0.4006
   44SOL    HW1  131   1.549   2.414   2.988  2.3914  1.2337  3.3096
   44SOL    HW2  132   1.689   2.416   2.904  0.8368 -2.2389  1.9280
   45SOL     OW  133   0.351   1.911   2.561 -0.1117 -0.3669 -0.2210
   45SOL    HW1  134   0.283   1.901   2.483  0.4347  1.5245  0.0490
   45SOL    HW2  135   0.417   1.835   2.563 -0.2879  1.1862  0.0350
   46SOL     OW  136   1.236   0.728   0.283 -0.8461  0.5106  0.2666
   46SOL    HW1  137   1.231   0.809   0.213  0.4423  0.5410 -1.4314
   46SOL    HW2  138   1.180   0.645   0.252  0.6767 -1.6856  0.3773
   47SOL     OW  139   0.166   2.441   1.543 -0.0547 -0.2067 -0.2663
   47SOL    HW1  140   0.130   2.355   1.580 -1.3397  0.3367  1.0559
   47SOL    HW2  141   0.199   2.431   1.448 -1.2889 -1.1007  1.9227
   48SOL     OW  142   2.671   0.635   0.139 -0.3122  0.4829 -0.0771
   48SOL    HW1  143   2.633   0.647   0.233  0.6669  0.9781  0.8577
   48SOL    HW2  144   2.765   0.666   0.123 -3.2483  0.6010  0.2505
   49SOL     OW  145   0.356   0.834   1.757  0.6282  0.3641  0.5777
   49SOL    HW1  146   0.440   0.829   1.823  1.4734  1.2595 -1.0049
   49SOL    HW2  147   0.365   0.767   1.677  3.0519 -0.1306  2.1723
   50SOL     OW  148   1.743   1.147   0.302 -0.0137 -0.0588 -0.1671
   50SOL    HW1  149   1.759   1.043   0.285 -1.1970 -1.7054 -0.5185
   50SOL    HW2  150   1.680   1.163   0.385 -0.6814 -0.0704 -0.9965
   51SOL     OW  151   3.012   1.754   0.264  0.5116  0.7080  0.2898
   51SOL    HW1  152   2.935   1.703   0.216 -2.0770  2.0640  0.0633
   51SOL    HW2  153   3.048   1.701   0.347  2.4628 -0.4675 -2.0059
   52SOL     OW  154   0.777   2.145   0.631 -0.3035 -0.0226 -0.5129
   52SOL    HW1  155   0.689   2.149   0.580 -2.3730 -1.2658 -0.5729
   52SOL    HW2  156   0.764   2.095   0.720  1.5009  1.1778 -2.0835
   53SOL     OW  157   0.231   0.415   1.504 -0.0697 -0.0829  0.5616
   53SOL    HW1  158   0.299   0.495   1.513  0.7561 -2.1539  2.2885
   53SOL    HW2  159   0.172   0.423   1.420  0.8441 -0.5467 -0.6160
   54SOL     OW  160   1.731   0.474   3.091 -0.3283 -0.4010  0.1615
   54SOL    HW1  161   1.806   0.427   3.141 -2.4338  0.4750 -1.8117
   54SOL    HW2  162   1.645   0.492   3.144  0.1164 -1.8889  2.4067
   55SOL     OW  163   0.725   2.922   0.648 -0.0236 -1.1166 -0.5610
   55SOL    HW1  164   0.683   3.014   0.671  2.0354  0.2981 -4.2792
   55SOL    HW2  165   0.825   2.934   0.621 -1.5177  0.5483 -1.1813
   56SOL     OW  166   0.583   1.572   3.059 -0.1800 -0.1251 -0.0478
   56SOL    HW1  167   0.511   1.610   3.120  2.1624  1.4059 -1.0454
   56SOL    HW2  168   0.559   1.488   3.003 -0.9108  1.2488  0.3184
   57SOL     OW  169   1.725   2.507   2.377  0.4028 -0.1533 -0.7248
   57SOL    HW1  170   1.791   2.436   2.420  0.0798 -3.4294 -2.0044
   57SOL    HW2  171   1.637   2.512   2.431  0.4330 -2.2297  1.3491
   58SOL     OW  172   0.664   0.229   1.102 -0.0649  0.1838  0.2923
   58SOL    HW1  173   0.572   0.208   1.151  1.4003  0.0971  1.4695
   58SOL    HW2  174   0.717   0.142   1.087 -0.0915  1.5486 -1.7925
   59SOL     OW  175   0.459   2.390   2.721  0.1125  0.4136  0.3218
   59SOL    HW1  176   0.456   2.289   2.698 -3.7009  1.7446 -2.7791
   59SOL    HW2  177   0.554   2.437   2.700  3.1709  0.8334 -1.3083
   60SOL     OW  178   2.324   2.091   2.354  0.5351 -0.3436  0.2811
   60SOL    HW1  179   2.365   2.102   2.261  1.1378 -1.2252  1.0916
   60SOL    HW2  180   2.378   2.130   2.430 -1.7100  0.1261  1.2193
   61SOL     OW  181   1.199   0.634   0.539 -0.2165 -0.1347 -0.4975
   61SOL    HW1  182   1.109   0.662   0.573  2.8243 -1.1408  1.8148
   61SOL    HW2  183   1.209   0.692   0.453 -0.1722 -0.5127  3.8555
   62SOL     OW  184   2.742   1.712   2.737  0.3428  0.0571  0.0404
   62SOL    HW1  185   2.700   1.635   2.676 -1.6357  0.0120 -2.5246
   62SOL    HW2  186   2.838   1.692   2.770  1.1247 -0.7726  0.4756
   63SOL     OW  187   0.498   0.922   0.203 -0.4121  0.3580  0.2977
   63SOL    HW1  188   0.551   0.974   0.129 -1.2611  0.0665 -1.6070
   63SOL    HW2  189   0.536   0.944   0.297 -1.0106  1.1441 -0.1416
   64SOL     OW  190   3.017   0.588   2.295 -0.1868  0.0066 -0.2543
   64SOL    HW1  191   2.951   0.639   2.354  0.9780  0.1307 -1.9708
   64SOL    HW2  192   3.034   0.641   2.211 -1.3874 -2.6627  2.2403
   65SOL     OW  193   0.233   1.442   0.731  0.6687  0.2223  0.1014
   65SOL    HW1  194   0.239   1.515   0.802 -1.8938 -1.6392  0.9521
   65SOL    HW2  195   0.268   1.475   0.635  2.7952 -0.9820 -1.5089
   66SOL     OW  196   2.556   0.345   0.532  0.8399 -0.4868  0.3416
   66SOL    HW1  197   2.660   0.330   0.541 -1.2604  1.5626  0.3393
   66SOL    HW2  198   2.499   0.281   0.591  0.3510 -1.7413  1.4316
   67SOL     OW  199   0.625   2.491   1.466  0.3010  0.2745 -0.1919
   67SOL    HW1  200   0.709   2.441   1.492  0.2256  2.0723 -1.8877
   67SOL    HW2  201   0.544   2.432   1.430 -0.3068  0.3014 -0.7122
   68SOL     OW  202   0.962   1.014   2.444 -0.5421  0.3907  0.4266
   68SOL    HW1  203   1.015   0.940   2.391 -0.0486 -2.0591 -2.5268
   68SOL    HW2  204   0.890   1.068   2.392 -0.5368  4.3134  3.6344
   69SOL     OW  205   0.809   2.748   2.311 -0.3135 -0.1414 -0.0644
   69SOL    HW1  206   0.834   2.664   2.255  0.3646  2.4301 -1.6831
   69SOL    HW2  207   0.706   2.752   2.309  0.7627  1.6546 -2.5568
   70SOL     OW  208   0.428   0.133   2.492  0.2135  0.5422  0.1699
   70SOL    HW1  209   0.336   0.087   2.522  1.1361 -0.6720  1.3894
   70SOL    HW2  210   0.502   0.058   2.497 -1.6265 -1.1458 -0.7527
   71SOL     OW  211   1.046   1.755   0.315 -0.6619  0.4664  0.0529
   71SOL    HW1  212   1.005   1.669   0.363  1.3579 -0.3553  0.9072
   71SOL    HW2  213   0.974   1.804   0.264 -1.6466  0.3876 -0.9009
   72SOL     OW  214   1.833   0.226   2.167  0.5702  0.0546  0.0622
   72SOL    HW1  215   1.888   0.310   2.155  1.2108 -0.3943 -1.1097
   72SOL    HW2  216   1.883   0.142   2.189 -1.9457  2.7093 -1.5188
   73SOL     OW  217   2.772   2.178   2.460  0.3178 -0.0636  0.6120
   73SOL    HW1  218   2.754   2.078   2.438 -0.5784  0.1003  2.8705
   73SOL    HW2  219   2.827   2.182   2.546 -0.2450  0.1907  1.2387
   74SOL     OW  220   2.719   2.875   2.159 -0.4532 -0.0907 -0.4985
   74SOL    HW1  221   2.654   2.893   2.243  0.4595  1.2966  3.7898
   74SOL    HW2  222   2.792   2.946   2.155 -0.8358 -0.8402 -0.0722
   75SOL     OW  223   0.979   0.846   1.116 -0.6475 -0.3809 -0.0387
   75SOL    HW1  224   0.889   0.881   1.081  0.2979  0.0911  2.8055
   75SOL    HW2  225   1.012   0.878   1.211 -0.3043 -0.3659  0.0650
   76SOL     OW  226   1.870   1.268   2.546 -0.2019  0.1133  0.6524
   76SOL    HW1  227   1.768   1.279   2.562  2.9270 -0.5863  1.1874
   76SOL    HW2  228   1.920   1.348   2.590 -0.4181  0.3663 -2.1883
   77SOL     OW  229   2.882   0.929   1.050 -0.1866 -0.0065  0.0649
   77SOL    HW1  230   2.844   0.840   1.015  2.0167 -3.1144  0.2597
   77SOL    HW2  231   2.972   0.919   1.101  1.6964  0.1630 -3.0551
   78SOL     OW  232   2.003   1.340   1.300  0.0561  0.1674  0.1995
   78SOL    HW1  233   2.102   1.375   1.305 -1.8923 -1.8757  1.2444
   78SOL    HW2  234   1.940   1.418   1.263  1.2409  0.6738  0.1369
   79SOL     OW  235   0.683   1.430   0.841 -0.0036 -0.3209  0.1375
   79SOL    HW1  236   0.597   1.391   0.886  5.0679  1.0451  1.3314
   79SOL    HW2  237   0.754   1.358   0.818 -0.0051  1.1075  2.2538
   80SOL     OW  238   0.560   0.479   1.546  0.2477 -0.3759 -0.3034
   80SOL    HW1  239   0.600   0.536   1.466 -1.4286 -0.2274  2.1412
   80SOL    HW2  240   0.602   0.383   1.565 -1.8159  0.3238 -0.4017
   81SOL     OW  241   1.010   1.246   2.575  0.3760 -0.8684 -0.7170
   81SOL    HW1  242   0.994   1.153   2.531  0.0089  0.2627  0.7022
   81SOL    HW2  243   0.972   1.319   2.516  2.6416 -1.7513 -0.0160
   82SOL     OW  244   0.937   2.873   1.521 -0.3330  0.1354 -0.2554
   82SOL    HW1  245   0.925   2.770   1.510  0.9797 -0.3684  0.8942
   82SOL    HW2  246   1.026   2.911   1.478 -0.8848  2.4259  2.4297
   83SOL     OW  247   2.562   2.376   0.888  0.0870  0.0862 -0.3262
   83SOL    HW1  248   2.496   2.330   0.817  1.2220  2.4766 -1.4973
   83SOL    HW2  249   2.578   2.472   0.865  2.3821 -1.0389  2.2189
   84SOL     OW  250   0.735   0.021   2.308  0.4276 -0.1675 -0.9769
   84SOL    HW1  251   0.693  -0.036   2.385 -1.1847 -1.6840 -1.3723
   84SOL    HW2  252   0.780  -0.035   2.235 -0.4719  1.1425  0.2952
   85SOL     OW  253   0.286   1.680   1.415  0.3081  0.6838 -0.4611
   85SOL    HW1  254   0.243   1.768   1.431  0.6235  0.8364 -2.1800
   85SOL    HW2  255   0.354   1.651   1.488 -0.9226 -0.8207 -1.3064
   86SOL     OW  256   0.385   1.029   1.568 -0.2229  0.2905 -0.3004
   86SOL    HW1  257   0.358   0.990   1.472  0.8198 -0.7324 -1.0903
   86SOL    HW2  258   0.421   0.954   1.635  2.9245  1.2106 -1.9398
   87SOL     OW  259   1.602   0.654   0.337 -0.6773  0.4679  0.2710
   87SOL    HW1  260   1.699   0.702   0.317  2.8649  0.5015 -2.2369
   87SOL    HW2  261   1.546   0.632   0.248  0.6314  1.0139 -2.0421
   88SOL     OW  262   1.607   1.390   0.268  0.2442 -0.2778  0.0791
   88SOL    HW1  263   1.666   1.307   0.253  3.0205  0.2164 -0.1753
   88SOL    HW2  264   1.507   1.375   0.239 -1.0758 -2.5790  2.0827
   89SOL     OW  265   0.024   0.334   0.582  0.5617 -0.5627  0.3011
   89SOL    HW1  266   0.099   0.262   0.591  3.0673  0.5525  1.3097
   89SOL    HW2  267  -0.062   0.297   0.527 -0.3471 -2.2852 -1.1418
   90SOL     OW  268   0.781   1.566   0.154  0.0108 -0.8882 -0.2793
   90SOL    HW1  269   0.834   1.480   0.171  0.9936 -0.9737  1.0895
   90SOL    HW2  270   0.719   1.565   0.069 -0.5151 -0.9831  0.5084
   91SOL     OW  271   1.196   1.507   1.785  0.2832  0.1196 -0.3141
   91SOL    HW1  272   1.225   1.572   1.857  0.4385 -1.7274  0.8813
   91SOL    HW2  273   1.185   1.415   1.827 -0.7329  1.7979  0.7294
   92SOL     OW  274   0.017   0.993   1.209 -0.2333  0.2297  0.0635
   92SOL    HW1  275   0.079   1.069   1.173 -0.4199  1.4137 -0.4348
   92SOL    HW2  276   0.028   0.969   1.311  0.1223 -1.5830  0.3649
   93SOL     OW  277   3.063   2.673   0.057  0.8366 -0.8759  0.8877
   93SOL    HW1  278   3.074   2.691  -0.047  1.6450  0.3467  1.5666
   93SOL    HW2  279   3.074   2.569   0.083 -0.2231 -1.8913 -0.4372
   94SOL     OW  280   1.498   1.323   1.689 -0.4459 -0.6745 -0.5784
   94SOL    HW1  281   1.580   1.269   1.724  1.0996  0.8462 -1.3009
   94SOL    HW2  282   1.502   1.421   1.711  0.8592 -1.4335 -1.1081
   95SOL     OW  283   1.382   2.456   2.921 -0.5715  0.2582 -0.1548
   95SOL    HW1  284   1.326   2.464   3.004 -0.4500 -2.0534 -3.3477
   95SOL    HW2  285   1.371   2.358   2.883 -0.0725 -2.2349 -1.0300
   96SOL     OW  286   0.577   2.140   1.284 -0.4140  0.3802  0.1553
   96SOL    HW1  287   0.499   2.127   1.217  1.2283  1.8259 -0.6876
   96SOL    HW2  288   0.592   2.063   1.347 -1.0128  1.6069 -0.0470
   97SOL     OW  289   0.271   1.646   2.436 -0.1727 -0.1479  0.4430
   97SOL    HW1  290   0.201   1.695   2.373  0.5265  0.3762 -0.2828
   97SOL    HW2  291   0.246   1.628   2.532  1.1352  1.1906 -1.7601
   98SOL     OW  292   2.205   1.663   1.231 -0.4911  0.1255 -0.0762
   98SOL    HW1  293   2.116   1.659   1.175 -1.7837  3.0174 -3.0565
   98SOL    HW2  294   2.295   1.631   1.180 -0.6655 -0.0771 -0.4739
   99SOL     OW  295   2.589   2.114   1.276  0.4649 -0.3810 -0.3503
   99SOL    HW1  296   2.669   2.150   1.322  1.5678 -3.5115 -2.8017
   99SOL    HW2  297   2.572   2.012   1.299  1.2555 -1.2466 -0.3683
  100SOL     OW  298   2.301   0.394   2.113 -0.0126 -0.3032  0.0600
  100SOL    HW1  299   2.245   0.371   2.198  2.0960 -1.0991 -0.1843
  100SOL    HW2  300   2.402   0.405   2.142  0.6797 -0.5541  0.1080
  101SOL     OW  301   0.394   1.532   0.531 -0.2110 -0.5422 -0.0788
  101SOL    HW1  302   0.427   1.611   0.596 -0.5004  1.9616  1.7119
  101SOL    HW2  303   0.460   1.520   0.449 -2.7581 -1.7279 -0.3106
  102SOL     OW  304   2.278   1.081   0.836 -0.2009 -0.0135 -0.6795
  102SOL    HW1  305   2.231   0.986   0.829 -3.2171 -0.5367 -3.8959
  102SOL    HW2  306   2.363   1.087   0.783 -1.1735  0.3583 -0.7124
  103SOL     OW  307   2.263   0.049   0.350 -0.1654 -0.3676  0.0932
  103SOL    HW1  308   2.325   0.080   0.275  0.0070 -0.7768  0.0277
  103SOL    HW2  309   2.317   0.027   0.435  3.4841  1.5918 -1.0756
  104SOL     OW  310   0.021   1.776   2.150 -0.6309 -0.0299  0.5661
  104SOL    HW1  311   0.067   1.757   2.061  0.4670  0.2449  1.3125
  104SOL    HW2  312  -0.076   1.815   2.152 -2.0880 -0.8850  2.0670
  105SOL     OW  313   1.397   2.108   0.783  0.2666  0.4115 -0.0996
  105SOL    HW1  314   1.379   2.144   0.689 -0.9850 -1.5574 -1.4273
  105SOL    HW2  315   1.387   2.005   0.787 -0.5476  1.4410 -1.1193
  106SOL     OW  316   2.156   0.395   1.437 -0.3460  0.2361 -0.2105
  106SOL    HW1  317   2.105   0.307   1.454  1.2190 -0.7754 -5.8928
  106SOL    HW2  318   2.157   0.451   1.525  0.8743 -0.1276  0.0340
  107SOL     OW  319   1.954   2.920   1.154  0.0754 -0.5757 -0.1351
  107SOL    HW1  320   1.879   2.963   1.213  0.0207  0.0570  0.4295
  107SOL    HW2  321   1.908   2.855   1.082 -2.3583  2.2570  0.0115
  108SOL     OW  322   0.828   2.839   1.201 -0.1540 -0.4526 -0.0760
  108SOL    HW1  323   0.836   2.737   1.205  0.1483 -0.5816  0.8331
  108SOL    HW2  324   0.898   2.884   1.262  0.6737  0.1511 -0.4477
  109SOL     OW  325   2.141   0.203   0.705 -0.3831  0.7180 -0.1757
  109SOL    HW1  326   2.080   0.124   0.680 -0.7015  0.6051 -0.0640
  109SOL    HW2  327   2.140   0.219   0.808 -1.2691 -0.3114  1.1294
  110SOL     OW  328   0.477   2.763   2.762  0.3909 -0.3910  0.1315
  110SOL    HW1  329   0.459   2.767   2.658 -1.2727  1.6721  3.1733
  110SOL    HW2  330   0.558   2.705   2.791  1.1741 -1.8413  1.3712
  111SOL     OW  331   1.278   0.495   2.284  0.1734  0.4754 -0.3982
  111SOL    HW1  332   1.192   0.535   2.327 -0.9652 -1.4229 -1.8458
  111SOL    HW2  333   1.345   0.445   2.352 -2.3465 -0.0742 -0.9043
  112SOL     OW  334   1.763   0.365   1.487 -0.6770  0.4160  0.1611
  112SOL    HW1  335   1.738   0.425   1.409 -0.5826 -1.8364  0.6379
  112SOL    HW2  336   1.676   0.360   1.553 -3.3938  0.4684 -0.3782
  113SOL     OW  337   2.383   1.722   1.791 -0.2519  0.3917  0.6642
  113SOL    HW1  338   2.379   1.625   1.759  0.5409  3.0949  0.0234
  113SOL    HW2  339   2.363   1.734   1.892  0.5815  0.9378 -0.2578
  114SOL     OW  340   0.332   0.457   1.196  0.7103 -0.1532 -0.8302
  114SOL    HW1  341   0.406   0.512   1.146  1.1431  1.5158 -0.5718
  114SOL    HW2  342   0.234   0.484   1.163 -3.0860 -1.8847 -3.9186
  115SOL     OW  343   2.679   1.556   1.202 -0.4315 -0.1494  0.4520
  115SOL    HW1  344   2.697   1.469   1.252  0.0689  2.4671 -1.8092
  115SOL    HW2  345   2.757   1.569   1.134  0.5174 -0.1736  1.8564
  116SOL     OW  346   1.912   0.920   0.759  0.3601 -0.0393  0.2594
  116SOL    HW1  347   1.832   0.857   0.733 -3.6589  0.3496 -0.9260
  116SOL    HW2  348   1.893   1.023   0.740 -1.0137  3.8183  0.7666
  117SOL     OW  349   1.133   0.351   0.587  0.2649  0.6231  0.3280
  117SOL    HW1  350   1.139   0.451   0.606 -1.4592 -4.0766 -5.3099
  117SOL    HW2  351   1.130   0.339   0.484  1.9597  0.3635  0.8766
  118SOL     OW  352   1.131   1.225   1.061  0.2540  0.0855 -0.5660
  118SOL    HW1  353   1.051   1.202   1.125  0.6356  0.5322 -0.3469
  118SOL    HW2  354   1.187   1.305   1.100  2.2144 -0.2576  1.8287
  119SOL     OW  355   1.854   1.563   2.188 -0.2574  0.6220 -0.6040
  119SOL    HW1  356   1.828   1.621   2.105  0.2112 -0.3642 -0.4421
  119SOL    HW2  357   1.954   1.558   2.209 -1.1790  1.1391  4.5882
  120SOL     OW  358   2.896   2.790   0.247  0.0952  0.3565  0.0848
  120SOL    HW1  359   2.963   2.747   0.178 -0.6255 -1.0172  2.2691
  120SOL    HW2  360   2.796   2.783   0.232  0.4862  0.3757  0.7971
  121SOL     OW  361   1.982   0.749   2.274  0.5407  0.0040  0.5081
  121SOL    HW1  362   2.026   0.823   2.215  2.1843  2.3888  1.8386
  121SOL    HW2  363   1.997   0.653   2.240  0.7215  0.8809  2.9750
  122SOL     OW  364   2.616   2.480   1.320  0.4208 -0.1993 -0.3918
  122SOL    HW1  365   2.680   2.435   1.248  4.3653  0.8350  4.1191
  122SOL    HW2  366   2.622   2.438   1.419 -0.6981 -0.4074  2.5381
  123SOL     OW  367   1.694   0.138   1.768 -0.1259 -0.3423  0.7969
  123SOL    HW1  368   1.709   0.066   1.691  1.1293  3.6189  0.4166
  123SOL    HW2  369   1.786   0.174   1.796 -0.9874 -0.1613 -3.5436
  124SOL     OW  370   3.067   0.434   1.101 -0.2142 -0.4746  0.3712
  124SOL    HW1  371   3.018   0.512   1.151  2.0449  0.2940 -0.2455
  124SOL    HW2  372   3.074   0.444   0.998  1.6634 -0.1355  0.6220
  125SOL     OW  373   0.866   1.936   0.816 -0.1444  0.0940 -0.7618
  125SOL    HW1  374   0.957   1.896   0.810 -0.1142  1.9889  0.7851
  125SOL    HW2  375   0.872   2.038   0.848  0.3372 -0.3432 -0.8501
  126SOL     OW  376   1.882   2.299   2.492 -0.4233  0.4629  0.7266
  126SOL    HW1  377   1.934   2.244   2.422 -0.9040 -0.6344 -2.2067
  126SOL    HW2  378   1.854   2.230   2.566  1.8929 -1.3616  1.1132
  127SOL     OW  379   0.876   0.990   0.214 -0.0599 -0.2303 -0.4102
  127SOL    HW1  380   0.948   1.022   0.285  1.5535  0.7719  0.7916
  127SOL    HW2  381   0.873   0.886   0.206  1.5937  1.4215  0.5315
  128SOL     OW  382   0.959   0.235   1.452  0.2609 -0.3358 -0.3866
  128SOL    HW1  383   0.945   0.318   1.390  0.6293 -1.5571  1.0592
  128SOL    HW2  384   0.922   0.138   1.426  0.4806 -0.0045  3.9493
  129SOL     OW  385   1.862   0.727   1.869  0.4723  0.9464  0.1335
  129SOL    HW1  386   1.853   0.745   1.762  0.2781 -1.7361 -0.9653
  129SOL    HW2  387   1.891   0.814   1.920  1.0299  1.0953  1.2702
  130SOL     OW  388   1.336   2.294   0.965 -0.5676 -0.0625 -0.2039
  130SOL    HW1  389   1.339   2.217   0.896  0.9258  0.1885 -1.3161
  130SOL    HW2  390   1.421   2.354   0.957 -1.3010 -0.7312  1.4891
  131SOL     OW  391   3.093   1.408   1.369  0.0088 -0.2742  0.2262
  131SOL    HW1  392   3.014   1.351   1.403 -0.2831 -1.6734  1.2659
  131SOL    HW2  393   3.173   1.348   1.356 -3.9076 -0.7309  1.0344
  132SOL     OW  394   2.039   2.364   0.527 -0.3028  0.4526  0.0803
  132SOL    HW1  395   1.943   2.411   0.541 -0.6072  2.1103  1.2707
  132SOL    HW2  396   2.055   2.285   0.591  0.4154  1.1535 -0.4857
  133SOL     OW  397   1.728   2.465   2.735 -0.6051  0.6683 -0.4135
  133SOL    HW1  398   1.645   2.482   2.675 -0.4163 -2.2485 -0.4465
  133SOL    HW2  399   1.815   2.490   2.695 -2.2644  0.3696  1.0328
  134SOL     OW  400   2.699   2.392   1.583  0.0291 -0.1272  0.0002
  134SOL    HW1  401   2.643   2.366   1.671  1.2504 -3.0173 -0.8246
  134SOL    HW2  402   2.724   2.494   1.583  0.3684  0.3669  0.5260
  135SOL     OW  403   0.747   1.427   2.652  0.4704  0.3974  0.7436
  135SOL    HW1  404   0.714   1.328   2.670  0.8038  2.2537 -1.2184
  135SOL    HW2  405   0.780   1.439   2.551 -0.3594 -1.5264 -1.3133
  136SOL     OW  406   1.194   2.040   0.385  0.2988  0.1591  0.3148
  136SOL    HW1  407   1.148   2.123   0.426 -0.5567 -1.0687  1.4123
  136SOL    HW2  408   1.139   1.958   0.402  0.5947 -0.1494 -3.7241
  137SOL     OW  409   0.405   1.218   2.255 -0.0926 -0.1415  0.6489
  137SOL    HW1  410   0.317   1.222   2.309 -2.3275 -1.8317  0.3938
  137SOL    HW2  411   0.430   1.115   2.228  1.1601 -1.6175 -0.1133
  138SOL     OW  412   2.423   1.533   0.267 -0.4786  0.3598  0.1523
  138SOL    HW1  413   2.366   1.512   0.181 -2.1137 -1.4081 -0.0141
  138SOL    HW2  414   2.433   1.446   0.323 -0.6177  0.2631 -1.8636
  139SOL     OW  415   1.838   2.679   1.579  0.1591  0.0798 -0.1276
  139SOL    HW1  416   1.733   2.684   1.582  1.3429  0.3437  0.0099
  139SOL    HW2  417   1.862   2.594   1.524  1.5252 -0.2231 -1.9310
  140SOL     OW  418   2.991   2.972   2.592 -0.1752 -0.3820 -0.4169
  140SOL    HW1  419   3.048   2.883   2.585  2.4746  0.2011  0.5275
  140SOL    HW2  420   3.049   3.052   2.563  1.1428  1.0691  0.7728
  141SOL     OW  421   1.303   1.608   1.547 -0.0207  0.0899  0.2195
  141SOL    HW1  422   1.255   1.700   1.554  0.8747 -0.1721  0.2684
  141SOL    HW2  423   1.288   1.554   1.634  0.9637 -1.3430  0.7254
  142SOL     OW  424   1.506   0.667   2.208  0.0538  0.1452  0.2927
  142SOL    HW1  425   1.482   0.732   2.126  0.5168 -2.5165 -1.8518
  142SOL    HW2  426   1.422   0.613   2.237 -0.3443  2.1695 -0.5332
  143SOL     OW  427   2.760   0.807   0.545 -0.6646 -0.2483 -0.0802
  143SOL    HW1  428   2.811   0.860   0.463 -0.6202  0.8821 -2.2718
  143SOL    HW2  429   2.773   0.858   0.635  0.2194 -3.2845 -1.0984
  144SOL     OW  430   2.920   1.191   1.481 -0.3965  0.5839  0.1260
  144SOL    HW1  431   2.875   1.169   1.573 -0.7107  2.1621 -0.2018
  144SOL    HW2  432   2.991   1.122   1.450  3.2124  2.1805 -0.0093
  145SOL     OW  433   0.861   1.836   0.113  0.0699 -0.0464  0.3743
  145SOL    HW1  434   0.922   1.837   0.025  0.8267  3.3045  0.6049
  145SOL    HW2  435   0.789   1.762   0.113  0.2301  1.3383 -0.9394
  146SOL     OW  436   2.465   0.673   1.515  0.3501 -0.6182  0.0667
  146SOL    HW1  437   2.471   0.571   1.494 -1.7075 -1.3454  0.6061
  146SOL    HW2  438   2.383   0.721   1.469  1.4807  0.7574 -0.4461
  147SOL     OW  439   1.109   2.504   0.592  0.4587 -0.1551  0.1740
  147SOL    HW1  440   1.050   2.543   0.515  0.1524  0.3701 -0.6012
  147SOL    HW2  441   1.202   2.466   0.562  1.9350  0.7198  0.5524
  148SOL     OW  442   1.608   1.476   3.083 -0.5278 -0.0345  0.2826
  148SOL    HW1  443   1.616   1.379   3.041 -2.4044  1.6270  0.9964
  148SOL    HW2  444   1.525   1.480   3.146  0.1189 -3.0545 -0.1182
  149SOL     OW  445   0.672   1.499   1.975 -0.1390 -0.5874 -0.0684
  149SOL    HW1  446   0.580   1.479   2.018  1.5116  1.5859 -0.2318
  149SOL    HW2  447   0.699   1.449   1.887 -1.5005  0.8610 -0.1223
  150SOL     OW  448   3.043   1.201   0.967  0.0055  0.5377  0.2650
  150SOL    HW1  449   3.119   1.230   1.034  2.2565 -0.3719 -1.1527
  150SOL    HW2  450   2.990   1.117   0.997  3.7542  1.6916 -3.7724
  151SOL     OW  451   0.258   0.852   2.054 -0.7363  0.2681 -0.3398
  151SOL    HW1  452   0.295   0.936   2.000 -1.3293  1.1929 -1.1967
  151SOL    HW2  453   0.302   0.759   2.038 -1.6677 -0.0828 -1.5206
  152SOL     OW  454   1.457   1.841   1.088 -0.0265  0.1334 -0.3321
  152SOL    HW1  455   1.511   1.928   1.110 -1.8508 -0.3998 -1.4610
  152SOL    HW2  456   1.355   1.867   1.057 -0.8275  1.6386 -0.2187
  153SOL     OW  457   0.141   1.536   0.220 -0.3816  0.0222  0.5389
  153SOL    HW1  458   0.150   1.433   0.215  2.9013 -1.6918 -0.0958
  153SOL    HW2  459   0.130   1.573   0.313  0.3958  0.3670 -0.6883
  154SOL     OW  460   2.289   1.769   2.758  0.8565 -0.0618 -0.4477
  154SOL    HW1  461   2.333   1.679   2.796  0.2628 -0.4553 -0.0760
  154SOL    HW2  462   2.356   1.831   2.712 -2.1725 -0.4126 -1.3138
  155SOL     OW  463   2.416   1.279   0.381 -0.7756  0.1927  0.8124
  155SOL    HW1  464   2.510   1.232   0.375  0.3602 -0.0288 -0.2594
  155SOL    HW2  465   2.342   1.223   0.423  1.7816 -1.9924 -0.3119
  156SOL     OW  466   2.409   0.826   0.697  1.0181 -0.5993  0.0146
  156SOL    HW1  467   2.309   0.823   0.719  1.5613  3.0388  0.0758
  156SOL    HW2  468   2.431   0.902   0.626  0.9405  1.5991  1.9800
  157SOL     OW  469   1.217   3.011   3.036  0.2471  0.6104  0.8925
  157SOL    HW1  470   1.307   2.988   2.985  2.6865 -1.3332 -1.6238
  157SOL    HW2  471   1.224   3.111   3.064  0.1806  1.0095  0.8862
  158SOL     OW  472   1.072   1.880   1.843 -0.2552  0.8881  0.2132
  158SOL    HW1  473   1.105   1.973   1.810 -3.3896  3.2353  0.9776
  158SOL    HW2  474   0.989   1.891   1.905  0.9945  0.0069 -0.3586
  159SOL     OW  475   0.841   0.432   1.251 -0.5845 -0.0844  0.4502
  159SOL    HW1  476   0.781   0.517   1.261 -1.5696 -0.5790  1.8540
  159SOL    HW2  477   0.792   0.353   1.214  1.5360  2.4506  1.0394
  160SOL     OW  478   1.421   2.445   1.449 -0.3086 -0.2687  0.1369
  160SOL    HW1  479   1.363   2.391   1.517 -1.9925 -1.8477 -0.5420
  160SOL    HW2  480   1.501   2.397   1.403  0.0112  2.1003 -2.5252
  161SOL     OW  481   3.053   2.660   0.431  0.0491 -0.2696  0.2282
  161SOL    HW1  482   3.011   2.568   0.451  0.4836  3.0045 -1.5374
  161SOL    HW2  483   2.994   2.708   0.355  0.3788 -0.7533 -0.0149
  162SOL     OW  484   2.539   1.872   0.447 -0.0537  0.6733 -0.0805
  162SOL    HW1  485   2.544   1.865   0.345 -0.8413 -0.2014 -1.5445
  162SOL    HW2  486   2.494   1.787   0.481  0.5333 -2.2453 -4.8712
  163SOL     OW  487   1.946   2.703   0.774  0.3737  0.1680 -0.3201
  163SOL    HW1  488   1.949   2.712   0.668  0.8110  0.6855 -0.5308
  163SOL    HW2  489   1.994   2.613   0.808 -0.9292 -2.3711  0.5026
  164SOL     OW  490   0.002   0.161   1.215 -0.0256 -0.4930 -0.1585
  164SOL    HW1  491  -0.017   0.261   1.183  2.8915  0.0203  3.6508
  164SOL    HW2  492   0.060   0.160   1.302 -0.9539  0.6838 -1.2135
  165SOL     OW  493   1.126   1.424   0.666 -0.6911  0.6536 -0.2283
  165SOL    HW1  494   1.114   1.461   0.765 -0.2444  1.3780  1.3375
  165SOL    HW2  495   1.072   1.474   0.589  0.4248  0.8936 -0.5352
  166SOL     OW  496   1.521   1.009   1.810  0.2474  0.1791  0.0447
  166SOL    HW1  497   1.429   1.050   1.841 -0.1869 -1.3503 -0.3207
  166SOL    HW2  498   1.601   1.079   1.799  1.4812 -0.8414  0.0404
  167SOL     OW  499   0.679   1.983   1.506 -0.1500  0.5856  0.8495
  167SOL    HW1  500   0.720   2.048   1.575  0.9716 -1.5314 -1.1748
  167SOL    HW2  501   0.647   1.890   1.540  2.9354 -1.4712 -1.0749
  168SOL     OW  502   1.592   2.337   0.152  0.3726  0.0726  0.3702
  168SOL    HW1  503   1.633   2.340   0.056 -1.2353  0.2714  1.4964
  168SOL    HW2  504   1.634   2.271   0.223  4.5887  1.3642 -0.4179
  169SOL     OW  505   0.049   2.545   2.203 -0.2206  0.2212  0.5459
  169SOL    HW1  506   0.066   2.531   2.101 -2.2772 -0.1822 -2.6638
  169SOL    HW2  507   0.125   2.501   2.259 -1.8224 -0.6104  1.0646
  170SOL     OW  508   1.177   0.156   2.036  0.0465 -0.0008 -0.0451
  170SOL    HW1  509   1.263   0.183   2.089  0.3194 -1.5768 -0.0588
  170SOL    HW2  510   1.193   0.146   1.931 -0.5439 -1.5806  0.5507
  171SOL     OW  511   0.196   0.849   2.387 -0.3602 -0.1677  0.7238
  171SOL    HW1  512   0.093   0.846   2.415 -3.2214 -2.4822  0.7254
  171SOL    HW2  513   0.219   0.853   2.287  1.1886 -0.7364  3.5937
  172SOL     OW  514   0.971   1.044   2.871  0.5370 -0.5868  0.0043
  172SOL    HW1  515   0.945   1.128   2.929 -1.4657 -0.6475  3.5876
  172SOL    HW2  516   0.932   1.053   2.778 -1.7830  2.4463  0.9217
  173SOL     OW  517   0.473   2.529   0.084 -0.7371  0.7835 -0.5736
  173SOL    HW1  518   0.494   2.457   0.013 -1.1258 -0.2442  2.8450
  173SOL    HW2  519   0.412   2.478   0.150  0.9667  1.3305 -0.7393
  174SOL     OW  520   1.507   2.878   1.068 -0.0793  0.3625 -0.1073
  174SOL    HW1  521   1.576   2.932   1.016 -0.2253  0.1871 -1.7138
  174SOL    HW2  522   1.471   2.797   1.012 -1.8698  0.2372  2.0043
  175SOL     OW  523   0.400   3.068   1.722  0.4471 -0.0018 -0.1654
  175SOL    HW1  524   0.484   3.063   1.776 -2.1310  0.1368 -0.8031
  175SOL    HW2  525   0.384   3.162   1.690 -2.4045 -1.6409  0.8302
  176SOL     OW  526   2.650   0.405   0.016  0.5238 -0.0507 -0.6054
  176SOL    HW1  527   2.654   0.497   0.067  0.1567  0.3372 -1.9611
  176SOL    HW2  528   2.698   0.327   0.064 -2.3882 -0.4159 -1.5225
  177SOL     OW  529   0.386   0.302   0.928 -0.3997 -0.2717 -0.3834
  177SOL    HW1  530   0.332   0.218   0.929  0.4289  0.3776 -2.3760
  177SOL    HW2  531   0.364   0.359   1.007  3.0624 -3.3812  0.0107
  178SOL     OW  532   0.056   2.750   2.580  0.0909  0.1355  0.2822
  178SOL    HW1  533   0.011   2.660   2.562 -1.8109  2.5113 -1.0768
  178SOL    HW2  534   0.111   2.754   2.670  1.1892  0.7624 -1.2273
  179SOL     OW  535   2.963   1.548   1.138 -0.0717  0.4750  0.5090
  179SOL    HW1  536   2.986   1.647   1.112 -0.5138 -2.6836  0.1027
  179SOL    HW2  537   3.029   1.508   1.205 -1.0981 -1.9269 -2.0920
  180SOL     OW  538   0.207   1.376   1.778  0.3672  0.2022 -0.3308
  180SOL    HW1  539   0.300   1.326   1.798  2.2321 -1.3674  2.1970
  180SOL    HW2  540   0.163   1.414   1.866 -1.6348  0.4004 -3.2057
  181SOL     OW  541   2.948   1.885   2.533  0.0106 -0.5145 -0.6260
  181SOL    HW1  542   3.001   1.958   2.482 -3.4255 -1.2448 -0.9228
  181SOL    HW2  543   2.853   1.866   2.508  0.6702 -1.7981  2.4903
  182SOL     OW  544   2.269   1.350   1.243 -0.3819  0.4201 -0.6240
  182SOL    HW1  545   2.207   1.299   1.174  2.6409  0.8358 -1.3627
  182SOL    HW2  546   2.337   1.416   1.196 -0.6246  1.4906 -2.9643
  183SOL     OW  547   1.415   2.283   2.441  0.3234  0.3495 -0.5383
  183SOL    HW1  548   1.337   2.250   2.498 -0.1175 -1.0423 -1.5402
  183SOL    HW2  549   1.479   2.206   2.413  1.0698  2.0723 -0.7284
  184SOL     OW  550   2.164   0.819   0.756  0.5480  0.0509  0.1853
  184SOL    HW1  551   2.068   0.853   0.745 -0.9668 -0.9688 -0.1229
  184SOL    HW2  552   2.175   0.721   0.740  0.2657  1.0535  2.4153
  185SOL     OW  553   1.582   2.780   2.007 -0.2645 -0.1332 -0.2729
  185SOL    HW1  554   1.514   2.858   2.009  1.4766  0.9788 -2.9555
  185SOL    HW2  555   1.637   2.774   2.094 -1.6857  0.3849 -1.4498
  186SOL     OW  556   0.101   2.191   1.706  0.5848 -0.1641  0.6624
  186SOL    HW1  557   0.070   2.217   1.801 -2.8264  1.1439  0.3224
  186SOL    HW2  558   0.182   2.127   1.697  2.3025 -2.9504  1.9872
  187SOL     OW  559   1.368   0.651   1.650  0.3897  0.3403 -0.0451
  187SOL    HW1  560   1.446   0.709   1.604  0.4887  0.0659 -0.1171
  187SOL    HW2  561   1.411   0.565   1.693  1.5673 -3.8021  1.8940
  188SOL     OW  562   2.739   2.703   1.475 -0.4438 -0.0855  0.7492
  188SOL    HW1  563   2.692   2.795   1.494  0.0840 -1.3303 -0.2242
  188SOL    HW2  564   2.681   2.645   1.408  0.9470  1.2660 -4.8193
  189SOL     OW  565   0.923   1.228   1.367  0.1462  0.4646 -0.1483
  189SOL    HW1  566   0.986   1.276   1.438  0.6462  1.3403 -0.7989
  189SOL    HW2  567   0.854   1.293   1.321 -0.6040 -1.2569 -4.2784
  190SOL     OW  568   1.454   1.876   1.526 -0.1215 -0.3596  0.2234
  190SOL    HW1  569   1.471   1.775   1.504  0.1008 -0.1799 -2.7669
  190SOL    HW2  570   1.466   1.894   1.629  1.5235  0.5393 -0.5374
  191SOL     OW  571   0.874   0.770   1.522  0.2253 -0.5011 -0.4431
  191SOL    HW1  572   0.912   0.694   1.583 -1.8155 -0.0623  1.7480
  191SOL    HW2  573   0.944   0.823   1.464 -2.3370 -1.7057  1.5457
  192SOL     OW  574   1.824   2.443   1.105  0.1731 -0.6777  0.1472
  192SOL    HW1  575   1.732   2.431   1.059  1.0435  3.1093  1.1613
  192SOL    HW2  576   1.903   2.395   1.050  1.9389  2.4403  1.3766
  193SOL     OW  577   0.569   0.579   0.476  0.0072 -0.4276  0.0910
  193SOL    HW1  578   0.515   0.490   0.468  1.9234  3.9278 -0.0076
  193SOL    HW2  579   0.595   0.616   0.384 -1.6480 -0.7520 -1.1753
  194SOL     OW  580   0.356   0.871   1.331  0.1925  0.2795 -0.9985
  194SOL    HW1  581   0.273   0.852   1.269  0.2101 -0.1191 -0.3734
  194SOL    HW2  582   0.448   0.862   1.287  1.3771  0.3222  1.0305
  195SOL     OW  583   0.982   2.930   0.553  0.3379  0.5049  0.2052
  195SOL    HW1  584   0.984   2.838   0.503  0.7044  0.5888  1.0443
  195SOL    HW2  585   1.080   2.962   0.561  1.3534 -1.1324 -0.3390
  196SOL     OW  586   0.285   1.400   1.323  0.0557 -0.1839 -0.2052
  196SOL    HW1  587   0.240   1.489   1.350 -1.0714 -2.1344  0.8584
  196SOL    HW2  588   0.286   1.332   1.402  1.5199 -2.5174 -4.4395
  197SOL     OW  589   0.830   2.027   0.317  0.1388 -0.3527  0.0240
  197SOL    HW1  590   0.856   1.964   0.395  1.3376 -0.5983 -0.3002
  197SOL    HW2  591   0.837   1.970   0.227  0.7349 -1.3745  1.0175
  198SOL     OW  592   0.307   1.252   0.335  0.0470 -0.1688 -0.1449
  198SOL    HW1  593   0.208   1.226   0.306 -3.0359  0.2544  3.6615
  198SOL    HW2  594   0.298   1.326   0.409 -1.9305  0.6648  0.3021
  199SOL     OW  595   2.168   0.482   2.578 -0.0886  0.1700  0.0931
  199SOL    HW1  596   2.095   0.437   2.641 -3.0271 -0.1104 -1.1610
  199SOL    HW2  597   2.260   0.446   2.604  0.9337 -0.2222  1.3437
  200SOL     OW  598   3.049   2.927   0.806 -0.5422 -0.4816 -0.3870
  200SOL    HW1  599   3.044   3.022   0.843 -1.0472 -0.2597 -1.8812
  200SOL    HW2  600   2.985   2.909   0.727  1.2844 -0.1921 -3.4669
  201SOL     OW  601   0.936   0.679   0.509 -0.2390 -0.5476 -0.4360
  201SOL    HW1  602   0.895   0.752   0.567  0.7552 -0.6952  0.3970
  201SOL    HW2  603   0.896   0.588   0.538 -0.3467  3.4820 -0.6860
  202SOL     OW  604   0.447   1.231   1.842 -0.0079 -0.0732  0.6263
  202SOL    HW1  605   0.543   1.213   1.817  0.2945 -0.4729 -1.1790
  202SOL    HW2  606   0.440   1.297   1.920 -2.1462 -0.2792  0.1829
  203SOL     OW  607   0.662   0.255   1.590  0.7172 -1.0017  0.4803
  203SOL    HW1  608   0.711   0.222   1.508 -0.4641  0.7488  1.4033
  203SOL    HW2  609   0.729   0.281   1.663  1.6560  0.9667 -0.5954
  204SOL     OW  610   2.079   1.794   2.944  0.1771  0.0078 -0.2654
  204SOL    HW1  611   2.087   1.702   2.985 -0.6953 -0.6883 -0.2887
  204SOL    HW2  612   2.129   1.787   2.854  1.1125  1.4099 -0.2321
  205SOL     OW  613   1.829   1.903   3.080  0.0170  0.2234  0.0217
  205SOL    HW1  614   1.922   1.879   3.048 -0.3958  4.2278 -1.0730
  205SOL    HW2  615   1.797   1.986   3.026  0.8709 -0.9945  2.3056
  206SOL     OW  616   2.396   2.739   0.270 -0.2153 -0.5192 -0.4055
  206SOL    HW1  617   2.361   2.644   0.296 -2.7787  1.3837  1.8224
  206SOL    HW2  618   2.496   2.739   0.251 -0.9444  1.9501 -1.2261
  207SOL     OW  619   0.709   1.769   2.857 -0.2880 -0.2995  0.7110
  207SOL    HW1  620   0.802   1.726   2.836  1.9472  0.3525  3.0358
  207SOL    HW2  621   0.651   1.708   2.922 -2.7392 -2.2801  0.3680
  208SOL     OW  622   1.016   1.575   1.232 -0.4433 -0.6128  0.7431
  208SOL    HW1  623   0.947   1.560   1.152  2.0504 -0.5526 -2.8541
  208SOL    HW2  624   0.998   1.667   1.279  1.5302  1.4309 -3.3278
  209SOL     OW  625   0.266   0.959   3.093  0.0907  0.0778 -0.3008
  209SOL    HW1  626   0.252   0.870   3.035 -0.7519 -3.1755  0.5095
  209SOL    HW2  627   0.241   0.934   3.192  1.2478  2.6830 -0.0729
  210SOL     OW  628   1.707   0.513   1.256 -0.0905  0.4650  0.3341
  210SOL    HW1  629   1.661   0.576   1.185 -1.9250 -0.0612  1.8327
  210SOL    HW2  630   1.804   0.497   1.233 -0.1853  0.2932 -0.2695
  211SOL     OW  631   2.111   1.011   1.586  0.6950  0.0857 -0.2019
  211SOL    HW1  632   2.166   0.967   1.665  3.1226 -2.1600 -0.6670
  211SOL    HW2  633   2.147   1.104   1.548  0.2819 -1.5808  1.3126
  212SOL     OW  634   0.027   0.986   1.497  0.4810  0.0008 -0.0518
  212SOL    HW1  635   0.087   1.064   1.527  1.3045  0.0522  1.5691
  212SOL    HW2  636   0.034   0.901   1.555 -0.8421 -1.0338  0.6132
  213SOL     OW  637   2.824   0.169   0.301  0.5363 -0.7179  0.5923
  213SOL    HW1  638   2.881   0.083   0.277  3.7237 -2.6485  2.1580
  213SOL    HW2  639   2.732   0.178   0.256 -0.2245 -0.1117  2.2774
  214SOL     OW  640   2.172   0.341   2.348 -0.1366  0.0237  0.4536
  214SOL    HW1  641   2.171   0.394   2.442 -0.0994  0.3245 -0.7440
  214SOL    HW2  642   2.185   0.236   2.358 -1.2404 -2.9516 -1.6683
  215SOL     OW  643   1.642   2.226   2.051 -0.2727 -0.1272 -0.5048
  215SOL    HW1  644   1.739   2.258   2.067 -2.5515 -0.3813 -0.7944
  215SOL    HW2  645   1.585   2.310   2.027  0.3996 -2.2532 -1.4883
  216SOL     OW  646   2.172   0.553   0.697  0.1917 -0.3000  0.8230
  216SOL    HW1  647   2.124   0.508   0.621  2.8679  2.8463  0.6495
  216SOL    HW2  648   2.272   0.541   0.689  3.8790 -4.1874  1.4377
  217SOL     OW  649   0.921   2.795   2.555  0.5295 -0.0517  1.0354
  217SOL    HW1  650   0.943   2.718   2.620 -1.3796  3.0931  2.7830
  217SOL    HW2  651   0.872   2.763   2.467 -0.8566  0.6321 -1.9380
  218SOL     OW  652   1.889   1.457   0.040  0.3577  0.3088  0.3459
  218SOL    HW1  653   1.788   1.482   0.039  1.4844  1.6280 -1.0295
  218SOL    HW2  654   1.908   1.382   0.113 -0.3539 -1.1066  0.3159
  219SOL     OW  655   2.449   1.263   2.536  0.1501 -0.1080  0.5240
  219SOL    HW1  656   2.512   1.214   2.467 -0.6911 -0.4879  2.0112
  219SOL    HW2  657   2.433   1.206   2.622 -2.6945  1.6894  0.4069
  220SOL     OW  658   1.422   1.014   1.374 -0.1380  0.2948 -0.0989
  220SOL    HW1  659   1.517   0.984   1.397 -0.2890 -0.8800 -1.0769
  220SOL    HW2  660   1.405   1.048   1.278 -0.4232  1.5864  0.8710
  221SOL     OW  661   1.374   0.958   2.200  0.6378 -0.4098 -0.3582
  221SOL    HW1  662   1.337   0.995   2.108  0.0315  2.2931 -3.0461
  221SOL    HW2  663   1.458   1.008   2.229 -2.0908  0.0067  0.1952
  222SOL     OW  664   1.133   0.087   1.234  0.1594  0.4433 -0.1630
  222SOL    HW1  665   1.187   0.131   1.310  2.0294  1.1806 -0.9898
  222SOL    HW2  666   1.121   0.147   1.150  0.9962 -2.2116  0.1515
  223SOL     OW  667   2.711   0.951   2.102  0.1922  0.6104  0.1519
  223SOL    HW1  668   2.649   1.031   2.076  1.5311  1.1892 -1.3611
  223SOL    HW2  669   2.809   0.977   2.113 -1.9021 -0.5985  0.9251
  224SOL     OW  670   1.600   1.027   2.762  0.0298  0.0857  0.6460
  224SOL    HW1  671   1.603   0.942   2.701 -1.9866  0.4403 -1.3604
  224SOL    HW2  672   1.617   1.121   2.711 -0.2770 -0.2789  1.7817
  225SOL     OW  673   2.958   2.697   2.882 -0.0693  0.6279  0.0176
  225SOL    HW1  674   2.867   2.694   2.835 -0.3477 -1.5276  2.1299
  225SOL    HW2  675   2.999   2.789   2.892 -2.3683 -2.3959  0.2672
  226SOL     OW  676   2.375   1.497   2.801  0.6708 -0.4270  0.0414
  226SOL    HW1  677   2.435   1.515   2.717 -0.7367 -1.4193 -0.9628
  226SOL    HW2  678   2.424   1.459   2.884 -3.9791  0.1329  1.6121
  227SOL     OW  679   0.844   0.247   3.093 -0.1020 -0.4188  0.5318
  227SOL    HW1  680   0.916   0.313   3.057  1.4969  0.0962 -1.0826
  227SOL    HW2  681   0.788   0.206   3.018  0.4346 -2.2439 -0.5644
  228SOL     OW  682   2.417   0.655   2.846  0.0701  0.1953  0.9597
  228SOL    HW1  683   2.444   0.729   2.780 -0.2190 -0.4034  1.4290
  228SOL    HW2  684   2.496   0.582   2.857 -0.2833 -0.9747  0.7154
  229SOL     OW  685   0.459   0.500   1.819 -0.7398  0.0685  0.4807
  229SOL    HW1  686   0.464   0.398   1.842  2.0877  1.7794  0.9141
  229SOL    HW2  687   0.464   0.521   1.716 -1.3698 -0.2762 -2.9957
  230SOL     OW  688   1.885   1.200   1.982  0.3590 -0.6509 -0.3840
  230SOL    HW1  689   1.960   1.272   1.965  0.2776 -0.2017  1.2162
  230SOL    HW2  690   1.808   1.232   2.044  1.4341  0.9689 -1.2542
  231SOL     OW  691   0.622   1.065   3.090 -0.4183 -0.0579 -0.0501
  231SOL    HW1  692   0.713   1.100   3.093 -0.5217 -0.4928  1.8175
  231SOL    HW2  693   0.558   1.150   3.111  0.5187  2.5022  2.8014
  232SOL     OW  694   2.406   3.029   2.842  0.0982  0.4263  0.1966
  232SOL    HW1  695   2.470   2.951   2.854  0.4511  1.5150  1.9908
  232SOL    HW2  696   2.425   3.078   2.753 -1.1192  0.3360 -0.1374
  233SOL     OW  697   1.727   1.193   1.134  0.1200 -0.4884 -0.6102
  233SOL    HW1  698   1.805   1.260   1.147 -0.8097 -2.0255 -1.0432
  233SOL    HW2  699   1.753   1.114   1.071  0.9985  1.2207 -0.6233
  234SOL     OW  700   1.652   2.587   1.819  0.2157  0.2314 -0.2052
  234SOL    HW1  701   1.632   2.629   1.917 -1.9554  1.3631  3.6257
  234SOL    HW2  702   1.607   2.493   1.802  1.5596 -0.7699  0.7892
  235SOL     OW  703   3.086   2.926   2.890 -0.0752  0.1553 -0.1427
  235SOL    HW1  704   3.062   2.952   2.794  0.4502 -1.3005 -2.7207
  235SOL    HW2  705   3.056   3.000   2.959  2.0160  3.2680 -0.4107
  236SOL     OW  706   2.952   0.685   0.067  0.5368  0.2791 -0.1476
  236SOL    HW1  707   2.999   0.720   0.150 -1.1138 -1.4691 -1.3558
  236SOL    HW2  708   2.987   0.593   0.038  3.0352  1.4769  0.1417
  237SOL     OW  709   1.434   1.623   0.905  0.8797 -0.3235 -0.1330
  237SOL    HW1  710   1.519   1.565   0.913 -0.8551 -0.8668  0.7203
  237SOL    HW2  711   1.425   1.693   0.980  1.0191  2.2235 -0.3096
  238SOL     OW  712   1.909   1.214   0.785 -0.3190  0.2660 -0.0645
  238SOL    HW1  713   1.932   1.250   0.880  1.0645 -0.2046  0.0561
  238SOL    HW2  714   1.814   1.232   0.763  4.2059  0.8734  4.3796
  239SOL     OW  715   2.052   0.233   2.721 -0.7855 -0.2698  0.1547
  239SOL    HW1  716   2.083   0.170   2.800  0.7510 -1.6812  1.9472
  239SOL    HW2  717   1.990   0.312   2.751  1.1254 -2.0156 -1.8264
  240SOL     OW  718   0.901   0.701   0.240  0.1764  0.2533  0.5342
  240SOL    HW1  719   0.978   0.649   0.204 -1.2177  2.0995  0.3264
  240SOL    HW2  720   0.904   0.709   0.340  1.0194  0.4625 -1.6277
  241SOL     OW  721   0.572   0.145   0.355  0.1143  0.0214 -0.9596
  241SOL    HW1  722   0.653   0.213   0.339  0.9122  1.1333  2.2118
  241SOL    HW2  723   0.545   0.100   0.265  1.0991  4.1610  0.2837
  242SOL     OW  724   0.637   2.553   1.182  0.0760  0.1571  0.5271
  242SOL    HW1  725   0.619   2.558   1.283  1.2774 -1.4087 -0.1629
  242SOL    HW2  726   0.626   2.647   1.145 -0.5723  2.1440  0.4485
  243SOL     OW  727   1.037   0.591   2.383  0.2992 -0.1914 -0.5920
  243SOL    HW1  728   0.947   0.603   2.331 -0.8479  1.5316  2.8973
  243SOL    HW2  729   1.031   0.585   2.484  1.2149 -0.4045  0.0587
  244SOL     OW  730   2.753   1.929   2.347 -0.7981  0.3243 -0.2502
  244SOL    HW1  731   2.785   1.927   2.247  0.0070 -0.2868  0.1331
  244SOL    HW2  732   2.671   1.862   2.362  1.7741 -0.9082  0.7985
  245SOL     OW  733   2.175   0.983   2.148 -0.2032  0.8412  0.3173
  245SOL    HW1  734   2.267   0.937   2.161 -0.1255  0.0325  0.0696
  245SOL    HW2  735   2.177   1.075   2.196  0.6305  1.7216 -0.8336
  246SOL     OW  736   0.258   2.828   1.814  0.2274  0.3317  0.3747
  246SOL    HW1  737   0.176   2.808   1.752  1.1767 -1.0240 -0.4377
  246SOL    HW2  738   0.320   2.902   1.763  0.4791  1.5636  0.0944
  247SOL     OW  739   2.228   0.608   3.032 -0.0699 -0.5913 -0.0790
  247SOL    HW1  740   2.285   0.623   2.943  0.7592  1.1039 -3.0700
  247SOL    HW2  741   2.148   0.676   3.029  0.3164 -0.3971  2.4042
  248SOL     OW  742   2.191   1.852   1.629 -0.0975 -0.3245 -0.1001
  248SOL    HW1  743   2.258   1.821   1.707  1.6600 -0.5352  1.0489
  248SOL    HW2  744   2.104   1.806   1.647  0.7742  1.1142 -1.1363
  249SOL     OW  745   1.908   1.898   1.817 -0.0671  0.1145 -0.5557
  249SOL    HW1  746   1.895   1.813   1.759  0.6821 -0.4559  0.0187
  249SOL    HW2  747   2.003   1.900   1.857 -0.8743  0.7903 -0.4574
  250SOL     OW  748   1.016   0.706   1.877 -1.0795  0.0185  0.4077
  250SOL    HW1  749   1.049   0.653   1.964 -1.0428  2.6585  1.4537
  250SOL    HW2  750   1.052   0.673   1.787 -0.0373  0.8166 -0.2900
  251SOL     OW  751   3.065   1.596   2.523  0.2904 -0.9202 -0.5197
  251SOL    HW1  752   3.048   1.690   2.492  3.5365 -0.8914 -2.0355
  251SOL    HW2  753   2.992   1.527   2.498  0.4178 -0.0659 -0.2519
  252SOL     OW  754   1.546   0.831   1.553 -0.4103  0.7726 -0.5377
  252SOL    HW1  755   1.609   0.879   1.485  0.3885 -0.5058 -0.6389
  252SOL    HW2  756   1.534   0.894   1.635 -1.7760  0.8098 -1.5852
  253SOL     OW  757   0.938   1.518   0.481 -0.3594 -0.1295  0.1479
  253SOL    HW1  758   0.953   1.438   0.412 -1.5073 -2.2387 -1.6131
  253SOL    HW2  759   0.838   1.525   0.501 -2.7969  0.9545 -1.3960
  254SOL     OW  760   2.029   2.203   1.607 -0.0502 -0.1987 -0.4994
  254SOL    HW1  761   1.964   2.147   1.555  1.8154  1.5546  0.3436
  254SOL    HW2  762   1.977   2.276   1.661 -1.0606 -0.7517  0.0157
  255SOL     OW  763   0.134   1.146   2.933 -0.1325 -0.1908  0.2618
  255SOL    HW1  764   0.173   1.244   2.910 -4.2653  0.7215 -0.1747
  255SOL    HW2  765   0.203   1.092   2.986  1.8078 -0.2255 -1.0342
  256SOL     OW  766   2.828   1.385   1.818 -0.1347  0.1620 -0.4645
  256SOL    HW1  767   2.774   1.474   1.799 -1.1823  3.1380 -1.2731
  256SOL    HW2  768   2.793   1.303   1.763  2.3045  0.0228  0.0165
  257SOL     OW  769   0.812   0.193   1.820 -0.2174  0.9017 -0.1630
  257SOL    HW1  770   0.894   0.265   1.794  0.1867  1.2468 -0.3779
  257SOL    HW2  771   0.845   0.096   1.810 -0.7789  1.4457  4.4527
  258SOL     OW  772   2.969   1.142   0.534 -0.5368 -0.3776  0.0841
  258SOL    HW1  773   2.882   1.204   0.551 -2.3005  1.8786  0.1980
  258SOL    HW2  774   3.060   1.176   0.572  0.7049  0.0376  0.2691
  259SOL     OW  775   0.462   2.935   3.001  0.3549  0.5167 -0.5274
  259SOL    HW1  776   0.400   2.865   3.044 -1.0650 -1.9846 -2.0146
  259SOL    HW2  777   0.502   2.901   2.913  0.1572  0.0831  1.7900
  260SOL     OW  778   2.713   0.759   2.720  0.2459 -0.2127 -0.0207
  260SOL    HW1  779   2.617   0.796   2.688 -0.2432  2.2601 -2.6993
  260SOL    HW2  780   2.715   0.702   2.809  1.9235 -2.2092  0.7927
  261SOL     OW  781   2.710   1.309   1.319  0.0183  0.2560 -0.5265
  261SOL    HW1  782   2.700   1.258   1.228 -2.6504  2.4687  1.3829
  261SOL    HW2  783   2.781   1.275   1.389  0.1274 -1.3945 -0.5280
  262SOL     OW  784   1.371   2.976   2.054  0.0239  0.2788  0.6447
  262SOL    HW1  785   1.427   3.056   2.016  2.0309  1.2209  0.2398
  262SOL    HW2  786   1.279   2.955   2.009  1.4978 -1.4935  1.2003
  263SOL     OW  787   0.805   0.670   2.265  0.1290 -0.2569 -0.2098
  263SOL    HW1  788   0.781   0.577   2.223  0.0280 -1.2495 -2.7065
  263SOL    HW2  789   0.836   0.737   2.196 -0.7099 -1.3553 -0.1970
  264SOL     OW  790   2.275   0.817   0.380 -0.5295 -0.1628 -0.4055
  264SOL    HW1  791   2.285   0.738   0.314  1.6258 -2.2326 -1.0492
  264SOL    HW2  792   2.367   0.858   0.403  1.8246 -0.4112 -1.8877
  265SOL     OW  793   0.928   2.370   2.619 -0.1772  0.2351 -0.1199
  265SOL    HW1  794   0.995   2.438   2.666  0.1601 -5.2466 -0.6377
  265SOL    HW2  795   0.877   2.312   2.688 -0.2984 -0.8703  1.2448
  266SOL     OW  796   1.330   1.756   3.059 -0.2081  0.1570 -0.1323
  266SOL    HW1  797   1.316   1.828   3.131 -3.0755 -0.2242 -1.5343
  266SOL    HW2  798   1.431   1.738   3.055 -2.4117 -0.0403  3.7690
  267SOL     OW  799   1.073   0.043   2.273 -0.3468  0.3489  0.7392
  267SOL    HW1  800   0.981   0.002   2.247 -3.0832 -2.1756 -0.8613
  267SOL    HW2  801   1.116   0.082   2.183 -0.1279 -1.0112 -0.9536
  268SOL     OW  802   0.828   1.232   1.042 -0.4535 -0.4041 -0.6568
  268SOL    HW1  803   0.774   1.298   1.104 -2.8287  1.6030  1.6294
  268SOL    HW2  804   0.913   1.280   1.006 -1.2703 -0.5258  0.7198
  269SOL     OW  805   2.372   2.482   1.633 -0.0550  0.3151 -0.4390
  269SOL    HW1  806   2.439   2.410   1.665 -1.4476  1.8570  1.5336
  269SOL    HW2  807   2.332   2.540   1.709  4.1805  0.1408  0.7681
  270SOL     OW  808   0.146   2.982   2.012  0.6760  0.3152  0.0893
  270SOL    HW1  809   0.178   2.932   1.926 -0.2676 -1.8515  1.1715
  270SOL    HW2  810   0.104   2.912   2.082 -0.9955  0.7594  1.7873
  271SOL     OW  811   0.491   1.381   1.134 -0.7762 -0.4149  0.5008
  271SOL    HW1  812   0.447   1.384   1.042  0.1284 -0.2484 -0.2181
  271SOL    HW2  813   0.424   1.366   1.215  0.1587 -0.9313 -1.4019
  272SOL     OW  814   1.899   3.082   1.946  0.0998  0.4224 -0.5433
  272SOL    HW1  815   1.835   3.017   1.896  0.8720 -1.6706 -0.5237
  272SOL    HW2  816   1.977   3.119   1.889 -0.1295  3.9126  4.1058
  273SOL     OW  817   1.536   1.478   2.810 -0.0320  0.3018  0.0920
  273SOL    HW1  818   1.435   1.467   2.802  1.0471 -2.3004 -0.3753
  273SOL    HW2  819   1.569   1.485   2.908 -0.1280  3.3563 -0.3253
  274SOL     OW  820   1.127   0.516   2.063 -0.7446 -0.3106  0.1518
  274SOL    HW1  821   1.062   0.438   2.061  0.7544 -3.3127  0.1108
  274SOL    HW2  822   1.182   0.513   2.154  0.6983  4.1071  1.2238
  275SOL     OW  823   0.644   2.113   1.946  0.0216  0.0883 -0.1348
  275SOL    HW1  824   0.638   2.196   2.007  1.9955  1.2537 -0.0125
  275SOL    HW2  825   0.548   2.083   1.916 -0.4467  0.7399 -1.8513
  276SOL     OW  826   2.222   0.981   2.793  0.3691 -0.4593  0.3954
  276SOL    HW1  827   2.136   1.029   2.757 -0.5472  0.2990 -1.1064
  276SOL    HW2  828   2.217   0.878   2.793 -3.5679 -0.0604  0.4590
  277SOL     OW  829   3.074   0.786   0.263  0.2117 -0.1818 -0.3328
  277SOL    HW1  830   3.163   0.842   0.257 -0.5091  0.5437 -0.3910
  277SOL    HW2  831   3.089   0.699   0.321  0.3727  0.9205  1.3379
  278SOL     OW  832   0.279   0.268   3.033  0.0473  0.2299  0.8579
  278SOL    HW1  833   0.367   0.214   3.015 -2.7817 -0.6424  1.0001
  278SOL    HW2  834   0.288   0.371   3.026  1.0615  1.3050 -0.2279
  279SOL     OW  835   0.271   0.027   0.936  0.1745 -0.0461  0.1736
  279SOL    HW1  836   0.274  -0.015   1.028 -0.6430  0.3438 -0.7813
  279SOL    HW2  837   0.330  -0.034   0.872 -0.7988  1.2102 -1.3624
  280SOL     OW  838   1.651   2.932   2.424  0.3131 -0.3986  0.4679
  280SOL    HW1  839   1.724   2.978   2.483  0.2477 -2.3709 -1.2127
  280SOL    HW2  840   1.578   2.994   2.388 -3.5570  0.8173 -1.1577
  281SOL     OW  841   0.525   0.954   2.253 -0.1866  0.3793  0.0997
  281SOL    HW1  842   0.536   0.860   2.212 -1.1094  2.5971 -1.0392
  281SOL    HW2  843   0.500   0.946   2.352  0.4676  0.7646 -0.2219
  282SOL     OW  844   1.779   2.453   0.532  0.1825  0.0787 -0.7645
  282SOL    HW1  845   1.740   2.382   0.466 -3.2394 -0.0333 -0.5375
  282SOL    HW2  846   1.734   2.549   0.516  0.5762  1.2879 -0.7016
  283SOL     OW  847   1.130   0.886   0.746 -0.3701 -0.2793 -1.0148
  283SOL    HW1  848   1.151   0.808   0.811  1.1896  0.8839  2.0536
  283SOL    HW2  849   1.140   0.981   0.790  3.3022  1.3151 -1.6859
  284SOL     OW  850   2.233   2.825   2.460 -0.2082 -0.1139  0.0441
  284SOL    HW1  851   2.325   2.819   2.413 -0.0908 -2.2699 -2.2462
  284SOL    HW2  852   2.240   2.863   2.563  0.3384 -1.2885  2.5707
  285SOL     OW  853   1.366   0.018   2.576 -0.9137 -0.1355  0.0010
  285SOL    HW1  854   1.384  -0.007   2.477  1.7804 -0.4200  0.2001
  285SOL    HW2  855   1.284   0.079   2.587  1.2219  1.5197  1.6497
  286SOL     OW  856   0.421   0.482   0.723 -0.2786  0.1048 -0.5513
  286SOL    HW1  857   0.406   0.399   0.787 -2.3267 -2.0286 -0.1524
  286SOL    HW2  858   0.409   0.452   0.628 -1.1177 -3.2135  1.4593
  287SOL     OW  859   0.080   1.319   2.652  0.0966 -0.0662 -0.1686
  287SOL    HW1  860   0.028   1.237   2.698 -2.2598 -2.0120 -0.1068
  287SOL    HW2  861   0.039   1.417   2.657 -0.3391 -1.6788 -2.0475
  288SOL     OW  862   1.509   2.744   1.643  0.1096  0.1447  0.3856
  288SOL    HW1  863   1.562   2.720   1.728 -1.7978 -0.4154 -1.0703
  288SOL    HW2  864   1.541   2.698   1.551  2.4621  0.1876 -0.3423
  289SOL     OW  865   0.623   2.747   0.862 -0.0063  0.4739 -0.4887
  289SOL    HW1  866   0.668   2.800   0.789 -0.5946 -1.3959  2.2771
  289SOL    HW2  867   0.601   2.801   0.951  6.1990  0.0366 -1.2843
  290SOL     OW  868   2.820   1.137   1.706  0.1284  0.1999  0.1747
  290SOL    HW1  869   2.733   1.079   1.722 -1.2080  0.2528 -0.2366
  290SOL    HW2  870   2.891   1.108   1.771  0.9835  0.9741 -1.1410
  291SOL     OW  871   1.953   3.079   0.053 -0.3180 -0.8183 -0.2616
  291SOL    HW1  872   1.950   3.119   0.149  1.8263  2.9038  0.6524
  291SOL    HW2  873   2.020   3.131  -0.005  0.4257 -0.1606  0.7714
  292SOL     OW  874   2.994   1.147   3.053 -0.0655 -0.0394 -0.4439
  292SOL    HW1  875   2.942   1.224   3.014  3.0058 -3.3901 -0.7921
  292SOL    HW2  876   3.092   1.141   3.013 -0.6393 -2.2197  1.6273
  293SOL     OW  877   0.580   2.086   0.308 -0.0907 -0.1625 -0.2269
  293SOL    HW1  878   0.543   2.178   0.343  0.2451  1.9709  1.7420
  293SOL    HW2  879   0.684   2.084   0.310 -0.4792 -0.3708 -1.0588
  294SOL     OW  880   1.867   2.377   1.771  0.3282 -0.6694  0.0580
  294SOL    HW1  881   1.894   2.369   1.872 -1.8796  0.2550  1.3822
  294SOL    HW2  882   1.824   2.469   1.744 -0.1680  2.3992 -1.9638
  295SOL     OW  883   1.022   1.041   0.450 -0.2197 -0.4860 -0.3116
  295SOL    HW1  884   1.123   1.041   0.474  2.1825  2.4559  0.3107
  295SOL    HW2  885   0.971   1.024   0.539  2.0027 -0.3076 -1.5390
  296SOL     OW  886   1.130   2.144   2.753 -0.3721  0.1878 -0.4006
  296SOL    HW1  887   1.048   2.202   2.733 -1.5637 -0.0960  1.2516
  296SOL    HW2  888   1.168   2.101   2.666 -0.3954 -0.5385  1.8156
  297SOL     OW  889   1.313   0.544   1.194 -0.4262 -0.2027 -0.7079
  297SOL    HW1  890   1.334   0.495   1.288  1.4131 -0.2280  0.5165
  297SOL    HW2  891   1.396   0.597   1.155  1.2661  2.8263  2.7193
  298SOL     OW  892   0.477   1.335   2.943  0.4617 -0.2221 -0.0842
  298SOL    HW1  893   0.436   1.308   3.036  1.0078 -1.5079  1.4545
  298SOL    HW2  894   0.509   1.254   2.888 -1.3225 -1.9456 -0.9786
  299SOL     OW  895   0.424   0.215   1.235  0.3873  0.0648 -0.2028
  299SOL    HW1  896   0.383   0.313   1.218 -2.0333  0.6075 -2.1755
  299SOL    HW2  897   0.438   0.208   1.336  0.0255  1.0241 -1.2719
  300SOL     OW  898   1.292   1.783   2.561  0.4267  0.3534 -0.1029
  300SOL    HW1  899   1.264   1.698   2.509  1.5754 -0.1386 -1.9294
  300SOL    HW2  900   1.393   1.792   2.572  2.7848  1.4295  1.4646
  301SOL     OW  901   0.424   0.347   0.470 -0.1652  0.6296 -0.3072
  301SOL    HW1  902   0.328   0.361   0.446  2.2380 -0.1180 -1.9504
  301SOL    HW2  903   0.459   0.262   0.424 -2.6365  0.5588  0.9531
  302SOL     OW  904   1.278   2.449   2.255  0.1014 -0.2749  0.7030
  302SOL    HW1  905   1.177   2.449   2.282 -0.6375  1.6607  1.1195
  302SOL    HW2  906   1.342   2.410   2.329 -0.0789 -2.4721 -0.9428
  303SOL     OW  907   0.990   2.401   0.818  0.5434  0.7440 -0.5239
  303SOL    HW1  908   1.041   2.450   0.744 -0.7269 -2.1398  1.3578
  303SOL    HW2  909   0.998   2.453   0.907 -2.8192 -2.2779 -0.3456
  304SOL     OW  910   0.136   1.906   0.677  0.0652  0.3178 -0.0544
  304SOL    HW1  911   0.177   1.891   0.581  2.6740 -1.2487 -1.0473
  304SOL    HW2  912   0.055   1.965   0.677  3.6983 -3.2790  0.0930
  305SOL     OW  913   1.578   0.825   0.696  0.2489 -0.4294 -0.3064
  305SOL    HW1  914   1.556   0.861   0.601 -2.6768  1.1096 -2.7731
  305SOL    HW2  915   1.654   0.754   0.713  0.2293 -0.7942  1.3567
  306SOL     OW  916   0.405   1.872   1.951 -0.3556 -0.5319  0.7724
  306SOL    HW1  917   0.497   1.845   1.916 -2.6853  0.5888  1.0133
  306SOL    HW2  918   0.412   1.913   2.044 -1.0722  1.1288 -1.7173
  307SOL     OW  919   3.045   0.881   2.469 -0.4268  0.2924  0.4630
  307SOL    HW1  920   3.077   0.956   2.537  0.8464 -0.5372  1.6037
  307SOL    HW2  921   2.979   0.817   2.516 -0.2463 -0.0882  0.7196
  308SOL     OW  922   1.487   2.708   2.811  0.0819 -0.6341  0.2748
  308SOL    HW1  923   1.446   2.738   2.724  0.0872  0.0059  0.4988
  308SOL    HW2  924   1.455   2.615   2.839  2.5236  2.1002 -0.7566
  309SOL     OW  925   1.253   0.157   1.770 -0.0359  0.5874 -0.0673
  309SOL    HW1  926   1.344   0.151   1.817  1.6381 -0.7014 -0.4200
  309SOL    HW2  927   1.257   0.169   1.667  0.9314 -1.9736 -1.4679
  310SOL     OW  928   1.457   2.596   0.640 -0.4760 -0.3651  0.5745
  310SOL    HW1  929   1.448   2.589   0.742 -0.0449 -0.5888 -3.0069
  310SOL    HW2  930   1.542   2.638   0.605  0.6145 -0.3549 -0.9623
  311SOL     OW  931   1.071   0.976   1.789 -0.4256  0.2981 -0.1886
  311SOL    HW1  932   1.020   0.888   1.803  1.0846 -0.3034  0.3480
  311SOL    HW2  933   1.134   0.966   1.709  2.0078  2.2498  2.3949
  312SOL     OW  934   1.514   0.663   1.055  0.1669 -0.2116 -0.5542
  312SOL    HW1  935   1.608   0.697   1.035  0.6962  0.1904  0.7771
  312SOL    HW2  936   1.465   0.651   0.964  2.6381 -0.3837  0.7173
  313SOL     OW  937   1.640   1.266   0.760 -0.1709 -0.3241  0.6284
  313SOL    HW1  938   1.551   1.272   0.812 -0.6308  0.7935 -0.6012
  313SOL    HW2  939   1.621   1.210   0.671  2.2568 -4.6193  1.5121
  314SOL     OW  940   2.966   3.073   0.002 -0.7206 -0.1231 -0.0666
  314SOL    HW1  941   3.004   3.079   0.097 -0.0884  0.0131 -0.1389
  314SOL    HW2  942   2.893   3.004  -0.012  2.8764  1.7738 -0.6672
  315SOL     OW  943   1.188   0.200   2.806 -0.2474 -0.0216 -0.0969
  315SOL    HW1  944   1.129   0.168   2.727  2.4907 -0.2848 -0.4240
  315SOL    HW2  945   1.158   0.159   2.899 -0.7498 -0.1741  1.2650
  316SOL     OW  946   1.703   2.088   0.888  0.4902 -0.1302  0.1075
  316SOL    HW1  947   1.629   2.098   0.953  3.5131  3.3867 -1.6451
  316SOL    HW2  948   1.722   2.176   0.832 -1.1775  0.2700  0.8705
  317SOL     OW  949   1.180   0.685   2.782  0.4144 -0.3309  0.1052
  317SOL    HW1  950   1.128   0.732   2.855 -0.2823  0.9332 -1.3826
  317SOL    HW2  951   1.126   0.605   2.745  2.3801  0.5455  0.5041
  318SOL     OW  952   1.430   3.094   2.320  0.1036  0.1893 -0.2151
  318SOL    HW1  953   1.465   3.176   2.271 -1.0155  0.1761 -0.3711
  318SOL    HW2  954   1.373   3.043   2.254 -0.6142  2.8231  0.9984
  319SOL     OW  955   0.674   2.395   2.985  0.1423 -0.0460  0.4218
  319SOL    HW1  956   0.648   2.309   3.042 -0.8898 -0.2408  1.0754
  319SOL    HW2  957   0.713   2.375   2.889  1.1644 -0.5520  0.1342
  320SOL     OW  958   1.673   2.233   0.393 -0.5190 -0.3004  0.5528
  320SOL    HW1  959   1.752   2.165   0.406 -1.9991 -0.4684  0.5596
  320SOL    HW2  960   1.591   2.196   0.441  4.3763 -2.1053 -1.8462
  321SOL     OW  961   1.666   2.731   0.536  0.8613 -0.3380  0.3158
  321SOL    HW1  962   1.585   2.791   0.510  0.9820 -2.4264  2.9021
  321SOL    HW2  963   1.757   2.787   0.529  1.5216 -0.9989  0.3794
  322SOL     OW  964   2.584   1.120   2.325  0.7137  0.2413 -0.0276
  322SOL    HW1  965   2.663   1.099   2.392  0.8541 -0.0393  1.8041
  322SOL    HW2  966   2.546   1.025   2.288  0.4890 -1.4206  0.5172
  323SOL     OW  967   1.176   2.686   0.815 -0.6504 -0.6656 -0.6663
  323SOL    HW1  968   1.154   2.664   0.719 -0.5863  0.0082 -3.1684
  323SOL    HW2  969   1.143   2.786   0.836 -1.7170 -0.2946  2.1929
  324SOL     OW  970   0.192   2.532   2.442 -0.5380 -0.0143  0.0645
  324SOL    HW1  971   0.103   2.492   2.477 -0.3845  0.8383  0.0168
  324SOL    HW2  972   0.199   2.633   2.458  2.6325  1.6079 -0.4837
  325SOL     OW  973   1.249   3.066   0.472  0.2393  0.5662  0.1715
  325SOL    HW1  974   1.284   3.098   0.380  0.6959  2.4241  1.4392
  325SOL    HW2  975   1.267   3.136   0.542  0.7766  2.3340 -2.6559
  326SOL     OW  976   2.507   0.786   3.080 -0.3090  0.4537 -0.4810
  326SOL    HW1  977   2.458   0.748   2.998 -0.5273  0.0285  0.0993
  326SOL    HW2  978   2.558   0.710   3.136  3.6153  0.1290  0.3021
  327SOL     OW  979   2.850   0.280   0.544  0.0512 -1.1106  0.2483
  327SOL    HW1  980   2.853   0.254   0.443 -1.8421  1.9471  0.7500
  327SOL    HW2  981   2.861   0.198   0.613  1.2332  1.3208  1.7149
  328SOL     OW  982   2.559   0.664   0.396  0.4130  0.2922  0.7301
  328SOL    HW1  983   2.625   0.726   0.448  1.5645 -1.0134  0.4082
  328SOL    HW2  984   2.506   0.598   0.455  0.2321 -0.5257 -1.1876
  329SOL     OW  985   2.937   3.059   2.146 -0.1485 -0.2805  0.6703
  329SOL    HW1  986   3.005   2.992   2.181 -1.5928  0.3917 -0.5341
  329SOL    HW2  987   2.964   3.161   2.143  0.5245 -0.4882 -0.8413
  330SOL     OW  988   0.528   0.225   1.863 -0.2574 -0.2646 -0.5015
  330SOL    HW1  989   0.627   0.212   1.830 -0.3656 -1.9714  0.4892
  330SOL    HW2  990   0.512   0.187   1.962 -0.7813 -0.8454  2.5596
  331SOL     OW  991   3.035   1.913   1.138  0.1283  0.2114  0.0935
  331SOL    HW1  992   3.031   1.949   1.038  1.4623  1.9867  2.1090
  331SOL    HW2  993   2.949   1.876   1.181  1.5023  2.0100 -0.2316
  332SOL     OW  994   0.397   1.214   0.069  0.0680  0.0870 -0.3976
  332SOL    HW1  995   0.354   1.124   0.037  1.3865 -2.0782 -1.8613
  332SOL    HW2  996   0.376   1.225   0.170  2.2298 -1.7040  0.2638
  333SOL     OW  997   2.871   0.965   0.362  0.0169 -0.3326  0.4024
  333SOL    HW1  998   2.905   1.034   0.436  1.4590 -1.1580  0.9966
  333SOL    HW2  999   2.955   0.926   0.308  5.5327  2.8745 -4.3139
  334SOL     OW 1000   1.733   1.162   1.763  0.3923 -0.6661 -0.5421
  334SOL    HW1 1001   1.789   1.178   1.678 -1.3893 -0.8343 -0.9783
  334SOL    HW2 1002   1.787   1.203   1.839  0.0446  0.5929 -2.0773
  335SOL     OW 1003   1.898   2.811   2.638 -0.6654 -0.1180  0.1120
  335SOL    HW1 1004   1.848   2.790   2.724 -2.0983  0.4260 -2.0453
  335SOL    HW2 1005   1.946   2.905   2.637 -0.8072 -1.1197  0.2549
  336SOL     OW 1006   0.248   3.101   2.697  0.7460  0.5192  0.0305
  336SOL    HW1 1007   0.297   3.144   2.773 -1.1264 -1.8060  1.1935
  336SOL    HW2 1008   0.227   2.999   2.712 -5.1622 -0.2206 -0.5520
  337SOL     OW 1009   0.933   2.885   2.958 -0.8673 -0.3124  0.0171
  337SOL    HW1 1010   0.902   2.825   3.037  2.0617 -0.8560  2.5614
  337SOL    HW2 1011   1.042   2.904   2.964 -0.2187 -0.2970 -0.8539
  338SOL     OW 1012   3.095   0.915   0.676 -0.3841 -0.3555  0.2920
  338SOL    HW1 1013   3.005   0.922   0.726  0.4883 -0.3259 -1.6224
  338SOL    HW2 1014   3.150   1.004   0.669  1.3197 -1.0261  0.5360
  339SOL     OW 1015   1.716   1.328   2.153  0.3643 -0.1445  0.3676
  339SOL    HW1 1016   1.616   1.333   2.114  1.0825 -5.7487  2.3489
  339SOL    HW2 1017   1.766   1.423   2.166  2.7942 -1.4152 -3.4282
  340SOL     OW 1018   2.242   0.810   1.142  0.0860  0.0908 -1.0102
  340SOL    HW1 1019   2.156   0.866   1.147  0.1613  1.6504  3.6207
  340SOL    HW2 1020   2.231   0.723   1.088 -1.5090  1.5085 -0.8571
  341SOL     OW 1021   1.918   2.076   0.406  0.2413  0.2431 -0.5817
  341SOL    HW1 1022   1.929   2.104   0.306  0.5070 -0.1319 -0.3704
  341SOL    HW2 1023   2.006   2.035   0.451 -0.2394  3.6306  1.5775
  342SOL     OW 1024   2.160   2.107   2.702  0.8323 -0.2344  0.0656
  342SOL    HW1 1025   2.190   2.018   2.744 -0.5423  2.4259 -0.9133
  342SOL    HW2 1026   2.057   2.104   2.676  0.3634  0.5935  0.7258
  343SOL     OW 1027   0.370   0.812   2.751 -0.4316  0.4848  0.1448
  343SOL    HW1 1028   0.383   0.862   2.661 -1.1369  1.2965  0.1339
  343SOL    HW2 1029   0.456   0.808   2.804 -1.8410  0.9587  1.9275
  344SOL     OW 1030   1.945   1.480   0.420  0.4414  0.4141 -0.4944
  344SOL    HW1 1031   1.961   1.413   0.342  2.6694 -0.2701  0.5851
  344SOL    HW2 1032   1.848   1.481   0.454  0.5117 -1.1810 -1.1546
  345SOL     OW 1033   1.375   2.203   2.848 -0.4286  0.0239  0.2378
  345SOL    HW1 1034   1.272   2.194   2.813  1.3317 -0.2150 -4.3969
  345SOL    HW2 1035   1.446   2.141   2.801  0.0803 -2.1641  1.7090
  346SOL     OW 1036   2.318   0.874   1.386  0.0973  0.0506  0.2367
  346SOL    HW1 1037   2.293   0.975   1.393 -0.2972  1.5104  0.5799
  346SOL    HW2 1038   2.302   0.840   1.288 -0.5378 -1.1774 -0.0636
  347SOL     OW 1039   0.698   2.780   1.660 -0.3574 -0.0983 -0.1569
  347SOL    HW1 1040   0.744   2.839   1.591 -0.3757 -0.9652 -2.8083
  347SOL    HW2 1041   0.593   2.775   1.648  0.6610  1.9038  0.9655
  348SOL     OW 1042   0.183   0.735   2.928  0.4549 -0.9135  0.0720
  348SOL    HW1 1043   0.084   0.722   2.900  1.3489 -2.1813 -1.5249
  348SOL    HW2 1044   0.250   0.761   2.848  0.8507  0.5665 -1.5452
  349SOL     OW 1045   1.866   0.429   2.808  0.1328 -0.1582  0.3047
  349SOL    HW1 1046   1.824   0.481   2.726 -0.2329 -0.1650 -0.3221
  349SOL    HW2 1047   1.839   0.465   2.899  1.0325 -1.9174 -0.9037
  350SOL     OW 1048   1.686   0.388   0.361  0.3113 -0.1785  0.3015
  350SOL    HW1 1049   1.742   0.378   0.444 -1.9517 -0.1933  0.4390
  350SOL    HW2 1050   1.628   0.477   0.354 -0.2448 -0.7535  0.8481
  351SOL     OW 1051   0.874   0.858   2.067 -0.5904  0.1682  0.2758
  351SOL    HW1 1052   0.889   0.953   2.097  1.0401 -0.0128 -1.4852
  351SOL    HW2 1053   0.916   0.829   1.972  0.9772 -1.1225 -1.4795
  352SOL     OW 1054   2.065   1.338   0.616  0.2331 -0.1995 -0.0256
  352SOL    HW1 1055   2.013   1.369   0.530  2.0441 -1.3464 -1.3256
  352SOL    HW2 1056   2.017   1.274   0.685  0.8203 -2.1894  0.2461
  353SOL     OW 1057   2.189   2.754   1.090  0.2114  0.1171  0.4328
  353SOL    HW1 1058   2.228   2.706   1.168 -1.7516  2.5739 -1.2889
  353SOL    HW2 1059   2.133   2.833   1.116 -2.0676 -3.2030 -1.2256
  354SOL     OW 1060   0.234   1.434   2.885 -0.9006  0.6494  0.1264
  354SOL    HW1 1061   0.211   1.493   2.803  0.2527 -1.2257 -0.9372
  354SOL    HW2 1062   0.335   1.418   2.895 -1.4048 -0.3882 -2.5509
  355SOL     OW 1063   0.694   1.559   0.599  0.0855 -0.3615 -0.3537
  355SOL    HW1 1064   0.688   1.513   0.695 -0.8419 -2.1385 -0.6905
  355SOL    HW2 1065   0.655   1.502   0.519 -1.6967 -0.5458 -1.8354
  356SOL     OW 1066   0.919   0.294   2.076  0.5942  0.4589  0.9917
  356SOL    HW1 1067   1.000   0.229   2.074 -0.7624 -0.4870  1.0578
  356SOL    HW2 1068   0.872   0.298   1.984 -2.2068 -1.5416 -0.7086
  357SOL     OW 1069   1.026   1.356   0.257  0.5615  0.3577 -0.7434
  357SOL    HW1 1070   1.099   1.407   0.204 -2.6007  0.6942 -2.5802
  357SOL    HW2 1071   1.049   1.255   0.280 -1.9801 -1.6141  0.6084
  358SOL     OW 1072   1.693   1.463   0.540  0.3132 -0.2184 -0.1986
  358SOL    HW1 1073   1.634   1.418   0.617 -2.1983 -1.0318  1.1493
  358SOL    HW2 1074   1.657   1.430   0.445 -2.7781 -0.8283  0.2285
  359SOL     OW 1075   1.624   2.596   0.284 -0.6354 -0.5470 -0.6411
  359SOL    HW1 1076   1.574   2.515   0.245 -0.1177  0.8373 -3.2949
  359SOL    HW2 1077   1.565   2.653   0.348 -1.8290 -2.2665 -1.8390
  360SOL     OW 1078   0.814   0.451   0.587 -0.0845 -0.5528 -0.1203
  360SOL    HW1 1079   0.721   0.498   0.579 -1.9645  0.9520  2.7706
  360SOL    HW2 1080   0.812   0.346   0.607  1.4037  0.4877  0.9633
  361SOL     OW 1081   1.372   1.325   0.606 -0.0223  0.1702  0.0639
  361SOL    HW1 1082   1.390   1.317   0.709 -0.8302 -0.6739  2.6646
  361SOL    HW2 1083   1.280   1.372   0.590  1.5934 -0.9325  0.5820
  362SOL     OW 1084   1.351   1.827   0.730 -0.1919  0.2657 -0.2146
  362SOL    HW1 1085   1.388   1.757   0.800 -1.0172  1.8254  0.2808
  362SOL    HW2 1086   1.383   1.809   0.633 -1.5583 -3.2033 -0.1895
  363SOL     OW 1087   1.301   1.310   2.101  0.4382 -0.1348 -0.1849
  363SOL    HW1 1088   1.379   1.344   2.045 -1.3163  1.5926 -0.3773
  363SOL    HW2 1089   1.239   1.386   2.131 -0.8178 -1.8170 -0.4355
  364SOL     OW 1090   0.539   2.377   2.047  0.0218 -0.2556 -0.0075
  364SOL    HW1 1091   0.436   2.370   2.035  1.2631 -0.7371 -3.0635
  364SOL    HW2 1092   0.590   2.424   1.969  0.0894  2.4996  2.0202
  365SOL     OW 1093   0.940   1.953   1.367 -0.7896  0.1669  0.6395
  365SOL    HW1 1094   0.840   1.946   1.340  0.7074  0.6983  0.4566
  365SOL    HW2 1095   0.988   2.007   1.293  1.0915 -4.4477  1.7721
  366SOL     OW 1096   2.803   1.953   0.286 -0.8866 -0.0809 -0.9197
  366SOL    HW1 1097   2.722   1.888   0.273 -0.4236  0.8216  1.6263
  366SOL    HW2 1098   2.898   1.905   0.272  1.7773 -1.7897  2.8393
  367SOL     OW 1099   0.887   1.187   0.010 -0.3864 -0.7176 -0.4005
  367SOL    HW1 1100   0.882   1.106   0.079 -0.1304 -1.1859  0.8231
  367SOL    HW2 1101   0.984   1.231   0.019  2.0819  0.3408 -1.0946
  368SOL     OW 1102   1.457   0.596   0.562 -0.0305 -0.2956  0.3012
  368SOL    HW1 1103   1.358   0.617   0.538 -1.0785  0.9807 -3.3859
  368SOL    HW2 1104   1.525   0.626   0.487 -0.9297  0.3432 -1.9367
  369SOL     OW 1105   0.395   1.637   0.155  0.2156 -1.2468 -0.0453
  369SOL    HW1 1106   0.438   1.705   0.225  1.7412 -1.0300 -1.2137
  369SOL    HW2 1107   0.315   1.584   0.188  0.4258 -2.6654 -0.7953
  370SOL     OW 1108   0.377   2.196   1.084  0.3541 -0.2655  0.0868
  370SOL    HW1 1109   0.425   2.270   1.036 -0.3361 -0.2912  0.8322
  370SOL    HW2 1110   0.306   2.154   1.020 -0.2736  0.4292  0.8886
  371SOL     OW 1111   2.923   2.242   2.718  0.0961 -0.6284  0.7721
  371SOL    HW1 1112   2.988   2.160   2.727  0.4044 -1.4229 -2.1692
  371SOL    HW2 1113   2.921   2.299   2.808  2.9825  0.4008 -0.0557
  372SOL     OW 1114   1.037   2.084   1.144  0.2813 -0.6951 -0.1344
  372SOL    HW1 1115   0.978   2.121   1.069  0.7667 -2.0231  1.0977
  372SOL    HW2 1116   1.093   2.159   1.189  0.9756 -1.0172 -0.1826
  373SOL     OW 1117   1.895   1.939   0.990  0.2465  0.3172  0.5045
  373SOL    HW1 1118   1.984   1.993   0.990  0.0337  2.0942 -0.6034
  373SOL    HW2 1119   1.805   1.984   0.949 -1.8074 -2.5161  1.5794
  374SOL     OW 1120   1.872   0.417   0.581 -0.0731 -0.1289 -0.5075
  374SOL    HW1 1121   1.849   0.347   0.652  1.3384 -2.8706  0.4604
  374SOL    HW2 1122   1.959   0.384   0.529 -0.4875 -0.4273  0.7841
  375SOL     OW 1123   2.409   2.214   1.077  0.1443 -0.1788  0.1410
  375SOL    HW1 1124   2.453   2.281   1.014 -1.8818 -1.5745  2.2688
  375SOL    HW2 1125   2.468   2.188   1.161 -0.4170  0.3782 -0.5443
  376SOL     OW 1126   0.014   0.649   1.401 -0.1477  0.0877 -0.0237
  376SOL    HW1 1127   0.067   0.683   1.484  1.0998 -0.2386 -1.8532
  376SOL    HW2 1128  -0.095   0.660   1.403 -2.4866 -0.0102  1.1084
  377SOL     OW 1129   2.174   2.873   0.248  0.0315  0.6527 -0.6518
  377SOL    HW1 1130   2.176   2.970   0.284  3.9512  0.4978 -2.3260
  377SOL    HW2 1131   2.271   2.830   0.247 -0.2579 -1.2454 -0.9160
  378SOL     OW 1132   1.798   1.894   2.445 -0.0283  0.2117 -0.0008
  378SOL    HW1 1133   1.878   1.906   2.380  0.6711 -0.8449 -2.1161
  378SOL    HW2 1134   1.766   1.793   2.458  1.4468 -0.4488 -1.4796
  379SOL     OW 1135   0.723   0.144   2.837  0.2340 -0.8452 -0.3462
  379SOL    HW1 1136   0.757   0.060   2.784 -0.0107 -2.0363 -1.6966
  379SOL    HW2 1137   0.728   0.242   2.793  0.4799 -2.1583  0.5913
  380SOL     OW 1138   1.563   1.159   0.505 -0.3537  0.2493 -0.2011
  380SOL    HW1 1139   1.478   1.209   0.520  0.6915 -1.9063 -2.8251
  380SOL    HW2 1140   1.542   1.061   0.477 -1.1594 -1.1836  0.3555
  381SOL     OW 1141   1.298   1.206   1.556 -0.5971  0.4785 -0.2479
  381SOL    HW1 1142   1.333   1.179   1.459 -1.0714 -1.4529 -2.5457
  381SOL    HW2 1143   1.372   1.248   1.617 -1.7019 -0.1983 -0.4697
  382SOL     OW 1144   1.815   0.881   0.256  0.2115 -0.0144  0.5271
  382SOL    HW1 1145   1.821   0.875   0.153 -0.7041 -1.8379 -0.1884
  382SOL    HW2 1146   1.903   0.868   0.307  0.2987 -0.1236 -1.6578
  383SOL     OW 1147   2.550   1.013   1.477 -0.4028 -0.4163 -0.4612
  383SOL    HW1 1148   2.454   0.973   1.471 -0.1093 -0.0200 -0.6651
  383SOL    HW2 1149   2.606   0.982   1.399 -3.5870  0.6447  2.8400
  384SOL     OW 1150   0.872   2.280   0.183  0.2072  0.3841  0.7730
  384SOL    HW1 1151   0.806   2.363   0.182 -0.9408  1.5372 -0.4468
  384SOL    HW2 1152   0.857   2.214   0.262  2.0348  1.8300  0.8032
  385SOL     OW 1153   2.967   2.057   1.689 -0.0076  0.7483  0.2296
  385SOL    HW1 1154   3.040   2.127   1.691 -0.7561 -0.2487 -2.8174
  385SOL    HW2 1155   3.008   1.962   1.701 -1.3412 -1.1719  1.9064
  386SOL     OW 1156   0.491   1.056   0.465 -0.3989  0.1475 -0.6167
  386SOL    HW1 1157   0.464   0.959   0.496  2.0703 -4.6320 -2.3978
  386SOL    HW2 1158   0.410   1.110   0.431  1.9971 -1.0442  0.6066
  387SOL     OW 1159   0.967   0.359   1.700  1.0390  0.1615 -0.0714
  387SOL    HW1 1160   1.001   0.455   1.685  0.2610  0.5496  0.4200
  387SOL    HW2 1161   0.946   0.302   1.612 -2.9459  2.9418 -1.1160
  388SOL     OW 1162   1.217   2.691   1.733  0.6007 -0.4516 -0.7056
  388SOL    HW1 1163   1.268   2.691   1.639  0.8085  2.6428 -0.9027
  388SOL    HW2 1164   1.270   2.633   1.806  0.9266 -2.6799  0.4537
  389SOL     OW 1165   0.135   2.967   1.372  0.0249 -0.1593  0.0166
  389SOL    HW1 1166   0.040   2.970   1.330  0.9868 -1.0278 -1.1940
  389SOL    HW2 1167   0.187   2.876   1.355  2.1281  0.2455  0.8495
  390SOL     OW 1168   1.047   0.951   1.374 -0.1577 -0.6081  0.5865
  390SOL    HW1 1169   1.129   0.947   1.435  0.3806  0.6714  1.9791
  390SOL    HW2 1170   1.011   1.048   1.352  1.2958 -1.1342 -2.0808
  391SOL     OW 1171   2.171   1.155   1.086 -0.0125 -0.5145 -0.0291
  391SOL    HW1 1172   2.096   1.097   1.129 -2.7304  0.1702  0.1548
  391SOL    HW2 1173   2.201   1.119   0.988  0.7328 -0.7942 -1.2328
  392SOL     OW 1174   0.903   2.637   0.014  0.1734  0.2839  0.2772
  392SOL    HW1 1175   0.968   2.558   0.000 -3.8287  1.3034  0.7324
  392SOL    HW2 1176   0.829   2.607   0.081 -1.5248 -1.7121 -0.4814
  393SOL     OW 1177   0.294   0.587   2.014 -0.4705  0.4917  0.5951
  393SOL    HW1 1178   0.210   0.531   2.007 -3.0068  0.8164  1.9265
  393SOL    HW2 1179   0.360   0.559   1.935 -2.4021  0.2788 -1.4900
  394SOL     OW 1180   3.040   1.999   2.769  0.4157  0.1986 -0.0573
  394SOL    HW1 1181   3.139   1.987   2.775 -1.2203 -0.2188 -2.8491
  394SOL    HW2 1182   3.001   1.933   2.695 -1.1435 -1.7391  1.4712
  395SOL     OW 1183   1.620   1.952   0.577  0.0974 -0.0477 -1.0203
  395SOL    HW1 1184   1.665   1.859   0.568  0.4085  0.1424 -0.6063
  395SOL    HW2 1185   1.626   1.989   0.672 -3.4233 -0.6985 -0.4932
  396SOL     OW 1186   2.830   1.808   1.307 -0.1753  0.0899 -0.0532
  396SOL    HW1 1187   2.768   1.728   1.289 -0.0169 -1.4176  1.6252
  396SOL    HW2 1188   2.822   1.842   1.402  3.7231  1.3203 -2.2206
  397SOL     OW 1189   1.036   2.241   0.511  0.3191 -0.6260 -0.3064
  397SOL    HW1 1190   0.944   2.202   0.534 -0.7124  1.1723  0.9167
  397SOL    HW2 1191   1.047   2.337   0.554  0.0515  0.9993 -0.0396
  398SOL     OW 1192   2.140   0.006   1.075 -0.5352  0.3757  0.3697
  398SOL    HW1 1193   2.057  -0.036   1.120 -0.0164  0.9622  0.5544
  398SOL    HW2 1194   2.127   0.108   1.052 -0.7578  0.3528  1.2257
  399SOL     OW 1195   3.050   2.468   2.563 -0.1281  0.1431 -0.0385
  399SOL    HW1 1196   2.951   2.491   2.570 -1.2413  0.8268 -0.1812
  399SOL    HW2 1197   3.077   2.389   2.629 -1.4920 -1.4338 -2.7062
  400SOL     OW 1198   0.773   1.678   1.383 -0.4524  0.8155 -0.4828
  400SOL    HW1 1199   0.708   1.711   1.455 -2.8805 -2.0988 -0.3964
  400SOL    HW2 1200   0.754   1.720   1.288  1.9529 -0.0962  0.1063
  401SOL     OW 1201   1.879   0.147   1.196  0.2894  0.7213 -0.1347
  401SOL    HW1 1202   1.928   0.173   1.282 -1.5489  2.0996 -3.6973
  401SOL    HW2 1203   1.784   0.122   1.211  2.1289  1.5859  1.7621
  402SOL     OW 1204   1.340   0.166   3.045  0.5913  0.7718  0.3035
  402SOL    HW1 1205   1.419   0.130   2.986 -0.7977 -2.7685  0.4213
  402SOL    HW2 1206   1.312   0.264   3.025 -2.2799  0.4076  0.9741
  403SOL     OW 1207   2.282   1.765   0.909 -0.1303 -0.1351  0.3625
  403SOL    HW1 1208   2.379   1.775   0.880 -0.9596  0.7603 -1.0534
  403SOL    HW2 1209   2.249   1.835   0.978 -1.2727 -1.8787 -3.5581
  404SOL     OW 1210   0.202   2.441   2.800  0.1420  0.2837 -0.2568
  404SOL    HW1 1211   0.293   2.426   2.757 -0.5647 -1.0577 -1.3725
  404SOL    HW2 1212   0.195   2.519   2.863 -1.0358 -0.5474 -2.1076
  405SOL     OW 1213   0.100   2.452   0.742 -0.0023  0.3863 -0.2439
  405SOL    HW1 1214   0.089   2.369   0.682  5.4747 -3.4532 -0.8800
  405SOL    HW2 1215   0.166   2.522   0.710 -0.0371  0.5319 -2.0777
  406SOL     OW 1216   0.053   1.572   3.062  0.1180  0.1608  0.6428
  406SOL    HW1 1217   0.134   1.523   3.013  0.3755 -1.8286 -0.1847
  406SOL    HW2 1218   0.067   1.566   3.163  0.2358  0.3859 -0.7877
  407SOL     OW 1219   1.545   0.947   0.970 -0.2038 -0.0741  0.5509
  407SOL    HW1 1220   1.515   0.896   0.879  0.1850 -0.0814 -1.8698
  407SOL    HW2 1221   1.465   0.977   1.026 -0.2356  1.1105  0.4200
  408SOL     OW 1222   1.600   2.445   0.972  0.3812 -0.1868  0.1709
  408SOL    HW1 1223   1.655   2.408   0.889 -0.8925 -0.5222 -1.2808
  408SOL    HW2 1224   1.529   2.516   0.946 -1.0061  0.5305  2.5917
  409SOL     OW 1225   0.676   0.755   0.767 -0.2073 -0.3477  0.0192
  409SOL    HW1 1226   0.586   0.786   0.721 -0.3844  2.6776  0.2878
  409SOL    HW2 1227   0.670   0.664   0.818  1.4816  0.5415  1.5347
  410SOL     OW 1228   1.251   2.035   1.374 -0.1568 -0.4374  0.1886
  410SOL    HW1 1229   1.315   1.968   1.414 -0.3200  0.9859  2.6339
  410SOL    HW2 1230   1.147   2.011   1.376 -3.3202 -0.2620  0.7993
  411SOL     OW 1231   2.608   1.837   3.000 -0.1728  0.3355 -0.6617
  411SOL    HW1 1232   2.657   1.920   3.038  0.5646  1.1384 -2.4385
  411SOL    HW2 1233   2.629   1.831   2.898 -4.4968  2.0655 -1.4687
  412SOL     OW 1234   1.525   2.481   2.137 -0.2660 -0.5122 -0.1683
  412SOL    HW1 1235   1.599   2.427   2.185  4.1409  1.8800  0.5025
  412SOL    HW2 1236   1.434   2.489   2.185 -0.7506  1.2177  1.0496
  413SOL     OW 1237  -0.003   0.196   2.904  0.1803 -0.3936 -0.1760
  413SOL    HW1 1238  -0.028   0.128   2.977  1.2705  0.3317 -0.3076
  413SOL    HW2 1239   0.101   0.210   2.903 -0.4248  3.0407  2.1172
  414SOL     OW 1240   1.857   1.539   1.197 -0.4816 -0.6465  0.6405
  414SOL    HW1 1241   1.829   1.642   1.192 -0.7962 -0.2214  0.0356
  414SOL    HW2 1242   1.855   1.497   1.105 -0.3857  2.0923 -0.0431
  415SOL     OW 1243   0.357   2.276   0.706 -0.9126 -0.0994  0.2399
  415SOL    HW1 1244   0.369   2.356   0.774  1.1142 -0.5606 -1.5166
  415SOL    HW2 1245   0.255   2.270   0.685 -1.8052 -3.3023  0.1454
  416SOL     OW 1246   0.369   1.022   1.053 -0.1557  0.4121 -0.3162
  416SOL    HW1 1247   0.326   0.993   0.958 -0.2791  1.4916  0.0639
  416SOL    HW2 1248   0.471   1.048   1.047  0.1212 -3.3101  0.6141
  417SOL     OW 1249   2.291   2.381   2.040  0.0240  0.0540  0.0074
  417SOL    HW1 1250   2.357   2.317   2.083  2.9922  1.3390 -1.5340
  417SOL    HW2 1251   2.214   2.339   1.989 -0.2858  1.9365  2.9779
  418SOL     OW 1252   1.053   0.573   1.332 -0.4043 -0.5515 -0.1606
  418SOL    HW1 1253   0.983   0.523   1.278 -0.2765  2.2808 -1.5484
  418SOL    HW2 1254   1.129   0.618   1.283 -3.0314 -3.3984 -0.0459
  419SOL     OW 1255   0.943   0.505   2.958 -0.0519  0.1212  0.4601
  419SOL    HW1 1256   0.896   0.461   2.874  0.8837  3.9978 -1.5196
  419SOL    HW2 1257   0.930   0.612   2.948  1.2524  1.6967 -3.0733
  420SOL     OW 1258   0.092   2.250   0.566  0.1949 -0.5679 -0.0457
  420SOL    HW1 1259   0.071   2.302   0.481  2.0460  1.2616  2.6524
  420SOL    HW2 1260   0.034   2.168   0.584 -0.9142 -0.1574 -1.5893
  421SOL     OW 1261   0.331   2.945   0.597  0.2697 -0.0542 -0.1380
  421SOL    HW1 1262   0.280   2.935   0.687 -1.9073  1.8731 -0.0195
  421SOL    HW2 1263   0.402   3.023   0.595 -1.6710  0.5084 -1.4205
  422SOL     OW 1264   0.996   2.611   1.039  0.1512  0.7470  0.3938
  422SOL    HW1 1265   1.066   2.650   0.980 -0.5353  0.7247  2.5958
  422SOL    HW2 1266   1.003   2.652   1.136  0.4213 -0.6550  0.4583
  423SOL     OW 1267   0.148   0.736   1.175  0.1327 -0.1403 -0.4212
  423SOL    HW1 1268   0.132   0.673   1.248 -0.3603 -0.0139 -2.8853
  423SOL    HW2 1269   0.086   0.817   1.176  0.1113 -1.3938  0.5529
  424SOL     OW 1270   1.141   2.195   2.046  0.2114 -1.1310  0.0775
  424SOL    HW1 1271   1.111   2.292   2.021  2.3932 -0.6007  0.9690
  424SOL    HW2 1272   1.131   2.168   2.146  0.8067 -0.7009 -0.2016
  425SOL     OW 1273   1.958   1.342   1.017  0.1638  0.5973 -0.8887
  425SOL    HW1 1274   1.991   1.285   1.099 -3.0397 -0.4444 -0.8121
  425SOL    HW2 1275   2.010   1.433   1.000 -0.8632  3.3402 -1.1378
  426SOL     OW 1276   1.461   1.593   1.310 -0.2334  0.7068 -0.8059
  426SOL    HW1 1277   1.424   1.680   1.260  0.0972 -0.6221  0.9201
  426SOL    HW2 1278   1.400   1.564   1.387 -2.6085  1.0835 -0.6272
  427SOL     OW 1279   1.906   2.335   2.073  0.1150 -0.4451 -0.6733
  427SOL    HW1 1280   1.943   2.278   2.150 -3.6121  1.8525 -3.0641
  427SOL    HW2 1281   1.936   2.432   2.081 -0.7821  0.4208 -0.0892
  428SOL     OW 1282   0.812   0.002   0.132  0.0364  0.1813 -0.5277
  428SOL    HW1 1283   0.820   0.094   0.080 -0.5135  0.7800  2.2807
  428SOL    HW2 1284   0.903  -0.053   0.120 -1.5999  1.0787  1.2966
  429SOL     OW 1285   1.355   0.120   0.222 -0.4876  0.3967  0.1192
  429SOL    HW1 1286   1.449   0.111   0.272  1.5294 -0.1091 -2.2354
  429SOL    HW2 1287   1.364   0.155   0.124  0.6571 -1.1422 -0.0982
  430SOL     OW 1288   2.873   1.396   0.288  0.1957 -0.1263  0.3836
  430SOL    HW1 1289   2.897   1.465   0.206  3.1110 -1.2572  1.5909
  430SOL    HW2 1290   2.848   1.442   0.376  0.5692 -2.8998 -0.4431
  431SOL     OW 1291   2.084   1.572   0.974 -0.0114 -0.0165  0.2233
  431SOL    HW1 1292   2.173   1.587   0.924 -3.5189 -0.9398 -1.0870
  431SOL    HW2 1293   2.007   1.631   0.929 -2.1210 -1.0761 -1.5439
  432SOL     OW 1294   2.949   2.181   1.174 -0.2083 -0.3669  0.4754
  432SOL    HW1 1295   2.943   2.081   1.198  0.4160  0.9505  0.2847
  432SOL    HW2 1296   2.979   2.230   1.259  3.7195 -3.6953  0.4379
  433SOL     OW 1297   1.849   0.282   0.810  0.1798  0.3089  0.6731
  433SOL    HW1 1298   1.748   0.273   0.847  2.2607 -2.8019  1.0230
  433SOL    HW2 1299   1.914   0.266   0.882 -2.8005  1.1352 -2.5443
  434SOL     OW 1300   1.553   0.349   0.694  0.4541  0.1695 -0.2078
  434SOL    HW1 1301   1.541   0.442   0.643 -0.7599 -0.8373 -0.5658
  434SOL    HW2 1302   1.545   0.346   0.798 -0.4089 -0.6255  0.0896
  435SOL     OW 1303   1.504   1.482   2.005  0.9130 -0.0103 -0.1832
  435SOL    HW1 1304   1.479   1.523   2.093  1.9514 -0.6199 -1.9830
  435SOL    HW2 1305   1.531   1.557   1.937 -1.3444 -1.4470 -0.7282
  436SOL     OW 1306   1.707   2.739   2.248  0.0656  0.0956 -0.2859
  436SOL    HW1 1307   1.679   2.817   2.309  2.4032  0.3113  3.4796
  436SOL    HW2 1308   1.697   2.649   2.298  1.2783  2.0631 -3.1624
  437SOL     OW 1309   1.120   2.937   0.913  0.0751  0.5395  0.2025
  437SOL    HW1 1310   1.036   2.984   0.874  0.1546  0.4945 -0.3552
  437SOL    HW2 1311   1.116   2.922   1.018  0.2544 -1.6558  1.6195
  438SOL     OW 1312   1.014   2.646   1.310  0.0224 -0.4062  0.2340
  438SOL    HW1 1313   1.098   2.694   1.325 -2.8824  0.9421 -0.7978
  438SOL    HW2 1314   1.010   2.556   1.359 -0.6130 -0.2390 -0.5354
  439SOL     OW 1315   0.702   1.803   1.148 -0.2126 -0.4340 -0.0965
  439SOL    HW1 1316   0.705   1.884   1.083  2.5454 -2.1764 -1.1805
  439SOL    HW2 1317   0.605   1.765   1.162 -1.0674  2.2064  0.5397
  440SOL     OW 1318   1.067   2.440   1.937 -0.2084  0.3012  0.1383
  440SOL    HW1 1319   1.002   2.484   1.866  1.1679 -0.3442 -0.4368
  440SOL    HW2 1320   1.162   2.476   1.940 -0.4045 -2.2518 -1.2286
  441SOL     OW 1321   0.463   2.723   1.499 -0.9549  0.1927  0.5622
  441SOL    HW1 1322   0.540   2.649   1.496 -0.8325 -2.6634  2.3750
  441SOL    HW2 1323   0.387   2.707   1.436  2.1165  1.3546  0.9088
  442SOL     OW 1324   2.268   0.745   2.492 -0.2596 -0.0011 -0.3176
  442SOL    HW1 1325   2.227   0.653   2.524 -3.3737  0.7084 -0.1332
  442SOL    HW2 1326   2.194   0.817   2.498 -0.1363  0.9243  1.0623
  443SOL     OW 1327   1.192   2.731   2.188  0.2416 -0.5774 -0.5897
  443SOL    HW1 1328   1.242   2.786   2.258 -2.3033  1.0199 -0.7699
  443SOL    HW2 1329   1.220   2.630   2.183 -1.4605  1.4253 -1.5301
  444SOL     OW 1330   1.061   1.343   1.561  0.8082 -0.1667  0.3449
  444SOL    HW1 1331   1.155   1.303   1.568  0.6370  1.5972  0.2607
  444SOL    HW2 1332   1.064   1.438   1.602 -1.0469  0.9578 -2.3542
  445SOL     OW 1333   3.083   2.331   1.934  0.0496  0.6046  0.0454
  445SOL    HW1 1334   3.089   2.423   1.885 -1.4540  0.7008  2.5871
  445SOL    HW2 1335   2.987   2.314   1.972 -0.2980  1.9481  0.5986
  446SOL     OW 1336   0.166   1.911   2.356  0.2068  0.4185 -0.1735
  446SOL    HW1 1337   0.133   1.998   2.393  1.2571 -2.2234 -0.9921
  446SOL    HW2 1338   0.111   1.879   2.276  3.9471 -0.8461 -2.2278
  447SOL     OW 1339   1.240   1.704   1.957 -0.1179 -0.1923 -0.1070
  447SOL    HW1 1340   1.184   1.780   1.908  0.1415 -1.1842 -1.2468
  447SOL    HW2 1341   1.338   1.725   1.975 -1.2378  1.4390  4.0205
  448SOL     OW 1342   0.143   1.508   2.018 -0.1134 -1.0204 -0.4482
  448SOL    HW1 1343   0.163   1.599   1.969 -1.2611 -1.4543 -0.4654
  448SOL    HW2 1344   0.100   1.510   2.109  0.1906  0.2456  1.0973
  449SOL     OW 1345   2.019   2.992   0.835 -0.3225  0.2481  0.1531
  449SOL    HW1 1346   2.064   3.030   0.920 -0.2657  2.4291 -1.9888
  449SOL    HW2 1347   1.995   2.894   0.848 -0.4558  4.0911 -0.0783
  450SOL     OW 1348   2.282   1.356   0.777 -1.2419 -0.4058 -0.1032
  450SOL    HW1 1349   2.263   1.271   0.823  0.6932  0.9794  0.9615
  450SOL    HW2 1350   2.200   1.390   0.722  0.6535 -1.8091 -2.9889
  451SOL     OW 1351   1.448   0.031   1.479 -0.5248 -0.2861  0.7806
  451SOL    HW1 1352   1.381   0.108   1.496 -0.5491 -3.2839 -0.1413
  451SOL    HW2 1353   1.452  -0.036   1.562  1.3698  0.3322  0.9065
  452SOL     OW 1354   2.632   2.292   2.221 -0.2727  0.0906  0.2083
  452SOL    HW1 1355   2.591   2.389   2.229  1.0392 -1.3997  1.4232
  452SOL    HW2 1356   2.679   2.264   2.307 -1.5518 -2.0858 -2.1726
  453SOL     OW 1357   2.440   2.647   3.071 -0.2385 -0.6336 -0.7174
  453SOL    HW1 1358   2.359   2.706   3.094 -0.4633 -0.0976  3.0098
  453SOL    HW2 1359   2.425   2.579   2.996 -1.1004 -1.2100  0.1166
  454SOL     OW 1360   0.965   1.112   2.121  0.1170  0.1416  0.5383
  454SOL    HW1 1361   0.956   1.160   2.028  0.7120  1.7406  3.8979
  454SOL    HW2 1362   1.063   1.086   2.143 -1.5234 -2.9364 -0.5609
  455SOL     OW 1363   0.726   2.661   2.862  0.3249  0.3031 -0.0847
  455SOL    HW1 1364   0.817   2.696   2.893  0.1545 -0.5292 -0.5109
  455SOL    HW2 1365   0.690   2.587   2.933  0.4182  1.1128  0.7035
  456SOL     OW 1366   0.523   1.812   0.331  0.1313 -0.2793 -0.0313
  456SOL    HW1 1367   0.598   1.758   0.378  2.1264 -4.1107 -3.7848
  456SOL    HW2 1368   0.549   1.914   0.317 -2.3555 -1.4437  0.4028
  457SOL     OW 1369   0.338   2.645   0.743 -0.6173 -0.4552  0.2040
  457SOL    HW1 1370   0.310   2.670   0.644  0.3050  1.9758  1.5402
  457SOL    HW2 1371   0.436   2.676   0.765  1.9931  2.4339 -1.9607
  458SOL     OW 1372   2.988   2.969   1.247  0.0419 -0.2443  0.4396
  458SOL    HW1 1373   2.977   3.070   1.221  0.1922  2.2434  1.3551
  458SOL    HW2 1374   3.005   2.905   1.163 -1.8776  2.8719 -3.5075
  459SOL     OW 1375   2.124   2.553   0.924 -0.7764 -0.2300  0.0519
  459SOL    HW1 1376   2.153   2.628   0.995 -3.3377  3.3329  0.9470
  459SOL    HW2 1377   2.199   2.536   0.851  2.3682 -1.7712  1.7945
  460SOL     OW 1378   1.131   1.936   2.941 -0.4628 -0.3887 -0.5121
  460SOL    HW1 1379   1.164   2.013   2.878 -0.9946  2.6847  0.3168
  460SOL    HW2 1380   1.206   1.887   2.991  2.2716 -1.4522 -0.7096
  461SOL     OW 1381   0.468   2.125   2.681 -0.2825 -0.5489  0.0711
  461SOL    HW1 1382   0.412   2.059   2.626 -1.8274  0.1436 -0.1658
  461SOL    HW2 1383   0.519   2.083   2.761  2.6721 -1.1788  1.3315
  462SOL     OW 1384   0.936   1.219   1.845  0.0196 -0.1223 -0.3698
  462SOL    HW1 1385   0.993   1.148   1.798 -1.3305  0.9076  0.2943
  462SOL    HW2 1386   0.914   1.302   1.776  1.4327  0.2904 -1.1217
  463SOL     OW 1387   0.442   0.788   0.619  0.0918 -0.2243  0.3963
  463SOL    HW1 1388   0.487   0.706   0.568  0.6788  0.7951 -0.0529
  463SOL    HW2 1389   0.339   0.789   0.591 -2.3403 -0.1071 -1.5259
  464SOL     OW 1390   0.589   2.236   2.266 -0.4351 -0.0781 -0.4898
  464SOL    HW1 1391   0.571   2.288   2.350 -1.2554  0.3523 -0.2826
  464SOL    HW2 1392   0.566   2.291   2.181  0.6365 -1.2338 -0.9726
  465SOL     OW 1393   0.250   0.928   0.844  0.1144  0.3282  0.4123
  465SOL    HW1 1394   0.166   0.989   0.827 -0.8708  2.2731 -2.6051
  465SOL    HW2 1395   0.229   0.829   0.871 -0.4318 -0.6972  0.9993
  466SOL     OW 1396   1.377   1.110   1.127  0.6526 -0.2021 -0.5272
  466SOL    HW1 1397   1.418   1.194   1.171 -1.9172  0.7852 -0.2026
  466SOL    HW2 1398   1.284   1.129   1.078  0.3892 -1.1064 -1.8438
  467SOL     OW 1399   0.468   0.367   2.354 -0.2231 -0.1953 -0.1618
  467SOL    HW1 1400   0.458   0.455   2.405 -0.6649 -1.6057 -1.3740
  467SOL    HW2 1401   0.459   0.281   2.413 -1.1962 -1.4174 -2.1018
  468SOL     OW 1402   0.454   2.280   1.664  0.5330 -0.2529 -0.1709
  468SOL    HW1 1403   0.445   2.363   1.725  0.5613 -0.0714 -1.3270
  468SOL    HW2 1404   0.427   2.305   1.566 -2.5519  0.0650  0.4255
  469SOL     OW 1405   1.505   1.359   1.157  0.6460 -0.1611 -1.0701
  469SOL    HW1 1406   1.589   1.298   1.141  0.5829 -1.0526 -3.6975
  469SOL    HW2 1407   1.522   1.448   1.201 -3.2884 -1.9197  0.5317
  470SOL     OW 1408   3.022   1.687   0.730  0.2208  0.0072 -0.2772
  470SOL    HW1 1409   3.079   1.772   0.707 -0.7755  1.0456 -0.6145
  470SOL    HW2 1410   2.962   1.689   0.819 -0.6493 -2.8133  2.0537
  471SOL     OW 1411   2.634   1.324   2.128  0.6784 -0.4905 -0.4029
  471SOL    HW1 1412   2.611   1.256   2.202  0.6833 -0.1905 -0.9120
  471SOL    HW2 1413   2.683   1.409   2.167  2.5353 -0.9778  2.2246
  472SOL     OW 1414   1.100   2.432   3.056  0.1415  0.4064  0.4456
  472SOL    HW1 1415   1.123   2.410   3.153  1.0200 -3.0348 -1.0597
  472SOL    HW2 1416   1.051   2.351   3.012 -1.1351  0.1025 -0.6548
  473SOL     OW 1417   1.112   1.555   0.914  0.4147 -0.0919  0.0683
  473SOL    HW1 1418   1.008   1.571   0.935 -1.7631  0.2393 -1.4753
  473SOL    HW2 1419   1.157   1.504   0.990 -1.1405  1.7340 -2.1784
  474SOL     OW 1420   0.824   1.218   0.663 -0.0231  0.1410  0.5311
  474SOL    HW1 1421   0.822   1.252   0.566  0.9475  0.1855  2.2158
  474SOL    HW2 1422   0.863   1.120   0.675 -0.1323  0.8095  0.8321
  475SOL     OW 1423   2.869   0.112   0.762  0.1082  0.1504 -0.3747
  475SOL    HW1 1424   2.949   0.133   0.828  0.3911  0.4453  0.7310
  475SOL    HW2 1425   2.779   0.124   0.811  0.9296 -0.8378 -0.9158
  476SOL     OW 1426   0.912   3.035   1.802 -0.0682  0.2461  0.0899
  476SOL    HW1 1427   0.970   2.977   1.869 -1.3810 -0.0876 -0.4254
  476SOL    HW2 1428   0.909   2.995   1.705 -1.8552  3.6519  0.7890
  477SOL     OW 1429   1.422   0.326   2.450  0.0924 -0.2485  0.1066
  477SOL    HW1 1430   1.418   0.339   2.555  2.4413  1.6237 -0.0563
  477SOL    HW2 1431   1.505   0.268   2.423 -1.8027 -0.9421 -1.4580
  478SOL     OW 1432   2.260   1.790   0.223  0.2316 -0.2293 -0.1448
  478SOL    HW1 1433   2.186   1.723   0.190 -0.7933 -0.5955 -0.7453
  478SOL    HW2 1434   2.353   1.750   0.209 -1.3409  2.9338 -0.3468
  479SOL     OW 1435   1.304   1.027   2.882  0.4676  0.2917 -0.4568
  479SOL    HW1 1436   1.353   1.049   2.795  0.0568 -1.1208  1.2215
  479SOL    HW2 1437   1.217   0.968   2.875  2.6300  1.9095 -0.2262
  480SOL     OW 1438   2.501   2.322   0.386 -0.7283  0.0900  0.2395
  480SOL    HW1 1439   2.457   2.241   0.430 -0.0030 -0.0976 -2.3991
  480SOL    HW2 1440   2.439   2.382   0.327  2.0475 -0.1520 -0.8376
  481SOL     OW 1441   1.098   1.143   0.796  0.5886  0.4220  0.3197
  481SOL    HW1 1442   1.067   1.222   0.737 -2.9700 -2.8047 -1.2352
  481SOL    HW2 1443   1.101   1.167   0.898 -0.1698 -2.5863  1.0958
  482SOL     OW 1444   1.604   0.347   2.054  0.2493  0.0084 -0.2741
  482SOL    HW1 1445   1.618   0.437   2.010  1.2745 -1.8274 -0.5225
  482SOL    HW2 1446   1.696   0.293   2.077 -1.3646 -1.2703  0.9323
  483SOL     OW 1447   0.159   2.344   1.259  0.0439 -0.8746  0.1830
  483SOL    HW1 1448   0.056   2.353   1.285  0.8248 -1.1211 -0.8808
  483SOL    HW2 1449   0.175   2.378   1.160 -0.8952  1.9434 -0.5335
  484SOL     OW 1450   1.714   0.971   1.404  0.3469  0.2991  0.1555
  484SOL    HW1 1451   1.773   0.894   1.374 -0.6889  0.6339  0.8114
  484SOL    HW2 1452   1.766   1.044   1.452  0.1387 -2.1951  0.0049
  485SOL     OW 1453   0.686   1.094   1.777  0.2134  0.2187  0.0126
  485SOL    HW1 1454   0.695   1.087   1.670 -4.0481  2.0036  0.4243
  485SOL    HW2 1455   0.752   1.154   1.824 -2.3519  0.3847  0.3967
  486SOL     OW 1456   0.934   1.984   2.468  0.0227  0.3245 -0.4045
  486SOL    HW1 1457   0.967   1.920   2.544  1.2810 -0.3303 -3.4438
  486SOL    HW2 1458   0.842   2.029   2.492  0.1913 -0.0998 -2.5936
  487SOL     OW 1459   1.700   1.512   0.914 -0.1987  0.2289  0.4838
  487SOL    HW1 1460   1.714   1.424   0.865 -2.5236  2.1943  0.1258
  487SOL    HW2 1461   1.766   1.585   0.902 -2.4824 -0.1759  0.1693
  488SOL     OW 1462   2.964   0.968   2.216 -0.4922  0.4404 -0.1895
  488SOL    HW1 1463   2.987   0.910   2.136 -2.3960  0.0555  2.5398
  488SOL    HW2 1464   2.986   0.926   2.312 -0.7155 -0.9157  0.8637
  489SOL     OW 1465   2.726   0.282   1.336  0.0883  0.0909  0.2457
  489SOL    HW1 1466   2.683   0.238   1.419  1.9851 -0.5647 -1.8083
  489SOL    HW2 1467   2.824   0.243   1.313 -0.8825  1.3683 -1.7294
  490SOL     OW 1468   1.430   2.973   2.811  0.2385  0.3620  0.4395
  490SOL    HW1 1469   1.456   2.874   2.814 -3.0402 -1.6881 -1.3693
  490SOL    HW2 1470   1.415   2.999   2.715  0.9417  0.0870  0.8775
  491SOL     OW 1471   1.848   1.544   2.708  0.2297  0.3889  0.3599
  491SOL    HW1 1472   1.803   1.553   2.802  1.5647  1.6103 -0.9754
  491SOL    HW2 1473   1.956   1.543   2.715  1.2315  1.1532  3.2693
  492SOL     OW 1474   0.497   2.027   0.762 -0.3860 -0.6882  0.2520
  492SOL    HW1 1475   0.549   2.032   0.855  0.2828  1.1786  0.4212
  492SOL    HW2 1476   0.431   2.109   0.742 -1.4757  0.0633 -1.9626
  493SOL     OW 1477   0.414   1.408   2.068 -0.0953 -1.1960 -0.2144
  493SOL    HW1 1478   0.337   1.468   2.104 -0.5440 -0.0360  1.3543
  493SOL    HW2 1479   0.435   1.335   2.142  0.7344 -0.1464  0.3293
  494SOL     OW 1480   2.655   2.690   0.156  0.0707 -0.3565 -0.1285
  494SOL    HW1 1481   2.654   2.619   0.235 -0.1879  0.2109  1.0303
  494SOL    HW2 1482   2.583   2.672   0.083 -0.3533  0.3775  1.3331
  495SOL     OW 1483   2.734   2.676   2.731  0.0942 -0.0639 -0.2831
  495SOL    HW1 1484   2.738   2.578   2.704  0.7500  0.8535  0.3218
  495SOL    HW2 1485   2.702   2.733   2.647 -1.1173  1.2487  1.0388
  496SOL     OW 1486   2.058   2.171   0.723  0.3221  0.3108  0.2411
  496SOL    HW1 1487   2.078   2.200   0.824  1.2921 -0.1631  0.8965
  496SOL    HW2 1488   2.058   2.073   0.702  2.5668 -2.1540  0.9848
  497SOL     OW 1489   0.217   2.966   2.393 -0.1786 -0.1423 -0.0796
  497SOL    HW1 1490   0.157   3.029   2.449  0.0242 -0.1510 -2.1372
  497SOL    HW2 1491   0.252   3.020   2.307 -0.7824  1.3108  0.9684
  498SOL     OW 1492   1.244   1.452   1.144  0.0365  0.0237 -0.3303
  498SOL    HW1 1493   1.338   1.450   1.186  0.7084 -1.0308  1.7600
  498SOL    HW2 1494   1.174   1.527   1.181 -1.0983 -0.9719 -2.2265
  499SOL     OW 1495   0.820   1.826   0.518  0.6695  0.5373  0.1450
  499SOL    HW1 1496   0.795   1.723   0.527 -1.1526 -1.8780 -1.8031
  499SOL    HW2 1497   0.830   1.875   0.611 -0.2635  0.6114 -0.7826
  500SOL     OW 1498   1.400   2.983   1.694 -0.3170 -0.0021 -0.2538
  500SOL    HW1 1499   1.365   2.997   1.792  0.8497 -0.9355  0.9966
  500SOL    HW2 1500   1.420   2.882   1.673  1.5412 -0.8667  1.1603
  501SOL     OW 1501   0.757   1.137   2.283 -0.6857  0.4141 -0.5628
  501SOL    HW1 1502   0.664   1.092   2.263 -0.8548 -3.8207  1.9141
  501SOL    HW2 1503   0.818   1.139   2.200  0.3537 -1.1963 -1.7435
  502SOL     OW 1504   2.577   0.959   1.735  0.4882 -0.3343 -0.3836
  502SOL    HW1 1505   2.570   0.989   1.633  0.4008  1.9616 -2.0541
  502SOL    HW2 1506   2.521   0.875   1.758  3.1220 -0.6160  1.5305
  503SOL     OW 1507   1.338   0.193   0.599  0.1799 -0.0286 -0.7385
  503SOL    HW1 1508   1.260   0.260   0.610 -1.3285  1.6155 -1.5376
  503SOL    HW2 1509   1.428   0.240   0.624  0.9365  1.2550  2.5187
  504SOL     OW 1510   2.997   2.334   1.400 -0.6633  0.1343 -0.1446
  504SOL    HW1 1511   3.005   2.403   1.474  2.0225  1.0814 -4.3087
  504SOL    HW2 1512   2.943   2.246   1.434  0.8079 -1.0529 -0.6310
  505SOL     OW 1513   2.279   1.180   1.458 -0.0219  0.4800 -0.2306
  505SOL    HW1 1514   2.263   1.237   1.372 -2.7557  0.9716  0.8796
  505SOL    HW2 1515   2.340   1.227   1.525  2.1580  2.1672  2.3432
  506SOL     OW 1516   1.966   0.258   1.778 -0.5749 -0.2859  0.1886
  506SOL    HW1 1517   2.056   0.211   1.782 -3.8036  2.1682 -2.3217
  506SOL    HW2 1518   1.961   0.332   1.854 -2.6247 -0.3021  1.2507
  507SOL     OW 1519   0.502   0.637   2.168 -0.4705  0.1539 -0.0080
  507SOL    HW1 1520   0.426   0.612   2.099  2.8215 -1.2959 -0.5254
  507SOL    HW2 1521   0.562   0.553   2.179 -0.8659 -2.0884 -0.0812
  508SOL     OW 1522   0.275   1.656   0.891  0.1471  0.5006 -0.4088
  508SOL    HW1 1523   0.323   1.736   0.846 -1.9532  0.6387  0.0491
  508SOL    HW2 1524   0.232   1.691   0.981 -0.7351  0.5989  1.1129
  509SOL     OW 1525   1.323   1.193   2.485  0.0675 -0.1065  0.5405
  509SOL    HW1 1526   1.251   1.134   2.456 -0.1345 -0.0534 -0.3333
  509SOL    HW2 1527   1.404   1.199   2.420 -3.5007 -1.7529 -0.6302
  510SOL     OW 1528   1.317   1.971   2.035  0.3184  0.4149 -0.1629
  510SOL    HW1 1529   1.255   2.046   2.032  4.2258 -0.6980  0.3584
  510SOL    HW2 1530   1.277   1.901   2.103  2.2056  0.7194  3.1680
  511SOL     OW 1531   3.091   2.648   1.304  0.3665  0.1654  0.5206
  511SOL    HW1 1532   3.042   2.626   1.212  1.5201 -1.6036  0.1962
  511SOL    HW2 1533   3.041   2.622   1.387  2.6573 -0.9045 -0.6012
  512SOL     OW 1534   2.422   0.429   1.386  0.3376  0.1979 -0.2663
  512SOL    HW1 1535   2.324   0.406   1.411  0.5911 -2.6010 -0.3949
  512SOL    HW2 1536   2.449   0.367   1.302  3.3614  2.6980 -0.7966
  513SOL     OW 1537   2.460   1.985   0.857 -0.2486  0.2175  0.2840
  513SOL    HW1 1538   2.413   2.077   0.838  0.3860  0.1232 -0.9185
  513SOL    HW2 1539   2.532   1.964   0.789  1.5496  0.1050  1.3932
  514SOL     OW 1540   0.676   2.779   0.382  0.3600 -0.0059 -0.3574
  514SOL    HW1 1541   0.635   2.830   0.300  0.1446 -1.4292 -1.7357
  514SOL    HW2 1542   0.708   2.841   0.462  0.5944 -1.4863  1.2410
  515SOL     OW 1543   2.009   1.174   2.298 -0.3308 -0.1243 -0.1608
  515SOL    HW1 1544   1.966   1.178   2.207 -0.2099  0.6219  1.8190
  515SOL    HW2 1545   1.966   1.224   2.374  0.3993  0.1136 -4.7887
  516SOL     OW 1546   0.255   0.262   1.966  0.3890  0.4845 -0.0871
  516SOL    HW1 1547   0.325   0.252   1.891 -1.2471  2.6360  1.3621
  516SOL    HW2 1548   0.167   0.209   1.942 -1.8460  1.1830 -1.0300
  517SOL     OW 1549   0.366   3.050   1.161 -0.5303  0.4914 -0.3575
  517SOL    HW1 1550   0.400   3.152   1.163  0.7660  0.1158 -2.0366
  517SOL    HW2 1551   0.312   3.015   1.243 -2.2798 -1.6520 -0.6197
  518SOL     OW 1552   2.156   0.037   1.783 -0.1436  1.0026  0.2880
  518SOL    HW1 1553   2.228   0.107   1.794 -0.3464  1.4102  1.8658
  518SOL    HW2 1554   2.190  -0.053   1.744 -0.5779  1.5383  3.0952
  519SOL     OW 1555   2.399   2.209   2.596  0.1554 -0.2030 -0.0793
  519SOL    HW1 1556   2.317   2.180   2.653  0.3511 -2.9919 -2.5181
  519SOL    HW2 1557   2.423   2.308   2.589  0.8158 -0.3582 -0.6036
  520SOL     OW 1558   1.776   2.874   1.818  0.1327  1.0970 -0.8340
  520SOL    HW1 1559   1.696   2.823   1.864 -0.9898  0.6417  0.5603
  520SOL    HW2 1560   1.871   2.825   1.834  1.3883 -1.4245 -2.7943
  521SOL     OW 1561   0.569   0.080   2.111  0.4237  0.3982  0.1466
  521SOL    HW1 1562   0.473   0.041   2.138  0.4780  1.1038  0.0073
  521SOL    HW2 1563   0.639   0.083   2.191  1.1250  2.3645 -1.0399
  522SOL     OW 1564   0.156   1.905   1.512 -0.5318  0.0601  0.2919
  522SOL    HW1 1565   0.226   1.940   1.581  0.3335 -2.6852 -2.5518
  522SOL    HW2 1566   0.143   1.968   1.429  1.3017 -1.9465 -0.3287
  523SOL     OW 1567   2.212   2.917   1.614 -0.6759  0.5602 -0.1364
  523SOL    HW1 1568   2.273   2.843   1.566 -0.9256 -3.8410 -1.3916
  523SOL    HW2 1569   2.113   2.908   1.587 -0.9679 -0.8761  1.7299
  524SOL     OW 1570   0.190   2.757   2.803  0.7073 -0.3116  0.5915
  524SOL    HW1 1571   0.136   2.809   2.878  0.9469  0.1788 -2.6417
  524SOL    HW2 1572   0.296   2.758   2.809  0.2786  0.7622  0.7607
  525SOL     OW 1573   2.182   1.909   0.491  0.5581 -0.3727 -0.3748
  525SOL    HW1 1574   2.174   1.841   0.571  0.5901 -0.7421 -0.3187
  525SOL    HW2 1575   2.219   1.876   0.402 -2.3352 -0.1019  2.7966
  526SOL     OW 1576   0.426   1.502   1.603 -0.2712 -0.3012  0.3807
  526SOL    HW1 1577   0.346   1.456   1.648 -0.9927 -0.8878 -2.6302
  526SOL    HW2 1578   0.490   1.431   1.555 -0.7587  2.3304 -2.2347
  527SOL     OW 1579   1.126   2.912   1.245  0.5467 -0.1081 -0.2068
  527SOL    HW1 1580   1.230   2.900   1.267 -0.3969 -2.4254 -1.1552
  527SOL    HW2 1581   1.101   3.012   1.247  2.2561 -0.2427 -1.8102
  528SOL     OW 1582   1.351   2.414   0.495 -0.5863  0.0097 -0.0076
  528SOL    HW1 1583   1.412   2.331   0.473  0.1245 -1.1100 -1.6528
  528SOL    HW2 1584   1.402   2.491   0.545 -0.9638 -1.8756  1.5061
  529SOL     OW 1585   1.887   1.697   0.841 -0.1386 -0.1828  0.2026
  529SOL    HW1 1586   1.831   1.720   0.754  0.0090 -0.7299 -2.3741
  529SOL    HW2 1587   1.889   1.776   0.904 -0.8282 -1.5575 -0.1852
  530SOL     OW 1588   0.286   2.425   0.336 -0.1292 -0.1198 -0.1731
  530SOL    HW1 1589   0.318   2.509   0.382  3.5228 -1.9811  0.8301
  530SOL    HW2 1590   0.343   2.339   0.368 -1.0297 -1.5337  2.1246
  531SOL     OW 1591   1.808   0.928   1.026 -0.0634 -0.9168  0.2268
  531SOL    HW1 1592   1.869   0.903   0.952  0.7977 -2.2667  5.6691
  531SOL    HW2 1593   1.711   0.904   1.001 -0.6513 -1.9600  0.4928
  532SOL     OW 1594   0.471   1.038   0.754  0.0610 -0.2849 -0.1787
  532SOL    HW1 1595   0.496   1.025   0.653 -0.2251  0.3045 -0.1302
  532SOL    HW2 1596   0.394   0.974   0.777  0.3187  0.8941 -1.1005
  533SOL     OW 1597   1.762   0.033   2.574  0.3535 -0.0581  0.0750
  533SOL    HW1 1598   1.863   0.034   2.557 -1.2954 -0.7054 -2.1567
  533SOL    HW2 1599   1.726   0.103   2.639 -0.3534 -1.8128 -2.4117
  534SOL     OW 1600   0.393   0.206   1.553  0.6042 -0.3048 -0.3312
  534SOL    HW1 1601   0.494   0.219   1.563  1.8422 -0.7633  0.8319
  534SOL    HW2 1602   0.336   0.292   1.570 -1.3376  0.0925 -0.4896
  535SOL     OW 1603   1.947   0.374   0.175 -0.2170  0.0884  0.0445
  535SOL    HW1 1604   1.965   0.457   0.240 -1.4187  1.6578 -0.0645
  535SOL    HW2 1605   1.943   0.277   0.222 -0.7162 -0.2381  4.7399
  536SOL     OW 1606   1.392   2.629   0.953 -0.3801 -0.3556  0.1933
  536SOL    HW1 1607   1.375   2.616   1.051  0.6936  0.3882 -2.2227
  536SOL    HW2 1608   1.304   2.643   0.899  3.4652  1.1949 -0.6766
  537SOL     OW 1609   0.831   0.280   2.416  0.5327 -0.3288 -0.5791
  537SOL    HW1 1610   0.876   0.317   2.332 -0.7162 -1.7236  2.1838
  537SOL    HW2 1611   0.768   0.200   2.391 -0.8281  3.2183 -0.5334
  538SOL     OW 1612   1.653   2.300   1.349 -0.1896  0.0806 -0.4780
  538SOL    HW1 1613   1.656   2.204   1.383 -1.6819  1.4821  0.5876
  538SOL    HW2 1614   1.743   2.347   1.340 -1.4767 -0.9034 -0.5662
  539SOL     OW 1615   0.166   1.644   2.697 -0.8463 -0.2219 -0.0537
  539SOL    HW1 1616   0.079   1.637   2.642 -0.2140  0.4661 -0.3799
  539SOL    HW2 1617   0.169   1.733   2.748  0.2762  0.1694  0.3402
  540SOL     OW 1618   2.665   1.726   1.937  0.5630 -0.6348 -0.0243
  540SOL    HW1 1619   2.616   1.639   1.957  0.7194  1.6242 -0.5920
  540SOL    HW2 1620   2.600   1.803   1.915 -0.5091 -2.1018  0.9320
  541SOL     OW 1621   0.579   2.164   0.039 -0.0406 -0.0686  0.1275
  541SOL    HW1 1622   0.603   2.138   0.138 -1.1898 -0.9515  1.5108
  541SOL    HW2 1623   0.476   2.158   0.023 -1.1017 -0.8502 -1.2948
  542SOL     OW 1624   2.227   2.604   0.464  0.1877  0.1504  0.2279
  542SOL    HW1 1625   2.184   2.698   0.464 -0.2317 -1.0354  0.3318
  542SOL    HW2 1626   2.161   2.523   0.477  1.7265 -0.8911  1.7111
  543SOL     OW 1627   1.064   1.809   1.575 -0.3590  0.1124 -0.2696
  543SOL    HW1 1628   1.055   1.837   1.671 -0.3198  1.2280 -1.0242
  543SOL    HW2 1629   1.008   1.869   1.505  0.0881  0.4342 -0.8946
  544SOL     OW 1630   1.106   0.514   0.172  0.1171  0.0886  0.0669
  544SOL    HW1 1631   1.104   0.436   0.247 -1.4388  0.3171  1.9831
  544SOL    HW2 1632   1.137   0.480   0.077 -0.3236  2.2757  0.4895
  545SOL     OW 1633   1.089   1.799   0.784 -0.3585  0.6876 -0.1763
  545SOL    HW1 1634   1.182   1.813   0.739  0.2695  0.2600  0.8784
  545SOL    HW2 1635   1.066   1.702   0.813 -0.7763  1.3035  1.8257
  546SOL     OW 1636   2.685   1.551   3.016 -0.3361  0.1346 -0.5061
  546SOL    HW1 1637   2.684   1.653   3.013  2.2382 -2.2810  2.0602
  546SOL    HW2 1638   2.596   1.506   3.024 -0.2984 -0.0508 -0.6011
  547SOL     OW 1639   0.630   3.010   2.542 -0.1814  0.4504 -0.2559
  547SOL    HW1 1640   0.692   3.010   2.629  0.8021 -0.8449 -0.8558
  547SOL    HW2 1641   0.544   2.962   2.563  1.0054 -0.5378 -1.5951
  548SOL     OW 1642   2.049   0.814   3.052 -0.2213 -0.5777  0.5601
  548SOL    HW1 1643   1.946   0.789   3.041 -1.4888 -1.0712 -1.6185
  548SOL    HW2 1644   2.073   0.916   3.049  0.3304  1.0812  0.2776
  549SOL     OW 1645   0.668   0.577   0.210  0.5304  0.2614 -0.6036
  549SOL    HW1 1646   0.615   0.625   0.139 -0.9248  0.2341 -0.5280
  549SOL    HW2 1647   0.760   0.617   0.220 -1.7110 -4.4736 -1.8440
  550SOL     OW 1648   2.563   2.808   2.888  0.0891  0.3225 -0.3138
  550SOL    HW1 1649   2.517   2.768   2.971  1.5186  2.8905 -1.2598
  550SOL    HW2 1650   2.625   2.746   2.833  0.4461  1.2160 -0.3296
  551SOL     OW 1651   0.227   0.907   0.258 -0.3212 -0.4305 -0.1675
  551SOL    HW1 1652   0.329   0.910   0.235 -0.7560 -3.1451  3.2396
  551SOL    HW2 1653   0.209   0.881   0.358  1.4217  0.1088  1.0365
  552SOL     OW 1654   0.660   2.971   1.898 -0.4600  0.5149  0.7767
  552SOL    HW1 1655   0.661   3.037   1.978  1.1079  1.2795  0.6826
  552SOL    HW2 1656   0.744   2.977   1.843 -2.6986  0.7260  1.4051
  553SOL     OW 1657   2.914   2.413   0.329  0.5372  0.1628 -0.1568
  553SOL    HW1 1658   2.882   2.315   0.348 -1.3512  0.1265 -0.2302
  553SOL    HW2 1659   2.836   2.469   0.310  1.6181 -4.1886 -0.6537
  554SOL     OW 1660   2.108   0.352   0.464 -0.0377 -0.2407  0.4384
  554SOL    HW1 1661   2.192   0.373   0.406  0.3706  0.8577 -2.3633
  554SOL    HW2 1662   2.133   0.297   0.544  0.4136  0.2135 -0.6741
  555SOL     OW 1663   0.423   2.848   2.514  0.8406  0.2068 -0.5273
  555SOL    HW1 1664   0.343   2.904   2.462 -1.3376  2.0191  0.0857
  555SOL    HW2 1665   0.475   2.797   2.441 -1.2242  1.8491  0.5211
  556SOL     OW 1666   0.855   2.402   1.588 -0.2555  0.8996  0.1906
  556SOL    HW1 1667   0.880   2.469   1.669 -0.0544 -0.2887  1.1739
  556SOL    HW2 1668   0.929   2.408   1.514 -0.4424  1.2579  0.3054
  557SOL     OW 1669   0.159   2.044   0.223  0.4655 -0.1882  0.7178
  557SOL    HW1 1670   0.090   1.991   0.170  3.0697  0.5747  1.1210
  557SOL    HW2 1671   0.223   2.092   0.163  1.8161 -1.4528  2.8243
  558SOL     OW 1672   2.751   2.181   0.430  0.0980 -0.3397 -0.4227
  558SOL    HW1 1673   2.649   2.204   0.420  1.3134 -0.6290  3.8758
  558SOL    HW2 1674   2.792   2.103   0.367  1.0778 -1.2684  0.3421
  559SOL     OW 1675   0.423   2.335   1.386 -0.6654  0.4545  0.3289
  559SOL    HW1 1676   0.333   2.330   1.334 -1.0564 -2.7741  1.4103
  559SOL    HW2 1677   0.492   2.260   1.349 -0.7405  1.2779  0.5127
  560SOL     OW 1678   2.129   1.089   3.076  0.4326 -0.3979  0.2221
  560SOL    HW1 1679   2.153   1.087   3.176  0.6614  2.2785 -0.0152
  560SOL    HW2 1680   2.202   1.097   3.003  1.6936  0.8757 -2.0021
  561SOL     OW 1681   0.026   1.878   0.038 -0.1791 -0.2878  1.3871
  561SOL    HW1 1682  -0.014   1.815   0.111  1.5450 -2.6706  0.2203
  561SOL    HW2 1683  -0.041   1.956   0.018  0.4076  0.0414 -1.7422
  562SOL     OW 1684   1.092   2.151   2.299  0.5134 -1.1289 -0.9317
  562SOL    HW1 1685   1.068   2.249   2.323  2.6224 -2.5841 -2.0469
  562SOL    HW2 1686   1.031   2.092   2.351  1.3211 -2.2032  1.7866
  563SOL     OW 1687   0.701   2.523   2.625 -0.0349  0.1645  0.3012
  563SOL    HW1 1688   0.778   2.453   2.617 -1.4641 -1.8690  1.6497
  563SOL    HW2 1689   0.709   2.594   2.703 -2.5293 -0.6176  1.1003
  564SOL     OW 1690   2.918   1.392   2.892 -0.2089 -0.1145 -0.2143
  564SOL    HW1 1691   2.849   1.442   2.947  0.2741  2.3633 -2.9067
  564SOL    HW2 1692   3.017   1.431   2.907  2.4821 -2.9494  0.6622
  565SOL     OW 1693   2.498   1.943   2.651  0.1754 -0.3344  0.1008
  565SOL    HW1 1694   2.460   2.038   2.637 -0.5689  1.4098  1.3988
  565SOL    HW2 1695   2.591   1.951   2.695  1.6963  2.5567 -2.1460
  566SOL     OW 1696   1.971   2.893   1.473 -0.5882  0.2218 -0.0123
  566SOL    HW1 1697   1.917   2.809   1.505  0.3485 -0.9413  1.4572
  566SOL    HW2 1698   1.984   2.907   1.371  2.6895 -0.3584  2.0274
  567SOL     OW 1699   2.447   0.003   2.336 -0.1201  0.0982  0.0831
  567SOL    HW1 1700   2.345   0.024   2.324 -0.3272  0.0298 -1.8070
  567SOL    HW2 1701   2.496   0.019   2.244  0.8166  1.6167  0.8349
  568SOL     OW 1702   1.525   1.760   0.320 -0.4786 -0.3985  0.2581
  568SOL    HW1 1703   1.476   1.834   0.265 -1.9253 -0.4461  0.2070
  568SOL    HW2 1704   1.623   1.784   0.347  0.2924 -0.4316  0.4616
  569SOL     OW 1705   0.236   0.636   0.887 -0.2795 -0.4198  0.8733
  569SOL    HW1 1706   0.291   0.584   0.812  0.2319 -2.2227  0.3725
  569SOL    HW2 1707   0.138   0.599   0.887  2.4175  0.5430 -0.0327
  570SOL     OW 1708   0.606   0.853   2.907 -0.1455 -0.1693  0.9100
  570SOL    HW1 1709   0.692   0.868   2.847  0.3340 -1.4350  0.9005
  570SOL    HW2 1710   0.583   0.934   2.964 -2.2340  0.4306 -2.2319
  571SOL     OW 1711   0.814   0.008   1.119 -0.2787 -0.5778  0.2355
  571SOL    HW1 1712   0.852   0.045   1.028 -1.4743  2.3887 -0.9952
  571SOL    HW2 1713   0.808  -0.096   1.123 -1.7167 -3.3410  0.7085
  572SOL     OW 1714   1.632   2.706   1.402  0.2940 -0.3495  0.5530
  572SOL    HW1 1715   1.639   2.626   1.341 -2.7043 -0.4357  1.9140
  572SOL    HW2 1716   1.680   2.792   1.360  0.3570  2.1281  0.4804
  573SOL     OW 1717   0.004   0.473   2.019  0.9360 -0.5013 -0.4550
  573SOL    HW1 1718  -0.058   0.398   2.033  2.4281  1.4241 -0.5162
  573SOL    HW2 1719   0.049   0.477   1.924 -0.0343  1.2862 -0.2156
  574SOL     OW 1720   0.152   1.747   1.135 -0.1581 -0.6611 -0.1328
  574SOL    HW1 1721   0.182   1.696   1.219  0.9554 -0.2700  0.9192
  574SOL    HW2 1722   0.062   1.799   1.145 -1.1533  0.1156  0.9404
  575SOL     OW 1723   0.872   2.183   0.941 -0.3788  0.2170  0.3448
  575SOL    HW1 1724   0.842   2.244   1.025 -1.7041 -0.9009  1.2657
  575SOL    HW2 1725   0.908   2.242   0.868  1.7856  0.6987  0.6089
  576SOL     OW 1726   2.911   3.007   1.702  0.1827 -0.7682  0.0943
  576SOL    HW1 1727   2.812   3.007   1.717  0.6510 -2.3310  1.5920
  576SOL    HW2 1728   2.941   3.102   1.668  0.9035  2.9290  0.9882
  577SOL     OW 1729   2.670   1.238   0.012  0.2719 -0.6497 -0.2907
  577SOL    HW1 1730   2.701   1.152  -0.030  0.2456 -0.2859 -2.1780
  577SOL    HW2 1731   2.672   1.229   0.113 -0.2454  1.5614 -2.5588
  578SOL     OW 1732   1.434   2.782   2.526  0.9279 -0.5775  0.4600
  578SOL    HW1 1733   1.339   2.824   2.523 -0.0801 -0.3205  0.8000
  578SOL    HW2 1734   1.509   2.846   2.503 -0.2337 -2.2296  0.2090
  579SOL     OW 1735   0.061   2.450   0.189  0.3658  0.2704 -0.3192
  579SOL    HW1 1736  -0.027   2.426   0.235 -0.6195  1.1332 -1.5913
  579SOL    HW2 1737   0.148   2.425   0.244 -0.3960 -1.8095 -0.2817
  580SOL     OW 1738   0.971   2.638   0.401 -0.9277  0.3617 -0.0001
  580SOL    HW1 1739   1.060   2.640   0.343 -1.5567 -1.8842  0.1768
  580SOL    HW2 1740   0.885   2.626   0.348  2.9984  0.0262  0.2867
  581SOL     OW 1741   1.287   2.698   1.440 -0.2836  0.2365 -0.2498
  581SOL    HW1 1742   1.350   2.614   1.433 -0.8790 -1.5148  0.5773
  581SOL    HW2 1743   1.329   2.793   1.411  0.0422  0.9932  0.6091
  582SOL     OW 1744   1.478   0.084   1.935  0.5134 -0.1077 -0.2807
  582SOL    HW1 1745   1.480   0.140   2.022 -1.3653 -1.0010  3.5979
  582SOL    HW2 1746   1.565   0.094   1.874  0.0091  0.0512 -0.3838
  583SOL     OW 1747   2.454   3.079   0.530 -0.1382 -0.2598  0.5375
  583SOL    HW1 1748   2.548   3.037   0.511 -1.0450 -0.2936  1.8386
  583SOL    HW2 1749   2.384   3.010   0.561 -0.5738  0.7106  1.5731
  584SOL     OW 1750   1.577   1.133   2.328  0.3005  0.2973  0.1342
  584SOL    HW1 1751   1.637   1.199   2.276  3.5207 -1.1302 -1.3246
  584SOL    HW2 1752   1.623   1.047   2.365  4.3196 -2.2721 -1.4819
  585SOL     OW 1753   2.058   2.660   2.887 -0.1259 -0.1850 -0.0421
  585SOL    HW1 1754   2.079   2.565   2.845  0.6737 -2.8362 -1.6738
  585SOL    HW2 1755   1.957   2.676   2.899  1.1959  2.1394  0.3109
  586SOL     OW 1756   2.905   0.403   1.525  0.6022 -0.0150  0.3824
  586SOL    HW1 1757   2.893   0.490   1.582 -2.1662 -2.7402  0.1071
  586SOL    HW2 1758   2.809   0.367   1.496 -2.5138 -0.8765 -1.4045
  587SOL     OW 1759   2.115   1.461   2.699  0.2945 -0.0800 -0.4620
  587SOL    HW1 1760   2.133   1.395   2.617  1.4848 -1.6329  0.2056
  587SOL    HW2 1761   2.207   1.492   2.741 -1.0616  4.1792 -1.3887
  588SOL     OW 1762   0.540   2.702   2.309 -0.0733  0.0679 -0.5352
  588SOL    HW1 1763   0.521   2.713   2.213 -0.0584 -0.4575  3.4765
  588SOL    HW2 1764   0.535   2.602   2.341 -0.2288 -1.2880  1.7991
  589SOL     OW 1765   2.186   1.298   2.502 -0.0899  0.4310  0.2996
  589SOL    HW1 1766   2.133   1.246   2.427 -1.6212 -0.2941 -3.3453
  589SOL    HW2 1767   2.288   1.277   2.503 -0.3029 -0.4065 -0.3786
  590SOL     OW 1768   2.356   1.737   2.065 -0.8630 -0.6236 -0.1414
  590SOL    HW1 1769   2.436   1.670   2.066  0.0348  1.4404  3.9982
  590SOL    HW2 1770   2.339   1.784   2.158  2.7323  0.2304  1.5419
  591SOL     OW 1771   1.226   2.376   0.224 -0.0972 -0.1689 -0.1419
  591SOL    HW1 1772   1.253   2.279   0.190  0.4995  1.2049 -0.5851
  591SOL    HW2 1773   1.244   2.387   0.319  1.5197  0.8164 -3.0852
  592SOL     OW 1774   1.788   2.339   0.795  0.2222  0.0712  0.2689
  592SOL    HW1 1775   1.774   2.367   0.700  0.7251 -2.7484  1.8457
  592SOL    HW2 1776   1.889   2.317   0.820  1.0493  1.8399  0.6254
  593SOL     OW 1777   0.729   0.326   0.240 -0.2338  0.0829  0.5938
  593SOL    HW1 1778   0.787   0.303   0.161 -0.5512  0.8289  0.1416
  593SOL    HW2 1779   0.695   0.425   0.232  2.5176  1.1737 -1.1301
  594SOL     OW 1780   1.060   1.857   2.692  0.0588 -0.3046 -0.0371
  594SOL    HW1 1781   1.155   1.848   2.651  1.4373  0.0892 -0.6198
  594SOL    HW2 1782   1.073   1.910   2.784  0.1906 -1.2575  1.2622
  595SOL     OW 1783   1.508   0.076   0.992 -0.4474  0.6684 -0.6438
  595SOL    HW1 1784   1.586   0.030   0.946  1.3090 -1.2397  1.3678
  595SOL    HW2 1785   1.413   0.061   0.951 -0.5550 -0.1471  0.0176
  596SOL     OW 1786   0.068   1.468   2.287 -0.1210  0.1443 -0.2982
  596SOL    HW1 1787   0.061   1.364   2.310 -0.2498 -1.6889  0.1609
  596SOL    HW2 1788   0.058   1.525   2.371  4.0266 -0.9092  2.1496
  597SOL     OW 1789   1.973   2.677   1.820  0.3545 -0.3096 -0.6888
  597SOL    HW1 1790   1.922   2.677   1.729  2.5010 -0.8279  1.5335
  597SOL    HW2 1791   2.070   2.671   1.810 -2.5212  2.7295 -0.2819
  598SOL     OW 1792   2.523   2.871   1.224 -0.0645 -0.4120  0.4050
  598SOL    HW1 1793   2.610   2.870   1.283  0.7476 -2.4243  2.1014
  598SOL    HW2 1794   2.546   2.886   1.122  1.3164  2.3940 -1.6743
  599SOL     OW 1795   2.798   0.269   2.499 -0.2075 -0.0055  0.1571
  599SOL    HW1 1796   2.871   0.263   2.427 -2.3292  1.8240  0.3391
  599SOL    HW2 1797   2.719   0.328   2.466  3.7506  0.3986 -1.1030
  600SOL     OW 1798   2.809   1.196   2.741  0.0988 -0.5954 -0.0362
  600SOL    HW1 1799   2.739   1.151   2.801 -2.4329 -0.8455 -0.7919
  600SOL    HW2 1800   2.853   1.279   2.786 -0.2499 -2.4601 -2.0941
  601SOL     OW 1801   3.013   1.317   2.018 -1.0843 -0.7686  0.0374
  601SOL    HW1 1802   2.933   1.336   1.960  1.2294  1.5480  0.3281
  601SOL    HW2 1803   3.097   1.377   1.997 -1.8794  1.6118  1.6522
  602SOL     OW 1804   1.488   1.570   2.278  0.2682 -0.2403  0.1534
  602SOL    HW1 1805   1.395   1.564   2.330 -2.9651 -0.2739 -1.2089
  602SOL    HW2 1806   1.563   1.609   2.338  0.9679 -1.7103 -0.7743
  603SOL     OW 1807   0.668   1.172   2.708 -0.2068  0.6785 -0.3252
  603SOL    HW1 1808   0.574   1.206   2.683 -2.5476  1.5055  4.1556
  603SOL    HW2 1809   0.687   1.073   2.684  0.9020 -0.1376  0.0911
  604SOL     OW 1810   2.472   0.981   0.193  0.4595  0.4027  0.7114
  604SOL    HW1 1811   2.549   1.049   0.171 -1.4044  1.6172 -0.2306
  604SOL    HW2 1812   2.472   0.902   0.127 -1.1971  0.7975 -0.1457
  605SOL     OW 1813   2.517   1.123   1.968  0.5634 -0.3107  0.5993
  605SOL    HW1 1814   2.559   1.080   1.883  0.8646 -1.6781 -0.4114
  605SOL    HW2 1815   2.577   1.193   2.011  0.0699  0.0152  2.6403
  606SOL     OW 1816   1.509   2.513   2.546 -0.2129 -0.2534  0.8867
  606SOL    HW1 1817   1.454   2.603   2.542 -0.1597 -0.3717 -0.4407
  606SOL    HW2 1818   1.456   2.426   2.538  0.9475 -1.0665 -2.1593
  607SOL     OW 1819   1.311   1.604   0.246 -0.3440 -0.1958 -0.4936
  607SOL    HW1 1820   1.231   1.666   0.249  1.8934 -1.1793  0.8112
  607SOL    HW2 1821   1.400   1.654   0.278  0.4813 -0.6622 -1.7160
  608SOL     OW 1822   1.433   2.859   0.393 -0.5764  0.4136 -0.2021
  608SOL    HW1 1823   1.464   2.868   0.293 -1.5042  2.0501 -1.8517
  608SOL    HW2 1824   1.377   2.937   0.427 -0.6591 -0.3903 -1.5025
  609SOL     OW 1825   1.349   1.333   0.147 -0.2247 -0.0578 -0.2390
  609SOL    HW1 1826   1.309   1.430   0.175 -0.8029 -2.6491 -0.7492
  609SOL    HW2 1827   1.296   1.286   0.071 -0.7016 -2.2062 -0.7875
  610SOL     OW 1828   3.038   1.226   2.272  0.0467  0.2198 -0.3245
  610SOL    HW1 1829   2.990   1.135   2.257 -0.7617  1.4406 -0.1165
  610SOL    HW2 1830   3.032   1.285   2.187 -0.7984 -2.0771  1.2877
  611SOL     OW 1831   2.498   0.250   1.170  0.2412  0.1418 -0.5494
  611SOL    HW1 1832   2.463   0.151   1.172 -0.1423 -3.3831 -1.1308
  611SOL    HW2 1833   2.580   0.267   1.231  1.5566  1.7698 -0.2370
  612SOL     OW 1834   0.786   2.314   1.164  0.5379  0.4674 -0.0384
  612SOL    HW1 1835   0.741   2.245   1.227  0.4383 -0.2782  2.5943
  612SOL    HW2 1836   0.726   2.398   1.147  1.3258 -1.5992 -1.9352
  613SOL     OW 1837   0.817   1.389   2.399 -0.4497  0.0526 -1.1030
  613SOL    HW1 1838   0.822   1.462   2.323 -0.0489  1.3989  0.8188
  613SOL    HW2 1839   0.796   1.290   2.367 -0.1024 -0.2773  1.7296
  614SOL     OW 1840   1.570   1.686   1.815  0.0185 -0.0549  0.4286
  614SOL    HW1 1841   1.515   1.768   1.776 -2.6142 -0.9668 -2.8608
  614SOL    HW2 1842   1.651   1.713   1.878 -1.1213  0.4651  2.4886
  615SOL     OW 1843   0.751   1.403   1.723 -0.7662 -0.1486  0.1716
  615SOL    HW1 1844   0.698   1.361   1.644  3.8403 -0.9125  1.3808
  615SOL    HW2 1845   0.816   1.479   1.688  1.8221  1.3476 -0.8730
  616SOL     OW 1846   1.104   1.549   2.153 -0.1798  0.2386  0.7162
  616SOL    HW1 1847   1.002   1.543   2.171 -0.8954  0.4571 -0.9520
  616SOL    HW2 1848   1.127   1.619   2.076  0.0095  1.5787  0.5260
  617SOL     OW 1849   3.021   1.556   1.657  0.4755  0.0522 -0.0956
  617SOL    HW1 1850   2.988   1.476   1.715 -1.3399 -1.8180 -2.9676
  617SOL    HW2 1851   3.055   1.528   1.566  0.1313  0.5458  0.6717
  618SOL     OW 1852   1.958   1.955   1.442  0.5015  0.3550  0.1817
  618SOL    HW1 1853   2.041   1.964   1.384  0.6825 -1.0013  0.5439
  618SOL    HW2 1854   1.965   1.882   1.512 -0.9703  0.0465  2.2308
  619SOL     OW 1855   1.719   0.496   2.342 -0.0996  1.1090 -0.1616
  619SOL    HW1 1856   1.656   0.557   2.287  1.2974 -2.3875  0.0667
  619SOL    HW2 1857   1.660   0.417   2.384  0.6213 -0.7917  0.4125
  620SOL     OW 1858   2.241   2.939   0.615  0.8288  0.0662  0.6592
  620SOL    HW1 1859   2.144   2.979   0.612  0.6948 -0.8391  1.0254
  620SOL    HW2 1860   2.261   2.886   0.701  1.7053 -2.7884  0.8823
  621SOL     OW 1861   2.239   1.894   1.360 -0.2684  0.1057 -0.4909
  621SOL    HW1 1862   2.227   1.875   1.463 -0.3184 -1.9211  1.6843
  621SOL    HW2 1863   2.219   1.810   1.300 -0.5262  0.3125 -0.4744
  622SOL     OW 1864   2.232   0.914   1.817 -0.4511  0.5876  0.7141
  622SOL    HW1 1865   2.321   0.868   1.798 -2.5070 -1.0403 -0.7327
  622SOL    HW2 1866   2.159   0.853   1.863  1.7600 -0.3646  0.9593
  623SOL     OW 1867   1.312   0.812   2.569 -0.4943  0.3705  0.2018
  623SOL    HW1 1868   1.255   0.762   2.637 -0.2544 -1.1251  1.8821
  623SOL    HW2 1869   1.260   0.840   2.487  0.3630  0.2872 -1.4968
  624SOL     OW 1870   0.524   0.692   0.024  0.3446 -0.2353  0.3498
  624SOL    HW1 1871   0.548   0.712  -0.071 -2.5667  0.6145  5.7634
  624SOL    HW2 1872   0.477   0.774   0.070  2.6784 -1.6462 -2.0826
  625SOL     OW 1873   2.732   1.689   0.885 -0.2612  0.2765 -0.2126
  625SOL    HW1 1874   2.669   1.744   0.944 -1.6772 -0.1479 -1.9719
  625SOL    HW2 1875   2.705   1.590   0.878 -0.6632 -0.4631  1.5153
  626SOL     OW 1876   0.497   2.742   1.949 -0.0989 -0.7870  0.8250
  626SOL    HW1 1877   0.565   2.822   1.931 -0.7216  1.0644  3.3714
  626SOL    HW2 1878   0.399   2.777   1.940  0.9621 -0.6886 -0.3961
  627SOL     OW 1879   0.744   1.077   1.509 -0.1263  0.5932 -0.1021
  627SOL    HW1 1880   0.789   0.984   1.507  1.8087 -2.5145  0.9238
  627SOL    HW2 1881   0.798   1.144   1.451  2.8012 -3.1560 -0.5263
  628SOL     OW 1882   2.424   0.181   0.718  0.0102 -0.3899 -0.0551
  628SOL    HW1 1883   2.441   0.098   0.658  2.1043  2.9921  0.5824
  628SOL    HW2 1884   2.323   0.192   0.745 -1.4359  1.5950  2.4993
  629SOL     OW 1885   1.962   0.946   1.976 -0.1717 -0.1262 -0.1400
  629SOL    HW1 1886   2.045   0.958   2.040 -0.1761  0.7987  2.3295
  629SOL    HW2 1887   1.921   1.037   1.960  3.0821  0.5188  1.2838
  630SOL     OW 1888   2.791   2.187   0.771  0.9909  0.1008  0.0525
  630SOL    HW1 1889   2.722   2.257   0.803  4.6677  0.1723 -1.0053
  630SOL    HW2 1890   2.737   2.094   0.746 -1.2923 -1.6614 -0.0433
  631SOL     OW 1891   3.021   0.219   2.111  0.3988  0.4021  0.4359
  631SOL    HW1 1892   3.077   0.267   2.179 -1.4767  1.5328 -0.7203
  631SOL    HW2 1893   3.074   0.206   2.023  1.1741 -0.0045  1.2031
  632SOL     OW 1894   2.301   2.548   0.743  0.2093  0.6105  0.8191
  632SOL    HW1 1895   2.377   2.602   0.791  3.4106  1.6958  0.5962
  632SOL    HW2 1896   2.276   2.597   0.656  4.1524  3.2199  2.1865
  633SOL     OW 1897   1.597   1.285   2.586 -0.4113  0.1554  0.7064
  633SOL    HW1 1898   1.590   1.364   2.651 -0.7264  1.1494  0.0411
  633SOL    HW2 1899   1.528   1.284   2.512  0.4157  1.2508 -0.2272
  634SOL     OW 1900   0.638   2.061   1.003 -0.1980  0.5547 -0.1759
  634SOL    HW1 1901   0.571   2.129   1.047  1.6356  2.6177 -1.3735
  634SOL    HW2 1902   0.730   2.097   0.993 -2.5742 -2.3643  1.2610
  635SOL     OW 1903   0.059   2.266   3.092  0.1467 -0.9145  0.1813
  635SOL    HW1 1904   0.013   2.310   3.009  0.8140  2.5244  1.7658
  635SOL    HW2 1905   0.049   2.314   3.180 -0.8222 -2.6775  0.6086
  636SOL     OW 1906   2.297   2.853   2.021  0.9946 -0.0594 -0.1334
  636SOL    HW1 1907   2.299   2.957   2.021 -1.1195 -0.8289 -4.3197
  636SOL    HW2 1908   2.235   2.824   2.096 -0.7427 -0.2199  2.4592
  637SOL     OW 1909   2.543   0.734   2.051  0.5603  0.0543 -0.3535
  637SOL    HW1 1910   2.519   0.743   1.951 -0.7769  1.7799  1.4222
  637SOL    HW2 1911   2.620   0.802   2.075 -0.5157 -0.8176  2.6798
  638SOL     OW 1912   2.497   1.866   1.354  0.0806  0.3009  0.2875
  638SOL    HW1 1913   2.389   1.886   1.345 -2.7341  0.3434  0.5287
  638SOL    HW2 1914   2.523   1.782   1.408 -2.7178 -1.3486  2.5904
  639SOL     OW 1915   1.298   2.244   1.612 -0.4362 -0.1370 -0.5319
  639SOL    HW1 1916   1.298   2.172   1.537  0.6740  0.3958  2.6321
  639SOL    HW2 1917   1.232   2.217   1.689  0.5069  2.7535  0.4521
  640SOL     OW 1918   0.206   1.211   1.539  0.2501  0.6513 -0.6239
  640SOL    HW1 1919   0.187   1.288   1.606  1.0752 -0.7618  1.9662
  640SOL    HW2 1920   0.290   1.156   1.559  1.5871  0.1745  1.1734
  641SOL     OW 1921   1.951   0.199   1.453 -0.0812  0.1755 -0.0033
  641SOL    HW1 1922   1.878   0.271   1.485 -0.2996  1.2406 -0.8369
  641SOL    HW2 1923   1.961   0.121   1.515 -1.9884  2.5750 -2.8043
  642SOL     OW 1924   1.992   0.092   0.321 -0.0091  0.0885  0.0356
  642SOL    HW1 1925   2.100   0.094   0.329 -0.7639 -1.8294 -0.0781
  642SOL    HW2 1926   1.945   0.090   0.412  1.2839  0.1379 -0.1586
  643SOL     OW 1927   2.837   1.873   2.098 -0.2331 -0.3167  0.1943
  643SOL    HW1 1928   2.789   1.798   2.042  0.3215 -0.8609  1.9489
  643SOL    HW2 1929   2.851   1.957   2.035 -0.0472  1.4721  0.7560
  644SOL     OW 1930   2.191   2.289   1.233 -0.3229  0.0640 -0.0016
  644SOL    HW1 1931   2.279   2.239   1.203 -2.4464 -3.8522  2.6072
  644SOL    HW2 1932   2.197   2.326   1.334  2.7765  0.5846  0.0484
  645SOL     OW 1933   0.599   0.824   1.164  0.0164  0.7345  0.1566
  645SOL    HW1 1934   0.538   0.752   1.116 -3.1806 -0.4982  2.8678
  645SOL    HW2 1935   0.609   0.921   1.122  1.8255  2.8864  0.8209
  646SOL     OW 1936   1.495   1.968   1.798 -0.7525  0.1594 -0.3755
  646SOL    HW1 1937   1.581   2.030   1.782 -0.4300 -2.2201 -0.7910
  646SOL    HW2 1938   1.453   1.983   1.891  2.2367 -1.0171 -0.0492
  647SOL     OW 1939   0.882   0.929   0.654  0.2640 -0.2560  0.1408
  647SOL    HW1 1940   0.975   0.898   0.694  0.8414 -1.8835 -0.7401
  647SOL    HW2 1941   0.806   0.868   0.699  1.0725  1.5092 -0.7867
  648SOL     OW 1942   0.207   0.210   0.319 -0.0021  0.8507 -0.3310
  648SOL    HW1 1943   0.218   0.127   0.258 -0.0878  0.4072  2.0886
  648SOL    HW2 1944   0.161   0.290   0.281  0.5590 -2.1719  3.7659
  649SOL     OW 1945   3.090   0.111   0.938 -0.0183 -0.3923  0.0946
  649SOL    HW1 1946   3.191   0.089   0.912  0.4774 -2.1928 -1.7862
  649SOL    HW2 1947   3.067   0.118   1.040 -1.5394 -3.1849 -1.7128
  650SOL     OW 1948   2.727   0.720   1.437  0.0591 -0.0656  0.3205
  650SOL    HW1 1949   2.640   0.686   1.471  1.7759  0.6269 -0.4064
  650SOL    HW2 1950   2.721   0.796   1.369 -1.7135 -0.5050 -0.4409
  651SOL     OW 1951   0.902   1.581   1.604  0.2120  0.1040 -0.1408
  651SOL    HW1 1952   0.976   1.656   1.611  1.7549 -0.6059  1.1194
  651SOL    HW2 1953   0.843   1.587   1.513  0.3009 -2.4907 -0.5869
  652SOL     OW 1954   2.276   2.518   2.368  0.2593  0.5118 -0.0519
  652SOL    HW1 1955   2.214   2.510   2.451  1.0572 -0.0268 -2.7758
  652SOL    HW2 1956   2.232   2.584   2.297 -0.6272  2.6523 -1.5092
  653SOL     OW 1957   2.697   1.186   0.281  0.1467 -0.0887 -0.0331
  653SOL    HW1 1958   2.746   1.274   0.292 -0.4438 -1.2709 -1.5119
  653SOL    HW2 1959   2.764   1.105   0.288  1.6828  1.3516  0.5592
  654SOL     OW 1960   1.248   2.277   1.218 -1.2905  0.2458 -0.1231
  654SOL    HW1 1961   1.296   2.194   1.257 -2.3384 -0.2026  0.8640
  654SOL    HW2 1962   1.274   2.299   1.121  0.9958 -1.5563  3.2653
  655SOL     OW 1963   0.231   1.056   1.852  0.4890  0.6920 -0.1542
  655SOL    HW1 1964   0.272   0.984   1.799  0.9039  1.1887  0.3475
  655SOL    HW2 1965   0.291   1.141   1.854  3.0741 -2.0625  0.8549
  656SOL     OW 1966   2.507   2.480   2.559 -0.1577 -0.0463  0.2363
  656SOL    HW1 1967   2.592   2.465   2.494  1.2052 -0.5776  1.0224
  656SOL    HW2 1968   2.419   2.504   2.508 -3.4872 -4.8613 -1.2563
  657SOL     OW 1969   3.052   1.101   1.855 -0.0815  0.1447 -0.2598
  657SOL    HW1 1970   3.024   1.195   1.895 -0.5508  1.1484  2.0764
  657SOL    HW2 1971   3.155   1.089   1.847  0.2951  2.1761 -1.2407
  658SOL     OW 1972   1.646   0.198   2.363  0.0378  0.6896 -0.1194
  658SOL    HW1 1973   1.687   0.135   2.434  1.9350  1.3115  2.6369
  658SOL    HW2 1974   1.723   0.219   2.289  0.4781 -2.6792 -1.8629
  659SOL     OW 1975   1.406   0.568   2.880 -0.1412  0.0294 -0.5358
  659SOL    HW1 1976   1.494   0.624   2.865 -0.8827  1.5203 -1.9005
  659SOL    HW2 1977   1.320   0.612   2.835 -1.7303  0.6947  1.9432
  660SOL     OW 1978   1.419   0.390   1.398 -0.1215  0.0410 -0.4178
  660SOL    HW1 1979   1.455   0.439   1.485  1.7111  2.8336 -0.0157
  660SOL    HW2 1980   1.488   0.328   1.350 -0.2446  1.9889  0.0155
  661SOL     OW 1981   2.479   1.156   0.661 -0.1509 -0.2092  0.1492
  661SOL    HW1 1982   2.508   1.094   0.583  0.4640 -1.6410  0.3380
  661SOL    HW2 1983   2.445   1.250   0.627  0.8053  1.3058 -0.9455
  662SOL     OW 1984   1.311   0.431   1.824 -0.3473  0.2062 -0.1897
  662SOL    HW1 1985   1.255   0.349   1.801  0.7247 -1.2535 -0.6700
  662SOL    HW2 1986   1.265   0.478   1.904 -1.4327  0.6189  0.2264
  663SOL     OW 1987   0.840   1.591   2.160  0.1832  0.0627  0.1973
  663SOL    HW1 1988   0.831   1.691   2.170 -0.9279  0.5949  2.3178
  663SOL    HW2 1989   0.769   1.551   2.092  0.9009 -1.9025 -1.3090
  664SOL     OW 1990   1.677   2.021   1.392 -0.0394  0.1707  0.1018
  664SOL    HW1 1991   1.621   1.944   1.432 -1.5637  0.7276 -0.2433
  664SOL    HW2 1992   1.779   2.003   1.391 -0.6162  0.8628  0.4176
  665SOL     OW 1993   2.252   0.624   1.981  0.9764  0.1024  0.6000
  665SOL    HW1 1994   2.273   0.531   2.024 -0.9613 -0.3173 -3.6904
  665SOL    HW2 1995   2.198   0.684   2.045 -0.8036  0.0871 -2.0278
  666SOL     OW 1996   0.487   2.297   0.455  0.0960  0.2196 -0.5941
  666SOL    HW1 1997   0.554   2.382   0.447  0.8921  0.5356 -2.3900
  666SOL    HW2 1998   0.446   2.284   0.548 -0.4849  0.1779 -1.1717
  667SOL     OW 1999   2.072   0.283   1.004  0.6625  0.0766 -0.4304
  667SOL    HW1 2000   2.114   0.378   0.985  2.0554 -0.3671  0.0817
  667SOL    HW2 2001   2.011   0.285   1.086 -0.5803 -1.5052 -0.1739
  668SOL     OW 2002   1.991   0.491   1.200 -0.0647 -0.4737  0.1775
  668SOL    HW1 2003   2.058   0.544   1.138 -1.0466 -0.7593  2.0446
  668SOL    HW2 2004   2.036   0.433   1.272  1.0890 -0.3460  1.1489
  669SOL     OW 2005   2.998   2.078   0.910  0.2701 -0.3327 -0.0391
  669SOL    HW1 2006   2.911   2.095   0.847  1.5157  1.9830 -1.5929
  669SOL    HW2 2007   3.011   2.166   0.972 -2.7650 -0.6206  0.8894
  670SOL     OW 2008   2.819   2.353   2.007 -0.1956  0.3696 -0.0059
  670SOL    HW1 2009   2.783   2.338   2.100 -0.1416  2.6226 -1.3192
  670SOL    HW2 2010   2.787   2.450   1.972  0.6135  1.4710 -2.5989
  671SOL     OW 2011   1.745   1.634   1.443 -0.1491 -0.3231 -0.3454
  671SOL    HW1 2012   1.743   1.668   1.344 -0.6706 -0.0564  1.9931
  671SOL    HW2 2013   1.686   1.552   1.445  0.3670 -0.3894  0.4086
  672SOL     OW 2014   0.423   0.671   2.441 -0.2599  0.6983 -0.1429
  672SOL    HW1 2015   0.444   0.674   2.343  0.1223  1.1068  0.9733
  672SOL    HW2 2016   0.344   0.738   2.460 -0.1331 -0.1480 -1.1281
  673SOL     OW 2017   0.184   1.203   1.135 -0.1943  0.0134 -0.4442
  673SOL    HW1 2018   0.230   1.265   1.205  1.2307  2.4401  0.4632
  673SOL    HW2 2019   0.257   1.147   1.084  0.7277 -3.5507  0.8802
  674SOL     OW 2020   1.524   2.852   0.142  0.1658 -0.6951 -0.0901
  674SOL    HW1 2021   1.565   2.939   0.102 -1.8663  2.8913  0.2218
  674SOL    HW2 2022   1.582   2.766   0.124  0.2122 -0.5858  1.3531
  675SOL     OW 2023   1.703   0.806   2.343  0.2952 -0.5643  0.0904
  675SOL    HW1 2024   1.800   0.788   2.316 -1.8365  3.8354  0.4597
  675SOL    HW2 2025   1.639   0.787   2.268  0.3711  2.3839  2.7153
  676SOL     OW 2026   2.487   1.506   1.990 -0.3071 -0.1658 -0.2475
  676SOL    HW1 2027   2.460   1.480   1.890  0.2251  0.2064  1.5180
  676SOL    HW2 2028   2.540   1.430   2.045 -1.3275 -2.1177  2.7671
  677SOL     OW 2029   1.792   0.542   0.974  0.1989 -0.8952 -0.6510
  677SOL    HW1 2030   1.879   0.534   1.030 -0.9554  0.2700  0.4918
  677SOL    HW2 2031   1.734   0.455   0.972  0.5972  1.1186  0.6726
  678SOL     OW 2032   0.078   0.780   1.684  0.1125  0.7356  0.3468
  678SOL    HW1 2033   0.169   0.800   1.730  1.2028 -2.9351 -0.6829
  678SOL    HW2 2034  -0.008   0.804   1.744 -0.3100  2.0271  0.5111
  679SOL     OW 2035   2.537   1.192   1.086  0.3442 -0.2883  0.7929
  679SOL    HW1 2036   2.466   1.214   1.160  0.3270 -0.9753  0.8693
  679SOL    HW2 2037   2.519   1.095   1.043  2.0790 -2.0992  1.7323
  680SOL     OW 2038   2.839   0.636   1.658 -0.0305  0.4817  0.1657
  680SOL    HW1 2039   2.803   0.679   1.569  0.6974 -1.6111 -0.1544
  680SOL    HW2 2040   2.873   0.709   1.724 -1.7459  0.6909 -0.9589
  681SOL     OW 2041   3.013   0.173   1.634  0.1614  0.2092  0.4912
  681SOL    HW1 2042   3.093   0.162   1.566  0.0388  0.7853 -0.5939
  681SOL    HW2 2043   2.957   0.257   1.616 -0.6572 -1.3596  0.5281
  682SOL     OW 2044   0.756   0.059   1.381 -0.7231  0.2461 -0.3819
  682SOL    HW1 2045   0.690  -0.005   1.431  1.3330  1.7277 -0.9021
  682SOL    HW2 2046   0.766   0.043   1.281 -0.7953  2.1054  0.6334
  683SOL     OW 2047   1.397   0.231   2.181 -0.7847 -0.3791  0.1543
  683SOL    HW1 2048   1.394   0.261   2.279  1.4158 -0.9202  1.7879
  683SOL    HW2 2049   1.474   0.287   2.130  0.0965  1.9919  2.8202
  684SOL     OW 2050   1.438   2.141   0.490  0.0890 -0.2749 -0.0377
  684SOL    HW1 2051   1.506   2.071   0.528 -0.0006 -0.1903  0.5744
  684SOL    HW2 2052   1.355   2.098   0.444 -0.8601 -0.1939  2.2409
  685SOL     OW 2053   2.158   1.878   1.934 -0.7096 -0.2830  0.3188
  685SOL    HW1 2054   2.201   1.958   1.887  1.0792 -1.8353  2.5681
  685SOL    HW2 2055   2.230   1.827   1.983  0.4191  0.3499  0.5108
  686SOL     OW 2056   1.581   1.754   2.739 -0.1893  0.5501  1.1238
  686SOL    HW1 2057   1.562   1.659   2.711  1.1654  1.7808 -1.8304
  686SOL    HW2 2058   1.550   1.764   2.836 -0.0148 -2.9174 -1.5885
  687SOL     OW 2059   1.346   2.524   1.926 -0.0719  0.2792  0.2397
  687SOL    HW1 2060   1.395   2.440   1.889 -2.2041 -1.4863  0.0028
  687SOL    HW2 2061   1.400   2.564   1.999 -1.8858  0.1599  0.3798
  688SOL     OW 2062   2.086   1.391   1.638  0.0431  0.3016 -0.1823
  688SOL    HW1 2063   2.166   1.437   1.587  0.0958  1.3368 -0.3362
  688SOL    HW2 2064   2.037   1.320   1.583 -0.6370  0.4647 -0.1947
  689SOL     OW 2065   2.455   1.116   2.763  0.3345 -0.1816  0.0472
  689SOL    HW1 2066   2.369   1.060   2.781 -1.3080 -0.4129 -0.8976
  689SOL    HW2 2067   2.529   1.096   2.829 -0.4385  0.6613 -2.1800
  690SOL     OW 2068   2.215   2.806   3.083 -0.4130 -0.5083  0.5961
  690SOL    HW1 2069   2.164   2.770   3.000  1.9823 -0.2853  0.3316
  690SOL    HW2 2070   2.164   2.832   3.174 -1.3254  0.9878  0.7476
  691SOL     OW 2071   2.552   0.482   2.175 -0.1257  0.3523  0.1754
  691SOL    HW1 2072   2.640   0.437   2.145 -2.0583  1.0569  0.0791
  691SOL    HW2 2073   2.548   0.583   2.148 -0.0602 -0.8221 -1.1425
  692SOL     OW 2074   2.750   1.212   0.703 -0.4713 -0.0947 -0.5443
  692SOL    HW1 2075   2.649   1.185   0.687 -1.5452 -2.6631  0.3745
  692SOL    HW2 2076   2.768   1.304   0.746  0.5373 -2.1130 -1.1564
  693SOL     OW 2077   2.878   2.977   0.591 -0.4644 -0.2099 -0.4442
  693SOL    HW1 2078   2.871   3.068   0.643  0.0024 -2.8881  0.1330
  693SOL    HW2 2079   2.801   2.955   0.521  1.4353 -3.3781  1.3409
  694SOL     OW 2080   2.373   2.181   0.063  0.1149 -0.4670 -0.0282
  694SOL    HW1 2081   2.348   2.278   0.089 -0.9527 -2.0812 -1.8673
  694SOL    HW2 2082   2.293   2.104   0.067 -0.5318 -3.2573  1.2706
  695SOL     OW 2083   0.530   3.000   1.477  0.0634 -0.6014  0.4190
  695SOL    HW1 2084   0.528   2.902   1.449  0.1173  0.5950 -0.7085
  695SOL    HW2 2085   0.478   3.023   1.564  0.4941  0.6250  0.5814
  696SOL     OW 2086   2.706   1.916   0.718  0.3155  0.5406 -0.3079
  696SOL    HW1 2087   2.753   1.842   0.776  1.7008  1.9712  1.0549
  696SOL    HW2 2088   2.654   1.878   0.634  0.6582 -0.9311 -4.5348
  697SOL     OW 2089   1.729   2.108   1.751 -0.1693  0.7097  0.4121
  697SOL    HW1 2090   1.809   2.053   1.786 -1.2680  0.9774 -4.4828
  697SOL    HW2 2091   1.758   2.204   1.740 -1.4307  0.2594 -0.3046
  698SOL     OW 2092   2.938   0.368   2.736  0.0611 -0.4830  0.2102
  698SOL    HW1 2093   2.894   0.330   2.648  0.9203 -1.7190 -0.6599
  698SOL    HW2 2094   2.967   0.304   2.803  1.0738  1.3102 -1.3116
  699SOL     OW 2095   1.567   0.070   2.928  0.1196  0.2614 -0.5098
  699SOL    HW1 2096   1.520  -0.014   2.885  2.4094 -0.4131  1.0172
  699SOL    HW2 2097   1.626   0.109   2.849 -0.7486  0.3297  0.0080
  700SOL     OW 2098   1.037   2.368   1.373  0.1378  0.0293  0.2141
  700SOL    HW1 2099   1.127   2.346   1.330  1.6416  0.8236 -2.8376
  700SOL    HW2 2100   0.963   2.358   1.302  1.5061 -0.0037  1.1944
  701SOL     OW 2101   1.859   2.829   0.036 -0.7163 -0.2604 -0.7241
  701SOL    HW1 2102   1.876   2.795   0.136  0.6404 -0.6283 -0.5035
  701SOL    HW2 2103   1.906   2.920   0.023  0.2729  0.1420  2.0015
  702SOL     OW 2104   2.083   1.399   1.907 -0.3588  0.2263 -0.1737
  702SOL    HW1 2105   2.151   1.324   1.933 -0.3013 -0.9242  3.3317
  702SOL    HW2 2106   2.075   1.414   1.803  1.4767  2.4851  2.6116
  703SOL     OW 2107   1.955   0.828   1.429  0.2284  0.3700  0.4315
  703SOL    HW1 2108   1.922   0.734   1.473 -0.1267 -0.0940  1.2358
  703SOL    HW2 2109   2.014   0.887   1.493  0.4032 -0.4422  0.9733
  704SOL     OW 2110   0.314   2.028   1.702  0.4186  0.1665  0.6319
  704SOL    HW1 2111   0.341   1.981   1.796 -0.1254 -1.1437  2.1034
  704SOL    HW2 2112   0.377   2.108   1.674 -1.9699  1.7174 -1.3954
  705SOL     OW 2113   2.530   1.405   0.876  0.5619 -0.0049 -0.5074
  705SOL    HW1 2114   2.440   1.390   0.830  3.7126 -1.9940 -0.0687
  705SOL    HW2 2115   2.549   1.342   0.959  0.0397  2.7048  0.7124
  706SOL     OW 2116   0.677   1.764   1.860  0.2672 -0.0493  0.7382
  706SOL    HW1 2117   0.650   1.679   1.907  0.4812  4.0160 -1.1939
  706SOL    HW2 2118   0.768   1.806   1.901  2.5354 -2.8307 -0.0301
  707SOL     OW 2119   2.271   1.202   1.861 -0.2344  0.6165  0.7062
  707SOL    HW1 2120   2.361   1.191   1.915 -0.1506  0.8673  0.9456
  707SOL    HW2 2121   2.233   1.115   1.831  0.2867  2.3380  2.0845
  708SOL     OW 2122   3.082   0.465   3.027  0.1113 -0.1491  0.2336
  708SOL    HW1 2123   3.083   0.532   2.947  0.5329 -0.6812 -1.3067
  708SOL    HW2 2124   3.069   0.374   2.982 -1.6294  2.3562 -0.4414
  709SOL     OW 2125   1.825   1.827   0.293 -0.0650  0.6937 -0.1609
  709SOL    HW1 2126   1.851   1.919   0.345 -1.2139 -0.4063  2.4937
  709SOL    HW2 2127   1.842   1.832   0.194  0.5443  1.8786  1.0360
  710SOL     OW 2128   1.732   1.639   2.466  0.5279  0.5811  0.0892
  710SOL    HW1 2129   1.789   1.607   2.388  0.5831  0.4228  1.2639
  710SOL    HW2 2130   1.766   1.606   2.557 -2.7615  0.5614 -3.2235
  711SOL     OW 2131   2.632   2.932   0.970 -0.2140  0.2914  0.2840
  711SOL    HW1 2132   2.666   3.021   0.933  0.5382 -3.2988  0.2533
  711SOL    HW2 2133   2.707   2.872   0.998 -1.9243 -1.0141 -4.1684
  712SOL     OW 2134   1.512   2.333   1.778  0.1778 -0.7550  0.5592
  712SOL    HW1 2135   1.554   2.247   1.816 -1.4289 -2.4509 -1.5782
  712SOL    HW2 2136   1.438   2.307   1.705 -3.5664  1.9933  0.1203
  713SOL     OW 2137   2.808   1.424   2.481 -0.0405 -0.3407  0.8128
  713SOL    HW1 2138   2.825   1.347   2.410  1.9489 -0.7073 -0.2058
  713SOL    HW2 2139   2.711   1.413   2.518  0.0198 -2.9956 -3.2123
  714SOL     OW 2140   2.624   0.465   2.454  0.4029 -0.2589  0.6270
  714SOL    HW1 2141   2.542   0.465   2.515  2.3318 -0.0442  1.5246
  714SOL    HW2 2142   2.595   0.486   2.358 -0.7258 -1.1750  1.9790
  715SOL     OW 2143   1.570   2.098   1.130 -0.1071  0.0075  0.3271
  715SOL    HW1 2144   1.531   2.189   1.153  1.5252 -0.5060 -2.2631
  715SOL    HW2 2145   1.636   2.058   1.199  1.3667 -1.8554 -1.5519
  716SOL     OW 2146   1.238   0.207   1.495  0.2090 -0.4230 -0.5363
  716SOL    HW1 2147   1.134   0.207   1.484 -0.1632 -0.8645  2.0215
  716SOL    HW2 2148   1.282   0.291   1.457 -1.6844  1.0825  1.3868
  717SOL     OW 2149   1.085   0.609   1.613 -0.3972  0.3656 -0.0413
  717SOL    HW1 2150   1.183   0.641   1.635  1.2974  2.8278 -0.3493
  717SOL    HW2 2151   1.076   0.579   1.513  2.1648 -1.3521 -0.6888
  718SOL     OW 2152   0.626   1.064   0.999 -0.1470  0.8685 -0.4041
  718SOL    HW1 2153   0.592   1.063   0.902 -0.0384  3.6390 -2.9437
  718SOL    HW2 2154   0.712   1.123   1.011  1.2763  2.6688 -0.1360
  719SOL     OW 2155   0.797   1.881   2.232  0.3261 -0.4440 -0.2362
  719SOL    HW1 2156   0.861   1.920   2.308 -1.8150  4.1324 -0.2630
  719SOL    HW2 2157   0.703   1.915   2.242 -0.2360  1.5373  1.0330
  720SOL     OW 2158   2.213   1.083   0.239  0.1308  0.4940 -0.3164
  720SOL    HW1 2159   2.311   1.049   0.215 -0.8179 -2.3989 -1.2625
  720SOL    HW2 2160   2.186   1.055   0.338  0.2792 -0.9068 -1.0212
  721SOL     OW 2161   2.276   0.005   2.043 -0.8188  0.7153  0.4327
  721SOL    HW1 2162   2.292   0.089   1.985 -0.8290  1.0222  2.9085
  721SOL    HW2 2163   2.176  -0.015   2.053 -1.6976  0.8181  0.8579
  722SOL     OW 2164   2.386   1.664   0.519 -0.7188 -0.3595 -0.4645
  722SOL    HW1 2165   2.380   1.600   0.435  1.4134 -3.3023  0.2583
  722SOL    HW2 2166   2.300   1.714   0.540 -0.8649 -0.8454 -2.4938
  723SOL     OW 2167   2.548   2.839   1.937 -0.1786  0.1664 -0.0270
  723SOL    HW1 2168   2.617   2.835   2.016  0.9283 -0.7613  0.2622
  723SOL    HW2 2169   2.452   2.820   1.967  3.3242  1.1294 -1.2180
  724SOL     OW 2170   0.461   2.436   2.442 -0.7780 -0.2072 -0.3501
  724SOL    HW1 2171   0.363   2.470   2.443 -0.7211 -0.5464 -1.2409
  724SOL    HW2 2172   0.478   2.403   2.541 -0.7696 -1.2076  0.5908
  725SOL     OW 2173   2.371   2.762   1.431 -0.6950  0.1679 -0.3015
  725SOL    HW1 2174   2.426   2.806   1.358 -0.5869  2.5347 -1.0798
  725SOL    HW2 2175   2.391   2.660   1.444 -2.0873 -3.3372  0.5899
  726SOL     OW 2176   2.391   2.260   0.705  0.1201  0.0770  0.0216
  726SOL    HW1 2177   2.359   2.357   0.691 -3.5667  0.4142  0.8370
  726SOL    HW2 2178   2.360   2.200   0.629  0.4435  0.7630  3.1816
  727SOL     OW 2179   0.217   0.009   0.121  0.0376  0.0627  0.0152
  727SOL    HW1 2180   0.274  -0.074   0.123 -1.1922  1.7274 -0.0225
  727SOL    HW2 2181   0.219   0.065   0.035 -0.2089  1.5255  1.5000
  728SOL     OW 2182   2.759   0.689   0.998 -0.3712  0.2924 -0.0444
  728SOL    HW1 2183   2.675   0.663   0.950 -0.8680  0.1361  4.3333
  728SOL    HW2 2184   2.772   0.625   1.078 -0.4729 -1.0224  1.7564
  729SOL     OW 2185   2.900   2.465   0.693 -0.2137  0.2371  0.1941
  729SOL    HW1 2186   2.853   2.377   0.686 -0.2312 -0.3616  1.5195
  729SOL    HW2 2187   3.001   2.460   0.717  0.6868 -2.3054  0.2020
  730SOL     OW 2188   2.576   0.604   0.814  0.3064  0.9941  0.2495
  730SOL    HW1 2189   2.528   0.683   0.775 -0.9215 -0.9964  1.2334
  730SOL    HW2 2190   2.664   0.572   0.768 -1.4469  0.4089  0.3771
  731SOL     OW 2191   0.018   2.114   2.473  0.4382  0.1870  0.4655
  731SOL    HW1 2192   0.065   2.144   2.554 -4.7792 -1.4357 -0.9991
  731SOL    HW2 2193  -0.006   2.198   2.419  3.4780  2.6839  0.5806
  732SOL     OW 2194   1.112   2.896   1.956  0.3618 -0.1516  0.2486
  732SOL    HW1 2195   1.137   2.818   2.020  1.1376 -0.5370  0.5706
  732SOL    HW2 2196   1.147   2.888   1.857 -1.6227 -1.2510  0.2888
  733SOL     OW 2197   3.064   0.752   2.040 -0.2789  0.4211 -0.1040
  733SOL    HW1 2198   3.162   0.795   2.027  1.3250 -0.5581 -1.3764
  733SOL    HW2 2199   3.069   0.652   2.027  1.4068  1.4691  0.0080
  734SOL     OW 2200   1.406   0.339   2.726 -0.2414  0.3573 -0.4652
  734SOL    HW1 2201   1.429   0.416   2.789  1.7054 -0.9172 -1.2766
  734SOL    HW2 2202   1.331   0.274   2.768  0.2640 -0.4438 -0.8900
  735SOL     OW 2203   2.862   2.601   2.268  0.1882 -0.2329  0.2494
  735SOL    HW1 2204   2.807   2.627   2.184 -2.8578  1.4025  0.1100
  735SOL    HW2 2205   2.962   2.591   2.250 -1.7218 -0.3023 -0.8768
  736SOL     OW 2206   0.789   0.406   2.670  0.4429  0.4319  0.2716
  736SOL    HW1 2207   0.743   0.491   2.632 -0.6931 -1.6236 -0.4405
  736SOL    HW2 2208   0.817   0.350   2.593 -0.2375 -0.2167  0.5219
  737SOL     OW 2209   2.665   0.491   2.857  0.3072 -0.1163 -0.2927
  737SOL    HW1 2210   2.664   0.450   2.955 -1.5625 -3.6825  1.2987
  737SOL    HW2 2211   2.759   0.470   2.809  2.5263 -1.9175  0.6582
  738SOL     OW 2212   1.628   1.219   2.991  0.4672  0.0567  0.4874
  738SOL    HW1 2213   1.726   1.207   2.969 -0.7765 -0.8446  0.0550
  738SOL    HW2 2214   1.581   1.133   2.964  2.9345 -1.6234  0.9099
  739SOL     OW 2215   1.807   0.656   0.693 -0.1578 -0.1187 -0.0266
  739SOL    HW1 2216   1.817   0.627   0.790  0.1312  0.4067 -1.7298
  739SOL    HW2 2217   1.824   0.578   0.627 -1.8972 -1.8347  0.8848
  740SOL     OW 2218   1.968   1.869   2.177  0.2553  0.2766 -0.3475
  740SOL    HW1 2219   2.050   1.848   2.123 -0.7514  1.5016 -1.4589
  740SOL    HW2 2220   1.885   1.807   2.159 -0.0149 -0.8535 -0.4667
  741SOL     OW 2221   2.480   0.066   2.598  0.0897  0.8927 -0.6694
  741SOL    HW1 2222   2.572   0.034   2.629 -2.6883  0.4747 -0.2702
  741SOL    HW2 2223   2.463   0.049   2.495 -0.6579  0.3686 -0.7183
  742SOL     OW 2224   2.232   1.378   0.118  0.1643  0.1409 -0.4146
  742SOL    HW1 2225   2.174   1.456   0.150  3.7320  2.0443 -1.0160
  742SOL    HW2 2226   2.241   1.300   0.184  0.3130 -1.0369  0.0126
  743SOL     OW 2227   1.742   0.590   2.630 -0.1188 -0.2383  0.1955
  743SOL    HW1 2228   1.742   0.556   2.530  1.3625 -0.6664 -0.1269
  743SOL    HW2 2229   1.702   0.684   2.632  0.2417 -1.0506  1.3743
  744SOL     OW 2230   2.662   2.099   0.034 -0.4557  0.0889  0.3923
  744SOL    HW1 2231   2.565   2.142   0.052 -0.2915 -2.0163 -2.1498
  744SOL    HW2 2232   2.718   2.070   0.116  1.0709  0.5303  1.0520
  745SOL     OW 2233   2.156   2.711   2.207  0.6611 -0.1298  0.4575
  745SOL    HW1 2234   2.077   2.660   2.162 -0.2598  0.7770  0.6858
  745SOL    HW2 2235   2.130   2.758   2.294 -0.5330 -3.1600 -1.4818
  746SOL     OW 2236   3.082   2.585   1.810 -0.1896  0.2860 -0.3109
  746SOL    HW1 2237   3.152   2.592   1.731  1.2247  0.9295  0.2034
  746SOL    HW2 2238   3.064   2.678   1.857  3.0081  0.0124  0.2631
  747SOL     OW 2239   3.071   1.814   1.676 -0.1186  0.5870 -0.0105
  747SOL    HW1 2240   3.055   1.710   1.676 -0.3353 -0.2901  0.0177
  747SOL    HW2 2241   3.146   1.837   1.607 -1.0236 -1.8696  0.0821
  748SOL     OW 2242   1.778   2.705   2.885 -0.2619  0.9840  0.3785
  748SOL    HW1 2243   1.804   2.719   2.985  3.7486  0.1193  2.0712
  748SOL    HW2 2244   1.675   2.689   2.869 -2.1376 -0.8290 -0.0990
  749SOL     OW 2245   1.294   0.042   0.833 -0.8209  0.0339  0.3332
  749SOL    HW1 2246   1.246  -0.053   0.846 -0.0189  1.7182 -0.1372
  749SOL    HW2 2247   1.288   0.082   0.736  2.3242  3.0013  1.5542
  750SOL     OW 2248   2.334   0.229   1.872  1.1759 -0.0984 -0.4094
  750SOL    HW1 2249   2.359   0.277   1.786 -3.9471  0.0734 -3.1465
  750SOL    HW2 2250   2.334   0.296   1.952 -3.0620 -0.8157 -3.6422
  751SOL     OW 2251   0.830   2.209   2.801 -0.0298  0.3497 -0.0075
  751SOL    HW1 2252   0.881   2.213   2.894 -2.0500 -0.4438  0.6333
  751SOL    HW2 2253   0.751   2.137   2.807  0.3207  0.3962  0.2537
  752SOL     OW 2254   1.246   0.896   1.576 -0.1357  0.0354  0.3524
  752SOL    HW1 2255   1.313   0.941   1.513 -0.5743  1.3266 -0.2923
  752SOL    HW2 2256   1.284   0.812   1.621 -1.2025  0.7411  1.3385
  753SOL     OW 2257   0.944   2.616   1.766 -0.1887  0.1751  0.3101
  753SOL    HW1 2258   1.039   2.643   1.746 -0.9036 -2.9389  1.7745
  753SOL    HW2 2259   0.876   2.695   1.763  1.0046 -0.3020  2.8697
  754SOL     OW 2260   1.169   1.265   3.057 -0.4741  0.2787  0.1863
  754SOL    HW1 2261   1.221   1.201   2.989  0.4618  0.2691  2.0354
  754SOL    HW2 2262   1.177   1.364   3.042  1.1248  0.0379  0.3051
  755SOL     OW 2263   1.959   0.475   2.208  0.8004  0.0519  0.0609
  755SOL    HW1 2264   2.027   0.427   2.267 -0.0075  0.4508 -1.6049
  755SOL    HW2 2265   1.864   0.485   2.252 -0.2180  2.9554 -1.3242
  756SOL     OW 2266   2.632   1.003   2.948 -0.3807  0.7066 -0.3008
  756SOL    HW1 2267   2.733   0.982   2.971  1.8989 -2.1074 -1.3653
  756SOL    HW2 2268   2.578   0.927   2.985 -2.4531  2.5659  0.3092
  757SOL     OW 2269   0.116   0.513   1.764  1.2274  0.1763 -1.1927
  757SOL    HW1 2270   0.094   0.613   1.738  0.7997  2.4104  0.7131
  757SOL    HW2 2271   0.141   0.453   1.685 -2.0042  0.2957  0.2318
  758SOL     OW 2272   2.398   3.077   1.489 -0.2898 -0.2848  0.9539
  758SOL    HW1 2273   2.328   3.012   1.531  0.9555  1.4482 -0.1673
  758SOL    HW2 2274   2.380   3.095   1.388 -0.3428 -0.7521  1.4616
  759SOL     OW 2275   1.675   3.090   0.064 -0.1993 -0.2215 -0.1517
  759SOL    HW1 2276   1.620   3.133  -0.011 -0.3490  2.3278  2.6960
  759SOL    HW2 2277   1.776   3.078   0.041  3.3837  1.1911 -0.0261
  760SOL     OW 2278   2.745   2.020   2.784 -0.5739 -0.1975  0.5300
  760SOL    HW1 2279   2.819   1.952   2.773 -2.0260  1.3645  0.5433
  760SOL    HW2 2280   2.780   2.115   2.750  1.3828 -1.1553  2.2712
  761SOL     OW 2281   1.944   1.700   1.616 -0.1366 -0.0243 -0.1800
  761SOL    HW1 2282   1.973   1.607   1.653 -1.6992  0.0003  2.0210
  761SOL    HW2 2283   1.851   1.696   1.569 -3.3642  0.9456  0.1424
  762SOL     OW 2284   0.520   2.404   0.958 -0.0184 -0.0396 -0.0919
  762SOL    HW1 2285   0.572   2.440   0.874 -1.4497 -1.3972 -4.5700
  762SOL    HW2 2286   0.515   2.478   1.031 -0.3141 -1.8754 -0.1273
  763SOL     OW 2287   2.101   1.529   2.993 -0.5165 -0.0748  0.5951
  763SOL    HW1 2288   2.159   1.459   2.946  0.4494  4.8651 -1.4833
  763SOL    HW2 2289   2.009   1.495   3.029  0.7132  1.7961 -1.1480
  764SOL     OW 2290   0.682   0.507   0.904 -0.1839 -0.1804 -0.0460
  764SOL    HW1 2291   0.654   0.415   0.855  0.5722 -0.7336 -2.6235
  764SOL    HW2 2292   0.788   0.516   0.897  0.5659 -1.0437 -2.7957
  765SOL     OW 2293   0.669   0.241   0.796  0.1240  0.3915 -0.4272
  765SOL    HW1 2294   0.736   0.206   0.724 -0.6002  0.6658 -1.1109
  765SOL    HW2 2295   0.690   0.212   0.897 -0.2346 -1.7498 -1.5865
  766SOL     OW 2296   2.943   2.093   0.036 -0.1028  0.1154  0.0119
  766SOL    HW1 2297   2.859   2.133  -0.019 -0.0921  1.1076 -1.2011
  766SOL    HW2 2298   3.026   2.155   0.030  0.0149 -0.4192 -1.6323
  767SOL     OW 2299   2.845   1.547   0.518  0.1520  0.2918 -0.1172
  767SOL    HW1 2300   2.753   1.539   0.565  0.8289  2.1799 -0.5361
  767SOL    HW2 2301   2.920   1.580   0.587 -0.7282  0.6130 -0.7331
  768SOL     OW 2302   1.098   0.260   0.303  0.0701  0.0727 -0.1302
  768SOL    HW1 2303   1.020   0.212   0.348  1.2901  3.5817  0.5616
  768SOL    HW2 2304   1.177   0.195   0.286  0.4619 -2.4202 -0.5807
  769SOL     OW 2305   1.189   1.814   2.273  0.0881 -0.0387 -0.1110
  769SOL    HW1 2306   1.149   1.833   2.374 -0.1165  0.8827  1.9870
  769SOL    HW2 2307   1.173   1.716   2.249 -0.2015  1.9532  0.6656
  770SOL     OW 2308   0.162   1.218   2.401  0.0033 -0.5702 -0.2526
  770SOL    HW1 2309   0.147   1.259   2.491  1.3395 -0.3546 -0.3889
  770SOL    HW2 2310   0.071   1.213   2.354  1.6887  1.8278 -0.1832
  771SOL     OW 2311   2.955   2.829   1.920 -0.6832  0.3942  0.2784
  771SOL    HW1 2312   2.955   2.900   1.843 -1.4897 -0.6666  4.4194
  771SOL    HW2 2313   2.952   2.873   2.012 -1.3002  1.7792  1.3809
  772SOL     OW 2314   2.119   0.119   2.977  0.2652  0.2562 -0.3805
  772SOL    HW1 2315   2.201   0.055   2.952 -1.5669 -0.4448  0.7289
  772SOL    HW2 2316   2.141   0.216   3.022  0.5959  3.2847  0.8941
  773SOL     OW 2317   0.678   2.060   2.461 -0.2413  0.1990 -0.1533
  773SOL    HW1 2318   0.649   2.120   2.383  1.4937 -1.7448 -0.2504
  773SOL    HW2 2319   0.637   2.089   2.553 -0.6556  0.4833 -0.3917
  774SOL     OW 2320   2.037   3.090   2.610 -0.0570  0.5153 -0.2131
  774SOL    HW1 2321   2.043   3.188   2.647  2.5338 -0.5152  0.1353
  774SOL    HW2 2322   2.096   3.032   2.667  2.3004  1.1053 -0.1676
  775SOL     OW 2323   2.504   2.841   2.351 -0.5428  0.0686 -1.0830
  775SOL    HW1 2324   2.476   2.939   2.344 -0.4017 -2.3282 -0.6787
  775SOL    HW2 2325   2.590   2.824   2.409 -0.4712  3.7724 -0.6251
  776SOL     OW 2326   0.026   1.247   0.201  0.6233 -0.1187 -0.1789
  776SOL    HW1 2327   0.011   1.186   0.121  1.9701 -0.7676  0.4182
  776SOL    HW2 2328  -0.060   1.295   0.243 -0.1034  2.4474  0.2917
  777SOL     OW 2329   0.229   2.685   0.498  0.5951 -0.1418  0.0289
  777SOL    HW1 2330   0.142   2.658   0.446  0.9697  0.3383 -1.0208
  777SOL    HW2 2331   0.261   2.782   0.482  2.9798 -2.5397  0.3707
  778SOL     OW 2332   1.324   1.958   0.160  0.1671 -0.1995  0.3156
  778SOL    HW1 2333   1.254   1.981   0.236 -1.0055  1.6725 -1.7248
  778SOL    HW2 2334   1.344   2.043   0.099  0.4035 -1.0124 -0.2156
  779SOL     OW 2335   0.184   0.810   0.498 -0.0570  0.3106  0.5860
  779SOL    HW1 2336   0.152   0.718   0.471 -1.3292 -0.6147  2.7692
  779SOL    HW2 2337   0.125   0.849   0.575  2.2567  1.1784  1.3104
  780SOL     OW 2338   0.045   0.311   2.397  0.0638  0.0531  0.3530
  780SOL    HW1 2339  -0.002   0.403   2.407  1.5665  0.7860 -0.1377
  780SOL    HW2 2340   0.130   0.312   2.339 -1.1135  0.4030 -0.2009
  781SOL     OW 2341   0.588   1.720   1.588 -0.4205 -0.7629  0.0332
  781SOL    HW1 2342   0.626   1.738   1.683  0.1938  1.3335 -0.6625
  781SOL    HW2 2343   0.529   1.634   1.574  2.4854  0.7870  1.6168
  782SOL     OW 2344   2.621   0.139   0.922  0.5748 -0.4826 -0.2497
  782SOL    HW1 2345   2.538   0.170   0.869  2.8487  1.0216  1.3136
  782SOL    HW2 2346   2.626   0.190   1.014  3.0092 -0.1134 -0.4139
  783SOL     OW 2347   2.845   0.698   2.503 -0.6681  0.2229  0.1888
  783SOL    HW1 2348   2.806   0.730   2.592  1.3927  0.2149 -0.7869
  783SOL    HW2 2349   2.801   0.619   2.453 -0.3358 -0.3817 -0.1452
  784SOL     OW 2350   1.356   2.194   0.014  0.4865 -0.4298 -0.4488
  784SOL    HW1 2351   1.443   2.234   0.052  1.0610  0.2556 -2.5744
  784SOL    HW2 2352   1.352   2.193  -0.090 -0.1832 -0.0839  3.3675
  785SOL     OW 2353   2.168   0.344   0.006 -0.2528  0.3393 -0.0850
  785SOL    HW1 2354   2.087   0.352   0.072 -3.1305  0.5450 -0.9379
  785SOL    HW2 2355   2.202   0.441  -0.017  0.3176  4.0185  0.0117
  786SOL     OW 2356   2.029   2.171   2.256 -0.1152 -0.1811  1.0116
  786SOL    HW1 2357   2.007   2.078   2.217 -0.1709  2.4403  0.8172
  786SOL    HW2 2358   2.114   2.181   2.308 -1.4904  0.2565 -3.4934
  787SOL     OW 2359   1.376   0.630   0.828  0.2999 -0.1165 -0.4247
  787SOL    HW1 2360   1.313   0.711   0.857 -2.6482  0.4711 -0.0206
  787SOL    HW2 2361   1.415   0.644   0.730 -1.6220 -0.1164 -0.5063
  788SOL     OW 2362   1.213   0.431   3.026 -0.5028  0.5501 -0.0518
  788SOL    HW1 2363   1.119   0.454   3.000  1.2135 -1.3871 -3.0065
  788SOL    HW2 2364   1.282   0.496   2.981  1.1014  0.2047  0.4114
  789SOL     OW 2365   2.626   0.096   1.823  0.0626  0.5104  0.3742
  789SOL    HW1 2366   2.552   0.164   1.834  0.1518 -0.6113 -0.8492
  789SOL    HW2 2367   2.594   0.000   1.781 -0.4650 -3.7075 -0.4119
  790SOL     OW 2368   2.590   2.625   0.800 -0.5117 -0.1590 -0.5300
  790SOL    HW1 2369   2.633   2.628   0.707  0.0711 -1.7510 -0.0867
  790SOL    HW2 2370   2.585   2.713   0.857 -0.0296  2.9843  0.1512
  791SOL     OW 2371   1.972   1.288   0.221  0.4629 -0.4318 -0.1286
  791SOL    HW1 2372   1.885   1.247   0.253  0.9690  2.3422  0.7628
  791SOL    HW2 2373   2.037   1.218   0.187  2.0303 -1.3718 -1.0977
  792SOL     OW 2374   0.410   1.978   2.211 -0.1818  0.0051 -0.2321
  792SOL    HW1 2375   0.454   2.055   2.265 -0.1865 -1.3946  0.7568
  792SOL    HW2 2376   0.329   1.932   2.261  1.3164  0.4066  0.7497
  793SOL     OW 2377   2.148   1.544   2.144  0.1266 -0.0151 -0.1073
  793SOL    HW1 2378   2.196   1.637   2.143  0.0156 -1.2059  1.0974
  793SOL    HW2 2379   2.146   1.491   2.046  0.5331 -1.6688 -4.8805
  794SOL     OW 2380   0.475   1.454   2.476  0.7126  0.6062 -0.0931
  794SOL    HW1 2381   0.490   1.388   2.400  2.2319  1.0078 -1.2669
  794SOL    HW2 2382   0.412   1.537   2.456 -2.1141  2.2971 -0.5950
  795SOL     OW 2383   2.538   2.321   1.807  0.1973 -0.1304  0.0867
  795SOL    HW1 2384   2.552   2.365   1.902 -0.0823  0.2040 -0.9760
  795SOL    HW2 2385   2.486   2.235   1.816 -1.2007  1.5645 -0.1614
  796SOL     OW 2386   3.052   1.065   2.693 -0.2210  0.0051  0.0691
  796SOL    HW1 2387   2.966   1.103   2.737  1.1566 -1.1504 -1.8747
  796SOL    HW2 2388   3.082   0.982   2.752 -1.2992  2.8302  0.3888
  797SOL     OW 2389   0.681   0.660   1.360 -0.1525 -0.2445  0.1786
  797SOL    HW1 2390   0.750   0.712   1.417 -0.3252 -0.7020 -1.1007
  797SOL    HW2 2391   0.665   0.711   1.270  2.9108 -0.7929 -0.6608
  798SOL     OW 2392   1.200   0.462   0.963 -0.3519  0.1353 -0.4988
  798SOL    HW1 2393   1.218   0.489   1.064  0.3830 -4.5923 -1.8376
  798SOL    HW2 2394   1.285   0.488   0.902 -0.8381  3.0165 -2.5553
  799SOL     OW 2395   1.832   2.728   1.010 -0.1533 -0.3050  0.3860
  799SOL    HW1 2396   1.823   2.636   1.049  0.2384  1.8860 -1.6743
  799SOL    HW2 2397   1.852   2.720   0.907 -2.2364 -3.6003 -0.0596
  800SOL     OW 2398   2.956   0.844   1.816  0.1038  0.1355 -0.0006
  800SOL    HW1 2399   2.969   0.950   1.808 -0.9858  0.5370  0.9953
  800SOL    HW2 2400   2.963   0.807   1.913 -1.9860 -1.2617 -1.0149
  801SOL     OW 2401   1.969   2.153   0.132 -0.4051 -0.1983 -0.1786
  801SOL    HW1 2402   1.896   2.086   0.101  1.9012 -0.4195 -0.8875
  801SOL    HW2 2403   2.063   2.121   0.097  2.0516 -1.8091  1.4356
  802SOL     OW 2404   0.675   0.647   2.542 -0.4195 -0.9358  0.1446
  802SOL    HW1 2405   0.709   0.656   2.443 -1.8661 -1.7365 -0.9710
  802SOL    HW2 2406   0.570   0.644   2.548 -0.5002 -0.8698 -0.8288
  803SOL     OW 2407   0.910   0.085   0.863  0.2675  0.2315  0.0989
  803SOL    HW1 2408   0.990   0.141   0.901 -1.6810  1.3884  0.1327
  803SOL    HW2 2409   0.895   0.101   0.762 -0.4717 -2.3256  2.3980
  804SOL     OW 2410   0.306   0.021   2.198 -0.4993 -0.1794 -0.1299
  804SOL    HW1 2411   0.285   0.123   2.215 -1.7124  0.6917 -0.5768
  804SOL    HW2 2412   0.250  -0.029   2.124 -0.4774  0.3596 -1.0501
  805SOL     OW 2413   2.387   0.381   0.331  0.5217  0.5986  0.3227
  805SOL    HW1 2414   2.467   0.356   0.399 -0.3254  1.0438 -2.9457
  805SOL    HW2 2415   2.381   0.315   0.249 -0.7889  0.3802  0.2705
  806SOL     OW 2416   0.635   2.522   1.831  0.1246  0.9737 -0.4079
  806SOL    HW1 2417   0.582   2.612   1.855 -2.9188  1.2309 -0.5878
  806SOL    HW2 2418   0.684   2.526   1.740 -1.9224  0.5405 -0.0987
  807SOL     OW 2419   2.522   0.984   0.476 -0.5680 -0.3806  0.4788
  807SOL    HW1 2420   2.626   0.964   0.486 -3.0834  1.0178  1.2139
  807SOL    HW2 2421   2.490   0.985   0.381  3.1258 -1.0212  1.8389
  808SOL     OW 2422   0.632   2.031   2.874  0.6725  0.0315  0.2409
  808SOL    HW1 2423   0.612   2.052   2.973  2.4246  0.5291 -1.5720
  808SOL    HW2 2424   0.680   1.940   2.866 -0.5141 -0.6302 -2.3433
  809SOL     OW 2425   2.556   1.982   1.900  0.0422  0.0102 -0.3225
  809SOL    HW1 2426   2.658   2.003   1.930  1.4639 -1.8180 -2.3910
  809SOL    HW2 2427   2.548   1.981   1.797  2.6823 -0.4940  3.1205
  810SOL     OW 2428   2.178   1.092   0.547  0.4334  0.5931 -0.0738
  810SOL    HW1 2429   2.226   1.037   0.615  0.2576  2.3375 -0.8014
  810SOL    HW2 2430   2.139   1.181   0.586  2.5354 -0.3728  2.5118
  811SOL     OW 2431   1.272   2.596   1.199  0.1055 -0.1160  0.4615
  811SOL    HW1 2432   1.266   2.494   1.194 -0.5679  2.2864 -2.5295
  811SOL    HW2 2433   1.272   2.630   1.296 -1.6640  1.1040 -1.7425
  812SOL     OW 2434   1.429   0.776   1.968  0.5393 -0.5717  0.3954
  812SOL    HW1 2435   1.379   0.738   1.885 -1.9520  1.7097 -0.8867
  812SOL    HW2 2436   1.421   0.882   1.966 -0.1323 -1.6800 -1.5806
  813SOL     OW 2437   1.600   2.067   2.422  0.8557 -0.0905 -0.5108
  813SOL    HW1 2438   1.670   1.999   2.456  1.5570 -0.0493 -2.0656
  813SOL    HW2 2439   1.566   2.034   2.330  0.5472  1.7402  0.0875
  814SOL     OW 2440   2.985   1.702   2.884  0.1327  0.3885 -0.9078
  814SOL    HW1 2441   3.062   1.676   2.947  0.6288  0.2049  1.7838
  814SOL    HW2 2442   2.984   1.806   2.865  1.6537  1.8136 -0.0183
  815SOL     OW 2443   2.176   2.902   2.768 -0.0838 -0.2973 -0.4281
  815SOL    HW1 2444   2.124   2.817   2.801  1.5732  0.4402  0.3619
  815SOL    HW2 2445   2.236   2.946   2.841 -0.2819  1.1633  0.1605
  816SOL     OW 2446   1.524   0.371   1.651  0.2138 -0.1139 -0.1433
  816SOL    HW1 2447   1.583   0.291   1.684 -2.6437  0.3900 -0.4195
  816SOL    HW2 2448   1.440   0.380   1.709  0.8526 -1.5148 -1.1224
  817SOL     OW 2449   0.385   1.236   2.653 -0.0952  0.3505 -0.1664
  817SOL    HW1 2450   0.288   1.203   2.646 -0.6686 -1.4661  0.8849
  817SOL    HW2 2451   0.406   1.326   2.610  1.4705  2.2519 -1.4818
  818SOL     OW 2452   2.015   0.824   0.464  0.3075  0.3034 -0.0163
  818SOL    HW1 2453   2.117   0.808   0.464 -1.5987  1.3846  1.0814
  818SOL    HW2 2454   1.976   0.824   0.558  0.1665  0.5190  0.2015
  819SOL     OW 2455   2.756   2.891   3.093 -0.0672 -0.5135 -0.4134
  819SOL    HW1 2456   2.746   2.820   3.167  1.6062  1.4708 -0.7840
  819SOL    HW2 2457   2.725   2.850   3.001 -0.9919 -0.1105  0.9378
  820SOL     OW 2458   1.279   1.053   0.554  0.2195  0.0879  0.1427
  820SOL    HW1 2459   1.291   1.144   0.603  3.1150 -1.5105  2.4360
  820SOL    HW2 2460   1.242   0.973   0.605 -1.7010 -1.9125 -0.6254
  821SOL     OW 2461   0.090   1.185   0.713  0.5461  0.1989 -0.8457
  821SOL    HW1 2462   0.042   1.180   0.807  0.5064  2.1286  2.3401
  821SOL    HW2 2463   0.144   1.273   0.708 -0.9745 -2.3350  1.9021
  822SOL     OW 2464   2.526   1.763   2.427  0.1171 -0.1379  0.0457
  822SOL    HW1 2465   2.531   1.812   2.520 -0.0536 -2.3752  0.0003
  822SOL    HW2 2466   2.448   1.798   2.367  0.0496 -0.9488  1.8835
  823SOL     OW 2467   2.016   0.953   1.207  0.1679 -0.1225  0.2122
  823SOL    HW1 2468   2.000   0.889   1.290  1.4653  1.0965  2.4605
  823SOL    HW2 2469   1.928   0.971   1.147 -2.5277  0.8537 -3.0541
  824SOL     OW 2470   0.195   1.905   2.782 -0.2870 -0.0996  0.2426
  824SOL    HW1 2471   0.234   1.871   2.871 -3.0456  0.8260  1.1377
  824SOL    HW2 2472   0.256   1.901   2.704 -3.2607  0.9915  1.2844
  825SOL     OW 2473   1.319   1.077   0.258 -0.2568  0.1154 -0.0241
  825SOL    HW1 2474   1.343   1.178   0.241 -0.8892  3.1952 -0.5865
  825SOL    HW2 2475   1.306   1.062   0.359  1.5135 -0.7113 -1.2695
  826SOL     OW 2476   1.928   0.598   1.578 -0.1447 -0.0958 -0.0472
  826SOL    HW1 2477   2.013   0.571   1.631  0.4565  0.0272 -0.6343
  826SOL    HW2 2478   1.888   0.518   1.527  2.3259 -0.8964 -0.6773
  827SOL     OW 2479   0.730   1.158   0.402 -0.0926 -0.0760  0.5433
  827SOL    HW1 2480   0.785   1.093   0.347  0.8652 -0.4591  1.3609
  827SOL    HW2 2481   0.634   1.127   0.429  0.1934  0.8613 -1.1194
  828SOL     OW 2482   2.634   0.129   1.555 -0.4034  0.0294  0.2425
  828SOL    HW1 2483   2.542   0.079   1.537  0.9972 -1.4916 -0.7080
  828SOL    HW2 2484   2.662   0.125   1.653 -0.2483 -0.1877  2.4368
  829SOL     OW 2485   2.912   2.423   2.933  0.0496 -0.3435  0.4076
  829SOL    HW1 2486   2.815   2.402   2.963  0.0085  0.5603  3.1736
  829SOL    HW2 2487   2.929   2.524   2.923 -2.7984 -3.0117  1.7907
  830SOL     OW 2488   2.880   0.909   3.042  0.1715 -0.2479 -0.6384
  830SOL    HW1 2489   2.935   0.998   3.047  0.1539  0.8665  0.9717
  830SOL    HW2 2490   2.931   0.833   3.089  1.9741  0.3893  3.0554
  831SOL     OW 2491   0.088   0.569   0.409  1.0341  0.5727 -0.6860
  831SOL    HW1 2492   0.089   0.500   0.486 -0.5595  0.1306 -1.1342
  831SOL    HW2 2493   0.104   0.517   0.319 -0.5211  2.2001 -0.5095
  832SOL     OW 2494   1.787   0.763   3.022  0.2928 -0.3994  0.0122
  832SOL    HW1 2495   1.696   0.806   2.986  1.5399  0.3489  1.1820
  832SOL    HW2 2496   1.778   0.660   3.048 -2.1382 -1.3143  0.1664
  833SOL     OW 2497   2.388   2.086   0.489 -0.5311  0.1946  0.7421
  833SOL    HW1 2498   2.295   2.043   0.514  0.2051 -0.6216 -1.8262
  833SOL    HW2 2499   2.454   2.005   0.467  1.3023 -1.9747 -4.1498
  834SOL     OW 2500   0.178   0.117   0.585 -0.7676  0.1697  0.1084
  834SOL    HW1 2501   0.195   0.028   0.630 -2.7128  0.3269  0.1261
  834SOL    HW2 2502   0.222   0.127   0.489  1.7094 -1.1505 -1.5674
  835SOL     OW 2503   2.421   1.560   1.091  0.0211  0.7602  0.0569
  835SOL    HW1 2504   2.510   1.590   1.140  1.8685  1.1196  0.2480
  835SOL    HW2 2505   2.444   1.507   1.005  2.9368  4.9078  1.6287
  836SOL     OW 2506   1.587   0.816   2.586 -0.2991 -0.2623 -0.8298
  836SOL    HW1 2507   1.481   0.813   2.579 -1.1216 -0.4129  1.1146
  836SOL    HW2 2508   1.634   0.843   2.493 -0.8223 -0.9569 -0.2620
  837SOL     OW 2509   1.712   0.109   0.573  0.4589 -0.3361 -0.0785
  837SOL    HW1 2510   1.666   0.194   0.621  0.9585  1.6016  0.5794
  837SOL    HW2 2511   1.682   0.098   0.474 -1.1755  0.8165 -0.2343
  838SOL     OW 2512   1.205   1.413   2.709 -0.0097  0.5092 -0.1623
  838SOL    HW1 2513   1.191   1.426   2.813 -0.7611  0.0370  1.0009
  838SOL    HW2 2514   1.157   1.328   2.674  1.6014  0.6678 -0.2203
  839SOL     OW 2515   1.575   0.347   0.964  0.2876  0.1424 -0.2348
  839SOL    HW1 2516   1.543   0.403   1.048  0.6522 -1.8636  1.7217
  839SOL    HW2 2517   1.569   0.244   0.990 -0.1540 -2.9693  1.2835
  840SOL     OW 2518   2.596   2.946   1.686  0.6731  0.1165 -0.5319
  840SOL    HW1 2519   2.521   2.945   1.617 -0.0524 -0.7338  0.5273
  840SOL    HW2 2520   2.563   2.905   1.777 -1.6677  1.0297 -1.2890
  841SOL     OW 2521   1.531   0.800   2.937 -0.5434 -0.2046 -0.0527
  841SOL    HW1 2522   1.510   0.813   3.036 -0.1161  0.1020  2.8136
  841SOL    HW2 2523   1.510   0.890   2.882 -0.7349  1.9049 -3.5013
  842SOL     OW 2524   0.850   1.572   1.019  0.2338  0.8277  0.0414
  842SOL    HW1 2525   0.809   1.666   1.035  0.5763 -0.9293  2.6593
  842SOL    HW2 2526   0.787   1.506   0.974 -1.6093 -0.9558  2.6782
  843SOL     OW 2527   0.144   0.139   1.449  0.2225 -0.7286  0.1481
  843SOL    HW1 2528   0.236   0.183   1.469 -0.7793 -2.1061 -0.0445
  843SOL    HW2 2529   0.157   0.040   1.425  3.7443  0.9476  2.3056
  844SOL     OW 2530   0.715   2.542   0.198 -0.3864 -0.1898  0.2332
  844SOL    HW1 2531   0.693   2.547   0.298  1.8230  0.4080 -0.0267
  844SOL    HW2 2532   0.637   2.567   0.135  1.0724  3.0194  1.2441
  845SOL     OW 2533   1.715   2.960   1.293  0.6955  1.0044  0.0189
  845SOL    HW1 2534   1.681   3.008   1.380  1.0035 -0.0797 -0.2609
  845SOL    HW2 2535   1.641   2.941   1.222  0.1818  2.4973 -1.5963
  846SOL     OW 2536   1.701   2.991   0.890 -0.4048  0.3182 -0.0098
  846SOL    HW1 2537   1.756   3.049   0.823  0.7161  0.2374  1.5418
  846SOL    HW2 2538   1.749   2.902   0.920 -1.8266  2.3667  2.4621
  847SOL     OW 2539   2.067   1.602   0.189 -0.1980 -0.1794  0.3834
  847SOL    HW1 2540   2.021   1.604   0.283  1.4534 -0.2049 -2.6341
  847SOL    HW2 2541   2.004   1.561   0.118  1.8042 -3.2106 -0.5766
  848SOL     OW 2542   2.467   0.850   2.643 -0.3199  1.0789 -0.7874
  848SOL    HW1 2543   2.471   0.949   2.658  1.1988 -2.5823 -0.2360
  848SOL    HW2 2544   2.383   0.818   2.586 -0.2070 -1.0625  0.3049
  849SOL     OW 2545   2.408   0.843   2.253 -0.7904 -0.4060  0.1970
  849SOL    HW1 2546   2.462   0.815   2.170  2.4811 -0.4223  0.2135
  849SOL    HW2 2547   2.382   0.763   2.313  1.2795 -0.1533 -2.0251
  850SOL     OW 2548   1.551   0.159   1.256  0.0235  0.7301 -0.2230
  850SOL    HW1 2549   1.528   0.115   1.165  0.6258  2.1433 -0.8848
  850SOL    HW2 2550   1.532   0.099   1.338  0.8527  1.6002  1.9798
  851SOL     OW 2551   0.498   1.775   0.682  0.0854 -0.3850 -0.1770
  851SOL    HW1 2552   0.509   1.878   0.700  3.5936  1.0660 -0.6024
  851SOL    HW2 2553   0.590   1.729   0.670 -0.1427 -1.4333 -0.0485
  852SOL     OW 2554   0.801   2.139   1.694  0.4516  0.1660  0.2939
  852SOL    HW1 2555   0.829   2.234   1.673 -0.9556 -2.7367  1.0555
  852SOL    HW2 2556   0.752   2.135   1.790  0.8567  1.0430  2.1184
  853SOL     OW 2557   2.533   1.517   2.583  0.8401  0.0549  0.1548
  853SOL    HW1 2558   2.485   1.422   2.565 -0.5880  2.5410 -0.9043
  853SOL    HW2 2559   2.501   1.590   2.515  0.6285 -0.1410 -1.6420
  854SOL     OW 2560   2.384   1.442   1.758  0.7250  0.3777  0.0349
  854SOL    HW1 2561   2.424   1.412   1.662 -0.3998 -1.0558 -1.2636
  854SOL    HW2 2562   2.330   1.364   1.805  1.5579 -2.2414  0.7597
  855SOL     OW 2563   2.051   2.299   0.987 -0.1780 -0.5888  0.5852
  855SOL    HW1 2564   2.081   2.394   0.943 -1.9731 -0.4988 -1.9657
  855SOL    HW2 2565   2.096   2.279   1.081 -0.0337 -1.5054  2.0742
  856SOL     OW 2566   1.415   1.331   0.886  0.0900 -0.5028 -0.2207
  856SOL    HW1 2567   1.387   1.434   0.896  1.1192  2.9022 -0.2330
  856SOL    HW2 2568   1.450   1.298   0.977  0.0110  0.2009  2.5210
  857SOL     OW 2569   2.926   2.567   1.037 -0.6944 -0.2654 -0.3050
  857SOL    HW1 2570   2.882   2.473   1.061 -0.2687  0.1601  2.1794
  857SOL    HW2 2571   2.985   2.561   0.952 -0.0162 -6.2399 -1.8163
  858SOL     OW 2572   2.268   2.117   1.750 -0.2145 -0.2934  0.4194
  858SOL    HW1 2573   2.182   2.167   1.713 -1.1754 -0.6586  1.6799
  858SOL    HW2 2574   2.334   2.070   1.683  0.2817  0.2048 -2.1547
  859SOL     OW 2575   2.422   0.483   0.999 -0.6117 -0.2848 -0.3545
  859SOL    HW1 2576   2.486   0.527   0.932 -1.0505  1.8790  1.0951
  859SOL    HW2 2577   2.448   0.380   1.017 -0.8615 -4.2016  1.5912
  860SOL     OW 2578   1.964   2.778   0.499 -0.2093  0.3307 -0.2193
  860SOL    HW1 2579   1.945   2.754   0.396 -1.1836  2.2543 -0.9014
  860SOL    HW2 2580   2.002   2.876   0.515 -1.1861 -1.7367  2.1254
  861SOL     OW 2581   1.069   2.577   2.769 -0.3697  0.0949 -0.0314
  861SOL    HW1 2582   1.122   2.668   2.749  3.0470 -0.6279  2.1622
  861SOL    HW2 2583   1.093   2.541   2.862 -2.9286  3.2023  0.7740
  862SOL     OW 2584   2.954   2.564   1.559  0.3335  0.2791  0.4148
  862SOL    HW1 2585   2.971   2.593   1.655 -2.3841  0.6205 -2.3091
  862SOL    HW2 2586   2.887   2.631   1.513  0.6200 -0.5684  1.0341
  863SOL     OW 2587   1.885   2.622   0.247  0.9751  0.1766  0.2753
  863SOL    HW1 2588   1.955   2.550   0.228 -3.7242  0.5065  0.4674
  863SOL    HW2 2589   1.783   2.591   0.260  0.7289  1.4670  0.6669
  864SOL     OW 2590   1.874   1.146   2.922 -0.0901 -0.1743  0.0504
  864SOL    HW1 2591   1.910   1.099   2.831  0.8530 -1.4583 -3.5602
  864SOL    HW2 2592   1.937   1.126   3.000  0.4613 -3.3997 -0.2491
  865SOL     OW 2593   2.140   1.736   0.680  0.4802 -0.4265 -0.2028
  865SOL    HW1 2594   2.180   1.757   0.772  0.7464  0.2837  2.1539
  865SOL    HW2 2595   2.043   1.696   0.683 -2.8957  0.3408 -0.7119
  866SOL     OW 2596   2.903   2.849   1.012 -0.6531 -0.1810 -0.1529
  866SOL    HW1 2597   2.972   2.880   0.940  1.9623  0.1415 -0.4799
  866SOL    HW2 2598   2.918   2.751   1.035  0.6071  3.5245  3.1952
  867SOL     OW 2599   0.433   1.298   0.848 -0.1275  0.2837 -0.0166
  867SOL    HW1 2600   0.454   1.201   0.814  1.4675 -1.1557 -1.2519
  867SOL    HW2 2601   0.373   1.355   0.786  1.9556 -1.1688 -0.0331
  868SOL     OW 2602   0.844   1.944   1.979  0.1829  0.3869 -0.4650
  868SOL    HW1 2603   0.841   1.907   2.082 -0.4959 -1.4398  2.3375
  868SOL    HW2 2604   0.772   2.014   1.958  0.7028  3.3853  0.9701
  869SOL     OW 2605   2.514   2.034   1.605  0.4171 -0.1140  0.1383
  869SOL    HW1 2606   2.583   2.090   1.551 -0.8205  0.7355  0.4313
  869SOL    HW2 2607   2.478   1.950   1.557  2.1563  2.3587 -0.0429
  870SOL     OW 2608   2.365   2.529   1.190  0.3819 -0.4157 -0.1165
  870SOL    HW1 2609   2.324   2.434   1.200  2.3748 -3.7996  0.6055
  870SOL    HW2 2610   2.454   2.536   1.242  0.9168  0.1878 -2.7084
  871SOL     OW 2611   2.996   2.019   0.553 -0.1048 -0.4818 -0.1935
  871SOL    HW1 2612   2.908   2.072   0.569 -1.0052  0.8767 -1.1681
  871SOL    HW2 2613   2.988   1.935   0.495  2.0865  1.9823  1.9478
  872SOL     OW 2614   2.174   0.504   1.695  0.1159  0.3424  0.2306
  872SOL    HW1 2615   2.152   0.531   1.792  0.9393 -0.9437  2.5279
  872SOL    HW2 2616   2.263   0.452   1.691  1.5233 -0.5029 -3.1325
  873SOL     OW 2617   1.726   2.106   2.944 -0.4244 -0.3404 -0.5168
  873SOL    HW1 2618   1.714   2.208   2.968  1.5081 -1.7084 -3.3971
  873SOL    HW2 2619   1.649   2.068   2.885  0.4790  1.4176  0.5609
  874SOL     OW 2620   0.709   2.503   0.759  0.5138  0.5323 -0.4027
  874SOL    HW1 2621   0.700   2.587   0.822 -0.5497  1.4507  1.1266
  874SOL    HW2 2622   0.795   2.451   0.758 -3.2247 -1.6562  1.4801
  875SOL     OW 2623   2.341   1.506   1.487  0.2487  0.3584 -0.1752
  875SOL    HW1 2624   2.407   1.581   1.496 -2.1321 -2.0767 -0.2920
  875SOL    HW2 2625   2.302   1.504   1.392 -3.4898 -3.1995 -0.3011
  876SOL     OW 2626   0.136   2.197   2.701 -0.1386 -0.7852 -0.0399
  876SOL    HW1 2627   0.215   2.156   2.750  0.4681  2.8712 -1.8814
  876SOL    HW2 2628   0.129   2.301   2.728 -0.5542 -0.4413 -0.4186
  877SOL     OW 2629   2.762   2.679   0.606  0.1925  0.2355 -0.3459
  877SOL    HW1 2630   2.820   2.733   0.542  0.1306 -0.1231 -1.0606
  877SOL    HW2 2631   2.816   2.617   0.675 -0.6394  0.0294  0.5024
  878SOL     OW 2632   2.820   1.548   2.209 -0.8962  0.5710  0.2213
  878SOL    HW1 2633   2.914   1.571   2.183 -1.1778  0.4698 -1.6160
  878SOL    HW2 2634   2.814   1.518   2.306  2.2263 -0.0494  1.1644
  879SOL     OW 2635   2.379   0.007   1.214 -0.0213  0.0778 -0.1601
  879SOL    HW1 2636   2.442  -0.078   1.213 -0.5826 -1.1645 -0.6858
  879SOL    HW2 2637   2.293  -0.016   1.158 -0.9370 -1.2116  1.5010
  880SOL     OW 2638   0.666   0.418   2.170  0.0894 -1.0546  0.3509
  880SOL    HW1 2639   0.584   0.377   2.216  1.4747  2.5976  2.3430
  880SOL    HW2 2640   0.735   0.357   2.132 -0.3608  4.2754  1.0365
  881SOL     OW 2641   0.906   0.044   0.382 -0.0045  0.3212 -0.4680
  881SOL    HW1 2642   0.931  -0.048   0.431 -1.6383 -0.0286  1.5771
  881SOL    HW2 2643   0.860   0.036   0.291 -0.2140  1.4870  0.8587
  882SOL     OW 2644   2.752   1.636   1.672 -0.1253  0.0831  0.3118
  882SOL    HW1 2645   2.854   1.620   1.639  4.3063  1.4788  0.4585
  882SOL    HW2 2646   2.745   1.691   1.758  0.7668 -1.8417 -0.9475
  883SOL     OW 2647   0.946   0.598   0.936 -0.2859  0.4461  0.0224
  883SOL    HW1 2648   0.949   0.676   1.006 -0.0342 -1.7956  1.4557
  883SOL    HW2 2649   1.039   0.551   0.941  2.1559  0.7956 -0.7455
  884SOL     OW 2650   1.212   1.912   1.010  0.5534 -0.2009  0.3941
  884SOL    HW1 2651   1.165   1.881   0.922  2.0559 -0.3098  2.4543
  884SOL    HW2 2652   1.154   1.973   1.071  1.8394 -1.4189  1.3390
  885SOL     OW 2653   2.247   1.819   2.304  0.2797 -0.7983 -0.3322
  885SOL    HW1 2654   2.187   1.761   2.359  1.8748  0.1889  0.8364
  885SOL    HW2 2655   2.256   1.920   2.325  0.1604  0.2441 -1.8876
  886SOL     OW 2656   2.651   0.460   1.776  0.3266  0.3089  0.0182
  886SOL    HW1 2657   2.694   0.410   1.858  1.9894  0.7519  0.8150
  886SOL    HW2 2658   2.723   0.515   1.728 -0.9440 -4.5984  1.8065
  887SOL     OW 2659   0.112   2.062   1.291  0.7536  0.1518  0.5967
  887SOL    HW1 2660   0.052   2.002   1.233 -0.3085 -0.8678  0.6615
  887SOL    HW2 2661   0.166   2.134   1.235 -0.9578 -0.5373 -0.5479
  888SOL     OW 2662   0.573   1.304   1.496  0.1430  0.3737  0.0624
  888SOL    HW1 2663   0.622   1.308   1.402 -1.0689 -0.7235  0.2463
  888SOL    HW2 2664   0.582   1.209   1.532  3.0011  0.8802 -1.3533
  889SOL     OW 2665   0.848   2.540   2.144  0.3182 -0.3133  0.0520
  889SOL    HW1 2666   0.757   2.548   2.100  0.6707  0.3478 -0.4015
  889SOL    HW2 2667   0.935   2.526   2.083  2.2840  0.8086  0.7354
  890SOL     OW 2668   2.323   2.447   0.176 -0.0064 -0.3987  0.0212
  890SOL    HW1 2669   2.332   2.517   0.098  2.1841  0.7211 -2.1782
  890SOL    HW2 2670   2.227   2.453   0.219 -0.5612  1.9595 -2.3386
  891SOL     OW 2671   2.618   1.512   0.635 -1.0552  0.2288 -0.1902
  891SOL    HW1 2672   2.564   1.472   0.711 -0.6198  2.3209  1.0644
  891SOL    HW2 2673   2.581   1.594   0.590  0.2792 -0.5085 -1.0731
  892SOL     OW 2674   0.238   0.303   2.226  0.1781 -0.3301 -0.3013
  892SOL    HW1 2675   0.243   0.309   2.124 -2.3765 -1.5805 -1.7888
  892SOL    HW2 2676   0.332   0.329   2.267 -1.0167  1.2227  0.9174
  893SOL     OW 2677   1.656   0.240   2.731 -0.3924 -0.1913  0.1577
  893SOL    HW1 2678   1.723   0.305   2.774  0.9086  0.3868 -2.4627
  893SOL    HW2 2679   1.558   0.276   2.720 -0.9192  1.5123  3.4361
  894SOL     OW 2680   2.159   1.982   0.036 -0.7478 -0.3676  0.2803
  894SOL    HW1 2681   2.133   1.927  -0.046 -1.5577 -0.8815  0.1453
  894SOL    HW2 2682   2.204   1.915   0.107  0.6332 -0.1303  0.2080
  895SOL     OW 2683   2.919   1.418   0.816 -0.0276 -0.8319  0.4738
  895SOL    HW1 2684   2.985   1.352   0.860  0.6821  0.8216 -0.4210
  895SOL    HW2 2685   2.962   1.505   0.780  0.7893  0.7885  0.1589
  896SOL     OW 2686   1.753   1.772   1.178 -0.2004  0.3892  0.2055
  896SOL    HW1 2687   1.790   1.843   1.111  0.1345  1.0589 -1.0336
  896SOL    HW2 2688   1.653   1.757   1.166  0.3142  2.1050 -0.1189
  897SOL     OW 2689   0.307   0.542   3.099  0.5794 -0.1016  0.0318
  897SOL    HW1 2690   0.238   0.589   3.042 -0.6037  0.2817  4.2043
  897SOL    HW2 2691   0.391   0.599   3.113 -1.4820  0.4442 -3.4939
  898SOL     OW 2692   0.549   2.850   1.142 -0.2240 -0.7567  0.0009
  898SOL    HW1 2693   0.485   2.933   1.137 -0.1157  0.7961 -1.3035
  898SOL    HW2 2694   0.635   2.875   1.192  0.6665 -0.7885 -0.7777
  899SOL     OW 2695   2.675   0.918   1.252  0.3885 -0.3378  0.4087
  899SOL    HW1 2696   2.596   0.914   1.184  0.3865  1.3595 -2.9598
  899SOL    HW2 2697   2.757   0.961   1.207 -0.5469  1.2006  0.2927
  900SOL     OW 2698   0.998   2.414   2.349 -0.8289 -0.2124 -0.0719
  900SOL    HW1 2699   0.926   2.451   2.286  2.3031 -0.0753  1.6309
  900SOL    HW2 2700   0.969   2.414   2.445  0.0456  0.1120 -1.8970
  901SOL     OW 2701   1.907   2.437   1.376  0.3909  0.3532  0.1790
  901SOL    HW1 2702   1.897   2.450   1.277 -1.8052  2.2378  1.5814
  901SOL    HW2 2703   2.001   2.426   1.414 -2.0269 -0.8513  0.7373
  902SOL     OW 2704   2.588   1.635   1.463  0.3523  0.1154 -0.1827
  902SOL    HW1 2705   2.654   1.633   1.545 -2.2895 -0.6165 -0.0390
  902SOL    HW2 2706   2.627   1.587   1.377  1.1061 -0.3471 -2.3221
  903SOL     OW 2707   0.265   2.356   1.985 -0.6067 -1.0482 -0.0204
  903SOL    HW1 2708   0.164   2.332   1.979  0.9232  0.1056  0.2328
  903SOL    HW2 2709   0.285   2.422   1.902 -1.6375  1.5402 -1.9048
  904SOL     OW 2710   1.971   0.832   2.565  0.3591 -0.2326  0.3679
  904SOL    HW1 2711   1.943   0.737   2.591 -3.5555 -0.6884  0.2276
  904SOL    HW2 2712   1.931   0.863   2.474 -0.3630 -1.0306  1.8290
  905SOL     OW 2713   2.738   0.002   2.630 -0.1952  0.0256  0.3436
  905SOL    HW1 2714   2.817  -0.067   2.627  3.0505 -1.1411  0.1575
  905SOL    HW2 2715   2.763   0.087   2.578 -1.9895  1.0683  2.6698
  906SOL     OW 2716   0.145   1.766   1.912 -0.1411 -0.0302  0.8705
  906SOL    HW1 2717   0.092   1.814   1.838 -1.0026  0.1115  3.0884
  906SOL    HW2 2718   0.247   1.790   1.917 -0.7973 -0.1284  0.9436
  907SOL     OW 2719   0.162   2.464   1.009  0.1358 -0.5883  0.9708
  907SOL    HW1 2720   0.212   2.556   1.025 -0.4673  1.6251  0.9040
  907SOL    HW2 2721   0.135   2.453   0.908 -1.7027  2.2337  0.1772
  908SOL     OW 2722   2.644   2.917   0.441  0.6038 -0.6746  0.4089
  908SOL    HW1 2723   2.618   2.947   0.345  2.9904 -0.2755 -3.6962
  908SOL    HW2 2724   2.619   2.822   0.468 -0.5878 -1.5575 -1.5127
  909SOL     OW 2725   0.816   0.898   2.655 -0.3593  0.1274 -0.2548
  909SOL    HW1 2726   0.766   0.816   2.620  1.7247  1.1380  2.1366
  909SOL    HW2 2727   0.871   0.946   2.585 -3.3366 -2.8831 -1.7500
  910SOL     OW 2728   1.737   1.788   2.019 -0.2759 -0.6218  0.0919
  910SOL    HW1 2729   1.800   1.835   1.950  1.1639 -1.5799  2.2141
  910SOL    HW2 2730   1.684   1.855   2.081  0.2705  0.7411 -0.0882
  911SOL     OW 2731   1.764   3.022   1.604  0.3714 -0.4504 -0.6051
  911SOL    HW1 2732   1.833   2.984   1.533 -1.7266  0.4186 -1.6995
  911SOL    HW2 2733   1.753   2.965   1.696  0.8276  0.7777  1.1461
  912SOL     OW 2734   2.829   0.972   0.769 -0.1339  0.3740  0.2241
  912SOL    HW1 2735   2.795   0.962   0.868 -0.4435 -0.5545  0.8521
  912SOL    HW2 2736   2.821   1.070   0.733  0.3068  0.1527  0.1668
  913SOL     OW 2737   2.531   1.283   1.556  0.1042 -0.3874  0.6635
  913SOL    HW1 2738   2.558   1.187   1.541 -0.0130  1.8279 -0.8990
  913SOL    HW2 2739   2.572   1.347   1.480 -0.9443  1.2222 -2.5269
  914SOL     OW 2740   2.834   0.531   1.229 -0.5006  0.2266  0.1337
  914SOL    HW1 2741   2.805   0.433   1.242  2.1495  1.7392  0.2377
  914SOL    HW2 2742   2.808   0.598   1.306  1.5480  2.9837 -2.7021
  915SOL     OW 2743   1.241   0.791   1.003  0.4800 -0.2754  0.3107
  915SOL    HW1 2744   1.316   0.775   1.076  1.3622  3.0677  1.9164
  915SOL    HW2 2745   1.147   0.810   1.042  0.9711 -0.4307 -0.0595
  916SOL     OW 2746   0.549   0.054   0.633 -0.3557  0.5809 -0.4936
  916SOL    HW1 2747   0.561   0.130   0.706 -1.9310 -0.3222  2.2536
  916SOL    HW2 2748   0.547   0.086   0.531 -0.7988  2.0052 -0.9310
  917SOL     OW 2749   2.741   2.620   1.944 -0.0381 -0.3069  0.0419
  917SOL    HW1 2750   2.651   2.667   1.921  2.4949  0.2632  0.0495
  917SOL    HW2 2751   2.814   2.683   1.908  0.3455  0.2674 -2.6940
  918SOL     OW 2752   0.967   2.184   3.016  0.1067  0.3823  0.3039
  918SOL    HW1 2753   0.925   2.206   3.110  0.5442 -2.2149 -0.8066
  918SOL    HW2 2754   1.000   2.085   3.007  1.2654  1.1766  0.6099
  919SOL     OW 2755   0.944   1.609   2.817 -0.1987  0.1033  0.3263
  919SOL    HW1 2756   1.012   1.667   2.769  0.3586 -0.5208 -0.3224
  919SOL    HW2 2757   0.886   1.560   2.750  0.5052  0.4533 -1.2386
  920SOL     OW 2758   1.253   2.058   2.514 -0.4155 -0.0996  0.8822
  920SOL    HW1 2759   1.208   2.079   2.422  1.4787 -3.4636 -0.2927
  920SOL    HW2 2760   1.299   1.962   2.515 -2.1505 -0.8728 -2.7267
  921SOL     OW 2761   1.057   0.119   2.566 -0.5194  0.9873  0.1262
  921SOL    HW1 2762   1.042   0.140   2.461  0.5512  0.8789 -3.1499
  921SOL    HW2 2763   0.976   0.085   2.613  0.9737  0.6891  2.5875
  922SOL     OW 2764   2.199   2.385   2.767 -0.4575  0.3708 -0.1517
  922SOL    HW1 2765   2.165   2.287   2.770 -1.6809  1.9470  0.1270
  922SOL    HW2 2766   2.148   2.436   2.693 -1.2327 -2.3142 -0.3288
  923SOL     OW 2767   1.210   2.654   0.304 -0.4105  0.0667 -0.0255
  923SOL    HW1 2768   1.298   2.701   0.330 -0.0453 -0.9595 -2.8564
  923SOL    HW2 2769   1.229   2.565   0.247 -0.4929 -1.1136 -1.3605
  924SOL     OW 2770   2.896   1.588   0.087  0.2993 -0.1626 -0.4332
  924SOL    HW1 2771   2.819   1.562   0.024  1.5988 -0.2127  0.8234
  924SOL    HW2 2772   2.986   1.574   0.043 -0.5456  2.0634 -0.8923
  925SOL     OW 2773   0.023   2.828   1.670  0.0599  0.0677  0.7156
  925SOL    HW1 2774  -0.052   2.903   1.674 -0.9707  0.7380  0.2331
  925SOL    HW2 2775   0.048   2.797   1.575 -1.1831 -1.5281  0.3734
  926SOL     OW 2776   1.383   2.926   1.316  0.5501 -0.1600 -0.3002
  926SOL    HW1 2777   1.419   2.939   1.221 -0.4822  0.8304  1.4708
  926SOL    HW2 2778   1.391   3.004   1.383  1.5574  0.7385 -1.2387
  927SOL     OW 2779   0.275   2.539   1.786  0.1945 -0.0620 -0.3431
  927SOL    HW1 2780   0.251   2.539   1.688  0.3199  0.7753 -0.3393
  927SOL    HW2 2781   0.312   2.629   1.826  2.0754 -2.0852  1.3450
  928SOL     OW 2782   1.581   1.967   2.139  0.0511 -0.3296  0.2033
  928SOL    HW1 2783   1.604   2.063   2.111  1.4192 -0.0209 -2.2939
  928SOL    HW2 2784   1.484   1.934   2.130 -0.1656 -1.0686 -2.3544
  929SOL     OW 2785   2.458   2.459   2.844  0.0640  0.2236 -0.5003
  929SOL    HW1 2786   2.375   2.399   2.821  0.7319  1.5698 -1.3547
  929SOL    HW2 2787   2.501   2.477   2.756 -1.4316 -3.1313  2.5823
  930SOL     OW 2788   2.208   1.979   1.079 -0.0567 -0.1839 -0.0335
  930SOL    HW1 2789   2.203   1.948   1.177  1.7488 -0.6234  2.9550
  930SOL    HW2 2790   2.290   2.035   1.056  2.4643  1.0674  0.9925
  931SOL     OW 2791   0.546   1.722   2.609  0.2941 -0.2411 -0.2110
  931SOL    HW1 2792   0.600   1.750   2.692 -4.6142  4.0719  0.8305
  931SOL    HW2 2793   0.547   1.619   2.598  0.3096  0.4872 -2.0764
  932SOL     OW 2794   0.484   0.109   2.937  0.0561 -0.2616  0.1151
  932SOL    HW1 2795   0.573   0.136   2.889 -0.9749  1.1502  1.8930
  932SOL    HW2 2796   0.492   0.007   2.962 -0.1180 -2.1323  1.0445
  933SOL     OW 2797   1.035   0.808   2.985  0.1026  0.2946  0.1720
  933SOL    HW1 2798   1.110   0.826   3.056 -0.7314  0.7348 -1.6965
  933SOL    HW2 2799   1.000   0.892   2.931 -1.4477 -2.4322 -0.4115
  934SOL     OW 2800   0.847   3.023   2.719 -0.3057 -0.9159 -0.1902
  934SOL    HW1 2801   0.877   2.951   2.651 -0.3211 -0.3846  0.5475
  934SOL    HW2 2802   0.868   3.007   2.821 -0.2533 -0.5463  1.6391
  935SOL     OW 2803   3.087   0.500   0.805  0.1920  0.0286  0.6437
  935SOL    HW1 2804   3.131   0.431   0.744  0.3732 -1.6658 -0.1593
  935SOL    HW2 2805   2.990   0.532   0.766 -2.3020 -0.4046 -2.5610
  936SOL     OW 2806   1.079   2.921   0.174  0.0094  0.1491  0.2100
  936SOL    HW1 2807   1.145   2.937   0.097 -0.4353  1.6597  0.2912
  936SOL    HW2 2808   1.101   2.833   0.224 -1.7375  2.0079 -2.4873
  937SOL     OW 2809   1.921   2.612   2.098 -0.4304  0.3209  0.1322
  937SOL    HW1 2810   1.841   2.650   2.154  1.5511  0.6520  2.1236
  937SOL    HW2 2811   1.922   2.643   1.999  0.7981  1.7068 -1.2544
  938SOL     OW 2812   2.805   2.162   1.484  0.1245  0.2950 -0.4037
  938SOL    HW1 2813   2.770   2.248   1.523 -1.1539 -1.2279 -0.8640
  938SOL    HW2 2814   2.866   2.112   1.550 -1.1746  1.1282  2.4900
  939SOL     OW 2815   2.797   1.097   2.494 -0.6812 -0.4823 -0.3400
  939SOL    HW1 2816   2.891   1.082   2.452 -1.6383 -0.5935  1.4071
  939SOL    HW2 2817   2.806   1.135   2.592 -0.4859  2.1000 -1.2607
  940SOL     OW 2818   1.052   0.483   2.642  0.3100  0.2799  0.1346
  940SOL    HW1 2819   1.137   0.419   2.618  1.1159  0.4140  0.0923
  940SOL    HW2 2820   0.953   0.435   2.658 -3.8911  2.9715  1.5740
  941SOL     OW 2821   0.056   2.832   2.224  0.5772  0.0329 -0.2265
  941SOL    HW1 2822   0.047   2.729   2.212  0.9418  3.6849  0.5964
  941SOL    HW2 2823   0.118   2.859   2.297  0.1819 -0.3228 -2.6594
  942SOL     OW 2824   0.042   0.072   2.517  0.0004 -0.5389 -0.1761
  942SOL    HW1 2825   0.120   0.079   2.585 -2.0057  1.4587  0.8239
  942SOL    HW2 2826   0.028   0.163   2.463  1.0458  2.3021 -1.0862
  943SOL     OW 2827   2.085   1.597   2.426 -0.1433 -0.6083  0.2586
  943SOL    HW1 2828   2.097   1.522   2.352 -1.5265 -1.4153 -3.8676
  943SOL    HW2 2829   2.083   1.567   2.530  0.6430 -0.7509  3.2944
  944SOL     OW 2830   2.169   2.406   1.476 -0.2893  0.3363 -0.2740
  944SOL    HW1 2831   2.254   2.442   1.537 -1.1499  0.1153  2.7834
  944SOL    HW2 2832   2.136   2.312   1.505 -2.4142  0.9385 -3.2423
  945SOL     OW 2833   0.588   1.411   0.362 -0.6937  0.5107  0.4925
  945SOL    HW1 2834   0.572   1.462   0.271  1.1098  0.9958  0.1155
  945SOL    HW2 2835   0.641   1.321   0.347 -1.3885 -0.4166 -1.8501
  946SOL     OW 2836   0.421   0.987   2.536 -0.0540  0.9935  0.4500
  946SOL    HW1 2837   0.336   0.971   2.477  0.3565 -0.9177 -1.9998
  946SOL    HW2 2838   0.420   1.069   2.595  0.0729  1.0263  2.1488
  947SOL     OW 2839   1.472   0.529   0.108  0.1035 -0.1527  0.1011
  947SOL    HW1 2840   1.443   0.536   0.011  0.5658 -2.0894  1.5065
  947SOL    HW2 2841   1.399   0.479   0.167 -1.3290 -2.5380  1.8761
  948SOL     OW 2842   1.962   3.083   2.209 -0.5234  0.1474 -0.5057
  948SOL    HW1 2843   1.923   3.059   2.114 -1.7611 -0.6479  0.3796
  948SOL    HW2 2844   1.948   2.999   2.272  0.2438 -2.8161  1.4331
  949SOL     OW 2845   0.627   2.540   0.493 -0.0871  0.2359 -0.0109
  949SOL    HW1 2846   0.634   2.640   0.464 -0.8063 -1.3723  0.8654
  949SOL    HW2 2847   0.630   2.521   0.595  1.4387  0.6246 -0.9878
  950SOL     OW 2848   0.307   2.130   3.091 -0.3809 -0.2573 -0.1457
  950SOL    HW1 2849   0.231   2.197   3.069  0.9764  1.3550 -2.7006
  950SOL    HW2 2850   0.307   2.040   3.037  1.8727 -1.8555 -0.7543
  951SOL     OW 2851   1.189   2.823   2.741 -0.1570 -1.2616  0.6118
  951SOL    HW1 2852   1.155   2.863   2.650  1.6179  0.1359 -0.8288
  951SOL    HW2 2853   1.236   2.894   2.805  0.5913 -1.2011  2.4982
  952SOL     OW 2854   0.102   1.632   0.475  0.4088  0.2707  0.1485
  952SOL    HW1 2855   0.145   1.723   0.447  1.5012 -1.8338 -0.6330
  952SOL    HW2 2856   0.128   1.599   0.569 -0.2953  0.6977 -4.2592
  953SOL     OW 2857   2.581   1.767   0.202  0.1532  0.4236  0.2572
  953SOL    HW1 2858   2.549   1.673   0.232  1.9739 -0.5274  2.3052
  953SOL    HW2 2859   2.588   1.776   0.094  2.6988  0.4947  2.2338
  954SOL     OW 2860   2.163   0.585   0.982 -0.2658 -0.4186  0.1179
  954SOL    HW1 2861   2.136   0.604   0.885 -0.2667 -0.3559 -2.1147
  954SOL    HW2 2862   2.266   0.556   0.996  0.3612 -2.7404  0.6424
  955SOL     OW 2863   0.265   2.650   1.317  0.4555  0.2008 -0.8261
  955SOL    HW1 2864   0.166   2.615   1.332  0.5106 -1.9344 -0.3788
  955SOL    HW2 2865   0.292   2.658   1.218 -1.0028 -0.9207  0.7264
  956SOL     OW 2866   2.777   2.459   2.473  0.0456 -0.6969  0.5369
  956SOL    HW1 2867   2.789   2.359   2.476 -0.3022  1.4367 -0.0768
  956SOL    HW2 2868   2.812   2.508   2.387  3.1852  2.0826 -1.2821
  957SOL     OW 2869   1.546   2.051   2.698 -0.3616 -0.4777 -0.1299
  957SOL    HW1 2870   1.557   1.947   2.696  1.4134  1.0120  2.0131
  957SOL    HW2 2871   1.544   2.101   2.611 -1.9604 -0.2232  2.0910
  958SOL     OW 2872   2.667   2.349   2.975 -0.1261  0.1106  0.0540
  958SOL    HW1 2873   2.573   2.393   2.946 -3.9862 -1.7871 -0.5661
  958SOL    HW2 2874   2.646   2.255   3.017 -0.8198  0.2210 -0.1699
  959SOL     OW 2875   0.288   2.769   0.056  0.2053  0.3198 -0.6271
  959SOL    HW1 2876   0.192   2.752   0.092  0.4273  0.6909 -0.8443
  959SOL    HW2 2877   0.352   2.707   0.104 -2.3084  0.8499 -3.0678
  960SOL     OW 2878   1.988   0.484   1.936 -0.1464  0.1876 -0.0630
  960SOL    HW1 2879   1.927   0.557   1.900 -0.0521  0.9994  0.0581
  960SOL    HW2 2880   2.014   0.498   2.039 -0.1576  2.6091  1.1078
  961SOL     OW 2881   2.577   1.836   1.048  0.0357 -0.4693  0.3903
  961SOL    HW1 2882   2.526   1.912   1.001  1.6126 -2.4588  0.1009
  961SOL    HW2 2883   2.564   1.845   1.151  1.7270 -1.1843  0.1687
  962SOL     OW 2884   1.294   0.907   0.038 -0.2330 -0.0484  0.6264
  962SOL    HW1 2885   1.331   0.925  -0.059  0.6360 -1.8827 -0.6872
  962SOL    HW2 2886   1.300   0.985   0.108 -1.9635 -1.1321  0.7274
  963SOL     OW 2887   2.284   2.596   1.887  0.7432  0.5619  0.0805
  963SOL    HW1 2888   2.294   2.508   1.941 -0.4941  1.1414  2.6123
  963SOL    HW2 2889   2.291   2.683   1.942  0.7646  1.0093 -0.9823
  964SOL     OW 2890   2.421   0.359   1.661 -0.3889 -0.4466  0.3241
  964SOL    HW1 2891   2.499   0.406   1.712  2.9228  0.7647 -2.3458
  964SOL    HW2 2892   2.431   0.364   1.560  1.7589 -2.4269  1.1929
  965SOL     OW 2893   2.605   3.019   0.171  0.7783 -0.8876 -0.4312
  965SOL    HW1 2894   2.677   3.014   0.094  1.7981  0.8633 -0.5060
  965SOL    HW2 2895   2.510   3.012   0.138 -5.3967 -0.6915  3.0202
  966SOL     OW 2896   2.521   2.547   2.247  0.7291  1.0630 -0.4955
  966SOL    HW1 2897   2.436   2.550   2.309  0.0707 -1.5371 -0.4954
  966SOL    HW2 2898   2.527   2.626   2.187 -0.5607  0.4798 -0.6925
  967SOL     OW 2899   2.746   2.791   2.472  0.0539 -0.3353 -0.7263
  967SOL    HW1 2900   2.780   2.717   2.406 -0.9127 -0.3266 -0.2252
  967SOL    HW2 2901   2.821   2.857   2.505  1.9856  2.2324  1.4591
  968SOL     OW 2902   1.984   1.058   2.698  1.1743  0.3041  0.5045
  968SOL    HW1 2903   1.932   1.124   2.631 -0.0651 -3.5155  0.7772
  968SOL    HW2 2904   1.981   0.956   2.660 -2.6715 -2.8091 -0.3930
  969SOL     OW 2905   2.744   2.349   1.114  0.5611 -0.6201  0.4977
  969SOL    HW1 2906   2.681   2.333   1.032 -0.5759 -0.1506  0.9811
  969SOL    HW2 2907   2.813   2.272   1.133 -1.9510 -2.9373  0.1383
  970SOL     OW 2908   1.095   2.157   1.771  0.7358  0.5724  0.2558
  970SOL    HW1 2909   1.000   2.155   1.722  1.4453  0.0644 -0.7703
  970SOL    HW2 2910   1.088   2.177   1.873  1.2140  2.0010 -1.0433
  971SOL     OW 2911   2.823   2.060   1.916  0.2786 -0.4400 -0.0761
  971SOL    HW1 2912   2.815   2.164   1.930 -0.0303  0.6059 -0.5708
  971SOL    HW2 2913   2.880   2.034   1.831  0.7699 -4.0623  0.8237
  972SOL     OW 2914   2.074   2.393   0.248 -0.6021 -0.1930  0.8319
  972SOL    HW1 2915   2.033   2.319   0.191  2.2559 -0.6355 -2.5534
  972SOL    HW2 2916   2.059   2.378   0.348 -2.6886 -1.9381  0.1772
  973SOL     OW 2917   1.253   1.074   1.977 -0.8500  0.0184 -0.5323
  973SOL    HW1 2918   1.168   1.059   1.921 -0.9961  2.4534  1.7518
  973SOL    HW2 2919   1.250   1.164   2.024 -3.3125 -1.6776 -4.6399
  974SOL     OW 2920   1.625   0.579   1.916 -0.0483 -0.5537 -0.1077
  974SOL    HW1 2921   1.724   0.613   1.917  2.5485 -1.0047 -2.9635
  974SOL    HW2 2922   1.559   0.652   1.945  0.1408  0.9935  1.2688
  975SOL     OW 2923   2.352   3.057   0.008 -0.1321 -0.0388 -0.9458
  975SOL    HW1 2924   2.284   2.982   0.036  1.4548  2.1016 -0.2253
  975SOL    HW2 2925   2.382   3.043  -0.088 -3.2051 -0.7835 -0.8176
  976SOL     OW 2926   1.950   2.846   2.350 -0.1350  0.3960  0.4695
  976SOL    HW1 2927   1.866   2.799   2.307 -2.9425  1.0293 -0.0535
  976SOL    HW2 2928   1.945   2.854   2.457  1.4634 -1.0583 -2.0428
  977SOL     OW 2929   0.475   0.624   1.041  0.1238  0.2316  0.2789
  977SOL    HW1 2930   0.405   0.651   0.976  1.2173  1.9525  1.8321
  977SOL    HW2 2931   0.565   0.580   1.001  1.8003 -1.3404 -0.9532
   3.10000   3.10000   3.10000
