1000 SPC/Fw water molecules t=   1.08000 step= 1080
 2931
    1SOL     OW    1   2.561   0.345   2.647 -0.2203 -0.0790 -0.6196
    1SOL    HW1    2   2.573   0.242   2.640 -3.1507 -1.7055  1.5419
    1SOL    HW2    3   2.580   0.382   2.739 -1.5875  2.2796 -2.0892
    2SOL     OW    4   2.718   3.029   1.405  0.7014 -0.5052 -0.2603
    2SOL    HW1    5   2.797   3.047   1.345 -1.1259 -0.4828 -3.0355
    2SOL    HW2    6   2.685   3.111   1.459  0.9076 -1.2251 -1.0148
    3SOL     OW    7   2.613   2.616   0.439 -0.5872  0.0694  0.1983
    3SOL    HW1    8   2.602   2.513   0.455 -0.9052 -2.7051 -2.2648
    3SOL    HW2    9   2.703   2.653   0.475  1.9964 -1.2926 -2.4699
    4SOL     OW   10   1.226   1.558   2.319  0.0066  0.3438  0.5873
    4SOL    HW1   11   1.140   1.574   2.266  3.0083  0.0044 -0.8983
    4SOL    HW2   12   1.223   1.473   2.371 -1.8273 -0.4058 -1.4783
    5SOL     OW   13   1.149   1.536   3.046  0.3256  0.5189 -0.9854
    5SOL    HW1   14   1.204   1.621   3.062 -1.6057  0.1798 -1.8024
    5SOL    HW2   15   1.044   1.551   3.058 -0.7602 -1.6824  1.3067
    6SOL     OW   16   0.160   1.737   2.985  0.4304  0.2350 -0.0529
    6SOL    HW1   17   0.087   1.792   3.038 -3.4006  1.9564 -0.0834
    6SOL    HW2   18   0.238   1.723   3.049 -2.1207 -2.0305  0.1846
    7SOL     OW   19   2.583   0.900   1.071 -0.2915  0.1120 -0.3162
    7SOL    HW1   20   2.482   0.887   1.094 -2.2330  2.4288 -0.5147
    7SOL    HW2   21   2.599   0.879   0.970 -0.3751 -1.5733 -1.1292
    8SOL     OW   22   0.402   0.620   1.509 -0.1886 -0.8704 -0.2256
    8SOL    HW1   23   0.492   0.600   1.555 -0.5625  0.1211 -0.0980
    8SOL    HW2   24   0.401   0.604   1.403  2.0155 -1.1778 -1.7817
    9SOL     OW   25   1.195   0.921   2.422  0.2330  0.5746  0.1780
    9SOL    HW1   26   1.234   0.956   2.334  0.4443  1.7236  0.5278
    9SOL    HW2   27   1.162   0.823   2.428 -2.2284 -1.1726 -2.2810
   10SOL     OW   28   0.674   1.373   1.307 -0.3544  0.2609  0.0007
   10SOL    HW1   29   0.595   1.385   1.243  0.7330 -2.7503 -0.4408
   10SOL    HW2   30   0.727   1.467   1.330  0.5779  0.4893  0.5459
   11SOL     OW   31   2.303   2.795   0.865  0.7269  0.4291 -0.7009
   11SOL    HW1   32   2.263   2.786   0.964 -0.0228  3.0368 -2.2970
   11SOL    HW2   33   2.403   2.779   0.864 -2.7550  2.6528  0.3967
   12SOL     OW   34   1.521   0.877   0.364 -0.2286 -0.6391  0.7302
   12SOL    HW1   35   1.448   0.929   0.311  1.8917 -0.0803 -1.6640
   12SOL    HW2   36   1.539   0.786   0.319  1.4481 -1.2909 -0.8057
   13SOL     OW   37   2.473   0.714   1.782  0.0704 -0.0725 -0.2403
   13SOL    HW1   38   2.405   0.663   1.844 -1.4830 -0.0373 -0.5209
   13SOL    HW2   39   2.454   0.703   1.676 -0.6265  0.5825  0.4274
   14SOL     OW   40   1.850   0.101   0.675 -0.1755 -0.1470  0.2288
   14SOL    HW1   41   1.754   0.090   0.636  0.3464 -1.1052 -1.2329
   14SOL    HW2   42   1.864   0.036   0.754 -1.8547  0.5956  0.9358
   15SOL     OW   43   1.954   2.093   2.725 -0.3633 -0.2398  0.3507
   15SOL    HW1   44   1.910   2.186   2.732  0.9393 -0.2740 -0.5162
   15SOL    HW2   45   1.884   2.018   2.713 -0.0940  1.1126  1.4208
   16SOL     OW   46   1.626   1.696   2.986  0.1079  0.1147  0.2305
   16SOL    HW1   47   1.617   1.615   3.053  1.4145  0.4607 -1.4546
   16SOL    HW2   48   1.720   1.735   2.991 -2.7517 -1.7080  0.7424
   17SOL     OW   49   0.091   0.456   0.160 -0.5069 -0.1637 -0.0547
   17SOL    HW1   50   0.179   0.510   0.120 -0.7893 -0.4404 -0.7370
   17SOL    HW2   51   0.004   0.476   0.107 -0.9860 -2.1993 -1.1836
   18SOL     OW   52   0.939   2.938   2.149 -0.5970  0.1506 -0.2694
   18SOL    HW1   53   0.862   2.870   2.153  0.4400  3.0558 -1.5581
   18SOL    HW2   54   0.987   2.932   2.053  1.1748 -1.7158 -1.9014
   19SOL     OW   55   0.547   0.816   1.893 -0.1397  0.1865  0.2612
   19SOL    HW1   56   0.552   0.775   1.991  1.1193 -1.3024  0.1077
   19SOL    HW2   57   0.608   0.895   1.870 -0.5817 -3.7672  1.2005
   20SOL     OW   58   0.181   2.788   0.868 -0.1073  0.2384  0.2653
   20SOL    HW1   59   0.121   2.851   0.806  0.2753  0.2467 -0.0768
   20SOL    HW2   60   0.209   2.702   0.818  1.9231  1.5737  0.9998
   21SOL     OW   61   2.694   0.267   2.016 -0.4635 -0.2646 -0.4457
   21SOL    HW1   62   2.651   0.194   1.962  1.4967  2.0642 -0.4581
   21SOL    HW2   63   2.782   0.231   2.059 -0.5298  0.3671  0.7657
   22SOL     OW   64   2.332   0.269   0.149 -0.2494  0.2720  0.2307
   22SOL    HW1   65   2.359   0.168   0.127  0.5197  1.6699  1.7079
   22SOL    HW2   66   2.258   0.306   0.084 -0.2389 -0.7620 -2.3667
   23SOL     OW   67   2.789   0.588   0.608 -0.1069  0.4782  0.2658
   23SOL    HW1   68   2.809   0.485   0.631  0.8896  0.1064  0.2470
   23SOL    HW2   69   2.770   0.598   0.505  0.7736 -1.6038  1.8253
   24SOL     OW   70   0.211   1.949   0.411  0.2489  0.1867  0.5742
   24SOL    HW1   71   0.161   2.019   0.345  1.0599 -2.5400  0.9365
   24SOL    HW2   72   0.299   1.904   0.368  0.9943 -1.1740 -0.2673
   25SOL     OW   73   2.237   0.621   0.245  0.1616  0.8137  0.0554
   25SOL    HW1   74   2.265   0.612   0.143  0.8279 -0.4952  0.7073
   25SOL    HW2   75   2.286   0.559   0.310  1.1792  0.9831 -0.8377
   26SOL     OW   76   2.486   2.160   2.066 -0.2458  0.2040  0.1531
   26SOL    HW1   77   2.569   2.206   2.109 -0.2258 -3.0495 -2.8717
   26SOL    HW2   78   2.514   2.080   2.006 -0.2822  2.2669  0.5447
   27SOL     OW   79   0.592   2.909   0.196 -0.3117 -0.3462  0.0420
   27SOL    HW1   80   0.699   2.913   0.198 -0.2334 -1.8581 -3.5699
   27SOL    HW2   81   0.548   2.923   0.101 -1.4047  1.8726 -0.9040
   28SOL     OW   82   1.583   0.182   0.287  0.2134 -0.4316  0.3054
   28SOL    HW1   83   1.620   0.157   0.190  0.9820 -0.3018 -0.9889
   28SOL    HW2   84   1.625   0.271   0.323  0.3126  0.5707 -1.4014
   29SOL     OW   85   1.989   0.595   0.341 -0.2189 -0.4534 -0.4016
   29SOL    HW1   86   1.915   0.667   0.345 -2.3478  0.0851 -0.6951
   29SOL    HW2   87   2.087   0.631   0.313  3.1989 -2.9990  1.3326
   30SOL     OW   88   0.153   2.006   0.930 -0.2161  1.4286  0.0727
   30SOL    HW1   89   0.127   1.996   0.829 -0.5100  2.9081 -0.4019
   30SOL    HW2   90   0.087   2.073   0.976 -0.2114  0.1473 -1.2607
   31SOL     OW   91   2.147   3.095   2.366  0.3966  0.0541  0.0456
   31SOL    HW1   92   2.162   3.034   2.446 -2.6083  1.9296  3.3999
   31SOL    HW2   93   2.047   3.113   2.352  1.5363  4.1729  0.8567
   32SOL     OW   94   2.968   0.038   0.247  0.4896  0.1025 -0.3637
   32SOL    HW1   95   2.950  -0.063   0.213 -2.6994 -0.1713 -0.4037
   32SOL    HW2   96   3.063   0.076   0.241 -1.1987  0.4572 -0.3877
   33SOL     OW   97   0.905   0.323   0.583 -0.0568  0.0853 -0.0014
   33SOL    HW1   98   0.913   0.234   0.530  0.7419 -0.8835  1.5571
   33SOL    HW2   99   0.995   0.359   0.613 -0.2357  1.8809  0.9951
   34SOL     OW  100   0.336   2.735   1.085 -0.0259 -0.4785 -0.2252
   34SOL    HW1  101   0.277   2.757   1.004  0.9717 -0.8551  1.3100
   34SOL    HW2  102   0.427   2.781   1.095  0.4068 -1.1528  3.3339
   35SOL     OW  103   0.012   0.106   1.902  0.2134  0.2481  0.1971
   35SOL    HW1  104   0.042   0.009   1.887 -0.5011 -0.2519 -0.1082
   35SOL    HW2  105  -0.033   0.147   1.816 -5.2549  0.7359  1.4947
   36SOL     OW  106   1.918   1.294   1.649  0.0248 -1.2540 -0.5785
   36SOL    HW1  107   1.980   1.212   1.648 -2.1825  0.7962  0.8222
   36SOL    HW2  108   1.951   1.359   1.577 -0.3757 -0.6521  0.5820
   37SOL     OW  109   1.179   0.211   0.978 -0.5082  0.5581 -0.1959
   37SOL    HW1  110   1.241   0.290   1.015  1.0021  2.7736  0.2546
   37SOL    HW2  111   1.228   0.118   0.969  0.3871 -1.4888 -1.0886
   38SOL     OW  112   1.145   2.829   2.440 -0.2408 -0.5490 -0.9098
   38SOL    HW1  113   1.118   2.724   2.430  0.5419 -2.9823 -0.8650
   38SOL    HW2  114   1.088   2.888   2.379  2.3259 -0.5156 -0.8721
   39SOL     OW  115   2.309   1.456   3.055  0.1235 -0.1893  0.0608
   39SOL    HW1  116   2.384   1.387   3.071 -2.9399 -0.1937 -0.8567
   39SOL    HW2  117   2.263   1.485   3.144  0.2962 -0.1483 -0.9830
   40SOL     OW  118   1.995   2.429   2.550 -0.5702 -0.1098 -0.1580
   40SOL    HW1  119   1.963   2.527   2.527 -1.7258  1.2927  0.5163
   40SOL    HW2  120   1.929   2.359   2.509  1.1384  0.0594 -0.5582
   41SOL     OW  121   3.029   0.679   2.806 -0.0609  0.3546  0.2733
   41SOL    HW1  122   2.946   0.743   2.782 -2.4012 -2.3336 -2.2281
   41SOL    HW2  123   3.010   0.578   2.777  0.4139 -2.4444  1.7019
   42SOL     OW  124   1.774   1.792   0.479 -0.0023  0.2028 -0.7708
   42SOL    HW1  125   1.748   1.691   0.480  0.4119 -0.5313 -1.6231
   42SOL    HW2  126   1.772   1.838   0.388 -1.0012  0.5792 -2.4524
   43SOL     OW  127   0.431   1.689   1.129 -0.3398  0.4565  0.1620
   43SOL    HW1  128   0.437   1.597   1.185 -0.6475 -1.0980  1.5010
   43SOL    HW2  129   0.344   1.735   1.152  0.3267 -1.4123 -1.3924
   44SOL     OW  130   1.729   2.395   3.008 -0.3745 -0.4984 -0.0894
   44SOL    HW1  131   1.652   2.461   3.016  0.8593 -2.2998 -1.1333
   44SOL    HW2  132   1.789   2.406   2.923 -1.1233 -0.1910  2.7265
   45SOL     OW  133   0.363   1.896   2.631 -0.5453  0.4381  0.1459
   45SOL    HW1  134   0.335   1.890   2.532 -0.4852 -1.4016 -1.0215
   45SOL    HW2  135   0.427   1.816   2.653  1.2772  2.2719  1.0036
   46SOL     OW  136   1.249   0.616   0.143  0.5908  0.2947  0.0885
   46SOL    HW1  137   1.280   0.713   0.119 -0.9293  0.5465 -1.0346
   46SOL    HW2  138   1.150   0.612   0.167  3.7617 -1.1131 -1.0704
   47SOL     OW  139   0.218   2.542   1.539  0.3997 -0.3020  0.0019
   47SOL    HW1  140   0.234   2.446   1.517 -1.8169  1.0676  1.3981
   47SOL    HW2  141   0.220   2.597   1.449  0.3166 -0.0558  2.4694
   48SOL     OW  142   2.629   0.625   0.134 -0.0407 -0.0297 -0.1196
   48SOL    HW1  143   2.618   0.602   0.237 -3.6568 -0.1160  1.1036
   48SOL    HW2  144   2.724   0.661   0.111 -1.5111 -2.0745  1.8449
   49SOL     OW  145   0.310   0.748   1.749 -0.3140 -0.1082 -0.5583
   49SOL    HW1  146   0.390   0.747   1.817 -0.5954 -0.2095 -1.4196
   49SOL    HW2  147   0.341   0.721   1.654 -3.7060  0.6230 -1.9042
   50SOL     OW  148   1.672   1.134   0.344 -0.1851  0.2535  0.2507
   50SOL    HW1  149   1.666   1.036   0.303  3.2382  1.3227  1.2586
   50SOL    HW2  150   1.666   1.124   0.449  1.4017 -0.9214 -1.7881
   51SOL     OW  151   2.924   1.749   0.247  0.3579 -0.0722  0.4447
   51SOL    HW1  152   2.943   1.661   0.195 -0.3864  0.5034 -2.1202
   51SOL    HW2  153   2.972   1.739   0.343  0.7963 -4.1942 -1.9683
   52SOL     OW  154   0.804   2.085   0.571 -0.0297  0.5026  0.7912
   52SOL    HW1  155   0.723   2.118   0.620 -0.7768 -1.1075 -2.8392
   52SOL    HW2  156   0.849   2.003   0.623  0.6165  1.3339  0.9341
   53SOL     OW  157   0.221   0.443   1.591  1.1789  0.1144 -0.0690
   53SOL    HW1  158   0.298   0.509   1.565  0.7903 -1.0840 -1.1620
   53SOL    HW2  159   0.131   0.456   1.545  1.8196  0.2181  2.6903
   54SOL     OW  160   1.807   0.519   3.061  0.1354 -0.6707 -0.3194
   54SOL    HW1  161   1.869   0.459   3.123  0.7315  0.1290 -0.8089
   54SOL    HW2  162   1.700   0.506   3.079 -3.5167 -0.1044 -1.7782
   55SOL     OW  163   0.760   2.891   0.695 -0.0626 -0.5392  0.3708
   55SOL    HW1  164   0.706   2.983   0.680  2.5338  1.1256 -1.5525
   55SOL    HW2  165   0.866   2.899   0.693 -0.3081 -1.3186 -1.8940
   56SOL     OW  166   0.614   1.560   0.009  0.3728 -0.0928 -0.4088
   56SOL    HW1  167   0.529   1.619   0.034  1.8898  0.6879  1.8384
   56SOL    HW2  168   0.583   1.469  -0.028  0.3467  1.4130  2.0045
   57SOL     OW  169   1.755   2.526   2.351 -0.3461  0.0016 -0.7075
   57SOL    HW1  170   1.776   2.421   2.344 -0.8272  0.1364 -1.5299
   57SOL    HW2  171   1.679   2.537   2.413  2.7659  0.1013  0.1155
   58SOL     OW  172   0.713   0.259   1.068  0.2951  1.1367  0.3151
   58SOL    HW1  173   0.641   0.272   1.138 -3.4881 -0.7136 -0.2726
   58SOL    HW2  174   0.743   0.162   1.060 -3.0288  1.2993 -1.2881
   59SOL     OW  175   0.391   2.310   2.726 -0.1410 -0.6004 -0.0599
   59SOL    HW1  176   0.448   2.234   2.681 -0.7304 -0.1663 -0.6702
   59SOL    HW2  177   0.427   2.337   2.816 -0.3546  1.5713  1.0834
   60SOL     OW  178   2.322   2.081   2.271  0.1926  0.5773  0.4068
   60SOL    HW1  179   2.390   2.108   2.194 -2.1961  1.2485  2.5107
   60SOL    HW2  180   2.362   2.114   2.360  1.6465  1.3878 -2.3426
   61SOL     OW  181   1.308   0.629   0.443 -0.6190 -0.5641  0.1850
   61SOL    HW1  182   1.218   0.674   0.461  0.9214  0.6104  2.0589
   61SOL    HW2  183   1.334   0.633   0.338  0.0176 -2.2297 -1.5359
   62SOL     OW  184   2.712   1.803   2.928  0.3899 -0.8289 -0.2370
   62SOL    HW1  185   2.661   1.731   2.876 -0.9787 -1.9672  2.1018
   62SOL    HW2  186   2.816   1.797   2.925 -1.6297  1.2811  0.2356
   63SOL     OW  187   0.521   0.805   0.179  0.0335 -0.2819  0.2287
   63SOL    HW1  188   0.574   0.890   0.143 -0.3947  2.1734 -0.5548
   63SOL    HW2  189   0.539   0.789   0.281  1.1817  1.0038  1.1637
   64SOL     OW  190   0.069   0.432   2.458 -0.8040 -0.0306 -0.3687
   64SOL    HW1  191   0.099   0.451   2.552  0.9911  0.9888 -3.7052
   64SOL    HW2  192   0.009   0.509   2.423  2.7558 -0.0158  1.9023
   65SOL     OW  193   0.167   1.511   0.595  0.3835 -0.3524 -0.2917
   65SOL    HW1  194   0.203   1.558   0.675 -2.6108 -0.9193 -0.9522
   65SOL    HW2  195   0.231   1.520   0.514  3.5092  2.4928  1.0984
   66SOL     OW  196   2.544   0.355   0.581  0.0434  0.0765 -0.2165
   66SOL    HW1  197   2.640   0.323   0.600  2.2850  2.8410 -2.2014
   66SOL    HW2  198   2.478   0.302   0.638 -0.3253 -0.7639  0.8824
   67SOL     OW  199   0.566   2.485   1.449  0.0171 -0.6412 -0.0888
   67SOL    HW1  200   0.665   2.468   1.472 -0.8521  0.6094 -2.1536
   67SOL    HW2  201   0.512   2.402   1.417 -1.8875 -1.3526  1.4354
   68SOL     OW  202   0.986   1.084   2.496 -0.4832 -0.9334 -0.0832
   68SOL    HW1  203   1.045   1.000   2.476  0.4343  1.9011 -1.4949
   68SOL    HW2  204   0.917   1.100   2.416  0.6850 -2.4628  2.1938
   69SOL     OW  205   0.701   2.777   2.162 -0.4146  0.4769  0.1184
   69SOL    HW1  206   0.738   2.686   2.143  0.5473  1.6035 -0.8245
   69SOL    HW2  207   0.598   2.777   2.172  1.5297 -1.4579 -1.0624
   70SOL     OW  208   0.474   0.216   2.628  0.0491 -0.8042 -0.3525
   70SOL    HW1  209   0.371   0.216   2.647 -1.4049 -0.6273 -0.8567
   70SOL    HW2  210   0.510   0.123   2.620  0.2024  0.0191 -1.0803
   71SOL     OW  211   1.130   1.779   0.420 -0.2543  0.3684 -0.7047
   71SOL    HW1  212   1.070   1.721   0.488 -0.2078  0.8836  0.4598
   71SOL    HW2  213   1.097   1.787   0.325  3.6502  0.0521 -1.9152
   72SOL     OW  214   1.827   0.197   2.153 -0.0641 -0.1805  0.4001
   72SOL    HW1  215   1.900   0.268   2.164  1.1799 -0.0260  0.6103
   72SOL    HW2  216   1.862   0.094   2.139 -0.4980  2.3645  0.9393
   73SOL     OW  217   2.816   2.165   2.396 -0.2705  0.4713 -0.3928
   73SOL    HW1  218   2.822   2.065   2.378  1.2787  2.2527  0.4968
   73SOL    HW2  219   2.877   2.191   2.476  1.0333  0.3340  1.3085
   74SOL     OW  220   2.686   2.849   2.163  0.2620  0.1462  0.5658
   74SOL    HW1  221   2.623   2.827   2.242 -0.6117 -0.3507  2.5522
   74SOL    HW2  222   2.783   2.860   2.197 -3.5286 -1.2438 -0.1062
   75SOL     OW  223   0.948   0.845   1.109  0.8318 -0.3784  0.2956
   75SOL    HW1  224   0.868   0.888   1.055  0.6487  1.4502  0.6531
   75SOL    HW2  225   0.955   0.898   1.198  0.4334  1.8236  1.7318
   76SOL     OW  226   1.724   1.207   2.507  0.3380 -0.2831 -0.5141
   76SOL    HW1  227   1.619   1.209   2.495 -3.2035  0.9898  2.1403
   76SOL    HW2  228   1.757   1.297   2.550  0.7485  0.2621 -0.5104
   77SOL     OW  229   2.933   0.952   1.003 -0.2230  0.3853 -0.0195
   77SOL    HW1  230   2.906   0.853   0.988 -0.3704  0.8754  0.5616
   77SOL    HW2  231   2.989   0.964   1.088  1.3880 -0.7337  0.7846
   78SOL     OW  232   2.002   1.469   1.464 -0.1064  0.5407 -0.2518
   78SOL    HW1  233   2.097   1.504   1.442  2.1385  0.2664 -0.7551
   78SOL    HW2  234   1.952   1.451   1.376  1.2014 -0.0306 -1.1688
   79SOL     OW  235   0.618   1.406   0.798 -0.1646  0.0854 -0.3568
   79SOL    HW1  236   0.518   1.407   0.834  1.7084  1.8995 -1.6088
   79SOL    HW2  237   0.622   1.350   0.708  0.2934 -0.7926 -1.1230
   80SOL     OW  238   0.641   0.495   1.566  0.2655 -0.3442 -0.1429
   80SOL    HW1  239   0.682   0.564   1.503  0.7903 -1.5063  0.5875
   80SOL    HW2  240   0.653   0.398   1.526  0.4074 -2.3377  1.0716
   81SOL     OW  241   1.039   1.321   2.621  0.2308 -0.4949 -0.2414
   81SOL    HW1  242   1.063   1.227   2.588 -1.7192 -0.7279  1.2336
   81SOL    HW2  243   0.986   1.370   2.549  0.4621  1.3765  1.8995
   82SOL     OW  244   0.967   3.011   1.546 -0.0724  0.0677 -0.4462
   82SOL    HW1  245   0.868   3.032   1.546 -1.0307 -1.0877 -1.3263
   82SOL    HW2  246   0.995   2.960   1.461 -0.3619  0.0932 -0.8444
   83SOL     OW  247   2.640   2.403   0.854 -0.3550 -0.0232 -0.2679
   83SOL    HW1  248   2.588   2.331   0.805 -6.4365  1.6630 -0.7244
   83SOL    HW2  249   2.660   2.486   0.797 -0.9020 -2.8753 -1.3298
   84SOL     OW  250   0.642   3.046   2.381  0.3844 -0.0739  0.9873
   84SOL    HW1  251   0.589   3.067   2.464  1.1292 -1.0162  0.7945
   84SOL    HW2  252   0.676   2.950   2.373 -1.6922  2.3198  2.7213
   85SOL     OW  253   0.286   1.615   1.435  0.3097  0.2357 -0.1402
   85SOL    HW1  254   0.229   1.702   1.434  0.8349 -0.9948  2.8031
   85SOL    HW2  255   0.345   1.614   1.523 -1.8447 -0.3468  0.0564
   86SOL     OW  256   0.457   1.023   1.528 -0.0800  0.8695 -0.4033
   86SOL    HW1  257   0.407   0.956   1.468 -0.1813 -1.1784  0.1913
   86SOL    HW2  258   0.559   1.007   1.517  0.9227 -0.1777 -0.4984
   87SOL     OW  259   1.579   0.649   0.227  0.4856 -0.1168  0.6875
   87SOL    HW1  260   1.652   0.716   0.187  1.9216  2.4940 -3.0846
   87SOL    HW2  261   1.540   0.582   0.159  0.0114  0.4871  1.4146
   88SOL     OW  262   1.537   1.355   0.269 -0.4261 -0.0430 -0.0062
   88SOL    HW1  263   1.587   1.270   0.308  1.2860 -0.2754  0.6069
   88SOL    HW2  264   1.432   1.344   0.262 -2.8528  0.5294  0.0181
   89SOL     OW  265   3.077   0.454   0.588  0.4639 -0.1826 -0.1588
   89SOL    HW1  266   3.127   0.376   0.550 -2.9392 -0.7536  0.5202
   89SOL    HW2  267   2.980   0.435   0.608 -1.2688  1.2608  0.3893
   90SOL     OW  268   0.904   1.558   0.060 -0.6933 -0.0493 -0.2726
   90SOL    HW1  269   0.889   1.522   0.154  3.1372 -0.3246 -0.7044
   90SOL    HW2  270   0.815   1.561   0.006 -2.8018  0.2763  0.9698
   91SOL     OW  271   1.226   1.480   1.801  0.4468  0.3101 -0.4630
   91SOL    HW1  272   1.206   1.563   1.861  0.2982 -1.8462  1.1505
   91SOL    HW2  273   1.329   1.468   1.779 -1.6331 -1.4058  1.7347
   92SOL     OW  274   3.083   0.938   1.238  0.5794  0.2357  0.2536
   92SOL    HW1  275   3.158   0.990   1.192  0.0167  0.5197  0.0348
   92SOL    HW2  276   3.081   0.951   1.341 -1.2897  0.0737  0.6949
   93SOL     OW  277   3.094   2.748   0.022 -1.0726 -0.1510  0.2991
   93SOL    HW1  278   3.024   2.752  -0.054 -0.9305 -0.6038  2.1965
   93SOL    HW2  279   3.093   2.654   0.065 -0.4925  2.4811  1.1787
   94SOL     OW  280   1.508   1.466   1.803 -0.3237  0.2230  0.3227
   94SOL    HW1  281   1.582   1.393   1.810 -3.1177 -1.1412  0.5622
   94SOL    HW2  282   1.538   1.550   1.849 -2.3660 -0.2128 -1.8650
   95SOL     OW  283   1.431   2.511   3.008  0.3464 -0.1105 -0.2434
   95SOL    HW1  284   1.337   2.535   3.051  2.9664  0.9237 -0.5850
   95SOL    HW2  285   1.439   2.410   2.982 -1.1301 -0.7048 -1.3929
   96SOL     OW  286   0.565   2.100   1.303 -0.1224  0.0531  0.3483
   96SOL    HW1  287   0.518   2.024   1.250 -1.5214 -0.0309  1.8021
   96SOL    HW2  288   0.641   2.066   1.366 -0.3737  2.0637  0.4671
   97SOL     OW  289   0.360   1.612   2.446 -1.0524 -0.5739 -0.1120
   97SOL    HW1  290   0.339   1.667   2.365  0.4601  4.6071  1.1511
   97SOL    HW2  291   0.304   1.628   2.531  0.0884  0.4550  1.2686
   98SOL     OW  292   2.071   1.643   1.173  1.0117  0.0879  0.2698
   98SOL    HW1  293   1.973   1.602   1.164 -2.2096 -1.3234 -0.1777
   98SOL    HW2  294   2.139   1.615   1.099  1.6345 -0.8805 -0.3661
   99SOL     OW  295   2.524   2.051   1.286  0.2855  0.1424  0.2123
   99SOL    HW1  296   2.512   2.047   1.389  0.0663  2.2665  0.5433
   99SOL    HW2  297   2.511   1.957   1.241  0.0336 -1.4222  0.5038
  100SOL     OW  298   2.326   0.384   2.087 -0.9201  0.7162 -0.1273
  100SOL    HW1  299   2.280   0.333   2.167  0.7809  0.1104  2.1682
  100SOL    HW2  300   2.413   0.434   2.117  1.8419 -2.2682  2.6585
  101SOL     OW  301   0.415   1.490   0.474 -0.2179 -0.0107  0.1139
  101SOL    HW1  302   0.426   1.587   0.508 -2.6720  1.0232  1.6324
  101SOL    HW2  303   0.506   1.442   0.456  0.3901  2.7598  0.5580
  102SOL     OW  304   2.249   1.042   0.837  0.0479  0.2059 -0.1451
  102SOL    HW1  305   2.186   0.981   0.780  2.8072 -0.3961 -2.5760
  102SOL    HW2  306   2.249   1.139   0.817  2.3185 -2.3044 -0.0268
  103SOL     OW  307   2.226   0.073   0.373  0.2568 -0.0182 -0.1744
  103SOL    HW1  308   2.284   0.154   0.349 -4.0770  0.7698 -0.2053
  103SOL    HW2  309   2.237   0.038   0.471 -0.8572 -0.1634  1.4898
  104SOL     OW  310   0.100   1.800   2.156 -0.2658  0.5235 -0.5371
  104SOL    HW1  311   0.108   1.781   2.054 -0.9342 -0.2433 -1.9425
  104SOL    HW2  312   0.001   1.831   2.175  1.3312 -0.8535  0.2535
  105SOL     OW  313   1.286   2.093   0.784  0.2546  0.2081  0.2485
  105SOL    HW1  314   1.355   2.104   0.710 -1.3306  2.0229  0.3770
  105SOL    HW2  315   1.242   1.999   0.781 -1.9616  1.1628 -0.6919
  106SOL     OW  316   2.127   0.388   1.414  0.1735 -0.5972  0.2806
  106SOL    HW1  317   2.059   0.312   1.420  1.2015 -0.0119  0.0783
  106SOL    HW2  318   2.139   0.437   1.504 -0.0184 -0.6033 -0.4370
  107SOL     OW  319   1.897   2.965   1.241  0.6401 -0.0131  0.1161
  107SOL    HW1  320   1.846   3.048   1.288 -2.1858  0.8501 -2.3699
  107SOL    HW2  321   1.830   2.886   1.224  0.4600 -1.4158 -1.2213
  108SOL     OW  322   0.799   2.792   1.280  0.6355  0.0929  0.2308
  108SOL    HW1  323   0.793   2.714   1.343  0.1824  0.3093 -1.5697
  108SOL    HW2  324   0.895   2.821   1.255 -2.1231  1.6170  0.3251
  109SOL     OW  325   2.126   0.102   0.783 -0.4648  0.3334 -0.6267
  109SOL    HW1  326   2.032   0.123   0.745  0.3266  0.1016 -0.8440
  109SOL    HW2  327   2.118   0.064   0.880  0.2771  1.3262 -1.3218
  110SOL     OW  328   0.462   2.828   2.773  0.8427 -0.5892 -0.3382
  110SOL    HW1  329   0.446   2.806   2.672  2.1401  0.1488  2.6051
  110SOL    HW2  330   0.540   2.772   2.820  2.9181 -0.5670  1.0716
  111SOL     OW  331   1.308   0.484   2.326  0.0716 -0.4986  0.1595
  111SOL    HW1  332   1.228   0.514   2.389 -1.3317  0.9606  2.9851
  111SOL    HW2  333   1.375   0.422   2.376 -1.9117 -1.0242 -0.2814
  112SOL     OW  334   1.727   0.508   1.463  0.8011  0.1412  0.5418
  112SOL    HW1  335   1.729   0.482   1.361 -0.0344 -0.6401  2.3205
  112SOL    HW2  336   1.685   0.424   1.518 -0.5507  1.1549  1.4073
  113SOL     OW  337   2.355   1.650   1.772  1.1385 -0.2280  0.0761
  113SOL    HW1  338   2.405   1.575   1.729 -0.0664 -0.4728  0.1252
  113SOL    HW2  339   2.352   1.650   1.874 -0.6595 -2.8538  0.5552
  114SOL     OW  340   0.346   0.533   1.245 -0.1936 -0.1276 -0.2396
  114SOL    HW1  341   0.406   0.577   1.174 -4.8528 -0.6332  2.1058
  114SOL    HW2  342   0.256   0.580   1.231  0.0967 -1.1237 -1.0792
  115SOL     OW  343   2.720   1.628   1.198  0.4273  0.1938 -0.0443
  115SOL    HW1  344   2.715   1.526   1.208 -0.8928  0.3179  1.1723
  115SOL    HW2  345   2.817   1.660   1.159  1.6416  1.4936 -2.2206
  116SOL     OW  346   1.786   1.008   0.589 -0.4677 -0.1819  0.0072
  116SOL    HW1  347   1.714   0.936   0.595 -1.1814  0.4874  1.8952
  116SOL    HW2  348   1.771   1.094   0.639  0.6788 -0.9806 -1.8300
  117SOL     OW  349   1.181   0.354   0.565 -0.3597  0.6625 -0.5002
  117SOL    HW1  350   1.223   0.449   0.549 -1.6988 -3.2860  1.0746
  117SOL    HW2  351   1.139   0.311   0.481 -0.9401 -1.2843 -0.0433
  118SOL     OW  352   1.118   1.157   1.112 -0.9303  0.5195 -0.7929
  118SOL    HW1  353   1.090   1.097   1.186 -2.1762  1.1653 -0.3947
  118SOL    HW2  354   1.161   1.247   1.148  1.5975  1.0696  1.0618
  119SOL     OW  355   1.818   1.583   2.164  0.3604  0.3967 -0.2423
  119SOL    HW1  356   1.765   1.672   2.148  0.5530  0.8383 -2.5463
  119SOL    HW2  357   1.922   1.592   2.145  0.9750 -1.0776 -0.9555
  120SOL     OW  358   2.924   2.861   0.211  0.2082 -0.0526  0.7832
  120SOL    HW1  359   3.006   2.827   0.160 -1.7619 -1.8209  0.3840
  120SOL    HW2  360   2.846   2.791   0.189 -0.1985 -1.0337 -0.0498
  121SOL     OW  361   1.945   0.751   2.230 -0.0635 -0.3034  0.2369
  121SOL    HW1  362   1.934   0.796   2.136 -1.4399  0.1050  1.2286
  121SOL    HW2  363   1.951   0.650   2.224  0.9705  0.8789 -0.7026
  122SOL     OW  364   2.650   2.566   1.321  0.6763 -0.6680 -0.2995
  122SOL    HW1  365   2.702   2.545   1.231  3.8147  0.2351 -1.6646
  122SOL    HW2  366   2.547   2.567   1.317  1.4432  2.8509  1.3051
  123SOL     OW  367   1.742   0.033   1.706  0.6748 -0.0157  0.3728
  123SOL    HW1  368   1.757  -0.026   1.618  0.5624 -0.8635 -2.8684
  123SOL    HW2  369   1.826   0.051   1.761  1.8467 -0.6264 -2.1098
  124SOL     OW  370   0.060   0.426   1.081  0.0514  0.2726  0.3136
  124SOL    HW1  371   0.061   0.491   1.159  0.3404  1.2775 -0.5363
  124SOL    HW2  372   0.061   0.483   0.988  1.2803  1.3691  0.1035
  125SOL     OW  373   0.863   1.865   0.716  0.3509  0.7791  0.3651
  125SOL    HW1  374   0.956   1.833   0.745 -2.1990 -1.1100 -1.3343
  125SOL    HW2  375   0.791   1.848   0.791 -0.2950 -0.2044  0.2481
  126SOL     OW  376   1.826   2.262   2.417  0.5520  0.3644  0.7030
  126SOL    HW1  377   1.895   2.228   2.350 -2.5787 -3.0073 -2.3259
  126SOL    HW2  378   1.764   2.188   2.451  0.2020  0.8659  0.0186
  127SOL     OW  379   0.949   0.917   0.178 -0.2176 -0.1185 -0.3383
  127SOL    HW1  380   0.954   0.978   0.259 -1.2804  0.0277 -0.8412
  127SOL    HW2  381   0.945   0.815   0.203 -2.5760  1.7310 -0.2133
  128SOL     OW  382   0.925   0.201   1.391 -0.0953  0.2531 -0.0710
  128SOL    HW1  383   0.926   0.281   1.325 -0.8460 -2.1738  3.1649
  128SOL    HW2  384   0.847   0.140   1.355 -1.8614  1.2657 -1.7665
  129SOL     OW  385   1.848   0.662   1.841  0.2856  0.3467  1.0576
  129SOL    HW1  386   1.865   0.658   1.738  0.3693 -1.6541  0.9880
  129SOL    HW2  387   1.864   0.750   1.882 -2.4181 -0.9894 -2.1803
  130SOL     OW  388   1.385   2.139   1.023  0.7513  0.0446 -0.5211
  130SOL    HW1  389   1.330   2.094   0.950 -0.0975 -0.5813  1.2841
  130SOL    HW2  390   1.436   2.222   0.987 -1.9554  0.7351  3.2468
  131SOL     OW  391   2.992   1.410   1.371  0.0653  0.0369 -0.0569
  131SOL    HW1  392   2.958   1.324   1.425  0.7760  0.9984  0.8602
  131SOL    HW2  393   3.092   1.396   1.337 -0.5951  2.0078 -2.9622
  132SOL     OW  394   2.036   2.425   0.475 -0.1958 -0.0415 -0.0043
  132SOL    HW1  395   1.932   2.452   0.491 -0.2598 -2.3984 -0.1671
  132SOL    HW2  396   2.081   2.398   0.560  0.3505  2.2507 -1.0360
  133SOL     OW  397   1.788   2.352   2.732 -0.4795  0.1189 -0.2834
  133SOL    HW1  398   1.686   2.353   2.717  2.0857 -0.5522 -0.4023
  133SOL    HW2  399   1.836   2.396   2.652 -3.5270  0.5246  0.4405
  134SOL     OW  400   2.665   2.309   1.599  0.2114  0.0169  0.2711
  134SOL    HW1  401   2.567   2.306   1.632  0.0492 -0.8417  0.0966
  134SOL    HW2  402   2.705   2.405   1.609 -0.3661  0.2162 -0.7842
  135SOL     OW  403   0.726   1.464   2.678  0.0189 -0.4087  0.3591
  135SOL    HW1  404   0.638   1.406   2.701 -2.1762 -1.2683 -0.1674
  135SOL    HW2  405   0.774   1.432   2.592  0.3297 -0.2397  0.8857
  136SOL     OW  406   1.206   2.037   0.463  0.2477 -0.3276  0.6256
  136SOL    HW1  407   1.136   2.113   0.478  1.0438 -0.2569 -0.6714
  136SOL    HW2  408   1.161   1.946   0.459 -0.5774  1.0483  2.6427
  137SOL     OW  409   0.438   1.200   2.224  0.1059 -0.1188  0.5972
  137SOL    HW1  410   0.347   1.172   2.253 -0.3483 -0.9291  1.0681
  137SOL    HW2  411   0.495   1.115   2.201 -0.3537 -3.8702 -0.7216
  138SOL     OW  412   2.500   1.492   0.279 -0.2300  0.7860 -0.5612
  138SOL    HW1  413   2.402   1.450   0.266 -2.3060 -2.4042  1.9392
  138SOL    HW2  414   2.557   1.431   0.340 -0.0587  0.7010  1.2747
  139SOL     OW  415   1.897   2.626   1.365  0.2776  0.0503  0.8849
  139SOL    HW1  416   1.797   2.627   1.338  1.4480  0.5056 -0.9607
  139SOL    HW2  417   1.939   2.528   1.359  1.3836  2.2989 -1.3371
  140SOL     OW  418   2.997   2.973   2.511 -0.1704 -0.1249  0.3422
  140SOL    HW1  419   3.056   2.889   2.526 -0.4371  0.4868  0.2347
  140SOL    HW2  420   3.056   3.047   2.477 -0.7582 -0.9848  0.1653
  141SOL     OW  421   1.323   1.694   1.595 -0.1176  0.5760  0.4464
  141SOL    HW1  422   1.224   1.724   1.596 -0.0893 -0.7841  0.1375
  141SOL    HW2  423   1.350   1.658   1.688 -0.7140 -1.4955 -0.1240
  142SOL     OW  424   1.530   0.602   2.252 -0.1361 -0.0377  0.2262
  142SOL    HW1  425   1.551   0.570   2.157  1.7743  2.1725  0.6397
  142SOL    HW2  426   1.448   0.559   2.291 -0.8367  1.8083 -0.4112
  143SOL     OW  427   2.744   0.906   0.495 -0.1653 -0.4894  0.0963
  143SOL    HW1  428   2.794   0.970   0.429  0.7177  3.6597  0.0990
  143SOL    HW2  429   2.784   0.904   0.590 -2.6871  2.1464  1.6364
  144SOL     OW  430   2.889   1.208   1.498 -0.4656 -0.7802  0.6896
  144SOL    HW1  431   2.848   1.195   1.593  0.4466  1.2716 -1.5427
  144SOL    HW2  432   2.928   1.122   1.455 -3.2634  0.0757  0.8587
  145SOL     OW  433   1.038   1.825   0.136  0.2571  0.0337 -0.1399
  145SOL    HW1  434   1.126   1.807   0.084 -0.3443 -0.2712 -0.9836
  145SOL    HW2  435   0.967   1.755   0.103  0.5060  1.8374 -1.4892
  146SOL     OW  436   2.450   0.658   1.491 -0.0126  0.3185  0.3828
  146SOL    HW1  437   2.438   0.577   1.435  3.1368  0.9070  0.5569
  146SOL    HW2  438   2.384   0.733   1.471 -0.7487 -1.3971  1.4002
  147SOL     OW  439   1.094   2.535   0.593  0.4826  0.9980  0.1967
  147SOL    HW1  440   1.073   2.599   0.516 -2.9422 -1.8050 -2.7797
  147SOL    HW2  441   1.191   2.509   0.587 -1.1622  1.0279  0.2878
  148SOL     OW  442   1.609   1.466   0.028  0.0646 -0.6742 -0.1409
  148SOL    HW1  443   1.597   1.387  -0.037 -1.2603  0.9876  1.3736
  148SOL    HW2  444   1.575   1.437   0.123 -3.0707  2.8653 -0.3234
  149SOL     OW  445   0.651   1.448   1.963 -0.5450 -0.0292  0.2157
  149SOL    HW1  446   0.550   1.432   1.984  0.0026  0.1204 -2.8894
  149SOL    HW2  447   0.696   1.372   1.906 -0.4067 -0.8385  0.7471
  150SOL     OW  448   3.050   1.236   0.951 -0.1953 -0.1765  0.4237
  150SOL    HW1  449   3.122   1.208   1.023  0.9806 -1.0937  1.6325
  150SOL    HW2  450   2.969   1.171   0.931  0.1753 -2.8191 -2.4290
  151SOL     OW  451   0.132   0.696   2.092  0.1714 -0.1038  0.4622
  151SOL    HW1  452   0.139   0.783   2.034  1.3541 -1.7898 -2.1714
  151SOL    HW2  453   0.205   0.626   2.064  0.4149 -0.4634  2.7886
  152SOL     OW  454   1.465   1.796   1.192 -0.0819  0.3134 -0.5224
  152SOL    HW1  455   1.495   1.896   1.186 -1.3095 -1.7722  0.2655
  152SOL    HW2  456   1.365   1.790   1.193 -1.0246  0.6554  0.8738
  153SOL     OW  457   0.127   1.584   0.205  0.2037 -0.7797  0.1653
  153SOL    HW1  458   0.095   1.484   0.193 -0.1916  1.1707  0.2805
  153SOL    HW2  459   0.100   1.630   0.295  0.0102 -0.6072 -0.5146
  154SOL     OW  460   2.369   1.875   2.851 -0.1603  0.5195  0.1844
  154SOL    HW1  461   2.395   1.776   2.869  0.1543  0.8467 -2.0005
  154SOL    HW2  462   2.427   1.916   2.781 -1.3967  1.4264  4.2489
  155SOL     OW  463   2.518   1.183   0.391  0.5957 -0.6183  0.5925
  155SOL    HW1  464   2.576   1.157   0.312 -1.0721 -1.6869  0.1485
  155SOL    HW2  465   2.440   1.116   0.398  0.6636  1.6208  1.6877
  156SOL     OW  466   2.471   0.878   0.793 -0.4294 -0.4545 -0.2656
  156SOL    HW1  467   2.378   0.927   0.793 -0.3465  1.0458  0.0885
  156SOL    HW2  468   2.536   0.936   0.739  0.9023 -1.6849 -2.1156
  157SOL     OW  469   1.212   3.003   2.959  0.0692 -0.1327 -0.0555
  157SOL    HW1  470   1.298   2.976   2.907 -1.0426  0.3753 -4.3710
  157SOL    HW2  471   1.225   3.096   3.004  0.0314 -3.0224 -2.3910
  158SOL     OW  472   0.989   1.851   1.894 -0.2402  0.2647  0.1292
  158SOL    HW1  473   1.040   1.938   1.858  1.3421  0.0208 -1.0298
  158SOL    HW2  474   0.924   1.867   1.973  1.2580  1.3592  1.3821
  159SOL     OW  475   0.885   0.422   1.203 -0.5884  0.6728 -0.1904
  159SOL    HW1  476   0.824   0.501   1.240 -1.7176 -0.7527 -1.2481
  159SOL    HW2  477   0.828   0.362   1.145  1.7010  2.2761  1.2262
  160SOL     OW  478   1.353   2.424   1.597 -0.1679  0.8042 -0.3207
  160SOL    HW1  479   1.324   2.332   1.642 -0.7382  1.7584 -0.1405
  160SOL    HW2  480   1.460   2.427   1.592  1.0957 -0.6640 -0.6212
  161SOL     OW  481   3.106   2.939   0.466  0.0550 -0.6309  1.1967
  161SOL    HW1  482   3.046   2.855   0.448 -2.3240 -1.2012 -0.4392
  161SOL    HW2  483   3.055   3.023   0.440 -3.6826 -1.5177 -2.1013
  162SOL     OW  484   2.601   1.867   0.495  0.3538 -0.3170 -0.8513
  162SOL    HW1  485   2.545   1.814   0.428 -2.9664  0.7078  1.1064
  162SOL    HW2  486   2.652   1.818   0.570 -0.5365 -0.3356  0.2343
  163SOL     OW  487   1.934   2.744   0.734  0.5524 -0.2504  0.1934
  163SOL    HW1  488   1.955   2.774   0.637  0.5697 -2.0033  1.0772
  163SOL    HW2  489   2.000   2.667   0.759 -0.5533 -1.9723 -0.5978
  164SOL     OW  490   3.042   0.217   1.248  0.0414 -0.5972  0.4533
  164SOL    HW1  491   3.064   0.244   1.145 -0.6590 -1.6881 -1.9583
  164SOL    HW2  492   3.129   0.215   1.313  2.3639  1.2622 -1.0257
  165SOL     OW  493   0.975   1.372   0.749  0.7909  0.3396  0.0854
  165SOL    HW1  494   0.927   1.423   0.821  3.9126 -0.2953 -0.6088
  165SOL    HW2  495   0.977   1.435   0.662  0.3251 -1.2427 -1.2325
  166SOL     OW  496   1.583   1.013   1.792  0.3171 -0.2264  0.7897
  166SOL    HW1  497   1.483   1.020   1.811  1.2273  0.3966 -0.8454
  166SOL    HW2  498   1.623   1.105   1.812 -3.0865 -0.4400  0.4434
  167SOL     OW  499   0.744   1.987   1.470 -0.1335 -0.6918  0.4652
  167SOL    HW1  500   0.766   2.048   1.554 -0.2651 -3.7216  0.3381
  167SOL    HW2  501   0.710   1.889   1.502  1.3945 -0.8865 -0.3514
  168SOL     OW  502   1.622   2.350   0.164  0.2831  0.1682  0.2966
  168SOL    HW1  503   1.708   2.376   0.118 -0.7611 -1.8638  1.6003
  168SOL    HW2  504   1.646   2.314   0.258  4.1751 -0.3223 -2.4377
  169SOL     OW  505   0.179   2.582   2.225 -0.0695  0.1097  0.1418
  169SOL    HW1  506   0.182   2.540   2.133 -0.4657 -3.8215  1.4915
  169SOL    HW2  507   0.209   2.512   2.293 -1.3704  0.4288 -0.9780
  170SOL     OW  508   1.101   0.231   2.016  0.5746 -0.2497 -0.1945
  170SOL    HW1  509   1.149   0.160   2.064 -2.0557  1.1403 -0.5201
  170SOL    HW2  510   1.131   0.237   1.918 -1.1257 -0.6767  1.2406
  171SOL     OW  511   0.170   0.816   2.363 -0.2451 -0.1707  0.3302
  171SOL    HW1  512   0.091   0.832   2.421  1.1469  1.6421  1.7086
  171SOL    HW2  513   0.143   0.796   2.266  1.1138  0.2838 -0.5825
  172SOL     OW  514   0.955   0.975   2.879  0.0620 -0.6650  0.4232
  172SOL    HW1  515   0.917   1.032   2.961 -1.6435 -1.0292  0.4631
  172SOL    HW2  516   0.902   1.000   2.793  2.1957  2.7515 -1.3893
  173SOL     OW  517   0.564   2.573   0.128 -0.3037 -0.6326 -0.1988
  173SOL    HW1  518   0.599   2.611   0.041  0.7883 -4.0722 -1.0685
  173SOL    HW2  519   0.469   2.588   0.165 -1.2611  1.3853  2.1091
  174SOL     OW  520   1.540   2.792   1.038  0.0289  0.1038 -0.2011
  174SOL    HW1  521   1.558   2.856   0.964 -1.5731 -2.8318  1.4486
  174SOL    HW2  522   1.520   2.695   0.997  0.2819 -1.4145 -3.1692
  175SOL     OW  523   0.475   3.049   1.721 -0.1746 -0.0201  0.2668
  175SOL    HW1  524   0.562   3.049   1.780 -0.9897  1.0085 -1.0006
  175SOL    HW2  525   0.427   3.144   1.718 -1.9109 -1.0551 -0.9728
  176SOL     OW  526   2.563   0.403   0.008 -0.2076 -0.1386 -0.1171
  176SOL    HW1  527   2.592   0.491   0.045  1.7948  0.6187 -2.8396
  176SOL    HW2  528   2.494   0.357   0.071 -1.5460  1.8846  0.0953
  177SOL     OW  529   0.291   0.352   0.924  0.0639 -0.3700 -0.3299
  177SOL    HW1  530   0.242   0.263   0.910 -2.1040  0.8493  1.1007
  177SOL    HW2  531   0.330   0.354   1.018 -1.7821 -2.7037 -0.7674
  178SOL     OW  532   0.063   2.747   2.556 -0.3659  0.1895 -0.1382
  178SOL    HW1  533  -0.009   2.673   2.549 -2.1383 -1.2302  0.6120
  178SOL    HW2  534   0.109   2.752   2.651  0.4148 -0.0142 -0.4918
  179SOL     OW  535   3.030   1.583   1.151 -0.6396 -0.3360  0.7467
  179SOL    HW1  536   3.062   1.519   1.076 -0.5623 -0.2540 -0.6888
  179SOL    HW2  537   3.006   1.532   1.237  1.6435  1.8099 -1.9052
  180SOL     OW  538   0.193   1.274   1.813 -0.1648  0.6400 -0.1830
  180SOL    HW1  539   0.269   1.230   1.863  0.8494 -1.1034  1.7697
  180SOL    HW2  540   0.157   1.361   1.846 -0.4933 -1.4420 -1.3148
  181SOL     OW  541   0.013   1.884   2.469  0.1186  0.2038 -0.0250
  181SOL    HW1  542   0.040   1.987   2.481  0.6974 -0.2877  3.0047
  181SOL    HW2  543  -0.081   1.880   2.433  0.8383 -0.9894  1.6158
  182SOL     OW  544   2.332   1.226   1.183  0.7523 -0.3765  0.4291
  182SOL    HW1  545   2.243   1.190   1.132 -0.1534 -1.7169  1.8329
  182SOL    HW2  546   2.349   1.330   1.182 -2.3856  3.3321 -0.9973
  183SOL     OW  547   1.437   2.253   2.544 -0.4297 -0.0246 -0.0336
  183SOL    HW1  548   1.353   2.200   2.574 -1.5593 -2.4545 -1.0866
  183SOL    HW2  549   1.492   2.186   2.479 -0.5775  1.4895 -1.8024
  184SOL     OW  550   2.033   0.928   0.686 -0.2057  0.5580  0.5758
  184SOL    HW1  551   1.944   0.954   0.652  0.0570 -3.4956  1.2421
  184SOL    HW2  552   2.025   0.842   0.735  1.7378  1.9751 -0.7387
  185SOL     OW  553   1.584   2.774   1.951 -0.6951 -0.0482 -0.3035
  185SOL    HW1  554   1.498   2.830   1.937 -2.7647 -1.3753 -1.9836
  185SOL    HW2  555   1.614   2.770   2.052 -1.5730  0.1100  0.4463
  186SOL     OW  556   0.148   2.255   1.659 -0.2227 -0.1238  0.3525
  186SOL    HW1  557   0.123   2.290   1.752 -3.0424 -1.6759 -2.5061
  186SOL    HW2  558   0.225   2.188   1.661  0.6007  0.0582 -0.6526
  187SOL     OW  559   1.372   0.681   1.648  0.2223  0.0132 -0.1684
  187SOL    HW1  560   1.453   0.737   1.620  1.7337 -0.0660 -0.5859
  187SOL    HW2  561   1.393   0.599   1.706  3.5908  0.3078  0.7413
  188SOL     OW  562   2.811   2.766   1.453  0.3774  0.6640  0.1630
  188SOL    HW1  563   2.775   2.864   1.434  0.2491 -0.7857 -0.9938
  188SOL    HW2  564   2.761   2.690   1.403  1.3726 -1.5193 -0.2111
  189SOL     OW  565   0.915   1.188   1.467 -0.7211 -0.3121 -0.0060
  189SOL    HW1  566   0.996   1.228   1.520 -2.9678 -0.1259 -1.5664
  189SOL    HW2  567   0.890   1.244   1.388  2.0655 -0.5670  2.4603
  190SOL     OW  568   1.446   1.948   1.621  0.3686 -0.4132 -0.5293
  190SOL    HW1  569   1.404   1.857   1.644  0.9367  1.3468  1.2373
  190SOL    HW2  570   1.503   1.972   1.704 -1.7276  2.5880  2.6016
  191SOL     OW  571   0.924   0.746   1.511  0.1041  0.6534 -0.5465
  191SOL    HW1  572   1.002   0.700   1.564 -1.7813  0.2156  2.5180
  191SOL    HW2  573   0.952   0.832   1.458 -1.1881  0.5981 -3.2467
  192SOL     OW  574   1.855   2.312   1.082 -0.3432 -0.0285  0.1660
  192SOL    HW1  575   1.774   2.314   1.015  0.9513 -3.8122  1.9552
  192SOL    HW2  576   1.949   2.327   1.037  0.7567 -1.3810  0.9946
  193SOL     OW  577   0.529   0.555   0.429 -0.1234 -0.2148 -0.3197
  193SOL    HW1  578   0.473   0.468   0.460 -0.2664 -2.9266 -1.2460
  193SOL    HW2  579   0.591   0.538   0.348  1.5490 -1.4105 -0.9237
  194SOL     OW  580   0.366   0.873   1.291 -0.2549  0.3643  0.2402
  194SOL    HW1  581   0.312   0.786   1.282  0.9273 -2.8379 -2.6469
  194SOL    HW2  582   0.343   0.943   1.219  0.5065 -0.2056 -0.6864
  195SOL     OW  583   1.023   2.935   0.520  0.0401 -0.4805  0.4412
  195SOL    HW1  584   1.000   2.842   0.478 -0.4183  1.4985  1.2704
  195SOL    HW2  585   1.107   2.990   0.489 -1.4688 -0.7259 -0.0880
  196SOL     OW  586   0.192   1.343   1.378  0.0627 -0.4896 -0.7642
  196SOL    HW1  587   0.215   1.434   1.427 -0.1048 -1.1075  0.3705
  196SOL    HW2  588   0.205   1.262   1.443 -2.3035 -0.0266 -0.9867
  197SOL     OW  589   0.831   2.044   0.238 -0.3427  0.3240 -0.3585
  197SOL    HW1  590   0.825   2.050   0.340 -0.2012 -2.6667 -1.2911
  197SOL    HW2  591   0.862   1.949   0.204  1.8674 -0.5941  0.3780
  198SOL     OW  592   0.280   1.262   0.336  0.1367  0.1223  0.7071
  198SOL    HW1  593   0.184   1.275   0.292  1.1161  3.0300 -2.5551
  198SOL    HW2  594   0.319   1.348   0.377  1.6260  3.3726  1.5564
  199SOL     OW  595   2.324   0.380   2.535  0.0625  0.3072  0.7688
  199SOL    HW1  596   2.234   0.377   2.596 -1.0996 -2.2692  0.7767
  199SOL    HW2  597   2.409   0.363   2.591 -3.6304  0.3964  0.9752
  200SOL     OW  598   3.088   2.944   0.741 -0.4674 -0.0266 -0.4889
  200SOL    HW1  599   2.994   2.904   0.764  0.7805 -0.2993  3.7935
  200SOL    HW2  600   3.109   2.943   0.638  0.4269 -0.0866 -1.2441
  201SOL     OW  601   1.046   0.705   0.547 -0.5463 -0.3838 -0.4339
  201SOL    HW1  602   1.092   0.771   0.605 -0.5381 -1.2944  1.5275
  201SOL    HW2  603   0.951   0.689   0.576  4.3514  0.8842  1.3658
  202SOL     OW  604   0.397   1.115   1.953 -0.2967  0.0425  0.0789
  202SOL    HW1  605   0.478   1.054   1.924  2.4845  3.7616  2.9550
  202SOL    HW2  606   0.422   1.207   1.999  0.2424  0.5798 -0.7454
  203SOL     OW  607   0.614   0.209   1.479 -1.1604  0.2391  0.4576
  203SOL    HW1  608   0.626   0.144   1.396  0.3287  0.0865 -0.0450
  203SOL    HW2  609   0.691   0.199   1.552 -0.9459 -0.4482  2.1028
  204SOL     OW  610   2.104   1.779   2.898 -0.2610 -0.4522  0.1382
  204SOL    HW1  611   2.084   1.680   2.905 -3.3272  2.7399  1.7978
  204SOL    HW2  612   2.204   1.802   2.870 -0.9658 -0.4649  1.6597
  205SOL     OW  613   1.861   1.834   3.021  0.1558 -0.0529 -0.0127
  205SOL    HW1  614   1.955   1.833   2.981 -0.4615 -1.6606  0.1803
  205SOL    HW2  615   1.821   1.930   3.031 -1.2442  1.1766 -0.7861
  206SOL     OW  616   2.434   2.810   0.341 -0.0725 -0.1455 -0.1044
  206SOL    HW1  617   2.485   2.731   0.384 -1.1908  0.0098 -0.0217
  206SOL    HW2  618   2.500   2.879   0.303 -1.8676 -0.9855  2.5199
  207SOL     OW  619   0.697   1.820   2.956 -0.2954  0.2731 -0.5898
  207SOL    HW1  620   0.770   1.756   2.910  0.1437  1.0567  0.1220
  207SOL    HW2  621   0.642   1.774   3.032 -1.4318 -0.0733 -0.8492
  208SOL     OW  622   1.153   1.579   1.403  0.1508  0.3223  0.1204
  208SOL    HW1  623   1.157   1.657   1.335  1.2065 -0.7954 -1.2946
  208SOL    HW2  624   1.245   1.563   1.456 -0.5125  3.1086  3.1256
  209SOL     OW  625   0.251   0.937   3.051 -0.1457 -0.0707  0.2866
  209SOL    HW1  626   0.207   0.853   3.009 -3.1653 -0.4293 -0.1715
  209SOL    HW2  627   0.269   0.924   3.152  0.8808 -1.2307  1.8893
  210SOL     OW  628   1.726   0.475   1.162  0.2770  0.3609  0.0245
  210SOL    HW1  629   1.678   0.563   1.129  1.9229 -0.4848  1.1420
  210SOL    HW2  630   1.827   0.484   1.166 -1.6597  1.9575 -0.3586
  211SOL     OW  631   2.113   1.055   1.595 -0.4660  0.1973  0.1552
  211SOL    HW1  632   2.145   1.003   1.676  0.6644  0.1290 -0.5716
  211SOL    HW2  633   2.191   1.115   1.557  1.6981  0.8674 -1.7955
  212SOL     OW  634   0.012   0.969   1.501  0.1133 -0.1768 -0.1366
  212SOL    HW1  635   0.078   1.050   1.509  0.7589 -0.8681 -0.4908
  212SOL    HW2  636   0.005   0.911   1.589 -1.2034  0.4177  0.1952
  213SOL     OW  637   2.803   0.166   0.387 -0.7339 -0.2517 -0.7261
  213SOL    HW1  638   2.872   0.117   0.330  3.3689  3.2710 -1.0179
  213SOL    HW2  639   2.703   0.138   0.364 -3.2445 -3.0896  2.7465
  214SOL     OW  640   2.175   0.292   2.332  0.5559  0.6409  0.3857
  214SOL    HW1  641   2.245   0.329   2.400 -1.2406  0.2393  0.7949
  214SOL    HW2  642   2.159   0.194   2.348  3.9612  0.1522  1.4615
  215SOL     OW  643   1.601   2.316   2.085  0.6369  0.4322 -0.0979
  215SOL    HW1  644   1.704   2.307   2.071  2.6588  1.8421 -2.2355
  215SOL    HW2  645   1.575   2.404   2.130  1.7257 -1.3236  1.6760
  216SOL     OW  646   2.195   0.619   0.692  0.1759  0.4836  0.2685
  216SOL    HW1  647   2.179   0.525   0.643  3.5672  0.0777  1.0686
  216SOL    HW2  648   2.196   0.702   0.630 -0.7981 -2.2809  0.9351
  217SOL     OW  649   0.750   2.795   2.422  0.1047  0.2446  0.3688
  217SOL    HW1  650   0.744   2.724   2.498  2.0632 -0.1842 -0.0102
  217SOL    HW2  651   0.719   2.760   2.333 -0.8766  3.2850 -0.2965
  218SOL     OW  652   1.903   1.419   0.026 -0.2146  0.2876 -0.1216
  218SOL    HW1  653   1.800   1.439   0.031  1.6212  1.3120  1.0677
  218SOL    HW2  654   1.933   1.340   0.093  2.7464  0.9856  0.4025
  219SOL     OW  655   2.431   1.317   2.504  0.1376 -0.2188  0.2874
  219SOL    HW1  656   2.468   1.305   2.410  1.0260  1.7520  1.1981
  219SOL    HW2  657   2.454   1.240   2.568  0.8377 -0.9656 -0.1580
  220SOL     OW  658   1.471   1.068   1.306  0.0382  0.3487 -0.1785
  220SOL    HW1  659   1.575   1.048   1.315  0.1804 -2.2587  1.1633
  220SOL    HW2  660   1.432   1.073   1.208 -0.1085 -1.7051  0.9663
  221SOL     OW  661   1.288   0.987   2.170 -0.0095 -0.3668  0.2940
  221SOL    HW1  662   1.248   1.012   2.079 -0.9980  4.0451  0.6434
  221SOL    HW2  663   1.390   1.004   2.176 -1.2831 -0.9952 -2.1393
  222SOL     OW  664   1.114   0.071   1.206 -0.0936  0.1704 -0.2050
  222SOL    HW1  665   1.131   0.128   1.290  1.4353 -1.4278 -0.4127
  222SOL    HW2  666   1.129   0.128   1.115  0.4508 -1.4556 -0.4306
  223SOL     OW  667   2.727   0.957   2.168 -0.0341 -0.3500 -0.1224
  223SOL    HW1  668   2.678   1.027   2.229 -1.0670 -0.5739  1.9533
  223SOL    HW2  669   2.817   0.918   2.203 -0.9354 -0.6584 -1.5402
  224SOL     OW  670   1.513   1.076   2.724  0.0845  0.0905 -0.2410
  224SOL    HW1  671   1.558   0.999   2.683 -1.3020  2.5779  3.4023
  224SOL    HW2  672   1.474   1.144   2.650  0.8182  0.2629 -0.6253
  225SOL     OW  673   2.951   2.782   2.886  0.7129 -0.4058 -0.2517
  225SOL    HW1  674   2.893   2.743   2.815  0.2598 -2.5662  1.0197
  225SOL    HW2  675   3.052   2.790   2.858  3.6116 -0.9328  0.7074
  226SOL     OW  676   2.454   1.627   2.872 -0.0553 -0.3359  0.2083
  226SOL    HW1  677   2.463   1.609   2.767 -1.6035  0.2835 -4.2654
  226SOL    HW2  678   2.400   1.546   2.913 -1.2931  2.7266 -2.5100
  227SOL     OW  679   0.858   0.143   0.034 -0.6490  0.3798 -0.6704
  227SOL    HW1  680   0.922   0.215  -0.010  0.1563  0.4480 -3.1006
  227SOL    HW2  681   0.827   0.070  -0.037  2.5077 -0.9770 -2.5406
  228SOL     OW  682   2.425   0.594   2.850 -0.1144 -0.3291  1.0245
  228SOL    HW1  683   2.435   0.656   2.768 -2.1141 -0.2932 -3.1433
  228SOL    HW2  684   2.515   0.538   2.865  1.7860 -1.2932 -2.4601
  229SOL     OW  685   0.570   0.472   1.828  0.0813  0.5905 -0.7578
  229SOL    HW1  686   0.552   0.373   1.860 -0.5623  3.7213 -2.5019
  229SOL    HW2  687   0.618   0.488   1.737  2.4257 -2.5553  1.2807
  230SOL     OW  688   1.927   1.148   2.087  0.7901 -0.0144 -0.3718
  230SOL    HW1  689   1.978   1.219   2.030  0.9204  0.5328 -2.1272
  230SOL    HW2  690   1.835   1.186   2.125  2.4343  2.3100  1.9765
  231SOL     OW  691   0.624   1.015   0.067  0.4209  0.0522  0.1825
  231SOL    HW1  692   0.703   1.066   0.031 -0.4144 -0.4050 -0.1277
  231SOL    HW2  693   0.533   1.071   0.061 -0.8632  2.7857  0.7140
  232SOL     OW  694   2.423   3.069   2.867  0.1421 -0.0548  1.2780
  232SOL    HW1  695   2.450   2.967   2.858  0.5751  0.6820 -0.8745
  232SOL    HW2  696   2.462   3.119   2.783  0.8099 -1.0805  0.2400
  233SOL     OW  697   1.677   1.228   1.122  0.4122 -0.3420  0.3678
  233SOL    HW1  698   1.681   1.193   1.026  0.0424  0.3539 -0.2033
  233SOL    HW2  699   1.713   1.161   1.191  1.2872  0.6055 -2.8170
  234SOL     OW  700   1.558   2.512   1.875  0.3515 -0.5305  0.0294
  234SOL    HW1  701   1.576   2.608   1.916  0.2641  0.2995  2.1532
  234SOL    HW2  702   1.582   2.441   1.944 -4.4120 -2.1967 -0.2215
  235SOL     OW  703   0.021   3.051   2.811 -0.7429 -0.0080 -0.0794
  235SOL    HW1  704  -0.035   3.016   2.734  0.0609 -0.8024  0.5166
  235SOL    HW2  705  -0.033   3.086   2.896  2.0947 -0.7995  2.6537
  236SOL     OW  706   2.883   0.737   0.086  0.1548  0.2126 -0.1397
  236SOL    HW1  707   2.956   0.776   0.148  1.6954  0.6222 -1.4012
  236SOL    HW2  708   2.925   0.656   0.029 -0.0831  1.8008 -2.2435
  237SOL     OW  709   1.567   1.656   0.959  0.3130 -0.4022 -0.1563
  237SOL    HW1  710   1.665   1.638   0.938 -3.1230  0.8939 -1.2198
  237SOL    HW2  711   1.552   1.678   1.059 -0.5349  1.0929  0.5109
  238SOL     OW  712   1.795   1.265   0.841  0.0925 -0.2867 -0.0844
  238SOL    HW1  713   1.864   1.304   0.915  0.6021 -1.2452 -0.1419
  238SOL    HW2  714   1.711   1.322   0.837  2.4493 -0.9623 -2.9816
  239SOL     OW  715   2.102   0.318   2.699  0.1336  0.3314  0.5382
  239SOL    HW1  716   2.143   0.259   2.772  0.3184 -1.4278  0.1158
  239SOL    HW2  717   2.035   0.391   2.734  0.6053  0.7537  0.2310
  240SOL     OW  718   0.933   0.661   0.276  0.2621 -0.4199 -0.0014
  240SOL    HW1  719   0.947   0.562   0.244 -4.1930  0.9118 -2.2743
  240SOL    HW2  720   0.963   0.675   0.373  0.1330 -1.6706 -0.2608
  241SOL     OW  721   0.601   0.026   0.388  0.3202  0.5006  0.1019
  241SOL    HW1  722   0.644   0.114   0.343  1.6055  4.8262 -1.2392
  241SOL    HW2  723   0.588  -0.053   0.323  0.0354  0.5045  0.5328
  242SOL     OW  724   0.599   2.512   1.157 -0.0205 -0.0983 -0.0170
  242SOL    HW1  725   0.579   2.549   1.251  0.5148 -1.1819  0.4083
  242SOL    HW2  726   0.631   2.586   1.093 -1.1151 -2.5442 -2.6638
  243SOL     OW  727   1.079   0.623   2.506 -0.3811 -0.5753  0.2725
  243SOL    HW1  728   0.989   0.633   2.457  2.3598  0.7329  0.1182
  243SOL    HW2  729   1.060   0.586   2.602 -2.1671 -0.1982  0.5899
  244SOL     OW  730   2.848   1.905   2.346 -0.1288 -0.7667  0.0540
  244SOL    HW1  731   2.870   1.883   2.250 -0.2007 -1.0934 -2.3138
  244SOL    HW2  732   2.757   1.866   2.367 -0.3332  2.8799 -0.3895
  245SOL     OW  733   2.303   0.822   2.159 -0.5867  0.3919 -0.1835
  245SOL    HW1  734   2.383   0.883   2.174 -1.4505  0.5430  0.7535
  245SOL    HW2  735   2.272   0.782   2.248  1.2210  4.1169 -2.9175
  246SOL     OW  736   0.243   2.927   1.733 -0.0221  0.3813 -0.4098
  246SOL    HW1  737   0.176   2.937   1.660  3.0268  0.2354 -0.1240
  246SOL    HW2  738   0.334   2.973   1.716  0.1694  0.4260 -1.0712
  247SOL     OW  739   2.220   0.638   3.031 -0.5143  0.7954 -0.4693
  247SOL    HW1  740   2.291   0.601   2.960 -0.2833 -3.2894 -2.2283
  247SOL    HW2  741   2.179   0.735   3.008 -3.6046  0.1465 -1.2872
  248SOL     OW  742   2.157   1.819   1.600  0.0400  0.0409  0.0863
  248SOL    HW1  743   2.219   1.747   1.651  0.3973 -3.1524  1.0871
  248SOL    HW2  744   2.058   1.817   1.628  1.6277 -0.2354  1.1087
  249SOL     OW  745   1.849   1.942   1.928 -0.0769  0.2470  0.3582
  249SOL    HW1  746   1.863   1.882   1.843 -0.0950  0.1627  1.0988
  249SOL    HW2  747   1.937   1.983   1.962 -0.2628 -0.1174  3.9778
  250SOL     OW  748   1.095   0.682   1.885 -0.2542 -0.2086  0.0990
  250SOL    HW1  749   1.126   0.624   1.966 -0.1325  0.8756 -0.5887
  250SOL    HW2  750   1.064   0.622   1.811  1.3765 -0.4680  0.0416
  251SOL     OW  751   0.054   1.622   2.501 -0.0869  0.2744  0.4779
  251SOL    HW1  752   0.042   1.724   2.486 -2.5884  1.5125 -1.1561
  251SOL    HW2  753  -0.034   1.569   2.491 -1.6149  0.5615  1.5304
  252SOL     OW  754   1.601   0.836   1.566  0.2420 -0.7022 -0.2351
  252SOL    HW1  755   1.687   0.797   1.529  2.4438  0.6418 -0.9698
  252SOL    HW2  756   1.613   0.894   1.653  1.3710  0.6372  3.3288
  253SOL     OW  757   1.010   1.556   0.529  0.0838  0.6106  0.9588
  253SOL    HW1  758   1.026   1.488   0.449 -0.0820  0.9393 -2.0233
  253SOL    HW2  759   0.915   1.588   0.534  3.1127  1.1114  0.6206
  254SOL     OW  760   2.050   2.151   1.623 -0.1788  0.5437  0.2694
  254SOL    HW1  761   2.005   2.067   1.583  0.7269  0.1651 -0.1590
  254SOL    HW2  762   1.985   2.217   1.670  0.2848  1.6689  0.9208
  255SOL     OW  763   0.109   1.117   2.913 -0.6305 -0.1142  0.7242
  255SOL    HW1  764   0.178   1.203   2.911  3.1801  2.3439 -0.3909
  255SOL    HW2  765   0.163   1.038   2.962  3.6117  0.0449  1.4339
  256SOL     OW  766   2.800   1.411   1.778  0.8142 -0.1848  0.0770
  256SOL    HW1  767   2.707   1.449   1.760  1.7182  2.6698 -2.6209
  256SOL    HW2  768   2.802   1.308   1.770  0.4026 -0.8228 -0.9539
  257SOL     OW  769   0.757   0.142   1.756  0.2181 -0.0500 -0.2826
  257SOL    HW1  770   0.830   0.214   1.725 -0.9532  0.1692 -0.0596
  257SOL    HW2  771   0.803   0.075   1.817 -2.9286 -0.5457  0.2221
  258SOL     OW  772   3.020   1.241   0.427 -0.1157  0.0844  0.5754
  258SOL    HW1  773   2.935   1.302   0.420 -1.1953 -1.0401 -1.6690
  258SOL    HW2  774   3.051   1.245   0.523 -0.1602  0.2139 -1.2409
  259SOL     OW  775   0.462   2.934   3.053  0.2251 -0.1600 -0.0557
  259SOL    HW1  776   0.394   2.871   3.104  0.9733  0.1453  1.8841
  259SOL    HW2  777   0.509   2.887   2.973 -1.6453  2.3218  3.1720
  260SOL     OW  778   2.761   0.763   2.802  0.1477 -1.3463 -0.2049
  260SOL    HW1  779   2.670   0.775   2.752  0.8729 -0.5983 -0.2389
  260SOL    HW2  780   2.769   0.764   2.904  0.9422 -0.5096  1.2336
  261SOL     OW  781   2.717   1.369   1.258 -0.3590 -0.2484  0.0616
  261SOL    HW1  782   2.674   1.307   1.182 -2.1630  1.0480  0.7000
  261SOL    HW2  783   2.819   1.354   1.263 -3.2424  0.5250  0.9415
  262SOL     OW  784   1.383   2.955   1.977  0.1832 -0.0005 -0.1889
  262SOL    HW1  785   1.428   3.024   1.916  1.2746 -2.5343 -0.0461
  262SOL    HW2  786   1.285   2.943   1.948  0.5918 -2.7566  1.3307
  263SOL     OW  787   0.851   0.694   2.359 -0.1109 -0.2325  0.0400
  263SOL    HW1  788   0.772   0.633   2.337 -0.9209 -1.8774  0.1909
  263SOL    HW2  789   0.899   0.744   2.282  3.5207 -1.5494  1.5164
  264SOL     OW  790   2.195   0.829   0.459  0.4603 -0.2008 -0.4839
  264SOL    HW1  791   2.244   0.783   0.378 -3.9972 -1.0503 -1.5423
  264SOL    HW2  792   2.242   0.897   0.519  0.3174 -0.0826  0.6124
  265SOL     OW  793   0.953   2.440   2.596 -0.2047  0.7560  0.5252
  265SOL    HW1  794   1.012   2.474   2.679  0.2873  1.2810  0.8820
  265SOL    HW2  795   0.934   2.335   2.599  0.7885 -3.2490 -0.8517
  266SOL     OW  796   1.299   1.761   3.093  0.1963  0.1238 -0.7673
  266SOL    HW1  797   1.289   1.840   3.155  1.3528  1.4277 -0.3427
  266SOL    HW2  798   1.399   1.744   3.081  0.4937  0.2691  0.4389
  267SOL     OW  799   1.016   0.023   2.340  0.2181  0.4643  0.2180
  267SOL    HW1  800   0.975  -0.034   2.263  1.3784  1.0323  1.2653
  267SOL    HW2  801   0.997   0.126   2.333  1.9334 -0.1852  0.2466
  268SOL     OW  802   0.608   1.170   1.035  0.1434 -0.3413  0.5507
  268SOL    HW1  803   0.653   1.175   1.121  0.0820 -1.3689 -2.0934
  268SOL    HW2  804   0.635   1.255   0.977  0.8683 -0.9919 -1.9225
  269SOL     OW  805   2.319   2.567   1.611 -0.5211  0.1924  0.1562
  269SOL    HW1  806   2.384   2.494   1.638 -1.0171 -0.0728 -0.7138
  269SOL    HW2  807   2.275   2.612   1.691 -0.8269  2.8289 -1.1740
  270SOL     OW  808   0.177   2.934   2.004 -0.0224  0.5667 -0.3037
  270SOL    HW1  809   0.187   2.938   1.902 -0.9988 -0.0212 -1.6807
  270SOL    HW2  810   0.104   2.868   2.037 -0.7046 -0.2654  0.7197
  271SOL     OW  811   0.409   1.418   1.192  0.1428  0.0389 -0.0723
  271SOL    HW1  812   0.395   1.383   1.097 -1.3797 -2.8391 -0.1428
  271SOL    HW2  813   0.326   1.397   1.249  1.3192 -1.7206  1.6649
  272SOL     OW  814   2.009   2.906   1.938  0.2637  0.1710  0.1192
  272SOL    HW1  815   1.944   2.864   1.873  5.5317  2.6007  0.6616
  272SOL    HW2  816   2.081   2.966   1.886  0.9600  3.2448 -0.8075
  273SOL     OW  817   1.478   1.426   2.731 -0.2468  0.5052  0.4196
  273SOL    HW1  818   1.376   1.450   2.745  0.8895  0.0704 -0.5115
  273SOL    HW2  819   1.523   1.394   2.821 -1.3593  2.0627  1.1915
  274SOL     OW  820   1.177   0.490   2.064  0.2106  0.3217 -0.5161
  274SOL    HW1  821   1.139   0.393   2.070 -1.6174  1.6405  0.6396
  274SOL    HW2  822   1.227   0.524   2.149 -1.4736 -1.7978  0.9138
  275SOL     OW  823   0.616   2.093   1.881 -0.0962  0.6180 -0.1245
  275SOL    HW1  824   0.572   2.188   1.913  2.1200  0.8601 -0.1629
  275SOL    HW2  825   0.554   2.031   1.825 -1.1258  0.3611  1.2521
  276SOL     OW  826   2.196   1.011   2.725  0.1119  0.7105  0.0910
  276SOL    HW1  827   2.123   1.035   2.659  0.6281 -1.0212 -0.9315
  276SOL    HW2  828   2.171   0.934   2.792  2.3910  0.0161 -0.1283
  277SOL     OW  829   3.089   0.823   0.218  0.2086 -0.5555  0.0298
  277SOL    HW1  830   3.176   0.857   0.178 -0.4803 -1.4084 -0.4866
  277SOL    HW2  831   3.108   0.764   0.299 -0.5238 -0.4129 -1.2182
  278SOL     OW  832   0.243   0.307   3.022 -0.2716  0.5165 -0.7559
  278SOL    HW1  833   0.306   0.225   3.018 -3.4113  0.8883 -0.3036
  278SOL    HW2  834   0.297   0.391   3.037 -0.5325  1.4151 -1.4728
  279SOL     OW  835   0.170   0.096   0.878  0.3874  0.3316  0.4789
  279SOL    HW1  836   0.223   0.053   0.955 -1.3767  0.0505 -0.7830
  279SOL    HW2  837   0.182   0.046   0.788 -0.1676  0.1308 -0.2397
  280SOL     OW  838   1.605   2.910   2.406 -0.1570  0.7674  0.4826
  280SOL    HW1  839   1.657   2.970   2.471  0.2661 -1.3961  1.4746
  280SOL    HW2  840   1.523   2.954   2.366 -1.0780 -2.0887  0.5733
  281SOL     OW  841   0.557   0.948   2.242  0.3186 -0.4260  0.3087
  281SOL    HW1  842   0.556   0.851   2.206  0.7952  1.9474  0.6161
  281SOL    HW2  843   0.497   0.951   2.326 -0.0958 -1.6736  1.1597
  282SOL     OW  844   1.778   2.502   0.514  0.1856  0.0476 -0.0882
  282SOL    HW1  845   1.709   2.446   0.461 -0.6928  0.7041 -1.5686
  282SOL    HW2  846   1.735   2.583   0.564 -0.7238  0.7091  1.6701
  283SOL     OW  847   1.221   0.929   0.838  0.7284 -0.0318 -0.0823
  283SOL    HW1  848   1.240   0.854   0.906 -0.5867 -2.8093 -0.0779
  283SOL    HW2  849   1.136   0.987   0.851 -0.2868  3.1745 -2.1497
  284SOL     OW  850   2.265   2.811   2.537 -0.2399  0.7324 -0.2203
  284SOL    HW1  851   2.356   2.800   2.497 -1.4229 -0.6033  3.3476
  284SOL    HW2  852   2.270   2.875   2.622 -3.0655  3.1112  2.3213
  285SOL     OW  853   1.334   3.028   2.570  0.2329  0.1286 -0.1994
  285SOL    HW1  854   1.374   3.036   2.478 -0.5853 -0.9823  2.0387
  285SOL    HW2  855   1.239   3.065   2.581 -3.0473  1.2045 -0.6928
  286SOL     OW  856   0.444   0.423   0.720 -0.4558 -0.1610 -0.3288
  286SOL    HW1  857   0.386   0.386   0.800  3.0577  0.4358  2.7794
  286SOL    HW2  858   0.446   0.359   0.634 -0.4095  2.1394  0.5675
  287SOL     OW  859   0.097   1.283   2.500 -0.1662 -0.7007  0.3505
  287SOL    HW1  860   0.050   1.213   2.554 -0.8132 -1.0482 -6.2257
  287SOL    HW2  861   0.090   1.383   2.533  0.7487  3.3451 -0.6644
  288SOL     OW  862   1.607   2.655   1.627 -0.2745  0.4546  0.0651
  288SOL    HW1  863   1.616   2.601   1.714 -2.2663  0.5503 -0.9912
  288SOL    HW2  864   1.612   2.597   1.542 -0.2126 -5.3684 -1.8164
  289SOL     OW  865   0.631   2.725   0.882 -0.1228  0.1273 -0.6675
  289SOL    HW1  866   0.671   2.774   0.800  1.9216  0.0822 -0.7889
  289SOL    HW2  867   0.617   2.795   0.959  2.4210 -0.2626 -0.5772
  290SOL     OW  868   2.817   1.126   1.772 -0.1405  0.9646  0.6236
  290SOL    HW1  869   2.738   1.061   1.759 -0.1612 -2.0182  0.3500
  290SOL    HW2  870   2.882   1.101   1.845 -1.2956 -0.6262 -0.4225
  291SOL     OW  871   1.998   0.009   0.015  0.0652 -0.2298 -0.2659
  291SOL    HW1  872   2.006   0.047   0.112 -0.7253  1.6726  1.7134
  291SOL    HW2  873   2.050   0.057  -0.066 -0.1061  0.5099 -0.9253
  292SOL     OW  874   2.999   1.187   3.093  0.4142  0.2276 -0.5057
  292SOL    HW1  875   2.945   1.253   3.039 -0.6526 -0.0239  1.3252
  292SOL    HW2  876   3.071   1.142   3.038  1.0991  0.8931 -2.1270
  293SOL     OW  877   0.540   2.119   0.252 -0.0682 -0.2822  0.5981
  293SOL    HW1  878   0.516   2.196   0.313  1.9108  3.8085 -0.2468
  293SOL    HW2  879   0.642   2.120   0.220  2.3588 -0.8156  1.4729
  294SOL     OW  880   1.830   2.288   1.765  0.1211  0.0344 -0.0328
  294SOL    HW1  881   1.843   2.305   1.870  2.2462 -1.6505 -0.8943
  294SOL    HW2  882   1.797   2.366   1.706 -1.2704  0.1489 -1.6241
  295SOL     OW  883   0.974   1.082   0.418 -0.4143 -0.0776 -0.0153
  295SOL    HW1  884   1.056   1.076   0.488  2.3117 -0.7365  3.0900
  295SOL    HW2  885   0.885   1.099   0.462 -0.0122 -0.6381  1.4180
  296SOL     OW  886   1.166   2.128   2.591  0.5042  0.1321  0.4649
  296SOL    HW1  887   1.080   2.146   2.642  0.2771  1.2988 -2.1619
  296SOL    HW2  888   1.157   2.062   2.506 -1.9521 -2.1765  0.2352
  297SOL     OW  889   1.400   0.631   1.345 -0.1216 -0.0452 -0.7756
  297SOL    HW1  890   1.413   0.544   1.401 -0.6357  2.1341 -0.8955
  297SOL    HW2  891   1.484   0.664   1.293  3.0793  3.2578  1.1071
  298SOL     OW  892   0.508   1.342   2.988 -0.0062  0.6633 -0.3340
  298SOL    HW1  893   0.481   1.279   3.062 -0.8330  0.3179  1.8374
  298SOL    HW2  894   0.540   1.295   2.896 -0.3589  1.3675  1.9240
  299SOL     OW  895   0.464   0.290   1.213  0.0838 -0.4867 -0.1422
  299SOL    HW1  896   0.422   0.384   1.195 -1.1390  2.4471 -1.1792
  299SOL    HW2  897   0.485   0.285   1.316  0.3837  0.1314 -0.6490
  300SOL     OW  898   1.254   1.733   2.685 -0.1105 -1.0861 -0.4471
  300SOL    HW1  899   1.221   1.634   2.714 -0.2895 -1.6472 -1.8129
  300SOL    HW2  900   1.346   1.760   2.724  2.2145 -0.9905 -0.8545
  301SOL     OW  901   0.396   0.285   0.486 -0.3444  0.2867  0.2688
  301SOL    HW1  902   0.295   0.264   0.503 -0.7329 -1.0631  2.0010
  301SOL    HW2  903   0.443   0.218   0.425 -3.1724 -1.9130 -2.4854
  302SOL     OW  904   1.273   2.409   2.369  0.0295  0.1200  0.0945
  302SOL    HW1  905   1.200   2.476   2.394 -2.1579 -0.6818  1.6118
  302SOL    HW2  906   1.311   2.354   2.451  3.3931  2.3927 -2.2833
  303SOL     OW  907   0.951   2.388   0.803  0.2108 -0.0693 -0.2338
  303SOL    HW1  908   0.985   2.435   0.718 -2.4672 -0.8277  1.0330
  303SOL    HW2  909   0.972   2.439   0.891  0.5778 -0.0583  0.5851
  304SOL     OW  910   0.091   1.947   0.666  0.5182  0.2619  0.2073
  304SOL    HW1  911   0.166   1.935   0.593  3.1303 -0.7284 -0.9599
  304SOL    HW2  912   0.020   2.018   0.645 -1.9551 -1.5747  0.6649
  305SOL     OW  913   1.592   0.833   0.639  0.7202 -0.1670  0.6839
  305SOL    HW1  914   1.519   0.829   0.567  0.6085 -0.7673  1.7316
  305SOL    HW2  915   1.649   0.743   0.652 -1.1396 -0.5230 -2.5794
  306SOL     OW  916   0.418   1.883   1.882  0.5516  0.4039 -0.2063
  306SOL    HW1  917   0.453   1.785   1.891  1.8026 -1.2587 -0.3953
  306SOL    HW2  918   0.432   1.935   1.971  0.7337 -0.2105  1.9073
  307SOL     OW  919   3.052   0.886   2.499  0.5562 -0.5340  0.1443
  307SOL    HW1  920   3.076   0.971   2.554 -0.6264 -0.4592  0.5133
  307SOL    HW2  921   2.976   0.832   2.547  0.7501  0.7445 -1.0804
  308SOL     OW  922   1.547   2.670   2.797  0.2294 -0.0390 -0.5681
  308SOL    HW1  923   1.531   2.614   2.715  2.0791 -2.0669  0.6958
  308SOL    HW2  924   1.484   2.634   2.873 -2.1773  1.0406 -0.6253
  309SOL     OW  925   1.291   0.201   1.765 -0.2479  0.3916  0.3561
  309SOL    HW1  926   1.372   0.146   1.796 -2.2282  0.3002  0.0020
  309SOL    HW2  927   1.267   0.173   1.668  0.4681 -1.3741 -0.9649
  310SOL     OW  928   1.532   2.581   0.690 -0.1624 -0.3874 -0.0574
  310SOL    HW1  929   1.505   2.573   0.793  0.2844  2.6018  0.9739
  310SOL    HW2  930   1.600   2.656   0.672  2.0642  0.3999 -1.1261
  311SOL     OW  931   1.163   0.922   1.678 -0.2966 -0.2227  0.3816
  311SOL    HW1  932   1.138   0.846   1.746  0.5672 -0.3364  2.1221
  311SOL    HW2  933   1.212   0.884   1.591 -0.8113 -1.0222 -0.2242
  312SOL     OW  934   1.587   0.733   1.135 -0.8223  0.2156  0.3222
  312SOL    HW1  935   1.607   0.831   1.118 -0.6921  1.6485  1.7980
  312SOL    HW2  936   1.521   0.694   1.064 -2.3856 -0.1902 -2.8929
  313SOL     OW  937   1.574   1.408   0.703  0.0873  0.2569  0.3182
  313SOL    HW1  938   1.492   1.418   0.767  1.9732  2.1803 -2.1363
  313SOL    HW2  939   1.569   1.315   0.650 -0.3797 -0.2279 -4.2892
  314SOL     OW  940   2.965   0.049   3.021  0.2471  0.1088  0.4702
  314SOL    HW1  941   2.970   0.045   3.124  1.2044 -0.5526 -1.5271
  314SOL    HW2  942   2.873   0.008   2.997  1.6019  2.4584  1.0347
  315SOL     OW  943   1.132   0.223   2.823 -0.4679  0.3862  0.0796
  315SOL    HW1  944   1.128   0.148   2.752  0.9497 -0.3937  0.5560
  315SOL    HW2  945   1.171   0.198   2.918 -1.9976  0.6607  3.7793
  316SOL     OW  946   1.769   2.062   0.947  0.0808  0.1379  0.4858
  316SOL    HW1  947   1.746   2.067   1.049  0.6398 -0.0437 -2.4492
  316SOL    HW2  948   1.763   2.154   0.902 -0.9879  2.0082  2.3232
  317SOL     OW  949   1.193   0.684   2.812  0.2888 -0.1353 -0.2451
  317SOL    HW1  950   1.148   0.713   2.900 -0.6906  1.3704 -0.9939
  317SOL    HW2  951   1.156   0.589   2.773  0.6901  0.2274  0.8249
  318SOL     OW  952   1.395   3.030   2.266  0.4996 -0.6194 -0.6444
  318SOL    HW1  953   1.382   3.132   2.247  1.8755  0.4541 -0.9420
  318SOL    HW2  954   1.389   2.976   2.178 -0.1250  1.0503 -2.9647
  319SOL     OW  955   0.589   2.420   2.937 -0.0666 -0.0014 -0.7103
  319SOL    HW1  956   0.535   2.371   3.010  0.6558  0.2726  0.7142
  319SOL    HW2  957   0.665   2.364   2.905 -0.2342  2.9405 -0.3372
  320SOL     OW  958   1.672   2.256   0.403  0.0418 -0.0519 -0.2572
  320SOL    HW1  959   1.733   2.183   0.371  2.3310 -1.1564  2.8575
  320SOL    HW2  960   1.590   2.223   0.464  0.9968 -0.4662 -0.5111
  321SOL     OW  961   1.659   2.775   0.571  0.2097  0.1483  0.0880
  321SOL    HW1  962   1.595   2.831   0.514  3.7196 -2.3597  1.0249
  321SOL    HW2  963   1.754   2.816   0.572 -0.6204  0.2972 -0.1255
  322SOL     OW  964   2.582   1.139   2.336  0.4183 -0.0274 -0.2265
  322SOL    HW1  965   2.650   1.160   2.413 -1.1822  2.0386  2.5778
  322SOL    HW2  966   2.527   1.051   2.357 -1.5804 -2.2574 -0.3993
  323SOL     OW  967   1.202   2.687   0.872 -0.4560 -0.2176  0.2173
  323SOL    HW1  968   1.172   2.653   0.783  1.2974  2.4653  1.2729
  323SOL    HW2  969   1.155   2.779   0.891  2.2772  0.1456 -0.8242
  324SOL     OW  970   0.267   2.425   2.488 -0.1875  0.6562  0.2246
  324SOL    HW1  971   0.297   2.356   2.555  2.7677  1.3293 -1.9816
  324SOL    HW2  972   0.224   2.509   2.525  2.2423 -1.6664  0.6013
  325SOL     OW  973   1.269   3.057   0.450  0.1687  0.4371  0.3410
  325SOL    HW1  974   1.293   3.113   0.369 -1.1395 -0.9852  0.3733
  325SOL    HW2  975   1.275   3.108   0.539 -0.8232 -0.1906 -1.4189
  326SOL     OW  976   2.447   0.785   0.016 -0.2685 -0.2727  0.0101
  326SOL    HW1  977   2.411   0.741  -0.066  0.4401  1.2669  0.5712
  326SOL    HW2  978   2.521   0.722   0.054 -0.7677  0.0125 -2.5444
  327SOL     OW  979   2.826   0.307   0.629 -0.0315 -0.1067  0.0477
  327SOL    HW1  980   2.809   0.271   0.535 -2.5704 -1.5794  3.3177
  327SOL    HW2  981   2.836   0.233   0.705 -1.1578  0.1447 -3.3409
  328SOL     OW  982   2.595   0.563   0.397 -0.3474  0.5677  0.0767
  328SOL    HW1  983   2.561   0.661   0.399  0.6412 -0.8701  1.1785
  328SOL    HW2  984   2.586   0.510   0.490  1.4920  0.0125 -0.7459
  329SOL     OW  985   2.960   2.959   2.164 -0.2145 -0.3523  0.2621
  329SOL    HW1  986   3.047   2.935   2.220  0.0003  1.3786  0.4068
  329SOL    HW2  987   2.944   3.062   2.146 -2.6987 -0.5112 -1.1354
  330SOL     OW  988   0.522   0.217   1.900  0.2534  0.1042 -0.4216
  330SOL    HW1  989   0.607   0.179   1.846  3.7978  2.4332 -3.0252
  330SOL    HW2  990   0.510   0.166   1.991 -2.2433 -0.4228  2.3947
  331SOL     OW  991   2.989   1.956   1.096  0.0883  0.2193  0.4023
  331SOL    HW1  992   2.992   2.061   1.092  3.6008  1.3338  0.1496
  331SOL    HW2  993   2.936   1.924   1.178  2.7327 -0.1530  0.1276
  332SOL     OW  994   0.406   1.167   0.074 -0.0566  0.5494 -0.1414
  332SOL    HW1  995   0.314   1.125   0.081  4.3146  0.0509  1.4227
  332SOL    HW2  996   0.419   1.223   0.159 -0.4832 -0.3550  1.2544
  333SOL     OW  997   2.904   1.048   0.260  0.5957  0.0014 -0.8414
  333SOL    HW1  998   2.931   1.132   0.310 -0.1691  0.8772 -0.4357
  333SOL    HW2  999   2.966   0.972   0.272  0.0249  1.7601  0.9486
  334SOL     OW 1000   1.723   1.274   1.820  0.4651  0.4166  0.1136
  334SOL    HW1 1001   1.810   1.286   1.756  0.2574  0.4480 -1.0095
  334SOL    HW2 1002   1.745   1.295   1.921  0.1397 -1.5282  1.0561
  335SOL     OW 1003   1.997   2.705   2.595  0.3827 -0.1168 -0.2346
  335SOL    HW1 1004   1.939   2.739   2.675 -1.4825  2.7076 -0.5197
  335SOL    HW2 1005   2.095   2.737   2.594  1.2903  1.8060  2.0470
  336SOL     OW 1006   0.232   0.090   2.713  0.5154 -0.0823 -0.2621
  336SOL    HW1 1007   0.294   0.103   2.797 -1.2396 -2.2543 -0.2916
  336SOL    HW2 1008   0.139   0.054   2.744 -0.6798  1.5132  1.5324
  337SOL     OW 1009   1.007   2.879   2.853  1.0047 -0.3704  0.3485
  337SOL    HW1 1010   0.933   2.871   2.920  0.6562  2.5360 -3.0837
  337SOL    HW2 1011   1.080   2.946   2.892 -1.1963  0.9132 -0.9618
  338SOL     OW 1012   0.055   1.018   0.650  0.2080  0.2280  0.2788
  338SOL    HW1 1013  -0.039   0.981   0.675  2.8608 -1.0794  0.8151
  338SOL    HW2 1014   0.060   1.122   0.657  3.6351 -0.2321  1.2733
  339SOL     OW 1015   1.704   1.333   2.093  0.2252 -0.5366 -0.7246
  339SOL    HW1 1016   1.607   1.335   2.137 -0.9275 -2.3727  3.7381
  339SOL    HW2 1017   1.772   1.409   2.126  0.2253 -0.3119  2.9138
  340SOL     OW 1018   2.300   0.797   1.137 -0.3971 -0.4599  0.5788
  340SOL    HW1 1019   2.204   0.820   1.107  1.3249  0.6856  1.7723
  340SOL    HW2 1020   2.324   0.703   1.105  0.0226 -1.7437 -1.0580
  341SOL     OW 1021   1.908   2.097   0.288  0.1935 -0.1037 -0.0523
  341SOL    HW1 1022   1.936   2.124   0.192  2.0853  1.4018  0.5337
  341SOL    HW2 1023   1.990   2.095   0.357  0.3631 -0.1873  2.2685
  342SOL     OW 1024   2.209   2.111   2.797 -0.9113  0.0827  0.1670
  342SOL    HW1 1025   2.267   2.036   2.840 -3.6341  0.1584 -0.4138
  342SOL    HW2 1026   2.113   2.081   2.774  1.3771 -1.3861 -4.7737
  343SOL     OW 1027   0.371   0.831   2.753  0.1306  0.0149  0.6520
  343SOL    HW1 1028   0.429   0.854   2.673  1.5793  0.1035 -0.8807
  343SOL    HW2 1029   0.415   0.875   2.836 -0.3487  0.2849  0.3895
  344SOL     OW 1030   1.944   1.464   0.435  0.2281  0.5412  0.2256
  344SOL    HW1 1031   1.955   1.392   0.358  1.0850 -0.0458  0.5677
  344SOL    HW2 1032   1.846   1.484   0.465 -0.2397 -0.0939 -0.9863
  345SOL     OW 1033   1.405   2.251   2.918  0.5115  0.2773 -0.4113
  345SOL    HW1 1034   1.318   2.234   2.866 -1.6001  1.5754  0.2724
  345SOL    HW2 1035   1.485   2.192   2.891  0.2146 -0.2099  0.9188
  346SOL     OW 1036   2.343   0.897   1.400  0.2143 -0.3316 -0.2648
  346SOL    HW1 1037   2.312   0.992   1.435 -0.4759  0.2740  0.6701
  346SOL    HW2 1038   2.332   0.886   1.298 -2.5799  1.6952  2.3633
  347SOL     OW 1039   0.740   2.730   1.604  0.3934 -0.2068  0.2849
  347SOL    HW1 1040   0.685   2.724   1.689  1.8025 -1.3151 -0.0315
  347SOL    HW2 1041   0.689   2.788   1.532 -2.3549  0.4201  1.8867
  348SOL     OW 1042   0.169   0.706   2.919 -0.1858  0.2137  0.0148
  348SOL    HW1 1043   0.082   0.696   2.872  2.3495 -1.6631  2.9879
  348SOL    HW2 1044   0.250   0.722   2.856 -0.9661  0.0443  0.1278
  349SOL     OW 1045   1.859   0.462   2.799  0.2806 -0.5216  0.1799
  349SOL    HW1 1046   1.857   0.543   2.734 -0.0940 -3.2733 -2.6603
  349SOL    HW2 1047   1.844   0.496   2.897  0.7694  1.1775 -3.6692
  350SOL     OW 1048   1.656   0.431   0.389 -0.2175 -0.0875 -0.0410
  350SOL    HW1 1049   1.743   0.437   0.449 -0.1966  0.6746  2.9380
  350SOL    HW2 1050   1.628   0.522   0.341 -1.2156  0.6647 -1.2940
  351SOL     OW 1051   0.977   0.796   2.138  0.1908  0.3413 -0.6393
  351SOL    HW1 1052   1.052   0.853   2.179 -1.8994 -0.1630  0.1137
  351SOL    HW2 1053   0.994   0.772   2.038 -1.1072 -0.8180 -2.2651
  352SOL     OW 1054   2.025   1.317   0.648  0.6110  0.8281 -0.0730
  352SOL    HW1 1055   1.997   1.382   0.567 -0.5272 -1.5729 -0.0411
  352SOL    HW2 1056   1.952   1.333   0.722 -0.9075  3.0086  0.9688
  353SOL     OW 1057   2.158   2.778   1.095 -0.6083 -0.0113  0.6272
  353SOL    HW1 1058   2.204   2.744   1.187 -0.1488  1.8516  1.5173
  353SOL    HW2 1059   2.062   2.730   1.091 -0.5550  1.0056  1.1263
  354SOL     OW 1060   0.254   1.359   2.888 -0.3733  0.1258 -0.4495
  354SOL    HW1 1061   0.239   1.436   2.819 -0.4459  2.0696  0.1677
  354SOL    HW2 1062   0.345   1.353   2.933  1.2850 -0.8454  0.0989
  355SOL     OW 1063   0.699   1.594   0.595 -0.1560 -0.0419 -0.2140
  355SOL    HW1 1064   0.724   1.538   0.680  0.2174  1.8653 -0.4301
  355SOL    HW2 1065   0.690   1.529   0.511  1.3682 -0.2447 -2.0140
  356SOL     OW 1066   0.812   0.344   2.043 -0.1775 -0.0656  0.0401
  356SOL    HW1 1067   0.914   0.311   2.020  1.4785 -0.0948 -1.3831
  356SOL    HW2 1068   0.745   0.338   1.961 -3.3661 -0.6419 -2.3164
  357SOL     OW 1069   1.020   1.334   0.324  0.3918 -0.5181 -0.6718
  357SOL    HW1 1070   1.108   1.327   0.267  2.1456  0.0826 -1.3994
  357SOL    HW2 1071   0.997   1.250   0.378  1.3622 -1.9962  0.9038
  358SOL     OW 1072   1.682   1.547   0.487 -0.5454  0.0864 -0.0747
  358SOL    HW1 1073   1.652   1.494   0.569 -0.1519 -0.9811 -1.7038
  358SOL    HW2 1074   1.612   1.545   0.417  0.4392  3.5190  0.0232
  359SOL     OW 1075   1.572   2.644   0.209 -0.0249 -0.1913  0.2130
  359SOL    HW1 1076   1.545   2.567   0.153  0.4153  2.2934 -0.2337
  359SOL    HW2 1077   1.499   2.681   0.278 -1.8326  0.1745 -0.3805
  360SOL     OW 1078   0.788   0.587   0.525 -0.1366 -0.0869 -0.2442
  360SOL    HW1 1079   0.688   0.584   0.515  1.6558 -0.6540  0.3084
  360SOL    HW2 1080   0.826   0.491   0.535 -0.9807  3.0398  0.2071
  361SOL     OW 1081   1.241   1.295   0.675  0.4012  0.1645 -0.4099
  361SOL    HW1 1082   1.297   1.371   0.711 -1.3992 -0.8313  0.5125
  361SOL    HW2 1083   1.143   1.309   0.700  1.8106  0.0760 -0.0923
  362SOL     OW 1084   1.391   1.825   0.829 -0.4897 -0.4056 -0.1424
  362SOL    HW1 1085   1.455   1.765   0.884 -0.9962  0.6188  0.3768
  362SOL    HW2 1086   1.449   1.892   0.775 -1.2428 -1.0854  0.0038
  363SOL     OW 1087   1.219   1.319   2.049  0.1577  0.4190  0.1703
  363SOL    HW1 1088   1.313   1.350   2.083 -0.8479  2.3124 -2.3012
  363SOL    HW2 1089   1.196   1.369   1.960  2.8636  1.2777  1.5534
  364SOL     OW 1090   0.528   2.331   1.980  0.1682 -0.3326 -0.2995
  364SOL    HW1 1091   0.441   2.377   1.951  1.4298 -1.5997  0.1717
  364SOL    HW2 1092   0.614   2.374   1.941  1.4228 -1.2797 -0.1592
  365SOL     OW 1093   0.993   1.966   1.343 -0.4848  0.1238 -0.1991
  365SOL    HW1 1094   0.894   1.971   1.376 -0.0668  0.2865 -0.1853
  365SOL    HW2 1095   0.997   1.923   1.250  0.0366  3.0587  0.7448
  366SOL     OW 1096   2.834   1.966   0.397 -0.5096 -0.7042 -0.1284
  366SOL    HW1 1097   2.740   1.943   0.435  3.4424 -3.1120 -0.7998
  366SOL    HW2 1098   2.863   1.905   0.318  0.0220  0.1209  0.1227
  367SOL     OW 1099   0.884   1.123   0.012  0.0862  0.9530 -1.0578
  367SOL    HW1 1100   0.902   1.041   0.072 -0.9921  1.9748 -2.2811
  367SOL    HW2 1101   0.958   1.194   0.009  0.9676  1.4057  0.6251
  368SOL     OW 1102   1.440   0.577   0.679 -0.0122 -0.4135 -0.6985
  368SOL    HW1 1103   1.380   0.571   0.594 -1.0862 -2.1623  1.3260
  368SOL    HW2 1104   1.544   0.576   0.678 -0.6340  0.4200  1.6732
  369SOL     OW 1105   0.359   1.683   0.085  0.0281 -0.2729  0.4515
  369SOL    HW1 1106   0.388   1.770   0.139 -0.2834  1.8820  2.7176
  369SOL    HW2 1107   0.297   1.623   0.148  0.4053 -1.1166  1.3671
  370SOL     OW 1108   0.424   2.045   1.008 -0.4483 -0.5154  0.6395
  370SOL    HW1 1109   0.442   2.147   0.997  1.8172 -1.4294  0.7540
  370SOL    HW2 1110   0.323   2.015   0.988  1.0881  2.8110 -1.2844
  371SOL     OW 1111   2.926   2.210   2.637 -0.4880  0.0737  0.3710
  371SOL    HW1 1112   2.851   2.176   2.700  1.9293 -1.1157 -3.1723
  371SOL    HW2 1113   3.015   2.225   2.685 -2.4385 -2.3800  1.4228
  372SOL     OW 1114   1.054   2.017   1.054 -0.6612 -0.0376 -0.2275
  372SOL    HW1 1115   0.977   2.043   0.986 -2.3593  0.0726 -0.7598
  372SOL    HW2 1116   1.133   2.085   1.054  0.5271 -0.0532  0.7997
  373SOL     OW 1117   2.002   1.963   0.842 -0.0398 -0.1784 -0.1677
  373SOL    HW1 1118   2.075   1.968   0.917 -1.3369  0.6983  2.5951
  373SOL    HW2 1119   1.915   2.007   0.876  1.2276  2.3523  2.7034
  374SOL     OW 1120   1.871   0.400   0.577 -0.2892 -0.0460  0.0413
  374SOL    HW1 1121   1.865   0.306   0.620 -1.7695 -0.0211 -1.4651
  374SOL    HW2 1122   1.975   0.436   0.562  1.8527  2.4571 -1.6437
  375SOL     OW 1123   2.382   2.145   1.090  0.5018 -0.2196 -0.4096
  375SOL    HW1 1124   2.433   2.142   0.999 -0.2892  3.0401  0.0742
  375SOL    HW2 1125   2.442   2.107   1.171  2.3311 -0.3258 -2.5713
  376SOL     OW 1126   3.079   0.572   1.489 -0.7829  0.0209 -0.0985
  376SOL    HW1 1127   3.095   0.648   1.561  0.3695  0.0676  1.1045
  376SOL    HW2 1128   2.998   0.513   1.505 -1.0151 -2.3725  1.3033
  377SOL     OW 1129   2.197   2.919   0.285 -0.4964  0.3967 -0.4227
  377SOL    HW1 1130   2.188   3.016   0.312 -3.2621 -0.6135 -2.4364
  377SOL    HW2 1131   2.289   2.880   0.317  0.0536  1.0723  2.4739
  378SOL     OW 1132   1.816   1.856   2.628 -0.7822 -0.1400 -0.1769
  378SOL    HW1 1133   1.832   1.779   2.691  0.8121  2.9518  1.4418
  378SOL    HW2 1134   1.841   1.845   2.528  0.7695  0.7462 -0.8941
  379SOL     OW 1135   0.702   0.111   2.880 -0.1856 -0.3849  0.0642
  379SOL    HW1 1136   0.639   0.047   2.833  2.1341  0.2559  4.0124
  379SOL    HW2 1137   0.730   0.184   2.812 -0.4446  0.4451 -0.3081
  380SOL     OW 1138   1.507   1.141   0.617  0.3662 -0.2036  0.2770
  380SOL    HW1 1139   1.417   1.167   0.572  1.2492  0.1710  0.6443
  380SOL    HW2 1140   1.505   1.043   0.636 -0.6323  0.3854 -0.2869
  381SOL     OW 1141   1.351   1.174   1.520 -0.6386  0.4657  0.3183
  381SOL    HW1 1142   1.391   1.134   1.433 -0.6433 -0.5249  0.7824
  381SOL    HW2 1143   1.382   1.116   1.600 -2.7274  0.0202 -1.7788
  382SOL     OW 1144   1.774   0.860   0.181 -0.1942  0.0043 -0.2114
  382SOL    HW1 1145   1.804   0.845   0.081  0.3582  0.2328  0.2702
  382SOL    HW2 1146   1.846   0.905   0.244  1.6063 -0.7279  0.3197
  383SOL     OW 1147   2.602   1.027   1.463  0.2033  0.4448 -0.1604
  383SOL    HW1 1148   2.525   0.958   1.442 -2.7455 -1.9375  0.6715
  383SOL    HW2 1149   2.683   1.012   1.406 -1.7073  3.1358 -1.9885
  384SOL     OW 1150   0.977   2.284   0.127  0.6125 -0.5046 -0.4881
  384SOL    HW1 1151   0.915   2.368   0.137  0.6631  0.8856 -0.5394
  384SOL    HW2 1152   0.947   2.201   0.187  1.5893  0.2944  3.5926
  385SOL     OW 1153   3.035   2.053   1.641 -0.4737  0.4621  0.0468
  385SOL    HW1 1154   3.119   2.104   1.645 -0.9394 -2.9538 -0.2273
  385SOL    HW2 1155   3.053   1.951   1.643  1.4055  0.3115 -1.4764
  386SOL     OW 1156   0.486   1.098   0.409 -0.5259 -0.6810  0.4053
  386SOL    HW1 1157   0.469   0.996   0.419  2.0408 -1.0716  2.1696
  386SOL    HW2 1158   0.405   1.158   0.386  0.9991 -3.1707  0.4345
  387SOL     OW 1159   0.963   0.295   1.647  0.3993 -0.1294  0.7649
  387SOL    HW1 1160   1.002   0.390   1.638  0.7217 -2.3069  2.3377
  387SOL    HW2 1161   0.947   0.245   1.558 -0.6073  0.4561 -0.4899
  388SOL     OW 1162   1.197   2.677   1.730  0.1256  0.5277 -0.2571
  388SOL    HW1 1163   1.204   2.710   1.632 -1.4158  0.8902 -0.2291
  388SOL    HW2 1164   1.253   2.594   1.759  0.8144  1.5663  1.2987
  389SOL     OW 1165   0.190   2.974   1.101  0.2859  0.7837  0.4969
  389SOL    HW1 1166   0.091   2.985   1.123  1.5670  3.0048  1.6519
  389SOL    HW2 1167   0.227   2.880   1.111  3.1715 -1.1280 -0.0868
  390SOL     OW 1168   1.017   0.942   1.356 -0.1941  0.0298  0.0234
  390SOL    HW1 1169   1.117   0.916   1.372  0.7485  0.8701 -0.7963
  390SOL    HW2 1170   0.994   1.035   1.404 -1.0196  2.2233  0.7933
  391SOL     OW 1171   2.140   1.085   1.075  0.3331  0.0078  0.0279
  391SOL    HW1 1172   2.058   1.031   1.081  1.7106  0.0766 -0.3045
  391SOL    HW2 1173   2.198   1.049   0.994  2.1033 -0.3256  0.7152
  392SOL     OW 1174   0.864   2.750   3.096 -0.0006  0.5395  0.5892
  392SOL    HW1 1175   0.882   2.655   3.131  1.2157 -1.6116 -0.9776
  392SOL    HW2 1176   0.938   2.810   3.122 -2.6855 -0.3668  1.0911
  393SOL     OW 1177   0.327   0.528   2.003  0.3151  0.3716  0.4938
  393SOL    HW1 1178   0.256   0.466   1.968  4.1224 -1.9830  0.1348
  393SOL    HW2 1179   0.415   0.532   1.941  0.6421 -1.1684  1.0659
  394SOL     OW 1180   3.065   1.820   2.815  0.6324  0.2559  0.1327
  394SOL    HW1 1181   3.143   1.790   2.876 -0.0478  0.4905 -2.3663
  394SOL    HW2 1182   3.083   1.915   2.777  0.6980  2.0995  0.5364
  395SOL     OW 1183   1.618   1.933   0.684  0.1024  0.6103  0.0487
  395SOL    HW1 1184   1.666   1.861   0.623 -0.1894  0.9807 -1.3519
  395SOL    HW2 1185   1.686   1.971   0.755  1.2085  2.9013 -0.6606
  396SOL     OW 1186   2.827   1.877   1.303  0.6247 -0.2681 -0.5861
  396SOL    HW1 1187   2.829   1.779   1.327 -0.9968  1.1558 -1.6086
  396SOL    HW2 1188   2.815   1.936   1.393  0.1224 -2.7460 -1.1547
  397SOL     OW 1189   1.040   2.246   0.508 -0.0033 -0.0351 -0.0656
  397SOL    HW1 1190   0.943   2.222   0.524  2.6414 -1.5187 -0.7256
  397SOL    HW2 1191   1.066   2.348   0.530 -0.4902  1.5427  0.6555
  398SOL     OW 1192   2.123   3.050   1.024  0.3965 -0.1358 -0.7094
  398SOL    HW1 1193   2.136   2.954   1.058  1.6084 -0.3513 -1.1366
  398SOL    HW2 1194   2.051   3.103   1.084  1.9845 -2.5610 -0.6730
  399SOL     OW 1195   3.012   2.526   2.553  0.4429  0.0739 -0.5486
  399SOL    HW1 1196   2.907   2.514   2.566  1.6816 -0.0671 -0.9225
  399SOL    HW2 1197   3.059   2.433   2.538  1.9996 -3.7061 -0.7582
  400SOL     OW 1198   0.776   1.627   1.331  0.1234  0.0203  0.5598
  400SOL    HW1 1199   0.766   1.658   1.427 -0.3386 -3.7041 -1.6057
  400SOL    HW2 1200   0.718   1.687   1.268 -3.9928 -0.5329 -0.1189
  401SOL     OW 1201   1.801   0.081   1.376 -0.2560 -0.0267 -0.6191
  401SOL    HW1 1202   1.864   0.067   1.458 -0.4676  2.0960 -1.7577
  401SOL    HW2 1203   1.702   0.093   1.407  0.3873  1.2580  1.7312
  402SOL     OW 1204   1.319   0.133   3.032  0.1635  0.2861  0.3958
  402SOL    HW1 1205   1.413   0.128   2.980  0.8479 -0.6771  0.3440
  402SOL    HW2 1206   1.306   0.232   3.060 -0.8145  1.7341  0.0786
  403SOL     OW 1207   2.316   1.790   0.885  0.0849 -0.4696 -0.1345
  403SOL    HW1 1208   2.417   1.806   0.895 -1.4705  0.0761  1.1201
  403SOL    HW2 1209   2.251   1.850   0.943  1.9582  0.8052 -1.1622
  404SOL     OW 1210   0.183   2.497   2.818  0.3396  0.7475 -0.2693
  404SOL    HW1 1211   0.270   2.450   2.786  1.5289 -2.3077  1.6155
  404SOL    HW2 1212   0.193   2.601   2.834 -2.5573  0.1790  0.5320
  405SOL     OW 1213   0.161   2.398   0.655  0.2650  0.5260  0.4606
  405SOL    HW1 1214   0.144   2.331   0.575 -0.4751 -2.5512  1.5483
  405SOL    HW2 1215   0.192   2.492   0.618 -2.4409 -0.3495 -0.5568
  406SOL     OW 1216  -0.004   1.480   3.014 -0.0478  0.2017  0.6630
  406SOL    HW1 1217   0.073   1.427   2.967  2.4808 -0.8625 -0.6780
  406SOL    HW2 1218   0.026   1.570   3.060 -1.3394  0.1219 -3.0760
  407SOL     OW 1219   1.579   0.966   0.898 -0.5696  0.1223 -0.1545
  407SOL    HW1 1220   1.558   0.901   0.820  2.1503  0.6248 -1.6103
  407SOL    HW2 1221   1.495   1.006   0.941  2.5914 -0.8304 -4.9152
  408SOL     OW 1222   1.589   2.322   0.934 -0.3073 -0.2840  0.0676
  408SOL    HW1 1223   1.638   2.312   0.842 -2.1705 -0.5470  2.2567
  408SOL    HW2 1224   1.519   2.400   0.935  0.0387  3.2569  0.7198
  409SOL     OW 1225   0.669   0.841   0.687 -0.7067  0.4897 -0.5236
  409SOL    HW1 1226   0.594   0.849   0.616  0.7017 -1.8222 -0.0401
  409SOL    HW2 1227   0.677   0.748   0.733 -0.0173 -2.4790  0.3176
  410SOL     OW 1228   1.250   2.049   1.444  0.4422  0.3038 -0.0763
  410SOL    HW1 1229   1.306   1.996   1.520 -0.0465 -0.2023  2.2710
  410SOL    HW2 1230   1.166   2.000   1.413 -0.9074 -1.8492 -2.4665
  411SOL     OW 1231   2.503   1.855   0.015 -0.0791  0.0179 -0.5222
  411SOL    HW1 1232   2.413   1.871  -0.032  0.7533 -0.1110 -0.4927
  411SOL    HW2 1233   2.580   1.843  -0.051  1.0712 -0.2429  0.3720
  412SOL     OW 1234   1.459   2.539   2.189  0.2222 -0.8354  0.0801
  412SOL    HW1 1235   1.480   2.640   2.191 -0.9455 -2.1862 -0.3574
  412SOL    HW2 1236   1.389   2.510   2.262  0.0632 -0.7733 -0.1134
  413SOL     OW 1237   3.080   0.276   2.963 -0.0453 -0.0521 -0.2198
  413SOL    HW1 1238   3.035   0.182   2.981 -0.4463  0.2382  3.7263
  413SOL    HW2 1239   3.183   0.286   2.995 -0.6660 -0.0550  2.7473
  414SOL     OW 1240   1.828   1.470   1.230  0.0018  0.4501 -0.0596
  414SOL    HW1 1241   1.765   1.520   1.300 -1.3220  2.6146  2.4033
  414SOL    HW2 1242   1.796   1.374   1.199 -0.4733  1.6456  0.8494
  415SOL     OW 1243   0.308   2.172   0.738  0.3304 -0.2405 -0.1507
  415SOL    HW1 1244   0.260   2.263   0.713 -0.4587 -2.2646 -1.1162
  415SOL    HW2 1245   0.281   2.139   0.829  0.5916  0.7156  1.2127
  416SOL     OW 1246   0.334   1.014   1.032 -0.0662 -0.4936  0.0078
  416SOL    HW1 1247   0.302   0.955   0.950  0.0542  0.0166 -0.5362
  416SOL    HW2 1248   0.435   1.028   1.026 -2.8498  1.0443 -0.0576
  417SOL     OW 1249   2.157   2.284   1.927  0.4745  0.1095  0.1500
  417SOL    HW1 1250   2.203   2.215   1.987  0.4506  0.9911 -0.6836
  417SOL    HW2 1251   2.087   2.241   1.861 -0.3116 -2.1033  0.3290
  418SOL     OW 1252   1.128   0.507   1.332 -0.3776 -0.0866  0.0982
  418SOL    HW1 1253   1.082   0.454   1.255  0.9850  1.0165  0.5813
  418SOL    HW2 1254   1.228   0.547   1.310  2.7684  0.4688 -0.6124
  419SOL     OW 1255   0.934   0.398   3.009 -0.4067  0.5147 -0.5306
  419SOL    HW1 1256   0.936   0.392   2.908 -0.9853 -0.7688 -1.4946
  419SOL    HW2 1257   0.913   0.494   3.033  3.1048 -0.3195  1.2205
  420SOL     OW 1258   0.085   2.266   0.432 -0.6469 -0.2388 -0.0176
  420SOL    HW1 1259   0.094   2.255   0.330  0.3547  0.0015  0.4125
  420SOL    HW2 1260   0.009   2.210   0.474 -0.3007 -0.8119  0.6763
  421SOL     OW 1261   0.358   2.951   0.702  0.6519  0.8075 -0.1139
  421SOL    HW1 1262   0.354   2.880   0.771  2.5250  2.8041  0.0588
  421SOL    HW2 1263   0.448   3.002   0.693  0.1101 -1.8118 -1.7581
  422SOL     OW 1264   1.030   2.526   1.020  0.5061 -0.4162  0.0500
  422SOL    HW1 1265   1.066   2.613   0.977  1.2186 -0.3387  2.2323
  422SOL    HW2 1266   1.002   2.551   1.116 -1.9161 -0.4240  1.0812
  423SOL     OW 1267   0.090   0.675   1.258 -0.4842 -0.0949  0.0034
  423SOL    HW1 1268   0.048   0.625   1.342 -1.6892  1.9998  1.2978
  423SOL    HW2 1269   0.031   0.763   1.229 -0.5142  2.6348 -3.2128
  424SOL     OW 1270   1.023   2.222   2.047 -0.3284 -0.0421 -0.5225
  424SOL    HW1 1271   1.013   2.324   2.024  0.3911  0.1317 -2.6525
  424SOL    HW2 1272   1.035   2.201   2.147  0.8073 -1.9756 -2.7420
  425SOL     OW 1273   1.986   1.390   0.973 -0.0171 -0.5983  0.2097
  425SOL    HW1 1274   2.031   1.335   1.051 -1.1403 -2.0852 -1.8509
  425SOL    HW2 1275   2.057   1.454   0.926 -0.0647 -0.2860 -1.3422
  426SOL     OW 1276   1.551   1.594   1.378 -0.4268  0.5295  0.0956
  426SOL    HW1 1277   1.533   1.666   1.300  0.2509  0.8053  0.6629
  426SOL    HW2 1278   1.479   1.599   1.449  0.0082 -1.9507 -0.7316
  427SOL     OW 1279   1.870   2.361   2.042  0.1820  0.7954  0.1687
  427SOL    HW1 1280   1.922   2.290   2.103  0.9599 -1.2682  0.7843
  427SOL    HW2 1281   1.890   2.458   2.072  2.1788  1.1920 -1.4184
  428SOL     OW 1282   0.851   2.980   0.194  0.8079 -0.0474  0.1174
  428SOL    HW1 1283   0.869   3.076   0.161  1.2777 -1.9838  1.0454
  428SOL    HW2 1284   0.936   2.923   0.172 -0.3955 -0.1221 -0.3845
  429SOL     OW 1285   1.328   0.079   0.210  0.1268 -0.3105 -0.3052
  429SOL    HW1 1286   1.417   0.123   0.241 -1.4801 -1.4084 -0.7272
  429SOL    HW2 1287   1.312   0.078   0.108  1.0942 -0.4626 -0.1570
  430SOL     OW 1288   2.828   1.410   0.362  0.4502 -0.4070 -1.1132
  430SOL    HW1 1289   2.862   1.465   0.277 -1.2714  2.6888  0.4848
  430SOL    HW2 1290   2.781   1.471   0.426 -0.8166 -2.1774 -1.4160
  431SOL     OW 1291   2.155   1.571   0.838 -0.4405  0.0115  0.5493
  431SOL    HW1 1292   2.229   1.643   0.866  1.3446  1.3003 -0.0957
  431SOL    HW2 1293   2.072   1.613   0.793 -1.7944  0.2064 -0.9665
  432SOL     OW 1294   2.903   2.252   1.204 -0.1342 -0.2581  0.0812
  432SOL    HW1 1295   2.823   2.182   1.207 -0.2101  1.0836 -3.6990
  432SOL    HW2 1296   2.947   2.272   1.296 -1.1200  0.9884 -1.0773
  433SOL     OW 1297   1.951   0.401   0.867  0.4265  0.0161 -0.2161
  433SOL    HW1 1298   1.871   0.354   0.907 -1.0097  0.5208  0.7557
  433SOL    HW2 1299   2.014   0.447   0.933 -3.2616  1.2855 -0.7886
  434SOL     OW 1300   1.534   0.284   0.768 -0.2468 -0.2077 -0.6827
  434SOL    HW1 1301   1.503   0.383   0.769 -1.6903  0.2638 -1.3634
  434SOL    HW2 1302   1.584   0.270   0.852 -1.3656  1.3773 -1.4610
  435SOL     OW 1303   1.438   1.454   2.166  0.1508  0.4203 -0.6714
  435SOL    HW1 1304   1.361   1.473   2.227  3.4463 -4.6749  1.4006
  435SOL    HW2 1305   1.458   1.526   2.089  0.4428 -0.3859 -0.9010
  436SOL     OW 1306   1.672   2.745   2.212  0.3903 -0.2999 -0.3411
  436SOL    HW1 1307   1.637   2.820   2.279 -0.6562  1.6203  1.1369
  436SOL    HW2 1308   1.692   2.658   2.265 -1.9272 -1.3558 -0.6995
  437SOL     OW 1309   1.046   2.918   0.924  0.0140  0.2939  0.3634
  437SOL    HW1 1310   1.006   3.008   0.891 -0.9177 -2.9819 -0.1168
  437SOL    HW2 1311   1.015   2.904   1.021  1.4422 -4.3724 -1.2529
  438SOL     OW 1312   1.038   2.572   1.300 -0.1194 -0.3934 -0.8784
  438SOL    HW1 1313   1.096   2.610   1.375 -2.4779 -1.3188  1.9065
  438SOL    HW2 1314   1.017   2.469   1.318 -0.7661  0.2112 -0.8512
  439SOL     OW 1315   0.686   1.705   1.066 -0.0022  0.2965 -0.1778
  439SOL    HW1 1316   0.698   1.789   1.006 -0.5003  2.4242  1.4275
  439SOL    HW2 1317   0.585   1.695   1.089 -0.2453  1.4371 -0.1297
  440SOL     OW 1318   0.987   2.496   1.968 -0.1511 -0.2726  0.2524
  440SOL    HW1 1319   0.952   2.517   1.871 -2.2273 -0.4076 -1.3386
  440SOL    HW2 1320   1.087   2.506   1.983 -2.7826  1.4570  1.0864
  441SOL     OW 1321   0.448   2.733   1.368  0.1463 -0.3568 -0.1642
  441SOL    HW1 1322   0.460   2.647   1.426  0.0607 -1.2219  1.6875
  441SOL    HW2 1323   0.359   2.740   1.317  4.4536 -0.7555  0.0254
  442SOL     OW 1324   2.351   0.652   2.443  0.3425 -0.0804 -0.7132
  442SOL    HW1 1325   2.358   0.549   2.470 -1.4713 -0.3050 -2.1649
  442SOL    HW2 1326   2.259   0.694   2.460  0.1261 -0.7690  1.2394
  443SOL     OW 1327   1.239   2.729   2.169  0.3957  0.3520  0.0300
  443SOL    HW1 1328   1.230   2.772   2.263 -2.9000 -0.5035 -1.6351
  443SOL    HW2 1329   1.262   2.623   2.167  1.2019 -3.0303 -3.3751
  444SOL     OW 1330   1.122   1.301   1.601  0.0282 -0.6194 -0.1267
  444SOL    HW1 1331   1.209   1.253   1.559  0.6687 -0.4136 -0.5542
  444SOL    HW2 1332   1.138   1.352   1.690  1.4940  0.5612 -1.5240
  445SOL     OW 1333   0.012   2.395   1.869  0.7331 -0.0034 -0.1082
  445SOL    HW1 1334  -0.026   2.480   1.829 -0.5510 -2.9158 -3.9914
  445SOL    HW2 1335  -0.063   2.337   1.901  0.1363 -1.5655 -1.0918
  446SOL     OW 1336   0.276   1.915   2.347  0.2164  0.3782 -0.4638
  446SOL    HW1 1337   0.237   2.009   2.352 -2.0192  0.4727 -1.5513
  446SOL    HW2 1338   0.208   1.854   2.311  2.1711  2.8720 -0.5554
  447SOL     OW 1339   1.211   1.717   1.923 -0.4492  0.2174 -0.2802
  447SOL    HW1 1340   1.118   1.762   1.904 -1.0847  0.8909  0.0618
  447SOL    HW2 1341   1.269   1.782   1.975 -2.0555 -0.4068  0.4058
  448SOL     OW 1342   0.111   1.502   1.995 -0.3203  0.5429 -0.1917
  448SOL    HW1 1343   0.135   1.599   1.972  1.3458 -2.3184 -0.8620
  448SOL    HW2 1344   0.057   1.494   2.079  0.8987  1.7284 -0.8323
  449SOL     OW 1345   1.881   2.976   0.855  0.1585 -0.3935 -0.1568
  449SOL    HW1 1346   1.917   2.983   0.955  2.3153 -1.0244  0.0462
  449SOL    HW2 1347   1.901   2.881   0.811  0.4526 -1.0215  1.2695
  450SOL     OW 1348   2.362   1.429   0.722 -0.5987 -0.4116  0.0083
  450SOL    HW1 1349   2.281   1.459   0.776  1.8362  0.9099 -0.7139
  450SOL    HW2 1350   2.383   1.497   0.645  0.7051 -0.2988  0.7884
  451SOL     OW 1351   1.375   2.980   1.455 -0.1704  0.0132  0.2354
  451SOL    HW1 1352   1.309   3.057   1.461 -0.4864 -0.7662  1.5455
  451SOL    HW2 1353   1.388   2.940   1.551 -0.7491 -2.2998 -0.0325
  452SOL     OW 1354   2.698   2.298   2.167  0.0749 -0.0411  0.0506
  452SOL    HW1 1355   2.632   2.376   2.188 -0.2428 -2.9480  0.1455
  452SOL    HW2 1356   2.755   2.263   2.248  0.2306 -1.3440 -1.4424
  453SOL     OW 1357   2.489   2.646   0.014 -0.3598 -0.1408 -0.6046
  453SOL    HW1 1358   2.407   2.697   0.046  2.2692  0.5833 -1.0311
  453SOL    HW2 1359   2.473   2.574  -0.057  0.9962  0.7328  4.2829
  454SOL     OW 1360   0.996   1.159   2.107  0.4758  0.1162  0.2316
  454SOL    HW1 1361   0.954   1.149   2.013  1.8476 -1.0407 -0.7436
  454SOL    HW2 1362   1.077   1.221   2.110 -1.0168  1.8703  1.1142
  455SOL     OW 1363   0.640   2.690   2.937 -0.3603  0.3654 -0.3549
  455SOL    HW1 1364   0.723   2.723   2.995 -0.1948 -1.6754 -0.1191
  455SOL    HW2 1365   0.625   2.586   2.934 -0.3579 -2.4075  1.9717
  456SOL     OW 1366   0.465   1.871   0.268  0.3064  0.2527  0.8206
  456SOL    HW1 1367   0.532   1.831   0.333  1.2438 -0.4891 -0.9412
  456SOL    HW2 1368   0.479   1.974   0.258  0.3448 -0.6380 -0.8634
  457SOL     OW 1369   0.289   2.657   0.639 -0.4665 -0.2636  0.2079
  457SOL    HW1 1370   0.270   2.738   0.578 -3.2369  1.5483  0.6463
  457SOL    HW2 1371   0.385   2.649   0.657 -1.1921 -0.2154 -1.1499
  458SOL     OW 1372   2.941   3.052   1.230  0.4085 -0.2528 -0.6273
  458SOL    HW1 1373   2.992   3.137   1.252 -0.3860  0.2646  0.2789
  458SOL    HW2 1374   2.942   3.020   1.132 -2.4423 -0.7572  0.0173
  459SOL     OW 1375   2.185   2.574   0.790  0.7039 -0.1557 -0.7683
  459SOL    HW1 1376   2.217   2.663   0.832 -1.3331 -0.3296  0.4004
  459SOL    HW2 1377   2.244   2.538   0.713 -2.3596  0.6954 -1.2779
  460SOL     OW 1378   1.209   2.005   2.844 -0.6212 -0.0655  0.3138
  460SOL    HW1 1379   1.223   2.047   2.748 -0.9661 -2.0283 -0.3492
  460SOL    HW2 1380   1.260   1.916   2.856 -1.8587  1.2715 -0.7792
  461SOL     OW 1381   0.554   2.089   2.660 -0.0721 -0.3948  0.4678
  461SOL    HW1 1382   0.483   2.014   2.644 -0.7758  0.0108 -2.3476
  461SOL    HW2 1383   0.586   2.101   2.757  0.9122  0.0998  3.2242
  462SOL     OW 1384   0.967   1.148   1.825  0.3417 -0.2901  0.0911
  462SOL    HW1 1385   1.043   1.136   1.751 -1.6614  0.2705 -0.6738
  462SOL    HW2 1386   0.900   1.228   1.790 -2.4285  1.1141 -1.3003
  463SOL     OW 1387   0.462   0.829   0.458  0.0398 -0.5824  0.1144
  463SOL    HW1 1388   0.491   0.731   0.471 -0.9290  1.2715 -1.4528
  463SOL    HW2 1389   0.362   0.855   0.483 -0.6774  2.6533  2.8759
  464SOL     OW 1390   0.615   2.287   2.235 -0.1105 -0.3620 -0.0693
  464SOL    HW1 1391   0.592   2.363   2.303  3.4519  0.5613  0.0628
  464SOL    HW2 1392   0.565   2.289   2.140  0.3054  0.1568 -0.3689
  465SOL     OW 1393   0.304   0.923   0.775  0.2953 -0.3852 -0.0576
  465SOL    HW1 1394   0.204   0.934   0.758 -2.9523 -0.7417 -0.4324
  465SOL    HW2 1395   0.322   0.823   0.796  0.2393  1.3200  0.0259
  466SOL     OW 1396   1.397   1.114   1.033 -0.3475 -0.0038  0.5017
  466SOL    HW1 1397   1.419   1.208   1.062  0.0851 -3.1020  1.7650
  466SOL    HW2 1398   1.301   1.100   1.002 -1.1844 -1.0571  2.6947
  467SOL     OW 1399   0.475   0.360   2.378 -0.5492  0.3676 -1.0214
  467SOL    HW1 1400   0.429   0.452   2.376  0.7098 -0.5019  3.0263
  467SOL    HW2 1401   0.471   0.329   2.475  0.9990  2.6136 -1.4459
  468SOL     OW 1402   0.457   2.283   1.678 -0.3068 -0.4502 -0.0966
  468SOL    HW1 1403   0.537   2.330   1.728  0.3281  0.5753 -1.3661
  468SOL    HW2 1404   0.430   2.330   1.593 -2.2516  2.0386  0.2213
  469SOL     OW 1405   1.477   1.406   1.182  0.5111 -0.0970  0.1499
  469SOL    HW1 1406   1.540   1.325   1.152  1.9544 -4.2175  2.5147
  469SOL    HW2 1407   1.517   1.453   1.265  2.4633  0.1193 -2.1352
  470SOL     OW 1408   3.014   1.681   0.737  0.0102 -0.0250  0.8486
  470SOL    HW1 1409   3.109   1.719   0.718 -2.3423 -1.4284  2.3923
  470SOL    HW2 1410   2.981   1.697   0.834 -0.3053 -0.9086  0.4119
  471SOL     OW 1411   2.708   1.312   2.111 -0.3860  0.1287  0.4383
  471SOL    HW1 1412   2.707   1.273   2.207 -0.4384  0.8919 -0.3374
  471SOL    HW2 1413   2.756   1.408   2.103  0.8928  1.0430 -1.9246
  472SOL     OW 1414   1.145   2.473   3.084 -0.6015 -0.0224 -0.2235
  472SOL    HW1 1415   1.159   2.491   3.187 -0.9319  2.2849  0.6899
  472SOL    HW2 1416   1.153   2.372   3.056  0.0048 -0.1121 -3.0114
  473SOL     OW 1417   1.118   1.553   1.021  0.6280  0.0793  0.2554
  473SOL    HW1 1418   1.021   1.533   0.983 -1.3625 -3.3965 -0.6770
  473SOL    HW2 1419   1.131   1.491   1.103 -0.1594  1.7255 -1.5299
  474SOL     OW 1420   0.690   1.302   0.540  0.2453  0.2654  0.0449
  474SOL    HW1 1421   0.725   1.302   0.442  0.6712 -1.0803  0.6982
  474SOL    HW2 1422   0.710   1.209   0.588 -0.6893  0.5180  0.4597
  475SOL     OW 1423   2.840   0.085   0.790  0.5183 -0.0800  0.0335
  475SOL    HW1 1424   2.926   0.120   0.845 -0.2685 -0.8034  0.1485
  475SOL    HW2 1425   2.750   0.120   0.837  0.3840 -0.7599 -2.1621
  476SOL     OW 1426   0.968   3.021   1.827 -0.7052 -0.2367  0.7922
  476SOL    HW1 1427   1.048   2.954   1.844 -0.0677 -2.8797 -1.4001
  476SOL    HW2 1428   0.952   3.033   1.723 -3.0898  1.7929 -0.2674
  477SOL     OW 1429   1.459   0.329   2.478  0.1873  0.1291 -0.6956
  477SOL    HW1 1430   1.424   0.317   2.577  1.7481 -0.8033  1.7672
  477SOL    HW2 1431   1.544   0.277   2.461 -2.3882  0.2628  3.4724
  478SOL     OW 1432   2.200   1.849   0.223  0.6057  0.3843  0.3175
  478SOL    HW1 1433   2.131   1.769   0.202 -1.1421 -0.7886  0.8893
  478SOL    HW2 1434   2.289   1.810   0.258 -2.0079  1.9038  2.6035
  479SOL     OW 1435   1.274   1.060   2.925  0.1718  0.4793 -0.2824
  479SOL    HW1 1436   1.346   1.078   2.854 -1.0378 -2.5132  2.7335
  479SOL    HW2 1437   1.186   1.022   2.877 -2.5239  0.4752  1.8522
  480SOL     OW 1438   2.566   2.345   0.407  0.1114 -0.3812  0.0995
  480SOL    HW1 1439   2.554   2.243   0.410  0.7561 -0.0693 -3.0618
  480SOL    HW2 1440   2.508   2.383   0.330 -1.1143 -2.9166  1.2139
  481SOL     OW 1441   0.995   1.122   0.879  0.4947 -0.0922  0.1522
  481SOL    HW1 1442   0.992   1.208   0.817 -1.0163  0.1956  0.3997
  481SOL    HW2 1443   1.034   1.150   0.974 -2.9215  0.3723  1.8595
  482SOL     OW 1444   1.551   0.274   2.052 -0.2403  0.3941  0.2453
  482SOL    HW1 1445   1.542   0.370   2.028  1.3880 -1.7567  0.9104
  482SOL    HW2 1446   1.652   0.245   2.067  0.7925 -1.3233 -2.7123
  483SOL     OW 1447   0.112   2.334   1.291  0.6515 -0.2082 -0.1255
  483SOL    HW1 1448   0.028   2.356   1.346 -0.1084 -1.9544 -0.0497
  483SOL    HW2 1449   0.134   2.406   1.220 -1.0319  0.8270  0.5463
  484SOL     OW 1450   1.745   1.065   1.359  0.2006 -0.0660  0.0062
  484SOL    HW1 1451   1.805   0.977   1.357 -0.5852 -1.2726  1.3420
  484SOL    HW2 1452   1.737   1.103   1.456 -2.0803 -2.2208  1.5652
  485SOL     OW 1453   0.691   1.043   1.819 -0.4452  0.0011 -0.1877
  485SOL    HW1 1454   0.698   1.038   1.716  0.2449 -1.4798 -1.3199
  485SOL    HW2 1455   0.781   1.068   1.859 -4.5131 -0.8023  2.6294
  486SOL     OW 1456   0.826   1.937   2.459 -0.1871  0.0502 -0.7544
  486SOL    HW1 1457   0.909   1.894   2.509 -0.6341  2.9217  1.5900
  486SOL    HW2 1458   0.798   2.033   2.488  2.2397  0.4913  1.2226
  487SOL     OW 1459   1.857   1.658   0.948  0.4034 -0.1276 -0.2659
  487SOL    HW1 1460   1.904   1.566   0.971  0.8959 -3.3081 -2.9039
  487SOL    HW2 1461   1.866   1.684   0.852  1.6459 -1.3782  0.2080
  488SOL     OW 1462   2.973   0.861   2.242 -0.5431  0.0656  0.2010
  488SOL    HW1 1463   2.971   0.766   2.201  1.3439  0.5078 -0.8544
  488SOL    HW2 1464   2.981   0.863   2.346  0.5296 -1.6213  0.6481
  489SOL     OW 1465   2.765   0.230   1.291 -0.6069 -0.2717  0.3328
  489SOL    HW1 1466   2.733   0.257   1.384  1.2695 -2.0415  0.5368
  489SOL    HW2 1467   2.874   0.232   1.277 -0.1132 -0.8700  1.6169
  490SOL     OW 1468   1.473   2.971   2.800 -0.6511 -0.3211  0.6899
  490SOL    HW1 1469   1.537   2.887   2.790 -0.5835 -1.5030  0.4585
  490SOL    HW2 1470   1.432   3.003   2.710  0.8256  0.3076  2.7873
  491SOL     OW 1471   1.785   1.444   2.621  0.7864  0.0434 -0.0557
  491SOL    HW1 1472   1.712   1.450   2.695  0.4466  1.6750  0.1908
  491SOL    HW2 1473   1.877   1.478   2.644  0.6372 -0.2444 -0.1424
  492SOL     OW 1474   0.516   1.994   0.678 -0.2680 -0.6759 -0.0098
  492SOL    HW1 1475   0.555   1.979   0.775  2.0524  0.8519  2.5916
  492SOL    HW2 1476   0.445   2.071   0.684  0.9248 -1.9420  0.9238
  493SOL     OW 1477   0.391   1.408   2.030  0.2444  0.0049  0.1867
  493SOL    HW1 1478   0.307   1.455   2.001  0.1909 -0.4184  0.3226
  493SOL    HW2 1479   0.378   1.358   2.120 -0.1116  1.2131 -1.7943
  494SOL     OW 1480   2.735   2.682   0.145 -0.2426  0.1592 -0.1417
  494SOL    HW1 1481   2.692   2.646   0.232  0.5641  2.1402 -0.9442
  494SOL    HW2 1482   2.663   2.697   0.077  2.2730 -3.0197  1.7197
  495SOL     OW 1483   2.735   2.704   2.746  0.1320  0.1145 -0.0152
  495SOL    HW1 1484   2.684   2.611   2.750 -0.1376 -0.6495  1.1332
  495SOL    HW2 1485   2.745   2.742   2.647  0.4063  0.5949 -2.6681
  496SOL     OW 1486   2.075   2.260   0.703 -0.5623 -0.1241 -0.4768
  496SOL    HW1 1487   2.080   2.273   0.805 -2.7543 -1.1807 -0.0033
  496SOL    HW2 1488   2.112   2.169   0.675  1.2918  2.3810  3.5343
  497SOL     OW 1489   0.257   2.973   2.429 -0.4194 -0.0981  0.3872
  497SOL    HW1 1490   0.204   3.050   2.470  3.6281  0.8249  0.1134
  497SOL    HW2 1491   0.308   3.007   2.345  0.0998  1.1112  1.5887
  498SOL     OW 1492   1.225   1.388   1.225 -0.0210  0.5606 -0.3886
  498SOL    HW1 1493   1.322   1.415   1.197 -0.4936  0.8006 -0.8834
  498SOL    HW2 1494   1.177   1.455   1.290  0.9773  1.9202  1.8877
  499SOL     OW 1495   0.684   1.843   0.425  0.1186  0.2436 -0.0411
  499SOL    HW1 1496   0.717   1.771   0.487 -0.3750  1.0768 -0.2026
  499SOL    HW2 1497   0.678   1.935   0.474 -1.4099  1.2527 -1.4316
  500SOL     OW 1498   1.415   2.841   1.687  0.4457  0.4158  0.3700
  500SOL    HW1 1499   1.330   2.796   1.736  1.3712 -1.9608  1.0133
  500SOL    HW2 1500   1.502   2.781   1.670  2.9399  2.1205 -3.4187
  501SOL     OW 1501   0.809   1.132   2.314  0.5570 -0.2168 -0.1756
  501SOL    HW1 1502   0.723   1.082   2.288  0.0952 -1.3467 -1.2156
  501SOL    HW2 1503   0.883   1.139   2.235 -1.3152  1.0642  0.3381
  502SOL     OW 1504   2.583   0.962   1.736  0.1373 -0.6288  0.1161
  502SOL    HW1 1505   2.565   0.994   1.638  0.9185  0.3175 -1.8895
  502SOL    HW2 1506   2.568   0.860   1.746  0.5038  1.3065 -1.3646
  503SOL     OW 1507   1.316   0.098   0.674 -0.5203 -0.3947 -0.3077
  503SOL    HW1 1508   1.264   0.186   0.696  1.7929  0.2142 -2.0781
  503SOL    HW2 1509   1.422   0.107   0.689  0.5582  0.5343 -1.8537
  504SOL     OW 1510   3.007   2.319   1.468 -0.1736  0.3822  0.2093
  504SOL    HW1 1511   2.922   2.361   1.507  3.6301 -1.0837  1.9375
  504SOL    HW2 1512   3.076   2.308   1.545 -0.8958  0.7120  2.2499
  505SOL     OW 1513   2.309   1.152   1.444 -0.1546 -0.1413  0.7422
  505SOL    HW1 1514   2.294   1.193   1.342 -0.8210  0.7661 -2.5085
  505SOL    HW2 1515   2.370   1.212   1.501  0.5904 -1.2710  0.8266
  506SOL     OW 1516   1.976   0.153   1.826 -0.6299 -0.0438 -0.4134
  506SOL    HW1 1517   2.059   0.090   1.858  3.5272  0.1276  0.4709
  506SOL    HW2 1518   1.957   0.235   1.892 -1.5477  1.7997  0.8534
  507SOL     OW 1519   0.530   0.693   2.145 -0.4272  0.4351 -0.0256
  507SOL    HW1 1520   0.465   0.645   2.073  1.6215  1.0545  0.4151
  507SOL    HW2 1521   0.605   0.628   2.173 -2.3567  1.3018 -3.6977
  508SOL     OW 1522   0.289   1.642   0.808 -0.2316  0.1057  0.3675
  508SOL    HW1 1523   0.369   1.689   0.766 -2.4862  0.8680  1.4866
  508SOL    HW2 1524   0.253   1.697   0.888  2.0785 -0.6399  1.9813
  509SOL     OW 1525   1.219   1.264   2.350  0.0330 -0.0195 -0.4628
  509SOL    HW1 1526   1.211   1.283   2.249  0.2843  0.7629  1.9021
  509SOL    HW2 1527   1.141   1.205   2.399 -3.0111 -5.6301  2.4997
  510SOL     OW 1528   1.272   2.001   2.146  0.0655 -0.1963 -0.7551
  510SOL    HW1 1529   1.263   2.101   2.112  0.3828 -1.3942  0.8554
  510SOL    HW2 1530   1.186   1.964   2.194 -0.5355 -2.4121 -0.3983
  511SOL     OW 1531   3.051   2.763   1.324 -0.1934 -0.0895 -0.1369
  511SOL    HW1 1532   3.017   2.781   1.229  1.1089  3.2801 -3.1888
  511SOL    HW2 1533   2.977   2.772   1.393 -1.7846 -0.9828  0.1742
  512SOL     OW 1534   2.409   0.415   1.381 -0.2785  0.8505  0.1127
  512SOL    HW1 1535   2.310   0.407   1.362  1.1953  0.0563 -2.5396
  512SOL    HW2 1536   2.469   0.374   1.309  1.9957  2.5647 -3.1870
  513SOL     OW 1537   2.550   2.042   0.857 -0.4717 -0.0956 -0.4892
  513SOL    HW1 1538   2.489   2.102   0.795 -2.5397 -0.3057  2.0842
  513SOL    HW2 1539   2.630   2.004   0.811  0.2378  2.2128  1.4851
  514SOL     OW 1540   0.611   2.739   0.440  0.0047 -0.0656  0.7308
  514SOL    HW1 1541   0.586   2.809   0.367 -1.7615 -0.3453  0.1812
  514SOL    HW2 1542   0.693   2.773   0.493 -0.9841  0.0226 -0.8730
  515SOL     OW 1543   1.980   1.183   2.354 -0.1129 -0.6104 -0.1062
  515SOL    HW1 1544   1.983   1.170   2.254  0.0947  2.1123  1.9648
  515SOL    HW2 1545   1.884   1.157   2.372  0.4624 -3.2838 -1.3677
  516SOL     OW 1546   0.231   0.289   1.867  0.0878  0.4045  0.3405
  516SOL    HW1 1547   0.324   0.247   1.838  0.4183  0.1453 -1.3629
  516SOL    HW2 1548   0.159   0.220   1.875  0.0815 -0.2489  0.8027
  517SOL     OW 1549   0.430   0.013   1.158  0.2034  0.1927  0.6421
  517SOL    HW1 1550   0.440   0.116   1.181  2.1179  1.6779  0.4963
  517SOL    HW2 1551   0.330  -0.013   1.167  0.0745  0.0279  0.6000
  518SOL     OW 1552   2.186   3.068   1.826  0.7880  0.1761 -0.1360
  518SOL    HW1 1553   2.239   3.156   1.839  2.5163 -1.1753 -1.6675
  518SOL    HW2 1554   2.212   3.017   1.735  1.7840 -0.1610 -1.5568
  519SOL     OW 1555   2.331   2.165   2.549 -0.1200  0.3618  0.3735
  519SOL    HW1 1556   2.271   2.138   2.630  1.4855  1.2382  0.7215
  519SOL    HW2 1557   2.313   2.262   2.512  3.0959  0.3894  3.0951
  520SOL     OW 1558   1.827   2.770   1.792 -0.3533  0.2554 -0.1716
  520SOL    HW1 1559   1.730   2.768   1.831 -0.6699 -2.4741  1.1747
  520SOL    HW2 1560   1.856   2.674   1.752  0.3706 -0.3937  1.8713
  521SOL     OW 1561   0.571   3.073   2.071  0.1318  0.2504  0.4763
  521SOL    HW1 1562   0.465   3.072   2.082 -1.4202 -3.4796  2.9634
  521SOL    HW2 1563   0.624   3.062   2.158  1.7008 -0.7164 -2.1662
  522SOL     OW 1564   0.221   1.882   1.468 -0.5422  0.4390  0.0204
  522SOL    HW1 1565   0.273   1.941   1.534 -1.3675  1.8177 -1.8597
  522SOL    HW2 1566   0.171   1.942   1.397 -0.9675  0.4597 -0.3071
  523SOL     OW 1567   2.252   2.991   1.573 -0.1454  0.3675 -0.0728
  523SOL    HW1 1568   2.332   2.921   1.573 -1.8577  0.2291 -0.1070
  523SOL    HW2 1569   2.176   2.957   1.512  2.3644  1.7753  1.2248
  524SOL     OW 1570   0.176   2.792   2.818 -0.5277  0.0511  0.4927
  524SOL    HW1 1571   0.138   2.889   2.828 -0.9386 -1.3425 -1.5804
  524SOL    HW2 1572   0.283   2.796   2.820 -1.4069 -1.7671  3.6918
  525SOL     OW 1573   2.158   2.039   0.424 -0.2324 -0.0706  0.1928
  525SOL    HW1 1574   2.191   1.973   0.500 -0.2521 -1.1165  0.9405
  525SOL    HW2 1575   2.180   1.996   0.333  2.3214 -2.8597  1.4877
  526SOL     OW 1576   0.448   1.553   1.651  0.1511  0.0717 -0.0763
  526SOL    HW1 1577   0.490   1.574   1.740 -0.5769  0.6460 -3.3568
  526SOL    HW2 1578   0.491   1.465   1.615 -0.9144 -0.8114  0.2594
  527SOL     OW 1579   1.033   2.912   1.226  0.1979  0.5741 -0.3609
  527SOL    HW1 1580   1.119   2.854   1.238  0.3235 -0.3655  1.5360
  527SOL    HW2 1581   1.054   3.012   1.212 -0.6723  1.6342  1.2993
  528SOL     OW 1582   1.353   2.423   0.526 -0.0343  0.4128  0.7180
  528SOL    HW1 1583   1.377   2.329   0.561 -1.4839  0.7864  2.5407
  528SOL    HW2 1584   1.412   2.494   0.570 -0.4207 -0.9492 -1.9381
  529SOL     OW 1585   1.965   1.737   0.683 -0.3393 -0.0571 -0.5522
  529SOL    HW1 1586   1.906   1.759   0.600 -4.1969 -3.3558 -0.1099
  529SOL    HW2 1587   1.985   1.820   0.742 -2.5966 -3.5894  0.0985
  530SOL     OW 1588   0.333   2.611   0.261 -0.3111  0.0167  0.2658
  530SOL    HW1 1589   0.350   2.695   0.318 -0.5681  0.6794 -0.6471
  530SOL    HW2 1590   0.324   2.527   0.324 -1.7997  3.2856  0.0005
  531SOL     OW 1591   1.851   0.975   0.950  0.0272  0.1621 -0.7469
  531SOL    HW1 1592   1.897   1.034   0.878  1.0701  0.4038  0.5758
  531SOL    HW2 1593   1.755   0.949   0.927 -1.6371 -0.3143 -0.0057
  532SOL     OW 1594   0.389   1.197   0.714  0.4865 -0.4075 -0.3943
  532SOL    HW1 1595   0.426   1.216   0.617 -0.0657  0.6605 -0.6219
  532SOL    HW2 1596   0.381   1.094   0.740  1.4932  3.0118  2.0282
  533SOL     OW 1597   1.737   0.026   2.596  0.3375 -0.0869  0.2497
  533SOL    HW1 1598   1.836   0.025   2.622  0.8901 -1.1568  2.5680
  533SOL    HW2 1599   1.692   0.106   2.642  0.1022  2.6158 -2.1255
  534SOL     OW 1600   0.375   0.194   1.625  0.6438  0.6149 -0.1030
  534SOL    HW1 1601   0.463   0.190   1.567 -2.8838  0.3298 -2.6404
  534SOL    HW2 1602   0.335   0.291   1.626  2.8053 -1.2524 -0.9980
  535SOL     OW 1603   1.937   0.371   0.182  0.5321 -0.4492 -0.4165
  535SOL    HW1 1604   1.961   0.454   0.240 -0.9955 -0.7419  0.0018
  535SOL    HW2 1605   1.941   0.287   0.237 -1.1503  0.8082  1.1050
  536SOL     OW 1606   1.406   2.547   0.949 -0.4404  0.2693 -0.5926
  536SOL    HW1 1607   1.395   2.518   1.047 -0.6326 -0.0988 -1.1487
  536SOL    HW2 1608   1.324   2.600   0.917  2.4532  1.3110  3.0038
  537SOL     OW 1609   0.824   0.205   2.352 -0.3703  0.4395  0.3525
  537SOL    HW1 1610   0.788   0.227   2.255 -0.2843  1.3285  0.3496
  537SOL    HW2 1611   0.793   0.115   2.396  0.3193  0.4169  1.4704
  538SOL     OW 1612   1.675   2.354   1.525 -0.1998 -0.0391  0.1899
  538SOL    HW1 1613   1.640   2.257   1.506 -2.1560  0.1177  0.6983
  538SOL    HW2 1614   1.755   2.387   1.468  0.5911  4.1169  0.4778
  539SOL     OW 1615   0.217   1.599   2.732  0.0644  0.4046  0.2768
  539SOL    HW1 1616   0.141   1.606   2.659  0.7604  1.0849 -0.4856
  539SOL    HW2 1617   0.194   1.647   2.821 -0.7693 -2.1824 -0.1002
  540SOL     OW 1618   2.712   1.665   1.930 -0.3499  0.0104 -0.7568
  540SOL    HW1 1619   2.731   1.587   1.997  2.7287  1.0288 -1.8890
  540SOL    HW2 1620   2.619   1.715   1.941  0.0179  5.2848 -0.5222
  541SOL     OW 1621   0.467   2.243   0.004  0.4797 -0.8903  0.2237
  541SOL    HW1 1622   0.497   2.213   0.099  1.5419  1.0500  2.9527
  541SOL    HW2 1623   0.370   2.226  -0.014  1.9170  0.6849 -3.0664
  542SOL     OW 1624   2.271   2.570   0.435 -0.0234  0.4099  0.4352
  542SOL    HW1 1625   2.274   2.671   0.454 -3.6829  1.3406 -0.7238
  542SOL    HW2 1626   2.178   2.526   0.419  0.0390 -1.3802 -1.1824
  543SOL     OW 1627   1.065   1.834   1.573  0.3366  0.3187 -0.7287
  543SOL    HW1 1628   1.027   1.855   1.666 -1.0977 -0.8135 -1.5883
  543SOL    HW2 1629   1.023   1.886   1.498  0.4226 -0.5409 -2.3169
  544SOL     OW 1630   1.006   0.399   0.183 -0.4974  0.5836 -0.4677
  544SOL    HW1 1631   1.049   0.316   0.225 -0.6283  0.7974 -1.6699
  544SOL    HW2 1632   0.965   0.367   0.097 -0.6243  2.0833  0.4046
  545SOL     OW 1633   1.125   1.764   0.791  0.0692 -0.7858  0.2114
  545SOL    HW1 1634   1.228   1.790   0.777 -0.4191 -1.4289 -0.4095
  545SOL    HW2 1635   1.109   1.714   0.881  1.4884 -2.8062 -1.4510
  546SOL     OW 1636   2.676   1.492   3.077 -0.2602 -0.2208 -0.8226
  546SOL    HW1 1637   2.623   1.566   3.024  0.9177  3.4749 -1.4644
  546SOL    HW2 1638   2.621   1.451   3.158  1.8716 -1.6300 -1.8167
  547SOL     OW 1639   0.601   3.057   2.659  0.1229 -0.5808 -0.3917
  547SOL    HW1 1640   0.699   3.009   2.665 -1.1563  1.0527 -0.5774
  547SOL    HW2 1641   0.531   3.007   2.714  3.0251 -0.0695 -1.0186
  548SOL     OW 1642   2.099   0.877   2.996  0.5575  0.3928  0.1804
  548SOL    HW1 1643   2.007   0.840   3.008 -1.7738 -1.0470 -2.5880
  548SOL    HW2 1644   2.104   0.981   3.015  0.2185  1.0130 -0.2337
  549SOL     OW 1645   0.691   0.506   0.215  0.1202 -0.2455  0.4103
  549SOL    HW1 1646   0.667   0.526   0.117 -0.7766  0.4919  1.9265
  549SOL    HW2 1647   0.771   0.574   0.241 -1.3841 -1.9329 -1.5142
  550SOL     OW 1648   2.527   2.828   2.879  0.8326  0.0338 -0.3572
  550SOL    HW1 1649   2.492   2.759   2.948  1.2141 -0.2591  0.3089
  550SOL    HW2 1650   2.596   2.778   2.824  0.8962 -2.8514 -0.4213
  551SOL     OW 1651   0.260   0.901   0.222 -0.5045 -0.4032 -0.3206
  551SOL    HW1 1652   0.360   0.869   0.209 -0.1238 -1.1907  0.1153
  551SOL    HW2 1653   0.238   0.924   0.320 -4.0450  0.1233  0.0902
  552SOL     OW 1654   0.710   2.972   1.877  0.5422 -0.2883  0.3766
  552SOL    HW1 1655   0.663   3.008   1.969 -0.5948  1.3197  1.9417
  552SOL    HW2 1656   0.815   2.980   1.878 -1.0360 -2.4705  0.0187
  553SOL     OW 1657   2.983   2.528   0.346 -0.0558  0.2049  0.2712
  553SOL    HW1 1658   2.924   2.440   0.327 -0.9673 -3.1887  0.8562
  553SOL    HW2 1659   2.938   2.597   0.412  0.4988 -0.0757 -0.6683
  554SOL     OW 1660   2.162   0.371   0.577  0.1012  0.0427 -0.5252
  554SOL    HW1 1661   2.214   0.391   0.491  0.1435  0.1176 -2.0813
  554SOL    HW2 1662   2.221   0.317   0.643  4.1575  3.3611 -1.3931
  555SOL     OW 1663   0.372   2.747   2.517  0.4596 -0.7233  0.0336
  555SOL    HW1 1664   0.320   2.840   2.493 -0.5504  0.5809 -2.0154
  555SOL    HW2 1665   0.408   2.705   2.431 -0.3989 -0.7027  0.1777
  556SOL     OW 1666   0.822   2.405   1.496  0.6494  0.0281 -0.2113
  556SOL    HW1 1667   0.889   2.455   1.562 -0.4818  3.7036  0.1621
  556SOL    HW2 1668   0.869   2.355   1.421 -1.4102  0.1298 -0.2257
  557SOL     OW 1669   0.064   2.064   0.195  0.2442  0.6172  0.1992
  557SOL    HW1 1670   0.026   1.971   0.174  0.2467 -0.4459  2.6529
  557SOL    HW2 1671   0.105   2.102   0.108 -1.6812  1.9003 -0.6366
  558SOL     OW 1672   2.858   2.276   0.305 -1.1825  0.2429  0.4078
  558SOL    HW1 1673   2.754   2.273   0.303 -0.9234 -2.3369 -1.5396
  558SOL    HW2 1674   2.904   2.186   0.291 -1.2459 -0.7077  0.3531
  559SOL     OW 1675   0.381   2.292   1.388 -0.2157 -0.3328 -0.3819
  559SOL    HW1 1676   0.284   2.288   1.346 -2.6691 -0.7944 -0.4003
  559SOL    HW2 1677   0.443   2.211   1.360  2.5012  2.0210  4.0715
  560SOL     OW 1678   2.093   1.128   3.056 -0.0911 -0.0440 -0.2562
  560SOL    HW1 1679   2.064   1.167   3.146  2.0482  0.4556 -0.6740
  560SOL    HW2 1680   2.139   1.198   2.997  0.6623  0.0267  0.9470
  561SOL     OW 1681   3.074   1.859   0.022  0.5673 -0.2966 -0.1521
  561SOL    HW1 1682   3.026   1.816   0.105 -1.4634 -0.2389  1.3497
  561SOL    HW2 1683   3.017   1.936  -0.021 -1.7517  0.6979 -0.9894
  562SOL     OW 1684   0.984   2.247   2.324 -0.0044 -0.2950  0.3017
  562SOL    HW1 1685   0.900   2.218   2.376 -3.2018 -0.6958  0.5343
  562SOL    HW2 1686   1.038   2.323   2.354 -0.9317 -2.0396 -4.0226
  563SOL     OW 1687   0.716   2.579   2.617  0.4888 -0.1473  0.1547
  563SOL    HW1 1688   0.811   2.536   2.612 -0.4222 -0.1640  2.4037
  563SOL    HW2 1689   0.689   2.596   2.712 -0.7049  0.1286 -1.1850
  564SOL     OW 1690   2.859   1.327   2.904  0.1486  0.3724 -0.2152
  564SOL    HW1 1691   2.790   1.364   2.968  1.6370 -1.3952 -0.2896
  564SOL    HW2 1692   2.885   1.402   2.837  3.2635  1.0464 -0.1194
  565SOL     OW 1693   2.534   1.991   2.638 -0.1561  1.0053 -0.1539
  565SOL    HW1 1694   2.468   2.068   2.600 -0.5715  1.3039  0.3910
  565SOL    HW2 1695   2.623   2.025   2.685  0.3452 -1.7302  0.8540
  566SOL     OW 1696   2.074   2.824   1.393  0.0446  0.3166  0.5653
  566SOL    HW1 1697   2.012   2.740   1.391  0.0390 -0.5546 -0.3670
  566SOL    HW2 1698   2.045   2.894   1.321  1.4212 -0.1865  2.7643
  567SOL     OW 1699   2.424   3.097   2.359 -0.9452 -0.5986  0.2122
  567SOL    HW1 1700   2.324   3.078   2.349  1.3706 -0.6927 -2.1280
  567SOL    HW2 1701   2.474   3.111   2.268 -0.5877 -1.2055 -2.1508
  568SOL     OW 1702   1.507   1.765   0.249  0.1478 -0.3525 -0.5834
  568SOL    HW1 1703   1.432   1.838   0.254 -2.0217 -1.1011 -1.1527
  568SOL    HW2 1704   1.601   1.803   0.259  0.6865 -1.4502  2.1572
  569SOL     OW 1705   0.278   0.652   0.823  0.3009 -0.7180  0.6442
  569SOL    HW1 1706   0.324   0.570   0.785  2.1650 -1.3190 -0.0847
  569SOL    HW2 1707   0.180   0.634   0.843  0.8427  0.6189  1.6640
  570SOL     OW 1708   0.605   0.883   2.920  0.0553 -0.7728  0.1308
  570SOL    HW1 1709   0.635   0.943   2.839  0.5834  3.0027 -2.2449
  570SOL    HW2 1710   0.626   0.928   3.011 -1.5177  2.1806  0.8765
  571SOL     OW 1711   0.786   0.012   1.011  0.3322 -0.5604 -0.0211
  571SOL    HW1 1712   0.858   0.065   0.954 -0.3095 -0.2512  1.7211
  571SOL    HW2 1713   0.716  -0.037   0.958  2.6042 -1.3800  2.4201
  572SOL     OW 1714   1.613   2.585   1.320 -0.2330  0.2686  0.1395
  572SOL    HW1 1715   1.524   2.548   1.286  2.0291 -0.5021  2.2570
  572SOL    HW2 1716   1.616   2.686   1.312  0.3040  1.7200 -2.5845
  573SOL     OW 1717   2.878   0.524   2.012  0.2360 -0.1964  0.1788
  573SOL    HW1 1718   2.804   0.455   2.018  1.1970  0.4371 -0.6532
  573SOL    HW2 1719   2.905   0.551   1.912  3.2944  0.7594 -3.1447
  574SOL     OW 1720   0.165   1.739   1.069  0.2005 -0.0480  0.6544
  574SOL    HW1 1721   0.154   1.837   1.030 -0.9912 -0.2971 -0.4631
  574SOL    HW2 1722   0.075   1.703   1.109  0.8714  2.8816 -0.2554
  575SOL     OW 1723   0.863   2.151   0.916 -0.2182  0.0174 -0.1522
  575SOL    HW1 1724   0.837   2.204   1.003 -0.8586 -1.2986 -1.0520
  575SOL    HW2 1725   0.905   2.220   0.853 -1.8325  0.5747  1.7749
  576SOL     OW 1726   2.907   3.029   1.713 -0.7035 -0.3846 -0.5679
  576SOL    HW1 1727   2.815   2.985   1.701 -0.8136  1.6212 -2.2541
  576SOL    HW2 1728   2.912   3.125   1.672 -2.0815  0.8201 -0.4765
  577SOL     OW 1729   2.468   1.243   0.009  0.0610 -0.3049 -0.0913
  577SOL    HW1 1730   2.470   1.179  -0.071  0.5436 -1.5971  1.6665
  577SOL    HW2 1731   2.542   1.226   0.077 -0.9035 -2.8996 -2.2102
  578SOL     OW 1732   1.393   2.732   2.424  0.7669 -0.3594  0.0501
  578SOL    HW1 1733   1.300   2.775   2.444 -1.8203 -1.4972 -0.8055
  578SOL    HW2 1734   1.474   2.790   2.438 -0.3366 -1.0297 -0.7257
  579SOL     OW 1735   0.071   2.503   0.150 -0.4449 -0.1983  0.4509
  579SOL    HW1 1736   0.020   2.512   0.240  1.3984  1.3773  0.9051
  579SOL    HW2 1737   0.174   2.506   0.164 -0.5273 -2.0319 -1.4905
  580SOL     OW 1738   0.989   2.692   0.390 -0.2460 -0.2071 -0.2320
  580SOL    HW1 1739   1.077   2.677   0.327  3.4162  0.5655 -1.0603
  580SOL    HW2 1740   0.908   2.637   0.368  2.4814  2.0977 -1.5079
  581SOL     OW 1741   1.240   2.655   1.461 -0.2247  0.3415  0.2902
  581SOL    HW1 1742   1.290   2.568   1.482 -1.4606  0.5834 -2.2842
  581SOL    HW2 1743   1.289   2.705   1.386  3.2227 -1.4170 -0.8872
  582SOL     OW 1744   1.509   0.075   1.849  0.0379 -0.3044  0.0542
  582SOL    HW1 1745   1.540   0.125   1.935 -0.9527 -0.4675 -0.4307
  582SOL    HW2 1746   1.592   0.039   1.794 -0.1842  0.5997 -0.8037
  583SOL     OW 1747   2.461   3.061   0.560 -0.2706 -0.0102 -0.0954
  583SOL    HW1 1748   2.525   3.003   0.498  3.5775  1.2663 -1.7270
  583SOL    HW2 1749   2.371   3.017   0.580 -1.7440  1.7244  0.8713
  584SOL     OW 1750   1.557   1.004   2.138 -0.0693  1.1167  0.0632
  584SOL    HW1 1751   1.614   1.056   2.069 -3.8630  4.1349  1.4930
  584SOL    HW2 1752   1.610   0.948   2.204  0.2544  1.2404  0.8389
  585SOL     OW 1753   2.142   2.672   2.928  0.2786  0.0176  0.3988
  585SOL    HW1 1754   2.127   2.576   2.897  1.5830 -1.5452 -1.1547
  585SOL    HW2 1755   2.051   2.715   2.962  0.4535 -0.5266 -1.6834
  586SOL     OW 1756   2.826   0.374   1.592 -0.2759 -0.1087  0.8298
  586SOL    HW1 1757   2.809   0.465   1.647  1.6858 -0.4684 -0.5791
  586SOL    HW2 1758   2.745   0.312   1.595  1.6317  2.4851 -1.9376
  587SOL     OW 1759   2.055   1.559   2.621  0.7435  0.2552 -0.4943
  587SOL    HW1 1760   2.100   1.482   2.558  0.1232 -2.6262 -0.5055
  587SOL    HW2 1761   2.075   1.559   2.724 -0.7011  0.8775  0.2850
  588SOL     OW 1762   0.474   2.682   2.257 -0.0623 -0.2145 -0.1625
  588SOL    HW1 1763   0.382   2.681   2.208  1.2951 -0.8542 -1.2753
  588SOL    HW2 1764   0.490   2.593   2.308 -1.0236 -0.9187  0.1462
  589SOL     OW 1765   2.163   1.349   2.491 -0.2123 -0.3029 -0.4134
  589SOL    HW1 1766   2.104   1.277   2.443 -1.1150 -0.5043  0.9612
  589SOL    HW2 1767   2.268   1.346   2.477  0.3868  2.6362 -0.9261
  590SOL     OW 1768   2.350   1.678   2.048  0.1375  0.2988 -0.3607
  590SOL    HW1 1769   2.395   1.581   2.043  0.2900 -1.9327 -4.0296
  590SOL    HW2 1770   2.372   1.722   2.140 -0.7425  1.7059  0.0820
  591SOL     OW 1771   1.304   2.388   0.246 -0.1274  0.8190 -0.5847
  591SOL    HW1 1772   1.321   2.291   0.202  1.0979 -0.0581 -2.4409
  591SOL    HW2 1773   1.342   2.396   0.341 -3.0582 -2.7336 -0.6946
  592SOL     OW 1774   1.784   2.272   0.752  0.1948  0.1096 -0.1823
  592SOL    HW1 1775   1.754   2.279   0.653  0.1447 -0.9319  1.0283
  592SOL    HW2 1776   1.886   2.281   0.759  1.1523 -1.5886 -1.2387
  593SOL     OW 1777   0.698   0.239   0.240 -0.0876 -0.0805  0.0718
  593SOL    HW1 1778   0.766   0.208   0.168  0.4241 -0.0372 -0.3020
  593SOL    HW2 1779   0.677   0.338   0.242 -2.3657 -1.3258  2.2554
  594SOL     OW 1780   0.998   1.867   2.678  0.8076 -0.4692  0.0475
  594SOL    HW1 1781   1.089   1.827   2.686  0.8697 -1.5802  0.8492
  594SOL    HW2 1782   0.988   1.944   2.743  2.2253 -1.6675 -0.6043
  595SOL     OW 1783   1.537   0.009   1.082 -0.2926 -0.2874  0.0078
  595SOL    HW1 1784   1.587  -0.062   1.029  0.8810  1.1017 -0.0502
  595SOL    HW2 1785   1.435   0.005   1.056 -1.6003 -0.0486 -2.2837
  596SOL     OW 1786   0.022   1.448   2.241  0.3994  0.3163  0.0417
  596SOL    HW1 1787  -0.016   1.352   2.244  2.7363  0.3291  1.0880
  596SOL    HW2 1788   0.045   1.473   2.337  2.2437 -1.0610 -1.9031
  597SOL     OW 1789   1.955   2.550   1.713 -0.9053  0.0414  0.3354
  597SOL    HW1 1790   1.968   2.509   1.619  0.2993 -1.4947 -0.2183
  597SOL    HW2 1791   2.030   2.541   1.786  0.4503 -0.7900 -1.5679
  598SOL     OW 1792   2.548   2.953   1.193 -0.0791  0.0308  0.1966
  598SOL    HW1 1793   2.601   2.967   1.282  1.0384  2.0284 -0.4792
  598SOL    HW2 1794   2.613   2.958   1.112  1.6754  0.8360  0.9678
  599SOL     OW 1795   2.894   0.320   2.501 -0.4234 -0.1276  0.1415
  599SOL    HW1 1796   2.996   0.325   2.491 -0.3108  2.1397  0.4018
  599SOL    HW2 1797   2.833   0.381   2.443 -2.2711 -0.7513  0.4750
  600SOL     OW 1798   2.821   1.080   2.746 -0.7635  0.7555  0.0198
  600SOL    HW1 1799   2.798   0.990   2.790 -1.4826  0.6911 -0.3483
  600SOL    HW2 1800   2.814   1.155   2.820 -1.3114  0.4881  1.2536
  601SOL     OW 1801   2.980   1.334   1.973  0.1594 -0.1860 -0.0311
  601SOL    HW1 1802   2.916   1.376   1.906  2.7982 -0.9237 -1.9953
  601SOL    HW2 1803   3.075   1.378   1.976  1.2429  3.4919  2.7578
  602SOL     OW 1804   1.433   1.732   2.321 -0.9361  0.2371 -0.2306
  602SOL    HW1 1805   1.350   1.665   2.321 -1.0400  0.5991 -0.1936
  602SOL    HW2 1806   1.524   1.686   2.332 -2.5746  1.7810 -1.2106
  603SOL     OW 1807   0.591   1.233   2.762  0.1088  0.0138  0.0918
  603SOL    HW1 1808   0.496   1.204   2.727 -0.0381 -0.0308 -0.4118
  603SOL    HW2 1809   0.662   1.176   2.709  1.8361 -0.7606 -0.8218
  604SOL     OW 1810   2.369   0.991   0.158 -0.1209 -0.1786 -0.0438
  604SOL    HW1 1811   2.408   1.072   0.111  3.0630  1.8929  0.0193
  604SOL    HW2 1812   2.381   0.900   0.109 -0.3488  1.1169 -1.6138
  605SOL     OW 1813   2.544   1.162   1.957  0.1058  0.2370 -0.0298
  605SOL    HW1 1814   2.565   1.072   1.906  0.1045  0.1711 -1.8545
  605SOL    HW2 1815   2.616   1.194   2.023 -3.8608 -0.6895 -1.7419
  606SOL     OW 1816   1.529   2.533   2.553  0.0531  0.1635  0.2176
  606SOL    HW1 1817   1.474   2.607   2.501 -2.7062 -2.1397  1.3138
  606SOL    HW2 1818   1.506   2.432   2.536 -0.2014 -1.2848  1.9795
  607SOL     OW 1819   1.314   1.592   0.348  0.0317  0.1979  0.0847
  607SOL    HW1 1820   1.235   1.652   0.377  0.5959  1.1647 -0.0786
  607SOL    HW2 1821   1.396   1.644   0.304  2.3435  2.4076 -0.2890
  608SOL     OW 1822   1.410   2.824   0.385  0.5729 -0.4338  0.5240
  608SOL    HW1 1823   1.492   2.861   0.329  1.7319 -1.1693 -1.5318
  608SOL    HW2 1824   1.347   2.902   0.413 -2.6017 -0.1385 -1.2036
  609SOL     OW 1825   1.273   1.341   0.224  0.0285 -0.4244  1.0278
  609SOL    HW1 1826   1.264   1.432   0.285  0.5890  0.2723 -0.2228
  609SOL    HW2 1827   1.237   1.349   0.127  0.8547  0.7040 -0.8877
  610SOL     OW 1828   2.965   1.169   2.247 -0.3760  0.0681  0.1177
  610SOL    HW1 1829   2.993   1.068   2.240 -1.7892 -0.5783  1.0264
  610SOL    HW2 1830   2.914   1.203   2.162  0.5295 -0.0326 -1.5881
  611SOL     OW 1831   2.525   0.282   1.171  0.4652 -0.1818  0.0465
  611SOL    HW1 1832   2.462   0.198   1.173  0.6328 -0.1669 -2.0110
  611SOL    HW2 1833   2.623   0.262   1.201 -0.4652 -1.8987 -0.5412
  612SOL     OW 1834   0.765   2.269   1.170 -0.0169 -0.0912 -0.2490
  612SOL    HW1 1835   0.708   2.201   1.219  1.8621  1.7328  5.2255
  612SOL    HW2 1836   0.714   2.360   1.179  1.6079 -0.7411 -0.2707
  613SOL     OW 1837   0.848   1.406   2.442 -0.3395  0.1343 -0.4447
  613SOL    HW1 1838   0.805   1.464   2.363  0.4239  0.5528 -0.9623
  613SOL    HW2 1839   0.855   1.305   2.410 -1.1408 -1.4067 -0.7621
  614SOL     OW 1840   1.565   1.681   1.960 -0.1011  0.9254  0.1426
  614SOL    HW1 1841   1.497   1.758   1.946 -0.8935  1.4127  0.5746
  614SOL    HW2 1842   1.652   1.718   2.000  2.5224  0.1959 -0.8413
  615SOL     OW 1843   0.799   1.342   1.701  0.0147 -0.1593 -0.4040
  615SOL    HW1 1844   0.702   1.344   1.649 -0.8779  3.0104  0.8511
  615SOL    HW2 1845   0.875   1.405   1.660  3.7438 -1.4724  1.3516
  616SOL     OW 1846   1.018   1.596   2.151  0.6108 -0.0596 -0.1130
  616SOL    HW1 1847   0.924   1.568   2.176 -0.7855 -1.6884  0.5029
  616SOL    HW2 1848   1.026   1.642   2.060  2.0267  0.1207 -0.8889
  617SOL     OW 1849   2.969   1.554   1.615  0.0698  0.3090 -0.8297
  617SOL    HW1 1850   2.915   1.494   1.680 -1.4229 -0.9657 -1.1254
  617SOL    HW2 1851   3.000   1.510   1.529 -0.1166  1.4684  2.7554
  618SOL     OW 1852   1.892   1.988   1.480 -0.8149  0.0459 -0.9105
  618SOL    HW1 1853   1.967   1.968   1.412 -1.2825 -1.9407 -3.6001
  618SOL    HW2 1854   1.837   1.899   1.499 -2.2718 -1.3288 -1.1987
  619SOL     OW 1855   1.761   0.498   2.397  0.3813  0.3122  0.2008
  619SOL    HW1 1856   1.687   0.531   2.334  0.6462 -1.8513  0.9899
  619SOL    HW2 1857   1.747   0.400   2.430 -1.7355  0.6526 -1.0817
  620SOL     OW 1858   2.224   2.979   0.664 -0.1059 -0.4026  0.2699
  620SOL    HW1 1859   2.177   3.072   0.694 -0.6511  1.3179  1.8929
  620SOL    HW2 1860   2.221   2.915   0.739 -1.1804  0.8969 -1.3480
  621SOL     OW 1861   2.142   1.870   1.322 -0.8568 -0.2521 -0.0271
  621SOL    HW1 1862   2.158   1.869   1.429  0.1968  1.9174  2.3005
  621SOL    HW2 1863   2.105   1.783   1.282  1.7139 -2.4313 -1.7692
  622SOL     OW 1864   2.244   0.911   1.801  0.2161 -0.4893 -0.0351
  622SOL    HW1 1865   2.334   0.893   1.749  1.5211 -0.2226 -0.2845
  622SOL    HW2 1866   2.214   0.834   1.866 -2.0569 -0.3508 -0.8875
  623SOL     OW 1867   1.357   0.808   2.656  0.6683 -0.1813 -0.2898
  623SOL    HW1 1868   1.284   0.761   2.718  0.4230  0.2342 -1.4160
  623SOL    HW2 1869   1.307   0.861   2.584  0.6833  0.2408  1.4456
  624SOL     OW 1870   0.592   0.640   3.100  0.0104  0.1683 -0.6110
  624SOL    HW1 1871   0.597   0.676   3.006 -0.6204 -0.9680  1.8249
  624SOL    HW2 1872   0.562   0.707   3.176 -0.1829  1.2888  0.6406
  625SOL     OW 1873   2.876   1.752   0.965 -0.4571 -0.0549 -0.6135
  625SOL    HW1 1874   2.773   1.744   0.971  0.5439 -0.9855  0.9631
  625SOL    HW2 1875   2.913   1.839   1.007 -0.0612  0.2607 -0.2597
  626SOL     OW 1876   0.608   2.706   1.845 -0.0983 -0.3604  0.1327
  626SOL    HW1 1877   0.650   2.799   1.864  0.7485 -1.4723  1.5851
  626SOL    HW2 1878   0.507   2.704   1.824  0.0756  1.4784  2.2805
  627SOL     OW 1879   0.722   0.994   1.512  0.1155 -0.4022 -0.4061
  627SOL    HW1 1880   0.746   0.911   1.457  1.4881  0.1697  1.6186
  627SOL    HW2 1881   0.791   1.071   1.516  1.6759 -0.4033 -4.2321
  628SOL     OW 1882   2.390   0.183   0.731  0.2253 -0.1767 -0.2769
  628SOL    HW1 1883   2.413   0.110   0.660 -0.5952 -2.2606  2.2494
  628SOL    HW2 1884   2.297   0.173   0.787 -1.2069  2.0857  3.0510
  629SOL     OW 1885   1.965   0.901   1.977 -0.3799  0.2462  0.1573
  629SOL    HW1 1886   2.045   0.912   1.916  0.8609 -3.4458  1.9831
  629SOL    HW2 1887   1.934   0.985   2.033 -1.3043  1.3307 -0.9042
  630SOL     OW 1888   2.857   2.212   0.857  0.2731  0.2481 -0.0273
  630SOL    HW1 1889   2.768   2.263   0.862  0.1209  0.1457 -0.4675
  630SOL    HW2 1890   2.836   2.110   0.854 -1.1316 -2.0418  0.0563
  631SOL     OW 1891   2.947   0.142   2.103  0.1932 -0.3312 -0.2906
  631SOL    HW1 1892   3.000   0.195   2.174 -4.4254 -0.9171 -2.6095
  631SOL    HW2 1893   3.004   0.131   2.016  1.3546 -0.1767 -0.4902
  632SOL     OW 1894   2.441   2.515   0.665 -0.3892 -0.2545  0.5515
  632SOL    HW1 1895   2.492   2.599   0.710  1.1979 -1.2566  2.7794
  632SOL    HW2 1896   2.394   2.536   0.573  1.5043  1.3062  1.6393
  633SOL     OW 1897   1.449   1.249   2.514  1.0625 -0.0329 -0.0709
  633SOL    HW1 1898   1.454   1.331   2.580  0.6037 -0.1696 -0.1205
  633SOL    HW2 1899   1.365   1.243   2.449  1.1191  0.1765 -1.1821
  634SOL     OW 1900   0.690   1.947   0.938  0.1267  0.0294 -0.0607
  634SOL    HW1 1901   0.596   1.970   0.978 -0.0565  0.7322  0.5087
  634SOL    HW2 1902   0.744   2.033   0.921 -1.6927  0.0548  0.3525
  635SOL     OW 1903   3.082   2.317   3.065  0.4479  0.0183 -0.2091
  635SOL    HW1 1904   3.006   2.363   3.004  1.0696  0.2080 -2.2456
  635SOL    HW2 1905   3.133   2.390   3.125 -0.6452 -0.2167 -1.1705
  636SOL     OW 1906   2.273   2.715   2.101  0.3111 -0.1292  0.0146
  636SOL    HW1 1907   2.257   2.822   2.093 -1.0415  0.6970 -2.2918
  636SOL    HW2 1908   2.239   2.679   2.190  2.6997 -0.8643 -1.2923
  637SOL     OW 1909   2.619   0.720   2.031 -0.5676  0.0364 -0.2030
  637SOL    HW1 1910   2.587   0.725   1.929 -1.1272  1.1308  1.0056
  637SOL    HW2 1911   2.682   0.798   2.054 -1.2534 -0.5381 -0.7066
  638SOL     OW 1912   2.397   1.795   1.234 -0.0081  0.5126  0.1198
  638SOL    HW1 1913   2.300   1.829   1.261 -0.1901 -0.2644 -0.1752
  638SOL    HW2 1914   2.443   1.738   1.305 -0.7556  0.6569  0.2865
  639SOL     OW 1915   1.300   2.184   1.712  0.4483 -0.1964 -0.3622
  639SOL    HW1 1916   1.322   2.091   1.667  0.5516 -0.1548 -0.8961
  639SOL    HW2 1917   1.200   2.180   1.742 -0.9138  0.2311 -0.9288
  640SOL     OW 1918   0.206   1.158   1.577  0.4284 -0.1140 -0.4855
  640SOL    HW1 1919   0.191   1.209   1.668 -1.3115  0.8406  0.5108
  640SOL    HW2 1920   0.299   1.110   1.583  2.8176  2.0358  0.1686
  641SOL     OW 1921   2.027   0.154   1.521  0.1874 -0.3903  0.3387
  641SOL    HW1 1922   2.007   0.155   1.621 -0.3409  0.5329 -1.1521
  641SOL    HW2 1923   2.126   0.163   1.492  0.8355  0.3128  0.4356
  642SOL     OW 1924   1.947   0.132   0.293 -0.3347  0.2775 -0.2469
  642SOL    HW1 1925   2.040   0.117   0.329  0.0830  1.8745  0.1435
  642SOL    HW2 1926   1.874   0.088   0.346  1.8159  1.5952  2.0098
  643SOL     OW 1927   2.901   1.874   2.054 -0.3144 -0.0410  0.2173
  643SOL    HW1 1928   2.879   1.777   2.025 -2.2508  0.2768 -0.2940
  643SOL    HW2 1929   2.897   1.935   1.973  0.9005 -0.5031  0.2128
  644SOL     OW 1930   2.273   2.388   1.216 -0.1807 -0.4684  0.3323
  644SOL    HW1 1931   2.318   2.298   1.189  0.0987  1.9185 -1.2774
  644SOL    HW2 1932   2.230   2.391   1.313 -0.4442  2.0601 -3.1052
  645SOL     OW 1933   0.639   0.859   1.270  0.0520  0.8476  0.6261
  645SOL    HW1 1934   0.541   0.881   1.284  0.9949 -2.5719 -0.3236
  645SOL    HW2 1935   0.676   0.900   1.181  0.1964 -2.4723  0.0992
  646SOL     OW 1936   1.403   1.925   1.930  0.2674 -0.1514 -0.7875
  646SOL    HW1 1937   1.474   1.994   1.893  1.0541 -0.6583  0.0106
  646SOL    HW2 1938   1.354   1.957   2.017 -0.1763  0.7897 -0.1006
  647SOL     OW 1939   0.810   1.075   0.668  0.1445  0.3110 -0.5198
  647SOL    HW1 1940   0.890   1.083   0.735  0.1394 -2.0275 -0.9609
  647SOL    HW2 1941   0.762   0.977   0.673  2.8059 -1.3490 -1.1220
  648SOL     OW 1942   0.113   0.180   0.218  0.1733  0.3286  0.0151
  648SOL    HW1 1943   0.166   0.115   0.155 -0.1311 -1.0814 -1.4400
  648SOL    HW2 1944   0.107   0.277   0.183  0.3505 -2.3028  2.6430
  649SOL     OW 1945   3.047   0.222   0.886  0.0165 -0.1694 -0.3417
  649SOL    HW1 1946   3.140   0.172   0.870 -0.3128 -0.5830  0.3971
  649SOL    HW2 1947   3.042   0.324   0.866  3.6510  0.4401  1.4935
  650SOL     OW 1948   2.728   0.666   1.422 -0.6537 -0.4385  0.2036
  650SOL    HW1 1949   2.634   0.643   1.455  0.9379 -0.8538 -2.5548
  650SOL    HW2 1950   2.740   0.763   1.381 -3.0761  0.0662  0.2548
  651SOL     OW 1951   0.932   1.565   1.587  0.3301 -0.0363 -0.0270
  651SOL    HW1 1952   0.918   1.658   1.634 -0.7254 -0.2888 -2.8405
  651SOL    HW2 1953   1.012   1.565   1.523 -0.6518  4.1146 -0.9264
  652SOL     OW 1954   2.302   2.452   2.508 -0.7261 -0.2302  0.3824
  652SOL    HW1 1955   2.265   2.482   2.600 -0.5730 -0.9536  0.9476
  652SOL    HW2 1956   2.269   2.507   2.433  0.9560  1.5430  1.7069
  653SOL     OW 1957   2.693   1.200   0.178 -0.3100 -0.3733  0.3137
  653SOL    HW1 1958   2.736   1.291   0.204  1.7991 -1.2173 -4.1414
  653SOL    HW2 1959   2.763   1.119   0.179 -0.0527  0.4741  0.1491
  654SOL     OW 1960   1.293   2.252   1.262  0.2062  0.1876 -0.1996
  654SOL    HW1 1961   1.300   2.179   1.335  1.8616  0.1384 -1.0161
  654SOL    HW2 1962   1.327   2.216   1.174 -0.3760  1.4052  3.0762
  655SOL     OW 1963   0.173   0.952   1.874  0.6858  0.2356 -0.6193
  655SOL    HW1 1964   0.219   0.879   1.819 -2.6941 -0.6340 -0.5511
  655SOL    HW2 1965   0.242   1.014   1.917  0.0871  1.3066 -1.9408
  656SOL     OW 1966   2.545   2.499   2.616  0.2492 -0.2012  0.0671
  656SOL    HW1 1967   2.638   2.477   2.572  1.0116  5.2693 -2.1214
  656SOL    HW2 1968   2.465   2.467   2.566 -1.0786  1.9361 -1.6445
  657SOL     OW 1969   3.019   1.049   1.940  0.5832 -0.0116 -0.0566
  657SOL    HW1 1970   3.013   1.147   1.976  0.9428 -1.1988  1.5169
  657SOL    HW2 1971   3.112   1.031   1.904  0.6279  3.2665 -0.2008
  658SOL     OW 1972   1.719   0.223   2.410  0.4190  0.0419  0.0835
  658SOL    HW1 1973   1.734   0.133   2.456  0.6712  0.9145 -1.4723
  658SOL    HW2 1974   1.750   0.221   2.310 -2.5405  0.0568  1.1904
  659SOL     OW 1975   1.460   0.643   2.943 -0.0150  0.5675  0.0743
  659SOL    HW1 1976   1.520   0.728   2.949  1.1279 -2.0513  1.1261
  659SOL    HW2 1977   1.364   0.668   2.927  0.7075  0.5655 -1.9068
  660SOL     OW 1978   1.397   0.364   1.455 -0.1949 -0.1807 -0.0617
  660SOL    HW1 1979   1.415   0.366   1.554  1.8960  1.6357  2.1485
  660SOL    HW2 1980   1.449   0.288   1.408 -0.8097 -0.4034  1.8493
  661SOL     OW 1981   2.494   1.192   0.655  0.5563 -0.1444 -0.3623
  661SOL    HW1 1982   2.497   1.163   0.557 -0.6320 -1.5412  0.8478
  661SOL    HW2 1983   2.428   1.274   0.670  1.5513  0.2931 -1.2266
  662SOL     OW 1984   1.379   0.454   1.827 -0.4241 -0.4156  0.6599
  662SOL    HW1 1985   1.358   0.357   1.799 -0.4287 -0.4936  2.2897
  662SOL    HW2 1986   1.309   0.486   1.895  0.5834 -0.3270  0.7904
  663SOL     OW 1987   0.760   1.544   2.209 -0.2910  0.0368 -0.4731
  663SOL    HW1 1988   0.731   1.643   2.233  1.2389  3.0209  0.7832
  663SOL    HW2 1989   0.740   1.524   2.102  1.3528  1.4845 -1.4484
  664SOL     OW 1990   1.638   2.089   1.479  0.3102 -0.3107  0.8275
  664SOL    HW1 1991   1.557   2.026   1.505  1.5232  0.3258 -1.8622
  664SOL    HW2 1992   1.730   2.046   1.495 -1.0762  1.1000  1.2572
  665SOL     OW 1993   2.272   0.657   1.947 -0.1126  0.0062  0.4898
  665SOL    HW1 1994   2.244   0.561   1.979 -2.1531 -1.4454  2.1622
  665SOL    HW2 1995   2.311   0.708   2.027  1.0383 -0.7422 -0.1206
  666SOL     OW 1996   0.368   2.352   0.388  0.3131 -0.3652  1.0042
  666SOL    HW1 1997   0.436   2.384   0.459  0.8219  0.9426  1.7598
  666SOL    HW2 1998   0.298   2.292   0.426 -0.2111  2.6684 -0.6903
  667SOL     OW 1999   1.983   0.141   1.170 -0.3358 -0.0981  0.1883
  667SOL    HW1 2000   2.011   0.242   1.183 -0.3010  0.5421  1.8362
  667SOL    HW2 2001   1.917   0.121   1.247  1.9969  0.1226 -0.2137
  668SOL     OW 2002   2.008   0.506   1.179 -0.7098 -0.0820  0.2712
  668SOL    HW1 2003   2.067   0.566   1.115  0.4485  1.0078  1.3775
  668SOL    HW2 2004   2.058   0.465   1.259  1.4324 -1.8968  1.7028
  669SOL     OW 2005   3.069   2.206   1.010 -0.6946  0.7823 -0.3639
  669SOL    HW1 2006   2.991   2.197   0.933  1.1244 -1.3657 -0.9198
  669SOL    HW2 2007   3.025   2.237   1.103  1.5900  0.9338  0.3229
  670SOL     OW 2008   2.850   2.331   1.939  0.0984  0.1764 -0.0587
  670SOL    HW1 2009   2.803   2.314   2.029  1.1167  1.1797 -0.1261
  670SOL    HW2 2010   2.830   2.431   1.902  1.0893  1.3047 -0.0938
  671SOL     OW 2011   1.775   1.753   1.477  0.2831  0.5764 -0.3922
  671SOL    HW1 2012   1.771   1.793   1.381 -1.1794  1.0796 -0.2356
  671SOL    HW2 2013   1.686   1.703   1.502  3.0048 -0.7379 -5.1616
  672SOL     OW 2014   0.387   0.620   2.378 -0.0869 -0.0954 -0.6290
  672SOL    HW1 2015   0.439   0.630   2.289 -0.5136  0.4849  1.2847
  672SOL    HW2 2016   0.302   0.684   2.380 -1.3403  0.1046 -0.2873
  673SOL     OW 2017   0.116   1.172   1.164  0.4751  0.0991  0.4271
  673SOL    HW1 2018   0.148   1.226   1.248  2.4881  0.1407  3.4034
  673SOL    HW2 2019   0.193   1.124   1.115  0.3859  1.6307  1.3113
  674SOL     OW 2020   1.610   2.928   0.228 -0.2520 -0.0700  0.0253
  674SOL    HW1 2021   1.654   3.018   0.210 -2.2823 -2.2226 -1.0018
  674SOL    HW2 2022   1.673   2.855   0.186  0.3420 -0.3952 -0.6992
  675SOL     OW 2023   1.690   0.821   2.313 -0.7509 -0.3944 -0.3202
  675SOL    HW1 2024   1.793   0.809   2.293 -0.3326  1.5164 -0.1817
  675SOL    HW2 2025   1.632   0.738   2.295 -1.2200  4.5971  2.7121
  676SOL     OW 2026   2.483   1.443   2.010 -0.2812  0.2540  0.1587
  676SOL    HW1 2027   2.488   1.416   1.912  1.6240  1.4100  1.5083
  676SOL    HW2 2028   2.545   1.378   2.068  1.7087 -2.4975 -0.1706
  677SOL     OW 2029   1.949   0.711   0.858  0.2975 -0.0495 -0.7958
  677SOL    HW1 2030   1.989   0.737   0.955  1.8137 -0.7077 -0.1829
  677SOL    HW2 2031   2.010   0.642   0.805 -0.4778 -2.4167 -1.5221
  678SOL     OW 2032   0.021   0.772   1.693  0.8723 -0.0340  0.1208
  678SOL    HW1 2033   0.114   0.760   1.730  0.2078  0.1891  0.0008
  678SOL    HW2 2034  -0.051   0.759   1.770 -0.9348 -0.6777  0.8332
  679SOL     OW 2035   2.607   1.193   1.102  0.0180 -0.0301  0.4264
  679SOL    HW1 2036   2.508   1.192   1.133 -1.4045 -2.9182  0.0947
  679SOL    HW2 2037   2.637   1.094   1.086 -1.6759  0.3596 -0.1581
  680SOL     OW 2038   2.785   0.628   1.718 -0.2725 -0.0705  0.0721
  680SOL    HW1 2039   2.774   0.680   1.630  0.8732 -1.7650 -0.1741
  680SOL    HW2 2040   2.849   0.673   1.785  0.2937  2.1635 -0.6795
  681SOL     OW 2041   3.022   0.188   1.658 -0.3052 -0.3797 -0.1087
  681SOL    HW1 2042   3.099   0.174   1.588  0.1765  1.4407 -1.0322
  681SOL    HW2 2043   2.961   0.266   1.650  0.1559 -3.5044  0.0235
  682SOL     OW 2044   0.716   0.029   1.284 -0.5219 -0.2039 -0.7676
  682SOL    HW1 2045   0.688  -0.054   1.334 -1.3976  3.8088 -0.3565
  682SOL    HW2 2046   0.743   0.008   1.191 -0.8304 -1.1606  2.9235
  683SOL     OW 2047   1.338   0.189   2.205 -0.3468  0.4562 -0.1929
  683SOL    HW1 2048   1.291   0.270   2.246 -0.2060  1.9372 -0.8454
  683SOL    HW2 2049   1.419   0.224   2.144 -0.0695  1.6103  1.1698
  684SOL     OW 2050   1.465   2.119   0.550  0.1458  0.0136  0.4501
  684SOL    HW1 2051   1.521   2.045   0.599  1.5072  1.2879 -2.1500
  684SOL    HW2 2052   1.381   2.079   0.507  2.2943 -0.3908 -0.2949
  685SOL     OW 2053   2.156   1.993   1.969  0.3871  0.5989 -0.6683
  685SOL    HW1 2054   2.227   1.996   1.889  0.7274 -2.4339  1.0660
  685SOL    HW2 2055   2.196   1.963   2.057  0.3797  0.5960 -2.0282
  686SOL     OW 2056   1.509   1.799   2.761 -0.0109  0.2174  0.4311
  686SOL    HW1 2057   1.554   1.723   2.818  1.7705  0.7094 -0.9917
  686SOL    HW2 2058   1.553   1.802   2.667  1.5518 -1.2373  0.5130
  687SOL     OW 2059   1.265   2.488   1.985  0.3815  0.0306 -0.4101
  687SOL    HW1 2060   1.250   2.385   1.992 -2.4208 -1.1507 -0.2059
  687SOL    HW2 2061   1.358   2.525   2.005 -1.3506 -2.6348  0.5331
  688SOL     OW 2062   2.076   1.593   1.751 -0.2256 -0.2255 -0.0165
  688SOL    HW1 2063   2.171   1.581   1.785  0.5718  0.3751  1.4228
  688SOL    HW2 2064   2.068   1.557   1.654 -1.4791  2.5081 -0.1182
  689SOL     OW 2065   2.463   1.062   2.654  0.4874 -0.0575 -0.1532
  689SOL    HW1 2066   2.362   1.075   2.681  0.2380  2.4961  2.3294
  689SOL    HW2 2067   2.521   1.081   2.738 -3.0930  0.9747 -0.9601
  690SOL     OW 2068   2.253   2.807   0.042  0.1415  0.0479  0.5094
  690SOL    HW1 2069   2.184   2.784  -0.030  2.5070 -0.5863  0.4256
  690SOL    HW2 2070   2.207   2.816   0.132  2.5471 -1.5666  1.6621
  691SOL     OW 2071   2.587   0.492   2.182 -0.0760  0.1415 -1.5690
  691SOL    HW1 2072   2.627   0.400   2.154 -4.0503  2.0750 -1.7781
  691SOL    HW2 2073   2.601   0.571   2.116  0.9239  0.6647  0.2512
  692SOL     OW 2074   2.764   1.220   0.712 -0.0291 -0.2195  0.1809
  692SOL    HW1 2075   2.661   1.210   0.689 -0.7334 -0.4902 -2.0506
  692SOL    HW2 2076   2.790   1.314   0.738  0.3305 -1.4792 -0.1319
  693SOL     OW 2077   2.784   2.956   0.662 -0.2460  0.2422  0.1093
  693SOL    HW1 2078   2.818   3.039   0.716 -0.8548  2.3535  0.7109
  693SOL    HW2 2079   2.722   2.973   0.580  0.3360 -1.1530 -0.4498
  694SOL     OW 2080   2.381   2.206   0.079  0.4906  0.5966  0.2596
  694SOL    HW1 2081   2.363   2.295   0.122 -0.4100 -1.1101 -0.2818
  694SOL    HW2 2082   2.295   2.159   0.049  1.5090 -1.2275 -0.5524
  695SOL     OW 2083   0.596   2.949   1.490  0.0732  0.1690  0.3409
  695SOL    HW1 2084   0.556   2.867   1.445  2.5048  1.8786  1.9782
  695SOL    HW2 2085   0.546   2.979   1.576  0.2463  0.9311 -1.9360
  696SOL     OW 2086   2.837   1.933   0.773  0.0642  0.1112 -0.4891
  696SOL    HW1 2087   2.882   1.865   0.840 -0.4200  0.3432 -1.3979
  696SOL    HW2 2088   2.898   1.946   0.690  1.6448 -1.5076 -1.1359
  697SOL     OW 2089   1.633   2.080   1.814  0.4712  0.2985 -0.1857
  697SOL    HW1 2090   1.713   2.025   1.865  1.3959 -0.3647  2.1453
  697SOL    HW2 2091   1.661   2.170   1.776 -0.5962  0.8906  1.2061
  698SOL     OW 2092   2.950   0.418   2.763  0.5779 -0.6644  0.3258
  698SOL    HW1 2093   2.890   0.369   2.690  0.5888 -2.6853 -1.1618
  698SOL    HW2 2094   3.003   0.350   2.821 -0.5262 -1.5572 -2.1651
  699SOL     OW 2095   1.562   0.097   2.930  0.2123 -0.1593  0.4874
  699SOL    HW1 2096   1.538   0.006   2.893 -4.1527  1.3068  1.9615
  699SOL    HW2 2097   1.626   0.158   2.873 -0.8288  0.2400  0.6914
  700SOL     OW 2098   1.018   2.302   1.313  0.0880  0.5044 -0.0911
  700SOL    HW1 2099   1.111   2.263   1.296 -1.9790  0.5693  0.4396
  700SOL    HW2 2100   0.941   2.269   1.247 -0.0945 -2.1130  0.5545
  701SOL     OW 2101   1.941   2.848   3.081 -0.2865 -0.0103 -0.2969
  701SOL    HW1 2102   1.899   2.793   3.163  1.3832 -0.5230  2.7136
  701SOL    HW2 2103   1.975   2.946   3.103  2.4387 -0.8920  0.2457
  702SOL     OW 2104   2.040   1.338   1.925 -0.4486 -0.1084  0.1845
  702SOL    HW1 2105   2.124   1.287   1.894  1.9221 -0.5125 -0.6432
  702SOL    HW2 2106   1.995   1.396   1.850  1.7713 -2.3837 -0.8129
  703SOL     OW 2107   1.953   0.890   1.418 -0.0417  0.0333 -0.4848
  703SOL    HW1 2108   1.947   0.796   1.469 -1.9265 -0.5904 -1.3433
  703SOL    HW2 2109   2.018   0.955   1.469  1.1052  0.7373  2.6704
  704SOL     OW 2110   0.349   2.036   1.690 -0.0905  0.0603 -0.0259
  704SOL    HW1 2111   0.379   1.961   1.759  2.9141 -0.5264  2.9293
  704SOL    HW2 2112   0.415   2.115   1.692  1.1677 -2.7143  1.3104
  705SOL     OW 2113   2.490   1.403   0.968  0.1901 -0.5578 -0.0861
  705SOL    HW1 2114   2.448   1.385   0.876  3.4111 -0.8388 -0.5189
  705SOL    HW2 2115   2.562   1.327   0.995  1.3387 -2.3774 -0.4215
  706SOL     OW 2116   0.669   1.696   1.830 -0.2447  0.7838  0.3337
  706SOL    HW1 2117   0.667   1.603   1.873 -0.2604  1.3138 -3.3483
  706SOL    HW2 2118   0.696   1.771   1.898  0.5092  0.9867  0.0211
  707SOL     OW 2119   2.273   1.180   1.873 -0.5873 -0.5241 -0.1194
  707SOL    HW1 2120   2.369   1.182   1.923  1.3541 -1.0148  0.6279
  707SOL    HW2 2121   2.253   1.089   1.829  0.1234  1.6857 -1.9005
  708SOL     OW 2122   2.985   0.545   3.045 -0.7036 -0.2941 -0.5575
  708SOL    HW1 2123   3.013   0.614   2.976  5.0763 -1.9401  0.3510
  708SOL    HW2 2124   3.002   0.451   3.021  1.4783  4.4754  3.3292
  709SOL     OW 2125   1.789   1.845   0.200 -0.5570 -0.1757  0.2794
  709SOL    HW1 2126   1.820   1.944   0.220  1.8595  2.0145 -1.1267
  709SOL    HW2 2127   1.762   1.836   0.101 -0.5872  0.9412  1.1256
  710SOL     OW 2128   1.709   1.623   2.412 -0.3183  0.2399  0.2049
  710SOL    HW1 2129   1.758   1.596   2.321 -0.4594 -3.2497 -2.0753
  710SOL    HW2 2130   1.707   1.546   2.483  0.4925 -1.8730 -1.5352
  711SOL     OW 2131   2.687   2.976   0.977  0.5557 -0.3741 -0.1040
  711SOL    HW1 2132   2.666   3.073   0.950 -0.9399  0.3715 -0.9496
  711SOL    HW2 2133   2.786   2.950   0.982 -0.3030 -0.8796 -0.0837
  712SOL     OW 2134   1.350   2.236   1.977 -0.0452  0.6429  0.3242
  712SOL    HW1 2135   1.445   2.261   2.015  0.6651  2.1069  0.5525
  712SOL    HW2 2136   1.357   2.200   1.879  2.2147  0.1491 -1.8576
  713SOL     OW 2137   2.941   1.444   2.584 -0.2638  0.5760  0.2537
  713SOL    HW1 2138   2.878   1.365   2.577  0.6399 -0.3089  0.6845
  713SOL    HW2 2139   2.939   1.492   2.673 -0.1635 -3.1487  1.5445
  714SOL     OW 2140   2.680   0.523   2.440 -0.3926 -0.1400 -0.7600
  714SOL    HW1 2141   2.629   0.457   2.506 -0.6618 -0.3455  0.8622
  714SOL    HW2 2142   2.638   0.523   2.342  1.0895 -1.4578 -1.0513
  715SOL     OW 2143   1.596   2.040   1.202 -0.1559  0.0441  0.2952
  715SOL    HW1 2144   1.523   2.103   1.158 -0.6025 -2.1013 -1.2811
  715SOL    HW2 2145   1.623   2.071   1.298  0.2040  2.9985  0.7971
  716SOL     OW 2146   1.196   0.141   1.467 -0.6053  0.6361  0.5315
  716SOL    HW1 2147   1.095   0.157   1.449 -0.6195  2.5480  1.1663
  716SOL    HW2 2148   1.249   0.230   1.448  1.8733 -0.1513  0.4409
  717SOL     OW 2149   1.112   0.559   1.602 -0.1577  0.5000  0.3050
  717SOL    HW1 2150   1.206   0.597   1.622 -0.0629 -0.0278  3.0812
  717SOL    HW2 2151   1.101   0.544   1.498 -3.6703 -0.4690 -1.0845
  718SOL     OW 2152   0.716   0.922   0.959  0.1142  0.1737 -0.8181
  718SOL    HW1 2153   0.710   0.881   0.864 -1.2392 -0.5003 -2.3791
  718SOL    HW2 2154   0.672   1.014   0.979  0.0820  0.6568  1.1061
  719SOL     OW 2155   0.684   1.792   2.299  0.0144  0.1966 -0.2694
  719SOL    HW1 2156   0.726   1.857   2.369  0.0381  1.7916 -1.0326
  719SOL    HW2 2157   0.593   1.766   2.337  1.4994  0.6698 -2.3503
  720SOL     OW 2158   2.189   1.161   0.259 -0.2713 -0.1670 -0.6819
  720SOL    HW1 2159   2.240   1.081   0.213 -1.1115 -1.3138 -0.3767
  720SOL    HW2 2160   2.187   1.150   0.364  0.1040  0.5253  2.2220
  721SOL     OW 2161   2.275   2.998   2.128  0.1653  0.1836 -0.4830
  721SOL    HW1 2162   2.274   3.040   2.034  0.5155 -0.9885 -0.6491
  721SOL    HW2 2163   2.208   3.029   2.196  3.5171 -1.7475 -0.1098
  722SOL     OW 2164   2.377   1.611   0.517 -0.7355  0.4678  1.5071
  722SOL    HW1 2165   2.399   1.605   0.416 -0.9665 -0.2276  1.8708
  722SOL    HW2 2166   2.313   1.684   0.540 -0.5346 -3.5148  0.3555
  723SOL     OW 2167   2.514   2.727   1.981 -0.1182 -0.2098 -0.0050
  723SOL    HW1 2168   2.591   2.775   2.036  0.7408 -0.1695 -0.1765
  723SOL    HW2 2169   2.424   2.724   2.033  2.2726  0.5564  1.0128
  724SOL     OW 2170   0.539   2.460   2.427 -0.3470 -0.0038  0.2837
  724SOL    HW1 2171   0.436   2.448   2.453  2.0858 -2.4241 -1.0901
  724SOL    HW2 2172   0.595   2.515   2.498 -1.2943 -0.6878 -1.1264
  725SOL     OW 2173   2.428   2.803   1.507 -0.1726  0.0541  0.3926
  725SOL    HW1 2174   2.421   2.836   1.408 -0.5535 -1.5586  0.8075
  725SOL    HW2 2175   2.407   2.705   1.520  2.5361 -0.4945  1.6731
  726SOL     OW 2176   2.446   2.240   0.702 -0.4734 -0.2244 -0.4197
  726SOL    HW1 2177   2.441   2.345   0.692 -1.5033  3.9635 -0.4886
  726SOL    HW2 2178   2.465   2.198   0.611 -0.1995  0.3206  2.1256
  727SOL     OW 2179   0.135   3.083   0.038  0.0379 -0.1803  0.4464
  727SOL    HW1 2180   0.189   2.994   0.054 -0.0692 -1.3193 -1.8291
  727SOL    HW2 2181   0.114   3.093  -0.062 -0.9233 -1.2534 -1.9372
  728SOL     OW 2182   2.867   0.681   0.974 -0.5544  0.0166 -0.0966
  728SOL    HW1 2183   2.775   0.687   0.921  2.0173 -1.2253 -0.1093
  728SOL    HW2 2184   2.874   0.620   1.057  0.8668  0.5239 -1.9043
  729SOL     OW 2185   3.019   2.481   0.759 -0.4798  0.1277  0.0677
  729SOL    HW1 2186   3.010   2.411   0.828  0.3576  3.7586 -3.5745
  729SOL    HW2 2187   3.108   2.483   0.713  0.0917  1.3176  2.5488
  730SOL     OW 2188   2.636   0.664   0.832  0.0021 -0.0964  0.6543
  730SOL    HW1 2189   2.576   0.749   0.817 -1.0022 -1.4982 -3.8809
  730SOL    HW2 2190   2.673   0.624   0.737  0.9724  0.8786 -2.3998
  731SOL     OW 2191   0.136   2.171   2.437  0.0837  0.3462 -0.1387
  731SOL    HW1 2192   0.157   2.182   2.540  1.7240 -1.8090 -0.2539
  731SOL    HW2 2193   0.096   2.256   2.394 -0.4461  1.0895 -1.7459
  732SOL     OW 2194   1.142   2.849   1.948 -0.1727  0.0598 -0.3049
  732SOL    HW1 2195   1.186   2.809   2.034 -1.9472  1.4184 -0.4206
  732SOL    HW2 2196   1.169   2.802   1.864 -0.8270  1.4865  2.7931
  733SOL     OW 2197   3.036   0.564   2.244 -0.0185 -0.5847 -0.3177
  733SOL    HW1 2198   3.118   0.604   2.189  0.8499 -1.2551  0.4645
  733SOL    HW2 2199   2.967   0.519   2.187  1.1049  3.5150  2.5433
  734SOL     OW 2200   1.422   0.352   2.759  0.1945  0.1282  0.0181
  734SOL    HW1 2201   1.446   0.436   2.809  0.3950 -1.9474 -1.5743
  734SOL    HW2 2202   1.337   0.302   2.797 -1.1270  0.8210  0.4235
  735SOL     OW 2203   2.883   2.633   2.246 -0.1412  0.0754 -0.3570
  735SOL    HW1 2204   2.847   2.601   2.155  0.8843  0.3643  2.0134
  735SOL    HW2 2205   2.976   2.678   2.228  1.1023 -2.0428 -1.7330
  736SOL     OW 2206   0.751   0.293   2.675  0.0217  0.3530 -0.0412
  736SOL    HW1 2207   0.647   0.303   2.645 -3.0661  0.3580 -2.2190
  736SOL    HW2 2208   0.810   0.259   2.597  0.3367 -1.0652 -0.3585
  737SOL     OW 2209   2.683   0.414   2.879 -0.1341 -0.8846  0.4941
  737SOL    HW1 2210   2.636   0.394   2.971 -0.5853 -0.4352  0.4738
  737SOL    HW2 2211   2.783   0.388   2.869 -0.0758 -0.6910 -2.0882
  738SOL     OW 2212   1.634   1.269   2.911 -0.3732 -0.1050  0.0987
  738SOL    HW1 2213   1.732   1.232   2.918 -0.4890 -1.9159  1.8688
  738SOL    HW2 2214   1.580   1.216   2.835 -2.3367 -1.0043 -1.3837
  739SOL     OW 2215   1.740   0.608   0.689 -0.1737  0.0336  0.0150
  739SOL    HW1 2216   1.792   0.643   0.768 -3.1730 -0.4207 -0.7258
  739SOL    HW2 2217   1.790   0.528   0.645  1.4796  2.0116  0.6581
  740SOL     OW 2218   2.002   1.923   2.236  0.2598 -0.0384  0.9383
  740SOL    HW1 2219   2.063   1.860   2.289 -1.9425  0.7606  0.5405
  740SOL    HW2 2220   1.942   1.866   2.177  1.2002 -1.5503 -2.6108
  741SOL     OW 2221   2.537   0.052   2.620 -0.1494  0.3737  0.4192
  741SOL    HW1 2222   2.640   0.048   2.607  0.5535  0.3427  0.4618
  741SOL    HW2 2223   2.495   0.068   2.524 -0.6464 -0.7222  0.2170
  742SOL     OW 2224   2.237   1.445   0.251 -0.0400  0.7927 -0.4234
  742SOL    HW1 2225   2.166   1.521   0.263  1.8863  0.8448  0.7134
  742SOL    HW2 2226   2.195   1.348   0.244  2.0733 -1.7282 -0.0670
  743SOL     OW 2227   1.839   0.671   2.630 -0.2681  0.2715  0.0536
  743SOL    HW1 2228   1.804   0.623   2.544 -1.8826 -0.3761 -2.1392
  743SOL    HW2 2229   1.780   0.750   2.654 -1.1693 -3.1033 -2.4424
  744SOL     OW 2230   2.626   2.082   0.105  0.6147  0.2661 -0.5547
  744SOL    HW1 2231   2.537   2.148   0.104  1.5582  1.2268 -0.3833
  744SOL    HW2 2232   2.591   1.987   0.077  0.4507 -1.4664 -2.4400
  745SOL     OW 2233   2.179   2.634   2.334 -0.4598  0.3475 -0.2689
  745SOL    HW1 2234   2.096   2.581   2.358 -0.3283 -0.0916 -4.4321
  745SOL    HW2 2235   2.184   2.732   2.368 -0.8017 -0.0702  3.1188
  746SOL     OW 2236   3.071   2.651   1.725 -0.5955  0.0111  0.3692
  746SOL    HW1 2237   3.156   2.636   1.665  1.4692  1.8429 -1.6869
  746SOL    HW2 2238   3.080   2.731   1.793 -0.0514  1.3979  1.1941
  747SOL     OW 2239   3.097   1.785   1.625  0.1491  0.0045 -0.1738
  747SOL    HW1 2240   3.039   1.701   1.610 -2.0401 -2.4733 -0.7437
  747SOL    HW2 2241   3.181   1.785   1.563 -2.4216  1.8252 -1.1631
  748SOL     OW 2242   1.845   2.738   2.823  0.2300 -0.0188 -0.1042
  748SOL    HW1 2243   1.850   2.780   2.921 -0.6436 -0.3894 -1.5358
  748SOL    HW2 2244   1.754   2.697   2.788  0.9683 -0.7559  3.0053
  749SOL     OW 2245   1.284   3.060   0.957  0.5902 -0.0620 -0.3903
  749SOL    HW1 2246   1.246   2.969   0.989  2.4840 -3.1088  1.5513
  749SOL    HW2 2247   1.268   3.068   0.853 -2.8462 -0.1035  0.9755
  750SOL     OW 2248   2.365   0.194   1.858  0.8950  0.2867 -0.5074
  750SOL    HW1 2249   2.350   0.233   1.765 -1.0088  0.8508 -0.6268
  750SOL    HW2 2250   2.365   0.270   1.931  1.5718  1.5502  0.7436
  751SOL     OW 2251   0.909   2.174   2.736  0.3851  0.7068 -0.1730
  751SOL    HW1 2252   0.949   2.202   2.829 -0.2584  1.1014 -1.2638
  751SOL    HW2 2253   0.811   2.134   2.744 -0.0200 -0.9511 -0.4697
  752SOL     OW 2254   1.271   0.864   1.390 -0.5957 -0.1115  0.6051
  752SOL    HW1 2255   1.335   0.939   1.367 -1.0133 -3.3338  1.4916
  752SOL    HW2 2256   1.316   0.774   1.378 -1.5826  3.2009 -1.6642
  753SOL     OW 2257   0.933   2.579   1.710  0.3074  0.0827  0.2744
  753SOL    HW1 2258   1.024   2.615   1.745 -1.8281 -0.8440  1.9551
  753SOL    HW2 2259   0.869   2.656   1.674 -2.1911 -0.0629 -1.0528
  754SOL     OW 2260   1.115   1.256   3.082  0.2124  0.3041  0.7678
  754SOL    HW1 2261   1.158   1.177   3.023  0.0986  0.5823 -2.7328
  754SOL    HW2 2262   1.144   1.351   3.043  0.4242  1.4095  2.1916
  755SOL     OW 2263   1.954   0.449   2.233 -0.2115  0.0051 -0.0620
  755SOL    HW1 2264   2.039   0.398   2.270 -0.8576  0.7788 -2.5283
  755SOL    HW2 2265   1.893   0.481   2.316 -0.1095  1.9319  0.2375
  756SOL     OW 2266   2.548   1.017   2.961  0.1483 -0.6262  0.2593
  756SOL    HW1 2267   2.650   1.020   2.990  0.4470 -0.1246 -0.1796
  756SOL    HW2 2268   2.502   0.945   3.012  2.1131  3.8001 -0.3290
  757SOL     OW 2269   3.073   0.441   1.776 -0.6218  0.1969  0.0153
  757SOL    HW1 2270   3.171   0.416   1.760  0.3642 -2.6380  0.4646
  757SOL    HW2 2271   3.015   0.364   1.815  0.6283 -1.5816 -2.9647
  758SOL     OW 2272   2.391   0.087   1.428  0.1696 -0.1818 -0.5409
  758SOL    HW1 2273   2.365  -0.006   1.474 -1.6720 -0.0318  3.7073
  758SOL    HW2 2274   2.372   0.084   1.324 -0.6911  3.0086 -1.2300
  759SOL     OW 2275   1.725   0.089   0.078 -0.3479  0.0573 -0.1148
  759SOL    HW1 2276   1.670   0.079  -0.011  0.7573 -0.4973 -0.3741
  759SOL    HW2 2277   1.826   0.082   0.057  1.1005 -1.8830  1.7006
  760SOL     OW 2278   2.733   2.081   2.825  0.0702  0.6353  0.0342
  760SOL    HW1 2279   2.721   1.988   2.869 -0.9738  1.3776 -0.5882
  760SOL    HW2 2280   2.707   2.160   2.891  1.2318  1.8603  1.3907
  761SOL     OW 2281   1.889   1.789   1.713  0.2501 -0.2309 -0.1758
  761SOL    HW1 2282   1.955   1.714   1.739 -0.9960  2.5940  0.3464
  761SOL    HW2 2283   1.838   1.768   1.627  0.6454 -1.5458  2.1571
  762SOL     OW 2284   0.462   2.317   0.964 -0.1234 -0.2670 -0.3352
  762SOL    HW1 2285   0.508   2.338   0.874 -0.6750  0.4069 -0.2283
  762SOL    HW2 2286   0.510   2.379   1.034 -0.0842  1.6746  2.0166
  763SOL     OW 2287   2.077   1.521   2.920  0.2617  0.1174  0.1494
  763SOL    HW1 2288   2.168   1.479   2.944  2.7563  1.5376  1.3523
  763SOL    HW2 2289   1.999   1.493   2.981 -0.9447 -0.2846  1.0192
  764SOL     OW 2290   0.611   0.608   0.846 -0.1157 -0.5340  0.1168
  764SOL    HW1 2291   0.562   0.524   0.804  0.5005 -2.0859  0.7406
  764SOL    HW2 2292   0.709   0.580   0.874 -1.0697 -0.2908  1.0628
  765SOL     OW 2293   0.708   0.249   0.791 -0.0387 -0.1791  0.6575
  765SOL    HW1 2294   0.738   0.316   0.713 -0.1872  1.5886 -1.1401
  765SOL    HW2 2295   0.713   0.284   0.890 -1.2959 -0.7558 -1.5716
  766SOL     OW 2296   2.918   2.082   0.004  0.2185  0.2716 -0.2588
  766SOL    HW1 2297   2.826   2.097   0.055  1.6499  0.8751  1.9964
  766SOL    HW2 2298   2.984   2.159   0.013 -1.1424 -1.9039 -0.6183
  767SOL     OW 2299   2.802   1.562   0.600  0.0898  0.0190 -0.3768
  767SOL    HW1 2300   2.737   1.600   0.670  2.5422 -0.8146 -0.5188
  767SOL    HW2 2301   2.897   1.596   0.633  1.2611 -0.1482  4.2482
  768SOL     OW 2302   1.093   0.196   0.333  0.6018  0.5342  0.9621
  768SOL    HW1 2303   0.997   0.159   0.363  0.5733  0.5556  1.0280
  768SOL    HW2 2304   1.154   0.117   0.312 -0.4568 -2.8495  3.2257
  769SOL     OW 2305   1.000   1.901   2.229  0.8198  0.1191  0.0935
  769SOL    HW1 2306   0.946   1.971   2.279 -0.1525 -2.6761  2.9550
  769SOL    HW2 2307   1.015   1.813   2.281 -2.1095  0.8330 -0.4181
  770SOL     OW 2308   0.172   1.141   2.258 -0.1288  0.8565 -0.4189
  770SOL    HW1 2309   0.143   1.191   2.341 -1.0023 -1.2431 -0.1945
  770SOL    HW2 2310   0.097   1.125   2.184 -1.7256 -0.4638 -1.4775
  771SOL     OW 2311   3.002   2.842   1.896 -0.3078  0.0377  0.2460
  771SOL    HW1 2312   2.968   2.926   1.845  0.0815 -1.5042 -0.1772
  771SOL    HW2 2313   2.982   2.853   1.994 -1.5488 -1.7217 -1.0331
  772SOL     OW 2314   2.205   0.181   2.933 -0.3766 -0.9498  0.0722
  772SOL    HW1 2315   2.312   0.161   2.937  1.7310  1.7864  1.0149
  772SOL    HW2 2316   2.175   0.269   2.982  0.2202  0.7631  0.2664
  773SOL     OW 2317   0.727   2.195   2.485 -1.0209  0.3928  0.3462
  773SOL    HW1 2318   0.678   2.246   2.407 -1.6398 -1.9173  0.0064
  773SOL    HW2 2319   0.656   2.143   2.549 -2.0178 -0.5364  2.4042
  774SOL     OW 2320   2.010   0.018   2.636 -0.7491  0.2860 -0.0140
  774SOL    HW1 2321   2.058   0.110   2.667 -1.3552  0.1875  1.4690
  774SOL    HW2 2322   2.045  -0.067   2.677  1.4970  0.7924 -0.4757
  775SOL     OW 2323   2.524   2.846   2.424 -0.5988 -0.1704 -0.1317
  775SOL    HW1 2324   2.576   2.937   2.425  2.8071 -0.3840 -0.0158
  775SOL    HW2 2325   2.569   2.771   2.484  0.6392 -0.1953  1.9895
  776SOL     OW 2326   0.038   1.297   0.201  0.9373 -0.1464 -0.0090
  776SOL    HW1 2327  -0.021   1.258   0.127  0.5518  1.9364  2.5741
  776SOL    HW2 2328  -0.022   1.307   0.291  1.0463  2.0221  0.5231
  777SOL     OW 2329   0.280   2.859   0.415 -0.1032 -0.3106  0.1563
  777SOL    HW1 2330   0.185   2.892   0.400 -2.6927 -2.0962  1.4374
  777SOL    HW2 2331   0.329   2.923   0.482 -2.0880 -0.5292  3.2991
  778SOL     OW 2332   1.305   1.950   0.177  0.2051 -0.0584 -0.1033
  778SOL    HW1 2333   1.245   1.983   0.260 -0.2107 -1.9102 -0.2635
  778SOL    HW2 2334   1.365   2.025   0.140  1.7777 -1.4119  1.3172
  779SOL     OW 2335   0.192   0.848   0.485  0.1805  0.1625  0.2491
  779SOL    HW1 2336   0.151   0.758   0.448  1.7081 -1.7449  0.3425
  779SOL    HW2 2337   0.125   0.901   0.545 -0.1572 -0.4281 -1.0841
  780SOL     OW 2338   0.090   0.253   2.224  0.0868  0.7111  0.5556
  780SOL    HW1 2339   0.080   0.308   2.310 -1.3514 -1.0804  2.0525
  780SOL    HW2 2340   0.185   0.252   2.188 -0.8002  0.9372  1.0606
  781SOL     OW 2341   0.627   1.760   1.557  0.1962  0.3418 -0.3791
  781SOL    HW1 2342   0.659   1.725   1.650 -2.0360  0.4510 -2.9488
  781SOL    HW2 2343   0.535   1.718   1.524  0.1193  0.5636  1.4968
  782SOL     OW 2344   2.623   0.187   0.902 -0.5637  0.0002  0.5898
  782SOL    HW1 2345   2.548   0.181   0.827 -0.2046 -0.3705  1.9360
  782SOL    HW2 2346   2.581   0.224   0.989 -2.1681  1.4103  0.7256
  783SOL     OW 2347   2.853   0.707   2.547  0.1853  0.2432 -0.0282
  783SOL    HW1 2348   2.821   0.733   2.644  0.6386 -0.2640 -2.2135
  783SOL    HW2 2349   2.802   0.625   2.509  5.1619  0.0100 -0.1264
  784SOL     OW 2350   1.407   2.196   0.088 -0.7782 -0.1253 -0.2591
  784SOL    HW1 2351   1.486   2.263   0.114  1.4128  1.0292 -0.4452
  784SOL    HW2 2352   1.380   2.202  -0.013 -0.9360 -0.1858 -1.1975
  785SOL     OW 2353   2.140   0.393  -0.000  0.4354 -0.0294 -0.3663
  785SOL    HW1 2354   2.057   0.375   0.059  2.8851 -1.2480 -1.0589
  785SOL    HW2 2355   2.161   0.495  -0.028  0.2232  1.8901 -3.2566
  786SOL     OW 2356   2.023   2.195   2.229 -0.3465  0.4079  0.4121
  786SOL    HW1 2357   2.011   2.090   2.247 -3.3849 -1.9142  2.8641
  786SOL    HW2 2358   2.122   2.223   2.235 -1.6587  0.3167 -3.8590
  787SOL     OW 2359   1.441   0.633   0.943  0.0272 -0.4089 -0.4824
  787SOL    HW1 2360   1.366   0.698   0.976  0.6896  3.0360  0.0606
  787SOL    HW2 2361   1.434   0.616   0.838  0.3839 -0.9850 -1.3166
  788SOL     OW 2362   1.250   0.389   3.071 -0.1182 -0.5937 -0.5977
  788SOL    HW1 2363   1.148   0.400   3.045  1.2637  1.0164  1.8597
  788SOL    HW2 2364   1.273   0.466   3.141 -2.0625  2.3661 -0.9505
  789SOL     OW 2365   2.591   0.033   1.802 -0.4079 -0.3064  0.0066
  789SOL    HW1 2366   2.502   0.075   1.828  5.5812 -1.9364  3.3219
  789SOL    HW2 2367   2.576  -0.073   1.785 -0.7470 -2.9825  0.2567
  790SOL     OW 2368   2.567   2.711   0.812 -0.0223  0.2649  0.1213
  790SOL    HW1 2369   2.605   2.811   0.819  0.9492  1.6571  0.9638
  790SOL    HW2 2370   2.578   2.653   0.897 -0.9654 -4.4236  0.7964
  791SOL     OW 2371   1.918   1.241   0.262 -0.2442 -0.1027  0.3239
  791SOL    HW1 2372   1.825   1.197   0.282  2.2619 -0.2410  0.0201
  791SOL    HW2 2373   1.991   1.167   0.272 -0.1019 -0.7935 -0.3286
  792SOL     OW 2374   0.432   1.992   2.139 -0.0581 -0.2023  0.0261
  792SOL    HW1 2375   0.529   2.012   2.174 -0.4454  0.3581  1.3677
  792SOL    HW2 2376   0.360   1.959   2.204 -3.4471 -0.7802 -2.3864
  793SOL     OW 2377   2.086   1.586   2.103 -0.4681  0.1496 -0.3005
  793SOL    HW1 2378   2.174   1.641   2.086 -2.2106 -2.7807  0.3304
  793SOL    HW2 2379   2.068   1.514   2.028 -0.9284 -0.2623 -0.6515
  794SOL     OW 2380   0.431   1.362   2.458  0.2340  0.2144  0.5603
  794SOL    HW1 2381   0.475   1.328   2.373 -0.1270  1.3020  0.3899
  794SOL    HW2 2382   0.388   1.456   2.443  0.5056 -0.1901  0.3953
  795SOL     OW 2383   2.396   2.311   1.695  0.6789  0.1604  0.4936
  795SOL    HW1 2384   2.415   2.342   1.790  1.4074 -0.1537  1.7074
  795SOL    HW2 2385   2.383   2.210   1.691 -2.2368  1.5878 -1.1874
  796SOL     OW 2386   3.081   1.093   2.673  1.1210  0.0948  0.1303
  796SOL    HW1 2387   2.979   1.076   2.684  2.4672  2.2924  1.5624
  796SOL    HW2 2388   3.126   1.094   2.767 -1.7419  1.0967 -0.9651
  797SOL     OW 2389   0.750   0.618   1.341 -0.0399 -0.1979 -0.3169
  797SOL    HW1 2390   0.826   0.658   1.400 -1.6123 -2.5794  0.6591
  797SOL    HW2 2391   0.700   0.695   1.293  0.5286 -1.2101  1.3856
  798SOL     OW 2392   1.339   0.420   1.118 -0.2200  0.1833 -0.1935
  798SOL    HW1 2393   1.373   0.415   1.218  0.7619  1.1282 -2.2791
  798SOL    HW2 2394   1.387   0.492   1.063  2.1923 -0.3710  0.2709
  799SOL     OW 2395   1.940   2.613   1.061  0.7590  0.3333  0.2499
  799SOL    HW1 2396   1.918   2.528   1.115  0.0803 -0.4697 -3.1474
  799SOL    HW2 2397   1.873   2.629   0.983 -3.3653 -1.2965 -0.4486
  800SOL     OW 2398   2.962   0.777   1.903 -0.2489  0.7359 -1.0252
  800SOL    HW1 2399   2.977   0.881   1.914 -0.5622  2.5507  1.0507
  800SOL    HW2 2400   2.984   0.716   1.984 -1.8395 -0.1372 -1.4746
  801SOL     OW 2401   1.976   2.198   0.031  0.1310 -0.2113 -0.3378
  801SOL    HW1 2402   1.889   2.221  -0.029 -0.3232  1.7816 -1.4217
  801SOL    HW2 2403   2.044   2.132  -0.006  2.1285  0.5175  2.3485
  802SOL     OW 2404   0.603   0.815   2.590  0.0072  0.1075 -0.0799
  802SOL    HW1 2405   0.596   0.712   2.594  0.6867 -1.2382 -1.7565
  802SOL    HW2 2406   0.531   0.861   2.530  2.1416  0.0686  1.1298
  803SOL     OW 2407   0.963   0.076   0.813  0.3393  0.5697  0.4388
  803SOL    HW1 2408   1.038   0.145   0.826  0.8425 -0.7570 -0.3159
  803SOL    HW2 2409   0.891   0.114   0.748 -0.1295 -1.1118  1.6853
  804SOL     OW 2410   0.315   3.086   2.173 -0.1054 -0.1598 -0.0180
  804SOL    HW1 2411   0.317   3.190   2.155  1.3111 -0.7585 -0.9667
  804SOL    HW2 2412   0.261   3.027   2.101  1.4447 -1.0932  0.2490
  805SOL     OW 2413   2.343   0.415   0.383  0.0174 -0.1679 -0.3082
  805SOL    HW1 2414   2.418   0.377   0.443 -1.5543 -0.6642 -1.5742
  805SOL    HW2 2415   2.349   0.376   0.291 -2.3003 -1.1194  1.7178
  806SOL     OW 2416   0.667   2.436   1.781  0.9570  0.0206  0.7232
  806SOL    HW1 2417   0.656   2.536   1.810 -0.5505 -1.7014 -1.2216
  806SOL    HW2 2418   0.753   2.418   1.724  0.2654  0.9457 -1.6819
  807SOL     OW 2419   2.513   0.821   0.390  0.1570  0.3636  0.3731
  807SOL    HW1 2420   2.601   0.846   0.441  3.4376 -2.8579  3.1333
  807SOL    HW2 2421   2.473   0.894   0.332 -0.8152 -0.5251  1.1426
  808SOL     OW 2422   0.640   2.111   2.927 -0.4663 -0.1950  0.4334
  808SOL    HW1 2423   0.581   2.158   2.995  0.2989  0.1029  0.4385
  808SOL    HW2 2424   0.669   2.016   2.953  1.1845 -0.6159 -0.2468
  809SOL     OW 2425   2.589   1.969   1.891 -0.2198  0.3207 -0.1316
  809SOL    HW1 2426   2.695   1.984   1.899  1.7840 -0.2692  0.2361
  809SOL    HW2 2427   2.544   1.990   1.799  1.1185  1.7604  0.1556
  810SOL     OW 2428   2.187   1.113   0.544  0.7341 -0.6333 -0.1662
  810SOL    HW1 2429   2.137   1.030   0.572  0.6915 -2.1589 -1.3905
  810SOL    HW2 2430   2.142   1.198   0.575 -0.1280 -1.3638  1.9960
  811SOL     OW 2431   1.367   2.516   1.218  0.5175 -0.3403 -0.3052
  811SOL    HW1 2432   1.347   2.417   1.243 -0.3384  2.8865 -0.6902
  811SOL    HW2 2433   1.282   2.570   1.207  2.4641  2.1024  2.1599
  812SOL     OW 2434   1.421   0.745   1.964 -0.2713 -0.1392  0.3081
  812SOL    HW1 2435   1.463   0.817   2.026  0.9566 -4.2630  1.1522
  812SOL    HW2 2436   1.338   0.777   1.909  0.0643  0.1500 -1.5599
  813SOL     OW 2437   1.653   2.073   2.502  0.2301  0.0688 -0.9174
  813SOL    HW1 2438   1.709   2.002   2.548  2.1976 -0.4636  0.6034
  813SOL    HW2 2439   1.631   2.055   2.402 -0.6190 -2.0666  0.0465
  814SOL     OW 2440   2.937   1.585   2.820 -0.3142 -0.4942  0.2386
  814SOL    HW1 2441   2.998   1.542   2.888 -2.2167 -0.6117 -0.3244
  814SOL    HW2 2442   2.969   1.680   2.796 -1.6117 -1.8241  2.3837
  815SOL     OW 2443   2.197   2.935   2.786 -0.1582  0.3356 -0.2356
  815SOL    HW1 2444   2.175   2.862   2.855 -0.7696  0.2960 -2.1557
  815SOL    HW2 2445   2.252   3.009   2.825  0.9107 -0.5302 -0.8990
  816SOL     OW 2446   1.601   0.322   1.655 -0.3770  0.3954  0.2757
  816SOL    HW1 2447   1.671   0.249   1.675 -0.0799 -1.1313  2.0840
  816SOL    HW2 2448   1.590   0.391   1.730  2.0365 -1.4301 -0.2713
  817SOL     OW 2449   0.357   1.153   2.623  0.5707  0.0383  0.4984
  817SOL    HW1 2450   0.272   1.156   2.675  0.3234 -0.5083 -1.4840
  817SOL    HW2 2451   0.370   1.235   2.563  2.2568 -3.0718 -1.5175
  818SOL     OW 2452   1.950   0.952   0.384  0.6750 -0.8302  0.9295
  818SOL    HW1 2453   2.030   0.893   0.424  0.0209 -1.9457  0.2800
  818SOL    HW2 2454   1.869   0.952   0.446 -0.3667 -2.5587  0.4688
  819SOL     OW 2455   2.750   2.945   3.009  0.3570  0.2846  0.3521
  819SOL    HW1 2456   2.813   2.864   2.985 -1.0470 -2.6438  2.4096
  819SOL    HW2 2457   2.654   2.926   2.967 -1.1846 -1.5869  2.0437
  820SOL     OW 2458   1.218   1.051   0.575 -0.2334  0.1173 -0.2626
  820SOL    HW1 2459   1.233   1.150   0.607 -0.8129 -1.0784  1.0452
  820SOL    HW2 2460   1.226   0.989   0.653  0.6688  1.2002 -3.1824
  821SOL     OW 2461   0.014   1.289   0.684  0.4337  0.2747 -0.3244
  821SOL    HW1 2462   0.016   1.270   0.791 -0.9124 -2.3454  3.4485
  821SOL    HW2 2463   0.087   1.362   0.662  0.4053  1.8388  1.3450
  822SOL     OW 2464   2.591   1.784   2.444  0.5063 -0.4027  0.4101
  822SOL    HW1 2465   2.582   1.837   2.532 -0.4546 -0.0014 -0.9051
  822SOL    HW2 2466   2.514   1.796   2.379  1.9388 -0.0944  0.1598
  823SOL     OW 2467   2.010   0.806   1.104  0.2179 -0.3891  0.8285
  823SOL    HW1 2468   1.995   0.788   1.204 -1.5219 -0.0153 -2.0518
  823SOL    HW2 2469   1.927   0.857   1.058 -1.2933  1.9527 -0.0476
  824SOL     OW 2470   0.200   1.993   2.832 -1.0338  0.2521 -0.6607
  824SOL    HW1 2471   0.202   1.916   2.897  0.8134 -1.8558 -3.2527
  824SOL    HW2 2472   0.257   1.965   2.749  0.7367  0.1923  1.0346
  825SOL     OW 2473   1.287   1.043   0.298 -0.1863 -0.4779  0.0820
  825SOL    HW1 2474   1.307   1.144   0.271 -0.1018  2.1223  1.0233
  825SOL    HW2 2475   1.243   1.035   0.389  3.7734 -1.6508 -2.0268
  826SOL     OW 2476   1.946   0.648   1.550  0.4120  0.0798 -0.1825
  826SOL    HW1 2477   2.013   0.585   1.597 -0.0145 -0.7273  0.4856
  826SOL    HW2 2478   1.866   0.595   1.507  1.1310 -3.0046 -0.2516
  827SOL     OW 2479   0.741   1.217   0.288  0.5742 -0.1265  0.0947
  827SOL    HW1 2480   0.804   1.158   0.230  1.3563 -1.7824 -1.4783
  827SOL    HW2 2481   0.663   1.163   0.328 -1.3428 -3.1981 -0.3039
  828SOL     OW 2482   2.629   0.161   1.553  0.1723 -0.4888 -0.6741
  828SOL    HW1 2483   2.528   0.160   1.514 -2.6548 -5.2403 -0.1117
  828SOL    HW2 2484   2.630   0.125   1.648 -1.1220  1.5251  0.0147
  829SOL     OW 2485   2.883   2.443   2.930  0.4263  0.1016 -0.6016
  829SOL    HW1 2486   2.798   2.392   2.962  1.1427 -0.6872 -0.3854
  829SOL    HW2 2487   2.859   2.539   2.901  1.1008 -0.9813 -0.0475
  830SOL     OW 2488   2.807   0.970   3.049 -0.3955  0.1388 -0.2778
  830SOL    HW1 2489   2.881   1.043   3.055 -0.3689  0.3779  2.7019
  830SOL    HW2 2490   2.835   0.883   3.097  2.9133  1.9939  0.7705
  831SOL     OW 2491   0.082   0.619   0.384  1.1879 -0.4889  0.3528
  831SOL    HW1 2492   0.022   0.580   0.456  0.0545 -0.9186 -0.9024
  831SOL    HW2 2493   0.102   0.550   0.308 -1.8680 -0.5394  1.2937
  832SOL     OW 2494   1.829   0.790   3.018  0.0006  0.3670 -0.3238
  832SOL    HW1 2495   1.747   0.836   2.968 -1.1444  0.0152  1.2372
  832SOL    HW2 2496   1.833   0.686   3.013  1.2684 -1.3105  1.6083
  833SOL     OW 2497   2.475   2.106   0.442 -0.0348  0.3818 -0.3159
  833SOL    HW1 2498   2.372   2.105   0.429  1.9045 -1.7550  0.3812
  833SOL    HW2 2499   2.506   2.007   0.458 -0.6696 -1.4274  2.0911
  834SOL     OW 2500   0.108   0.216   0.494 -0.0928 -0.5739 -0.3145
  834SOL    HW1 2501   0.051   0.152   0.545  3.5671 -1.1161  2.3775
  834SOL    HW2 2502   0.103   0.204   0.388 -0.0255 -0.0079  0.9741
  835SOL     OW 2503   2.337   1.513   1.165  0.4805 -0.2232 -0.0309
  835SOL    HW1 2504   2.353   1.611   1.184 -1.6608 -1.8316  0.6412
  835SOL    HW2 2505   2.413   1.475   1.099 -1.4900 -1.9780  1.3855
  836SOL     OW 2506   1.613   0.856   2.613 -0.1539  0.2466 -0.1711
  836SOL    HW1 2507   1.530   0.801   2.639 -0.2542  1.5377  1.4693
  836SOL    HW2 2508   1.633   0.860   2.514 -1.4006 -2.8688 -0.5871
  837SOL     OW 2509   1.597   0.120   0.570 -0.0628  0.3962 -0.2703
  837SOL    HW1 2510   1.576   0.192   0.647 -1.7433  0.2372  1.6455
  837SOL    HW2 2511   1.577   0.155   0.474  1.5988  1.7716 -0.0743
  838SOL     OW 2512   1.221   1.469   2.765 -0.2419  0.2479  0.8866
  838SOL    HW1 2513   1.199   1.472   2.867  2.8790  1.4316  2.1351
  838SOL    HW2 2514   1.157   1.406   2.714  1.6149 -0.2425  0.6807
  839SOL     OW 2515   1.696   0.266   0.972 -0.3886 -0.5048 -0.3916
  839SOL    HW1 2516   1.692   0.345   1.042 -2.5888 -1.4657 -0.3698
  839SOL    HW2 2517   1.668   0.179   1.019 -1.5619  0.1942  0.8232
  840SOL     OW 2518   2.530   2.858   1.758 -0.5284 -0.4697  0.1407
  840SOL    HW1 2519   2.515   2.812   1.671 -0.0205 -0.6356 -1.1003
  840SOL    HW2 2520   2.524   2.793   1.840 -1.9443 -1.5857  0.3047
  841SOL     OW 2521   1.581   0.903   2.956 -0.0779  0.0161  0.3258
  841SOL    HW1 2522   1.578   0.959   3.043  2.2828  2.2079  0.7897
  841SOL    HW2 2523   1.527   0.942   2.876  0.5991  2.6984 -2.4250
  842SOL     OW 2524   0.818   1.517   0.932 -0.1805  0.5873  0.8531
  842SOL    HW1 2525   0.778   1.595   0.990  0.7406 -2.2897  2.3888
  842SOL    HW2 2526   0.741   1.459   0.884  4.0123 -0.6221 -0.8362
  843SOL     OW 2527   0.126   0.137   1.488  0.7679 -0.2789 -0.1498
  843SOL    HW1 2528   0.211   0.165   1.541 -0.2757  1.4580  3.2338
  843SOL    HW2 2529   0.128   0.036   1.473  0.2062  0.7646 -0.3182
  844SOL     OW 2530   0.782   2.504   0.306 -0.4047 -0.3600 -0.0664
  844SOL    HW1 2531   0.762   2.461   0.397  0.1904 -1.0728  2.0016
  844SOL    HW2 2532   0.699   2.538   0.251 -0.2236  0.8627 -3.4343
  845SOL     OW 2533   1.633   2.858   1.373  0.0183 -0.7237 -0.0677
  845SOL    HW1 2534   1.707   2.863   1.447  0.2150 -1.4108 -1.8546
  845SOL    HW2 2535   1.542   2.894   1.409 -0.3906 -0.0770 -1.6402
  846SOL     OW 2536   1.608   2.980   0.836  1.2031  0.1806 -0.2475
  846SOL    HW1 2537   1.551   2.982   0.751  0.2424  1.7514  1.8010
  846SOL    HW2 2538   1.712   2.978   0.830  2.7180 -3.8511  1.2190
  847SOL     OW 2539   2.029   1.641   0.249 -0.3734 -0.0965 -0.1892
  847SOL    HW1 2540   1.993   1.561   0.310 -2.0372 -0.4933 -1.5822
  847SOL    HW2 2541   1.951   1.705   0.235  2.5830 -1.4583  0.5124
  848SOL     OW 2542   2.508   0.786   2.648  0.3377  0.6788  0.5546
  848SOL    HW1 2543   2.488   0.889   2.659  0.4453 -0.1165 -0.1367
  848SOL    HW2 2544   2.443   0.752   2.572 -1.6878 -1.2081 -2.1186
  849SOL     OW 2545   2.510   0.846   2.327 -0.8149  0.3063  0.1617
  849SOL    HW1 2546   2.581   0.832   2.256 -1.8373  0.8782  0.3145
  849SOL    HW2 2547   2.460   0.758   2.356  1.0037 -1.1797  1.5063
  850SOL     OW 2548   1.514   0.111   1.338 -0.0220 -0.4076 -0.2474
  850SOL    HW1 2549   1.515   0.116   1.233 -0.3946 -1.2829  1.7807
  850SOL    HW2 2550   1.463   0.027   1.366  0.2612  0.7836  0.1494
  851SOL     OW 2551   0.471   1.737   0.632 -0.0619 -0.4997  0.3702
  851SOL    HW1 2552   0.489   1.837   0.633 -0.7472 -1.0376 -0.8720
  851SOL    HW2 2553   0.556   1.680   0.615  0.4213 -1.1936  1.6349
  852SOL     OW 2554   0.794   2.163   1.685 -0.2093  0.0138 -0.3120
  852SOL    HW1 2555   0.761   2.251   1.651  0.1635 -2.3448  4.6910
  852SOL    HW2 2556   0.738   2.129   1.769 -2.3771 -1.0187 -1.5003
  853SOL     OW 2557   2.487   1.570   2.618 -0.0206  0.1206  0.2813
  853SOL    HW1 2558   2.454   1.477   2.578 -1.7979 -0.2349  1.6895
  853SOL    HW2 2559   2.527   1.626   2.543 -2.4962  1.3939 -0.3342
  854SOL     OW 2560   2.522   1.345   1.750  0.0983 -0.2798  0.5868
  854SOL    HW1 2561   2.512   1.325   1.646 -0.3017 -1.5965 -0.1672
  854SOL    HW2 2562   2.540   1.258   1.802  0.0710 -0.7437  0.8147
  855SOL     OW 2563   2.105   2.345   0.969  0.2008 -0.1477  0.3694
  855SOL    HW1 2564   2.115   2.434   0.914 -2.5678  1.2800  0.3089
  855SOL    HW2 2565   2.176   2.336   1.043  0.1561  0.4023  3.3835
  856SOL     OW 2566   1.345   1.483   0.858 -0.8335 -0.2825  0.3806
  856SOL    HW1 2567   1.425   1.541   0.889  0.4668 -0.0353  0.1460
  856SOL    HW2 2568   1.256   1.506   0.899  3.6007 -0.4509  0.1315
  857SOL     OW 2569   2.965   2.661   1.031 -0.0505 -0.4263  0.3374
  857SOL    HW1 2570   2.879   2.603   1.038 -1.2564 -1.3918  0.3731
  857SOL    HW2 2571   3.045   2.603   1.026 -1.7177  1.2700 -2.3137
  858SOL     OW 2572   2.293   2.057   1.717  0.2097  0.6920 -0.1840
  858SOL    HW1 2573   2.191   2.076   1.695  1.1105  1.1751  2.5002
  858SOL    HW2 2574   2.326   1.976   1.666  1.3836  0.9607  1.3739
  859SOL     OW 2575   2.446   0.550   1.024 -0.2965  0.1770 -0.0684
  859SOL    HW1 2576   2.512   0.599   0.966 -3.6124 -1.2546  0.4707
  859SOL    HW2 2577   2.489   0.475   1.075 -1.4513  0.2181  0.6690
  860SOL     OW 2578   1.931   2.832   0.450 -0.0350  0.2166  0.8254
  860SOL    HW1 2579   1.880   2.767   0.391  1.4339 -0.2795 -1.1472
  860SOL    HW2 2580   2.031   2.860   0.416  1.2997  0.1968 -1.8118
  861SOL     OW 2581   1.072   2.547   2.838  0.1277  0.2959 -0.0036
  861SOL    HW1 2582   1.138   2.619   2.808 -1.8050 -0.3623 -1.0299
  861SOL    HW2 2583   1.081   2.516   2.935  0.6571 -2.0222 -2.3166
  862SOL     OW 2584   2.842   2.528   1.590 -0.2917 -0.8021  0.0914
  862SOL    HW1 2585   2.926   2.551   1.646  0.9524  2.7132 -4.8207
  862SOL    HW2 2586   2.818   2.613   1.532  0.1094  0.8674 -1.9503
  863SOL     OW 2587   1.839   2.689   0.177  0.2620 -0.3330 -0.1656
  863SOL    HW1 2588   1.880   2.593   0.170  0.3257  1.5997  1.8018
  863SOL    HW2 2589   1.733   2.683   0.191 -1.5940  1.3454 -0.3645
  864SOL     OW 2590   1.875   1.170   2.869  0.3757 -0.3732  0.1282
  864SOL    HW1 2591   1.865   1.135   2.772 -2.1074 -0.7849  1.4502
  864SOL    HW2 2592   1.936   1.113   2.929 -2.0968  0.0111 -1.0903
  865SOL     OW 2593   2.204   1.833   0.610  0.0122 -0.1400  0.3859
  865SOL    HW1 2594   2.247   1.852   0.702  0.4872  0.2034 -1.7114
  865SOL    HW2 2595   2.120   1.777   0.621  1.7076  0.6225  1.6261
  866SOL     OW 2596   2.961   2.914   0.971 -0.8929  0.4326 -0.2534
  866SOL    HW1 2597   3.027   2.955   0.898  2.2978  1.3806 -0.9592
  866SOL    HW2 2598   2.970   2.810   0.982  0.5162  2.0568 -1.6443
  867SOL     OW 2599   0.346   1.383   0.926 -0.6695  0.6063  0.7877
  867SOL    HW1 2600   0.350   1.328   0.839  1.7320  0.5373 -0.1356
  867SOL    HW2 2601   0.290   1.473   0.917  1.7669  1.1622  0.1540
  868SOL     OW 2602   0.730   1.873   2.022  0.5885  0.1612 -0.1408
  868SOL    HW1 2603   0.744   1.860   2.125 -0.4442 -0.0571 -0.5913
  868SOL    HW2 2604   0.689   1.962   1.994  0.3091 -0.5924  0.6351
  869SOL     OW 2605   2.533   1.942   1.590 -0.0860 -0.0535 -0.0569
  869SOL    HW1 2606   2.630   1.983   1.586  0.0231 -1.6182  0.5022
  869SOL    HW2 2607   2.539   1.853   1.637  1.2756 -0.8951 -1.7902
  870SOL     OW 2608   2.311   2.662   1.277 -0.2331 -0.0379 -0.0023
  870SOL    HW1 2609   2.299   2.568   1.233  0.5214 -0.1522 -1.4557
  870SOL    HW2 2610   2.250   2.686   1.364 -0.8501 -0.9648  0.2200
  871SOL     OW 2611   2.975   2.120   0.561 -0.2756 -0.4891  0.6307
  871SOL    HW1 2612   2.928   2.176   0.633  1.1937  1.6447  0.4435
  871SOL    HW2 2613   2.913   2.082   0.483  2.8659  0.2334 -1.5358
  872SOL     OW 2614   2.120   0.475   1.668 -0.0759  0.2040 -0.2758
  872SOL    HW1 2615   2.083   0.449   1.761 -0.2017 -0.4873  2.0653
  872SOL    HW2 2616   2.217   0.437   1.645  0.6568 -1.0570 -2.5999
  873SOL     OW 2617   1.732   2.077   3.045  0.2685 -0.5199 -0.2629
  873SOL    HW1 2618   1.667   2.137   3.097  1.7868 -0.0430 -1.2828
  873SOL    HW2 2619   1.707   2.063   2.945  1.0143 -1.3602  1.3722
  874SOL     OW 2620   0.662   2.466   0.807 -0.1699  0.5470  0.0606
  874SOL    HW1 2621   0.644   2.566   0.842 -1.2678  2.7496 -0.0830
  874SOL    HW2 2622   0.761   2.442   0.819 -2.9267  2.8296 -0.3590
  875SOL     OW 2623   2.261   1.518   1.440  0.0913 -0.7837  0.1271
  875SOL    HW1 2624   2.328   1.596   1.473 -0.6849 -0.1378 -1.0485
  875SOL    HW2 2625   2.289   1.486   1.346  0.6223 -1.5569 -0.4879
  876SOL     OW 2626   0.082   2.250   2.735  0.4439 -0.4449 -0.6082
  876SOL    HW1 2627   0.130   2.184   2.789 -0.7309  2.2058 -2.8417
  876SOL    HW2 2628   0.103   2.345   2.765 -1.2352 -0.5966  2.4847
  877SOL     OW 2629   2.887   2.702   0.553 -0.0834 -0.1565 -0.4473
  877SOL    HW1 2630   2.835   2.770   0.607 -1.5621 -0.3978 -1.8854
  877SOL    HW2 2631   2.944   2.639   0.617 -0.1329  0.2293  2.3382
  878SOL     OW 2632   2.805   1.553   2.184 -0.0357  0.7415 -0.0590
  878SOL    HW1 2633   2.900   1.517   2.181 -0.5956  1.2850  1.0795
  878SOL    HW2 2634   2.776   1.574   2.280  1.0251 -0.2112  0.9621
  879SOL     OW 2635   2.368   0.055   1.152  0.0093 -0.6490  0.0423
  879SOL    HW1 2636   2.445  -0.020   1.156  2.5768  0.3978  1.2941
  879SOL    HW2 2637   2.283   0.031   1.096  0.7945 -2.0466 -0.9934
  880SOL     OW 2638   0.673   0.487   2.239 -0.5224 -0.4130  0.3166
  880SOL    HW1 2639   0.621   0.434   2.315  0.1701 -0.7458  0.0529
  880SOL    HW2 2640   0.735   0.428   2.177 -1.1540  1.5285 -1.2182
  881SOL     OW 2641   0.899   0.061   0.482 -0.6170  0.0269  0.1351
  881SOL    HW1 2642   0.945  -0.030   0.500  3.2426  2.1535  0.0607
  881SOL    HW2 2643   0.811   0.047   0.437  0.7702  2.4681  2.9001
  882SOL     OW 2644   2.722   1.708   1.657 -0.0232 -0.3214  0.1611
  882SOL    HW1 2645   2.801   1.654   1.624 -1.0601 -2.1820  2.2825
  882SOL    HW2 2646   2.716   1.705   1.762  1.3367  0.2811 -2.7468
  883SOL     OW 2647   0.878   0.617   0.976 -0.1619  0.0307 -0.1993
  883SOL    HW1 2648   0.881   0.712   1.027  0.9251  1.6233 -0.1067
  883SOL    HW2 2649   0.898   0.540   1.040 -0.5162 -1.3101 -0.5410
  884SOL     OW 2650   1.176   1.781   1.152 -0.0936 -0.2906 -0.4130
  884SOL    HW1 2651   1.168   1.691   1.094  1.8747 -0.6714 -0.8374
  884SOL    HW2 2652   1.114   1.851   1.114 -0.0737  2.0054 -0.1248
  885SOL     OW 2653   2.354   1.812   2.293 -0.6561 -0.1249  0.1852
  885SOL    HW1 2654   2.274   1.766   2.343  1.3579  0.2676  1.2426
  885SOL    HW2 2655   2.350   1.921   2.285  1.8432  0.7341 -2.7223
  886SOL     OW 2656   2.587   0.417   1.808 -0.2266  0.3801  0.4528
  886SOL    HW1 2657   2.617   0.368   1.894  1.4197  2.0572  0.8890
  886SOL    HW2 2658   2.644   0.498   1.778  1.3086  0.0478 -1.2140
  887SOL     OW 2659   0.106   2.023   1.260  0.0656 -0.1840 -0.6677
  887SOL    HW1 2660   0.028   1.993   1.198  0.7219 -0.4504  0.2574
  887SOL    HW2 2661   0.108   2.125   1.290  1.3184  0.0180  1.8034
  888SOL     OW 2662   0.577   1.316   1.561 -0.2889  0.6902  0.4774
  888SOL    HW1 2663   0.606   1.341   1.464 -2.1838  0.1866 -1.0566
  888SOL    HW2 2664   0.541   1.223   1.567 -0.6393  1.5631  0.4767
  889SOL     OW 2665   0.813   2.527   2.165  0.2948  0.3857  0.2555
  889SOL    HW1 2666   0.740   2.458   2.178  0.1942  3.7012  1.6856
  889SOL    HW2 2667   0.871   2.514   2.084  1.7901  1.2219  0.9957
  890SOL     OW 2668   2.400   2.454   0.203 -0.3414 -0.0934 -0.3406
  890SOL    HW1 2669   2.455   2.519   0.142 -0.3485  1.3089  1.0340
  890SOL    HW2 2670   2.334   2.506   0.269 -2.1250 -1.1889  1.3400
  891SOL     OW 2671   2.605   1.666   0.765  0.4005 -0.6228 -0.1324
  891SOL    HW1 2672   2.599   1.721   0.850 -1.5545 -3.1862  1.1806
  891SOL    HW2 2673   2.527   1.599   0.767  0.2085  1.4906  1.4620
  892SOL     OW 2674   0.375   0.239   2.144 -0.3173  0.0774  0.3903
  892SOL    HW1 2675   0.368   0.329   2.098  1.1017 -2.7627 -2.7219
  892SOL    HW2 2676   0.432   0.246   2.231  2.5761  0.0921 -1.2157
  893SOL     OW 2677   1.669   0.256   2.740  0.0473 -0.3520 -0.0313
  893SOL    HW1 2678   1.745   0.329   2.754 -0.2878  0.4667 -1.4099
  893SOL    HW2 2679   1.575   0.299   2.744  0.3212  1.0259 -2.5144
  894SOL     OW 2680   2.189   1.995   0.009  0.2056  0.2585  0.1814
  894SOL    HW1 2681   2.155   1.936  -0.063  1.6776 -1.1721  4.5803
  894SOL    HW2 2682   2.211   1.941   0.098  0.9800 -0.3506  2.6780
  895SOL     OW 2683   2.845   1.421   0.913  0.3935  0.0613 -0.7054
  895SOL    HW1 2684   2.943   1.390   0.933 -0.3073 -0.6070  0.5161
  895SOL    HW2 2685   2.833   1.524   0.923 -1.8677  2.7793  2.7378
  896SOL     OW 2686   1.815   1.841   1.211  0.1110  0.5184  0.0583
  896SOL    HW1 2687   1.856   1.797   1.127 -1.4963 -1.7562  0.6923
  896SOL    HW2 2688   1.733   1.905   1.191 -0.2750  0.5813  1.5297
  897SOL     OW 2689   0.304   0.581   0.034 -0.4208 -0.3533 -0.8197
  897SOL    HW1 2690   0.252   0.622  -0.047 -4.5240 -0.9611  0.7013
  897SOL    HW2 2691   0.406   0.606   0.045 -0.7932 -0.4173  2.5221
  898SOL     OW 2692   0.576   2.881   1.107 -0.1090 -0.4797 -0.0983
  898SOL    HW1 2693   0.520   2.966   1.130  0.8509 -1.3978 -1.3261
  898SOL    HW2 2694   0.643   2.857   1.181 -0.1632 -0.1205 -0.5185
  899SOL     OW 2695   2.775   0.892   1.280 -0.2496 -0.1620  0.2646
  899SOL    HW1 2696   2.708   0.906   1.203  0.9800 -0.7730 -0.3231
  899SOL    HW2 2697   2.870   0.860   1.256 -0.8325  0.6402  0.7841
  900SOL     OW 2698   1.043   2.575   2.371 -0.0862  0.3231 -0.3386
  900SOL    HW1 2699   0.987   2.603   2.290  1.5420 -1.8990  1.0565
  900SOL    HW2 2700   0.985   2.569   2.458 -1.6637 -1.2983  0.7418
  901SOL     OW 2701   1.903   2.356   1.346 -0.2781 -0.2986  0.5806
  901SOL    HW1 2702   1.882   2.320   1.250  0.7062  2.4358  1.5788
  901SOL    HW2 2703   1.983   2.305   1.390 -0.5736  1.7709 -0.4829
  902SOL     OW 2704   2.531   1.656   1.452 -0.7893  0.2974 -0.0847
  902SOL    HW1 2705   2.588   1.684   1.536  1.6038 -0.6125  0.9341
  902SOL    HW2 2706   2.589   1.624   1.374 -0.1379 -0.5228 -1.3551
  903SOL     OW 2707   0.261   2.479   1.982 -0.4593 -0.1122 -0.1924
  903SOL    HW1 2708   0.183   2.430   1.934  0.6269 -1.3053  0.1424
  903SOL    HW2 2709   0.301   2.565   1.936  0.3952  1.4471 -2.8861
  904SOL     OW 2710   2.074   0.759   2.481 -0.1034 -0.7093 -0.8231
  904SOL    HW1 2711   2.016   0.721   2.556  1.4828 -1.5669  0.8615
  904SOL    HW2 2712   2.024   0.761   2.388 -1.7374 -2.1469  1.4054
  905SOL     OW 2713   2.805   0.068   2.568  0.7532 -0.2927  0.1924
  905SOL    HW1 2714   2.863  -0.012   2.532  3.0132  1.8666 -3.4186
  905SOL    HW2 2715   2.848   0.157   2.539 -1.0464  1.8559 -1.5900
  906SOL     OW 2716   0.150   1.754   1.877 -0.3234  0.5126 -0.4787
  906SOL    HW1 2717   0.084   1.754   1.795 -1.2612 -3.1499 -0.0824
  906SOL    HW2 2718   0.234   1.814   1.871  1.5812  1.8422  0.5841
  907SOL     OW 2719   0.141   2.415   0.994 -0.6021 -0.3329 -0.1595
  907SOL    HW1 2720   0.240   2.424   0.981 -1.5637 -0.7906  3.5179
  907SOL    HW2 2721   0.101   2.324   0.981  0.7535  0.2446 -2.4439
  908SOL     OW 2722   2.695   2.955   0.370 -0.2402 -0.4982  0.3920
  908SOL    HW1 2723   2.684   3.017   0.287 -0.1734 -1.2920 -1.4257
  908SOL    HW2 2724   2.787   2.903   0.369 -2.4387 -0.6205 -1.6825
  909SOL     OW 2725   0.759   1.036   2.666  0.1246  0.0275  0.7621
  909SOL    HW1 2726   0.718   0.948   2.633  0.3740  1.5507 -0.1689
  909SOL    HW2 2727   0.845   1.055   2.615 -1.5949 -0.0604  1.6429
  910SOL     OW 2728   1.730   1.841   2.147  0.5444 -0.3073 -0.2653
  910SOL    HW1 2729   1.787   1.882   2.072  1.4677  0.6365  1.7074
  910SOL    HW2 2730   1.651   1.897   2.179  3.3691 -1.3943 -0.4722
  911SOL     OW 2731   1.842   2.924   1.546  0.8013  0.3676  0.4514
  911SOL    HW1 2732   1.935   2.909   1.498  1.0903 -0.7236 -2.0535
  911SOL    HW2 2733   1.834   2.872   1.636  1.0368 -0.8001 -0.9562
  912SOL     OW 2734   2.900   0.980   0.727  0.1958  0.0681  0.1582
  912SOL    HW1 2735   2.895   0.966   0.833 -0.4571  4.4198  2.6411
  912SOL    HW2 2736   2.859   1.074   0.704 -1.3377 -0.1590  0.3263
  913SOL     OW 2737   2.559   1.292   1.477 -0.6598 -0.0980  0.6650
  913SOL    HW1 2738   2.577   1.190   1.463 -0.7249 -0.8956  0.1092
  913SOL    HW2 2739   2.621   1.352   1.412  2.0365 -0.2563 -1.2807
  914SOL     OW 2740   2.912   0.563   1.218 -0.2654 -0.2246  0.5039
  914SOL    HW1 2741   2.966   0.481   1.245 -0.5215  1.2145 -3.2863
  914SOL    HW2 2742   2.849   0.590   1.295  0.2250  2.3382  0.5620
  915SOL     OW 2743   1.236   0.772   1.076 -0.0956  0.0366 -0.2163
  915SOL    HW1 2744   1.261   0.737   1.171  2.7698  1.8147  3.7756
  915SOL    HW2 2745   1.133   0.774   1.057 -1.3454 -0.8655 -0.4594
  916SOL     OW 2746   0.594   0.024   0.677 -0.2827 -0.5620 -0.0559
  916SOL    HW1 2747   0.639   0.104   0.731  0.5453  0.3689  1.4189
  916SOL    HW2 2748   0.569   0.049   0.579 -0.7708  1.8183  0.7561
  917SOL     OW 2749   2.846   2.618   1.949  0.0029  0.0882  0.2936
  917SOL    HW1 2750   2.758   2.673   1.973 -1.3176 -0.8616 -0.6345
  917SOL    HW2 2751   2.919   2.684   1.913  0.9964 -0.0266 -0.3933
  918SOL     OW 2752   1.039   2.209   2.960  0.3046  0.3101 -0.0299
  918SOL    HW1 2753   1.011   2.226   3.057 -1.4143  1.7953 -2.9447
  918SOL    HW2 2754   1.113   2.138   2.954 -3.5396 -1.9189 -0.1253
  919SOL     OW 2755   0.856   1.673   2.805  0.2451 -0.1335  0.4810
  919SOL    HW1 2756   0.897   1.733   2.732  0.8748 -1.0813 -0.7154
  919SOL    HW2 2757   0.834   1.576   2.769  0.0916 -2.4532 -1.7345
  920SOL     OW 2758   1.238   1.868   2.448  0.3206 -0.1628  0.3758
  920SOL    HW1 2759   1.304   1.832   2.381 -2.9345 -0.3485  0.5463
  920SOL    HW2 2760   1.257   1.823   2.539  1.0261 -1.0974 -0.2749
  921SOL     OW 2761   1.054   0.018   2.613  0.8135  0.0654  0.2801
  921SOL    HW1 2762   1.050   0.005   2.509  2.3675  1.0009 -1.9085
  921SOL    HW2 2763   0.980  -0.030   2.658 -1.1600  1.1503 -2.2569
  922SOL     OW 2764   2.162   2.401   2.787  0.7395  0.4581  0.6718
  922SOL    HW1 2765   2.183   2.302   2.816  0.7738 -0.9362 -1.3071
  922SOL    HW2 2766   2.078   2.409   2.718 -2.2210  0.9700 -1.1637
  923SOL     OW 2767   1.211   2.672   0.265 -0.1473 -0.1177 -0.0899
  923SOL    HW1 2768   1.279   2.733   0.321 -0.8997  0.0207  0.8097
  923SOL    HW2 2769   1.246   2.573   0.253 -0.1800 -0.7662 -0.0826
  924SOL     OW 2770   2.906   1.522   0.116  0.1468 -0.2252 -0.1655
  924SOL    HW1 2771   2.815   1.507   0.061 -0.4627  2.5020 -2.9760
  924SOL    HW2 2772   2.989   1.504   0.057 -0.6758  1.4342 -0.3796
  925SOL     OW 2773   0.041   2.949   1.519  0.3525  0.4990 -0.1369
  925SOL    HW1 2774  -0.049   2.987   1.552 -1.8209  2.0738 -2.6569
  925SOL    HW2 2775   0.035   2.852   1.480 -2.8557  0.7589 -0.4078
  926SOL     OW 2776   1.323   2.827   1.220  0.3855 -0.1054  0.6102
  926SOL    HW1 2777   1.411   2.808   1.162 -0.7768 -0.2546 -1.6378
  926SOL    HW2 2778   1.335   2.902   1.292 -0.1485  0.2684 -0.1729
  927SOL     OW 2779   0.355   2.664   1.748  0.0307  0.0456  0.3093
  927SOL    HW1 2780   0.311   2.623   1.665  0.5714 -0.1999 -1.4573
  927SOL    HW2 2781   0.333   2.767   1.753 -0.3084 -0.4561  0.1120
  928SOL     OW 2782   1.543   2.067   2.249 -0.1567 -0.3630 -0.4647
  928SOL    HW1 2783   1.557   2.150   2.192 -1.7396  0.9479  0.6753
  928SOL    HW2 2784   1.449   2.032   2.234  4.2147 -0.6627  1.3507
  929SOL     OW 2785   2.461   2.463   2.906  0.1411  0.1745 -0.0041
  929SOL    HW1 2786   2.356   2.455   2.921 -2.7231 -1.2353  0.9307
  929SOL    HW2 2787   2.488   2.455   2.807  1.6711  1.2199  1.5023
  930SOL     OW 2788   2.180   1.960   1.044 -0.3622 -0.0053 -0.5429
  930SOL    HW1 2789   2.156   1.920   1.137 -0.0389 -1.2693  0.8013
  930SOL    HW2 2790   2.252   2.032   1.049 -1.2454 -1.9721 -0.0082
  931SOL     OW 2791   0.560   1.708   2.711  0.0930 -0.2738  0.5548
  931SOL    HW1 2792   0.616   1.776   2.769  2.0683  0.5011  0.2113
  931SOL    HW2 2793   0.603   1.623   2.668  2.0456 -0.6412 -3.4557
  932SOL     OW 2794   0.434   0.088   2.966 -0.1114 -0.1903  0.1187
  932SOL    HW1 2795   0.531   0.118   2.942 -3.2792 -1.8966 -0.3005
  932SOL    HW2 2796   0.432   0.008   3.026  2.6774 -0.1025  1.1474
  933SOL     OW 2797   1.039   0.775   3.049  0.1086  0.1148 -0.3411
  933SOL    HW1 2798   1.051   0.824   3.141 -0.2078 -2.0935  1.6042
  933SOL    HW2 2799   0.989   0.834   2.977  0.4369  0.8947  1.9710
  934SOL     OW 2800   0.830   2.921   2.659  0.4387  0.0475  0.0661
  934SOL    HW1 2801   0.844   2.881   2.563 -0.0754  2.0575 -1.8574
  934SOL    HW2 2802   0.905   2.884   2.723  2.2704 -1.0708  1.4394
  935SOL     OW 2803   0.019   0.555   0.850  0.3839 -0.1013 -0.4254
  935SOL    HW1 2804   0.037   0.541   0.750  1.4559  1.1089  0.5787
  935SOL    HW2 2805  -0.068   0.609   0.874 -3.9406  0.2281  0.4149
  936SOL     OW 2806   1.097   2.865   0.086 -0.7310  0.4659  0.2654
  936SOL    HW1 2807   1.152   2.903   0.004  2.2137  0.6467 -3.4907
  936SOL    HW2 2808   1.161   2.803   0.143 -0.3046 -0.8678 -1.5011
  937SOL     OW 2809   1.953   2.627   2.095 -0.2318 -0.0081  0.0880
  937SOL    HW1 2810   1.928   2.690   2.174  1.4043 -4.3754  1.0477
  937SOL    HW2 2811   2.031   2.657   2.041 -0.2085 -1.1702  1.5662
  938SOL     OW 2812   2.774   2.055   1.532 -0.2430 -0.2489 -0.2891
  938SOL    HW1 2813   2.713   2.140   1.538  1.4622 -2.1145 -2.9333
  938SOL    HW2 2814   2.865   2.063   1.582  0.4778  0.4172 -1.3157
  939SOL     OW 2815   2.786   1.210   2.485 -0.1296  0.0505 -0.5781
  939SOL    HW1 2816   2.866   1.178   2.426  0.2130 -2.0504 -1.5375
  939SOL    HW2 2817   2.802   1.185   2.587  3.1627 -0.4750  1.6275
  940SOL     OW 2818   1.016   0.470   2.739 -0.1463  0.4804  0.2451
  940SOL    HW1 2819   1.050   0.376   2.755 -2.5172  0.4843 -2.3605
  940SOL    HW2 2820   0.930   0.458   2.687 -0.1700 -1.8177  1.7279
  941SOL     OW 2821   0.061   2.824   2.279  0.0096  0.2824  0.3103
  941SOL    HW1 2822   0.095   2.722   2.245  1.6876 -2.1834  0.3765
  941SOL    HW2 2823   0.129   2.867   2.346  1.3614 -0.0325 -1.3775
  942SOL     OW 2824   0.062   0.080   2.467 -0.3706  0.6502 -0.3147
  942SOL    HW1 2825   0.115   0.120   2.546  0.8341  0.2861  0.0469
  942SOL    HW2 2826   0.070   0.136   2.385  1.6924  0.9350  0.6534
  943SOL     OW 2827   2.117   1.719   2.403 -0.2129 -0.5511 -0.4680
  943SOL    HW1 2828   2.115   1.645   2.336 -1.1480  0.4695  1.1381
  943SOL    HW2 2829   2.098   1.684   2.498 -0.1451  0.4445  2.6021
  944SOL     OW 2830   2.173   2.360   1.462 -0.3574  0.2142 -0.0897
  944SOL    HW1 2831   2.227   2.433   1.511 -1.0969 -0.5185  1.7481
  944SOL    HW2 2832   2.152   2.292   1.536 -0.1366  0.2425 -1.6393
  945SOL     OW 2833   0.720   1.490   0.285  0.1481 -0.1181  0.4090
  945SOL    HW1 2834   0.644   1.519   0.226  0.1246  1.4122  1.0786
  945SOL    HW2 2835   0.742   1.393   0.265  0.5034  1.5388 -3.2750
  946SOL     OW 2836   0.392   0.929   2.465 -0.1968 -0.0154  0.7085
  946SOL    HW1 2837   0.299   0.885   2.439 -2.3325 -1.9509 -0.1352
  946SOL    HW2 2838   0.377   1.026   2.497 -0.9623  0.8354 -2.8088
  947SOL     OW 2839   1.555   0.461   0.024  0.4569  0.3697  0.8729
  947SOL    HW1 2840   1.511   0.506  -0.060  0.6799 -1.5929  1.2922
  947SOL    HW2 2841   1.514   0.371   0.044 -1.4330 -3.0479 -1.4473
  948SOL     OW 2842   1.954   3.059   2.147  0.2629  0.0204  0.0784
  948SOL    HW1 2843   1.988   3.008   2.059  1.9971  4.4072  0.6372
  948SOL    HW2 2844   1.951   2.987   2.224  0.0683 -1.8615  0.9860
  949SOL     OW 2845   0.564   2.487   0.534  0.5192  0.1675  0.1864
  949SOL    HW1 2846   0.571   2.589   0.504 -1.2100 -1.3552  1.0741
  949SOL    HW2 2847   0.590   2.481   0.635  0.6571 -1.4886 -2.6160
  950SOL     OW 2848   0.206   2.175   3.040 -0.5183 -0.5880  0.4533
  950SOL    HW1 2849   0.133   2.247   3.024 -0.0779 -1.8030  1.5591
  950SOL    HW2 2850   0.217   2.113   2.958 -0.4523  0.2121 -1.5651
  951SOL     OW 2851   1.211   2.748   2.731 -0.7335  0.7826 -0.2290
  951SOL    HW1 2852   1.285   2.791   2.668 -2.1601  1.7916 -0.8235
  951SOL    HW2 2853   1.137   2.815   2.755 -0.7111  1.2864  0.1721
  952SOL     OW 2854   0.022   1.702   0.444  1.0058 -0.4193  0.9503
  952SOL    HW1 2855   0.085   1.780   0.445 -2.7043 -1.4816 -1.3996
  952SOL    HW2 2856   0.036   1.621   0.509 -2.2604 -1.9972  1.1884
  953SOL     OW 2857   2.471   1.763   0.273  0.0046  0.2701  0.0427
  953SOL    HW1 2858   2.509   1.667   0.270  0.7878 -1.1628 -2.3570
  953SOL    HW2 2859   2.499   1.817   0.183 -0.2817  0.5192 -1.3720
  954SOL     OW 2860   2.180   0.547   0.954 -0.4345 -0.2883 -0.4429
  954SOL    HW1 2861   2.184   0.566   0.854 -0.0572 -0.8325 -0.7092
  954SOL    HW2 2862   2.276   0.535   0.991  0.5596  0.5087 -0.1587
  955SOL     OW 2863   0.193   2.628   1.289  0.1886  0.5028 -0.2310
  955SOL    HW1 2864   0.096   2.672   1.287 -0.5020  0.3930  0.8453
  955SOL    HW2 2865   0.236   2.624   1.199 -2.2153 -2.3274  1.2719
  956SOL     OW 2866   2.743   2.449   2.441 -0.1787  0.1826  0.1320
  956SOL    HW1 2867   2.779   2.351   2.451 -1.0463  2.3597  0.6926
  956SOL    HW2 2868   2.736   2.471   2.341 -0.5438  0.7621 -1.3595
  957SOL     OW 2869   1.586   2.069   2.787 -0.0875 -0.0965  0.0533
  957SOL    HW1 2870   1.560   1.967   2.789 -0.5988 -1.7338 -1.7681
  957SOL    HW2 2871   1.587   2.100   2.687  0.2378  2.4130  0.3967
  958SOL     OW 2872   2.641   2.300   2.989  0.3736 -0.4085 -0.2285
  958SOL    HW1 2873   2.564   2.360   2.951  1.0685  0.4151  2.2104
  958SOL    HW2 2874   2.618   2.246   3.076  1.6070 -0.9352 -2.9386
  959SOL     OW 2875   0.261   2.798   0.084 -0.0545  0.2108 -0.3165
  959SOL    HW1 2876   0.169   2.788   0.037 -0.5307 -0.9349 -0.6262
  959SOL    HW2 2877   0.277   2.716   0.149  1.2775  1.0313 -0.1071
  960SOL     OW 2878   1.979   0.439   1.941 -0.7069 -0.6297 -0.6837
  960SOL    HW1 2879   1.942   0.526   1.900  0.9994  0.0783 -0.3284
  960SOL    HW2 2880   1.981   0.439   2.048 -0.4908  1.3030 -1.1059
  961SOL     OW 2881   2.578   1.808   1.011  0.0587 -0.2485  1.2941
  961SOL    HW1 2882   2.589   1.908   0.972  1.5088  1.9022 -1.0617
  961SOL    HW2 2883   2.540   1.806   1.108  0.1366  0.1723  3.0156
  962SOL     OW 2884   1.301   0.884   0.072 -0.7318  0.2833 -0.3064
  962SOL    HW1 2885   1.283   0.943  -0.009 -1.9848 -3.4078 -3.4012
  962SOL    HW2 2886   1.280   0.925   0.165  1.5102  0.8613 -0.1634
  963SOL     OW 2887   2.216   2.551   1.861  0.3995 -0.3855  0.3123
  963SOL    HW1 2888   2.193   2.453   1.887 -2.9164  1.5447 -3.2497
  963SOL    HW2 2889   2.240   2.616   1.942 -1.5257 -3.1715  1.2467
  964SOL     OW 2890   2.370   0.368   1.641  0.3569  0.2195  0.1273
  964SOL    HW1 2891   2.444   0.374   1.716 -1.2635 -2.4008  0.5048
  964SOL    HW2 2892   2.406   0.378   1.544 -1.0235  2.4960  1.4354
  965SOL     OW 2893   2.627   3.059   0.131 -0.5263  0.2588  0.3338
  965SOL    HW1 2894   2.687   3.019   0.053  2.3754 -3.1779  1.3276
  965SOL    HW2 2895   2.537   3.082   0.096 -1.1119 -0.3270  1.5252
  966SOL     OW 2896   2.506   2.484   2.208 -0.5843 -0.1505 -0.1114
  966SOL    HW1 2897   2.457   2.534   2.285 -1.5066  0.5128  0.8579
  966SOL    HW2 2898   2.472   2.506   2.114 -1.2915  2.1210  0.4435
  967SOL     OW 2899   2.808   2.783   2.504  0.3023 -0.6163 -0.1437
  967SOL    HW1 2900   2.838   2.718   2.428 -1.6517  0.7015 -2.3800
  967SOL    HW2 2901   2.864   2.868   2.502  1.1210  0.6873  2.4488
  968SOL     OW 2902   1.950   1.009   2.618  0.4618  0.6752 -0.1598
  968SOL    HW1 2903   1.858   1.032   2.572  0.9855  1.2228  2.1846
  968SOL    HW2 2904   1.985   0.929   2.570 -2.9628  3.0447  0.4304
  969SOL     OW 2905   2.781   2.456   1.070 -0.5047  0.0385  0.5402
  969SOL    HW1 2906   2.724   2.427   0.983 -2.9930 -0.3372  2.2526
  969SOL    HW2 2907   2.818   2.375   1.121  0.8347  1.1801  0.7158
  970SOL     OW 2908   1.040   2.126   1.778  0.2682 -0.1181  0.6626
  970SOL    HW1 2909   0.954   2.138   1.719  0.5452 -1.1698 -2.5920
  970SOL    HW2 2910   1.032   2.167   1.873  1.7953 -0.7841  1.5438
  971SOL     OW 2911   2.855   2.063   1.864 -0.4424 -0.2897  0.0397
  971SOL    HW1 2912   2.847   2.167   1.882 -3.5560  0.2715 -0.8004
  971SOL    HW2 2913   2.928   2.056   1.792  1.5452 -0.0814 -2.4936
  972SOL     OW 2914   1.977   2.459   0.192 -0.6632 -0.5940 -0.7512
  972SOL    HW1 2915   1.996   2.375   0.134  0.1162 -0.7411  3.2789
  972SOL    HW2 2916   2.026   2.452   0.283  3.3863  0.1197 -2.2214
  973SOL     OW 2917   1.299   1.066   1.873  0.0509  0.0396  0.0475
  973SOL    HW1 2918   1.220   1.027   1.812  0.5307 -0.8545 -2.2114
  973SOL    HW2 2919   1.271   1.148   1.928  1.6208  0.5135 -0.2124
  974SOL     OW 2920   1.628   0.553   1.988  0.5047 -0.2482 -0.3986
  974SOL    HW1 2921   1.720   0.590   1.947  1.8233  1.3892  0.2919
  974SOL    HW2 2922   1.546   0.624   1.982  0.6449  3.1720 -0.8164
  975SOL     OW 2923   2.345   3.091   0.054 -0.3954 -0.7974 -0.5136
  975SOL    HW1 2924   2.280   3.014   0.089 -0.3533 -1.1555 -3.0227
  975SOL    HW2 2925   2.364   3.077  -0.048  0.6679  0.9480 -0.4791
  976SOL     OW 2926   1.911   2.843   2.322  0.2170  0.0271 -0.0069
  976SOL    HW1 2927   1.833   2.794   2.272 -1.1061 -1.8404 -1.5526
  976SOL    HW2 2928   1.933   2.808   2.417  0.6882  1.3572 -0.4379
  977SOL     OW 2929   0.451   0.695   1.071  0.0833  0.4306 -0.0906
  977SOL    HW1 2930   0.369   0.742   1.035 -0.9299 -0.3554 -1.2025
  977SOL    HW2 2931   0.534   0.691   1.006  2.2259  0.1637 -2.3694
   3.10000   3.10000   3.10000
