1000 SPC/Fw water molecules t=   0.37000 step= 370
 2931
    1SOL     OW    1   2.538   0.309   2.556 -0.0086 -0.2646  0.9160
    1SOL    HW1    2   2.510   0.208   2.548 -1.0370  0.1842  0.4469
    1SOL    HW2    3   2.542   0.339   2.657  0.6785 -0.5044  3.0259
    2SOL     OW    4   2.703   3.025   1.411 -0.3107  0.6336  1.1237
    2SOL    HW1    5   2.785   3.071   1.368 -2.7138  0.0437  1.9063
    2SOL    HW2    6   2.635   3.091   1.462  0.9728  1.6445 -0.6532
    3SOL     OW    7   2.719   2.584   0.408  0.8007  0.1637 -0.5147
    3SOL    HW1    8   2.687   2.484   0.412 -1.1461  1.4611  0.6459
    3SOL    HW2    9   2.782   2.617   0.484 -1.6611 -0.1729  0.0695
    4SOL     OW   10   1.343   1.475   2.378  0.1932 -0.3686 -0.3164
    4SOL    HW1   11   1.239   1.484   2.362 -2.0419  0.8822 -1.1455
    4SOL    HW2   12   1.362   1.387   2.432 -0.4849  0.3971 -0.5486
    5SOL     OW   13   1.207   1.491   3.019 -0.2019  0.0374  0.3206
    5SOL    HW1   14   1.258   1.560   3.074 -1.0263 -0.5932  0.8664
    5SOL    HW2   15   1.111   1.527   3.001 -1.8910  0.4238 -0.4825
    6SOL     OW   16   0.014   1.788   2.888  0.0793 -0.8011 -0.2697
    6SOL    HW1   17  -0.028   1.837   2.969  2.3214 -0.2912 -0.1357
    6SOL    HW2   18   0.014   1.686   2.891  1.7894  1.6037 -2.4799
    7SOL     OW   19   2.552   0.886   1.141 -0.1369 -0.1204 -0.0942
    7SOL    HW1   20   2.465   0.843   1.164 -0.4555  2.7109 -2.1718
    7SOL    HW2   21   2.572   0.895   1.037  2.0278  2.3557  1.7547
    8SOL     OW   22   0.417   0.634   1.549 -0.5856  0.1601 -0.2797
    8SOL    HW1   23   0.485   0.565   1.582 -1.1781  1.4351 -0.6652
    8SOL    HW2   24   0.351   0.593   1.481 -0.6686 -1.1963 -0.2458
    9SOL     OW   25   1.170   0.972   2.267 -0.6629 -0.2250 -0.5110
    9SOL    HW1   26   1.243   1.038   2.229  0.9096  0.5318 -1.6857
    9SOL    HW2   27   1.097   0.944   2.200  3.3513  0.6515  1.6649
   10SOL     OW   28   0.745   1.333   1.240 -0.4735  0.7495  0.4559
   10SOL    HW1   29   0.646   1.327   1.253  1.8493 -0.4080 -2.2711
   10SOL    HW2   30   0.788   1.432   1.243  3.0280  1.7017  0.2870
   11SOL     OW   31   2.343   2.638   0.951  0.1322  0.7581  0.4942
   11SOL    HW1   32   2.331   2.659   1.056 -1.3476  0.5370  1.2223
   11SOL    HW2   33   2.439   2.621   0.922 -0.9914  0.2814 -2.3297
   12SOL     OW   34   1.446   0.914   0.418  0.0583  0.5820 -0.4466
   12SOL    HW1   35   1.402   0.949   0.332 -2.8432  0.2637  1.9858
   12SOL    HW2   36   1.402   0.830   0.461 -0.7331  0.7853  0.3923
   13SOL     OW   37   2.518   0.662   1.847  0.1360  0.1485  0.1105
   13SOL    HW1   38   2.417   0.676   1.871  0.9713 -0.0771  0.8231
   13SOL    HW2   39   2.534   0.610   1.756 -2.1005  2.0862 -1.9042
   14SOL     OW   40   1.939   0.024   0.646  0.5720  0.2282  0.7824
   14SOL    HW1   41   1.853   0.064   0.601  0.5146 -1.7858  1.0307
   14SOL    HW2   42   1.906  -0.042   0.718  0.6470  1.3412 -1.2751
   15SOL     OW   43   1.956   2.013   2.855 -0.5570  0.2652 -0.2450
   15SOL    HW1   44   1.911   2.106   2.870 -1.1983 -0.2959 -2.4228
   15SOL    HW2   45   1.901   1.956   2.784 -0.2189 -0.3260  0.2680
   16SOL     OW   46   1.619   1.741   0.001 -0.3291  0.4795 -0.0759
   16SOL    HW1   47   1.622   1.640  -0.031 -1.2427  1.1646 -3.1292
   16SOL    HW2   48   1.708   1.768   0.050  0.3297 -2.1886 -0.3305
   17SOL     OW   49   0.106   0.467   0.176 -0.4619  1.0339  0.2694
   17SOL    HW1   50   0.196   0.483   0.125 -1.4102 -1.2592 -3.6136
   17SOL    HW2   51   0.028   0.469   0.107 -1.8127  0.4927  0.8464
   18SOL     OW   52   0.977   2.906   2.192 -0.2139 -0.1095 -0.4603
   18SOL    HW1   53   0.896   2.842   2.164 -0.6128  0.5667 -0.5721
   18SOL    HW2   54   1.064   2.878   2.151  0.4068 -2.4253 -1.2821
   19SOL     OW   55   0.501   0.886   1.966  0.4508 -0.9496  0.1746
   19SOL    HW1   56   0.466   0.956   2.035 -0.8265  2.7210 -1.5654
   19SOL    HW2   57   0.603   0.899   1.943  2.0815 -2.0642 -1.2570
   20SOL     OW   58   0.209   2.802   0.820 -0.0603  0.2645 -0.7635
   20SOL    HW1   59   0.131   2.850   0.777 -0.2122  1.4644  2.0333
   20SOL    HW2   60   0.292   2.782   0.758 -2.9219 -3.5913 -3.4578
   21SOL     OW   61   2.761   0.203   2.144  0.3406 -0.1846  0.1258
   21SOL    HW1   62   2.716   0.131   2.083 -1.3220 -0.2573 -0.0053
   21SOL    HW2   63   2.788   0.165   2.239  1.2206 -1.3253  1.9537
   22SOL     OW   64   2.307   0.209   3.099  0.0538  0.7918  0.3445
   22SOL    HW1   65   2.311   0.101   3.095 -1.0996  1.8681  1.7146
   22SOL    HW2   66   2.209   0.249   3.086 -1.6795  1.1867 -0.7324
   23SOL     OW   67   2.808   0.660   0.663  0.4719 -0.3326  0.1053
   23SOL    HW1   68   2.816   0.560   0.631 -2.3893 -0.1833  3.3042
   23SOL    HW2   69   2.766   0.727   0.595 -0.5983  0.9455  0.7340
   24SOL     OW   70   0.165   1.896   0.448 -0.6708  0.2270 -0.3150
   24SOL    HW1   71   0.065   1.904   0.420 -1.9493 -2.6519  3.3675
   24SOL    HW2   72   0.236   1.940   0.389  1.2726  0.6170  3.2115
   25SOL     OW   73   2.253   0.472   0.192 -0.0031  0.0393  0.1911
   25SOL    HW1   74   2.312   0.390   0.208  2.1766 -0.0117  1.3781
   25SOL    HW2   75   2.228   0.510   0.095 -1.2221  0.3377  0.8000
   26SOL     OW   76   2.492   2.192   2.097 -0.3908 -0.2536 -0.0535
   26SOL    HW1   77   2.572   2.235   2.153  0.3725 -0.4069 -1.6221
   26SOL    HW2   78   2.514   2.101   2.056  1.6410  0.3181 -1.2284
   27SOL     OW   79   0.676   2.948   0.103 -0.2690  0.5357  0.0034
   27SOL    HW1   80   0.778   2.971   0.100  0.6107 -1.3598  2.3928
   27SOL    HW2   81   0.623   2.988   0.024 -1.4149  3.0674  0.1534
   28SOL     OW   82   1.565   0.159   0.278 -0.3611  0.1399 -0.0854
   28SOL    HW1   83   1.621   0.118   0.197 -1.9187  0.3087 -0.7714
   28SOL    HW2   84   1.606   0.240   0.327 -0.5567 -0.1859  0.6237
   29SOL     OW   85   2.049   0.589   0.327  0.0072 -0.5239  0.5684
   29SOL    HW1   86   2.042   0.692   0.341 -1.2635 -4.0177 -0.6519
   29SOL    HW2   87   2.137   0.560   0.273  2.7668 -1.4790  0.1684
   30SOL     OW   88   0.127   2.019   0.942 -0.2509 -0.4203  0.1063
   30SOL    HW1   89   0.160   2.032   0.845  1.7987  1.4430  0.1539
   30SOL    HW2   90   0.048   2.076   0.975  1.6078  0.8309 -2.3066
   31SOL     OW   91   2.111   0.003   2.306 -0.3857  0.1547  0.3931
   31SOL    HW1   92   2.102   0.004   2.412  0.8053 -1.2501 -0.5735
   31SOL    HW2   93   2.028  -0.032   2.253  0.2443 -2.0008  2.0006
   32SOL     OW   94   2.897   0.173   0.142  0.2138  0.8671  0.1554
   32SOL    HW1   95   2.866   0.093   0.204  0.8543 -2.6960  0.2962
   32SOL    HW2   96   2.983   0.216   0.181 -0.9160  0.0746  0.8087
   33SOL     OW   97   0.953   0.319   0.478 -0.3670  0.1566  0.3680
   33SOL    HW1   98   0.895   0.238   0.453  1.6638  2.2529 -1.3650
   33SOL    HW2   99   1.025   0.295   0.557  0.7396  1.7015  1.6710
   34SOL     OW  100   0.410   2.854   1.081 -0.5798 -0.7552  0.3923
   34SOL    HW1  101   0.364   2.838   0.988  1.0052  2.2463  0.0718
   34SOL    HW2  102   0.511   2.827   1.074 -1.8724 -2.2425  0.0431
   35SOL     OW  103   0.048   0.054   1.847 -0.3630  0.4185 -0.2711
   35SOL    HW1  104   0.059  -0.040   1.894  0.3641 -0.5260 -1.0772
   35SOL    HW2  105  -0.028   0.057   1.773 -0.9995 -0.9058  0.8448
   36SOL     OW  106   1.933   1.135   1.802 -0.4032 -0.6685  0.0834
   36SOL    HW1  107   2.007   1.091   1.735  2.4431  0.0132 -0.9630
   36SOL    HW2  108   1.972   1.219   1.852  2.1118 -1.5316 -0.6486
   37SOL     OW  109   1.197   0.248   0.947  0.3971 -0.1108  0.5071
   37SOL    HW1  110   1.253   0.320   0.995 -0.5039  0.1085  1.1982
   37SOL    HW2  111   1.207   0.157   0.989  2.7837  0.1236 -0.5748
   38SOL     OW  112   1.076   2.687   2.412 -0.8184  0.3254  0.0527
   38SOL    HW1  113   1.047   2.594   2.448 -2.4267 -0.2728  0.4134
   38SOL    HW2  114   1.002   2.748   2.375  2.0595 -0.2138  1.6260
   39SOL     OW  115   2.304   1.400   3.011 -0.2038 -0.4063 -0.0044
   39SOL    HW1  116   2.399   1.357   2.995  2.2747 -1.6306 -0.7957
   39SOL    HW2  117   2.273   1.388   3.108 -0.0089  0.3351  0.7987
   40SOL     OW  118   2.106   2.537   2.508 -0.2007 -0.3109  0.2312
   40SOL    HW1  119   2.063   2.620   2.555 -3.7020  2.7334 -0.8745
   40SOL    HW2  120   2.037   2.470   2.464 -4.9350  0.0777 -0.0090
   41SOL     OW  121   2.918   0.697   2.749  0.2506 -0.2547  0.1571
   41SOL    HW1  122   2.847   0.746   2.801 -0.9236  0.3279 -1.5778
   41SOL    HW2  123   2.896   0.596   2.744 -2.1278 -0.1548  1.0268
   42SOL     OW  124   1.777   1.751   0.584 -0.2042  0.3252 -0.8331
   42SOL    HW1  125   1.737   1.669   0.535 -1.7408  2.1507 -1.9451
   42SOL    HW2  126   1.825   1.822   0.521  0.4938  1.8649 -1.8132
   43SOL     OW  127   0.445   1.764   1.227 -0.0508 -0.2871 -0.5700
   43SOL    HW1  128   0.405   1.727   1.313  0.3988  1.8998 -0.7842
   43SOL    HW2  129   0.377   1.760   1.145 -0.3284  1.5789 -0.7079
   44SOL     OW  130   1.776   2.558   0.017  0.0338 -0.4960 -0.1341
   44SOL    HW1  131   1.788   2.589  -0.080  0.0934  0.8682  0.3111
   44SOL    HW2  132   1.864   2.558   0.068  3.0799  1.9577 -0.0572
   45SOL     OW  133   0.289   1.929   2.593 -0.1259 -0.4528  0.6376
   45SOL    HW1  134   0.242   1.942   2.501  1.0929  1.2045  1.2157
   45SOL    HW2  135   0.348   1.843   2.601 -0.4827  0.0971 -1.3518
   46SOL     OW  136   1.148   0.638   0.235  0.0529  0.1137  0.2851
   46SOL    HW1  137   1.217   0.701   0.191 -0.8504 -1.2307 -1.5926
   46SOL    HW2  138   1.057   0.686   0.231  1.3519  2.3062 -0.4404
   47SOL     OW  139   0.230   2.449   1.595 -0.2464 -0.3201 -0.2029
   47SOL    HW1  140   0.293   2.367   1.568 -1.4838 -0.2095 -1.6595
   47SOL    HW2  141   0.186   2.490   1.516 -1.4999 -0.0500  2.3653
   48SOL     OW  142   2.574   0.589   0.166  0.5198  0.1508 -0.5091
   48SOL    HW1  143   2.525   0.568   0.256  0.9608  3.3316 -1.4624
   48SOL    HW2  144   2.657   0.660   0.178  0.2698  0.3625  3.5135
   49SOL     OW  145   0.349   0.810   1.748  0.5931 -0.2301 -0.0544
   49SOL    HW1  146   0.420   0.845   1.815 -1.1884 -1.5974  0.4797
   49SOL    HW2  147   0.383   0.727   1.695 -1.4553 -1.1411 -0.4569
   50SOL     OW  148   1.711   1.083   0.382 -0.0816  0.2380 -0.1913
   50SOL    HW1  149   1.678   0.999   0.338 -1.2910 -0.6101 -1.9111
   50SOL    HW2  150   1.654   1.111   0.466 -0.4442 -0.5564  2.3861
   51SOL     OW  151   3.008   1.885   0.352 -0.4298 -0.1122 -0.8211
   51SOL    HW1  152   3.001   1.919   0.252 -1.5758  1.0694  0.3862
   51SOL    HW2  153   2.968   1.789   0.369  1.4022 -1.3775  0.2847
   52SOL     OW  154   0.792   1.977   0.496  0.1406 -0.0283 -0.8806
   52SOL    HW1  155   0.703   2.018   0.528  1.9318  0.8860 -2.7645
   52SOL    HW2  156   0.825   1.898   0.562  0.9967 -0.8714  1.1392
   53SOL     OW  157   0.013   0.357   1.557 -0.5212 -0.1094  0.1899
   53SOL    HW1  158  -0.077   0.331   1.603  0.2567 -0.8687  1.6857
   53SOL    HW2  159   0.011   0.456   1.531 -0.5653  2.2998  0.6735
   54SOL     OW  160   1.756   0.470   3.047  0.2216  0.5909 -0.0659
   54SOL    HW1  161   1.798   0.442   3.143 -2.5440  1.1253  0.8857
   54SOL    HW2  162   1.656   0.509   3.054 -2.6128  1.0706 -0.6225
   55SOL     OW  163   0.714   2.968   0.578  0.1798  0.1896 -0.3281
   55SOL    HW1  164   0.704   3.061   0.622  2.1707 -2.3269  0.2008
   55SOL    HW2  165   0.797   2.949   0.512  0.0199 -2.9789 -1.7203
   56SOL     OW  166   0.461   1.566   3.010 -0.1253  0.0260  0.0535
   56SOL    HW1  167   0.406   1.630   3.071 -4.3843  1.2618  0.3870
   56SOL    HW2  168   0.419   1.476   2.992  3.9167  1.8051 -0.0725
   57SOL     OW  169   1.799   2.419   2.678  0.5264  0.2871  0.3115
   57SOL    HW1  170   1.869   2.408   2.603 -0.2330 -0.2308  0.7064
   57SOL    HW2  171   1.722   2.488   2.661  0.4287 -0.3791 -0.8216
   58SOL     OW  172   0.629   0.424   1.128  0.3960 -0.1342 -0.1980
   58SOL    HW1  173   0.594   0.509   1.091 -0.6028 -3.4882  1.9601
   58SOL    HW2  174   0.554   0.357   1.149 -0.2379  2.3274 -1.0971
   59SOL     OW  175   0.437   2.409   2.716  0.0027  0.0857  0.5726
   59SOL    HW1  176   0.436   2.304   2.722 -1.2132 -2.5173  0.8913
   59SOL    HW2  177   0.507   2.453   2.781  0.6852  0.7721 -0.9402
   60SOL     OW  178   2.291   2.115   2.283 -0.0913 -0.3289 -0.4226
   60SOL    HW1  179   2.369   2.153   2.223 -0.0042 -0.0970  0.7890
   60SOL    HW2  180   2.312   2.144   2.381  1.9799 -2.3524  0.7486
   61SOL     OW  181   1.396   0.637   0.508 -0.9384  0.3798  0.4054
   61SOL    HW1  182   1.291   0.629   0.514 -1.5282 -1.5790  2.1377
   61SOL    HW2  183   1.432   0.637   0.406  0.4953 -1.2110  0.2425
   62SOL     OW  184   2.638   1.822   3.046  0.3372 -0.3068 -0.8562
   62SOL    HW1  185   2.648   1.724   3.078 -0.0287  1.5822  0.8661
   62SOL    HW2  186   2.706   1.850   2.974 -0.1428  2.6480 -3.7932
   63SOL     OW  187   0.513   0.858   0.163 -0.1405  0.2229  0.3633
   63SOL    HW1  188   0.478   0.949   0.129 -0.7851 -0.8482  0.0601
   63SOL    HW2  189   0.550   0.857   0.258  0.3963  3.0448 -0.8413
   64SOL     OW  190   0.101   0.488   2.522 -0.1884  0.8024  0.0271
   64SOL    HW1  191   0.082   0.550   2.601 -4.9430  0.6832  2.6493
   64SOL    HW2  192   0.095   0.529   2.432 -1.7973  2.5444  1.8666
   65SOL     OW  193   0.190   1.478   0.634 -0.1368  0.0695 -0.3807
   65SOL    HW1  194   0.194   1.563   0.693 -4.9901 -1.1725 -0.6082
   65SOL    HW2  195   0.285   1.436   0.610 -0.1751 -0.6071  1.2735
   66SOL     OW  196   2.519   0.415   0.662  0.1794  0.3652  0.1804
   66SOL    HW1  197   2.449   0.474   0.713 -0.7329 -0.0806 -2.2933
   66SOL    HW2  198   2.485   0.321   0.648 -0.1019 -0.4230 -4.4416
   67SOL     OW  199   0.493   2.512   1.385 -0.0029 -0.2274  0.9537
   67SOL    HW1  200   0.579   2.509   1.437  0.0233 -3.3462 -0.7423
   67SOL    HW2  201   0.473   2.417   1.347 -1.2532  2.6754 -1.0194
   68SOL     OW  202   1.041   1.096   2.479 -0.2222 -0.2260  0.4003
   68SOL    HW1  203   1.087   1.037   2.405 -0.1731  3.4609 -1.6647
   68SOL    HW2  204   0.986   1.170   2.432 -0.7696 -1.3009 -0.6706
   69SOL     OW  205   0.761   2.728   2.135 -0.1826  0.3360  0.5891
   69SOL    HW1  206   0.773   2.627   2.151 -1.8196  0.3847 -0.1431
   69SOL    HW2  207   0.656   2.758   2.126  1.5463  2.9582 -0.3511
   70SOL     OW  208   0.655   0.269   2.749  0.1905  0.2302 -0.0635
   70SOL    HW1  209   0.661   0.337   2.830 -0.7874 -0.1969  1.7824
   70SOL    HW2  210   0.603   0.179   2.776 -0.6515  0.7109  0.3613
   71SOL     OW  211   1.132   1.795   0.342  0.0493  0.1518 -0.0597
   71SOL    HW1  212   1.051   1.729   0.348  0.4223 -2.2719 -1.7835
   71SOL    HW2  213   1.149   1.815   0.241 -1.2106 -1.0474  1.1294
   72SOL     OW  214   1.819   0.155   2.086 -0.0384  0.8377 -0.9596
   72SOL    HW1  215   1.872   0.177   2.002 -0.3365 -0.5017 -2.0077
   72SOL    HW2  216   1.824   0.053   2.116 -0.2841 -1.4947  0.8239
   73SOL     OW  217   2.747   2.220   2.516 -0.4524 -0.0540  0.2568
   73SOL    HW1  218   2.772   2.133   2.457 -0.0739  2.9295  0.8631
   73SOL    HW2  219   2.795   2.207   2.608  2.8627  1.0205 -1.4411
   74SOL     OW  220   2.739   2.961   2.026 -0.0413  0.2670 -0.3630
   74SOL    HW1  221   2.674   2.939   2.101  0.0671 -0.1440  0.4006
   74SOL    HW2  222   2.834   2.987   2.062  0.0929 -0.3666 -0.6147
   75SOL     OW  223   0.908   0.744   1.029  0.1000  0.3013  0.2339
   75SOL    HW1  224   0.824   0.786   1.005  1.8036 -0.1922 -0.3344
   75SOL    HW2  225   0.945   0.778   1.122 -1.7346  0.4965 -0.6188
   76SOL     OW  226   1.743   1.244   2.592  0.2828 -0.3843 -0.1300
   76SOL    HW1  227   1.655   1.193   2.597 -1.2413  0.5502 -2.1870
   76SOL    HW2  228   1.731   1.345   2.630 -1.4416  2.4699 -0.3391
   77SOL     OW  229   2.931   0.989   0.985  0.0853 -0.2038  0.8443
   77SOL    HW1  230   2.920   0.884   0.963  2.7918 -0.4930  1.2673
   77SOL    HW2  231   2.966   0.995   1.085  0.4263  2.1869  2.1613
   78SOL     OW  232   1.968   1.414   1.518  0.3309 -0.1702 -0.4691
   78SOL    HW1  233   2.066   1.401   1.483 -0.0933  3.3948 -0.3271
   78SOL    HW2  234   1.895   1.361   1.464  2.5634  0.6959  0.9096
   79SOL     OW  235   0.596   1.356   0.818  0.6740  0.1461  0.3360
   79SOL    HW1  236   0.518   1.406   0.865 -1.1873 -0.0638  1.7248
   79SOL    HW2  237   0.569   1.310   0.729 -0.4828 -0.8145  1.2479
   80SOL     OW  238   0.652   0.498   1.588 -0.3454 -0.1442 -0.2847
   80SOL    HW1  239   0.700   0.555   1.516  0.5257 -0.2011  0.9748
   80SOL    HW2  240   0.692   0.403   1.595  0.3957 -0.1761  0.9247
   81SOL     OW  241   0.988   1.364   2.616  0.1288 -0.3074 -0.0782
   81SOL    HW1  242   1.050   1.280   2.605  0.7198  2.5721 -1.2836
   81SOL    HW2  243   0.947   1.396   2.524 -1.8032  1.8529 -1.2553
   82SOL     OW  244   0.963   2.964   1.545  0.3919 -0.1310 -0.2182
   82SOL    HW1  245   1.022   2.943   1.461  0.6505 -1.0426 -0.7099
   82SOL    HW2  246   0.862   2.926   1.538 -2.2268 -1.1329 -0.5012
   83SOL     OW  247   2.711   2.473   0.780 -0.7338 -0.4734 -0.2486
   83SOL    HW1  248   2.622   2.444   0.739  0.2583 -0.6640 -0.9927
   83SOL    HW2  249   2.713   2.579   0.783 -0.6694 -2.8344  0.2243
   84SOL     OW  250   0.690   3.094   2.402  0.3037 -0.1202 -0.4432
   84SOL    HW1  251   0.588   3.076   2.419  0.5956 -1.5671 -2.8291
   84SOL    HW2  252   0.746   3.014   2.419  2.6546  2.3207 -0.8754
   85SOL     OW  253   0.432   1.682   1.520 -0.1024  0.0093  0.2270
   85SOL    HW1  254   0.364   1.762   1.514 -1.3643 -2.6201 -1.6343
   85SOL    HW2  255   0.435   1.629   1.613 -0.3743  0.0728 -0.3902
   86SOL     OW  256   0.363   0.990   1.500  0.0628 -0.0731  0.3223
   86SOL    HW1  257   0.340   0.928   1.420  0.3194  0.4789  1.1620
   86SOL    HW2  258   0.387   0.942   1.587 -1.7089  0.3804 -0.3510
   87SOL     OW  259   1.523   0.631   0.238  0.0892  0.4357 -0.1478
   87SOL    HW1  260   1.590   0.708   0.243 -0.2867  0.3122  1.2547
   87SOL    HW2  261   1.509   0.608   0.136  1.4517  1.8245  0.3991
   88SOL     OW  262   1.565   1.302   0.191  0.1576  0.5491  0.0391
   88SOL    HW1  263   1.602   1.218   0.235  1.7015 -0.6443 -1.2691
   88SOL    HW2  264   1.467   1.324   0.211  1.5495  1.8134 -3.1692
   89SOL     OW  265   3.083   0.439   0.557  1.0294  0.3210 -0.5936
   89SOL    HW1  266   3.140   0.353   0.567  1.2358 -0.4696  1.0637
   89SOL    HW2  267   2.980   0.422   0.538  3.1240  1.7140  1.1414
   90SOL     OW  268   0.952   1.637   3.013  0.1684 -0.5937  0.0830
   90SOL    HW1  269   0.867   1.620   3.075 -2.2789 -1.4706 -0.4635
   90SOL    HW2  270   0.934   1.667   2.915  0.2174  1.5445  0.3403
   91SOL     OW  271   1.269   1.484   1.791 -0.1887  0.2308  0.0006
   91SOL    HW1  272   1.274   1.581   1.825 -1.1052  1.0727  0.5260
   91SOL    HW2  273   1.362   1.446   1.764 -1.7817  0.0226 -2.4909
   92SOL     OW  274   3.067   1.049   1.207 -0.7550 -0.6175 -0.3280
   92SOL    HW1  275   3.152   1.093   1.168  0.1635 -1.7091  2.5690
   92SOL    HW2  276   3.087   0.985   1.289  0.2835 -1.2623 -1.7852
   93SOL     OW  277   0.003   2.739   0.061 -0.5027  0.0655 -0.0126
   93SOL    HW1  278  -0.018   2.740  -0.041  0.4009 -0.1789 -0.9557
   93SOL    HW2  279   0.068   2.665   0.091  2.7869 -1.6082 -3.1652
   94SOL     OW  280   1.532   1.386   1.688  0.1994  0.7452  0.4079
   94SOL    HW1  281   1.586   1.295   1.692  2.3241  0.2097  0.1075
   94SOL    HW2  282   1.580   1.457   1.747 -1.2931  1.3270 -0.0052
   95SOL     OW  283   1.306   2.481   2.961 -0.1056  0.5287  0.5204
   95SOL    HW1  284   1.227   2.486   3.034 -2.2591  0.3969  1.5413
   95SOL    HW2  285   1.322   2.382   2.919 -0.3191 -1.1858  2.3161
   96SOL     OW  286   0.563   1.991   1.200  0.8783  0.5300 -0.5972
   96SOL    HW1  287   0.495   2.043   1.140  1.0576  4.0435 -0.8351
   96SOL    HW2  288   0.531   1.891   1.220  1.9212 -1.7600 -0.1851
   97SOL     OW  289   0.378   1.498   2.529 -0.3226  0.8203  0.1959
   97SOL    HW1  290   0.277   1.496   2.558  0.0285 -1.3969 -1.0718
   97SOL    HW2  291   0.426   1.579   2.573  2.6435  0.2850 -0.4561
   98SOL     OW  292   1.982   1.642   1.281 -0.0168 -0.7431 -0.3857
   98SOL    HW1  293   1.945   1.583   1.209 -2.7370  0.0565 -1.5231
   98SOL    HW2  294   2.022   1.584   1.359  0.0161 -1.9261 -0.7309
   99SOL     OW  295   2.504   2.135   1.367 -0.2711 -0.2008  0.0820
   99SOL    HW1  296   2.459   2.214   1.416 -1.2389 -1.4478 -1.0147
   99SOL    HW2  297   2.457   2.045   1.394  1.3273  0.7040  0.0784
  100SOL     OW  298   2.321   0.375   2.027  0.0497  0.1543  0.4473
  100SOL    HW1  299   2.260   0.364   2.112 -1.1715  1.5868  0.1866
  100SOL    HW2  300   2.420   0.405   2.046 -3.0125 -1.0870 -1.5376
  101SOL     OW  301   0.371   1.510   0.272 -0.0647 -0.4082 -0.0573
  101SOL    HW1  302   0.449   1.527   0.341  0.9881 -3.0981  0.3196
  101SOL    HW2  303   0.343   1.592   0.211  3.9443  0.1885 -2.2155
  102SOL     OW  304   2.304   1.073   0.810  0.2198 -0.5325 -0.1141
  102SOL    HW1  305   2.232   1.007   0.783 -1.4443  0.2396  0.7285
  102SOL    HW2  306   2.345   1.128   0.727 -2.9189 -0.5086  0.2852
  103SOL     OW  307   2.298   0.040   0.404 -0.1739  0.3405 -0.1934
  103SOL    HW1  308   2.360   0.105   0.347 -3.1744 -0.3939 -0.5667
  103SOL    HW2  309   2.348   0.006   0.487 -0.6358 -0.5895  0.5418
  104SOL     OW  310   0.060   1.855   2.111  0.1785 -0.3525  0.5514
  104SOL    HW1  311   0.100   1.812   2.030 -2.7076  0.4747 -0.4223
  104SOL    HW2  312  -0.044   1.843   2.111  1.3909 -1.8852 -1.6043
  105SOL     OW  313   1.221   1.983   0.810  0.5366 -0.0287 -0.7565
  105SOL    HW1  314   1.150   2.008   0.738  0.1359 -0.5683 -0.4592
  105SOL    HW2  315   1.276   1.896   0.794  1.0617 -1.0841 -0.1669
  106SOL     OW  316   2.084   0.465   1.380  0.1490  0.7594  0.4847
  106SOL    HW1  317   2.009   0.397   1.400  0.1485 -0.5407 -0.2584
  106SOL    HW2  318   2.069   0.551   1.435  2.4056  1.5923  2.3555
  107SOL     OW  319   1.801   3.012   1.067 -0.0381 -0.4371  0.6247
  107SOL    HW1  320   1.872   3.071   1.114 -0.2558  1.8565 -0.1336
  107SOL    HW2  321   1.755   2.952   1.139  0.4380  2.0237 -0.8568
  108SOL     OW  322   0.785   2.702   1.287  0.5502  1.2423  0.5872
  108SOL    HW1  323   0.749   2.750   1.374  1.5036  1.0636 -0.4065
  108SOL    HW2  324   0.860   2.627   1.302 -1.2810 -0.5607 -0.2444
  109SOL     OW  325   2.180   0.110   0.812  0.4191 -0.0838  0.7942
  109SOL    HW1  326   2.086   0.085   0.774  1.6622  0.6428  1.2935
  109SOL    HW2  327   2.187   0.074   0.912 -0.8757 -1.9197  0.3540
  110SOL     OW  328   0.459   2.819   2.699  0.1802  0.0305 -1.0215
  110SOL    HW1  329   0.502   2.882   2.632 -1.1923 -2.8476 -0.5379
  110SOL    HW2  330   0.522   2.743   2.724 -0.3546  2.5866  0.6450
  111SOL     OW  331   1.304   0.542   2.272 -0.1742 -0.0918 -0.2875
  111SOL    HW1  332   1.215   0.572   2.315  0.1114  0.7699  3.6265
  111SOL    HW2  333   1.330   0.453   2.315  0.1405 -1.0873 -1.6605
  112SOL     OW  334   1.749   0.514   1.414 -0.0411 -0.0441  0.3109
  112SOL    HW1  335   1.753   0.516   1.312 -1.3880 -2.2989  1.7497
  112SOL    HW2  336   1.746   0.417   1.457  0.3970 -0.2719  0.3490
  113SOL     OW  337   2.325   1.621   1.724 -0.4104  0.7052  0.3716
  113SOL    HW1  338   2.370   1.524   1.723 -0.8369  0.7178  1.6505
  113SOL    HW2  339   2.305   1.642   1.821  1.0463 -0.7620  0.9345
  114SOL     OW  340   0.304   0.547   1.316  0.1434 -0.2165  0.0521
  114SOL    HW1  341   0.355   0.626   1.273 -1.0380 -1.3698 -0.5197
  114SOL    HW2  342   0.248   0.488   1.255 -0.7102  0.7342  0.3702
  115SOL     OW  343   2.620   1.579   1.215  0.3516 -0.6355 -0.1990
  115SOL    HW1  344   2.653   1.482   1.237  0.7881 -1.2111  0.1940
  115SOL    HW2  345   2.688   1.632   1.153  0.3182  0.8638  0.5890
  116SOL     OW  346   1.806   1.039   0.807 -0.3429 -0.1031 -0.0525
  116SOL    HW1  347   1.748   0.988   0.731  0.2417 -0.3160  0.8035
  116SOL    HW2  348   1.797   1.142   0.797  1.3463 -1.5822  1.3290
  117SOL     OW  349   1.110   0.344   0.707 -0.2728 -0.2766  0.4502
  117SOL    HW1  350   1.148   0.309   0.796  0.6926  0.1446 -0.3524
  117SOL    HW2  351   1.114   0.449   0.706  0.6274 -0.3014  0.7946
  118SOL     OW  352   1.120   1.104   1.145  0.1436  0.4736 -0.2245
  118SOL    HW1  353   1.094   1.013   1.179  1.0565  0.7722 -1.5223
  118SOL    HW2  354   1.074   1.191   1.190 -1.9960  2.5160 -0.9667
  119SOL     OW  355   1.822   1.617   2.093 -0.4034  0.3603  0.7489
  119SOL    HW1  356   1.799   1.713   2.118 -1.5689 -1.6567 -1.6266
  119SOL    HW2  357   1.925   1.600   2.105  3.5462 -1.7991  1.2536
  120SOL     OW  358   2.973   2.809   0.307  0.0275 -0.2753  0.2402
  120SOL    HW1  359   3.038   2.795   0.225 -2.3452 -0.5320 -0.6192
  120SOL    HW2  360   2.952   2.724   0.357 -1.5164  0.3002  0.3585
  121SOL     OW  361   1.994   0.717   2.216 -0.3617 -0.1215  0.6173
  121SOL    HW1  362   2.057   0.760   2.142  1.9821  0.3441 -0.3081
  121SOL    HW2  363   1.995   0.614   2.211 -1.4049  1.4774  0.6428
  122SOL     OW  364   2.722   2.600   1.315  0.0781  0.4331 -1.0605
  122SOL    HW1  365   2.753   2.586   1.221 -0.5042  0.1893  3.3487
  122SOL    HW2  366   2.671   2.514   1.350 -2.6991  0.4233 -0.8368
  123SOL     OW  367   1.733   0.055   1.723  0.5058  0.1532  0.0051
  123SOL    HW1  368   1.748  -0.004   1.639  0.7311  2.3750 -2.0022
  123SOL    HW2  369   1.814   0.065   1.781 -2.3003  0.1525 -0.2656
  124SOL     OW  370   0.107   0.483   1.072  0.1533  0.0790  0.1532
  124SOL    HW1  371   0.086   0.568   1.127 -1.2025  1.1954 -0.4844
  124SOL    HW2  372   0.077   0.497   0.974 -3.0183  2.8062 -3.0221
  125SOL     OW  373   0.894   1.783   0.665  1.0660 -0.7051  0.1551
  125SOL    HW1  374   0.990   1.758   0.641 -0.2172 -0.3923 -0.9243
  125SOL    HW2  375   0.876   1.789   0.768  1.1841 -2.7475  2.5011
  126SOL     OW  376   1.919   2.375   2.399  0.2630 -0.5158  0.0093
  126SOL    HW1  377   1.972   2.342   2.316 -0.1284 -1.1988 -0.5795
  126SOL    HW2  378   1.844   2.306   2.424  1.4476 -2.4226  1.5891
  127SOL     OW  379   0.777   0.960   0.222 -0.0514  0.1172  0.5432
  127SOL    HW1  380   0.836   1.000   0.297  1.3522  0.2266  0.2007
  127SOL    HW2  381   0.778   0.858   0.216 -2.6536  1.9431  1.5579
  128SOL     OW  382   0.943   0.165   1.432 -0.1924  0.0418 -0.5113
  128SOL    HW1  383   0.881   0.235   1.380 -0.0046 -0.6482 -0.0599
  128SOL    HW2  384   0.934   0.070   1.392 -1.3197  0.4150 -1.1154
  129SOL     OW  385   1.891   0.674   1.853  0.3455  0.0679 -0.0152
  129SOL    HW1  386   1.907   0.687   1.749  0.5795 -2.5768 -3.4739
  129SOL    HW2  387   1.881   0.757   1.912  0.9006 -3.5464  0.0177
  130SOL     OW  388   1.315   2.133   1.018 -0.2825  0.5770  0.6690
  130SOL    HW1  389   1.265   2.080   0.944 -0.9392  4.7346 -0.0908
  130SOL    HW2  390   1.363   2.221   0.979  1.4442  0.8771 -0.3491
  131SOL     OW  391   0.016   1.521   1.366  0.0880 -0.5185  0.4595
  131SOL    HW1  392  -0.042   1.432   1.361 -0.6807  0.1156  1.5614
  131SOL    HW2  393   0.111   1.497   1.403 -1.0141 -0.1698 -0.3036
  132SOL     OW  394   1.996   2.426   0.540  1.0922 -0.1312  0.0060
  132SOL    HW1  395   1.894   2.413   0.550 -0.6754  1.2679  1.2557
  132SOL    HW2  396   2.043   2.414   0.630 -0.6999 -1.6490  2.6117
  133SOL     OW  397   1.860   2.268   2.910  0.2567 -0.0544 -0.7213
  133SOL    HW1  398   1.864   2.333   2.988  3.1886  1.3249 -0.9337
  133SOL    HW2  399   1.820   2.317   2.822 -1.9815 -0.6833 -0.1294
  134SOL     OW  400   2.723   2.358   1.625  0.2336 -0.2317  0.1671
  134SOL    HW1  401   2.674   2.336   1.714  2.9335 -1.5180  1.6265
  134SOL    HW2  402   2.800   2.427   1.644  0.8702 -0.7876  1.9866
  135SOL     OW  403   0.732   1.523   2.602  0.0545  0.0896 -0.4745
  135SOL    HW1  404   0.704   1.431   2.637  0.5652 -3.3422  3.0118
  135SOL    HW2  405   0.772   1.511   2.514 -1.0734  1.6876  2.7753
  136SOL     OW  406   1.201   2.024   0.462 -0.2516 -0.0330 -0.3743
  136SOL    HW1  407   1.136   2.068   0.532 -1.8205  0.8406 -0.8815
  136SOL    HW2  408   1.167   1.939   0.416 -1.2731  1.1481  0.4721
  137SOL     OW  409   0.407   1.085   2.153  0.1718  1.0157 -0.9770
  137SOL    HW1  410   0.317   1.117   2.189 -2.2494 -0.7724 -1.8440
  137SOL    HW2  411   0.463   1.043   2.232 -0.4160  0.6654  0.5226
  138SOL     OW  412   2.455   1.501   0.180 -0.3835 -0.0787 -0.1820
  138SOL    HW1  413   2.354   1.509   0.165 -1.5097 -0.7335  0.1682
  138SOL    HW2  414   2.473   1.416   0.239  0.6693 -1.3912  0.5176
  139SOL     OW  415   1.801   2.647   1.202  0.0069  0.4951  0.1937
  139SOL    HW1  416   1.706   2.607   1.177  1.1657  0.7895 -0.3149
  139SOL    HW2  417   1.876   2.573   1.226 -0.0729 -0.5628  0.6652
  140SOL     OW  418   2.991   2.966   2.486 -0.3738  0.2718  0.6513
  140SOL    HW1  419   3.024   2.873   2.511  1.7112  3.9479 -0.2919
  140SOL    HW2  420   3.064   3.041   2.501  0.2515 -0.2427  0.6588
  141SOL     OW  421   1.232   1.665   1.581  0.1981  0.1566  0.8164
  141SOL    HW1  422   1.173   1.741   1.617 -2.4126  0.1420  2.6233
  141SOL    HW2  423   1.247   1.589   1.648  2.5947 -1.2814  0.6357
  142SOL     OW  424   1.590   0.622   2.233  0.5498  0.1797 -0.4650
  142SOL    HW1  425   1.606   0.593   2.134  1.0844  1.7869  1.4088
  142SOL    HW2  426   1.495   0.605   2.256  2.6744 -0.8735 -0.3299
  143SOL     OW  427   2.720   0.882   0.504 -0.2462 -0.3054 -0.2431
  143SOL    HW1  428   2.776   0.921   0.428  0.5169  0.9038  1.3226
  143SOL    HW2  429   2.749   0.917   0.596  3.4977 -2.6423 -2.7968
  144SOL     OW  430   2.984   1.276   1.341 -0.7279  0.5095  0.4690
  144SOL    HW1  431   2.967   1.250   1.441 -0.9263  1.5967  0.4303
  144SOL    HW2  432   3.014   1.200   1.276 -2.7030  0.0055  1.2658
  145SOL     OW  433   1.049   1.854   0.057 -0.5553 -0.3327  0.1542
  145SOL    HW1  434   1.045   1.947   0.005  0.4891  0.1047  2.0990
  145SOL    HW2  435   1.001   1.779   0.005 -0.2816  1.8562 -0.8080
  146SOL     OW  436   2.480   0.633   1.522 -0.3401 -0.3275  0.6770
  146SOL    HW1  437   2.463   0.547   1.460 -2.7264  0.4478 -2.4003
  146SOL    HW2  438   2.420   0.714   1.505  0.8048  0.7176 -0.2889
  147SOL     OW  439   1.051   2.507   0.598  0.6225 -0.4803 -0.2283
  147SOL    HW1  440   1.042   2.558   0.513  2.6673 -0.3343  0.7003
  147SOL    HW2  441   1.142   2.458   0.600 -1.1549 -0.9853 -0.7867
  148SOL     OW  442   1.639   1.451   3.084 -0.1199  0.3339 -0.4800
  148SOL    HW1  443   1.631   1.374   3.016 -2.0583  2.1376  2.0294
  148SOL    HW2  444   1.618   1.414   3.177 -2.8506 -2.0120 -2.4153
  149SOL     OW  445   0.696   1.422   1.943  0.0513 -0.0005 -0.3056
  149SOL    HW1  446   0.612   1.389   1.996 -1.0721 -2.2098 -0.3561
  149SOL    HW2  447   0.733   1.348   1.880  1.6802  0.3265 -1.9887
  150SOL     OW  448   2.958   1.263   0.918  0.5449 -0.6024 -0.5722
  150SOL    HW1  449   3.004   1.316   0.994 -0.5884  0.9003 -0.3816
  150SOL    HW2  450   2.919   1.170   0.949 -0.8908  1.2962  0.4132
  151SOL     OW  451   0.198   0.769   2.157 -0.1608 -0.1276 -0.4261
  151SOL    HW1  452   0.162   0.848   2.103  1.5213 -3.7001  0.3493
  151SOL    HW2  453   0.278   0.727   2.112 -1.3498  1.6309  1.3404
  152SOL     OW  454   1.383   1.734   1.261 -0.5913 -0.3779 -0.0026
  152SOL    HW1  455   1.421   1.815   1.311  1.1996  1.1652  0.3401
  152SOL    HW2  456   1.290   1.746   1.215  0.9367  0.8029 -2.0265
  153SOL     OW  457   0.035   1.537   0.154 -0.1197  0.2269  0.6458
  153SOL    HW1  458   0.033   1.431   0.140  3.3908 -1.4621 -1.0354
  153SOL    HW2  459   0.077   1.563   0.246  0.9033 -2.6466 -2.0412
  154SOL     OW  460   2.375   1.865   2.820 -0.3780 -0.4060  0.4117
  154SOL    HW1  461   2.416   1.773   2.850  2.8441 -1.1630  2.4081
  154SOL    HW2  462   2.390   1.887   2.721 -0.0839 -3.0652 -1.1248
  155SOL     OW  463   2.503   1.259   0.327  0.1453  0.2024 -0.2597
  155SOL    HW1  464   2.589   1.245   0.269 -2.2259 -1.1034 -0.3392
  155SOL    HW2  465   2.432   1.189   0.309  2.0454  3.6693  0.2178
  156SOL     OW  466   2.552   0.946   0.879 -0.4112 -0.0816 -0.0375
  156SOL    HW1  467   2.458   0.987   0.866  1.9660  1.8678 -0.4290
  156SOL    HW2  468   2.631   1.013   0.854 -0.2272  1.6015  0.4297
  157SOL     OW  469   1.209   2.992   2.977 -0.8682 -0.4852 -0.0435
  157SOL    HW1  470   1.277   2.961   2.907  0.5635 -1.9127  0.8158
  157SOL    HW2  471   1.218   3.086   3.020  0.7764 -0.1144 -0.7918
  158SOL     OW  472   1.039   1.850   2.014 -0.1642 -0.5257 -0.5022
  158SOL    HW1  473   1.083   1.894   2.096 -3.6252  1.8877 -0.5132
  158SOL    HW2  474   0.933   1.859   2.017  1.7006 -1.0807  0.2930
  159SOL     OW  475   0.856   0.412   1.281  0.0414  0.3397  0.1092
  159SOL    HW1  476   0.851   0.512   1.318 -0.4280  1.7166 -0.4734
  159SOL    HW2  477   0.777   0.387   1.218  0.5050  1.7862  0.2254
  160SOL     OW  478   1.477   2.483   1.641  0.2559  0.0973  0.0118
  160SOL    HW1  479   1.485   2.578   1.600 -1.6021 -0.1952 -0.6220
  160SOL    HW2  480   1.563   2.434   1.617 -2.8580  2.4436  0.4418
  161SOL     OW  481   0.178   2.902   0.353  0.5589 -0.2122  0.0834
  161SOL    HW1  482   0.092   2.866   0.375  1.3419  0.2594  0.9510
  161SOL    HW2  483   0.157   2.994   0.310 -0.9017  0.2054 -1.4459
  162SOL     OW  484   2.601   1.906   0.524  0.0889  0.0110  0.0519
  162SOL    HW1  485   2.595   1.855   0.433  0.2459 -1.9702  2.8793
  162SOL    HW2  486   2.562   1.848   0.600 -0.8904 -3.1280 -1.7385
  163SOL     OW  487   1.959   2.661   0.719 -0.2536 -0.0379 -0.4834
  163SOL    HW1  488   1.913   2.669   0.628 -0.1384 -2.2184  0.8875
  163SOL    HW2  489   2.039   2.596   0.717  1.2643  1.5003 -0.7674
  164SOL     OW  490   3.043   0.298   1.212 -0.1621 -0.3847  0.8310
  164SOL    HW1  491   3.110   0.354   1.159  0.6947 -1.2945 -0.4084
  164SOL    HW2  492   3.058   0.306   1.312 -0.2075  0.4582  0.1404
  165SOL     OW  493   0.996   1.458   0.681 -0.0662 -0.4732  0.1440
  165SOL    HW1  494   0.928   1.484   0.760 -1.5027  1.0658  1.5725
  165SOL    HW2  495   0.977   1.512   0.595 -2.6949  0.0984 -0.2524
  166SOL     OW  496   1.448   1.072   1.755  0.7769 -0.0735  0.2507
  166SOL    HW1  497   1.366   1.036   1.806 -1.8474  1.1984  0.9791
  166SOL    HW2  498   1.519   1.099   1.819 -1.8707  0.8652  1.1771
  167SOL     OW  499   0.845   1.936   1.528 -0.3501 -0.1745 -0.1133
  167SOL    HW1  500   0.816   1.981   1.616 -0.4245 -0.3153 -0.9687
  167SOL    HW2  501   0.797   1.846   1.512 -1.4644 -1.8389  0.9165
  168SOL     OW  502   1.581   2.380   0.168  0.6507  0.4435  0.1169
  168SOL    HW1  503   1.656   2.436   0.119  1.4132  3.3656  2.3673
  168SOL    HW2  504   1.614   2.288   0.216  0.7015 -1.5000 -0.9907
  169SOL     OW  505   0.182   2.609   2.220  0.4451  0.4036  0.0481
  169SOL    HW1  506   0.233   2.568   2.142 -1.1170 -0.5130 -2.3429
  169SOL    HW2  507   0.176   2.550   2.307  2.3529 -0.8025  1.7345
  170SOL     OW  508   1.262   0.288   1.917 -0.1873 -0.0645  0.2449
  170SOL    HW1  509   1.258   0.248   2.012 -1.7256 -1.9432 -1.3020
  170SOL    HW2  510   1.228   0.215   1.848 -1.1894  1.2263  0.1908
  171SOL     OW  511   0.238   0.766   2.431 -0.5616 -0.5679 -0.3650
  171SOL    HW1  512   0.156   0.773   2.493  0.9485  0.5280 -1.1770
  171SOL    HW2  513   0.211   0.752   2.337 -2.9879 -0.3609  2.6782
  172SOL     OW  514   0.868   1.153   2.925 -0.3756 -0.2581  0.1873
  172SOL    HW1  515   0.965   1.187   2.931  0.5149  1.2251  0.5657
  172SOL    HW2  516   0.850   1.109   2.832 -0.1506 -2.5499  0.1157
  173SOL     OW  517   0.648   2.675   0.148 -0.3771 -0.5934 -0.0363
  173SOL    HW1  518   0.629   2.775   0.115 -0.6398  2.1609  0.7979
  173SOL    HW2  519   0.559   2.620   0.150 -0.0726 -2.9762 -2.0453
  174SOL     OW  520   1.399   2.803   1.054  0.0535  0.4361 -0.2847
  174SOL    HW1  521   1.390   2.891   0.992 -0.4305  0.7803  0.4375
  174SOL    HW2  522   1.328   2.727   1.038 -1.1050 -0.6708  2.2043
  175SOL     OW  523   0.405  -0.002   1.665  1.1572  0.0837  0.0400
  175SOL    HW1  524   0.474   0.027   1.733  0.1553 -1.6470  0.2920
  175SOL    HW2  525   0.329   0.066   1.647  0.9583  1.5403  2.1717
  176SOL     OW  526   2.501   0.416   3.062  0.3041  0.5053 -0.4974
  176SOL    HW1  527   2.518   0.471   3.145 -2.0948 -0.0667  0.3501
  176SOL    HW2  528   2.431   0.346   3.091 -2.7123  0.3743  3.5992
  177SOL     OW  529   0.393   0.352   0.941 -0.0603 -0.8762  0.0121
  177SOL    HW1  530   0.420   0.273   1.006 -3.6761 -1.7299  4.4984
  177SOL    HW2  531   0.304   0.404   0.966 -1.7960  1.7206  0.2991
  178SOL     OW  532   0.040   2.693   2.583  0.6209  0.3365 -0.2069
  178SOL    HW1  533  -0.045   2.659   2.629  2.2375  0.3254  0.0337
  178SOL    HW2  534   0.123   2.703   2.649  0.6631 -1.2856  0.1298
  179SOL     OW  535   0.023   1.701   1.172 -0.1936  0.8815 -0.2201
  179SOL    HW1  536  -0.035   1.786   1.182  0.2579 -0.2024 -1.0871
  179SOL    HW2  537   0.013   1.635   1.253  0.8385 -4.8384  0.0305
  180SOL     OW  538   0.216   1.259   1.826 -0.4961 -0.9375 -0.1521
  180SOL    HW1  539   0.314   1.252   1.795  4.0940  1.4367  1.1007
  180SOL    HW2  540   0.203   1.310   1.917  0.3207  1.1064 -2.1514
  181SOL     OW  541   3.037   1.831   2.568  0.8217  0.0090  0.2937
  181SOL    HW1  542   3.121   1.847   2.512 -4.0016  2.0701  1.4948
  181SOL    HW2  543   2.959   1.887   2.514 -2.4129  2.3707 -1.0813
  182SOL     OW  544   2.331   1.234   1.183 -0.0925  0.9343 -0.9830
  182SOL    HW1  545   2.252   1.179   1.139 -0.6257 -0.6515  1.5752
  182SOL    HW2  546   2.332   1.338   1.156 -0.3247  0.5772  0.3407
  183SOL     OW  547   1.495   2.272   2.539  0.4281 -0.1122 -0.6457
  183SOL    HW1  548   1.455   2.187   2.571  2.1020  3.6421 -0.1782
  183SOL    HW2  549   1.584   2.248   2.489 -1.9218 -0.2117  0.5278
  184SOL     OW  550   2.065   0.929   0.808  0.6022  0.0556  0.2812
  184SOL    HW1  551   1.975   0.977   0.797  1.0512 -0.9059  0.4798
  184SOL    HW2  552   2.053   0.847   0.873 -2.0903  0.2275 -0.9541
  185SOL     OW  553   1.644   2.667   2.102 -0.4346 -0.0458  0.0909
  185SOL    HW1  554   1.625   2.761   2.067  2.5660 -1.6216  2.4593
  185SOL    HW2  555   1.632   2.663   2.206  1.9398 -1.7319  1.2272
  186SOL     OW  556   0.124   2.202   1.738 -0.9669 -0.5106 -0.2355
  186SOL    HW1  557   0.181   2.287   1.719  0.1955  1.7946 -1.6563
  186SOL    HW2  558   0.182   2.117   1.745  0.4436  1.0802  0.4485
  187SOL     OW  559   1.394   0.685   1.670 -0.7180  0.5758  0.2613
  187SOL    HW1  560   1.410   0.766   1.606 -0.8307 -1.1951  0.7925
  187SOL    HW2  561   1.409   0.711   1.766 -2.0405 -0.5314 -1.6762
  188SOL     OW  562   2.767   2.800   1.535  0.1768  0.1374 -0.4560
  188SOL    HW1  563   2.745   2.896   1.497  3.1066  1.9590 -1.4981
  188SOL    HW2  564   2.747   2.722   1.468  0.2300 -2.1078 -1.4639
  189SOL     OW  565   0.831   0.994   1.418  0.5086 -0.0549 -0.1319
  189SOL    HW1  566   0.888   1.078   1.402  0.6125  1.4247 -1.6688
  189SOL    HW2  567   0.778   0.970   1.330 -2.2165  1.9181 -2.9202
  190SOL     OW  568   1.505   1.730   1.571  0.2699  1.5112 -0.0587
  190SOL    HW1  569   1.418   1.673   1.553 -1.1396 -0.0131 -0.7145
  190SOL    HW2  570   1.510   1.768   1.669 -0.7057 -0.2973 -0.3256
  191SOL     OW  571   1.002   0.778   1.555  0.1909 -0.5233  0.0401
  191SOL    HW1  572   1.040   0.687   1.586 -0.8940 -0.6468 -1.5850
  191SOL    HW2  573   1.073   0.856   1.557 -3.0902  1.1855  1.0863
  192SOL     OW  574   1.841   2.300   1.182 -0.2080 -0.1990 -0.1998
  192SOL    HW1  575   1.739   2.282   1.178 -0.6395  1.9639 -0.1783
  192SOL    HW2  576   1.891   2.294   1.087  0.0894  3.2350 -1.4911
  193SOL     OW  577   0.515   0.553   0.391 -0.1201 -0.1429  0.3639
  193SOL    HW1  578   0.495   0.456   0.417 -0.5972  0.8305  0.1245
  193SOL    HW2  579   0.536   0.565   0.287 -2.6157  1.2179 -1.0847
  194SOL     OW  580   0.308   0.821   1.233  0.0988  0.1210 -0.2448
  194SOL    HW1  581   0.215   0.776   1.231  0.1675  0.5617  0.5880
  194SOL    HW2  582   0.321   0.899   1.167  0.4017  2.0573 -0.9596
  195SOL     OW  583   0.960   2.914   0.442  0.1408  0.3815 -0.1411
  195SOL    HW1  584   0.989   2.819   0.396 -0.8874 -2.0089 -1.0541
  195SOL    HW2  585   1.044   2.961   0.487  1.2388  0.4923 -0.0025
  196SOL     OW  586   0.274   1.449   1.421  0.5020  0.4557  0.2362
  196SOL    HW1  587   0.345   1.508   1.468 -1.8081 -0.5799  0.8214
  196SOL    HW2  588   0.263   1.353   1.458  0.0042  0.2152 -1.8153
  197SOL     OW  589   0.876   2.027   0.255  0.7910 -0.0348 -0.2911
  197SOL    HW1  590   0.853   2.038   0.356 -0.4120 -0.7447 -1.4342
  197SOL    HW2  591   0.932   1.939   0.235  0.3477 -0.4445 -0.1075
  198SOL     OW  592   0.263   1.251   0.253 -0.0349  0.1754  0.0240
  198SOL    HW1  593   0.156   1.246   0.246 -0.9480  2.2706  0.1356
  198SOL    HW2  594   0.295   1.349   0.270 -0.1888 -1.6685 -0.6017
  199SOL     OW  595   2.268   0.365   2.531 -0.1190  0.2535 -0.9137
  199SOL    HW1  596   2.222   0.322   2.614 -1.7915 -0.5938  2.9397
  199SOL    HW2  597   2.374   0.374   2.538  0.0542 -1.7274 -1.9193
  200SOL     OW  598   3.097   2.943   0.737  0.1719  0.3865 -0.3281
  200SOL    HW1  599   3.011   2.973   0.692  1.2658  3.8016 -0.5866
  200SOL    HW2  600   3.149   3.021   0.777 -0.2641  2.3459 -0.2317
  201SOL     OW  601   1.140   0.720   0.573  0.0894  0.4665  0.6072
  201SOL    HW1  602   1.129   0.818   0.602  3.4793  0.5877  1.6132
  201SOL    HW2  603   1.054   0.675   0.549  0.3543  1.8021  3.7100
  202SOL     OW  604   0.480   1.259   1.725  0.5060 -0.2544  0.2123
  202SOL    HW1  605   0.515   1.256   1.629 -0.1098  1.5251 -1.0722
  202SOL    HW2  606   0.544   1.230   1.798 -0.3594  1.2548 -2.9203
  203SOL     OW  607   0.680   0.214   1.579  0.1667 -0.8240  0.5222
  203SOL    HW1  608   0.658   0.152   1.498 -2.4240  2.2393  2.5792
  203SOL    HW2  609   0.759   0.178   1.629 -2.0173  0.1404 -0.7731
  204SOL     OW  610   2.081   1.833   3.026  0.0082  0.0903  0.3359
  204SOL    HW1  611   2.070   1.734   2.999  2.2989  3.7760 -3.7198
  204SOL    HW2  612   2.053   1.899   2.955  1.2496 -3.3184  2.7697
  205SOL     OW  613   1.853   1.884   0.078 -0.1186 -0.0769  0.2224
  205SOL    HW1  614   1.941   1.862   0.026 -0.0244 -2.6423 -2.1966
  205SOL    HW2  615   1.813   1.971   0.047  1.7974 -2.6077 -0.4151
  206SOL     OW  616   2.558   2.831   0.417 -0.4106 -0.0397  0.2262
  206SOL    HW1  617   2.609   2.745   0.419 -0.5692  0.4036  1.1692
  206SOL    HW2  618   2.579   2.886   0.333 -1.1743  0.0414  0.7109
  207SOL     OW  619   0.630   1.736   2.898 -0.3031  0.4031 -0.1911
  207SOL    HW1  620   0.720   1.708   2.853  1.0704 -0.0464  0.4433
  207SOL    HW2  621   0.580   1.658   2.942 -1.5618 -2.1516 -1.2968
  208SOL     OW  622   1.023   1.510   1.447  0.0063  0.8368 -0.0387
  208SOL    HW1  623   0.955   1.559   1.383 -0.5962 -0.1653  2.2787
  208SOL    HW2  624   1.108   1.561   1.468 -2.3502 -1.2823  0.6656
  209SOL     OW  625   0.251   0.942   3.034  0.8547  0.1350 -0.4639
  209SOL    HW1  626   0.289   0.884   2.953  0.8161 -0.3694 -0.3176
  209SOL    HW2  627   0.240   0.885   3.120  0.9074  0.7508  0.0629
  210SOL     OW  628   1.722   0.505   1.130 -0.0599  0.0460  0.5818
  210SOL    HW1  629   1.675   0.585   1.076  0.1766 -0.8435 -1.6511
  210SOL    HW2  630   1.825   0.516   1.133 -0.1174  2.5797  0.9152
  211SOL     OW  631   2.171   1.053   1.659 -0.2739  0.3805 -0.9113
  211SOL    HW1  632   2.227   1.032   1.747  1.1992  1.7984  1.3244
  211SOL    HW2  633   2.220   1.092   1.578  0.9568 -3.1666  2.1217
  212SOL     OW  634   0.025   0.961   1.465 -0.3106 -0.0117 -0.3041
  212SOL    HW1  635   0.091   1.035   1.493 -2.9490  2.0873  0.1072
  212SOL    HW2  636   0.042   0.871   1.509 -0.9147 -1.3914  1.7231
  213SOL     OW  637   2.726   0.350   0.264 -0.3135 -0.0647 -0.0073
  213SOL    HW1  638   2.790   0.287   0.206  3.2101 -3.9068 -0.1266
  213SOL    HW2  639   2.694   0.428   0.208 -1.1047 -1.1977  0.8332
  214SOL     OW  640   2.211   0.267   2.275 -0.6855 -0.0823  0.3531
  214SOL    HW1  641   2.230   0.307   2.369  1.1685  0.4459 -1.3953
  214SOL    HW2  642   2.164   0.177   2.277 -1.1786  0.5260 -0.4723
  215SOL     OW  643   1.670   2.277   2.068 -0.3130 -0.1078 -0.1485
  215SOL    HW1  644   1.756   2.317   2.031  0.8271 -0.9187 -0.7854
  215SOL    HW2  645   1.611   2.333   2.134 -1.5338 -0.3163 -0.4953
  216SOL     OW  646   2.212   0.527   0.665 -0.4043 -0.0794  0.1964
  216SOL    HW1  647   2.202   0.438   0.624 -1.6246  1.4554  1.6757
  216SOL    HW2  648   2.233   0.605   0.596  2.0547 -1.3755 -1.3077
  217SOL     OW  649   0.773   2.790   2.430 -0.4572 -0.5042  1.2295
  217SOL    HW1  650   0.770   2.691   2.450  0.7198 -2.0028  0.0931
  217SOL    HW2  651   0.760   2.813   2.334 -2.0664  1.9936  1.0074
  218SOL     OW  652   1.931   1.415   0.080  0.3716 -0.1016 -0.1705
  218SOL    HW1  653   1.854   1.454   0.021  1.6595 -0.7863 -2.0543
  218SOL    HW2  654   1.898   1.369   0.167  3.1931 -4.4048 -0.4789
  219SOL     OW  655   2.386   1.313   2.529 -0.0201 -0.7228  0.0243
  219SOL    HW1  656   2.372   1.253   2.440 -4.5391 -0.6575 -1.9995
  219SOL    HW2  657   2.382   1.262   2.616  0.1694 -0.0866 -2.1233
  220SOL     OW  658   1.480   1.040   1.259  0.0885  0.1205  0.1754
  220SOL    HW1  659   1.583   1.057   1.275  0.5172  0.3381 -3.1092
  220SOL    HW2  660   1.448   1.101   1.182  2.8801 -0.0037 -0.2349
  221SOL     OW  661   1.319   1.200   2.192  0.5052 -0.5527  0.1257
  221SOL    HW1  662   1.292   1.255   2.107  1.7218 -0.6087  0.7294
  221SOL    HW2  663   1.403   1.140   2.174  0.0631 -1.1841 -0.5381
  222SOL     OW  664   1.217   0.074   1.146  0.0476  0.3394 -0.0082
  222SOL    HW1  665   1.315   0.031   1.147  2.3936  1.0080  2.9316
  222SOL    HW2  666   1.206   0.163   1.202 -1.4377  0.0552  0.7097
  223SOL     OW  667   2.947   0.828   2.009  0.5538 -0.5507 -0.5212
  223SOL    HW1  668   2.936   0.840   2.113  1.8544 -0.2066  0.5012
  223SOL    HW2  669   2.971   0.921   1.966  0.0208 -0.5826 -1.4193
  224SOL     OW  670   1.530   0.958   2.820 -0.5511  0.1296 -0.0954
  224SOL    HW1  671   1.545   0.892   2.741  0.0156  0.6203 -1.7243
  224SOL    HW2  672   1.501   1.050   2.779  0.4561 -3.3605  1.8741
  225SOL     OW  673   3.042   2.781   2.906 -0.4728 -0.4380 -0.2016
  225SOL    HW1  674   3.015   2.708   2.838  3.2273  1.2523  1.8458
  225SOL    HW2  675   3.081   2.868   2.869 -2.1135 -0.3276  0.4159
  226SOL     OW  676   2.470   1.611   2.876 -0.2267 -0.0292  0.4816
  226SOL    HW1  677   2.502   1.579   2.786  1.3547  1.1035  0.5805
  226SOL    HW2  678   2.400   1.549   2.919 -1.9203 -0.4197  1.3373
  227SOL     OW  679   0.866   0.118   2.987  0.5125  0.1654 -0.0883
  227SOL    HW1  680   0.931   0.066   3.046 -2.2727  1.4943  0.3019
  227SOL    HW2  681   0.878   0.109   2.882 -0.5889  1.3569  0.7496
  228SOL     OW  682   2.359   0.585   2.845 -0.0492  0.2430  0.6015
  228SOL    HW1  683   2.305   0.627   2.771  0.8578 -3.1455  1.3559
  228SOL    HW2  684   2.430   0.516   2.811  1.8310  2.0317  0.8185
  229SOL     OW  685   0.572   0.511   1.850 -0.3088  0.1300 -0.1479
  229SOL    HW1  686   0.609   0.462   1.770  1.7102 -0.3931 -1.2610
  229SOL    HW2  687   0.637   0.593   1.861  0.8078  3.1758  2.8946
  230SOL     OW  688   1.886   1.240   2.163  0.0044  0.0528  0.3691
  230SOL    HW1  689   1.963   1.282   2.110 -3.6399 -1.7856  1.9168
  230SOL    HW2  690   1.788   1.266   2.135  0.1898  0.2849 -1.1444
  231SOL     OW  691   0.641   0.999   2.999  0.2471  0.6386  0.1954
  231SOL    HW1  692   0.726   1.050   2.966  1.3523 -0.9539 -1.6821
  231SOL    HW2  693   0.621   1.011   3.098  0.8586 -2.1143 -1.8488
  232SOL     OW  694   2.497   0.033   2.725 -0.2612  0.0497 -0.5703
  232SOL    HW1  695   2.546  -0.041   2.777  0.1587 -0.2957  0.7182
  232SOL    HW2  696   2.502   0.012   2.622 -0.4582 -0.2880 -0.1074
  233SOL     OW  697   1.691   1.258   1.071  0.0833 -0.2364 -0.0319
  233SOL    HW1  698   1.731   1.295   0.984 -1.4335  0.6893  2.4907
  233SOL    HW2  699   1.727   1.162   1.087  0.9152 -0.6989 -0.3946
  234SOL     OW  700   1.666   2.597   1.829  0.2074 -0.4532 -0.4260
  234SOL    HW1  701   1.657   2.609   1.931  0.1784 -0.2484  0.4239
  234SOL    HW2  702   1.623   2.509   1.791  0.6379 -2.0552  1.0735
  235SOL     OW  703   0.134   3.017   2.903  0.0782 -0.3666  0.2371
  235SOL    HW1  704   0.189   3.085   2.844  0.2349  3.4055 -0.9138
  235SOL    HW2  705   0.047   3.065   2.941 -0.2426  1.1199 -0.6238
  236SOL     OW  706   2.843   0.670   0.117  0.1533 -0.1731  0.3260
  236SOL    HW1  707   2.902   0.742   0.161 -2.7380 -1.2887  0.8513
  236SOL    HW2  708   2.905   0.601   0.065  0.2574  3.1379  0.6272
  237SOL     OW  709   1.495   1.618   1.029 -0.4215  0.3147 -0.6047
  237SOL    HW1  710   1.602   1.627   1.023  2.0241  1.1217  3.0657
  237SOL    HW2  711   1.462   1.654   1.118 -1.8139 -1.5227 -0.8753
  238SOL     OW  712   1.804   1.339   0.819  0.0552 -0.4227  0.1439
  238SOL    HW1  713   1.883   1.332   0.752  3.3031  0.9382  1.5432
  238SOL    HW2  714   1.728   1.389   0.776 -0.6777  0.9879  1.5531
  239SOL     OW  715   2.072   0.249   2.736 -0.0908  0.1125  0.1470
  239SOL    HW1  716   2.156   0.253   2.794  0.6228  1.4540  1.3127
  239SOL    HW2  717   1.993   0.303   2.770  0.4083 -1.3677  0.7500
  240SOL     OW  718   0.869   0.698   0.222  0.3281 -0.4975 -0.4632
  240SOL    HW1  719   0.867   0.599   0.193  0.4714  1.4623 -0.9851
  240SOL    HW2  720   0.883   0.722   0.326 -0.3982  2.1269  3.2356
  241SOL     OW  721   0.551   0.043   0.333  0.3880 -0.5160  0.0962
  241SOL    HW1  722   0.564   0.020   0.231 -0.3822  0.8470 -4.2713
  241SOL    HW2  723   0.508  -0.041   0.379  0.1003  2.5413 -1.8977
  242SOL     OW  724   0.693   2.447   1.146 -0.1096 -0.0494  0.1389
  242SOL    HW1  725   0.705   2.542   1.194  1.3356  1.3016 -0.8475
  242SOL    HW2  726   0.762   2.443   1.073 -1.3720  0.2586 -0.8272
  243SOL     OW  727   1.094   0.629   2.410 -0.2773  0.7543 -0.1661
  243SOL    HW1  728   1.040   0.707   2.370  0.9779 -1.7118  1.0130
  243SOL    HW2  729   1.034   0.555   2.441  2.0149  2.6101 -2.2337
  244SOL     OW  730   2.791   1.900   2.427 -0.1320 -0.2848  0.2489
  244SOL    HW1  731   2.818   1.885   2.331  1.7553  0.0125  0.9306
  244SOL    HW2  732   2.711   1.843   2.462 -1.9098 -0.5797 -0.9446
  245SOL     OW  733   2.461   0.736   2.129 -0.3553 -0.1504 -0.0865
  245SOL    HW1  734   2.494   0.754   2.228 -1.4514 -1.9903 -0.5924
  245SOL    HW2  735   2.532   0.769   2.061  1.2118 -0.1335 -0.6052
  246SOL     OW  736   0.245   2.902   1.691  0.8380 -0.3265 -0.0866
  246SOL    HW1  737   0.161   2.914   1.628 -0.6202  1.1884 -0.1480
  246SOL    HW2  738   0.313   2.982   1.682 -0.5872 -0.8828 -0.0879
  247SOL     OW  739   2.170   0.556   3.031  0.1740  0.0815  0.1622
  247SOL    HW1  740   2.243   0.554   2.953 -0.0061 -1.1093  1.2412
  247SOL    HW2  741   2.134   0.650   3.040 -1.4024 -1.6913 -1.0841
  248SOL     OW  742   2.190   1.849   1.620  0.4586 -0.0694 -0.1837
  248SOL    HW1  743   2.255   1.769   1.641 -2.0837 -1.4130 -1.1563
  248SOL    HW2  744   2.105   1.851   1.682  1.2067  0.2906 -0.7498
  249SOL     OW  745   1.958   1.982   1.968 -0.9215  0.4055  0.5166
  249SOL    HW1  746   1.941   1.897   1.906  0.0817  1.0653  0.4275
  249SOL    HW2  747   2.062   2.005   1.968 -0.3622  0.0589  1.7942
  250SOL     OW  748   1.016   0.653   1.844  0.0502  0.1939  0.0573
  250SOL    HW1  749   1.050   0.597   1.925 -1.5785 -1.1977  1.3842
  250SOL    HW2  750   1.075   0.646   1.759  1.4233  0.4169 -0.9765
  251SOL     OW  751   3.052   1.558   2.572  0.7344 -0.0869 -0.1276
  251SOL    HW1  752   3.042   1.662   2.587  0.3446 -0.0574  0.9427
  251SOL    HW2  753   2.957   1.517   2.554  1.0305 -2.6987 -1.4160
  252SOL     OW  754   1.500   0.912   1.532  0.1217  0.0582 -0.3491
  252SOL    HW1  755   1.509   0.953   1.436  0.6549 -2.1986 -0.6523
  252SOL    HW2  756   1.473   0.976   1.604  0.2557 -2.7176 -0.1904
  253SOL     OW  757   0.956   1.583   0.376  0.1644  0.5726 -0.1260
  253SOL    HW1  758   1.030   1.517   0.373 -3.6757  5.4276 -1.4127
  253SOL    HW2  759   0.870   1.562   0.320  1.1370  3.5301 -2.4611
  254SOL     OW  760   2.001   2.180   1.588  0.1087 -0.0193 -0.1399
  254SOL    HW1  761   1.940   2.155   1.505 -0.8239 -0.2147 -0.2748
  254SOL    HW2  762   1.967   2.132   1.673  0.0066  2.6918 -1.3447
  255SOL     OW  763   0.108   1.164   2.921 -0.2595  0.1673  0.0191
  255SOL    HW1  764   0.155   1.260   2.921 -0.4491 -0.4319  0.3383
  255SOL    HW2  765   0.164   1.084   2.957  2.0495 -0.6908  3.1190
  256SOL     OW  766   2.792   1.377   1.834  0.1631  0.6027 -0.1533
  256SOL    HW1  767   2.724   1.447   1.864 -0.8973  1.3700 -1.7053
  256SOL    HW2  768   2.765   1.283   1.875  0.5928 -0.2870  2.0267
  257SOL     OW  769   0.902   0.200   1.933  0.3467 -0.0310 -0.1064
  257SOL    HW1  770   0.942   0.258   1.859 -1.1080 -0.1155  0.2616
  257SOL    HW2  771   0.905   0.101   1.910 -1.2100  1.4672  0.4318
  258SOL     OW  772   2.957   1.257   0.416 -0.0576  0.5682  0.6018
  258SOL    HW1  773   2.904   1.343   0.412 -2.2656  1.7534  1.8027
  258SOL    HW2  774   3.017   1.246   0.501  0.4823 -0.2245 -0.8475
  259SOL     OW  775   0.426   2.939   2.981  0.0804  0.0820 -0.4192
  259SOL    HW1  776   0.421   2.904   3.078 -0.5269  0.9794 -0.1695
  259SOL    HW2  777   0.390   2.875   2.906  2.3934  1.2271 -1.1163
  260SOL     OW  778   2.656   0.795   2.778 -0.0363  0.5217 -0.2288
  260SOL    HW1  779   2.575   0.813   2.715 -0.9037  0.4362  2.0615
  260SOL    HW2  780   2.628   0.733   2.856  0.4529  2.4881  1.6288
  261SOL     OW  781   2.730   1.346   1.331  0.8677  1.0274 -0.1541
  261SOL    HW1  782   2.679   1.278   1.271  0.1781 -1.3267 -0.5518
  261SOL    HW2  783   2.831   1.315   1.349  2.0441  0.1165  1.0794
  262SOL     OW  784   1.466   2.903   2.028  0.0413 -0.2530 -0.0969
  262SOL    HW1  785   1.466   2.975   1.953  2.0892  1.8162 -0.8179
  262SOL    HW2  786   1.376   2.860   2.050  1.5304 -1.3234 -1.1243
  263SOL     OW  787   0.889   0.772   2.314  0.1949 -0.1713  0.3501
  263SOL    HW1  788   0.832   0.688   2.295 -0.1557  1.9779  0.0822
  263SOL    HW2  789   0.886   0.834   2.231 -0.5909 -0.1127  2.2991
  264SOL     OW  790   2.257   0.743   0.487  0.0238 -0.3175 -0.4560
  264SOL    HW1  791   2.162   0.788   0.482 -1.7322  1.2274 -2.2005
  264SOL    HW2  792   2.333   0.813   0.484  1.0390  3.3052  2.2604
  265SOL     OW  793   0.876   2.297   2.694  0.3160 -0.3771 -0.1808
  265SOL    HW1  794   0.938   2.368   2.747  1.4930  0.7177  0.4924
  265SOL    HW2  795   0.813   2.247   2.756  1.4627  1.2745  1.8523
  266SOL     OW  796   1.346   1.703   0.055  0.0547 -0.3353  0.2155
  266SOL    HW1  797   1.310   1.797   0.084  4.1837  0.6261 -1.0247
  266SOL    HW2  798   1.449   1.713   0.045 -0.4767  0.7075  0.2211
  267SOL     OW  799   1.085   0.005   2.383 -0.2805 -0.4497  0.1934
  267SOL    HW1  800   1.041  -0.056   2.312  1.2200  0.9555  0.9986
  267SOL    HW2  801   1.031   0.093   2.391  2.1411  0.8656  0.6900
  268SOL     OW  802   0.657   1.164   1.011  0.1901  0.0804 -0.5721
  268SOL    HW1  803   0.703   1.205   1.094 -0.2115 -0.5797 -1.1002
  268SOL    HW2  804   0.637   1.236   0.940 -0.4827  2.1361 -2.0188
  269SOL     OW  805   2.427   2.490   1.603 -0.5829 -0.5378 -0.2507
  269SOL    HW1  806   2.527   2.453   1.602  1.7253  1.5254 -0.5430
  269SOL    HW2  807   2.391   2.509   1.701 -0.9986 -3.0145  1.3166
  270SOL     OW  808   0.218   2.952   1.952 -0.1358  0.8281 -0.3735
  270SOL    HW1  809   0.250   2.921   1.858 -0.7963 -0.1763 -0.6719
  270SOL    HW2  810   0.135   2.897   1.980 -0.3081 -0.6676 -1.2595
  271SOL     OW  811   0.451   1.401   1.198  0.3769 -0.2376  0.0374
  271SOL    HW1  812   0.433   1.417   1.098  0.3699  2.3477 -1.0133
  271SOL    HW2  813   0.370   1.390   1.265  0.5208  1.0557  1.0598
  272SOL     OW  814   1.909   2.914   1.891 -0.3057  0.4515  0.1233
  272SOL    HW1  815   1.884   2.846   1.814  0.6808 -0.7001 -0.9040
  272SOL    HW2  816   2.003   2.956   1.873  3.1969 -0.3442  1.0123
  273SOL     OW  817   1.438   1.426   2.840 -0.4846 -0.2702 -0.5326
  273SOL    HW1  818   1.505   1.499   2.811 -4.0814  0.9807 -2.6419
  273SOL    HW2  819   1.408   1.426   2.938 -1.4476  1.7711 -1.3332
  274SOL     OW  820   1.154   0.501   2.025 -0.3717 -0.0175  0.2959
  274SOL    HW1  821   1.196   0.421   1.974 -0.0228  0.0017 -1.2455
  274SOL    HW2  822   1.215   0.537   2.105 -3.2082 -0.4189 -0.8024
  275SOL     OW  823   0.628   2.064   2.004 -0.1726  0.2431 -0.1544
  275SOL    HW1  824   0.613   2.166   2.006 -1.7977  1.6876 -0.8368
  275SOL    HW2  825   0.548   2.014   1.962  3.3543 -1.7140  0.5878
  276SOL     OW  826   2.158   0.982   2.806  0.1298 -0.9592  0.1909
  276SOL    HW1  827   2.070   1.014   2.753 -4.7751  1.7090  0.7295
  276SOL    HW2  828   2.138   0.901   2.864 -0.9705 -0.6571 -0.2911
  277SOL     OW  829   3.044   0.836   0.199  0.3827 -0.0835  0.4250
  277SOL    HW1  830   3.124   0.877   0.153  2.2061 -0.0420  0.9008
  277SOL    HW2  831   3.063   0.749   0.249  0.3100 -0.0526 -1.5725
  278SOL     OW  832   0.176   0.251   2.983 -0.1192  0.4563 -0.1787
  278SOL    HW1  833   0.239   0.170   3.016 -1.4707  3.1237 -2.3526
  278SOL    HW2  834   0.224   0.339   3.007  3.5650 -1.1571 -0.8491
  279SOL     OW  835   0.156   0.039   0.867  0.2476  0.5569  0.2857
  279SOL    HW1  836   0.184   0.046   0.966 -1.7868  1.2195  1.2514
  279SOL    HW2  837   0.234   0.009   0.806 -2.1848 -1.2596  0.1048
  280SOL     OW  838   1.650   2.942   2.534 -1.1367  0.1927  0.4277
  280SOL    HW1  839   1.713   3.012   2.503 -2.9515 -0.8611  1.1495
  280SOL    HW2  840   1.556   2.980   2.531  1.3247  2.4838  0.8691
  281SOL     OW  841   0.581   0.963   2.333 -0.0180 -0.3076 -0.1515
  281SOL    HW1  842   0.582   0.876   2.281 -0.0276  0.0724 -0.7192
  281SOL    HW2  843   0.528   0.947   2.422 -2.1741 -0.4292  0.8330
  282SOL     OW  844   1.703   2.444   0.502  0.2949 -0.2811 -0.0417
  282SOL    HW1  845   1.691   2.381   0.423  0.4537  2.1494 -0.1770
  282SOL    HW2  846   1.632   2.518   0.516  1.6760 -1.7842 -1.5206
  283SOL     OW  847   1.188   0.969   0.738  0.1441  0.1595 -0.1265
  283SOL    HW1  848   1.222   0.893   0.806  1.0867 -0.7217  0.6584
  283SOL    HW2  849   1.135   1.044   0.784  1.3337  0.3952  0.6956
  284SOL     OW  850   2.347   2.800   2.392  0.9792  0.1083 -0.2791
  284SOL    HW1  851   2.364   2.901   2.365 -2.1516  2.0605 -0.8482
  284SOL    HW2  852   2.350   2.781   2.490  0.1799  0.7182  0.2653
  285SOL     OW  853   1.344   2.971   2.531 -0.2122  0.3300  0.2852
  285SOL    HW1  854   1.377   3.027   2.447 -1.8261 -0.7058  1.7357
  285SOL    HW2  855   1.278   3.024   2.588 -0.7953 -0.9712  0.6369
  286SOL     OW  856   0.475   0.434   0.686 -0.1291  0.0075 -0.1395
  286SOL    HW1  857   0.443   0.390   0.778  0.6479  1.1731  1.1196
  286SOL    HW2  858   0.440   0.379   0.603  0.5354 -3.0714  0.7363
  287SOL     OW  859   0.102   1.343   2.491  0.3385 -0.3725  0.7894
  287SOL    HW1  860   0.100   1.261   2.558 -0.8089  1.4400  3.4984
  287SOL    HW2  861   0.059   1.427   2.531 -0.4681  0.3562 -2.4527
  288SOL     OW  862   1.605   2.677   1.467  0.5076  0.9514  0.1166
  288SOL    HW1  863   1.697   2.644   1.467 -3.1375 -1.8803  1.2175
  288SOL    HW2  864   1.578   2.726   1.377 -2.4905  1.7648  2.8022
  289SOL     OW  865   0.653   2.742   0.767 -0.2946  0.0581  0.4822
  289SOL    HW1  866   0.684   2.818   0.702 -1.4844  0.8513 -1.5316
  289SOL    HW2  867   0.683   2.756   0.866  1.2937 -2.3443 -1.4863
  290SOL     OW  868   2.889   1.198   1.588 -0.3671 -0.3841 -0.7184
  290SOL    HW1  869   2.796   1.229   1.628 -1.6221 -2.4590 -2.1802
  290SOL    HW2  870   2.956   1.173   1.666  0.4760  1.5830  1.7003
  291SOL     OW  871   1.999   0.060   0.091  0.3692  0.1110  0.9616
  291SOL    HW1  872   2.026   0.076   0.191 -1.5584 -0.7658  1.6185
  291SOL    HW2  873   2.019   0.137   0.027 -0.6156  0.1618 -0.0629
  292SOL     OW  874   2.969   1.158   3.035  0.3558 -0.3311 -0.1297
  292SOL    HW1  875   2.904   1.226   2.994 -0.8906 -1.7187  0.2279
  292SOL    HW2  876   3.057   1.144   2.981  1.0237 -4.3552 -2.3145
  293SOL     OW  877   0.639   2.082   0.126 -0.1726  0.5808  0.0123
  293SOL    HW1  878   0.585   2.124   0.204  2.0466  2.4368 -1.7652
  293SOL    HW2  879   0.722   2.023   0.158  0.7466 -0.8517 -1.6387
  294SOL     OW  880   1.673   2.148   1.749  0.0698  0.3768 -0.2786
  294SOL    HW1  881   1.726   2.177   1.831  0.3620 -1.6586 -0.1761
  294SOL    HW2  882   1.669   2.214   1.672 -2.1892 -0.2119 -1.4653
  295SOL     OW  883   0.988   1.018   0.393  0.3878 -0.4333  0.0658
  295SOL    HW1  884   1.084   0.986   0.388  1.5350 -1.2927  0.0896
  295SOL    HW2  885   0.955   1.039   0.494  0.7423  0.5439  2.7166
  296SOL     OW  886   1.305   2.032   2.516  0.6141  0.0482 -0.0634
  296SOL    HW1  887   1.252   2.049   2.427 -2.3104  1.5215 -3.3443
  296SOL    HW2  888   1.329   1.934   2.522 -0.5601 -1.5107 -1.8558
  297SOL     OW  889   1.471   0.645   1.340 -0.0457 -0.6167  0.1733
  297SOL    HW1  890   1.526   0.559   1.358 -1.4418 -1.9703 -1.6555
  297SOL    HW2  891   1.503   0.727   1.395  1.1375  0.8325 -1.9060
  298SOL     OW  892   0.464   1.212   2.860 -0.6628 -0.0645  0.1287
  298SOL    HW1  893   0.508   1.164   2.938 -2.4859  0.2535  1.4207
  298SOL    HW2  894   0.532   1.233   2.783  0.1044 -0.2222 -1.7039
  299SOL     OW  895   0.437   0.331   1.459  0.8989  0.2597  0.4323
  299SOL    HW1  896   0.437   0.419   1.404  4.3554 -2.2766 -2.1108
  299SOL    HW2  897   0.530   0.330   1.508  0.4060 -0.7981  0.8070
  300SOL     OW  898   1.200   1.816   2.884 -0.6969  0.6307  0.0430
  300SOL    HW1  899   1.195   1.748   2.801 -2.3276 -1.7098 -1.3050
  300SOL    HW2  900   1.159   1.777   2.970  0.8971  0.2089 -0.5855
  301SOL     OW  901   0.433   0.286   0.427 -0.0111  0.3412  0.4270
  301SOL    HW1  902   0.330   0.265   0.427 -1.7393  1.5547 -1.5093
  301SOL    HW2  903   0.492   0.215   0.370  1.9052 -1.8186 -0.1200
  302SOL     OW  904   1.234   2.330   2.327  0.3582  0.3182  0.4280
  302SOL    HW1  905   1.159   2.372   2.384  1.2285 -1.1633 -3.4026
  302SOL    HW2  906   1.227   2.227   2.314 -1.8570 -2.7456 -2.0218
  303SOL     OW  907   0.936   2.359   0.798  0.0817 -0.2002  0.1428
  303SOL    HW1  908   0.970   2.423   0.722  0.8324 -1.2663 -0.7066
  303SOL    HW2  909   0.944   2.403   0.891  3.6426  0.7651 -1.5007
  304SOL     OW  910   0.143   2.065   0.682 -0.1159 -0.5134 -0.0541
  304SOL    HW1  911   0.146   1.999   0.597 -0.6439 -1.2632 -2.7651
  304SOL    HW2  912   0.075   2.143   0.665  0.1186 -1.5840 -1.2902
  305SOL     OW  913   1.616   0.887   0.630  0.1646  0.0162 -0.1245
  305SOL    HW1  914   1.570   0.894   0.539  2.1927 -1.7709  1.2966
  305SOL    HW2  915   1.657   0.793   0.652 -4.0485 -1.5536 -1.7477
  306SOL     OW  916   0.440   1.870   1.876  0.1355  0.3109  0.3350
  306SOL    HW1  917   0.523   1.818   1.839  0.4942  1.2210 -0.9797
  306SOL    HW2  918   0.418   1.860   1.979 -1.3536  0.2399 -1.6845
  307SOL     OW  919   0.030   0.833   2.589  0.1360  0.2020  0.5200
  307SOL    HW1  920   0.019   0.935   2.605 -3.0002  0.5465  1.8560
  307SOL    HW2  921  -0.059   0.788   2.621 -1.4089  0.5202 -2.4253
  308SOL     OW  922   1.565   2.626   2.877 -0.2740  0.1898  0.2461
  308SOL    HW1  923   1.539   2.613   2.772 -2.5042  1.2821  0.2305
  308SOL    HW2  924   1.532   2.549   2.932 -0.1008  0.0765  0.7214
  309SOL     OW  925   1.218   0.059   1.746 -0.4775  0.7374 -0.3957
  309SOL    HW1  926   1.302   0.022   1.793  3.2383 -2.1281 -2.2843
  309SOL    HW2  927   1.233   0.097   1.654 -1.7084  1.8094  0.6730
  310SOL     OW  928   1.386   2.627   0.709  0.5752 -0.5160  0.4321
  310SOL    HW1  929   1.380   2.697   0.784  0.1587  0.2349  0.8343
  310SOL    HW2  930   1.459   2.652   0.639  0.8552 -3.5947 -3.6013
  311SOL     OW  931   1.219   0.932   1.528 -0.6698  0.8152  0.5461
  311SOL    HW1  932   1.278   0.864   1.468 -0.5291 -2.4548 -0.1882
  311SOL    HW2  933   1.248   1.030   1.515 -2.5611  0.0862  0.5382
  312SOL     OW  934   1.613   0.685   0.960  0.5040 -0.2417  0.7618
  312SOL    HW1  935   1.580   0.782   0.946  0.7169  1.3913  1.9490
  312SOL    HW2  936   1.534   0.619   0.959 -0.4604 -0.7652 -0.0243
  313SOL     OW  937   1.549   1.411   0.622 -0.3741 -0.5729  0.3202
  313SOL    HW1  938   1.465   1.472   0.608 -3.0275 -0.1835  0.7063
  313SOL    HW2  939   1.532   1.308   0.599  1.8597 -0.6920 -1.1796
  314SOL     OW  940   2.967   0.021   3.007  0.2075  0.0960  0.5062
  314SOL    HW1  941   2.951   0.062   3.102  2.0145  2.4234  1.2481
  314SOL    HW2  942   2.898  -0.050   2.981  1.3127 -1.1182  1.8005
  315SOL     OW  943   1.239   0.244   2.783 -0.4954  0.3551  0.1079
  315SOL    HW1  944   1.176   0.169   2.745  0.9058 -0.6866  1.1794
  315SOL    HW2  945   1.298   0.212   2.859 -0.0711 -0.7303 -0.4113
  316SOL     OW  946   1.698   2.079   0.910  0.1270  0.2133  0.5300
  316SOL    HW1  947   1.655   2.067   1.003 -0.2076  0.1643 -1.6465
  316SOL    HW2  948   1.672   2.169   0.869 -0.2553  2.9743  0.9328
  317SOL     OW  949   1.129   0.690   2.844  0.3063  0.2842 -0.4308
  317SOL    HW1  950   1.074   0.727   2.922 -0.7270 -1.5525  1.2810
  317SOL    HW2  951   1.087   0.597   2.816 -0.2652 -0.0052  0.5351
  318SOL     OW  952   1.465   3.061   2.290  0.2769 -0.6525 -0.8121
  318SOL    HW1  953   1.414   3.143   2.255  0.1077  1.3973  1.8469
  318SOL    HW2  954   1.506   2.995   2.225  2.8899 -0.0261  3.1977
  319SOL     OW  955   0.651   2.408   2.923  0.0809  0.0688 -0.2219
  319SOL    HW1  956   0.568   2.385   2.977  0.0475  2.3534  0.3708
  319SOL    HW2  957   0.724   2.336   2.913  0.5819 -0.4971 -0.9743
  320SOL     OW  958   1.638   2.194   0.347  0.4308 -0.6391 -0.2481
  320SOL    HW1  959   1.727   2.143   0.363 -2.3027  1.5236 -0.6860
  320SOL    HW2  960   1.564   2.165   0.418  2.6159 -0.8497  2.9065
  321SOL     OW  961   1.565   2.685   0.535  0.0188  0.0128 -0.2580
  321SOL    HW1  962   1.508   2.750   0.479 -0.7548 -1.6424 -0.6124
  321SOL    HW2  963   1.668   2.714   0.529  0.5699  0.2281 -2.1676
  322SOL     OW  964   2.577   1.120   2.266 -0.8149 -0.2098 -0.1348
  322SOL    HW1  965   2.633   1.161   2.343  1.4541  0.2223 -1.3286
  322SOL    HW2  966   2.562   1.015   2.280 -2.5462 -3.8068 -1.4320
  323SOL     OW  967   0.971   2.671   0.805 -0.0076 -0.0865 -0.1250
  323SOL    HW1  968   1.005   2.627   0.720  2.4444 -1.3969 -0.0377
  323SOL    HW2  969   0.993   2.774   0.802  3.4431 -0.6404  1.2363
  324SOL     OW  970   0.145   2.483   2.465  0.7604 -0.2026 -0.1132
  324SOL    HW1  971   0.140   2.397   2.525  0.4166 -0.4771  0.7732
  324SOL    HW2  972   0.107   2.569   2.511  0.5849  1.1078  0.1102
  325SOL     OW  973   1.183   3.082   0.465 -0.0865 -0.5860 -0.2184
  325SOL    HW1  974   1.231   3.103   0.376 -0.0344  2.0649  3.5404
  325SOL    HW2  975   1.232   3.129   0.545 -1.5112 -3.2292 -0.1200
  326SOL     OW  976   2.433   0.751   3.079  0.5595 -0.2729 -0.4117
  326SOL    HW1  977   2.381   0.680   3.025 -0.7826  0.7481 -0.2429
  326SOL    HW2  978   2.486   0.709   3.159  0.7785  1.8592 -1.1054
  327SOL     OW  979   2.817   0.398   0.534  0.9226 -0.0871 -0.3478
  327SOL    HW1  980   2.799   0.381   0.431 -0.4517  1.8260 -0.5088
  327SOL    HW2  981   2.746   0.357   0.596  1.0223  0.0972  1.5643
  328SOL     OW  982   2.478   0.550   0.408 -0.2287 -0.1264 -0.5956
  328SOL    HW1  983   2.380   0.589   0.412  0.5238 -0.3390  1.4358
  328SOL    HW2  984   2.493   0.488   0.494  1.2727 -0.3369 -0.6837
  329SOL     OW  985   2.979   2.998   2.153 -0.2042 -0.1738  0.3176
  329SOL    HW1  986   3.036   2.922   2.201  1.3670  0.0509 -0.7286
  329SOL    HW2  987   3.026   3.090   2.153  1.1801 -0.6745  0.3365
  330SOL     OW  988   0.524   0.164   1.892  0.2072  0.0559 -0.2252
  330SOL    HW1  989   0.554   0.263   1.880 -0.5689  0.5590 -0.6014
  330SOL    HW2  990   0.552   0.115   1.979 -0.9166  1.1683 -0.3730
  331SOL     OW  991   2.944   1.925   1.139  0.5770  0.0505 -0.3091
  331SOL    HW1  992   3.000   1.972   1.065 -0.8472  0.6859 -0.4753
  331SOL    HW2  993   2.882   1.992   1.187  0.8578  0.9401 -0.2568
  332SOL     OW  994   0.423   1.124   0.081 -0.2985  0.7096  0.4312
  332SOL    HW1  995   0.359   1.083   0.013  2.5420  1.0640  1.1969
  332SOL    HW2  996   0.376   1.198   0.139 -2.1683  1.1741 -0.0280
  333SOL     OW  997   2.865   1.022   0.302  0.2458  0.4014  0.1607
  333SOL    HW1  998   2.888   1.111   0.352  1.5753 -0.8535  1.8255
  333SOL    HW2  999   2.946   0.955   0.298 -1.5465 -1.5939 -0.7616
  334SOL     OW 1000   1.650   1.168   1.918  0.3892  0.6245 -0.1554
  334SOL    HW1 1001   1.733   1.149   1.853  1.1502  0.2991 -1.5897
  334SOL    HW2 1002   1.662   1.251   1.978 -2.8244 -1.0620 -0.9649
  335SOL     OW 1003   2.015   2.776   2.639  0.5546 -0.4807  0.2072
  335SOL    HW1 1004   1.972   2.728   2.719 -1.8274 -0.9345 -0.2710
  335SOL    HW2 1005   2.110   2.808   2.666  2.1205  0.7741 -0.9412
  336SOL     OW 1006   0.255   0.111   2.745  0.1210  0.2199  0.3538
  336SOL    HW1 1007   0.354   0.101   2.714  1.3290 -0.3689 -1.6113
  336SOL    HW2 1008   0.237   0.177   2.825 -3.1594  1.6080 -0.8042
  337SOL     OW 1009   0.893   2.764   2.819 -0.3875 -0.1488 -0.7287
  337SOL    HW1 1010   0.884   2.755   2.926  2.4217  0.6394 -0.1338
  337SOL    HW2 1011   0.992   2.744   2.792 -1.9277  0.7180  0.2408
  338SOL     OW 1012   0.030   1.003   0.618  0.1533 -0.1839  0.6824
  338SOL    HW1 1013  -0.061   0.965   0.649 -0.2253 -0.7412  1.2979
  338SOL    HW2 1014   0.028   1.109   0.634  0.9491  2.6669 -4.1024
  339SOL     OW 1015   1.655   1.399   2.078 -0.2648 -0.0765  0.3231
  339SOL    HW1 1016   1.555   1.428   2.097 -3.6170  0.8798 -1.5249
  339SOL    HW2 1017   1.724   1.478   2.084  2.1167  1.2603 -1.9822
  340SOL     OW 1018   2.292   0.811   1.172 -0.3262  0.0049  0.1530
  340SOL    HW1 1019   2.187   0.828   1.174 -1.0544 -0.7155 -1.3440
  340SOL    HW2 1020   2.319   0.714   1.143 -0.1767 -0.4896  0.3869
  341SOL     OW 1021   1.904   2.143   0.371 -0.8604  0.5825 -0.2672
  341SOL    HW1 1022   1.921   2.205   0.295  1.3042 -1.7789 -0.5060
  341SOL    HW2 1023   1.992   2.138   0.428  0.4078  0.8549  0.7243
  342SOL     OW 1024   2.206   2.077   2.762 -0.2041  0.5052  0.3658
  342SOL    HW1 1025   2.283   2.015   2.795  0.8614 -3.3538 -3.0318
  342SOL    HW2 1026   2.110   2.047   2.786  2.7979  0.9078 -0.3460
  343SOL     OW 1027   0.330   0.814   2.776  0.0692 -0.8490 -0.3209
  343SOL    HW1 1028   0.315   0.883   2.696 -0.1249 -0.6483  0.0063
  343SOL    HW2 1029   0.435   0.813   2.800  4.0099  1.1211  1.7364
  344SOL     OW 1030   1.902   1.466   0.399  0.0074 -0.5254  0.2451
  344SOL    HW1 1031   1.905   1.371   0.353  1.2258  0.3831  0.4848
  344SOL    HW2 1032   1.823   1.528   0.368 -0.3659 -0.4715  0.0880
  345SOL     OW 1033   1.381   2.225   2.840  0.3907  0.6111  0.0401
  345SOL    HW1 1034   1.292   2.175   2.822 -1.2203  1.1091  0.5982
  345SOL    HW2 1035   1.466   2.177   2.802  0.7509  0.5547 -0.0998
  346SOL     OW 1036   2.331   0.853   1.448 -0.6006  0.1621  0.4042
  346SOL    HW1 1037   2.251   0.908   1.479 -0.6974  0.1883  0.5909
  346SOL    HW2 1038   2.330   0.841   1.344  0.4859  0.1163 -0.7556
  347SOL     OW 1039   0.728   2.842   1.514 -0.1440  0.2615  0.1017
  347SOL    HW1 1040   0.703   2.763   1.580 -1.9739  0.3317 -1.1015
  347SOL    HW2 1041   0.653   2.913   1.508 -0.5648 -0.5922 -1.7746
  348SOL     OW 1042   0.102   0.696   2.856 -0.5973 -0.5860 -0.0099
  348SOL    HW1 1043   0.020   0.745   2.818 -1.9310 -3.1547 -0.8918
  348SOL    HW2 1044   0.190   0.737   2.827  0.0892  1.0924  3.3537
  349SOL     OW 1045   1.888   0.432   2.815 -0.1686 -0.0092  0.1323
  349SOL    HW1 1046   1.890   0.514   2.755 -2.8325 -2.5015  1.7831
  349SOL    HW2 1047   1.840   0.442   2.909 -1.1869  0.2670 -1.3205
  350SOL     OW 1048   1.667   0.387   0.385 -0.6205  0.0379 -0.1197
  350SOL    HW1 1049   1.730   0.426   0.458 -0.6218 -2.9873  0.9264
  350SOL    HW2 1050   1.617   0.466   0.337 -2.5185 -2.5936  2.0337
  351SOL     OW 1051   0.929   0.916   2.069  0.3930 -0.0174 -0.3609
  351SOL    HW1 1052   0.924   1.013   2.031  0.2371 -0.7977 -1.4104
  351SOL    HW2 1053   0.903   0.851   1.991  3.1232 -0.3202  2.4934
  352SOL     OW 1054   1.993   1.337   0.615  0.7219 -0.2143  0.3490
  352SOL    HW1 1055   1.968   1.388   0.524 -0.5548 -0.1649  3.4153
  352SOL    HW2 1056   2.072   1.377   0.663 -3.7960 -0.9654  1.3159
  353SOL     OW 1057   2.121   2.880   1.121 -0.1052  0.8226 -0.3582
  353SOL    HW1 1058   2.210   2.841   1.165  1.4686 -2.2675 -0.2835
  353SOL    HW2 1059   2.074   2.809   1.060 -1.5764  1.6939  0.5437
  354SOL     OW 1060   0.244   1.394   2.851  0.2154  0.0742 -0.0831
  354SOL    HW1 1061   0.245   1.480   2.791  1.5058  0.5604 -3.8814
  354SOL    HW2 1062   0.319   1.330   2.824 -1.6772 -2.1069  1.5871
  355SOL     OW 1063   0.492   1.524   0.559  0.8801  0.2494 -0.2801
  355SOL    HW1 1064   0.536   1.616   0.569 -0.6446 -1.0688  0.9803
  355SOL    HW2 1065   0.559   1.444   0.564 -0.5927  2.9636  0.2789
  356SOL     OW 1066   0.909   0.397   2.119  0.4672 -0.3280 -0.3608
  356SOL    HW1 1067   1.009   0.422   2.095  1.9663  1.3975 -2.2300
  356SOL    HW2 1068   0.865   0.327   2.058 -0.3821 -0.6570  3.6397
  357SOL     OW 1069   1.021   1.269   0.275 -0.5942  0.0596  0.9129
  357SOL    HW1 1070   0.961   1.251   0.193 -2.9751 -3.4499  0.7232
  357SOL    HW2 1071   1.033   1.176   0.317 -0.5402 -0.1471 -0.0936
  358SOL     OW 1072   1.649   1.572   0.429 -0.3895 -0.4158  0.4350
  358SOL    HW1 1073   1.603   1.503   0.492  2.6169 -0.2371 -0.2488
  358SOL    HW2 1074   1.583   1.636   0.387  1.0740 -1.5342  2.2958
  359SOL     OW 1075   1.556   2.689   0.151 -0.3696 -0.1006 -0.7988
  359SOL    HW1 1076   1.614   2.633   0.082  2.0814 -1.9349 -1.1834
  359SOL    HW2 1077   1.459   2.704   0.125  2.1751 -3.3429  0.9349
  360SOL     OW 1078   0.907   0.604   0.514  0.1169 -0.4737 -0.1303
  360SOL    HW1 1079   0.832   0.608   0.582  1.9744 -0.5569 -0.7371
  360SOL    HW2 1080   0.935   0.507   0.488 -1.0099  0.5490 -1.4211
  361SOL     OW 1081   1.247   1.379   0.661  0.1474  0.0673  0.3841
  361SOL    HW1 1082   1.284   1.374   0.756  0.2712  2.1655  0.6897
  361SOL    HW2 1083   1.147   1.403   0.660  3.7165 -0.6505 -1.4079
  362SOL     OW 1084   1.391   1.758   0.772 -0.5014 -0.2549 -0.0323
  362SOL    HW1 1085   1.411   1.702   0.856 -0.1964 -1.9387  0.2821
  362SOL    HW2 1086   1.470   1.825   0.748  2.5061 -0.4146  0.7123
  363SOL     OW 1087   1.162   1.352   2.005  0.5514 -0.5640  0.2094
  363SOL    HW1 1088   1.139   1.425   2.077 -4.5117 -0.7773  0.3034
  363SOL    HW2 1089   1.192   1.398   1.913  0.0994  0.2722  0.0068
  364SOL     OW 1090   0.555   2.333   1.946 -0.6731  0.2777 -0.8021
  364SOL    HW1 1091   0.472   2.396   1.953  0.9414  0.0131 -1.5855
  364SOL    HW2 1092   0.615   2.352   1.866 -0.4505  1.5223  0.4500
  365SOL     OW 1093   1.080   1.941   1.374 -0.0533  0.4282  0.2806
  365SOL    HW1 1094   0.988   1.942   1.417  0.2656  3.6657 -0.6876
  365SOL    HW2 1095   1.085   1.883   1.288 -0.2449 -1.1200  1.2827
  366SOL     OW 1096   2.829   2.078   0.465  0.1864  0.3746 -0.0840
  366SOL    HW1 1097   2.747   2.012   0.488 -0.4728  0.0425  0.2597
  366SOL    HW2 1098   2.911   2.027   0.437 -1.6901 -0.6612  1.8434
  367SOL     OW 1099   0.812   1.217   0.102  0.0854  0.1330  0.9929
  367SOL    HW1 1100   0.792   1.118   0.132  2.9595 -4.6776 -0.7776
  367SOL    HW2 1101   0.814   1.223  -0.001 -1.7353 -0.1203 -2.7975
  368SOL     OW 1102   1.552   0.548   0.700 -0.3910  0.4448  0.3876
  368SOL    HW1 1103   1.482   0.580   0.629  0.4515 -2.8173  1.7257
  368SOL    HW2 1104   1.643   0.585   0.673 -1.2469 -0.1319 -0.1734
  369SOL     OW 1105   0.292   1.707   0.100  0.0497  0.8453 -0.5729
  369SOL    HW1 1106   0.331   1.801   0.126  1.9720 -2.1550  0.2249
  369SOL    HW2 1107   0.190   1.717   0.103 -2.5575  0.0851  1.0453
  370SOL     OW 1108   0.394   2.113   0.984  0.0026 -0.2568  0.6577
  370SOL    HW1 1109   0.391   2.215   0.997 -1.8356 -0.7695  1.4081
  370SOL    HW2 1110   0.296   2.075   0.974 -1.1780  0.0881  1.2159
  371SOL     OW 1111   2.912   2.202   2.746 -0.1264  0.0923 -0.0042
  371SOL    HW1 1112   2.910   2.151   2.840 -0.3046  1.8589 -0.3467
  371SOL    HW2 1113   3.004   2.239   2.718  1.6384 -1.9452 -1.3367
  372SOL     OW 1114   0.921   1.852   0.917  0.6966  0.5370 -0.6087
  372SOL    HW1 1115   0.891   1.950   0.939 -2.9965 -0.2436 -2.1365
  372SOL    HW2 1116   1.004   1.842   0.859 -1.3157 -1.4106 -0.5126
  373SOL     OW 1117   1.991   2.001   0.938  0.2498 -0.0165  0.0080
  373SOL    HW1 1118   2.066   2.003   1.012  0.5081  0.4650  1.9924
  373SOL    HW2 1119   1.902   2.048   0.972 -1.9239 -0.6405  0.9583
  374SOL     OW 1120   1.892   0.439   0.552 -0.7094  0.5549  0.4741
  374SOL    HW1 1121   1.878   0.361   0.628 -0.0114 -3.3216  1.4142
  374SOL    HW2 1122   1.967   0.414   0.489  0.7246 -1.1022 -2.9042
  375SOL     OW 1123   2.393   2.173   1.109 -0.4313 -1.0583  0.7628
  375SOL    HW1 1124   2.437   2.151   1.018 -1.0872  0.2557 -0.1819
  375SOL    HW2 1125   2.460   2.159   1.191  1.7830 -1.0445  2.7911
  376SOL     OW 1126   3.047   0.616   1.452  0.1610  0.0574 -0.2124
  376SOL    HW1 1127   3.119   0.646   1.523 -0.0611 -1.1071 -0.4521
  376SOL    HW2 1128   2.952   0.640   1.482  0.8294  1.3737  2.3442
  377SOL     OW 1129   2.263   2.867   0.339  0.2057 -0.9366 -0.9015
  377SOL    HW1 1130   2.258   2.969   0.364  1.3234  0.6065  1.5598
  377SOL    HW2 1131   2.344   2.823   0.379  1.0513 -0.3475  0.6009
  378SOL     OW 1132   1.860   1.896   2.631 -0.4346  0.2578  0.2196
  378SOL    HW1 1133   1.893   1.804   2.664 -2.3633 -1.1599 -1.9798
  378SOL    HW2 1134   1.873   1.919   2.532  0.8612 -0.2168  1.9723
  379SOL     OW 1135   0.835   0.064   2.715 -0.4923 -0.7699 -0.0209
  379SOL    HW1 1136   0.793  -0.027   2.685 -2.9464 -1.1830  1.0093
  379SOL    HW2 1137   0.779   0.146   2.693  3.4954 -0.1883  1.7050
  380SOL     OW 1138   1.519   1.155   0.590 -0.4550 -0.0605  0.1439
  380SOL    HW1 1139   1.434   1.146   0.538  1.2872 -0.4216 -0.1229
  380SOL    HW2 1140   1.540   1.079   0.658 -1.5499  0.5028  1.8159
  381SOL     OW 1141   1.310   1.211   1.501  0.2221 -0.1039 -0.0596
  381SOL    HW1 1142   1.346   1.217   1.400  0.8972 -0.5559 -1.6912
  381SOL    HW2 1143   1.377   1.251   1.568  1.7983 -0.7589 -0.5899
  382SOL     OW 1144   1.745   0.809   0.274  0.1340 -0.4813  0.3049
  382SOL    HW1 1145   1.784   0.805   0.180 -0.5203 -0.3803  0.8724
  382SOL    HW2 1146   1.822   0.810   0.342  1.2597  1.6010  0.1598
  383SOL     OW 1147   2.594   1.009   1.517 -0.6953 -0.6507 -0.6046
  383SOL    HW1 1148   2.525   0.949   1.478  1.6890  0.8339  0.0154
  383SOL    HW2 1149   2.694   0.979   1.507  2.1230 -1.7710  1.2855
  384SOL     OW 1150   0.943   2.272   0.124 -0.4384  0.3775 -0.8631
  384SOL    HW1 1151   0.899   2.347   0.187 -0.0454 -0.0547 -0.6720
  384SOL    HW2 1152   0.919   2.180   0.155  0.9846  1.9764  2.1681
  385SOL     OW 1153   3.018   2.013   1.741  0.3688 -0.1604  0.2544
  385SOL    HW1 1154   3.105   2.072   1.738 -1.3645  2.4991  0.0133
  385SOL    HW2 1155   3.045   1.915   1.721 -4.0409  1.0357  1.8471
  386SOL     OW 1156   0.437   1.127   0.435 -0.2370  0.5105 -0.0307
  386SOL    HW1 1157   0.449   1.024   0.438  3.4458 -0.4616 -1.1508
  386SOL    HW2 1158   0.366   1.159   0.364  2.6933 -2.4246  0.6323
  387SOL     OW 1159   0.972   0.324   1.677  0.1110 -0.4785  0.1575
  387SOL    HW1 1160   1.049   0.389   1.671 -0.7049 -3.0729 -0.2904
  387SOL    HW2 1161   0.955   0.282   1.581 -1.3083 -3.2378 -3.6736
  388SOL     OW 1162   1.177   2.613   1.782 -0.7936  0.1859 -0.1138
  388SOL    HW1 1163   1.171   2.641   1.683 -0.1259 -2.3628  2.9159
  388SOL    HW2 1164   1.268   2.567   1.805 -2.0127  1.1962 -2.2678
  389SOL     OW 1165   0.254   3.087   1.140  0.2956  0.8304 -0.2235
  389SOL    HW1 1166   0.188   3.114   1.217  1.4871 -1.9596 -2.5427
  389SOL    HW2 1167   0.310   3.005   1.161 -2.2079 -0.3338 -1.1380
  390SOL     OW 1168   1.029   0.870   1.250  0.2580  0.1224 -0.6417
  390SOL    HW1 1169   1.133   0.854   1.264 -0.8891 -2.0422  3.3498
  390SOL    HW2 1170   0.988   0.899   1.344  0.7798  2.8399  2.3423
  391SOL     OW 1171   2.116   1.137   1.026 -0.4162  0.0016  0.8291
  391SOL    HW1 1172   2.021   1.098   1.053 -2.5658 -1.4187  0.0971
  391SOL    HW2 1173   2.154   1.090   0.942  0.5243 -0.3379 -1.7537
  392SOL     OW 1174   0.870   2.719   3.090 -0.2245 -0.0818 -0.5068
  392SOL    HW1 1175   0.785   2.701   3.150 -0.1472  0.7469  0.9356
  392SOL    HW2 1176   0.958   2.747   3.143  0.2748  1.2868 -0.3357
  393SOL     OW 1177   0.336   0.586   1.990  0.4457  0.3495  0.6962
  393SOL    HW1 1178   0.255   0.521   2.003  0.5249  0.3874  1.1255
  393SOL    HW2 1179   0.407   0.555   1.922 -0.3071 -1.9397 -0.8364
  394SOL     OW 1180   2.835   1.804   2.784  0.5175  0.7099  0.1759
  394SOL    HW1 1181   2.918   1.792   2.723 -0.1583 -0.0362 -1.8400
  394SOL    HW2 1182   2.787   1.892   2.777 -0.9324  0.0810  0.0639
  395SOL     OW 1183   1.595   1.923   0.692 -0.0225 -0.0908  0.6835
  395SOL    HW1 1184   1.653   1.854   0.646  0.8137  1.2122 -0.6415
  395SOL    HW2 1185   1.644   1.977   0.765  2.7021  1.2226 -0.3381
  396SOL     OW 1186   2.754   2.062   1.276 -0.1689  0.0465  0.5959
  396SOL    HW1 1187   2.775   2.067   1.381  1.6854 -0.0319  0.0994
  396SOL    HW2 1188   2.656   2.087   1.261  0.8491  0.7206  1.0805
  397SOL     OW 1189   1.000   2.082   0.647  0.1570 -0.5081 -0.0543
  397SOL    HW1 1190   0.910   2.055   0.594  0.2581  0.1386  0.6484
  397SOL    HW2 1191   1.000   2.177   0.679 -0.9116 -0.5995 -1.2054
  398SOL     OW 1192   2.154   0.048   1.076  0.6504  0.2355 -0.7281
  398SOL    HW1 1193   2.122  -0.045   1.102  0.7219 -0.8860 -0.7096
  398SOL    HW2 1194   2.075   0.118   1.067  1.5783 -0.7541  2.5868
  399SOL     OW 1195   2.951   2.577   2.739 -0.2068 -0.7540  0.3156
  399SOL    HW1 1196   2.909   2.527   2.657 -0.1381 -2.6691 -1.7210
  399SOL    HW2 1197   2.924   2.535   2.828  0.8083 -2.4820 -1.1048
  400SOL     OW 1198   0.838   1.601   1.267  0.5031 -0.1619 -0.0685
  400SOL    HW1 1199   0.777   1.647   1.337  0.8507  0.5586  0.2339
  400SOL    HW2 1200   0.819   1.639   1.173 -0.9579  1.5181 -0.1145
  401SOL     OW 1201   1.839   0.107   1.285 -0.2251 -0.1067 -0.5477
  401SOL    HW1 1202   1.901   0.160   1.354  0.0926  2.1334  2.0179
  401SOL    HW2 1203   1.743   0.106   1.325  0.0287  3.4103 -0.7046
  402SOL     OW 1204   1.305   0.152   3.042 -0.0411 -0.4999 -0.1739
  402SOL    HW1 1205   1.409   0.160   3.029  3.2350  1.0795 -0.4001
  402SOL    HW2 1206   1.257   0.245   3.079 -0.1361  1.8165  0.9527
  403SOL     OW 1207   2.271   1.802   0.957  0.6022  0.4477 -0.4529
  403SOL    HW1 1208   2.376   1.806   0.959  0.1140 -1.1247  1.2390
  403SOL    HW2 1209   2.231   1.870   1.026  0.1737  2.2297  1.7799
  404SOL     OW 1210   0.194   2.447   2.808 -0.1160  0.1024  0.6062
  404SOL    HW1 1211   0.281   2.438   2.756 -1.3609 -0.6084 -1.2777
  404SOL    HW2 1212   0.197   2.534   2.868 -2.0344  1.4737  1.6795
  405SOL     OW 1213   0.268   2.523   0.593  0.2097  1.4954 -0.4146
  405SOL    HW1 1214   0.234   2.497   0.499  0.7764  2.1863  1.4117
  405SOL    HW2 1215   0.349   2.585   0.594 -3.2015  0.8114  0.1996
  406SOL     OW 1216   0.024   1.514   2.961 -0.3912  0.3590 -0.2282
  406SOL    HW1 1217   0.096   1.468   2.905  0.1662  1.6183 -1.5480
  406SOL    HW2 1218   0.045   1.519   3.064  1.0419 -0.0584 -0.3760
  407SOL     OW 1219   1.545   0.944   0.916 -0.0041  0.0924 -1.0742
  407SOL    HW1 1220   1.543   0.947   0.813 -0.9923  0.3827  1.1070
  407SOL    HW2 1221   1.475   1.004   0.962 -0.5551 -2.2093 -1.2062
  408SOL     OW 1222   1.462   2.362   0.969  0.7944  0.7765  0.0522
  408SOL    HW1 1223   1.526   2.366   0.885 -0.9489 -0.6320 -0.4993
  408SOL    HW2 1224   1.488   2.429   1.039 -0.4477 -1.7466  0.2338
  409SOL     OW 1225   0.643   0.892   0.669  0.4778  0.4310  0.3355
  409SOL    HW1 1226   0.567   0.896   0.596  0.5468 -1.9536  0.1943
  409SOL    HW2 1227   0.688   0.795   0.680  2.8600 -0.6334  1.7548
  410SOL     OW 1228   1.327   1.999   1.502 -0.4719  0.1950  0.0632
  410SOL    HW1 1229   1.321   2.070   1.573  0.8719 -1.2913  2.4212
  410SOL    HW2 1230   1.233   1.977   1.467  1.8627 -1.3401 -0.5132
  411SOL     OW 1231   2.370   1.842   0.031 -0.1112 -0.2497  0.0323
  411SOL    HW1 1232   2.284   1.824  -0.018  1.9409  1.3209  1.7081
  411SOL    HW2 1233   2.448   1.852  -0.038 -0.7748 -0.1027 -0.2361
  412SOL     OW 1234   1.512   2.403   2.239  0.3489 -0.2577 -0.5347
  412SOL    HW1 1235   1.483   2.502   2.236  1.5644  0.6015  1.4525
  412SOL    HW2 1236   1.440   2.351   2.290 -2.0104 -1.7909 -0.9780
  413SOL     OW 1237   3.029   0.260   2.909 -0.5332  0.2070  0.5071
  413SOL    HW1 1238   3.000   0.169   2.950  2.0011  1.3377  0.1597
  413SOL    HW2 1239   3.133   0.264   2.896  0.0091  2.5941 -1.4663
  414SOL     OW 1240   1.784   1.324   1.309  0.1726  0.0635 -0.2168
  414SOL    HW1 1241   1.707   1.372   1.358 -0.5574  2.4032  0.7346
  414SOL    HW2 1242   1.761   1.310   1.212 -1.2853 -1.1763  2.2476
  415SOL     OW 1243   0.358   2.270   0.665  0.1832 -0.0536  0.1301
  415SOL    HW1 1244   0.315   2.365   0.654  1.5043  0.3309  1.7093
  415SOL    HW2 1245   0.284   2.209   0.697  2.0128  2.1393 -1.3915
  416SOL     OW 1246   0.356   1.026   1.049  0.1278 -0.4731  0.7386
  416SOL    HW1 1247   0.316   0.996   0.958  0.1007  0.0609 -0.2550
  416SOL    HW2 1248   0.453   1.069   1.034  1.4548 -2.7540 -1.4528
  417SOL     OW 1249   2.145   2.332   1.869  0.1908 -0.0347  0.0938
  417SOL    HW1 1250   2.148   2.233   1.863 -0.7293  0.1318 -0.1849
  417SOL    HW2 1251   2.069   2.365   1.926 -0.2712 -1.0280  1.0692
  418SOL     OW 1252   1.131   0.416   1.370  0.6487  0.4727 -0.7324
  418SOL    HW1 1253   1.031   0.385   1.342 -4.5094 -2.2999 -1.0437
  418SOL    HW2 1254   1.193   0.417   1.288  1.6985  0.5275 -0.2286
  419SOL     OW 1255   0.972   0.364   3.004  0.0802  0.4762 -0.0070
  419SOL    HW1 1256   0.993   0.386   2.905  1.8078 -1.1230  0.4324
  419SOL    HW2 1257   0.929   0.269   3.008 -0.7019  1.2304  0.1191
  420SOL     OW 1258   0.200   2.287   0.369  0.0483 -0.0281  0.0962
  420SOL    HW1 1259   0.174   2.239   0.283 -2.5799 -2.7556  2.4894
  420SOL    HW2 1260   0.127   2.270   0.440  1.0266 -0.0846 -1.9080
  421SOL     OW 1261   0.337   3.093   0.652 -0.5146 -0.8903 -0.3350
  421SOL    HW1 1262   0.339   3.018   0.579  2.7482 -1.3602 -0.7835
  421SOL    HW2 1263   0.431   3.128   0.680 -1.3592 -0.1467  0.0854
  422SOL     OW 1264   0.934   2.514   1.017  0.0419  0.0125 -0.1300
  422SOL    HW1 1265   0.943   2.581   0.938 -3.1425 -0.3916  0.1596
  422SOL    HW2 1266   0.980   2.547   1.100  0.5477 -1.7784  1.1635
  423SOL     OW 1267   0.016   0.733   1.200  0.2496  0.6348 -0.3627
  423SOL    HW1 1268  -0.026   0.685   1.287 -1.5152 -1.6641  1.5775
  423SOL    HW2 1269  -0.050   0.783   1.144  0.3772 -2.4908 -2.1290
  424SOL     OW 1270   1.015   2.143   2.199  0.5104 -0.1308 -1.0042
  424SOL    HW1 1271   1.046   2.222   2.145  1.8846 -1.1231 -0.2259
  424SOL    HW2 1272   0.963   2.167   2.286 -0.1940  1.2834  0.8071
  425SOL     OW 1273   2.032   1.410   1.085 -0.2753 -0.1079  0.1097
  425SOL    HW1 1274   2.053   1.309   1.067  0.7674 -0.4235 -1.5093
  425SOL    HW2 1275   2.091   1.486   1.030 -0.4008  3.8638 -0.3954
  426SOL     OW 1276   1.563   1.512   1.401 -0.1383  0.3650 -0.2630
  426SOL    HW1 1277   1.507   1.574   1.347 -0.4646 -0.0635 -0.2481
  426SOL    HW2 1278   1.576   1.546   1.496  0.7072 -1.5487  0.2877
  427SOL     OW 1279   1.920   2.355   2.021 -0.1609  0.3572 -0.0941
  427SOL    HW1 1280   1.943   2.293   2.104  0.1973 -0.1618  1.6492
  427SOL    HW2 1281   1.945   2.453   2.038  0.1591 -0.9490  2.4738
  428SOL     OW 1282   0.938   3.057   0.117 -0.0702 -0.3805  0.3278
  428SOL    HW1 1283   0.993   3.133   0.154 -0.8383 -1.7825 -1.6981
  428SOL    HW2 1284   0.989   2.967   0.114  0.4480 -2.5466  1.8694
  429SOL     OW 1285   1.333   0.033   0.226  0.0827  0.5839  0.3015
  429SOL    HW1 1286   1.415   0.089   0.266 -0.5203  1.9462 -0.8484
  429SOL    HW2 1287   1.333   0.035   0.124  1.4692  1.7455  2.4742
  430SOL     OW 1288   2.814   1.509   0.368 -0.0116 -0.2616 -0.1188
  430SOL    HW1 1289   2.818   1.592   0.300  2.9206  1.1768  0.0869
  430SOL    HW2 1290   2.802   1.549   0.463 -0.8952 -0.9776 -0.8818
  431SOL     OW 1291   2.100   1.593   0.875 -0.5806  0.1518  0.7061
  431SOL    HW1 1292   2.160   1.671   0.907  0.9454  0.7976 -1.9544
  431SOL    HW2 1293   2.005   1.630   0.847 -0.8896  1.5370  0.1689
  432SOL     OW 1294   2.888   2.291   1.238  0.3026 -0.1343  0.4224
  432SOL    HW1 1295   2.834   2.199   1.222 -0.9905 -1.0014 -3.1572
  432SOL    HW2 1296   2.907   2.306   1.339 -1.1312  4.3515  0.1706
  433SOL     OW 1297   1.838   0.315   0.783  0.0471  0.7782 -0.0594
  433SOL    HW1 1298   1.740   0.307   0.817  0.1927 -2.6277 -0.3191
  433SOL    HW2 1299   1.908   0.286   0.852 -2.8619  1.5627 -0.5305
  434SOL     OW 1300   1.541   0.269   0.717  0.0184 -0.0410  0.0373
  434SOL    HW1 1301   1.546   0.370   0.693  1.3057  1.3142 -2.7467
  434SOL    HW2 1302   1.545   0.257   0.820 -0.7302  1.2411 -3.5911
  435SOL     OW 1303   1.427   1.533   2.123  0.0166  0.3219  0.0274
  435SOL    HW1 1304   1.378   1.531   2.214  1.5493  1.3348 -2.6592
  435SOL    HW2 1305   1.381   1.590   2.050  4.4172  1.4702 -0.0813
  436SOL     OW 1306   1.626   2.716   2.372  0.3290 -0.9574 -0.3792
  436SOL    HW1 1307   1.631   2.794   2.441 -0.6537 -1.9701 -1.2495
  436SOL    HW2 1308   1.613   2.627   2.422  1.1130  0.4171 -2.9637
  437SOL     OW 1309   1.074   2.941   0.826  0.5009 -0.3993  0.4208
  437SOL    HW1 1310   1.026   3.030   0.821  0.8063 -1.9721 -0.6041
  437SOL    HW2 1311   1.109   2.921   0.922  0.7146 -3.8744  0.4884
  438SOL     OW 1312   1.009   2.499   1.298  0.4061  0.0172 -0.6376
  438SOL    HW1 1313   1.076   2.522   1.369  1.8528 -3.2146  0.9573
  438SOL    HW2 1314   0.989   2.398   1.311  0.4467 -0.2114  0.3986
  439SOL     OW 1315   0.708   1.686   1.027 -0.0264 -0.0246  0.1350
  439SOL    HW1 1316   0.734   1.776   0.977  1.3392 -1.3386 -0.6767
  439SOL    HW2 1317   0.621   1.697   1.087  0.9489 -0.0235  3.7621
  440SOL     OW 1318   1.035   2.437   2.037 -0.2337  0.7030  0.0121
  440SOL    HW1 1319   0.989   2.487   1.957  1.0741 -0.6727  1.1242
  440SOL    HW2 1320   1.137   2.427   2.019  0.0674 -1.1723 -0.2917
  441SOL     OW 1321   0.346   2.715   1.295  0.5842  0.3169 -0.2292
  441SOL    HW1 1322   0.426   2.643   1.304 -0.4937 -0.3239 -1.7121
  441SOL    HW2 1323   0.358   2.782   1.213  0.4656  0.7223 -0.5004
  442SOL     OW 1324   2.249   0.661   2.582  0.1178  0.0865  0.4141
  442SOL    HW1 1325   2.235   0.565   2.550  0.8715  2.9842 -3.7139
  442SOL    HW2 1326   2.174   0.723   2.542  1.3222  2.5367  2.3750
  443SOL     OW 1327   1.268   2.568   2.221  0.5186  1.1201  0.1333
  443SOL    HW1 1328   1.268   2.471   2.263 -1.8694 -0.6534 -1.0886
  443SOL    HW2 1329   1.230   2.640   2.287  0.7528 -0.8072 -1.6173
  444SOL     OW 1330   1.028   1.217   1.458  0.1474 -0.0666 -0.2118
  444SOL    HW1 1331   1.118   1.181   1.496  2.9768 -1.8916  1.7532
  444SOL    HW2 1332   1.028   1.320   1.451 -1.3637  1.3039  0.8627
  445SOL     OW 1333   0.184   2.268   2.090  0.0005  0.0162 -0.6033
  445SOL    HW1 1334   0.082   2.243   2.104 -3.8467 -1.0859 -1.6250
  445SOL    HW2 1335   0.245   2.196   2.126 -0.9281  0.3303  0.1175
  446SOL     OW 1336   0.133   1.957   2.355  0.3319 -0.0107 -0.8410
  446SOL    HW1 1337   0.063   2.028   2.388 -1.4797 -2.2995  2.3451
  446SOL    HW2 1338   0.110   1.910   2.262 -3.5100 -1.3681  1.5931
  447SOL     OW 1339   1.283   1.713   1.928 -0.3005 -0.5035  0.6262
  447SOL    HW1 1340   1.187   1.750   1.945 -1.6089 -0.5466  0.0429
  447SOL    HW2 1341   1.363   1.773   1.960  2.2989 -0.9597  0.3255
  448SOL     OW 1342   0.188   1.461   2.044  0.3439 -0.1330  0.4535
  448SOL    HW1 1343   0.159   1.547   1.986 -0.2528 -0.3027 -1.9045
  448SOL    HW2 1344   0.118   1.436   2.117 -1.5988 -4.7081  2.2399
  449SOL     OW 1345   1.857   2.938   0.819  0.8400 -0.3671 -0.6720
  449SOL    HW1 1346   1.828   2.980   0.912  0.1766  0.4829  2.9313
  449SOL    HW2 1347   1.884   2.840   0.826 -1.4411  1.0247  0.5832
  450SOL     OW 1348   2.236   1.444   0.672 -0.3554 -0.4812 -0.0969
  450SOL    HW1 1349   2.213   1.499   0.760  1.1915 -0.9562  2.3402
  450SOL    HW2 1350   2.274   1.506   0.599 -1.6015 -0.5962 -2.7117
  451SOL     OW 1351   1.400   3.021   1.484 -0.0564  0.3429  0.5308
  451SOL    HW1 1352   1.326   3.085   1.505  0.0777  1.1511  2.3448
  451SOL    HW2 1353   1.464   2.984   1.560 -1.5571  0.8750  1.1249
  452SOL     OW 1354   2.694   2.322   2.254 -0.1367 -0.2288 -0.0834
  452SOL    HW1 1355   2.648   2.413   2.238 -0.0640 -1.1961  1.7577
  452SOL    HW2 1356   2.677   2.291   2.349 -2.1563 -1.5369  0.2404
  453SOL     OW 1357   2.458   2.651   3.073 -0.4389  0.1569 -0.2065
  453SOL    HW1 1358   2.372   2.699   3.113  1.0231 -0.4477 -0.0081
  453SOL    HW2 1359   2.431   2.559   3.016  0.1897 -1.0892  0.9781
  454SOL     OW 1360   0.940   1.200   2.000 -0.0745 -0.1333 -0.2316
  454SOL    HW1 1361   0.930   1.169   1.902  1.1236  2.2379 -1.4444
  454SOL    HW2 1362   1.017   1.266   2.015 -0.3225 -0.2391  0.1014
  455SOL     OW 1363   0.651   2.648   2.822  0.4246  0.3362  0.1840
  455SOL    HW1 1364   0.746   2.683   2.812  0.3090 -2.3879  2.9632
  455SOL    HW2 1365   0.648   2.563   2.880  2.1360  2.8541 -2.5731
  456SOL     OW 1366   0.371   1.947   0.212  0.0279 -0.1722 -0.1330
  456SOL    HW1 1367   0.452   1.920   0.274  1.3054  0.8607 -0.6016
  456SOL    HW2 1368   0.372   2.049   0.193  0.1282  0.1641 -1.1381
  457SOL     OW 1369   0.416   2.774   0.656  0.1519 -0.0694  0.1695
  457SOL    HW1 1370   0.444   2.831   0.575 -1.1042  2.8858 -0.3123
  457SOL    HW2 1371   0.492   2.756   0.723 -3.6721 -0.0667  0.3346
  458SOL     OW 1372   2.917   0.043   1.253 -0.3922  0.1705 -0.6274
  458SOL    HW1 1373   2.984   0.107   1.211  0.2651 -2.9586 -0.3781
  458SOL    HW2 1374   2.895  -0.034   1.189 -1.6950 -2.5493  3.2225
  459SOL     OW 1375   2.202   2.484   0.767  0.2229  0.0080  0.0853
  459SOL    HW1 1376   2.250   2.544   0.835  1.0435 -0.1570  0.8331
  459SOL    HW2 1377   2.236   2.390   0.758  0.7708  0.4490  1.5518
  460SOL     OW 1378   1.192   2.049   2.751  0.3420 -0.5033  0.1361
  460SOL    HW1 1379   1.244   2.042   2.661  1.0787 -0.8725  0.2186
  460SOL    HW2 1380   1.197   1.962   2.807 -2.0839 -0.1829 -0.4565
  461SOL     OW 1381   0.450   2.124   2.713 -0.7515 -0.0882 -0.5842
  461SOL    HW1 1382   0.396   2.059   2.651 -0.8933 -2.9869 -0.2224
  461SOL    HW2 1383   0.481   2.083   2.806  1.9343 -2.9526  2.0141
  462SOL     OW 1384   0.948   1.015   1.756 -0.2947  0.0783  0.2338
  462SOL    HW1 1385   0.944   0.939   1.682  0.7344 -0.7940 -0.5836
  462SOL    HW2 1386   0.891   1.100   1.728  1.2670  2.4752 -1.8779
  463SOL     OW 1387   0.433   0.852   0.475  0.2123  0.3832  0.0175
  463SOL    HW1 1388   0.478   0.756   0.472 -2.9105  0.2570  0.6748
  463SOL    HW2 1389   0.327   0.842   0.470 -1.4713 -1.0945 -0.4938
  464SOL     OW 1390   0.614   2.354   2.232  0.5780  0.3034 -0.3953
  464SOL    HW1 1391   0.567   2.420   2.295 -2.4497  0.4532 -0.6437
  464SOL    HW2 1392   0.572   2.355   2.139  1.7658 -0.5309 -1.5585
  465SOL     OW 1393   0.245   0.940   0.814 -0.4148 -0.7108  0.2384
  465SOL    HW1 1394   0.159   0.947   0.754 -1.6694  0.8591 -0.8270
  465SOL    HW2 1395   0.295   0.849   0.794  2.6156 -0.7030  1.6750
  466SOL     OW 1396   1.358   1.131   1.027  0.1672 -0.0392 -0.2602
  466SOL    HW1 1397   1.389   1.215   0.979 -1.4877  0.6078 -0.0899
  466SOL    HW2 1398   1.274   1.145   1.088  0.8043  1.0018  0.7411
  467SOL     OW 1399   0.604   0.422   2.472 -0.6204  0.0586  0.2734
  467SOL    HW1 1400   0.553   0.504   2.508 -1.3321 -0.6341 -2.2418
  467SOL    HW2 1401   0.616   0.350   2.550 -1.3986 -0.0362  1.4434
  468SOL     OW 1402   0.435   2.242   1.624 -0.3483 -0.0051  0.2029
  468SOL    HW1 1403   0.507   2.307   1.659  0.5753  1.2364  0.1408
  468SOL    HW2 1404   0.447   2.228   1.522  1.0217 -0.9577 -0.5491
  469SOL     OW 1405   1.390   1.336   1.248  0.1631 -0.2693  0.9074
  469SOL    HW1 1406   1.435   1.328   1.158  1.1970 -3.4546 -1.7398
  469SOL    HW2 1407   1.442   1.399   1.311 -0.3723 -1.2270 -0.3498
  470SOL     OW 1408   3.035   1.785   0.750  0.0186 -0.7035 -0.2134
  470SOL    HW1 1409   3.117   1.800   0.688  0.9950  3.2558 -2.5349
  470SOL    HW2 1410   3.057   1.747   0.846 -1.4910  1.0529  1.1210
  471SOL     OW 1411   2.571   1.396   2.179 -0.2540  0.0327 -0.5147
  471SOL    HW1 1412   2.559   1.293   2.198 -3.3421 -0.3916  1.0638
  471SOL    HW2 1413   2.665   1.431   2.206 -2.1578  0.0420  0.5685
  472SOL     OW 1414   1.134   2.474   0.096 -0.6337 -0.8812 -0.5911
  472SOL    HW1 1415   1.217   2.455   0.153 -1.4836  0.3516  0.6561
  472SOL    HW2 1416   1.051   2.413   0.117 -1.2543  0.4228 -0.8116
  473SOL     OW 1417   1.061   1.511   1.012  0.1654 -0.5801  0.0537
  473SOL    HW1 1418   0.969   1.476   0.972 -0.8249 -1.7528  1.6360
  473SOL    HW2 1419   1.089   1.450   1.091  1.1951  1.6261  1.0635
  474SOL     OW 1420   0.652   1.284   0.548 -0.0161  0.2303  0.0665
  474SOL    HW1 1421   0.579   1.231   0.496  0.3785 -1.5078 -1.2812
  474SOL    HW2 1422   0.723   1.218   0.589 -1.4682 -2.3456 -0.7900
  475SOL     OW 1423   2.805   0.057   0.825 -0.3298 -0.3410 -0.0711
  475SOL    HW1 1424   2.880   0.122   0.792  1.0269 -2.7163 -0.2537
  475SOL    HW2 1425   2.709   0.092   0.847 -0.1625 -0.5866  2.9252
  476SOL     OW 1426   0.964   3.052   1.801  0.5926 -0.1999 -0.0034
  476SOL    HW1 1427   1.063   3.076   1.807  0.4802  1.0048  1.5233
  476SOL    HW2 1428   0.939   3.021   1.702  1.6260  0.2993 -3.3713
  477SOL     OW 1429   1.457   0.296   2.408  0.4523 -0.1986  0.1803
  477SOL    HW1 1430   1.450   0.328   2.507  1.2163  1.5566  0.3866
  477SOL    HW2 1431   1.546   0.248   2.394  0.0643  0.7546 -0.2760
  478SOL     OW 1432   2.249   1.897   0.290 -0.0021 -0.0276  0.9770
  478SOL    HW1 1433   2.235   1.809   0.339  0.4448 -0.1097 -4.7859
  478SOL    HW2 1434   2.285   1.885   0.190 -1.8149 -0.2140 -3.9488
  479SOL     OW 1435   1.241   0.972   2.901 -0.4606  0.0566  0.0493
  479SOL    HW1 1436   1.325   0.959   2.842 -0.3883 -0.0360  1.7057
  479SOL    HW2 1437   1.172   0.895   2.893 -0.3882 -0.0257  0.1716
  480SOL     OW 1438   2.673   2.299   0.387  0.5080 -0.0875  0.2546
  480SOL    HW1 1439   2.707   2.204   0.419 -0.5708 -1.8212 -2.4573
  480SOL    HW2 1440   2.569   2.296   0.385  1.9538 -0.1841 -0.6517
  481SOL     OW 1441   1.048   1.177   0.883  0.3647  0.5531 -0.1791
  481SOL    HW1 1442   1.086   1.270   0.860 -0.6852 -1.6068  1.3953
  481SOL    HW2 1443   1.055   1.158   0.984 -2.1648  0.8250  0.2496
  482SOL     OW 1444   1.563   0.304   1.983 -0.0167  0.2895  0.1928
  482SOL    HW1 1445   1.599   0.401   1.995  1.0827 -2.9945  1.1458
  482SOL    HW2 1446   1.637   0.234   1.989 -1.8775 -0.9725 -1.2453
  483SOL     OW 1447   0.224   2.327   1.200 -0.0571  0.1924  0.3492
  483SOL    HW1 1448   0.186   2.375   1.289  0.0864 -2.6470  1.6347
  483SOL    HW2 1449   0.225   2.385   1.111  0.6735  2.0082 -1.3646
  484SOL     OW 1450   1.749   1.060   1.329  0.6276  0.2698 -0.6255
  484SOL    HW1 1451   1.805   0.982   1.372 -0.1589 -1.5947  2.1972
  484SOL    HW2 1452   1.794   1.153   1.326  1.1157 -0.8308  0.0728
  485SOL     OW 1453   0.738   0.740   1.833 -0.0441 -0.1624 -0.2081
  485SOL    HW1 1454   0.715   0.761   1.734 -0.5432 -2.4725 -1.7110
  485SOL    HW2 1455   0.836   0.694   1.844  2.7241 -1.2211  0.8305
  486SOL     OW 1456   0.833   1.890   2.418 -0.4694  0.0368 -0.4973
  486SOL    HW1 1457   0.875   1.892   2.513  1.0892 -0.8623  0.9853
  486SOL    HW2 1458   0.801   1.984   2.389  1.2767 -0.8474  2.6148
  487SOL     OW 1459   1.781   1.603   1.045  0.0903 -0.6401  0.0639
  487SOL    HW1 1460   1.831   1.515   1.028  1.1498 -1.2609  0.2607
  487SOL    HW2 1461   1.795   1.666   0.962 -0.4028 -0.4565  0.3222
  488SOL     OW 1462   2.936   0.804   2.286  0.3176  0.5940  0.1258
  488SOL    HW1 1463   3.010   0.728   2.284  2.0018  1.1540  2.5397
  488SOL    HW2 1464   2.857   0.780   2.350 -1.3875  1.6554  0.5070
  489SOL     OW 1465   2.769   0.323   1.301 -0.0346  0.2237 -0.1895
  489SOL    HW1 1466   2.760   0.294   1.402 -0.8369 -1.6536 -0.3314
  489SOL    HW2 1467   2.859   0.296   1.256 -0.6136 -3.0823  1.0717
  490SOL     OW 1468   1.436   2.913   2.821  0.0111 -0.3079 -0.1996
  490SOL    HW1 1469   1.512   2.847   2.836 -0.4054 -0.4451  2.3406
  490SOL    HW2 1470   1.389   2.911   2.728 -0.8090  0.0667 -0.3260
  491SOL     OW 1471   1.749   1.499   2.719  0.0118 -0.1018  0.0607
  491SOL    HW1 1472   1.722   1.430   2.787 -0.6656  3.0500 -0.3606
  491SOL    HW2 1473   1.834   1.546   2.746 -1.6217 -0.5123  0.1573
  492SOL     OW 1474   0.537   2.056   0.652 -0.3598 -0.4941  0.0406
  492SOL    HW1 1475   0.563   2.050   0.749 -0.1995 -0.4819  0.8991
  492SOL    HW2 1476   0.475   2.142   0.639  0.4933 -2.9875  0.7595
  493SOL     OW 1477   0.445   1.350   2.094  0.6784  0.1414  0.2696
  493SOL    HW1 1478   0.346   1.381   2.082  0.8352  0.9956  0.5539
  493SOL    HW2 1479   0.446   1.250   2.129 -0.1497  0.7228  2.2159
  494SOL     OW 1480   2.704   2.614   0.102 -0.1881 -0.7679 -0.3117
  494SOL    HW1 1481   2.708   2.592   0.202 -0.6178 -0.2429 -0.4000
  494SOL    HW2 1482   2.605   2.614   0.069  0.1429 -1.9137 -0.0765
  495SOL     OW 1483   2.528   2.830   2.623  0.0674 -0.0931 -0.8907
  495SOL    HW1 1484   2.547   2.726   2.624  0.2773  1.6705  3.3051
  495SOL    HW2 1485   2.603   2.876   2.568  0.7001 -1.4888  0.6109
  496SOL     OW 1486   1.979   2.303   0.814  0.3924  0.4723 -0.2492
  496SOL    HW1 1487   2.007   2.373   0.890 -0.2499  0.2069 -0.7751
  496SOL    HW2 1488   2.025   2.212   0.827  3.2033  0.8380 -1.1382
  497SOL     OW 1489   0.202   2.997   2.378 -0.6982  0.0622  0.4244
  497SOL    HW1 1490   0.152   3.060   2.447  2.4315 -2.4750  0.2961
  497SOL    HW2 1491   0.241   3.048   2.295  0.1339 -1.3103  1.5455
  498SOL     OW 1492   1.123   1.375   1.222 -0.3356 -0.2858 -0.3295
  498SOL    HW1 1493   1.223   1.359   1.237 -2.0684 -1.1175  0.3222
  498SOL    HW2 1494   1.080   1.412   1.310 -0.7716  1.4838  0.2394
  499SOL     OW 1495   0.618   1.825   0.344  0.6337 -0.4728  0.1748
  499SOL    HW1 1496   0.671   1.758   0.281 -0.0681 -1.6006 -2.3514
  499SOL    HW2 1497   0.677   1.884   0.402 -1.4554  2.7074 -0.3289
  500SOL     OW 1498   1.534   2.875   1.676 -0.2581 -0.0004 -0.2070
  500SOL    HW1 1499   1.554   2.891   1.775 -1.1480  3.0111 -2.5450
  500SOL    HW2 1500   1.571   2.783   1.642  2.5308  0.9632 -0.0976
  501SOL     OW 1501   0.792   1.176   2.294 -0.2772 -0.3224  0.0889
  501SOL    HW1 1502   0.718   1.107   2.303 -1.3728 -1.2423  1.8699
  501SOL    HW2 1503   0.840   1.175   2.198  1.3369  0.7699 -3.5095
  502SOL     OW 1504   2.586   0.932   1.787 -0.2711  0.2537  0.5183
  502SOL    HW1 1505   2.599   0.977   1.695 -0.5512 -0.7503 -0.0165
  502SOL    HW2 1506   2.566   0.834   1.779 -0.2299 -0.7520  1.0844
  503SOL     OW 1507   1.298   0.129   0.668 -0.0668  0.1736 -0.5271
  503SOL    HW1 1508   1.229   0.210   0.668 -0.8427 -0.2178  0.9296
  503SOL    HW2 1509   1.400   0.157   0.670 -0.3980  0.5752 -1.1670
  504SOL     OW 1510   3.039   2.309   1.514 -0.1954  0.0324  0.5208
  504SOL    HW1 1511   3.013   2.406   1.533  2.5491 -1.1647  0.4959
  504SOL    HW2 1512   3.084   2.259   1.601  4.5330 -0.6848  0.1561
  505SOL     OW 1513   2.309   1.172   1.468  0.2669  0.2193  0.1006
  505SOL    HW1 1514   2.322   1.186   1.366 -0.7861  1.7797  1.1051
  505SOL    HW2 1515   2.356   1.239   1.527  0.4611 -3.3398 -2.3806
  506SOL     OW 1516   1.966   0.159   1.842  0.4366 -0.4390  0.5351
  506SOL    HW1 1517   2.059   0.116   1.843  3.0109  0.4226 -0.1310
  506SOL    HW2 1518   1.975   0.263   1.858  0.6504  0.9006 -0.6447
  507SOL     OW 1519   0.514   0.714   2.200  1.1298  0.7206 -0.2265
  507SOL    HW1 1520   0.486   0.686   2.106 -3.4744 -3.8203  0.7572
  507SOL    HW2 1521   0.592   0.655   2.230 -4.0292 -0.0535  1.2497
  508SOL     OW 1522   0.319   1.696   0.780  0.5443 -0.1365 -0.0111
  508SOL    HW1 1523   0.382   1.755   0.719 -3.6389 -0.6808  0.9668
  508SOL    HW2 1524   0.301   1.738   0.874 -0.0382  0.0184 -1.9548
  509SOL     OW 1525   1.277   1.229   2.466 -0.3904  0.2387  0.4585
  509SOL    HW1 1526   1.304   1.204   2.366  0.9116 -0.5083  1.5333
  509SOL    HW2 1527   1.178   1.205   2.482  0.9077  1.5170  1.4575
  510SOL     OW 1528   1.292   2.017   2.221  0.1167 -0.0278  0.1880
  510SOL    HW1 1529   1.305   2.051   2.124 -0.6344  0.2363 -0.2380
  510SOL    HW2 1530   1.236   1.935   2.231  0.1816  3.9219  0.4582
  511SOL     OW 1531   3.005   2.763   1.301  0.1687  0.0177  0.1318
  511SOL    HW1 1532   3.039   2.770   1.204 -0.7692 -1.5007  1.0619
  511SOL    HW2 1533   2.901   2.751   1.298  1.2990  0.4155  0.5906
  512SOL     OW 1534   2.363   0.429   1.369  0.0093 -0.2305 -0.2094
  512SOL    HW1 1535   2.259   0.424   1.365  1.5129 -3.4937  1.4003
  512SOL    HW2 1536   2.402   0.384   1.283  0.3068  1.2118  2.0524
  513SOL     OW 1537   2.585   2.123   0.907  0.3761  0.6488  0.5742
  513SOL    HW1 1538   2.535   2.181   0.833 -0.9834 -0.4690  2.1796
  513SOL    HW2 1539   2.681   2.105   0.878 -0.6514  0.7927  0.1238
  514SOL     OW 1540   0.626   2.722   0.431  0.3977 -0.0500 -0.1661
  514SOL    HW1 1541   0.677   2.726   0.343  1.0859 -3.0959  1.0313
  514SOL    HW2 1542   0.652   2.802   0.496  0.7354  1.9125 -2.0057
  515SOL     OW 1543   1.935   1.344   2.417 -0.1321 -0.0640  0.4345
  515SOL    HW1 1544   1.933   1.310   2.316 -0.8070  1.3585  0.2913
  515SOL    HW2 1545   1.860   1.311   2.477 -1.4050  2.9874 -2.1892
  516SOL     OW 1546   0.246   0.244   1.874  0.0111  1.1618  0.0668
  516SOL    HW1 1547   0.344   0.219   1.863  2.3653 -0.0904 -1.8124
  516SOL    HW2 1548   0.179   0.181   1.824 -0.6248  0.5754  1.2972
  517SOL     OW 1549   0.478   0.205   1.159  0.1237 -0.6399  0.0930
  517SOL    HW1 1550   0.553   0.157   1.216 -1.9748  1.6010 -1.1139
  517SOL    HW2 1551   0.385   0.153   1.162  1.2182 -0.6396 -1.0900
  518SOL     OW 1552   2.140   3.018   1.824 -0.7058  0.7731 -0.5703
  518SOL    HW1 1553   2.215   3.092   1.810 -0.0031 -1.9378 -0.1334
  518SOL    HW2 1554   2.118   2.974   1.730  2.6583  0.8868  1.1404
  519SOL     OW 1555   2.359   2.201   2.536 -0.3063 -0.6063 -0.3463
  519SOL    HW1 1556   2.279   2.162   2.586  0.9886 -2.0622 -0.8322
  519SOL    HW2 1557   2.381   2.302   2.537  0.2251 -0.6492 -2.8406
  520SOL     OW 1558   1.858   2.746   1.684  0.0679  0.4685 -0.3610
  520SOL    HW1 1559   1.788   2.685   1.719  0.6656  1.5790 -0.9865
  520SOL    HW2 1560   1.949   2.690   1.678 -1.0537 -0.6191  2.6829
  521SOL     OW 1561   0.586   0.052   2.153 -0.3637 -0.3316 -0.0658
  521SOL    HW1 1562   0.485   0.039   2.135  0.7611  0.6062  1.1850
  521SOL    HW2 1563   0.623   0.017   2.248  0.2553 -0.2585  1.1176
  522SOL     OW 1564   0.241   1.887   1.472 -0.0742 -0.5577  0.0451
  522SOL    HW1 1565   0.253   1.945   1.557 -1.7332  0.0570 -2.1123
  522SOL    HW2 1566   0.224   1.949   1.389  1.1432 -1.6426 -2.7101
  523SOL     OW 1567   2.143   2.926   1.575 -0.6938 -0.2210  0.2078
  523SOL    HW1 1568   2.224   2.863   1.568  0.2080 -1.7639 -1.3903
  523SOL    HW2 1569   2.068   2.896   1.509  3.4551  0.0718 -0.9048
  524SOL     OW 1570   0.205   2.753   2.794 -0.4312 -0.1398  0.0131
  524SOL    HW1 1571   0.179   2.831   2.852 -0.2417 -1.2329 -0.2591
  524SOL    HW2 1572   0.293   2.779   2.742  2.4122  1.3187 -1.3351
  525SOL     OW 1573   2.139   2.051   0.496  0.7790 -0.5617  0.1364
  525SOL    HW1 1574   2.137   2.004   0.592  1.0116  0.6866  1.5418
  525SOL    HW2 1575   2.177   1.996   0.421 -1.8639 -0.0066  0.6250
  526SOL     OW 1576   0.425   1.540   1.751  0.1544 -0.3998  0.4857
  526SOL    HW1 1577   0.466   1.591   1.838 -1.0877  1.0605  4.7953
  526SOL    HW2 1578   0.425   1.436   1.767  2.9821  0.8889  2.0340
  527SOL     OW 1579   1.052   2.951   1.197  0.0193 -0.1898  0.4933
  527SOL    HW1 1580   1.105   2.876   1.248 -2.3571 -1.3226  2.4016
  527SOL    HW2 1581   1.116   3.027   1.168 -2.0186 -1.4491 -0.2570
  528SOL     OW 1582   1.309   2.383   0.575 -0.0009 -0.2736 -0.1569
  528SOL    HW1 1583   1.372   2.303   0.574  2.6050 -2.2849 -0.1082
  528SOL    HW2 1584   1.349   2.469   0.621 -1.7335 -1.8881  1.0573
  529SOL     OW 1585   1.892   1.758   0.833  0.4059 -0.3095 -0.4404
  529SOL    HW1 1586   1.840   1.751   0.743  1.0017  0.6176  0.6513
  529SOL    HW2 1587   1.914   1.858   0.856  0.5075 -1.7206 -3.2672
  530SOL     OW 1588   0.438   2.495   0.165  0.3657  0.1096  0.7357
  530SOL    HW1 1589   0.439   2.457   0.261 -0.2709  0.2543 -0.5378
  530SOL    HW2 1590   0.433   2.418   0.093  1.9418 -4.1481  0.4809
  531SOL     OW 1591   1.841   1.006   1.071  0.4068  0.1106  0.8914
  531SOL    HW1 1592   1.820   1.003   0.965  0.2870  0.4514  0.4914
  531SOL    HW2 1593   1.792   0.937   1.130  2.0067  1.1546  2.0330
  532SOL     OW 1594   0.375   1.156   0.726 -0.4540  0.5190 -0.0588
  532SOL    HW1 1595   0.403   1.153   0.626  1.3578  2.7201 -0.5799
  532SOL    HW2 1596   0.321   1.073   0.765  2.5592 -1.0663  1.9791
  533SOL     OW 1597   1.829   0.065   2.526  0.0332  0.2097 -0.3596
  533SOL    HW1 1598   1.921   0.024   2.560 -0.7153  1.9975  1.0272
  533SOL    HW2 1599   1.780   0.120   2.596  1.3825  1.3753 -1.9363
  534SOL     OW 1600   0.225   0.193   1.566  0.1131 -0.5802 -0.3506
  534SOL    HW1 1601   0.301   0.234   1.507  1.4441  0.0897 -2.5300
  534SOL    HW2 1602   0.143   0.257   1.572 -1.7340  0.9503 -2.4084
  535SOL     OW 1603   1.901   0.401   0.180  0.6428 -0.1149  0.2462
  535SOL    HW1 1604   1.969   0.459   0.228 -2.6431 -2.3105 -0.5392
  535SOL    HW2 1605   1.832   0.349   0.236  0.7859 -1.2110  4.1839
  536SOL     OW 1606   1.244   2.563   1.005 -0.3818  0.9243 -0.4631
  536SOL    HW1 1607   1.239   2.466   1.033  2.5679  2.8632 -1.4104
  536SOL    HW2 1608   1.225   2.575   0.902  1.9271  0.2199 -2.6418
  537SOL     OW 1609   0.885   0.213   2.335  0.3228 -0.5782  0.0930
  537SOL    HW1 1610   0.895   0.282   2.256 -1.7478  2.5377  3.7234
  537SOL    HW2 1611   0.820   0.135   2.329  1.3825 -0.4145  0.3089
  538SOL     OW 1612   1.700   2.339   1.554 -0.2350 -0.0014 -0.0736
  538SOL    HW1 1613   1.653   2.279   1.484  3.2889  0.0665 -0.1208
  538SOL    HW2 1614   1.784   2.390   1.517  0.5940  0.0898 -3.1464
  539SOL     OW 1615   0.182   1.625   2.696 -0.2998  0.2750 -0.1158
  539SOL    HW1 1616   0.091   1.597   2.669  0.1582  0.0011  2.9828
  539SOL    HW2 1617   0.173   1.715   2.739  1.8253  1.6728  0.2776
  540SOL     OW 1618   2.696   1.730   2.053  0.2791 -0.2941 -0.1955
  540SOL    HW1 1619   2.655   1.647   1.997 -2.2082  1.5907 -6.1782
  540SOL    HW2 1620   2.644   1.819   2.034  0.8253  0.5508 -3.3665
  541SOL     OW 1621   0.443   2.306   3.074  0.0427 -0.1087 -0.6559
  541SOL    HW1 1622   0.506   2.234   3.111 -0.6570 -1.6094 -0.7483
  541SOL    HW2 1623   0.356   2.256   3.046  0.7669  0.9675  0.5279
  542SOL     OW 1624   2.188   2.623   0.474  0.0073 -0.4356  0.8248
  542SOL    HW1 1625   2.179   2.698   0.410  0.2796 -1.1097  1.4483
  542SOL    HW2 1626   2.105   2.558   0.483 -0.4900 -1.9754 -2.3462
  543SOL     OW 1627   1.024   1.791   1.735 -0.3290 -0.2014 -0.0920
  543SOL    HW1 1628   1.033   1.824   1.832 -1.7045  2.1059 -1.9493
  543SOL    HW2 1629   0.994   1.871   1.669 -2.6059 -0.8666 -0.1121
  544SOL     OW 1630   0.870   0.434   0.153  0.4605  0.1410  0.1856
  544SOL    HW1 1631   0.895   0.352   0.212 -0.2191 -0.2074  0.2131
  544SOL    HW2 1632   0.924   0.432   0.067 -1.2967 -0.8979 -1.3352
  545SOL     OW 1633   1.170   1.703   0.620 -0.5870 -0.3437 -0.0199
  545SOL    HW1 1634   1.246   1.692   0.689 -0.2663  0.8708  0.5190
  545SOL    HW2 1635   1.201   1.758   0.538 -1.3055 -0.9877  0.5003
  546SOL     OW 1636   2.659   1.565   0.025  0.1275 -0.6186 -0.6360
  546SOL    HW1 1637   2.677   1.498  -0.048 -0.5739  1.3226 -0.1031
  546SOL    HW2 1638   2.577   1.544   0.086 -2.8816 -2.9827  2.5079
  547SOL     OW 1639   0.537   0.018   2.791  0.3423 -0.1581  0.7566
  547SOL    HW1 1640   0.611  -0.045   2.775 -2.4382  1.4223 -0.6256
  547SOL    HW2 1641   0.479  -0.020   2.868  2.4227  2.2085 -0.7788
  548SOL     OW 1642   2.070   0.826   3.010 -0.2456  0.3505 -0.3933
  548SOL    HW1 1643   1.994   0.784   3.062  1.4150  0.0719 -0.7440
  548SOL    HW2 1644   2.101   0.920   3.049 -2.2488 -0.7690  0.4877
  549SOL     OW 1645   0.580   0.404   0.119  0.3509 -0.8326  0.3586
  549SOL    HW1 1646   0.537   0.484   0.068  1.7300  2.1262  0.4161
  549SOL    HW2 1647   0.679   0.426   0.126  1.4271  2.7237  0.7415
  550SOL     OW 1648   2.516   2.891   2.881  0.2384 -0.0969 -0.8583
  550SOL    HW1 1649   2.491   2.818   2.951 -1.0713 -1.3366  2.2391
  550SOL    HW2 1650   2.519   2.861   2.779 -1.1016 -5.0965 -0.2307
  551SOL     OW 1651   0.238   0.790   0.184 -0.2377  0.2524  0.3740
  551SOL    HW1 1652   0.341   0.804   0.193 -1.0038 -0.3291 -0.9971
  551SOL    HW2 1653   0.188   0.781   0.271  2.5221  1.5939 -0.1161
  552SOL     OW 1654   0.833   2.830   1.859 -0.4028 -0.3889 -0.4650
  552SOL    HW1 1655   0.830   2.805   1.958 -0.4304  1.6440 -3.7146
  552SOL    HW2 1656   0.899   2.913   1.842 -2.6286 -1.9048 -1.1465
  553SOL     OW 1657   3.065   2.556   0.416 -0.4128  0.0364 -0.5667
  553SOL    HW1 1658   3.024   2.470   0.372 -2.2279 -0.8539  0.1624
  553SOL    HW2 1659   3.008   2.583   0.497 -1.4198 -1.6833  0.6953
  554SOL     OW 1660   2.132   0.260   0.569  0.4031 -0.0426 -0.0011
  554SOL    HW1 1661   2.158   0.209   0.481  2.9194 -1.7097 -1.8117
  554SOL    HW2 1662   2.132   0.198   0.651 -1.3477  2.5300 -0.7014
  555SOL     OW 1663   0.471   2.938   2.435 -0.7157 -0.5790 -0.0899
  555SOL    HW1 1664   0.373   2.973   2.445 -1.2440 -0.4262  0.1863
  555SOL    HW2 1665   0.469   2.840   2.400 -1.4214 -3.3614  1.2201
  556SOL     OW 1666   0.908   2.273   1.676  0.2490  0.4665  0.4447
  556SOL    HW1 1667   0.922   2.366   1.724  1.8626  0.6595  3.0760
  556SOL    HW2 1668   0.953   2.263   1.583  1.3723  1.0097  2.2258
  557SOL     OW 1669   0.169   2.133   0.123  0.2240  0.0888 -0.3189
  557SOL    HW1 1670   0.111   2.051   0.103  1.0866  2.2752 -2.2910
  557SOL    HW2 1671   0.191   2.179   0.033 -1.3852  0.9215 -0.1601
  558SOL     OW 1672   2.972   2.333   0.281 -0.0308 -0.3278  0.4442
  558SOL    HW1 1673   2.878   2.296   0.287  1.8835  2.0953  2.2406
  558SOL    HW2 1674   2.995   2.353   0.179 -0.3359  0.2310  0.5450
  559SOL     OW 1675   0.447   2.215   1.336 -0.1992  0.0908  0.4512
  559SOL    HW1 1676   0.364   2.237   1.282  0.9423  0.9740  1.1104
  559SOL    HW2 1677   0.476   2.112   1.328  1.1274 -0.3269 -1.5257
  560SOL     OW 1678   2.056   1.123   0.005  0.4426  0.5833  0.0586
  560SOL    HW1 1679   2.072   1.170  -0.088  0.6191 -1.3173 -0.3486
  560SOL    HW2 1680   2.000   1.175   0.076 -1.6091  1.5698 -0.6386
  561SOL     OW 1681   3.044   1.912   0.046  0.4589 -0.0427 -0.6598
  561SOL    HW1 1682   2.969   1.852   0.096 -1.6678  2.2117  1.3476
  561SOL    HW2 1683   2.994   1.990  -0.005 -1.0048 -0.6146  1.8277
  562SOL     OW 1684   0.863   2.178   2.443  0.0911  0.0571 -0.1748
  562SOL    HW1 1685   0.765   2.151   2.430  0.1090 -1.4437 -0.0636
  562SOL    HW2 1686   0.884   2.179   2.549  1.9144  2.1638 -1.2946
  563SOL     OW 1687   0.726   2.540   2.540 -0.4692  0.5244  0.2624
  563SOL    HW1 1688   0.816   2.484   2.531  1.3966 -0.4810 -0.4548
  563SOL    HW2 1689   0.696   2.565   2.638 -1.8690 -1.1118 -1.2030
  564SOL     OW 1690   2.734   1.299   2.837 -0.2950  0.4367 -0.1361
  564SOL    HW1 1691   2.646   1.286   2.892  0.5455  0.0389  0.4443
  564SOL    HW2 1692   2.782   1.391   2.852  1.3019 -0.3081  0.7907
  565SOL     OW 1693   2.510   1.978   2.588  0.2693  0.0390 -0.0917
  565SOL    HW1 1694   2.446   2.058   2.574  1.1308  1.3502  0.0447
  565SOL    HW2 1695   2.575   1.992   2.664  1.1470 -2.0914 -0.9620
  566SOL     OW 1696   1.981   2.867   1.356 -0.4011  0.3099  0.3704
  566SOL    HW1 1697   1.947   2.771   1.371 -1.0938 -2.0239  1.1969
  566SOL    HW2 1698   2.021   2.878   1.260 -1.6435 -0.3452 -1.1617
  567SOL     OW 1699   2.455   0.155   2.247  0.2966 -0.2790 -0.8855
  567SOL    HW1 1700   2.508   0.165   2.161  0.8740  0.3116  0.2713
  567SOL    HW2 1701   2.364   0.206   2.251  0.9413  0.6950 -0.7965
  568SOL     OW 1702   1.482   1.824   0.417  0.4657  0.3084 -0.8760
  568SOL    HW1 1703   1.420   1.873   0.351  1.0782 -0.6304  2.3771
  568SOL    HW2 1704   1.518   1.889   0.484  0.8087  0.7360  1.4785
  569SOL     OW 1705   0.315   0.644   0.797  0.3787 -0.5613  0.0523
  569SOL    HW1 1706   0.366   0.571   0.745 -1.1831  3.7294  3.3048
  569SOL    HW2 1707   0.214   0.619   0.820  1.7740  2.7288 -3.9300
  570SOL     OW 1708   0.599   0.779   2.843 -0.4363 -0.2090 -0.5823
  570SOL    HW1 1709   0.640   0.784   2.748 -2.4408 -1.9456  1.8652
  570SOL    HW2 1710   0.634   0.859   2.903  2.3680 -1.7919 -0.4279
  571SOL     OW 1711   0.809   3.036   1.109 -0.2964 -0.2441 -0.2150
  571SOL    HW1 1712   0.833   3.095   1.025  0.5106 -0.6891 -1.8606
  571SOL    HW2 1713   0.902   2.998   1.146  0.9133 -1.5506  0.7470
  572SOL     OW 1714   1.545   2.569   1.156  0.0455 -0.1801  0.1918
  572SOL    HW1 1715   1.489   2.512   1.224  0.0433  1.1545 -1.3833
  572SOL    HW2 1716   1.487   2.647   1.110 -0.5349  0.2739  0.8317
  573SOL     OW 1717   2.947   0.420   2.091 -0.0589  0.4141 -0.2498
  573SOL    HW1 1718   2.897   0.332   2.126 -0.3179 -2.4669  0.0809
  573SOL    HW2 1719   2.894   0.478   2.020  3.3812 -0.8045 -1.0204
  574SOL     OW 1720   0.252   1.807   1.051 -0.5203 -0.2212 -0.4170
  574SOL    HW1 1721   0.202   1.892   1.018  0.7740 -1.0595 -0.9084
  574SOL    HW2 1722   0.180   1.745   1.098 -0.0892  2.9965 -0.8273
  575SOL     OW 1723   0.891   2.141   1.016  0.1928  0.2616 -0.2165
  575SOL    HW1 1724   0.855   2.176   1.107 -0.2498 -1.2846  1.3182
  575SOL    HW2 1725   0.928   2.214   0.955 -0.1305 -0.8068 -0.0951
  576SOL     OW 1726   2.919   2.932   1.745 -0.2778  0.2546 -0.1309
  576SOL    HW1 1727   2.855   2.865   1.703  1.2607  2.4804  1.6612
  576SOL    HW2 1728   2.937   3.018   1.691 -0.7947  0.3792  0.1916
  577SOL     OW 1729   2.569   1.273   3.047  0.0973 -0.5903  0.0441
  577SOL    HW1 1730   2.549   1.173   3.041 -0.0256  2.1302  0.9830
  577SOL    HW2 1731   2.621   1.295   3.128 -0.6077 -2.6366 -1.5207
  578SOL     OW 1732   1.321   2.705   2.550  0.1106 -0.8349  0.0880
  578SOL    HW1 1733   1.230   2.675   2.502 -1.1404 -3.5238 -0.1633
  578SOL    HW2 1734   1.337   2.803   2.527 -0.7739 -0.7109  0.8662
  579SOL     OW 1735   0.117   2.535   0.177  0.0644 -0.8602  0.1287
  579SOL    HW1 1736   0.062   2.560   0.261  0.2945 -1.0700 -0.6137
  579SOL    HW2 1737   0.183   2.460   0.202  1.4051 -0.5106  2.2444
  580SOL     OW 1738   1.011   2.644   0.357 -0.1401  0.0192 -0.0712
  580SOL    HW1 1739   1.085   2.666   0.291 -1.0029 -1.4894 -0.4801
  580SOL    HW2 1740   0.942   2.578   0.315 -0.8792 -1.2686  1.2227
  581SOL     OW 1741   1.185   2.619   1.503 -0.2444 -0.0974  0.5111
  581SOL    HW1 1742   1.255   2.545   1.487  0.5318  0.8316 -0.3648
  581SOL    HW2 1743   1.210   2.698   1.441  3.2985  0.3413 -1.0919
  582SOL     OW 1744   1.485   0.040   1.852 -0.3997  0.0483  0.0016
  582SOL    HW1 1745   1.449   0.135   1.882  0.2349  2.0975  1.9347
  582SOL    HW2 1746   1.574   0.047   1.800  1.8314 -0.3880  0.5057
  583SOL     OW 1747   2.447   2.992   0.602  0.2177  0.4073  0.1902
  583SOL    HW1 1748   2.480   2.917   0.537 -0.2102  0.0098 -2.0990
  583SOL    HW2 1749   2.403   2.944   0.685 -0.4470  2.4181 -0.0352
  584SOL     OW 1750   1.574   0.997   2.121  0.2022  0.0456  0.4877
  584SOL    HW1 1751   1.610   1.068   2.057 -0.9648  0.2744  0.7194
  584SOL    HW2 1752   1.640   0.950   2.183 -0.5723 -0.0055 -1.4666
  585SOL     OW 1753   2.120   2.652   2.928  0.2132 -0.3190 -0.1858
  585SOL    HW1 1754   2.131   2.556   2.900 -0.7095  1.0234 -0.4479
  585SOL    HW2 1755   2.022   2.688   2.923 -3.4553  1.3741 -1.7372
  586SOL     OW 1756   2.762   0.226   1.547 -0.2453  0.4832 -0.5938
  586SOL    HW1 1757   2.771   0.308   1.618  0.3307  0.7663  2.2588
  586SOL    HW2 1758   2.683   0.162   1.559 -0.9076 -0.6900 -0.8854
  587SOL     OW 1759   1.981   1.637   2.732 -0.6172  0.4966 -0.1297
  587SOL    HW1 1760   2.046   1.614   2.661 -0.2180  1.1901  2.2866
  587SOL    HW2 1761   2.013   1.600   2.826  1.6265 -0.5293  1.5460
  588SOL     OW 1762   0.471   2.722   2.247  0.2002  0.3661  0.2738
  588SOL    HW1 1763   0.387   2.758   2.205  0.6195 -2.1913  0.6101
  588SOL    HW2 1764   0.447   2.632   2.298  0.8567 -0.5642 -1.1008
  589SOL     OW 1765   2.146   1.460   2.542 -0.1995 -0.7166  0.4304
  589SOL    HW1 1766   2.081   1.406   2.481 -0.5225 -0.6986 -0.2868
  589SOL    HW2 1767   2.245   1.423   2.535  2.5526 -4.7199  0.6923
  590SOL     OW 1768   2.335   1.692   1.986  0.5973 -0.2942 -0.5704
  590SOL    HW1 1769   2.417   1.625   1.982  2.4728 -0.0673 -0.1702
  590SOL    HW2 1770   2.353   1.771   2.048 -0.6135 -1.0704  3.0272
  591SOL     OW 1771   1.348   2.458   0.284  0.9594 -0.0723  0.2424
  591SOL    HW1 1772   1.446   2.445   0.258  1.0440 -0.6606 -1.0406
  591SOL    HW2 1773   1.330   2.437   0.382 -0.5403 -1.4418 -0.3331
  592SOL     OW 1774   1.688   2.342   0.788 -0.2069 -0.3865  0.0737
  592SOL    HW1 1775   1.664   2.368   0.695  2.6713  1.3361 -0.4455
  592SOL    HW2 1776   1.792   2.330   0.794 -2.8651  0.8709 -0.4187
  593SOL     OW 1777   0.614   0.166   3.075  0.2296 -0.2325  0.5232
  593SOL    HW1 1778   0.706   0.135   3.047  2.9409 -0.9070  5.0215
  593SOL    HW2 1779   0.615   0.261   3.116 -0.8196  0.2958  2.6966
  594SOL     OW 1780   0.921   1.996   2.674  0.3446  0.4260 -0.1229
  594SOL    HW1 1781   1.014   2.024   2.709 -1.1871  2.2522  2.5671
  594SOL    HW2 1782   0.848   2.050   2.726 -1.0124 -2.6791 -0.6352
  595SOL     OW 1783   1.561   0.049   1.098 -0.1151 -0.1691  0.3441
  595SOL    HW1 1784   1.654   0.005   1.108 -2.3233  1.6465 -0.1258
  595SOL    HW2 1785   1.507   0.022   1.015  0.8471 -0.6301  1.9771
  596SOL     OW 1786   3.096   1.391   2.245  0.5500 -0.3000 -0.1473
  596SOL    HW1 1787   3.010   1.448   2.254  0.3503 -0.2793 -0.6528
  596SOL    HW2 1788   3.115   1.349   2.345 -3.1030 -0.1981  5.1599
  597SOL     OW 1789   2.095   2.620   1.646 -0.1365 -0.1361  0.2590
  597SOL    HW1 1790   2.130   2.538   1.592 -0.5884 -1.3997  0.1015
  597SOL    HW2 1791   2.162   2.646   1.725  2.7739  1.5237  4.2720
  598SOL     OW 1792   2.541   2.905   1.242 -0.6155 -0.1198  1.2005
  598SOL    HW1 1793   2.615   2.940   1.310  1.1513 -0.4127 -1.6136
  598SOL    HW2 1794   2.567   2.911   1.138 -4.7768 -1.7891 -0.0939
  599SOL     OW 1795   2.907   0.356   2.469  0.5327  0.2742  0.5886
  599SOL    HW1 1796   2.991   0.417   2.486 -0.9036  3.7810 -1.2600
  599SOL    HW2 1797   2.832   0.403   2.415 -2.4705 -1.1151 -0.6870
  600SOL     OW 1798   2.821   1.075   2.713 -0.3262  0.7132  0.4664
  600SOL    HW1 1799   2.782   0.992   2.761 -0.4894 -1.4084 -0.3662
  600SOL    HW2 1800   2.797   1.166   2.767  1.9634  0.7528  0.8635
  601SOL     OW 1801   3.009   1.245   2.031  0.0270 -0.3320 -0.6014
  601SOL    HW1 1802   2.960   1.298   1.963 -0.1964 -1.4334  2.0940
  601SOL    HW2 1803   3.068   1.301   2.096  2.0086  0.1246 -0.1894
  602SOL     OW 1804   1.538   1.721   2.387 -0.3288  0.1820 -0.2471
  602SOL    HW1 1805   1.512   1.641   2.323  1.6555  1.2046  1.9508
  602SOL    HW2 1806   1.635   1.711   2.419 -3.3781  3.2041 -2.8427
  603SOL     OW 1807   0.654   1.268   2.677 -0.3516 -0.0706  0.6044
  603SOL    HW1 1808   0.599   1.258   2.586 -3.3961 -0.5726 -0.8796
  603SOL    HW2 1809   0.723   1.187   2.685  0.6694  1.1035  0.5529
  604SOL     OW 1810   2.414   0.964   0.190  0.0528  0.1785 -0.5378
  604SOL    HW1 1811   2.490   1.017   0.142 -1.0446  0.1150  2.3042
  604SOL    HW2 1812   2.377   0.882   0.134  0.3658 -0.7773 -1.4745
  605SOL     OW 1813   2.685   1.128   1.940 -0.1484 -0.5871 -0.0713
  605SOL    HW1 1814   2.663   1.051   1.880  2.3732  0.1634  2.2701
  605SOL    HW2 1815   2.656   1.115   2.037  1.3429  0.7914  0.7862
  606SOL     OW 1816   1.548   2.540   2.608 -0.3409 -0.1425  0.2424
  606SOL    HW1 1817   1.465   2.600   2.581 -5.3559 -1.2417  0.3648
  606SOL    HW2 1818   1.531   2.442   2.588 -1.4763  2.4688  0.8644
  607SOL     OW 1819   1.359   1.575   0.443  0.2376  0.1465 -0.1287
  607SOL    HW1 1820   1.285   1.553   0.512 -1.7583 -0.8189 -2.8887
  607SOL    HW2 1821   1.384   1.672   0.428  0.4727  1.4418  1.9414
  608SOL     OW 1822   1.423   2.897   0.451  0.1631 -0.4746  0.2480
  608SOL    HW1 1823   1.493   2.931   0.379  2.8342  1.1427 -1.0744
  608SOL    HW2 1824   1.332   2.949   0.452 -0.5068  0.2197 -0.6249
  609SOL     OW 1825   1.303   1.360   0.268 -0.5866  0.5562  0.3662
  609SOL    HW1 1826   1.330   1.439   0.333 -1.5993  2.2974  0.7242
  609SOL    HW2 1827   1.206   1.335   0.271  2.3100 -0.5688 -0.4973
  610SOL     OW 1828   2.959   1.098   2.297 -0.0218  0.6572 -0.1149
  610SOL    HW1 1829   2.954   0.996   2.297  1.6895  1.2069 -1.0281
  610SOL    HW2 1830   2.968   1.137   2.204 -0.4564  0.0550 -1.2817
  611SOL     OW 1831   2.517   0.321   1.170  0.1034 -0.2636 -0.6690
  611SOL    HW1 1832   2.483   0.223   1.190 -1.3986  0.6895 -0.7522
  611SOL    HW2 1833   2.616   0.338   1.193  1.5254 -2.1022 -0.9206
  612SOL     OW 1834   0.746   2.190   1.258  0.1021  0.0867  0.3034
  612SOL    HW1 1835   0.678   2.111   1.270 -2.5268 -0.3095  0.8454
  612SOL    HW2 1836   0.695   2.279   1.242  1.8038 -0.2473 -1.3652
  613SOL     OW 1837   0.900   1.449   2.370  0.3470  0.3002  0.0161
  613SOL    HW1 1838   0.973   1.461   2.295 -0.8505  1.3963 -1.2628
  613SOL    HW2 1839   0.802   1.433   2.333 -2.4038  1.1096 -0.7672
  614SOL     OW 1840   1.672   1.587   1.816 -0.2934  0.1677 -0.1164
  614SOL    HW1 1841   1.652   1.688   1.805  0.8939 -0.8032  0.0197
  614SOL    HW2 1842   1.673   1.556   1.915  1.3136 -0.8070  0.4675
  615SOL     OW 1843   0.786   1.258   1.729  0.7339  0.2517 -0.2667
  615SOL    HW1 1844   0.721   1.253   1.640 -0.5286  1.3575 -0.7234
  615SOL    HW2 1845   0.850   1.345   1.722  1.8716  3.9207  2.5434
  616SOL     OW 1846   1.103   1.534   2.195  0.8039 -0.1110  0.1397
  616SOL    HW1 1847   1.021   1.564   2.130 -0.1411 -0.8118 -1.4156
  616SOL    HW2 1848   1.132   1.617   2.255  0.1724 -0.0684  0.4898
  617SOL     OW 1849   2.984   1.565   1.634 -0.2477 -0.2057 -0.0709
  617SOL    HW1 1850   2.953   1.475   1.676 -2.8268  0.2126 -1.2763
  617SOL    HW2 1851   3.020   1.559   1.534 -0.7184 -0.3806 -0.4089
  618SOL     OW 1852   1.874   2.103   1.370  0.2042 -0.0071  0.0341
  618SOL    HW1 1853   1.889   2.174   1.293  1.3459  1.7454 -0.3133
  618SOL    HW2 1854   1.885   2.007   1.339 -0.6174 -1.8092  2.3129
  619SOL     OW 1855   1.756   0.464   2.382 -0.0693  0.1288  0.1260
  619SOL    HW1 1856   1.693   0.519   2.323  1.3559  2.0979  0.4415
  619SOL    HW2 1857   1.722   0.370   2.395  1.2353  1.9686  0.2775
  620SOL     OW 1858   2.287   2.847   0.784  0.2884  0.3650 -0.1662
  620SOL    HW1 1859   2.200   2.890   0.803  1.6143 -0.7767  1.1050
  620SOL    HW2 1860   2.306   2.761   0.845  0.1359 -2.0236 -0.9228
  621SOL     OW 1861   2.150   1.870   1.357 -0.7961 -0.2630 -0.2719
  621SOL    HW1 1862   2.170   1.861   1.461 -0.2168  1.1816  0.9372
  621SOL    HW2 1863   2.103   1.786   1.318  1.2981 -0.7345  0.0178
  622SOL     OW 1864   2.340   0.956   1.865  0.4301 -0.1999 -0.5899
  622SOL    HW1 1865   2.436   0.951   1.828 -2.7550  2.9169  0.7639
  622SOL    HW2 1866   2.300   0.862   1.885  1.0536 -0.5133  2.2927
  623SOL     OW 1867   1.316   0.798   2.455  0.7085 -0.4019 -0.2466
  623SOL    HW1 1868   1.265   0.718   2.485 -0.7891  0.5631 -1.6935
  623SOL    HW2 1869   1.272   0.852   2.378 -0.8002 -1.9342 -2.9032
  624SOL     OW 1870   0.529   0.634   3.088  0.5387 -0.0496 -0.1296
  624SOL    HW1 1871   0.569   0.654   2.996  1.7082  0.0331  1.1100
  624SOL    HW2 1872   0.534   0.718   3.144 -3.5270  0.5348 -1.0076
  625SOL     OW 1873   2.783   1.715   1.025  0.1083 -0.0003 -0.3566
  625SOL    HW1 1874   2.693   1.767   1.011  0.7822 -0.7166 -1.2554
  625SOL    HW2 1875   2.853   1.766   1.079 -1.9600 -0.2482 -1.4927
  626SOL     OW 1876   0.632   2.700   1.711 -0.4243  0.3483 -0.0310
  626SOL    HW1 1877   0.677   2.771   1.771  1.2810 -1.7912  0.9931
  626SOL    HW2 1878   0.539   2.675   1.744 -1.6031 -1.3077 -1.9893
  627SOL     OW 1879   0.654   0.878   1.589 -0.1037  0.4008 -0.5153
  627SOL    HW1 1880   0.597   0.796   1.551 -1.4527 -0.5274 -0.4158
  627SOL    HW2 1881   0.732   0.909   1.526 -3.3798  0.6735  1.1845
  628SOL     OW 1882   2.430   0.159   0.709 -0.0420 -0.7494 -0.3946
  628SOL    HW1 1883   2.456   0.061   0.683 -0.6136  1.7152  0.3205
  628SOL    HW2 1884   2.331   0.168   0.743  1.4802  0.8118  0.5523
  629SOL     OW 1885   1.900   0.924   1.979 -0.0513 -0.1624 -0.1418
  629SOL    HW1 1886   1.914   1.012   1.927 -0.5152  0.2109  3.8451
  629SOL    HW2 1887   1.901   0.937   2.079  0.0296  0.3995 -0.1759
  630SOL     OW 1888   2.915   2.283   0.782 -0.2015  0.9146 -0.3651
  630SOL    HW1 1889   2.848   2.359   0.783 -0.9770 -0.0840  0.5433
  630SOL    HW2 1890   2.863   2.193   0.789  3.7912 -0.4557  0.3678
  631SOL     OW 1891   0.020   0.130   2.154 -1.0757 -0.1477  0.1290
  631SOL    HW1 1892   0.064   0.191   2.231  0.0155 -0.6900  1.3508
  631SOL    HW2 1893   0.041   0.167   2.062 -1.6380 -1.6395  2.5060
  632SOL     OW 1894   2.434   2.564   0.576 -0.4275  0.1981 -0.1905
  632SOL    HW1 1895   2.471   2.652   0.618 -3.0737  2.1190  0.7660
  632SOL    HW2 1896   2.339   2.584   0.540  2.3941 -1.1163  0.9297
  633SOL     OW 1897   1.454   1.202   2.681  0.2870 -0.3004 -0.2500
  633SOL    HW1 1898   1.447   1.288   2.740  3.4068  0.6081  4.5352
  633SOL    HW2 1899   1.391   1.212   2.599  0.1363 -1.3285  0.1608
  634SOL     OW 1900   0.651   2.051   0.897 -0.5517 -0.5097  0.7884
  634SOL    HW1 1901   0.565   2.055   0.957  1.2140  3.0497  0.4180
  634SOL    HW2 1902   0.740   2.078   0.946 -2.5371  0.3116  1.3407
  635SOL     OW 1903   3.032   2.390   0.021 -0.7613 -0.0483  0.3670
  635SOL    HW1 1904   2.971   2.443  -0.048  0.2129  1.2336 -1.2601
  635SOL    HW2 1905   3.110   2.447   0.066  2.0935  0.0106 -1.7041
  636SOL     OW 1906   2.383   2.737   2.016  0.2616 -0.0025 -0.8364
  636SOL    HW1 1907   2.363   2.836   2.001  2.8633  0.2809 -1.8358
  636SOL    HW2 1908   2.329   2.697   2.096  2.2343 -0.4359 -3.6661
  637SOL     OW 1909   2.755   0.599   1.993  0.6751 -0.1616 -0.2096
  637SOL    HW1 1910   2.669   0.635   1.936 -0.9348  3.3968  1.1389
  637SOL    HW2 1911   2.829   0.672   1.998 -1.3383 -0.1421 -2.1535
  638SOL     OW 1912   2.424   1.857   1.297  0.5507 -0.2804 -0.0710
  638SOL    HW1 1913   2.319   1.855   1.303  0.2193 -0.4682 -1.3452
  638SOL    HW2 1914   2.469   1.783   1.350 -0.2037  0.6592  0.3346
  639SOL     OW 1915   1.320   2.216   1.676 -0.1472 -0.0569  0.2810
  639SOL    HW1 1916   1.374   2.302   1.672  0.2478 -1.5030 -0.8711
  639SOL    HW2 1917   1.236   2.220   1.739  2.4743  0.6548 -0.3371
  640SOL     OW 1918   0.183   1.191   1.547  0.1113 -0.0760  0.0087
  640SOL    HW1 1919   0.149   1.220   1.638  0.2946 -1.0855 -1.3327
  640SOL    HW2 1920   0.263   1.127   1.541  0.2039  0.1265  3.3892
  641SOL     OW 1921   1.952   0.255   1.493  0.7329  0.5881 -0.0504
  641SOL    HW1 1922   1.882   0.276   1.566 -0.8810  0.3794 -0.3098
  641SOL    HW2 1923   2.039   0.221   1.531 -2.2015  2.6420  0.5954
  642SOL     OW 1924   2.027   0.077   0.364  0.3799  0.3994  0.1429
  642SOL    HW1 1925   2.132   0.063   0.367  0.2457 -2.4185  2.9844
  642SOL    HW2 1926   1.994   0.069   0.462  0.3915  1.0554  0.5975
  643SOL     OW 1927   2.886   1.865   2.183  0.3685 -0.5502 -0.5702
  643SOL    HW1 1928   2.827   1.800   2.123 -0.4642 -1.1746 -0.4288
  643SOL    HW2 1929   2.903   1.956   2.137  0.3362 -1.2601 -0.7327
  644SOL     OW 1930   2.292   2.419   1.249 -0.1781  0.0096  0.0649
  644SOL    HW1 1931   2.322   2.342   1.188  0.7665  2.6612 -0.7861
  644SOL    HW2 1932   2.240   2.396   1.337  2.8059  1.8365 -1.5889
  645SOL     OW 1933   0.621   0.819   1.225 -0.7143 -0.0461 -0.3942
  645SOL    HW1 1934   0.521   0.816   1.242  0.9518 -0.4557  0.7482
  645SOL    HW2 1935   0.648   0.837   1.131 -0.8462  1.3908  3.1128
  646SOL     OW 1936   1.490   1.834   2.054  0.2587 -0.1797  0.0734
  646SOL    HW1 1937   1.560   1.846   1.978 -0.6648 -1.6127 -0.7183
  646SOL    HW2 1938   1.528   1.829   2.151  1.4091 -1.5616  0.3353
  647SOL     OW 1939   0.826   1.106   0.679  0.2302 -0.1060 -0.3339
  647SOL    HW1 1940   0.875   1.129   0.765 -1.4648 -1.3934  2.2672
  647SOL    HW2 1941   0.781   1.012   0.673  2.1300 -2.4836 -4.0385
  648SOL     OW 1942   0.160   0.235   0.319 -0.2206  0.3443 -0.8084
  648SOL    HW1 1943   0.122   0.151   0.270 -2.5037  2.4511 -0.1176
  648SOL    HW2 1944   0.143   0.324   0.262 -3.2094  0.0936 -1.5211
  649SOL     OW 1945   3.030   0.228   0.768  0.2452 -1.0270  0.2975
  649SOL    HW1 1946   3.123   0.219   0.721  2.2427 -0.7748 -0.6513
  649SOL    HW2 1947   3.019   0.324   0.807 -2.0945 -0.5523 -0.9449
  650SOL     OW 1948   2.751   0.661   1.524 -1.3734  0.2838  0.0826
  650SOL    HW1 1949   2.651   0.654   1.513  0.7306  2.0302  3.2580
  650SOL    HW2 1950   2.793   0.748   1.481  3.0265 -4.1826  0.5890
  651SOL     OW 1951   0.871   1.540   1.670  0.0223 -0.1941  0.0060
  651SOL    HW1 1952   0.937   1.596   1.729  0.9286  2.9997 -1.6195
  651SOL    HW2 1953   0.918   1.506   1.584 -0.7974  1.9828  0.6053
  652SOL     OW 1954   2.383   2.492   2.459  0.6859 -0.5155  0.0368
  652SOL    HW1 1955   2.283   2.509   2.466  1.3029  0.5386 -0.2031
  652SOL    HW2 1956   2.424   2.519   2.369 -0.9503  0.6747  0.2881
  653SOL     OW 1957   2.733   1.259   0.195 -0.0710 -0.2716  0.0072
  653SOL    HW1 1958   2.783   1.346   0.213 -0.3444 -1.1908 -0.8153
  653SOL    HW2 1959   2.790   1.176   0.217  2.0066  1.2999  0.9426
  654SOL     OW 1960   1.274   2.181   1.278 -0.1092 -0.4184 -0.0228
  654SOL    HW1 1961   1.307   2.121   1.355  1.4665  0.9212 -2.1621
  654SOL    HW2 1962   1.282   2.147   1.184  1.2855  0.3541  1.3317
  655SOL     OW 1963   0.153   0.972   1.898  0.2323 -0.0898 -0.2181
  655SOL    HW1 1964   0.211   0.897   1.849  0.2698 -2.3720  1.4261
  655SOL    HW2 1965   0.185   1.071   1.894  0.5302 -0.5016 -3.2727
  656SOL     OW 1966   2.584   2.554   2.641 -0.0710  0.2163  0.5584
  656SOL    HW1 1967   2.680   2.538   2.608  0.9065  1.2485 -1.6763
  656SOL    HW2 1968   2.511   2.519   2.574 -0.1086  1.7120 -1.9680
  657SOL     OW 1969   3.019   1.073   1.829  0.0527 -0.1388  0.2119
  657SOL    HW1 1970   3.018   1.138   1.910  0.1450 -1.1846 -3.0656
  657SOL    HW2 1971   3.108   1.024   1.828 -0.4638 -0.7503 -1.3644
  658SOL     OW 1972   1.699   0.188   2.340  0.5722 -0.3932 -0.2052
  658SOL    HW1 1973   1.726   0.101   2.400 -0.0217 -0.7876  0.2666
  658SOL    HW2 1974   1.740   0.189   2.246 -0.6883 -0.2664 -0.6537
  659SOL     OW 1975   1.423   0.640   2.750 -0.3716  0.0149  0.3429
  659SOL    HW1 1976   1.470   0.693   2.672  0.4569  0.4558 -3.4571
  659SOL    HW2 1977   1.320   0.659   2.759  0.2882  0.8995 -2.6854
  660SOL     OW 1978   1.451   0.330   1.394 -0.0190 -0.2384  0.0484
  660SOL    HW1 1979   1.457   0.371   1.492  1.0226  1.2183  1.7316
  660SOL    HW2 1980   1.516   0.245   1.398 -1.3374  1.1325 -0.0257
  661SOL     OW 1981   2.429   1.258   0.631  0.4840 -0.3508  0.2075
  661SOL    HW1 1982   2.455   1.229   0.539  1.0184 -1.0077  3.5465
  661SOL    HW2 1983   2.342   1.319   0.643 -0.1267 -1.5004  0.0374
  662SOL     OW 1984   1.463   0.428   1.694 -0.5733  0.1962  0.6392
  662SOL    HW1 1985   1.458   0.395   1.794 -1.8350  0.6831  0.2899
  662SOL    HW2 1986   1.433   0.529   1.680  0.6973  3.5690 -2.5588
  663SOL     OW 1987   0.864   1.584   2.061 -0.7211  0.0739  0.6655
  663SOL    HW1 1988   0.822   1.675   2.077  2.5954 -2.6347  1.0050
  663SOL    HW2 1989   0.798   1.516   2.016 -4.1466  1.3884  1.4619
  664SOL     OW 1990   1.563   2.119   1.423  0.8348  0.3888 -0.5840
  664SOL    HW1 1991   1.492   2.060   1.469  1.0048  0.5701  0.4680
  664SOL    HW2 1992   1.653   2.064   1.403  0.9317 -1.5638 -1.0284
  665SOL     OW 1993   2.257   0.680   1.956  0.7496 -0.5149  0.2138
  665SOL    HW1 1994   2.229   0.584   1.950  0.6091  0.7503  0.3245
  665SOL    HW2 1995   2.323   0.693   2.038 -0.7812 -0.4217 -0.8161
  666SOL     OW 1996   0.486   2.226   0.322 -0.1669  0.0350 -0.1540
  666SOL    HW1 1997   0.540   2.298   0.376  0.5957  2.3311 -1.7376
  666SOL    HW2 1998   0.386   2.223   0.353 -0.3037 -0.7022 -2.9747
  667SOL     OW 1999   1.943   0.228   1.051 -0.6402 -0.2896 -0.8306
  667SOL    HW1 2000   1.932   0.330   1.075 -0.8288 -0.8917  1.5558
  667SOL    HW2 2001   1.883   0.167   1.111 -2.2463 -1.3935  0.3478
  668SOL     OW 2002   1.994   0.494   1.126  0.4726  0.8746 -0.4337
  668SOL    HW1 2003   2.049   0.516   1.040 -0.0865  2.1396  3.9408
  668SOL    HW2 2004   2.048   0.475   1.207  0.3243  2.0881 -2.3149
  669SOL     OW 2005   3.014   2.189   1.003  0.0568  0.0470 -0.2772
  669SOL    HW1 2006   2.983   2.225   0.908 -0.7169 -1.8266 -1.1399
  669SOL    HW2 2007   3.002   2.258   1.081  1.0132 -3.0936 -0.7487
  670SOL     OW 2008   2.910   2.293   2.078 -0.2678  0.1423  0.1715
  670SOL    HW1 2009   2.839   2.300   2.150 -0.5703 -0.5219  2.5290
  670SOL    HW2 2010   2.939   2.384   2.036  1.5545  0.9698 -2.1935
  671SOL     OW 2011   1.793   1.776   1.539 -0.5338  0.3124  0.1197
  671SOL    HW1 2012   1.816   1.694   1.481 -2.5150 -1.1052  0.6998
  671SOL    HW2 2013   1.697   1.773   1.571 -0.2605 -1.9628 -0.7929
  672SOL     OW 2014   0.464   0.649   2.555  0.3165 -0.1162 -0.1410
  672SOL    HW1 2015   0.412   0.669   2.466  0.6905  1.9697 -2.7114
  672SOL    HW2 2016   0.427   0.700   2.633  0.6506 -0.4078 -0.6602
  673SOL     OW 2017   0.080   1.325   1.105 -0.2738 -0.3428  0.2613
  673SOL    HW1 2018   0.053   1.401   1.166  1.8203 -0.6733  1.2974
  673SOL    HW2 2019   0.181   1.321   1.077 -2.9887 -3.3889  0.5388
  674SOL     OW 2020   1.632   2.961   0.302 -0.0764 -0.2641  0.4066
  674SOL    HW1 2021   1.652   3.037   0.239  1.4885  1.2320  0.0955
  674SOL    HW2 2022   1.713   2.899   0.319 -1.1582 -0.5156  2.5793
  675SOL     OW 2023   1.729   0.846   2.348  0.2361 -0.1529 -0.1880
  675SOL    HW1 2024   1.828   0.827   2.332  1.6105 -0.6491 -0.0468
  675SOL    HW2 2025   1.669   0.775   2.298 -0.2210  2.3913  0.0868
  676SOL     OW 2026   2.565   1.529   1.943 -0.3196 -0.4604 -0.5744
  676SOL    HW1 2027   2.521   1.469   1.867  3.3629  0.8125  0.5462
  676SOL    HW2 2028   2.570   1.475   2.033  1.0038  1.0218  2.6572
  677SOL     OW 2029   1.892   0.712   0.912  0.6037  0.4665 -0.1294
  677SOL    HW1 2030   1.809   0.734   0.967  4.0212  1.9885  1.1627
  677SOL    HW2 2031   1.965   0.655   0.961 -2.7993 -1.0633  0.0981
  678SOL     OW 2032   0.110   0.741   1.617 -0.1234 -0.1985 -0.3091
  678SOL    HW1 2033   0.203   0.756   1.658 -0.0882  0.0372 -1.5388
  678SOL    HW2 2034   0.047   0.698   1.688  1.0193 -3.6153 -0.4041
  679SOL     OW 2035   2.618   1.160   1.162 -0.3804  0.5068 -0.3329
  679SOL    HW1 2036   2.530   1.212   1.160 -1.8020 -1.1336 -0.5871
  679SOL    HW2 2037   2.600   1.056   1.162  1.9216 -0.2332  2.5088
  680SOL     OW 2038   2.847   0.476   1.705  0.2041 -0.0344  0.3706
  680SOL    HW1 2039   2.804   0.539   1.630 -2.4522 -0.6486 -1.9621
  680SOL    HW2 2040   2.926   0.519   1.754 -0.8429  0.1362  0.1442
  681SOL     OW 2041   2.994   0.078   1.616  0.1492 -0.5438  0.2409
  681SOL    HW1 2042   3.067   0.083   1.543  2.0250  0.5791 -0.8841
  681SOL    HW2 2043   2.899   0.118   1.584 -2.6467  3.3402  1.3452
  682SOL     OW 2044   0.665   0.037   1.345 -0.2604  0.0561  0.3481
  682SOL    HW1 2045   0.611  -0.049   1.358  0.7761 -0.1733  0.2705
  682SOL    HW2 2046   0.734   0.028   1.266 -0.8165  0.8162  1.0818
  683SOL     OW 2047   1.363   0.210   2.161 -0.1838  0.1305 -0.5059
  683SOL    HW1 2048   1.382   0.248   2.257  0.5032 -0.5898 -0.9701
  683SOL    HW2 2049   1.438   0.233   2.096  0.6830  0.3129  2.8495
  684SOL     OW 2050   1.436   2.114   0.542  0.2604  0.0226 -0.1243
  684SOL    HW1 2051   1.492   2.056   0.610 -0.8427 -0.6552  0.0279
  684SOL    HW2 2052   1.341   2.076   0.529  0.0233 -0.8851  0.6019
  685SOL     OW 2053   2.213   2.040   1.950  0.1771  0.2616  0.4943
  685SOL    HW1 2054   2.293   2.029   1.885  0.0528 -0.2900  0.0958
  685SOL    HW2 2055   2.227   2.084   2.043 -1.6544 -0.7616 -1.7595
  686SOL     OW 2056   1.512   1.834   2.880  0.0543 -0.2682 -0.5941
  686SOL    HW1 2057   1.559   1.802   2.967  1.4271 -0.1172 -0.6850
  686SOL    HW2 2058   1.409   1.824   2.888  1.7519  0.1412  1.4218
  687SOL     OW 2059   1.308   2.402   1.971  0.4262 -0.4195  0.0061
  687SOL    HW1 2060   1.329   2.301   1.965  0.2900  0.2917  0.1267
  687SOL    HW2 2061   1.342   2.449   2.058  4.4174  1.7657 -0.2353
  688SOL     OW 2062   2.064   1.518   1.755 -0.4375  0.1946  0.6133
  688SOL    HW1 2063   2.152   1.568   1.731  1.9613 -1.1336  2.7436
  688SOL    HW2 2064   2.020   1.462   1.673 -2.7605  1.3899 -0.2409
  689SOL     OW 2065   2.380   1.114   2.740  0.0177 -0.3094 -0.2005
  689SOL    HW1 2066   2.293   1.064   2.772 -1.1010  0.7929  0.2163
  689SOL    HW2 2067   2.461   1.087   2.799  2.7707 -0.0501 -2.4224
  690SOL     OW 2068   2.228   2.763   0.052  0.5103 -0.2230  0.1244
  690SOL    HW1 2069   2.164   2.719  -0.011  2.2850  0.7350 -2.1853
  690SOL    HW2 2070   2.192   2.786   0.151  3.0100  0.4948  3.3868
  691SOL     OW 2071   2.600   0.398   2.105  0.2158 -0.1749  0.1498
  691SOL    HW1 2072   2.659   0.320   2.144 -0.2353 -0.0934  4.5863
  691SOL    HW2 2073   2.653   0.479   2.063  0.3609 -1.6621 -0.9759
  692SOL     OW 2074   2.645   1.199   0.819 -0.3969  0.6726  0.1685
  692SOL    HW1 2075   2.558   1.224   0.772 -0.6564 -2.0385  1.5171
  692SOL    HW2 2076   2.681   1.271   0.883 -2.0513  0.1218 -0.4445
  693SOL     OW 2077   2.846   2.967   0.589  0.3284  0.5702 -0.2482
  693SOL    HW1 2078   2.810   3.037   0.657 -2.7813  2.7644 -1.9565
  693SOL    HW2 2079   2.842   2.997   0.493 -1.1225 -0.3953 -1.0525
  694SOL     OW 2080   2.441   2.236   0.161  0.2161  0.0005 -0.0266
  694SOL    HW1 2081   2.410   2.334   0.177  0.0961  0.6580 -4.5636
  694SOL    HW2 2082   2.358   2.183   0.130 -0.6975 -2.5027 -1.8133
  695SOL     OW 2083   0.476   2.960   1.432  0.5656 -0.0265  0.2333
  695SOL    HW1 2084   0.404   2.893   1.398  1.5242  1.0218  0.4840
  695SOL    HW2 2085   0.443   3.015   1.513 -0.9109 -0.2398 -2.8113
  696SOL     OW 2086   2.825   2.021   0.751  0.3541  0.6977 -0.0520
  696SOL    HW1 2087   2.883   1.936   0.774  1.4189  0.9936 -1.7294
  696SOL    HW2 2088   2.845   2.059   0.658  0.3197  1.4740 -1.6613
  697SOL     OW 2089   1.670   1.880   1.830 -0.3339 -0.0772 -0.1599
  697SOL    HW1 2090   1.767   1.838   1.830  1.7158  0.7071 -0.0203
  697SOL    HW2 2091   1.667   1.984   1.805 -0.1355 -0.7374  0.7040
  698SOL     OW 2092   2.899   0.429   2.722  0.4710 -0.3598  0.9392
  698SOL    HW1 2093   2.880   0.372   2.642 -1.7759  2.2967  1.8926
  698SOL    HW2 2094   2.955   0.380   2.789  1.8143 -0.9748 -1.4923
  699SOL     OW 2095   1.560   0.062   2.904 -0.1586 -0.1260  0.1255
  699SOL    HW1 2096   1.513  -0.022   2.869  0.5161 -0.5134  2.7182
  699SOL    HW2 2097   1.621   0.111   2.837 -1.1655  0.6383 -1.0604
  700SOL     OW 2098   0.990   2.238   1.358 -0.0443 -0.2043  0.2768
  700SOL    HW1 2099   1.061   2.172   1.331 -2.3172  3.5730  0.0912
  700SOL    HW2 2100   0.898   2.202   1.323 -0.2151  0.6209  1.3516
  701SOL     OW 2101   1.905   2.854   0.018  0.3419 -0.0112 -0.5078
  701SOL    HW1 2102   1.852   2.810   0.102 -1.0451 -0.1815  2.2116
  701SOL    HW2 2103   1.949   2.950   0.025 -1.2961  2.2718 -0.8217
  702SOL     OW 2104   2.091   1.320   1.967 -0.0143 -0.2849 -0.4162
  702SOL    HW1 2105   2.185   1.277   1.964  0.0284  0.0344  1.1627
  702SOL    HW2 2106   2.080   1.406   1.908 -1.4607  1.1790  1.3140
  703SOL     OW 2107   1.927   0.906   1.492  0.3119  0.2134 -0.6236
  703SOL    HW1 2108   1.932   0.804   1.493  0.1923 -0.3062 -0.1777
  703SOL    HW2 2109   1.937   0.949   1.585  0.2972 -0.1718  0.1704
  704SOL     OW 2110   0.321   2.020   1.707 -0.4911  0.3311 -0.2434
  704SOL    HW1 2111   0.371   1.958   1.780  2.0995 -1.8912 -1.0159
  704SOL    HW2 2112   0.366   2.112   1.694 -1.3200 -0.7699  2.9228
  705SOL     OW 2113   2.483   1.492   0.894  0.0869  0.0538 -0.4059
  705SOL    HW1 2114   2.431   1.428   0.834  1.7711  0.1230 -0.1586
  705SOL    HW2 2115   2.583   1.460   0.914  1.9641  2.0577  1.6806
  706SOL     OW 2116   0.657   1.722   1.842  0.8118 -0.1313  0.1989
  706SOL    HW1 2117   0.721   1.653   1.818 -3.2768  0.0006  2.6492
  706SOL    HW2 2118   0.700   1.790   1.912  0.8902 -2.1620 -0.5740
  707SOL     OW 2119   2.344   1.201   1.962 -0.2604 -0.3081  0.4336
  707SOL    HW1 2120   2.383   1.189   2.056  2.2250  0.5002 -1.7715
  707SOL    HW2 2121   2.334   1.108   1.911  1.3447 -1.2372  0.6212
  708SOL     OW 2122   3.009   0.522   3.057 -0.0193  0.1875 -0.5931
  708SOL    HW1 2123   3.073   0.575   3.000  0.5120 -1.3262 -0.4930
  708SOL    HW2 2124   3.011   0.426   3.018  2.2241 -0.2878 -2.5657
  709SOL     OW 2125   1.885   1.858   0.366 -0.5759 -0.5252 -0.2803
  709SOL    HW1 2126   1.876   1.956   0.396 -0.0999 -3.0432  1.7384
  709SOL    HW2 2127   1.872   1.847   0.264 -0.1845  0.5044 -0.2836
  710SOL     OW 2128   1.775   1.630   2.476 -0.3300  0.1148 -0.2680
  710SOL    HW1 2129   1.856   1.600   2.418  0.9429 -0.6432  1.8274
  710SOL    HW2 2130   1.754   1.572   2.566 -1.8363 -2.8552  1.6352
  711SOL     OW 2131   2.626   2.938   0.973 -0.1180  0.4817 -0.3137
  711SOL    HW1 2132   2.582   3.030   0.951  2.2450 -0.3614 -0.7358
  711SOL    HW2 2133   2.726   2.945   0.993 -2.3738 -0.8463  1.7790
  712SOL     OW 2134   1.398   2.125   1.970 -0.0505  0.4161 -0.1289
  712SOL    HW1 2135   1.496   2.156   1.953  4.8175  0.7272  0.6150
  712SOL    HW2 2136   1.349   2.095   1.883  1.1146 -1.8485 -2.1251
  713SOL     OW 2137   2.779   1.486   2.534  0.0657  0.8604 -0.0879
  713SOL    HW1 2138   2.790   1.381   2.525  1.3141 -2.0126  0.9307
  713SOL    HW2 2139   2.699   1.519   2.593  1.4524  1.2980  3.6991
  714SOL     OW 2140   2.649   0.469   2.379 -0.6614 -0.1579 -0.6360
  714SOL    HW1 2141   2.599   0.401   2.451 -2.8718  0.3929  4.5428
  714SOL    HW2 2142   2.638   0.443   2.280 -1.6838 -3.1466  0.5298
  715SOL     OW 2143   1.578   2.177   1.161 -0.2280 -0.9745  0.1701
  715SOL    HW1 2144   1.486   2.191   1.112 -1.6576  1.8773 -1.4909
  715SOL    HW2 2145   1.570   2.164   1.262  0.4453  2.2040  0.0412
  716SOL     OW 2146   1.231   0.157   1.476  0.0731 -0.0112  0.1346
  716SOL    HW1 2147   1.130   0.184   1.473  4.3662 -1.9874 -3.4556
  716SOL    HW2 2148   1.283   0.238   1.436 -0.9113 -0.3466  1.4848
  717SOL     OW 2149   1.155   0.555   1.603  0.4538  0.1378 -0.1826
  717SOL    HW1 2150   1.246   0.604   1.627  1.9518 -1.5788 -1.5292
  717SOL    HW2 2151   1.158   0.489   1.522  0.5142 -0.6834 -1.7049
  718SOL     OW 2152   0.644   0.894   0.969 -0.1809 -0.1543  0.1355
  718SOL    HW1 2153   0.622   0.887   0.870  0.8770  0.7880 -1.0896
  718SOL    HW2 2154   0.662   0.991   0.998  0.0608 -0.8275 -2.0064
  719SOL     OW 2155   0.615   1.736   2.299 -0.2409 -0.0614  0.0116
  719SOL    HW1 2156   0.675   1.789   2.361 -3.6780  0.5449 -2.2759
  719SOL    HW2 2157   0.610   1.633   2.328 -1.0435 -1.8684  0.7378
  720SOL     OW 2158   2.214   1.148   0.301 -0.1014 -0.1134  0.2433
  720SOL    HW1 2159   2.284   1.077   0.268  0.1963 -0.3135 -2.1531
  720SOL    HW2 2160   2.168   1.119   0.389 -0.3269 -1.6962 -3.0878
  721SOL     OW 2161   2.253   3.001   2.073 -0.3857  0.1174 -1.0376
  721SOL    HW1 2162   2.203   3.024   1.985  4.0813  0.0564  1.6253
  721SOL    HW2 2163   2.206   3.049   2.155 -2.0261 -1.9439  0.4095
  722SOL     OW 2164   2.359   1.640   0.488 -0.0858  0.0461 -0.3648
  722SOL    HW1 2165   2.428   1.659   0.415  1.8300 -1.0049 -0.8238
  722SOL    HW2 2166   2.260   1.655   0.456 -2.7356  1.2471 -0.7389
  723SOL     OW 2167   2.664   2.729   1.925  0.0088 -1.0376 -0.0941
  723SOL    HW1 2168   2.725   2.813   1.944 -0.1201  0.8657  2.0882
  723SOL    HW2 2169   2.566   2.739   1.968 -1.6453  0.3625  1.1451
  724SOL     OW 2170   0.458   2.504   2.396  0.3131  0.3063 -0.1049
  724SOL    HW1 2171   0.386   2.463   2.458 -0.6335 -2.2621  1.8355
  724SOL    HW2 2172   0.541   2.532   2.453 -1.1443  0.6745  1.1522
  725SOL     OW 2173   2.376   2.789   1.559 -0.4069 -1.0100  0.0312
  725SOL    HW1 2174   2.360   2.812   1.461  1.0376  1.7016  3.3050
  725SOL    HW2 2175   2.409   2.690   1.577  1.3139 -0.4279  3.4889
  726SOL     OW 2176   2.508   2.310   0.697 -0.2261 -0.6211 -0.0843
  726SOL    HW1 2177   2.466   2.404   0.676 -0.4147  2.5411 -0.4506
  726SOL    HW2 2178   2.479   2.248   0.624  2.1400  1.5101  1.1138
  727SOL     OW 2179   0.096   0.027   0.167 -0.3119 -0.3951  0.1175
  727SOL    HW1 2180   0.163   0.048   0.091  0.4605  0.6849 -2.5694
  727SOL    HW2 2181   0.043  -0.058   0.145  1.5669  0.2152 -1.2524
  728SOL     OW 2182   2.913   0.712   0.909 -0.1116 -0.2213 -0.6410
  728SOL    HW1 2183   2.875   0.702   0.814  0.0580 -3.8417 -0.8880
  728SOL    HW2 2184   2.851   0.675   0.982  0.5724 -0.0096 -2.1043
  729SOL     OW 2185   0.038   2.515   0.753 -0.1618  0.3403 -0.3853
  729SOL    HW1 2186   0.077   2.481   0.846  0.8040  1.6345  2.2369
  729SOL    HW2 2187   0.103   2.536   0.679  1.6840 -0.6557  0.5703
  730SOL     OW 2188   2.565   0.650   0.877 -0.3913  0.0566 -0.5845
  730SOL    HW1 2189   2.565   0.753   0.892 -0.0030 -0.2424 -0.2075
  730SOL    HW2 2190   2.623   0.610   0.801  2.1993 -0.2019 -1.4445
  731SOL     OW 2191   3.077   2.172   2.372  0.3067  0.2112  0.4376
  731SOL    HW1 2192   3.085   2.214   2.465 -0.9176 -1.1909 -1.2551
  731SOL    HW2 2193   3.016   2.224   2.307 -2.6377 -0.8750  1.8535
  732SOL     OW 2194   1.234   2.763   2.019 -0.7543  0.4352  0.5850
  732SOL    HW1 2195   1.249   2.676   2.075 -0.1723 -1.3697  0.0115
  732SOL    HW2 2196   1.190   2.746   1.926 -0.8401  1.3854 -1.6464
  733SOL     OW 2197   0.012   0.574   2.249  0.2700 -0.3609 -0.4237
  733SOL    HW1 2198   0.093   0.619   2.202  1.3543 -1.2318 -0.7683
  733SOL    HW2 2199  -0.045   0.511   2.185  0.1063  0.1061 -0.9067
  734SOL     OW 2200   1.455   0.368   2.668 -0.1101  0.1209 -0.0689
  734SOL    HW1 2201   1.455   0.467   2.696  1.3139 -1.8852  0.1325
  734SOL    HW2 2202   1.374   0.316   2.711 -0.6653  2.6618 -1.6040
  735SOL     OW 2203   2.857   2.618   2.285  0.1954 -0.3789  0.2970
  735SOL    HW1 2204   2.865   2.599   2.183 -0.2122 -3.2006 -3.0040
  735SOL    HW2 2205   2.939   2.670   2.313 -0.7215 -0.2106 -0.3376
  736SOL     OW 2206   0.914   0.436   2.505 -0.1585  0.3908  0.1440
  736SOL    HW1 2207   0.825   0.488   2.496  0.7863 -1.3741 -2.1665
  736SOL    HW2 2208   0.897   0.338   2.468  1.1296 -1.4740  1.1726
  737SOL     OW 2209   2.608   0.433   2.812 -0.3061  0.2724  0.2343
  737SOL    HW1 2210   2.582   0.405   2.907 -0.6884  3.3607 -1.0283
  737SOL    HW2 2211   2.711   0.446   2.810  0.9694  0.1664  2.1124
  738SOL     OW 2212   1.718   1.265   2.877 -0.0370  0.7134 -0.1417
  738SOL    HW1 2213   1.815   1.225   2.874  0.6195 -4.3546 -1.5978
  738SOL    HW2 2214   1.655   1.200   2.829 -1.3485  0.1228 -0.7183
  739SOL     OW 2215   1.799   0.684   0.647 -0.9575  0.4032 -0.2218
  739SOL    HW1 2216   1.827   0.699   0.743 -0.3237  1.4077 -0.2795
  739SOL    HW2 2217   1.841   0.596   0.608 -0.9292  1.2789  0.8042
  740SOL     OW 2218   1.936   1.916   2.376 -0.1166 -0.1628 -0.3717
  740SOL    HW1 2219   2.024   1.860   2.384  2.3208  0.0122 -0.7311
  740SOL    HW2 2220   1.872   1.889   2.302 -2.2613  2.0416  6.0240
  741SOL     OW 2221   2.553   0.023   2.475 -0.2057  0.8367  0.7730
  741SOL    HW1 2222   2.656   0.020   2.468 -2.0769 -1.5139 -1.0114
  741SOL    HW2 2223   2.510   0.078   2.396 -0.3398 -0.6109 -1.6213
  742SOL     OW 2224   2.202   1.376   0.165 -0.0865 -0.6477 -0.0055
  742SOL    HW1 2225   2.108   1.398   0.135 -0.8567 -1.8326  0.1678
  742SOL    HW2 2226   2.213   1.291   0.218  0.1554 -0.9305 -4.3728
  743SOL     OW 2227   1.792   0.599   2.605 -0.5592  0.3345 -0.3020
  743SOL    HW1 2228   1.767   0.527   2.536 -1.1033  0.8713  4.1621
  743SOL    HW2 2229   1.704   0.647   2.642 -0.9881 -0.4800 -1.7730
  744SOL     OW 2230   2.667   2.113   0.056 -0.4122 -0.3454 -0.4487
  744SOL    HW1 2231   2.587   2.144   0.109  1.8334  0.3963 -0.0350
  744SOL    HW2 2232   2.663   2.009   0.038  2.4077  1.6824  0.7112
  745SOL     OW 2233   2.243   2.609   2.200 -0.7468  0.4794 -0.3267
  745SOL    HW1 2234   2.141   2.603   2.188  2.3160  2.0536 -1.4872
  745SOL    HW2 2235   2.275   2.678   2.272 -1.4278 -1.7943 -0.2102
  746SOL     OW 2236   0.051   2.635   1.746 -0.1916  0.3365 -0.1099
  746SOL    HW1 2237   0.130   2.569   1.728 -0.7107 -0.0344  0.4606
  746SOL    HW2 2238   0.071   2.690   1.830  3.3659 -0.7657  0.3346
  747SOL     OW 2239   0.042   1.775   1.646 -0.1191  0.5535  0.5991
  747SOL    HW1 2240  -0.020   1.692   1.656  2.4964 -2.3509 -1.1063
  747SOL    HW2 2241   0.071   1.791   1.544  2.4573  4.6371 -4.4699
  748SOL     OW 2242   1.828   2.736   2.883 -1.1246 -0.0138 -0.6319
  748SOL    HW1 2243   1.841   2.817   2.953  2.5932  0.2122  1.8374
  748SOL    HW2 2244   1.728   2.698   2.882  0.5930 -1.7452  1.7972
  749SOL     OW 2245   1.397   3.025   0.885 -0.6733  0.3933 -0.4197
  749SOL    HW1 2246   1.341   3.088   0.832  1.3161 -1.4844  2.9884
  749SOL    HW2 2247   1.468   2.967   0.827 -0.0390 -2.8400 -3.5293
  750SOL     OW 2248   2.254   0.178   1.837  0.3321  0.0810 -0.1945
  750SOL    HW1 2249   2.273   0.219   1.751 -0.6740 -1.1619 -0.0518
  750SOL    HW2 2250   2.267   0.250   1.910 -4.4222 -0.0411 -1.0314
  751SOL     OW 2251   0.751   2.152   2.873 -0.1078 -0.1566  0.0426
  751SOL    HW1 2252   0.832   2.148   2.943 -0.0737  1.3772  4.4060
  751SOL    HW2 2253   0.675   2.085   2.901 -0.2471  0.4160  0.8848
  752SOL     OW 2254   1.282   0.823   1.260  0.0787 -0.0486  0.2073
  752SOL    HW1 2255   1.360   0.895   1.250  2.2526  0.3288  1.3314
  752SOL    HW2 2256   1.318   0.725   1.274 -0.3509  0.6115  3.7492
  753SOL     OW 2257   0.916   2.535   1.808  0.1326 -0.1796 -0.1519
  753SOL    HW1 2258   1.013   2.557   1.783 -0.8515 -0.5372 -1.0151
  753SOL    HW2 2259   0.855   2.613   1.793 -0.3301 -1.5936  0.1996
  754SOL     OW 2260   1.135   1.212   3.036 -0.1296  0.4397  0.2478
  754SOL    HW1 2261   1.209   1.145   3.014 -0.4759  2.8945  0.0600
  754SOL    HW2 2262   1.167   1.314   3.037 -1.5806 -0.2442  0.2119
  755SOL     OW 2263   1.976   0.430   2.209 -0.2930  0.0326 -0.2690
  755SOL    HW1 2264   2.065   0.376   2.226  3.0790 -1.4121  1.2019
  755SOL    HW2 2265   1.920   0.441   2.295  2.6636  0.7777 -2.1783
  756SOL     OW 2266   2.528   1.008   2.990  0.4426  0.3672  0.3009
  756SOL    HW1 2267   2.630   0.981   2.965  3.7823  0.7374  0.3965
  756SOL    HW2 2268   2.462   0.929   3.003  1.1033  0.5724  0.7456
  757SOL     OW 2269   0.104   0.435   2.001  0.1202  0.0278  0.0767
  757SOL    HW1 2270   0.151   0.370   1.939 -0.2898  1.8329  3.2723
  757SOL    HW2 2271   0.002   0.414   2.017 -2.6947 -1.4132  2.1497
  758SOL     OW 2272   2.197   0.095   1.496  0.1066  0.0244 -0.1004
  758SOL    HW1 2273   2.164  -0.001   1.512  0.1977  0.5291 -1.5566
  758SOL    HW2 2274   2.276   0.107   1.427  0.1807  1.7901 -1.2980
  759SOL     OW 2275   1.694   0.033   0.073 -0.0869  0.4445 -0.1598
  759SOL    HW1 2276   1.653   0.030  -0.023 -1.8754  0.3633 -1.1127
  759SOL    HW2 2277   1.800   0.045   0.075  0.9355  1.2803  0.7239
  760SOL     OW 2278   2.676   2.022   2.838 -0.5700 -0.3928 -0.0016
  760SOL    HW1 2279   2.606   1.982   2.907 -1.0575 -0.2278  1.4779
  760SOL    HW2 2280   2.694   2.123   2.855 -1.5231 -1.0803  2.1547
  761SOL     OW 2281   1.929   1.786   1.775 -0.0177  0.2241  0.5012
  761SOL    HW1 2282   1.940   1.683   1.797 -2.0965 -1.1713 -1.3638
  761SOL    HW2 2283   1.890   1.799   1.679  0.3401 -0.7090  0.2387
  762SOL     OW 2284   0.486   2.393   0.973 -0.3785 -0.5716  0.0385
  762SOL    HW1 2285   0.544   2.395   0.885 -1.6818  2.6515  0.8417
  762SOL    HW2 2286   0.548   2.413   1.052 -1.5424 -1.8795 -1.6245
  763SOL     OW 2287   2.062   1.538   2.976 -0.3858  0.0373 -0.4706
  763SOL    HW1 2288   2.146   1.478   2.985  2.1586 -1.4419  1.6785
  763SOL    HW2 2289   1.979   1.507   3.031  0.4324 -1.2283  0.4397
  764SOL     OW 2290   0.698   0.618   0.691 -0.1449 -0.0393  0.6581
  764SOL    HW1 2291   0.614   0.560   0.667  0.8284 -2.4072 -0.6052
  764SOL    HW2 2292   0.736   0.591   0.790  1.0914 -1.7739  1.4215
  765SOL     OW 2293   0.795   0.306   0.739  0.4972 -0.2051 -0.1694
  765SOL    HW1 2294   0.848   0.317   0.656 -4.4951  2.6980  4.2003
  765SOL    HW2 2295   0.813   0.387   0.810  1.4469  0.1129  1.6515
  766SOL     OW 2296   2.933   2.142   3.040  0.1651  0.3509 -0.4375
  766SOL    HW1 2297   2.833   2.142   3.068 -1.9711  0.7129 -1.2982
  766SOL    HW2 2298   2.980   2.225   3.078  0.4030 -1.3549  1.3078
  767SOL     OW 2299   2.784   1.646   0.609  0.0392  0.3423 -0.1314
  767SOL    HW1 2300   2.695   1.643   0.665 -0.9974  2.0370  0.4018
  767SOL    HW2 2301   2.848   1.721   0.637  0.2908  0.7175  0.8076
  768SOL     OW 2302   1.079   0.164   0.226  0.2809 -0.4148  0.2952
  768SOL    HW1 2303   1.055   0.190   0.323 -1.1260 -2.2584  2.2728
  768SOL    HW2 2304   1.179   0.128   0.212  3.3691  0.3406 -2.4796
  769SOL     OW 2305   1.114   1.815   2.301  0.2935  0.2972  0.0530
  769SOL    HW1 2306   1.013   1.828   2.331  1.7294  0.3124  0.4869
  769SOL    HW2 2307   1.177   1.808   2.382 -0.4650  2.8761  0.3752
  770SOL     OW 2308   0.171   1.121   2.299 -0.3816  0.0471 -0.0927
  770SOL    HW1 2309   0.186   1.206   2.360  1.2191  0.0520  0.3916
  770SOL    HW2 2310   0.082   1.075   2.323  1.6940  0.9474  1.6602
  771SOL     OW 2311   3.045   2.833   1.954  0.1506 -0.1238  0.1875
  771SOL    HW1 2312   2.989   2.864   1.870 -0.3335  2.1743 -0.7018
  771SOL    HW2 2313   3.044   2.890   2.040 -0.3049  0.9798  1.5540
  772SOL     OW 2314   2.346   0.225   2.827 -0.4458 -0.3892  0.4994
  772SOL    HW1 2315   2.413   0.158   2.778  0.5996 -1.7710 -2.4022
  772SOL    HW2 2316   2.343   0.210   2.928 -1.1792  0.1221  0.3139
  773SOL     OW 2317   0.602   2.112   2.375  0.1129 -0.2189  0.2251
  773SOL    HW1 2318   0.608   2.196   2.309 -1.5219  2.5493 -0.8250
  773SOL    HW2 2319   0.539   2.119   2.457 -0.5866 -3.0754  1.6601
  774SOL     OW 2320   2.096   0.006   2.577  0.1785 -0.0889 -0.3958
  774SOL    HW1 2321   2.064   0.076   2.646 -0.5817 -1.4662  1.1478
  774SOL    HW2 2322   2.174  -0.047   2.620 -2.3597  2.2452  0.9273
  775SOL     OW 2323   2.577   2.952   2.240  0.6769 -0.1544  0.2005
  775SOL    HW1 2324   2.522   3.037   2.233  2.0983  1.9530  1.7649
  775SOL    HW2 2325   2.619   2.922   2.336 -0.4178 -4.5564  2.1774
  776SOL     OW 2326   3.099   1.266   0.171  0.2727 -0.2098 -0.2568
  776SOL    HW1 2327   3.058   1.211   0.091 -0.6710 -0.8887  0.4216
  776SOL    HW2 2328   3.053   1.254   0.260  0.1785 -2.5701 -2.4329
  777SOL     OW 2329   0.438   2.904   0.430  0.6337  0.6458 -0.0152
  777SOL    HW1 2330   0.339   2.879   0.399 -1.4115 -1.1975  1.6093
  777SOL    HW2 2331   0.511   2.829   0.412  1.0763  0.1869 -0.7233
  778SOL     OW 2332   1.318   1.986   0.195  0.0546 -0.7376 -0.4054
  778SOL    HW1 2333   1.275   2.028   0.279 -0.5032 -1.1359 -0.1601
  778SOL    HW2 2334   1.334   2.061   0.125 -1.0696 -1.2273  0.5229
  779SOL     OW 2335   0.169   0.832   0.446 -0.2398  0.1984 -0.6751
  779SOL    HW1 2336   0.101   0.755   0.421 -1.5314 -1.9117 -2.3976
  779SOL    HW2 2337   0.136   0.900   0.517  1.8801 -3.0979 -0.1544
  780SOL     OW 2338   0.168   0.278   2.356  0.8715  0.1752  0.4872
  780SOL    HW1 2339   0.122   0.352   2.414  3.0905  1.7433 -1.4757
  780SOL    HW2 2340   0.258   0.315   2.314  1.1699  0.4071 -1.0323
  781SOL     OW 2341   0.691   1.701   1.493 -0.0171 -0.2619 -0.3681
  781SOL    HW1 2342   0.741   1.629   1.551  0.9789  1.1530  1.6530
  781SOL    HW2 2343   0.588   1.690   1.501  0.8669 -1.9585  3.2676
  782SOL     OW 2344   2.531   0.105   0.957  0.2197 -0.1347  0.1733
  782SOL    HW1 2345   2.484   0.149   0.873  0.0854  0.6537 -1.7354
  782SOL    HW2 2346   2.513   0.151   1.048  3.2720  0.2725  0.9016
  783SOL     OW 2347   2.758   0.694   2.466 -0.1955 -0.6463  0.2067
  783SOL    HW1 2348   2.781   0.723   2.563 -1.7377  0.2227 -2.9161
  783SOL    HW2 2349   2.709   0.602   2.446 -2.2052  2.6603  0.5095
  784SOL     OW 2350   1.406   2.211   0.025 -0.3671 -0.1919  0.6234
  784SOL    HW1 2351   1.455   2.282   0.081  1.8294  1.5221 -0.8531
  784SOL    HW2 2352   1.387   2.241  -0.073  0.0433 -1.7335  3.2665
  785SOL     OW 2353   2.066   0.305   3.077  0.0692  0.3408 -0.6929
  785SOL    HW1 2354   2.005   0.320   3.162 -0.7498 -1.4788  0.8235
  785SOL    HW2 2355   2.094   0.388   3.023  1.4569  1.5608 -1.4556
  786SOL     OW 2356   2.029   2.171   2.243 -0.4560 -0.0012  0.5960
  786SOL    HW1 2357   1.968   2.104   2.283  0.6631  4.3145 -1.0676
  786SOL    HW2 2358   2.129   2.149   2.251  2.9063  0.5020  0.6977
  787SOL     OW 2359   1.370   0.532   0.917 -0.2505 -0.8390  0.3549
  787SOL    HW1 2360   1.292   0.597   0.921  1.2506  1.5237  0.6138
  787SOL    HW2 2361   1.417   0.527   0.824  1.1159 -0.2758 -4.5035
  788SOL     OW 2362   1.213   0.445   0.048 -0.3288 -0.0855  0.1451
  788SOL    HW1 2363   1.127   0.429  -0.006 -3.2688 -1.1776 -0.3101
  788SOL    HW2 2364   1.199   0.498   0.136  1.4693 -0.8832  3.9530
  789SOL     OW 2365   2.515   0.109   1.974  0.7618 -0.0518  0.4032
  789SOL    HW1 2366   2.412   0.099   1.942 -4.7285 -0.7657  0.8377
  789SOL    HW2 2367   2.576   0.086   1.894 -2.5056 -2.4528 -0.5297
  790SOL     OW 2368   2.652   2.742   0.739  0.3541 -0.2828  0.3410
  790SOL    HW1 2369   2.731   2.755   0.679 -2.5493  1.4704  0.6230
  790SOL    HW2 2370   2.633   2.826   0.803  3.4684  1.6845 -0.0180
  791SOL     OW 2371   1.921   1.208   0.284  0.0965  0.4115  0.4054
  791SOL    HW1 2372   1.843   1.142   0.322 -1.9739 -1.7194  3.3357
  791SOL    HW2 2373   2.020   1.171   0.300 -0.0052 -0.3607  3.2003
  792SOL     OW 2374   0.375   1.737   2.097 -0.0706  0.0374  0.2577
  792SOL    HW1 2375   0.459   1.687   2.131 -1.1788  1.1730  1.5671
  792SOL    HW2 2376   0.306   1.762   2.172 -1.1708 -1.2595 -1.8109
  793SOL     OW 2377   2.102   1.586   2.104  0.2416 -0.1387  0.4022
  793SOL    HW1 2378   2.189   1.636   2.075 -2.3044 -1.1256 -2.5404
  793SOL    HW2 2379   2.112   1.483   2.099 -1.9561 -0.6621  1.2742
  794SOL     OW 2380   0.561   1.475   2.325 -0.1159 -0.5819  0.2071
  794SOL    HW1 2381   0.529   1.431   2.238  0.4651 -0.6953 -0.2104
  794SOL    HW2 2382   0.493   1.486   2.400 -0.4414  1.2910  0.8094
  795SOL     OW 2383   2.541   2.302   1.809  0.0727 -0.6635  0.1801
  795SOL    HW1 2384   2.530   2.347   1.903 -1.4944  0.1629 -1.9221
  795SOL    HW2 2385   2.467   2.235   1.788  3.5752  0.9507 -0.2871
  796SOL     OW 2386   0.019   1.105   2.662  0.1539 -0.0188  0.5502
  796SOL    HW1 2387  -0.085   1.105   2.670 -0.0427 -0.6271 -1.6616
  796SOL    HW2 2388   0.073   1.109   2.752  2.3418 -0.1813 -1.4190
  797SOL     OW 2389   0.791   0.656   1.413 -0.0338  0.1282  0.3561
  797SOL    HW1 2390   0.853   0.709   1.476  0.2617  1.9552  0.3132
  797SOL    HW2 2391   0.743   0.714   1.345 -0.5836  0.9307  0.9497
  798SOL     OW 2392   1.315   0.380   1.151 -0.5473 -0.4996 -0.6384
  798SOL    HW1 2393   1.379   0.372   1.236  3.4306  1.9383  1.1507
  798SOL    HW2 2394   1.348   0.448   1.082 -1.7124  0.1646 -0.4844
  799SOL     OW 2395   1.992   2.702   0.981  0.4025  0.2297 -0.3301
  799SOL    HW1 2396   1.895   2.709   1.023 -0.7183  1.3495 -2.0648
  799SOL    HW2 2397   1.983   2.693   0.876  0.7616 -0.2261  2.4219
  800SOL     OW 2398   3.057   0.634   1.816 -0.8622  1.0806  0.5448
  800SOL    HW1 2399   3.019   0.708   1.875 -0.7845 -1.0245  0.8136
  800SOL    HW2 2400   3.136   0.582   1.855 -0.7403  1.0248 -2.9415
  801SOL     OW 2401   1.927   2.264   0.090  0.1068  0.0636 -0.5845
  801SOL    HW1 2402   1.847   2.197   0.075  1.9341 -1.9654  0.6488
  801SOL    HW2 2403   2.024   2.224   0.079  1.6675 -0.0052 -1.0130
  802SOL     OW 2404   0.732   0.805   2.580  0.2698  0.0986 -0.2337
  802SOL    HW1 2405   0.795   0.818   2.501 -0.4999  4.1802 -1.6580
  802SOL    HW2 2406   0.650   0.742   2.560  0.1637  1.6473  1.3905
  803SOL     OW 2407   0.940   0.099   0.914  0.0320 -0.0838 -0.1130
  803SOL    HW1 2408   1.024   0.154   0.940  0.8517  1.3324 -0.1665
  803SOL    HW2 2409   0.892   0.145   0.839  0.8015 -1.3656 -1.4427
  804SOL     OW 2410   0.290   0.056   2.152 -0.2903  0.1008  0.1971
  804SOL    HW1 2411   0.264   0.155   2.142 -0.5246  2.0494  0.1493
  804SOL    HW2 2412   0.235  -0.003   2.087 -3.1086 -0.9888  0.5336
  805SOL     OW 2413   2.413   0.239   0.237  0.1980  0.3269  0.1038
  805SOL    HW1 2414   2.520   0.262   0.230  1.5784  0.1969 -0.3992
  805SOL    HW2 2415   2.366   0.228   0.140 -0.3203 -1.7734 -0.0385
  806SOL     OW 2416   0.650   2.401   1.682  0.3590  0.0591 -0.1110
  806SOL    HW1 2417   0.659   2.504   1.702 -0.7297  0.6602  0.8398
  806SOL    HW2 2418   0.740   2.353   1.656  0.1205 -3.2436  2.4478
  807SOL     OW 2419   2.430   0.994   0.465 -1.2628 -0.1523  0.1721
  807SOL    HW1 2420   2.527   0.975   0.501  0.2828  3.7162 -1.5800
  807SOL    HW2 2421   2.432   0.972   0.359  1.5492 -1.2045 -3.0224
  808SOL     OW 2422   0.524   1.980   2.951  0.2109  0.3465  0.8411
  808SOL    HW1 2423   0.517   1.984   3.054  0.2528  1.8071 -0.8668
  808SOL    HW2 2424   0.571   1.894   2.917  3.6515 -0.4925  0.9761
  809SOL     OW 2425   2.596   1.967   1.982 -0.0053  0.5275  0.2676
  809SOL    HW1 2426   2.688   2.018   1.992  1.4339  1.7825 -0.1200
  809SOL    HW2 2427   2.573   1.961   1.882  0.4809 -1.3838 -1.0337
  810SOL     OW 2428   2.069   1.082   0.514  0.5092 -0.3076  0.9006
  810SOL    HW1 2429   2.069   1.026   0.600  2.8476  1.8299 -2.3546
  810SOL    HW2 2430   2.043   1.183   0.525  1.3598 -0.8883 -0.1536
  811SOL     OW 2431   1.342   2.440   1.295  0.3475  0.4054  0.5763
  811SOL    HW1 2432   1.309   2.344   1.311  2.7644  0.5467 -1.2522
  811SOL    HW2 2433   1.270   2.500   1.247  1.6417  0.8374 -0.1046
  812SOL     OW 2434   1.452   0.784   1.945  0.4809  0.0666  0.3196
  812SOL    HW1 2435   1.475   0.827   2.036  1.6878  1.5067 -0.8696
  812SOL    HW2 2436   1.368   0.834   1.908  0.1042  0.2144 -0.7576
  813SOL     OW 2437   1.741   2.173   2.438 -0.3619  0.6282  0.1324
  813SOL    HW1 2438   1.757   2.106   2.516 -0.2592  1.7831 -1.8071
  813SOL    HW2 2439   1.674   2.132   2.371  1.4240 -1.1154  1.3994
  814SOL     OW 2440   2.859   1.534   2.914 -0.0006 -0.5932 -0.4079
  814SOL    HW1 2441   2.963   1.520   2.925 -1.7926 -0.2405  0.3701
  814SOL    HW2 2442   2.839   1.615   2.855  2.7071 -2.8505  0.4122
  815SOL     OW 2443   2.264   2.860   2.681  0.1893 -0.7077 -0.0674
  815SOL    HW1 2444   2.261   2.804   2.769 -0.6318 -0.4069  1.3838
  815SOL    HW2 2445   2.367   2.885   2.665 -1.2944 -0.6650  3.1151
  816SOL     OW 2446   1.695   0.325   1.622 -0.5336 -0.1505 -1.0533
  816SOL    HW1 2447   1.708   0.226   1.659  0.1963 -1.8497 -0.7461
  816SOL    HW2 2448   1.601   0.363   1.648  0.4037 -1.9079 -0.0277
  817SOL     OW 2449   0.451   1.239   2.476 -0.1558  0.5937  0.1251
  817SOL    HW1 2450   0.406   1.333   2.494  0.4271  1.1279  2.5236
  817SOL    HW2 2451   0.507   1.244   2.392 -0.2273  0.9839  2.7027
  818SOL     OW 2452   1.976   0.831   0.429 -0.4242 -0.1873 -0.1409
  818SOL    HW1 2453   1.999   0.934   0.425 -0.0039  1.2316  0.9076
  818SOL    HW2 2454   1.924   0.814   0.517 -2.2181  1.9500 -1.1172
  819SOL     OW 2455   2.769   2.907   3.036  0.4784 -0.6199 -0.1897
  819SOL    HW1 2456   2.831   2.823   3.040  0.1864  0.8637 -1.7373
  819SOL    HW2 2457   2.684   2.895   2.975 -0.7942 -1.6103 -0.2154
  820SOL     OW 2458   1.255   1.149   0.528 -0.0353 -0.8118  0.5689
  820SOL    HW1 2459   1.243   1.247   0.557 -1.1583 -1.1121 -0.2735
  820SOL    HW2 2460   1.235   1.078   0.600  1.6319  0.6967 -3.6359
  821SOL     OW 2461   3.073   1.272   0.668  0.3865 -0.2217  0.2875
  821SOL    HW1 2462   3.024   1.282   0.756  0.6218  0.0926  1.1262
  821SOL    HW2 2463   3.147   1.340   0.655 -2.2494 -1.6046  0.2414
  822SOL     OW 2464   2.518   1.762   2.424  0.1837 -0.3351 -0.2681
  822SOL    HW1 2465   2.521   1.845   2.486  3.0779 -2.6834  0.5350
  822SOL    HW2 2466   2.482   1.780   2.332 -1.2664  1.1341  0.6354
  823SOL     OW 2467   2.023   0.884   1.236 -0.5585  0.1960 -0.6511
  823SOL    HW1 2468   2.019   0.910   1.338  0.2388 -2.9757  0.4531
  823SOL    HW2 2469   1.951   0.934   1.182 -0.6626  0.0477  2.4512
  824SOL     OW 2470   0.113   2.027   2.778 -0.1402 -0.2182  0.6118
  824SOL    HW1 2471   0.061   1.954   2.837 -0.7148  0.4336  1.2010
  824SOL    HW2 2472   0.168   1.990   2.697  0.3904  0.3954 -0.3585
  825SOL     OW 2473   1.268   1.070   0.216  0.4990  0.3613  0.2945
  825SOL    HW1 2474   1.270   1.121   0.308  2.2481 -0.6725  1.0819
  825SOL    HW2 2475   1.203   1.095   0.138 -1.9871 -3.0744 -1.3540
  826SOL     OW 2476   1.949   0.644   1.559 -0.0385  0.3705  0.9116
  826SOL    HW1 2477   1.998   0.579   1.628 -0.3590 -1.8246 -0.7871
  826SOL    HW2 2478   1.872   0.597   1.501 -0.1938  0.7844  0.2948
  827SOL     OW 2479   0.728   1.444   0.306  0.1945 -0.5691 -0.1894
  827SOL    HW1 2480   0.763   1.365   0.248  1.2246  0.0167  1.3972
  827SOL    HW2 2481   0.703   1.415   0.400  0.4980  2.8345  0.0338
  828SOL     OW 2482   2.522   0.076   1.580 -0.2128  0.0556 -0.3809
  828SOL    HW1 2483   2.454   0.152   1.606 -1.7556  3.1329  1.9537
  828SOL    HW2 2484   2.517  -0.006   1.644 -3.2841  1.0081  3.4469
  829SOL     OW 2485   2.816   2.494   2.974  0.2868  0.4039 -0.5360
  829SOL    HW1 2486   2.761   2.405   2.976 -1.2732  0.7853  1.8712
  829SOL    HW2 2487   2.773   2.558   3.049  0.7575  0.0806  1.4118
  830SOL     OW 2488   2.782   0.944   3.017  0.4034 -0.0918 -0.0993
  830SOL    HW1 2489   2.852   1.018   3.042 -0.0942  1.3916 -1.0028
  830SOL    HW2 2490   2.792   0.853   3.072  0.6875  0.2937  1.0313
  831SOL     OW 2491   0.004   0.629   0.353  0.3363  0.4566 -0.0219
  831SOL    HW1 2492  -0.017   0.575   0.441  1.8468  4.4338 -2.8753
  831SOL    HW2 2493   0.069   0.579   0.286  1.0352 -0.5112  1.9410
  832SOL     OW 2494   1.850   0.716   0.036  0.3450 -0.1539 -0.7698
  832SOL    HW1 2495   1.780   0.781  -0.009 -0.4534 -1.1351 -0.1822
  832SOL    HW2 2496   1.822   0.616   0.041  2.4342  1.1988  1.0696
  833SOL     OW 2497   2.396   2.127   0.519 -0.2153  0.1063  0.1081
  833SOL    HW1 2498   2.292   2.099   0.519 -0.5589 -1.0937  4.0130
  833SOL    HW2 2499   2.455   2.042   0.499  0.9613 -2.1122  2.8478
  834SOL     OW 2500   0.147   0.213   0.584  0.3700 -0.4919  0.0635
  834SOL    HW1 2501   0.201   0.130   0.616  0.0934 -0.4180  1.5750
  834SOL    HW2 2502   0.160   0.227   0.481  0.8591  3.3712 -4.1636
  835SOL     OW 2503   2.340   1.532   1.132  0.1597 -0.2979  0.3215
  835SOL    HW1 2504   2.430   1.566   1.176  1.5461 -1.6196 -1.8656
  835SOL    HW2 2505   2.338   1.537   1.029  1.1028  0.5873 -2.4392
  836SOL     OW 2506   1.567   0.804   2.584  0.1368  0.2370  0.0272
  836SOL    HW1 2507   1.485   0.820   2.523 -0.0660  1.5330 -0.0174
  836SOL    HW2 2508   1.656   0.818   2.531  1.2411 -0.8697 -0.0870
  837SOL     OW 2509   1.731   0.120   0.531  0.3930  0.0687  0.3092
  837SOL    HW1 2510   1.685   0.178   0.600  2.7978  2.9313  0.7249
  837SOL    HW2 2511   1.692   0.131   0.435 -0.0344  3.4162  1.1307
  838SOL     OW 2512   1.212   1.580   2.718  0.0135 -0.0698  0.2283
  838SOL    HW1 2513   1.273   1.520   2.780 -2.8371 -2.2290  1.3810
  838SOL    HW2 2514   1.125   1.527   2.701  2.0454 -1.1484  0.1485
  839SOL     OW 2515   1.593   0.298   0.985 -0.4419  0.2106 -0.3042
  839SOL    HW1 2516   1.618   0.364   1.059  1.7851  0.7377 -1.5530
  839SOL    HW2 2517   1.617   0.202   1.015  2.5719  0.4211  2.3810
  840SOL     OW 2518   2.542   2.938   1.736 -0.5254 -0.6216 -0.4279
  840SOL    HW1 2519   2.477   2.888   1.676  0.1151  1.1483  2.0298
  840SOL    HW2 2520   2.620   2.882   1.768  0.5421  0.2341  1.9254
  841SOL     OW 2521   1.602   0.834   3.053 -0.0327 -0.7423 -0.0549
  841SOL    HW1 2522   1.509   0.816   3.102  0.8043 -0.5485  3.2330
  841SOL    HW2 2523   1.586   0.880   2.964  0.2113  4.1380 -0.0381
  842SOL     OW 2524   0.819   1.472   0.900 -0.3815 -0.3447 -0.1115
  842SOL    HW1 2525   0.774   1.563   0.926 -0.3026 -3.4803 -0.0589
  842SOL    HW2 2526   0.745   1.410   0.866  1.3987  0.4687 -1.0842
  843SOL     OW 2527   0.107   0.020   1.381 -0.3555  0.2017 -0.1848
  843SOL    HW1 2528   0.149   0.082   1.451  0.1910  0.7590  2.3701
  843SOL    HW2 2529   0.075  -0.068   1.431  0.5047 -0.8901  2.2904
  844SOL     OW 2530   0.800   2.487   0.271  0.4760  0.5437  0.1534
  844SOL    HW1 2531   0.725   2.458   0.338 -2.5923  2.6601 -1.3953
  844SOL    HW2 2532   0.763   2.562   0.209 -0.2642  0.1518 -1.3783
  845SOL     OW 2533   1.673   2.882   1.257 -0.1705 -0.3021  0.4509
  845SOL    HW1 2534   1.718   2.789   1.253  0.5704  3.8791  1.0059
  845SOL    HW2 2535   1.691   2.935   1.346 -1.0647  2.1559  0.5854
  846SOL     OW 2536   1.574   2.958   0.698  0.4594  0.0646  0.3772
  846SOL    HW1 2537   1.539   2.954   0.602  0.5902 -2.7118  2.0944
  846SOL    HW2 2538   1.677   2.950   0.706 -0.7279 -1.2628 -0.9376
  847SOL     OW 2539   2.097   1.669   0.419 -0.2682 -0.5095 -0.3451
  847SOL    HW1 2540   2.062   1.579   0.449  1.5861  1.4874  0.0836
  847SOL    HW2 2541   2.023   1.749   0.418 -3.5728  0.4286 -0.9862
  848SOL     OW 2542   2.447   0.861   2.610  0.0704 -0.2714  0.0399
  848SOL    HW1 2543   2.423   0.959   2.631  0.0319 -0.7428  1.5327
  848SOL    HW2 2544   2.364   0.799   2.592  1.2195  0.3580  1.1734
  849SOL     OW 2545   2.575   0.851   2.362  0.0379 -0.1416 -0.1056
  849SOL    HW1 2546   2.654   0.787   2.389  0.2522  0.8689  0.6910
  849SOL    HW2 2547   2.530   0.874   2.450  0.3512  2.4103  2.8919
  850SOL     OW 2548   1.574   0.097   1.347 -0.3712  0.3861 -0.0304
  850SOL    HW1 2549   1.544   0.077   1.251 -0.4028 -1.0735  2.3035
  850SOL    HW2 2550   1.530   0.037   1.415 -1.1138 -0.1031 -0.5695
  851SOL     OW 2551   0.448   1.825   0.571  0.1075  0.3868 -0.1673
  851SOL    HW1 2552   0.476   1.928   0.585 -2.3898  1.9566  1.3039
  851SOL    HW2 2553   0.453   1.783   0.478 -0.6176 -0.8229 -0.8570
  852SOL     OW 2554   0.835   2.046   1.800 -0.2770  0.2913  0.1998
  852SOL    HW1 2555   0.874   2.133   1.756 -1.4039 -3.3244 -4.5220
  852SOL    HW2 2556   0.755   2.060   1.867 -1.3784  0.1390  0.6912
  853SOL     OW 2557   2.521   1.538   2.605 -0.1486  0.1270 -0.6229
  853SOL    HW1 2558   2.471   1.452   2.575  1.2527 -0.5432  0.8011
  853SOL    HW2 2559   2.503   1.613   2.536 -1.1442 -3.0811  1.4996
  854SOL     OW 2560   2.436   1.382   1.760 -0.3762 -0.1977 -0.0754
  854SOL    HW1 2561   2.492   1.358   1.675 -2.3940  1.2541 -2.1883
  854SOL    HW2 2562   2.396   1.299   1.808  2.0038  0.9944 -0.4947
  855SOL     OW 2563   2.075   2.436   1.067  0.2701  0.7431 -0.5052
  855SOL    HW1 2564   2.066   2.536   1.041  1.4940  0.2839 -2.2535
  855SOL    HW2 2565   2.140   2.427   1.148  1.7721  1.2386 -0.6483
  856SOL     OW 2566   1.302   1.418   0.945  0.2454 -0.1032 -0.0754
  856SOL    HW1 2567   1.389   1.479   0.934  0.0358 -0.5426 -0.9450
  856SOL    HW2 2568   1.211   1.473   0.964 -0.7099 -0.4759  0.5588
  857SOL     OW 2569   3.071   2.764   1.008 -0.4286 -0.3457 -0.4184
  857SOL    HW1 2570   3.020   2.681   0.989 -0.2317  2.9773 -0.9336
  857SOL    HW2 2571   3.155   2.774   0.945  1.3598  0.8650 -1.1437
  858SOL     OW 2572   2.378   2.086   1.722 -0.2164  0.4150 -0.0385
  858SOL    HW1 2573   2.308   2.053   1.656  0.0583 -1.2527 -3.6816
  858SOL    HW2 2574   2.467   2.039   1.689  0.6231  0.1826  1.8271
  859SOL     OW 2575   2.381   0.560   1.061 -0.4273  0.4764  0.7568
  859SOL    HW1 2576   2.450   0.589   0.986 -0.0858  0.3564 -2.5165
  859SOL    HW2 2577   2.394   0.458   1.083  0.4870 -0.0545  1.5930
  860SOL     OW 2578   1.808   2.824   0.508  0.0164 -0.4071 -0.2413
  860SOL    HW1 2579   1.843   2.799   0.410 -2.0016 -0.6754  2.4327
  860SOL    HW2 2580   1.853   2.910   0.546  2.1306  1.2954 -2.1363
  861SOL     OW 2581   0.980   2.476   2.866 -0.0978 -0.7997 -0.0127
  861SOL    HW1 2582   1.029   2.549   2.812 -0.1954 -0.6106 -2.6381
  861SOL    HW2 2583   0.944   2.502   2.958  1.6579 -2.2922  1.4741
  862SOL     OW 2584   2.920   2.550   1.629  0.1548 -0.1088 -0.5702
  862SOL    HW1 2585   3.014   2.593   1.647  1.4083 -0.5654  0.9399
  862SOL    HW2 2586   2.858   2.627   1.601  2.9625  0.9034  1.6794
  863SOL     OW 2587   1.812   2.732   0.257 -0.0870  0.3351 -0.3863
  863SOL    HW1 2588   1.861   2.644   0.247  0.8243  2.3652 -0.0628
  863SOL    HW2 2589   1.711   2.718   0.244 -0.2165  0.4583 -0.1491
  864SOL     OW 2590   2.026   1.259   2.845  0.2282 -0.0208  0.5294
  864SOL    HW1 2591   2.005   1.177   2.777 -0.5951 -2.1830  0.7825
  864SOL    HW2 2592   2.112   1.311   2.814  0.0559 -1.7820 -2.6884
  865SOL     OW 2593   2.184   1.935   0.727 -0.1126  0.1213 -0.4925
  865SOL    HW1 2594   2.249   1.864   0.768 -0.5929 -1.4358  0.3180
  865SOL    HW2 2595   2.104   1.960   0.790 -1.2176  1.5231 -0.2871
  866SOL     OW 2596   2.890   2.968   1.010 -0.4096 -0.4584 -0.3905
  866SOL    HW1 2597   2.876   3.035   0.927  0.0102  3.4283 -0.5356
  866SOL    HW2 2598   2.968   2.899   0.993 -2.1167  0.9592  2.7226
  867SOL     OW 2599   0.355   1.447   0.925 -0.0432  0.1486  0.0860
  867SOL    HW1 2600   0.323   1.364   0.873 -0.1086  1.5026  3.4043
  867SOL    HW2 2601   0.330   1.542   0.878  1.6408  0.7114  1.1482
  868SOL     OW 2602   0.755   1.833   2.063  0.3176 -0.1802  0.3579
  868SOL    HW1 2603   0.719   1.779   2.148  0.4162  1.4115  0.3086
  868SOL    HW2 2604   0.709   1.925   2.058  1.4536 -3.3789 -1.5834
  869SOL     OW 2605   2.576   1.930   1.657 -0.3231  0.0220 -0.5009
  869SOL    HW1 2606   2.672   1.965   1.619  1.2216  1.3188 -3.8331
  869SOL    HW2 2607   2.551   1.842   1.612  1.9619  1.8298 -0.5688
  870SOL     OW 2608   2.324   2.732   1.246  0.0011 -0.1340  0.0358
  870SOL    HW1 2609   2.330   2.624   1.266 -1.0618 -1.3240  0.2046
  870SOL    HW2 2610   2.417   2.782   1.257  1.2098 -1.8236 -2.0895
  871SOL     OW 2611   3.069   2.266   0.565  0.9421  0.1441 -0.0503
  871SOL    HW1 2612   3.020   2.297   0.652 -0.1235  2.9866  0.9984
  871SOL    HW2 2613   2.998   2.240   0.490 -3.5289  2.4290  1.3859
  872SOL     OW 2614   2.091   0.441   1.704 -0.1430 -0.5250  0.1168
  872SOL    HW1 2615   2.058   0.417   1.797  0.4380 -0.1317  0.0033
  872SOL    HW2 2616   2.194   0.419   1.694 -1.6294 -1.1053  0.4627
  873SOL     OW 2617   1.693   2.099   0.008 -0.0601 -0.0315 -0.3253
  873SOL    HW1 2618   1.611   2.065   0.060  2.7326  3.3317  1.5618
  873SOL    HW2 2619   1.683   2.102  -0.095 -0.1567 -1.4637 -0.1458
  874SOL     OW 2620   0.662   2.450   0.757  0.2983  0.2184 -0.3812
  874SOL    HW1 2621   0.654   2.553   0.750  2.5527  1.3311  1.1108
  874SOL    HW2 2622   0.762   2.419   0.768 -1.2923  2.0702 -0.0751
  875SOL     OW 2623   2.251   1.499   1.432  0.0607  0.0834  0.2450
  875SOL    HW1 2624   2.333   1.552   1.468  2.9653  1.7902  0.6352
  875SOL    HW2 2625   2.257   1.484   1.328  2.2522  0.3080 -0.5248
  876SOL     OW 2626   0.060   2.268   2.651  0.3512  0.1303  0.2863
  876SOL    HW1 2627   0.067   2.175   2.689 -2.5274  3.6064 -1.4116
  876SOL    HW2 2628   0.124   2.334   2.706 -0.2979  3.2951  2.7494
  877SOL     OW 2629   2.923   2.667   0.626 -0.1115 -0.7746 -0.0545
  877SOL    HW1 2630   2.968   2.759   0.633  0.3254  0.1724 -1.1654
  877SOL    HW2 2631   2.972   2.603   0.695  0.4244 -0.6744  0.6759
  878SOL     OW 2632   2.824   1.510   2.231 -0.2731 -0.2675  0.2628
  878SOL    HW1 2633   2.809   1.606   2.188  0.7407 -0.0093 -0.2339
  878SOL    HW2 2634   2.808   1.513   2.335  1.5537 -0.4645  1.1825
  879SOL     OW 2635   2.405   0.059   1.222 -0.3656  0.2182  0.0842
  879SOL    HW1 2636   2.458  -0.021   1.256 -0.9551  1.4656  1.8596
  879SOL    HW2 2637   2.327   0.025   1.164  2.8689  0.0274  0.0523
  880SOL     OW 2638   0.730   0.537   2.271  0.2488 -0.6948 -0.6951
  880SOL    HW1 2639   0.685   0.485   2.350  0.9362  0.3666  1.0641
  880SOL    HW2 2640   0.793   0.482   2.207 -0.5029  0.0824 -1.1260
  881SOL     OW 2641   0.819   0.091   0.418 -0.1175 -0.3808 -0.0595
  881SOL    HW1 2642   0.871   0.003   0.393 -1.7192  1.7040  1.8023
  881SOL    HW2 2643   0.721   0.080   0.388  0.3381  1.0362  0.7209
  882SOL     OW 2644   2.734   1.663   1.698  0.0944 -0.0079 -0.0449
  882SOL    HW1 2645   2.834   1.635   1.684 -1.5530 -0.9566  0.2693
  882SOL    HW2 2646   2.704   1.661   1.796 -0.7391  0.8339  3.2577
  883SOL     OW 2647   0.816   0.502   0.923 -0.2648  0.0193 -0.0650
  883SOL    HW1 2648   0.863   0.576   0.977  0.7750  0.0281  0.3895
  883SOL    HW2 2649   0.730   0.463   0.968  1.9751  0.3762  0.2878
  884SOL     OW 2650   1.106   1.766   1.126 -0.2232 -0.0746  0.7246
  884SOL    HW1 2651   1.111   1.663   1.097  0.1670 -2.4609  0.1346
  884SOL    HW2 2652   1.043   1.821   1.072  2.2695 -2.2837 -0.0525
  885SOL     OW 2653   2.333   1.852   2.221 -0.1189  0.1456 -0.1396
  885SOL    HW1 2654   2.250   1.799   2.253  0.8835  2.6263  0.1783
  885SOL    HW2 2655   2.334   1.955   2.242  0.9961 -1.9086  1.6025
  886SOL     OW 2656   2.614   0.359   1.810 -0.4467 -0.4239  0.1055
  886SOL    HW1 2657   2.597   0.326   1.905  0.3427  2.0584  0.5734
  886SOL    HW2 2658   2.711   0.397   1.795  0.9000 -1.6771  1.1839
  887SOL     OW 2659   0.151   2.049   1.249  0.0834 -0.0569 -0.0044
  887SOL    HW1 2660   0.048   2.054   1.260 -1.7052  1.7200  1.8941
  887SOL    HW2 2661   0.195   2.142   1.227  1.1237  1.3551  0.7415
  888SOL     OW 2662   0.654   1.213   1.497  0.1676 -0.2474  0.2842
  888SOL    HW1 2663   0.703   1.252   1.412  0.9867 -0.6801 -2.8734
  888SOL    HW2 2664   0.642   1.110   1.494 -1.2104  2.7246 -1.3517
  889SOL     OW 2665   0.861   2.448   2.241 -0.0198  0.4179  0.6571
  889SOL    HW1 2666   0.761   2.416   2.219 -1.1256  0.4868 -0.1494
  889SOL    HW2 2667   0.931   2.436   2.164 -0.3995 -1.7281  2.4471
  890SOL     OW 2668   2.341   2.458   0.223  0.6455 -0.2325  0.0571
  890SOL    HW1 2669   2.351   2.535   0.161 -1.2924  1.0563  1.5705
  890SOL    HW2 2670   2.341   2.490   0.319 -3.2549  1.5156  2.0086
  891SOL     OW 2671   2.534   1.707   0.712 -0.0162  0.6951 -0.1183
  891SOL    HW1 2672   2.531   1.652   0.801 -1.9096 -0.5325 -1.3120
  891SOL    HW2 2673   2.467   1.667   0.645  2.8859  1.7531 -0.6503
  892SOL     OW 2674   0.384   0.383   2.218  0.3841 -0.5111  0.0317
  892SOL    HW1 2675   0.384   0.425   2.122 -0.1602  2.3066  2.5140
  892SOL    HW2 2676   0.469   0.404   2.270 -0.0696  0.4612  2.0785
  893SOL     OW 2677   1.705   0.233   2.712  0.1827 -0.3042  0.0104
  893SOL    HW1 2678   1.774   0.305   2.731  1.0503 -0.7546 -1.1784
  893SOL    HW2 2679   1.612   0.270   2.700  2.0016 -3.7414 -2.0450
  894SOL     OW 2680   2.174   2.089   0.077  0.0981  0.0070 -0.4575
  894SOL    HW1 2681   2.136   2.035  -0.001 -1.8130 -0.6847 -0.0942
  894SOL    HW2 2682   2.185   2.036   0.167 -1.0000 -1.5544  0.2954
  895SOL     OW 2683   2.730   1.432   0.940 -0.3408  0.2952 -0.1841
  895SOL    HW1 2684   2.817   1.370   0.933  0.3433  0.5815 -0.7279
  895SOL    HW2 2685   2.754   1.531   0.934  1.7133  1.2613 -1.8586
  896SOL     OW 2686   1.833   1.868   1.221  0.5287  0.1945 -0.1952
  896SOL    HW1 2687   1.883   1.779   1.257 -1.1928 -0.7373  2.4791
  896SOL    HW2 2688   1.745   1.844   1.176  1.1549 -1.6658  0.9984
  897SOL     OW 2689   0.253   0.510   3.022  0.1325 -0.5575  0.0304
  897SOL    HW1 2690   0.197   0.583   2.979  2.4328  2.7247  0.6848
  897SOL    HW2 2691   0.356   0.532   3.024  0.3354  0.3354  2.1266
  898SOL     OW 2692   0.686   2.797   1.042 -0.3563  0.1053 -1.2325
  898SOL    HW1 2693   0.717   2.894   1.019  2.5965 -1.1664 -1.7004
  898SOL    HW2 2694   0.735   2.764   1.128  1.3485  2.1330 -0.8695
  899SOL     OW 2695   2.851   0.892   1.427 -0.2054 -0.5639 -0.0409
  899SOL    HW1 2696   2.830   0.962   1.354 -0.1504  0.5678  0.4482
  899SOL    HW2 2697   2.948   0.909   1.468  2.5074  0.6509  1.1935
  900SOL     OW 2698   1.000   2.417   2.466 -0.7851  0.1398  0.0217
  900SOL    HW1 2699   0.947   2.417   2.374 -0.7154 -1.4332  1.5558
  900SOL    HW2 2700   0.975   2.338   2.524 -1.9328  2.8428 -3.3248
  901SOL     OW 2701   1.919   2.457   1.411  0.1377 -0.1880 -0.1377
  901SOL    HW1 2702   1.903   2.409   1.324 -1.0767  0.0200  0.2111
  901SOL    HW2 2703   2.002   2.434   1.468 -1.1730 -0.1942  0.6767
  902SOL     OW 2704   2.529   1.655   1.464 -0.8050  0.6132  0.5194
  902SOL    HW1 2705   2.579   1.629   1.552 -1.5400  2.0155  0.0082
  902SOL    HW2 2706   2.575   1.616   1.380  1.1605 -0.5500  1.8515
  903SOL     OW 2707   0.338   2.483   2.003  0.4408  0.4719 -0.4104
  903SOL    HW1 2708   0.282   2.395   2.004 -1.3710  0.5446  0.7735
  903SOL    HW2 2709   0.339   2.531   1.912 -2.7364  2.1563  2.3393
  904SOL     OW 2710   1.996   0.781   2.470 -0.2783  0.2188  0.5984
  904SOL    HW1 2711   1.946   0.719   2.533  2.4394  0.2841 -0.9668
  904SOL    HW2 2712   1.992   0.751   2.370 -0.6003  3.9960 -0.2277
  905SOL     OW 2713   2.835   0.086   2.390  0.7637 -0.0708 -0.1859
  905SOL    HW1 2714   2.910   0.017   2.394 -0.6571  0.2813 -2.6654
  905SOL    HW2 2715   2.861   0.177   2.427  0.2750 -1.6823 -1.2242
  906SOL     OW 2716   0.170   1.693   1.885 -0.1689  0.0601 -0.4660
  906SOL    HW1 2717   0.127   1.707   1.797 -1.0002  1.3135  1.7743
  906SOL    HW2 2718   0.262   1.730   1.901 -1.0107 -1.7325  0.6884
  907SOL     OW 2719   0.238   2.494   0.952 -0.3734 -0.8084  0.0468
  907SOL    HW1 2720   0.340   2.465   0.942  0.3174  0.9826 -0.7859
  907SOL    HW2 2721   0.221   2.591   0.927 -2.4687 -1.2226 -1.5155
  908SOL     OW 2722   2.832   3.042   0.275 -0.1996 -0.1023 -0.3849
  908SOL    HW1 2723   2.739   3.028   0.239  0.4312  2.5408  2.2277
  908SOL    HW2 2724   2.887   2.954   0.276 -0.1261  2.5566 -0.3926
  909SOL     OW 2725   0.832   1.036   2.689  0.4034  0.2098  0.3372
  909SOL    HW1 2726   0.786   0.950   2.653 -1.7133  0.5325 -3.5937
  909SOL    HW2 2727   0.910   1.066   2.622  2.5988  1.3001  0.5920
  910SOL     OW 2728   1.781   1.876   2.158  0.6351 -0.1908 -0.1489
  910SOL    HW1 2729   1.835   1.929   2.082  0.2832 -0.6185 -2.8470
  910SOL    HW2 2730   1.697   1.924   2.202 -1.8510 -1.8843  0.9332
  911SOL     OW 2731   1.775   2.976   1.519  0.2157 -0.5556  0.8114
  911SOL    HW1 2732   1.854   2.967   1.456 -1.1136 -0.1224 -0.5115
  911SOL    HW2 2733   1.782   2.911   1.600  0.8172  0.4637  2.7907
  912SOL     OW 2734   2.840   1.013   0.715  0.2771  0.0680 -0.0001
  912SOL    HW1 2735   2.906   1.010   0.792  1.1294  1.8253 -1.4171
  912SOL    HW2 2736   2.779   1.099   0.726 -0.1642 -0.7688  2.3395
  913SOL     OW 2737   2.565   1.288   1.537 -0.5672 -0.0089 -0.3369
  913SOL    HW1 2738   2.554   1.185   1.542 -1.0017  1.2578  0.2575
  913SOL    HW2 2739   2.621   1.324   1.455  1.6096 -3.4984 -2.5622
  914SOL     OW 2740   2.776   0.587   1.155 -0.2206  0.4270 -0.4343
  914SOL    HW1 2741   2.786   0.501   1.220  0.6739 -2.2224  0.7745
  914SOL    HW2 2742   2.675   0.618   1.154  0.5798  1.2693  0.8439
  915SOL     OW 2743   1.185   0.792   0.967  0.1664 -0.2683  0.8794
  915SOL    HW1 2744   1.227   0.828   1.050 -0.8723  1.1232 -2.2794
  915SOL    HW2 2745   1.081   0.785   0.973 -1.0683  0.1337  0.9307
  916SOL     OW 2746   0.584   0.139   0.678 -0.0681 -0.2809  0.2344
  916SOL    HW1 2747   0.623   0.216   0.729 -2.5629 -1.3364 -1.3467
  916SOL    HW2 2748   0.541   0.178   0.594 -0.4829  1.5396 -1.5528
  917SOL     OW 2749   2.859   2.574   2.006 -0.3502 -0.1540 -0.3551
  917SOL    HW1 2750   2.775   2.627   1.972 -2.1707  2.8756  1.1800
  917SOL    HW2 2751   2.941   2.599   1.944  0.3003 -0.3300  0.9395
  918SOL     OW 2752   1.008   2.089   3.007 -0.1287 -0.6634  0.0871
  918SOL    HW1 2753   0.988   2.177   3.059  1.0752 -2.2665  0.3932
  918SOL    HW2 2754   1.074   2.105   2.924  1.2978 -0.6337  0.5826
  919SOL     OW 2755   0.875   1.710   2.753 -0.3205 -0.0934  0.0562
  919SOL    HW1 2756   0.908   1.805   2.720  0.8729  0.0216 -1.0506
  919SOL    HW2 2757   0.841   1.650   2.673  0.3322  1.6791 -1.9618
  920SOL     OW 2758   1.304   1.757   2.510 -0.2203 -0.1407  0.2065
  920SOL    HW1 2759   1.396   1.739   2.464 -0.6486 -1.0320  2.9659
  920SOL    HW2 2760   1.288   1.707   2.601  0.3455 -2.2547  0.3913
  921SOL     OW 2761   1.135   0.025   2.654  0.1852 -0.7681  0.0518
  921SOL    HW1 2762   1.123   0.029   2.549 -1.1312  2.4525 -2.2705
  921SOL    HW2 2763   1.049  -0.001   2.701  2.9723  2.0899  0.3413
  922SOL     OW 2764   2.183   2.375   2.750  0.1243 -0.4082 -0.2498
  922SOL    HW1 2765   2.193   2.274   2.749  0.2988  2.5309 -1.5965
  922SOL    HW2 2766   2.157   2.413   2.660 -4.4046 -0.4904 -1.3438
  923SOL     OW 2767   1.276   2.749   0.266 -0.1772 -0.2636  0.3419
  923SOL    HW1 2768   1.323   2.821   0.324  0.8867 -0.8709 -1.0236
  923SOL    HW2 2769   1.320   2.654   0.271 -1.1966  0.5684 -3.2160
  924SOL     OW 2770   2.895   1.710   0.140 -0.2751  0.2920  0.1678
  924SOL    HW1 2771   2.814   1.657   0.102  0.7154 -0.3627  1.5412
  924SOL    HW2 2772   2.968   1.650   0.168 -1.7461  1.9124 -0.0367
  925SOL     OW 2773   0.041   2.864   1.513  0.1355 -0.0207  0.0396
  925SOL    HW1 2774   0.034   2.795   1.592  1.0737 -0.1755  0.4223
  925SOL    HW2 2775  -0.007   2.828   1.430  0.7818  2.6644  1.8517
  926SOL     OW 2776   1.314   2.819   1.311  0.2339  0.3550 -0.3118
  926SOL    HW1 2777   1.365   2.831   1.221 -1.8880  0.9295 -0.8810
  926SOL    HW2 2778   1.347   2.890   1.378 -1.3733  0.5819  3.2975
  927SOL     OW 2779   0.366   2.652   1.742 -0.0971  0.5006  0.1847
  927SOL    HW1 2780   0.334   2.600   1.660  0.2113  1.1774  1.9206
  927SOL    HW2 2781   0.339   2.752   1.738  0.3227 -0.8713 -1.5935
  928SOL     OW 2782   1.593   2.069   2.217  0.1214  0.4729 -0.1790
  928SOL    HW1 2783   1.628   2.143   2.152  0.4119 -0.7989 -0.3534
  928SOL    HW2 2784   1.487   2.057   2.208 -1.7018  1.4049  4.4844
  929SOL     OW 2785   2.407   2.504   2.856 -0.3460  0.0590  0.1999
  929SOL    HW1 2786   2.318   2.463   2.816  0.6126 -0.5780  4.8169
  929SOL    HW2 2787   2.479   2.536   2.789 -0.0249  2.4894 -1.5839
  930SOL     OW 2788   2.179   2.014   1.136 -0.3598 -0.4936  0.0587
  930SOL    HW1 2789   2.159   1.982   1.231  0.3323 -2.9288  0.7192
  930SOL    HW2 2790   2.241   2.097   1.123 -1.8632 -0.8853  0.0873
  931SOL     OW 2791   0.506   1.729   2.638  0.2062  0.0915  0.0139
  931SOL    HW1 2792   0.514   1.746   2.742 -1.3664 -0.3862  4.1356
  931SOL    HW2 2793   0.592   1.682   2.606  1.9761 -0.5015  0.6274
  932SOL     OW 2794   0.341   0.073   3.070  0.4848  0.5971 -0.1604
  932SOL    HW1 2795   0.432   0.127   3.068  0.4934  0.7298  3.4751
  932SOL    HW2 2796   0.354  -0.028   3.038  2.2324  3.2607  1.2983
  933SOL     OW 2797   0.970   0.846   3.033 -0.2295 -0.0073  0.1872
  933SOL    HW1 2798   0.900   0.829   3.105 -4.1070 -0.8221 -3.3443
  933SOL    HW2 2799   0.983   0.949   3.014 -0.1312  1.5869 -0.8478
  934SOL     OW 2800   0.732   2.930   2.676  0.0390  0.1013  0.0050
  934SOL    HW1 2801   0.723   2.882   2.583  1.9648 -0.8155  1.5696
  934SOL    HW2 2802   0.778   2.876   2.747 -2.2812  2.9222 -0.6079
  935SOL     OW 2803   0.012   0.535   0.834 -0.3307  0.1912 -0.1208
  935SOL    HW1 2804   0.015   0.506   0.733 -0.7804 -0.4274  2.4288
  935SOL    HW2 2805  -0.070   0.597   0.864 -1.6946  1.8145  0.3772
  936SOL     OW 2806   1.097   2.831   0.076  0.0365  0.3223  0.2089
  936SOL    HW1 2807   1.149   2.881  -0.002  0.3146  2.7682 -1.8470
  936SOL    HW2 2808   1.154   2.786   0.147 -0.4589  0.3202 -0.4190
  937SOL     OW 2809   1.938   2.640   2.055 -1.3062  0.0999  0.1071
  937SOL    HW1 2810   1.840   2.649   2.086  0.6824  1.9866  3.4513
  937SOL    HW2 2811   1.976   2.732   2.025  1.4939  1.5798  0.8476
  938SOL     OW 2812   2.785   2.091   1.561  0.0769  0.1415 -0.0122
  938SOL    HW1 2813   2.765   2.189   1.594  1.6520  0.8742 -1.3182
  938SOL    HW2 2814   2.866   2.045   1.608 -1.2731 -2.0120 -0.8095
  939SOL     OW 2815   2.788   1.220   2.489 -0.0141  0.4182 -0.3421
  939SOL    HW1 2816   2.857   1.191   2.419  0.8286  1.4359  1.7736
  939SOL    HW2 2817   2.790   1.159   2.575 -1.4190 -0.4697  0.2783
  940SOL     OW 2818   1.041   0.438   2.755 -0.4415 -0.3522  0.7395
  940SOL    HW1 2819   1.125   0.385   2.784 -0.5981 -2.2477  1.8423
  940SOL    HW2 2820   0.991   0.408   2.666  0.0670 -0.6161  2.2234
  941SOL     OW 2821   0.002   2.790   2.262 -0.3222 -0.1567 -0.6710
  941SOL    HW1 2822   0.065   2.705   2.245 -2.1234 -4.3922 -0.5390
  941SOL    HW2 2823   0.055   2.859   2.315  0.3605  0.3429 -0.0331
  942SOL     OW 2824   0.052   0.085   2.543 -0.1180 -0.3549  0.3416
  942SOL    HW1 2825   0.093   0.089   2.639  0.7524  0.3597 -0.3772
  942SOL    HW2 2826   0.075   0.167   2.482  0.5518 -0.1666 -0.1003
  943SOL     OW 2827   2.123   1.706   2.352 -0.6266  0.5670 -0.6756
  943SOL    HW1 2828   2.095   1.656   2.263 -1.2363 -3.1638 -0.8388
  943SOL    HW2 2829   2.134   1.643   2.436 -1.3614 -1.3663 -2.0958
  944SOL     OW 2830   2.188   2.355   1.501  0.4759  0.0678 -0.0155
  944SOL    HW1 2831   2.266   2.387   1.560 -1.5949  3.0790 -0.4412
  944SOL    HW2 2832   2.129   2.280   1.531  1.5747  0.2404  0.2222
  945SOL     OW 2833   0.713   1.591   0.070 -0.4525 -0.1080 -0.1123
  945SOL    HW1 2834   0.659   1.545  -0.001  0.3254 -0.7628  0.2256
  945SOL    HW2 2835   0.715   1.534   0.159  0.9464 -0.5208  1.1403
  946SOL     OW 2836   0.352   0.989   2.559  0.8233 -0.1225 -0.5768
  946SOL    HW1 2837   0.297   0.933   2.490  0.4274 -1.7528  2.0796
  946SOL    HW2 2838   0.388   1.084   2.528  1.2173  0.8045 -1.1047
  947SOL     OW 2839   1.474   0.559   3.081  0.6099 -0.3620  0.0788
  947SOL    HW1 2840   1.446   0.620   2.998  0.4635  1.5145 -1.7180
  947SOL    HW2 2841   1.391   0.503   3.112 -0.1468 -1.7100  1.8968
  948SOL     OW 2842   1.895   2.992   2.152  0.0423 -0.1312  0.0622
  948SOL    HW1 2843   1.908   2.959   2.052  1.0874 -0.4074  2.2579
  948SOL    HW2 2844   1.911   2.919   2.221  0.1116  2.8041 -0.1098
  949SOL     OW 2845   0.609   2.436   0.482 -0.1343  0.2387  0.0286
  949SOL    HW1 2846   0.605   2.543   0.484  0.6933 -1.1871 -0.1036
  949SOL    HW2 2847   0.638   2.404   0.580 -1.0424 -2.7316  2.2173
  950SOL     OW 2848   0.212   2.224   2.959 -0.3448  0.4953  0.2630
  950SOL    HW1 2849   0.175   2.306   2.916 -2.2527 -0.6947 -0.7587
  950SOL    HW2 2850   0.173   2.140   2.923  1.3569  1.3445  2.8914
  951SOL     OW 2851   1.166   2.651   2.773  0.0960  0.0115 -0.2421
  951SOL    HW1 2852   1.222   2.599   2.842 -0.7953  2.0155 -0.6511
  951SOL    HW2 2853   1.222   2.697   2.695  1.8080 -0.2681 -1.7874
  952SOL     OW 2854   0.132   1.628   0.414 -0.4588  0.9088 -0.1868
  952SOL    HW1 2855   0.171   1.722   0.427 -0.6636 -1.5686 -2.7145
  952SOL    HW2 2856   0.166   1.563   0.489 -2.1113 -0.5104  3.3603
  953SOL     OW 2857   2.525   1.756   0.270  0.3116  0.5201 -0.4570
  953SOL    HW1 2858   2.522   1.665   0.227  0.4835  1.7365  0.5092
  953SOL    HW2 2859   2.485   1.830   0.209 -1.3691 -0.1891 -4.7049
  954SOL     OW 2860   2.151   0.579   0.932  0.7662 -0.0307  0.4835
  954SOL    HW1 2861   2.152   0.579   0.833  1.1187 -0.4728  2.5406
  954SOL    HW2 2862   2.246   0.592   0.965 -1.9385 -0.3515  1.8731
  955SOL     OW 2863   0.133   2.561   1.368 -0.8298 -0.3913  0.1057
  955SOL    HW1 2864   0.061   2.630   1.378 -0.4404 -1.6967  0.0022
  955SOL    HW2 2865   0.219   2.616   1.336 -1.4185  0.2023 -0.0078
  956SOL     OW 2866   2.820   2.482   2.532 -0.1938 -0.3674 -0.6068
  956SOL    HW1 2867   2.784   2.386   2.530  0.0332  1.0678  1.5190
  956SOL    HW2 2868   2.843   2.526   2.441 -1.0241 -0.0880  0.1703
  957SOL     OW 2869   1.576   2.046   2.732 -0.6175  0.3730 -0.3116
  957SOL    HW1 2870   1.545   1.956   2.780  1.1963 -0.3738  0.3456
  957SOL    HW2 2871   1.670   2.037   2.699 -0.6572 -1.7393 -0.0747
  958SOL     OW 2872   2.607   2.276   2.937 -0.5165 -0.0861  0.9999
  958SOL    HW1 2873   2.522   2.341   2.931 -1.6636  1.7328  0.9224
  958SOL    HW2 2874   2.600   2.204   3.010 -1.3894  0.2330 -2.2854
  959SOL     OW 2875   0.356   2.758   0.101 -0.3842  0.0904 -0.0528
  959SOL    HW1 2876   0.265   2.781   0.145 -1.7505  2.6786 -0.2483
  959SOL    HW2 2877   0.375   2.658   0.084 -0.5365  2.8989  1.9820
  960SOL     OW 2878   1.957   0.420   1.948  0.0561  0.2431 -0.3133
  960SOL    HW1 2879   1.920   0.513   1.920 -1.5768  1.2609 -0.8031
  960SOL    HW2 2880   1.941   0.408   2.052 -0.0261  0.0725 -1.3427
  961SOL     OW 2881   2.547   1.841   1.008  0.0570 -0.0703  0.3376
  961SOL    HW1 2882   2.572   1.935   0.972 -1.0993  2.3203  3.2296
  961SOL    HW2 2883   2.513   1.838   1.109  0.0448 -1.1424  1.8128
  962SOL     OW 2884   1.319   0.850   0.057  0.4124  0.3393 -0.1331
  962SOL    HW1 2885   1.281   0.874  -0.037  1.3756  1.0294  0.1786
  962SOL    HW2 2886   1.311   0.930   0.128 -1.0460  2.1259  2.5861
  963SOL     OW 2887   2.298   2.567   1.836 -0.5191  0.1298 -0.4693
  963SOL    HW1 2888   2.245   2.479   1.842  1.0929 -0.5620  1.0740
  963SOL    HW2 2889   2.292   2.615   1.929 -0.6883 -0.0558  2.4729
  964SOL     OW 2890   2.351   0.356   1.640 -0.0630  0.3949  0.0623
  964SOL    HW1 2891   2.427   0.407   1.692  4.9781 -0.1415  0.1235
  964SOL    HW2 2892   2.361   0.380   1.542  2.2319 -0.6827  0.7989
  965SOL     OW 2893   2.597   2.966   0.146 -0.3260  0.7256  0.2924
  965SOL    HW1 2894   2.662   2.935   0.074 -1.3451  2.1622  0.9328
  965SOL    HW2 2895   2.511   3.006   0.108 -1.2781 -3.3560 -0.2412
  966SOL     OW 2896   2.506   2.503   2.197  0.6252  0.3270 -0.4311
  966SOL    HW1 2897   2.566   2.571   2.148 -0.6350  0.9237  2.5018
  966SOL    HW2 2898   2.404   2.515   2.183  0.0732 -0.5877  0.5900
  967SOL     OW 2899   2.724   2.855   2.430  0.0985  0.4932  0.4179
  967SOL    HW1 2900   2.756   2.779   2.364  0.3848  1.6377 -1.6239
  967SOL    HW2 2901   2.805   2.888   2.481  0.1385 -1.2111 -0.0988
  968SOL     OW 2902   1.957   1.037   2.637 -0.1398  0.0221 -0.6028
  968SOL    HW1 2903   1.892   1.112   2.607 -0.3415  1.6687  1.1291
  968SOL    HW2 2904   1.951   0.945   2.583 -1.2237 -1.5009 -0.7619
  969SOL     OW 2905   2.769   2.502   1.067 -0.3805 -0.3135  0.4881
  969SOL    HW1 2906   2.758   2.474   0.969 -1.6021 -1.9500  1.3190
  969SOL    HW2 2907   2.799   2.422   1.127 -1.4983 -0.2536  1.3984
  970SOL     OW 2908   1.107   2.130   1.861 -0.8903 -0.2348 -0.2509
  970SOL    HW1 2909   1.034   2.055   1.871 -1.3343 -1.4070 -1.4821
  970SOL    HW2 2910   1.081   2.218   1.906  0.3203 -1.5977 -2.6288
  971SOL     OW 2911   2.843   2.047   1.956  0.3721 -0.1779  0.7920
  971SOL    HW1 2912   2.877   2.137   1.988 -0.5918  1.1503 -1.2497
  971SOL    HW2 2913   2.885   2.025   1.865  0.8931 -1.7453  1.1489
  972SOL     OW 2914   1.931   2.492   0.261  0.3842 -0.0739 -0.1052
  972SOL    HW1 2915   1.944   2.399   0.213  3.0125 -0.2169  3.5992
  972SOL    HW2 2916   1.947   2.489   0.362  0.1138 -1.9069  0.3859
  973SOL     OW 2917   1.201   0.903   1.873  0.6087  0.4470 -0.2497
  973SOL    HW1 2918   1.133   0.831   1.898 -1.4567  0.3030 -0.3157
  973SOL    HW2 2919   1.155   0.972   1.815  0.4313 -1.0898  0.6266
  974SOL     OW 2920   1.642   0.573   1.976  0.0041 -0.3502 -0.8453
  974SOL    HW1 2921   1.738   0.593   1.936 -1.0497 -1.8704  0.9445
  974SOL    HW2 2922   1.570   0.646   1.948  0.8172  1.3539 -0.4439
  975SOL     OW 2923   2.362   3.048   3.059 -0.1722  0.2357  0.4496
  975SOL    HW1 2924   2.302   2.979   3.108 -1.0198  0.4244  2.3111
  975SOL    HW2 2925   2.395   3.018   2.966 -1.0324 -0.4301 -1.2215
  976SOL     OW 2926   1.906   2.802   2.356 -0.2832  0.7956 -0.2260
  976SOL    HW1 2927   1.808   2.773   2.374  0.9075  0.6340  0.6452
  976SOL    HW2 2928   1.963   2.808   2.446 -0.2296  0.9544  0.6402
  977SOL     OW 2929   0.504   0.657   1.020  0.3874 -0.7892 -0.5080
  977SOL    HW1 2930   0.433   0.637   0.944  0.3280 -0.2525  0.5881
  977SOL    HW2 2931   0.531   0.760   1.025  0.4295 -3.3419 -1.6458
   3.10000   3.10000   3.10000
