1000 SPC/Fw water molecules t=   1.78000 step= 1780
 2931
    1SOL     OW    1   2.517   0.364   2.665  0.4362 -0.2370 -0.0753
    1SOL    HW1    2   2.513   0.261   2.646  2.0364 -0.4511 -2.7688
    1SOL    HW2    3   2.583   0.385   2.740 -1.8663 -2.1506 -0.6910
    2SOL     OW    4   2.722   2.907   1.377 -0.4173 -0.9542  0.1247
    2SOL    HW1    5   2.810   2.938   1.334 -0.1073  0.3299 -2.2076
    2SOL    HW2    6   2.705   2.944   1.473 -1.2605  1.6579  1.6160
    3SOL     OW    7   2.719   2.454   0.393  0.2989 -0.3012  0.5082
    3SOL    HW1    8   2.626   2.415   0.363  1.4701 -0.8218  0.3730
    3SOL    HW2    9   2.725   2.498   0.489 -0.1685 -2.0684  1.6452
    4SOL     OW   10   1.291   1.536   2.445 -0.4714 -0.2877  0.0280
    4SOL    HW1   11   1.208   1.506   2.391 -2.9402  1.6099  1.9356
    4SOL    HW2   12   1.268   1.531   2.543  0.6552 -0.8321 -0.8408
    5SOL     OW   13   1.120   1.581   2.979  0.2228 -0.0856 -0.8029
    5SOL    HW1   14   1.183   1.659   3.012 -0.7089 -0.2067 -2.7032
    5SOL    HW2   15   1.039   1.612   2.916 -0.5406 -2.5756  0.4728
    6SOL     OW   16   0.231   1.837   0.002 -0.7665  0.5939  0.5278
    6SOL    HW1   17   0.151   1.854   0.067 -3.4093  2.5598  0.9350
    6SOL    HW2   18   0.296   1.765   0.046  1.7968  0.3788 -1.2772
    7SOL     OW   19   2.510   0.922   1.077  0.2724  0.5093 -0.2033
    7SOL    HW1   20   2.420   0.873   1.097 -0.4706 -1.3969 -0.2301
    7SOL    HW2   21   2.547   0.909   0.982  1.0985  0.4291  0.8162
    8SOL     OW   22   0.407   0.676   1.527  0.1759  0.5169 -0.7471
    8SOL    HW1   23   0.497   0.624   1.522  0.6055  1.3902 -1.9265
    8SOL    HW2   24   0.383   0.731   1.442  0.5236  1.6913 -0.0216
    9SOL     OW   25   1.122   0.894   2.346 -0.4621  0.1563 -0.2773
    9SOL    HW1   26   1.189   0.927   2.271 -2.4319 -1.6144  3.7613
    9SOL    HW2   27   1.130   0.793   2.365  2.3258  2.2651 -0.5011
   10SOL     OW   28   0.663   1.400   1.266 -0.0471  0.0294  0.1136
   10SOL    HW1   29   0.578   1.375   1.214  1.9924 -0.0073  0.9695
   10SOL    HW2   30   0.660   1.497   1.306 -1.7712  3.6992  1.0997
   11SOL     OW   31   2.316   2.861   0.918 -0.0780 -0.2738 -0.2610
   11SOL    HW1   32   2.278   2.794   0.991 -1.2925 -1.8529  1.1285
   11SOL    HW2   33   2.419   2.879   0.930 -3.1572 -0.4534 -1.2713
   12SOL     OW   34   1.482   0.850   0.485 -0.3227 -0.4470  0.0437
   12SOL    HW1   35   1.403   0.863   0.420 -1.0972  3.7443  1.2314
   12SOL    HW2   36   1.549   0.783   0.451  0.8668  2.1198  0.0706
   13SOL     OW   37   2.459   0.741   1.789 -0.2319 -0.1329  0.2153
   13SOL    HW1   38   2.401   0.682   1.853 -3.3745 -1.5972 -0.2403
   13SOL    HW2   39   2.448   0.706   1.692  1.0445  0.5333  2.0473
   14SOL     OW   40   1.949   3.066   0.591 -0.4963 -0.4433 -0.3254
   14SOL    HW1   41   1.855   3.104   0.571 -0.1915 -1.8710  0.8469
   14SOL    HW2   42   1.965   3.048   0.693 -1.0038  2.1155  2.9402
   15SOL     OW   43   1.929   2.146   2.672 -0.3547  0.3016  0.1643
   15SOL    HW1   44   1.858   2.136   2.746 -1.4499 -1.9784 -0.5500
   15SOL    HW2   45   1.923   2.068   2.602  1.1952 -1.6274 -2.0811
   16SOL     OW   46   1.561   1.769   3.051 -0.3752  0.1477 -0.5115
   16SOL    HW1   47   1.527   1.777   3.152 -0.8881  3.1393  0.7677
   16SOL    HW2   48   1.652   1.822   3.039  0.4971  0.3159 -1.1666
   17SOL     OW   49   0.113   0.473   0.170 -0.1841 -0.1244 -0.1630
   17SOL    HW1   50   0.210   0.477   0.125  1.5208  1.0828  3.6566
   17SOL    HW2   51   0.039   0.510   0.105 -0.7937 -0.8419 -0.4309
   18SOL     OW   52   0.900   2.875   2.162 -0.6848 -0.5737  0.1376
   18SOL    HW1   53   0.861   2.781   2.174  2.8199  1.0799  1.7789
   18SOL    HW2   54   0.988   2.878   2.106  0.2844 -0.0830  2.8848
   19SOL     OW   55   0.530   0.948   1.904 -0.7898  0.5774 -0.0287
   19SOL    HW1   56   0.580   0.878   1.963  1.3036  0.3235  1.6360
   19SOL    HW2   57   0.596   1.019   1.864 -0.4871  1.5826  0.4325
   20SOL     OW   58   0.244   2.801   0.755  0.5297 -0.5038 -0.9958
   20SOL    HW1   59   0.142   2.825   0.768 -1.3377  1.2488  0.2661
   20SOL    HW2   60   0.251   2.712   0.708  0.1204  2.9643  0.5259
   21SOL     OW   61   2.778   0.278   2.017  0.4670 -0.0725 -0.1085
   21SOL    HW1   62   2.724   0.205   1.965  1.3787 -2.3601  1.2463
   21SOL    HW2   63   2.857   0.239   2.076  1.8281  3.0483  2.4666
   22SOL     OW   64   2.382   0.177   0.140  0.6143 -0.0633 -0.1744
   22SOL    HW1   65   2.398   0.098   0.067 -1.0218  1.3543  0.5027
   22SOL    HW2   66   2.298   0.228   0.104  2.0846  0.5462 -2.1061
   23SOL     OW   67   2.823   0.523   0.683  0.2061 -0.3323 -0.3442
   23SOL    HW1   68   2.851   0.451   0.611  0.2121 -2.3475 -0.0416
   23SOL    HW2   69   2.815   0.621   0.647 -1.3530  2.2532 -0.6012
   24SOL     OW   70   0.315   1.879   0.458 -0.1294  0.5186 -0.7562
   24SOL    HW1   71   0.327   1.973   0.419  0.3969 -1.6003  1.5670
   24SOL    HW2   72   0.403   1.821   0.442  0.2049 -0.6598  0.4540
   25SOL     OW   73   2.304   0.604   0.221  0.2335 -0.3876  0.1509
   25SOL    HW1   74   2.281   0.607   0.119 -0.8029 -0.6580 -0.2526
   25SOL    HW2   75   2.336   0.508   0.251 -0.0488  0.0410 -0.1197
   26SOL     OW   76   2.446   2.161   2.087 -0.3538  0.4816 -0.4816
   26SOL    HW1   77   2.518   2.194   2.155  0.4284 -1.3299 -1.4519
   26SOL    HW2   78   2.492   2.101   2.011 -1.3632 -1.2160 -1.5436
   27SOL     OW   79   0.641   3.029   0.121 -0.0489 -0.2342  0.0853
   27SOL    HW1   80   0.726   3.080   0.106  0.1983  0.2910  1.0935
   27SOL    HW2   81   0.586   3.003   0.037 -0.3386 -1.2214 -2.4742
   28SOL     OW   82   1.580   0.163   0.314  0.0854  0.1347  0.3107
   28SOL    HW1   83   1.589   0.133   0.217 -0.6519 -1.3428  2.1920
   28SOL    HW2   84   1.621   0.261   0.328 -1.3028  0.9276  0.8871
   29SOL     OW   85   2.011   0.551   0.315 -0.2529 -0.0895  0.1466
   29SOL    HW1   86   1.987   0.585   0.409  1.3302 -0.2417 -1.4051
   29SOL    HW2   87   2.113   0.566   0.300  1.4190 -1.2318  1.3135
   30SOL     OW   88   0.202   2.100   0.925 -0.0461  0.8081 -0.5164
   30SOL    HW1   89   0.177   2.022   0.859 -2.1590 -1.1763 -1.1313
   30SOL    HW2   90   0.119   2.159   0.947 -0.6925  1.4523  0.4872
   31SOL     OW   91   2.090   0.086   2.421 -0.2916  0.0871 -0.4467
   31SOL    HW1   92   2.043   0.056   2.509 -1.1979  0.4556 -0.0859
   31SOL    HW2   93   2.028   0.065   2.339  2.3229 -1.5637 -1.1248
   32SOL     OW   94   3.082   3.057   0.256 -0.1022  0.0054  0.1763
   32SOL    HW1   95   3.049   2.956   0.279 -0.7381 -1.6472 -2.5991
   32SOL    HW2   96   3.184   3.063   0.231 -0.3910 -0.0176 -1.3825
   33SOL     OW   97   0.891   0.254   0.642 -0.8227  0.8252 -0.0697
   33SOL    HW1   98   0.866   0.191   0.558  1.5891 -1.5175 -1.6577
   33SOL    HW2   99   0.986   0.295   0.629  1.8172  1.4574 -0.9638
   34SOL     OW  100   0.326   2.672   1.023 -0.3821 -0.4545  0.4392
   34SOL    HW1  101   0.284   2.712   0.937  1.2214  1.3676  0.5924
   34SOL    HW2  102   0.424   2.692   1.040 -1.8807  0.2593  1.8389
   35SOL     OW  103   0.065   0.158   1.911  0.5065  0.7611 -0.6420
   35SOL    HW1  104   0.101   0.060   1.921  0.9008  3.0486  0.7908
   35SOL    HW2  105   0.026   0.166   1.814 -0.4142 -0.7485 -0.9762
   36SOL     OW  106   1.893   1.219   1.497 -0.7413  0.3103  0.0594
   36SOL    HW1  107   1.983   1.167   1.502 -0.2965 -1.8013  2.0305
   36SOL    HW2  108   1.898   1.301   1.434  3.0504  0.5120  1.7737
   37SOL     OW  109   1.140   0.258   1.008  0.3054  0.0661 -0.0108
   37SOL    HW1  110   1.155   0.362   0.990  0.1723  4.2529 -0.7903
   37SOL    HW2  111   1.217   0.195   0.972  0.1293  0.8171 -2.2575
   38SOL     OW  112   1.160   2.844   2.461 -0.5235 -0.7109 -0.0878
   38SOL    HW1  113   1.070   2.792   2.486 -0.5374 -1.9536  2.2793
   38SOL    HW2  114   1.149   2.924   2.398  0.3852 -0.4361 -1.1625
   39SOL     OW  115   2.482   1.414   2.983 -0.2850 -0.1708 -0.2413
   39SOL    HW1  116   2.524   1.319   3.006 -0.0752  0.0860  1.8072
   39SOL    HW2  117   2.387   1.428   3.025 -0.7284 -0.6364 -0.9951
   40SOL     OW  118   2.041   2.524   2.511  0.0912  0.1695  0.0324
   40SOL    HW1  119   1.992   2.615   2.528 -0.3737  1.4292  0.1021
   40SOL    HW2  120   1.966   2.447   2.497  1.7941 -2.2532  1.2132
   41SOL     OW  121   3.028   0.710   2.810 -0.1143 -0.0274  0.7924
   41SOL    HW1  122   3.007   0.793   2.868  1.8033 -1.1782 -1.7098
   41SOL    HW2  123   2.954   0.675   2.747 -0.0778 -0.6645 -0.1535
   42SOL     OW  124   1.719   1.755   0.491 -0.3110  0.6488 -0.3866
   42SOL    HW1  125   1.701   1.653   0.482 -1.2857  0.4843  0.5811
   42SOL    HW2  126   1.723   1.800   0.401 -1.8993 -1.7185 -1.1037
   43SOL     OW  127   0.485   1.686   1.128  0.5433  0.1946 -0.2981
   43SOL    HW1  128   0.474   1.585   1.093  1.9923 -2.9021 -1.9187
   43SOL    HW2  129   0.417   1.717   1.202 -0.8465  0.0283  0.0057
   44SOL     OW  130   1.678   2.336   2.925 -0.1462  0.3939  0.2655
   44SOL    HW1  131   1.580   2.358   2.948  1.2276  3.3333  1.3496
   44SOL    HW2  132   1.719   2.395   2.849  1.4716  0.5398  0.3453
   45SOL     OW  133   0.362   1.903   2.643 -0.1292 -0.2975  0.0930
   45SOL    HW1  134   0.301   1.860   2.569 -0.0494  0.6507  0.3110
   45SOL    HW2  135   0.456   1.856   2.659  1.4793  4.4107 -0.1795
   46SOL     OW  136   1.334   0.729   0.242  0.0057 -0.0639  0.1521
   46SOL    HW1  137   1.305   0.790   0.158 -1.6997  0.1341 -2.4736
   46SOL    HW2  138   1.318   0.625   0.224  0.5644 -0.6588 -2.4893
   47SOL     OW  139   0.127   2.375   1.608  0.5226  0.0262  0.1680
   47SOL    HW1  140   0.085   2.301   1.665 -1.8664  1.5656 -1.2165
   47SOL    HW2  141   0.120   2.347   1.511  0.5399 -0.5180  0.8624
   48SOL     OW  142   2.632   0.747   0.131 -0.1248  0.0825  0.3194
   48SOL    HW1  143   2.616   0.699   0.219  0.6060  0.9733 -0.6065
   48SOL    HW2  144   2.732   0.737   0.106 -0.7662  2.9085  1.4677
   49SOL     OW  145   0.345   0.850   1.747 -0.1162  0.3222  0.3082
   49SOL    HW1  146   0.430   0.883   1.801  2.2327  1.3863 -0.0419
   49SOL    HW2  147   0.372   0.805   1.655 -2.1900 -0.3279 -0.1450
   50SOL     OW  148   1.707   1.095   0.313 -0.2883  0.1396  0.1188
   50SOL    HW1  149   1.713   0.996   0.281 -2.3776  1.2654 -1.5650
   50SOL    HW2  150   1.651   1.101   0.402 -0.3446  0.9351 -1.1888
   51SOL     OW  151   2.978   1.744   0.304  0.5781  0.2040  0.1940
   51SOL    HW1  152   2.902   1.676   0.329 -0.9337 -1.5646 -2.9504
   51SOL    HW2  153   3.070   1.715   0.345  0.8318  0.0141 -0.4375
   52SOL     OW  154   0.768   2.156   0.569  0.1131 -0.1119  0.2490
   52SOL    HW1  155   0.675   2.191   0.597  0.2467  1.0194  2.3469
   52SOL    HW2  156   0.810   2.101   0.647  0.1375 -0.1466 -1.3960
   53SOL     OW  157   0.310   0.434   1.437 -0.2271  0.6563 -0.0984
   53SOL    HW1  158   0.333   0.529   1.477 -0.8074  1.1410  1.3105
   53SOL    HW2  159   0.294   0.437   1.334 -1.0800 -0.6870 -0.2655
   54SOL     OW  160   1.743   0.428  -0.001 -0.1827 -0.4783 -0.0538
   54SOL    HW1  161   1.827   0.387   0.048 -1.1625 -0.7714  0.3526
   54SOL    HW2  162   1.661   0.415   0.060  0.3259 -0.9777 -0.0464
   55SOL     OW  163   0.797   2.954   0.623  0.1175  0.1259  0.0786
   55SOL    HW1  164   0.737   3.039   0.611 -1.3844 -0.6631 -0.7708
   55SOL    HW2  165   0.897   2.981   0.605  0.6229  0.0931 -2.6818
   56SOL     OW  166   0.541   1.538   3.047 -0.6440  0.2322 -0.4721
   56SOL    HW1  167   0.473   1.583   3.110  0.3652 -3.8455 -2.5145
   56SOL    HW2  168   0.503   1.457   2.997 -0.0068  0.8426 -0.6702
   57SOL     OW  169   1.667   2.471   2.353  0.2066  0.1859  0.0760
   57SOL    HW1  170   1.745   2.403   2.341  0.3027 -0.3636 -2.3557
   57SOL    HW2  171   1.630   2.471   2.450  2.2929  2.3359 -0.0121
   58SOL     OW  172   0.639   0.208   1.104 -0.4882 -0.2740  0.0978
   58SOL    HW1  173   0.576   0.244   1.181  0.2264 -0.4328  0.8076
   58SOL    HW2  174   0.646   0.106   1.094  0.3519  1.5497 -0.5316
   59SOL     OW  175   0.468   2.365   2.584 -0.1163  0.2356 -0.7552
   59SOL    HW1  176   0.487   2.281   2.645  0.0901  0.5463 -3.4355
   59SOL    HW2  177   0.547   2.432   2.592  2.1484  0.6398 -1.3461
   60SOL     OW  178   2.293   2.042   2.289 -0.4355  0.5708  0.4548
   60SOL    HW1  179   2.345   2.074   2.203  1.6319  0.4414  1.0600
   60SOL    HW2  180   2.331   2.079   2.379 -1.5901 -0.0121 -1.4667
   61SOL     OW  181   1.193   0.655   0.468 -0.0002 -0.2446 -0.0171
   61SOL    HW1  182   1.097   0.682   0.497  2.6924 -1.1043  1.9312
   61SOL    HW2  183   1.237   0.704   0.385  1.0972  1.9147 -0.1781
   62SOL     OW  184   2.800   1.693   2.698  0.0907 -0.1160  0.4602
   62SOL    HW1  185   2.727   1.616   2.701 -1.9423 -2.6169 -1.5632
   62SOL    HW2  186   2.892   1.664   2.740 -0.9647 -0.7942  1.2892
   63SOL     OW  187   0.537   0.887   0.175  0.1000 -0.1600 -0.2879
   63SOL    HW1  188   0.575   0.949   0.103 -0.5434  1.2372 -0.7463
   63SOL    HW2  189   0.592   0.879   0.264  2.6662 -0.9423 -1.5473
   64SOL     OW  190   2.999   0.553   2.358  0.1758 -0.3431  0.6091
   64SOL    HW1  191   2.930   0.606   2.421  0.1530  0.7346 -0.1289
   64SOL    HW2  192   3.008   0.606   2.264  0.2264 -0.6931  1.9121
   65SOL     OW  193   0.222   1.429   0.670 -0.4562 -0.2323 -0.3772
   65SOL    HW1  194   0.220   1.515   0.725 -1.9465 -0.0622 -2.2324
   65SOL    HW2  195   0.269   1.442   0.580  1.1068  1.2364 -2.8268
   66SOL     OW  196   2.591   0.329   0.527  0.3098 -0.3173 -0.3822
   66SOL    HW1  197   2.693   0.297   0.544  3.8201  0.6045 -0.0108
   66SOL    HW2  198   2.529   0.267   0.581 -1.0450 -0.3322  3.2041
   67SOL     OW  199   0.587   2.503   1.483  0.2627 -0.7302  0.9716
   67SOL    HW1  200   0.669   2.492   1.545 -3.2174  1.2838  1.5122
   67SOL    HW2  201   0.528   2.416   1.477 -1.1303 -2.1668  0.7545
   68SOL     OW  202   0.915   1.060   2.498  0.0285  0.2293  0.8346
   68SOL    HW1  203   0.987   0.990   2.466 -0.6398 -0.6172 -2.0318
   68SOL    HW2  204   0.848   1.086   2.420  0.3967  0.6474  0.1629
   69SOL     OW  205   0.796   2.595   2.357 -0.2793 -0.5560 -0.0091
   69SOL    HW1  206   0.823   2.538   2.271 -1.5356  0.7681  0.2161
   69SOL    HW2  207   0.699   2.585   2.392 -0.5044  4.0649  0.9722
   70SOL     OW  208   0.485   0.158   2.579  0.1322 -0.3221  0.5343
   70SOL    HW1  209   0.395   0.147   2.631  0.5932  0.1366 -1.1271
   70SOL    HW2  210   0.548   0.077   2.596  1.6991  1.2524 -1.2443
   71SOL     OW  211   1.062   1.762   0.303  0.0819 -0.0295 -0.4539
   71SOL    HW1  212   1.001   1.762   0.390 -1.3300  0.7074  2.0731
   71SOL    HW2  213   1.012   1.761   0.211 -0.1414 -1.3449 -1.8915
   72SOL     OW  214   1.874   0.266   2.146 -0.2571 -0.1828 -0.3782
   72SOL    HW1  215   1.937   0.328   2.098  0.6584 -1.2599  2.3317
   72SOL    HW2  216   1.909   0.172   2.146 -1.2654  2.7071 -0.5078
   73SOL     OW  217   2.746   2.207   2.494 -0.3825 -0.1128 -0.2000
   73SOL    HW1  218   2.753   2.118   2.438 -0.8728 -0.1744 -2.5813
   73SOL    HW2  219   2.786   2.199   2.590  2.2780  2.9706 -1.0754
   74SOL     OW  220   2.718   2.952   2.129 -0.0431  0.5580  0.7273
   74SOL    HW1  221   2.643   2.940   2.200 -3.7205 -1.2151  0.8348
   74SOL    HW2  222   2.812   2.971   2.179  1.2341  0.7056 -0.0452
   75SOL     OW  223   0.935   0.799   1.171 -0.3950 -0.3904  0.1864
   75SOL    HW1  224   0.839   0.815   1.139  1.4445  1.9936 -0.3211
   75SOL    HW2  225   0.966   0.872   1.235 -2.9991 -0.7046 -1.1375
   76SOL     OW  226   1.867   1.257   2.634 -0.8692  0.0381  0.0917
   76SOL    HW1  227   1.771   1.227   2.657  2.9318 -1.6237  2.2886
   76SOL    HW2  228   1.883   1.358   2.643 -1.9999 -0.5191 -2.8230
   77SOL     OW  229   2.919   0.924   1.042  0.3229 -0.3280 -0.1993
   77SOL    HW1  230   2.900   0.823   1.044 -2.4538  0.8972  1.0479
   77SOL    HW2  231   3.008   0.949   1.091  1.8266 -1.0675 -1.8856
   78SOL     OW  232   1.947   1.422   1.340 -0.4151  0.0363 -0.2274
   78SOL    HW1  233   2.034   1.429   1.278 -0.8945 -0.7127  0.7552
   78SOL    HW2  234   1.861   1.440   1.282 -1.7931 -0.5368 -1.2130
   79SOL     OW  235   0.703   1.463   0.844 -0.3703 -0.0089  0.0580
   79SOL    HW1  236   0.609   1.457   0.889  1.7401 -1.3020 -0.8882
   79SOL    HW2  237   0.725   1.375   0.797  0.8089  1.7132  1.5205
   80SOL     OW  238   0.667   0.469   1.601  0.2291  0.4312  0.6413
   80SOL    HW1  239   0.683   0.532   1.517  0.8582 -1.8619 -1.1661
   80SOL    HW2  240   0.689   0.370   1.584  2.9601  2.4975 -0.1762
   81SOL     OW  241   1.076   1.272   2.503 -0.1753  0.5855  0.0125
   81SOL    HW1  242   1.039   1.178   2.487  0.6021  0.0685  1.4416
   81SOL    HW2  243   1.004   1.342   2.496  0.2575  0.8517 -2.6098
   82SOL     OW  244   0.929   2.956   1.602  0.5423  0.1570  0.5686
   82SOL    HW1  245   1.015   2.898   1.614 -0.8367 -2.5710  0.9225
   82SOL    HW2  246   0.905   2.975   1.501 -0.4017  0.3519  2.5776
   83SOL     OW  247   2.647   2.350   0.882 -0.2817 -0.1781  0.9337
   83SOL    HW1  248   2.563   2.302   0.833 -0.5507 -4.9748 -1.7204
   83SOL    HW2  249   2.651   2.452   0.866 -1.5567 -2.8966 -3.4142
   84SOL     OW  250   0.767   3.087   2.296 -0.1708 -0.4717  0.5141
   84SOL    HW1  251   0.713   3.056   2.379  0.0435 -1.0377  0.8996
   84SOL    HW2  252   0.790   3.003   2.231 -3.2574  0.0058 -0.8092
   85SOL     OW  253   0.320   1.709   1.349 -0.2362 -0.0488 -0.1592
   85SOL    HW1  254   0.262   1.784   1.380 -1.6579 -1.4362  0.6417
   85SOL    HW2  255   0.377   1.665   1.424  2.3985  0.3824 -0.2229
   86SOL     OW  256   0.444   1.043   1.419 -0.2721 -0.1209 -0.9763
   86SOL    HW1  257   0.411   0.965   1.359  2.9485  0.4155 -0.2559
   86SOL    HW2  258   0.548   1.032   1.446  0.7127 -1.5683  0.5727
   87SOL     OW  259   1.646   0.632   0.294  0.3068 -0.4005  0.9105
   87SOL    HW1  260   1.720   0.704   0.288  1.3825  1.1819 -0.9835
   87SOL    HW2  261   1.606   0.602   0.205  1.5113  2.3754 -0.1503
   88SOL     OW  262   1.573   1.329   0.253  0.6386  0.0383  0.1595
   88SOL    HW1  263   1.624   1.242   0.274  0.1514 -0.9473  0.5986
   88SOL    HW2  264   1.471   1.317   0.225 -3.9239 -0.8339 -3.4869
   89SOL     OW  265   0.002   0.389   0.690 -0.1243  0.0814  0.4216
   89SOL    HW1  266   0.098   0.371   0.654 -0.9907 -0.4562 -2.9437
   89SOL    HW2  267  -0.061   0.305   0.699 -0.7123 -1.3306  0.6074
   90SOL     OW  268   0.746   1.530   0.129  0.2705  0.5182 -0.5774
   90SOL    HW1  269   0.839   1.482   0.131  0.2143 -0.2777 -0.0113
   90SOL    HW2  270   0.683   1.498   0.052 -0.5246 -1.1944 -0.4771
   91SOL     OW  271   1.306   1.511   1.696  0.0877 -0.2163  0.3521
   91SOL    HW1  272   1.277   1.563   1.782  0.9720 -1.3133 -1.4290
   91SOL    HW2  273   1.371   1.433   1.721 -0.0240  2.3306 -0.6557
   92SOL     OW  274   0.035   1.005   1.202  0.7006  0.0385 -0.2090
   92SOL    HW1  275   0.064   1.098   1.171 -2.7203 -1.8612  0.4421
   92SOL    HW2  276   0.043   0.992   1.301 -0.1157  0.9638 -3.5488
   93SOL     OW  277   3.040   2.645   0.065 -0.3106  0.0623 -0.1608
   93SOL    HW1  278   2.978   2.614  -0.016  1.9143 -0.2337  0.2742
   93SOL    HW2  279   3.109   2.569   0.096  1.3999  0.2406 -1.3268
   94SOL     OW  280   1.524   1.320   1.680  0.1170  0.6487 -0.2467
   94SOL    HW1  281   1.603   1.251   1.698  1.6396  1.7456  3.0371
   94SOL    HW2  282   1.561   1.397   1.623  0.6851 -1.2397  0.3671
   95SOL     OW  283   1.357   2.455   2.927 -0.1841 -0.0649  0.3328
   95SOL    HW1  284   1.281   2.469   2.996  2.3263  2.0979 -1.2780
   95SOL    HW2  285   1.384   2.358   2.908  1.2123 -1.5791  0.4619
   96SOL     OW  286   0.569   2.165   1.298  0.1444 -0.1217 -0.4960
   96SOL    HW1  287   0.514   2.124   1.217 -0.2076 -1.1031 -0.8850
   96SOL    HW2  288   0.609   2.097   1.365 -2.8654  0.4673  0.9854
   97SOL     OW  289   0.247   1.593   2.387  0.3147 -0.2704  0.3867
   97SOL    HW1  290   0.242   1.694   2.350 -1.4836 -1.2096 -4.1360
   97SOL    HW2  291   0.238   1.579   2.489 -1.7025 -1.3370 -1.8637
   98SOL     OW  292   2.212   1.674   1.180  0.3327  0.2164  0.0139
   98SOL    HW1  293   2.187   1.573   1.174  2.9068 -2.8853 -1.4164
   98SOL    HW2  294   2.315   1.685   1.149  1.6077 -0.0010 -1.6657
   99SOL     OW  295   2.622   2.047   1.300  0.2489  0.5529  0.6765
   99SOL    HW1  296   2.661   2.113   1.369 -2.1637  0.3697 -3.5287
   99SOL    HW2  297   2.537   2.000   1.337 -0.0845 -0.3026 -0.5539
  100SOL     OW  298   2.335   0.351   2.127 -0.3435  0.0209  0.0275
  100SOL    HW1  299   2.279   0.344   2.217  0.9993 -1.7908  0.4613
  100SOL    HW2  300   2.436   0.373   2.147  1.6654 -1.3889  0.2451
  101SOL     OW  301   0.358   1.471   0.426 -0.4693  0.8084  0.2084
  101SOL    HW1  302   0.352   1.547   0.497  1.4303  3.5987  0.8317
  101SOL    HW2  303   0.450   1.462   0.378  0.2186  1.8253  0.6223
  102SOL     OW  304   2.261   1.072   0.872  0.6790  0.0608  0.7697
  102SOL    HW1  305   2.213   0.982   0.868  0.2524 -1.9907  0.4446
  102SOL    HW2  306   2.333   1.075   0.798 -4.9788  1.6788 -0.1649
  103SOL     OW  307   2.277   0.089   0.373 -0.3991 -0.2606  0.2787
  103SOL    HW1  308   2.352   0.121   0.303  0.0977  0.0695 -1.6809
  103SOL    HW2  309   2.303   0.002   0.422 -2.2484  2.9079  0.9117
  104SOL     OW  310   3.060   1.805   2.216  0.8655  0.1237  0.4167
  104SOL    HW1  311   3.120   1.802   2.127 -1.8719 -0.5769  0.4464
  104SOL    HW2  312   2.961   1.809   2.185 -1.7504  3.7972 -1.5364
  105SOL     OW  313   1.310   2.095   0.756 -0.5603  0.1100  0.2668
  105SOL    HW1  314   1.273   2.148   0.675 -0.6456 -0.8175 -1.1210
  105SOL    HW2  315   1.302   1.991   0.740  0.9825 -0.9521 -1.5224
  106SOL     OW  316   2.132   0.409   1.437 -0.3354 -0.0538  0.2583
  106SOL    HW1  317   2.049   0.353   1.410  1.3167  0.5542  1.8681
  106SOL    HW2  318   2.162   0.407   1.537  2.7168 -1.2337  0.1733
  107SOL     OW  319   1.924   2.905   1.157 -0.0885  0.3823  0.4270
  107SOL    HW1  320   1.845   2.957   1.201  0.4095  2.0192 -1.5642
  107SOL    HW2  321   1.882   2.813   1.119 -0.2628 -2.1636 -0.6487
  108SOL     OW  322   0.859   2.808   1.114  0.2908 -0.4256 -0.5132
  108SOL    HW1  323   0.875   2.720   1.067 -1.5293  0.2381 -0.7980
  108SOL    HW2  324   0.946   2.834   1.164  1.4526 -2.5578 -0.4929
  109SOL     OW  325   2.176   0.161   0.732  0.2887 -0.2425 -0.1220
  109SOL    HW1  326   2.119   0.101   0.672 -1.1653 -0.4083  1.7339
  109SOL    HW2  327   2.155   0.143   0.831  0.9564 -0.0141  1.7019
  110SOL     OW  328   0.506   2.830   2.753 -0.1392 -0.4677 -0.0369
  110SOL    HW1  329   0.507   2.847   2.647  1.7391 -0.5111 -2.0068
  110SOL    HW2  330   0.568   2.754   2.784  0.3358  0.3117 -0.3669
  111SOL     OW  331   1.325   0.589   2.293 -0.2371  0.4488  0.5057
  111SOL    HW1  332   1.240   0.600   2.354  0.4440  0.4418  0.4705
  111SOL    HW2  333   1.390   0.521   2.341  0.8184 -0.5885  2.6856
  112SOL     OW  334   1.737   0.490   1.540 -0.0415  1.1587 -0.4073
  112SOL    HW1  335   1.722   0.515   1.439  2.3154 -0.6250  0.7233
  112SOL    HW2  336   1.652   0.449   1.588 -2.3700 -1.2837  2.8021
  113SOL     OW  337   2.288   1.683   1.798 -0.9593  0.4029 -0.0765
  113SOL    HW1  338   2.352   1.608   1.768 -2.3147  2.0221  2.1931
  113SOL    HW2  339   2.305   1.706   1.896  0.8237 -0.5924  0.0791
  114SOL     OW  340   0.231   0.393   1.154  0.6014 -0.0985  0.2829
  114SOL    HW1  341   0.126   0.398   1.170  2.7589 -2.5853 -2.0400
  114SOL    HW2  342   0.257   0.443   1.063  2.2340 -0.0932 -1.6300
  115SOL     OW  343   2.678   1.540   1.254 -0.2410  0.4315 -0.0407
  115SOL    HW1  344   2.692   1.443   1.295 -2.0875  0.3034 -0.0198
  115SOL    HW2  345   2.759   1.570   1.197 -1.2838  0.2808 -3.6117
  116SOL     OW  346   1.931   0.912   0.722 -0.3262 -0.1901 -0.6493
  116SOL    HW1  347   1.838   0.870   0.694 -1.3784 -0.2892  0.1995
  116SOL    HW2  348   1.931   1.020   0.728 -3.6418  1.9534 -0.7783
  117SOL     OW  349   1.133   0.354   0.562  0.0740 -0.0873  0.5736
  117SOL    HW1  350   1.176   0.442   0.602 -0.3705 -1.8649 -1.6962
  117SOL    HW2  351   1.106   0.365   0.462  1.1107  2.6102  1.8501
  118SOL     OW  352   1.148   1.223   1.090 -0.2224 -0.2583 -0.3636
  118SOL    HW1  353   1.043   1.207   1.094 -0.9957  0.8495  1.3824
  118SOL    HW2  354   1.174   1.321   1.111  1.4707  1.1694  0.0482
  119SOL     OW  355   1.878   1.592   2.195  0.3156  0.4141 -0.2848
  119SOL    HW1  356   1.800   1.645   2.145  0.1763  0.2065 -1.9977
  119SOL    HW2  357   1.956   1.573   2.130 -1.8019 -0.3034 -2.4729
  120SOL     OW  358   2.970   2.812   0.269 -0.2112  0.4893  0.2598
  120SOL    HW1  359   2.981   2.741   0.189 -1.5602 -2.0492  0.3393
  120SOL    HW2  360   2.875   2.844   0.282 -0.7596 -1.5184 -0.6893
  121SOL     OW  361   1.998   0.780   2.326 -0.4649 -0.1354  0.4290
  121SOL    HW1  362   2.051   0.854   2.279 -1.7299 -0.4348 -0.8373
  121SOL    HW2  363   2.005   0.687   2.277 -1.0263  1.7437  0.0760
  122SOL     OW  364   2.637   2.493   1.362 -0.1326 -0.0020  0.0066
  122SOL    HW1  365   2.664   2.435   1.278 -2.3810 -1.2230  0.2935
  122SOL    HW2  366   2.644   2.439   1.450  0.5997 -2.5331  2.2667
  123SOL     OW  367   1.652   0.180   1.660  0.0393 -0.2352 -0.4524
  123SOL    HW1  368   1.667   0.096   1.597  1.3842 -0.5789 -2.2372
  123SOL    HW2  369   1.745   0.209   1.702 -0.4638  0.4530  1.4095
  124SOL     OW  370   3.083   0.401   1.170 -0.3155 -0.4517  0.3160
  124SOL    HW1  371   3.006   0.447   1.225 -3.9552  1.9509 -1.8299
  124SOL    HW2  372   3.099   0.449   1.082  0.2853 -1.5962 -0.8417
  125SOL     OW  373   0.891   1.989   0.759  0.0226 -0.1571  0.0309
  125SOL    HW1  374   0.982   1.954   0.787 -1.6917  3.2249  0.6151
  125SOL    HW2  375   0.834   2.019   0.844 -0.4573  1.8156  0.8583
  126SOL     OW  376   1.895   2.289   2.447  0.2854 -0.2143 -0.5337
  126SOL    HW1  377   1.962   2.258   2.377 -3.1851 -1.6271 -2.1971
  126SOL    HW2  378   1.910   2.240   2.539 -2.3496 -1.2670  1.4445
  127SOL     OW  379   0.903   0.966   0.167  0.0213 -0.3213  0.0252
  127SOL    HW1  380   0.892   1.023   0.252  1.8784  1.9615  0.3241
  127SOL    HW2  381   0.921   0.865   0.193  3.7654  0.4584  1.4364
  128SOL     OW  382   0.930   0.183   1.383 -0.3947  0.0826 -0.5846
  128SOL    HW1  383   0.889   0.255   1.321  3.8728 -1.9934 -0.3432
  128SOL    HW2  384   0.888   0.089   1.369  2.4838  1.7902  0.7322
  129SOL     OW  385   1.890   0.720   1.855  0.2729 -0.0139  0.7522
  129SOL    HW1  386   1.904   0.712   1.748 -0.7497 -3.6296 -1.4144
  129SOL    HW2  387   1.912   0.812   1.892 -1.3853 -0.0452 -1.8182
  130SOL     OW  388   1.397   2.162   1.026  0.0784 -0.2962 -0.1197
  130SOL    HW1  389   1.357   2.133   0.935 -0.2704 -0.5387  0.6392
  130SOL    HW2  390   1.440   2.259   1.019  1.4950 -0.0702  0.0242
  131SOL     OW  391   3.020   1.395   1.434  0.2542  0.1992  0.5112
  131SOL    HW1  392   2.965   1.304   1.456 -0.0836 -0.6728  1.0432
  131SOL    HW2  393   3.115   1.367   1.403 -3.2879  0.6990  1.3860
  132SOL     OW  394   2.059   2.425   0.546  0.3272  0.0164 -0.2528
  132SOL    HW1  395   1.963   2.464   0.541 -1.0286  0.8417  0.7015
  132SOL    HW2  396   2.058   2.335   0.597  0.7654  1.0174 -1.2175
  133SOL     OW  397   1.777   2.504   2.722  0.2264 -0.2038 -0.4178
  133SOL    HW1  398   1.684   2.497   2.674 -0.6829  1.6497  0.9496
  133SOL    HW2  399   1.796   2.592   2.769  1.0128 -4.2990 -0.3405
  134SOL     OW  400   2.618   2.415   1.632 -0.1334  0.2662  0.5035
  134SOL    HW1  401   2.553   2.384   1.707 -0.2272 -1.4541  2.5502
  134SOL    HW2  402   2.672   2.501   1.657  2.2100  0.7344 -0.2534
  135SOL     OW  403   0.804   1.338   2.666  0.3697 -0.3651  0.7943
  135SOL    HW1  404   0.720   1.286   2.706 -0.9989 -0.3723  0.6794
  135SOL    HW2  405   0.804   1.334   2.562 -2.8944 -0.2220 -1.3537
  136SOL     OW  406   1.206   1.999   0.411  0.7274  0.2950  0.5526
  136SOL    HW1  407   1.149   2.073   0.451  0.3562 -0.3648 -0.2699
  136SOL    HW2  408   1.152   1.914   0.396  2.2146  0.5671  1.6621
  137SOL     OW  409   0.450   1.176   2.304  0.6880 -0.6028 -0.0623
  137SOL    HW1  410   0.345   1.177   2.297  2.0128 -1.2939 -1.3635
  137SOL    HW2  411   0.486   1.082   2.339  1.4442 -1.9628 -0.0852
  138SOL     OW  412   2.443   1.481   0.264 -0.0820  0.1285  0.5190
  138SOL    HW1  413   2.370   1.423   0.216 -2.7425 -0.9206 -0.7779
  138SOL    HW2  414   2.483   1.421   0.339 -1.7027  0.8763  0.6637
  139SOL     OW  415   1.897   2.647   1.574  0.0555  0.0407 -0.6310
  139SOL    HW1  416   1.799   2.667   1.548  1.6391 -0.3136  0.0283
  139SOL    HW2  417   1.937   2.581   1.508  2.0355  2.1282  0.8909
  140SOL     OW  418   2.995   2.960   2.599  0.2656  0.1149  0.5135
  140SOL    HW1  419   3.035   2.864   2.609 -1.8603 -1.4877 -0.6055
  140SOL    HW2  420   3.063   3.022   2.561 -1.6130 -1.5644 -1.7696
  141SOL     OW  421   1.305   1.638   1.445 -0.3905  0.0824 -0.7353
  141SOL    HW1  422   1.208   1.679   1.460 -1.6795 -3.2624 -1.4436
  141SOL    HW2  423   1.334   1.574   1.521 -2.3391 -1.2800 -2.2874
  142SOL     OW  424   1.594   0.674   2.233  0.0356  0.0906  0.4200
  142SOL    HW1  425   1.621   0.656   2.131 -0.6351 -2.7360 -0.6981
  142SOL    HW2  426   1.494   0.645   2.250  0.4165  0.1998 -0.6008
  143SOL     OW  427   2.756   0.781   0.532  0.5459 -0.4225  0.5176
  143SOL    HW1  428   2.818   0.829   0.461  1.2812  1.4218 -2.1080
  143SOL    HW2  429   2.785   0.802   0.631  2.1035 -2.3284 -0.9563
  144SOL     OW  430   2.912   1.146   1.429 -0.2047 -0.4644  0.1107
  144SOL    HW1  431   2.868   1.152   1.524  1.8299 -0.5857 -1.4155
  144SOL    HW2  432   3.005   1.104   1.430  0.0707  2.4478  0.1688
  145SOL     OW  433   0.912   1.769   0.051  0.1777  0.2913  0.4214
  145SOL    HW1  434   0.920   1.817  -0.042  1.5689  0.3559  0.3432
  145SOL    HW2  435   0.842   1.695   0.049  3.5447  0.1682 -1.6249
  146SOL     OW  436   2.466   0.665   1.519 -0.1603 -0.0242 -0.3965
  146SOL    HW1  437   2.452   0.588   1.457  1.5643  0.1446  2.5585
  146SOL    HW2  438   2.420   0.754   1.477  0.1294  1.4586 -0.8533
  147SOL     OW  439   1.111   2.516   0.550  0.5094  0.2010 -0.4321
  147SOL    HW1  440   1.043   2.574   0.493  0.2474  1.6340  1.0682
  147SOL    HW2  441   1.197   2.486   0.502 -1.1723  0.4385 -2.2014
  148SOL     OW  442   1.609   1.417   3.095  0.0131 -0.4114  0.0127
  148SOL    HW1  443   1.624   1.323   3.045  0.1183 -2.5667  0.6346
  148SOL    HW2  444   1.609   1.410   3.199 -0.2233 -1.9219  0.4511
  149SOL     OW  445   0.673   1.501   1.988  0.4777  0.1175 -0.3922
  149SOL    HW1  446   0.599   1.466   2.055  2.9133 -1.3091 -0.6064
  149SOL    HW2  447   0.661   1.462   1.889 -2.5737  0.8831 -2.6936
  150SOL     OW  448   2.981   1.214   0.988 -0.5338 -0.3104  0.8475
  150SOL    HW1  449   3.076   1.219   1.023 -0.8842 -2.7011 -0.7827
  150SOL    HW2  450   2.935   1.123   1.007  0.9141  2.5859 -0.0840
  151SOL     OW  451   0.147   0.870   2.098 -0.2738 -0.5365  0.4747
  151SOL    HW1  452   0.169   0.960   2.050  2.2350 -0.7171 -0.1827
  151SOL    HW2  453   0.205   0.793   2.062 -0.5300  1.4020 -1.5160
  152SOL     OW  454   1.454   1.869   1.108 -0.4656  0.1018 -0.1151
  152SOL    HW1  455   1.481   1.970   1.091  0.2164  0.5160 -0.3309
  152SOL    HW2  456   1.347   1.867   1.113 -2.7492 -0.9805 -2.3102
  153SOL     OW  457   0.074   1.485   0.255 -0.7010  0.1176 -0.0528
  153SOL    HW1  458  -0.010   1.429   0.285 -2.4635 -1.8733  0.3484
  153SOL    HW2  459   0.131   1.529   0.331 -0.5143  2.1466 -0.9409
  154SOL     OW  460   2.282   1.854   2.771 -0.5327  0.3739  0.0052
  154SOL    HW1  461   2.302   1.755   2.795  1.0936 -0.1988  0.0351
  154SOL    HW2  462   2.362   1.895   2.716 -0.5358 -1.8515  1.9736
  155SOL     OW  463   2.582   1.296   0.426  1.1060  0.0805 -0.8217
  155SOL    HW1  464   2.652   1.281   0.504  3.2525 -2.5661 -0.5401
  155SOL    HW2  465   2.595   1.240   0.342 -1.9046  0.6284 -1.5861
  156SOL     OW  466   2.468   0.799   0.771  0.1435  0.5010  0.1847
  156SOL    HW1  467   2.363   0.796   0.772  1.1008 -2.3824 -2.1673
  156SOL    HW2  468   2.505   0.799   0.671 -1.2034 -0.9524 -3.5060
  157SOL     OW  469   1.247   3.088   3.035 -0.2296  0.1247 -0.3435
  157SOL    HW1  470   1.300   3.038   2.960 -2.9643 -2.8371 -3.0802
  157SOL    HW2  471   1.273   3.185   3.051 -3.4540  0.1714  1.0820
  158SOL     OW  472   1.093   1.878   1.859  0.2758 -0.0248  0.2474
  158SOL    HW1  473   1.118   1.975   1.858  0.6542  1.7195  2.0791
  158SOL    HW2  474   1.004   1.869   1.914  2.7092 -1.4124  4.4176
  159SOL     OW  475   0.797   0.382   1.235  0.0456 -0.4119  0.0897
  159SOL    HW1  476   0.736   0.460   1.266 -0.2264 -0.7001  1.2378
  159SOL    HW2  477   0.743   0.309   1.181  3.0498  2.0715 -0.9584
  160SOL     OW  478   1.386   2.462   1.407 -0.1790 -0.1788 -0.0570
  160SOL    HW1  479   1.345   2.405   1.486  0.4085 -1.8484  0.9771
  160SOL    HW2  480   1.489   2.456   1.401  0.4097  1.7034  0.9678
  161SOL     OW  481   0.058   2.641   0.430  0.2422 -0.3336 -0.0231
  161SOL    HW1  482   0.010   2.545   0.428 -0.5248  2.4358  0.1466
  161SOL    HW2  483  -0.002   2.714   0.382  0.0134 -0.3143 -0.2413
  162SOL     OW  484   2.522   1.928   0.437  0.0244  0.0127 -0.8416
  162SOL    HW1  485   2.580   1.918   0.354 -0.2784  0.8204  0.8463
  162SOL    HW2  486   2.460   1.847   0.441  1.5086  2.7625  2.3452
  163SOL     OW  487   1.964   2.747   0.778 -0.5179 -0.2715  0.3261
  163SOL    HW1  488   1.934   2.754   0.675 -0.6049  1.3811 -1.4285
  163SOL    HW2  489   2.047   2.684   0.786  1.8804 -0.3188  1.5282
  164SOL     OW  490   3.065   0.135   1.238 -0.6310  0.3538 -0.0162
  164SOL    HW1  491   3.083   0.232   1.198 -0.9295  0.2508 -0.6805
  164SOL    HW2  492   3.139   0.124   1.314 -0.5280 -1.9837  0.7214
  165SOL     OW  493   1.101   1.408   0.649 -0.0446 -0.4930  0.3639
  165SOL    HW1  494   1.079   1.489   0.711  1.5772  2.6944  0.4398
  165SOL    HW2  495   1.051   1.427   0.558 -0.6970  1.9707  0.9107
  166SOL     OW  496   1.547   0.989   1.828  0.5421  0.4023 -0.6937
  166SOL    HW1  497   1.452   1.030   1.854 -0.4715  1.1766  2.1414
  166SOL    HW2  498   1.610   1.053   1.774  1.9911 -0.5339 -1.7165
  167SOL     OW  499   0.674   2.020   1.515  0.2806  0.3986  0.0630
  167SOL    HW1  500   0.630   2.101   1.560 -1.5884 -1.7011 -1.9244
  167SOL    HW2  501   0.629   1.932   1.546 -0.9706  1.2630 -2.1477
  168SOL     OW  502   1.635   2.293   0.139  0.1195  0.0605 -0.1668
  168SOL    HW1  503   1.707   2.300   0.063  1.8676  0.8021  1.1173
  168SOL    HW2  504   1.677   2.281   0.236  2.0165 -0.8867  2.1370
  169SOL     OW  505   3.060   2.617   2.186  0.0208  0.1492 -0.1066
  169SOL    HW1  506   3.071   2.539   2.122 -0.7849 -0.8587 -0.2652
  169SOL    HW2  507   3.112   2.599   2.276 -2.1177  1.2647  1.5199
  170SOL     OW  508   1.183   0.135   2.108  0.2316  0.0879  0.0486
  170SOL    HW1  509   1.270   0.180   2.140 -0.3026 -2.4059 -1.8208
  170SOL    HW2  510   1.179   0.139   2.003  0.4225  0.9621 -1.6004
  171SOL     OW  511   0.192   0.853   2.439 -0.1492 -0.1139  0.2259
  171SOL    HW1  512   0.091   0.848   2.464 -2.0396  3.2279 -0.9407
  171SOL    HW2  513   0.205   0.930   2.376 -1.2910 -0.5212  4.1255
  172SOL     OW  514   0.953   0.952   2.780 -0.4884 -0.0775 -0.7451
  172SOL    HW1  515   0.921   1.019   2.851  0.0953 -1.0607  0.0272
  172SOL    HW2  516   0.904   0.973   2.692  0.7745 -1.8163  0.7793
  173SOL     OW  517   0.351   2.574   3.082  0.2691  0.0530 -0.9902
  173SOL    HW1  518   0.410   2.536   3.010 -2.1809 -1.2811  1.8026
  173SOL    HW2  519   0.357   2.515   3.166 -1.0277  0.3570 -4.4049
  174SOL     OW  520   1.477   2.868   1.022 -0.1853 -0.3809  0.2080
  174SOL    HW1  521   1.541   2.934   0.975  1.1796 -0.0064  0.3072
  174SOL    HW2  522   1.443   2.790   0.961 -1.2265  0.9889 -1.1308
  175SOL     OW  523   0.501   3.027   1.715 -0.2470  0.3647  0.2135
  175SOL    HW1  524   0.551   3.018   1.803  0.1012 -0.7041  0.3566
  175SOL    HW2  525   0.463   3.119   1.695  0.1203  0.7073 -1.2321
  176SOL     OW  526   2.579   0.469   3.080 -1.0777  0.2902  0.3908
  176SOL    HW1  527   2.596   0.553   3.140  0.7337  2.0235  0.7900
  176SOL    HW2  528   2.495   0.412   3.102 -0.4760 -1.7587 -0.5800
  177SOL     OW  529   0.375   0.178   0.822  0.3455 -0.3743 -0.4650
  177SOL    HW1  530   0.318   0.091   0.840  0.3305 -0.2431  0.1595
  177SOL    HW2  531   0.475   0.181   0.841 -2.8052  1.2239 -3.9252
  178SOL     OW  532   0.016   2.730   2.656  0.2968  0.0389 -0.4643
  178SOL    HW1  533  -0.024   2.634   2.666 -1.1899  2.8577  0.7728
  178SOL    HW2  534   0.104   2.747   2.713  1.9719 -3.1902  0.3361
  179SOL     OW  535   2.962   1.581   1.250  0.1044  0.4303  0.1326
  179SOL    HW1  536   3.033   1.590   1.171  0.0958 -0.0253 -1.5188
  179SOL    HW2  537   2.968   1.494   1.308 -1.8237  0.4938  0.5320
  180SOL     OW  538   0.297   1.407   1.737 -0.0370  0.3193 -0.0063
  180SOL    HW1  539   0.364   1.368   1.804 -1.8641  0.7771 -0.0278
  180SOL    HW2  540   0.207   1.430   1.791 -2.3305 -2.6132 -0.5623
  181SOL     OW  541   3.009   1.747   2.479  0.0124 -0.2166 -0.1268
  181SOL    HW1  542   3.033   1.766   2.377  0.1901 -0.1656  1.1032
  181SOL    HW2  543   2.915   1.775   2.510  1.8252 -0.2162  4.2700
  182SOL     OW  544   2.164   1.400   1.183 -0.3150  0.7130 -0.1762
  182SOL    HW1  545   2.169   1.305   1.228 -0.3912  0.9337  0.3660
  182SOL    HW2  546   2.224   1.398   1.099  0.1110 -0.0852 -1.4564
  183SOL     OW  547   1.447   2.240   2.437 -0.4608  0.2816  0.4107
  183SOL    HW1  548   1.371   2.175   2.467 -1.2184 -0.8900 -2.2037
  183SOL    HW2  549   1.537   2.196   2.414  1.5342  1.1229 -0.2038
  184SOL     OW  550   2.185   0.778   0.752  0.4306 -0.0810  0.7606
  184SOL    HW1  551   2.089   0.796   0.723  2.7685 -1.7203 -0.5938
  184SOL    HW2  552   2.200   0.680   0.765 -0.0734  2.0935 -0.2869
  185SOL     OW  553   1.586   2.747   2.009 -0.1268 -0.4428 -0.1793
  185SOL    HW1  554   1.522   2.828   2.012 -2.4479 -2.9307  0.8482
  185SOL    HW2  555   1.634   2.728   2.100 -0.3365 -2.2036 -0.2532
  186SOL     OW  556   0.016   2.184   1.771  0.0824 -0.5604  0.0237
  186SOL    HW1  557  -0.006   2.239   1.856  2.1785 -0.1489 -1.6005
  186SOL    HW2  558   0.111   2.153   1.770 -1.7267  2.2985  2.4675
  187SOL     OW  559   1.314   0.663   1.627  0.1038 -0.3392  0.0999
  187SOL    HW1  560   1.400   0.717   1.597  0.8893  0.1822  1.0447
  187SOL    HW2  561   1.324   0.614   1.717 -1.4733 -5.2589  1.5785
  188SOL     OW  562   2.703   2.678   1.588  0.2434 -0.5610 -0.2084
  188SOL    HW1  563   2.681   2.779   1.619  1.2314 -2.1219  2.0192
  188SOL    HW2  564   2.668   2.656   1.492  0.2085  2.2861 -3.0551
  189SOL     OW  565   0.873   1.205   1.365 -1.2158 -0.0906  0.1984
  189SOL    HW1  566   0.907   1.263   1.444  0.8479 -1.0586 -0.1590
  189SOL    HW2  567   0.867   1.254   1.274 -0.8836  1.8187  1.3421
  190SOL     OW  568   1.444   1.877   1.530  0.0442  0.2231 -0.1732
  190SOL    HW1  569   1.396   1.793   1.488 -1.5320 -1.7865  0.4442
  190SOL    HW2  570   1.424   1.882   1.635  1.7041 -2.0027  0.2107
  191SOL     OW  571   0.858   0.792   1.504  0.1046  0.2447  0.1988
  191SOL    HW1  572   0.902   0.717   1.557  3.4377 -0.6603 -2.4015
  191SOL    HW2  573   0.927   0.829   1.432 -0.0021 -1.5112  0.7491
  192SOL     OW  574   1.829   2.450   1.135  0.0662  0.1672 -0.1668
  192SOL    HW1  575   1.734   2.406   1.130 -2.6360  0.7805 -0.1449
  192SOL    HW2  576   1.913   2.403   1.078  3.5463 -3.0751 -0.6156
  193SOL     OW  577   0.507   0.507   0.394  0.0230 -0.3369  0.0278
  193SOL    HW1  578   0.435   0.431   0.366 -2.0060 -1.6390 -2.0060
  193SOL    HW2  579   0.572   0.527   0.313 -0.4428 -0.2704 -1.0615
  194SOL     OW  580   0.398   0.827   1.273  0.2363 -0.5052 -0.1391
  194SOL    HW1  581   0.298   0.792   1.260  0.8846 -0.0122 -0.1758
  194SOL    HW2  582   0.455   0.804   1.195 -2.9842 -0.1320  0.6214
  195SOL     OW  583   1.059   2.931   0.525  0.3256 -0.5043 -0.1619
  195SOL    HW1  584   1.055   2.836   0.484  0.2271 -0.6101 -1.0364
  195SOL    HW2  585   1.155   2.972   0.520 -0.1180  0.8471  0.8495
  196SOL     OW  586   0.227   1.392   1.297  0.1446 -0.5241  0.3752
  196SOL    HW1  587   0.237   1.477   1.354 -3.2691 -0.3314 -0.6976
  196SOL    HW2  588   0.246   1.305   1.349 -1.5348  0.2653  0.3177
  197SOL     OW  589   0.793   1.941   0.240 -0.1379  0.1373 -0.3821
  197SOL    HW1  590   0.825   1.909   0.334 -0.4469  1.4365 -1.0217
  197SOL    HW2  591   0.853   1.904   0.162  4.1769  1.9288 -0.7880
  198SOL     OW  592   0.266   1.214   0.349  0.2017 -0.1497 -0.2052
  198SOL    HW1  593   0.167   1.197   0.313 -1.8569 -1.3954  2.2358
  198SOL    HW2  594   0.284   1.317   0.364 -0.8018  2.0015 -0.1598
  199SOL     OW  595   2.212   0.407   2.636  0.1645 -0.0411  0.0506
  199SOL    HW1  596   2.134   0.379   2.701 -3.2633  0.1838  0.0348
  199SOL    HW2  597   2.302   0.371   2.664  0.7903 -1.3835  1.7602
  200SOL     OW  598   3.073   2.877   0.808  0.2414 -0.1567 -0.0850
  200SOL    HW1  599   3.077   2.957   0.877 -0.5987 -0.7138  0.0505
  200SOL    HW2  600   3.043   2.906   0.715 -1.8388 -0.6645  0.2765
  201SOL     OW  601   0.938   0.686   0.542  0.0928  0.0053 -0.2966
  201SOL    HW1  602   0.914   0.770   0.598  2.7959 -0.7166 -0.4344
  201SOL    HW2  603   0.861   0.611   0.552  0.6395 -0.9745  0.0055
  202SOL     OW  604   0.439   1.249   1.896  0.2137 -0.5961 -0.0067
  202SOL    HW1  605   0.519   1.205   1.850  1.5055  1.8859 -0.6880
  202SOL    HW2  606   0.467   1.299   1.983 -0.6178  0.3586  0.7022
  203SOL     OW  607   0.667   0.167   1.549 -0.0845 -0.0402 -0.1878
  203SOL    HW1  608   0.683   0.109   1.463 -1.5685 -0.6100 -0.8183
  203SOL    HW2  609   0.724   0.135   1.627 -0.5644 -1.3000  1.9338
  204SOL     OW  610   2.083   1.841   2.957 -0.1879 -0.0908  0.3610
  204SOL    HW1  611   2.044   1.749   2.974  1.5160 -0.3929  1.2697
  204SOL    HW2  612   2.133   1.856   2.870  0.4246  0.0969  1.2166
  205SOL     OW  613   1.814   1.878   3.047 -0.4883 -0.3087  0.1903
  205SOL    HW1  614   1.913   1.847   3.043 -1.1424 -1.7029  0.8432
  205SOL    HW2  615   1.791   1.939   2.959  0.6887  0.1013 -0.3510
  206SOL     OW  616   2.357   2.713   0.280 -0.1047  0.3500  0.4749
  206SOL    HW1  617   2.341   2.672   0.377 -0.3577 -1.8838  1.9506
  206SOL    HW2  618   2.450   2.697   0.235 -0.7525 -4.8333 -0.7436
  207SOL     OW  619   0.725   1.740   2.916  0.1229  0.0813 -0.1725
  207SOL    HW1  620   0.790   1.681   2.855 -0.8020 -1.3904 -0.9616
  207SOL    HW2  621   0.646   1.686   2.956  1.0786 -2.4521 -0.3781
  208SOL     OW  622   0.998   1.562   1.218  0.2790 -0.0707 -0.2613
  208SOL    HW1  623   0.927   1.605   1.157  0.6518  1.7441 -1.0434
  208SOL    HW2  624   0.964   1.549   1.317  0.9143 -0.8590  0.4726
  209SOL     OW  625   0.228   0.986   3.059  0.0723 -0.1059  0.2947
  209SOL    HW1  626   0.252   0.916   2.988  1.8761  0.9374 -1.8499
  209SOL    HW2  627   0.186   0.948   3.143 -0.0310  3.1473 -1.4522
  210SOL     OW  628   1.698   0.587   1.281  0.5280  0.3797 -0.0059
  210SOL    HW1  629   1.637   0.582   1.197 -0.2803  0.5127 -1.3950
  210SOL    HW2  630   1.746   0.675   1.293  1.0556 -0.9308  0.7257
  211SOL     OW  631   2.159   1.066   1.578 -0.6608  0.8311 -0.2099
  211SOL    HW1  632   2.196   1.057   1.671 -1.8693 -0.3335 -0.9922
  211SOL    HW2  633   2.219   1.138   1.529 -1.4951 -0.3273 -0.8278
  212SOL     OW  634   0.056   0.999   1.483  0.7532 -0.5679 -0.6331
  212SOL    HW1  635   0.119   1.067   1.527 -1.4585 -0.7179  0.8493
  212SOL    HW2  636   0.036   0.919   1.542  1.9142 -0.9462 -0.5519
  213SOL     OW  637   2.805   0.025   0.349 -0.4344 -0.0086 -0.5162
  213SOL    HW1  638   2.898   0.024   0.295  3.2402 -1.7732 -1.7951
  213SOL    HW2  639   2.722  -0.023   0.303 -1.1757 -0.6523 -0.7514
  214SOL     OW  640   2.186   0.339   2.361  0.8417  0.1907  0.1231
  214SOL    HW1  641   2.190   0.368   2.465 -0.0098 -2.0113  3.3711
  214SOL    HW2  642   2.138   0.251   2.344 -0.6289  2.0790 -0.9133
  215SOL     OW  643   1.687   2.274   2.079  0.1989  0.4799 -0.1500
  215SOL    HW1  644   1.786   2.311   2.080 -0.2326 -1.2905  1.5428
  215SOL    HW2  645   1.611   2.348   2.084  0.1173 -1.2843 -0.3886
  216SOL     OW  646   2.295   0.513   0.759  0.3312  0.0169 -0.1098
  216SOL    HW1  647   2.300   0.494   0.658 -0.6294  0.0582  2.4553
  216SOL    HW2  648   2.365   0.462   0.810  2.3341  1.1408 -0.1146
  217SOL     OW  649   0.909   2.738   2.574  0.2903 -0.3833  0.0726
  217SOL    HW1  650   0.920   2.661   2.646 -1.4678  2.2309  1.5755
  217SOL    HW2  651   0.840   2.716   2.499 -2.1107 -2.4674 -3.1056
  218SOL     OW  652   1.871   1.417   0.028 -0.4017  0.4344  0.1406
  218SOL    HW1  653   1.768   1.423   0.017 -0.4984  0.2751 -1.7023
  218SOL    HW2  654   1.899   1.341   0.093  2.4421  1.0952  2.0125
  219SOL     OW  655   2.426   1.260   2.519 -0.2777  0.0482  0.2676
  219SOL    HW1  656   2.470   1.200   2.445  0.6544  1.3248 -1.5764
  219SOL    HW2  657   2.430   1.217   2.611 -0.3276  0.3093  0.1796
  220SOL     OW  658   1.446   1.024   1.342  0.6039  0.0602  0.5767
  220SOL    HW1  659   1.544   1.007   1.366 -0.8578 -1.7765 -1.1370
  220SOL    HW2  660   1.424   1.028   1.243 -0.5145  1.6944  1.7417
  221SOL     OW  661   1.322   0.959   2.169 -0.7762 -0.1013 -0.3522
  221SOL    HW1  662   1.306   0.982   2.070 -2.1482  0.8202 -1.2112
  221SOL    HW2  663   1.405   1.015   2.206  0.4113 -0.3833 -0.3144
  222SOL     OW  664   1.153   0.063   1.213  0.0752  0.1212  0.3865
  222SOL    HW1  665   1.192   0.109   1.297 -2.2365  0.0795  0.7902
  222SOL    HW2  666   1.145   0.125   1.130  2.6886  0.9660 -0.1396
  223SOL     OW  667   2.716   0.981   2.114 -0.2953  0.1197 -0.3180
  223SOL    HW1  668   2.651   1.001   2.191  0.4671 -0.8005  1.2317
  223SOL    HW2  669   2.812   0.977   2.149 -1.0846 -1.7326 -0.9727
  224SOL     OW  670   1.493   0.989   2.843  0.0871  0.1802  1.1172
  224SOL    HW1  671   1.545   0.973   2.758  1.1673 -1.5675  2.4362
  224SOL    HW2  672   1.522   1.081   2.891  1.6860  2.7661 -2.5800
  225SOL     OW  673   2.942   2.680   2.891  0.1622  0.1451 -0.3055
  225SOL    HW1  674   2.885   2.688   2.805 -1.2198  1.9961 -0.7303
  225SOL    HW2  675   3.042   2.709   2.882 -1.3949  1.4587  3.5522
  226SOL     OW  676   2.422   1.601   2.807  0.0967  0.9311  0.0155
  226SOL    HW1  677   2.476   1.592   2.718 -1.4628 -0.8724 -1.7845
  226SOL    HW2  678   2.439   1.520   2.872  1.6536 -1.7976 -1.6013
  227SOL     OW  679   0.915   0.232   3.025  0.4739  0.3888 -0.3094
  227SOL    HW1  680   0.939   0.330   3.000  2.1911  2.0661 -1.8952
  227SOL    HW2  681   0.850   0.183   2.958 -2.1785  0.8022 -1.1841
  228SOL     OW  682   2.441   0.653   2.884  0.1781 -0.0299  0.2792
  228SOL    HW1  683   2.468   0.723   2.810  0.4219 -1.5927  2.5312
  228SOL    HW2  684   2.515   0.578   2.885 -0.9728 -1.0055  0.1865
  229SOL     OW  685   0.625   0.625   1.830  1.0818  0.3290 -0.2203
  229SOL    HW1  686   0.702   0.696   1.823  0.0700 -1.5700 -0.9218
  229SOL    HW2  687   0.635   0.543   1.766  2.3749 -0.8057 -1.2515
  230SOL     OW  688   1.865   1.216   1.908 -0.3518  0.3608 -0.1741
  230SOL    HW1  689   1.950   1.276   1.880  2.1333  0.9062 -0.3318
  230SOL    HW2  690   1.823   1.242   1.998  2.3634  0.5727  1.5243
  231SOL     OW  691   0.653   1.064   3.089  0.6019 -0.7039  0.4243
  231SOL    HW1  692   0.744   1.095   3.115 -3.2661 -1.0314  0.2769
  231SOL    HW2  693   0.580   1.132   3.118 -1.1443 -0.0946  0.6646
  232SOL     OW  694   2.413   2.970   2.797  0.0291 -0.7257  0.0320
  232SOL    HW1  695   2.475   2.886   2.803 -0.4594 -0.6490 -1.4333
  232SOL    HW2  696   2.455   3.056   2.749  0.3345  2.2071  2.0623
  233SOL     OW  697   1.809   1.138   1.124 -0.0943 -0.7825  0.5590
  233SOL    HW1  698   1.861   1.221   1.087  3.1652 -3.1815  1.2149
  233SOL    HW2  699   1.871   1.060   1.149 -1.4403 -0.5698  2.8553
  234SOL     OW  700   1.670   2.524   1.831  0.1121  0.1759  0.0989
  234SOL    HW1  701   1.639   2.598   1.894 -2.6533  1.5571 -0.9345
  234SOL    HW2  702   1.604   2.451   1.803  0.6436  3.6745  0.7122
  235SOL     OW  703   0.074   3.008   2.846  0.2806 -0.7492  0.2246
  235SOL    HW1  704   0.029   3.015   2.753 -0.4453 -0.2923  0.4739
  235SOL    HW2  705   0.004   3.038   2.919  1.0153  1.4321  0.8113
  236SOL     OW  706   2.904   0.715   0.063  0.5968  0.0665 -0.2848
  236SOL    HW1  707   2.970   0.764   0.128 -1.1615 -0.7262 -0.8017
  236SOL    HW2  708   2.949   0.636   0.011 -0.4859  0.1650  1.2730
  237SOL     OW  709   1.535   1.701   0.905 -0.2580  0.0782  0.5653
  237SOL    HW1  710   1.632   1.656   0.912  2.3973 -0.0352  0.1172
  237SOL    HW2  711   1.513   1.777   0.969 -0.3282 -1.3166 -0.6277
  238SOL     OW  712   1.911   1.201   0.755  0.1326  0.4267 -0.1527
  238SOL    HW1  713   1.934   1.239   0.846 -0.8291  0.8209 -2.7427
  238SOL    HW2  714   1.816   1.238   0.723  1.4003 -0.6790 -0.6199
  239SOL     OW  715   2.022   0.292   2.806  0.8491  0.8738  0.3645
  239SOL    HW1  716   2.059   0.233   2.878 -0.7941 -0.0033 -0.0170
  239SOL    HW2  717   1.919   0.319   2.821 -0.7442  0.5334  2.0933
  240SOL     OW  718   0.945   0.695   0.254  0.3452 -0.1004  0.4612
  240SOL    HW1  719   1.021   0.648   0.201 -2.1811 -1.0187 -1.3207
  240SOL    HW2  720   0.957   0.705   0.359 -0.8843  0.4616  0.4392
  241SOL     OW  721   0.584   0.113   0.317 -0.4490  0.5471 -0.4883
  241SOL    HW1  722   0.612   0.195   0.261 -3.0010  0.7323 -0.2094
  241SOL    HW2  723   0.565   0.026   0.261  1.2259  0.7243  0.9023
  242SOL     OW  724   0.593   2.614   1.200  0.4539  0.1359  0.6843
  242SOL    HW1  725   0.585   2.592   1.300 -1.4434 -1.7205  0.4161
  242SOL    HW2  726   0.620   2.704   1.178 -0.4029 -0.9165  1.1518
  243SOL     OW  727   1.075   0.625   2.407 -0.1211 -0.2734 -0.1899
  243SOL    HW1  728   0.979   0.633   2.359 -4.0806 -1.1218 -2.2262
  243SOL    HW2  729   1.064   0.580   2.499  0.4635 -1.3213 -0.9493
  244SOL     OW  730   2.728   1.946   2.377  0.7450 -0.1502 -0.1505
  244SOL    HW1  731   2.767   1.934   2.278  0.7060  0.1792 -0.2214
  244SOL    HW2  732   2.671   1.864   2.412  1.0123 -1.1739  1.1381
  245SOL     OW  733   2.090   1.010   2.196  0.3488  0.2974  0.0542
  245SOL    HW1  734   2.192   1.004   2.194 -1.6788  1.2880 -0.0230
  245SOL    HW2  735   2.056   1.091   2.255  0.5028 -0.3539  0.2728
  246SOL     OW  736   0.275   2.872   1.818 -0.4324  0.4535  0.0986
  246SOL    HW1  737   0.186   2.846   1.772  0.3146  1.1109  1.3546
  246SOL    HW2  738   0.347   2.916   1.751  2.9071  0.1591 -0.7991
  247SOL     OW  739   2.245   0.589   3.061  0.1224  0.5776  0.5225
  247SOL    HW1  740   2.323   0.623   3.006 -1.8415  1.1052  0.1064
  247SOL    HW2  741   2.155   0.636   3.039  1.0447 -2.3358  0.2666
  248SOL     OW  742   2.157   1.849   1.633 -1.4069  0.4311  0.1509
  248SOL    HW1  743   2.208   1.784   1.698  0.1946 -1.4601  0.4656
  248SOL    HW2  744   2.054   1.837   1.633  1.4117  1.3843 -1.0760
  249SOL     OW  745   1.895   1.901   1.839  0.4638 -0.1181 -0.0080
  249SOL    HW1  746   1.907   1.831   1.762 -0.4937  0.3448 -0.3597
  249SOL    HW2  747   1.986   1.937   1.876  0.3205 -1.7937 -0.9411
  250SOL     OW  748   0.989   0.674   1.860  0.6939 -0.4332 -0.5502
  250SOL    HW1  749   1.047   0.658   1.945  0.0525  1.3789 -2.1462
  250SOL    HW2  750   1.015   0.619   1.781  2.8939  1.4873  1.7983
  251SOL     OW  751   3.031   1.502   2.614 -0.1609 -0.2611  0.1130
  251SOL    HW1  752   3.023   1.597   2.575 -2.0293  0.4686  0.6464
  251SOL    HW2  753   2.963   1.437   2.568 -0.4339  0.6258 -3.3371
  252SOL     OW  754   1.544   0.835   1.611  0.0719  0.1368  0.0233
  252SOL    HW1  755   1.610   0.861   1.536 -0.4309 -1.4831 -2.1706
  252SOL    HW2  756   1.554   0.888   1.699  0.4781 -0.9197 -0.0671
  253SOL     OW  757   0.937   1.489   0.452 -0.2418 -0.3726  0.2824
  253SOL    HW1  758   0.931   1.458   0.357  0.8254  1.5038 -1.2445
  253SOL    HW2  759   0.861   1.545   0.484  3.1824  0.5951  1.3497
  254SOL     OW  760   2.025   2.178   1.668  0.1506 -0.5607  0.0606
  254SOL    HW1  761   1.975   2.126   1.593 -1.3338  3.9867 -0.7911
  254SOL    HW2  762   1.963   2.241   1.722  1.0961  1.0852  0.6787
  255SOL     OW  763   0.084   1.195   2.925 -0.1209 -0.0929  0.7908
  255SOL    HW1  764   0.157   1.269   2.890  1.3683  1.9750 -2.0894
  255SOL    HW2  765   0.128   1.115   2.972 -1.7383 -0.1589 -0.4619
  256SOL     OW  766   2.754   1.414   1.745 -0.3506 -0.0358 -0.0665
  256SOL    HW1  767   2.668   1.443   1.787 -0.0880  1.2144 -0.2837
  256SOL    HW2  768   2.759   1.310   1.726 -1.8247  1.4422  1.1969
  257SOL     OW  769   0.811   0.244   1.870 -0.6540 -0.4558  0.3962
  257SOL    HW1  770   0.858   0.283   1.782  1.4834  0.6263 -4.4385
  257SOL    HW2  771   0.819   0.142   1.882 -0.5610  2.4533 -1.5832
  258SOL     OW  772   2.967   1.172   0.500  0.2800  0.4098  0.2348
  258SOL    HW1  773   2.885   1.192   0.559 -1.4339  0.8611  3.5158
  258SOL    HW2  774   3.051   1.196   0.554  0.7750  0.4352  1.0865
  259SOL     OW  775   0.486   2.938   2.998 -0.4516 -0.4209  0.5853
  259SOL    HW1  776   0.416   2.887   3.047  0.3220  0.6287 -1.1084
  259SOL    HW2  777   0.497   2.901   2.898  0.5352  1.9648  0.7647
  260SOL     OW  778   2.732   0.758   2.784 -0.5677  0.0865 -0.1793
  260SOL    HW1  779   2.652   0.795   2.726 -1.7626  0.3644  0.3742
  260SOL    HW2  780   2.721   0.654   2.803  1.5470 -0.3354  0.0199
  261SOL     OW  781   2.665   1.249   1.303  0.2765  0.1021 -0.1230
  261SOL    HW1  782   2.584   1.222   1.238  1.3380 -1.0827 -1.7117
  261SOL    HW2  783   2.740   1.178   1.303  0.5315 -0.4724 -1.9854
  262SOL     OW  784   1.393   2.973   2.067  0.2550 -0.4644 -0.5644
  262SOL    HW1  785   1.424   3.039   1.997 -3.1684  0.4454  1.3561
  262SOL    HW2  786   1.306   2.923   2.040 -0.0810  0.4096 -0.8674
  263SOL     OW  787   0.806   0.625   2.320  0.1750  0.4049  0.0864
  263SOL    HW1  788   0.737   0.553   2.293 -3.4971 -0.0655  1.6336
  263SOL    HW2  789   0.818   0.689   2.242 -3.3265  0.1728  2.3427
  264SOL     OW  790   2.284   0.797   0.413  0.2709 -0.1003  0.2769
  264SOL    HW1  791   2.300   0.717   0.348 -0.3984  1.9229 -1.7360
  264SOL    HW2  792   2.376   0.833   0.447 -0.2310  2.6921 -0.2198
  265SOL     OW  793   0.877   2.347   2.616 -0.2563  0.1360  0.0609
  265SOL    HW1  794   0.918   2.386   2.708 -1.9586 -1.4288  1.8096
  265SOL    HW2  795   0.845   2.251   2.626 -2.0984 -0.1957  1.3159
  266SOL     OW  796   1.285   1.806   3.050  0.3269 -0.0950 -0.1772
  266SOL    HW1  797   1.283   1.855   3.138 -0.1257  0.2244  0.0058
  266SOL    HW2  798   1.383   1.785   3.023  0.5661  0.3713  0.3893
  267SOL     OW  799   1.067   3.074   2.329 -0.5668 -0.0770 -0.1509
  267SOL    HW1  800   0.970   3.068   2.314 -0.1676 -2.1935  1.9042
  267SOL    HW2  801   1.109   3.100   2.243 -3.4495 -1.1428  2.2221
  268SOL     OW  802   0.856   1.317   1.095 -0.2657  0.4167  0.8651
  268SOL    HW1  803   0.783   1.355   1.154  0.8400  0.7752  2.0157
  268SOL    HW2  804   0.888   1.389   1.027 -1.5519 -0.3999  1.3546
  269SOL     OW  805   2.339   2.543   1.605 -0.6355 -0.1623 -0.8424
  269SOL    HW1  806   2.433   2.500   1.594  2.2704  0.8004  2.7107
  269SOL    HW2  807   2.315   2.571   1.702 -2.9564 -3.1907  0.9179
  270SOL     OW  808   0.134   3.016   1.994  0.0161  0.4111  0.3363
  270SOL    HW1  809   0.208   2.974   1.934 -1.1575  3.1281  0.7304
  270SOL    HW2  810   0.105   2.951   2.071 -0.5505  0.5286  2.3311
  271SOL     OW  811   0.436   1.415   1.094 -0.5912  0.9825 -0.2794
  271SOL    HW1  812   0.428   1.373   0.999 -0.8616  1.4130  1.9571
  271SOL    HW2  813   0.368   1.377   1.165  0.2825  1.5536  1.6484
  272SOL     OW  814   1.873   3.093   1.935 -0.1442  0.6059 -0.2197
  272SOL    HW1  815   1.833   3.004   1.896  2.1179 -0.1266 -1.3930
  272SOL    HW2  816   1.880   3.177   1.872  1.4877  2.2854  1.4141
  273SOL     OW  817   1.445   1.466   2.866 -0.5231 -0.1523  0.5598
  273SOL    HW1  818   1.347   1.493   2.876 -0.1021 -0.3923 -0.6710
  273SOL    HW2  819   1.497   1.477   2.956 -0.5418 -0.7893  0.2103
  274SOL     OW  820   1.172   0.608   2.057  0.6641 -0.0368 -0.0746
  274SOL    HW1  821   1.115   0.536   2.103 -0.3362  0.2898  0.4692
  274SOL    HW2  822   1.255   0.638   2.114  3.7415  2.0927  0.2672
  275SOL     OW  823   0.659   2.098   1.949 -0.3121  0.0195  0.3522
  275SOL    HW1  824   0.598   2.122   1.871 -0.7860 -1.5350 -0.3392
  275SOL    HW2  825   0.615   2.124   2.042 -0.1646  3.5360  0.7871
  276SOL     OW  826   2.244   0.956   2.854 -0.4035  0.1018 -0.2468
  276SOL    HW1  827   2.154   0.998   2.818 -3.1047  0.1397 -0.1432
  276SOL    HW2  828   2.257   0.860   2.820 -0.2408  0.6061 -1.9538
  277SOL     OW  829   0.001   0.776   0.247  0.0855  0.1741 -0.0210
  277SOL    HW1  830   0.094   0.787   0.198 -0.0338  0.7406  0.6087
  277SOL    HW2  831   0.005   0.706   0.323  1.9847  0.6912  0.7365
  278SOL     OW  832   0.292   0.243   3.062 -0.2487  0.5165  1.0094
  278SOL    HW1  833   0.353   0.179   3.003  0.1241  1.8437 -0.8625
  278SOL    HW2  834   0.324   0.342   3.057 -1.1013  0.2090  1.1921
  279SOL     OW  835   0.269   3.037   0.894  0.1160 -1.0137  0.4284
  279SOL    HW1  836   0.279   3.023   0.995 -2.3621 -1.5583 -0.2076
  279SOL    HW2  837   0.254   2.951   0.834 -0.9010 -2.1087 -2.0517
  280SOL     OW  838   1.573   2.898   2.441  0.1402 -0.0575  0.2631
  280SOL    HW1  839   1.638   2.975   2.484 -3.0068  2.3545  0.1244
  280SOL    HW2  840   1.491   2.937   2.395 -0.1416 -1.7810  0.7419
  281SOL     OW  841   0.556   0.927   2.358 -0.3181  0.0609  0.2373
  281SOL    HW1  842   0.539   0.867   2.279 -1.3360  0.9068 -1.3334
  281SOL    HW2  843   0.526   0.892   2.450 -0.2223  0.6777  2.3395
  282SOL     OW  844   1.786   2.482   0.566  0.0931 -0.1078 -0.0042
  282SOL    HW1  845   1.751   2.404   0.504  1.7921 -0.7465 -0.8187
  282SOL    HW2  846   1.735   2.574   0.544 -1.8768  3.0920  0.5644
  283SOL     OW  847   1.185   0.949   0.808 -0.2087  0.5429  0.2418
  283SOL    HW1  848   1.206   0.902   0.898  1.4140  0.2904  0.8578
  283SOL    HW2  849   1.159   1.049   0.820  0.2223  1.6782  0.2937
  284SOL     OW  850   2.245   2.813   2.446  0.5392 -0.0389 -0.1221
  284SOL    HW1  851   2.345   2.830   2.430  1.4108  0.5579  0.1994
  284SOL    HW2  852   2.217   2.816   2.547 -3.2324  0.2236  1.5943
  285SOL     OW  853   1.295   3.063   2.615 -0.4387  0.8428 -0.0970
  285SOL    HW1  854   1.324   3.029   2.519  1.9565 -2.1820 -1.2866
  285SOL    HW2  855   1.198   3.104   2.610 -0.7948 -1.1064 -0.6146
  286SOL     OW  856   0.265   0.369   0.647 -0.0703 -0.8027 -0.2780
  286SOL    HW1  857   0.309   0.298   0.709 -0.0456  0.2477  2.5552
  286SOL    HW2  858   0.297   0.362   0.550 -1.9442  2.6270  3.1478
  287SOL     OW  859   0.077   1.281   2.545  0.2991  0.1528 -0.4445
  287SOL    HW1  860   0.045   1.208   2.611 -0.4980  0.8278  2.3742
  287SOL    HW2  861   0.032   1.374   2.569  0.4981 -1.7511  2.1534
  288SOL     OW  862   1.513   2.699   1.659 -0.3034 -0.1373 -0.1118
  288SOL    HW1  863   1.577   2.655   1.728  0.5875  2.6279  0.4824
  288SOL    HW2  864   1.560   2.706   1.567  0.7668  0.2900 -1.4059
  289SOL     OW  865   0.647   2.791   0.808  0.0382 -0.0666  0.2656
  289SOL    HW1  866   0.676   2.877   0.759 -3.6725  2.8073  0.9463
  289SOL    HW2  867   0.610   2.818   0.905 -1.1476  1.2500  2.1597
  290SOL     OW  868   2.848   1.128   1.693 -0.0698 -0.5039  0.1841
  290SOL    HW1  869   2.778   1.053   1.709 -0.6011 -2.7210  2.9926
  290SOL    HW2  870   2.935   1.122   1.745 -0.1071 -0.6303 -3.9199
  291SOL     OW  871   1.929   0.006   0.093  0.1686  0.1856 -0.1198
  291SOL    HW1  872   1.958   0.048   0.183 -1.8400 -2.8448 -0.6523
  291SOL    HW2  873   2.003   0.026   0.024 -1.4965 -0.4147  0.1990
  292SOL     OW  874   2.973   1.258   3.105  0.0892  1.1261  0.1497
  292SOL    HW1  875   2.932   1.344   3.069 -0.5273 -2.4557  2.7962
  292SOL    HW2  876   3.045   1.220   3.043 -0.9255 -0.2880  0.8056
  293SOL     OW  877   0.551   2.080   0.294 -0.6786 -0.0545 -0.0461
  293SOL    HW1  878   0.528   2.161   0.351 -0.1295 -0.5307  1.4234
  293SOL    HW2  879   0.651   2.063   0.286 -1.3039 -1.6439 -0.7453
  294SOL     OW  880   1.884   2.336   1.812 -0.3530 -0.1187 -0.1459
  294SOL    HW1  881   1.926   2.342   1.910 -1.5698  0.2945  1.4390
  294SOL    HW2  882   1.805   2.403   1.801 -0.2525  0.7038  0.0008
  295SOL     OW  883   0.949   1.044   0.441  0.4394 -0.4851 -0.4809
  295SOL    HW1  884   1.046   1.066   0.441 -1.6698  1.2724 -0.0748
  295SOL    HW2  885   0.922   0.997   0.528  0.3374 -1.8240 -1.8464
  296SOL     OW  886   1.136   2.146   2.758  0.6002 -0.4613  0.2933
  296SOL    HW1  887   1.063   2.217   2.766 -0.2807  1.3840 -0.4602
  296SOL    HW2  888   1.168   2.122   2.661  0.3694 -2.8821  0.7748
  297SOL     OW  889   1.272   0.583   1.189 -0.0721  0.2336  1.0218
  297SOL    HW1  890   1.310   0.514   1.259  0.3051 -1.2919  3.9589
  297SOL    HW2  891   1.348   0.639   1.145  2.8267 -1.5729  0.3061
  298SOL     OW  892   0.469   1.291   2.923 -0.0683 -0.0392  0.2412
  298SOL    HW1  893   0.449   1.249   3.017  0.6633  0.5426  0.4116
  298SOL    HW2  894   0.522   1.225   2.865  1.2126 -1.5284  1.0032
  299SOL     OW  895   0.399   0.202   1.270 -0.5310 -0.3297 -0.4847
  299SOL    HW1  896   0.341   0.272   1.220 -1.0026  3.0219 -1.3497
  299SOL    HW2  897   0.401   0.214   1.371  1.0301 -2.2704 -0.7465
  300SOL     OW  898   1.357   1.823   2.573 -0.2715  0.4222  0.0495
  300SOL    HW1  899   1.342   1.761   2.489 -0.0447 -2.4365 -0.7553
  300SOL    HW2  900   1.416   1.775   2.639  0.5533  0.0717 -1.5261
  301SOL     OW  901   0.328   0.289   0.381 -0.8158 -0.2975  0.3552
  301SOL    HW1  902   0.227   0.260   0.357 -0.1737 -1.2860 -1.8725
  301SOL    HW2  903   0.394   0.206   0.381  0.9510 -0.2495 -0.6281
  302SOL     OW  904   1.249   2.389   2.295 -0.0660 -0.2428 -0.1863
  302SOL    HW1  905   1.155   2.353   2.325  1.3386 -1.4268 -0.6640
  302SOL    HW2  906   1.330   2.333   2.334  1.9565  1.0791  1.2223
  303SOL     OW  907   0.896   2.451   0.793 -0.2826  0.3831  0.0030
  303SOL    HW1  908   0.969   2.432   0.719 -0.2629 -0.9123 -0.7945
  303SOL    HW2  909   0.931   2.498   0.879 -1.4425  4.2567 -2.2867
  304SOL     OW  910   0.135   1.918   0.714 -0.2757  0.9693  0.3671
  304SOL    HW1  911   0.211   1.902   0.648  0.7200 -2.3089 -0.4618
  304SOL    HW2  912   0.044   1.953   0.674  0.4708 -1.3861 -0.4861
  305SOL     OW  913   1.662   0.804   0.702 -0.1064 -0.1947  0.2927
  305SOL    HW1  914   1.588   0.807   0.633  0.1706 -1.1862 -0.2298
  305SOL    HW2  915   1.709   0.709   0.696 -0.7167 -0.4087  0.5278
  306SOL     OW  916   0.397   1.872   1.977  0.0221  0.8869  0.0491
  306SOL    HW1  917   0.462   1.799   1.936  0.3941  0.9713 -0.8092
  306SOL    HW2  918   0.438   1.919   2.061  1.1897 -1.0878  0.6916
  307SOL     OW  919   3.047   0.891   2.561  0.8454 -0.0341  0.1479
  307SOL    HW1  920   3.054   0.978   2.623  1.3603  1.2936  0.6825
  307SOL    HW2  921   3.032   0.804   2.615  1.4260 -0.7655 -1.0491
  308SOL     OW  922   1.459   2.701   2.810  0.2230  0.0394 -0.3026
  308SOL    HW1  923   1.452   2.685   2.709  0.5507 -2.0871  1.6990
  308SOL    HW2  924   1.408   2.625   2.863  1.7505  0.7501  0.7636
  309SOL     OW  925   1.194   0.170   1.814 -0.5972 -0.1080  0.2010
  309SOL    HW1  926   1.285   0.142   1.775  0.2964 -0.2354  0.5687
  309SOL    HW2  927   1.122   0.191   1.743 -0.7562  1.5352  0.0472
  310SOL     OW  928   1.482   2.507   0.655 -0.7110  0.9256 -0.4786
  310SOL    HW1  929   1.445   2.541   0.748  1.3160 -0.8790  1.7045
  310SOL    HW2  930   1.533   2.579   0.606 -0.3381 -0.7221  0.8476
  311SOL     OW  931   1.111   0.956   1.781  0.2208 -0.3577 -0.1475
  311SOL    HW1  932   1.073   0.860   1.795  1.8284 -0.7985  0.2300
  311SOL    HW2  933   1.155   0.976   1.687  1.1091 -0.5285 -1.4998
  312SOL     OW  934   1.501   0.639   1.023 -0.1326  0.0306 -0.0362
  312SOL    HW1  935   1.511   0.740   1.035 -0.3644  1.1355  0.1517
  312SOL    HW2  936   1.466   0.611   0.930 -1.3219 -0.7934  0.8576
  313SOL     OW  937   1.656   1.272   0.734  0.1035  0.1461 -0.3717
  313SOL    HW1  938   1.574   1.295   0.794  1.1581 -0.3774 -0.6090
  313SOL    HW2  939   1.642   1.193   0.664  0.4868  1.4950 -1.8551
  314SOL     OW  940   2.994   3.080   3.066 -0.1474  0.5344  0.4171
  314SOL    HW1  941   3.022   3.056   3.165  0.2516 -2.2591  1.3812
  314SOL    HW2  942   2.901   3.039   3.042  3.1061 -0.9211 -0.6097
  315SOL     OW  943   1.198   0.194   2.803  0.1685 -0.1501 -0.0953
  315SOL    HW1  944   1.185   0.146   2.713  0.2508  0.0589  0.5935
  315SOL    HW2  945   1.156   0.146   2.883  0.1290  0.2611  2.5660
  316SOL     OW  946   1.778   2.070   0.868 -0.5263 -0.7525  0.1279
  316SOL    HW1  947   1.734   2.096   0.961 -2.2241 -0.6888 -1.8854
  316SOL    HW2  948   1.810   2.161   0.820  1.4828  1.6405 -2.0253
  317SOL     OW  949   1.170   0.719   2.714 -0.1034 -0.4754  0.3335
  317SOL    HW1  950   1.108   0.792   2.754  0.5327  1.2989 -1.2591
  317SOL    HW2  951   1.136   0.621   2.729 -2.4799 -0.2396 -0.4796
  318SOL     OW  952   1.379   3.061   2.322  0.3617  0.0851 -0.0702
  318SOL    HW1  953   1.358   3.160   2.307  1.4279 -0.4391 -0.7194
  318SOL    HW2  954   1.382   3.020   2.225 -1.1538  1.2095  0.3147
  319SOL     OW  955   0.623   2.387   3.024 -0.3713 -0.1725  0.2379
  319SOL    HW1  956   0.580   2.308   3.078  0.5710  0.9029  0.8716
  319SOL    HW2  957   0.684   2.355   2.943  0.6783 -1.1623 -0.6268
  320SOL     OW  958   1.688   2.265   0.399  0.2266 -0.1933 -0.4894
  320SOL    HW1  959   1.731   2.167   0.400 -0.9010 -1.3840  2.1429
  320SOL    HW2  960   1.582   2.257   0.411 -0.3965  1.1626 -0.1979
  321SOL     OW  961   1.624   2.697   0.515 -0.6343  0.1402 -0.5995
  321SOL    HW1  962   1.559   2.712   0.439  0.6729 -1.6277 -1.1558
  321SOL    HW2  963   1.688   2.780   0.530 -0.2329  2.3983  3.0112
  322SOL     OW  964   2.543   1.068   2.316 -0.1306 -0.7346  0.2578
  322SOL    HW1  965   2.598   1.058   2.402  0.0849  1.8376 -1.2774
  322SOL    HW2  966   2.458   1.004   2.317 -1.4814 -3.4739 -0.7749
  323SOL     OW  967   1.136   2.701   0.761 -0.3318  0.2825 -0.0748
  323SOL    HW1  968   1.128   2.659   0.671  2.3881  1.3341  2.8621
  323SOL    HW2  969   1.116   2.803   0.753 -0.3164 -0.5128 -1.0425
  324SOL     OW  970   0.064   2.561   2.430  0.1533 -0.3098 -0.4812
  324SOL    HW1  971  -0.019   2.516   2.471  0.6444  0.9991 -0.0194
  324SOL    HW2  972   0.106   2.632   2.493  0.8058 -0.0863  0.1472
  325SOL     OW  973   1.310   3.035   0.455 -0.2485 -0.2458 -0.2469
  325SOL    HW1  974   1.285   3.078   0.362 -1.4619 -0.7300 -0.4820
  325SOL    HW2  975   1.307   3.112   0.525 -0.8029 -0.5976 -2.4102
  326SOL     OW  976   2.437   0.904   0.036 -0.4297  0.1603 -0.0175
  326SOL    HW1  977   2.381   0.877  -0.046  1.1706  2.4720  0.1458
  326SOL    HW2  978   2.505   0.830   0.074  1.3367  0.2755  1.0399
  327SOL     OW  979   2.835   0.226   0.553 -0.3301 -1.0106  0.6683
  327SOL    HW1  980   2.823   0.175   0.462 -1.5786 -0.2288  1.1085
  327SOL    HW2  981   2.859   0.164   0.635  0.8988 -1.2807  1.4347
  328SOL     OW  982   2.640   0.603   0.371  0.2218  0.3916  0.2100
  328SOL    HW1  983   2.679   0.686   0.423  1.5781  0.2485 -0.6735
  328SOL    HW2  984   2.634   0.518   0.431  1.7708 -0.9242 -1.3698
  329SOL     OW  985   2.942   3.032   2.243  0.5886 -0.6761  0.2078
  329SOL    HW1  986   3.031   2.979   2.233 -0.1925 -0.1750 -1.9998
  329SOL    HW2  987   2.948   3.128   2.200  0.6007 -0.4465 -1.0955
  330SOL     OW  988   0.549   0.291   1.926  0.0518  0.3179  0.7250
  330SOL    HW1  989   0.653   0.290   1.898  1.6552 -1.1206 -0.6832
  330SOL    HW2  990   0.526   0.230   2.007  0.6132  0.0813  3.5299
  331SOL     OW  991   0.035   1.921   1.108  0.1232 -0.0782  0.0719
  331SOL    HW1  992   0.013   1.987   1.028 -1.0804 -1.1692 -2.7059
  331SOL    HW2  993  -0.052   1.919   1.168 -0.9999  3.7253 -0.3618
  332SOL     OW  994   0.398   1.169   0.092  0.7289 -0.2574 -0.2694
  332SOL    HW1  995   0.334   1.107   0.040  0.2310 -1.3228 -1.0085
  332SOL    HW2  996   0.359   1.196   0.185  1.8868  0.7194 -1.7534
  333SOL     OW  997   2.917   0.931   0.381  0.2432 -0.1412  0.0228
  333SOL    HW1  998   2.945   1.014   0.439 -2.1156  1.9530  0.9288
  333SOL    HW2  999   2.994   0.887   0.336  2.7017  0.0252 -1.6674
  334SOL     OW 1000   1.725   1.151   1.702  0.0853  0.1590 -0.3084
  334SOL    HW1 1001   1.775   1.166   1.613 -1.8818 -0.4040 -1.2765
  334SOL    HW2 1002   1.779   1.172   1.785 -0.7944  0.1340 -0.6612
  335SOL     OW 1003   1.931   2.771   2.571  0.1266 -0.6071  0.1927
  335SOL    HW1 1004   1.851   2.804   2.624  1.0145 -1.0188  0.7933
  335SOL    HW2 1005   2.022   2.795   2.615 -0.1897  0.1952  0.7275
  336SOL     OW 1006   0.257   0.083   2.750  1.0935  0.9627 -0.8736
  336SOL    HW1 1007   0.336   0.109   2.810  0.5429 -1.8198  0.8483
  336SOL    HW2 1008   0.192   0.011   2.788 -1.8386 -0.0901 -2.1475
  337SOL     OW 1009   0.816   2.852   3.036 -0.4924 -0.1231  0.3710
  337SOL    HW1 1010   0.851   2.772   3.090  1.1551  0.5437 -3.2217
  337SOL    HW2 1011   0.776   2.924   3.108 -5.0650  1.7745  0.6722
  338SOL     OW 1012   0.016   0.973   0.706  0.2383 -0.2853 -0.0433
  338SOL    HW1 1013  -0.082   0.944   0.719  2.2265  0.8934  1.0102
  338SOL    HW2 1014   0.024   1.075   0.727 -1.5692 -0.8437  0.3213
  339SOL     OW 1015   1.771   1.332   2.154 -0.1483  0.1484 -0.5538
  339SOL    HW1 1016   1.670   1.358   2.136 -2.0325  0.0752  2.5126
  339SOL    HW2 1017   1.834   1.417   2.170  2.7173  1.0074 -0.6525
  340SOL     OW 1018   2.262   0.789   1.104 -0.4406 -0.7204  0.0878
  340SOL    HW1 1019   2.168   0.816   1.116  0.6799 -0.1974 -0.3612
  340SOL    HW2 1020   2.280   0.687   1.085  1.2427  0.1778  0.5660
  341SOL     OW 1021   1.889   2.049   0.352 -0.4455 -0.0777 -0.1880
  341SOL    HW1 1022   1.900   2.107   0.265  0.4106 -0.9483 -1.5947
  341SOL    HW2 1023   1.984   2.025   0.397  0.6544  1.3232  1.5144
  342SOL     OW 1024   2.171   2.160   2.772  0.1415 -0.1938  0.2018
  342SOL    HW1 1025   2.218   2.093   2.839 -2.2330  1.1936 -0.5903
  342SOL    HW2 1026   2.074   2.129   2.748  0.3941  0.2432  0.0792
  343SOL     OW 1027   0.357   0.864   2.848 -0.3416  0.1258  0.3107
  343SOL    HW1 1028   0.329   0.937   2.778  0.3109 -0.9256  0.0943
  343SOL    HW2 1029   0.457   0.855   2.860 -2.3793  4.4166 -0.1270
  344SOL     OW 1030   1.956   1.432   0.351 -0.3435 -0.3253 -0.1627
  344SOL    HW1 1031   1.973   1.347   0.293  0.1087 -1.5305 -2.0459
  344SOL    HW2 1032   1.857   1.455   0.369  0.7694  2.5082 -2.6912
  345SOL     OW 1033   1.392   2.198   2.844  0.5011  0.0342  0.1773
  345SOL    HW1 1034   1.291   2.189   2.813 -2.8257 -1.8844 -0.7256
  345SOL    HW2 1035   1.447   2.132   2.789 -0.1636  1.1626 -3.3649
  346SOL     OW 1036   2.313   0.809   1.362  0.1302 -0.4016  0.3671
  346SOL    HW1 1037   2.214   0.819   1.395 -0.3057 -1.4699  1.0971
  346SOL    HW2 1038   2.322   0.812   1.255  0.2438  1.9376  0.7308
  347SOL     OW 1039   0.708   2.802   1.705 -0.4394  0.0380  0.1545
  347SOL    HW1 1040   0.779   2.866   1.666  1.3542  0.6337  0.3385
  347SOL    HW2 1041   0.614   2.808   1.654 -2.6284 -1.8693 -0.8996
  348SOL     OW 1042   0.204   0.624   2.839 -0.4572 -0.5994 -0.1601
  348SOL    HW1 1043   0.109   0.667   2.849 -0.6060 -0.3932  0.5643
  348SOL    HW2 1044   0.275   0.698   2.824  0.4400  0.3045  0.0726
  349SOL     OW 1045   1.765   0.431   2.827 -0.2736  0.1586  0.0565
  349SOL    HW1 1046   1.759   0.522   2.777 -0.2013  0.3238  0.0463
  349SOL    HW2 1047   1.760   0.436   2.930 -0.4487 -2.2836 -1.8458
  350SOL     OW 1048   1.711   0.381   0.391  0.6824  0.1842 -0.1225
  350SOL    HW1 1049   1.810   0.371   0.422  1.1007  0.6043 -0.2164
  350SOL    HW2 1050   1.707   0.487   0.370 -0.1873  1.7154 -1.5313
  351SOL     OW 1051   0.842   0.805   2.088 -0.0664 -0.3037 -0.0551
  351SOL    HW1 1052   0.887   0.895   2.084  0.0100 -0.8260  0.6722
  351SOL    HW2 1053   0.857   0.753   1.997  0.6874  0.8197 -3.4019
  352SOL     OW 1054   2.063   1.364   0.600  0.3590  0.4988  0.1484
  352SOL    HW1 1055   2.023   1.382   0.504 -1.4534 -1.9933 -0.3640
  352SOL    HW2 1056   2.003   1.302   0.657  0.3946 -3.2770 -1.3660
  353SOL     OW 1057   2.178   2.697   1.131 -0.3578 -0.3717 -0.0958
  353SOL    HW1 1058   2.251   2.671   1.196 -1.3699  0.1754 -1.2389
  353SOL    HW2 1059   2.117   2.766   1.174  1.7985 -0.1220  1.3196
  354SOL     OW 1060   0.244   1.433   2.901  0.1410 -0.2539 -0.1948
  354SOL    HW1 1061   0.234   1.506   2.830  2.6166  0.7488  0.7543
  354SOL    HW2 1062   0.336   1.386   2.887 -0.8299 -0.2652 -0.2120
  355SOL     OW 1063   0.724   1.617   0.586 -0.4944 -0.0307  0.2454
  355SOL    HW1 1064   0.752   1.556   0.666 -2.1562 -1.2962  2.3698
  355SOL    HW2 1065   0.675   1.558   0.515  0.8630 -0.9910 -1.5529
  356SOL     OW 1066   0.990   0.336   2.096  0.1017  0.3672 -0.0951
  356SOL    HW1 1067   1.051   0.250   2.093  1.1158 -0.6888  0.1083
  356SOL    HW2 1068   0.905   0.335   2.038  0.0311 -0.3335 -3.2360
  357SOL     OW 1069   1.000   1.435   0.148  0.5740  0.5504 -0.3668
  357SOL    HW1 1070   1.046   1.371   0.078  1.0214 -0.5436 -1.0746
  357SOL    HW2 1071   1.072   1.499   0.186 -0.2789  1.7997  1.7806
  358SOL     OW 1072   1.676   1.465   0.453  0.1591  0.1316 -0.6053
  358SOL    HW1 1073   1.628   1.420   0.534  0.9175 -1.7365  0.7545
  358SOL    HW2 1074   1.642   1.423   0.361 -1.9126  1.4793 -0.1144
  359SOL     OW 1075   1.601   2.562   0.206  0.3344 -0.0324 -0.1701
  359SOL    HW1 1076   1.619   2.465   0.173  0.4846  0.3885 -0.9061
  359SOL    HW2 1077   1.501   2.578   0.229  1.5588  0.5094  1.3590
  360SOL     OW 1078   0.709   0.512   0.579 -0.2223  0.3922 -0.4730
  360SOL    HW1 1079   0.639   0.507   0.502  1.5931 -2.8822 -3.0083
  360SOL    HW2 1080   0.760   0.420   0.601 -0.1650 -1.9348 -1.6632
  361SOL     OW 1081   1.372   1.310   0.618  0.2360 -0.0760  0.3543
  361SOL    HW1 1082   1.412   1.357   0.698  0.1768 -0.3672 -2.1101
  361SOL    HW2 1083   1.282   1.359   0.597  1.5608  0.0160 -1.6769
  362SOL     OW 1084   1.383   1.815   0.707  0.0839  0.1127  0.5274
  362SOL    HW1 1085   1.441   1.762   0.776  2.2833  0.5206  0.1058
  362SOL    HW2 1086   1.437   1.844   0.625  1.8498 -1.8226 -0.0453
  363SOL     OW 1087   1.266   1.330   1.938 -0.2788 -0.2791 -0.5753
  363SOL    HW1 1088   1.355   1.329   1.990 -0.9662 -0.0691  2.3816
  363SOL    HW2 1089   1.204   1.409   1.963  0.0998  2.0592 -3.3961
  364SOL     OW 1090   0.558   2.381   1.956 -0.0074  0.1972  0.1366
  364SOL    HW1 1091   0.456   2.397   1.970 -0.1941 -1.8304 -0.6889
  364SOL    HW2 1092   0.600   2.467   1.921  0.2977 -0.1528  0.1298
  365SOL     OW 1093   0.943   1.949   1.438  0.2785 -0.2538 -0.6506
  365SOL    HW1 1094   0.849   1.970   1.482 -0.1857 -0.3978  1.1285
  365SOL    HW2 1095   0.952   1.973   1.335  1.1523 -1.2727 -0.3993
  366SOL     OW 1096   2.742   1.886   0.256 -0.0244 -0.5884  0.3618
  366SOL    HW1 1097   2.664   1.816   0.230 -1.8141 -1.6454  1.8243
  366SOL    HW2 1098   2.838   1.845   0.239  2.1181 -2.7904 -3.3002
  367SOL     OW 1099   0.959   1.097   3.031  0.1155 -0.4169 -0.0189
  367SOL    HW1 1100   0.969   1.029   3.111 -1.2370  1.2186  2.0495
  367SOL    HW2 1101   1.031   1.170   3.030 -0.4453  1.7841 -1.5317
  368SOL     OW 1102   1.441   0.522   0.492 -0.1788 -0.1825 -0.2644
  368SOL    HW1 1103   1.350   0.566   0.499 -2.3935 -1.0056  1.1772
  368SOL    HW2 1104   1.503   0.562   0.419  0.5551 -1.6543 -2.1147
  369SOL     OW 1105   0.367   1.658   0.146 -0.9069  0.0931 -0.0283
  369SOL    HW1 1106   0.418   1.731   0.208  1.4436  1.2456  1.4012
  369SOL    HW2 1107   0.334   1.579   0.199  2.1956  0.9844  0.6595
  370SOL     OW 1108   0.429   2.145   1.029  0.7752 -0.2364 -0.4322
  370SOL    HW1 1109   0.439   2.246   1.025 -1.1112 -1.8686 -1.3809
  370SOL    HW2 1110   0.332   2.113   1.001  0.6694 -2.5582  0.5046
  371SOL     OW 1111   2.913   2.164   2.705  0.1540  0.0101 -0.0946
  371SOL    HW1 1112   2.994   2.096   2.697  0.2940 -0.2335 -2.1810
  371SOL    HW2 1113   2.914   2.221   2.797  1.7999 -1.8085  2.6982
  372SOL     OW 1114   0.967   2.051   1.172 -0.1980 -0.1055  0.2967
  372SOL    HW1 1115   0.914   2.069   1.084 -1.6768  0.3649  3.0358
  372SOL    HW2 1116   1.033   2.128   1.195 -0.3493  1.8090  1.1972
  373SOL     OW 1117   1.931   1.907   1.041 -0.5518 -0.2844 -0.0705
  373SOL    HW1 1118   2.030   1.912   1.065 -1.5562  0.2560 -1.3218
  373SOL    HW2 1119   1.908   1.981   0.971  2.0113  1.5728 -1.6674
  374SOL     OW 1120   1.922   0.360   0.549  0.4623 -1.3424  0.4118
  374SOL    HW1 1121   1.907   0.316   0.639 -1.2863 -0.5633  0.9255
  374SOL    HW2 1122   2.026   0.374   0.527  0.0537  0.0181 -1.9726
  375SOL     OW 1123   2.442   2.186   1.133  0.2803 -0.3341 -0.3715
  375SOL    HW1 1124   2.457   2.191   1.033 -1.3982  1.2160  2.8355
  375SOL    HW2 1125   2.520   2.143   1.187  1.2385  1.2408 -2.0936
  376SOL     OW 1126   3.068   0.629   1.436 -0.2876 -0.0215 -0.3895
  376SOL    HW1 1127   3.114   0.675   1.515 -3.4760 -1.4119  0.6659
  376SOL    HW2 1128   3.006   0.552   1.468  1.4727 -0.6421  3.4482
  377SOL     OW 1129   2.253   2.933   0.168  0.3714  0.2863 -0.3987
  377SOL    HW1 1130   2.215   2.997   0.240  3.8278  2.6737 -3.0286
  377SOL    HW2 1131   2.285   2.844   0.213 -2.2574 -0.5263 -0.3847
  378SOL     OW 1132   1.902   1.913   2.527  0.1615  0.2447  0.3643
  378SOL    HW1 1133   1.995   1.908   2.479  1.1749 -0.0363 -1.6453
  378SOL    HW2 1134   1.839   1.835   2.495 -0.7899 -0.6705 -1.1295
  379SOL     OW 1135   0.769   0.153   2.822  0.1591 -0.0190 -0.3437
  379SOL    HW1 1136   0.780   0.060   2.781  2.8297  2.8437 -1.9554
  379SOL    HW2 1137   0.733   0.215   2.743  0.3057 -2.3954 -2.9258
  380SOL     OW 1138   1.545   1.115   0.548  0.2389 -0.1520  0.2694
  380SOL    HW1 1139   1.481   1.192   0.578  1.4694 -2.9157  1.6721
  380SOL    HW2 1140   1.501   1.028   0.516  1.2269 -2.6646 -0.2660
  381SOL     OW 1141   1.263   1.307   1.475 -0.0639 -0.2006 -0.5039
  381SOL    HW1 1142   1.298   1.225   1.422  1.9097  0.3807 -2.2177
  381SOL    HW2 1143   1.322   1.341   1.552 -0.3543 -1.7246 -2.5541
  382SOL     OW 1144   1.810   0.843   0.269 -0.0492  0.3404  0.4939
  382SOL    HW1 1145   1.810   0.798   0.175  1.2300 -0.5863  1.0695
  382SOL    HW2 1146   1.896   0.838   0.325 -2.4513  1.7142 -0.0915
  383SOL     OW 1147   2.517   1.006   1.478 -0.0770  0.5075  0.4718
  383SOL    HW1 1148   2.425   0.988   1.440 -0.8680  2.0856  0.3210
  383SOL    HW2 1149   2.591   0.985   1.408 -2.4214 -2.3222  2.7453
  384SOL     OW 1150   0.952   2.311   0.221  0.5688 -0.1169 -0.4474
  384SOL    HW1 1151   0.857   2.347   0.193 -2.3563 -0.8747 -1.9318
  384SOL    HW2 1152   0.958   2.272   0.318  1.4947 -0.4401 -0.2399
  385SOL     OW 1153   2.936   2.028   1.659 -0.4224 -0.1533 -0.5144
  385SOL    HW1 1154   3.008   2.086   1.707 -1.8092 -2.4211 -0.5383
  385SOL    HW2 1155   2.959   1.929   1.650  0.2589 -1.1290 -1.3969
  386SOL     OW 1156   0.475   1.071   0.472  0.0108 -0.0640 -0.1177
  386SOL    HW1 1157   0.470   0.974   0.503  0.2008 -1.6809  5.4040
  386SOL    HW2 1158   0.386   1.119   0.440 -0.4431  1.3385  3.7057
  387SOL     OW 1159   0.964   0.308   1.638 -0.1956 -1.0184 -0.2541
  387SOL    HW1 1160   0.989   0.408   1.619 -1.0151  1.1479 -1.1439
  387SOL    HW2 1161   0.929   0.263   1.550 -1.5673  0.8430 -0.4571
  388SOL     OW 1162   1.200   2.713   1.743  0.3700  0.3352 -0.4031
  388SOL    HW1 1163   1.225   2.746   1.647  2.6663 -0.4974 -0.2642
  388SOL    HW2 1164   1.279   2.655   1.782 -0.6431 -1.2873  4.1814
  389SOL     OW 1165   0.152   2.913   1.315  0.2607  0.2955  0.0917
  389SOL    HW1 1166   0.048   2.908   1.297 -0.9231 -0.4301 -1.7477
  389SOL    HW2 1167   0.197   2.817   1.332  1.8062 -1.2915  0.4203
  390SOL     OW 1168   1.022   0.965   1.373  0.1141 -0.3245 -0.3561
  390SOL    HW1 1169   1.103   0.961   1.442  1.6248  0.2251 -0.3828
  390SOL    HW2 1170   0.963   1.055   1.377 -0.7371 -0.4719  1.4257
  391SOL     OW 1171   2.168   1.136   1.115 -0.3914  0.9803 -0.3769
  391SOL    HW1 1172   2.106   1.062   1.154  1.9439 -1.4716  0.8651
  391SOL    HW2 1173   2.208   1.122   1.017 -1.6806  0.7313 -3.5200
  392SOL     OW 1174   0.883   2.620   0.071  0.2358 -0.5081 -0.2154
  392SOL    HW1 1175   0.978   2.574   0.058  0.3255 -0.0941 -0.6337
  392SOL    HW2 1176   0.822   2.564   0.130  0.1336  1.3092  1.3454
  393SOL     OW 1177   0.293   0.660   1.959  0.3787 -0.4601 -0.4681
  393SOL    HW1 1178   0.287   0.558   1.964  0.0190 -1.4015  0.3597
  393SOL    HW2 1179   0.331   0.690   1.865 -0.8179  0.2374 -1.6595
  394SOL     OW 1180   3.077   1.939   2.696  0.4147 -0.3794  0.3945
  394SOL    HW1 1181   3.158   1.903   2.754 -1.8873 -1.2616  0.9457
  394SOL    HW2 1182   3.060   1.886   2.606 -0.7135 -0.3710 -2.7355
  395SOL     OW 1183   1.619   1.978   0.645  0.0109  0.3294  0.2941
  395SOL    HW1 1184   1.665   1.899   0.595  1.2067 -0.6327  1.9924
  395SOL    HW2 1185   1.671   2.019   0.723  1.1698  2.1042 -1.3383
  396SOL     OW 1186   2.906   1.872   1.278 -0.3620 -0.1392  0.4142
  396SOL    HW1 1187   2.922   1.768   1.283  2.5998 -2.4168 -1.0641
  396SOL    HW2 1188   2.863   1.909   1.361  1.9864 -0.7735 -0.4486
  397SOL     OW 1189   1.038   2.205   0.512 -0.1345  0.0021  0.2594
  397SOL    HW1 1190   0.937   2.208   0.535  0.5486 -2.5240 -0.6346
  397SOL    HW2 1191   1.083   2.298   0.526  1.3772  1.2173  0.2538
  398SOL     OW 1192   2.149   3.063   1.136 -0.0773 -0.9800  0.4359
  398SOL    HW1 1193   2.071   2.995   1.148  0.7465  0.5870  2.3679
  398SOL    HW2 1194   2.112   3.151   1.093  0.5462  1.0005  1.1042
  399SOL     OW 1195   3.054   2.447   2.659 -0.1411  0.2216  0.2786
  399SOL    HW1 1196   2.973   2.387   2.665 -0.6981  0.1503  0.2431
  399SOL    HW2 1197   3.126   2.407   2.725  1.1727 -1.9484 -4.4821
  400SOL     OW 1198   0.663   1.688   1.364 -0.3887  0.6452 -0.2241
  400SOL    HW1 1199   0.602   1.726   1.438 -3.4469  1.2590 -2.7678
  400SOL    HW2 1200   0.683   1.751   1.284 -0.8351 -0.0300 -0.2600
  401SOL     OW 1201   1.859   0.276   1.137  0.5845  0.1265 -0.1482
  401SOL    HW1 1202   1.889   0.307   1.233 -0.3030  1.6990 -0.0938
  401SOL    HW2 1203   1.763   0.306   1.124  1.2637  1.6548  2.0938
  402SOL     OW 1204   1.354   0.264   3.090  0.3699 -0.0890  0.1768
  402SOL    HW1 1205   1.417   0.217   3.023 -0.8292 -0.2759 -0.0450
  402SOL    HW2 1206   1.293   0.334   3.045  1.2108 -0.6359 -2.4397
  403SOL     OW 1207   2.228   1.873   0.840  0.5885  0.8885 -0.1592
  403SOL    HW1 1208   2.323   1.882   0.809 -1.8337 -1.8423 -0.1229
  403SOL    HW2 1209   2.202   1.922   0.928 -0.6600 -2.0123 -1.5368
  404SOL     OW 1210   0.251   2.484   2.757  0.1388  0.1478  0.1957
  404SOL    HW1 1211   0.335   2.459   2.702  0.7570  1.9306 -1.7481
  404SOL    HW2 1212   0.256   2.575   2.804  2.1711 -0.9942  0.3740
  405SOL     OW 1213   0.132   2.380   0.742  0.7514 -0.1274 -0.2301
  405SOL    HW1 1214   0.115   2.316   0.665 -1.4502  0.6259  0.8984
  405SOL    HW2 1215   0.203   2.450   0.732 -1.4765  0.8764 -1.5176
  406SOL     OW 1216   0.045   1.542   3.094 -0.0032  0.0711 -0.1045
  406SOL    HW1 1217   0.096   1.472   3.035 -0.1764 -0.0755 -1.9307
  406SOL    HW2 1218   0.057   1.538   3.198  0.3482  0.4587 -0.1122
  407SOL     OW 1219   1.586   0.885   0.970 -0.4293  0.1441 -0.1434
  407SOL    HW1 1220   1.585   0.869   0.866  0.6605 -2.0422 -2.1066
  407SOL    HW2 1221   1.524   0.963   1.004  1.7294  0.3922  0.6626
  408SOL     OW 1222   1.539   2.379   0.963  0.1906 -0.4213  0.0955
  408SOL    HW1 1223   1.629   2.370   0.907  3.2174 -0.3701 -1.1344
  408SOL    HW2 1224   1.483   2.462   0.937  0.4149 -0.4779  0.8313
  409SOL     OW 1225   0.620   0.826   0.752  0.3207 -0.1806 -0.2234
  409SOL    HW1 1226   0.547   0.818   0.680 -2.1805 -0.7202 -0.9194
  409SOL    HW2 1227   0.640   0.737   0.802 -3.9348  0.1071  0.9970
  410SOL     OW 1228   1.248   2.003   1.381 -0.3664  0.3231 -0.1613
  410SOL    HW1 1229   1.332   1.956   1.411 -1.2706 -0.8697  1.0643
  410SOL    HW2 1230   1.162   1.943   1.387 -0.7300 -1.3063  2.0284
  411SOL     OW 1231   2.524   1.850   3.013 -0.3894  0.3008 -0.1452
  411SOL    HW1 1232   2.570   1.939   3.033 -0.1251  0.5524  0.7812
  411SOL    HW2 1233   2.444   1.854   2.945  1.4437 -2.5160 -3.1708
  412SOL     OW 1234   1.475   2.469   2.157  0.3608 -0.1049  0.1171
  412SOL    HW1 1235   1.542   2.464   2.235 -0.5360 -0.4459  0.4100
  412SOL    HW2 1236   1.376   2.459   2.185  0.0125  1.6662  1.1308
  413SOL     OW 1237   0.006   0.241   3.008  0.5196  0.6975  0.7689
  413SOL    HW1 1238  -0.040   0.162   3.059  2.6625 -0.7065 -2.1595
  413SOL    HW2 1239   0.108   0.256   3.039  0.6720  0.8878  0.9348
  414SOL     OW 1240   1.780   1.501   1.160 -0.0447  0.2201 -0.4973
  414SOL    HW1 1241   1.756   1.597   1.197  1.0159  2.2298  1.3970
  414SOL    HW2 1242   1.751   1.495   1.061  2.5708 -0.2588 -0.1411
  415SOL     OW 1243   0.337   2.155   0.672  0.4829 -0.6432 -0.2933
  415SOL    HW1 1244   0.342   2.160   0.776  1.0517 -0.0630  0.6330
  415SOL    HW2 1245   0.248   2.150   0.623 -0.4062 -1.2140 -1.4257
  416SOL     OW 1246   0.373   1.105   1.059 -0.3272 -0.2686  0.1523
  416SOL    HW1 1247   0.329   1.015   1.035  2.1988  0.1677 -2.1139
  416SOL    HW2 1248   0.472   1.092   1.081 -1.9111  0.3652  1.0260
  417SOL     OW 1249   2.357   2.414   2.109  0.4158 -0.7375  0.0582
  417SOL    HW1 1250   2.359   2.312   2.086 -0.9930  0.0339  0.6314
  417SOL    HW2 1251   2.317   2.440   2.203  1.1273  0.7878 -2.7426
  418SOL     OW 1252   1.025   0.499   1.343  0.2885  0.6078 -0.0196
  418SOL    HW1 1253   0.952   0.452   1.289  2.3520  0.9944 -1.5155
  418SOL    HW2 1254   1.080   0.553   1.274 -0.3472 -1.5495  0.8856
  419SOL     OW 1255   0.915   0.545   2.974 -0.9704 -0.6168 -0.0341
  419SOL    HW1 1256   0.822   0.564   2.932  0.6109  3.1030 -0.2487
  419SOL    HW2 1257   0.974   0.632   2.990 -0.7028  2.5054 -0.4187
  420SOL     OW 1258   0.120   2.203   0.502  0.0084 -0.3550 -0.0219
  420SOL    HW1 1259   0.164   2.228   0.414 -1.5291 -3.2217  1.7774
  420SOL    HW2 1260   0.063   2.119   0.501 -0.5311  4.1582  1.0506
  421SOL     OW 1261   0.322   2.987   0.542 -0.5487 -0.1764 -0.2629
  421SOL    HW1 1262   0.301   2.912   0.609 -0.6610 -0.1504 -0.2776
  421SOL    HW2 1263   0.401   3.045   0.571 -0.0584 -0.3503  1.9067
  422SOL     OW 1264   1.046   2.573   0.989 -0.0486 -0.4506 -1.0506
  422SOL    HW1 1265   1.095   2.612   0.910  1.5592 -5.3044  0.7842
  422SOL    HW2 1266   1.114   2.564   1.069  2.7974  0.3461 -1.3246
  423SOL     OW 1267   0.147   0.733   1.254  0.0844 -0.1077  0.3284
  423SOL    HW1 1268   0.097   0.668   1.316  0.8042  1.9831  0.2626
  423SOL    HW2 1269   0.092   0.814   1.219  1.1855  0.5668 -0.9270
  424SOL     OW 1270   1.171   2.219   2.048 -0.3776 -0.1373  0.1739
  424SOL    HW1 1271   1.152   2.321   2.066  0.2731 -0.1829 -1.2780
  424SOL    HW2 1272   1.117   2.161   2.118  1.2264 -0.4635  0.4640
  425SOL     OW 1273   1.990   1.304   0.985 -0.2987 -0.0392  0.2493
  425SOL    HW1 1274   2.058   1.247   1.043 -1.6587  1.8538  1.5425
  425SOL    HW2 1275   2.002   1.409   0.988  0.8618  0.2013  1.8994
  426SOL     OW 1276   1.438   1.602   1.197  0.1313 -0.2348 -0.0002
  426SOL    HW1 1277   1.469   1.699   1.161  2.1633  0.9863 -0.8405
  426SOL    HW2 1278   1.399   1.616   1.290 -2.0619  0.1548 -1.1868
  427SOL     OW 1279   1.950   2.382   2.074  0.4634  0.7102  0.7640
  427SOL    HW1 1280   2.022   2.326   2.132  0.3249  1.1367  1.6214
  427SOL    HW2 1281   1.948   2.483   2.094  0.2213  1.7925 -1.3128
  428SOL     OW 1282   0.883   0.042   0.112  0.6501 -0.2052 -0.0364
  428SOL    HW1 1283   0.905   0.110   0.037 -0.6096  2.5061 -0.2103
  428SOL    HW2 1284   0.959  -0.029   0.136  1.3442 -1.1937  0.3755
  429SOL     OW 1285   1.306   0.171   0.246 -0.3067 -0.0275 -0.1774
  429SOL    HW1 1286   1.400   0.158   0.285  0.9807  1.0483  0.8399
  429SOL    HW2 1287   1.305   0.198   0.144  2.2081 -0.0047 -0.7196
  430SOL     OW 1288   2.906   1.420   0.298  0.2920 -0.7806 -0.3743
  430SOL    HW1 1289   2.890   1.466   0.201 -1.4300  4.0032 -2.4623
  430SOL    HW2 1290   2.863   1.479   0.376 -0.4546  1.7335 -3.4311
  431SOL     OW 1291   2.058   1.579   0.911  0.0935 -0.0121 -0.0640
  431SOL    HW1 1292   2.143   1.637   0.924  0.5229 -1.7001 -0.9230
  431SOL    HW2 1293   1.974   1.635   0.879  1.3381  1.7828 -4.2987
  432SOL     OW 1294   2.915   2.157   1.214 -0.0191  0.0587 -0.4335
  432SOL    HW1 1295   2.924   2.061   1.256 -0.4087 -0.0670  2.8185
  432SOL    HW2 1296   2.944   2.228   1.284  0.3500  2.0662 -2.2904
  433SOL     OW 1297   1.855   0.211   0.816 -0.1319  0.4745 -0.6240
  433SOL    HW1 1298   1.811   0.291   0.871 -0.3397  1.6713  1.8168
  433SOL    HW2 1299   1.913   0.152   0.873 -0.8798  4.6714  0.2165
  434SOL     OW 1300   1.548   0.311   0.663 -0.0050 -0.4453  0.4101
  434SOL    HW1 1301   1.524   0.347   0.571 -0.8719 -0.2089  0.6012
  434SOL    HW2 1302   1.599   0.378   0.714  0.5355 -0.6682 -3.8177
  435SOL     OW 1303   1.512   1.421   2.078 -0.4299 -0.0897  0.5890
  435SOL    HW1 1304   1.507   1.453   2.176  0.3812 -0.0931 -0.5532
  435SOL    HW2 1305   1.497   1.493   2.006 -0.3141  0.1658 -1.4331
  436SOL     OW 1306   1.709   2.723   2.253  0.3252 -0.2496  0.4247
  436SOL    HW1 1307   1.661   2.770   2.329  1.0707 -0.3769 -1.1715
  436SOL    HW2 1308   1.721   2.620   2.279  1.9693  0.6431  2.0923
  437SOL     OW 1309   1.105   2.958   0.926  0.1989 -0.0953  0.0523
  437SOL    HW1 1310   1.030   3.029   0.914  1.1678  2.2299 -0.8772
  437SOL    HW2 1311   1.104   2.921   1.023  1.1851 -1.9828  1.8470
  438SOL     OW 1312   1.019   2.680   1.478  0.4225  0.2276  0.5185
  438SOL    HW1 1313   1.099   2.745   1.486 -3.8640  0.5866  0.7292
  438SOL    HW2 1314   1.033   2.583   1.441  1.3401  1.3490 -0.9828
  439SOL     OW 1315   0.687   1.840   1.059 -0.1174  0.0272 -0.2198
  439SOL    HW1 1316   0.662   1.905   0.983 -2.0715 -1.7394  0.6380
  439SOL    HW2 1317   0.608   1.777   1.088 -0.2973  0.4341  2.9440
  440SOL     OW 1318   1.063   2.488   1.983 -0.6161  0.5751 -0.2211
  440SOL    HW1 1319   0.990   2.551   1.937 -1.5680 -2.5858 -1.6123
  440SOL    HW2 1320   1.157   2.496   1.940 -1.8684 -0.4438 -0.0482
  441SOL     OW 1321   0.377   2.668   1.536 -0.1193  0.4507 -0.3974
  441SOL    HW1 1322   0.458   2.618   1.495  0.2306 -0.0189 -1.8483
  441SOL    HW2 1323   0.289   2.663   1.477  0.2390  2.5500 -1.3357
  442SOL     OW 1324   2.272   0.679   2.556  0.2630 -0.6066  0.0438
  442SOL    HW1 1325   2.274   0.578   2.585  0.9929  0.7372 -1.6399
  442SOL    HW2 1326   2.179   0.719   2.578  2.0113  0.8845  1.4147
  443SOL     OW 1327   1.206   2.661   2.199 -0.0301 -0.0806  0.0186
  443SOL    HW1 1328   1.201   2.737   2.271  0.5631  1.4631 -0.0289
  443SOL    HW2 1329   1.232   2.566   2.241 -0.9607  0.1704  0.4954
  444SOL     OW 1330   0.993   1.373   1.556  0.1687  0.1115 -0.1319
  444SOL    HW1 1331   1.091   1.368   1.524 -0.4179  2.8215  0.8655
  444SOL    HW2 1332   0.953   1.469   1.542 -1.7109  1.0102 -0.1269
  445SOL     OW 1333   3.069   2.363   1.969  0.3334  0.1787  0.3796
  445SOL    HW1 1334   3.080   2.459   1.923  0.9239  0.2289 -2.4075
  445SOL    HW2 1335   2.967   2.347   1.995  0.5422 -0.2639  1.5353
  446SOL     OW 1336   0.193   1.880   2.339  0.0805 -0.0221 -0.2819
  446SOL    HW1 1337   0.162   1.963   2.396 -1.6076 -2.8486  0.2778
  446SOL    HW2 1338   0.111   1.837   2.291 -1.5289 -0.8212  2.1935
  447SOL     OW 1339   1.231   1.663   1.936 -0.1802 -0.3410  0.1247
  447SOL    HW1 1340   1.194   1.759   1.923  0.4906  1.1884 -0.3089
  447SOL    HW2 1341   1.332   1.664   1.965 -0.4741  2.0812  0.4860
  448SOL     OW 1342   0.111   1.532   1.952  0.1288  0.1596 -0.4913
  448SOL    HW1 1343   0.105   1.637   1.953 -2.3006  2.8377  1.0100
  448SOL    HW2 1344   0.150   1.501   2.041 -0.4861  0.3787 -0.6516
  449SOL     OW 1345   2.006   3.005   0.848  0.1895 -0.3763  0.3868
  449SOL    HW1 1346   2.034   3.025   0.945  0.5738 -1.5711  1.4633
  449SOL    HW2 1347   1.982   2.904   0.824 -0.0789  1.9779 -3.6071
  450SOL     OW 1348   2.270   1.369   0.899 -0.2101 -0.3010  0.2807
  450SOL    HW1 1349   2.252   1.266   0.885  1.0424  1.8063 -0.5638
  450SOL    HW2 1350   2.229   1.439   0.826  2.1669  0.2309 -0.8548
  451SOL     OW 1351   1.418   0.029   1.433 -0.1946 -0.4394  0.1032
  451SOL    HW1 1352   1.347   0.105   1.453  2.1761  1.8190  1.7217
  451SOL    HW2 1353   1.429  -0.034   1.515 -0.9501 -0.6043 -1.1426
  452SOL     OW 1354   2.658   2.326   2.251  0.6015  0.4683  0.0720
  452SOL    HW1 1355   2.608   2.419   2.261 -0.6633  1.8229 -2.2297
  452SOL    HW2 1356   2.699   2.291   2.335 -1.9965  2.2835 -1.8159
  453SOL     OW 1357   2.432   2.590   3.033 -0.0706  0.1827  0.2258
  453SOL    HW1 1358   2.368   2.666   3.061 -1.7855 -1.5289 -2.5607
  453SOL    HW2 1359   2.395   2.531   2.951 -1.0762 -1.9661  0.4252
  454SOL     OW 1360   0.958   1.091   2.081 -0.1587  0.0516 -0.2638
  454SOL    HW1 1361   0.958   1.143   1.991 -0.8550  2.7170 -0.3400
  454SOL    HW2 1362   1.048   1.050   2.115 -1.1984 -2.7354  2.8714
  455SOL     OW 1363   0.666   2.666   2.914 -0.9384  0.7418 -0.2689
  455SOL    HW1 1364   0.711   2.747   2.957 -1.3759 -0.7035 -0.5615
  455SOL    HW2 1365   0.667   2.584   2.981 -1.3566 -1.3206  0.8743
  456SOL     OW 1366   0.525   1.790   0.305 -0.6233  0.0433  0.7361
  456SOL    HW1 1367   0.590   1.722   0.345 -0.6594 -2.7942  1.6642
  456SOL    HW2 1368   0.575   1.882   0.284 -1.2476  0.1075  0.3513
  457SOL     OW 1369   0.332   2.528   0.667 -0.0171 -0.1801 -0.1937
  457SOL    HW1 1370   0.346   2.570   0.572  3.2704  0.2507 -0.9404
  457SOL    HW2 1371   0.421   2.501   0.713  1.6065  0.4166  1.4026
  458SOL     OW 1372   2.982   2.959   1.272  0.5957  0.7883 -0.2692
  458SOL    HW1 1373   3.023   3.054   1.253  0.7023  1.6948 -2.4130
  458SOL    HW2 1374   2.958   2.903   1.185 -2.2858 -1.8771 -1.3569
  459SOL     OW 1375   2.163   2.535   0.896  0.1540  0.1892  0.0510
  459SOL    HW1 1376   2.184   2.584   0.986  4.6952  2.4888  1.0899
  459SOL    HW2 1377   2.245   2.534   0.834 -1.9505  1.2235 -0.8560
  460SOL     OW 1378   1.070   1.919   2.922 -0.0359  0.3728 -0.2302
  460SOL    HW1 1379   1.088   2.018   2.887 -2.7185  1.4372  0.8311
  460SOL    HW2 1380   1.151   1.873   2.968  2.1597 -0.6681 -1.6517
  461SOL     OW 1381   0.554   2.115   2.709  0.4254  0.0457 -0.2721
  461SOL    HW1 1382   0.468   2.059   2.702  1.6250 -0.1149 -0.0908
  461SOL    HW2 1383   0.616   2.086   2.787  1.2963  0.0945  0.0358
  462SOL     OW 1384   0.955   1.185   1.794 -0.1746 -0.6675 -0.2293
  462SOL    HW1 1385   1.006   1.094   1.779 -0.8107  2.4333 -1.2151
  462SOL    HW2 1386   0.992   1.263   1.728  2.8956  2.6382  0.0453
  463SOL     OW 1387   0.437   0.796   0.529 -0.3649 -0.6277 -0.5232
  463SOL    HW1 1388   0.461   0.700   0.490  2.0167 -0.5294 -0.8256
  463SOL    HW2 1389   0.336   0.814   0.531  0.3059 -0.9834 -1.2630
  464SOL     OW 1390   0.498   2.242   2.228  0.2009  0.0957  0.1090
  464SOL    HW1 1391   0.423   2.284   2.284  1.2589 -1.3658  0.2241
  464SOL    HW2 1392   0.523   2.295   2.142 -1.0099  0.1871 -0.6609
  465SOL     OW 1393   0.284   0.887   0.894  0.5245  0.7143  0.2944
  465SOL    HW1 1394   0.211   0.912   0.823  1.4758  0.1325 -2.4143
  465SOL    HW2 1395   0.330   0.796   0.889  1.9902  1.2395 -1.5900
  466SOL     OW 1396   1.390   1.053   1.058  0.2940  0.0215  0.6501
  466SOL    HW1 1397   1.449   1.137   1.081 -0.2435  0.8079 -1.0886
  466SOL    HW2 1398   1.288   1.080   1.063 -1.4302  0.2997  2.5640
  467SOL     OW 1399   0.455   0.385   2.441  0.2060 -0.0853  0.4267
  467SOL    HW1 1400   0.443   0.474   2.498  2.4118 -0.0735  1.0228
  467SOL    HW2 1401   0.470   0.294   2.495  1.1125 -2.3342  1.2852
  468SOL     OW 1402   0.498   2.228   1.709 -0.2612 -0.4044  0.5487
  468SOL    HW1 1403   0.502   2.299   1.784  0.7196  0.1063  1.2078
  468SOL    HW2 1404   0.455   2.268   1.623 -0.6019 -0.4576 -0.6276
  469SOL     OW 1405   1.570   1.266   1.100  0.4664  0.1594  0.1107
  469SOL    HW1 1406   1.660   1.210   1.101  1.7414  0.9016  3.0773
  469SOL    HW2 1407   1.578   1.366   1.125 -0.7440 -1.7533 -1.2909
  470SOL     OW 1408   3.030   1.639   0.725  0.3110 -0.2764  0.3763
  470SOL    HW1 1409   3.129   1.629   0.762 -0.2789  1.2793  2.2324
  470SOL    HW2 1410   2.972   1.709   0.779  0.9643  3.3285  1.8045
  471SOL     OW 1411   2.657   1.295   2.158 -0.5049  0.0851  0.7309
  471SOL    HW1 1412   2.646   1.222   2.228  0.7978  0.5357 -1.1040
  471SOL    HW2 1413   2.709   1.376   2.188 -0.5806  1.0705 -0.2290
  472SOL     OW 1414   1.122   2.464   0.026  0.0811 -0.2202 -0.1772
  472SOL    HW1 1415   1.194   2.469   0.103  1.1133  0.5097 -1.2638
  472SOL    HW2 1416   1.107   2.369  -0.012  0.0707  0.1767 -2.3982
  473SOL     OW 1417   1.051   1.578   0.855 -0.1371 -0.3848  0.7629
  473SOL    HW1 1418   0.961   1.624   0.881 -1.9780 -1.2235  2.1878
  473SOL    HW2 1419   1.113   1.555   0.939 -1.4916 -2.6587  0.4707
  474SOL     OW 1420   0.808   1.216   0.771 -0.2216  0.4815  0.3792
  474SOL    HW1 1421   0.778   1.170   0.684  0.4461  0.8761  2.3538
  474SOL    HW2 1422   0.905   1.182   0.801  0.2398  0.8728 -0.6469
  475SOL     OW 1423   2.894   0.079   0.776  0.1690 -0.1349  0.2867
  475SOL    HW1 1424   2.974   0.065   0.839  2.7835 -0.8936  0.3837
  475SOL    HW2 1425   2.804   0.098   0.833 -3.5080 -1.0105  1.3587
  476SOL     OW 1426   0.885   3.043   1.847  0.5825  0.1440  0.6709
  476SOL    HW1 1427   0.928   2.990   1.926  2.1145 -0.3411  0.5497
  476SOL    HW2 1428   0.908   2.997   1.755 -0.7837  0.0574  0.0406
  477SOL     OW 1429   1.447   0.383   2.429  0.3926  0.4173 -0.2033
  477SOL    HW1 1430   1.429   0.420   2.523 -0.0218 -0.7014  1.1610
  477SOL    HW2 1431   1.544   0.344   2.422  1.4381 -0.2019  0.3932
  478SOL     OW 1432   2.256   1.800   0.272 -0.4603 -0.1575 -0.4735
  478SOL    HW1 1433   2.185   1.724   0.258 -0.4656 -1.7892 -1.3032
  478SOL    HW2 1434   2.355   1.770   0.247 -0.6688 -0.4180  2.3022
  479SOL     OW 1435   1.209   1.105   2.851 -0.7037  0.6239  0.2295
  479SOL    HW1 1436   1.269   1.115   2.772 -2.6992 -1.0967  1.9221
  479SOL    HW2 1437   1.115   1.069   2.827  0.2444  2.1826  2.1152
  480SOL     OW 1438   2.471   2.348   0.360  0.2427 -0.0391  0.1600
  480SOL    HW1 1439   2.417   2.289   0.426  0.8895  0.2572 -2.9199
  480SOL    HW2 1440   2.423   2.352   0.268 -1.7284  2.1388 -0.1260
  481SOL     OW 1441   1.078   1.207   0.808 -0.1754 -0.2591  0.2918
  481SOL    HW1 1442   1.073   1.283   0.734 -1.8340  0.2494  1.6730
  481SOL    HW2 1443   1.118   1.235   0.902 -0.1600  0.1293  0.3187
  482SOL     OW 1444   1.620   0.286   2.030  0.4163 -0.1431 -0.3981
  482SOL    HW1 1445   1.630   0.369   1.969 -1.3491 -2.4093  1.2399
  482SOL    HW2 1446   1.710   0.262   2.080  0.7813 -0.1775 -1.1279
  483SOL     OW 1447   0.135   2.346   1.315  0.3269 -0.3307 -0.3059
  483SOL    HW1 1448   0.029   2.356   1.316 -2.3155 -1.4420  2.1064
  483SOL    HW2 1449   0.169   2.379   1.221 -1.0545  0.5566 -0.5081
  484SOL     OW 1450   1.724   0.956   1.390  0.0538 -0.2293  0.3624
  484SOL    HW1 1451   1.803   0.920   1.443  0.1211 -0.1344 -0.0893
  484SOL    HW2 1452   1.746   1.035   1.330 -1.8124 -1.4198 -1.0863
  485SOL     OW 1453   0.697   1.114   1.779  0.1410  0.2353  0.1272
  485SOL    HW1 1454   0.711   1.068   1.684  0.6699 -1.8920  0.2289
  485SOL    HW2 1455   0.780   1.168   1.808 -1.6441 -0.9014 -2.2426
  486SOL     OW 1456   0.881   1.913   2.419  0.3888  0.3105 -0.0637
  486SOL    HW1 1457   0.966   1.883   2.470 -1.1998 -1.0531 -1.9429
  486SOL    HW2 1458   0.843   2.010   2.441  1.5615  0.3627  0.2840
  487SOL     OW 1459   1.739   1.496   0.883 -0.0627 -0.0107 -0.6852
  487SOL    HW1 1460   1.689   1.416   0.836 -0.4831  0.7089  1.1447
  487SOL    HW2 1461   1.795   1.563   0.824  1.0203 -0.2600  2.7082
  488SOL     OW 1462   2.960   0.954   2.283  0.5498 -0.3031 -0.4885
  488SOL    HW1 1463   3.032   0.897   2.239 -2.5868  0.0649  0.6047
  488SOL    HW2 1464   2.975   0.955   2.387  0.4566  2.2557  1.9764
  489SOL     OW 1465   2.789   0.198   1.307 -0.6027 -0.1904 -0.0708
  489SOL    HW1 1466   2.777   0.160   1.400  1.4610  0.6061  0.1442
  489SOL    HW2 1467   2.875   0.161   1.260  2.0911 -2.0087  0.5552
  490SOL     OW 1468   1.423   2.969   2.839 -0.2799 -0.4919 -0.6088
  490SOL    HW1 1469   1.446   2.867   2.821  0.7416  2.3201  0.7966
  490SOL    HW2 1470   1.373   3.012   2.753  0.4610  1.5240  1.7657
  491SOL     OW 1471   1.913   1.558   2.659 -0.4091 -0.1481  0.1813
  491SOL    HW1 1472   1.916   1.584   2.758  3.0519  2.3513  0.2230
  491SOL    HW2 1473   1.988   1.600   2.599  0.6745  2.9154 -2.7005
  492SOL     OW 1474   0.467   1.926   0.716  0.1603 -0.5451 -0.2393
  492SOL    HW1 1475   0.548   1.928   0.782 -1.8884 -1.5151 -1.4015
  492SOL    HW2 1476   0.425   2.020   0.699  0.7885  0.9090 -0.5758
  493SOL     OW 1477   0.459   1.410   2.140  0.1656  0.2206  0.8245
  493SOL    HW1 1478   0.355   1.420   2.141 -0.0298 -1.7470 -0.2359
  493SOL    HW2 1479   0.486   1.330   2.201  1.2447  1.1411  0.7975
  494SOL     OW 1480   2.615   2.661   0.176 -0.1375 -0.4244 -0.4084
  494SOL    HW1 1481   2.649   2.590   0.241 -1.5212 -0.1905  0.5281
  494SOL    HW2 1482   2.618   2.630   0.077 -1.1373 -0.7006  1.4455
  495SOL     OW 1483   2.763   2.691   2.690 -0.6451 -0.5928 -0.3038
  495SOL    HW1 1484   2.757   2.599   2.642 -1.0579  0.9905  1.2041
  495SOL    HW2 1485   2.761   2.773   2.618  2.0236  1.6284 -1.4235
  496SOL     OW 1486   2.030   2.191   0.705 -0.4334  0.3528 -0.2755
  496SOL    HW1 1487   2.034   2.236   0.799  0.1089  1.9798  0.0761
  496SOL    HW2 1488   2.065   2.101   0.699  0.5007 -2.1664  1.2595
  497SOL     OW 1489   0.230   2.984   2.398  0.0312 -0.1082  0.0924
  497SOL    HW1 1490   0.164   3.039   2.460  0.9807 -3.0098 -0.2453
  497SOL    HW2 1491   0.273   3.053   2.329  1.2483 -1.4374  0.6804
  498SOL     OW 1492   1.214   1.495   1.065  0.2444  0.1850 -0.7136
  498SOL    HW1 1493   1.296   1.543   1.105  0.1465  1.1395  1.6363
  498SOL    HW2 1494   1.131   1.520   1.132 -2.4344  0.5164  0.1215
  499SOL     OW 1495   0.855   1.831   0.490  0.3742  0.3543 -0.6226
  499SOL    HW1 1496   0.801   1.743   0.516  0.0624 -3.1388 -0.2797
  499SOL    HW2 1497   0.839   1.909   0.560  0.5552  1.1379 -0.6102
  500SOL     OW 1498   1.458   2.968   1.658  0.1715 -0.6686 -0.3591
  500SOL    HW1 1499   1.496   3.017   1.743 -0.7994  1.4825  1.8435
  500SOL    HW2 1500   1.482   2.868   1.652 -1.1213 -0.0381 -0.2425
  501SOL     OW 1501   0.761   1.121   2.261  0.7918 -0.3249 -0.2519
  501SOL    HW1 1502   0.686   1.049   2.243 -1.2658 -0.8938 -2.6319
  501SOL    HW2 1503   0.836   1.113   2.193  2.0678  0.4866 -0.4818
  502SOL     OW 1504   2.614   0.971   1.732  0.2781  0.6844 -0.0198
  502SOL    HW1 1505   2.582   0.991   1.634  2.3974 -0.9935 -0.3448
  502SOL    HW2 1506   2.574   0.880   1.773 -1.4734  0.9525 -1.6432
  503SOL     OW 1507   1.315   0.150   0.642 -0.3707  0.2045  0.0924
  503SOL    HW1 1508   1.232   0.210   0.620 -1.1240  0.0557  0.3609
  503SOL    HW2 1509   1.401   0.204   0.656  1.5602 -0.8415  1.7496
  504SOL     OW 1510   2.969   2.338   1.418 -0.1084 -0.3613  0.4533
  504SOL    HW1 1511   3.008   2.423   1.461  0.7568 -2.3712 -0.8994
  504SOL    HW2 1512   2.872   2.308   1.459 -1.6305 -2.3682  4.0260
  505SOL     OW 1513   2.313   1.258   1.427 -0.2013  0.3463  0.4175
  505SOL    HW1 1514   2.300   1.363   1.425  0.7940  1.8061 -1.1173
  505SOL    HW2 1515   2.402   1.225   1.468  1.0206 -1.3705  1.6311
  506SOL     OW 1516   1.897   0.240   1.766 -0.6620  0.1864  0.1300
  506SOL    HW1 1517   1.987   0.218   1.720 -1.8462  0.6111 -1.6509
  506SOL    HW2 1518   1.900   0.328   1.823 -1.7453  2.5681  2.9565
  507SOL     OW 1519   0.473   0.746   2.178  0.1594  0.0156  0.2517
  507SOL    HW1 1520   0.402   0.725   2.105  0.3773  0.8824 -0.8513
  507SOL    HW2 1521   0.544   0.668   2.183  1.6417  1.8392 -1.6086
  508SOL     OW 1522   0.182   1.655   0.816  0.2464 -0.8058  0.1687
  508SOL    HW1 1523   0.184   1.758   0.806 -1.8550 -1.4373  1.3343
  508SOL    HW2 1524   0.193   1.630   0.914  0.3931 -1.2842  1.0951
  509SOL     OW 1525   1.349   1.188   2.586 -0.2894 -0.1994  0.0321
  509SOL    HW1 1526   1.279   1.237   2.536 -0.2274  1.3535 -0.2908
  509SOL    HW2 1527   1.338   1.086   2.565 -1.1858 -0.6022 -1.0220
  510SOL     OW 1528   1.323   1.991   2.034 -0.1695  0.0541 -0.2108
  510SOL    HW1 1529   1.280   2.088   2.033  1.6286 -1.0283  1.3490
  510SOL    HW2 1530   1.273   1.924   2.096  0.2002 -0.7192  5.5851
  511SOL     OW 1531   3.058   2.626   1.278 -0.5589 -0.1618 -0.2895
  511SOL    HW1 1532   3.000   2.585   1.197 -2.0044 -0.7753 -0.4428
  511SOL    HW2 1533   3.000   2.642   1.362 -0.2205 -2.4665  0.3186
  512SOL     OW 1534   2.419   0.396   1.401  0.2332 -0.6080  0.7878
  512SOL    HW1 1535   2.316   0.401   1.398 -1.1801  1.9106  2.0821
  512SOL    HW2 1536   2.468   0.375   1.310  1.3625  2.3375  0.4738
  513SOL     OW 1537   2.505   1.971   0.808 -0.2981 -0.0348 -0.1044
  513SOL    HW1 1538   2.445   2.053   0.791  0.3394  0.2031  0.0185
  513SOL    HW2 1539   2.599   1.974   0.763  0.0949 -0.0576  1.2519
  514SOL     OW 1540   0.672   2.789   0.419  0.0492 -0.2609  0.0119
  514SOL    HW1 1541   0.658   2.844   0.331  0.6561  0.9849 -0.7194
  514SOL    HW2 1542   0.703   2.847   0.504  1.6847 -0.8304  2.1293
  515SOL     OW 1543   1.951   1.233   2.374 -0.5673 -0.0669 -0.2317
  515SOL    HW1 1544   1.878   1.251   2.304  0.8841  0.6957 -0.6210
  515SOL    HW2 1545   1.910   1.253   2.467  4.6633  0.4497 -2.6016
  516SOL     OW 1546   0.275   0.367   1.967  0.2522  1.1477 -0.0388
  516SOL    HW1 1547   0.366   0.337   1.928 -1.2145  1.1559  0.8910
  516SOL    HW2 1548   0.196   0.306   1.943 -0.5665 -0.1150  1.3187
  517SOL     OW 1549   0.368   3.022   1.211  0.3231 -0.0525  0.2777
  517SOL    HW1 1550   0.371   3.127   1.235  0.5468  0.9942 -0.5762
  517SOL    HW2 1551   0.286   2.971   1.251  1.3893 -1.5571 -1.0802
  518SOL     OW 1552   2.122   0.181   1.627  0.1951  0.2510 -0.3488
  518SOL    HW1 1553   2.193   0.216   1.690 -0.1951  1.2124 -1.0051
  518SOL    HW2 1554   2.133   0.079   1.599 -0.5471  0.0977 -1.0425
  519SOL     OW 1555   2.349   2.169   2.536 -0.1757 -0.2739  0.4544
  519SOL    HW1 1556   2.268   2.158   2.604 -0.8497  3.1180 -1.9911
  519SOL    HW2 1557   2.388   2.266   2.531 -1.7833 -0.7126 -0.9197
  520SOL     OW 1558   1.770   2.863   1.830 -0.0587  0.4420  0.1359
  520SOL    HW1 1559   1.691   2.835   1.891 -0.1598 -2.1053 -1.4322
  520SOL    HW2 1560   1.842   2.788   1.812 -0.7657 -0.6487  0.0798
  521SOL     OW 1561   0.566   0.134   2.169 -0.0960 -0.2380 -0.5197
  521SOL    HW1 1562   0.471   0.099   2.196  0.0305 -3.1701 -1.3018
  521SOL    HW2 1563   0.644   0.099   2.229 -0.0993  1.2042  0.8889
  522SOL     OW 1564   0.238   1.924   1.545 -0.2217  0.4428 -0.7553
  522SOL    HW1 1565   0.244   1.991   1.626  0.0031 -0.0740  1.4526
  522SOL    HW2 1566   0.216   1.972   1.456 -1.0149  0.7346  0.1242
  523SOL     OW 1567   2.228   3.028   1.588  0.4836 -0.0965 -0.0848
  523SOL    HW1 1568   2.256   2.939   1.539  0.1718 -1.8483 -1.1809
  523SOL    HW2 1569   2.219   3.012   1.689  1.4311  1.9392 -0.8670
  524SOL     OW 1570   0.230   2.783   2.803  0.4188  0.8317 -0.0849
  524SOL    HW1 1571   0.178   2.864   2.853 -3.3181  1.3752  0.0668
  524SOL    HW2 1572   0.336   2.800   2.793  3.1694 -1.2947 -2.7251
  525SOL     OW 1573   2.131   1.977   0.445 -0.0793  0.5810  0.2354
  525SOL    HW1 1574   2.112   1.918   0.523  0.5890  0.9023  0.4871
  525SOL    HW2 1575   2.199   1.927   0.381 -0.2918 -0.4710  1.2501
  526SOL     OW 1576   0.438   1.537   1.558  0.2309 -0.6558  0.0521
  526SOL    HW1 1577   0.369   1.514   1.636 -1.9200  0.8639 -0.8255
  526SOL    HW2 1578   0.499   1.453   1.536  3.3781  0.4075  1.7903
  527SOL     OW 1579   1.109   2.882   1.191  0.3798 -0.0746 -0.0768
  527SOL    HW1 1580   1.185   2.812   1.213  0.9925 -1.3299  1.3213
  527SOL    HW2 1581   1.122   2.974   1.236 -2.2271 -0.6509 -1.0504
  528SOL     OW 1582   1.336   2.391   0.453  0.0520 -0.1129  0.6842
  528SOL    HW1 1583   1.357   2.289   0.441 -0.1878 -0.7432  0.2575
  528SOL    HW2 1584   1.383   2.432   0.541  0.4080  0.6375  0.2653
  529SOL     OW 1585   1.849   1.711   0.770  0.1769 -0.2029 -0.4086
  529SOL    HW1 1586   1.819   1.742   0.674 -0.8781  2.0144 -1.8707
  529SOL    HW2 1587   1.843   1.789   0.838  3.7981 -1.2360 -1.1020
  530SOL     OW 1588   0.362   2.439   0.253  0.5520 -0.2497 -0.3195
  530SOL    HW1 1589   0.369   2.530   0.306  0.6188 -0.4869 -0.2448
  530SOL    HW2 1590   0.372   2.352   0.321 -4.7000 -2.9447  1.7292
  531SOL     OW 1591   1.863   0.832   0.973  0.6230 -0.2344 -0.8910
  531SOL    HW1 1592   1.904   0.857   0.882 -0.0123 -2.1250  2.4426
  531SOL    HW2 1593   1.764   0.852   0.989  0.2057 -0.6882 -2.1941
  532SOL     OW 1594   0.455   1.108   0.773 -0.4708 -0.1611  0.0785
  532SOL    HW1 1595   0.486   1.120   0.676 -2.6217 -0.2386 -0.4801
  532SOL    HW2 1596   0.423   1.014   0.789 -0.3114  1.5457 -0.9140
  533SOL     OW 1597   1.735   3.095   2.556 -0.3407 -0.5354 -0.0450
  533SOL    HW1 1598   1.831   3.098   2.591 -1.9381 -1.3688 -0.8106
  533SOL    HW2 1599   1.669   3.161   2.606  1.3325 -1.1153  0.3541
  534SOL     OW 1600   0.396   0.204   1.556 -0.2842 -0.3190  0.1684
  534SOL    HW1 1601   0.498   0.207   1.569 -1.6549  0.5602 -0.4221
  534SOL    HW2 1602   0.352   0.293   1.529  1.1707 -1.3941  0.9900
  535SOL     OW 1603   1.940   0.332   0.161  0.0070 -0.0265  0.0155
  535SOL    HW1 1604   1.956   0.420   0.215  0.3121 -0.3907  0.3643
  535SOL    HW2 1605   1.949   0.255   0.232  2.5838 -0.4111  3.6734
  536SOL     OW 1606   1.363   2.599   0.899 -0.0066 -0.4871  0.1959
  536SOL    HW1 1607   1.321   2.547   0.983  0.7018 -0.1429 -1.1396
  536SOL    HW2 1608   1.290   2.649   0.840  1.8974  2.9883  0.3205
  537SOL     OW 1609   0.849   0.253   2.360  0.3615  0.6132 -0.2237
  537SOL    HW1 1610   0.904   0.304   2.290 -0.7453 -1.3295  4.3460
  537SOL    HW2 1611   0.828   0.156   2.338  0.6547  1.5500  1.3612
  538SOL     OW 1612   1.665   2.395   1.404  0.0203  0.2646  0.2734
  538SOL    HW1 1613   1.668   2.296   1.377 -0.8719  1.8701  0.1861
  538SOL    HW2 1614   1.757   2.435   1.423 -1.1476 -0.5535 -0.2667
  539SOL     OW 1615   0.203   1.623   2.661  0.2943 -0.1932 -0.2534
  539SOL    HW1 1616   0.120   1.562   2.638  1.4754 -0.6401 -1.7295
  539SOL    HW2 1617   0.182   1.694   2.733  1.2225 -0.3899  0.6875
  540SOL     OW 1618   2.679   1.735   1.933  0.0949  0.2606  0.0582
  540SOL    HW1 1619   2.636   1.648   1.968 -0.5969  0.5648 -0.0640
  540SOL    HW2 1620   2.616   1.813   1.954 -2.7510  0.0261  1.3241
  541SOL     OW 1621   0.529   2.132   0.030 -0.3849  0.1085 -0.3949
  541SOL    HW1 1622   0.535   2.124   0.133 -0.8775  1.9278  0.0079
  541SOL    HW2 1623   0.434   2.112  -0.005 -0.0836 -0.3275  1.5333
  542SOL     OW 1624   2.268   2.650   0.560  0.0444 -0.7421 -0.5812
  542SOL    HW1 1625   2.246   2.745   0.595  2.9935 -0.5765 -0.1122
  542SOL    HW2 1626   2.187   2.593   0.536 -0.2535  1.7191  0.0681
  543SOL     OW 1627   1.073   1.784   1.592  0.0098 -0.0889 -0.3135
  543SOL    HW1 1628   1.108   1.804   1.686 -0.1348  0.1005 -2.7590
  543SOL    HW2 1629   1.029   1.869   1.548 -2.9512  0.5899 -2.7209
  544SOL     OW 1630   1.168   0.518   0.155 -0.3223  0.6416 -0.4840
  544SOL    HW1 1631   1.107   0.451   0.211 -1.2673 -0.5847  0.3209
  544SOL    HW2 1632   1.184   0.489   0.056  0.0024 -1.1213  1.9856
  545SOL     OW 1633   1.122   1.835   0.804  0.6179 -0.4140  0.2338
  545SOL    HW1 1634   1.212   1.841   0.753  0.0744 -1.4685  1.9049
  545SOL    HW2 1635   1.089   1.735   0.812  0.6418 -1.7731  0.5111
  546SOL     OW 1636   2.668   1.600   2.987 -0.0442 -0.2836 -0.2789
  546SOL    HW1 1637   2.633   1.701   2.974  0.0084 -1.3178  0.9519
  546SOL    HW2 1638   2.594   1.527   2.989  0.9796  0.0698  1.3680
  547SOL     OW 1639   0.677   3.042   2.575 -0.4010  0.1120  0.3006
  547SOL    HW1 1640   0.740   3.006   2.650  3.0887 -1.7491  2.2512
  547SOL    HW2 1641   0.601   2.980   2.546  2.1398  0.2536  0.9771
  548SOL     OW 1642   2.043   0.762   3.024  0.0856  0.0531 -0.3314
  548SOL    HW1 1643   1.949   0.741   3.064  0.2986  1.9502 -0.1431
  548SOL    HW2 1644   2.077   0.854   3.055  0.1278 -2.0248  1.7500
  549SOL     OW 1645   0.699   0.581   0.184 -0.1663 -0.4511  0.1795
  549SOL    HW1 1646   0.656   0.615   0.096 -1.1888  0.9905 -0.1866
  549SOL    HW2 1647   0.785   0.635   0.219  0.0110 -0.8072 -1.4421
  550SOL     OW 1648   2.579   2.754   2.881  0.0097 -0.3216  0.2036
  550SOL    HW1 1649   2.531   2.683   2.943  1.1305  1.1740 -1.1222
  550SOL    HW2 1650   2.651   2.713   2.819 -2.3872 -1.6882 -0.2999
  551SOL     OW 1651   0.266   0.874   0.215 -0.3620  0.1568 -1.0327
  551SOL    HW1 1652   0.366   0.910   0.211 -0.2649 -2.4065 -0.9960
  551SOL    HW2 1653   0.224   0.893   0.309  2.4969 -0.3801  1.8250
  552SOL     OW 1654   0.641   3.041   1.956 -0.0415  0.0028 -0.2628
  552SOL    HW1 1655   0.627   3.119   2.024  0.9401  1.2097  1.1197
  552SOL    HW2 1656   0.737   3.038   1.915 -1.3966 -0.5476  1.6952
  553SOL     OW 1657   3.001   2.409   0.362  0.1554  0.6331 -0.4135
  553SOL    HW1 1658   2.980   2.328   0.428 -0.3023 -2.2777  0.0385
  553SOL    HW2 1659   2.911   2.451   0.335  1.8146 -1.8631  0.2690
  554SOL     OW 1660   2.190   0.366   0.541  0.0414  0.0161  0.0360
  554SOL    HW1 1661   2.250   0.345   0.462 -0.8582 -0.7323 -1.2671
  554SOL    HW2 1662   2.192   0.297   0.619 -1.1702  1.3597 -0.0145
  555SOL     OW 1663   0.472   2.850   2.481  0.0028 -0.2797  0.1583
  555SOL    HW1 1664   0.393   2.916   2.465 -2.5583  2.9374 -1.0473
  555SOL    HW2 1665   0.471   2.762   2.422  1.6050 -0.2066 -0.3524
  556SOL     OW 1666   0.818   2.430   1.613  0.0255 -0.0741 -0.2999
  556SOL    HW1 1667   0.841   2.494   1.697  0.9650  2.2717  2.7620
  556SOL    HW2 1668   0.894   2.428   1.542 -0.8479 -0.5384 -0.1117
  557SOL     OW 1669   0.254   2.087   0.252 -0.6118 -0.5637 -0.1246
  557SOL    HW1 1670   0.164   2.046   0.217 -2.5444  1.0555 -2.3895
  557SOL    HW2 1671   0.340   2.035   0.251  1.5353  1.5790 -0.4022
  558SOL     OW 1672   2.840   2.160   0.394  0.2326  0.6097  0.3391
  558SOL    HW1 1673   2.780   2.241   0.405  0.1983  0.1364 -3.9451
  558SOL    HW2 1674   2.799   2.088   0.330 -4.6777  2.9811 -3.8707
  559SOL     OW 1675   0.401   2.311   1.454  0.0011  0.0942  0.0403
  559SOL    HW1 1676   0.307   2.342   1.430  0.8769 -2.1187  2.7286
  559SOL    HW2 1677   0.442   2.242   1.381  2.9122 -0.5119 -1.1054
  560SOL     OW 1678   2.146   1.006   0.018 -0.0962  0.1023  0.2705
  560SOL    HW1 1679   2.192   1.040   0.101 -2.1081  2.0332 -3.5152
  560SOL    HW2 1680   2.206   1.005  -0.062  0.1161 -0.7277  2.2074
  561SOL     OW 1681   0.005   1.977   0.194 -0.2199  0.2935 -0.1919
  561SOL    HW1 1682  -0.022   1.881   0.228 -0.5606 -0.3789 -2.6510
  561SOL    HW2 1683  -0.038   2.008   0.103 -2.0107 -0.3898  0.6825
  562SOL     OW 1684   1.044   2.081   2.240 -0.7115 -0.4343  0.1375
  562SOL    HW1 1685   1.011   2.173   2.284 -2.0679  1.7831  0.6580
  562SOL    HW2 1686   1.000   1.996   2.274  0.3263  0.2093 -1.2794
  563SOL     OW 1687   0.669   2.541   2.661  0.1241 -0.4248 -0.4950
  563SOL    HW1 1688   0.755   2.483   2.646  0.3608  0.7894  1.4951
  563SOL    HW2 1689   0.675   2.605   2.742  0.2449  0.4357  0.3387
  564SOL     OW 1690   2.851   1.427   2.854 -0.1378  0.4306 -0.4943
  564SOL    HW1 1691   2.792   1.470   2.925  0.3216 -0.5609 -0.9711
  564SOL    HW2 1692   2.938   1.485   2.827  2.7409  1.0310 -0.2577
  565SOL     OW 1693   2.497   1.964   2.644 -0.5578 -0.3343  0.4170
  565SOL    HW1 1694   2.470   2.047   2.587 -1.5678  1.0708 -1.4350
  565SOL    HW2 1695   2.587   1.978   2.693  1.4405 -0.4356  0.5895
  566SOL     OW 1696   1.919   2.898   1.438 -0.2258 -0.3043  0.0340
  566SOL    HW1 1697   1.944   2.804   1.472  0.3810  0.0752 -1.2644
  566SOL    HW2 1698   1.980   2.945   1.368 -0.7111  1.8075  1.2820
  567SOL     OW 1699   2.345   0.033   2.306 -0.0858 -0.0539 -0.4715
  567SOL    HW1 1700   2.253   0.070   2.340  0.7678  0.1680  2.4828
  567SOL    HW2 1701   2.346   0.026   2.201 -0.2588  1.0980  0.3068
  568SOL     OW 1702   1.506   1.742   0.228 -0.3015  0.1904 -0.2521
  568SOL    HW1 1703   1.440   1.827   0.224 -1.3703  1.9085  0.1034
  568SOL    HW2 1704   1.607   1.770   0.241  1.3538  0.8111  3.2956
  569SOL     OW 1705   0.254   0.577   0.885 -0.1747 -0.3718 -0.5330
  569SOL    HW1 1706   0.270   0.534   0.793  2.3491 -1.3973 -0.7887
  569SOL    HW2 1707   0.154   0.573   0.921 -0.6049 -0.0081 -0.1499
  570SOL     OW 1708   0.663   0.861   2.894  0.3404  0.1807  0.1321
  570SOL    HW1 1709   0.680   0.890   2.793  2.0710  1.1366 -0.9930
  570SOL    HW2 1710   0.655   0.941   2.961  1.1647 -0.9211 -2.0546
  571SOL     OW 1711   0.795   3.070   1.070  0.3345 -0.0921  0.0244
  571SOL    HW1 1712   0.842   3.145   1.014  2.0476  1.0588  0.2386
  571SOL    HW2 1713   0.842   2.977   1.068  1.7222 -1.1414 -0.0876
  572SOL     OW 1714   1.650   2.731   1.430  0.1756 -0.1558  0.3671
  572SOL    HW1 1715   1.609   2.693   1.346  3.6472  1.6379 -0.9767
  572SOL    HW2 1716   1.671   2.834   1.412  0.5194  2.1171  1.4357
  573SOL     OW 1717   3.023   0.479   1.931 -0.5314 -0.6340 -0.2043
  573SOL    HW1 1718   2.979   0.390   1.914  0.9060  0.8525  1.0539
  573SOL    HW2 1719   3.106   0.497   1.874  2.0104 -1.0614  0.7303
  574SOL     OW 1720   0.113   1.664   1.104 -0.2933  0.0930 -0.0614
  574SOL    HW1 1721   0.205   1.651   1.152 -0.6811 -1.2269  1.3803
  574SOL    HW2 1722   0.072   1.759   1.120  0.3008  1.0327  0.3913
  575SOL     OW 1723   0.856   2.252   0.996 -1.0217  0.0106 -0.1664
  575SOL    HW1 1724   0.837   2.302   1.090  0.1465 -1.4733  3.2200
  575SOL    HW2 1725   0.858   2.320   0.919 -0.7819  1.9202  0.9714
  576SOL     OW 1726   2.931   2.992   1.699 -0.1170 -0.3188 -0.0520
  576SOL    HW1 1727   2.832   2.981   1.668  0.9802 -0.1929 -1.0781
  576SOL    HW2 1728   2.961   3.087   1.705  0.7068  2.4194 -0.1199
  577SOL     OW 1729   2.669   1.219   3.046  0.0786 -0.0902  0.3972
  577SOL    HW1 1730   2.674   1.122   3.004  2.7203 -0.2791 -2.9554
  577SOL    HW2 1731   2.727   1.241   3.130  0.1293  0.6837 -2.1316
  578SOL     OW 1732   1.400   2.700   2.545  0.0076  0.2835  0.0227
  578SOL    HW1 1733   1.301   2.718   2.526 -0.7082 -0.6935  1.1227
  578SOL    HW2 1734   1.464   2.781   2.521 -0.1745 -0.7651  0.5330
  579SOL     OW 1735   0.094   2.399   0.171 -0.5914  0.1328  0.3659
  579SOL    HW1 1736   0.036   2.417   0.252  0.4144  0.8228 -0.4203
  579SOL    HW2 1737   0.196   2.387   0.192  1.7954  0.9612  0.9405
  580SOL     OW 1738   0.943   2.669   0.406  0.2727  0.2518 -0.3360
  580SOL    HW1 1739   0.969   2.675   0.305 -2.3133  0.1919 -1.1909
  580SOL    HW2 1740   0.861   2.730   0.426  1.3035 -1.0336  0.6033
  581SOL     OW 1741   1.278   2.755   1.477  0.0062  0.3635 -0.1376
  581SOL    HW1 1742   1.295   2.653   1.469 -0.7244  0.3858  0.5127
  581SOL    HW2 1743   1.362   2.815   1.444  3.8895  0.3800  0.1994
  582SOL     OW 1744   1.506   0.057   1.863 -0.0916  0.2588 -0.3076
  582SOL    HW1 1745   1.543   0.116   1.939  1.9136  0.9843 -0.0201
  582SOL    HW2 1746   1.540   0.094   1.767  0.0327 -0.3128 -2.5563
  583SOL     OW 1747   2.427   2.979   0.491 -0.1038 -0.5883 -0.0431
  583SOL    HW1 1748   2.524   2.947   0.469  0.6867  1.3281  0.5216
  583SOL    HW2 1749   2.370   2.922   0.552 -0.0707  1.1411  0.6629
  584SOL     OW 1750   1.552   1.084   2.251 -0.0505  0.1952  0.1673
  584SOL    HW1 1751   1.598   1.161   2.205 -1.2243  1.5098  0.5729
  584SOL    HW2 1752   1.623   1.011   2.265  2.4664 -1.1574 -1.0256
  585SOL     OW 1753   2.034   2.660   2.891 -0.1630  0.1472  0.4517
  585SOL    HW1 1754   2.046   2.567   2.843  3.5504 -2.4778 -1.1119
  585SOL    HW2 1755   1.937   2.687   2.904 -0.7368  0.6936  0.7012
  586SOL     OW 1756   2.913   0.388   1.587 -0.2154 -0.1707 -0.4064
  586SOL    HW1 1757   2.892   0.482   1.635  0.7612 -1.6341 -1.7759
  586SOL    HW2 1758   2.829   0.324   1.578 -2.4214 -2.1607  1.9247
  587SOL     OW 1759   2.175   1.477   2.777 -0.0590  0.2850  0.4576
  587SOL    HW1 1760   2.144   1.447   2.684 -2.7678  1.0051 -0.8091
  587SOL    HW2 1761   2.274   1.513   2.778  1.9974 -0.9785 -0.2611
  588SOL     OW 1762   0.480   2.635   2.272 -0.4321  0.3913 -0.4342
  588SOL    HW1 1763   0.451   2.702   2.195 -1.0696 -0.0328  3.1880
  588SOL    HW2 1764   0.417   2.560   2.289 -0.2965 -0.4949  2.1806
  589SOL     OW 1765   2.172   1.378   2.515  0.0026  0.6413 -0.0533
  589SOL    HW1 1766   2.107   1.297   2.500 -2.2402 -2.3323  1.3005
  589SOL    HW2 1767   2.272   1.344   2.519 -0.2002  0.5151  0.8082
  590SOL     OW 1768   2.308   1.697   2.074  0.6882 -0.2976  0.2221
  590SOL    HW1 1769   2.403   1.653   2.067  1.8623  1.2594 -1.8743
  590SOL    HW2 1770   2.283   1.725   2.170 -0.9680  0.7498  0.5934
  591SOL     OW 1771   1.344   2.450   0.184 -0.1163  0.0737  0.8046
  591SOL    HW1 1772   1.349   2.363   0.122 -3.0745 -1.9744 -1.4454
  591SOL    HW2 1773   1.334   2.430   0.284 -1.0102  0.4316 -3.0046
  592SOL     OW 1774   1.794   2.355   0.809 -0.0085  0.2130  0.1677
  592SOL    HW1 1775   1.773   2.417   0.732  1.5573  2.4082  0.6261
  592SOL    HW2 1776   1.895   2.352   0.823  0.9271 -0.2128 -0.6043
  593SOL     OW 1777   0.744   0.296   0.189  0.1944  0.2795 -0.3229
  593SOL    HW1 1778   0.788   0.241   0.114 -1.4645  0.0116  0.3037
  593SOL    HW2 1779   0.753   0.400   0.174  1.6439  1.4560 -0.6835
  594SOL     OW 1780   1.078   1.786   2.662 -0.3876  0.2818  0.1882
  594SOL    HW1 1781   1.171   1.769   2.633 -3.9400 -0.5352  1.8268
  594SOL    HW2 1782   1.074   1.856   2.737 -0.5849 -0.1494 -1.0111
  595SOL     OW 1783   1.529   0.150   0.996  0.2883  0.1380  0.1138
  595SOL    HW1 1784   1.592   0.072   0.983 -1.9412 -0.8291  0.1764
  595SOL    HW2 1785   1.445   0.132   0.938  1.5699 -1.6338 -0.2424
  596SOL     OW 1786   0.174   1.425   2.186  0.1562  0.7483 -0.2137
  596SOL    HW1 1787   0.094   1.351   2.189  0.6087 -2.3958 -0.7050
  596SOL    HW2 1788   0.166   1.495   2.262 -0.2891  0.7670  0.8596
  597SOL     OW 1789   1.988   2.691   1.821  0.2475 -0.2012  0.2370
  597SOL    HW1 1790   1.959   2.675   1.720  0.8666 -0.3331 -0.4349
  597SOL    HW2 1791   2.087   2.685   1.831 -3.2850  0.8885  0.3738
  598SOL     OW 1792   2.483   2.809   1.284 -0.0047 -0.5288 -0.3674
  598SOL    HW1 1793   2.570   2.830   1.338  0.2295  0.2944  1.4813
  598SOL    HW2 1794   2.497   2.732   1.217  1.1438 -2.1801 -0.1253
  599SOL     OW 1795   2.906   0.265   2.515 -0.1828 -0.0483  0.4974
  599SOL    HW1 1796   2.990   0.266   2.450 -0.4555 -0.0415 -1.8128
  599SOL    HW2 1797   2.831   0.329   2.471  0.2353  0.1353 -2.2014
  600SOL     OW 1798   2.771   1.166   2.758 -0.0620  0.4304 -0.2041
  600SOL    HW1 1799   2.732   1.106   2.831 -0.2520  1.3332  0.3203
  600SOL    HW2 1800   2.810   1.261   2.790  1.2445  0.3724  0.5812
  601SOL     OW 1801   2.992   1.369   1.926  0.7558  0.2596 -0.8850
  601SOL    HW1 1802   2.918   1.415   1.872 -0.5819 -2.1219  3.9131
  601SOL    HW2 1803   3.072   1.438   1.937  0.3280  2.7937 -0.0167
  602SOL     OW 1804   1.530   1.551   2.334 -0.5800  0.1192  0.1765
  602SOL    HW1 1805   1.437   1.542   2.381 -3.2650 -0.7937 -0.6682
  602SOL    HW2 1806   1.598   1.614   2.385  0.6322 -1.8783  1.2170
  603SOL     OW 1807   0.590   1.172   2.710 -0.6853  0.3855  0.7245
  603SOL    HW1 1808   0.502   1.210   2.671 -2.3558 -1.1709  0.6489
  603SOL    HW2 1809   0.616   1.072   2.677  3.3821  0.6421 -1.5694
  604SOL     OW 1810   2.535   1.059   0.228 -0.1725 -0.1356  0.2009
  604SOL    HW1 1811   2.634   1.088   0.203  1.6175 -2.3076 -1.1690
  604SOL    HW2 1812   2.487   1.000   0.154  1.3752  0.3016 -2.0650
  605SOL     OW 1813   2.600   1.194   1.900  0.0978 -0.0473 -0.1288
  605SOL    HW1 1814   2.626   1.100   1.867  0.2003 -1.1771 -0.2529
  605SOL    HW2 1815   2.621   1.215   1.998 -0.2097  0.5079  0.4658
  606SOL     OW 1816   1.526   2.472   2.572 -0.3924 -0.5103 -0.0490
  606SOL    HW1 1817   1.459   2.553   2.550 -4.6794 -1.4934 -1.3925
  606SOL    HW2 1818   1.492   2.385   2.533  0.7881 -0.1682  0.2177
  607SOL     OW 1819   1.290   1.569   0.288  0.2939  0.5879  0.5315
  607SOL    HW1 1820   1.205   1.625   0.296 -1.3738 -1.8551  0.2341
  607SOL    HW2 1821   1.379   1.621   0.273  2.3617  1.2232 -1.2244
  608SOL     OW 1822   1.417   2.785   0.326  0.9551  0.1497 -0.0139
  608SOL    HW1 1823   1.466   2.840   0.254  0.3136  1.1016 -0.8018
  608SOL    HW2 1824   1.383   2.851   0.400  1.1178  0.8878  0.6785
  609SOL     OW 1825   1.291   1.314   0.189 -0.1539 -0.8805 -0.1872
  609SOL    HW1 1826   1.274   1.412   0.232 -1.3748 -0.1426 -0.4925
  609SOL    HW2 1827   1.288   1.310   0.088  0.2354  1.3682  2.1980
  610SOL     OW 1828   3.057   1.244   2.172  0.6009  0.2764 -0.2429
  610SOL    HW1 1829   3.010   1.157   2.202 -0.2849  1.3802 -3.8318
  610SOL    HW2 1830   3.015   1.276   2.079 -0.3158  0.3777  2.0871
  611SOL     OW 1831   2.552   0.181   1.169 -0.2347  0.0093  0.3417
  611SOL    HW1 1832   2.497   0.097   1.192 -0.2223 -1.7538  0.4555
  611SOL    HW2 1833   2.640   0.188   1.224 -1.1645  0.3583  2.9082
  612SOL     OW 1834   0.762   2.363   1.244 -0.4908  0.3294 -0.2955
  612SOL    HW1 1835   0.700   2.287   1.281  2.6207 -1.6991 -2.0840
  612SOL    HW2 1836   0.708   2.449   1.222  0.6937 -0.8554 -2.8113
  613SOL     OW 1837   0.775   1.376   2.392  0.0340  0.1530 -0.3515
  613SOL    HW1 1838   0.822   1.446   2.327 -0.3505 -0.9209 -2.7182
  613SOL    HW2 1839   0.756   1.284   2.343 -0.9209  0.9067 -1.2719
  614SOL     OW 1840   1.491   1.652   1.946  0.3052  0.0700  0.3772
  614SOL    HW1 1841   1.500   1.716   1.862 -0.0614  0.3428 -1.2917
  614SOL    HW2 1842   1.583   1.649   2.001 -2.2355 -0.9909  2.3843
  615SOL     OW 1843   0.696   1.468   1.704 -0.2500 -0.2374  0.2482
  615SOL    HW1 1844   0.666   1.401   1.623 -0.2804 -1.0914  0.5796
  615SOL    HW2 1845   0.768   1.536   1.677  0.0585  2.5600 -0.5628
  616SOL     OW 1846   1.138   1.602   2.201 -0.4151 -0.0264 -0.1199
  616SOL    HW1 1847   1.039   1.580   2.221 -0.0217  1.9233 -1.1056
  616SOL    HW2 1848   1.151   1.610   2.099 -0.7707 -0.9964 -1.5253
  617SOL     OW 1849   2.939   1.576   1.626 -0.7706 -0.4506 -0.4999
  617SOL    HW1 1850   2.869   1.517   1.672 -3.2491 -0.3011 -3.0150
  617SOL    HW2 1851   2.982   1.522   1.548 -0.2126 -1.0330  0.7436
  618SOL     OW 1852   1.913   2.002   1.463 -0.5310  0.1122  0.5109
  618SOL    HW1 1853   1.984   1.985   1.388 -2.8083 -0.6039 -0.7464
  618SOL    HW2 1854   1.901   1.917   1.517 -1.2128 -1.6284  0.6730
  619SOL     OW 1855   1.787   0.528   2.376  0.0219 -0.5202  0.3388
  619SOL    HW1 1856   1.716   0.598   2.337  0.7360  1.5387 -0.0142
  619SOL    HW2 1857   1.750   0.431   2.382  0.2627 -2.4567  2.8104
  620SOL     OW 1858   2.230   2.911   0.677  0.4634  0.3653 -0.2374
  620SOL    HW1 1859   2.146   2.972   0.701 -1.1534  1.0432  1.8129
  620SOL    HW2 1860   2.279   2.886   0.765 -1.6396 -2.0374  1.6721
  621SOL     OW 1861   2.134   1.871   1.357 -0.0239 -0.7981 -0.0019
  621SOL    HW1 1862   2.147   1.855   1.455  0.6923  0.0157 -3.3943
  621SOL    HW2 1863   2.154   1.783   1.307 -0.1838  0.7080  1.7002
  622SOL     OW 1864   2.243   0.975   1.847  0.3824 -0.0500 -0.0355
  622SOL    HW1 1865   2.317   0.901   1.852  0.4459 -0.6926 -2.2256
  622SOL    HW2 1866   2.146   0.930   1.869 -1.4003 -3.7370 -0.4952
  623SOL     OW 1867   1.261   0.929   2.580  0.0651  0.5766  0.2357
  623SOL    HW1 1868   1.217   0.864   2.650 -1.7292 -1.2890 -1.0006
  623SOL    HW2 1869   1.234   0.918   2.481  4.0174 -2.3387  0.4890
  624SOL     OW 1870   0.534   0.692   3.070 -0.1389 -0.1624 -0.5527
  624SOL    HW1 1871   0.582   0.737   2.984  0.6019  2.7161 -2.3035
  624SOL    HW2 1872   0.543   0.754   3.161  4.2692  3.5957  1.0865
  625SOL     OW 1873   2.786   1.754   0.815 -0.0357  0.4876  0.3240
  625SOL    HW1 1874   2.764   1.788   0.911  1.9597  1.7939 -0.7681
  625SOL    HW2 1875   2.710   1.689   0.789 -1.6322  2.0121  3.0951
  626SOL     OW 1876   0.390   2.803   2.078  0.3410  0.3385 -0.0872
  626SOL    HW1 1877   0.454   2.884   2.096 -0.6747  0.3449  1.8987
  626SOL    HW2 1878   0.342   2.812   1.985  1.9294  0.2951  0.2827
  627SOL     OW 1879   0.725   1.020   1.508  0.4217  0.2829  0.2403
  627SOL    HW1 1880   0.782   0.930   1.513  1.6856 -3.2933 -0.1910
  627SOL    HW2 1881   0.779   1.103   1.467 -1.5168  0.4268  1.8299
  628SOL     OW 1882   2.457   0.122   0.664  0.2538 -0.4046 -0.5025
  628SOL    HW1 1883   2.465   0.038   0.598 -3.5675  0.3564 -1.0109
  628SOL    HW2 1884   2.361   0.150   0.692  0.3201 -0.6417  1.1118
  629SOL     OW 1885   1.989   0.976   1.954  0.2730 -0.1305 -0.2096
  629SOL    HW1 1886   2.025   1.000   2.049  2.0782 -0.4267  0.3021
  629SOL    HW2 1887   1.933   1.053   1.918  0.6636 -2.3071  0.8113
  630SOL     OW 1888   2.836   2.212   0.768 -0.0191  0.4958 -0.2321
  630SOL    HW1 1889   2.755   2.260   0.815  0.1789 -0.5944  0.1680
  630SOL    HW2 1890   2.813   2.123   0.723 -0.3448 -3.2372 -2.0256
  631SOL     OW 1891   2.998   0.173   2.121  0.1808  0.4844 -0.1497
  631SOL    HW1 1892   3.051   0.208   2.198 -2.9111 -2.5926 -0.9630
  631SOL    HW2 1893   3.057   0.161   2.035 -0.0324  1.2883  1.2860
  632SOL     OW 1894   2.391   2.533   0.777  1.1527 -0.0763 -0.3669
  632SOL    HW1 1895   2.467   2.590   0.816 -0.4066  1.0789  3.9265
  632SOL    HW2 1896   2.381   2.554   0.678 -0.1836  1.3233  3.0592
  633SOL     OW 1897   1.593   1.257   2.700  0.1833 -0.3196  0.0374
  633SOL    HW1 1898   1.559   1.328   2.768  1.8910  0.6198 -1.1685
  633SOL    HW2 1899   1.518   1.246   2.630 -0.7048  2.2204  0.4227
  634SOL     OW 1900   0.659   2.076   0.902  0.6448  0.2051  0.4483
  634SOL    HW1 1901   0.564   2.105   0.936  0.0995  1.0669  2.8078
  634SOL    HW2 1902   0.727   2.136   0.950 -0.7289 -2.2190 -3.0555
  635SOL     OW 1903   0.046   2.239   3.050 -0.5083 -0.5095 -0.1586
  635SOL    HW1 1904   0.058   2.310   2.976 -1.7407  1.3742  0.9204
  635SOL    HW2 1905   0.048   2.277   3.143 -0.6036 -2.2059  0.7945
  636SOL     OW 1906   2.332   2.852   2.016  0.0039 -0.4170 -0.1119
  636SOL    HW1 1907   2.301   2.951   2.010  1.1832 -1.6228 -2.6872
  636SOL    HW2 1908   2.293   2.799   2.092 -0.6401  2.2697  1.7879
  637SOL     OW 1909   2.580   0.727   2.087 -0.0288  0.3377  0.6087
  637SOL    HW1 1910   2.522   0.733   2.001 -1.1836  2.0502  2.1654
  637SOL    HW2 1911   2.659   0.800   2.096  1.2439  0.3970 -0.5174
  638SOL     OW 1912   2.407   1.906   1.421  0.5979  0.6875 -0.3860
  638SOL    HW1 1913   2.308   1.920   1.398 -2.0985  0.1924 -2.4016
  638SOL    HW2 1914   2.441   1.810   1.424 -2.1105  1.7816 -0.4658
  639SOL     OW 1915   1.289   2.237   1.576  0.0244  0.1312  0.3329
  639SOL    HW1 1916   1.272   2.161   1.507 -0.4784 -1.2791  0.6709
  639SOL    HW2 1917   1.240   2.222   1.666  1.2839 -0.5356  0.0833
  640SOL     OW 1918   0.267   1.196   1.560  0.0563 -0.4461  0.4615
  640SOL    HW1 1919   0.291   1.280   1.617 -0.2756  2.0841 -0.9457
  640SOL    HW2 1920   0.349   1.141   1.538  0.1865  1.6747 -1.1933
  641SOL     OW 1921   1.877   0.265   1.428  0.1340 -0.2104 -0.0715
  641SOL    HW1 1922   1.832   0.339   1.488 -1.6073  0.8982 -1.0020
  641SOL    HW2 1923   1.871   0.172   1.469 -0.8193  3.4477 -3.8412
  642SOL     OW 1924   1.999   0.113   0.320  0.1128  0.2117  0.2228
  642SOL    HW1 1925   2.097   0.111   0.360 -0.9982 -0.6051  1.9520
  642SOL    HW2 1926   1.930   0.087   0.388  1.5254  1.2339  0.2560
  643SOL     OW 1927   2.789   1.873   2.117 -0.0151 -0.6923  0.2858
  643SOL    HW1 1928   2.761   1.793   2.055 -1.3196 -0.0271 -0.9264
  643SOL    HW2 1929   2.839   1.949   2.065 -0.0540  2.8613  1.3251
  644SOL     OW 1930   2.199   2.284   1.238  0.2193  0.1992 -0.2087
  644SOL    HW1 1931   2.294   2.248   1.208  0.0985 -1.0461 -1.4124
  644SOL    HW2 1932   2.190   2.301   1.345  0.3112  0.8898  3.4981
  645SOL     OW 1933   0.675   0.826   1.089 -0.1326  0.0494 -0.0462
  645SOL    HW1 1934   0.587   0.790   1.051 -0.4210 -0.0115  2.0187
  645SOL    HW2 1935   0.682   0.923   1.054  0.7832 -0.6861  0.5154
  646SOL     OW 1936   1.454   1.897   1.807 -0.0581  0.3155  0.4377
  646SOL    HW1 1937   1.540   1.952   1.774  1.9168  0.2908 -2.9462
  646SOL    HW2 1938   1.397   1.941   1.885 -2.1787 -1.6036  0.2465
  647SOL     OW 1939   0.891   0.916   0.688 -0.3722 -0.4253 -0.0224
  647SOL    HW1 1940   0.972   0.928   0.750  2.4448 -1.1125 -0.8161
  647SOL    HW2 1941   0.795   0.914   0.735 -2.4612 -1.2754 -0.7823
  648SOL     OW 1942   0.062   0.235   0.332 -0.7590 -0.1248 -0.1220
  648SOL    HW1 1943   0.027   0.154   0.274 -1.2017 -2.5563  0.1123
  648SOL    HW2 1944   0.063   0.330   0.284 -0.1779 -3.3754  0.9728
  649SOL     OW 1945   0.002   0.025   0.945 -0.2147  0.2437 -0.0512
  649SOL    HW1 1946   0.101   0.031   0.920  1.8745  1.7243  3.0311
  649SOL    HW2 1947  -0.016   0.047   1.045 -0.5064  1.8933 -1.0482
  650SOL     OW 1948   2.747   0.713   1.457  0.1898  0.0664  0.3300
  650SOL    HW1 1949   2.654   0.700   1.499 -0.6252 -0.7845 -2.3546
  650SOL    HW2 1950   2.743   0.805   1.412  0.7023  0.4463  0.6508
  651SOL     OW 1951   0.891   1.619   1.501  0.2449 -0.1952 -0.1738
  651SOL    HW1 1952   0.957   1.696   1.529 -2.5758  2.7852 -1.4345
  651SOL    HW2 1953   0.819   1.645   1.423 -2.5705 -0.2106 -0.3906
  652SOL     OW 1954   2.305   2.512   2.361 -0.5394  0.1644 -0.1792
  652SOL    HW1 1955   2.213   2.502   2.411 -0.0047  0.2118 -0.0283
  652SOL    HW2 1956   2.295   2.594   2.301 -0.7291  1.1126 -4.8536
  653SOL     OW 1957   2.789   1.153   0.229 -0.6410  0.2005 -0.6702
  653SOL    HW1 1958   2.822   1.237   0.273  2.7445 -2.8709 -1.1655
  653SOL    HW2 1959   2.859   1.075   0.243 -0.3634 -2.5535 -0.6143
  654SOL     OW 1960   1.184   2.228   1.235  0.2758 -0.1774  0.2204
  654SOL    HW1 1961   1.197   2.159   1.310 -2.0206  1.0381  1.0449
  654SOL    HW2 1962   1.260   2.223   1.165 -0.8346  1.1938 -0.2561
  655SOL     OW 1963   0.231   1.061   1.915  0.4038 -0.3650 -0.0027
  655SOL    HW1 1964   0.276   0.998   1.855 -3.2059  2.3483  1.6505
  655SOL    HW2 1965   0.296   1.136   1.943  1.0851 -0.8629  0.7628
  656SOL     OW 1966   2.477   2.403   2.575  0.5023 -0.2034  0.5276
  656SOL    HW1 1967   2.585   2.396   2.569  3.1700  0.3552  0.0653
  656SOL    HW2 1968   2.432   2.467   2.503  0.5106  1.9309  0.3563
  657SOL     OW 1969   3.053   1.107   1.882 -0.4461 -0.0694 -0.1179
  657SOL    HW1 1970   3.041   1.212   1.889 -1.9332  0.6562 -0.1864
  657SOL    HW2 1971   3.151   1.078   1.904 -1.2096  0.6361  0.4420
  658SOL     OW 1972   1.696   0.250   2.373  0.1653  0.3484  0.2668
  658SOL    HW1 1973   1.703   0.170   2.432 -1.5197  1.9681  1.1643
  658SOL    HW2 1974   1.747   0.240   2.279  1.5311  2.8086 -3.6144
  659SOL     OW 1975   1.412   0.623   2.828  0.0596  0.0150 -0.0388
  659SOL    HW1 1976   1.482   0.685   2.872  0.3247 -1.1146 -0.5462
  659SOL    HW2 1977   1.342   0.673   2.768 -1.5374 -1.2971 -0.3778
  660SOL     OW 1978   1.376   0.428   1.410 -0.2427 -0.3126  0.0405
  660SOL    HW1 1979   1.414   0.434   1.508 -1.5248 -2.5994  3.7518
  660SOL    HW2 1980   1.431   0.364   1.352 -0.2858  0.4646  2.1704
  661SOL     OW 1981   2.452   1.121   0.677 -0.3478 -0.3326  0.1356
  661SOL    HW1 1982   2.472   1.029   0.630 -0.8493 -0.5304 -0.1988
  661SOL    HW2 1983   2.436   1.199   0.608  0.5569  1.0883 -1.3244
  662SOL     OW 1984   1.264   0.456   1.846 -0.1780  0.1688  0.5375
  662SOL    HW1 1985   1.243   0.357   1.844  2.8924  1.3028 -2.4902
  662SOL    HW2 1986   1.248   0.514   1.928  0.3716 -0.0400  0.9383
  663SOL     OW 1987   0.860   1.574   2.215  0.4537 -0.4374  0.2738
  663SOL    HW1 1988   0.823   1.666   2.241  0.5882 -0.3494 -0.5149
  663SOL    HW2 1989   0.823   1.537   2.131  0.2918  1.7345 -2.1976
  664SOL     OW 1990   1.653   2.064   1.381  0.0994 -0.1256 -0.1689
  664SOL    HW1 1991   1.571   2.014   1.423 -0.0211 -1.4562  1.4116
  664SOL    HW2 1992   1.745   2.031   1.419  0.3012  2.2495 -0.3474
  665SOL     OW 1993   2.302   0.622   1.988 -0.3263  0.1126 -0.3185
  665SOL    HW1 1994   2.323   0.521   2.022  0.5648 -1.7712 -1.4850
  665SOL    HW2 1995   2.234   0.678   2.045 -1.9927  0.9241  0.9019
  666SOL     OW 1996   0.470   2.271   0.464  0.4638  0.1978  0.1861
  666SOL    HW1 1997   0.483   2.375   0.457  2.4855  1.8195 -1.9103
  666SOL    HW2 1998   0.421   2.238   0.551  0.0492  3.3060 -0.4551
  667SOL     OW 1999   2.084   0.198   1.022 -0.2045  0.6785 -0.3367
  667SOL    HW1 2000   2.143   0.283   1.004 -0.1970  0.3155  1.9070
  667SOL    HW2 2001   1.991   0.219   1.060 -1.8668 -1.0402  0.6411
  668SOL     OW 2002   2.039   0.651   1.277  0.6700  0.0256  0.1536
  668SOL    HW1 2003   2.079   0.605   1.193 -0.5888  0.5837 -0.3011
  668SOL    HW2 2004   2.045   0.590   1.358 -2.0635 -1.8544  0.2047
  669SOL     OW 2005   3.015   2.146   0.967  0.5413  0.9100  0.5890
  669SOL    HW1 2006   2.940   2.175   0.897 -0.7247  1.5446 -1.6900
  669SOL    HW2 2007   2.980   2.163   1.068  2.2221 -1.0303  1.4051
  670SOL     OW 2008   2.796   2.343   2.003 -0.1316  0.3410  0.2420
  670SOL    HW1 2009   2.742   2.341   2.093 -0.8194 -0.2092 -0.4683
  670SOL    HW2 2010   2.766   2.423   1.941 -2.9150  0.6540 -1.8722
  671SOL     OW 2011   1.683   1.726   1.476  0.5518  0.3922 -0.2473
  671SOL    HW1 2012   1.685   1.702   1.377  2.2784  0.6177  2.3701
  671SOL    HW2 2013   1.600   1.770   1.507  1.7985  0.3195 -0.4717
  672SOL     OW 2014   0.394   0.675   2.455  0.7073  0.0904  0.1213
  672SOL    HW1 2015   0.422   0.675   2.357 -1.0343  2.7620  1.3212
  672SOL    HW2 2016   0.303   0.723   2.474 -1.7551  0.5493  1.3357
  673SOL     OW 2017   0.149   1.253   1.071 -0.1727  0.1095  0.0631
  673SOL    HW1 2018   0.160   1.340   1.124 -1.3054  0.1437  1.1210
  673SOL    HW2 2019   0.240   1.199   1.060  3.2013 -0.1472 -1.2569
  674SOL     OW 2020   1.587   2.905   0.146  0.4417  0.0527 -0.0674
  674SOL    HW1 2021   1.603   3.007   0.149  1.1017  0.3874  2.2826
  674SOL    HW2 2022   1.656   2.854   0.084  1.3885  2.5181 -0.0101
  675SOL     OW 2023   1.724   0.888   2.336  0.2966 -0.8656 -0.2823
  675SOL    HW1 2024   1.823   0.861   2.320  0.3755  0.7535 -0.1579
  675SOL    HW2 2025   1.656   0.823   2.297 -0.1572  2.9416 -0.3095
  676SOL     OW 2026   2.530   1.525   2.026  0.2156  0.3164 -0.2048
  676SOL    HW1 2027   2.512   1.495   1.927 -0.1784 -3.1251  0.9114
  676SOL    HW2 2028   2.548   1.448   2.093  0.6552 -0.4778  0.9182
  677SOL     OW 2029   1.938   0.548   0.907  0.6004  0.0074  0.3475
  677SOL    HW1 2030   1.940   0.649   0.928  0.0071 -0.5044  2.0034
  677SOL    HW2 2031   1.873   0.500   0.973  1.3753  2.9769 -1.4878
  678SOL     OW 2032   0.080   0.773   1.643  0.0518 -0.6124  0.0166
  678SOL    HW1 2033   0.180   0.801   1.657  0.4527 -1.3341  0.5239
  678SOL    HW2 2034   0.019   0.814   1.718 -1.3971 -1.2080  2.0969
  679SOL     OW 2035   2.442   1.181   1.147 -0.2326 -0.8286 -0.4029
  679SOL    HW1 2036   2.351   1.189   1.196  0.8102 -1.3440  0.4866
  679SOL    HW2 2037   2.459   1.082   1.109  1.2651 -0.5979 -1.7973
  680SOL     OW 2038   2.871   0.646   1.699 -0.4501  0.1386  0.0511
  680SOL    HW1 2039   2.825   0.707   1.624  1.8512  1.4801 -2.5827
  680SOL    HW2 2040   2.928   0.707   1.764 -0.6860  0.3277 -1.7998
  681SOL     OW 2041   3.065   0.146   1.652 -0.4558  0.3451  0.1188
  681SOL    HW1 2042   3.140   0.138   1.582  0.5634  0.5515 -0.6359
  681SOL    HW2 2043   3.011   0.235   1.637  1.0406 -0.3407 -0.9520
  682SOL     OW 2044   0.715   3.087   1.332 -0.0652  0.0871 -0.0164
  682SOL    HW1 2045   0.647   3.012   1.371  2.5240 -1.3028 -0.9000
  682SOL    HW2 2046   0.740   3.079   1.229 -0.5164 -0.1695  0.9737
  683SOL     OW 2047   1.422   0.233   2.199  0.1973  0.0231  1.0615
  683SOL    HW1 2048   1.434   0.287   2.289 -0.0670 -0.5486  1.6952
  683SOL    HW2 2049   1.494   0.260   2.126  1.5815  0.9074 -0.5035
  684SOL     OW 2050   1.436   2.131   0.479 -0.5220  0.0599  0.0274
  684SOL    HW1 2051   1.507   2.085   0.541  0.0397 -1.4008 -1.3336
  684SOL    HW2 2052   1.360   2.067   0.449 -0.0923  0.7954 -1.2454
  685SOL     OW 2053   2.157   1.921   1.984 -0.1671 -0.4037  0.6247
  685SOL    HW1 2054   2.208   1.991   1.929 -1.1108 -1.5102 -0.7445
  685SOL    HW2 2055   2.218   1.848   2.020 -1.9788 -1.0213 -1.8126
  686SOL     OW 2056   1.537   1.708   2.775 -0.0817 -0.1003 -0.0075
  686SOL    HW1 2057   1.522   1.611   2.790  4.2765  1.4243 -2.2206
  686SOL    HW2 2058   1.587   1.750   2.855 -1.4568  0.1655 -0.2945
  687SOL     OW 2059   1.352   2.495   1.900 -0.2408  0.1992  0.3080
  687SOL    HW1 2060   1.377   2.402   1.862  2.3131 -1.7920 -1.3545
  687SOL    HW2 2061   1.403   2.512   1.988  0.4170 -1.2901  0.0243
  688SOL     OW 2062   2.082   1.516   1.582 -0.6859  0.1505 -0.3263
  688SOL    HW1 2063   2.176   1.531   1.539  1.1983 -0.3855  1.8771
  688SOL    HW2 2064   2.016   1.490   1.510 -0.7302  0.4717  1.4343
  689SOL     OW 2065   2.456   1.063   2.706  0.7072  0.5095  0.3195
  689SOL    HW1 2066   2.364   1.044   2.746  0.0677 -1.7721 -2.0714
  689SOL    HW2 2067   2.530   1.088   2.774  1.8247 -3.0953  0.9603
  690SOL     OW 2068   2.240   2.775   3.042  0.4671  0.0288 -0.5208
  690SOL    HW1 2069   2.156   2.754   2.989  1.9134  1.3213  2.0341
  690SOL    HW2 2070   2.220   2.838   3.122 -1.4167  2.6225 -2.2542
  691SOL     OW 2071   2.592   0.451   2.170  0.3883 -0.0746 -0.8311
  691SOL    HW1 2072   2.665   0.391   2.125  1.3263 -0.4823  1.3228
  691SOL    HW2 2073   2.581   0.548   2.128 -0.4491 -0.2310 -1.9314
  692SOL     OW 2074   2.713   1.256   0.652 -0.1609  0.0433 -0.2283
  692SOL    HW1 2075   2.624   1.226   0.695  1.3493 -1.5998  1.6584
  692SOL    HW2 2076   2.761   1.335   0.704 -1.5636 -1.1456 -2.0726
  693SOL     OW 2077   2.816   2.951   0.623 -0.3477  0.6237  0.2478
  693SOL    HW1 2078   2.850   3.031   0.683 -0.2010 -2.1358  0.7265
  693SOL    HW2 2079   2.798   2.978   0.524 -0.3584  0.0680  0.0532
  694SOL     OW 2080   2.405   2.152   0.066  0.7829  0.4877 -0.2490
  694SOL    HW1 2081   2.378   2.252   0.092  0.1369 -0.4167 -1.9537
  694SOL    HW2 2082   2.315   2.098   0.055 -3.5670 -1.9338  1.1613
  695SOL     OW 2083   0.550   2.901   1.483 -0.3763 -0.2038 -0.1874
  695SOL    HW1 2084   0.485   2.822   1.469  2.8022  0.8461  1.1304
  695SOL    HW2 2085   0.540   2.949   1.578 -0.1495  0.1034  0.4908
  696SOL     OW 2086   2.733   1.986   0.652  0.2819  0.0963  0.3418
  696SOL    HW1 2087   2.775   1.899   0.697  1.7481 -0.1005  0.0296
  696SOL    HW2 2088   2.670   1.968   0.568 -2.8694 -0.0821 -0.2090
  697SOL     OW 2089   1.668   2.036   1.722  0.2143 -0.1414  0.3083
  697SOL    HW1 2090   1.737   1.999   1.790 -1.2680 -0.9966 -0.1074
  697SOL    HW2 2091   1.701   2.112   1.661 -0.3032 -1.5076  0.6162
  698SOL     OW 2092   2.919   0.335   2.810 -0.0002  0.4357  0.1856
  698SOL    HW1 2093   2.939   0.309   2.714  1.5574 -2.5635 -0.9781
  698SOL    HW2 2094   2.976   0.279   2.872 -0.2132  2.5852 -1.2090
  699SOL     OW 2095   1.529   0.122   2.929  0.1966  0.6394 -0.0490
  699SOL    HW1 2096   1.494   0.025   2.903  1.2642  0.6310  0.9934
  699SOL    HW2 2097   1.575   0.166   2.847  0.0817  0.0792  0.4425
  700SOL     OW 2098   1.003   2.413   1.380  0.1599  0.3514 -0.3979
  700SOL    HW1 2099   1.081   2.358   1.344  1.6481  1.6070 -0.8144
  700SOL    HW2 2100   0.918   2.395   1.319  1.1701  1.2996 -0.2298
  701SOL     OW 2101   1.842   2.820   0.028 -0.7544  0.9458 -0.1206
  701SOL    HW1 2102   1.853   2.787   0.128  2.2741  1.2675  1.2540
  701SOL    HW2 2103   1.881   2.915   0.018  0.1947 -0.9680 -3.0478
  702SOL     OW 2104   2.089   1.361   1.817 -0.1272 -0.2364 -0.1402
  702SOL    HW1 2105   2.174   1.308   1.840  1.6700  0.8435 -0.0914
  702SOL    HW2 2106   2.106   1.424   1.735  2.6784 -1.6480  2.4034
  703SOL     OW 2107   1.976   0.886   1.480 -0.5510  0.6169  0.2302
  703SOL    HW1 2108   1.974   0.788   1.520  2.7729 -2.3703 -1.3438
  703SOL    HW2 2109   2.050   0.942   1.525  0.4202 -2.1613 -0.2375
  704SOL     OW 2110   0.274   2.071   1.790  0.1417  0.2871 -0.0373
  704SOL    HW1 2111   0.287   1.994   1.864  1.3105 -0.3479  2.9800
  704SOL    HW2 2112   0.358   2.128   1.767  1.2144 -2.9696  0.9640
  705SOL     OW 2113   2.552   1.412   0.854 -0.2472  0.1994  0.2196
  705SOL    HW1 2114   2.457   1.390   0.888  1.4338  2.0913 -0.3529
  705SOL    HW2 2115   2.623   1.407   0.930  2.6649  0.4500 -1.8638
  706SOL     OW 2116   0.636   1.744   1.886  0.2233 -0.2498  0.3175
  706SOL    HW1 2117   0.649   1.647   1.921  1.2532  3.8486 -0.8050
  706SOL    HW2 2118   0.714   1.808   1.910  0.5784 -1.0489  1.6474
  707SOL     OW 2119   2.326   1.238   1.886  0.2198 -0.6940 -1.2445
  707SOL    HW1 2120   2.426   1.239   1.905  0.5008 -1.1877 -2.5561
  707SOL    HW2 2121   2.290   1.142   1.889  0.6256  0.9540 -1.7911
  708SOL     OW 2122   3.053   0.529   3.024 -0.3064 -0.2100 -0.1386
  708SOL    HW1 2123   3.029   0.572   2.928  1.2575 -0.5251  1.7806
  708SOL    HW2 2124   3.090   0.430   3.011 -1.9654  2.9810 -0.9811
  709SOL     OW 2125   1.753   1.844   0.208 -0.0000 -0.4362 -1.0219
  709SOL    HW1 2126   1.827   1.894   0.267  0.7669  0.1244  2.7197
  709SOL    HW2 2127   1.766   1.859   0.108  0.1523 -0.6089  0.6409
  710SOL     OW 2128   1.769   1.660   2.443  0.1557 -0.1324  0.1593
  710SOL    HW1 2129   1.786   1.643   2.347 -1.1277  1.5514  1.8265
  710SOL    HW2 2130   1.819   1.600   2.509  0.3501  3.6346  1.7214
  711SOL     OW 2131   2.626   2.899   0.969  0.1694  0.0710 -0.0314
  711SOL    HW1 2132   2.614   2.991   0.926  3.4336  0.3220  1.8331
  711SOL    HW2 2133   2.722   2.885   1.000 -2.2321 -3.2069 -0.4546
  712SOL     OW 2134   1.493   2.290   1.751  0.0110 -0.3452 -0.5918
  712SOL    HW1 2135   1.537   2.207   1.790  1.0064  2.2143 -0.1506
  712SOL    HW2 2136   1.429   2.266   1.674 -2.0668  0.1867 -0.6074
  713SOL     OW 2137   2.861   1.338   2.500 -0.1542 -0.2311  0.7381
  713SOL    HW1 2138   2.913   1.248   2.486  0.3368 -0.9232 -0.0859
  713SOL    HW2 2139   2.777   1.325   2.560  2.9628 -0.6273 -0.9992
  714SOL     OW 2140   2.670   0.433   2.430 -0.3640  0.0283  0.6234
  714SOL    HW1 2141   2.615   0.409   2.516  0.0903 -1.7346 -0.0521
  714SOL    HW2 2142   2.612   0.435   2.342  0.5305  0.5396  0.9741
  715SOL     OW 2143   1.649   2.111   1.111  0.2657 -0.9191  0.2982
  715SOL    HW1 2144   1.553   2.137   1.078  1.4340  0.3102  0.5262
  715SOL    HW2 2145   1.669   2.111   1.215  1.5106 -0.9806  1.5890
  716SOL     OW 2146   1.199   0.207   1.445 -0.5837  0.0068 -0.3435
  716SOL    HW1 2147   1.094   0.200   1.427 -2.2557  0.0899  0.8029
  716SOL    HW2 2148   1.237   0.305   1.427 -2.0806  0.6842 -0.4816
  717SOL     OW 2149   1.056   0.599   1.590 -0.1633 -0.7602  0.2304
  717SOL    HW1 2150   1.151   0.616   1.627 -1.0095  1.7817 -0.7138
  717SOL    HW2 2151   1.055   0.566   1.491  0.7368 -1.8303 -0.4851
  718SOL     OW 2152   0.662   1.100   1.004  0.0056  0.3878 -0.0118
  718SOL    HW1 2153   0.625   1.072   0.913  0.8550 -0.1191 -2.6626
  718SOL    HW2 2154   0.722   1.184   0.999  1.9144  0.6980 -0.2546
  719SOL     OW 2155   0.710   1.815   2.241 -1.1395  0.0160  0.3591
  719SOL    HW1 2156   0.760   1.847   2.330  0.9675  0.8985  1.5970
  719SOL    HW2 2157   0.628   1.871   2.232  0.8269  1.1287 -3.7334
  720SOL     OW 2158   2.270   1.141   0.225  0.2645 -0.0368  0.0385
  720SOL    HW1 2159   2.374   1.123   0.216  0.4433  2.1754  2.8040
  720SOL    HW2 2160   2.230   1.126   0.322  0.8546  1.6637 -0.5935
  721SOL     OW 2161   2.238   0.015   2.003 -0.0068 -0.0869  0.0831
  721SOL    HW1 2162   2.266   0.092   1.938 -0.4507 -0.8851  0.2554
  721SOL    HW2 2163   2.139   0.028   2.030 -0.1143 -0.5067 -1.5685
  722SOL     OW 2164   2.392   1.647   0.489  0.1507  0.2333 -0.4173
  722SOL    HW1 2165   2.401   1.597   0.400 -0.2903 -2.6409 -1.0937
  722SOL    HW2 2166   2.295   1.652   0.521  0.3272  0.6783 -1.0348
  723SOL     OW 2167   2.598   2.854   1.901  0.6793 -0.1171 -0.1297
  723SOL    HW1 2168   2.656   2.865   1.985 -0.0007  1.0484  0.1870
  723SOL    HW2 2169   2.496   2.847   1.933  1.1327 -0.6524  0.1565
  724SOL     OW 2170   0.294   2.420   2.357 -0.6967  0.0172  0.2658
  724SOL    HW1 2171   0.202   2.461   2.372  0.7030 -1.7987 -2.6266
  724SOL    HW2 2172   0.351   2.400   2.442  1.5216 -1.5409 -0.1603
  725SOL     OW 2173   2.283   2.787   1.476  0.6426  0.2444 -0.0075
  725SOL    HW1 2174   2.342   2.797   1.396 -1.6542  0.4550  2.1700
  725SOL    HW2 2175   2.294   2.704   1.534 -0.9505 -2.3175 -2.4759
  726SOL     OW 2176   2.393   2.252   0.810  0.2863 -0.0170 -0.2577
  726SOL    HW1 2177   2.380   2.353   0.794 -1.3414 -0.0064  3.4330
  726SOL    HW2 2178   2.362   2.192   0.727 -0.1375 -0.0469 -0.1474
  727SOL     OW 2179   0.235   3.068   0.166  0.3741  0.4179 -0.0080
  727SOL    HW1 2180   0.243   2.975   0.113 -0.4199  1.0441 -1.7203
  727SOL    HW2 2181   0.284   3.150   0.122  0.1664  1.4651 -0.3097
  728SOL     OW 2182   2.839   0.645   1.029 -0.5346 -0.1863  1.0020
  728SOL    HW1 2183   2.765   0.608   0.969  0.3556 -0.7921  3.5739
  728SOL    HW2 2184   2.845   0.593   1.119  0.3238  0.3883  1.5701
  729SOL     OW 2185   2.959   2.483   0.731  0.2043 -0.2513 -0.0222
  729SOL    HW1 2186   2.903   2.401   0.720  2.2816  0.6081  0.1509
  729SOL    HW2 2187   3.058   2.461   0.717  1.2903  1.5110 -0.8042
  730SOL     OW 2188   2.630   0.575   0.878 -0.4484 -0.8000 -0.1869
  730SOL    HW1 2189   2.580   0.652   0.836  1.2200 -1.2632  2.2298
  730SOL    HW2 2190   2.682   0.530   0.797  0.5455  5.4078 -2.7071
  731SOL     OW 2191   0.096   2.127   2.461  0.7162  0.2852  0.4938
  731SOL    HW1 2192   0.110   2.167   2.555 -0.4668 -0.0834 -3.9907
  731SOL    HW2 2193   0.004   2.159   2.423 -1.1857  1.2795 -0.5132
  732SOL     OW 2194   1.131   2.842   1.995  0.6571  0.0868  0.9076
  732SOL    HW1 2195   1.165   2.775   2.068  0.1247  0.7055  1.8882
  732SOL    HW2 2196   1.145   2.801   1.899 -1.1469 -1.7227  0.0984
  733SOL     OW 2197   3.036   0.685   2.105  0.1260  0.3504  0.0741
  733SOL    HW1 2198   3.129   0.732   2.091  2.3622  0.7569 -2.2039
  733SOL    HW2 2199   3.021   0.594   2.051 -1.3452 -2.0004  3.3286
  734SOL     OW 2200   1.388   0.379   2.701  0.1277  0.2355 -0.2733
  734SOL    HW1 2201   1.417   0.463   2.758 -1.6728 -1.3323 -0.5293
  734SOL    HW2 2202   1.320   0.320   2.751 -2.0101  0.7833  1.8314
  735SOL     OW 2203   2.805   2.640   2.294 -0.0186 -0.2497  0.0822
  735SOL    HW1 2204   2.711   2.632   2.254 -1.0692  3.0838 -2.4655
  735SOL    HW2 2205   2.878   2.625   2.224  0.4434  0.2700  1.9651
  736SOL     OW 2206   0.798   0.396   2.607  0.1490 -0.4351 -0.8497
  736SOL    HW1 2207   0.718   0.462   2.594 -1.1859  0.7570 -0.6672
  736SOL    HW2 2208   0.818   0.351   2.520  0.7525 -1.2462 -0.0780
  737SOL     OW 2209   2.705   0.475   2.841 -0.4082 -0.4382  0.4883
  737SOL    HW1 2210   2.671   0.455   2.939  1.0772 -1.5557  2.7123
  737SOL    HW2 2211   2.799   0.435   2.818  1.8347 -0.0091 -0.6908
  738SOL     OW 2212   1.645   1.167   3.007 -0.3985 -0.5099  0.1474
  738SOL    HW1 2213   1.742   1.166   2.968 -1.0204  1.5415  3.3429
  738SOL    HW2 2214   1.644   1.091   3.077 -1.3445 -0.6890  0.4271
  739SOL     OW 2215   1.768   0.557   0.676  0.3707 -0.5284 -0.0380
  739SOL    HW1 2216   1.842   0.548   0.751 -1.1922 -0.1670  0.2121
  739SOL    HW2 2217   1.799   0.506   0.593  1.9094  0.7130  1.0767
  740SOL     OW 2218   1.894   2.011   2.142  0.0915  0.3599 -0.0635
  740SOL    HW1 2219   1.943   1.949   2.076 -0.2990  1.4582  0.7295
  740SOL    HW2 2220   1.808   2.055   2.099 -0.9999  0.6121 -0.9020
  741SOL     OW 2221   2.509   0.092   2.569 -0.2454 -0.5427  0.5249
  741SOL    HW1 2222   2.614   0.090   2.555 -1.0395  0.6939  1.3052
  741SOL    HW2 2223   2.454   0.068   2.485  0.0518 -1.4124  0.4354
  742SOL     OW 2224   2.245   1.388   0.042 -0.1276  0.2347  0.1043
  742SOL    HW1 2225   2.207   1.481   0.077  2.5762  1.3398  0.8547
  742SOL    HW2 2226   2.186   1.303   0.069 -1.9723 -1.7110  3.2904
  743SOL     OW 2227   1.741   0.642   2.651  0.0150  0.2942 -0.0141
  743SOL    HW1 2228   1.771   0.592   2.563  0.4901 -4.0393  0.1778
  743SOL    HW2 2229   1.668   0.714   2.639 -2.0151 -1.2615 -1.8821
  744SOL     OW 2230   2.659   2.067   0.035  0.1876  0.6906  0.4263
  744SOL    HW1 2231   2.566   2.101   0.070 -2.1840  0.7815  1.5995
  744SOL    HW2 2232   2.690   1.997   0.103 -0.4138  0.2022  0.5930
  745SOL     OW 2233   2.199   2.716   2.204 -0.0588  0.2815  0.0873
  745SOL    HW1 2234   2.100   2.702   2.179 -1.2809  0.9115  1.3439
  745SOL    HW2 2235   2.207   2.757   2.298  0.3479 -0.7106 -1.3897
  746SOL     OW 2236   3.078   2.598   1.838 -0.5643 -0.3644 -0.1569
  746SOL    HW1 2237   3.179   2.598   1.810  0.4580  2.6979 -0.8027
  746SOL    HW2 2238   3.044   2.693   1.871 -0.6585  0.2990  0.4982
  747SOL     OW 2239   0.016   1.795   1.703  0.1589 -0.0328 -0.4348
  747SOL    HW1 2240  -0.021   1.698   1.681  1.0308 -1.5120 -0.1470
  747SOL    HW2 2241   0.091   1.829   1.638  0.5355 -0.8450  0.6578
  748SOL     OW 2242   1.739   2.754   2.873 -0.1028 -0.0467 -0.2264
  748SOL    HW1 2243   1.766   2.791   2.965 -2.3015  1.1138  1.6323
  748SOL    HW2 2244   1.633   2.754   2.861 -3.2526 -0.6854  0.3102
  749SOL     OW 2245   1.298   0.076   0.900  0.0381 -0.1078  0.3085
  749SOL    HW1 2246   1.258  -0.017   0.930  2.1369 -0.1467 -0.3722
  749SOL    HW2 2247   1.312   0.082   0.798  0.3718  2.3457  0.3991
  750SOL     OW 2248   2.275   0.262   1.858 -0.0872 -0.1860  0.0540
  750SOL    HW1 2249   2.339   0.314   1.797 -3.2815  0.1161  1.9849
  750SOL    HW2 2250   2.277   0.308   1.953 -2.4738 -0.0127 -0.6269
  751SOL     OW 2251   0.847   2.250   2.893  0.5075  0.0119  0.5161
  751SOL    HW1 2252   0.928   2.253   2.960 -0.6330  0.5183  0.7601
  751SOL    HW2 2253   0.783   2.169   2.917 -0.9220 -1.7407  0.0044
  752SOL     OW 2254   1.247   0.946   1.538  0.3686 -0.1364 -0.4869
  752SOL    HW1 2255   1.329   0.979   1.485  0.5119  0.6636  1.8655
  752SOL    HW2 2256   1.253   0.847   1.565  0.2075  0.2943 -0.1052
  753SOL     OW 2257   0.935   2.631   1.761 -0.1203 -0.6790  0.0361
  753SOL    HW1 2258   1.035   2.652   1.740 -2.6362  0.5893 -0.0896
  753SOL    HW2 2259   0.862   2.688   1.712 -0.1633 -1.1399 -0.6728
  754SOL     OW 2260   1.144   1.317   3.029 -0.2141  0.3847 -0.5991
  754SOL    HW1 2261   1.187   1.261   2.950  0.9464  0.1079 -2.1141
  754SOL    HW2 2262   1.146   1.418   3.011  0.6251 -1.4525  0.2578
  755SOL     OW 2263   2.021   0.521   2.212 -0.0894  0.2269  0.0459
  755SOL    HW1 2264   2.097   0.467   2.258 -0.3802  1.5716 -1.1626
  755SOL    HW2 2265   1.931   0.524   2.265 -0.6588  0.1613  2.1221
  756SOL     OW 2266   2.638   0.978   2.939 -0.0274 -0.4756  0.1348
  756SOL    HW1 2267   2.691   0.889   2.926 -0.0493 -3.2332  0.0547
  756SOL    HW2 2268   2.595   0.986   3.030  0.4630 -0.2064  0.2079
  757SOL     OW 2269   0.130   0.497   1.712  0.9323 -0.5900  0.1311
  757SOL    HW1 2270   0.119   0.598   1.694 -1.1395  0.0343 -0.1431
  757SOL    HW2 2271   0.209   0.452   1.661 -1.0143  2.0628  1.0303
  758SOL     OW 2272   2.490   0.042   1.520  0.0282  0.4497 -0.0488
  758SOL    HW1 2273   2.398   0.007   1.558  0.0310  4.4149 -0.0560
  758SOL    HW2 2274   2.499   0.022   1.420  0.7685 -0.2029  0.3499
  759SOL     OW 2275   1.658   0.089   0.076  0.1119  0.0200  0.2034
  759SOL    HW1 2276   1.613   0.130  -0.007  1.0387 -0.3525  0.9908
  759SOL    HW2 2277   1.755   0.067   0.059 -0.4517  3.3323 -1.3750
  760SOL     OW 2278   2.746   1.949   2.791 -0.0207 -0.6707 -0.3578
  760SOL    HW1 2279   2.748   1.848   2.798  2.2689  0.0788 -2.6690
  760SOL    HW2 2280   2.835   1.983   2.747  1.4050 -1.7482 -1.1836
  761SOL     OW 2281   1.899   1.766   1.617  0.1755  0.5808  0.4301
  761SOL    HW1 2282   1.955   1.677   1.639  0.6484  1.7029  0.4922
  761SOL    HW2 2283   1.804   1.743   1.582  1.0216  0.0611 -0.6941
  762SOL     OW 2284   0.525   2.416   0.998 -0.2867 -0.6712 -0.1195
  762SOL    HW1 2285   0.578   2.464   0.923  1.3079  1.1092 -1.1548
  762SOL    HW2 2286   0.535   2.466   1.090 -1.4884 -1.2264  0.2088
  763SOL     OW 2287   2.016   1.581   2.967  0.5519  0.2219 -0.1143
  763SOL    HW1 2288   2.087   1.533   2.902 -1.6238  1.2751 -1.0308
  763SOL    HW2 2289   1.935   1.520   2.998  0.7981  1.0549 -1.6754
  764SOL     OW 2290   0.690   0.587   0.850  0.4419  0.4264 -0.1492
  764SOL    HW1 2291   0.679   0.531   0.763 -0.2833  0.1031 -1.5918
  764SOL    HW2 2292   0.782   0.580   0.899 -0.5020  1.8578  2.0790
  765SOL     OW 2293   0.660   0.215   0.802 -0.2586  0.3830 -0.2299
  765SOL    HW1 2294   0.742   0.233   0.740 -1.0520 -0.0059  0.4903
  765SOL    HW2 2295   0.667   0.256   0.899 -0.2786  0.3826  0.7643
  766SOL     OW 2296   3.000   1.993   3.039  1.1395 -0.1555  0.0457
  766SOL    HW1 2297   2.897   1.982   3.012 -1.1937 -0.6491  1.7186
  766SOL    HW2 2298   3.030   2.092   3.040 -0.8458 -0.2744 -2.5282
  767SOL     OW 2299   2.812   1.566   0.500 -1.2358  0.2046 -0.7020
  767SOL    HW1 2300   2.716   1.583   0.537 -1.6010 -1.1421 -1.3045
  767SOL    HW2 2301   2.883   1.564   0.580  0.1629 -1.6445  1.3094
  768SOL     OW 2302   1.051   0.320   0.274 -0.1919  0.2575 -0.5816
  768SOL    HW1 2303   0.949   0.298   0.267  0.4915 -1.2478 -0.6591
  768SOL    HW2 2304   1.111   0.233   0.279  2.1992 -3.4221  1.7026
  769SOL     OW 2305   1.260   1.833   2.270  0.5547  0.2328 -0.4829
  769SOL    HW1 2306   1.355   1.817   2.224  3.3517  0.1951 -2.4413
  769SOL    HW2 2307   1.202   1.749   2.263 -0.4956  3.8685  0.2857
  770SOL     OW 2308   0.169   1.102   2.320  0.1411 -0.3576 -0.4411
  770SOL    HW1 2309   0.147   1.172   2.385 -0.1844 -2.0133 -1.2359
  770SOL    HW2 2310   0.106   1.109   2.237 -0.6844  0.2817 -0.6997
  771SOL     OW 2311   2.960   2.832   1.929  0.3306  0.3326 -0.7671
  771SOL    HW1 2312   2.949   2.904   1.848 -1.1908  1.3869  1.2523
  771SOL    HW2 2313   2.937   2.878   2.018 -1.6169  0.9008 -0.2376
  772SOL     OW 2314   2.123   0.073   2.999 -0.0266 -0.4434  0.2130
  772SOL    HW1 2315   2.208   0.019   2.969 -0.8839 -0.6382 -0.1812
  772SOL    HW2 2316   2.145   0.163   3.049 -1.0570  0.1377  0.5242
  773SOL     OW 2317   0.733   2.138   2.468 -0.0499  0.0422  0.0055
  773SOL    HW1 2318   0.693   2.196   2.388  2.8979  1.7057  0.8645
  773SOL    HW2 2319   0.662   2.100   2.534  0.3564 -0.9352 -0.3810
  774SOL     OW 2320   2.008   0.032   2.663 -0.5747 -0.2939  0.2238
  774SOL    HW1 2321   2.028   0.119   2.719  0.3981  2.5360  1.3314
  774SOL    HW2 2322   2.028  -0.056   2.707 -1.3607  0.4378 -3.0108
  775SOL     OW 2323   2.521   2.890   2.381 -0.2001  0.3907 -0.3905
  775SOL    HW1 2324   2.490   2.988   2.372 -0.5635  1.0635  2.4141
  775SOL    HW2 2325   2.609   2.884   2.435  1.8885 -0.3824  0.2109
  776SOL     OW 2326   0.009   1.179   0.265  0.1044 -0.5016 -0.0009
  776SOL    HW1 2327  -0.038   1.202   0.175 -0.4120 -2.9006  0.0498
  776SOL    HW2 2328  -0.057   1.156   0.343 -2.7459 -1.5724 -0.7233
  777SOL     OW 2329   0.331   2.690   0.404  0.2477  0.4471 -0.0303
  777SOL    HW1 2330   0.231   2.661   0.421 -1.5922  0.8003 -1.3347
  777SOL    HW2 2331   0.350   2.792   0.391  0.5074  1.1336 -0.3385
  778SOL     OW 2332   1.330   1.958   0.164  0.3305  0.7917 -0.4495
  778SOL    HW1 2333   1.270   1.972   0.249  1.6753  2.1112  0.1528
  778SOL    HW2 2334   1.363   2.051   0.126 -0.2047  1.1752  0.5094
  779SOL     OW 2335   0.174   0.828   0.520  0.0140 -0.3048 -0.4829
  779SOL    HW1 2336   0.149   0.729   0.522 -0.8418  0.5693  2.3739
  779SOL    HW2 2337   0.104   0.877   0.581  1.1245  0.7802 -1.4450
  780SOL     OW 2338   0.039   0.294   2.368  0.4900  0.5185 -0.0834
  780SOL    HW1 2339  -0.009   0.389   2.369 -0.8803  2.3471 -1.2128
  780SOL    HW2 2340   0.131   0.301   2.315  0.9768  0.0153 -0.6833
  781SOL     OW 2341   0.560   1.782   1.617 -0.3531  0.1125 -0.4844
  781SOL    HW1 2342   0.608   1.769   1.708  1.0961 -2.7743 -0.6245
  781SOL    HW2 2343   0.500   1.696   1.594 -0.9751  0.2811  0.4326
  782SOL     OW 2344   2.646   0.121   0.889 -0.0012 -0.6430 -0.0164
  782SOL    HW1 2345   2.578   0.103   0.814  2.3205 -0.2473 -0.6030
  782SOL    HW2 2346   2.612   0.141   0.982  1.1918 -0.1932 -1.8798
  783SOL     OW 2347   2.817   0.663   2.533  0.0512 -0.3240  0.3782
  783SOL    HW1 2348   2.776   0.689   2.629 -1.2410 -0.9055  0.0100
  783SOL    HW2 2349   2.760   0.582   2.499 -0.1310 -1.6803  0.7268
  784SOL     OW 2350   1.379   2.210   0.045  0.4204 -0.3963  0.1768
  784SOL    HW1 2351   1.479   2.218   0.067 -0.7005  1.0655  0.1723
  784SOL    HW2 2352   1.366   2.195  -0.061 -0.8320 -0.7347 -0.5554
  785SOL     OW 2353   2.185   0.316   0.024  0.1024 -0.2029  0.0769
  785SOL    HW1 2354   2.104   0.319   0.086  2.3567 -0.5906 -0.9859
  785SOL    HW2 2355   2.198   0.412  -0.006 -0.8187 -0.7608  1.5275
  786SOL     OW 2356   2.077   2.198   2.247  0.5681 -0.3753 -0.2348
  786SOL    HW1 2357   2.005   2.136   2.207  1.8391  2.1542  0.1375
  786SOL    HW2 2358   2.170   2.150   2.258 -1.5808  1.5514 -2.4744
  787SOL     OW 2359   1.405   0.630   0.759 -0.2775  0.0671 -0.8939
  787SOL    HW1 2360   1.382   0.728   0.749 -5.7599  1.1278  0.0325
  787SOL    HW2 2361   1.451   0.596   0.676  1.4711 -0.2564  3.0709
  788SOL     OW 2362   1.215   0.479   2.968  0.2903 -0.0761 -0.0494
  788SOL    HW1 2363   1.131   0.443   2.922 -0.5148  2.3990  1.2748
  788SOL    HW2 2364   1.280   0.539   2.909  3.2647  1.2787 -3.5090
  789SOL     OW 2365   2.640   0.058   1.860 -0.4279 -0.1220 -0.0277
  789SOL    HW1 2366   2.556   0.007   1.834  0.3479  2.1694 -0.0346
  789SOL    HW2 2367   2.701   0.008   1.933  1.4538 -1.4692  2.6294
  790SOL     OW 2368   2.605   2.672   0.830  0.1717 -0.0253 -0.0639
  790SOL    HW1 2369   2.685   2.660   0.768 -2.3828  0.3211  2.2093
  790SOL    HW2 2370   2.597   2.767   0.877 -0.3453 -0.0263  0.5160
  791SOL     OW 2371   1.941   1.200   0.197 -0.2842 -0.6235  0.3166
  791SOL    HW1 2372   1.853   1.149   0.221  0.9795  0.2539 -0.8924
  791SOL    HW2 2373   2.013   1.149   0.150  0.1958 -1.0845  2.2179
  792SOL     OW 2374   0.457   1.975   2.215  0.2401 -0.1750  0.4848
  792SOL    HW1 2375   0.472   2.078   2.232  0.2043 -0.5683  1.2392
  792SOL    HW2 2376   0.376   1.935   2.274 -1.4475 -0.0823 -1.3995
  793SOL     OW 2377   2.101   1.504   2.058 -0.1440  0.5721 -0.1831
  793SOL    HW1 2378   2.189   1.552   2.043  1.0421 -1.8732 -2.1454
  793SOL    HW2 2379   2.093   1.427   1.988 -0.8324 -2.4621 -5.6136
  794SOL     OW 2380   0.549   1.546   2.472  0.1454  0.0749  0.1697
  794SOL    HW1 2381   0.621   1.476   2.481 -2.1466  1.4658  1.2247
  794SOL    HW2 2382   0.507   1.561   2.379  1.5588  2.1119 -0.1510
  795SOL     OW 2383   2.468   2.325   1.839 -0.5963  0.4388  0.7221
  795SOL    HW1 2384   2.507   2.316   1.937  1.3151  0.2571  1.0213
  795SOL    HW2 2385   2.392   2.262   1.819  1.5348  0.5061 -1.4761
  796SOL     OW 2386   3.026   1.108   2.713 -0.7546  0.5077  0.5033
  796SOL    HW1 2387   2.925   1.124   2.729  0.9035  0.5458 -1.7903
  796SOL    HW2 2388   3.083   1.136   2.798 -1.3495  0.1800 -0.8823
  797SOL     OW 2389   0.666   0.627   1.354  0.4094 -0.1489 -0.5380
  797SOL    HW1 2390   0.741   0.693   1.387  0.4512  0.9712  0.2249
  797SOL    HW2 2391   0.640   0.650   1.257 -3.5092 -3.9906 -2.0793
  798SOL     OW 2392   1.182   0.511   0.917  0.3606 -0.3073 -0.3165
  798SOL    HW1 2393   1.185   0.584   0.992  1.8322 -0.1933 -1.0317
  798SOL    HW2 2394   1.248   0.529   0.842  1.7361  0.3373 -0.8715
  799SOL     OW 2395   1.804   2.709   1.020 -0.6057 -0.0038  0.5296
  799SOL    HW1 2396   1.800   2.607   1.040 -1.3991  0.1325  0.6494
  799SOL    HW2 2397   1.860   2.718   0.934  2.7926  0.2317  1.8005
  800SOL     OW 2398   3.006   0.818   1.865 -0.3020 -0.1043 -0.1436
  800SOL    HW1 2399   3.009   0.924   1.873 -1.8428  1.7947  1.5161
  800SOL    HW2 2400   2.983   0.771   1.956  1.6578  0.5774  2.4151
  801SOL     OW 2401   1.956   2.191   0.098 -0.0489  1.0690 -0.1477
  801SOL    HW1 2402   1.938   2.247   0.015 -0.3272  0.0615  0.6507
  801SOL    HW2 2403   2.030   2.117   0.086  1.8289  0.9379  1.3195
  802SOL     OW 2404   0.640   0.648   2.562 -0.3363  0.3369 -0.6449
  802SOL    HW1 2405   0.701   0.634   2.477 -1.1679 -1.9991 -2.1265
  802SOL    HW2 2406   0.537   0.660   2.539 -1.5067  2.5255 -0.1787
  803SOL     OW 2407   0.950   0.112   0.896  0.2926  0.3425 -0.1405
  803SOL    HW1 2408   1.011   0.179   0.943 -1.6549 -0.8986 -1.3304
  803SOL    HW2 2409   0.930   0.130   0.796  0.1879  0.6390  1.5520
  804SOL     OW 2410   0.312   0.033   2.202  0.7216 -0.0583 -0.1534
  804SOL    HW1 2411   0.291   0.133   2.220  1.5168  2.2870 -1.4010
  804SOL    HW2 2412   0.248  -0.013   2.134 -1.0339  0.8647 -1.9188
  805SOL     OW 2413   2.401   0.372   0.319 -0.5882 -0.1384 -0.1364
  805SOL    HW1 2414   2.481   0.370   0.394  1.1838  2.4216  0.7908
  805SOL    HW2 2415   2.413   0.297   0.245  0.2125  1.8218 -1.4450
  806SOL     OW 2416   0.601   2.647   1.908  0.6014  0.4125  0.7535
  806SOL    HW1 2417   0.517   2.694   1.942 -0.7367 -0.0652  0.4763
  806SOL    HW2 2418   0.649   2.697   1.826  1.0599  1.3575  0.8106
  807SOL     OW 2419   2.518   0.913   0.488 -0.2705 -0.3042  0.3441
  807SOL    HW1 2420   2.612   0.864   0.491  0.7644 -0.2477 -0.4825
  807SOL    HW2 2421   2.521   0.978   0.410  0.4405 -0.9986  2.5870
  808SOL     OW 2422   0.686   2.025   2.938  0.5343 -0.0773  0.0426
  808SOL    HW1 2423   0.631   2.060   3.021 -1.2569 -0.0020 -3.3681
  808SOL    HW2 2424   0.695   1.923   2.928 -0.4665  2.5049  1.8662
  809SOL     OW 2425   2.582   1.990   1.918 -0.3558  0.5258 -0.1129
  809SOL    HW1 2426   2.680   2.030   1.927  2.7844 -1.2084 -0.3888
  809SOL    HW2 2427   2.554   2.001   1.816 -1.2796 -0.1584  0.1923
  810SOL     OW 2428   2.187   1.143   0.480  0.1018  0.6833 -0.4073
  810SOL    HW1 2429   2.164   1.044   0.499  0.0880  0.7257  1.0377
  810SOL    HW2 2430   2.132   1.208   0.545 -2.0820  1.5076  1.6828
  811SOL     OW 2431   1.259   2.496   1.142 -0.4893  0.4101 -0.2949
  811SOL    HW1 2432   1.200   2.421   1.194 -1.2919 -3.0421 -0.8106
  811SOL    HW2 2433   1.326   2.550   1.206 -0.8535  5.2779  1.0173
  812SOL     OW 2434   1.480   0.742   1.984 -0.6448 -0.3027  0.3248
  812SOL    HW1 2435   1.443   0.786   2.071 -0.6973  2.0743  2.6492
  812SOL    HW2 2436   1.493   0.820   1.911 -0.6281  1.4382 -0.2845
  813SOL     OW 2437   1.682   2.047   2.392 -0.5335 -0.0760  0.0639
  813SOL    HW1 2438   1.772   2.023   2.438 -1.7584  0.7140  0.0262
  813SOL    HW2 2439   1.671   2.014   2.292 -0.7647  1.5032 -0.1203
  814SOL     OW 2440   3.024   1.693   2.914  0.1019  0.3784  0.0038
  814SOL    HW1 2441   3.082   1.656   2.992  0.5773 -0.3691 -0.2004
  814SOL    HW2 2442   3.040   1.797   2.904  1.5914  2.1571 -0.4874
  815SOL     OW 2443   2.168   2.844   2.733  0.0872  0.2202 -0.2044
  815SOL    HW1 2444   2.159   2.761   2.793  1.4795 -0.5846 -2.8974
  815SOL    HW2 2445   2.255   2.896   2.750  0.2248  0.9541  0.4142
  816SOL     OW 2446   1.477   0.406   1.661 -0.0571  0.3034  0.1911
  816SOL    HW1 2447   1.520   0.309   1.665  0.5731  1.3515  0.9265
  816SOL    HW2 2448   1.411   0.417   1.742 -1.6987 -1.0110  0.9273
  817SOL     OW 2449   0.362   1.286   2.574 -0.0555 -0.4722 -0.5347
  817SOL    HW1 2450   0.265   1.316   2.577  2.0382 -0.8102 -2.2943
  817SOL    HW2 2451   0.420   1.322   2.499  1.1038 -1.3028  1.6155
  818SOL     OW 2452   2.010   0.827   0.458 -0.2760 -0.5309 -0.1329
  818SOL    HW1 2453   2.112   0.819   0.461 -2.4656 -1.7505 -1.8921
  818SOL    HW2 2454   1.972   0.887   0.529  1.6547 -1.9466  0.7040
  819SOL     OW 2455   2.790   2.914   2.967  0.0720 -0.0983  0.2924
  819SOL    HW1 2456   2.870   2.855   2.936  1.7494  2.6233  1.4720
  819SOL    HW2 2457   2.693   2.877   2.938 -3.9426 -0.1011  1.4815
  820SOL     OW 2458   1.220   1.053   0.554 -0.0493  0.7151  0.3578
  820SOL    HW1 2459   1.255   1.142   0.582 -3.2416 -1.6633 -1.9102
  820SOL    HW2 2460   1.210   0.984   0.626  2.6789  1.2554 -2.6634
  821SOL     OW 2461   0.029   1.240   0.725 -0.5346  0.1493  0.1894
  821SOL    HW1 2462   0.012   1.247   0.825 -0.4248 -4.1039  0.8748
  821SOL    HW2 2463   0.096   1.316   0.692  0.2865 -1.2529 -0.8326
  822SOL     OW 2464   2.550   1.756   2.470  0.1948  0.3095 -0.2181
  822SOL    HW1 2465   2.542   1.820   2.552 -1.3687  0.2174 -0.4391
  822SOL    HW2 2466   2.461   1.758   2.415 -1.1912 -1.4289  0.8261
  823SOL     OW 2467   2.006   0.922   1.180 -0.6489  0.2372  0.3478
  823SOL    HW1 2468   1.996   0.870   1.268 -2.2487  0.7968 -1.4851
  823SOL    HW2 2469   1.946   0.885   1.107 -1.5942  0.3422 -0.6157
  824SOL     OW 2470   0.166   1.834   2.835  0.1825 -0.0922 -0.1096
  824SOL    HW1 2471   0.167   1.843   2.941 -0.6321  2.7450  0.6055
  824SOL    HW2 2472   0.254   1.868   2.786 -1.6743  0.6646  0.2990
  825SOL     OW 2473   1.284   1.050   0.290 -0.2728 -0.3901  0.2626
  825SOL    HW1 2474   1.291   1.147   0.260 -0.4095 -1.7147 -0.3614
  825SOL    HW2 2475   1.283   1.032   0.394 -1.6142  1.4771  2.3786
  826SOL     OW 2476   1.970   0.638   1.610  0.3088  0.8815 -0.2970
  826SOL    HW1 2477   2.052   0.581   1.629 -0.1198  0.5767 -1.1640
  826SOL    HW2 2478   1.891   0.578   1.587  2.4258 -1.3165  0.7981
  827SOL     OW 2479   0.721   1.187   0.501  0.6112  0.0514  0.2937
  827SOL    HW1 2480   0.806   1.144   0.465 -1.7241 -1.3618  0.7611
  827SOL    HW2 2481   0.636   1.128   0.484  0.0544  1.4465  1.0119
  828SOL     OW 2482   2.718   0.210   1.589  0.6144 -0.0300  0.6102
  828SOL    HW1 2483   2.624   0.175   1.551 -0.4708 -2.2081  0.4999
  828SOL    HW2 2484   2.718   0.217   1.692  0.8154 -0.3076  1.0192
  829SOL     OW 2485   2.908   2.388   2.898 -0.6723 -0.6840 -0.6122
  829SOL    HW1 2486   2.834   2.347   2.959  1.1899 -1.4179 -1.0277
  829SOL    HW2 2487   2.897   2.492   2.897  2.3295  0.1303  0.2421
  830SOL     OW 2488   2.937   0.916   2.980  0.2600  0.1825 -0.2763
  830SOL    HW1 2489   2.984   0.998   3.020  1.7655  0.6630 -1.4735
  830SOL    HW2 2490   2.915   0.846   3.054 -1.1075  0.3842 -1.4639
  831SOL     OW 2491   0.046   0.557   0.466 -0.5565  0.1769  0.2990
  831SOL    HW1 2492   0.016   0.496   0.544 -2.1470  0.2983  0.0686
  831SOL    HW2 2493   0.070   0.510   0.377 -1.6472  1.9726 -1.1522
  832SOL     OW 2494   1.791   0.705   0.034 -0.3287  0.7184  0.4138
  832SOL    HW1 2495   1.710   0.759  -0.011 -1.0794  0.8327  0.4996
  832SOL    HW2 2496   1.768   0.605   0.027 -2.7319  2.0394 -1.6321
  833SOL     OW 2497   2.341   2.120   0.568 -0.0934 -0.0923 -0.0891
  833SOL    HW1 2498   2.244   2.099   0.530 -0.7327  2.0932  0.2968
  833SOL    HW2 2499   2.405   2.040   0.544  0.8791 -1.8567  2.6413
  834SOL     OW 2500   0.102   0.061   0.565 -0.1270  0.0631  0.1865
  834SOL    HW1 2501   0.182   0.007   0.524 -0.5964  0.4105 -0.9907
  834SOL    HW2 2502   0.049   0.116   0.495 -3.1795  1.7229 -0.6088
  835SOL     OW 2503   2.466   1.686   1.139  0.5522  0.5660 -0.5289
  835SOL    HW1 2504   2.544   1.627   1.180  1.2155 -1.4959  1.0420
  835SOL    HW2 2505   2.509   1.763   1.083 -0.7043 -1.4030 -0.0388
  836SOL     OW 2506   1.535   0.834   2.609  0.0567  0.2984  0.1898
  836SOL    HW1 2507   1.432   0.839   2.623  1.0170 -2.0098 -0.0306
  836SOL    HW2 2508   1.564   0.888   2.521 -0.7089  0.5498 -0.5224
  837SOL     OW 2509   1.718   0.075   0.543 -0.1806 -0.3383  0.1068
  837SOL    HW1 2510   1.714   0.160   0.605 -2.0897  1.0576  3.0879
  837SOL    HW2 2511   1.663   0.088   0.453 -1.2734  2.0300  0.4549
  838SOL     OW 2512   1.154   1.474   2.683 -0.5000 -0.8005  0.1660
  838SOL    HW1 2513   1.120   1.489   2.778  1.6318  2.7857  0.0705
  838SOL    HW2 2514   1.150   1.376   2.652  0.2256  0.2617 -0.7292
  839SOL     OW 2515   1.648   0.410   0.959 -0.2989  0.1585 -0.1148
  839SOL    HW1 2516   1.583   0.473   1.013  0.4238  3.4696  0.8453
  839SOL    HW2 2517   1.616   0.314   0.950  1.6257 -2.0805 -2.0470
  840SOL     OW 2518   2.661   2.949   1.643  0.5851  0.0109 -0.8271
  840SOL    HW1 2519   2.625   3.034   1.596  2.2228 -1.4525 -1.7606
  840SOL    HW2 2520   2.599   2.920   1.724  0.4135  0.6322 -0.0829
  841SOL     OW 2521   1.542   0.844   3.074  0.2950 -0.1649  0.1795
  841SOL    HW1 2522   1.451   0.822   3.109 -1.3601 -0.3415  0.5214
  841SOL    HW2 2523   1.528   0.889   2.979 -0.1034  2.8681 -3.2109
  842SOL     OW 2524   0.826   1.625   1.025 -0.0658 -0.1071 -0.1226
  842SOL    HW1 2525   0.780   1.723   1.034 -0.0779  2.6938  1.1319
  842SOL    HW2 2526   0.781   1.568   0.952 -1.4497  2.8761 -1.4234
  843SOL     OW 2527   0.171   0.072   1.431  0.1026  0.2825 -0.0002
  843SOL    HW1 2528   0.253   0.105   1.492  0.5148 -0.2717 -1.5166
  843SOL    HW2 2529   0.187  -0.027   1.402 -0.0127  1.0013 -4.3565
  844SOL     OW 2530   0.713   2.440   0.200 -0.1538 -0.1474  0.0905
  844SOL    HW1 2531   0.665   2.463   0.290  0.0058  0.9601  0.2342
  844SOL    HW2 2532   0.653   2.411   0.120 -0.3052 -0.5947  0.7332
  845SOL     OW 2533   1.751   0.008   1.267  0.1407 -0.6375  0.1284
  845SOL    HW1 2534   1.703  -0.024   1.355  2.1978  0.0127  1.3795
  845SOL    HW2 2535   1.772   0.112   1.266  0.2689  2.3170 -0.7844
  846SOL     OW 2536   1.674   3.025   0.904 -0.0277 -0.5693 -0.3299
  846SOL    HW1 2537   1.698   3.045   0.808  0.4296  2.2567  1.5290
  846SOL    HW2 2538   1.723   2.945   0.945 -1.0478  2.5273 -1.5268
  847SOL     OW 2539   2.074   1.606   0.144 -0.6287 -0.6379  0.0292
  847SOL    HW1 2540   2.008   1.571   0.220  1.0983 -0.6050 -0.6439
  847SOL    HW2 2541   2.031   1.618   0.052  0.3141  1.8916 -0.3862
  848SOL     OW 2542   2.511   0.789   2.648 -0.0636 -0.1422 -0.0310
  848SOL    HW1 2543   2.498   0.892   2.665 -0.7928 -1.0727  1.3911
  848SOL    HW2 2544   2.427   0.733   2.609 -3.1102  1.3588  0.9014
  849SOL     OW 2545   2.379   0.850   2.297 -0.0414  0.3842 -0.0857
  849SOL    HW1 2546   2.440   0.814   2.225  0.8845  0.2839 -0.8375
  849SOL    HW2 2547   2.361   0.775   2.368  0.7843  1.0268 -0.9649
  850SOL     OW 2548   1.502   0.227   1.265 -0.3644  0.5721 -0.1077
  850SOL    HW1 2549   1.506   0.183   1.170  0.7461 -0.0235 -1.4556
  850SOL    HW2 2550   1.492   0.156   1.342  2.0260  2.2025  0.5673
  851SOL     OW 2551   0.445   1.671   0.624 -0.0599 -0.0380 -0.3659
  851SOL    HW1 2552   0.451   1.772   0.646  0.2560  0.9890  0.4655
  851SOL    HW2 2553   0.538   1.627   0.614  2.0298 -1.8051 -0.7325
  852SOL     OW 2554   0.837   2.192   1.762 -0.2197 -0.1483  0.3632
  852SOL    HW1 2555   0.801   2.264   1.696  1.4458 -2.8992  0.5906
  852SOL    HW2 2556   0.768   2.166   1.835 -1.3496 -1.0633  4.0739
  853SOL     OW 2557   2.573   1.511   2.566 -0.8609 -0.0002  0.2646
  853SOL    HW1 2558   2.531   1.429   2.511 -1.6337 -4.0018 -2.4815
  853SOL    HW2 2559   2.558   1.604   2.520 -0.6394  2.4932  1.3638
  854SOL     OW 2560   2.468   1.449   1.763  0.3429  0.3243 -0.5495
  854SOL    HW1 2561   2.509   1.407   1.674 -0.7816 -2.8840 -0.9109
  854SOL    HW2 2562   2.401   1.384   1.809 -1.3155 -1.0654 -0.3987
  855SOL     OW 2563   2.039   2.305   0.983 -0.0042  0.5289 -0.6200
  855SOL    HW1 2564   2.086   2.390   0.941  1.5083  3.2489 -0.5072
  855SOL    HW2 2565   2.099   2.268   1.055  0.0868  1.0416  0.8857
  856SOL     OW 2566   1.429   1.449   0.869 -0.1754  0.1322 -0.8977
  856SOL    HW1 2567   1.464   1.543   0.900  1.5034  0.8173  1.0261
  856SOL    HW2 2568   1.341   1.434   0.919 -0.3267 -0.2342 -2.0664
  857SOL     OW 2569   2.912   2.521   1.080  0.3182 -0.2191  0.2698
  857SOL    HW1 2570   2.859   2.435   1.115  1.8202 -0.1103  0.1773
  857SOL    HW2 2571   2.961   2.500   0.991  3.3482  0.3260  1.4365
  858SOL     OW 2572   2.257   2.135   1.783 -0.1396  0.4840 -0.2235
  858SOL    HW1 2573   2.161   2.153   1.738 -1.0037 -1.5482 -2.5451
  858SOL    HW2 2574   2.303   2.053   1.736 -3.6889  0.6762 -1.0700
  859SOL     OW 2575   2.452   0.391   0.985  0.2680  0.9029  0.0542
  859SOL    HW1 2576   2.517   0.461   0.945 -0.8625  1.2116  3.1523
  859SOL    HW2 2577   2.491   0.318   1.052  1.5155 -0.5245  3.4325
  860SOL     OW 2578   1.896   2.805   0.510 -0.8419 -0.3192  0.7455
  860SOL    HW1 2579   1.893   2.769   0.410  0.8842 -0.6523  0.3973
  860SOL    HW2 2580   1.916   2.909   0.522 -0.6107 -0.7486 -0.3111
  861SOL     OW 2581   1.006   2.567   2.806 -0.3027 -0.2360 -0.1934
  861SOL    HW1 2582   1.063   2.659   2.807  0.4095  2.1682 -1.9276
  861SOL    HW2 2583   0.995   2.532   2.903 -0.0476  1.1961  1.2246
  862SOL     OW 2584   2.963   2.622   1.559 -0.5049 -0.3486 -0.2554
  862SOL    HW1 2585   3.014   2.612   1.650  1.2619  3.1290 -0.6869
  862SOL    HW2 2586   2.860   2.647   1.576 -1.9777 -0.0264  0.7873
  863SOL     OW 2587   1.862   2.690   0.265  0.1656 -0.4179 -0.8745
  863SOL    HW1 2588   1.938   2.624   0.233 -2.8422 -1.9049  0.4719
  863SOL    HW2 2589   1.769   2.646   0.235 -0.9789 -2.2471 -0.4877
  864SOL     OW 2590   1.914   1.135   2.954  0.2128 -0.1280  0.5890
  864SOL    HW1 2591   1.957   1.095   2.867  1.7914 -2.3156 -1.4821
  864SOL    HW2 2592   1.975   1.110   3.035 -0.2528  0.0795  1.4873
  865SOL     OW 2593   2.138   1.707   0.608  0.3774 -0.3490 -0.4723
  865SOL    HW1 2594   2.150   1.732   0.709 -0.4368 -1.2132  0.3189
  865SOL    HW2 2595   2.083   1.618   0.583 -0.6818 -1.0266 -0.1653
  866SOL     OW 2596   2.880   2.825   1.003  0.1811  0.3338 -0.0186
  866SOL    HW1 2597   2.929   2.832   0.916 -0.5790  2.6252  0.6496
  866SOL    HW2 2598   2.886   2.730   1.046 -0.2233  1.5338 -1.6085
  867SOL     OW 2599   0.424   1.362   0.829 -0.5155  0.2111 -0.2716
  867SOL    HW1 2600   0.456   1.263   0.819  1.9319 -0.4038  0.8371
  867SOL    HW2 2601   0.353   1.386   0.752  1.8185 -1.5591 -1.1407
  868SOL     OW 2602   0.843   1.894   2.015 -0.0381 -0.3759 -0.3545
  868SOL    HW1 2603   0.801   1.842   2.091 -1.7129  0.3295  1.5421
  868SOL    HW2 2604   0.798   1.982   1.991 -0.0710 -1.5712 -0.0390
  869SOL     OW 2605   2.527   2.002   1.652  0.1819 -0.4315 -0.1275
  869SOL    HW1 2606   2.607   1.939   1.663 -0.6094 -1.5968  0.8973
  869SOL    HW2 2607   2.464   1.986   1.573  0.8772  2.8931  1.7025
  870SOL     OW 2608   2.394   2.519   1.202  0.2125  0.3429  0.6080
  870SOL    HW1 2609   2.341   2.434   1.191 -1.9837  1.3351  0.7113
  870SOL    HW2 2610   2.485   2.501   1.245 -0.5944  0.5539 -1.1764
  871SOL     OW 2611   3.045   1.992   0.530  0.1706 -0.0177  0.2009
  871SOL    HW1 2612   2.961   2.048   0.510  1.2216  0.6023 -0.5146
  871SOL    HW2 2613   3.079   1.935   0.449 -2.3298 -0.4489  1.4523
  872SOL     OW 2614   2.172   0.491   1.702  0.0150  0.4990 -0.2035
  872SOL    HW1 2615   2.129   0.456   1.786  0.2021  0.1262 -0.8076
  872SOL    HW2 2616   2.268   0.464   1.689  1.4363  1.1252 -2.0122
  873SOL     OW 2617   1.731   2.073   2.861  0.2852 -0.4027 -0.0771
  873SOL    HW1 2618   1.714   2.173   2.896 -1.8937  2.1213 -1.9760
  873SOL    HW2 2619   1.658   2.042   2.791 -2.9417  1.3434  0.7560
  874SOL     OW 2620   0.611   2.528   0.738 -0.7086 -0.5189 -0.0836
  874SOL    HW1 2621   0.617   2.630   0.763  3.7902  1.8192  1.2426
  874SOL    HW2 2622   0.709   2.494   0.743 -1.5697  1.0043  0.2790
  875SOL     OW 2623   2.311   1.570   1.463  0.6042 -0.2416  0.1981
  875SOL    HW1 2624   2.383   1.617   1.522  0.3686  0.2785  0.3191
  875SOL    HW2 2625   2.291   1.611   1.373 -0.9041 -0.1309 -0.1570
  876SOL     OW 2626   0.121   2.234   2.729 -0.1779 -0.3605  0.4587
  876SOL    HW1 2627   0.141   2.154   2.793  0.2840  2.3625  0.5289
  876SOL    HW2 2628   0.180   2.323   2.747  0.8870 -1.2910 -0.6441
  877SOL     OW 2629   2.777   2.647   0.604 -0.1991  0.1072 -0.0630
  877SOL    HW1 2630   2.804   2.749   0.617  1.3240 -0.5088  0.2199
  877SOL    HW2 2631   2.849   2.588   0.659  3.5644  0.3198  2.0475
  878SOL     OW 2632   2.752   1.529   2.271 -0.1545 -0.3395 -0.2827
  878SOL    HW1 2633   2.714   1.624   2.289 -1.3709  1.0722  2.2039
  878SOL    HW2 2634   2.808   1.496   2.354  1.0542 -0.2871  1.9309
  879SOL     OW 2635   2.405   3.071   1.255  0.8386 -0.4122  0.4036
  879SOL    HW1 2636   2.428   2.973   1.266  2.5445  0.2471 -0.8659
  879SOL    HW2 2637   2.311   3.086   1.211  1.3242  1.3011 -0.0679
  880SOL     OW 2638   0.587   0.490   2.224 -0.2835  0.7304  0.2605
  880SOL    HW1 2639   0.548   0.436   2.312 -0.5127 -1.5150 -0.5228
  880SOL    HW2 2640   0.554   0.455   2.130 -1.4272  2.2402  2.2198
  881SOL     OW 2641   0.859   0.080   0.423 -0.1669  0.1018  0.4513
  881SOL    HW1 2642   0.920   0.001   0.396  0.3184 -0.5213  3.3089
  881SOL    HW2 2643   0.771   0.081   0.370 -1.2528 -3.6747  2.5850
  882SOL     OW 2644   2.772   1.786   1.679 -0.2191  0.6681  0.5038
  882SOL    HW1 2645   2.847   1.715   1.659  1.5671 -2.9706 -0.8084
  882SOL    HW2 2646   2.733   1.766   1.772  2.5245  0.1843  0.5117
  883SOL     OW 2647   0.930   0.599   0.964 -0.2249  0.0947  0.1712
  883SOL    HW1 2648   0.947   0.688   1.016 -0.0423  0.2809  2.0693
  883SOL    HW2 2649   1.012   0.546   0.933 -1.4687 -1.3120 -0.2953
  884SOL     OW 2650   1.176   1.877   1.071  0.3756  0.5771 -0.1210
  884SOL    HW1 2651   1.157   1.875   0.966 -0.1237  3.0893 -0.6337
  884SOL    HW2 2652   1.102   1.924   1.130  1.5582  0.0887  0.5271
  885SOL     OW 2653   2.312   1.758   2.342  0.7758  0.1080 -0.6095
  885SOL    HW1 2654   2.252   1.714   2.411  1.2503  3.8148 -2.3299
  885SOL    HW2 2655   2.297   1.858   2.339  2.0064  0.0037 -0.2146
  886SOL     OW 2656   2.699   0.463   1.804  0.1695  0.2450 -0.2488
  886SOL    HW1 2657   2.746   0.428   1.892 -1.1252  0.6751  0.4208
  886SOL    HW2 2658   2.752   0.545   1.762  0.2977 -4.0961  1.0621
  887SOL     OW 2659   0.180   2.048   1.311  0.2790  0.5951  0.2869
  887SOL    HW1 2660   0.147   2.000   1.224 -0.8764  2.8419 -0.4825
  887SOL    HW2 2661   0.196   2.151   1.293 -0.4610  1.3358  4.4379
  888SOL     OW 2662   0.589   1.310   1.519 -0.2873  0.4935  0.3539
  888SOL    HW1 2663   0.632   1.301   1.423 -0.8418 -0.3106  0.2616
  888SOL    HW2 2664   0.523   1.236   1.537  0.0502 -0.2873 -2.9397
  889SOL     OW 2665   0.839   2.442   2.142  0.1709 -0.7484  0.2200
  889SOL    HW1 2666   0.767   2.382   2.100  2.9578 -1.7403  0.3126
  889SOL    HW2 2667   0.928   2.451   2.083 -1.5221  0.1113 -3.1804
  890SOL     OW 2668   2.326   2.405   0.133  0.4175  0.3476  0.5281
  890SOL    HW1 2669   2.350   2.474   0.058  3.3962 -0.3823 -0.1338
  890SOL    HW2 2670   2.234   2.431   0.178  1.1045  1.5733 -1.7518
  891SOL     OW 2671   2.591   1.628   0.680  0.0107  0.1284  1.2360
  891SOL    HW1 2672   2.581   1.536   0.725 -1.1890  1.6606  0.5716
  891SOL    HW2 2673   2.517   1.647   0.610  1.1286 -0.5154  1.2552
  892SOL     OW 2674   0.265   0.307   2.243  0.2397 -0.4021 -0.2430
  892SOL    HW1 2675   0.261   0.361   2.160  2.4654 -2.0919  3.0831
  892SOL    HW2 2676   0.328   0.343   2.316  0.6870  1.5999 -2.2260
  893SOL     OW 2677   1.621   0.227   2.697 -0.2988  0.5928 -0.1659
  893SOL    HW1 2678   1.683   0.307   2.728 -0.0156 -1.7873  2.4663
  893SOL    HW2 2679   1.538   0.269   2.650 -1.1765  0.7224 -1.7514
  894SOL     OW 2680   2.161   1.993   0.079  0.2976  0.0093 -0.1228
  894SOL    HW1 2681   2.118   1.951  -0.002  2.8018  2.3984 -1.1389
  894SOL    HW2 2682   2.193   1.928   0.154 -0.8646 -2.3723 -1.0031
  895SOL     OW 2683   2.873   1.406   0.828 -0.3014  0.2291 -0.2322
  895SOL    HW1 2684   2.910   1.334   0.897 -1.2541 -0.3730  2.5359
  895SOL    HW2 2685   2.937   1.484   0.812  0.5174  0.4417 -0.7956
  896SOL     OW 2686   1.726   1.757   1.192 -1.1406  0.1419  0.2444
  896SOL    HW1 2687   1.814   1.802   1.161  0.4456 -0.3383  0.4204
  896SOL    HW2 2688   1.644   1.801   1.145  1.0755 -0.0126 -2.3593
  897SOL     OW 2689   0.333   0.517   3.065 -0.0032 -0.2341 -0.4253
  897SOL    HW1 2690   0.279   0.551   2.983  0.9866 -1.4925 -0.3220
  897SOL    HW2 2691   0.424   0.569   3.069  1.4519 -0.1527 -1.2989
  898SOL     OW 2692   0.548   2.877   1.064 -0.2834  0.6982 -0.8673
  898SOL    HW1 2693   0.466   2.925   1.105 -1.5732 -1.0009 -2.6394
  898SOL    HW2 2694   0.630   2.937   1.059 -1.2241 -0.3452 -0.9309
  899SOL     OW 2695   2.708   0.948   1.288  0.5516 -0.1033  0.2336
  899SOL    HW1 2696   2.636   0.925   1.215  1.3826 -1.3635 -2.9720
  899SOL    HW2 2697   2.803   0.920   1.251 -0.9251 -0.6361  0.3691
  900SOL     OW 2698   0.963   2.320   2.359 -0.4773  0.3059  0.1682
  900SOL    HW1 2699   0.911   2.363   2.277 -1.2449  0.9075  2.7067
  900SOL    HW2 2700   0.930   2.353   2.451  0.9044  0.2146 -1.6280
  901SOL     OW 2701   1.967   2.485   1.371  0.6389  0.2321 -0.0180
  901SOL    HW1 2702   1.929   2.476   1.277  1.7559 -1.9414  1.5612
  901SOL    HW2 2703   2.051   2.424   1.386  1.2821  1.4668 -1.4670
  902SOL     OW 2704   2.577   1.691   1.461  0.2814  0.0394  0.0888
  902SOL    HW1 2705   2.653   1.713   1.529 -1.3542 -2.8418  0.5637
  902SOL    HW2 2706   2.603   1.643   1.373  0.4702 -0.4286  1.8226
  903SOL     OW 2707   0.289   2.401   1.997 -0.0428  0.4624  0.4905
  903SOL    HW1 2708   0.199   2.364   2.040  0.7075  1.5396 -2.3832
  903SOL    HW2 2709   0.273   2.462   1.912  0.2000  0.8836 -0.0071
  904SOL     OW 2710   2.017   0.782   2.604  0.1509  0.0969 -0.0703
  904SOL    HW1 2711   1.935   0.747   2.648 -0.1031 -0.1757  2.4161
  904SOL    HW2 2712   1.999   0.789   2.501 -1.1752  0.3577 -0.8296
  905SOL     OW 2713   2.783   0.024   2.559  0.3173 -0.3396 -0.7356
  905SOL    HW1 2714   2.848  -0.048   2.591  3.0632 -1.0620  1.3141
  905SOL    HW2 2715   2.834   0.117   2.547  1.1453  0.3634 -2.9797
  906SOL     OW 2716   0.122   1.799   1.959  0.2945  0.3576 -0.5423
  906SOL    HW1 2717   0.080   1.819   1.863  1.2846  1.5173  1.1511
  906SOL    HW2 2718   0.225   1.824   1.967  0.6670  1.9838 -2.3228
  907SOL     OW 2719   0.205   2.419   1.049  0.0315 -0.6878  0.2160
  907SOL    HW1 2720   0.267   2.502   1.032 -0.2312  2.0784  1.9163
  907SOL    HW2 2721   0.158   2.381   0.961  1.0067  0.1765 -1.2407
  908SOL     OW 2722   2.672   2.862   0.380  0.6367  0.2272  0.0493
  908SOL    HW1 2723   2.649   2.867   0.278  0.7221  0.2345  0.5508
  908SOL    HW2 2724   2.683   2.770   0.427  2.1745  0.8387  0.6234
  909SOL     OW 2725   0.695   0.933   2.637  0.4468 -0.6242  0.5039
  909SOL    HW1 2726   0.699   0.836   2.593  2.0181  0.1221 -0.6083
  909SOL    HW2 2727   0.762   0.990   2.583 -1.2704 -0.0638  2.4771
  910SOL     OW 2728   1.717   1.795   2.014  0.1759 -0.1465  0.6696
  910SOL    HW1 2729   1.786   1.828   1.942 -0.2653 -0.8451 -0.3357
  910SOL    HW2 2730   1.667   1.879   2.054 -0.6738 -0.1016  1.4055
  911SOL     OW 2731   1.737   3.035   1.580 -0.1138  0.7996  0.2388
  911SOL    HW1 2732   1.820   2.993   1.530  0.3546 -2.3631  1.0626
  911SOL    HW2 2733   1.706   2.974   1.661 -1.0579 -1.8436  2.3590
  912SOL     OW 2734   2.852   0.940   0.756  0.0614 -0.0262  0.0650
  912SOL    HW1 2735   2.867   0.925   0.857  1.8268  1.9728  0.7679
  912SOL    HW2 2736   2.783   1.016   0.739  1.7746  1.3056 -0.4874
  913SOL     OW 2737   2.579   1.271   1.564  0.0638 -0.0845  0.6882
  913SOL    HW1 2738   2.624   1.199   1.624 -1.1591  1.3452  0.3830
  913SOL    HW2 2739   2.618   1.281   1.467 -0.6470  1.3029 -1.2742
  914SOL     OW 2740   2.838   0.505   1.285  0.0390 -0.1789  0.2097
  914SOL    HW1 2741   2.816   0.407   1.315  1.4426  0.0045 -3.6468
  914SOL    HW2 2742   2.809   0.579   1.359 -0.8972 -0.2296  1.2769
  915SOL     OW 2743   1.201   0.815   1.052  0.0025 -0.3925 -0.0149
  915SOL    HW1 2744   1.280   0.848   1.112  1.6029  0.7413  1.1146
  915SOL    HW2 2745   1.117   0.791   1.110  1.6608  0.9845 -1.1647
  916SOL     OW 2746   0.548   0.045   0.591  0.6820 -0.3168  0.4068
  916SOL    HW1 2747   0.572   0.111   0.669  0.8499 -1.0737  1.8748
  916SOL    HW2 2748   0.566   0.081   0.494  0.6901  2.7081  0.1876
  917SOL     OW 2749   2.743   2.582   1.890 -0.2049 -0.2101  0.0029
  917SOL    HW1 2750   2.663   2.651   1.883  1.3888 -2.6882 -0.0535
  917SOL    HW2 2751   2.822   2.628   1.929 -2.5565  0.9349 -0.4041
  918SOL     OW 2752   1.016   2.184   3.079  0.0709 -0.2185 -0.2054
  918SOL    HW1 2753   0.989   2.216   3.177  1.6283 -0.7554  2.2848
  918SOL    HW2 2754   1.033   2.080   3.081  3.1409 -0.8484  0.5147
  919SOL     OW 2755   0.912   1.601   2.786  0.5069 -0.4882 -0.8165
  919SOL    HW1 2756   0.952   1.675   2.728 -2.0741 -1.4236 -0.0928
  919SOL    HW2 2757   0.880   1.522   2.729 -1.1834 -1.2709  2.5354
  920SOL     OW 2758   1.225   2.086   2.492 -0.0005 -0.0539 -0.5681
  920SOL    HW1 2759   1.178   2.094   2.400  1.6250  0.6524 -0.3385
  920SOL    HW2 2760   1.247   1.981   2.505  0.0765 -1.7507 -0.8065
  921SOL     OW 2761   1.059   0.102   2.573  0.2246 -0.8790 -0.0784
  921SOL    HW1 2762   1.052   0.062   2.472  0.7749 -0.6918 -3.0107
  921SOL    HW2 2763   0.979   0.157   2.604  1.7694  1.2406 -2.0997
  922SOL     OW 2764   2.079   2.420   2.782 -0.0972  0.1047 -0.2301
  922SOL    HW1 2765   2.083   2.315   2.772  1.3994 -1.9612  0.8579
  922SOL    HW2 2766   2.038   2.461   2.696 -0.3619  1.5244  1.3887
  923SOL     OW 2767   1.170   2.723   0.197  0.1284  0.5937  0.3878
  923SOL    HW1 2768   1.261   2.743   0.249 -0.3081 -0.8029  0.1663
  923SOL    HW2 2769   1.169   2.628   0.155  0.5573  0.8182 -2.6675
  924SOL     OW 2770   2.850   1.575   0.088 -0.0824  0.1901  0.0374
  924SOL    HW1 2771   2.770   1.592   0.021  0.1984  0.4306 -0.0937
  924SOL    HW2 2772   2.944   1.593   0.051  0.3625 -4.6436  0.0551
  925SOL     OW 2773   0.093   2.886   1.604 -0.3040  0.4112  0.2509
  925SOL    HW1 2774  -0.007   2.886   1.630 -0.6199 -2.9561 -2.1541
  925SOL    HW2 2775   0.108   2.905   1.505 -0.3982 -0.2591 -1.5900
  926SOL     OW 2776   1.453   2.897   1.295 -0.5457  0.2429 -0.7784
  926SOL    HW1 2777   1.468   2.906   1.191 -0.6906  1.1071 -0.6534
  926SOL    HW2 2778   1.441   2.991   1.334  0.4752 -0.5592  1.1041
  927SOL     OW 2779   0.259   2.548   1.777 -0.3220 -0.3279 -0.4058
  927SOL    HW1 2780   0.219   2.471   1.717 -0.1241 -0.0885  0.3195
  927SOL    HW2 2781   0.308   2.625   1.722 -0.8566  0.1327  0.6709
  928SOL     OW 2782   1.587   2.028   2.089 -0.2151  0.4732  0.2794
  928SOL    HW1 2783   1.616   2.130   2.088  1.2816 -2.4418 -2.3682
  928SOL    HW2 2784   1.482   2.021   2.088 -1.3209 -1.1641  3.0815
  929SOL     OW 2785   2.359   2.439   2.832  0.3756  0.0262 -0.1999
  929SOL    HW1 2786   2.256   2.423   2.829  0.7673 -1.9355 -0.1907
  929SOL    HW2 2787   2.403   2.422   2.737  0.8760 -1.0204  2.8417
  930SOL     OW 2788   2.205   1.971   1.096  0.0105 -0.2003  0.3125
  930SOL    HW1 2789   2.176   1.935   1.191 -2.7523 -1.0814  0.8821
  930SOL    HW2 2790   2.257   2.060   1.109  1.9660  0.4950  1.7078
  931SOL     OW 2791   0.578   1.743   2.660 -0.4543  0.0999  0.3585
  931SOL    HW1 2792   0.662   1.746   2.724 -0.3477  3.0543  0.8190
  931SOL    HW2 2793   0.559   1.655   2.596  2.5193 -1.9717 -3.2442
  932SOL     OW 2794   0.497   0.097   2.896 -0.0343  0.2717  0.0639
  932SOL    HW1 2795   0.592   0.127   2.864  0.8535 -1.0039 -2.8165
  932SOL    HW2 2796   0.493   0.005   2.946  1.9552 -1.3084 -2.5543
  933SOL     OW 2797   1.078   0.800   2.972  0.3707  0.5978 -0.5148
  933SOL    HW1 2798   1.134   0.838   3.049 -0.9637  1.8798 -2.6967
  933SOL    HW2 2799   1.032   0.870   2.911  0.1635 -1.0070  1.1031
  934SOL     OW 2800   0.843   2.953   2.750  0.3562  0.5169  0.0476
  934SOL    HW1 2801   0.876   2.875   2.690 -1.2661  0.1500  2.2903
  934SOL    HW2 2802   0.833   2.915   2.844  0.6408  1.0681  1.9243
  935SOL     OW 2803   3.093   0.556   0.916  0.1693 -0.5485 -0.1073
  935SOL    HW1 2804   3.104   0.505   0.827 -0.6536 -1.3749 -0.9579
  935SOL    HW2 2805   3.004   0.605   0.929 -1.8602  2.4302 -0.3606
  936SOL     OW 2806   1.107   2.967   0.150  0.0723  0.2007  0.1695
  936SOL    HW1 2807   1.172   3.002   0.080 -1.6584  0.1159  0.5886
  936SOL    HW2 2808   1.116   2.862   0.173 -1.6273 -0.7886  1.6971
  937SOL     OW 2809   1.952   2.642   2.103 -0.0273  0.1595  0.0273
  937SOL    HW1 2810   1.860   2.684   2.140 -1.1782  1.2758  0.6162
  937SOL    HW2 2811   1.959   2.648   1.997  0.6914 -1.4546  1.4373
  938SOL     OW 2812   2.754   2.181   1.521 -0.6303  0.1668 -0.3237
  938SOL    HW1 2813   2.682   2.212   1.588 -0.5189 -1.4878  0.0922
  938SOL    HW2 2814   2.805   2.100   1.554 -0.3552  0.1584 -1.1040
  939SOL     OW 2815   2.724   1.019   2.514 -0.0010 -0.5824 -0.1578
  939SOL    HW1 2816   2.776   0.928   2.530  0.6111  0.5809 -1.7340
  939SOL    HW2 2817   2.738   1.084   2.592 -1.1856 -2.0737  1.6709
  940SOL     OW 2818   1.061   0.467   2.651  0.2501  0.0295  0.2091
  940SOL    HW1 2819   1.130   0.385   2.645 -1.4909  1.5959  2.6753
  940SOL    HW2 2820   0.959   0.435   2.641  0.9432  2.5733  0.8831
  941SOL     OW 2821   0.048   2.882   2.227 -0.6625  0.1954  0.2456
  941SOL    HW1 2822   0.025   2.783   2.205 -1.1660  0.7768  1.1770
  941SOL    HW2 2823   0.120   2.889   2.302 -1.1354 -2.6355 -1.9424
  942SOL     OW 2824   0.099   0.074   2.529  0.3548  0.1784  0.0204
  942SOL    HW1 2825   0.164   0.112   2.601 -0.8281  0.8335 -1.2144
  942SOL    HW2 2826   0.079   0.150   2.462 -0.1152  0.5414 -1.0614
  943SOL     OW 2827   2.090   1.646   2.462  0.0218  0.0269  0.7342
  943SOL    HW1 2828   2.130   1.551   2.482  0.6347  1.0550 -2.2921
  943SOL    HW2 2829   2.049   1.663   2.365  3.4830  0.9176 -0.0467
  944SOL     OW 2830   2.193   2.341   1.500  0.1241 -0.5696 -0.0934
  944SOL    HW1 2831   2.249   2.417   1.556  3.9115  0.5489  2.0026
  944SOL    HW2 2832   2.147   2.267   1.561 -0.8304  1.6745 -2.1546
  945SOL     OW 2833   0.629   1.482   0.387  0.3061  0.0790  0.0384
  945SOL    HW1 2834   0.652   1.513   0.289 -0.0268 -0.2867 -1.8933
  945SOL    HW2 2835   0.662   1.388   0.411 -1.6182  0.5049  2.9878
  946SOL     OW 2836   0.337   1.017   2.625 -0.0143 -0.1452  0.8493
  946SOL    HW1 2837   0.290   0.953   2.556  0.8408 -1.3279  1.1462
  946SOL    HW2 2838   0.334   1.115   2.602 -1.8326 -3.6095 -0.8218
  947SOL     OW 2839   1.477   0.449   0.152  0.5749 -0.4991  0.4681
  947SOL    HW1 2840   1.471   0.401   0.243  1.6960  0.9909 -1.7380
  947SOL    HW2 2841   1.433   0.390   0.076 -1.6608 -1.5926 -0.6592
  948SOL     OW 2842   1.974   0.013   2.180  0.4656 -0.1509 -0.2581
  948SOL    HW1 2843   1.941   0.004   2.079 -0.5442 -1.8134 -3.1805
  948SOL    HW2 2844   1.952  -0.070   2.237  0.8289  0.3068 -1.5564
  949SOL     OW 2845   0.579   2.538   0.459 -0.0511  0.0560 -0.3363
  949SOL    HW1 2846   0.600   2.640   0.436 -0.1313  1.1279  0.2837
  949SOL    HW2 2847   0.616   2.520   0.555  1.0017  2.1878  0.6152
  950SOL     OW 2848   0.282   2.079   3.012 -0.4863 -0.4332  0.1572
  950SOL    HW1 2849   0.193   2.130   3.016 -1.0178 -1.9572 -0.0845
  950SOL    HW2 2850   0.274   1.977   3.024  0.0850  0.0157 -0.3289
  951SOL     OW 2851   1.155   2.788   2.781  0.3553  0.5397  0.1817
  951SOL    HW1 2852   1.114   2.848   2.708 -0.2944  0.2231 -0.2154
  951SOL    HW2 2853   1.260   2.801   2.795 -0.0596 -0.0626  1.6376
  952SOL     OW 2854   0.104   1.716   0.462  0.0095  0.3544 -0.3560
  952SOL    HW1 2855   0.180   1.790   0.459  2.5370  2.8758  2.5957
  952SOL    HW2 2856   0.066   1.719   0.557  3.0722  1.7136 -1.2601
  953SOL     OW 2857   2.516   1.759   0.189 -0.4394  0.3727  0.6558
  953SOL    HW1 2858   2.520   1.662   0.218 -1.9328 -1.4521 -1.0703
  953SOL    HW2 2859   2.516   1.766   0.084 -1.7679 -1.9392 -1.4125
  954SOL     OW 2860   2.166   0.507   1.062 -0.1572 -0.8229  0.0536
  954SOL    HW1 2861   2.092   0.501   0.996  1.6030 -0.8158  0.7797
  954SOL    HW2 2862   2.256   0.456   1.036  1.3347 -1.9773 -0.5345
  955SOL     OW 2863   0.231   2.650   1.294 -0.2435 -0.2492 -0.4964
  955SOL    HW1 2864   0.125   2.638   1.289 -1.2105  2.3121 -0.5784
  955SOL    HW2 2865   0.274   2.660   1.197 -1.7476 -1.6575 -0.5914
  956SOL     OW 2866   2.746   2.484   2.519 -0.9952  0.1977 -0.1242
  956SOL    HW1 2867   2.772   2.382   2.507  1.2703  0.2743  1.2094
  956SOL    HW2 2868   2.770   2.536   2.437  2.1578 -1.7360  0.9354
  957SOL     OW 2869   1.533   2.027   2.652 -0.1231 -0.9066 -0.3121
  957SOL    HW1 2870   1.483   1.940   2.622  0.0359 -0.6913  0.6444
  957SOL    HW2 2871   1.587   2.074   2.582 -0.9932 -5.2889  2.1827
  958SOL     OW 2872   2.657   2.317   3.017  0.3094 -0.2680 -0.1179
  958SOL    HW1 2873   2.568   2.351   2.979 -1.5087  0.6040 -1.3012
  958SOL    HW2 2874   2.643   2.221   3.058  1.3951  0.1979  2.4284
  959SOL     OW 2875   0.234   2.817   0.027 -0.1898 -0.4829 -0.0122
  959SOL    HW1 2876   0.129   2.811   0.036 -0.3042 -0.9339  0.1086
  959SOL    HW2 2877   0.275   2.722   0.002  1.0573  0.1505  2.5373
  960SOL     OW 2878   1.987   0.471   1.946 -0.7694 -0.4692  0.1734
  960SOL    HW1 2879   1.951   0.557   1.905 -1.5410 -2.0379  2.2408
  960SOL    HW2 2880   2.000   0.487   2.048  0.2737 -2.2526  2.1474
  961SOL     OW 2881   2.640   1.862   1.036  0.6355  0.2152 -0.2554
  961SOL    HW1 2882   2.590   1.909   0.961 -2.2264 -2.2064  0.8061
  961SOL    HW2 2883   2.655   1.912   1.127 -2.4872 -1.5604  1.5488
  962SOL     OW 2884   1.277   0.909   0.046  0.2150 -0.4887 -0.5195
  962SOL    HW1 2885   1.307   0.975  -0.027  1.6285  2.2059  0.7597
  962SOL    HW2 2886   1.269   0.961   0.139  0.1871  1.4126  0.4926
  963SOL     OW 2887   2.295   2.621   1.849 -0.5902 -0.3701  0.5952
  963SOL    HW1 2888   2.281   2.538   1.907 -1.1956  0.9935  1.5990
  963SOL    HW2 2889   2.318   2.701   1.910 -2.1241 -1.5843  0.1495
  964SOL     OW 2890   2.451   0.383   1.702  0.1004 -0.0187 -0.2297
  964SOL    HW1 2891   2.546   0.406   1.744 -0.9130  1.7828  1.8587
  964SOL    HW2 2892   2.463   0.370   1.598  1.2229 -0.7333  0.9632
  965SOL     OW 2893   2.655   3.014   0.119  0.3626 -0.3535  0.1246
  965SOL    HW1 2894   2.710   2.972   0.039 -0.0994  0.1829  0.7239
  965SOL    HW2 2895   2.584   3.085   0.102  2.7159  2.6348 -2.2894
  966SOL     OW 2896   2.566   2.629   2.157 -0.2904  0.3386 -0.0926
  966SOL    HW1 2897   2.486   2.563   2.146  0.5723 -0.1666  2.5577
  966SOL    HW2 2898   2.535   2.726   2.152  0.1764 -0.0524  1.6784
  967SOL     OW 2899   2.774   2.842   2.459 -0.0285  0.4737  0.5129
  967SOL    HW1 2900   2.789   2.776   2.376  0.5598  0.4983  0.3553
  967SOL    HW2 2901   2.849   2.910   2.473 -0.7523  1.7072  0.1669
  968SOL     OW 2902   2.008   1.037   2.709  0.6220 -0.5305  0.2073
  968SOL    HW1 2903   1.946   1.114   2.671 -1.1823 -1.8349  3.0138
  968SOL    HW2 2904   2.006   0.954   2.645  3.9714 -3.1078 -0.0677
  969SOL     OW 2905   2.717   2.330   1.153 -0.4550  0.2744  0.2730
  969SOL    HW1 2906   2.688   2.326   1.053  0.2123  1.1858 -0.3788
  969SOL    HW2 2907   2.770   2.244   1.183  1.8019  0.0947 -0.3115
  970SOL     OW 2908   1.113   2.199   1.780  0.2878 -0.8231  0.1438
  970SOL    HW1 2909   1.008   2.200   1.755 -2.2663  1.0591 -0.1035
  970SOL    HW2 2910   1.126   2.205   1.884  4.2793 -1.5284  1.1372
  971SOL     OW 2911   2.835   2.078   1.942 -0.4185  0.6599  0.0967
  971SOL    HW1 2912   2.823   2.176   1.981 -0.0211  3.1418  1.5941
  971SOL    HW2 2913   2.846   2.071   1.839  0.8018  0.5537 -1.4780
  972SOL     OW 2914   2.057   2.436   0.270 -0.2272  0.4412  0.7288
  972SOL    HW1 2915   2.022   2.354   0.222  0.4581 -1.4959 -1.5437
  972SOL    HW2 2916   2.084   2.410   0.366  1.6341 -1.3488 -1.1605
  973SOL     OW 2917   1.296   1.071   1.939  0.6135  0.2290 -0.5055
  973SOL    HW1 2918   1.211   1.031   1.888 -1.0306  0.1162 -0.9487
  973SOL    HW2 2919   1.296   1.179   1.932  2.8353 -2.4301 -0.9869
  974SOL     OW 2920   1.658   0.536   1.892  0.2195 -0.0712 -0.1193
  974SOL    HW1 2921   1.752   0.576   1.875  1.9025  3.2723  1.3723
  974SOL    HW2 2922   1.575   0.599   1.893 -1.0319 -1.3640  1.5617
  975SOL     OW 2923   2.403   3.064   3.085  0.2421 -0.4134  0.1224
  975SOL    HW1 2924   2.350   2.998   3.149  0.2317 -2.9238 -2.6031
  975SOL    HW2 2925   2.416   3.023   2.995  1.6351  0.2435  2.3437
  976SOL     OW 2926   1.924   2.894   2.320 -0.0139  0.0964 -0.1394
  976SOL    HW1 2927   1.835   2.849   2.298  1.0926  1.4702  0.7191
  976SOL    HW2 2928   1.979   2.844   2.400  1.9974 -0.1737 -2.3801
  977SOL     OW 2929   0.471   0.651   1.011 -0.4302 -0.5879  0.5225
  977SOL    HW1 2930   0.382   0.606   0.979  4.3891 -1.5416 -2.8525
  977SOL    HW2 2931   0.546   0.610   0.954  3.1349  1.0721  0.2583
   3.10000   3.10000   3.10000
