1000 SPC/Fw water molecules t=   0.53000 step= 530
 2931
    1SOL     OW    1   2.478   0.348   2.621  0.0577  0.0062 -0.1301
    1SOL    HW1    2   2.484   0.246   2.606  0.6237  1.4644  0.1439
    1SOL    HW2    3   2.495   0.380   2.717  0.0206  3.2518 -0.9723
    2SOL     OW    4   2.696   3.064   1.449 -0.2921  0.3053 -0.2899
    2SOL    HW1    5   2.724   3.105   1.359 -0.0188  0.9423  0.0931
    2SOL    HW2    6   2.708   3.136   1.525  0.3295 -0.7121  0.9781
    3SOL     OW    7   2.745   2.592   0.400  0.5451 -0.1012  0.0606
    3SOL    HW1    8   2.700   2.499   0.404 -3.0109  0.5002 -0.2280
    3SOL    HW2    9   2.804   2.609   0.485 -0.7114 -0.1866  2.2540
    4SOL     OW   10   1.311   1.482   2.361 -0.3222 -0.3893  0.2463
    4SOL    HW1   11   1.224   1.527   2.335  1.9779 -1.1103 -1.7002
    4SOL    HW2   12   1.301   1.390   2.400 -0.1108  0.5850 -4.1363
    5SOL     OW   13   1.188   1.508   3.044  0.0274  0.0375  0.2699
    5SOL    HW1   14   1.236   1.577   3.103  0.5017 -3.0565 -0.2966
    5SOL    HW2   15   1.082   1.509   3.057 -0.8291 -0.9028  2.9308
    6SOL     OW   16   0.077   1.821   2.912  0.5074  0.5891 -0.3876
    6SOL    HW1   17   0.008   1.866   2.975 -2.6437  1.0708 -0.1595
    6SOL    HW2   18   0.071   1.719   2.931  1.4589  1.0055  0.9350
    7SOL     OW   19   2.604   0.906   1.171  0.2146  0.0023  0.2808
    7SOL    HW1   20   2.514   0.874   1.202 -0.6854 -2.2297 -0.9726
    7SOL    HW2   21   2.611   0.924   1.067 -2.2691  0.5957 -1.4025
    8SOL     OW   22   0.446   0.599   1.510  0.0632 -0.1362 -0.0524
    8SOL    HW1   23   0.549   0.585   1.521 -0.1612  1.2215  0.7112
    8SOL    HW2   24   0.410   0.559   1.420  0.2513 -3.2701 -0.5726
    9SOL     OW   25   1.145   0.924   2.279 -0.2594 -0.1086  0.2249
    9SOL    HW1   26   1.229   0.964   2.233  2.3996  1.3151 -0.4925
    9SOL    HW2   27   1.074   0.896   2.208  1.4999  0.5256  0.7524
   10SOL     OW   28   0.698   1.333   1.260 -0.5416 -0.2374 -0.1564
   10SOL    HW1   29   0.623   1.381   1.209  0.0601  2.4182 -0.0753
   10SOL    HW2   30   0.758   1.410   1.307 -0.4534  2.8081  0.3048
   11SOL     OW   31   2.380   2.700   0.933  0.0730  0.1101  0.1490
   11SOL    HW1   32   2.365   2.696   1.035 -2.1675 -0.3768 -1.8244
   11SOL    HW2   33   2.470   2.732   0.903 -0.7914 -0.4008 -0.5167
   12SOL     OW   34   1.466   0.929   0.352  0.4443  0.3870 -0.4017
   12SOL    HW1   35   1.397   1.006   0.344 -0.3551 -0.1744  1.2799
   12SOL    HW2   36   1.463   0.861   0.274 -2.3693  0.8953 -0.3948
   13SOL     OW   37   2.546   0.673   1.820  0.1202  0.3184 -0.0402
   13SOL    HW1   38   2.457   0.660   1.869  1.0748  0.8088 -0.2290
   13SOL    HW2   39   2.526   0.659   1.719 -1.2167  1.9078 -0.1461
   14SOL     OW   40   1.978   0.070   0.722  0.3069  0.2361  0.6059
   14SOL    HW1   41   1.911   0.137   0.678 -1.5373  2.0641  0.4206
   14SOL    HW2   42   1.930  -0.016   0.756  1.3373 -2.3433 -0.6697
   15SOL     OW   43   1.943   2.018   2.817  0.1470  0.1193 -0.4976
   15SOL    HW1   44   1.908   2.111   2.831 -0.3147 -1.2282  0.9175
   15SOL    HW2   45   1.887   1.958   2.751 -0.1891 -0.4243 -2.1017
   16SOL     OW   46   1.604   1.720   3.039  0.2996 -0.3778 -0.6296
   16SOL    HW1   47   1.630   1.621   3.050  1.1453  0.2310 -2.6888
   16SOL    HW2   48   1.669   1.788   3.081 -0.0404 -0.1330 -2.2415
   17SOL     OW   49   0.101   0.498   0.148  0.0960  0.1181  0.2347
   17SOL    HW1   50   0.169   0.544   0.083 -0.6459  0.2883 -0.5128
   17SOL    HW2   51   0.007   0.501   0.113  0.7732 -1.5070  0.3859
   18SOL     OW   52   0.990   2.926   2.145  0.4121  0.1815 -0.9576
   18SOL    HW1   53   0.899   2.872   2.158  0.6304  1.3416  0.2884
   18SOL    HW2   54   1.043   2.896   2.064 -0.3551  1.2898 -0.7129
   19SOL     OW   55   0.542   0.834   1.918  0.1357 -0.1714 -0.3073
   19SOL    HW1   56   0.532   0.806   2.016  0.0678 -1.9580 -1.1330
   19SOL    HW2   57   0.636   0.818   1.878 -3.0311  1.0100  1.2050
   20SOL     OW   58   0.175   2.797   0.810  0.3314 -0.2815 -0.1121
   20SOL    HW1   59   0.121   2.861   0.743  0.0393  0.7849 -0.7912
   20SOL    HW2   60   0.271   2.775   0.769  0.9962  0.3500 -1.4532
   21SOL     OW   61   2.763   0.203   2.084  0.1095  0.1192 -0.5531
   21SOL    HW1   62   2.712   0.140   2.023 -0.7484  0.5882  2.5267
   21SOL    HW2   63   2.832   0.152   2.140 -3.0236 -0.9209 -1.7696
   22SOL     OW   64   2.332   0.238   0.073  0.7922  0.1590  0.3711
   22SOL    HW1   65   2.326   0.136   0.090  2.5550  2.9131 -0.1328
   22SOL    HW2   66   2.240   0.278   0.058 -1.4218 -1.2881  0.8231
   23SOL     OW   67   2.753   0.628   0.638 -0.1378 -0.1913 -0.5017
   23SOL    HW1   68   2.706   0.542   0.605 -2.1589  1.7217 -2.0173
   23SOL    HW2   69   2.758   0.700   0.562 -0.8661  2.2762 -3.0819
   24SOL     OW   70   0.125   1.913   0.387 -0.2692 -0.4464  0.0791
   24SOL    HW1   71   0.072   1.994   0.353  3.7802  3.1454 -1.2122
   24SOL    HW2   72   0.201   1.897   0.324 -3.0200 -0.3023 -2.5937
   25SOL     OW   73   2.233   0.520   0.202 -0.2415 -0.3042  0.0235
   25SOL    HW1   74   2.245   0.602   0.261 -3.3319  3.7031  0.4069
   25SOL    HW2   75   2.220   0.548   0.102  2.4665  2.1673  0.0042
   26SOL     OW   76   2.538   2.151   2.080  0.7911 -0.7989  0.0267
   26SOL    HW1   77   2.600   2.198   2.151  0.8378 -0.6800  0.6316
   26SOL    HW2   78   2.584   2.079   2.029  1.0059 -0.3443 -0.9359
   27SOL     OW   79   0.604   2.943   0.154 -0.3962 -0.3056  0.3122
   27SOL    HW1   80   0.703   2.973   0.168 -2.1141  0.9065  2.1469
   27SOL    HW2   81   0.559   2.983   0.071  1.6438 -0.1323  0.9694
   28SOL     OW   82   1.573   0.167   0.313 -0.4047 -0.0108  0.2079
   28SOL    HW1   83   1.618   0.165   0.215  3.0943  2.0766  1.1333
   28SOL    HW2   84   1.572   0.265   0.347 -1.6787 -0.6363  1.1028
   29SOL     OW   85   1.991   0.506   0.372 -1.0260 -0.2163 -0.2669
   29SOL    HW1   86   1.969   0.606   0.375  0.8143 -4.5139  1.5706
   29SOL    HW2   87   2.087   0.483   0.339  1.4379 -0.0634  1.4385
   30SOL     OW   88   0.187   2.053   0.933  0.7745 -0.3455 -0.4998
   30SOL    HW1   89   0.203   2.062   0.829  3.0657 -0.6367 -0.3273
   30SOL    HW2   90   0.091   2.088   0.958  4.4764  2.3497  2.1767
   31SOL     OW   91   2.116   3.085   2.312 -0.2543 -0.0903  0.5747
   31SOL    HW1   92   2.122   3.042   2.405 -0.9953 -1.5667 -2.2632
   31SOL    HW2   93   2.025   3.061   2.269 -0.3957  2.4784 -0.4167
   32SOL     OW   94   2.967   0.206   0.236  0.3950 -0.0326  0.3310
   32SOL    HW1   95   2.929   0.145   0.312 -1.0380  1.5702  2.9774
   32SOL    HW2   96   3.072   0.219   0.233 -1.7418  0.4240 -0.8311
   33SOL     OW   97   0.907   0.341   0.550 -0.0979 -0.0342  0.4289
   33SOL    HW1   98   0.885   0.248   0.524 -0.3220  2.0181  1.8621
   33SOL    HW2   99   0.994   0.358   0.608  1.1704  0.4288 -2.1204
   34SOL     OW  100   0.368   2.863   1.050 -0.4203  0.2862  1.0202
   34SOL    HW1  101   0.302   2.834   0.973 -0.1569  3.3888 -1.2779
   34SOL    HW2  102   0.466   2.832   1.040  0.6321  1.6885  1.4962
   35SOL     OW  103   0.028   0.196   1.864 -0.3611  0.5857 -0.1372
   35SOL    HW1  104   0.048   0.098   1.886 -0.3398 -0.4831 -1.0450
   35SOL    HW2  105  -0.045   0.205   1.794  0.4348  0.8245 -0.1167
   36SOL     OW  106   1.942   1.090   1.838 -0.1608  0.0151  0.6984
   36SOL    HW1  107   2.005   1.092   1.753 -1.4242  2.4122  0.7127
   36SOL    HW2  108   1.968   1.171   1.892 -2.1800 -3.7776 -2.3214
   37SOL     OW  109   1.206   0.175   0.942 -0.0060 -0.5480 -0.5624
   37SOL    HW1  110   1.244   0.237   1.022 -0.7231  0.2432  0.7593
   37SOL    HW2  111   1.283   0.125   0.890  0.4908 -1.2488  0.0525
   38SOL     OW  112   1.071   2.749   2.409  0.7234  0.4664  0.4389
   38SOL    HW1  113   1.000   2.672   2.432 -4.1456 -0.8078 -1.9935
   38SOL    HW2  114   1.037   2.840   2.443 -0.0558 -2.3133 -0.4027
   39SOL     OW  115   2.298   1.362   3.005 -0.3211  0.7006  0.1104
   39SOL    HW1  116   2.383   1.301   3.004  0.6174 -0.8408  1.0793
   39SOL    HW2  117   2.251   1.367   3.097  0.9257 -1.9105 -0.2402
   40SOL     OW  118   2.116   2.522   2.510 -1.0139  0.0977  0.1381
   40SOL    HW1  119   2.079   2.617   2.542  2.1362  2.1513  0.8387
   40SOL    HW2  120   2.041   2.458   2.480  1.9937 -2.9037 -0.8058
   41SOL     OW  121   2.951   0.688   2.743  0.0950 -0.5806 -0.0868
   41SOL    HW1  122   2.862   0.734   2.766 -3.2798  1.1595 -1.1959
   41SOL    HW2  123   2.935   0.585   2.718  3.1110 -2.5526 -3.3802
   42SOL     OW  124   1.739   1.769   0.567  0.3424 -0.4939  0.0420
   42SOL    HW1  125   1.699   1.682   0.529  0.7067 -0.3220  1.1033
   42SOL    HW2  126   1.804   1.808   0.494  2.1782 -1.4360  0.9205
   43SOL     OW  127   0.461   1.714   1.118 -0.2269 -0.4260 -0.6160
   43SOL    HW1  128   0.445   1.615   1.122  0.9438  0.0770  0.3300
   43SOL    HW2  129   0.379   1.779   1.126  0.6637 -0.0851  0.1834
   44SOL     OW  130   1.821   2.475   3.033  0.1898  0.3248 -0.0303
   44SOL    HW1  131   1.795   2.560   2.979  0.1017 -2.5431  4.1512
   44SOL    HW2  132   1.925   2.466   3.043 -0.9862 -0.3866  0.0234
   45SOL     OW  133   0.306   1.908   2.601 -0.0206  0.2872  0.3528
   45SOL    HW1  134   0.255   1.909   2.508 -0.8059  0.8768 -1.9183
   45SOL    HW2  135   0.388   1.840   2.602  1.9745 -0.7514 -1.9874
   46SOL     OW  136   1.216   0.658   0.160 -0.1366 -0.7404 -0.5360
   46SOL    HW1  137   1.248   0.747   0.113  0.1823  0.5484  1.7391
   46SOL    HW2  138   1.112   0.650   0.177 -2.1770 -1.0314  0.3231
   47SOL     OW  139   0.181   2.445   1.628 -0.1241  0.5915  0.1264
   47SOL    HW1  140   0.272   2.387   1.625 -0.7120 -1.7313  0.9505
   47SOL    HW2  141   0.154   2.487   1.540  0.4529 -1.4447 -1.9136
   48SOL     OW  142   2.619   0.596   0.149 -0.2523 -0.3564  0.2374
   48SOL    HW1  143   2.581   0.611   0.238 -1.2640 -1.1685 -4.6308
   48SOL    HW2  144   2.721   0.626   0.140 -0.8879 -0.6776 -2.0993
   49SOL     OW  145   0.364   0.779   1.700 -0.3652 -0.0407 -0.0330
   49SOL    HW1  146   0.435   0.805   1.769 -0.6827 -2.3636 -0.8914
   49SOL    HW2  147   0.394   0.700   1.641  2.1466 -0.5196 -0.0651
   50SOL     OW  148   1.660   1.135   0.304 -0.0555 -0.2815 -0.1135
   50SOL    HW1  149   1.623   1.045   0.274 -1.0570  1.4338  1.2687
   50SOL    HW2  150   1.623   1.157   0.403 -0.5107 -0.2750 -3.2445
   51SOL     OW  151   2.948   1.903   0.302 -0.7816 -0.5546  0.6535
   51SOL    HW1  152   2.890   1.830   0.257 -1.4568 -0.0856  0.0648
   51SOL    HW2  153   3.032   1.862   0.348  0.5448 -2.5386  0.7057
   52SOL     OW  154   0.818   1.927   0.471  0.5961 -0.2680 -0.6359
   52SOL    HW1  155   0.742   1.984   0.510  2.7006 -1.4218 -1.1851
   52SOL    HW2  156   0.831   1.835   0.523 -0.9478 -1.7378 -0.2406
   53SOL     OW  157   3.097   0.356   1.555 -0.4195  0.3811  0.3876
   53SOL    HW1  158   3.074   0.404   1.647  2.5733 -1.2961 -0.7808
   53SOL    HW2  159   3.073   0.414   1.469  0.5056  0.9056 -1.4305
   54SOL     OW  160   1.762   0.447   3.078  0.2484  0.1061  0.0908
   54SOL    HW1  161   1.791   0.386   3.158  0.9627  1.4971 -2.1229
   54SOL    HW2  162   1.663   0.468   3.073  0.4158 -1.3589 -1.8636
   55SOL     OW  163   0.751   2.920   0.611 -0.2090 -0.6713  0.7842
   55SOL    HW1  164   0.709   3.005   0.650  1.2073  1.0349 -0.4150
   55SOL    HW2  165   0.819   2.952   0.537 -1.0186  1.0924 -0.4901
   56SOL     OW  166   0.443   1.574   3.037 -0.4256 -0.1946  0.2509
   56SOL    HW1  167   0.353   1.623   3.080 -5.1032 -0.9334  1.7712
   56SOL    HW2  168   0.416   1.502   2.970  0.4663  1.9226  1.6536
   57SOL     OW  169   1.808   2.510   2.664  0.0123  0.3704  0.3566
   57SOL    HW1  170   1.833   2.468   2.570  0.1309 -1.5661 -0.3714
   57SOL    HW2  171   1.709   2.537   2.662  1.2447 -0.5025  0.6299
   58SOL     OW  172   0.657   0.392   1.079 -0.3694 -0.2647 -0.6836
   58SOL    HW1  173   0.607   0.473   1.045  4.8239  1.4522 -0.3434
   58SOL    HW2  174   0.607   0.303   1.065 -1.0118 -1.9641 -1.2493
   59SOL     OW  175   0.408   2.351   2.761  0.1815  0.3940 -0.1001
   59SOL    HW1  176   0.412   2.246   2.748  1.1256 -1.2295  1.1907
   59SOL    HW2  177   0.501   2.391   2.782 -1.0372 -0.7399 -0.8486
   60SOL     OW  178   2.333   2.082   2.241  0.1153 -0.1609 -0.3612
   60SOL    HW1  179   2.409   2.110   2.175 -1.7337 -0.1517 -0.0509
   60SOL    HW2  180   2.337   2.111   2.339  1.5656  0.0896 -0.9919
   61SOL     OW  181   1.301   0.606   0.518 -0.6262 -0.6865  0.2144
   61SOL    HW1  182   1.228   0.659   0.562  0.9877 -1.6451  1.3121
   61SOL    HW2  183   1.323   0.629   0.422  0.2105  1.4827  1.0961
   62SOL     OW  184   2.660   1.787   2.959 -0.3382 -0.3563 -0.3527
   62SOL    HW1  185   2.663   1.694   3.004  1.2792  0.6431 -2.2388
   62SOL    HW2  186   2.729   1.791   2.882  3.7946 -1.4841 -0.8582
   63SOL     OW  187   0.569   0.898   0.154  0.5254  0.5127  0.2882
   63SOL    HW1  188   0.523   0.991   0.136 -0.6626  0.2533 -2.0249
   63SOL    HW2  189   0.652   0.917   0.217 -0.2524  2.9651  0.6710
   64SOL     OW  190   0.057   0.559   2.544  0.0231  0.6278 -0.0749
   64SOL    HW1  191   0.129   0.547   2.623 -0.9155  3.6461  0.4180
   64SOL    HW2  192   0.059   0.655   2.505  1.1657  0.2224  2.4020
   65SOL     OW  193   0.193   1.484   0.572  0.0511  0.0105 -0.7501
   65SOL    HW1  194   0.247   1.536   0.634 -1.0989 -1.0112 -1.1498
   65SOL    HW2  195   0.234   1.456   0.482  0.6306  0.4593 -0.7844
   66SOL     OW  196   2.509   0.445   0.617 -0.0614 -0.4619 -0.0055
   66SOL    HW1  197   2.461   0.496   0.694  2.3910 -1.2949 -1.9380
   66SOL    HW2  198   2.507   0.343   0.628 -3.6572 -0.3239 -0.0998
   67SOL     OW  199   0.530   2.495   1.410  0.5835  0.5241 -0.6332
   67SOL    HW1  200   0.583   2.491   1.500  0.4838 -2.2702 -0.0249
   67SOL    HW2  201   0.496   2.401   1.376  1.9588  1.5430 -2.5255
   68SOL     OW  202   1.008   1.104   2.459  0.2246 -0.0772 -0.0837
   68SOL    HW1  203   1.056   1.031   2.405  3.3042 -0.5512  1.1668
   68SOL    HW2  204   0.935   1.157   2.407  0.5865  2.6215  0.9207
   69SOL     OW  205   0.757   2.772   2.167  0.8003 -0.2889  0.2130
   69SOL    HW1  206   0.806   2.689   2.161  1.5692  0.8987  1.1822
   69SOL    HW2  207   0.653   2.759   2.181  0.1240  0.0219 -0.0514
   70SOL     OW  208   0.646   0.285   2.704 -0.0960 -0.2102  0.0021
   70SOL    HW1  209   0.632   0.351   2.777 -0.3036 -1.9925  1.9283
   70SOL    HW2  210   0.585   0.207   2.719  1.5790 -0.8534  0.5674
   71SOL     OW  211   1.070   1.782   0.334 -0.6944  0.1120 -0.1059
   71SOL    HW1  212   1.008   1.707   0.370 -0.6561 -3.2203  2.6667
   71SOL    HW2  213   1.085   1.786   0.232  0.0926 -0.6875  1.1038
   72SOL     OW  214   1.769   0.129   2.025 -0.0782  0.6348 -0.1322
   72SOL    HW1  215   1.833   0.133   1.945 -2.1592 -1.0602  1.4127
   72SOL    HW2  216   1.808   0.059   2.097  1.8927 -0.0632 -0.7029
   73SOL     OW  217   2.768   2.159   2.506  0.2559 -0.2084 -0.4056
   73SOL    HW1  218   2.721   2.065   2.502  2.2332  1.7610  0.1079
   73SOL    HW2  219   2.825   2.178   2.586  3.1813  0.2312  0.3511
   74SOL     OW  220   2.710   2.948   2.016  0.0028  0.0554  0.4786
   74SOL    HW1  221   2.653   2.953   2.106  0.3264  1.9566  1.0156
   74SOL    HW2  222   2.817   2.942   2.035 -0.4908 -2.7369  1.8718
   75SOL     OW  223   0.959   0.768   1.022  0.3573 -0.0910  0.0428
   75SOL    HW1  224   0.865   0.768   0.982 -1.1113 -0.5266  0.6432
   75SOL    HW2  225   0.964   0.820   1.119  2.6092 -0.8399  2.9855
   76SOL     OW  226   1.732   1.249   2.558 -0.5282  0.0097 -0.3516
   76SOL    HW1  227   1.642   1.218   2.591  1.4876 -0.3638 -0.1295
   76SOL    HW2  228   1.758   1.343   2.606  1.7916  0.7442 -0.0964
   77SOL     OW  229   2.919   0.963   0.978  0.4069 -0.2719  0.0302
   77SOL    HW1  230   2.872   0.873   0.958  1.0211  2.7480 -0.1463
   77SOL    HW2  231   2.968   0.973   1.069 -1.0430 -3.2737 -0.5719
   78SOL     OW  232   2.061   1.406   1.530  0.3749 -0.3180 -0.1926
   78SOL    HW1  233   2.118   1.482   1.494 -1.1732  0.9287 -2.5484
   78SOL    HW2  234   2.013   1.347   1.462 -1.0008 -0.7077  0.5860
   79SOL     OW  235   0.627   1.317   0.843  0.2692 -0.3758  0.2803
   79SOL    HW1  236   0.539   1.371   0.858  1.0210  0.8042 -1.2295
   79SOL    HW2  237   0.645   1.300   0.742 -0.6444 -1.0604  3.8842
   80SOL     OW  238   0.681   0.470   1.607 -0.1111  0.0144  0.2275
   80SOL    HW1  239   0.759   0.518   1.556  2.4111  0.5188  1.6118
   80SOL    HW2  240   0.699   0.366   1.609  2.0660 -2.4078 -0.5287
   81SOL     OW  241   1.056   1.358   2.591  0.1770  0.3315 -0.1620
   81SOL    HW1  242   1.103   1.270   2.571 -3.1054  3.1682  3.0133
   81SOL    HW2  243   0.968   1.368   2.540 -1.1707 -1.6288  1.7293
   82SOL     OW  244   0.963   2.952   1.503 -0.6612 -0.3123 -0.2350
   82SOL    HW1  245   0.999   2.990   1.416 -0.6806  1.7253  3.4112
   82SOL    HW2  246   0.878   2.897   1.493 -0.5968  1.8130  1.0878
   83SOL     OW  247   2.687   2.480   0.850  0.5279 -0.1069  0.3502
   83SOL    HW1  248   2.615   2.415   0.813 -0.8141 -2.0535 -1.1927
   83SOL    HW2  249   2.669   2.582   0.825  1.8187  0.9454 -2.0105
   84SOL     OW  250   0.720   3.086   2.330 -0.2230  0.3661 -0.2089
   84SOL    HW1  251   0.638   3.049   2.385  1.3883 -1.8380 -3.3570
   84SOL    HW2  252   0.807   3.034   2.335 -0.4364 -0.2523 -0.4671
   85SOL     OW  253   0.392   1.611   1.559 -0.7000 -0.2894 -0.3197
   85SOL    HW1  254   0.343   1.701   1.538  0.6178 -1.5526 -1.9237
   85SOL    HW2  255   0.410   1.615   1.661 -2.0254  1.4765 -2.2438
   86SOL     OW  256   0.350   0.967   1.500  0.4199 -0.0667  0.2639
   86SOL    HW1  257   0.315   0.932   1.407 -0.2819 -0.3485 -0.4779
   86SOL    HW2  258   0.344   0.896   1.575 -0.0310 -1.6037  1.1544
   87SOL     OW  259   1.531   0.664   0.215  0.4447 -0.3693 -0.9237
   87SOL    HW1  260   1.618   0.723   0.222  3.1428  1.8249  1.2514
   87SOL    HW2  261   1.514   0.615   0.123  1.9000 -2.7533 -0.8277
   88SOL     OW  262   1.554   1.367   0.239  0.5134  0.6806  0.3952
   88SOL    HW1  263   1.593   1.277   0.268 -2.2816 -1.0517  0.4747
   88SOL    HW2  264   1.454   1.366   0.239  2.1384 -2.1953 -1.0835
   89SOL     OW  265   0.024   0.415   0.605  0.0138 -0.0404  0.0058
   89SOL    HW1  266   0.094   0.341   0.591  0.4606 -2.3154 -0.2996
   89SOL    HW2  267  -0.066   0.395   0.556 -0.2896 -0.4475  0.8231
   90SOL     OW  268   0.923   1.555   3.055 -0.1736 -0.3149  0.7226
   90SOL    HW1  269   0.835   1.560   3.116 -0.6344 -0.0614  0.1458
   90SOL    HW2  270   0.906   1.603   2.965  0.1665 -1.0006  1.9479
   91SOL     OW  271   1.277   1.436   1.832 -0.0014 -0.7913 -0.2349
   91SOL    HW1  272   1.251   1.531   1.868 -0.4378  0.2199 -2.1487
   91SOL    HW2  273   1.371   1.430   1.780 -0.3439 -0.1217 -2.2417
   92SOL     OW  274   3.045   1.003   1.207  0.0659 -0.2476 -0.1815
   92SOL    HW1  275   3.107   1.079   1.177  1.0259 -0.8615 -0.2648
   92SOL    HW2  276   3.055   0.995   1.312 -1.9556  0.0481 -1.6973
   93SOL     OW  277   3.091   2.734   0.040 -0.2863 -0.4919 -0.4598
   93SOL    HW1  278   3.038   2.741  -0.047 -1.5999  1.6735  2.2584
   93SOL    HW2  279   3.149   2.650   0.048  0.8297  1.1220  2.3588
   94SOL     OW  280   1.550   1.463   1.693  0.2256  0.6869 -0.2576
   94SOL    HW1  281   1.601   1.380   1.652 -1.4604 -3.1385  0.7704
   94SOL    HW2  282   1.594   1.511   1.774 -0.5317  0.6608 -0.3023
   95SOL     OW  283   1.324   2.528   3.004  0.3204  0.1783  0.1694
   95SOL    HW1  284   1.279   2.513   3.096  2.8205 -0.7930  0.7640
   95SOL    HW2  285   1.336   2.436   2.959  1.4970  3.1979  2.0184
   96SOL     OW  286   0.544   2.015   1.283 -0.3649  0.2773  0.7322
   96SOL    HW1  287   0.516   2.041   1.189 -2.1349 -3.1042  1.6200
   96SOL    HW2  288   0.556   1.913   1.286  1.0381  0.7004 -2.6111
   97SOL     OW  289   0.373   1.578   2.464  0.4537  0.3006 -0.6219
   97SOL    HW1  290   0.280   1.588   2.513  1.5076 -0.0126 -0.5000
   97SOL    HW2  291   0.451   1.626   2.511  1.0826  0.6604 -1.5540
   98SOL     OW  292   1.945   1.591   1.267  0.1875  0.0525 -0.2220
   98SOL    HW1  293   1.901   1.530   1.337 -0.4846 -0.6790  0.2658
   98SOL    HW2  294   1.970   1.539   1.178  2.4257  2.6046  1.8833
   99SOL     OW  295   2.470   2.103   1.373  0.3734  0.3297 -0.5690
   99SOL    HW1  296   2.474   2.135   1.471 -2.3155 -0.1587 -0.2628
   99SOL    HW2  297   2.454   1.999   1.359 -2.8421  0.0448 -1.3619
  100SOL     OW  298   2.305   0.393   2.079 -0.2553 -0.1458  0.4512
  100SOL    HW1  299   2.249   0.344   2.149 -1.6209 -1.4060  2.1031
  100SOL    HW2  300   2.400   0.403   2.111 -1.2343 -0.1910  0.9216
  101SOL     OW  301   0.385   1.484   0.250 -0.4179 -0.0314 -0.3376
  101SOL    HW1  302   0.438   1.522   0.328 -0.1058 -0.7158 -0.1750
  101SOL    HW2  303   0.401   1.538   0.165  0.5369  1.5137  0.7405
  102SOL     OW  304   2.324   1.028   0.831  0.1714 -0.2023  0.0843
  102SOL    HW1  305   2.229   0.998   0.811 -1.8095  0.9033  1.4820
  102SOL    HW2  306   2.350   1.114   0.773  1.0884 -0.9273  0.9363
  103SOL     OW  307   2.286   0.011   0.407 -0.6475 -0.5337  0.0253
  103SOL    HW1  308   2.319   0.106   0.377  0.8597 -3.2437  0.7357
  103SOL    HW2  309   2.357  -0.039   0.464  2.0201  0.1610 -2.0858
  104SOL     OW  310   0.085   1.750   2.201 -0.1730 -0.3433  0.2310
  104SOL    HW1  311   0.137   1.723   2.123  3.3869 -0.3550  2.6660
  104SOL    HW2  312  -0.016   1.750   2.181 -0.6154  1.5709 -0.1464
  105SOL     OW  313   1.240   2.046   0.816  0.7262  0.8380 -0.2390
  105SOL    HW1  314   1.180   2.053   0.730 -0.1195  2.3579  1.0964
  105SOL    HW2  315   1.314   1.973   0.807 -0.5083 -0.0120 -1.9595
  106SOL     OW  316   2.142   0.552   1.366  0.1057 -0.1385  0.1083
  106SOL    HW1  317   2.091   0.463   1.380  1.4778  1.2806  1.3894
  106SOL    HW2  318   2.084   0.638   1.359 -0.4168 -0.8326 -0.4328
  107SOL     OW  319   1.766   3.006   1.093 -0.8020  0.3523 -0.1975
  107SOL    HW1  320   1.820   3.075   1.149  1.1816  1.3695  0.7800
  107SOL    HW2  321   1.693   2.959   1.149  1.5560 -1.3138  0.1305
  108SOL     OW  322   0.821   2.754   1.233 -0.1807  0.4378 -0.1396
  108SOL    HW1  323   0.790   2.758   1.330  0.2069  0.0204  0.2645
  108SOL    HW2  324   0.920   2.779   1.223  1.0643 -2.3633  0.1658
  109SOL     OW  325   2.220   0.151   0.798  0.0718  0.1290 -0.3460
  109SOL    HW1  326   2.138   0.115   0.748  0.5097  0.8734 -0.8953
  109SOL    HW2  327   2.216   0.136   0.900  0.3672  0.4069 -0.4502
  110SOL     OW  328   0.434   2.800   2.716  0.1240  0.4538  0.4121
  110SOL    HW1  329   0.427   2.846   2.621 -0.4684 -0.2268 -0.4844
  110SOL    HW2  330   0.528   2.757   2.735  2.2599  0.0137  1.6016
  111SOL     OW  331   1.321   0.535   2.280 -0.5237 -0.2250  0.2888
  111SOL    HW1  332   1.248   0.583   2.337 -2.5553  3.2237 -1.8271
  111SOL    HW2  333   1.375   0.461   2.330  0.0900  2.4213  1.8742
  112SOL     OW  334   1.749   0.517   1.476  0.3480 -0.3279  0.0148
  112SOL    HW1  335   1.733   0.500   1.377 -0.5621  0.6505  1.7413
  112SOL    HW2  336   1.706   0.439   1.533 -0.2303  0.1729 -0.2549
  113SOL     OW  337   2.266   1.622   1.758  0.0893  0.2181  0.0693
  113SOL    HW1  338   2.301   1.523   1.735  0.3897 -0.1981 -1.4988
  113SOL    HW2  339   2.314   1.671   1.835 -0.6342  0.7560  1.1468
  114SOL     OW  340   0.349   0.531   1.272  0.6504  0.1708 -0.1309
  114SOL    HW1  341   0.313   0.629   1.248  0.5785  0.5764 -1.2048
  114SOL    HW2  342   0.306   0.457   1.209 -1.9235 -1.0831 -1.6668
  115SOL     OW  343   2.699   1.634   1.269  1.4441  0.0130  0.0262
  115SOL    HW1  344   2.726   1.537   1.288 -2.7417 -1.0343 -1.8057
  115SOL    HW2  345   2.721   1.662   1.171  0.9502  0.2005 -1.1418
  116SOL     OW  346   1.792   1.016   0.712  0.3318 -0.4933 -0.1720
  116SOL    HW1  347   1.715   0.966   0.661  1.3528  1.9580 -1.3725
  116SOL    HW2  348   1.768   1.098   0.768 -0.8851 -2.6335  1.0997
  117SOL     OW  349   1.147   0.386   0.686  0.2066  0.7471  0.0739
  117SOL    HW1  350   1.164   0.380   0.785  1.5482  0.6709 -0.0861
  117SOL    HW2  351   1.211   0.456   0.640 -1.6095  0.4724 -1.9766
  118SOL     OW  352   1.104   1.150   1.077 -0.2421 -0.2477 -0.3315
  118SOL    HW1  353   1.082   1.063   1.118 -1.7240  4.0481  0.8134
  118SOL    HW2  354   1.123   1.225   1.152  1.3168  0.3524  2.5766
  119SOL     OW  355   1.849   1.603   2.120 -0.3012  0.2548 -0.3374
  119SOL    HW1  356   1.826   1.702   2.133  2.8992 -1.4399  0.5970
  119SOL    HW2  357   1.959   1.591   2.126  4.7015  2.1112  3.0253
  120SOL     OW  358   2.961   2.838   0.262 -0.0188  0.2860 -1.1005
  120SOL    HW1  359   3.006   2.802   0.171  0.9375  0.0413  1.1629
  120SOL    HW2  360   2.917   2.758   0.308  0.1229 -2.0972  0.5772
  121SOL     OW  361   1.997   0.755   2.294  0.7810  0.0577  0.3788
  121SOL    HW1  362   1.985   0.806   2.202 -2.0446 -0.0625  0.1574
  121SOL    HW2  363   2.012   0.655   2.286  0.8962  2.2049  0.2461
  122SOL     OW  364   2.672   2.662   1.263 -1.2054 -0.3406 -0.6493
  122SOL    HW1  365   2.715   2.573   1.237 -1.6312 -1.0939 -0.8230
  122SOL    HW2  366   2.576   2.672   1.212 -2.6596  1.6137 -3.9162
  123SOL     OW  367   1.729   0.065   1.688  0.0480  0.1003 -0.4079
  123SOL    HW1  368   1.760  -0.025   1.633  0.5021 -3.9624  1.3814
  123SOL    HW2  369   1.811   0.111   1.733  1.6582 -0.8683 -0.5402
  124SOL     OW  370   0.120   0.428   1.098 -0.0862 -0.4172  0.5772
  124SOL    HW1  371   0.123   0.513   1.161  0.2883 -3.6079 -0.5537
  124SOL    HW2  372   0.081   0.454   1.002  1.2120 -3.3995 -2.1352
  125SOL     OW  373   0.858   1.705   0.672 -0.4045  0.7499  0.5311
  125SOL    HW1  374   0.959   1.706   0.646 -3.2634 -2.0691 -1.5250
  125SOL    HW2  375   0.839   1.678   0.772 -0.1140  1.8726  1.3312
  126SOL     OW  376   1.913   2.361   2.426  0.4378  0.3956  0.4095
  126SOL    HW1  377   1.963   2.304   2.351  1.0060  0.3356  0.3179
  126SOL    HW2  378   1.844   2.303   2.479 -1.2271  0.3720 -1.1519
  127SOL     OW  379   0.814   0.913   0.297  0.2084 -0.4926  0.4318
  127SOL    HW1  380   0.883   0.968   0.353  2.8578 -1.4919 -1.2042
  127SOL    HW2  381   0.841   0.811   0.285  2.0859 -1.3845  2.6746
  128SOL     OW  382   0.943   0.195   1.355  0.2375 -0.2923  0.2592
  128SOL    HW1  383   0.935   0.289   1.317  0.3717 -0.8894  1.0803
  128SOL    HW2  384   0.854   0.150   1.346 -0.4140 -0.1794  0.6534
  129SOL     OW  385   1.847   0.683   1.868 -0.8463  0.2411  0.5386
  129SOL    HW1  386   1.888   0.706   1.772  3.8480  1.8210 -2.6930
  129SOL    HW2  387   1.872   0.761   1.930  0.5295 -0.6172 -2.3342
  130SOL     OW  388   1.336   2.227   1.018  0.1669 -0.0104  0.4539
  130SOL    HW1  389   1.306   2.175   0.937 -0.8560  0.8668  2.0169
  130SOL    HW2  390   1.406   2.300   0.997 -0.3743  1.1401  1.1675
  131SOL     OW  391   0.007   1.490   1.406 -0.2026 -0.8700 -0.0094
  131SOL    HW1  392  -0.049   1.401   1.399 -1.9602  0.3494 -0.3273
  131SOL    HW2  393   0.109   1.485   1.400 -1.8943 -0.3664 -1.5744
  132SOL     OW  394   2.007   2.412   0.506  0.1337  0.4268  0.2618
  132SOL    HW1  395   1.922   2.367   0.462 -0.6239  2.5537 -2.5240
  132SOL    HW2  396   2.037   2.369   0.592  2.1454  0.1963 -0.8040
  133SOL     OW  397   1.885   2.276   2.857 -0.2384 -0.0826 -1.2158
  133SOL    HW1  398   1.843   2.299   2.947 -0.1020 -3.1167 -0.5740
  133SOL    HW2  399   1.883   2.354   2.787 -1.3105 -0.1940  0.3501
  134SOL     OW  400   2.711   2.349   1.629  0.0583  0.1178 -0.3118
  134SOL    HW1  401   2.656   2.336   1.715 -1.3929  0.0374 -1.5202
  134SOL    HW2  402   2.760   2.440   1.620  0.5744 -0.3296 -2.8722
  135SOL     OW  403   0.717   1.525   2.637 -0.0711 -0.4532  0.1718
  135SOL    HW1  404   0.687   1.434   2.689 -0.8730 -4.7684  0.5766
  135SOL    HW2  405   0.759   1.506   2.539 -1.7150 -3.0485  3.0760
  136SOL     OW  406   1.212   2.017   0.426 -0.7456 -0.7902  0.5051
  136SOL    HW1  407   1.156   2.052   0.509 -0.0246 -1.2209  0.6522
  136SOL    HW2  408   1.162   1.937   0.386  1.9492  0.5714  1.2405
  137SOL     OW  409   0.381   1.134   2.111 -0.8673  0.2286  0.4482
  137SOL    HW1  410   0.299   1.118   2.168 -0.4744 -2.1935 -1.2370
  137SOL    HW2  411   0.460   1.071   2.134  0.2513  2.4951 -0.7524
  138SOL     OW  412   2.435   1.490   0.230 -0.5771 -0.3237  0.4531
  138SOL    HW1  413   2.337   1.483   0.196  1.4678 -4.1828  1.0015
  138SOL    HW2  414   2.456   1.417   0.302  3.0289  2.1078  1.7384
  139SOL     OW  415   1.803   2.667   1.259  0.1439  0.0763  0.2402
  139SOL    HW1  416   1.711   2.645   1.227  2.6736  3.5678  1.3651
  139SOL    HW2  417   1.845   2.585   1.306 -1.4083  1.5722  2.7234
  140SOL     OW  418   3.026   2.970   2.624 -0.3648 -0.4085 -0.0014
  140SOL    HW1  419   3.050   2.882   2.580 -1.7333  0.6687 -0.5546
  140SOL    HW2  420   3.111   3.029   2.630  0.0437 -0.1939  2.9401
  141SOL     OW  421   1.246   1.710   1.609  0.8118  0.1319  0.0379
  141SOL    HW1  422   1.163   1.765   1.643  0.3599 -2.2134 -0.7662
  141SOL    HW2  423   1.273   1.633   1.672 -0.3103  0.8628 -1.6176
  142SOL     OW  424   1.587   0.606   2.181  0.0829  0.0555  0.0293
  142SOL    HW1  425   1.583   0.619   2.075 -0.8301  0.4826 -1.4504
  142SOL    HW2  426   1.493   0.582   2.219 -0.5999 -0.7654  2.8880
  143SOL     OW  427   2.743   0.881   0.500 -0.0116  0.1153 -0.1133
  143SOL    HW1  428   2.750   0.940   0.415 -1.9063 -1.9223 -1.1301
  143SOL    HW2  429   2.802   0.924   0.574  0.0651 -2.1975 -2.2321
  144SOL     OW  430   2.951   1.263   1.431 -0.6069  0.0496  0.3075
  144SOL    HW1  431   2.918   1.200   1.508 -0.8099 -0.0646  0.3787
  144SOL    HW2  432   3.018   1.209   1.371  0.4837 -1.5056  1.7239
  145SOL     OW  433   1.017   1.836   0.043 -0.1140  0.6733  0.2243
  145SOL    HW1  434   1.037   1.920  -0.018  0.9715  0.9678 -0.8236
  145SOL    HW2  435   1.006   1.748  -0.007  2.2846 -0.9943  2.8169
  146SOL     OW  436   2.446   0.669   1.530  0.1842 -0.2095 -0.4244
  146SOL    HW1  437   2.422   0.582   1.473  0.1374 -0.0616  0.1035
  146SOL    HW2  438   2.367   0.732   1.531  4.9464  0.5455  1.8271
  147SOL     OW  439   1.106   2.451   0.580  0.5215 -0.1612 -0.0858
  147SOL    HW1  440   1.084   2.511   0.499 -1.5477  2.4234 -0.2751
  147SOL    HW2  441   1.201   2.401   0.570  1.9976 -2.1771 -0.9542
  148SOL     OW  442   1.641   1.453   3.082 -0.1152 -0.1686 -0.1096
  148SOL    HW1  443   1.646   1.362   3.036  0.5197  2.5552 -3.0304
  148SOL    HW2  444   1.591   1.450   3.172 -1.9530  1.1162  0.2216
  149SOL     OW  445   0.715   1.419   1.907  0.0403 -0.2660 -0.0256
  149SOL    HW1  446   0.626   1.396   1.959  2.2618  0.6586 -0.1312
  149SOL    HW2  447   0.748   1.343   1.845  0.3435  0.5532  1.9360
  150SOL     OW  448   3.022   1.242   0.929  0.3208  0.0639  0.4806
  150SOL    HW1  449   3.096   1.268   0.996  0.8424  1.5111  0.8449
  150SOL    HW2  450   2.982   1.150   0.956  0.6874  1.5284  2.0535
  151SOL     OW  451   0.175   0.770   2.123  0.3404  0.3190  0.2056
  151SOL    HW1  452   0.164   0.840   2.045 -1.1735  1.7252 -1.6298
  151SOL    HW2  453   0.239   0.696   2.087  1.0748 -2.8746 -0.1768
  152SOL     OW  454   1.361   1.737   1.280 -0.2656  0.6686  0.0590
  152SOL    HW1  455   1.365   1.828   1.333 -0.6223  3.8332 -0.2407
  152SOL    HW2  456   1.270   1.730   1.226 -0.3491 -0.2027  1.7261
  153SOL     OW  457   0.049   1.540   0.184  0.1424  0.8282  0.0800
  153SOL    HW1  458   0.051   1.438   0.174  1.7123 -0.1621 -1.9821
  153SOL    HW2  459   0.022   1.577   0.276  1.9673 -0.8773  0.1298
  154SOL     OW  460   2.365   1.870   2.834 -0.2207 -0.2374 -0.0037
  154SOL    HW1  461   2.386   1.767   2.834  0.3898  0.9549 -1.0075
  154SOL    HW2  462   2.450   1.931   2.834 -1.4123 -1.2044  0.8101
  155SOL     OW  463   2.464   1.234   0.359 -1.0111 -0.2014  0.2365
  155SOL    HW1  464   2.558   1.243   0.312  2.1416 -0.7734  0.1767
  155SOL    HW2  465   2.396   1.185   0.302 -0.9334 -1.5969 -0.0071
  156SOL     OW  466   2.579   0.946   0.901 -0.3049  0.2426 -0.0201
  156SOL    HW1  467   2.483   0.979   0.897  0.8776 -1.6093 -2.6173
  156SOL    HW2  468   2.638   1.014   0.846 -0.3083  1.2429  1.2903
  157SOL     OW  469   1.213   2.979   3.004  0.4344  0.1196  0.7668
  157SOL    HW1  470   1.261   2.932   2.923  0.3606  1.3053 -1.8215
  157SOL    HW2  471   1.246   3.078   3.021  2.7614  0.0607 -0.0365
  158SOL     OW  472   0.996   1.874   1.987 -0.1557 -0.3028  0.5183
  158SOL    HW1  473   1.069   1.934   2.028  1.2624 -1.3007  0.0675
  158SOL    HW2  474   0.910   1.892   2.042  2.6781 -0.8867 -0.7237
  159SOL     OW  475   0.843   0.449   1.292  0.1467  0.3253 -0.7089
  159SOL    HW1  476   0.827   0.549   1.321 -2.0095 -0.8242  0.1820
  159SOL    HW2  477   0.770   0.419   1.226  2.6324 -1.8331  1.5694
  160SOL     OW  478   1.434   2.430   1.679 -0.0071 -0.5914  0.4261
  160SOL    HW1  479   1.476   2.514   1.629  1.4649 -0.2475 -0.1596
  160SOL    HW2  480   1.483   2.337   1.673 -0.6596 -1.3953 -0.0806
  161SOL     OW  481   0.145   2.894   0.317 -0.6411  0.0060  0.0233
  161SOL    HW1  482   0.048   2.883   0.338 -3.2355 -0.4394  2.3547
  161SOL    HW2  483   0.164   2.973   0.246  2.8355  1.7228 -1.3503
  162SOL     OW  484   2.585   1.915   0.453 -0.1683 -0.0479 -0.6282
  162SOL    HW1  485   2.605   1.877   0.359 -1.5830  3.4544  0.7327
  162SOL    HW2  486   2.580   1.849   0.530 -0.3336  2.6050  2.1448
  163SOL     OW  487   1.982   2.676   0.757 -0.8194  1.0677  0.5115
  163SOL    HW1  488   1.953   2.686   0.658 -1.3634 -0.0078 -0.1160
  163SOL    HW2  489   2.068   2.613   0.768  1.5449  1.4009  1.4877
  164SOL     OW  490   3.041   0.244   1.232  0.2292 -0.5477 -1.0063
  164SOL    HW1  491   3.124   0.304   1.202  1.1868 -0.6920 -0.6830
  164SOL    HW2  492   3.074   0.147   1.264 -0.9501 -1.6454 -1.2469
  165SOL     OW  493   0.938   1.438   0.661 -0.5820  0.0980  0.2721
  165SOL    HW1  494   0.908   1.469   0.754 -1.7344 -0.2855 -0.7020
  165SOL    HW2  495   0.918   1.506   0.589  1.3146 -0.6730 -1.7233
  166SOL     OW  496   1.476   1.091   1.715 -0.2978  0.3636  0.0614
  166SOL    HW1  497   1.397   1.043   1.774 -1.6760 -2.5405 -1.0985
  166SOL    HW2  498   1.549   1.139   1.776 -0.2308 -0.7748  0.3599
  167SOL     OW  499   0.784   1.906   1.503 -0.5217 -0.3337 -0.3408
  167SOL    HW1  500   0.744   1.967   1.575  1.2301 -0.3584 -2.3349
  167SOL    HW2  501   0.738   1.813   1.496 -0.7389 -1.4054  0.8819
  168SOL     OW  502   1.623   2.383   0.136  0.5286  0.3475 -0.1712
  168SOL    HW1  503   1.703   2.424   0.088 -1.5812 -0.2486  0.2021
  168SOL    HW2  504   1.656   2.321   0.211  4.5261 -1.5414 -3.0152
  169SOL     OW  505   0.235   2.608   2.220 -0.2662 -0.5777  0.2782
  169SOL    HW1  506   0.302   2.555   2.159  0.4851  2.7658  0.3242
  169SOL    HW2  507   0.202   2.547   2.301  2.5542  0.0777  1.2760
  170SOL     OW  508   1.244   0.296   1.940 -0.0157 -0.0518  0.4001
  170SOL    HW1  509   1.286   0.247   2.020  0.1155 -0.6876 -0.0185
  170SOL    HW2  510   1.215   0.227   1.865  1.9314  1.1575 -2.0907
  171SOL     OW  511   0.211   0.825   2.389  0.2211  0.3972 -0.5799
  171SOL    HW1  512   0.118   0.830   2.437 -0.4747  1.4637  0.9172
  171SOL    HW2  513   0.202   0.787   2.294  0.7752 -0.4977 -1.8518
  172SOL     OW  514   0.895   1.110   2.960  0.8068  0.0495 -0.7455
  172SOL    HW1  515   0.982   1.168   2.977 -0.6927  1.1197  1.7588
  172SOL    HW2  516   0.870   1.105   2.857  0.7432  2.6895  0.8595
  173SOL     OW  517   0.671   2.669   0.089  0.2479 -0.0774 -0.8451
  173SOL    HW1  518   0.641   2.771   0.071  0.8697 -0.3494 -0.1487
  173SOL    HW2  519   0.589   2.608   0.102  1.9304  2.5351 -2.0791
  174SOL     OW  520   1.394   2.829   1.069  0.1160  0.7480 -0.3285
  174SOL    HW1  521   1.359   2.917   1.025 -0.6955 -1.9873 -1.3253
  174SOL    HW2  522   1.362   2.749   1.013  0.5409  0.7324  0.6492
  175SOL     OW  523   0.419   0.059   1.633 -0.5953  0.2452  0.0910
  175SOL    HW1  524   0.462   0.091   1.723 -0.3241  2.4457 -1.2512
  175SOL    HW2  525   0.340   0.125   1.602 -1.6393 -0.4416 -1.1013
  176SOL     OW  526   2.538   0.394   3.093  0.3603 -0.0939  0.1102
  176SOL    HW1  527   2.567   0.471   3.156  3.9145 -0.9340  0.1210
  176SOL    HW2  528   2.451   0.332   3.112 -2.7750 -3.5405  1.0439
  177SOL     OW  529   0.353   0.289   0.932  0.0537  0.0958  0.1531
  177SOL    HW1  530   0.406   0.218   0.986 -4.6634  0.9410  0.8153
  177SOL    HW2  531   0.262   0.309   0.981  1.9194 -1.4611 -0.9420
  178SOL     OW  532   0.029   2.708   2.619 -0.1914 -0.5853  0.2066
  178SOL    HW1  533  -0.032   2.630   2.648 -0.9906  0.7975 -1.2813
  178SOL    HW2  534   0.098   2.729   2.699 -0.2842  2.0954  1.1603
  179SOL     OW  535   0.016   1.701   1.180  0.2923  0.1088  0.1205
  179SOL    HW1  536  -0.040   1.779   1.205  4.4769 -3.4050 -2.6075
  179SOL    HW2  537   0.011   1.619   1.244 -3.6519  0.3811 -0.2532
  180SOL     OW  538   0.224   1.214   1.853 -0.9339  0.0910  0.2017
  180SOL    HW1  539   0.328   1.216   1.843  1.5339 -1.4895  2.0065
  180SOL    HW2  540   0.193   1.281   1.928  0.7909 -1.3498 -2.9270
  181SOL     OW  541   3.035   1.858   2.546 -0.2936 -0.2344 -0.1362
  181SOL    HW1  542   3.125   1.885   2.510 -1.8283  0.1383 -1.2772
  181SOL    HW2  543   2.942   1.883   2.493 -7.2395 -0.2904  0.4853
  182SOL     OW  544   2.292   1.287   1.162 -0.4025  0.0926 -0.0263
  182SOL    HW1  545   2.211   1.245   1.119 -1.2428  2.0003  0.3349
  182SOL    HW2  546   2.323   1.372   1.112 -1.5406 -0.0685 -0.0159
  183SOL     OW  547   1.512   2.275   2.507 -0.1509 -0.1781  0.2965
  183SOL    HW1  548   1.435   2.209   2.522 -0.9332  0.0155  0.4081
  183SOL    HW2  549   1.607   2.230   2.482  4.4913 -3.5624  1.3459
  184SOL     OW  550   2.045   0.940   0.832  0.0926 -0.1703 -0.4235
  184SOL    HW1  551   1.963   0.990   0.798  0.0500  1.1098  0.4715
  184SOL    HW2  552   2.017   0.843   0.859 -0.0316 -0.3480 -0.6512
  185SOL     OW  553   1.577   2.697   2.074 -0.0714  0.6790 -0.0122
  185SOL    HW1  554   1.552   2.795   2.052 -2.6800 -0.6105 -0.0790
  185SOL    HW2  555   1.535   2.657   2.163 -2.2426  0.1479  1.7785
  186SOL     OW  556   0.078   2.202   1.718  0.6592 -1.0458 -0.5585
  186SOL    HW1  557   0.094   2.281   1.650 -2.8282  1.9691  0.5530
  186SOL    HW2  558   0.159   2.140   1.731 -0.0156  2.6543  1.6239
  187SOL     OW  559   1.381   0.703   1.681 -0.0856 -0.2033 -0.1022
  187SOL    HW1  560   1.422   0.763   1.604  0.0589  0.5640 -1.2084
  187SOL    HW2  561   1.426   0.701   1.773  1.0858  0.5721  0.2261
  188SOL     OW  562   2.797   2.780   1.465 -0.0120  0.6774  0.1394
  188SOL    HW1  563   2.787   2.884   1.467  1.1125  0.9771 -0.8636
  188SOL    HW2  564   2.738   2.746   1.386  0.8148  3.0708 -1.7784
  189SOL     OW  565   0.853   1.047   1.381  0.6078  0.7787 -0.0267
  189SOL    HW1  566   0.909   1.119   1.429  0.5926 -2.5207  1.0385
  189SOL    HW2  567   0.796   1.088   1.302 -1.4157 -0.5208 -1.0503
  190SOL     OW  568   1.535   1.878   1.560  0.4222 -0.0796  0.2032
  190SOL    HW1  569   1.434   1.851   1.569 -0.7217  1.3783 -0.2313
  190SOL    HW2  570   1.568   1.911   1.651 -0.4529 -0.4209 -1.3721
  191SOL     OW  571   0.971   0.746   1.561  0.2534  0.2938 -0.1732
  191SOL    HW1  572   1.000   0.648   1.578  1.0213  1.4518  0.1485
  191SOL    HW2  573   1.048   0.815   1.558 -0.0283 -0.3732 -0.6234
  192SOL     OW  574   1.848   2.278   1.122 -0.0802 -0.8056  0.2632
  192SOL    HW1  575   1.792   2.239   1.047 -1.0971 -1.0256 -1.5316
  192SOL    HW2  576   1.934   2.327   1.089 -0.4279 -2.8668 -1.3995
  193SOL     OW  577   0.509   0.614   0.398  0.1614  0.3036  0.0889
  193SOL    HW1  578   0.478   0.537   0.457 -0.8208 -1.4972 -0.1284
  193SOL    HW2  579   0.559   0.576   0.313 -1.3882 -0.9011 -0.5655
  194SOL     OW  580   0.290   0.848   1.253 -0.4866 -0.5402 -0.0385
  194SOL    HW1  581   0.202   0.795   1.232  1.1300 -0.7030 -1.3533
  194SOL    HW2  582   0.313   0.919   1.180 -0.5419  0.7118 -0.0625
  195SOL     OW  583   0.991   2.924   0.438  0.6710 -0.5456  0.3984
  195SOL    HW1  584   0.986   2.823   0.419 -0.4145  2.5729 -0.9989
  195SOL    HW2  585   1.080   2.968   0.442 -4.4203 -0.5008  0.2182
  196SOL     OW  586   0.279   1.405   1.407 -0.3448  0.1315 -0.1602
  196SOL    HW1  587   0.321   1.484   1.459 -2.6716  1.8132  0.8207
  196SOL    HW2  588   0.261   1.322   1.468  1.6557 -1.6730  1.2848
  197SOL     OW  589   0.915   2.049   0.229 -0.8651  0.1176  0.0139
  197SOL    HW1  590   0.880   2.012   0.318  2.1213 -0.5055  0.1241
  197SOL    HW2  591   0.962   1.974   0.175 -0.6703 -0.7064 -0.1462
  198SOL     OW  592   0.268   1.250   0.282  0.4045 -0.0646 -0.0400
  198SOL    HW1  593   0.170   1.249   0.242 -0.6116 -2.9974 -2.5625
  198SOL    HW2  594   0.320   1.334   0.268 -0.6114 -1.3699  1.1229
  199SOL     OW  595   2.219   0.390   2.519  0.2090  0.0046  0.5709
  199SOL    HW1  596   2.153   0.339   2.580 -0.7258 -1.3816  1.7658
  199SOL    HW2  597   2.311   0.400   2.568 -3.0758  0.0187 -0.7911
  200SOL     OW  598   3.102   2.966   0.670 -0.0129 -0.0811 -0.2549
  200SOL    HW1  599   3.014   2.946   0.617  1.4599 -2.5932 -1.8362
  200SOL    HW2  600   3.110   3.066   0.692  2.7650  0.8026 -0.1650
  201SOL     OW  601   1.104   0.725   0.642 -0.1140 -0.2890  0.0005
  201SOL    HW1  602   1.130   0.774   0.732 -1.8066 -1.3063  0.5488
  201SOL    HW2  603   1.001   0.706   0.626  0.1524  2.0815 -0.1444
  202SOL     OW  604   0.502   1.243   1.788 -0.0622 -0.1413  1.0801
  202SOL    HW1  605   0.569   1.255   1.706  3.4535 -1.2061  0.9851
  202SOL    HW2  606   0.531   1.180   1.863 -0.6475  1.4408 -0.8232
  203SOL     OW  607   0.738   0.212   1.594  0.0892 -0.0362 -0.5873
  203SOL    HW1  608   0.730   0.133   1.523 -0.9128  0.0767 -0.4851
  203SOL    HW2  609   0.778   0.192   1.687 -1.0211 -2.5473  0.7671
  204SOL     OW  610   2.104   1.843   3.001  0.0589  0.1762 -0.1955
  204SOL    HW1  611   2.102   1.740   3.006 -0.2426  0.3458  0.3846
  204SOL    HW2  612   2.083   1.876   2.910  0.2793  6.1741  1.3560
  205SOL     OW  613   1.842   1.873   0.032 -0.4137  0.4056  0.1211
  205SOL    HW1  614   1.926   1.830  -0.019  2.6082  0.4463  0.9684
  205SOL    HW2  615   1.818   1.964  -0.006 -0.7463 -0.7242  0.5165
  206SOL     OW  616   2.526   2.774   0.340 -0.8605 -0.2410 -0.3889
  206SOL    HW1  617   2.602   2.703   0.352  1.2855 -0.8275  0.3328
  206SOL    HW2  618   2.562   2.855   0.275  2.0521  0.2223 -1.1641
  207SOL     OW  619   0.574   1.785   2.914 -0.4201  0.1462 -0.3018
  207SOL    HW1  620   0.672   1.752   2.889  0.9287  3.0118  2.3803
  207SOL    HW2  621   0.516   1.709   2.962 -2.4050  0.9870  0.7954
  208SOL     OW  622   1.093   1.543   1.420  0.6062 -0.2682 -0.3762
  208SOL    HW1  623   0.998   1.575   1.385 -0.0358  1.8141 -4.2379
  208SOL    HW2  624   1.151   1.617   1.462  1.3305  2.1839  1.2193
  209SOL     OW  625   0.283   0.948   2.997 -0.2499  0.0096 -0.0901
  209SOL    HW1  626   0.320   0.896   2.915 -1.1007  1.6986 -0.5979
  209SOL    HW2  627   0.269   0.892   3.083  1.3463  0.0935  0.6513
  210SOL     OW  628   1.723   0.482   1.185  0.3856  0.0963  0.2530
  210SOL    HW1  629   1.678   0.559   1.127 -0.9813 -1.4197 -0.9602
  210SOL    HW2  630   1.823   0.479   1.166  1.1371 -0.3344  0.0648
  211SOL     OW  631   2.101   1.076   1.615 -0.3226 -0.0471 -0.2881
  211SOL    HW1  632   2.157   0.989   1.642 -0.1619 -1.5878  0.0800
  211SOL    HW2  633   2.159   1.136   1.555 -1.6547 -0.9508  1.7123
  212SOL     OW  634   0.017   0.997   1.467  0.2894  0.1769 -0.3823
  212SOL    HW1  635   0.097   1.067   1.463  2.3888 -2.4150  2.1772
  212SOL    HW2  636   0.040   0.910   1.521  0.4112 -2.0962 -2.5582
  213SOL     OW  637   2.754   0.373   0.260  0.2571  0.5965 -0.7096
  213SOL    HW1  638   2.846   0.323   0.234 -0.5563  0.9942  2.6788
  213SOL    HW2  639   2.721   0.440   0.191  1.4509 -3.3700  2.4572
  214SOL     OW  640   2.178   0.270   2.284 -0.2497 -0.4445 -0.6971
  214SOL    HW1  641   2.184   0.323   2.376 -2.3285 -2.6446 -0.0680
  214SOL    HW2  642   2.141   0.175   2.300 -2.7252  0.1226 -1.0884
  215SOL     OW  643   1.652   2.286   2.020 -0.6722 -0.7948  0.0431
  215SOL    HW1  644   1.749   2.322   2.030  0.4699 -0.1025 -0.1248
  215SOL    HW2  645   1.582   2.353   2.072 -0.7243  1.1629  1.8767
  216SOL     OW  646   2.213   0.542   0.698  0.3949 -0.2072 -0.1457
  216SOL    HW1  647   2.205   0.446   0.661  0.8621 -1.0947 -0.8822
  216SOL    HW2  648   2.178   0.612   0.625 -3.1999  1.8386  2.2342
  217SOL     OW  649   0.734   2.780   2.477  0.0221  0.0997  0.9454
  217SOL    HW1  650   0.713   2.680   2.503 -2.5164  2.0880 -1.0131
  217SOL    HW2  651   0.737   2.797   2.375  0.5994 -2.6032  2.3495
  218SOL     OW  652   1.913   1.405   0.064  0.1663  0.6105 -0.2745
  218SOL    HW1  653   1.817   1.430   0.038  0.1291 -1.1435  0.9715
  218SOL    HW2  654   1.922   1.353   0.150 -1.5417  0.2675  0.2999
  219SOL     OW  655   2.346   1.287   2.546 -0.2302  0.6405  0.8872
  219SOL    HW1  656   2.386   1.237   2.459  1.7555  1.7259 -0.3634
  219SOL    HW2  657   2.370   1.236   2.632  1.4163 -0.8507 -0.4460
  220SOL     OW  658   1.533   1.000   1.219  0.1187 -0.4979 -0.0076
  220SOL    HW1  659   1.623   1.036   1.253  0.0925 -1.1676  3.0298
  220SOL    HW2  660   1.489   1.044   1.139 -0.5679 -2.7316 -0.1208
  221SOL     OW  661   1.374   1.098   2.200  0.2828 -0.6320 -0.2924
  221SOL    HW1  662   1.303   1.131   2.136  0.2333 -1.2637  2.6731
  221SOL    HW2  663   1.469   1.080   2.160 -0.0421 -0.8928 -0.9019
  222SOL     OW  664   1.245   0.030   1.234  0.1092 -0.4256 -0.4593
  222SOL    HW1  665   1.283   0.102   1.298  0.8070  0.0202  0.2759
  222SOL    HW2  666   1.242   0.066   1.139 -2.9904  1.3704  0.3815
  223SOL     OW  667   2.864   0.864   2.037 -0.4643  0.1821  0.2198
  223SOL    HW1  668   2.865   0.899   2.135 -2.4588 -1.3386  0.6515
  223SOL    HW2  669   2.899   0.928   1.960 -3.0287  1.4457  0.7570
  224SOL     OW  670   1.492   0.952   2.751 -0.0759 -0.1890 -0.5091
  224SOL    HW1  671   1.530   0.895   2.672  2.1937 -1.0605 -3.2891
  224SOL    HW2  672   1.483   1.057   2.732  1.6309  1.9837  1.0112
  225SOL     OW  673   2.968   2.766   2.884 -0.5762  0.3325  0.3995
  225SOL    HW1  674   2.974   2.682   2.817 -1.0334 -1.0745 -1.2155
  225SOL    HW2  675   3.010   2.854   2.844  1.6408  3.1462  0.7009
  226SOL     OW  676   2.425   1.590   2.842 -0.1617  0.0912 -0.1654
  226SOL    HW1  677   2.464   1.561   2.750 -2.7839 -0.6610 -0.1352
  226SOL    HW2  678   2.374   1.512   2.893 -0.7383  0.5103 -0.2994
  227SOL     OW  679   0.894   0.122   3.031 -0.4409  0.4614  0.2371
  227SOL    HW1  680   0.951   0.055   3.083  1.3387  0.2513  3.1560
  227SOL    HW2  681   0.898   0.112   2.927  3.2308 -3.2152 -1.8554
  228SOL     OW  682   2.370   0.631   2.842 -0.3788 -0.0423  0.4211
  228SOL    HW1  683   2.301   0.621   2.767  0.2790  1.7722 -1.0229
  228SOL    HW2  684   2.462   0.579   2.827  1.7641 -1.7273  1.5165
  229SOL     OW  685   0.564   0.529   1.882  0.6339  0.0388  0.0679
  229SOL    HW1  686   0.512   0.469   1.815 -4.4323 -1.3604  2.6704
  229SOL    HW2  687   0.624   0.593   1.825  1.1058  2.6299  1.6736
  230SOL     OW  688   1.919   1.208   2.157  0.4261 -0.8480  0.1799
  230SOL    HW1  689   1.988   1.258   2.098 -0.1726 -1.0970 -1.0324
  230SOL    HW2  690   1.829   1.263   2.156 -2.0655  2.9786 -2.5741
  231SOL     OW  691   0.636   0.982   3.002 -0.0493  0.2152 -0.3355
  231SOL    HW1  692   0.717   1.044   2.981  2.0209 -0.3864  1.3586
  231SOL    HW2  693   0.611   0.971   3.099  1.4146 -0.3801 -0.9453
  232SOL     OW  694   2.451   0.013   2.749 -0.2415  0.7500 -0.2284
  232SOL    HW1  695   2.486  -0.082   2.781 -1.1310 -0.9009 -2.7408
  232SOL    HW2  696   2.498   0.051   2.664  0.2497  1.9372  1.9987
  233SOL     OW  697   1.693   1.300   1.099 -0.1413  0.1451 -0.1563
  233SOL    HW1  698   1.663   1.315   1.001  0.4147  1.5886  1.4563
  233SOL    HW2  699   1.790   1.259   1.106  3.2850 -0.9899  1.0723
  234SOL     OW  700   1.631   2.557   1.846 -0.6564  0.3783 -0.1504
  234SOL    HW1  701   1.628   2.584   1.944 -1.2427  0.7046 -1.1655
  234SOL    HW2  702   1.548   2.499   1.822  2.5977 -1.8406 -1.8348
  235SOL     OW  703   0.024   3.027   2.904 -0.4629  0.2532  0.3609
  235SOL    HW1  704   0.097   3.095   2.879  1.1041 -2.7787 -3.0187
  235SOL    HW2  705  -0.022   3.034   2.997  0.2175  0.8992 -0.6467
  236SOL     OW  706   2.867   0.686   0.136  0.4736  0.0981  0.4034
  236SOL    HW1  707   2.950   0.730   0.174  3.5693 -0.8382 -0.5675
  236SOL    HW2  708   2.882   0.619   0.058 -2.5863 -1.1492 -1.7162
  237SOL     OW  709   1.476   1.635   1.032 -1.0204  0.1509  0.3778
  237SOL    HW1  710   1.572   1.589   1.015 -0.9019 -0.7388  0.4900
  237SOL    HW2  711   1.468   1.695   1.114 -3.4233  1.8890 -2.3118
  238SOL     OW  712   1.763   1.293   0.810  0.1458 -0.0317  0.4723
  238SOL    HW1  713   1.864   1.302   0.776 -0.4763  0.0752  0.1758
  238SOL    HW2  714   1.695   1.359   0.766  3.8881 -0.5213 -0.2017
  239SOL     OW  715   2.036   0.277   2.693 -0.0094 -0.1198  0.7594
  239SOL    HW1  716   2.086   0.262   2.785 -0.5094 -0.9593 -0.1191
  239SOL    HW2  717   1.939   0.320   2.707 -0.0443 -1.6737  0.9024
  240SOL     OW  718   0.934   0.680   0.267  1.1501  0.0470  0.0201
  240SOL    HW1  719   0.925   0.581   0.238 -2.5187  2.5038  0.2061
  240SOL    HW2  720   0.941   0.673   0.371  0.7933 -0.9883  3.2750
  241SOL     OW  721   0.584   0.101   0.315 -0.1146 -0.0760 -0.1026
  241SOL    HW1  722   0.619   0.119   0.215 -0.3607  0.6751 -2.9371
  241SOL    HW2  723   0.555   0.008   0.341  0.6198  4.2151  2.6175
  242SOL     OW  724   0.655   2.482   1.142  0.2725  0.1944 -0.1223
  242SOL    HW1  725   0.642   2.518   1.241 -1.1489  2.7810 -0.9356
  242SOL    HW2  726   0.751   2.489   1.113  1.3967 -0.0739 -0.6095
  243SOL     OW  727   1.125   0.626   2.436  0.2597 -0.5873 -0.1256
  243SOL    HW1  728   1.082   0.712   2.387 -1.1437  2.1484 -1.6681
  243SOL    HW2  729   1.056   0.560   2.479 -2.7171 -0.2339  2.0687
  244SOL     OW  730   2.805   1.857   2.390  0.3134 -0.0253 -0.0313
  244SOL    HW1  731   2.859   1.828   2.309 -2.4611 -0.8492 -0.1138
  244SOL    HW2  732   2.716   1.799   2.396 -0.4652  1.6761 -0.8502
  245SOL     OW  733   2.499   0.690   2.163  0.3167 -0.3847  0.9013
  245SOL    HW1  734   2.505   0.768   2.230  0.1320 -0.1929 -1.1214
  245SOL    HW2  735   2.573   0.619   2.168  3.4785 -1.5499 -2.2702
  246SOL     OW  736   0.290   2.923   1.691 -0.5417  0.8289  0.1065
  246SOL    HW1  737   0.221   2.899   1.619 -0.9051 -0.4784 -1.1636
  246SOL    HW2  738   0.338   3.012   1.675 -1.3172 -0.2308 -0.1654
  247SOL     OW  739   2.220   0.574   3.048  0.1789 -0.5556  0.0595
  247SOL    HW1  740   2.307   0.582   2.987  0.1118  0.4954  1.2648
  247SOL    HW2  741   2.155   0.648   3.039  0.3112 -2.5489  0.2309
  248SOL     OW  742   2.139   1.834   1.616 -0.3968 -0.6250 -0.2449
  248SOL    HW1  743   2.189   1.757   1.662 -1.2636 -3.1590 -1.8293
  248SOL    HW2  744   2.055   1.852   1.673  1.9329 -0.2612  0.6669
  249SOL     OW  745   1.945   1.983   1.959  0.2622 -0.5999 -0.1747
  249SOL    HW1  746   1.923   1.933   1.872  1.2073 -0.6055  0.7017
  249SOL    HW2  747   2.043   2.009   1.966  0.7236 -3.0755  1.6725
  250SOL     OW  748   1.091   0.737   1.860  0.5169  0.2501 -0.0693
  250SOL    HW1  749   1.128   0.660   1.922  2.6920  0.3808 -1.9007
  250SOL    HW2  750   1.083   0.698   1.764  1.0274 -2.3430  0.6708
  251SOL     OW  751   3.043   1.569   2.540 -0.2153 -0.4517  0.0971
  251SOL    HW1  752   3.043   1.671   2.540 -2.1362  0.3586 -1.6935
  251SOL    HW2  753   2.953   1.525   2.570 -2.0863  0.4487 -2.3278
  252SOL     OW  754   1.527   0.895   1.499  0.3544 -0.3926 -0.3424
  252SOL    HW1  755   1.517   0.918   1.398 -0.3592  1.8562  0.1550
  252SOL    HW2  756   1.531   0.972   1.561  0.7828 -0.5996  0.2439
  253SOL     OW  757   0.927   1.550   0.387 -0.3055 -0.1728  0.1976
  253SOL    HW1  758   0.988   1.472   0.367 -0.9818 -1.0043 -0.9066
  253SOL    HW2  759   0.819   1.534   0.376 -2.2603 -1.4667 -1.0261
  254SOL     OW  760   2.080   2.173   1.599  0.3150 -0.3958 -0.2014
  254SOL    HW1  761   2.069   2.107   1.517  0.3602 -0.8765 -2.4829
  254SOL    HW2  762   1.995   2.188   1.654  1.0984  0.3481  0.3544
  255SOL     OW  763   0.131   1.155   2.925 -0.4294  0.3768 -0.0893
  255SOL    HW1  764   0.194   1.240   2.915 -1.1734 -2.8525  1.7129
  255SOL    HW2  765   0.183   1.070   2.953 -2.8769 -0.2983  0.3907
  256SOL     OW  766   2.810   1.364   1.841 -0.2028 -0.1944 -0.4454
  256SOL    HW1  767   2.739   1.436   1.831  0.5975  0.8478  0.3805
  256SOL    HW2  768   2.768   1.273   1.875 -0.3377 -0.7304  3.0196
  257SOL     OW  769   0.901   0.149   1.841 -0.1314 -0.4066 -0.5094
  257SOL    HW1  770   0.955   0.226   1.787  1.8181  1.4893 -2.6787
  257SOL    HW2  771   0.916   0.053   1.801  0.7340 -0.1085 -2.1507
  258SOL     OW  772   2.979   1.286   0.443 -0.2043 -0.2423 -0.1143
  258SOL    HW1  773   2.958   1.385   0.423 -2.5878  1.8595  1.4515
  258SOL    HW2  774   3.013   1.279   0.546 -0.8670  1.0535 -0.3522
  259SOL     OW  775   0.466   2.945   3.000  0.5670  0.4325  0.1245
  259SOL    HW1  776   0.419   2.891   3.071  0.0371 -1.3111  0.3068
  259SOL    HW2  777   0.424   2.926   2.906 -0.4235  1.2116  1.3189
  260SOL     OW  778   2.705   0.854   2.736  0.1675 -0.1533 -0.1870
  260SOL    HW1  779   2.614   0.838   2.688  0.9213 -1.8354 -1.6556
  260SOL    HW2  780   2.687   0.900   2.826 -0.9077 -1.8456 -0.3120
  261SOL     OW  781   2.723   1.378   1.314 -0.0735 -0.2212  0.1507
  261SOL    HW1  782   2.671   1.307   1.257 -2.2251  2.6772  1.0226
  261SOL    HW2  783   2.808   1.336   1.364  0.2616  0.3024 -0.3076
  262SOL     OW  784   1.435   2.942   1.982  0.1728  0.5636  0.5762
  262SOL    HW1  785   1.428   3.037   1.935 -2.0704  3.2873  1.9911
  262SOL    HW2  786   1.345   2.892   1.987  0.6621  1.1988 -1.3067
  263SOL     OW  787   0.859   0.749   2.320  0.1660 -0.7892  0.8348
  263SOL    HW1  788   0.827   0.652   2.303 -1.8656 -1.0364  2.4081
  263SOL    HW2  789   0.899   0.793   2.236  0.1080  0.0508 -0.7636
  264SOL     OW  790   2.251   0.722   0.401 -0.2510  1.1699 -0.2860
  264SOL    HW1  791   2.155   0.739   0.433  1.2774 -3.8617 -2.2328
  264SOL    HW2  792   2.317   0.795   0.426 -1.6452 -2.1555 -3.8211
  265SOL     OW  793   0.906   2.285   2.653 -0.0836  0.1115 -0.5331
  265SOL    HW1  794   0.974   2.322   2.726 -0.9178  0.0019 -0.3548
  265SOL    HW2  795   0.855   2.205   2.686  1.5854  0.1263 -3.8124
  266SOL     OW  796   1.331   1.733   0.033 -0.1618  0.5924 -0.1679
  266SOL    HW1  797   1.325   1.823   0.080 -1.6201  1.0085 -0.9925
  266SOL    HW2  798   1.424   1.710  -0.001 -1.2069 -0.7122 -1.3810
  267SOL     OW  799   1.039   3.058   2.379 -0.0839 -0.0381 -0.3139
  267SOL    HW1  800   1.064   3.015   2.288 -2.8449 -0.0181  0.0829
  267SOL    HW2  801   0.988   3.150   2.372  0.6996  2.4721 -0.1259
  268SOL     OW  802   0.667   1.148   1.072 -0.2739 -0.4372  0.2742
  268SOL    HW1  803   0.689   1.211   1.157 -2.8138  0.1423  0.2962
  268SOL    HW2  804   0.668   1.206   0.984  1.8437  1.5412 -0.6787
  269SOL     OW  805   2.428   2.440   1.563 -0.2386  0.5102 -0.6509
  269SOL    HW1  806   2.528   2.422   1.555 -0.4729  1.3443  2.3339
  269SOL    HW2  807   2.398   2.428   1.659  0.0388  2.4186 -0.8643
  270SOL     OW  808   0.145   3.045   1.922 -0.1688  0.2992 -0.4955
  270SOL    HW1  809   0.223   3.042   1.855 -1.1196  1.7763 -0.9795
  270SOL    HW2  810   0.072   2.974   1.904 -1.1340  1.0006  0.0270
  271SOL     OW  811   0.463   1.443   1.163  0.4883  0.3820 -0.5988
  271SOL    HW1  812   0.407   1.387   1.098  0.8112  0.9079 -1.1350
  271SOL    HW2  813   0.411   1.448   1.254  0.5776 -2.0711 -2.2404
  272SOL     OW  814   1.968   2.915   1.926  0.1906 -0.5075 -0.2438
  272SOL    HW1  815   1.891   2.860   1.885  3.7747 -0.2068  0.4402
  272SOL    HW2  816   2.016   2.978   1.863  3.2610 -0.4855  2.8542
  273SOL     OW  817   1.383   1.424   2.838 -0.0078 -0.0472 -0.0542
  273SOL    HW1  818   1.326   1.506   2.799 -1.2561  0.2814  0.5804
  273SOL    HW2  819   1.377   1.420   2.944 -1.5402  0.9722  1.4386
  274SOL     OW  820   1.154   0.547   2.058  0.1364 -0.1532 -0.0453
  274SOL    HW1  821   1.175   0.459   2.016  1.1305 -2.1814  1.6786
  274SOL    HW2  822   1.223   0.568   2.134  0.5642 -0.6340 -1.7205
  275SOL     OW  823   0.614   2.075   1.941 -0.4927 -0.3005 -0.5862
  275SOL    HW1  824   0.584   2.173   1.951  0.1517  0.2969 -1.8901
  275SOL    HW2  825   0.539   2.010   1.912  0.2838  3.4599  1.9765
  276SOL     OW  826   2.184   0.899   2.762  0.2442 -0.4498  0.8699
  276SOL    HW1  827   2.095   0.888   2.703  0.5240  3.3784 -0.7117
  276SOL    HW2  828   2.180   0.850   2.850 -0.2485  0.9706 -0.3494
  277SOL     OW  829   3.072   0.879   0.226 -0.1893  0.0636  0.2454
  277SOL    HW1  830   3.136   0.945   0.176  0.0679 -0.1514 -1.1193
  277SOL    HW2  831   3.126   0.804   0.277  1.1585  1.4976 -2.3911
  278SOL     OW  832   0.228   0.299   2.997  0.5341 -0.3861  0.6691
  278SOL    HW1  833   0.299   0.235   3.032  0.7376  1.1789 -0.3653
  278SOL    HW2  834   0.259   0.393   3.000 -2.6888  0.9179 -1.1427
  279SOL     OW  835   0.137   0.069   0.883 -0.6691 -0.0107  0.2863
  279SOL    HW1  836   0.155   0.052   0.984  1.1452  1.6092  1.0384
  279SOL    HW2  837   0.222   0.070   0.826 -0.4718 -2.4343  2.3799
  280SOL     OW  838   1.644   2.881   2.556 -0.1259  0.2425  0.1570
  280SOL    HW1  839   1.716   2.951   2.535  1.5917  0.0789  2.0460
  280SOL    HW2  840   1.550   2.928   2.559 -2.5111  0.4601  0.4894
  281SOL     OW  841   0.570   0.968   2.286  0.0350 -0.2531  0.1171
  281SOL    HW1  842   0.585   0.866   2.256 -0.8537 -0.6823 -0.3913
  281SOL    HW2  843   0.522   0.979   2.381 -0.7998  0.5673  1.5253
  282SOL     OW  844   1.690   2.376   0.504 -0.1380  0.0953  0.1089
  282SOL    HW1  845   1.639   2.337   0.425  0.3838 -0.5947  1.3816
  282SOL    HW2  846   1.682   2.481   0.492  1.6936 -0.8781  1.1735
  283SOL     OW  847   1.182   0.944   0.838 -0.4954  0.2123 -0.2707
  283SOL    HW1  848   1.218   0.869   0.902 -1.3752 -1.3480 -0.5266
  283SOL    HW2  849   1.114   1.000   0.884 -0.0470  0.1998  1.0745
  284SOL     OW  850   2.369   2.791   2.303 -0.2110  0.0762 -0.0229
  284SOL    HW1  851   2.434   2.860   2.259 -0.5508  0.5278  3.3058
  284SOL    HW2  852   2.404   2.761   2.390 -0.2435 -2.0626 -1.0132
  285SOL     OW  853   1.368   2.970   2.524  1.3026  0.1377  0.3085
  285SOL    HW1  854   1.411   2.959   2.428 -0.5465  0.6670  0.7460
  285SOL    HW2  855   1.288   3.034   2.528 -0.7004  1.1134  0.7652
  286SOL     OW  856   0.446   0.418   0.721 -0.2844  0.3085  0.4329
  286SOL    HW1  857   0.393   0.368   0.797  0.4262 -0.3092 -1.9278
  286SOL    HW2  858   0.446   0.365   0.631  1.3853 -0.8186  2.6110
  287SOL     OW  859   0.144   1.287   2.540 -0.0971 -0.0133  0.2028
  287SOL    HW1  860   0.107   1.227   2.619  1.1761  0.4355 -0.4055
  287SOL    HW2  861   0.103   1.378   2.538  2.5649  0.1162  0.8684
  288SOL     OW  862   1.536   2.669   1.548 -0.5576 -0.3322  0.2609
  288SOL    HW1  863   1.627   2.692   1.576 -0.9314 -2.8834  1.4271
  288SOL    HW2  864   1.506   2.697   1.453  1.8591 -0.6354  3.3659
  289SOL     OW  865   0.687   2.692   0.815 -0.2553 -0.1847  0.3826
  289SOL    HW1  866   0.723   2.752   0.740  0.7553  0.1633 -0.7204
  289SOL    HW2  867   0.680   2.743   0.906  1.4962  0.5257 -2.4858
  290SOL     OW  868   2.840   1.077   1.617  0.0003  0.0684  0.4208
  290SOL    HW1  869   2.764   1.134   1.651 -0.6618 -3.5300 -1.3137
  290SOL    HW2  870   2.909   1.049   1.687 -0.6600 -0.8907  1.1604
  291SOL     OW  871   1.966   0.056   0.077 -0.2369  0.0570 -0.6508
  291SOL    HW1  872   1.979   0.052   0.180  1.0042 -0.3181 -2.3544
  291SOL    HW2  873   2.006   0.140   0.031  0.8574  1.6854  2.3111
  292SOL     OW  874   2.978   1.171   3.042 -0.4064 -0.0324  0.7310
  292SOL    HW1  875   2.920   1.238   2.988  0.4993 -1.2806 -1.5584
  292SOL    HW2  876   3.074   1.161   2.995  0.6853  2.2093 -1.3591
  293SOL     OW  877   0.596   2.131   0.137 -0.6193 -0.1356  0.1277
  293SOL    HW1  878   0.576   2.170   0.228 -1.9823 -0.5296 -1.9344
  293SOL    HW2  879   0.685   2.076   0.134  0.6756 -1.6816  1.7611
  294SOL     OW  880   1.689   2.219   1.745  0.2388  0.5178  0.0333
  294SOL    HW1  881   1.672   2.267   1.836 -2.2679  1.0541  0.9751
  294SOL    HW2  882   1.668   2.276   1.665 -1.8402  2.9613  2.9181
  295SOL     OW  883   1.045   1.008   0.446  0.1702  0.3394  0.7581
  295SOL    HW1  884   1.128   0.965   0.480 -1.4688 -1.0521  1.3617
  295SOL    HW2  885   0.985   1.035   0.529  2.3830  1.8180 -1.9631
  296SOL     OW  886   1.294   2.045   2.522 -0.3919  0.0950 -0.0077
  296SOL    HW1  887   1.285   2.087   2.422 -3.2370  1.9289 -0.3090
  296SOL    HW2  888   1.308   1.944   2.522  0.2135  3.3112 -0.8190
  297SOL     OW  889   1.478   0.628   1.377  0.0250 -0.3101  0.4276
  297SOL    HW1  890   1.440   0.537   1.400 -0.8867  0.5302 -0.1947
  297SOL    HW2  891   1.572   0.649   1.411 -0.2818 -3.5560  0.2143
  298SOL     OW  892   0.472   1.250   2.901  0.4294  0.7045  0.5583
  298SOL    HW1  893   0.492   1.188   2.980  3.9047  1.9911 -0.0129
  298SOL    HW2  894   0.553   1.267   2.836  0.9421 -1.5343  1.1670
  299SOL     OW  895   0.470   0.267   1.422 -0.2224 -0.5373 -0.0886
  299SOL    HW1  896   0.500   0.347   1.360 -2.8293  3.2925 -0.9479
  299SOL    HW2  897   0.541   0.227   1.492  2.4807 -2.3701  0.5315
  300SOL     OW  898   1.193   1.818   2.897 -0.1700  0.1690  0.0631
  300SOL    HW1  899   1.151   1.749   2.833 -1.3491  0.4220  0.7840
  300SOL    HW2  900   1.234   1.772   2.974  0.6889  0.7363 -3.0920
  301SOL     OW  901   0.454   0.274   0.490 -0.1424 -0.1805  0.2981
  301SOL    HW1  902   0.351   0.273   0.473  0.7279  1.7226 -1.6843
  301SOL    HW2  903   0.497   0.242   0.401 -2.8470 -1.1792 -0.4658
  302SOL     OW  904   1.249   2.364   2.266 -0.6053  0.7252 -0.2269
  302SOL    HW1  905   1.187   2.412   2.328  1.4193 -1.9801 -3.4685
  302SOL    HW2  906   1.218   2.263   2.246 -0.9738 -1.8634 -3.3090
  303SOL     OW  907   0.955   2.338   0.794 -0.3178 -0.2797  0.5138
  303SOL    HW1  908   0.987   2.396   0.712 -1.1806 -1.1228 -3.9098
  303SOL    HW2  909   0.980   2.378   0.886  0.7921  0.9896 -0.1488
  304SOL     OW  910   0.152   2.060   0.627  0.1494  0.3818 -0.3803
  304SOL    HW1  911   0.161   1.996   0.545  0.1141 -0.8679  0.1400
  304SOL    HW2  912   0.115   2.154   0.609  0.4135 -2.5565  2.8233
  305SOL     OW  913   1.580   0.902   0.594  0.0015 -0.2788 -0.1192
  305SOL    HW1  914   1.526   0.908   0.510 -0.5721  4.0790  1.8863
  305SOL    HW2  915   1.621   0.807   0.606 -1.2893 -1.2239 -0.4454
  306SOL     OW  916   0.460   1.861   1.874 -0.2675  0.7330 -0.3409
  306SOL    HW1  917   0.548   1.816   1.846 -0.0784 -1.3891 -3.5381
  306SOL    HW2  918   0.435   1.825   1.965 -0.4915 -2.0453 -1.7664
  307SOL     OW  919   0.032   0.856   2.593 -0.2974  0.0192  0.0461
  307SOL    HW1  920   0.055   0.956   2.595  0.2223  1.6536 -1.8810
  307SOL    HW2  921  -0.047   0.823   2.651 -0.6238 -2.1372 -0.0748
  308SOL     OW  922   1.536   2.677   2.856  0.0763 -0.0215 -0.2192
  308SOL    HW1  923   1.539   2.658   2.750 -1.1782  2.7213  1.1828
  308SOL    HW2  924   1.460   2.630   2.903 -0.2128  1.0733 -0.3242
  309SOL     OW  925   1.229   0.073   1.780 -0.4255 -0.3239  0.0192
  309SOL    HW1  926   1.331   0.059   1.805 -0.9473 -0.3773  0.4375
  309SOL    HW2  927   1.206   0.062   1.679 -2.1421 -0.2416  1.4463
  310SOL     OW  928   1.503   2.551   0.685  0.8592  0.0046 -0.1485
  310SOL    HW1  929   1.483   2.591   0.777 -0.5454 -1.9431 -2.6121
  310SOL    HW2  930   1.577   2.595   0.629 -0.3451  0.0253  1.9208
  311SOL     OW  931   1.183   0.912   1.584  0.0541 -0.7595  0.2859
  311SOL    HW1  932   1.249   0.834   1.606 -0.8095 -2.3973 -1.2080
  311SOL    HW2  933   1.224   0.997   1.555 -0.1403 -1.2175  3.4792
  312SOL     OW  934   1.662   0.686   1.029 -0.0021 -0.4366  0.0029
  312SOL    HW1  935   1.594   0.761   1.057  1.8187 -1.0115 -0.3187
  312SOL    HW2  936   1.640   0.646   0.937  1.9780  1.1278  0.1129
  313SOL     OW  937   1.518   1.426   0.678  0.5682 -0.0484 -0.1021
  313SOL    HW1  938   1.436   1.456   0.731 -1.4722  0.6601 -0.5355
  313SOL    HW2  939   1.500   1.343   0.622  1.1649  0.6911 -0.6339
  314SOL     OW  940   2.994   3.074   0.045  0.2688  0.6284  0.3335
  314SOL    HW1  941   2.975   3.151   0.118  0.4922  1.5186  0.7610
  314SOL    HW2  942   2.904   3.032   0.016 -1.0290  2.2070  3.0081
  315SOL     OW  943   1.225   0.223   2.786 -0.4032 -0.3432  0.4792
  315SOL    HW1  944   1.189   0.143   2.725 -0.9054  1.0198  1.2943
  315SOL    HW2  945   1.260   0.185   2.874  2.7960  0.5409 -0.5476
  316SOL     OW  946   1.662   2.113   0.922  0.0066 -0.2007  0.3980
  316SOL    HW1  947   1.604   2.109   1.012 -0.6705 -1.1433 -0.1399
  316SOL    HW2  948   1.658   2.205   0.872  1.3266  1.5246 -1.0260
  317SOL     OW  949   1.119   0.722   2.854 -0.1260 -0.0151  0.2283
  317SOL    HW1  950   1.031   0.772   2.880  0.8960  2.7715  0.0735
  317SOL    HW2  951   1.108   0.619   2.821 -1.0017 -0.9791 -0.0046
  318SOL     OW  952   1.387   3.012   2.257 -0.7887 -0.1450 -0.0976
  318SOL    HW1  953   1.413   3.107   2.233  0.0857  1.3945 -3.8682
  318SOL    HW2  954   1.361   2.961   2.177 -1.1269 -0.4854 -0.7162
  319SOL     OW  955   0.646   2.411   2.911 -0.1926  0.3339 -0.0059
  319SOL    HW1  956   0.566   2.381   2.971 -1.7327 -0.1988  1.4116
  319SOL    HW2  957   0.734   2.361   2.940  0.3178 -0.3132  3.8353
  320SOL     OW  958   1.635   2.170   0.329 -0.0970 -0.2822 -0.5798
  320SOL    HW1  959   1.729   2.141   0.346 -2.0929  0.8683 -1.4094
  320SOL    HW2  960   1.570   2.161   0.409 -1.6859 -0.4074  1.9144
  321SOL     OW  961   1.653   2.651   0.483  0.8222  0.3268 -0.1825
  321SOL    HW1  962   1.573   2.715   0.462  0.2725 -1.6698  0.4729
  321SOL    HW2  963   1.750   2.693   0.474  1.8862  0.8600  1.4888
  322SOL     OW  964   2.577   1.131   2.301  0.1661  0.3147  0.4057
  322SOL    HW1  965   2.669   1.160   2.337 -0.9200 -0.6500 -3.2537
  322SOL    HW2  966   2.552   1.033   2.324  0.3276  2.3782  0.9557
  323SOL     OW  967   1.003   2.633   0.804 -0.1544  0.3061  0.4749
  323SOL    HW1  968   1.013   2.595   0.708  1.3350 -1.7862 -0.1489
  323SOL    HW2  969   1.046   2.729   0.813  2.4831 -1.7043  0.7921
  324SOL     OW  970   0.239   2.477   2.496  0.1973  0.4749  0.6006
  324SOL    HW1  971   0.249   2.383   2.541 -1.1229 -0.8428 -2.2687
  324SOL    HW2  972   0.164   2.534   2.538 -0.2093  1.6576 -2.2456
  325SOL     OW  973   1.244   3.040   0.440  0.9497 -0.1683 -0.5093
  325SOL    HW1  974   1.277   3.070   0.346  1.8380 -1.6124  0.1025
  325SOL    HW2  975   1.254   3.118   0.508 -0.1682 -0.0893  0.2275
  326SOL     OW  976   2.480   0.772   3.072 -0.4490 -0.2107  0.5422
  326SOL    HW1  977   2.437   0.738   2.985  0.8458 -2.1203  0.5455
  326SOL    HW2  978   2.505   0.692   3.134  0.3935 -0.2419 -0.7235
  327SOL     OW  979   2.882   0.362   0.497 -0.2515 -0.1849  0.3326
  327SOL    HW1  980   2.837   0.375   0.405  0.3648  0.0303  1.1162
  327SOL    HW2  981   2.837   0.292   0.555 -2.1903 -3.0518 -0.5138
  328SOL     OW  982   2.510   0.620   0.395  0.3572  0.9401 -0.1934
  328SOL    HW1  983   2.407   0.634   0.393  1.9970 -0.1755 -0.8047
  328SOL    HW2  984   2.545   0.543   0.458 -0.5607 -0.8353 -1.4873
  329SOL     OW  985   2.969   2.965   2.166  0.8015  0.0982 -0.0538
  329SOL    HW1  986   3.006   2.876   2.210 -0.6584 -0.2802  1.0173
  329SOL    HW2  987   3.007   3.050   2.212  0.0292  1.2034  0.3798
  330SOL     OW  988   0.541   0.196   1.877  0.3905 -0.3727 -0.2621
  330SOL    HW1  989   0.628   0.251   1.860  2.8100 -1.2520 -1.2011
  330SOL    HW2  990   0.557   0.130   1.958  1.3591  0.6061  2.5510
  331SOL     OW  991   2.939   1.930   1.113  0.5021  0.2634 -0.0160
  331SOL    HW1  992   2.983   2.003   1.054  1.4965 -0.2194 -0.3746
  331SOL    HW2  993   2.888   1.967   1.195 -1.3841 -2.0466  0.4376
  332SOL     OW  994   0.421   1.127   0.065  0.1169 -0.0598  0.2200
  332SOL    HW1  995   0.351   1.071   0.011  0.5177 -0.2392 -1.4083
  332SOL    HW2  996   0.382   1.169   0.152 -1.6474  3.7670 -0.2893
  333SOL     OW  997   2.859   1.047   0.310 -0.1237  0.0920  0.0353
  333SOL    HW1  998   2.902   1.107   0.381  1.3382  2.1518 -0.7142
  333SOL    HW2  999   2.923   0.970   0.278 -0.4833 -0.5573  1.2348
  334SOL     OW 1000   1.684   1.178   1.887  0.1926  0.2918  0.1542
  334SOL    HW1 1001   1.771   1.139   1.841  1.9860 -3.1962  1.1459
  334SOL    HW2 1002   1.700   1.252   1.959  0.6108 -1.6320  0.5823
  335SOL     OW 1003   1.991   2.755   2.608 -0.0497 -0.2237 -0.0104
  335SOL    HW1 1004   1.901   2.726   2.652  2.9990 -0.7567 -1.4816
  335SOL    HW2 1005   2.051   2.818   2.667 -2.2410 -1.4011 -1.1491
  336SOL     OW 1006   0.248   0.071   2.817 -0.3219  0.1958  0.5933
  336SOL    HW1 1007   0.346   0.058   2.788 -0.1682  0.9473  1.4092
  336SOL    HW2 1008   0.231   0.156   2.867  0.4306 -2.1470 -0.4297
  337SOL     OW 1009   0.928   2.806   2.819  0.2437 -0.0153  0.2433
  337SOL    HW1 1010   0.920   2.765   2.914 -0.1408 -1.8339 -0.1701
  337SOL    HW2 1011   1.008   2.773   2.769 -1.3382  0.9449 -1.8300
  338SOL     OW 1012   0.050   1.008   0.699  0.4204  0.1944 -0.2171
  338SOL    HW1 1013  -0.037   0.965   0.740  1.6510  0.1816  0.3798
  338SOL    HW2 1014   0.043   1.113   0.676  2.5087 -0.3340  0.2534
  339SOL     OW 1015   1.707   1.373   2.078  0.3252 -0.7957 -0.1235
  339SOL    HW1 1016   1.607   1.403   2.102 -0.3386  2.0245 -0.1642
  339SOL    HW2 1017   1.773   1.452   2.107 -1.5799 -1.1370 -0.0948
  340SOL     OW 1018   2.352   0.745   1.228  0.2401 -0.8036  0.1535
  340SOL    HW1 1019   2.247   0.739   1.220 -0.9197  0.6188  0.8498
  340SOL    HW2 1020   2.406   0.664   1.196  0.6784  1.6653  0.5626
  341SOL     OW 1021   1.914   2.177   0.346  0.5436 -0.1743  0.4173
  341SOL    HW1 1022   1.931   2.232   0.259 -0.9244  1.0422  1.6102
  341SOL    HW2 1023   2.002   2.148   0.401  1.0634 -1.7300  0.7737
  342SOL     OW 1024   2.209   2.086   2.754 -0.3942  0.1477 -0.0008
  342SOL    HW1 1025   2.265   1.997   2.748  0.5836 -2.4588 -2.6299
  342SOL    HW2 1026   2.109   2.063   2.766 -0.5569  2.4889 -2.1739
  343SOL     OW 1027   0.364   0.783   2.748  0.9806  0.0749 -0.5883
  343SOL    HW1 1028   0.352   0.832   2.659 -1.7197 -5.2597  2.0294
  343SOL    HW2 1029   0.462   0.773   2.785  1.2751  2.2507  2.3715
  344SOL     OW 1030   1.926   1.406   0.439  0.0816 -0.4739 -0.3228
  344SOL    HW1 1031   1.931   1.322   0.383  0.5451  1.1538  1.1004
  344SOL    HW2 1032   1.828   1.436   0.451 -0.9169 -2.9984  0.1621
  345SOL     OW 1033   1.390   2.259   2.897 -0.4052 -0.1193 -0.1745
  345SOL    HW1 1034   1.295   2.221   2.869 -0.1948 -3.0247 -2.0269
  345SOL    HW2 1035   1.467   2.205   2.850 -0.0741 -1.0857  0.2512
  346SOL     OW 1036   2.308   0.897   1.450 -0.0235 -0.1573 -0.5821
  346SOL    HW1 1037   2.276   0.992   1.419  0.1140 -0.1910 -1.6642
  346SOL    HW2 1038   2.317   0.829   1.369 -0.8379  0.8249 -3.4247
  347SOL     OW 1039   0.728   2.803   1.481 -0.1180 -0.8126 -0.5725
  347SOL    HW1 1040   0.704   2.738   1.559  0.3298  1.5237 -0.6418
  347SOL    HW2 1041   0.658   2.878   1.476 -0.4107 -0.6340 -0.0490
  348SOL     OW 1042   0.126   0.669   2.836  0.6500  0.0564  0.0236
  348SOL    HW1 1043   0.038   0.644   2.779  1.2882  0.8528  0.3883
  348SOL    HW2 1044   0.192   0.733   2.783 -1.3990  1.4402 -2.6553
  349SOL     OW 1045   1.822   0.405   2.800 -0.4644  0.0676  0.3035
  349SOL    HW1 1046   1.807   0.489   2.745  0.4771 -0.9380  0.6756
  349SOL    HW2 1047   1.812   0.432   2.901  0.0938 -2.1499  0.7738
  350SOL     OW 1048   1.589   0.439   0.367 -0.9961 -0.0417 -0.3357
  350SOL    HW1 1049   1.656   0.452   0.443 -1.4800  2.1303 -2.0070
  350SOL    HW2 1050   1.570   0.526   0.310  1.6310  1.5296  0.7894
  351SOL     OW 1051   0.966   0.868   2.095 -0.4152 -0.3564  0.0867
  351SOL    HW1 1052   0.948   0.967   2.059  1.8519  3.6978 -1.9379
  351SOL    HW2 1053   1.018   0.800   2.033  1.5937 -2.5642  2.2957
  352SOL     OW 1054   2.043   1.302   0.692  0.2422 -0.1710  0.5669
  352SOL    HW1 1055   1.995   1.332   0.604 -0.8528  0.7959 -2.3274
  352SOL    HW2 1056   2.132   1.349   0.703  0.2546 -1.7517 -2.0597
  353SOL     OW 1057   2.137   2.930   1.098 -0.2529 -0.4896 -0.2261
  353SOL    HW1 1058   2.215   2.904   1.161  0.0708 -0.2096 -3.1358
  353SOL    HW2 1059   2.079   2.848   1.074  1.7212  1.5506 -0.1189
  354SOL     OW 1060   0.250   1.400   2.887 -0.0051 -0.2287  0.6349
  354SOL    HW1 1061   0.246   1.490   2.825 -1.1822  2.9766 -1.7791
  354SOL    HW2 1062   0.342   1.352   2.901  0.7071  1.5938 -0.9058
  355SOL     OW 1063   0.523   1.531   0.510 -0.1260  0.2261 -0.2806
  355SOL    HW1 1064   0.552   1.602   0.579 -0.9114  0.2698  2.2011
  355SOL    HW2 1065   0.559   1.438   0.538 -2.8374 -1.5112  0.1398
  356SOL     OW 1066   0.951   0.295   2.095 -0.1248 -0.5421  0.0755
  356SOL    HW1 1067   1.007   0.377   2.065  4.0246  0.2686 -1.5802
  356SOL    HW2 1068   0.955   0.226   2.021  2.0038 -0.1617  1.0822
  357SOL     OW 1069   1.031   1.307   0.384 -0.0851 -0.1499  0.3032
  357SOL    HW1 1070   0.940   1.285   0.333 -1.6965 -1.3344 -2.3554
  357SOL    HW2 1071   1.028   1.271   0.483  1.8097  0.2136  2.2625
  358SOL     OW 1072   1.685   1.504   0.482  0.7881  0.1542  0.0252
  358SOL    HW1 1073   1.621   1.496   0.565 -0.7485 -0.5193 -0.4001
  358SOL    HW2 1074   1.640   1.486   0.391 -0.1275  1.5575  0.7158
  359SOL     OW 1075   1.583   2.727   0.064  0.3706  0.3664 -0.3438
  359SOL    HW1 1076   1.521   2.641   0.048 -2.4377 -0.1723  1.3822
  359SOL    HW2 1077   1.537   2.815   0.052  1.8798  0.4172  1.5818
  360SOL     OW 1078   0.866   0.622   0.535  0.2900 -0.2530  0.4055
  360SOL    HW1 1079   0.783   0.615   0.597 -1.2236 -0.6696 -2.6386
  360SOL    HW2 1080   0.898   0.525   0.504  0.7239 -1.1117  0.4214
  361SOL     OW 1081   1.234   1.387   0.692 -0.7021  0.2682  0.0192
  361SOL    HW1 1082   1.259   1.403   0.794  0.7136  1.7312  1.5775
  361SOL    HW2 1083   1.160   1.447   0.653 -0.1813 -3.1506  1.9160
  362SOL     OW 1084   1.358   1.754   0.772 -0.4635  0.1812  0.2987
  362SOL    HW1 1085   1.379   1.711   0.862 -2.1956  0.7939 -0.3764
  362SOL    HW2 1086   1.445   1.799   0.727  1.3616 -0.7430  0.3027
  363SOL     OW 1087   1.210   1.268   2.055 -0.4604 -0.0577 -0.2816
  363SOL    HW1 1088   1.293   1.308   2.098  1.4759 -2.0055 -1.1469
  363SOL    HW2 1089   1.179   1.323   1.973 -1.9225  0.6567  1.4550
  364SOL     OW 1090   0.552   2.337   1.936 -0.0434 -0.1478  0.2434
  364SOL    HW1 1091   0.461   2.381   1.966 -0.7994 -0.3892  1.8976
  364SOL    HW2 1092   0.572   2.356   1.838 -1.6853 -1.0805 -1.1039
  365SOL     OW 1093   1.043   1.911   1.399 -0.3523 -0.4524 -0.0230
  365SOL    HW1 1094   0.944   1.931   1.429 -1.3145 -1.3100  0.0401
  365SOL    HW2 1095   1.049   1.835   1.325 -0.3600 -1.7643 -2.0344
  366SOL     OW 1096   2.813   2.056   0.496  0.3051  0.1262 -0.1442
  366SOL    HW1 1097   2.716   2.011   0.487 -0.8994  1.2446  1.1330
  366SOL    HW2 1098   2.879   2.008   0.436 -1.4195 -1.4369  0.7559
  367SOL     OW 1099   0.818   1.162   0.170  0.3997 -0.2181  0.1292
  367SOL    HW1 1100   0.841   1.077   0.224 -3.2804  1.3556  3.1671
  367SOL    HW2 1101   0.847   1.160   0.072  0.9146  0.9851  1.0156
  368SOL     OW 1102   1.522   0.586   0.727 -0.0465  0.3338 -0.1887
  368SOL    HW1 1103   1.457   0.610   0.646 -0.1625 -0.2982 -1.4494
  368SOL    HW2 1104   1.620   0.622   0.722  1.4527  0.6898 -0.2786
  369SOL     OW 1105   0.241   1.709   0.043 -0.0701 -0.7216  0.2376
  369SOL    HW1 1106   0.295   1.788   0.080 -2.2601 -3.6381  0.8894
  369SOL    HW2 1107   0.183   1.655   0.112 -2.2190 -0.9500 -0.5965
  370SOL     OW 1108   0.433   2.112   1.046  0.4534  0.0922 -0.0530
  370SOL    HW1 1109   0.458   2.210   1.024  1.5253 -0.7143 -2.1862
  370SOL    HW2 1110   0.336   2.085   1.012  0.6438 -2.3499 -0.9995
  371SOL     OW 1111   2.888   2.236   2.728  0.1938  0.0467  0.0945
  371SOL    HW1 1112   2.902   2.186   2.821  0.2862 -0.5626 -2.2114
  371SOL    HW2 1113   2.973   2.284   2.705  0.6727  0.0252  0.2486
  372SOL     OW 1114   1.067   1.932   0.983  0.3879  0.4648  0.7460
  372SOL    HW1 1115   0.969   1.948   0.954 -1.0059  1.9994  2.0450
  372SOL    HW2 1116   1.134   1.998   0.947 -2.2127  1.9611 -1.7150
  373SOL     OW 1117   1.969   1.988   0.897 -0.3015 -0.2604  0.2505
  373SOL    HW1 1118   2.027   1.982   0.983 -0.5936  1.4148 -1.2546
  373SOL    HW2 1119   1.880   2.034   0.913  1.5016 -0.6886 -0.5925
  374SOL     OW 1120   1.791   0.468   0.550 -0.1017 -0.3518  0.1520
  374SOL    HW1 1121   1.784   0.394   0.630 -0.1131  2.8331 -0.1759
  374SOL    HW2 1122   1.873   0.468   0.491 -3.4466  2.2487 -3.5264
  375SOL     OW 1123   2.368   2.148   1.145  0.1466 -0.2752 -0.2894
  375SOL    HW1 1124   2.442   2.188   1.092 -4.0912 -0.4493 -0.8456
  375SOL    HW2 1125   2.392   2.134   1.246 -0.0852  0.3781 -1.4607
  376SOL     OW 1126   2.998   0.613   1.417 -0.2348  0.1304  0.3198
  376SOL    HW1 1127   3.062   0.674   1.473  1.6196  2.3372 -3.4819
  376SOL    HW2 1128   2.902   0.647   1.411 -1.5304 -0.8185 -0.1564
  377SOL     OW 1129   2.256   2.835   0.353 -0.1465  0.4222 -0.0780
  377SOL    HW1 1130   2.256   2.939   0.371 -0.9502 -1.1591  2.2419
  377SOL    HW2 1131   2.353   2.798   0.342 -2.0891 -1.9662 -2.3637
  378SOL     OW 1132   1.762   1.873   2.661 -0.5547 -0.7175  0.5668
  378SOL    HW1 1133   1.664   1.835   2.685 -1.3043 -1.6971 -1.6269
  378SOL    HW2 1134   1.822   1.797   2.620 -1.7948 -1.7839  2.4431
  379SOL     OW 1135   0.873   0.135   2.755 -0.0830  0.9063 -0.0845
  379SOL    HW1 1136   0.838   0.059   2.693 -1.5960 -1.1453 -0.9456
  379SOL    HW2 1137   0.823   0.222   2.741 -0.1891 -1.4505 -1.2790
  380SOL     OW 1138   1.513   1.168   0.541 -0.1511  0.6428 -0.5777
  380SOL    HW1 1139   1.412   1.135   0.545 -2.7388  0.1901  1.0391
  380SOL    HW2 1140   1.577   1.087   0.576 -1.2531 -0.2661  1.9850
  381SOL     OW 1141   1.297   1.193   1.554  0.2327 -0.0791 -0.2868
  381SOL    HW1 1142   1.347   1.236   1.472  0.0311  1.7396  1.7241
  381SOL    HW2 1143   1.364   1.140   1.612  0.2165  1.4253  0.3577
  382SOL     OW 1144   1.766   0.799   0.269 -0.0083  0.1264 -0.2678
  382SOL    HW1 1145   1.786   0.794   0.167 -1.6461 -0.6822 -0.9834
  382SOL    HW2 1146   1.848   0.832   0.324 -0.0301 -0.0671 -0.0060
  383SOL     OW 1147   2.570   0.961   1.513 -0.0737 -0.1137  0.5517
  383SOL    HW1 1148   2.473   0.936   1.484 -0.0587 -0.9176 -2.5924
  383SOL    HW2 1149   2.643   0.898   1.463  0.7976 -0.6018 -2.1500
  384SOL     OW 1150   0.899   2.288   0.055  0.5343 -0.3529  0.5501
  384SOL    HW1 1151   0.851   2.364   0.114 -1.1427  0.7205 -1.4029
  384SOL    HW2 1152   0.887   2.199   0.102 -1.9848 -1.6052 -3.1588
  385SOL     OW 1153   3.012   1.992   1.797 -0.3944 -0.5107  0.5805
  385SOL    HW1 1154   3.069   2.074   1.761  1.6592 -1.8490 -1.6886
  385SOL    HW2 1155   3.053   1.905   1.764  1.3685  2.2096 -2.6766
  386SOL     OW 1156   0.436   1.155   0.489 -0.1760  0.8351 -0.2845
  386SOL    HW1 1157   0.449   1.053   0.485 -0.0329 -0.5442  3.6830
  386SOL    HW2 1158   0.355   1.185   0.430  1.8083 -0.1588  1.3460
  387SOL     OW 1159   1.004   0.306   1.651  0.1296  0.5229  0.4468
  387SOL    HW1 1160   1.062   0.394   1.649 -0.5542 -2.3074  2.9278
  387SOL    HW2 1161   0.963   0.273   1.558 -3.4885  0.3672 -1.1739
  388SOL     OW 1162   1.207   2.635   1.788  0.1081  0.5853  0.0024
  388SOL    HW1 1163   1.241   2.651   1.693 -1.6572  1.2048  0.9851
  388SOL    HW2 1164   1.274   2.570   1.831 -0.7198 -1.9077  0.0540
  389SOL     OW 1165   0.241   3.082   1.127  0.3863 -0.3812 -0.3922
  389SOL    HW1 1166   0.186   3.059   1.213 -0.9970  1.4591 -1.9228
  389SOL    HW2 1167   0.291   2.999   1.090  0.9306 -3.2412  0.6312
  390SOL     OW 1168   1.055   0.917   1.235  0.1400  0.7856  0.2830
  390SOL    HW1 1169   1.136   0.864   1.270 -2.3543 -0.8322 -1.0736
  390SOL    HW2 1170   0.992   0.959   1.306 -2.0976  3.5801 -1.3509
  391SOL     OW 1171   2.078   1.119   1.041 -0.4895 -0.1051 -0.2945
  391SOL    HW1 1172   1.983   1.084   1.067  3.0232  2.7390  0.8538
  391SOL    HW2 1173   2.125   1.059   0.974  1.3200  1.9026 -0.2354
  392SOL     OW 1174   0.894   2.693   3.051  0.0410 -0.3574  0.3863
  392SOL    HW1 1175   0.808   2.688   3.107  1.9276 -0.7377 -0.2202
  392SOL    HW2 1176   0.975   2.703   3.113 -1.4873 -1.5127 -1.2016
  393SOL     OW 1177   0.380   0.525   2.103  0.0771 -0.6721 -0.3303
  393SOL    HW1 1178   0.288   0.491   2.067 -0.1890 -1.2327 -1.4296
  393SOL    HW2 1179   0.460   0.507   2.042  2.2368 -0.1847  2.2015
  394SOL     OW 1180   2.918   1.848   2.783  0.2591 -0.0126 -0.1220
  394SOL    HW1 1181   2.992   1.798   2.837  1.0140  0.1275 -2.9692
  394SOL    HW2 1182   2.954   1.876   2.691  1.1792 -1.9424  0.4207
  395SOL     OW 1183   1.585   1.930   0.723 -0.0133 -0.1978 -0.4108
  395SOL    HW1 1184   1.667   1.890   0.667 -0.6639 -2.0936 -0.2260
  395SOL    HW2 1185   1.617   1.984   0.811 -0.0431  2.1986  0.4113
  396SOL     OW 1186   2.766   2.067   1.319 -0.4374  0.0153  0.1695
  396SOL    HW1 1187   2.802   2.056   1.418  0.4677 -1.8211 -0.7609
  396SOL    HW2 1188   2.666   2.045   1.309 -0.6139 -0.6188  0.4687
  397SOL     OW 1189   1.029   2.103   0.625  0.2090  0.2429 -0.3285
  397SOL    HW1 1190   0.945   2.041   0.603  0.7846  1.2263 -0.7526
  397SOL    HW2 1191   0.997   2.190   0.662 -0.8400  0.0643  0.1659
  398SOL     OW 1192   2.187   0.098   1.087  1.1760  0.3277  0.0133
  398SOL    HW1 1193   2.173  -0.001   1.066  1.6263 -0.7347  0.6846
  398SOL    HW2 1194   2.092   0.151   1.085  0.6775  0.3542  1.2201
  399SOL     OW 1195   2.942   2.530   2.722 -0.6239  0.2561  0.6383
  399SOL    HW1 1196   2.893   2.508   2.631 -1.0367  0.3513 -0.9396
  399SOL    HW2 1197   2.891   2.495   2.802  0.9711  2.6000 -1.8294
  400SOL     OW 1198   0.819   1.592   1.293 -0.6270  0.0514 -0.0385
  400SOL    HW1 1199   0.742   1.622   1.357  1.6922  0.0682  1.1750
  400SOL    HW2 1200   0.847   1.662   1.226  1.2198 -2.5322 -0.5604
  401SOL     OW 1201   1.810   0.134   1.263 -0.3411 -0.1184  0.0240
  401SOL    HW1 1202   1.879   0.179   1.329  3.4629 -0.0458 -0.2418
  401SOL    HW2 1203   1.712   0.132   1.291  1.0115  0.2116 -2.3563
  402SOL     OW 1204   1.317   0.144   3.045 -0.1912  0.7902 -0.1298
  402SOL    HW1 1205   1.417   0.136   3.050 -0.7440 -0.7708  1.3472
  402SOL    HW2 1206   1.286   0.238   3.080  2.5570 -1.8485  0.9231
  403SOL     OW 1207   2.333   1.810   0.944  0.0415  0.4313 -0.3131
  403SOL    HW1 1208   2.429   1.846   0.962 -1.8787  1.2752 -3.9555
  403SOL    HW2 1209   2.261   1.850   1.008 -1.9533  0.6099  0.3514
  404SOL     OW 1210   0.167   2.502   2.853 -0.4799 -0.3067  0.5779
  404SOL    HW1 1211   0.263   2.479   2.820  0.6455  1.8820  1.3078
  404SOL    HW2 1212   0.161   2.603   2.888  1.4321  1.6692  1.2754
  405SOL     OW 1213   0.236   2.558   0.532  0.0326 -0.3375  0.2082
  405SOL    HW1 1214   0.167   2.575   0.454 -1.4072 -0.3653 -2.3251
  405SOL    HW2 1215   0.291   2.647   0.548  0.6581  2.8858 -0.0118
  406SOL     OW 1216  -0.000   1.527   2.968 -0.1080  0.0786  0.0804
  406SOL    HW1 1217   0.073   1.464   2.941  0.5496  2.4797  0.5001
  406SOL    HW2 1218  -0.001   1.541   3.070 -0.4562  1.2883 -0.7198
  407SOL     OW 1219   1.510   0.898   0.923 -0.0386 -0.1380  0.1336
  407SOL    HW1 1220   1.506   0.890   0.819  3.3928  0.0088  0.2375
  407SOL    HW2 1221   1.449   0.978   0.952 -3.4255  1.1663 -0.2909
  408SOL     OW 1222   1.541   2.413   0.967  0.5863  0.2826  0.2004
  408SOL    HW1 1223   1.609   2.395   0.888  1.2337  0.9981  1.4262
  408SOL    HW2 1224   1.581   2.458   1.043  1.7055 -0.6414 -1.1359
  409SOL     OW 1225   0.678   0.853   0.687 -0.3536 -0.1402  0.6340
  409SOL    HW1 1226   0.608   0.869   0.612  2.6429 -1.2156  1.1802
  409SOL    HW2 1227   0.687   0.752   0.704  0.3107 -0.0010 -0.1614
  410SOL     OW 1228   1.277   2.027   1.481 -0.2999  0.0067 -0.6248
  410SOL    HW1 1229   1.277   2.046   1.580 -3.4290  1.0966  1.8920
  410SOL    HW2 1230   1.190   1.981   1.447  0.6156 -1.8990  2.9183
  411SOL     OW 1231   2.384   1.822   0.007  0.2699 -0.1936 -0.3925
  411SOL    HW1 1232   2.310   1.885  -0.028 -1.8109 -0.7676  0.6203
  411SOL    HW2 1233   2.443   1.787  -0.074 -0.3880 -1.6811 -1.2991
  412SOL     OW 1234   1.496   2.413   2.207  0.0693  0.6584  0.2455
  412SOL    HW1 1235   1.555   2.446   2.286  1.2111  1.2221 -0.3179
  412SOL    HW2 1236   1.401   2.372   2.236 -3.2746 -1.8490 -1.9373
  413SOL     OW 1237   3.033   0.247   2.982  0.4571 -0.3348  0.1178
  413SOL    HW1 1238   3.028   0.161   3.032  0.1783  1.0362 -0.2782
  413SOL    HW2 1239   3.127   0.285   2.958  1.1167  1.3866 -1.1448
  414SOL     OW 1240   1.760   1.384   1.359 -0.4122 -0.1316  0.7165
  414SOL    HW1 1241   1.676   1.431   1.403 -2.5214 -0.9029  1.7229
  414SOL    HW2 1242   1.754   1.383   1.254  0.3537  1.0549  1.4093
  415SOL     OW 1243   0.359   2.267   0.636 -0.1982 -0.2800 -0.5786
  415SOL    HW1 1244   0.313   2.359   0.608 -1.3744  4.2585 -0.1753
  415SOL    HW2 1245   0.297   2.187   0.637 -0.9712 -1.2879  1.8514
  416SOL     OW 1246   0.373   1.015   1.074  0.0526  0.6423 -0.5325
  416SOL    HW1 1247   0.347   0.984   0.980 -0.4035  0.9263 -1.1331
  416SOL    HW2 1248   0.464   1.069   1.081  0.5755 -0.6116  3.8001
  417SOL     OW 1249   2.121   2.364   1.917 -0.1350  0.3203  0.0744
  417SOL    HW1 1250   2.120   2.275   1.857  0.5016  0.8252 -0.8433
  417SOL    HW2 1251   2.039   2.366   1.987 -0.5018  1.2696  0.0536
  418SOL     OW 1252   1.142   0.512   1.314  0.1575  0.2745 -0.1498
  418SOL    HW1 1253   1.040   0.505   1.280 -0.5411 -1.0068 -0.6027
  418SOL    HW2 1254   1.207   0.461   1.253 -3.2662  2.3962  1.2258
  419SOL     OW 1255   1.003   0.377   3.050  0.3022  0.0532  0.1131
  419SOL    HW1 1256   1.021   0.438   2.968 -2.3625 -0.4737 -0.9878
  419SOL    HW2 1257   0.967   0.278   3.035 -0.4772 -1.7922  0.8377
  420SOL     OW 1258   0.224   2.255   0.336  0.0877  0.1218  0.0311
  420SOL    HW1 1259   0.188   2.206   0.254  2.6561 -0.7786 -1.8946
  420SOL    HW2 1260   0.156   2.267   0.412  1.5071  0.4291 -0.6372
  421SOL     OW 1261   0.339   3.088   0.670  0.5398 -0.0694  0.1395
  421SOL    HW1 1262   0.321   2.993   0.709  0.6305  0.2683 -0.0881
  421SOL    HW2 1263   0.442   3.096   0.663  0.2135 -0.9900  0.3040
  422SOL     OW 1264   0.925   2.499   1.032  0.0106 -0.0030  0.0965
  422SOL    HW1 1265   0.934   2.546   0.937  1.0760  0.5407  1.4799
  422SOL    HW2 1266   0.974   2.542   1.112  0.1927  1.6388 -1.6918
  423SOL     OW 1267   0.054   0.709   1.206  0.3931 -0.4365  0.0006
  423SOL    HW1 1268   0.002   0.678   1.293 -0.9485  0.6959  0.9353
  423SOL    HW2 1269  -0.006   0.762   1.148 -0.4462  0.3632  1.8757
  424SOL     OW 1270   0.995   2.163   2.102 -0.6281  0.2447  0.0041
  424SOL    HW1 1271   0.989   2.265   2.080  1.2664 -0.2565  1.5273
  424SOL    HW2 1272   0.971   2.141   2.205  0.0683 -1.1756  0.7716
  425SOL     OW 1273   1.996   1.424   1.037 -0.1429  0.2613 -0.3815
  425SOL    HW1 1274   2.007   1.330   0.997  0.3334  0.8131 -0.6610
  425SOL    HW2 1275   2.064   1.489   0.983  1.6342 -0.7313 -1.7071
  426SOL     OW 1276   1.533   1.546   1.414 -0.1483 -0.3694  1.1621
  426SOL    HW1 1277   1.486   1.623   1.358 -0.0448 -0.0522 -0.4743
  426SOL    HW2 1278   1.506   1.546   1.518  0.8029  4.2023  0.6599
  427SOL     OW 1279   1.909   2.388   2.086 -0.1242  0.7015  0.5530
  427SOL    HW1 1280   1.948   2.331   2.164  1.1298 -0.0076  2.0048
  427SOL    HW2 1281   1.875   2.479   2.115  0.8707  2.1682 -2.3740
  428SOL     OW 1282   0.882   3.018   0.132 -0.5978 -0.1697  0.3053
  428SOL    HW1 1283   0.926   3.102   0.177 -0.3065 -1.3368 -0.3145
  428SOL    HW2 1284   0.953   2.956   0.075  1.4554 -1.5679 -1.9559
  429SOL     OW 1285   1.317   0.077   0.223 -0.1766  0.2184  0.0180
  429SOL    HW1 1286   1.404   0.120   0.266 -0.0919  0.1882  2.8057
  429SOL    HW2 1287   1.304   0.104   0.128 -1.2194  2.1371  2.1977
  430SOL     OW 1288   2.805   1.502   0.351  0.1755  0.3675  0.2527
  430SOL    HW1 1289   2.808   1.573   0.271  1.7160  1.0973 -1.5291
  430SOL    HW2 1290   2.808   1.546   0.443 -1.4255  1.0192 -0.4358
  431SOL     OW 1291   2.129   1.620   0.906 -0.2110  0.7208  0.0872
  431SOL    HW1 1292   2.197   1.680   0.957 -1.0606 -0.6282  0.3723
  431SOL    HW2 1293   2.058   1.676   0.854 -1.2255 -0.2910  1.1825
  432SOL     OW 1294   2.917   2.264   1.217  0.2125 -0.4553  0.3857
  432SOL    HW1 1295   2.838   2.203   1.243 -0.2361  4.4906 -1.2997
  432SOL    HW2 1296   2.961   2.309   1.294 -1.7853 -4.4774 -2.1597
  433SOL     OW 1297   1.832   0.356   0.820  0.2954 -0.3413  0.6339
  433SOL    HW1 1298   1.734   0.318   0.817 -0.2708 -3.0013 -0.2959
  433SOL    HW2 1299   1.883   0.305   0.894 -0.4328  1.7844  1.3393
  434SOL     OW 1300   1.519   0.298   0.718  0.4717 -0.0934  0.7516
  434SOL    HW1 1301   1.494   0.398   0.697  0.9583  4.4661  0.4929
  434SOL    HW2 1302   1.539   0.282   0.820 -0.6585 -0.0143 -1.7639
  435SOL     OW 1303   1.427   1.454   2.099 -0.0559 -0.9032  0.6969
  435SOL    HW1 1304   1.384   1.459   2.194 -0.0884  0.1550  0.5295
  435SOL    HW2 1305   1.396   1.531   2.034 -0.4596  2.9455 -0.2967
  436SOL     OW 1306   1.653   2.648   2.431 -0.5261 -0.5825 -0.3567
  436SOL    HW1 1307   1.653   2.749   2.461 -1.2850  1.7286  1.8802
  436SOL    HW2 1308   1.581   2.596   2.484  1.4850 -1.5186  0.8703
  437SOL     OW 1309   1.091   2.912   0.931  0.2816 -0.4652  0.2850
  437SOL    HW1 1310   1.022   2.976   0.891  0.9146 -1.8178  1.7743
  437SOL    HW2 1311   1.071   2.879   1.029 -3.5071 -1.2000 -1.9958
  438SOL     OW 1312   1.098   2.541   1.279  0.2740  0.4266  0.0160
  438SOL    HW1 1313   1.086   2.610   1.350  0.9902  3.8963 -2.1168
  438SOL    HW2 1314   1.074   2.448   1.319 -0.7873 -1.2580 -0.7591
  439SOL     OW 1315   0.743   1.773   1.024 -0.0023  0.7645 -0.3785
  439SOL    HW1 1316   0.716   1.856   0.971  2.1170 -0.6082 -1.0832
  439SOL    HW2 1317   0.666   1.719   1.063  0.0953  1.7066 -0.6951
  440SOL     OW 1318   1.028   2.445   2.039  0.0832  0.0757  0.4843
  440SOL    HW1 1319   0.972   2.490   1.961  0.5688  0.6660  0.0118
  440SOL    HW2 1320   1.130   2.458   2.024  2.5297  1.6622  0.6424
  441SOL     OW 1321   0.361   2.711   1.433  0.7566  0.7410  0.4218
  441SOL    HW1 1322   0.432   2.643   1.413 -2.2915  2.2167 -1.6278
  441SOL    HW2 1323   0.341   2.760   1.347 -0.6990 -0.1312 -1.3548
  442SOL     OW 1324   2.229   0.640   2.599  0.0850  0.5374  0.0103
  442SOL    HW1 1325   2.224   0.561   2.531  0.1467  1.8432 -2.9324
  442SOL    HW2 1326   2.157   0.717   2.586 -1.2549  1.3377  0.6891
  443SOL     OW 1327   1.267   2.672   2.211  0.0894  0.2002 -0.3811
  443SOL    HW1 1328   1.219   2.579   2.209 -4.3776 -1.3908 -3.3570
  443SOL    HW2 1329   1.226   2.736   2.281 -0.3746 -0.6771  0.0173
  444SOL     OW 1330   1.029   1.221   1.490 -0.2426 -0.2086 -0.0014
  444SOL    HW1 1331   1.130   1.198   1.475 -1.0130  0.8216 -3.1757
  444SOL    HW2 1332   1.015   1.283   1.571  2.7849 -4.1488 -2.5126
  445SOL     OW 1333   0.076   2.310   1.965 -1.2279  0.6015 -0.4160
  445SOL    HW1 1334   0.070   2.261   1.871 -0.0529  0.0898  0.3077
  445SOL    HW2 1335  -0.005   2.362   1.993  1.2495  1.6502  0.5699
  446SOL     OW 1336   0.164   1.944   2.377  0.2363 -0.3473 -0.4219
  446SOL    HW1 1337   0.118   2.037   2.366  2.3254  0.2310 -1.3558
  446SOL    HW2 1338   0.127   1.877   2.306  1.5601  1.2512  3.0922
  447SOL     OW 1339   1.253   1.686   1.956 -0.4333 -0.0656 -0.6526
  447SOL    HW1 1340   1.159   1.732   1.961 -0.4676  0.3538  0.8801
  447SOL    HW2 1341   1.322   1.750   2.003 -2.1878  0.4083  1.4328
  448SOL     OW 1342   0.172   1.424   2.029 -0.2308 -0.5082  0.0110
  448SOL    HW1 1343   0.148   1.492   1.950 -0.1618 -1.3361  0.6039
  448SOL    HW2 1344   0.118   1.441   2.112  0.3704  0.1823 -3.2934
  449SOL     OW 1345   1.850   2.925   0.836  0.0486  0.0801  0.6718
  449SOL    HW1 1346   1.832   2.940   0.938 -1.1800  0.0295  2.1946
  449SOL    HW2 1347   1.894   2.835   0.816 -1.6555  3.3851  0.6366
  450SOL     OW 1348   2.249   1.471   0.680  0.5246  0.1862 -0.1375
  450SOL    HW1 1349   2.220   1.533   0.761 -1.5837 -0.4181 -2.8209
  450SOL    HW2 1350   2.283   1.520   0.596  0.9606  1.6241  1.5243
  451SOL     OW 1351   1.389   3.051   1.503  0.3434  0.4936 -0.2382
  451SOL    HW1 1352   1.299   3.098   1.508 -0.3825  0.8740 -1.1963
  451SOL    HW2 1353   1.398   2.973   1.583  1.9508  0.4530 -2.3044
  452SOL     OW 1354   2.652   2.295   2.288 -0.2057 -0.2047 -0.7454
  452SOL    HW1 1355   2.602   2.387   2.295  0.9424 -1.2922 -0.4602
  452SOL    HW2 1356   2.680   2.254   2.380  2.3782 -1.5244 -0.0627
  453SOL     OW 1357   2.470   2.664   0.009  0.1725  0.2447  0.6006
  453SOL    HW1 1358   2.397   2.731   0.009  1.3233  0.0684 -0.5897
  453SOL    HW2 1359   2.447   2.572  -0.038 -0.6908 -0.2302  0.3222
  454SOL     OW 1360   0.925   1.132   2.017  0.5775 -0.0116 -0.2428
  454SOL    HW1 1361   0.951   1.090   1.923  0.1007 -0.9510  2.0756
  454SOL    HW2 1362   0.971   1.224   2.026  1.5731 -2.0938 -0.5210
  455SOL     OW 1363   0.665   2.679   2.834 -0.0972 -0.1265 -0.1065
  455SOL    HW1 1364   0.760   2.712   2.832 -0.4965  1.0808 -0.5645
  455SOL    HW2 1365   0.666   2.591   2.882  0.3028  2.3605 -2.1312
  456SOL     OW 1366   0.376   1.902   0.225  0.3556 -0.1945  0.1696
  456SOL    HW1 1367   0.464   1.852   0.254 -2.0071 -5.0963  2.5755
  456SOL    HW2 1368   0.384   2.006   0.224  2.3480  2.0154 -0.1502
  457SOL     OW 1369   0.393   2.789   0.643 -0.4338 -0.0103 -0.3114
  457SOL    HW1 1370   0.404   2.842   0.558  1.0417 -0.5371 -1.2765
  457SOL    HW2 1371   0.476   2.740   0.676 -1.1358  1.4040 -1.6417
  458SOL     OW 1372   2.816   0.034   1.215 -0.2930  0.1395 -0.1483
  458SOL    HW1 1373   2.868   0.114   1.174 -1.2250 -1.0531  0.6385
  458SOL    HW2 1374   2.826  -0.058   1.165  1.0967  0.7285 -1.1177
  459SOL     OW 1375   2.199   2.539   0.806  0.2828  0.0703  0.4240
  459SOL    HW1 1376   2.265   2.608   0.854 -0.7544 -1.4072  1.4726
  459SOL    HW2 1377   2.250   2.450   0.783  0.3221  0.7760 -0.0011
  460SOL     OW 1378   1.216   2.056   2.783  0.2774 -0.0629 -0.1844
  460SOL    HW1 1379   1.262   2.050   2.688  1.0085  1.1487 -0.0070
  460SOL    HW2 1380   1.236   1.970   2.840  0.5191 -0.1036 -1.6862
  461SOL     OW 1381   0.450   2.096   2.728  0.7477  0.0076 -0.3807
  461SOL    HW1 1382   0.383   2.026   2.681  1.8556  0.9858 -0.3544
  461SOL    HW2 1383   0.446   2.084   2.833 -0.6540  0.0019  0.0462
  462SOL     OW 1384   0.963   1.048   1.774  0.3613  0.3552 -0.4400
  462SOL    HW1 1385   0.966   0.976   1.702  0.2295  0.8217  0.2498
  462SOL    HW2 1386   0.907   1.128   1.745  3.1248  0.8838  0.7295
  463SOL     OW 1387   0.458   0.875   0.491  0.1050 -0.5557 -0.3753
  463SOL    HW1 1388   0.487   0.784   0.454  0.4439  3.2419 -0.2103
  463SOL    HW2 1389   0.356   0.882   0.499  0.1638 -2.0190  4.6313
  464SOL     OW 1390   0.611   2.333   2.192  0.4570  0.0977 -0.2067
  464SOL    HW1 1391   0.566   2.419   2.234  0.9435 -1.9805  1.4249
  464SOL    HW2 1392   0.619   2.334   2.085  2.1285  1.4940 -0.1814
  465SOL     OW 1393   0.260   0.905   0.837  0.1193  0.0286 -0.2394
  465SOL    HW1 1394   0.180   0.932   0.775  2.0876 -0.5163  2.8046
  465SOL    HW2 1395   0.280   0.803   0.841  0.2439  2.3744  0.4368
  466SOL     OW 1396   1.379   1.151   1.033  0.2467  0.4220  0.4713
  466SOL    HW1 1397   1.402   1.238   0.985 -0.0724 -0.3619  1.4059
  466SOL    HW2 1398   1.279   1.125   1.024  2.3232 -1.9952  1.4910
  467SOL     OW 1399   0.607   0.420   2.465  0.5752  0.2839 -0.2274
  467SOL    HW1 1400   0.550   0.503   2.486  1.4479 -1.5513 -2.3930
  467SOL    HW2 1401   0.631   0.359   2.548 -1.6630 -0.0047  0.2881
  468SOL     OW 1402   0.389   2.266   1.611 -0.3799 -0.0457 -0.0279
  468SOL    HW1 1403   0.474   2.300   1.663 -1.3071  1.1496  1.8502
  468SOL    HW2 1404   0.402   2.246   1.509  0.4332 -0.7227  1.0830
  469SOL     OW 1405   1.450   1.303   1.326  0.4378  0.0877  0.8014
  469SOL    HW1 1406   1.530   1.265   1.269  4.2957  0.1310 -0.7032
  469SOL    HW2 1407   1.451   1.409   1.344 -1.8741 -2.4462 -0.8650
  470SOL     OW 1408   3.014   1.813   0.714 -0.0875  0.3932  0.0851
  470SOL    HW1 1409   3.088   1.868   0.675  0.3744  0.9974 -0.0104
  470SOL    HW2 1410   3.031   1.777   0.806  0.3974  3.1535 -2.6620
  471SOL     OW 1411   2.584   1.367   2.160  0.3231 -0.2070 -0.0252
  471SOL    HW1 1412   2.575   1.272   2.207  0.3827  1.4063  1.5561
  471SOL    HW2 1413   2.678   1.410   2.168  0.6095 -1.2184  0.0995
  472SOL     OW 1414   1.165   2.384   0.097  0.4702 -0.3341  0.1870
  472SOL    HW1 1415   1.224   2.379   0.183  0.6704 -0.6394  0.8116
  472SOL    HW2 1416   1.062   2.363   0.111  0.1843  1.8537  1.4027
  473SOL     OW 1417   1.096   1.487   1.030 -0.5086  0.0736  0.1282
  473SOL    HW1 1418   1.005   1.511   0.981 -0.6469  0.4511 -0.8742
  473SOL    HW2 1419   1.091   1.423   1.111 -0.6587  2.0287 -1.6347
  474SOL     OW 1420   0.657   1.265   0.564 -0.5326  0.1833  0.6966
  474SOL    HW1 1421   0.568   1.214   0.544 -1.3941  0.8410 -1.5856
  474SOL    HW2 1422   0.737   1.208   0.599 -0.2457  2.7525 -0.2279
  475SOL     OW 1423   2.831   0.019   0.800  0.4068  0.1828  0.1280
  475SOL    HW1 1424   2.901   0.096   0.823 -0.9019  2.6699  0.3552
  475SOL    HW2 1425   2.738   0.054   0.836  0.0211  1.7202  0.4835
  476SOL     OW 1426   0.994   2.982   1.774  0.1447 -0.2349  0.2744
  476SOL    HW1 1427   1.092   2.986   1.803 -2.0884 -3.3213 -0.6394
  476SOL    HW2 1428   0.986   2.963   1.671 -0.4624 -0.0282  0.6833
  477SOL     OW 1429   1.464   0.314   2.412 -0.4148 -0.1840 -0.0634
  477SOL    HW1 1430   1.457   0.355   2.508 -0.0425 -0.6406  1.3846
  477SOL    HW2 1431   1.555   0.266   2.395 -1.3898  1.3116 -0.2106
  478SOL     OW 1432   2.220   1.859   0.255  0.0612 -0.3860  0.0666
  478SOL    HW1 1433   2.166   1.790   0.302  2.0141  2.3802 -0.3881
  478SOL    HW2 1434   2.284   1.816   0.180  1.7765  0.9020 -3.5246
  479SOL     OW 1435   1.260   0.958   2.922  0.0159 -0.1809 -0.9020
  479SOL    HW1 1436   1.344   0.955   2.860  2.0472 -0.8244 -0.6129
  479SOL    HW2 1437   1.191   0.885   2.901  0.4742 -0.7254 -1.5944
  480SOL     OW 1438   2.616   2.341   0.373 -1.1300  0.0554 -0.2454
  480SOL    HW1 1439   2.601   2.267   0.445 -1.0234 -1.8018  0.7937
  480SOL    HW2 1440   2.528   2.373   0.330 -1.5899  0.9189 -0.3191
  481SOL     OW 1441   1.000   1.185   0.814 -0.5582 -0.4487  0.1202
  481SOL    HW1 1442   0.997   1.275   0.759  1.9292 -2.2799 -1.2648
  481SOL    HW2 1443   1.045   1.193   0.911  2.7172  0.7333  1.9798
  482SOL     OW 1444   1.558   0.322   1.988 -0.3881  0.0957  0.1319
  482SOL    HW1 1445   1.557   0.425   1.971 -0.3246 -1.5377 -1.2343
  482SOL    HW2 1446   1.653   0.276   1.994  2.5474 -0.3508  0.0325
  483SOL     OW 1447   0.159   2.325   1.245 -0.2188 -0.1606  0.2673
  483SOL    HW1 1448   0.111   2.399   1.299  2.0185  0.4713 -0.6116
  483SOL    HW2 1449   0.153   2.351   1.145 -3.2270  0.2069  0.6434
  484SOL     OW 1450   1.777   1.092   1.358 -0.1241  0.3838 -0.6106
  484SOL    HW1 1451   1.838   1.020   1.410  0.3707  0.4433  1.8397
  484SOL    HW2 1452   1.802   1.188   1.383  0.5604 -1.3869  0.8115
  485SOL     OW 1453   0.776   0.757   1.776 -0.1197  0.2836  0.1314
  485SOL    HW1 1454   0.765   0.807   1.689 -0.0359  1.2308  2.4561
  485SOL    HW2 1455   0.860   0.781   1.830 -1.8910 -2.4163 -0.1147
  486SOL     OW 1456   0.848   1.852   2.431 -0.1070  0.0990 -0.0050
  486SOL    HW1 1457   0.875   1.863   2.533  0.2667 -0.8786  2.9303
  486SOL    HW2 1458   0.777   1.924   2.407  3.8122  1.8528  2.2984
  487SOL     OW 1459   1.747   1.579   0.969  0.1500 -0.2457 -0.6334
  487SOL    HW1 1460   1.801   1.498   1.002  0.4447  0.8132  0.8509
  487SOL    HW2 1461   1.805   1.645   0.909  0.6288 -0.3331  0.0777
  488SOL     OW 1462   2.971   0.866   2.314 -0.5726 -0.2387  0.0084
  488SOL    HW1 1463   3.006   0.781   2.267 -0.2813  0.9194  1.0884
  488SOL    HW2 1464   2.960   0.849   2.414  1.7948 -0.7557  0.2467
  489SOL     OW 1465   2.787   0.378   1.268  0.0054 -0.1621  0.9349
  489SOL    HW1 1466   2.753   0.324   1.351  1.1001 -0.3259  0.2986
  489SOL    HW2 1467   2.876   0.335   1.231 -1.7372  0.1934 -1.6287
  490SOL     OW 1468   1.414   2.950   2.800 -0.6146  0.3134 -0.3717
  490SOL    HW1 1469   1.478   2.871   2.817  0.5556 -1.0697 -2.8194
  490SOL    HW2 1470   1.374   2.947   2.702 -1.9017 -1.5869 -1.7497
  491SOL     OW 1471   1.729   1.498   2.671 -0.3743  0.4462 -0.3932
  491SOL    HW1 1472   1.658   1.502   2.747 -0.6718  0.2301  1.1143
  491SOL    HW2 1473   1.825   1.543   2.703  2.9957  0.3957  1.5338
  492SOL     OW 1474   0.567   2.063   0.621 -0.1508 -0.5093  0.4148
  492SOL    HW1 1475   0.590   2.047   0.719  0.3740 -0.8438  1.6291
  492SOL    HW2 1476   0.512   2.154   0.601  0.8615 -0.4533 -0.7001
  493SOL     OW 1477   0.498   1.387   2.071 -0.1547  0.4002 -0.1888
  493SOL    HW1 1478   0.422   1.454   2.054  0.8237  0.2113 -2.2725
  493SOL    HW2 1479   0.464   1.287   2.082  0.1362 -1.3056 -1.8034
  494SOL     OW 1480   2.705   2.543   0.097  0.1933  0.2221 -0.5511
  494SOL    HW1 1481   2.715   2.555   0.197  1.3851 -2.0103 -1.1917
  494SOL    HW2 1482   2.620   2.589   0.058  0.5862 -1.3724  0.9829
  495SOL     OW 1483   2.545   2.776   2.608  0.4325 -0.5400 -0.0228
  495SOL    HW1 1484   2.552   2.670   2.622  1.2669 -3.5473 -3.0843
  495SOL    HW2 1485   2.630   2.820   2.567  1.2101  0.8324 -3.3825
  496SOL     OW 1486   2.024   2.291   0.822  0.1521 -0.0661  0.0317
  496SOL    HW1 1487   2.025   2.358   0.902  1.0642 -1.4557 -0.7152
  496SOL    HW2 1488   2.041   2.196   0.853  0.8972 -2.0587  0.0688
  497SOL     OW 1489   0.129   3.011   2.366  0.2131  0.3630  0.1133
  497SOL    HW1 1490   0.105   3.089   2.433 -0.4911  0.6683  0.4330
  497SOL    HW2 1491   0.182   3.044   2.287  1.3165  1.4125 -0.7161
  498SOL     OW 1492   1.186   1.333   1.255  0.5011 -0.7736  0.0926
  498SOL    HW1 1493   1.288   1.319   1.262 -0.2104  0.0846 -0.4234
  498SOL    HW2 1494   1.144   1.397   1.327 -2.1695  1.4053  0.6501
  499SOL     OW 1495   0.632   1.792   0.271 -0.0220  0.5359 -0.4852
  499SOL    HW1 1496   0.630   1.739   0.181 -0.7726  1.5772  1.6471
  499SOL    HW2 1497   0.721   1.802   0.314 -1.9171 -0.2783 -2.9467
  500SOL     OW 1498   1.431   2.879   1.686 -0.9600  0.0015 -0.5009
  500SOL    HW1 1499   1.428   2.899   1.786 -1.3034  2.2927  0.3576
  500SOL    HW2 1500   1.459   2.782   1.652  0.8681 -1.3173 -1.2622
  501SOL     OW 1501   0.790   1.149   2.247 -0.5350  0.3847  0.4048
  501SOL    HW1 1502   0.716   1.079   2.252  1.5660  2.4703  0.8884
  501SOL    HW2 1503   0.850   1.143   2.155  1.0164 -1.1846  1.2394
  502SOL     OW 1504   2.601   0.951   1.785 -0.6402 -0.4612 -0.0497
  502SOL    HW1 1505   2.589   0.963   1.679 -0.4484 -0.2586 -1.6527
  502SOL    HW2 1506   2.618   0.851   1.809 -1.2899 -1.8311 -0.0041
  503SOL     OW 1507   1.299   0.159   0.604 -0.0998  0.1773 -0.4902
  503SOL    HW1 1508   1.226   0.224   0.627  0.7720 -0.1584 -1.1797
  503SOL    HW2 1509   1.387   0.194   0.638 -1.2816 -0.9584  2.1293
  504SOL     OW 1510   3.023   2.345   1.492  0.0123  0.0828 -0.1574
  504SOL    HW1 1511   2.986   2.421   1.549 -0.0718 -0.2121 -0.4189
  504SOL    HW2 1512   3.045   2.259   1.547  0.5669 -0.9195 -1.1106
  505SOL     OW 1513   2.259   1.159   1.411  0.3549  0.2398  0.3355
  505SOL    HW1 1514   2.252   1.215   1.319 -0.3852  0.9048 -3.3901
  505SOL    HW2 1515   2.342   1.201   1.459  0.2695  0.4198 -0.3352
  506SOL     OW 1516   1.947   0.196   1.807 -0.2899  0.3328 -0.2122
  506SOL    HW1 1517   2.027   0.132   1.805 -1.0337 -3.6478  0.8618
  506SOL    HW2 1518   1.971   0.294   1.836 -0.9888  0.9721  1.2321
  507SOL     OW 1519   0.549   0.716   2.188  0.3146 -0.3014 -0.0931
  507SOL    HW1 1520   0.460   0.661   2.166 -3.0835 -2.2896 -0.8833
  507SOL    HW2 1521   0.634   0.652   2.185 -0.6180 -0.3260 -1.0253
  508SOL     OW 1522   0.331   1.664   0.782 -0.1853  0.0876  0.2043
  508SOL    HW1 1523   0.369   1.731   0.717 -1.2048  0.1745  2.5264
  508SOL    HW2 1524   0.289   1.709   0.863  0.8826 -1.7527  2.3658
  509SOL     OW 1525   1.292   1.190   2.459 -0.6005  0.2020 -0.5867
  509SOL    HW1 1526   1.364   1.160   2.387  0.7983 -0.9169  0.8569
  509SOL    HW2 1527   1.202   1.145   2.450  2.7420 -4.1835  0.9974
  510SOL     OW 1528   1.275   2.071   2.216 -0.6183  0.1516  0.4783
  510SOL    HW1 1529   1.307   2.063   2.112  1.7239  2.6541 -0.6734
  510SOL    HW2 1530   1.198   2.004   2.238  0.0122  0.1395 -1.2320
  511SOL     OW 1531   3.022   2.716   1.261 -0.0797 -0.3894  0.5013
  511SOL    HW1 1532   3.032   2.705   1.160  1.9596  0.8846 -2.2235
  511SOL    HW2 1533   2.922   2.720   1.291 -1.6303  0.2093  2.1315
  512SOL     OW 1534   2.385   0.439   1.365  0.3230  0.5219  0.0814
  512SOL    HW1 1535   2.286   0.477   1.365 -2.7318  2.2517 -2.1105
  512SOL    HW2 1536   2.419   0.383   1.281  1.5785  1.4875 -1.2071
  513SOL     OW 1537   2.566   2.171   0.932 -0.2942 -0.0690 -0.0877
  513SOL    HW1 1538   2.506   2.232   0.865  0.8149  4.0379  2.0294
  513SOL    HW2 1539   2.666   2.180   0.909  0.8997  2.2867  0.7149
  514SOL     OW 1540   0.669   2.746   0.397  0.1624  1.2791  0.4235
  514SOL    HW1 1541   0.690   2.769   0.300  0.5433 -1.4935  0.2909
  514SOL    HW2 1542   0.671   2.830   0.462 -1.1673  3.2850 -1.3685
  515SOL     OW 1543   1.919   1.377   2.389 -0.0040 -0.0199 -0.3667
  515SOL    HW1 1544   1.924   1.327   2.293 -1.5818 -2.3670 -2.3206
  515SOL    HW2 1545   1.863   1.317   2.452 -1.5457  0.4953 -0.3707
  516SOL     OW 1546   0.291   0.305   1.895 -0.0508  0.4604  0.0377
  516SOL    HW1 1547   0.382   0.259   1.909  0.7109 -1.2998 -1.0583
  516SOL    HW2 1548   0.219   0.243   1.850  0.9316  1.2912  1.9126
  517SOL     OW 1549   0.472   0.138   1.139 -0.0480 -0.7861 -0.3783
  517SOL    HW1 1550   0.539   0.109   1.207 -1.4374  0.6008 -0.0991
  517SOL    HW2 1551   0.378   0.102   1.152 -3.1494 -1.3159 -0.5604
  518SOL     OW 1552   2.123   3.083   1.793 -0.2138  0.1316  0.0119
  518SOL    HW1 1553   2.182   3.166   1.818  0.2708  2.4538  0.5520
  518SOL    HW2 1554   2.147   3.034   1.709 -1.5411 -1.4176 -1.7687
  519SOL     OW 1555   2.314   2.151   2.509 -0.4606 -0.4080 -0.3942
  519SOL    HW1 1556   2.297   2.144   2.608 -0.9335  0.4851  1.7649
  519SOL    HW2 1557   2.347   2.249   2.486 -0.1430  2.9692  1.2353
  520SOL     OW 1558   1.823   2.731   1.727 -0.2141 -0.5223  0.1796
  520SOL    HW1 1559   1.748   2.677   1.773 -2.9226  0.3231  0.5513
  520SOL    HW2 1560   1.918   2.676   1.712  0.9796 -2.4214 -1.2085
  521SOL     OW 1561   0.555   0.003   2.106 -0.3434 -0.1885 -0.3624
  521SOL    HW1 1562   0.457   0.003   2.135  0.9287 -1.7289 -0.0061
  521SOL    HW2 1563   0.616  -0.009   2.192  1.2054  1.7867  1.1691
  522SOL     OW 1564   0.221   1.861   1.501 -0.3449 -0.4892  0.6016
  522SOL    HW1 1565   0.267   1.914   1.581 -2.9041 -0.5237  1.2899
  522SOL    HW2 1566   0.179   1.922   1.425  0.4997  0.9711  0.0616
  523SOL     OW 1567   2.183   2.921   1.515 -0.4215 -0.0956 -0.1695
  523SOL    HW1 1568   2.241   2.835   1.509  1.8865  0.7791 -0.8331
  523SOL    HW2 1569   2.096   2.908   1.459  2.1795  1.2534  1.9330
  524SOL     OW 1570   0.189   2.781   2.823 -0.0104  0.2714  0.7910
  524SOL    HW1 1571   0.160   2.852   2.888  1.8648 -1.6640 -1.9744
  524SOL    HW2 1572   0.288   2.797   2.779  1.5986  2.0553 -2.7558
  525SOL     OW 1573   2.173   2.051   0.442  0.5096  0.0065 -1.1260
  525SOL    HW1 1574   2.147   1.992   0.529 -4.3396 -1.6534  0.4630
  525SOL    HW2 1575   2.194   1.986   0.365 -1.1555 -0.5156 -0.0116
  526SOL     OW 1576   0.412   1.548   1.831  0.5486 -0.4808  0.2311
  526SOL    HW1 1577   0.456   1.594   1.913  0.8414  3.5239  1.8727
  526SOL    HW2 1578   0.440   1.457   1.805  1.8117 -0.1065 -1.2542
  527SOL     OW 1579   1.068   2.917   1.210  0.6176 -0.5285 -0.3282
  527SOL    HW1 1580   1.098   2.823   1.248  1.7257  1.5686  0.9480
  527SOL    HW2 1581   1.135   2.994   1.225 -1.8374 -2.1201 -0.4967
  528SOL     OW 1582   1.361   2.340   0.538 -0.3412  0.0943 -0.3262
  528SOL    HW1 1583   1.404   2.247   0.559  1.0684 -2.7455  0.4444
  528SOL    HW2 1584   1.405   2.422   0.591  1.1708 -0.7641 -2.7119
  529SOL     OW 1585   1.912   1.734   0.804  0.5651  0.5881 -0.7227
  529SOL    HW1 1586   1.847   1.741   0.726 -1.9021  0.1581 -1.7789
  529SOL    HW2 1587   1.922   1.825   0.853  0.3789  0.7041  0.4238
  530SOL     OW 1588   0.452   2.547   0.157 -0.7332  0.4868  0.1988
  530SOL    HW1 1589   0.443   2.508   0.250 -0.2887  3.8701 -2.8290
  530SOL    HW2 1590   0.451   2.473   0.083  1.1741  0.5030  0.1270
  531SOL     OW 1591   1.832   0.978   1.083 -0.2278 -0.4594  0.6599
  531SOL    HW1 1592   1.769   0.911   1.034 -1.9697 -0.8034  0.1689
  531SOL    HW2 1593   1.795   1.013   1.170 -1.3069 -0.5093  0.5322
  532SOL     OW 1594   0.295   1.218   0.701 -0.2888 -0.9639 -0.0903
  532SOL    HW1 1595   0.359   1.216   0.622  1.4156 -2.9671  0.8097
  532SOL    HW2 1596   0.251   1.125   0.715 -1.0812 -1.4693 -3.2048
  533SOL     OW 1597   1.790   0.022   2.550 -0.3347 -0.2781  0.5939
  533SOL    HW1 1598   1.893   0.006   2.561  0.0872 -0.6222  0.9638
  533SOL    HW2 1599   1.749   0.041   2.640  0.3409  0.3320  1.8156
  534SOL     OW 1600   0.221   0.201   1.524  0.5862  0.6199 -0.2202
  534SOL    HW1 1601   0.310   0.246   1.489  2.4965 -1.5165 -0.2684
  534SOL    HW2 1602   0.139   0.269   1.529  0.7145 -1.1819  0.4583
  535SOL     OW 1603   1.846   0.316   0.221  0.2583  0.1092  0.0431
  535SOL    HW1 1604   1.879   0.359   0.309 -2.0616  2.2469 -3.2866
  535SOL    HW2 1605   1.749   0.272   0.237 -0.6898 -0.2065  1.3309
  536SOL     OW 1606   1.296   2.630   0.936  1.0876 -0.3802  0.3822
  536SOL    HW1 1607   1.345   2.541   0.941  0.4971  0.2313 -5.2089
  536SOL    HW2 1608   1.201   2.617   0.889  0.2865  1.3640 -0.8211
  537SOL     OW 1609   0.901   0.212   2.360 -0.3785 -0.0537 -0.1719
  537SOL    HW1 1610   0.939   0.217   2.262 -0.0901 -0.7540 -2.5585
  537SOL    HW2 1611   0.798   0.198   2.354 -2.2951  3.0011 -3.2876
  538SOL     OW 1612   1.662   2.335   1.511 -0.0475 -0.7800 -0.6305
  538SOL    HW1 1613   1.656   2.236   1.483 -3.7787  1.5848 -1.3333
  538SOL    HW2 1614   1.745   2.384   1.474  0.4860  0.1899  1.8611
  539SOL     OW 1615   0.181   1.596   2.700 -0.3638 -0.3516 -0.3363
  539SOL    HW1 1616   0.091   1.591   2.639 -1.0970 -1.2962 -0.8020
  539SOL    HW2 1617   0.216   1.697   2.715  2.2859  2.0839  1.1732
  540SOL     OW 1618   2.715   1.697   1.988 -0.3233 -0.2830 -0.3817
  540SOL    HW1 1619   2.651   1.617   1.979  2.0311  2.5676  0.0009
  540SOL    HW2 1620   2.673   1.786   1.957  3.3359 -1.4748  3.9756
  541SOL     OW 1621   0.436   2.330   3.079  0.0100  0.5384  0.1712
  541SOL    HW1 1622   0.469   2.275   3.160  3.3503 -2.4834  1.8405
  541SOL    HW2 1623   0.340   2.300   3.042 -0.1275 -1.1241 -1.7339
  542SOL     OW 1624   2.239   2.571   0.478  0.2080 -0.2657 -0.2289
  542SOL    HW1 1625   2.213   2.661   0.435  0.7829  0.8545  2.4220
  542SOL    HW2 1626   2.150   2.512   0.496 -0.2695 -0.8983 -1.6673
  543SOL     OW 1627   0.988   1.794   1.716 -0.0063 -0.0525 -0.0090
  543SOL    HW1 1628   0.986   1.834   1.809  0.6511 -2.1572  0.4266
  543SOL    HW2 1629   0.928   1.848   1.647 -1.2343 -0.3105  0.6383
  544SOL     OW 1630   0.912   0.413   0.224 -0.1627 -0.3346 -0.1050
  544SOL    HW1 1631   0.935   0.379   0.320 -2.0501 -1.4457 -0.6542
  544SOL    HW2 1632   0.948   0.348   0.150  1.3026  0.1181  0.0167
  545SOL     OW 1633   1.134   1.721   0.604 -0.4986  0.2143  0.2709
  545SOL    HW1 1634   1.225   1.732   0.654  1.3417 -1.7241  0.3710
  545SOL    HW2 1635   1.135   1.757   0.506  0.4728 -2.0079 -1.8402
  546SOL     OW 1636   2.652   1.540   0.005 -0.1423 -0.0542 -1.0192
  546SOL    HW1 1637   2.563   1.531  -0.044  1.5693  0.8259  3.2776
  546SOL    HW2 1638   2.643   1.506   0.104 -0.8005 -1.2138  0.7688
  547SOL     OW 1639   0.537   0.018   2.780 -0.1009  0.1006 -0.0900
  547SOL    HW1 1640   0.607  -0.031   2.718  1.8030 -1.1695  1.2351
  547SOL    HW2 1641   0.553   0.016   2.884  1.0199 -1.3245 -2.1238
  548SOL     OW 1642   2.074   0.834   3.031 -0.5313  0.1969  0.0435
  548SOL    HW1 1643   1.976   0.822   3.055 -1.7406 -1.0000 -0.2718
  548SOL    HW2 1644   2.109   0.931   3.055 -0.4186  1.0021 -1.2258
  549SOL     OW 1645   0.623   0.466   0.176  0.4636  1.1749 -0.0250
  549SOL    HW1 1646   0.601   0.544   0.110  0.4133 -0.3629 -2.7907
  549SOL    HW2 1647   0.718   0.469   0.213  2.4356 -2.3558  1.5638
  550SOL     OW 1648   2.564   2.863   2.859 -0.1995 -0.1288  0.0045
  550SOL    HW1 1649   2.527   2.782   2.915 -1.3188 -0.1315 -2.8675
  550SOL    HW2 1650   2.567   2.836   2.756  0.7489 -1.0623  3.3957
  551SOL     OW 1651   0.259   0.910   0.186 -0.0487  0.4163  1.0889
  551SOL    HW1 1652   0.338   0.843   0.209  2.5335  0.0248 -0.0885
  551SOL    HW2 1653   0.226   0.958   0.271  1.1321 -0.0702  2.3220
  552SOL     OW 1654   0.782   2.831   1.859  0.5397  0.4741 -0.7358
  552SOL    HW1 1655   0.735   2.870   1.939 -1.4104  2.5158 -0.8918
  552SOL    HW2 1656   0.844   2.899   1.802  2.1702  2.1755 -2.3953
  553SOL     OW 1657   3.066   2.533   0.357  0.1870 -0.3169 -0.0229
  553SOL    HW1 1658   3.030   2.438   0.334  0.3736 -2.7606 -1.7700
  553SOL    HW2 1659   3.014   2.585   0.431  1.1559  3.1783  1.8611
  554SOL     OW 1660   2.224   0.309   0.560  0.5568  0.0941  0.4114
  554SOL    HW1 1661   2.313   0.309   0.501  2.8154  2.6770  0.4772
  554SOL    HW2 1662   2.228   0.256   0.647 -0.1490  0.7164 -1.6142
  555SOL     OW 1663   0.416   2.907   2.431  0.1445 -0.6439  0.3289
  555SOL    HW1 1664   0.315   2.917   2.416  1.6978  2.6412 -1.7280
  555SOL    HW2 1665   0.463   2.828   2.388  0.1481  0.7920  1.3657
  556SOL     OW 1666   0.915   2.366   1.693  0.2234  0.5622 -0.0847
  556SOL    HW1 1667   0.936   2.460   1.732  0.8710  1.2136 -1.4434
  556SOL    HW2 1668   0.977   2.339   1.616 -0.4468 -0.6314  0.7470
  557SOL     OW 1669   0.129   2.099   0.116 -0.3444 -0.3445  0.1254
  557SOL    HW1 1670   0.051   2.034   0.100 -0.6010 -0.4873  0.5786
  557SOL    HW2 1671   0.137   2.178   0.046  1.4545  2.7432  0.3021
  558SOL     OW 1672   2.957   2.273   0.333 -0.2980 -0.0524  0.4158
  558SOL    HW1 1673   2.882   2.202   0.334 -1.1722  1.1998  0.0066
  558SOL    HW2 1674   2.986   2.306   0.237 -0.0388 -0.9848 -0.4281
  559SOL     OW 1675   0.417   2.267   1.340 -0.7864  0.0605 -0.4238
  559SOL    HW1 1676   0.340   2.301   1.284 -0.1480  0.7604 -1.6817
  559SOL    HW2 1677   0.454   2.174   1.307  1.1499  1.0129 -1.2147
  560SOL     OW 1678   2.091   1.118   3.082 -0.2229 -0.5849 -0.4783
  560SOL    HW1 1679   2.008   1.176   3.087  2.5117  2.1600  0.3547
  560SOL    HW2 1680   2.175   1.176   3.099  1.8384 -1.2937 -0.4367
  561SOL     OW 1681   3.012   1.950   0.003 -0.4967 -0.2986  0.0631
  561SOL    HW1 1682   2.987   1.882   0.078 -0.8145 -1.7813  0.8166
  561SOL    HW2 1683   2.944   2.019  -0.022  0.6421  0.7739 -3.2561
  562SOL     OW 1684   0.900   2.142   2.350  0.4293 -0.3322  0.2037
  562SOL    HW1 1685   0.800   2.145   2.372  0.9879  2.4574  0.4724
  562SOL    HW2 1686   0.967   2.175   2.426  0.3407  0.4138 -1.9197
  563SOL     OW 1687   0.687   2.447   2.601 -0.0281 -0.2866 -0.0499
  563SOL    HW1 1688   0.779   2.398   2.608  2.1684 -2.5381  0.5601
  563SOL    HW2 1689   0.656   2.491   2.685  0.4518 -2.5249 -0.2645
  564SOL     OW 1690   2.738   1.321   2.859  0.4219  0.3962  0.4585
  564SOL    HW1 1691   2.661   1.319   2.928  1.4583 -0.6929  0.4938
  564SOL    HW2 1692   2.776   1.417   2.857  0.1709  0.3505  3.2763
  565SOL     OW 1693   2.531   1.970   2.567  0.3044  0.0719 -0.0715
  565SOL    HW1 1694   2.450   2.012   2.517 -1.7301 -0.3809 -0.7697
  565SOL    HW2 1695   2.524   1.992   2.668 -3.4120 -0.6160  0.1794
  566SOL     OW 1696   1.986   2.876   1.337  0.9389  0.0789 -0.0725
  566SOL    HW1 1697   1.934   2.786   1.337  1.6408  0.5477  0.6356
  566SOL    HW2 1698   2.022   2.905   1.243 -0.0263  0.6153  1.3895
  567SOL     OW 1699   2.427   0.117   2.195  0.4021  0.2520  0.1208
  567SOL    HW1 1700   2.416   0.101   2.093 -1.0677 -1.2152 -0.7728
  567SOL    HW2 1701   2.335   0.106   2.250  0.8476  0.4497 -0.0060
  568SOL     OW 1702   1.531   1.811   0.320  0.8139 -0.2218 -0.8612
  568SOL    HW1 1703   1.472   1.851   0.241 -0.8430 -1.3051 -0.1123
  568SOL    HW2 1704   1.578   1.888   0.375 -0.0497  2.5571  1.8142
  569SOL     OW 1705   0.302   0.629   0.797  0.4945  0.5254  0.3348
  569SOL    HW1 1706   0.370   0.564   0.758  1.5356 -1.7407  2.4316
  569SOL    HW2 1707   0.212   0.594   0.828 -0.7872  0.0714 -0.0368
  570SOL     OW 1708   0.629   0.762   2.828 -0.1460 -0.6007 -0.4536
  570SOL    HW1 1709   0.667   0.784   2.736 -0.1083 -2.8369 -0.5962
  570SOL    HW2 1710   0.627   0.843   2.895 -0.3677  2.7531 -0.6891
  571SOL     OW 1711   0.857   3.065   1.119  0.4678 -0.2368 -0.6408
  571SOL    HW1 1712   0.883   3.119   1.034  0.3614  0.7329  0.7519
  571SOL    HW2 1713   0.938   3.013   1.162  0.3776  2.1115  0.7774
  572SOL     OW 1714   1.564   2.632   1.170  0.1702  0.3187 -0.5186
  572SOL    HW1 1715   1.502   2.570   1.225  2.3875 -1.6160 -3.3041
  572SOL    HW2 1716   1.513   2.711   1.128  0.0403 -1.0809 -0.6821
  573SOL     OW 1717   2.938   0.445   2.058 -0.5609  0.2887 -0.6182
  573SOL    HW1 1718   2.886   0.356   2.071 -0.5078 -1.0250 -0.1064
  573SOL    HW2 1719   2.873   0.514   2.016  0.1052 -3.3002  0.9684
  574SOL     OW 1720   0.208   1.788   1.003 -0.2671 -0.0076 -0.0910
  574SOL    HW1 1721   0.185   1.885   0.973  1.5910  2.1717  0.6734
  574SOL    HW2 1722   0.148   1.741   1.075 -0.5207 -0.3270 -0.7112
  575SOL     OW 1723   0.810   2.167   0.969 -0.5284  0.1747 -0.3767
  575SOL    HW1 1724   0.828   2.199   1.067  0.0584 -0.7375 -0.7824
  575SOL    HW2 1725   0.868   2.213   0.897 -0.9290  0.1603  0.4177
  576SOL     OW 1726   2.936   2.915   1.716  0.3895  0.1498  0.2128
  576SOL    HW1 1727   2.885   2.848   1.652 -1.7691  0.6078 -1.8529
  576SOL    HW2 1728   2.948   3.012   1.672 -0.8358  3.8391 -0.4545
  577SOL     OW 1729   2.552   1.251   3.084  0.0283  0.2067 -0.0760
  577SOL    HW1 1730   2.565   1.156   3.036 -0.6888 -3.5679 -0.0862
  577SOL    HW2 1731   2.612   1.265   3.167 -0.8342  0.9644  2.2327
  578SOL     OW 1732   1.332   2.713   2.576 -0.3015  0.3748 -0.2227
  578SOL    HW1 1733   1.239   2.672   2.552  1.5178  1.4116  0.0427
  578SOL    HW2 1734   1.344   2.812   2.555 -0.4322 -2.7798  0.7696
  579SOL     OW 1735   0.117   2.505   0.118 -0.1092  0.4586 -0.8090
  579SOL    HW1 1736   0.065   2.534   0.205 -1.1593 -0.4227 -1.3433
  579SOL    HW2 1737   0.219   2.514   0.125  0.8812  1.7167 -0.9584
  580SOL     OW 1738   1.018   2.639   0.390 -0.2282 -0.6618 -0.1940
  580SOL    HW1 1739   1.103   2.663   0.331  0.5742  0.3863  0.0660
  580SOL    HW2 1740   0.942   2.587   0.337  0.4664 -0.9857  2.7126
  581SOL     OW 1741   1.250   2.634   1.528  0.4934 -0.0520 -0.2625
  581SOL    HW1 1742   1.299   2.547   1.502 -1.0565 -1.7943  0.3741
  581SOL    HW2 1743   1.275   2.716   1.470 -2.9770  1.9399  0.1579
  582SOL     OW 1744   1.499   0.074   1.855 -0.1849 -0.1766 -0.0852
  582SOL    HW1 1745   1.505   0.169   1.903 -0.1897  0.6756 -0.8317
  582SOL    HW2 1746   1.580   0.047   1.798 -1.6997  1.1600  0.2986
  583SOL     OW 1747   2.486   2.967   0.545  0.0959 -0.0904  0.3806
  583SOL    HW1 1748   2.507   2.893   0.475 -1.6214  0.6950 -1.9205
  583SOL    HW2 1749   2.430   2.942   0.631  2.7795 -2.3299 -3.2501
  584SOL     OW 1750   1.610   1.030   2.100  0.1383  0.1269 -0.6902
  584SOL    HW1 1751   1.644   1.091   2.021  0.9464  0.4472 -2.2277
  584SOL    HW2 1752   1.678   1.025   2.181 -0.4271  2.4166 -0.3782
  585SOL     OW 1753   2.096   2.624   2.875  0.1427  0.0588  0.2944
  585SOL    HW1 1754   2.110   2.526   2.843 -0.3197  4.1540  4.1299
  585SOL    HW2 1755   1.993   2.650   2.884 -0.6887 -1.9772  1.7152
  586SOL     OW 1756   2.732   0.238   1.515 -0.1612 -0.4227 -0.6061
  586SOL    HW1 1757   2.774   0.327   1.560 -0.8890  0.2170  2.3685
  586SOL    HW2 1758   2.643   0.215   1.562 -1.7637  2.8587  0.0320
  587SOL     OW 1759   1.957   1.616   2.729  0.0153 -0.2262 -0.1537
  587SOL    HW1 1760   2.012   1.551   2.668  0.4057  0.6768  0.7116
  587SOL    HW2 1761   2.022   1.678   2.787 -1.0005 -0.4771  2.1330
  588SOL     OW 1762   0.495   2.728   2.210 -1.1043  0.3413  0.2600
  588SOL    HW1 1763   0.405   2.755   2.167 -1.1171 -0.0467 -1.7676
  588SOL    HW2 1764   0.490   2.645   2.275  0.9841 -0.7853  0.8482
  589SOL     OW 1765   2.105   1.447   2.576 -0.0560 -0.2288 -0.7745
  589SOL    HW1 1766   2.043   1.397   2.508  1.1195  2.5340 -0.8663
  589SOL    HW2 1767   2.206   1.418   2.572  1.1989 -0.3975  1.5663
  590SOL     OW 1768   2.350   1.676   2.021  0.4426 -0.1769  0.5493
  590SOL    HW1 1769   2.442   1.642   1.983  0.1039 -0.7345  0.9498
  590SOL    HW2 1770   2.359   1.733   2.109 -1.7196 -0.9076  1.2075
  591SOL     OW 1771   1.360   2.427   0.267 -0.8222 -0.0774 -0.4901
  591SOL    HW1 1772   1.454   2.452   0.227 -0.4849 -0.3012 -0.0290
  591SOL    HW2 1773   1.360   2.396   0.369 -0.6618  0.7651 -0.9849
  592SOL     OW 1774   1.737   2.361   0.777  0.5140  0.4407  0.3991
  592SOL    HW1 1775   1.700   2.371   0.682 -0.5290  2.1260 -0.8559
  592SOL    HW2 1776   1.842   2.346   0.778 -0.1323  0.3730 -0.2383
  593SOL     OW 1777   0.640   0.212   0.064 -0.3793  1.1714  0.3723
  593SOL    HW1 1778   0.727   0.202   0.010 -2.5298  1.9893 -1.4649
  593SOL    HW2 1779   0.616   0.311   0.096  0.0998 -2.9252  0.2357
  594SOL     OW 1780   0.932   1.912   2.687  0.6160 -0.4006 -0.1424
  594SOL    HW1 1781   1.028   1.948   2.677  0.8230  0.7872  0.8629
  594SOL    HW2 1782   0.872   1.976   2.745 -1.6050 -2.7829  0.1009
  595SOL     OW 1783   1.541   0.037   1.022  0.3403  0.0369 -0.2387
  595SOL    HW1 1784   1.621  -0.031   1.033  1.1842 -0.9920 -0.1560
  595SOL    HW2 1785   1.487   0.014   0.936 -2.0392 -2.3987 -1.8229
  596SOL     OW 1786   3.076   1.431   2.222 -0.7269  0.3924 -0.2764
  596SOL    HW1 1787   2.979   1.444   2.202  0.1758 -2.9008 -3.3450
  596SOL    HW2 1788   3.114   1.483   2.306  0.5120  2.6955 -1.2709
  597SOL     OW 1789   2.056   2.609   1.623 -0.0448  0.1632  0.1684
  597SOL    HW1 1790   2.072   2.535   1.559 -0.3486  3.7646  3.1027
  597SOL    HW2 1791   2.128   2.608   1.694 -1.3650  1.2416  0.8204
  598SOL     OW 1792   2.470   2.928   1.376 -0.6627 -0.2658  0.2854
  598SOL    HW1 1793   2.539   2.989   1.417 -0.7060 -1.7343  1.6146
  598SOL    HW2 1794   2.482   2.921   1.275 -0.2719  2.0707  0.4858
  599SOL     OW 1795   2.906   0.386   2.452  0.1172  0.5220 -0.2270
  599SOL    HW1 1796   2.979   0.446   2.410  1.2269 -2.1166  0.7583
  599SOL    HW2 1797   2.810   0.407   2.416  0.6802  1.3585 -2.7157
  600SOL     OW 1798   2.811   1.135   2.672  0.3134  0.1948  0.0395
  600SOL    HW1 1799   2.764   1.045   2.673  1.0713  2.5129 -0.6821
  600SOL    HW2 1800   2.773   1.208   2.737  1.6478 -1.9488 -1.8069
  601SOL     OW 1801   3.044   1.241   2.000  0.3149  0.0731 -0.7064
  601SOL    HW1 1802   2.989   1.306   1.941  1.5995 -0.4904 -0.5949
  601SOL    HW2 1803   3.102   1.299   2.069  2.0150  2.0584  0.9057
  602SOL     OW 1804   1.460   1.712   2.361 -0.8718  0.1416  0.3980
  602SOL    HW1 1805   1.416   1.616   2.362 -2.3891 -2.1702 -1.2024
  602SOL    HW2 1806   1.562   1.707   2.368  1.3776  1.0706 -0.0642
  603SOL     OW 1807   0.644   1.262   2.689  0.3191  0.3941 -0.5047
  603SOL    HW1 1808   0.552   1.247   2.640 -1.3914  1.2691  0.6828
  603SOL    HW2 1809   0.715   1.188   2.679 -2.0301  2.1737 -2.0859
  604SOL     OW 1810   2.405   0.976   0.149  0.1324  0.2408  0.6351
  604SOL    HW1 1811   2.486   1.022   0.111 -3.3199 -0.0989 -2.2248
  604SOL    HW2 1812   2.388   0.886   0.099 -0.4921 -1.0896 -1.2938
  605SOL     OW 1813   2.660   1.151   1.942 -0.4373  0.2832  0.0505
  605SOL    HW1 1814   2.620   1.073   1.881  0.3379 -1.3537 -1.2256
  605SOL    HW2 1815   2.714   1.114   2.027  1.2958 -1.0439  1.4004
  606SOL     OW 1816   1.509   2.494   2.636  0.0565 -0.6888  0.5998
  606SOL    HW1 1817   1.421   2.551   2.632 -0.5321  2.4447  0.6432
  606SOL    HW2 1818   1.505   2.405   2.583  1.5736  2.0870 -2.0825
  607SOL     OW 1819   1.391   1.593   0.385 -0.1287  0.1752  0.0577
  607SOL    HW1 1820   1.344   1.595   0.479  2.0229  0.6500  0.3860
  607SOL    HW2 1821   1.460   1.670   0.372  0.9178  1.1673  1.0432
  608SOL     OW 1822   1.444   2.830   0.423 -0.3469  0.1584 -0.1840
  608SOL    HW1 1823   1.510   2.889   0.366 -2.2122 -1.9882 -1.5804
  608SOL    HW2 1824   1.364   2.884   0.461  1.1195 -0.9374  1.9836
  609SOL     OW 1825   1.269   1.370   0.272 -0.7413  0.0992 -0.2269
  609SOL    HW1 1826   1.300   1.471   0.282 -1.4124  3.2856  0.1214
  609SOL    HW2 1827   1.180   1.351   0.316  1.7005 -0.3422  1.2770
  610SOL     OW 1828   2.970   1.131   2.263  0.3441  0.3152  0.1537
  610SOL    HW1 1829   2.967   1.026   2.279 -2.1988 -0.0503  0.3998
  610SOL    HW2 1830   2.974   1.159   2.163  3.4708  0.2029 -1.5751
  611SOL     OW 1831   2.530   0.311   1.166  0.6339  0.1960  0.3461
  611SOL    HW1 1832   2.495   0.217   1.197 -1.1008  0.1124  0.4296
  611SOL    HW2 1833   2.628   0.329   1.193  0.7337  1.1916  0.3480
  612SOL     OW 1834   0.821   2.235   1.251 -0.1488 -0.0942 -0.2092
  612SOL    HW1 1835   0.792   2.138   1.270  1.3147  0.1939  0.9155
  612SOL    HW2 1836   0.747   2.301   1.224  1.4247 -0.4355  0.5093
  613SOL     OW 1837   0.849   1.443   2.413 -0.4235 -0.5761  0.6206
  613SOL    HW1 1838   0.890   1.510   2.346  0.5522 -0.5666 -0.0655
  613SOL    HW2 1839   0.768   1.390   2.369 -1.3285 -1.0026 -0.6068
  614SOL     OW 1840   1.655   1.609   1.886 -0.1976  0.5044  0.4657
  614SOL    HW1 1841   1.592   1.689   1.898 -0.5023 -0.3293  2.0768
  614SOL    HW2 1842   1.723   1.596   1.963  0.9187  0.1654  0.1297
  615SOL     OW 1843   0.801   1.279   1.711 -0.8007  0.2785  0.1482
  615SOL    HW1 1844   0.730   1.264   1.638  1.2581  3.6100  3.2192
  615SOL    HW2 1845   0.853   1.367   1.702 -0.0942 -3.3837  0.9345
  616SOL     OW 1846   1.090   1.603   2.263 -0.0708  0.1851  0.9515
  616SOL    HW1 1847   1.009   1.575   2.207  1.9105  1.2632  0.7582
  616SOL    HW2 1848   1.108   1.702   2.264  0.1812 -3.5484  0.5122
  617SOL     OW 1849   2.921   1.529   1.602 -0.0139  0.2991  0.0763
  617SOL    HW1 1850   2.891   1.443   1.644 -1.8128 -0.0555 -0.6901
  617SOL    HW2 1851   2.986   1.508   1.521  0.5268 -1.7455 -0.2853
  618SOL     OW 1852   1.903   2.081   1.338  0.5573 -0.2697 -0.2338
  618SOL    HW1 1853   1.881   2.152   1.262  2.5789 -2.0387 -3.4578
  618SOL    HW2 1854   1.902   1.986   1.302 -1.3063  1.8226 -2.2104
  619SOL     OW 1855   1.739   0.503   2.372  0.0694 -0.3619 -0.5128
  619SOL    HW1 1856   1.670   0.545   2.301 -2.2875  2.0013  2.9752
  619SOL    HW2 1857   1.710   0.412   2.413 -1.7504  0.5278 -1.2204
  620SOL     OW 1858   2.324   2.928   0.761  0.3080  0.7212 -0.4660
  620SOL    HW1 1859   2.257   3.002   0.768  1.5662  0.6636  1.8724
  620SOL    HW2 1860   2.307   2.853   0.835  0.2905  0.3401 -2.3190
  621SOL     OW 1861   2.112   1.815   1.320 -1.1621 -0.1789 -0.2834
  621SOL    HW1 1862   2.098   1.837   1.422 -1.9548 -0.5760  2.1099
  621SOL    HW2 1863   2.083   1.718   1.299  1.7814  1.3327 -0.2596
  622SOL     OW 1864   2.270   0.918   1.822  0.3349  0.0081 -0.5232
  622SOL    HW1 1865   2.364   0.933   1.791 -1.3063  1.8495  1.9008
  622SOL    HW2 1866   2.250   0.833   1.881 -0.3415 -1.4821  0.9529
  623SOL     OW 1867   1.351   0.792   2.424  0.0688 -0.1235  0.6866
  623SOL    HW1 1868   1.322   0.719   2.495 -1.3449 -0.2319  0.3435
  623SOL    HW2 1869   1.265   0.833   2.372 -1.5086 -2.7645  1.4646
  624SOL     OW 1870   0.573   0.672   3.099  0.1320 -0.4283  0.3165
  624SOL    HW1 1871   0.630   0.674   3.008 -0.0663 -2.5399 -1.8303
  624SOL    HW2 1872   0.573   0.760   3.157 -0.8366  1.6663 -0.4601
  625SOL     OW 1873   2.777   1.738   0.990 -0.2453 -0.4015 -0.0632
  625SOL    HW1 1874   2.684   1.789   0.998 -0.8695  1.6904 -1.1697
  625SOL    HW2 1875   2.852   1.795   1.034 -0.1814  1.2058 -2.4265
  626SOL     OW 1876   0.622   2.682   1.716  0.0696 -0.4154  0.0266
  626SOL    HW1 1877   0.674   2.754   1.774 -1.6531  0.4431 -0.9211
  626SOL    HW2 1878   0.521   2.678   1.738  1.9494  1.9314  0.4824
  627SOL     OW 1879   0.690   0.944   1.575  0.4566  0.7078 -0.4172
  627SOL    HW1 1880   0.604   0.902   1.530 -4.2056  0.8599 -0.3972
  627SOL    HW2 1881   0.762   0.983   1.513 -0.3762  1.0808 -0.3455
  628SOL     OW 1882   2.494   0.166   0.656  0.3130 -0.4535 -0.3695
  628SOL    HW1 1883   2.547   0.104   0.591 -0.6023 -0.6333  2.3471
  628SOL    HW2 1884   2.401   0.136   0.679 -0.8917  1.5037 -2.5876
  629SOL     OW 1885   1.912   0.935   2.060  0.3875  0.4434  0.3785
  629SOL    HW1 1886   1.918   0.964   1.960 -0.6945 -1.1467  1.4766
  629SOL    HW2 1887   1.900   1.021   2.117  0.1334  1.2474  1.7356
  630SOL     OW 1888   2.929   2.335   0.803 -0.4325  0.1953  0.1513
  630SOL    HW1 1889   2.844   2.393   0.819 -1.9020 -0.3359 -0.3268
  630SOL    HW2 1890   2.907   2.233   0.781 -2.5377  0.9831 -0.1475
  631SOL     OW 1891   3.086   0.154   2.193 -0.0359 -0.1301 -0.1180
  631SOL    HW1 1892   3.141   0.180   2.281  1.4623 -1.1877  0.2145
  631SOL    HW2 1893   3.124   0.181   2.102  0.0195 -2.8138 -0.0511
  632SOL     OW 1894   2.468   2.580   0.642 -0.0594 -1.0110  0.3841
  632SOL    HW1 1895   2.495   2.666   0.691  0.4635  2.0344  1.4959
  632SOL    HW2 1896   2.379   2.587   0.591  1.4599 -1.3707 -2.6644
  633SOL     OW 1897   1.463   1.214   2.685 -0.3033  0.6364  0.0537
  633SOL    HW1 1898   1.449   1.300   2.745 -2.0944  1.9753 -2.7366
  633SOL    HW2 1899   1.391   1.206   2.608  0.5044  1.8461  3.0599
  634SOL     OW 1900   0.621   1.988   0.889  0.1239 -0.3147 -0.4045
  634SOL    HW1 1901   0.541   2.027   0.944 -0.7064  0.9689 -2.7299
  634SOL    HW2 1902   0.703   2.046   0.914 -0.6524 -1.0985  0.0373
  635SOL     OW 1903   2.986   2.353   0.062  0.0420  0.1532  0.0061
  635SOL    HW1 1904   2.932   2.405  -0.009  1.9067 -1.7650 -0.8123
  635SOL    HW2 1905   3.084   2.390   0.061 -1.7639 -0.7050  0.2539
  636SOL     OW 1906   2.355   2.762   1.960 -0.2798 -0.3363 -0.2759
  636SOL    HW1 1907   2.375   2.858   1.982  0.0689  0.6368  2.4783
  636SOL    HW2 1908   2.292   2.715   2.028  1.1861 -0.5888 -0.9570
  637SOL     OW 1909   2.755   0.618   1.968 -0.0553 -0.0244 -0.0068
  637SOL    HW1 1910   2.677   0.629   1.897 -0.5232 -0.4223 -0.2736
  637SOL    HW2 1911   2.779   0.706   2.006 -2.1072 -4.4422  0.7350
  638SOL     OW 1912   2.414   1.849   1.321  0.5656  0.3638 -0.2843
  638SOL    HW1 1913   2.311   1.834   1.301 -0.5164 -2.2560  1.2874
  638SOL    HW2 1914   2.455   1.774   1.376  0.4955 -0.1830  0.4051
  639SOL     OW 1915   1.301   2.194   1.707  0.4015 -0.3009 -0.4901
  639SOL    HW1 1916   1.302   2.297   1.689  0.5788  2.6506 -0.0633
  639SOL    HW2 1917   1.219   2.161   1.767  0.5370 -0.7072  1.4187
  640SOL     OW 1918   0.225   1.191   1.565 -0.0321  0.2834  1.1611
  640SOL    HW1 1919   0.203   1.195   1.669 -0.6687  1.3974  0.4646
  640SOL    HW2 1920   0.291   1.108   1.552  0.2744 -1.5139 -1.5037
  641SOL     OW 1921   2.033   0.287   1.434  0.1457  0.8739  0.0540
  641SOL    HW1 1922   1.992   0.336   1.519 -1.4840  1.7124  0.7462
  641SOL    HW2 1923   2.101   0.212   1.462  0.5280  2.0978 -0.0207
  642SOL     OW 1924   2.018   0.069   0.338 -0.0294 -0.4850 -0.0326
  642SOL    HW1 1925   2.118   0.046   0.360  1.6536  0.5186 -3.4336
  642SOL    HW2 1926   1.983   0.148   0.393 -0.2757  2.0475 -1.9696
  643SOL     OW 1927   2.912   1.789   2.146 -0.1775 -0.3828 -0.7451
  643SOL    HW1 1928   2.838   1.746   2.087  0.5721  0.4421 -1.6964
  643SOL    HW2 1929   2.908   1.893   2.130  1.1577  0.4465  0.9973
  644SOL     OW 1930   2.283   2.413   1.218 -0.4081  0.3213 -0.0982
  644SOL    HW1 1931   2.335   2.334   1.182 -0.1866 -1.6536 -0.2522
  644SOL    HW2 1932   2.240   2.390   1.310 -1.7086 -0.0684  1.1177
  645SOL     OW 1933   0.573   0.844   1.294  0.0923  0.5242  0.1111
  645SOL    HW1 1934   0.469   0.840   1.318 -2.0951 -0.8399 -1.1436
  645SOL    HW2 1935   0.602   0.848   1.194 -0.4887 -1.9793 -1.4227
  646SOL     OW 1936   1.461   1.834   2.036 -0.0561  0.1459  0.1859
  646SOL    HW1 1937   1.530   1.879   1.975 -1.3828 -0.7104 -0.0674
  646SOL    HW2 1938   1.500   1.805   2.128  1.9239  0.6242 -0.7567
  647SOL     OW 1939   0.827   1.068   0.644 -0.1757 -1.4267 -0.2836
  647SOL    HW1 1940   0.885   1.088   0.730 -0.3872 -1.9165  0.1955
  647SOL    HW2 1941   0.773   0.977   0.650  1.1353 -1.8183  0.9247
  648SOL     OW 1942   0.128   0.224   0.236 -0.2686 -0.7826 -0.8093
  648SOL    HW1 1943   0.146   0.142   0.178 -0.1435 -0.9041  1.8512
  648SOL    HW2 1944   0.128   0.317   0.182  1.9912  0.2669 -1.5241
  649SOL     OW 1945   3.006   0.212   0.840 -0.4080  0.5938  0.0637
  649SOL    HW1 1946   3.096   0.163   0.860 -2.5614 -0.7562  3.1769
  649SOL    HW2 1947   3.015   0.313   0.843  0.4141 -1.6953  2.8535
  650SOL     OW 1948   2.710   0.638   1.532  0.1310 -0.7705 -0.0436
  650SOL    HW1 1949   2.609   0.657   1.540 -0.6819  1.5944 -1.5283
  650SOL    HW2 1950   2.761   0.718   1.489 -0.3541  0.6601  0.6240
  651SOL     OW 1951   0.907   1.520   1.639  0.4560 -0.3843 -0.4577
  651SOL    HW1 1952   0.921   1.611   1.689 -0.4376 -1.0513  1.3081
  651SOL    HW2 1953   0.991   1.506   1.580 -1.4843  0.6681  0.9746
  652SOL     OW 1954   2.385   2.396   2.443 -0.8908 -0.5011  0.0533
  652SOL    HW1 1955   2.296   2.447   2.472 -2.2330 -0.1291 -2.4374
  652SOL    HW2 1956   2.444   2.455   2.377  1.8555 -1.0724  0.7524
  653SOL     OW 1957   2.698   1.287   0.243 -0.0761  0.0966  0.5312
  653SOL    HW1 1958   2.718   1.386   0.262 -0.9220  0.5642 -1.0001
  653SOL    HW2 1959   2.773   1.225   0.275  0.7022 -2.1775 -1.1560
  654SOL     OW 1960   1.265   2.221   1.281 -0.0171  0.0344 -0.1877
  654SOL    HW1 1961   1.284   2.134   1.341 -2.1703 -2.1319  0.5950
  654SOL    HW2 1962   1.286   2.203   1.181  2.3432  3.0167 -1.3988
  655SOL     OW 1963   0.175   0.927   1.868  0.6767 -0.0816 -0.4280
  655SOL    HW1 1964   0.254   0.898   1.806  2.1181  1.8332  0.1808
  655SOL    HW2 1965   0.184   1.026   1.890 -0.1225 -1.6860  2.5647
  656SOL     OW 1966   2.546   2.503   2.627 -0.0100 -0.4158 -0.7566
  656SOL    HW1 1967   2.645   2.488   2.607 -0.3678 -1.6852  0.1206
  656SOL    HW2 1968   2.483   2.445   2.564  0.6431 -1.7784  3.5922
  657SOL     OW 1969   3.016   1.017   1.854 -0.4716  0.2638  0.5775
  657SOL    HW1 1970   3.019   1.105   1.914  1.9628 -1.6228  0.9387
  657SOL    HW2 1971   3.107   0.974   1.838  0.8109  0.6909  2.4131
  658SOL     OW 1972   1.711   0.212   2.358  0.5524  0.2329  0.2560
  658SOL    HW1 1973   1.715   0.138   2.435 -0.7758 -0.1026  2.2254
  658SOL    HW2 1974   1.730   0.171   2.268 -2.4223 -2.0474 -0.6018
  659SOL     OW 1975   1.376   0.621   2.794 -0.0570 -0.2187  0.4445
  659SOL    HW1 1976   1.438   0.687   2.844 -1.0853  0.3709  2.6176
  659SOL    HW2 1977   1.281   0.657   2.797  3.1474 -0.9089 -3.1268
  660SOL     OW 1978   1.401   0.338   1.441 -0.0863 -0.0600 -0.4800
  660SOL    HW1 1979   1.395   0.367   1.540 -1.3429 -0.3232 -1.6675
  660SOL    HW2 1980   1.466   0.260   1.411 -1.4272  3.3412 -0.6814
  661SOL     OW 1981   2.413   1.248   0.681 -0.0636 -0.2343  0.6713
  661SOL    HW1 1982   2.404   1.224   0.583 -2.1539 -2.6545 -1.2713
  661SOL    HW2 1983   2.358   1.339   0.696 -4.9436 -0.8172 -0.5294
  662SOL     OW 1984   1.402   0.406   1.736 -0.3264 -0.2871  0.8036
  662SOL    HW1 1985   1.367   0.375   1.827 -1.7664  3.2025 -1.9076
  662SOL    HW2 1986   1.438   0.502   1.738  1.3998 -0.2645 -1.1738
  663SOL     OW 1987   0.865   1.541   2.121 -0.4677  0.5640  0.0322
  663SOL    HW1 1988   0.777   1.549   2.173  2.4276 -0.9663  0.1667
  663SOL    HW2 1989   0.844   1.494   2.026  0.9019  1.3928 -3.7930
  664SOL     OW 1990   1.642   2.088   1.418  0.3321  0.5411 -0.1352
  664SOL    HW1 1991   1.601   2.017   1.480  0.7428 -2.0520 -0.2849
  664SOL    HW2 1992   1.744   2.066   1.393 -0.3962 -0.1091 -3.6386
  665SOL     OW 1993   2.303   0.658   1.959 -0.2602  0.6371  0.0303
  665SOL    HW1 1994   2.272   0.565   1.978  0.0121  1.1010 -0.7116
  665SOL    HW2 1995   2.362   0.701   2.036  0.3639  0.8254 -0.7835
  666SOL     OW 1996   0.515   2.251   0.381  0.1172 -0.0458 -0.4171
  666SOL    HW1 1997   0.549   2.323   0.447 -1.8654 -0.2568  0.6909
  666SOL    HW2 1998   0.412   2.255   0.372  1.3103 -0.1070  1.3075
  667SOL     OW 1999   1.952   0.245   1.056 -0.2440 -0.7578 -0.2839
  667SOL    HW1 2000   1.995   0.334   1.088 -0.3538 -2.0733 -1.0438
  667SOL    HW2 2001   1.879   0.215   1.119  0.2660 -2.4957 -1.2622
  668SOL     OW 2002   2.005   0.494   1.136  0.4604  0.7743  0.2204
  668SOL    HW1 2003   2.084   0.507   1.067  0.1568 -0.0698 -1.9875
  668SOL    HW2 2004   2.032   0.547   1.217  0.8430  1.1240  2.0516
  669SOL     OW 2005   3.066   2.191   1.003  0.6281 -0.1648  0.3812
  669SOL    HW1 2006   3.043   2.226   0.908 -3.0937  0.9105 -2.7386
  669SOL    HW2 2007   3.014   2.238   1.076 -1.8446 -3.1282 -0.7662
  670SOL     OW 2008   2.872   2.325   2.133  0.1241 -0.2789  0.1021
  670SOL    HW1 2009   2.786   2.324   2.193 -2.1080 -0.3613 -1.6834
  670SOL    HW2 2010   2.870   2.409   2.064 -1.9321  1.8867 -0.4737
  671SOL     OW 2011   1.784   1.794   1.494 -0.1168  0.4117 -0.7314
  671SOL    HW1 2012   1.797   1.804   1.391  1.9775  3.5916  0.1033
  671SOL    HW2 2013   1.686   1.811   1.521  0.3980 -1.6326  2.6176
  672SOL     OW 2014   0.463   0.649   2.482 -0.0927 -0.0660 -1.1654
  672SOL    HW1 2015   0.510   0.687   2.394 -1.8355  2.3916 -1.9784
  672SOL    HW2 2016   0.378   0.701   2.501  0.1704 -0.8748 -0.7768
  673SOL     OW 2017   0.130   1.221   1.136  0.4614 -1.1722  0.0354
  673SOL    HW1 2018   0.190   1.292   1.184  1.4113  0.4751  2.0261
  673SOL    HW2 2019   0.184   1.149   1.084  1.6532 -0.0763  0.9057
  674SOL     OW 2020   1.612   3.010   0.316  0.4133  0.1926 -0.1315
  674SOL    HW1 2021   1.582   3.110   0.299  0.0611  0.5445 -2.0247
  674SOL    HW2 2022   1.709   2.989   0.286 -2.3219  0.5125  2.4280
  675SOL     OW 2023   1.715   0.837   2.296 -0.4205 -0.4209 -0.4197
  675SOL    HW1 2024   1.811   0.810   2.285 -0.2476 -0.2112  1.5081
  675SOL    HW2 2025   1.644   0.783   2.242  0.7235 -0.3655 -0.2458
  676SOL     OW 2026   2.552   1.485   1.915 -0.3289  0.5615 -0.4820
  676SOL    HW1 2027   2.495   1.448   1.835  1.7830 -2.7508  3.3472
  676SOL    HW2 2028   2.559   1.422   1.998 -0.8984  0.5939  1.9244
  677SOL     OW 2029   1.919   0.684   0.910 -0.1521  0.3762  0.2936
  677SOL    HW1 2030   1.846   0.689   0.982 -1.5794 -0.4932 -1.0340
  677SOL    HW2 2031   2.002   0.640   0.954 -1.6558 -0.2801 -1.1471
  678SOL     OW 2032   0.078   0.744   1.598 -0.1378 -0.0163 -0.7135
  678SOL    HW1 2033   0.181   0.734   1.607 -1.1672  2.5381  0.2213
  678SOL    HW2 2034   0.029   0.714   1.687 -1.1810 -0.2136  0.6892
  679SOL     OW 2035   2.585   1.179   1.204  0.3264  0.5157  0.6287
  679SOL    HW1 2036   2.499   1.204   1.152  0.1172  0.6637  2.1305
  679SOL    HW2 2037   2.604   1.073   1.200  0.1380  0.5618 -1.5071
  680SOL     OW 2038   2.826   0.447   1.687  0.0191 -0.2460 -0.8101
  680SOL    HW1 2039   2.805   0.517   1.614  2.0440  0.1676 -1.1849
  680SOL    HW2 2040   2.876   0.480   1.766 -3.7485  0.0723 -2.3995
  681SOL     OW 2041   2.956   0.053   1.590 -0.2234  0.1004 -0.1871
  681SOL    HW1 2042   3.032   0.068   1.528  0.0747  2.1231  3.7770
  681SOL    HW2 2043   2.883   0.123   1.572  3.2514  0.0972  1.1361
  682SOL     OW 2044   0.714   0.030   1.338  0.4709  0.3411  0.4218
  682SOL    HW1 2045   0.643  -0.032   1.376 -0.4324  0.9499  0.2283
  682SOL    HW2 2046   0.776  -0.012   1.267 -1.0204  1.4110 -0.0381
  683SOL     OW 2047   1.389   0.186   2.149  0.5114  0.5071  0.6626
  683SOL    HW1 2048   1.388   0.217   2.247 -0.2444  1.4979 -0.6524
  683SOL    HW2 2049   1.466   0.227   2.100 -1.6481 -0.6870 -1.1511
  684SOL     OW 2050   1.466   2.091   0.533  0.0798 -0.4294 -0.5351
  684SOL    HW1 2051   1.517   2.033   0.606  1.5254  3.6655  0.3531
  684SOL    HW2 2052   1.375   2.055   0.509  0.3490  0.6254 -1.1632
  685SOL     OW 2053   2.196   2.065   1.953 -0.5798  0.2222  0.0348
  685SOL    HW1 2054   2.265   2.064   1.876  5.3715  0.6426 -0.4639
  685SOL    HW2 2055   2.234   2.080   2.047 -2.5946 -0.9261  0.0612
  686SOL     OW 2056   1.484   1.843   2.817  1.0157  0.6317  0.0406
  686SOL    HW1 2057   1.528   1.789   2.895  1.6124 -2.9159 -0.9625
  686SOL    HW2 2058   1.385   1.819   2.807  2.7266  2.1004 -3.7778
  687SOL     OW 2059   1.321   2.458   1.969  0.6208 -0.1734  0.0590
  687SOL    HW1 2060   1.312   2.357   1.967  0.4622  1.4323  3.0048
  687SOL    HW2 2061   1.379   2.490   2.051  1.1865  0.3029  0.7610
  688SOL     OW 2062   2.003   1.531   1.783 -0.3937  0.7349 -0.3533
  688SOL    HW1 2063   2.092   1.575   1.772 -1.5045 -0.5068 -1.8232
  688SOL    HW2 2064   1.985   1.469   1.702 -1.3826 -0.5407  2.3513
  689SOL     OW 2065   2.392   1.086   2.769 -0.2623 -0.1103 -0.0290
  689SOL    HW1 2066   2.305   1.029   2.761  1.1516  0.0480  1.3151
  689SOL    HW2 2067   2.450   1.071   2.855 -0.0594 -3.4747 -1.7760
  690SOL     OW 2068   2.225   2.803   0.011 -0.6371  0.1725  0.2032
  690SOL    HW1 2069   2.151   2.781  -0.053  1.8446  0.7824  0.6389
  690SOL    HW2 2070   2.195   2.823   0.109 -1.0620 -2.5343 -3.5708
  691SOL     OW 2071   2.585   0.401   2.132  0.5115  0.5485  0.8031
  691SOL    HW1 2072   2.610   0.300   2.139 -0.8456  0.6806  1.4067
  691SOL    HW2 2073   2.609   0.436   2.038  0.2530 -1.3243  3.1465
  692SOL     OW 2074   2.661   1.215   0.783 -0.3217 -0.0569 -0.6042
  692SOL    HW1 2075   2.560   1.205   0.760 -2.4012  1.0199 -3.0373
  692SOL    HW2 2076   2.683   1.317   0.801 -1.2115  1.2423 -2.7944
  693SOL     OW 2077   2.857   2.975   0.558 -0.2707 -0.6294  0.5482
  693SOL    HW1 2078   2.846   3.045   0.637  2.0761 -1.8767  2.1802
  693SOL    HW2 2079   2.827   3.013   0.467  1.1031 -2.9801  0.1303
  694SOL     OW 2080   2.419   2.216   0.096 -0.1810  0.8135 -0.4359
  694SOL    HW1 2081   2.372   2.298   0.137  1.2146 -1.7554  2.2655
  694SOL    HW2 2082   2.351   2.138   0.068  0.2144 -0.4852 -1.1256
  695SOL     OW 2083   0.516   2.985   1.428  0.4462  0.0640  0.1717
  695SOL    HW1 2084   0.471   2.892   1.439  2.0191 -1.0017  0.6514
  695SOL    HW2 2085   0.466   3.061   1.480  0.6908 -1.3879  2.8405
  696SOL     OW 2086   2.872   2.069   0.769 -0.3098 -0.4093  0.1745
  696SOL    HW1 2087   2.874   1.977   0.817  1.0653  0.7015 -0.3289
  696SOL    HW2 2088   2.851   2.063   0.667 -1.6259  1.7392  0.1214
  697SOL     OW 2089   1.666   1.913   1.851 -0.0538  0.4503  0.3894
  697SOL    HW1 2090   1.737   1.841   1.832 -0.6461 -0.1154 -0.9579
  697SOL    HW2 2091   1.717   2.003   1.866  1.1021 -1.5099  1.0124
  698SOL     OW 2092   2.888   0.421   2.734  0.1521  0.0977  0.2550
  698SOL    HW1 2093   2.919   0.405   2.633  1.2952  0.5689 -0.2824
  698SOL    HW2 2094   2.918   0.339   2.798  1.2999 -1.5370  1.1172
  699SOL     OW 2095   1.571   0.035   2.934 -0.2897 -0.1003  0.2210
  699SOL    HW1 2096   1.518  -0.042   2.887  0.4606  1.1959 -1.3427
  699SOL    HW2 2097   1.614   0.103   2.863 -1.1444  0.1636 -1.8941
  700SOL     OW 2098   1.045   2.309   1.406  0.5899  0.5253 -0.4020
  700SOL    HW1 2099   1.137   2.290   1.360  0.6129 -0.4293 -0.0900
  700SOL    HW2 2100   0.962   2.257   1.364 -2.3733 -0.4355 -2.2720
  701SOL     OW 2101   1.925   2.881   0.006  0.1745  0.4071  0.2286
  701SOL    HW1 2102   1.922   2.822   0.097  4.4074 -1.2356 -0.2529
  701SOL    HW2 2103   1.941   2.984   0.031 -1.0327 -0.1336  2.2787
  702SOL     OW 2104   2.059   1.312   1.940 -0.3989  0.0089  0.2447
  702SOL    HW1 2105   2.154   1.270   1.917 -0.2194 -0.9815  0.4320
  702SOL    HW2 2106   2.050   1.408   1.895  2.8235  0.4271 -0.7545
  703SOL     OW 2107   1.940   0.895   1.467 -0.1153  0.6641 -0.0906
  703SOL    HW1 2108   1.927   0.810   1.529 -0.1912  0.4082 -1.2639
  703SOL    HW2 2109   2.010   0.962   1.511  0.3515 -0.3660 -0.0277
  704SOL     OW 2110   0.291   2.015   1.729 -0.0548 -0.1305  0.7717
  704SOL    HW1 2111   0.343   1.942   1.789  0.5702 -2.0891  5.0750
  704SOL    HW2 2112   0.346   2.100   1.704  0.1502 -1.0719  1.8073
  705SOL     OW 2113   2.507   1.555   0.882  0.9625 -0.0174  0.1134
  705SOL    HW1 2114   2.452   1.475   0.852  1.4086  1.7860  2.5689
  705SOL    HW2 2115   2.607   1.533   0.906  1.7037  1.0638  0.7584
  706SOL     OW 2116   0.714   1.718   1.876  0.0162  0.0051  0.3290
  706SOL    HW1 2117   0.716   1.615   1.865 -0.7373 -0.7479 -0.1689
  706SOL    HW2 2118   0.776   1.752   1.958  0.2403  0.0732  1.8853
  707SOL     OW 2119   2.304   1.179   1.931  0.0578 -0.4706 -1.0053
  707SOL    HW1 2120   2.405   1.190   1.949  0.3573 -0.7675 -2.0644
  707SOL    HW2 2121   2.281   1.076   1.925  1.3600 -2.8080 -0.8941
  708SOL     OW 2122   2.958   0.527   3.024 -0.1293  0.2633  0.3600
  708SOL    HW1 2123   2.953   0.565   2.925 -0.7113  3.0697  0.3103
  708SOL    HW2 2124   3.003   0.430   3.037  2.3214 -1.5473  2.8244
  709SOL     OW 2125   1.863   1.875   0.332 -0.8642 -0.2089 -0.5949
  709SOL    HW1 2126   1.872   1.976   0.334  0.4205 -0.1267 -0.0918
  709SOL    HW2 2127   1.847   1.840   0.235 -0.3995  1.1906 -3.3117
  710SOL     OW 2128   1.719   1.618   2.404 -0.3960  0.0975 -0.6567
  710SOL    HW1 2129   1.766   1.578   2.324  0.6213 -1.1881  2.0522
  710SOL    HW2 2130   1.769   1.582   2.489  1.7931 -0.9076 -0.8977
  711SOL     OW 2131   2.570   2.907   1.042 -0.1916  0.3584  0.8499
  711SOL    HW1 2132   2.553   3.010   1.028 -2.0144  0.4873  1.4554
  711SOL    HW2 2133   2.672   2.882   1.049  0.5854 -0.7650  0.8145
  712SOL     OW 2134   1.413   2.134   1.971  0.4093  0.2837 -0.1323
  712SOL    HW1 2135   1.506   2.173   1.964 -2.3385  1.3832  0.0782
  712SOL    HW2 2136   1.364   2.126   1.883 -0.4941  2.2223  3.6826
  713SOL     OW 2137   2.780   1.465   2.517  0.4407 -0.5132 -0.5434
  713SOL    HW1 2138   2.758   1.368   2.478 -1.4140 -0.2444 -0.7152
  713SOL    HW2 2139   2.689   1.507   2.548 -0.2927 -2.0287 -1.9885
  714SOL     OW 2140   2.643   0.438   2.406  0.2772  0.0341 -0.3902
  714SOL    HW1 2141   2.571   0.401   2.469  1.1141  0.3381 -1.0655
  714SOL    HW2 2142   2.617   0.428   2.311 -0.0026 -1.3149  3.6273
  715SOL     OW 2143   1.539   2.092   1.161 -0.0943 -0.4048  0.0735
  715SOL    HW1 2144   1.447   2.129   1.122 -1.5748  0.6764  0.6860
  715SOL    HW2 2145   1.545   2.093   1.263 -1.0889 -3.0274 -0.8914
  716SOL     OW 2146   1.188   0.139   1.497 -0.4917 -0.7567  0.2935
  716SOL    HW1 2147   1.094   0.146   1.456 -2.0422 -2.2078 -0.1278
  716SOL    HW2 2148   1.241   0.225   1.482  1.0557  4.1591  0.9484
  717SOL     OW 2149   1.142   0.544   1.603  0.4357  0.4790 -0.3955
  717SOL    HW1 2150   1.245   0.526   1.629 -0.4763 -1.3672  4.2356
  717SOL    HW2 2151   1.136   0.549   1.499  1.7163  2.5984 -0.0538
  718SOL     OW 2152   0.662   0.894   0.971  0.0820  0.1502 -0.0420
  718SOL    HW1 2153   0.651   0.888   0.868  0.7687 -0.6283 -2.2917
  718SOL    HW2 2154   0.662   0.998   1.002 -1.6267 -0.1138  1.6445
  719SOL     OW 2155   0.636   1.730   2.313  1.4358  0.0462  0.2861
  719SOL    HW1 2156   0.719   1.753   2.363 -1.5324 -0.0550 -1.5853
  719SOL    HW2 2157   0.586   1.638   2.335  0.2827 -0.1522 -0.5862
  720SOL     OW 2158   2.214   1.131   0.286 -0.2047  0.5088  0.1301
  720SOL    HW1 2159   2.263   1.056   0.232  1.3686 -1.1765 -1.3924
  720SOL    HW2 2160   2.187   1.099   0.379 -2.8302 -1.4695 -1.2318
  721SOL     OW 2161   2.238   3.039   2.067 -0.1498 -0.1387 -0.0177
  721SOL    HW1 2162   2.162   3.036   2.001  1.6931  0.6445  1.6460
  721SOL    HW2 2163   2.219   3.026   2.167  1.0568  0.3140  0.0445
  722SOL     OW 2164   2.304   1.622   0.455 -0.2026 -0.5971 -0.3342
  722SOL    HW1 2165   2.369   1.605   0.375 -0.9440 -1.2329  2.4316
  722SOL    HW2 2166   2.204   1.637   0.428  0.5596 -1.1287  1.7324
  723SOL     OW 2167   2.662   2.687   1.896 -0.6046 -0.5023 -0.2500
  723SOL    HW1 2168   2.686   2.775   1.945 -1.2142 -1.8424 -1.7117
  723SOL    HW2 2169   2.561   2.673   1.895  1.7244  0.4641 -2.4152
  724SOL     OW 2170   0.496   2.493   2.391  0.1739  0.1626  0.4079
  724SOL    HW1 2171   0.413   2.515   2.451  1.2329  1.2654  1.0185
  724SOL    HW2 2172   0.567   2.440   2.444 -0.3308  0.7669 -3.4128
  725SOL     OW 2173   2.361   2.709   1.519  0.3416 -0.3810 -1.0319
  725SOL    HW1 2174   2.436   2.762   1.476 -1.4150 -1.1467  2.6546
  725SOL    HW2 2175   2.382   2.613   1.550  0.7040  3.3445 -0.4137
  726SOL     OW 2176   2.480   2.320   0.731  0.4769  0.2065 -0.1177
  726SOL    HW1 2177   2.443   2.411   0.687 -3.0362  2.7419 -0.9980
  726SOL    HW2 2178   2.475   2.239   0.665  0.8591  3.9539  1.7668
  727SOL     OW 2179   0.155   3.090   0.126 -0.0150  0.1166  0.1470
  727SOL    HW1 2180   0.217   3.111   0.045  1.2213 -0.8807 -0.7052
  727SOL    HW2 2181   0.060   3.061   0.101  1.8730  0.8197  2.4909
  728SOL     OW 2182   2.898   0.681   0.877 -0.3430  0.1088  0.6090
  728SOL    HW1 2183   2.823   0.683   0.804  1.2609  0.0303 -2.1653
  728SOL    HW2 2184   2.861   0.655   0.971  0.4849  0.8251 -0.3720
  729SOL     OW 2185   0.030   2.547   0.726 -0.0876  0.2790 -0.6013
  729SOL    HW1 2186   0.024   2.473   0.805  0.3540 -0.6163 -0.7549
  729SOL    HW2 2187   0.125   2.547   0.683  0.2853  1.3966  2.0966
  730SOL     OW 2188   2.541   0.660   0.815 -0.1870  0.3862  0.5046
  730SOL    HW1 2189   2.542   0.761   0.842  2.5875 -0.9668  2.2197
  730SOL    HW2 2190   2.617   0.641   0.742  3.3271  1.1618  0.1109
  731SOL     OW 2191   0.021   2.181   2.426  0.1674  0.1013  0.2327
  731SOL    HW1 2192   0.042   2.238   2.511  0.8537  0.0522  0.6000
  731SOL    HW2 2193  -0.082   2.182   2.409 -0.6455  1.0210 -0.4088
  732SOL     OW 2194   1.200   2.811   1.986 -0.3956  0.2485  0.1897
  732SOL    HW1 2195   1.217   2.755   2.074 -0.7833  0.4149 -1.4744
  732SOL    HW2 2196   1.193   2.749   1.902  0.7779 -0.0951  1.6453
  733SOL     OW 2197   3.069   0.624   2.220 -0.4467  0.3789  0.0412
  733SOL    HW1 2198   3.145   0.677   2.180  0.4159 -1.5711 -1.9433
  733SOL    HW2 2199   3.029   0.556   2.151 -0.7823  1.4393  1.8143
  734SOL     OW 2200   1.424   0.350   2.680 -0.0940  0.2876 -0.1290
  734SOL    HW1 2201   1.434   0.435   2.740 -0.9781  1.0767  2.2424
  734SOL    HW2 2202   1.332   0.302   2.705 -1.8099 -2.4256  0.0162
  735SOL     OW 2203   2.903   2.620   2.277 -0.1244 -0.0393  0.1382
  735SOL    HW1 2204   2.896   2.576   2.178  0.7102 -2.7036 -1.9668
  735SOL    HW2 2205   2.997   2.670   2.298 -0.6002 -0.2372  2.2748
  736SOL     OW 2206   0.928   0.455   2.530  0.0580  0.2259  0.6003
  736SOL    HW1 2207   0.872   0.521   2.477  2.6845  1.3922 -1.3260
  736SOL    HW2 2208   0.930   0.358   2.495  2.1758 -2.7819  0.3092
  737SOL     OW 2209   2.619   0.503   2.822  0.1364 -0.2772  0.1813
  737SOL    HW1 2210   2.610   0.460   2.914  0.5816  1.0654 -0.2426
  737SOL    HW2 2211   2.704   0.477   2.765  0.9665 -1.6430 -1.6434
  738SOL     OW 2212   1.737   1.263   2.892 -0.2505 -0.3035  0.2891
  738SOL    HW1 2213   1.838   1.249   2.893 -1.3474  1.2943  0.6325
  738SOL    HW2 2214   1.683   1.188   2.853 -0.7669  1.7113 -0.5339
  739SOL     OW 2215   1.765   0.704   0.674 -0.6372  0.0158  0.5012
  739SOL    HW1 2216   1.835   0.723   0.750  3.4861  1.8720 -1.5630
  739SOL    HW2 2217   1.780   0.608   0.627 -0.8241 -0.4908 -0.7237
  740SOL     OW 2218   1.922   1.936   2.385  0.1372 -0.0887  0.1967
  740SOL    HW1 2219   1.995   1.860   2.393  1.3345 -4.7677 -0.2394
  740SOL    HW2 2220   1.858   1.914   2.312  0.6653 -1.6045 -0.6859
  741SOL     OW 2221   2.590   0.104   2.511 -0.4304  0.0609  0.5443
  741SOL    HW1 2222   2.691   0.089   2.507 -0.6703  3.8474  2.5300
  741SOL    HW2 2223   2.553   0.136   2.418 -2.0062  1.2263 -1.6253
  742SOL     OW 2224   2.170   1.370   0.146  0.9082 -0.0268  0.4142
  742SOL    HW1 2225   2.076   1.418   0.125 -1.0226  0.2473  0.4469
  742SOL    HW2 2226   2.164   1.272   0.196  1.2346 -0.9345 -0.2073
  743SOL     OW 2227   1.755   0.624   2.626 -0.2686 -0.0862  0.2848
  743SOL    HW1 2228   1.765   0.591   2.534 -1.8846 -0.8402  1.0031
  743SOL    HW2 2229   1.693   0.710   2.619  0.2869  3.5689  0.2324
  744SOL     OW 2230   2.704   2.014   0.053  0.4543  0.0949  0.1091
  744SOL    HW1 2231   2.662   2.028   0.144 -1.3769  0.7362  2.0553
  744SOL    HW2 2232   2.676   1.928  -0.001 -1.7465 -1.8346  1.7826
  745SOL     OW 2233   2.159   2.648   2.158 -0.2507 -0.2164 -0.6197
  745SOL    HW1 2234   2.059   2.620   2.162 -0.6608 -1.8052  2.0502
  745SOL    HW2 2235   2.177   2.713   2.237  0.0045  2.3267  0.0520
  746SOL     OW 2236   0.012   2.651   1.729  0.3439 -0.2421  0.0813
  746SOL    HW1 2237   0.069   2.566   1.721 -2.5869 -1.9433 -2.2537
  746SOL    HW2 2238   0.036   2.710   1.808 -0.1933  1.0074  0.8741
  747SOL     OW 2239   3.091   1.751   1.648 -0.3930 -0.6735  0.0348
  747SOL    HW1 2240   3.026   1.680   1.621  3.5678 -1.2344  3.6967
  747SOL    HW2 2241   3.165   1.777   1.577 -0.1152  1.4896  1.4643
  748SOL     OW 2242   1.823   2.719   2.903 -0.5775 -0.4389 -0.1272
  748SOL    HW1 2243   1.855   2.784   2.977 -0.3801 -1.1743  1.8835
  748SOL    HW2 2244   1.722   2.704   2.899  1.8566 -0.1735 -1.6409
  749SOL     OW 2245   1.351   3.052   0.850 -0.8072 -0.3338  0.0112
  749SOL    HW1 2246   1.269   3.001   0.856  0.6558  3.9546 -0.2309
  749SOL    HW2 2247   1.429   2.990   0.807 -1.4781 -2.7507 -2.2965
  750SOL     OW 2248   2.298   0.191   1.868  0.0725  0.0738 -0.3458
  750SOL    HW1 2249   2.302   0.251   1.781  1.8579  0.4528 -0.0109
  750SOL    HW2 2250   2.280   0.253   1.956  0.0054  0.9152  1.0972
  751SOL     OW 2251   0.775   2.068   2.840 -0.4956 -0.7922 -0.1792
  751SOL    HW1 2252   0.832   2.087   2.922  1.8558 -0.8543 -2.0442
  751SOL    HW2 2253   0.677   2.053   2.865  1.4452  1.1646  0.4465
  752SOL     OW 2254   1.321   0.829   1.275  0.1526  0.7856  0.1330
  752SOL    HW1 2255   1.376   0.908   1.233  0.3455  0.7602 -1.1447
  752SOL    HW2 2256   1.381   0.752   1.311 -0.3730  2.6291  0.7361
  753SOL     OW 2257   0.951   2.589   1.834 -0.2217  1.0106 -0.3871
  753SOL    HW1 2258   1.053   2.602   1.808  0.4604  2.1860  0.7764
  753SOL    HW2 2259   0.901   2.678   1.835  0.9386  1.0154 -0.9581
  754SOL     OW 2260   1.151   1.220   3.043 -0.4127 -0.6091 -0.3274
  754SOL    HW1 2261   1.240   1.177   3.025  0.7065 -2.9254 -0.2958
  754SOL    HW2 2262   1.159   1.323   3.063  0.8693  0.9554  2.1066
  755SOL     OW 2263   1.986   0.478   2.238 -0.0332  0.5483  0.4885
  755SOL    HW1 2264   2.044   0.401   2.279  2.6119 -1.7755  1.4089
  755SOL    HW2 2265   1.893   0.482   2.278  0.4608  0.2799 -2.0125
  756SOL     OW 2266   2.584   0.991   2.976  0.0561  0.0825 -0.4034
  756SOL    HW1 2267   2.686   0.977   2.986 -0.0418  1.0087 -0.9381
  756SOL    HW2 2268   2.540   0.901   3.004  1.5734  3.2366 -0.0196
  757SOL     OW 2269   0.127   0.493   2.008  0.1459 -0.0241  0.1191
  757SOL    HW1 2270   0.169   0.418   1.947 -3.4473 -1.4950  1.1942
  757SOL    HW2 2271   0.051   0.459   2.071 -4.7145 -1.1865  2.1056
  758SOL     OW 2272   2.194   0.087   1.513  0.2156 -0.2476 -0.0283
  758SOL    HW1 2273   2.190  -0.014   1.535  3.0867 -0.5534 -1.3624
  758SOL    HW2 2274   2.256   0.105   1.429  1.2767  0.6084 -1.1693
  759SOL     OW 2275   1.671   0.119   0.066 -0.0617  0.4421  0.5799
  759SOL    HW1 2276   1.634   0.081  -0.021  1.8151  0.4928 -0.4861
  759SOL    HW2 2277   1.774   0.118   0.062 -2.3590  0.4867 -0.2301
  760SOL     OW 2278   2.541   2.060   2.830  0.4642 -0.3784 -0.1045
  760SOL    HW1 2279   2.632   2.016   2.854 -0.5537  0.6349  0.5880
  760SOL    HW2 2280   2.540   2.154   2.872 -1.2613 -0.8585  1.1643
  761SOL     OW 2281   1.903   1.795   1.745 -0.6757 -0.4420 -0.6330
  761SOL    HW1 2282   1.922   1.697   1.779 -0.3262  0.8310  0.3158
  761SOL    HW2 2283   1.858   1.791   1.652 -0.1339  0.0253  2.0018
  762SOL     OW 2284   0.485   2.365   0.954 -0.2967 -0.0848  0.1487
  762SOL    HW1 2285   0.529   2.386   0.858  0.3362  0.6917 -1.2074
  762SOL    HW2 2286   0.540   2.406   1.031 -1.0293  0.9721  2.1070
  763SOL     OW 2287   2.109   1.567   3.007  0.0526 -0.0541  0.6371
  763SOL    HW1 2288   2.172   1.495   2.964 -1.3664 -1.5789 -1.5777
  763SOL    HW2 2289   2.010   1.535   2.997  3.0474 -0.4266 -0.8711
  764SOL     OW 2290   0.677   0.550   0.734 -0.0911  0.1029  0.4441
  764SOL    HW1 2291   0.593   0.495   0.722  0.6414  1.8873  0.6959
  764SOL    HW2 2292   0.742   0.516   0.811 -1.6981  0.8646  0.1261
  765SOL     OW 2293   0.772   0.246   0.785  0.0056 -0.2957  0.0340
  765SOL    HW1 2294   0.773   0.293   0.698  0.4443 -0.1306  1.1726
  765SOL    HW2 2295   0.789   0.321   0.864  1.3887  1.9756  3.9434
  766SOL     OW 2296   2.880   2.162   2.994 -0.4633 -0.0232 -0.4414
  766SOL    HW1 2297   2.793   2.125   3.041 -2.3840  2.1462  1.1484
  766SOL    HW2 2298   2.933   2.226   3.057 -1.7916 -2.9253 -0.6153
  767SOL     OW 2299   2.792   1.675   0.576 -0.2902  0.1561  0.1377
  767SOL    HW1 2300   2.696   1.704   0.613  0.4643  0.8319 -0.3415
  767SOL    HW2 2301   2.863   1.741   0.607 -1.6365 -0.6912 -3.3971
  768SOL     OW 2302   1.033   0.140   0.239  0.2124 -0.5484 -0.2479
  768SOL    HW1 2303   0.987   0.118   0.327  0.2749 -4.9031 -0.7811
  768SOL    HW2 2304   1.128   0.101   0.236 -2.1179 -0.9042  0.4025
  769SOL     OW 2305   1.113   1.888   2.334 -0.5770  0.3497  0.1953
  769SOL    HW1 2306   1.012   1.907   2.359  0.2552  1.9612  0.2944
  769SOL    HW2 2307   1.161   1.844   2.412 -0.3100  1.2970  1.4590
  770SOL     OW 2308   0.171   1.136   2.312  0.2196  0.1057 -0.2552
  770SOL    HW1 2309   0.164   1.197   2.398 -0.4093  0.5098  1.0966
  770SOL    HW2 2310   0.080   1.131   2.266  0.8275  2.0130 -3.4765
  771SOL     OW 2311   3.067   2.836   1.942  0.2310  0.5245 -0.1751
  771SOL    HW1 2312   2.996   2.870   1.865 -1.8888 -0.7125  0.8153
  771SOL    HW2 2313   3.054   2.894   2.028  1.1239  1.0800 -1.5458
  772SOL     OW 2314   2.273   0.195   2.858 -0.8866 -0.1896  0.0283
  772SOL    HW1 2315   2.332   0.115   2.818 -0.3329 -1.9210  0.9340
  772SOL    HW2 2316   2.314   0.236   2.943 -0.2981 -2.6588 -1.5087
  773SOL     OW 2317   0.636   2.132   2.376  0.6802 -0.6119 -0.0994
  773SOL    HW1 2318   0.626   2.218   2.312 -1.9858  3.6653  2.6943
  773SOL    HW2 2319   0.544   2.114   2.416 -2.0099  1.2965  1.0526
  774SOL     OW 2320   2.114   3.074   2.579 -0.2630 -0.5474 -0.2510
  774SOL    HW1 2321   2.132   3.162   2.630 -0.3786  2.0273  0.4438
  774SOL    HW2 2322   2.140   2.992   2.630 -0.0057 -0.4254 -1.4990
  775SOL     OW 2323   2.558   2.986   2.227  0.1049 -0.3486  0.0387
  775SOL    HW1 2324   2.500   3.072   2.222  1.2199  2.5756  1.1120
  775SOL    HW2 2325   2.634   2.999   2.300  1.1731  0.8816 -0.4074
  776SOL     OW 2326   3.102   1.246   0.192  0.3203 -0.6136  0.2615
  776SOL    HW1 2327   3.047   1.215   0.106  2.8673 -0.0850 -0.5930
  776SOL    HW2 2328   3.047   1.239   0.277  0.8814  0.3669 -1.3783
  777SOL     OW 2329   0.419   2.916   0.387 -0.3041 -0.7195 -0.4801
  777SOL    HW1 2330   0.321   2.915   0.358  1.1105  0.6420 -1.1960
  777SOL    HW2 2331   0.479   2.920   0.303 -1.3749  1.1882 -0.0371
  778SOL     OW 2332   1.324   1.974   0.188  0.4254  0.4007 -0.6325
  778SOL    HW1 2333   1.272   2.016   0.270 -3.3788  2.3241 -0.1346
  778SOL    HW2 2334   1.378   2.041   0.132  0.0793  0.8179 -1.5058
  779SOL     OW 2335   0.187   0.902   0.466 -0.0115  0.4831  0.4041
  779SOL    HW1 2336   0.164   0.807   0.428 -0.9386 -2.7326  0.2746
  779SOL    HW2 2337   0.125   0.924   0.545 -0.1125 -2.1001 -3.0514
  780SOL     OW 2338   0.151   0.321   2.416 -0.7455 -0.0634  0.1051
  780SOL    HW1 2339   0.110   0.409   2.453  0.5049 -1.0361 -0.8948
  780SOL    HW2 2340   0.243   0.335   2.372  1.5896 -2.0130  1.2197
  781SOL     OW 2341   0.673   1.652   1.514 -0.2843  0.0175  0.0892
  781SOL    HW1 2342   0.736   1.599   1.580  1.5711  2.3969  0.4635
  781SOL    HW2 2343   0.573   1.643   1.536  1.0597  0.3267  0.6191
  782SOL     OW 2344   2.606   0.151   0.929  0.2624 -0.0140 -0.0525
  782SOL    HW1 2345   2.559   0.167   0.839 -1.3615  1.3649  0.8760
  782SOL    HW2 2346   2.574   0.219   0.995  1.1116 -0.1837 -4.0711
  783SOL     OW 2347   2.754   0.682   2.439  0.7943  0.1083 -0.1994
  783SOL    HW1 2348   2.817   0.687   2.524  1.0932  0.5398  3.6019
  783SOL    HW2 2349   2.720   0.583   2.420  0.1040 -5.0570 -0.1866
  784SOL     OW 2350   1.458   2.184   0.054  0.3707 -0.5605 -0.6249
  784SOL    HW1 2351   1.493   2.250   0.128  2.2080  1.3441  1.5966
  784SOL    HW2 2352   1.437   2.235  -0.034 -1.3840 -1.2636  2.7497
  785SOL     OW 2353   2.070   0.300   0.020 -0.0959 -0.0010  0.7689
  785SOL    HW1 2354   2.011   0.323   0.106 -0.5200  3.2802  1.0747
  785SOL    HW2 2355   2.088   0.385  -0.036 -1.4681  2.9007 -0.1005
  786SOL     OW 2356   2.046   2.192   2.237  0.2288 -0.1755  0.0987
  786SOL    HW1 2357   2.008   2.105   2.275  2.9863 -0.5272 -1.3252
  786SOL    HW2 2358   2.153   2.202   2.253  4.6792 -1.8672  1.4529
  787SOL     OW 2359   1.337   0.514   0.917 -0.1082 -0.1686  0.4755
  787SOL    HW1 2360   1.269   0.590   0.943 -0.7276 -3.4522 -2.3842
  787SOL    HW2 2361   1.411   0.545   0.845  2.4943  0.6551 -1.1604
  788SOL     OW 2362   1.229   0.401   0.081  0.7796 -0.3647  0.2783
  788SOL    HW1 2363   1.132   0.405   0.037  0.6151  3.9479  0.6096
  788SOL    HW2 2364   1.243   0.489   0.139 -1.9616  0.1962 -0.1298
  789SOL     OW 2365   2.557   0.094   1.910  0.2100 -0.4655  0.6137
  789SOL    HW1 2366   2.453   0.125   1.889 -2.7245  1.9518  0.9554
  789SOL    HW2 2367   2.583  -0.003   1.895  1.7792 -0.6065  1.5097
  790SOL     OW 2368   2.615   2.788   0.775 -0.1281  0.5620  0.1471
  790SOL    HW1 2369   2.685   2.799   0.707 -1.1382  1.1108  1.7263
  790SOL    HW2 2370   2.628   2.859   0.849 -0.0508 -0.5390 -0.6207
  791SOL     OW 2371   1.922   1.219   0.261 -0.4751  0.1197 -0.3501
  791SOL    HW1 2372   1.821   1.195   0.278  1.8916 -1.0058 -0.9887
  791SOL    HW2 2373   1.976   1.137   0.249 -3.2774  1.9865  0.2776
  792SOL     OW 2374   0.414   1.758   2.143  0.4961  0.1145  0.0746
  792SOL    HW1 2375   0.481   1.739   2.218 -0.2621  0.3986  2.2949
  792SOL    HW2 2376   0.331   1.808   2.178 -0.0531  0.7610 -0.2221
  793SOL     OW 2377   2.133   1.570   2.117  0.0479  0.2616  0.5871
  793SOL    HW1 2378   2.219   1.617   2.078 -1.1616 -0.7629 -0.9962
  793SOL    HW2 2379   2.117   1.476   2.077 -0.7927  0.3780 -0.1288
  794SOL     OW 2380   0.562   1.422   2.343 -0.2580 -0.5945  0.3149
  794SOL    HW1 2381   0.555   1.414   2.238 -0.7273 -2.3982 -1.2277
  794SOL    HW2 2382   0.473   1.462   2.386 -2.1988  2.7086 -1.7568
  795SOL     OW 2383   2.523   2.265   1.818 -0.1821  0.2331  0.3191
  795SOL    HW1 2384   2.517   2.264   1.923 -1.2485 -1.1617  2.7388
  795SOL    HW2 2385   2.443   2.212   1.777 -1.3521  0.3023 -1.4165
  796SOL     OW 2386   3.098   1.110   2.687  0.0295  0.4399 -0.3769
  796SOL    HW1 2387   2.996   1.095   2.685  0.1617 -0.5274  1.4172
  796SOL    HW2 2388   3.132   1.098   2.785 -0.9519 -1.5650 -0.2381
  797SOL     OW 2389   0.757   0.674   1.396 -0.3115  0.0127  0.0855
  797SOL    HW1 2390   0.837   0.709   1.454 -0.7131 -1.0815  1.1607
  797SOL    HW2 2391   0.699   0.752   1.355 -1.9838 -0.2543 -0.2920
  798SOL     OW 2392   1.306   0.350   1.125 -0.7321 -0.2051 -0.3052
  798SOL    HW1 2393   1.396   0.330   1.183  1.7621 -2.3001  1.6996
  798SOL    HW2 2394   1.323   0.425   1.051 -1.4543 -0.9723 -0.0929
  799SOL     OW 2395   1.965   2.712   1.037  0.0625 -0.1058  0.6781
  799SOL    HW1 2396   1.880   2.726   1.094 -1.7142  0.1018  1.5888
  799SOL    HW2 2397   1.945   2.692   0.940  1.3542 -2.4347  0.7632
  800SOL     OW 2398   3.040   0.605   1.816  0.3218  0.1160  0.3411
  800SOL    HW1 2399   2.966   0.663   1.862 -2.5382 -0.0591  0.3689
  800SOL    HW2 2400   3.113   0.566   1.883  0.5420  2.6922  4.8339
  801SOL     OW 2401   1.973   2.258   0.081  0.3550 -0.1448 -0.4029
  801SOL    HW1 2402   1.888   2.226   0.033  0.1873 -1.4091  2.0273
  801SOL    HW2 2403   2.052   2.192   0.061  1.2919  3.3913 -1.5879
  802SOL     OW 2404   0.718   0.828   2.569  0.2335  0.5243  0.0725
  802SOL    HW1 2405   0.792   0.815   2.498  0.7011 -3.8318 -1.6680
  802SOL    HW2 2406   0.625   0.789   2.535  1.3600  0.2913  0.0947
  803SOL     OW 2407   0.952   0.064   0.883 -0.1608  0.6920 -0.1043
  803SOL    HW1 2408   1.054   0.105   0.895  2.8454 -0.6533 -0.2399
  803SOL    HW2 2409   0.882   0.132   0.845 -1.8077  0.1508  0.0754
  804SOL     OW 2410   0.278   0.033   2.145 -0.1180  0.0866 -0.4854
  804SOL    HW1 2411   0.243   0.105   2.209  4.0056 -0.4540 -0.4205
  804SOL    HW2 2412   0.217   0.007   2.065  0.4125 -2.0413  3.0351
  805SOL     OW 2413   2.431   0.257   0.343 -0.3596  0.4515  0.6375
  805SOL    HW1 2414   2.530   0.257   0.320 -1.1763 -0.5907  2.9489
  805SOL    HW2 2415   2.373   0.304   0.276  1.3319 -0.1833 -1.5482
  806SOL     OW 2416   0.629   2.420   1.654  0.1792  0.8931  0.3117
  806SOL    HW1 2417   0.628   2.514   1.702  0.1336  1.8900 -2.5525
  806SOL    HW2 2418   0.726   2.388   1.642  0.5392  2.3328  3.4260
  807SOL     OW 2419   2.420   0.923   0.432  0.8881 -0.5529 -0.4109
  807SOL    HW1 2420   2.509   0.878   0.443 -2.1364 -2.2448  0.6106
  807SOL    HW2 2421   2.413   0.974   0.341  0.1948  1.5491 -0.6094
  808SOL     OW 2422   0.528   2.038   2.980  0.4151 -0.1136  0.7275
  808SOL    HW1 2423   0.567   2.080   3.068  0.0225  1.2982 -0.7023
  808SOL    HW2 2424   0.541   1.931   2.975  0.1482 -2.4612  2.2004
  809SOL     OW 2425   2.676   1.959   1.921  0.7156 -0.3719  0.4175
  809SOL    HW1 2426   2.763   2.010   1.959 -0.2633 -1.9933  1.7475
  809SOL    HW2 2427   2.635   2.001   1.835 -1.0251 -0.0766  2.0103
  810SOL     OW 2428   2.105   1.052   0.521  0.2676 -0.1478 -0.7857
  810SOL    HW1 2429   2.197   1.017   0.546  0.4297  0.3433  1.4967
  810SOL    HW2 2430   2.071   1.118   0.594 -1.2010  2.0494  1.3443
  811SOL     OW 2431   1.375   2.497   1.286 -0.3378  0.0419  0.0737
  811SOL    HW1 2432   1.373   2.395   1.290 -3.8946 -1.0469 -0.0121
  811SOL    HW2 2433   1.281   2.540   1.296  0.8015  1.6304 -1.2935
  812SOL     OW 2434   1.468   0.845   1.955 -0.0071  0.2670 -0.0072
  812SOL    HW1 2435   1.531   0.917   1.998 -0.1983 -0.1429 -1.2100
  812SOL    HW2 2436   1.367   0.870   1.934  1.0166  0.0667  1.0133
  813SOL     OW 2437   1.737   2.143   2.468  0.0273 -0.5776 -0.1141
  813SOL    HW1 2438   1.793   2.073   2.520 -1.3222  1.8961  3.2005
  813SOL    HW2 2439   1.708   2.123   2.372 -0.1076 -0.4366 -1.8848
  814SOL     OW 2440   2.865   1.544   2.841 -0.2519 -0.1032 -0.1007
  814SOL    HW1 2441   2.959   1.528   2.886  2.0347 -2.2256  0.5930
  814SOL    HW2 2442   2.866   1.611   2.761  1.1454  1.5218 -1.8628
  815SOL     OW 2443   2.193   2.845   2.757 -0.5140  0.9566  0.2528
  815SOL    HW1 2444   2.174   2.748   2.791 -1.8234 -3.6713 -0.1597
  815SOL    HW2 2445   2.292   2.873   2.742  0.0106  2.6699 -1.0295
  816SOL     OW 2446   1.641   0.314   1.628 -0.3842  0.3641  0.9279
  816SOL    HW1 2447   1.684   0.221   1.638  1.5569 -0.2709  1.1034
  816SOL    HW2 2448   1.560   0.328   1.688  3.6277  1.4896  0.1597
  817SOL     OW 2449   0.412   1.226   2.531 -0.1743  0.1964  0.0371
  817SOL    HW1 2450   0.311   1.261   2.540 -1.7648 -0.0996 -0.0269
  817SOL    HW2 2451   0.457   1.260   2.445  1.6412 -2.3248 -0.0231
  818SOL     OW 2452   1.964   0.791   0.469  0.2885 -0.2839 -0.3079
  818SOL    HW1 2453   1.989   0.885   0.503  1.4264  1.9117  0.2821
  818SOL    HW2 2454   1.890   0.745   0.522  2.3822 -2.3993 -1.0771
  819SOL     OW 2455   2.791   2.916   3.027  0.0871 -0.2180  0.1810
  819SOL    HW1 2456   2.865   2.855   2.991  1.8681  1.1028  0.1782
  819SOL    HW2 2457   2.708   2.915   2.966 -0.1317 -1.0915 -0.0044
  820SOL     OW 2458   1.250   1.125   0.630  0.2993 -0.3103  0.4779
  820SOL    HW1 2459   1.236   1.227   0.649 -2.1652  2.7154  4.0128
  820SOL    HW2 2460   1.213   1.056   0.700  3.2672 -1.1308  0.0423
  821SOL     OW 2461   0.004   1.284   0.673 -0.4142  0.5288 -0.1256
  821SOL    HW1 2462  -0.018   1.286   0.775 -0.8333 -1.2768  2.6572
  821SOL    HW2 2463   0.095   1.336   0.653 -0.3286  0.8870 -1.6354
  822SOL     OW 2464   2.549   1.735   2.431  0.0309 -0.0854  0.4406
  822SOL    HW1 2465   2.553   1.815   2.499  3.1346 -0.1717  0.6797
  822SOL    HW2 2466   2.484   1.760   2.355 -1.6073  3.1854 -1.0662
  823SOL     OW 2467   2.050   0.784   1.217  0.8045 -0.4380 -0.1492
  823SOL    HW1 2468   2.007   0.868   1.265 -1.2350  0.4714 -1.5621
  823SOL    HW2 2469   2.013   0.766   1.125  1.0917 -1.2296 -0.4849
  824SOL     OW 2470   0.133   2.056   2.791  0.0694  0.1407  0.3343
  824SOL    HW1 2471   0.091   1.971   2.835 -0.6315 -0.0274  0.4836
  824SOL    HW2 2472   0.174   2.023   2.704  0.0669 -2.7428 -2.1052
  825SOL     OW 2473   1.269   1.097   0.290 -0.4197 -0.1635  1.2439
  825SOL    HW1 2474   1.270   1.200   0.293 -0.2709  1.6002 -0.7389
  825SOL    HW2 2475   1.170   1.063   0.290 -4.5376  2.5293 -2.4317
  826SOL     OW 2476   1.935   0.656   1.605 -0.4319  0.0593  0.0878
  826SOL    HW1 2477   2.011   0.588   1.622 -1.5315  1.1205  0.3877
  826SOL    HW2 2478   1.853   0.604   1.567  1.7902  0.2153  1.5446
  827SOL     OW 2479   0.704   1.378   0.270  0.1034 -0.3263 -0.1719
  827SOL    HW1 2480   0.724   1.284   0.227  2.5095 -0.5452  1.5756
  827SOL    HW2 2481   0.654   1.379   0.359  1.0529 -4.3257  1.8010
  828SOL     OW 2482   2.508   0.107   1.607  0.4315 -0.5476 -0.5514
  828SOL    HW1 2483   2.444   0.151   1.540  3.8568  0.2530 -2.4991
  828SOL    HW2 2484   2.467   0.028   1.653  4.3939  1.1646 -2.9097
  829SOL     OW 2485   2.830   2.455   2.954 -0.0599 -0.1750  0.5233
  829SOL    HW1 2486   2.770   2.372   2.946  2.2030 -1.2832  0.0853
  829SOL    HW2 2487   2.799   2.522   3.026 -0.8192  0.7661 -0.0415
  830SOL     OW 2488   2.836   0.922   3.012  0.6433  0.7687 -0.5623
  830SOL    HW1 2489   2.907   0.988   2.988 -0.4296  1.0086 -1.1943
  830SOL    HW2 2490   2.863   0.847   3.074  1.2320  2.7702 -0.4945
  831SOL     OW 2491   0.073   0.667   0.372  0.7008  0.2261  0.3687
  831SOL    HW1 2492   0.066   0.618   0.462  2.7218 -0.4726  0.2161
  831SOL    HW2 2493   0.073   0.590   0.301 -0.7676 -1.4257 -0.9220
  832SOL     OW 2494   1.809   0.743   3.079  0.0991  0.0654 -0.3677
  832SOL    HW1 2495   1.714   0.764   3.036 -2.6649  0.7302 -1.3395
  832SOL    HW2 2496   1.828   0.641   3.077 -1.2089 -1.2646  0.0589
  833SOL     OW 2497   2.424   2.135   0.522  0.4203  0.4865  0.0356
  833SOL    HW1 2498   2.322   2.122   0.498  0.3193  2.3755 -0.0090
  833SOL    HW2 2499   2.489   2.071   0.478  0.4287  2.0163 -2.1167
  834SOL     OW 2500   0.195   0.195   0.496  0.4779  0.1283 -0.0200
  834SOL    HW1 2501   0.216   0.099   0.537 -1.4602  3.0482 -3.4819
  834SOL    HW2 2502   0.155   0.191   0.398  1.2549  0.6921  0.8010
  835SOL     OW 2503   2.364   1.572   1.122  0.4451  0.1031  0.1410
  835SOL    HW1 2504   2.411   1.623   1.199 -2.0933  1.2617 -3.6627
  835SOL    HW2 2505   2.399   1.608   1.029  1.1768  0.8971  0.4063
  836SOL     OW 2506   1.586   0.834   2.528  0.5995 -0.3141 -0.2973
  836SOL    HW1 2507   1.489   0.802   2.504  1.6420  1.7730 -0.3583
  836SOL    HW2 2508   1.641   0.850   2.442 -0.6725 -0.4335  0.2073
  837SOL     OW 2509   1.734   0.156   0.548 -0.4887  0.4207 -0.0781
  837SOL    HW1 2510   1.650   0.205   0.579 -0.3611  1.1489 -1.4742
  837SOL    HW2 2511   1.711   0.094   0.469 -0.0871 -0.7285  4.2418
  838SOL     OW 2512   1.130   1.567   2.780 -0.0743 -0.1384  0.1220
  838SOL    HW1 2513   1.130   1.544   2.882  0.9610  0.4794  2.0505
  838SOL    HW2 2514   1.102   1.490   2.718  3.9330 -0.6019 -1.7858
  839SOL     OW 2515   1.623   0.292   0.982  0.5832  0.3371 -0.0413
  839SOL    HW1 2516   1.628   0.360   1.058 -1.2725  1.0465 -2.2112
  839SOL    HW2 2517   1.609   0.195   1.014  1.8275 -0.2198 -0.5629
  840SOL     OW 2518   2.456   2.933   1.729 -0.4150 -0.0614  0.5313
  840SOL    HW1 2519   2.388   2.855   1.734  2.4150  1.1913 -0.7189
  840SOL    HW2 2520   2.552   2.911   1.693  1.1041 -1.5580 -0.3896
  841SOL     OW 2521   1.557   0.832   2.993 -0.1862 -0.0718 -0.0789
  841SOL    HW1 2522   1.512   0.873   3.077  1.0837 -0.7140 -4.2511
  841SOL    HW2 2523   1.538   0.886   2.910  1.4605  1.8464  2.4494
  842SOL     OW 2524   0.840   1.532   0.895  0.9219  0.8241 -0.2394
  842SOL    HW1 2525   0.821   1.604   0.969  0.6099 -0.8906  2.2827
  842SOL    HW2 2526   0.767   1.460   0.883  0.2757  0.4353 -0.9261
  843SOL     OW 2527   0.067   0.014   1.365 -0.6119  0.5387  0.1396
  843SOL    HW1 2528   0.116   0.089   1.420  2.4339 -0.6202 -1.1136
  843SOL    HW2 2529   0.062  -0.087   1.407  0.4448 -2.5817 -0.2129
  844SOL     OW 2530   0.780   2.478   0.235 -0.0037 -0.0425  0.0340
  844SOL    HW1 2531   0.714   2.476   0.313 -0.0419  0.4125 -0.7864
  844SOL    HW2 2532   0.757   2.554   0.172  4.5118 -1.4691 -1.5745
  845SOL     OW 2533   1.655   2.882   1.316 -0.3965 -0.0597 -0.2257
  845SOL    HW1 2534   1.688   2.787   1.317 -2.0976  0.4351  0.4182
  845SOL    HW2 2535   1.710   2.940   1.384  2.2853  0.2835  1.5912
  846SOL     OW 2536   1.578   2.926   0.759 -0.5185 -0.1398 -0.0308
  846SOL    HW1 2537   1.569   2.856   0.683 -0.9372 -0.6581 -0.5186
  846SOL    HW2 2538   1.679   2.948   0.783  0.1231 -1.4785 -0.8079
  847SOL     OW 2539   2.046   1.663   0.368 -0.5854 -0.1494  0.1590
  847SOL    HW1 2540   2.021   1.584   0.425  3.7728 -0.0013 -0.2766
  847SOL    HW2 2541   1.958   1.726   0.349 -2.0244  0.8956 -0.8348
  848SOL     OW 2542   2.450   0.845   2.630  0.1380  0.4257 -0.2996
  848SOL    HW1 2543   2.401   0.932   2.660 -3.3771  0.5970 -1.6863
  848SOL    HW2 2544   2.384   0.763   2.640  2.0172 -1.7295  0.8230
  849SOL     OW 2545   2.571   0.863   2.373 -0.2934 -0.0882  0.0785
  849SOL    HW1 2546   2.659   0.800   2.376 -0.2195 -1.7919 -4.0286
  849SOL    HW2 2547   2.518   0.864   2.463 -0.9278  0.3494  0.7429
  850SOL     OW 2548   1.518   0.106   1.325 -0.5510  0.4780  0.3613
  850SOL    HW1 2549   1.497   0.066   1.231  0.0345 -1.1394 -0.1488
  850SOL    HW2 2550   1.486   0.033   1.395 -0.8945  0.2926  1.1062
  851SOL     OW 2551   0.456   1.832   0.562  0.3720  0.3400 -0.1150
  851SOL    HW1 2552   0.494   1.925   0.590  0.2724 -0.1286 -0.2351
  851SOL    HW2 2553   0.462   1.821   0.463  2.9483  2.0192  0.0603
  852SOL     OW 2554   0.792   2.089   1.726  0.3773  0.2161 -0.7609
  852SOL    HW1 2555   0.819   2.188   1.726 -0.9471  0.0691  1.8225
  852SOL    HW2 2556   0.735   2.070   1.809  0.6522  1.3675  0.7180
  853SOL     OW 2557   2.510   1.509   2.579  0.2600 -0.5288 -0.2521
  853SOL    HW1 2558   2.445   1.430   2.552 -1.9218 -4.2109 -1.2289
  853SOL    HW2 2559   2.514   1.595   2.519 -1.7289  0.8903 -0.6830
  854SOL     OW 2560   2.391   1.368   1.710 -0.3183  0.6000  0.3975
  854SOL    HW1 2561   2.439   1.333   1.624 -0.4612 -1.0492 -1.5457
  854SOL    HW2 2562   2.335   1.295   1.757  1.8753  0.7678  2.8351
  855SOL     OW 2563   2.051   2.459   1.085 -0.2043  0.2544 -0.0930
  855SOL    HW1 2564   2.038   2.559   1.077  0.3435 -1.6816  0.3035
  855SOL    HW2 2565   2.140   2.427   1.130 -1.3497 -0.1240 -1.8995
  856SOL     OW 2566   1.344   1.424   0.932 -0.1100  0.6283  0.0706
  856SOL    HW1 2567   1.415   1.493   0.957 -1.4911  1.4154 -0.6593
  856SOL    HW2 2568   1.257   1.448   0.979  1.0701 -1.4421  0.1973
  857SOL     OW 2569   3.026   2.707   0.971 -0.0858 -0.2191 -0.8549
  857SOL    HW1 2570   2.991   2.619   0.943  0.5720  1.1641  2.0615
  857SOL    HW2 2571   3.114   2.741   0.919  1.4812 -1.6308 -2.4301
  858SOL     OW 2572   2.324   2.099   1.718 -0.3102 -0.3486 -0.0728
  858SOL    HW1 2573   2.235   2.108   1.663 -2.2239  2.3122 -2.1097
  858SOL    HW2 2574   2.386   2.019   1.695  0.7433  0.4425  1.9866
  859SOL     OW 2575   2.478   0.570   1.055 -0.2702 -0.6094 -0.6604
  859SOL    HW1 2576   2.515   0.591   0.960 -0.6942  0.3342 -0.6336
  859SOL    HW2 2577   2.503   0.478   1.097 -2.2338  0.4901 -2.6868
  860SOL     OW 2578   1.880   2.790   0.448  0.4024 -0.3684 -0.5269
  860SOL    HW1 2579   1.880   2.766   0.350  1.2466 -0.0660  0.3211
  860SOL    HW2 2580   1.905   2.887   0.465  1.8169  3.0482  1.7319
  861SOL     OW 2581   1.015   2.405   2.874  0.4071 -0.4284  0.0702
  861SOL    HW1 2582   1.041   2.496   2.834 -1.2413  0.5104  1.8003
  861SOL    HW2 2583   1.023   2.405   2.976 -2.5784  4.2083  0.1742
  862SOL     OW 2584   2.882   2.560   1.600 -0.6763 -0.5252  0.3920
  862SOL    HW1 2585   2.959   2.582   1.671 -2.1285  2.0174  2.8328
  862SOL    HW2 2586   2.840   2.644   1.551  1.4112 -0.9541  0.8932
  863SOL     OW 2587   1.838   2.715   0.195  0.1363  0.1274 -0.3893
  863SOL    HW1 2588   1.879   2.616   0.204 -2.9302 -1.1721 -2.9472
  863SOL    HW2 2589   1.740   2.718   0.156 -1.1443  0.8036 -1.4062
  864SOL     OW 2590   2.006   1.224   2.835 -0.0498  0.0167  0.0413
  864SOL    HW1 2591   1.983   1.167   2.752  4.0547 -0.5185 -1.1640
  864SOL    HW2 2592   2.064   1.174   2.896  0.0829  0.5644  0.4515
  865SOL     OW 2593   2.183   1.899   0.707  0.4857 -0.5339  0.1647
  865SOL    HW1 2594   2.260   1.849   0.754 -0.0038 -0.7664  0.0055
  865SOL    HW2 2595   2.111   1.928   0.776  2.7602 -1.3957 -0.1266
  866SOL     OW 2596   2.842   2.928   1.012  0.1360 -0.6223  0.0921
  866SOL    HW1 2597   2.835   2.995   0.936  1.7792 -0.7085 -0.7106
  866SOL    HW2 2598   2.915   2.861   1.003 -2.7498  2.3494  1.4722
  867SOL     OW 2599   0.340   1.389   0.905  0.1972 -0.3084  0.3514
  867SOL    HW1 2600   0.302   1.323   0.843  0.1115  4.3267 -0.3659
  867SOL    HW2 2601   0.332   1.486   0.864  2.5210  1.5256 -1.1330
  868SOL     OW 2602   0.759   1.922   2.112 -0.2965  0.4602  0.3581
  868SOL    HW1 2603   0.704   1.869   2.183 -2.5443 -2.9697  1.7652
  868SOL    HW2 2604   0.706   1.998   2.072 -0.4049 -0.0602  0.6744
  869SOL     OW 2605   2.557   1.945   1.665 -0.1310 -0.6301  0.2206
  869SOL    HW1 2606   2.633   2.005   1.623 -0.4521  1.7439  0.1215
  869SOL    HW2 2607   2.583   1.852   1.689 -1.1571  0.9246  2.3272
  870SOL     OW 2608   2.301   2.681   1.250  0.4192 -0.1503 -0.0868
  870SOL    HW1 2609   2.280   2.590   1.210 -0.1676  1.7817  2.8087
  870SOL    HW2 2610   2.285   2.671   1.348  1.1002 -1.8554 -0.7678
  871SOL     OW 2611   0.031   2.297   0.562 -0.1360 -0.4104  0.4173
  871SOL    HW1 2612   0.014   2.363   0.637 -0.4996 -0.0453 -0.1832
  871SOL    HW2 2613  -0.050   2.297   0.498  1.3606 -0.2558  2.0306
  872SOL     OW 2614   2.114   0.473   1.685  0.1984  0.1884 -0.2394
  872SOL    HW1 2615   2.078   0.474   1.781 -0.4158  0.8820 -0.2364
  872SOL    HW2 2616   2.218   0.453   1.679  1.3734 -0.5285  0.8858
  873SOL     OW 2617   1.738   2.144   3.062  0.0587  0.4160 -0.2696
  873SOL    HW1 2618   1.650   2.179   3.107 -1.7781 -2.0019 -1.3928
  873SOL    HW2 2619   1.734   2.122   2.960 -0.3812 -1.8409 -1.1867
  874SOL     OW 2620   0.683   2.413   0.748  0.5407 -0.3733  0.7210
  874SOL    HW1 2621   0.695   2.511   0.770 -0.6843 -0.2864 -2.8850
  874SOL    HW2 2622   0.770   2.358   0.763 -1.1951 -0.4609  1.0260
  875SOL     OW 2623   2.276   1.548   1.428  0.3306 -0.1239  0.1650
  875SOL    HW1 2624   2.345   1.608   1.472  0.7402  1.0273 -1.5419
  875SOL    HW2 2625   2.271   1.556   1.328 -3.6082 -1.0388  5.1471
  876SOL     OW 2626   0.066   2.305   2.688 -0.4809 -0.5641 -0.3022
  876SOL    HW1 2627   0.095   2.215   2.724 -4.5798  2.9147  1.6657
  876SOL    HW2 2628   0.096   2.388   2.750 -0.8133 -0.8048  3.0694
  877SOL     OW 2629   2.939   2.691   0.577  0.7370  0.9121 -0.2977
  877SOL    HW1 2630   2.924   2.791   0.587 -1.7085  1.4822 -1.4078
  877SOL    HW2 2631   2.992   2.648   0.658  1.2136  1.4905  0.3948
  878SOL     OW 2632   2.814   1.506   2.229  0.0120  0.4803  0.0431
  878SOL    HW1 2633   2.778   1.596   2.188 -0.4540 -0.3047  0.4366
  878SOL    HW2 2634   2.825   1.511   2.333 -0.5504 -0.7147  0.5703
  879SOL     OW 2635   2.393   0.082   1.256 -0.0724  0.1140 -0.6910
  879SOL    HW1 2636   2.402  -0.012   1.297  0.0707 -1.0600  1.9026
  879SOL    HW2 2637   2.312   0.094   1.190 -0.8785 -0.3382 -0.4572
  880SOL     OW 2638   0.764   0.509   2.268  0.4340  0.3987 -0.1017
  880SOL    HW1 2639   0.718   0.451   2.342 -1.4355 -1.6809  1.5944
  880SOL    HW2 2640   0.805   0.448   2.193 -3.5824 -2.4837 -2.0781
  881SOL     OW 2641   0.850   0.086   0.460  0.7021  0.7588  0.5812
  881SOL    HW1 2642   0.896  -0.008   0.445  0.3349  1.7344  2.0436
  881SOL    HW2 2643   0.746   0.094   0.442 -1.6657 -0.9834 -2.6469
  882SOL     OW 2644   2.716   1.683   1.717  0.1685  0.1975 -0.0413
  882SOL    HW1 2645   2.805   1.644   1.683 -1.5518  2.5740  1.0041
  882SOL    HW2 2646   2.723   1.713   1.818 -1.5111  2.1049  1.2968
  883SOL     OW 2647   0.866   0.489   0.927  0.3136 -0.3538 -0.2265
  883SOL    HW1 2648   0.936   0.561   0.945  1.3969 -1.8658  2.1779
  883SOL    HW2 2649   0.819   0.465   1.015 -0.4777  1.1072 -2.8050
  884SOL     OW 2650   1.105   1.738   1.171  0.3891 -0.4869  0.5270
  884SOL    HW1 2651   1.114   1.644   1.115  2.5573 -3.2001 -0.5113
  884SOL    HW2 2652   1.092   1.814   1.105  1.9974 -2.2016  0.8026
  885SOL     OW 2653   2.317   1.795   2.265 -0.3938 -0.5143 -0.0031
  885SOL    HW1 2654   2.226   1.772   2.309  1.2864 -2.5231 -0.2539
  885SOL    HW2 2655   2.315   1.898   2.248  1.6932 -0.5728 -0.7350
  886SOL     OW 2656   2.608   0.344   1.808  0.3509  0.8327  0.0784
  886SOL    HW1 2657   2.615   0.253   1.857 -1.2905 -1.3133 -3.0375
  886SOL    HW2 2658   2.698   0.370   1.763 -3.3585  0.7167 -1.2323
  887SOL     OW 2659   0.124   2.041   1.297  0.1313 -0.7877  0.0314
  887SOL    HW1 2660   0.095   2.009   1.204 -2.9380 -0.1902  2.8632
  887SOL    HW2 2661   0.144   2.140   1.294 -4.0849 -1.9713 -0.8507
  888SOL     OW 2662   0.622   1.221   1.505 -0.4049 -0.6248 -0.1976
  888SOL    HW1 2663   0.630   1.262   1.410 -2.7473  3.5280 -0.0572
  888SOL    HW2 2664   0.600   1.122   1.509  1.0722  2.7252 -1.7830
  889SOL     OW 2665   0.827   2.503   2.200  0.0404 -0.5331  0.0874
  889SOL    HW1 2666   0.747   2.437   2.207 -0.9008  1.7592 -1.8312
  889SOL    HW2 2667   0.901   2.472   2.137 -1.6376  1.1903  0.2618
  890SOL     OW 2668   2.409   2.489   0.262  1.0582 -0.3370  0.2744
  890SOL    HW1 2669   2.444   2.571   0.212 -0.4905 -3.6658 -3.7317
  890SOL    HW2 2670   2.354   2.519   0.346 -0.3100 -1.2928 -0.7988
  891SOL     OW 2671   2.513   1.709   0.638  0.0821 -0.4861 -0.5772
  891SOL    HW1 2672   2.498   1.652   0.726 -0.4813  1.1880  2.7955
  891SOL    HW2 2673   2.436   1.689   0.570 -0.0525 -0.6100 -0.6370
  892SOL     OW 2674   0.388   0.295   2.303 -0.4669 -0.4613  0.5799
  892SOL    HW1 2675   0.408   0.283   2.201 -1.7965 -1.5485  2.4391
  892SOL    HW2 2676   0.466   0.338   2.354 -0.0351 -0.1024 -0.3685
  893SOL     OW 2677   1.660   0.200   2.730 -0.2843 -0.1771 -0.2561
  893SOL    HW1 2678   1.736   0.267   2.755 -0.0172  2.3181 -1.9060
  893SOL    HW2 2679   1.574   0.244   2.692  2.7691  0.8947 -2.8865
  894SOL     OW 2680   2.171   2.074   0.066 -0.3228  0.1651 -0.6832
  894SOL    HW1 2681   2.139   2.012  -0.012  0.6415 -0.3796  1.2079
  894SOL    HW2 2682   2.199   2.011   0.147 -1.6678  0.5240 -1.1954
  895SOL     OW 2683   2.798   1.440   0.888  0.2930  0.5554 -0.0627
  895SOL    HW1 2684   2.880   1.374   0.888 -1.3109  0.5467 -0.7116
  895SOL    HW2 2685   2.823   1.534   0.911 -0.5688 -0.3044  1.9943
  896SOL     OW 2686   1.842   1.843   1.201 -0.4265 -0.2176 -0.0029
  896SOL    HW1 2687   1.897   1.756   1.224  0.6441  0.3282  0.0248
  896SOL    HW2 2688   1.751   1.820   1.167 -0.7014 -1.3129  0.2631
  897SOL     OW 2689   0.271   0.577   3.048 -0.1477  0.3317 -0.3330
  897SOL    HW1 2690   0.222   0.625   2.972  1.5680 -0.9820 -0.3410
  897SOL    HW2 2691   0.366   0.618   3.067 -2.1930 -1.6984  2.7181
  898SOL     OW 2692   0.655   2.861   1.040 -0.2071  0.7004  0.1717
  898SOL    HW1 2693   0.702   2.950   1.024  0.3335 -2.1065 -0.9728
  898SOL    HW2 2694   0.695   2.820   1.124 -1.1823  0.4059 -1.8278
  899SOL     OW 2695   2.783   0.853   1.367  0.1304 -0.3299 -0.7226
  899SOL    HW1 2696   2.760   0.792   1.292 -3.0212  0.7084  0.8292
  899SOL    HW2 2697   2.800   0.946   1.334 -1.5696 -1.1780 -1.2103
  900SOL     OW 2698   0.978   2.496   2.468 -0.3949  0.1266 -0.9521
  900SOL    HW1 2699   0.929   2.480   2.377 -1.7701  1.9397 -3.4998
  900SOL    HW2 2700   0.947   2.426   2.530 -0.8379  3.1433 -2.6869
  901SOL     OW 2701   1.892   2.422   1.352 -0.4957 -0.3719 -0.1761
  901SOL    HW1 2702   1.858   2.370   1.271  2.3339 -1.1789 -2.7102
  901SOL    HW2 2703   1.994   2.404   1.372  1.2058 -1.8806  0.2674
  902SOL     OW 2704   2.537   1.659   1.485 -0.0058 -0.2532  0.5755
  902SOL    HW1 2705   2.608   1.669   1.562 -0.0321  2.1978 -0.3919
  902SOL    HW2 2706   2.584   1.643   1.394 -2.1989 -0.7601 -0.1475
  903SOL     OW 2707   0.307   2.498   1.972 -0.3480 -0.0504 -0.5677
  903SOL    HW1 2708   0.228   2.433   1.952 -0.6614 -0.0086 -2.3101
  903SOL    HW2 2709   0.329   2.572   1.903  0.4450 -0.5251 -1.6504
  904SOL     OW 2710   1.985   0.785   2.553 -0.0780  0.0702  0.1212
  904SOL    HW1 2711   1.921   0.716   2.588 -0.7900 -0.6130 -3.3940
  904SOL    HW2 2712   1.995   0.779   2.447 -1.2062  0.5112 -0.6169
  905SOL     OW 2713   2.922   0.106   2.466  0.2312 -0.3761  0.4799
  905SOL    HW1 2714   2.974   0.067   2.548  3.2785  2.6368  1.9153
  905SOL    HW2 2715   2.914   0.210   2.457  1.5659 -0.6090  1.2106
  906SOL     OW 2716   0.151   1.663   1.871 -0.9273  0.4197  0.2193
  906SOL    HW1 2717   0.086   1.700   1.796 -2.0557  0.9826 -2.4237
  906SOL    HW2 2718   0.242   1.621   1.833  0.7901  0.0393 -4.0812
  907SOL     OW 2719   0.210   2.413   0.966  0.3610 -0.0747  0.1123
  907SOL    HW1 2720   0.308   2.398   0.931 -0.5925 -0.7380 -0.2811
  907SOL    HW2 2721   0.189   2.512   0.975  0.2014 -0.5450 -2.5599
  908SOL     OW 2722   2.807   3.084   0.305 -0.1432  0.1876  0.3591
  908SOL    HW1 2723   2.735   3.086   0.234  0.5669 -1.5810 -1.3544
  908SOL    HW2 2724   2.867   3.000   0.296 -0.0278 -2.1810 -0.9543
  909SOL     OW 2725   0.839   1.059   2.672  0.0261 -0.4214 -0.1407
  909SOL    HW1 2726   0.791   0.972   2.643 -1.0725  0.7199 -0.4505
  909SOL    HW2 2727   0.920   1.087   2.607 -0.3181  0.6766  1.9243
  910SOL     OW 2728   1.779   1.886   2.136  0.2591  0.2482 -0.4532
  910SOL    HW1 2729   1.851   1.928   2.073  1.9892  0.5779  1.7111
  910SOL    HW2 2730   1.716   1.963   2.168  1.2189  1.5507 -0.6117
  911SOL     OW 2731   1.840   2.953   1.553  0.4666 -0.4978  0.2113
  911SOL    HW1 2732   1.928   2.944   1.505 -1.1508  0.1867  1.0727
  911SOL    HW2 2733   1.822   2.870   1.619  1.4402 -3.9031 -1.5288
  912SOL     OW 2734   2.859   1.023   0.720  0.1571 -0.4932  0.2252
  912SOL    HW1 2735   2.884   1.014   0.820 -0.3484  0.5024  1.0115
  912SOL    HW2 2736   2.781   1.095   0.711  0.1243  1.1941 -0.8676
  913SOL     OW 2737   2.539   1.233   1.527 -0.2877  0.0525 -0.2356
  913SOL    HW1 2738   2.562   1.132   1.511 -2.2483  1.2858  0.0602
  913SOL    HW2 2739   2.603   1.291   1.468 -0.8035  2.5988 -0.2582
  914SOL     OW 2740   2.751   0.644   1.163  0.6776  0.2157 -0.0160
  914SOL    HW1 2741   2.779   0.557   1.218  0.7487  0.1147  3.0460
  914SOL    HW2 2742   2.670   0.647   1.101  2.2574  1.9715  0.1730
  915SOL     OW 2743   1.226   0.755   1.019  0.2438 -1.0028 -0.4027
  915SOL    HW1 2744   1.244   0.762   1.122  1.7994  0.4329 -0.3865
  915SOL    HW2 2745   1.117   0.752   1.004 -2.9679 -1.2735 -0.7410
  916SOL     OW 2746   0.624   0.074   0.637  0.5102 -0.6012  0.1150
  916SOL    HW1 2747   0.672   0.137   0.706  3.4995 -0.6699 -1.8117
  916SOL    HW2 2748   0.537   0.114   0.587 -1.6802 -0.0619 -2.2187
  917SOL     OW 2749   2.900   2.577   1.980  0.0657 -0.3862  0.0944
  917SOL    HW1 2750   2.814   2.610   1.933  1.2599  0.9431  0.5653
  917SOL    HW2 2751   2.985   2.628   1.950 -2.9580  1.3182  3.7034
  918SOL     OW 2752   1.039   2.061   3.006 -0.0103  0.3382  0.0753
  918SOL    HW1 2753   1.056   2.144   3.062 -1.6913 -0.0052  1.1428
  918SOL    HW2 2754   1.104   2.047   2.926  1.9539 -0.7229  1.3165
  919SOL     OW 2755   0.819   1.697   2.829 -0.4261  0.2182  0.5491
  919SOL    HW1 2756   0.877   1.779   2.809  0.7461 -0.4801 -1.9010
  919SOL    HW2 2757   0.812   1.637   2.744 -1.6555 -1.8274  1.2497
  920SOL     OW 2758   1.269   1.779   2.561 -0.0058 -0.2640 -0.0420
  920SOL    HW1 2759   1.349   1.742   2.508 -0.2611  3.6310  1.6376
  920SOL    HW2 2760   1.209   1.701   2.592  0.2374  0.8025 -2.7191
  921SOL     OW 2761   1.128   0.008   2.653  0.0232  0.2923  0.8307
  921SOL    HW1 2762   1.089  -0.009   2.557  0.0396 -1.3602 -2.2087
  921SOL    HW2 2763   1.052   0.021   2.721  0.3127 -1.2993 -2.7817
  922SOL     OW 2764   2.171   2.376   2.797  0.4731 -0.5717 -0.0878
  922SOL    HW1 2765   2.165   2.271   2.815  0.4111 -0.4356  3.3421
  922SOL    HW2 2766   2.142   2.394   2.698 -0.9441  0.9205 -3.2380
  923SOL     OW 2767   1.261   2.683   0.273 -0.4678 -0.4908 -0.2037
  923SOL    HW1 2768   1.326   2.743   0.326  1.8292  2.2042 -1.9117
  923SOL    HW2 2769   1.296   2.583   0.269  1.8730 -2.4280  0.0342
  924SOL     OW 2770   2.902   1.699   0.114 -0.0369  0.5117 -0.4241
  924SOL    HW1 2771   2.826   1.663   0.049 -1.1800  2.2778 -2.2306
  924SOL    HW2 2772   2.974   1.630   0.135  1.4884  0.4497  0.1882
  925SOL     OW 2773   0.036   2.842   1.478  0.1290 -0.1860 -0.5890
  925SOL    HW1 2774   0.005   2.805   1.570 -2.0127 -0.9996 -1.0804
  925SOL    HW2 2775   0.000   2.791   1.399  0.7332 -1.7168 -0.0125
  926SOL     OW 2776   1.308   2.836   1.337 -0.0507 -0.7533  0.5273
  926SOL    HW1 2777   1.333   2.838   1.235  1.9119  4.7860  2.7714
  926SOL    HW2 2778   1.354   2.912   1.393  0.4517 -0.7681 -0.2428
  927SOL     OW 2779   0.354   2.649   1.751  0.2721 -0.2877  0.3823
  927SOL    HW1 2780   0.303   2.581   1.691 -1.4225 -0.7495 -0.5099
  927SOL    HW2 2781   0.312   2.744   1.744 -0.7237  1.7609  2.7895
  928SOL     OW 2782   1.617   2.096   2.220  0.3029  0.6726 -0.5884
  928SOL    HW1 2783   1.646   2.151   2.141  0.0995  1.1116  0.7631
  928SOL    HW2 2784   1.520   2.115   2.254  0.7441 -1.1914  0.3474
  929SOL     OW 2785   2.421   2.501   2.878 -0.1574  0.1303  0.2709
  929SOL    HW1 2786   2.327   2.458   2.866  1.9975 -0.2911  0.1097
  929SOL    HW2 2787   2.462   2.510   2.784 -2.3337  1.8733 -0.4425
  930SOL     OW 2788   2.150   1.965   1.095  0.4191  0.4990 -0.1237
  930SOL    HW1 2789   2.126   1.910   1.183  1.4360  0.9607  2.8674
  930SOL    HW2 2790   2.226   2.041   1.114  0.5774 -0.4196 -0.8373
  931SOL     OW 2791   0.535   1.766   2.631  0.5607 -0.0579  0.3564
  931SOL    HW1 2792   0.538   1.791   2.736 -1.7619  1.3887  2.0754
  931SOL    HW2 2793   0.613   1.706   2.596 -0.2509 -0.9864 -0.1153
  932SOL     OW 2794   0.395   0.083   3.078  1.2032  0.5068 -0.4278
  932SOL    HW1 2795   0.476   0.115   3.134  3.2132  0.4198 -0.5613
  932SOL    HW2 2796   0.420  -0.009   3.041 -0.4360  0.3211  3.2584
  933SOL     OW 2797   0.915   0.839   3.003 -0.1155 -0.2416  0.4371
  933SOL    HW1 2798   0.932   0.823   3.102 -2.7499 -1.5929  0.6231
  933SOL    HW2 2799   0.892   0.940   2.977  1.0482 -0.5636 -0.2640
  934SOL     OW 2800   0.752   2.979   2.662  0.0838  0.1684 -0.9827
  934SOL    HW1 2801   0.748   2.922   2.570 -0.7544  0.2288 -2.5344
  934SOL    HW2 2802   0.803   2.922   2.732  2.9999 -0.4742 -0.3611
  935SOL     OW 2803   0.012   0.525   0.844 -0.1766 -0.3535  0.3307
  935SOL    HW1 2804  -0.002   0.488   0.749  1.0481  0.5153  2.7732
  935SOL    HW2 2805  -0.066   0.592   0.864 -2.2057 -0.4770  2.0775
  936SOL     OW 2806   1.096   2.826   0.085  0.3616 -0.2152  0.4924
  936SOL    HW1 2807   1.148   2.886   0.011  1.5325 -0.7277 -1.3863
  936SOL    HW2 2808   1.164   2.780   0.146  1.8615 -0.5925 -2.8544
  937SOL     OW 2809   1.891   2.673   2.107 -0.0539  0.2992  0.3450
  937SOL    HW1 2810   1.790   2.684   2.092  0.1259  0.2298 -1.2342
  937SOL    HW2 2811   1.944   2.754   2.068 -0.9867  0.6249 -0.0161
  938SOL     OW 2812   2.789   2.084   1.602 -0.0112  0.0900  0.5813
  938SOL    HW1 2813   2.764   2.183   1.613 -2.3969 -1.4266  3.9045
  938SOL    HW2 2814   2.850   2.046   1.675 -0.2674 -0.0037 -1.8416
  939SOL     OW 2815   2.784   1.207   2.429 -0.0591  0.2837 -0.5715
  939SOL    HW1 2816   2.859   1.179   2.358  2.4156 -0.3147  1.2405
  939SOL    HW2 2817   2.806   1.177   2.530 -1.1992 -1.8203  1.0799
  940SOL     OW 2818   1.076   0.452   2.767  0.4397 -0.5670 -0.0107
  940SOL    HW1 2819   1.111   0.354   2.771  0.3351 -1.0826  0.9838
  940SOL    HW2 2820   1.009   0.456   2.684  1.2495  0.2343  0.8279
  941SOL     OW 2821   0.017   2.777   2.286 -0.2427  0.1844 -0.3935
  941SOL    HW1 2822   0.092   2.714   2.239  1.1102  0.2532  1.6866
  941SOL    HW2 2823   0.058   2.849   2.347 -1.0012 -1.3608  0.1938
  942SOL     OW 2824   0.128   0.083   2.569  0.4895  0.0830  0.1983
  942SOL    HW1 2825   0.152   0.089   2.669  1.3640 -0.7646 -2.0132
  942SOL    HW2 2826   0.150   0.173   2.523 -1.8435 -0.4116  1.0513
  943SOL     OW 2827   2.091   1.657   2.376  0.1819 -0.2092  0.8679
  943SOL    HW1 2828   2.096   1.616   2.281 -1.0528 -0.0900  2.1241
  943SOL    HW2 2829   2.079   1.581   2.442 -0.5299 -0.0677 -3.3771
  944SOL     OW 2830   2.193   2.381   1.464  0.3391 -0.0973  0.0925
  944SOL    HW1 2831   2.295   2.391   1.498  1.8197 -1.6619 -1.5426
  944SOL    HW2 2832   2.156   2.297   1.512 -1.4183 -1.9452  0.6410
  945SOL     OW 2833   0.680   1.581   0.095 -0.1847  0.1829 -0.0976
  945SOL    HW1 2834   0.588   1.585   0.048 -1.8645  2.9641  2.3607
  945SOL    HW2 2835   0.698   1.487   0.141 -1.4823 -0.3221 -1.2161
  946SOL     OW 2836   0.397   0.943   2.533 -0.0727 -0.3173 -0.0028
  946SOL    HW1 2837   0.332   0.900   2.468  0.1283  2.0807 -0.3640
  946SOL    HW2 2838   0.407   1.046   2.523  0.7128  0.5780  2.7151
  947SOL     OW 2839   1.500   0.502   3.076 -0.2114  0.2960 -0.1712
  947SOL    HW1 2840   1.465   0.550   2.988  0.1859 -2.5948 -0.2593
  947SOL    HW2 2841   1.428   0.446   3.123  3.8221  1.0060 -0.4158
  948SOL     OW 2842   1.866   3.012   2.173 -0.0646  0.2088 -0.0081
  948SOL    HW1 2843   1.908   2.960   2.089  4.1878  1.0097  0.5073
  948SOL    HW2 2844   1.854   2.953   2.253  0.9441 -0.8003 -0.9451
  949SOL     OW 2845   0.631   2.488   0.487  0.2495  0.1975 -0.4455
  949SOL    HW1 2846   0.635   2.589   0.460 -0.1684 -2.5049  1.9806
  949SOL    HW2 2847   0.662   2.462   0.583  1.6808  0.6865 -1.2762
  950SOL     OW 2848   0.188   2.264   3.002  0.3205  0.1177 -0.0842
  950SOL    HW1 2849   0.168   2.355   2.948  0.5289  0.9214 -1.4171
  950SOL    HW2 2850   0.154   2.178   2.950 -2.4176 -0.7028  0.1294
  951SOL     OW 2851   1.167   2.612   2.790 -0.0113  0.0267  0.5849
  951SOL    HW1 2852   1.207   2.601   2.885 -0.8337 -2.2495 -0.6384
  951SOL    HW2 2853   1.228   2.672   2.728  1.2596 -0.4899 -0.5386
  952SOL     OW 2854   0.030   1.652   0.421  0.1539  0.6090  0.2733
  952SOL    HW1 2855   0.082   1.743   0.422 -1.8580 -3.7350  1.6337
  952SOL    HW2 2856   0.068   1.575   0.483  0.1735 -1.6271 -0.6277
  953SOL     OW 2857   2.568   1.746   0.198  0.0168  0.0841  0.0593
  953SOL    HW1 2858   2.527   1.655   0.218  2.3356  2.1191  2.8117
  953SOL    HW2 2859   2.519   1.789   0.113  0.5759 -0.3010 -1.4119
  954SOL     OW 2860   2.209   0.598   0.976  0.1934 -0.2011  1.0063
  954SOL    HW1 2861   2.214   0.567   0.878  0.5663 -0.7791 -1.4129
  954SOL    HW2 2862   2.302   0.608   1.023  3.0034 -0.5923 -1.3742
  955SOL     OW 2863   0.119   2.564   1.405  0.0215  0.3125  0.0391
  955SOL    HW1 2864   0.029   2.609   1.389 -3.2681 -1.9550 -0.5911
  955SOL    HW2 2865   0.205   2.624   1.390 -0.5960  1.2162 -3.4193
  956SOL     OW 2866   2.799   2.454   2.494  0.1646 -0.2141 -0.1261
  956SOL    HW1 2867   2.795   2.350   2.510  1.0221 -3.3327 -3.2687
  956SOL    HW2 2868   2.829   2.483   2.398 -1.2304  2.0469 -0.6487
  957SOL     OW 2869   1.570   2.095   2.804  0.4851 -0.1009  0.6629
  957SOL    HW1 2870   1.541   1.993   2.795  0.4772  0.0932  1.6232
  957SOL    HW2 2871   1.620   2.132   2.725  1.6907  0.9289  2.6341
  958SOL     OW 2872   2.592   2.289   2.990  0.0874 -0.3586  0.5981
  958SOL    HW1 2873   2.559   2.386   2.970  1.5407  2.0511  0.8330
  958SOL    HW2 2874   2.532   2.244   3.060 -3.6279  2.0716 -1.6827
  959SOL     OW 2875   0.317   2.781   0.073  0.5197 -0.5813 -0.0566
  959SOL    HW1 2876   0.219   2.784   0.108 -2.4956 -2.5421 -1.3307
  959SOL    HW2 2877   0.358   2.688   0.082 -0.0881  1.3425 -0.6463
  960SOL     OW 2878   2.019   0.450   1.928  0.2198  0.1734  0.1916
  960SOL    HW1 2879   1.947   0.524   1.920 -0.9156 -0.7805  0.2818
  960SOL    HW2 2880   2.063   0.446   2.024 -0.3848  1.8808 -0.4074
  961SOL     OW 2881   2.568   1.915   1.060 -0.3280 -0.3998  0.2156
  961SOL    HW1 2882   2.573   2.013   1.027 -1.0434  0.1386  1.9351
  961SOL    HW2 2883   2.534   1.912   1.159 -1.0527  0.2467 -1.3699
  962SOL     OW 2884   1.307   0.909   0.082 -0.1316  0.1048 -0.3002
  962SOL    HW1 2885   1.283   0.940  -0.015  1.3472  1.8661  4.2106
  962SOL    HW2 2886   1.303   0.984   0.149 -0.2194 -1.6601  1.3477
  963SOL     OW 2887   2.309   2.524   1.800  0.0725 -0.2649 -0.5068
  963SOL    HW1 2888   2.252   2.454   1.855 -0.4115 -1.7020 -3.5430
  963SOL    HW2 2889   2.315   2.623   1.843  0.2547  1.4503 -0.9447
  964SOL     OW 2890   2.372   0.369   1.678 -0.4735  0.3494 -0.1113
  964SOL    HW1 2891   2.461   0.360   1.739  1.2427  2.0055  2.6096
  964SOL    HW2 2892   2.391   0.392   1.579 -1.1850  2.4049  0.3205
  965SOL     OW 2893   2.607   2.989   0.138  0.3244 -0.1686 -0.8304
  965SOL    HW1 2894   2.651   2.920   0.072  2.0227 -0.0999 -1.9092
  965SOL    HW2 2895   2.515   3.027   0.100  0.0781  2.0253 -1.2475
  966SOL     OW 2896   2.529   2.536   2.269  0.3231  0.3148  0.7010
  966SOL    HW1 2897   2.590   2.606   2.314  0.6354  0.4475  0.9587
  966SOL    HW2 2898   2.461   2.572   2.198 -1.5817  1.7305 -0.4709
  967SOL     OW 2899   2.782   2.800   2.462 -0.2520 -0.1049  0.3184
  967SOL    HW1 2900   2.808   2.734   2.382 -0.9559 -0.8515 -1.0538
  967SOL    HW2 2901   2.856   2.868   2.485 -0.1697 -0.0152  1.6732
  968SOL     OW 2902   1.922   1.065   2.601 -0.2258  0.0596 -0.1422
  968SOL    HW1 2903   1.843   1.119   2.565 -0.5984 -3.0983  0.4029
  968SOL    HW2 2904   1.914   0.963   2.573 -0.8081  1.3179 -1.8405
  969SOL     OW 2905   2.749   2.455   1.120  0.1592  0.0911  0.2860
  969SOL    HW1 2906   2.729   2.455   1.017 -2.1468  0.0665 -0.9704
  969SOL    HW2 2907   2.783   2.364   1.156 -0.2730  1.1966  0.8172
  970SOL     OW 2908   1.087   2.112   1.840 -0.5983  0.1532 -0.4542
  970SOL    HW1 2909   0.999   2.082   1.789 -1.9779  0.2114 -2.3586
  970SOL    HW2 2910   1.074   2.137   1.940 -0.1880  1.1217 -1.1680
  971SOL     OW 2911   2.895   2.047   2.051  0.0806 -0.1050  0.3693
  971SOL    HW1 2912   2.911   2.143   2.098  1.4648  1.7481  3.0008
  971SOL    HW2 2913   2.960   2.028   1.966  1.7177  0.3918 -2.3892
  972SOL     OW 2914   1.974   2.487   0.223  0.4122 -0.4989 -0.2948
  972SOL    HW1 2915   1.982   2.400   0.160 -0.6343 -0.4959  0.7918
  972SOL    HW2 2916   2.019   2.468   0.312 -2.3949  1.1371 -0.4318
  973SOL     OW 2917   1.240   0.973   1.875  0.0423  1.3416  0.2839
  973SOL    HW1 2918   1.169   0.896   1.857  0.9798 -0.1196  0.4891
  973SOL    HW2 2919   1.198   1.066   1.863  0.2890 -0.3985  0.9354
  974SOL     OW 2920   1.562   0.598   1.897 -0.2443  0.3472 -0.0236
  974SOL    HW1 2921   1.652   0.609   1.856 -1.8935  0.3357 -0.9668
  974SOL    HW2 2922   1.529   0.689   1.925 -0.1236  1.0655 -2.5443
  975SOL     OW 2923   2.357   3.054   0.035  0.3087 -0.1430  0.2162
  975SOL    HW1 2924   2.292   2.973   0.026  0.1826  0.8691 -0.7088
  975SOL    HW2 2925   2.389   3.092  -0.055  0.2623 -2.1196 -1.0423
  976SOL     OW 2926   1.868   2.807   2.379  0.3451 -0.5757 -0.0414
  976SOL    HW1 2927   1.788   2.747   2.388 -0.1445 -1.1295 -0.9147
  976SOL    HW2 2928   1.943   2.785   2.448  2.4712 -1.4292 -1.3745
  977SOL     OW 2929   0.534   0.603   0.985 -0.2559  0.4616  0.3248
  977SOL    HW1 2930   0.451   0.596   0.929 -2.7641  1.5088 -2.2357
  977SOL    HW2 2931   0.577   0.691   0.974 -2.2724  1.3882  4.2215
   3.10000   3.10000   3.10000
