1000 SPC/Fw water molecules t=   0.42000 step= 420
 2931
    1SOL     OW    1   2.524   0.307   2.611 -0.4592  0.3551  1.0781
    1SOL    HW1    2   2.572   0.217   2.628 -2.9446 -1.0944  0.3195
    1SOL    HW2    3   2.535   0.373   2.691  0.7424  0.1295 -2.0026
    2SOL     OW    4   2.703   3.064   1.453  0.1795  0.0417  0.4825
    2SOL    HW1    5   2.757   3.081   1.365 -0.2963 -1.1558 -0.8357
    2SOL    HW2    6   2.652   3.147   1.477  1.9322  1.7433 -1.9798
    3SOL     OW    7   2.743   2.595   0.392 -0.0289  0.1828 -0.4189
    3SOL    HW1    8   2.712   2.497   0.399  1.8980 -0.8865  2.1822
    3SOL    HW2    9   2.809   2.618   0.468  0.3983  0.6955  1.0403
    4SOL     OW   10   1.332   1.484   2.355 -0.7218  0.5925 -0.5447
    4SOL    HW1   11   1.247   1.503   2.304  2.3648 -1.2998  0.4370
    4SOL    HW2   12   1.318   1.431   2.443  1.4937  0.5228 -0.7133
    5SOL     OW   13   1.198   1.502   3.034  0.0084  0.5002  0.2092
    5SOL    HW1   14   1.253   1.567   3.098  0.0575  0.8656  1.0026
    5SOL    HW2   15   1.095   1.518   3.039  0.2915 -2.5399 -0.8434
    6SOL     OW   16   0.031   1.781   2.890  0.2340  0.3024  0.1142
    6SOL    HW1   17   0.063   1.839   2.967  0.6568 -1.1004  1.2111
    6SOL    HW2   18   0.026   1.679   2.913  0.3339 -1.4271  2.7356
    7SOL     OW   19   2.557   0.889   1.153  0.3670 -0.1507  0.5563
    7SOL    HW1   20   2.479   0.850   1.211 -0.9179  0.8396 -0.6397
    7SOL    HW2   21   2.541   0.891   1.053 -1.8914  2.5791 -0.8240
    8SOL     OW   22   0.408   0.637   1.540  0.2001 -0.2724 -0.3066
    8SOL    HW1   23   0.490   0.572   1.552  2.6656 -0.6037  0.0158
    8SOL    HW2   24   0.350   0.609   1.456  1.0884  0.9721 -1.6923
    9SOL     OW   25   1.148   0.966   2.249 -0.1423  0.1465  0.2138
    9SOL    HW1   26   1.230   1.019   2.223 -2.0190 -2.6127 -1.0628
    9SOL    HW2   27   1.086   0.948   2.166 -1.4525 -1.1396 -3.4258
   10SOL     OW   28   0.716   1.353   1.260 -0.2939  0.0404  0.6212
   10SOL    HW1   29   0.613   1.354   1.230 -0.4379 -0.7304 -1.2215
   10SOL    HW2   30   0.765   1.440   1.248 -3.2332 -0.1313 -2.4531
   11SOL     OW   31   2.355   2.669   0.969  0.4829  0.6948  0.3160
   11SOL    HW1   32   2.314   2.671   1.061  0.0857  0.8825 -1.2657
   11SOL    HW2   33   2.458   2.655   0.962 -1.8718 -0.4644 -0.4850
   12SOL     OW   34   1.440   0.922   0.402  0.0769 -0.3457 -0.1967
   12SOL    HW1   35   1.370   0.988   0.361 -0.7410 -0.8135 -0.6641
   12SOL    HW2   36   1.446   0.836   0.346  1.1269  1.4177 -2.3762
   13SOL     OW   37   2.531   0.668   1.823  0.1743  0.0099 -1.0556
   13SOL    HW1   38   2.439   0.658   1.870  0.1052 -0.8997 -1.9125
   13SOL    HW2   39   2.520   0.640   1.726 -0.5598 -2.0657  0.2676
   14SOL     OW   40   1.985   0.037   0.681  0.4180  0.3145  0.4506
   14SOL    HW1   41   1.918   0.092   0.627  0.3333  1.1405 -0.2419
   14SOL    HW2   42   1.938  -0.043   0.728  0.6957 -2.0697  1.4828
   15SOL     OW   43   1.947   2.016   2.857  0.1073 -0.3035  0.0169
   15SOL    HW1   44   1.920   2.117   2.860  2.8021 -0.4221  0.5444
   15SOL    HW2   45   1.901   1.966   2.782 -0.0166  0.0957 -0.0267
   16SOL     OW   46   1.621   1.733   0.002  0.1387 -0.2613  0.0707
   16SOL    HW1   47   1.638   1.635  -0.027 -3.7328  0.6420 -2.2400
   16SOL    HW2   48   1.707   1.786   0.019  0.8939 -1.1658 -1.9463
   17SOL     OW   49   0.083   0.490   0.136 -0.3317  0.4229 -1.2691
   17SOL    HW1   50   0.175   0.513   0.094  0.1001  0.3521  1.4023
   17SOL    HW2   51   0.011   0.489   0.061  2.1714 -1.4055 -2.1680
   18SOL     OW   52   0.987   2.897   2.176  0.5051  0.0986 -0.2194
   18SOL    HW1   53   0.896   2.856   2.155 -0.0748  1.5182 -1.7855
   18SOL    HW2   54   1.063   2.870   2.104  0.3880 -0.6268  3.1239
   19SOL     OW   55   0.523   0.858   1.945  0.7500 -0.3914 -0.4168
   19SOL    HW1   56   0.526   0.942   2.007 -1.0226 -3.3782  0.4848
   19SOL    HW2   57   0.610   0.802   1.936  0.6991  1.3236 -4.1303
   20SOL     OW   58   0.180   2.801   0.826 -0.5570 -0.0841  0.8655
   20SOL    HW1   59   0.096   2.849   0.778 -2.4758  0.8273  1.1125
   20SOL    HW2   60   0.270   2.829   0.781 -0.9210  0.4004 -4.0260
   21SOL     OW   61   2.785   0.181   2.140  0.3267 -0.1930 -0.5742
   21SOL    HW1   62   2.781   0.096   2.082  0.9469  0.2291  0.9985
   21SOL    HW2   63   2.795   0.157   2.241 -0.9577  0.7246 -2.1699
   22SOL     OW   64   2.318   0.233   0.008  0.1776  0.3711  0.3125
   22SOL    HW1   65   2.323   0.129   0.012 -0.4986 -0.9443  0.5646
   22SOL    HW2   66   2.223   0.266  -0.018  2.8837 -0.3083  0.1988
   23SOL     OW   67   2.802   0.641   0.652 -0.1688 -0.0060 -0.3069
   23SOL    HW1   68   2.830   0.559   0.596 -2.7664 -1.6625 -2.5214
   23SOL    HW2   69   2.761   0.718   0.596 -2.0106 -2.7782 -0.5259
   24SOL     OW   70   0.145   1.918   0.437  0.0079  0.4458 -0.7896
   24SOL    HW1   71   0.055   1.944   0.394  2.1230 -2.7297 -1.9174
   24SOL    HW2   72   0.227   1.890   0.379 -1.5896 -1.1694  0.3765
   25SOL     OW   73   2.257   0.485   0.205 -0.2043  0.3364  0.5860
   25SOL    HW1   74   2.323   0.418   0.250  0.2493  2.0094 -2.9345
   25SOL    HW2   75   2.263   0.499   0.104  2.2341 -0.0754 -0.8515
   26SOL     OW   76   2.479   2.191   2.096  0.4386  0.2592 -0.3375
   26SOL    HW1   77   2.546   2.228   2.163  0.7577 -1.3720  1.7821
   26SOL    HW2   78   2.520   2.107   2.046  0.6211  2.2684 -1.2673
   27SOL     OW   79   0.656   2.979   0.109 -0.4468  0.3641  0.1715
   27SOL    HW1   80   0.760   3.000   0.109 -1.1072  1.6053  0.0042
   27SOL    HW2   81   0.602   3.014   0.028 -0.2710 -0.2136  1.6351
   28SOL     OW   82   1.564   0.170   0.277  0.2116  0.1113  0.1486
   28SOL    HW1   83   1.629   0.139   0.204 -0.1088  2.2798 -1.4037
   28SOL    HW2   84   1.599   0.252   0.335  1.6822  0.4142 -2.4975
   29SOL     OW   85   2.039   0.548   0.357  0.1825 -0.7027  0.5808
   29SOL    HW1   86   1.997   0.641   0.340 -3.0505  0.8496 -0.3394
   29SOL    HW2   87   2.124   0.525   0.306 -1.9328  0.6474  3.6494
   30SOL     OW   88   0.129   2.026   0.929  0.5206  0.2133 -0.2593
   30SOL    HW1   89   0.161   2.048   0.831 -0.2573  0.3140 -0.6402
   30SOL    HW2   90   0.049   2.093   0.954 -1.5576  2.9673 -2.8107
   31SOL     OW   91   2.101   0.010   2.304  0.1233  0.2217 -0.4745
   31SOL    HW1   92   2.090  -0.007   2.406 -0.0871 -1.2349  0.0903
   31SOL    HW2   93   2.016  -0.020   2.254 -1.4320  1.1538  2.0968
   32SOL     OW   94   2.920   0.189   0.159  0.5161 -0.1432  0.6326
   32SOL    HW1   95   2.889   0.101   0.206  0.3549  1.7058 -1.4448
   32SOL    HW2   96   3.012   0.224   0.194  2.0121  1.4320 -0.1355
   33SOL     OW   97   0.935   0.327   0.499 -0.3525 -0.3941  0.5412
   33SOL    HW1   98   0.880   0.256   0.444 -0.3515  1.4887 -0.7914
   33SOL    HW2   99   0.997   0.297   0.568 -0.7840  0.4327 -0.7896
   34SOL     OW  100   0.393   2.841   1.039 -0.4289 -0.0365 -1.3094
   34SOL    HW1  101   0.339   2.779   0.979 -0.2168 -2.8907  0.2387
   34SOL    HW2  102   0.493   2.845   1.013  0.5772  0.2696  0.8722
   35SOL     OW  103   0.039   0.095   1.852  0.0624  1.1414  0.2571
   35SOL    HW1  104   0.088   0.011   1.878 -0.8438  2.3771  0.1446
   35SOL    HW2  105  -0.018   0.082   1.767 -0.3980  0.0623  2.0810
   36SOL     OW  106   1.937   1.121   1.813  0.1305 -0.1282  0.3738
   36SOL    HW1  107   1.991   1.092   1.734 -1.6328  2.2244  2.4538
   36SOL    HW2  108   1.992   1.196   1.862  0.3003 -1.0931 -1.9253
   37SOL     OW  109   1.192   0.228   0.945 -0.3776 -0.8261  0.0249
   37SOL    HW1  110   1.243   0.312   0.984  0.8353  0.5287  0.4710
   37SOL    HW2  111   1.242   0.139   0.975  1.3213 -0.7525 -0.0486
   38SOL     OW  112   1.062   2.697   2.413  0.4764 -0.0238 -0.0545
   38SOL    HW1  113   1.056   2.600   2.449 -1.0760  1.9408  0.9269
   38SOL    HW2  114   0.975   2.751   2.436 -3.2399  0.7203  0.8642
   39SOL     OW  115   2.318   1.383   3.000  0.6169 -0.4784 -0.3529
   39SOL    HW1  116   2.412   1.343   3.016 -0.3266  0.5293 -0.8339
   39SOL    HW2  117   2.252   1.369   3.084  1.2196  0.1031  0.8136
   40SOL     OW  118   2.101   2.523   2.523  0.4441 -0.6709  0.4210
   40SOL    HW1  119   2.040   2.603   2.561  2.8924  0.8011 -2.8537
   40SOL    HW2  120   2.033   2.463   2.463  1.4990  0.2654  0.3920
   41SOL     OW  121   2.925   0.696   2.751 -0.0315  0.5501  0.1042
   41SOL    HW1  122   2.838   0.755   2.770 -0.1152  0.8735  0.8237
   41SOL    HW2  123   2.894   0.597   2.730  1.1321 -1.9113 -0.7746
   42SOL     OW  124   1.759   1.770   0.571 -0.3853  0.4719  0.0303
   42SOL    HW1  125   1.728   1.674   0.536  1.8817 -0.3057 -2.3050
   42SOL    HW2  126   1.810   1.814   0.493  1.0544 -0.8600  0.6264
   43SOL     OW  127   0.463   1.747   1.197  0.3462 -0.2659 -0.5386
   43SOL    HW1  128   0.429   1.706   1.287  0.0230 -0.8127 -1.4575
   43SOL    HW2  129   0.392   1.759   1.126  1.4825  1.0365 -1.1898
   44SOL     OW  130   1.785   2.533   0.004  0.5494 -0.6599 -0.6296
   44SOL    HW1  131   1.761   2.571  -0.092 -1.3757  0.3073 -0.6777
   44SOL    HW2  132   1.880   2.566   0.035 -1.7937 -0.5349 -0.9012
   45SOL     OW  133   0.286   1.901   2.601 -0.0406 -0.6433  0.1581
   45SOL    HW1  134   0.226   1.880   2.518  1.0552 -0.5477 -1.8784
   45SOL    HW2  135   0.352   1.823   2.622 -0.1942 -2.8864 -0.4474
   46SOL     OW  136   1.168   0.657   0.231  0.4490  0.5213 -0.3281
   46SOL    HW1  137   1.224   0.740   0.204  2.7933  0.8311  0.5707
   46SOL    HW2  138   1.069   0.680   0.247 -0.2927 -1.3667 -0.2425
   47SOL     OW  139   0.215   2.439   1.611  0.0561  0.0720  0.7356
   47SOL    HW1  140   0.277   2.359   1.604  0.3374 -2.2105 -0.9531
   47SOL    HW2  141   0.149   2.450   1.527 -3.0128  0.0302  2.7244
   48SOL     OW  142   2.595   0.599   0.143 -0.1134  0.0791  0.0660
   48SOL    HW1  143   2.554   0.594   0.239  0.7044  1.0158 -2.5947
   48SOL    HW2  144   2.674   0.656   0.155  0.0261 -3.6287  1.7109
   49SOL     OW  145   0.360   0.805   1.740  0.1192  0.1846 -0.3668
   49SOL    HW1  146   0.426   0.833   1.818 -0.3459 -0.6332  1.6305
   49SOL    HW2  147   0.389   0.725   1.680  0.2489  0.4342  0.0066
   50SOL     OW  148   1.688   1.091   0.371 -0.4537  0.1859 -0.6471
   50SOL    HW1  149   1.686   0.984   0.351 -0.5004  1.7201  0.3181
   50SOL    HW2  150   1.618   1.119   0.444  0.5906  0.3622  1.1343
   51SOL     OW  151   2.993   1.897   0.328 -0.1342  0.6189 -0.4237
   51SOL    HW1  152   2.983   1.904   0.227  0.0264 -1.8384 -0.8596
   51SOL    HW2  153   2.969   1.806   0.365 -2.0688  2.5998  0.9298
   52SOL     OW  154   0.791   1.960   0.501  0.1309 -0.7383  0.6461
   52SOL    HW1  155   0.694   1.991   0.533 -0.8260 -0.7197  0.4025
   52SOL    HW2  156   0.827   1.878   0.549 -0.1335  0.4181 -1.4307
   53SOL     OW  157   3.085   0.356   1.558 -0.1539  0.2126 -0.3420
   53SOL    HW1  158   3.056   0.374   1.656 -1.5772 -1.2676  1.5847
   53SOL    HW2  159   3.088   0.441   1.495 -0.3916 -2.0342 -0.9506
   54SOL     OW  160   1.746   0.475   3.060 -0.0872 -0.3867  0.4957
   54SOL    HW1  161   1.792   0.436   3.142 -0.1218  1.2652  0.9524
   54SOL    HW2  162   1.644   0.480   3.072  3.8937 -2.6249 -1.7408
   55SOL     OW  163   0.731   2.933   0.579  0.1965 -1.1578  0.6333
   55SOL    HW1  164   0.660   3.009   0.572  0.3385  0.0952 -0.7879
   55SOL    HW2  165   0.816   2.950   0.528 -3.5276 -1.1511 -2.5582
   56SOL     OW  166   0.455   1.568   3.024  0.0223  0.3591  0.5315
   56SOL    HW1  167   0.401   1.651   3.058  0.2749 -0.1871 -1.6254
   56SOL    HW2  168   0.391   1.490   2.984 -3.9173 -1.5772 -0.4896
   57SOL     OW  169   1.816   2.442   2.677  0.1904  0.6369 -0.4393
   57SOL    HW1  170   1.858   2.431   2.583 -0.4740 -0.1001 -0.7435
   57SOL    HW2  171   1.715   2.463   2.672 -0.5527  1.1673 -2.9352
   58SOL     OW  172   0.648   0.416   1.119  0.3754 -0.6724 -0.1105
   58SOL    HW1  173   0.573   0.480   1.077 -0.4064  0.8125 -0.3983
   58SOL    HW2  174   0.600   0.326   1.128 -0.8290 -0.2242  3.2823
   59SOL     OW  175   0.437   2.392   2.733 -0.2848 -0.6813  0.2302
   59SOL    HW1  176   0.423   2.293   2.703 -1.3536  1.5213  1.7981
   59SOL    HW2  177   0.507   2.405   2.811  0.7847 -0.4326  1.3098
   60SOL     OW  178   2.294   2.109   2.259 -0.2742 -0.2192 -0.1488
   60SOL    HW1  179   2.366   2.158   2.199 -2.4391  1.2266 -3.8113
   60SOL    HW2  180   2.305   2.127   2.361 -0.1803 -0.7737 -0.6296
   61SOL     OW  181   1.367   0.650   0.503 -0.5269 -0.0216 -0.0148
   61SOL    HW1  182   1.286   0.688   0.555  1.5247  1.5811 -2.1794
   61SOL    HW2  183   1.350   0.621   0.408  1.0421  1.0352  0.9831
   62SOL     OW  184   2.655   1.809   3.011  0.5272 -0.3387 -0.6655
   62SOL    HW1  185   2.633   1.714   3.054  0.0539 -2.0981 -0.3657
   62SOL    HW2  186   2.728   1.809   2.937 -0.6833 -1.9353  2.4746
   63SOL     OW  187   0.501   0.882   0.167  0.1798  0.4642 -0.0822
   63SOL    HW1  188   0.470   0.982   0.154  2.4328  2.2555 -0.7491
   63SOL    HW2  189   0.593   0.883   0.216  1.5688  1.8340  0.3260
   64SOL     OW  190   0.073   0.518   2.533 -0.3784 -0.0781  0.5921
   64SOL    HW1  191   0.004   0.570   2.592 -0.3852  3.6619 -2.6729
   64SOL    HW2  192   0.123   0.585   2.461  0.9438 -0.1636 -0.2138
   65SOL     OW  193   0.177   1.478   0.628 -0.0057  0.3155 -0.0688
   65SOL    HW1  194   0.206   1.545   0.700  1.8334 -0.2257 -1.2181
   65SOL    HW2  195   0.245   1.437   0.568 -1.4269 -2.9252  0.6780
   66SOL     OW  196   2.524   0.427   0.646 -0.0505 -0.1119 -0.3036
   66SOL    HW1  197   2.469   0.503   0.694 -0.1458  1.6087  1.6483
   66SOL    HW2  198   2.500   0.328   0.674 -1.4220  1.9431 -2.9300
   67SOL     OW  199   0.503   2.489   1.421  0.3129 -0.5066  0.5683
   67SOL    HW1  200   0.544   2.477   1.516 -0.7354  2.6742  1.3585
   67SOL    HW2  201   0.467   2.400   1.383  1.0204 -2.8457  0.5742
   68SOL     OW  202   1.014   1.089   2.475 -0.6469 -0.1804 -0.7959
   68SOL    HW1  203   1.062   1.034   2.404  0.5965 -0.5741  1.8391
   68SOL    HW2  204   0.946   1.145   2.424  1.6358  0.4320 -0.7302
   69SOL     OW  205   0.745   2.753   2.159 -0.0622  0.0618  0.5708
   69SOL    HW1  206   0.811   2.679   2.184 -1.5713  1.6911 -1.6097
   69SOL    HW2  207   0.649   2.730   2.169 -0.8128  0.9038  1.7480
   70SOL     OW  208   0.649   0.278   2.743 -0.1351  0.2452 -0.2557
   70SOL    HW1  209   0.700   0.322   2.816 -0.4822 -1.7626 -2.0121
   70SOL    HW2  210   0.597   0.199   2.779  1.4856  1.2796 -0.4906
   71SOL     OW  211   1.127   1.799   0.334 -0.1008 -0.0062 -0.2795
   71SOL    HW1  212   1.079   1.709   0.342  1.7988  1.3101  2.1481
   71SOL    HW2  213   1.134   1.827   0.235 -0.3695  1.5554 -1.5223
   72SOL     OW  214   1.800   0.157   2.060 -0.7675 -0.5522  0.3212
   72SOL    HW1  215   1.850   0.172   1.966  0.4799 -1.5509  0.1486
   72SOL    HW2  216   1.821   0.063   2.099 -1.1106 -0.1426 -2.1205
   73SOL     OW  217   2.741   2.196   2.527  0.1630 -0.6146  0.1584
   73SOL    HW1  218   2.701   2.105   2.517 -3.2914 -3.1062 -1.1196
   73SOL    HW2  219   2.807   2.204   2.604 -0.2866 -1.3316 -2.3600
   74SOL     OW  220   2.732   2.975   2.007 -0.4276  0.2199 -0.7409
   74SOL    HW1  221   2.662   2.948   2.087 -1.4155  2.0408  0.0238
   74SOL    HW2  222   2.830   2.982   2.045  0.3898 -0.3124  2.5370
   75SOL     OW  223   0.907   0.758   1.029 -0.2307  0.1346 -0.5104
   75SOL    HW1  224   0.824   0.824   1.005 -1.1261  0.6984 -1.6630
   75SOL    HW2  225   0.959   0.796   1.111  0.2098  0.1689  2.5238
   76SOL     OW  226   1.742   1.231   2.576 -0.4492 -0.4042 -0.1797
   76SOL    HW1  227   1.637   1.213   2.576  1.3058  0.0484  2.0492
   76SOL    HW2  228   1.762   1.313   2.629  0.6454  0.3627 -3.0838
   77SOL     OW  229   2.916   0.967   0.979 -0.5831 -0.7398 -0.2679
   77SOL    HW1  230   2.904   0.867   0.959  0.8341 -1.2365 -2.7607
   77SOL    HW2  231   2.964   0.995   1.068 -0.1894  3.6530 -3.4434
   78SOL     OW  232   2.008   1.422   1.501  1.1499  0.0608  0.0909
   78SOL    HW1  233   2.097   1.435   1.455 -0.7663  1.6292 -1.5590
   78SOL    HW2  234   1.926   1.407   1.443 -1.2303  1.8956  0.6939
   79SOL     OW  235   0.583   1.346   0.822 -0.4186 -0.1624 -0.0446
   79SOL    HW1  236   0.493   1.384   0.859  1.2352  0.3536 -1.9644
   79SOL    HW2  237   0.574   1.309   0.724 -0.1257 -0.2873 -1.1749
   80SOL     OW  238   0.658   0.488   1.586  0.2062 -0.1743  0.2559
   80SOL    HW1  239   0.694   0.564   1.521 -0.0298  1.5819 -0.8450
   80SOL    HW2  240   0.724   0.408   1.596  2.3651  1.1019  0.1402
   81SOL     OW  241   1.012   1.369   2.606  0.6228  0.4393 -0.4620
   81SOL    HW1  242   1.002   1.266   2.607 -2.2870 -1.6050  1.7859
   81SOL    HW2  243   0.955   1.418   2.535  2.5237  0.1319  3.0300
   82SOL     OW  244   0.979   2.958   1.525  0.2064 -0.1560 -0.5594
   82SOL    HW1  245   1.036   2.951   1.439 -1.4933  2.2650 -0.4059
   82SOL    HW2  246   0.879   2.955   1.504  3.3753 -0.1362  1.0871
   83SOL     OW  247   2.678   2.458   0.790 -0.7819  0.2892  0.7180
   83SOL    HW1  248   2.586   2.422   0.755 -0.4704 -0.4089 -0.5217
   83SOL    HW2  249   2.692   2.558   0.774  1.3406  3.1148  0.7892
   84SOL     OW  250   0.718   3.085   2.377  0.6925 -0.0046 -0.3164
   84SOL    HW1  251   0.634   3.032   2.409 -1.2581 -0.2699 -0.4591
   84SOL    HW2  252   0.800   3.089   2.444  0.3998 -3.1013 -0.0108
   85SOL     OW  253   0.408   1.668   1.536 -0.0464 -0.7466  0.3707
   85SOL    HW1  254   0.349   1.750   1.517 -1.0953 -1.1423  0.4762
   85SOL    HW2  255   0.427   1.657   1.635 -1.6482  2.3598  0.2265
   86SOL     OW  256   0.363   0.980   1.516  0.0238 -0.1522  0.0484
   86SOL    HW1  257   0.358   0.918   1.433 -1.3806 -2.2905 -0.2795
   86SOL    HW2  258   0.369   0.926   1.605 -1.6040 -1.0383  0.9693
   87SOL     OW  259   1.526   0.644   0.262 -0.0372 -0.0074  0.5871
   87SOL    HW1  260   1.608   0.711   0.263  0.4138  0.0056  2.0458
   87SOL    HW2  261   1.514   0.597   0.171 -1.9331 -1.6605 -0.5127
   88SOL     OW  262   1.568   1.323   0.195  0.0142  0.5443  0.2387
   88SOL    HW1  263   1.619   1.258   0.256 -1.5473  0.2655 -0.3413
   88SOL    HW2  264   1.466   1.347   0.212 -1.8865 -0.8240 -0.5406
   89SOL     OW  265   0.031   0.450   0.559  0.9419 -0.4247  0.5737
   89SOL    HW1  266   0.094   0.370   0.577 -2.0789 -0.1754  1.0030
   89SOL    HW2  267  -0.065   0.423   0.539 -1.2152 -0.0683  0.1427
   90SOL     OW  268   0.946   1.610   3.015 -0.2568 -0.5771  0.2649
   90SOL    HW1  269   0.859   1.594   3.070 -0.8267 -0.6316 -1.8075
   90SOL    HW2  270   0.921   1.646   2.919 -1.3033 -0.2604  1.1202
   91SOL     OW  271   1.277   1.470   1.791  0.3248 -0.3786  0.3694
   91SOL    HW1  272   1.272   1.551   1.861  0.5266 -2.5446  2.5941
   91SOL    HW2  273   1.374   1.443   1.758  1.6312 -0.7990 -2.4087
   92SOL     OW  274   3.056   1.043   1.225 -0.1968  0.4844  0.2291
   92SOL    HW1  275   3.126   1.107   1.182  0.5608 -1.0904  0.3908
   92SOL    HW2  276   3.096   1.008   1.315  1.0948  2.0117  1.3613
   93SOL     OW  277   3.088   2.753   0.071  0.0918  0.1989  0.3940
   93SOL    HW1  278   3.059   2.740  -0.030 -1.8527  0.6403  0.9212
   93SOL    HW2  279   3.148   2.671   0.098 -0.7896  1.5223 -1.2069
   94SOL     OW  280   1.525   1.413   1.696 -0.2865  0.2028  0.0550
   94SOL    HW1  281   1.558   1.320   1.717 -3.1017  0.2512  0.1890
   94SOL    HW2  282   1.586   1.490   1.735  0.7664  1.1648 -2.6094
   95SOL     OW  283   1.303   2.511   2.980  0.2136  0.7143 -0.0374
   95SOL    HW1  284   1.226   2.494   3.044  2.2377  0.5689 -3.1650
   95SOL    HW2  285   1.334   2.423   2.938  0.1282  1.4593  1.1949
   96SOL     OW  286   0.584   2.018   1.190 -0.0372 -0.0888  0.8160
   96SOL    HW1  287   0.524   2.047   1.109 -1.4313  1.2491  5.4155
   96SOL    HW2  288   0.551   1.935   1.241  1.7038  0.3812 -1.7272
   97SOL     OW  289   0.375   1.531   2.526  0.0123  0.5850 -0.3348
   97SOL    HW1  290   0.272   1.533   2.543 -1.2740 -1.7104  0.0135
   97SOL    HW2  291   0.432   1.600   2.584  0.2910 -0.4607 -1.0201
   98SOL     OW  292   1.976   1.617   1.276 -0.1908 -0.0625 -0.4789
   98SOL    HW1  293   1.897   1.603   1.204 -1.1089 -0.4819  3.6930
   98SOL    HW2  294   2.041   1.535   1.275  1.0104 -1.0645  0.0531
   99SOL     OW  295   2.481   2.116   1.381 -0.3228 -0.8170  0.9913
   99SOL    HW1  296   2.499   2.118   1.482  2.8230 -0.7594  1.2434
   99SOL    HW2  297   2.471   2.020   1.346 -0.9721 -1.1566 -0.8876
  100SOL     OW  298   2.306   0.379   2.051 -0.5266 -0.1657  0.5575
  100SOL    HW1  299   2.246   0.351   2.125  1.4931  0.4150 -0.0101
  100SOL    HW2  300   2.397   0.414   2.081  0.9583  0.2905  0.9848
  101SOL     OW  301   0.391   1.488   0.274  0.5834  0.2664  0.3414
  101SOL    HW1  302   0.444   1.513   0.357  4.1862 -0.5027 -2.9190
  101SOL    HW2  303   0.405   1.553   0.198  1.2742 -1.3478  1.1717
  102SOL     OW  304   2.309   1.040   0.815  0.0653 -0.4863  0.3531
  102SOL    HW1  305   2.209   1.010   0.798  1.3614  0.0695  0.8504
  102SOL    HW2  306   2.347   1.098   0.742  0.9337 -0.4005 -2.1756
  103SOL     OW  307   2.303   0.049   0.400  0.5199 -0.0324  0.0523
  103SOL    HW1  308   2.372   0.102   0.344  1.1787  1.3495 -0.3912
  103SOL    HW2  309   2.337  -0.011   0.479 -2.3007  0.9754  0.0281
  104SOL     OW  310   0.077   1.812   2.119  0.5434 -1.1215  0.1300
  104SOL    HW1  311   0.096   1.771   2.023  3.4143 -0.2226  1.4979
  104SOL    HW2  312  -0.023   1.827   2.121  0.6346 -2.6996 -2.2220
  105SOL     OW  313   1.242   1.987   0.787  0.4519  0.2422  0.0399
  105SOL    HW1  314   1.171   2.021   0.718 -1.1226 -0.6153  0.7296
  105SOL    HW2  315   1.267   1.887   0.774 -0.4881  0.7124 -0.6270
  106SOL     OW  316   2.107   0.507   1.387  0.4073  0.9966 -0.0955
  106SOL    HW1  317   2.061   0.413   1.408  2.4933 -0.9101 -0.9094
  106SOL    HW2  318   2.085   0.582   1.457  0.1609  0.2384 -0.8561
  107SOL     OW  319   1.809   3.002   1.089  0.1825  0.0060  0.2291
  107SOL    HW1  320   1.833   3.094   1.128  1.0307 -0.8795 -1.3624
  107SOL    HW2  321   1.732   2.954   1.139 -1.3642 -1.2869  1.1923
  108SOL     OW  322   0.812   2.730   1.278  0.3965  0.0486 -0.6887
  108SOL    HW1  323   0.778   2.761   1.369  1.3926  0.5564 -1.4156
  108SOL    HW2  324   0.910   2.712   1.277  0.1355  2.8898 -0.0151
  109SOL     OW  325   2.191   0.112   0.799  0.3652  0.2440 -0.5923
  109SOL    HW1  326   2.101   0.090   0.752  0.0879  1.6784 -1.0415
  109SOL    HW2  327   2.191   0.081   0.895  1.5050  0.2644 -1.7077
  110SOL     OW  328   0.446   2.807   2.684 -0.6720 -0.4016  0.0848
  110SOL    HW1  329   0.446   2.855   2.589  3.1558  2.7246 -1.4897
  110SOL    HW2  330   0.531   2.745   2.696  0.3187 -2.3853  2.7352
  111SOL     OW  331   1.314   0.522   2.250  0.3967 -0.2747 -0.1949
  111SOL    HW1  332   1.237   0.573   2.298 -0.1855 -1.4994 -1.7489
  111SOL    HW2  333   1.371   0.463   2.317  2.4901 -1.2318 -1.1544
  112SOL     OW  334   1.749   0.517   1.437  0.0633  0.3392  0.5804
  112SOL    HW1  335   1.765   0.516   1.333 -0.2647  0.1515  0.1295
  112SOL    HW2  336   1.733   0.423   1.471  0.5657  0.6612 -0.4994
  113SOL     OW  337   2.298   1.633   1.730 -0.4868 -0.4822  0.3250
  113SOL    HW1  338   2.338   1.544   1.700 -0.9088 -1.0736 -2.6850
  113SOL    HW2  339   2.323   1.651   1.832  1.0750  1.8959 -0.5884
  114SOL     OW  340   0.303   0.540   1.296 -0.1237 -0.1937 -0.2534
  114SOL    HW1  341   0.306   0.639   1.259  1.2312  2.1090 -1.3564
  114SOL    HW2  342   0.262   0.475   1.225  0.7040  2.1015 -4.1108
  115SOL     OW  343   2.616   1.580   1.205 -0.5205  1.0685 -0.2791
  115SOL    HW1  344   2.659   1.492   1.245 -0.3765  2.2757 -1.5916
  115SOL    HW2  345   2.676   1.627   1.140 -1.0428  1.7242  0.7011
  116SOL     OW  346   1.812   1.039   0.791  0.1953  0.2425 -0.7529
  116SOL    HW1  347   1.732   0.987   0.762  0.4414 -1.3226  0.0548
  116SOL    HW2  348   1.801   1.141   0.807  1.1872  0.2445  1.3549
  117SOL     OW  349   1.112   0.340   0.714  0.4131  0.1550 -0.4171
  117SOL    HW1  350   1.131   0.296   0.809 -2.4507 -0.7686 -0.4366
  117SOL    HW2  351   1.146   0.435   0.712 -0.2679  0.7052  0.5877
  118SOL     OW  352   1.110   1.121   1.127 -0.1432  0.2450 -0.6852
  118SOL    HW1  353   1.060   1.032   1.161  0.3082 -0.1424 -0.8215
  118SOL    HW2  354   1.096   1.206   1.180 -2.4351 -1.7465  0.4895
  119SOL     OW  355   1.823   1.603   2.116  0.3945 -0.5306  0.3211
  119SOL    HW1  356   1.788   1.704   2.143  0.7973  2.6513 -0.0309
  119SOL    HW2  357   1.925   1.587   2.115 -2.3928 -0.2490 -0.6202
  120SOL     OW  358   2.968   2.811   0.298  0.0954  0.4409 -0.0515
  120SOL    HW1  359   3.005   2.811   0.201 -1.8963 -1.5298 -3.7136
  120SOL    HW2  360   2.985   2.716   0.341 -1.9438 -0.2380 -2.7655
  121SOL     OW  361   1.985   0.717   2.232 -0.0352  0.0543  0.2947
  121SOL    HW1  362   1.993   0.755   2.139 -3.7445  0.4558  1.5965
  121SOL    HW2  363   2.001   0.612   2.236  1.9036 -0.3579  0.4245
  122SOL     OW  364   2.717   2.640   1.304 -0.0881  0.8265  0.0656
  122SOL    HW1  365   2.740   2.579   1.218  0.0305 -0.5560 -2.9162
  122SOL    HW2  366   2.641   2.603   1.355  0.0977  0.9218  0.5171
  123SOL     OW  367   1.740   0.074   1.717 -0.1967  0.2633 -0.1043
  123SOL    HW1  368   1.769  -0.011   1.662  1.7997  0.2685 -2.3092
  123SOL    HW2  369   1.818   0.120   1.776  1.6585  0.5658  1.9622
  124SOL     OW  370   0.111   0.494   1.086  0.1591 -0.0514 -0.1645
  124SOL    HW1  371   0.105   0.591   1.136 -1.1945  0.4801  2.3001
  124SOL    HW2  372   0.075   0.507   0.986 -1.1350 -0.6986  2.7639
  125SOL     OW  373   0.901   1.746   0.642 -1.0179 -0.2038 -0.3602
  125SOL    HW1  374   1.004   1.720   0.621 -0.0506 -1.7392 -2.0977
  125SOL    HW2  375   0.893   1.805   0.726  0.7372 -0.5648 -1.6770
  126SOL     OW  376   1.920   2.363   2.415 -0.1573  0.3270  0.4444
  126SOL    HW1  377   1.972   2.294   2.354  0.0037  1.3630 -1.8413
  126SOL    HW2  378   1.818   2.342   2.412  0.2141 -0.7750  1.4419
  127SOL     OW  379   0.787   0.962   0.247  0.0259 -0.2598  0.3625
  127SOL    HW1  380   0.806   0.997   0.343 -0.4902 -0.0163  0.8471
  127SOL    HW2  381   0.848   0.878   0.221  2.0360 -2.1001  1.6913
  128SOL     OW  382   0.949   0.175   1.404  0.2965  0.3297 -0.4182
  128SOL    HW1  383   0.938   0.256   1.345  2.0368  1.2016 -0.1431
  128SOL    HW2  384   0.861   0.124   1.408  1.4055  1.0713 -3.2102
  129SOL     OW  385   1.891   0.671   1.853 -0.6764  0.0422  0.3710
  129SOL    HW1  386   1.912   0.685   1.756 -0.3617  1.8270  4.7000
  129SOL    HW2  387   1.892   0.758   1.915  1.6326  3.6791  0.0570
  130SOL     OW  388   1.308   2.174   1.014 -0.1175  0.7640 -0.4852
  130SOL    HW1  389   1.301   2.109   0.932 -1.3779  1.8157 -1.2006
  130SOL    HW2  390   1.344   2.262   0.983  1.8704 -1.0185  1.7221
  131SOL     OW  391   0.019   1.507   1.392  0.4271  0.1429  0.5572
  131SOL    HW1  392  -0.039   1.425   1.370 -1.2789  2.5365 -1.8504
  131SOL    HW2  393   0.120   1.486   1.401  1.3829  0.8943 -1.1239
  132SOL     OW  394   2.004   2.409   0.535 -0.4784 -0.4332  0.1086
  132SOL    HW1  395   1.899   2.409   0.524  0.9019 -1.0207 -2.8318
  132SOL    HW2  396   2.023   2.387   0.637 -1.4949 -2.4063 -1.8176
  133SOL     OW  397   1.869   2.272   2.876  0.4441  0.4315 -0.1986
  133SOL    HW1  398   1.933   2.330   2.933 -0.3044 -1.3870 -1.4901
  133SOL    HW2  399   1.838   2.319   2.791 -2.8203 -0.7388  0.2150
  134SOL     OW  400   2.735   2.348   1.625  0.0090  0.0202  0.1051
  134SOL    HW1  401   2.701   2.336   1.723 -0.6051 -1.7214 -0.8165
  134SOL    HW2  402   2.794   2.433   1.619 -0.1636 -0.6392 -1.1686
  135SOL     OW  403   0.726   1.543   2.591 -0.5719  0.4593 -0.0510
  135SOL    HW1  404   0.678   1.456   2.627  1.6177  1.8868  0.9005
  135SOL    HW2  405   0.782   1.529   2.494  4.0917  0.3762 -4.1765
  136SOL     OW  406   1.193   2.033   0.441  0.4217  0.5368 -0.3169
  136SOL    HW1  407   1.125   2.071   0.509 -0.4177  0.2587 -1.1803
  136SOL    HW2  408   1.156   1.938   0.408 -1.4337 -1.0008  0.6445
  137SOL     OW  409   0.414   1.109   2.118  0.2362  0.1092 -0.1676
  137SOL    HW1  410   0.316   1.120   2.154  1.4065  0.8999 -1.8104
  137SOL    HW2  411   0.471   1.050   2.183 -0.5853 -2.6799 -1.9398
  138SOL     OW  412   2.435   1.491   0.193 -0.2061 -0.1003  0.2552
  138SOL    HW1  413   2.338   1.472   0.155 -0.9636  2.6841  0.1214
  138SOL    HW2  414   2.454   1.432   0.278 -0.9161  1.3821  0.1357
  139SOL     OW  415   1.814   2.654   1.214  0.3233 -0.2578  0.3537
  139SOL    HW1  416   1.727   2.613   1.176  1.2444  0.9927  1.6598
  139SOL    HW2  417   1.850   2.595   1.285 -1.5123 -1.0611 -1.2484
  140SOL     OW  418   2.986   2.970   2.529  0.4693  0.1075  1.1857
  140SOL    HW1  419   3.033   2.876   2.535  0.4376 -1.6545  3.4929
  140SOL    HW2  420   3.057   3.038   2.553  1.7657 -1.4355 -0.8958
  141SOL     OW  421   1.218   1.678   1.606 -0.5736  0.5271  0.0656
  141SOL    HW1  422   1.131   1.730   1.640 -0.8289 -1.3855 -0.0844
  141SOL    HW2  423   1.234   1.586   1.660 -0.2254 -0.6829 -1.2077
  142SOL     OW  424   1.605   0.634   2.220 -0.1706  0.0847 -0.4567
  142SOL    HW1  425   1.634   0.587   2.134  1.5328 -1.5313 -2.3622
  142SOL    HW2  426   1.500   0.628   2.236 -1.7210 -0.2455  0.7750
  143SOL     OW  427   2.726   0.874   0.503  0.1137 -0.1793  0.0833
  143SOL    HW1  428   2.778   0.881   0.413  2.6263  0.1151  1.8696
  143SOL    HW2  429   2.777   0.937   0.571  1.0754  0.3125  2.4152
  144SOL     OW  430   2.993   1.275   1.368  0.3494 -0.5344  0.2790
  144SOL    HW1  431   2.968   1.241   1.463  0.2529 -1.1979 -0.2037
  144SOL    HW2  432   3.009   1.195   1.303  0.3916 -2.4245  1.9964
  145SOL     OW  433   1.024   1.839   0.072 -0.3038 -0.7649  0.1183
  145SOL    HW1  434   1.013   1.903  -0.006  0.9570  1.0563  1.2605
  145SOL    HW2  435   1.009   1.739   0.046 -1.9374 -0.4129 -0.7800
  146SOL     OW  436   2.441   0.635   1.549 -0.6288  0.2543  0.6033
  146SOL    HW1  437   2.420   0.553   1.489 -2.3619  1.6563 -0.7129
  146SOL    HW2  438   2.381   0.717   1.509 -2.2278 -1.1457  0.0031
  147SOL     OW  439   1.081   2.486   0.584  0.2065 -0.1856 -0.2335
  147SOL    HW1  440   1.049   2.523   0.488 -0.2381  0.5005 -1.4910
  147SOL    HW2  441   1.169   2.433   0.573  1.9020 -2.8429  0.5165
  148SOL     OW  442   1.641   1.475   3.062  0.2051  0.2810  0.0003
  148SOL    HW1  443   1.650   1.402   2.987  0.8016 -1.6183 -0.6014
  148SOL    HW2  444   1.588   1.428   3.139  0.4715  1.7623  0.8179
  149SOL     OW  445   0.671   1.418   1.928 -0.1543  0.1171 -0.1057
  149SOL    HW1  446   0.591   1.395   1.993 -1.4815  2.1445 -1.6362
  149SOL    HW2  447   0.711   1.335   1.876 -1.7790  1.6309 -0.8429
  150SOL     OW  448   2.977   1.248   0.917  0.2868 -0.0380  0.3032
  150SOL    HW1  449   3.020   1.281   1.005 -1.0159 -1.4305  0.3074
  150SOL    HW2  450   2.942   1.152   0.929  1.5228 -1.2423  0.4715
  151SOL     OW  451   0.181   0.772   2.128 -0.3702  0.0779 -0.5908
  151SOL    HW1  452   0.183   0.853   2.063 -0.2661  3.1318 -3.6629
  151SOL    HW2  453   0.256   0.705   2.098  2.4639 -0.6935  0.5559
  152SOL     OW  454   1.360   1.723   1.254 -0.0784 -0.2237  0.1525
  152SOL    HW1  455   1.361   1.774   1.343 -2.6457 -0.0607 -1.5317
  152SOL    HW2  456   1.261   1.707   1.219 -1.9893  1.3317 -0.6150
  153SOL     OW  457   0.033   1.545   0.165 -0.3733 -0.1502 -0.5273
  153SOL    HW1  458   0.035   1.445   0.174  2.0499  2.0650 -2.0661
  153SOL    HW2  459   0.059   1.588   0.258  0.2092  0.1568  0.4566
  154SOL     OW  460   2.363   1.848   2.824 -0.3418  0.1403 -0.1839
  154SOL    HW1  461   2.387   1.746   2.836  0.9323  1.1583  0.8063
  154SOL    HW2  462   2.440   1.897   2.769  1.1219 -0.5939  1.4040
  155SOL     OW  463   2.493   1.274   0.341 -0.2895 -0.0234  0.8011
  155SOL    HW1  464   2.568   1.249   0.280  1.1408 -0.4314  0.7821
  155SOL    HW2  465   2.402   1.237   0.309 -2.7080 -0.1379 -0.3284
  156SOL     OW  466   2.545   0.943   0.869  0.2041 -0.3594 -0.1111
  156SOL    HW1  467   2.441   0.966   0.858  1.0363  3.0889  1.0837
  156SOL    HW2  468   2.592   1.032   0.864  0.3926 -1.3052 -2.3597
  157SOL     OW  469   1.188   2.977   2.971 -0.2440 -0.1925 -0.3943
  157SOL    HW1  470   1.249   2.953   2.887  1.6245  3.4477 -0.8177
  157SOL    HW2  471   1.210   3.073   3.009  2.3573  0.5180  0.9130
  158SOL     OW  472   1.030   1.839   1.986  0.0736  0.0120 -0.6942
  158SOL    HW1  473   1.042   1.941   1.988 -1.1411 -0.6432 -2.5593
  158SOL    HW2  474   0.953   1.819   2.051 -0.7012  2.3997  1.7562
  159SOL     OW  475   0.861   0.432   1.301  0.1567  0.4164  0.6295
  159SOL    HW1  476   0.843   0.529   1.333 -0.5452  0.1183 -2.6352
  159SOL    HW2  477   0.794   0.413   1.222 -0.0494 -0.2964  0.3047
  160SOL     OW  478   1.468   2.481   1.635 -0.2544  0.1797 -0.0321
  160SOL    HW1  479   1.486   2.574   1.598 -3.0326  0.7512 -1.7358
  160SOL    HW2  480   1.534   2.406   1.602  1.4444 -3.1242  0.4034
  161SOL     OW  481   0.189   2.899   0.339 -0.2773 -0.0615 -0.6061
  161SOL    HW1  482   0.119   2.838   0.396  1.8484 -1.7813  1.1192
  161SOL    HW2  483   0.132   2.976   0.297  0.2358  2.7668 -2.7357
  162SOL     OW  484   2.601   1.916   0.505 -0.2651  0.1990 -0.7792
  162SOL    HW1  485   2.586   1.861   0.417  1.7501  0.0366 -1.5854
  162SOL    HW2  486   2.572   1.851   0.580 -0.6366  2.1566 -3.1693
  163SOL     OW  487   1.955   2.667   0.705 -0.0760  0.4123 -0.0810
  163SOL    HW1  488   1.912   2.704   0.616  0.8344  1.0781 -1.9399
  163SOL    HW2  489   2.038   2.609   0.688 -0.4261 -1.1274  1.2387
  164SOL     OW  490   3.047   0.283   1.250  0.0750 -0.1933  0.6195
  164SOL    HW1  491   3.104   0.346   1.186  0.6565  1.4881  1.8789
  164SOL    HW2  492   3.090   0.271   1.347  0.2135 -2.7340  2.3181
  165SOL     OW  493   0.972   1.436   0.681 -0.6105 -0.4807 -0.1511
  165SOL    HW1  494   0.902   1.464   0.748  1.1041  1.0840 -2.5917
  165SOL    HW2  495   0.983   1.510   0.608  3.7078 -1.8692  1.8838
  166SOL     OW  496   1.470   1.064   1.757  0.3226 -0.2290 -0.1628
  166SOL    HW1  497   1.411   1.001   1.815  0.5854 -2.3079 -1.4469
  166SOL    HW2  498   1.552   1.106   1.816  2.1874  1.6877  0.0827
  167SOL     OW  499   0.832   1.925   1.535 -0.0674 -0.2045  0.2888
  167SOL    HW1  500   0.789   1.968   1.621 -0.1006  1.5622  0.5394
  167SOL    HW2  501   0.792   1.832   1.514  1.7609  0.5873  2.8862
  168SOL     OW  502   1.614   2.386   0.165  0.4057 -0.1978 -0.1131
  168SOL    HW1  503   1.680   2.429   0.096  0.1658 -0.7001  1.2173
  168SOL    HW2  504   1.654   2.313   0.221 -0.2584 -0.4415 -3.7387
  169SOL     OW  505   0.223   2.602   2.213  0.7894 -0.0463 -0.0137
  169SOL    HW1  506   0.279   2.558   2.131 -2.1948  1.0289 -2.1273
  169SOL    HW2  507   0.189   2.528   2.281  2.4902 -1.5656 -0.8893
  170SOL     OW  508   1.242   0.284   1.914 -0.4155  0.4777  0.3676
  170SOL    HW1  509   1.267   0.248   2.009 -0.8046 -0.1242 -0.1681
  170SOL    HW2  510   1.207   0.209   1.853 -0.9972  1.4781 -2.2510
  171SOL     OW  511   0.219   0.758   2.419  0.0066  0.1081 -0.2237
  171SOL    HW1  512   0.133   0.795   2.464 -1.5384  1.9264  2.3520
  171SOL    HW2  513   0.203   0.751   2.314 -0.8293  0.1157 -2.2667
  172SOL     OW  514   0.876   1.149   2.958  0.8537  0.2498  0.9800
  172SOL    HW1  515   0.971   1.191   2.988  0.1906  1.3462  0.7571
  172SOL    HW2  516   0.869   1.131   2.853  0.1695 -1.6809  0.4891
  173SOL     OW  517   0.643   2.678   0.136 -0.1516  0.5677 -0.2988
  173SOL    HW1  518   0.625   2.767   0.090  1.1992 -0.6033 -0.2290
  173SOL    HW2  519   0.556   2.621   0.162  1.3527  0.6783  0.4839
  174SOL     OW  520   1.394   2.812   1.045 -0.0224  0.0019 -0.0133
  174SOL    HW1  521   1.387   2.900   0.997 -2.2918 -0.0513  1.5293
  174SOL    HW2  522   1.333   2.737   1.006  0.7704  2.7218  0.9373
  175SOL     OW  523   0.454   0.021   1.667  0.3356  0.0781 -0.2363
  175SOL    HW1  524   0.487   0.089   1.743  0.4688  1.6931  0.2210
  175SOL    HW2  525   0.401   0.074   1.593  1.6845  2.1314 -0.4842
  176SOL     OW  526   2.503   0.427   3.064 -0.1327 -0.2314  0.6016
  176SOL    HW1  527   2.530   0.493   3.142  2.4612  2.3618 -1.9929
  176SOL    HW2  528   2.434   0.363   3.099  1.1219 -0.3681 -3.3319
  177SOL     OW  529   0.370   0.320   0.941 -0.4858 -0.5577 -0.0459
  177SOL    HW1  530   0.417   0.247   1.000 -1.9380  0.8422 -1.6209
  177SOL    HW2  531   0.288   0.357   0.994  2.1912 -3.9797  1.8659
  178SOL     OW  532   0.052   2.714   2.575 -0.1378  0.3043 -0.2980
  178SOL    HW1  533  -0.025   2.658   2.621 -0.5901  0.8695  1.5816
  178SOL    HW2  534   0.122   2.732   2.648  0.0351 -0.6646  0.5693
  179SOL     OW  535   0.017   1.717   1.167 -0.3541 -0.2113  0.4632
  179SOL    HW1  536  -0.029   1.810   1.144 -1.7705  0.7662  0.0666
  179SOL    HW2  537  -0.005   1.671   1.257  1.6661  0.3011 -3.6459
  180SOL     OW  538   0.220   1.216   1.816  0.4583 -0.7491 -0.0915
  180SOL    HW1  539   0.323   1.225   1.818 -3.1249 -0.3713 -1.5523
  180SOL    HW2  540   0.178   1.268   1.897  1.4474  0.0066  2.7807
  181SOL     OW  541   3.044   1.842   2.562 -0.4055  0.3447 -0.4065
  181SOL    HW1  542   3.092   1.920   2.512  2.9682  0.9346 -1.3969
  181SOL    HW2  543   2.949   1.845   2.549  2.6396 -2.5570  1.0219
  182SOL     OW  544   2.324   1.265   1.149 -0.1961 -0.0477 -0.4000
  182SOL    HW1  545   2.232   1.238   1.115  1.8354 -0.2157  0.5932
  182SOL    HW2  546   2.346   1.364   1.153 -1.3095 -0.1011 -0.7244
  183SOL     OW  547   1.499   2.289   2.518 -0.5174  0.2876 -0.2345
  183SOL    HW1  548   1.425   2.213   2.521 -3.3123 -1.1111 -0.6748
  183SOL    HW2  549   1.591   2.255   2.503  1.5514  0.7224 -1.2758
  184SOL     OW  550   2.073   0.937   0.806 -0.3316  0.3821 -0.2937
  184SOL    HW1  551   1.978   0.978   0.795 -0.2681 -0.3823 -2.1132
  184SOL    HW2  552   2.060   0.846   0.849 -1.4967 -0.3701  0.9545
  185SOL     OW  553   1.628   2.671   2.096 -0.6560 -0.1000 -0.2973
  185SOL    HW1  554   1.575   2.757   2.060  1.7149  4.9860 -0.7530
  185SOL    HW2  555   1.653   2.678   2.195 -0.3204 -1.6738 -0.9593
  186SOL     OW  556   0.084   2.208   1.719 -0.4672  0.3957 -0.2147
  186SOL    HW1  557   0.138   2.295   1.726 -2.7175 -1.3838 -0.8532
  186SOL    HW2  558   0.149   2.126   1.697 -0.6322 -0.4028  0.1605
  187SOL     OW  559   1.374   0.718   1.683 -0.3090  0.6453  0.1658
  187SOL    HW1  560   1.418   0.743   1.594  1.7614 -1.3014 -1.9493
  187SOL    HW2  561   1.407   0.779   1.763  1.9736  0.4571  1.4898
  188SOL     OW  562   2.786   2.783   1.508  0.5088 -0.0373 -0.6156
  188SOL    HW1  563   2.760   2.884   1.501  0.4238 -1.3420 -1.3152
  188SOL    HW2  564   2.757   2.727   1.424 -2.3404  1.8843  1.2369
  189SOL     OW  565   0.852   1.006   1.395  0.4837  0.7514 -0.2544
  189SOL    HW1  566   0.932   1.066   1.432 -1.0715 -0.5221  0.9267
  189SOL    HW2  567   0.796   1.066   1.337 -0.7614 -1.7433  2.8280
  190SOL     OW  568   1.504   1.807   1.576 -0.3965  1.4237  0.2628
  190SOL    HW1  569   1.409   1.802   1.611  2.1078  1.2843  0.8892
  190SOL    HW2  570   1.572   1.814   1.654  0.7130  2.7782  0.5167
  191SOL     OW  571   0.998   0.762   1.559  0.0714 -0.0518  0.2443
  191SOL    HW1  572   1.057   0.676   1.547 -0.7709 -0.2047 -1.9803
  191SOL    HW2  573   1.046   0.853   1.555 -0.2812 -0.3626  0.2961
  192SOL     OW  574   1.836   2.311   1.175  0.1146  0.3562 -0.2139
  192SOL    HW1  575   1.770   2.245   1.131 -0.0939  2.0528  0.4784
  192SOL    HW2  576   1.917   2.333   1.118 -0.1176 -2.4404 -1.6562
  193SOL     OW  577   0.500   0.570   0.401 -0.3811  0.5411  0.0670
  193SOL    HW1  578   0.535   0.493   0.462  1.9271  2.6002  0.5577
  193SOL    HW2  579   0.521   0.556   0.305  1.4735 -0.3569  0.6081
  194SOL     OW  580   0.304   0.818   1.244 -0.2990 -0.4173  0.5896
  194SOL    HW1  581   0.200   0.806   1.230 -1.7389 -0.8734  0.7388
  194SOL    HW2  582   0.341   0.904   1.192 -2.7451 -0.2732  1.5562
  195SOL     OW  583   0.957   2.925   0.431  0.4528  0.0847 -0.1029
  195SOL    HW1  584   0.957   2.827   0.409 -2.0641  3.7374 -0.7257
  195SOL    HW2  585   1.045   2.963   0.469 -2.9038 -1.0598 -0.7443
  196SOL     OW  586   0.288   1.451   1.426  0.1303 -0.1998 -0.0374
  196SOL    HW1  587   0.331   1.536   1.468  0.4326  0.3872  0.5525
  196SOL    HW2  588   0.268   1.375   1.491  1.4979 -0.5191  0.5925
  197SOL     OW  589   0.924   2.033   0.215  0.6450  0.6158 -0.7112
  197SOL    HW1  590   0.926   2.008   0.315  1.2529  0.5466 -0.7158
  197SOL    HW2  591   0.956   1.955   0.157 -0.8474  0.0141  0.4453
  198SOL     OW  592   0.251   1.259   0.266 -0.4093 -0.2975  0.3148
  198SOL    HW1  593   0.161   1.257   0.223  0.9902  0.8110  0.7675
  198SOL    HW2  594   0.298   1.352   0.257  0.3282 -1.0023  2.4850
  199SOL     OW  595   2.259   0.376   2.506 -0.4759  0.4721  0.2324
  199SOL    HW1  596   2.177   0.346   2.561  4.3112 -1.8536 -1.8992
  199SOL    HW2  597   2.349   0.341   2.550  0.7874 -1.7383 -1.3495
  200SOL     OW  598   3.094   2.985   0.717 -0.1478  0.5021 -0.4856
  200SOL    HW1  599   3.010   3.023   0.665 -0.1754  2.4962 -0.8121
  200SOL    HW2  600   3.128   3.058   0.785  0.7910 -1.8418  0.6289
  201SOL     OW  601   1.144   0.749   0.616 -0.2378  0.0667  0.6378
  201SOL    HW1  602   1.131   0.846   0.657  1.8821  1.7010  0.9827
  201SOL    HW2  603   1.062   0.705   0.563 -2.9052  0.4015  0.9309
  202SOL     OW  604   0.495   1.259   1.732 -0.1365  0.1746  0.0214
  202SOL    HW1  605   0.519   1.255   1.630  2.8682 -1.0385  0.7478
  202SOL    HW2  606   0.556   1.196   1.791  1.8142 -2.5270  2.0907
  203SOL     OW  607   0.684   0.194   1.600  0.6383  0.0856  0.5550
  203SOL    HW1  608   0.683   0.135   1.515 -3.4081 -1.5598 -2.5656
  203SOL    HW2  609   0.725   0.155   1.689 -0.1386 -1.6426  2.2830
  204SOL     OW  610   2.091   1.845   3.025  0.4103  0.3731  0.2445
  204SOL    HW1  611   2.066   1.744   3.013 -2.2165 -1.3035 -2.3760
  204SOL    HW2  612   2.053   1.889   2.936  0.8489  2.2130 -2.6602
  205SOL     OW  613   1.848   1.866   0.080 -0.1529 -0.1803 -0.7231
  205SOL    HW1  614   1.947   1.865   0.058 -1.0203  0.0289 -1.4701
  205SOL    HW2  615   1.802   1.962   0.056 -2.1206  1.5010 -1.6366
  206SOL     OW  616   2.540   2.820   0.404 -0.2640 -0.4887 -0.5751
  206SOL    HW1  617   2.604   2.733   0.412  2.4559  0.2507  0.1250
  206SOL    HW2  618   2.570   2.888   0.329  0.5817  2.5285 -0.8683
  207SOL     OW  619   0.616   1.762   2.889 -0.2085  0.5552  0.0524
  207SOL    HW1  620   0.718   1.751   2.858  0.4628  1.0366  0.0106
  207SOL    HW2  621   0.578   1.670   2.930 -1.3757  0.7047 -1.0911
  208SOL     OW  622   1.037   1.532   1.448  0.4962  0.1824  0.3805
  208SOL    HW1  623   0.982   1.574   1.373  1.6448  0.5460 -2.1800
  208SOL    HW2  624   1.123   1.584   1.477  2.8328  0.8487 -1.1291
  209SOL     OW  625   0.293   0.955   3.013  0.4247 -0.0248 -0.7119
  209SOL    HW1  626   0.325   0.900   2.933  2.2186  0.1333  0.3534
  209SOL    HW2  627   0.277   0.896   3.097  3.5037  2.4730  0.6652
  210SOL     OW  628   1.728   0.491   1.165  0.1920 -0.6159  0.6742
  210SOL    HW1  629   1.665   0.560   1.124 -1.8620 -2.6806 -0.4959
  210SOL    HW2  630   1.827   0.505   1.134 -0.1177  0.5629  2.2634
  211SOL     OW  631   2.143   1.051   1.638 -0.6437 -0.4621 -0.3514
  211SOL    HW1  632   2.194   1.025   1.722 -0.9153  3.6871 -0.8801
  211SOL    HW2  633   2.203   1.123   1.582  2.4041  0.0732 -2.0366
  212SOL     OW  634   0.008   0.957   1.471 -0.2409 -0.2064  0.6926
  212SOL    HW1  635   0.042   1.043   1.524  2.8176 -0.2984  2.1517
  212SOL    HW2  636   0.053   0.865   1.502 -0.1829  0.3698 -0.9791
  213SOL     OW  637   2.705   0.342   0.269 -0.3743 -0.0700 -0.1139
  213SOL    HW1  638   2.781   0.298   0.213 -2.6517  0.2772  2.1043
  213SOL    HW2  639   2.677   0.443   0.241  0.0860  1.3108  2.5570
  214SOL     OW  640   2.174   0.263   2.272 -0.5047 -0.2031 -0.6321
  214SOL    HW1  641   2.230   0.301   2.354  0.8559 -1.2149  1.3561
  214SOL    HW2  642   2.134   0.165   2.284 -0.6727 -0.4174  0.2034
  215SOL     OW  643   1.652   2.263   2.027 -0.3985 -0.4234 -1.2498
  215SOL    HW1  644   1.757   2.281   2.025 -0.1889  0.4023  0.7962
  215SOL    HW2  645   1.601   2.321   2.099  0.4252  0.8278  1.6784
  216SOL     OW  646   2.201   0.527   0.671  0.0187  0.3943 -0.0066
  216SOL    HW1  647   2.224   0.434   0.624 -1.4874 -0.7583 -1.0145
  216SOL    HW2  648   2.222   0.606   0.608  0.2305  0.9468 -1.1457
  217SOL     OW  649   0.753   2.784   2.458 -0.2628 -0.1878 -0.6515
  217SOL    HW1  650   0.752   2.679   2.485 -1.5350 -1.4258 -3.0683
  217SOL    HW2  651   0.767   2.806   2.354  1.7481  1.0193  0.3075
  218SOL     OW  652   1.922   1.390   0.076 -0.4475 -0.2775  0.0482
  218SOL    HW1  653   1.844   1.453   0.059 -1.0576 -0.9402 -0.6153
  218SOL    HW2  654   1.914   1.318   0.152 -2.8237  0.1510 -2.1888
  219SOL     OW  655   2.371   1.271   2.522 -0.4642 -0.3844 -0.3977
  219SOL    HW1  656   2.385   1.214   2.441  3.5677 -3.0516  1.9772
  219SOL    HW2  657   2.377   1.213   2.614 -1.1644 -0.3270  1.4349
  220SOL     OW  658   1.495   1.032   1.263  0.4807 -0.2533 -0.2683
  220SOL    HW1  659   1.593   1.029   1.292 -1.1739 -0.3545  0.3695
  220SOL    HW2  660   1.494   1.048   1.162 -0.9064 -0.8641  1.0562
  221SOL     OW  661   1.350   1.159   2.202  0.3929 -0.9862  0.1902
  221SOL    HW1  662   1.311   1.202   2.116  1.7255  0.6166  0.7517
  221SOL    HW2  663   1.432   1.101   2.182  0.0821 -0.6922  1.4249
  222SOL     OW  664   1.231   0.060   1.179  0.0608 -0.4796  0.9273
  222SOL    HW1  665   1.303   0.072   1.247 -2.4948 -0.3703  1.1216
  222SOL    HW2  666   1.161   0.135   1.187  2.0527  0.3994  1.6777
  223SOL     OW  667   2.952   0.827   2.004 -0.5648  1.0596  0.5822
  223SOL    HW1  668   2.951   0.838   2.106 -1.3701 -1.4388 -0.0211
  223SOL    HW2  669   2.954   0.915   1.950  0.4287  0.5697 -0.6767
  224SOL     OW  670   1.498   0.962   2.808 -0.3274 -0.4155 -0.2410
  224SOL    HW1  671   1.540   0.910   2.732 -3.0883 -0.1911 -0.0143
  224SOL    HW2  672   1.474   1.057   2.776 -1.9445  3.7005  1.4117
  225SOL     OW  673   2.999   2.775   2.898 -0.9676  0.0297 -0.1839
  225SOL    HW1  674   2.976   2.691   2.841 -1.6347 -1.7778 -3.5349
  225SOL    HW2  675   3.085   2.820   2.868  1.1892 -1.7338  1.7740
  226SOL     OW  676   2.455   1.591   2.895 -0.3000 -0.8221  0.0406
  226SOL    HW1  677   2.482   1.564   2.794  1.3531 -1.6655 -0.1318
  226SOL    HW2  678   2.398   1.519   2.948 -2.4183  0.6056 -0.3599
  227SOL     OW  679   0.886   0.115   2.995  0.2509 -0.0371  0.4951
  227SOL    HW1  680   0.913   0.051   3.074  1.2941 -1.7652  0.7874
  227SOL    HW2  681   0.915   0.090   2.901  1.7026 -0.5790 -0.2166
  228SOL     OW  682   2.372   0.601   2.848  0.4393  0.4841 -0.1877
  228SOL    HW1  683   2.333   0.648   2.761  1.0782  4.0673 -0.5088
  228SOL    HW2  684   2.450   0.540   2.825 -0.5512 -1.2084 -1.3734
  229SOL     OW  685   0.557   0.523   1.855  0.0372 -0.0915 -0.0034
  229SOL    HW1  686   0.532   0.472   1.763 -5.1474 -1.2762  1.7654
  229SOL    HW2  687   0.659   0.544   1.864 -0.6146  1.9286  0.4219
  230SOL     OW  688   1.881   1.246   2.171 -0.2353  0.0110  0.1223
  230SOL    HW1  689   1.954   1.276   2.103  1.2995  3.9069 -2.2877
  230SOL    HW2  690   1.794   1.296   2.153  0.9320  0.3931 -1.4709
  231SOL     OW  691   0.646   1.008   3.005 -0.4482 -0.3858 -0.0199
  231SOL    HW1  692   0.743   1.041   2.987 -0.2342 -0.1325  2.5798
  231SOL    HW2  693   0.595   1.044   3.090 -3.4134  2.4314 -0.4087
  232SOL     OW  694   2.481   0.018   2.748 -0.3945 -0.5877  0.6474
  232SOL    HW1  695   2.453  -0.071   2.794 -0.8996  0.8178  1.6730
  232SOL    HW2  696   2.455   0.028   2.646 -0.2340  0.7068 -0.4825
  233SOL     OW  697   1.699   1.242   1.067  0.2783 -0.1540  0.1473
  233SOL    HW1  698   1.689   1.286   0.972 -0.6665  1.2482 -2.4761
  233SOL    HW2  699   1.768   1.166   1.067 -0.5259 -0.1525  1.8084
  234SOL     OW  700   1.690   2.582   1.820  0.5060 -0.2078  0.0222
  234SOL    HW1  701   1.674   2.590   1.923 -0.6705 -0.0473 -1.1229
  234SOL    HW2  702   1.600   2.578   1.772  0.2789 -0.1706  0.2487
  235SOL     OW  703   0.111   3.006   2.904 -0.6810  0.0111 -0.1126
  235SOL    HW1  704   0.148   3.077   2.839 -2.3859 -3.3928  0.9262
  235SOL    HW2  705   0.025   3.042   2.949 -1.4345 -2.4328 -0.8046
  236SOL     OW  706   2.853   0.671   0.121  0.7696  0.3193 -0.2757
  236SOL    HW1  707   2.928   0.730   0.159  0.2245  1.5299 -0.2968
  236SOL    HW2  708   2.886   0.597   0.063  0.7867 -1.0095 -1.0455
  237SOL     OW  709   1.479   1.628   1.005  0.0047  0.2196 -0.4239
  237SOL    HW1  710   1.577   1.613   0.985 -0.9467  0.2029  0.1614
  237SOL    HW2  711   1.467   1.689   1.092 -1.7986 -1.9228  0.7309
  238SOL     OW  712   1.789   1.319   0.821 -0.6114 -0.2684 -0.5537
  238SOL    HW1  713   1.879   1.307   0.768 -0.2389  0.3415  0.3001
  238SOL    HW2  714   1.710   1.372   0.770 -1.3688 -1.1982 -0.1437
  239SOL     OW  715   2.082   0.246   2.728 -0.2532 -0.0382 -0.8736
  239SOL    HW1  716   2.178   0.248   2.779  0.7740  1.6537 -1.2039
  239SOL    HW2  717   2.008   0.299   2.785 -0.8315  0.7994  1.4029
  240SOL     OW  718   0.878   0.690   0.231  0.2184  0.2518  0.7002
  240SOL    HW1  719   0.849   0.600   0.184 -0.3674 -2.8287  2.3541
  240SOL    HW2  720   0.875   0.685   0.330 -1.0697 -1.4926 -2.8137
  241SOL     OW  721   0.574   0.053   0.320  0.5479  0.6098 -0.7103
  241SOL    HW1  722   0.606   0.026   0.228  0.7001  2.3583  2.6938
  241SOL    HW2  723   0.504  -0.014   0.365 -3.1321  1.5419  1.5464
  242SOL     OW  724   0.684   2.449   1.153 -0.5358  0.0706  0.4412
  242SOL    HW1  725   0.651   2.492   1.237 -0.3954  0.2667  0.7178
  242SOL    HW2  726   0.768   2.502   1.116 -1.1441 -1.6670 -1.0158
  243SOL     OW  727   1.100   0.647   2.425  0.5491  0.2297  0.4018
  243SOL    HW1  728   1.034   0.714   2.384 -1.2532  2.8075 -0.9030
  243SOL    HW2  729   1.049   0.571   2.477 -2.2757 -1.8769  1.5028
  244SOL     OW  730   2.796   1.887   2.439  0.4651 -0.1140  0.0237
  244SOL    HW1  731   2.823   1.890   2.334 -2.7512 -2.1099 -1.0985
  244SOL    HW2  732   2.708   1.836   2.456  1.0984 -1.8982  1.7483
  245SOL     OW  733   2.462   0.736   2.145  0.6325  0.2016  0.3209
  245SOL    HW1  734   2.491   0.792   2.227  0.8652 -0.8336  2.4481
  245SOL    HW2  735   2.540   0.702   2.089 -2.8271 -1.6896  2.1407
  246SOL     OW  736   0.276   2.896   1.675  0.6105  0.5124 -0.5364
  246SOL    HW1  737   0.193   2.903   1.615  0.8370  0.0249  2.5164
  246SOL    HW2  738   0.322   2.989   1.690 -0.1734  1.8790  0.5874
  247SOL     OW  739   2.174   0.562   3.037  0.2703  0.5110  0.0879
  247SOL    HW1  740   2.235   0.565   2.956 -0.8774 -0.8959 -2.0603
  247SOL    HW2  741   2.141   0.654   3.074 -0.7162 -0.4865  0.2381
  248SOL     OW  742   2.201   1.861   1.618 -0.0398  0.7932 -0.1557
  248SOL    HW1  743   2.252   1.779   1.656 -1.1107  1.1112  1.3126
  248SOL    HW2  744   2.106   1.863   1.656 -1.3646 -0.5769 -1.5558
  249SOL     OW  745   1.927   1.998   1.971  0.1048  0.3455 -0.4839
  249SOL    HW1  746   1.928   1.934   1.892 -0.9465  0.8918 -0.4798
  249SOL    HW2  747   2.015   2.048   1.983 -1.7372 -0.3661 -0.3368
  250SOL     OW  748   1.021   0.674   1.852  0.1815  0.6695  0.0893
  250SOL    HW1  749   1.064   0.618   1.930 -2.3066 -0.0792 -0.3002
  250SOL    HW2  750   1.030   0.631   1.758  2.1830 -0.8231  1.9959
  251SOL     OW  751   3.061   1.562   2.562  0.0237  0.5105 -0.0964
  251SOL    HW1  752   3.074   1.663   2.543  1.6274  0.3896  1.5257
  251SOL    HW2  753   2.966   1.525   2.539  1.5838 -0.2232 -2.9507
  252SOL     OW  754   1.507   0.900   1.517 -0.0386 -0.1607  0.0586
  252SOL    HW1  755   1.491   0.931   1.422  1.5032 -1.1876 -1.1732
  252SOL    HW2  756   1.515   0.972   1.595 -0.7011  1.2565 -0.8849
  253SOL     OW  757   0.954   1.598   0.361 -0.3143 -0.2085 -0.1106
  253SOL    HW1  758   0.971   1.496   0.331 -2.0132 -5.0989 -2.5355
  253SOL    HW2  759   0.864   1.615   0.400 -1.5100 -0.4470  1.0736
  254SOL     OW  760   2.019   2.184   1.599  0.4540  0.0025  0.0309
  254SOL    HW1  761   1.994   2.131   1.515  0.5549 -0.6481  1.6157
  254SOL    HW2  762   1.937   2.214   1.653  0.1387  1.2066  2.9639
  255SOL     OW  763   0.126   1.157   2.922  0.5796 -0.4209  0.0081
  255SOL    HW1  764   0.183   1.245   2.909  2.2852  1.0244  1.8941
  255SOL    HW2  765   0.191   1.081   2.957 -0.7889  3.2474  0.2435
  256SOL     OW  766   2.810   1.385   1.839  0.5230 -0.0860  0.1735
  256SOL    HW1  767   2.742   1.464   1.829  1.5343 -0.1319  0.5170
  256SOL    HW2  768   2.763   1.295   1.861  1.8060 -0.0175  1.8527
  257SOL     OW  769   0.908   0.195   1.911 -0.0288 -0.1323 -0.5820
  257SOL    HW1  770   0.958   0.236   1.828  0.7246  0.1741 -2.0721
  257SOL    HW2  771   0.925   0.092   1.924  1.1600 -2.1218  0.6911
  258SOL     OW  772   2.956   1.287   0.434  0.0938  0.3028 -0.2894
  258SOL    HW1  773   2.903   1.379   0.438  0.5141 -1.7848  3.2469
  258SOL    HW2  774   3.018   1.270   0.516  2.1912  0.6047  1.9151
  259SOL     OW  775   0.438   2.926   2.970  0.3685 -0.4920  0.0270
  259SOL    HW1  776   0.402   2.886   3.057  1.4876  0.3823 -0.8717
  259SOL    HW2  777   0.447   2.860   2.892 -2.3935 -2.8533  0.3916
  260SOL     OW  778   2.671   0.818   2.770  0.7609  0.7800 -0.3725
  260SOL    HW1  779   2.585   0.810   2.711 -0.5221 -2.2553  1.0024
  260SOL    HW2  780   2.651   0.877   2.852 -0.0107 -0.9421  0.8287
  261SOL     OW  781   2.726   1.365   1.315 -0.3245 -0.7024 -0.0381
  261SOL    HW1  782   2.679   1.288   1.256  1.9193 -0.3433  0.5484
  261SOL    HW2  783   2.820   1.334   1.347 -0.3673  0.7477  0.2968
  262SOL     OW  784   1.482   2.898   2.016  0.1530 -0.0663 -0.2742
  262SOL    HW1  785   1.516   2.966   1.947 -0.5366 -3.1542 -1.5212
  262SOL    HW2  786   1.377   2.889   2.023 -1.1859  1.9502 -0.9152
  263SOL     OW  787   0.864   0.784   2.318 -0.7609  0.1686 -0.1374
  263SOL    HW1  788   0.815   0.695   2.295 -0.2112 -1.9881  0.2445
  263SOL    HW2  789   0.890   0.834   2.232  0.6484  0.8398 -0.9106
  264SOL     OW  790   2.266   0.735   0.475  0.2090 -0.4019 -0.2684
  264SOL    HW1  791   2.182   0.737   0.413  0.5689 -0.7022  1.8841
  264SOL    HW2  792   2.318   0.829   0.468 -2.1546 -2.2241  1.4063
  265SOL     OW  793   0.895   2.283   2.675  0.1702 -0.4333 -0.3457
  265SOL    HW1  794   0.935   2.346   2.745  1.0334 -1.2332 -1.9044
  265SOL    HW2  795   0.822   2.221   2.722 -0.7316  2.2579 -0.1520
  266SOL     OW  796   1.345   1.703   0.063 -0.0454  0.2535 -0.0116
  266SOL    HW1  797   1.323   1.784   0.121 -0.9529 -0.2494 -0.3212
  266SOL    HW2  798   1.435   1.728   0.022 -0.6758 -0.6147  0.5005
  267SOL     OW  799   1.068   3.085   2.386 -0.4894 -0.6640 -0.1128
  267SOL    HW1  800   1.048   3.012   2.312 -1.2082 -1.0551 -2.2488
  267SOL    HW2  801   1.003   3.166   2.388  0.6225  0.1518  2.5559
  268SOL     OW  802   0.671   1.157   1.002  0.2326 -0.2222  0.2741
  268SOL    HW1  803   0.698   1.203   1.092  1.0544  1.3237  1.8844
  268SOL    HW2  804   0.645   1.227   0.926  0.8164 -1.8487  1.0463
  269SOL     OW  805   2.419   2.467   1.600  0.3314 -0.6336  0.3834
  269SOL    HW1  806   2.502   2.414   1.622 -1.1753  0.3201 -0.4901
  269SOL    HW2  807   2.379   2.508   1.687  2.8466  0.3810 -1.3499
  270SOL     OW  808   0.194   2.981   1.946 -0.5215  0.3609 -0.1973
  270SOL    HW1  809   0.249   2.920   1.884  1.0931  1.2450  1.0337
  270SOL    HW2  810   0.100   2.937   1.961  0.1864  0.5638 -0.7808
  271SOL     OW  811   0.472   1.403   1.194  0.0698  0.3700 -0.1135
  271SOL    HW1  812   0.436   1.387   1.098  1.7322  0.1207  1.3991
  271SOL    HW2  813   0.397   1.405   1.264 -3.9915 -2.9053 -3.0081
  272SOL     OW  814   1.898   2.919   1.903  0.0486  0.1006  0.0071
  272SOL    HW1  815   1.870   2.863   1.820 -1.3310  0.4249  0.8017
  272SOL    HW2  816   1.979   2.981   1.880 -1.9632 -2.6775  1.5681
  273SOL     OW  817   1.408   1.419   2.817 -0.3581 -0.6817 -0.2622
  273SOL    HW1  818   1.403   1.509   2.765 -2.0815  2.3756  0.8491
  273SOL    HW2  819   1.415   1.431   2.921  1.7748  1.2350  0.5203
  274SOL     OW  820   1.142   0.515   2.043  0.1374  0.2056  0.0354
  274SOL    HW1  821   1.152   0.433   1.981  1.5327  3.2269  0.1399
  274SOL    HW2  822   1.224   0.531   2.103  2.1101  0.2660  1.4716
  275SOL     OW  823   0.618   2.080   1.978 -0.0280  0.5666 -0.6624
  275SOL    HW1  824   0.608   2.183   1.973 -0.7671 -1.4613  2.6544
  275SOL    HW2  825   0.535   2.022   1.949 -1.5110 -0.8947 -1.0013
  276SOL     OW  826   2.166   0.948   2.784  0.2756 -0.5629 -1.1208
  276SOL    HW1  827   2.093   0.949   2.714  1.4206  2.4873  1.6618
  276SOL    HW2  828   2.131   0.898   2.874  0.8462 -0.5689 -0.5180
  277SOL     OW  829   3.053   0.859   0.203 -0.0415  0.6694 -0.1787
  277SOL    HW1  830   3.143   0.847   0.149 -0.7251 -0.2817 -0.1162
  277SOL    HW2  831   3.057   0.805   0.296  1.1005 -0.8761  1.1328
  278SOL     OW  832   0.186   0.276   2.962  0.3339  0.2886 -0.1149
  278SOL    HW1  833   0.240   0.208   3.012 -0.6708 -1.6071  0.4020
  278SOL    HW2  834   0.225   0.368   2.987  0.5641 -1.7728 -2.4061
  279SOL     OW  835   0.162   0.052   0.876  0.1202  0.3393 -0.0859
  279SOL    HW1  836   0.197   0.050   0.975 -1.4916 -1.8394 -0.3119
  279SOL    HW2  837   0.226   0.016   0.800  0.4481 -1.3877 -0.9199
  280SOL     OW  838   1.603   2.944   2.553 -0.0812 -0.1655  0.4228
  280SOL    HW1  839   1.664   3.019   2.511  1.2489 -0.0922 -3.3912
  280SOL    HW2  840   1.506   2.955   2.516 -2.8929 -2.7437  1.1539
  281SOL     OW  841   0.570   0.962   2.321 -0.2143  0.6921 -0.2266
  281SOL    HW1  842   0.573   0.860   2.283  0.8474  0.0124 -3.5603
  281SOL    HW2  843   0.532   0.967   2.417 -0.9339 -0.0310 -0.7308
  282SOL     OW  844   1.727   2.429   0.508  0.6946 -0.5912  0.4348
  282SOL    HW1  845   1.673   2.346   0.473 -0.8651 -0.1712 -1.6069
  282SOL    HW2  846   1.667   2.514   0.496 -2.6688  0.6946 -0.5624
  283SOL     OW  847   1.185   0.970   0.763 -0.5838  0.2858  1.4274
  283SOL    HW1  848   1.231   0.915   0.833  2.2596 -0.2090 -2.1303
  283SOL    HW2  849   1.150   1.061   0.801  1.7232 -1.3261  3.6708
  284SOL     OW  850   2.366   2.799   2.363  0.1006 -0.0985 -0.7613
  284SOL    HW1  851   2.364   2.866   2.287  2.6066  0.3314 -0.6723
  284SOL    HW2  852   2.445   2.820   2.432 -0.0088 -1.4613 -2.5818
  285SOL     OW  853   1.347   2.973   2.548 -0.0888 -0.0187  0.1821
  285SOL    HW1  854   1.346   3.011   2.453 -0.6524  0.0261 -3.0007
  285SOL    HW2  855   1.271   3.011   2.609 -1.2484 -3.6983 -0.0397
  286SOL     OW  856   0.466   0.429   0.697 -0.2438 -0.2368  0.3032
  286SOL    HW1  857   0.435   0.369   0.775  0.1815  0.9973  0.2476
  286SOL    HW2  858   0.443   0.391   0.605  0.9323  0.0908  1.5444
  287SOL     OW  859   0.116   1.320   2.535  0.2346 -0.6424  0.5270
  287SOL    HW1  860   0.099   1.221   2.558  0.7751 -0.5012  2.6965
  287SOL    HW2  861   0.037   1.382   2.570  0.4810 -0.4509 -1.8715
  288SOL     OW  862   1.610   2.704   1.489 -0.3271 -0.2716  0.5504
  288SOL    HW1  863   1.606   2.601   1.460 -1.5615  0.5385  1.8707
  288SOL    HW2  864   1.606   2.781   1.421  1.8940  2.4155  0.7281
  289SOL     OW  865   0.655   2.736   0.760  0.3387  0.0267 -0.6404
  289SOL    HW1  866   0.714   2.789   0.695 -1.1983 -1.1966  0.1605
  289SOL    HW2  867   0.675   2.753   0.862  2.2780 -0.5152  0.5988
  290SOL     OW  868   2.871   1.170   1.585 -0.3387 -1.1880  0.6171
  290SOL    HW1  869   2.778   1.132   1.566 -0.2372 -1.6798 -0.0222
  290SOL    HW2  870   2.922   1.123   1.659 -0.4030  2.0334 -1.1227
  291SOL     OW  871   1.986   0.050   0.113 -0.5826 -0.4449 -0.2421
  291SOL    HW1  872   1.995   0.062   0.217 -1.9708  1.4846 -0.1688
  291SOL    HW2  873   2.019   0.129   0.053 -1.8908 -0.6842  0.0562
  292SOL     OW  874   2.971   1.147   3.033  0.3442  0.2061  0.0224
  292SOL    HW1  875   2.898   1.209   2.990  0.5886  0.9058 -1.4185
  292SOL    HW2  876   3.063   1.143   2.981 -1.8786  0.9086 -1.2611
  293SOL     OW  877   0.620   2.115   0.115 -0.2986  0.6738  0.0876
  293SOL    HW1  878   0.556   2.159   0.186 -0.4829  2.1877 -0.0527
  293SOL    HW2  879   0.718   2.128   0.132 -1.6427 -0.2988 -0.4606
  294SOL     OW  880   1.679   2.152   1.756  0.1540 -0.0320  0.3974
  294SOL    HW1  881   1.653   2.189   1.850 -1.1219  2.3221  0.0094
  294SOL    HW2  882   1.690   2.221   1.677  0.5212 -0.7068  0.9945
  295SOL     OW  883   1.003   0.999   0.420  0.2670 -0.3807  0.6296
  295SOL    HW1  884   1.107   0.978   0.419 -1.6503  3.2166  3.6208
  295SOL    HW2  885   0.969   1.010   0.515 -0.8980 -0.7689 -0.2617
  296SOL     OW  886   1.329   2.036   2.503  0.4098 -0.0158 -0.1551
  296SOL    HW1  887   1.329   2.035   2.399 -1.2013  2.0849  2.0698
  296SOL    HW2  888   1.302   1.938   2.543  0.8950  0.2082  0.4682
  297SOL     OW  889   1.476   0.612   1.352  0.2955 -0.9509  0.1954
  297SOL    HW1  890   1.413   0.533   1.370 -1.3780  2.3231  1.5695
  297SOL    HW2  891   1.572   0.607   1.389 -0.7276 -1.2770  1.0028
  298SOL     OW  892   0.434   1.210   2.879  0.1598 -0.3876  0.2775
  298SOL    HW1  893   0.451   1.132   2.949 -0.8162  0.9679  2.1514
  298SOL    HW2  894   0.516   1.238   2.819  0.0135 -1.4502  1.1897
  299SOL     OW  895   0.461   0.307   1.470 -0.1261 -0.5274 -0.3548
  299SOL    HW1  896   0.459   0.382   1.400 -2.3624  1.3632 -0.0469
  299SOL    HW2  897   0.547   0.302   1.526  0.5723 -4.9282  1.3286
  300SOL     OW  898   1.178   1.805   2.890  0.0264 -0.5582  0.1989
  300SOL    HW1  899   1.153   1.721   2.841 -1.4186  2.4507  1.3734
  300SOL    HW2  900   1.190   1.785   2.992 -0.8176 -2.3511 -0.4199
  301SOL     OW  901   0.437   0.282   0.441  0.2154 -0.3700  0.1372
  301SOL    HW1  902   0.339   0.301   0.416  1.5168 -2.8358  1.1494
  301SOL    HW2  903   0.481   0.212   0.381 -1.2333  4.0192 -0.9425
  302SOL     OW  904   1.240   2.323   2.325  0.2515 -0.2498 -0.5691
  302SOL    HW1  905   1.191   2.332   2.419 -1.3455 -0.2599  3.1875
  302SOL    HW2  906   1.239   2.226   2.291  1.0630  1.7139  2.8125
  303SOL     OW  907   0.944   2.336   0.790  0.1035 -0.5423 -0.0864
  303SOL    HW1  908   1.009   2.387   0.729 -0.7606  0.2379 -0.7239
  303SOL    HW2  909   0.926   2.390   0.879  0.2079 -0.5077  1.2215
  304SOL     OW  910   0.134   2.052   0.661 -0.2264  0.1561 -0.2678
  304SOL    HW1  911   0.130   1.996   0.577 -1.7779  1.8615  2.3370
  304SOL    HW2  912   0.093   2.148   0.645  1.7016  1.0877  1.7882
  305SOL     OW  913   1.605   0.901   0.631 -0.2434 -0.2037 -0.3723
  305SOL    HW1  914   1.526   0.863   0.571 -0.9615 -1.1238  0.7020
  305SOL    HW2  915   1.667   0.819   0.645 -1.5388 -1.1198  2.3040
  306SOL     OW  916   0.467   1.874   1.897  0.7425 -0.0651  0.3878
  306SOL    HW1  917   0.535   1.820   1.844 -2.1925 -0.9339  0.4839
  306SOL    HW2  918   0.424   1.820   1.973 -1.8123 -1.6358 -1.2447
  307SOL     OW  919   0.022   0.840   2.604 -0.0709  0.2384  0.2102
  307SOL    HW1  920   0.029   0.942   2.613 -1.9598 -0.7386 -1.5130
  307SOL    HW2  921  -0.047   0.802   2.671  0.2473 -3.5683 -0.8349
  308SOL     OW  922   1.534   2.641   2.884 -1.3130  0.2598  0.1396
  308SOL    HW1  923   1.560   2.565   2.822 -1.7283 -0.1479 -1.8929
  308SOL    HW2  924   1.444   2.620   2.938  2.0303  0.3156  0.6117
  309SOL     OW  925   1.216   0.094   1.738  0.3633  0.1307  0.3472
  309SOL    HW1  926   1.302   0.061   1.791 -0.9681 -1.0990 -0.6767
  309SOL    HW2  927   1.239   0.112   1.634  1.6736  2.6923 -0.2351
  310SOL     OW  928   1.404   2.589   0.741  0.6564 -0.6821  0.0433
  310SOL    HW1  929   1.407   2.685   0.782 -1.3507 -1.9239  2.0735
  310SOL    HW2  930   1.470   2.568   0.662 -0.1377  0.4868  2.2460
  311SOL     OW  931   1.177   0.971   1.548 -0.6297  0.3335  0.1825
  311SOL    HW1  932   1.250   0.913   1.515 -1.8815  1.4243  2.6395
  311SOL    HW2  933   1.194   1.074   1.538 -2.6569 -0.4293 -0.7811
  312SOL     OW  934   1.622   0.700   0.997  0.1442  0.5832  0.4934
  312SOL    HW1  935   1.559   0.784   0.977  0.0917  0.4975 -0.3869
  312SOL    HW2  936   1.596   0.613   0.942  1.6354 -0.2072  2.2023
  313SOL     OW  937   1.535   1.406   0.650 -0.3452  0.0077  0.8610
  313SOL    HW1  938   1.442   1.444   0.668  2.3174 -1.6030  2.4636
  313SOL    HW2  939   1.531   1.306   0.622 -0.5571  0.1742  0.1186
  314SOL     OW  940   2.982   0.007   3.053  0.4313 -0.7999  1.1577
  314SOL    HW1  941   2.950   0.080   3.120 -2.1346 -0.9638 -0.2823
  314SOL    HW2  942   2.910  -0.070   3.036 -0.9650  0.9813 -0.4259
  315SOL     OW  943   1.223   0.237   2.779 -0.2410 -0.2680 -0.1076
  315SOL    HW1  944   1.194   0.149   2.730 -2.7245 -1.4370 -0.0543
  315SOL    HW2  945   1.221   0.220   2.884  4.0058 -2.3897 -1.3158
  316SOL     OW  946   1.707   2.092   0.926  0.5700  0.0795 -0.3003
  316SOL    HW1  947   1.644   2.103   1.013 -1.1642 -1.7101  2.2302
  316SOL    HW2  948   1.684   2.167   0.856  1.2079  0.8778  2.5152
  317SOL     OW  949   1.141   0.706   2.836  0.0977  0.3453  0.3109
  317SOL    HW1  950   1.073   0.756   2.900  0.9238  1.9504 -1.9904
  317SOL    HW2  951   1.100   0.614   2.812  0.1827  0.3174 -2.2319
  318SOL     OW  952   1.464   3.036   2.267 -0.3373 -0.4376 -0.2429
  318SOL    HW1  953   1.440   3.131   2.245  0.1424 -2.2978 -0.3650
  318SOL    HW2  954   1.479   2.963   2.194 -1.5593  0.9545 -2.8537
  319SOL     OW  955   0.651   2.404   2.917  0.1193  0.0489 -0.1927
  319SOL    HW1  956   0.573   2.363   2.975  0.7227 -2.8011 -0.0745
  319SOL    HW2  957   0.730   2.340   2.900 -0.3252 -0.1117  0.8268
  320SOL     OW  958   1.630   2.177   0.344 -0.5280  0.0209  0.0685
  320SOL    HW1  959   1.723   2.141   0.370  1.2907 -0.3255  0.1035
  320SOL    HW2  960   1.560   2.149   0.409  0.6970  2.2011 -1.0273
  321SOL     OW  961   1.589   2.667   0.504  0.5445 -0.5846 -0.6599
  321SOL    HW1  962   1.524   2.737   0.457 -0.5845 -0.6281  1.1157
  321SOL    HW2  963   1.681   2.706   0.520  0.2886 -1.9160  0.4425
  322SOL     OW  964   2.548   1.112   2.256 -0.1875  0.0091  0.0640
  322SOL    HW1  965   2.607   1.174   2.319 -2.1104  0.0832  0.4979
  322SOL    HW2  966   2.543   1.012   2.286  0.3774  2.0133 -2.4990
  323SOL     OW  967   0.988   2.671   0.790  0.3751 -0.4423 -0.5238
  323SOL    HW1  968   1.028   2.639   0.697  0.6438  1.0286  0.0303
  323SOL    HW2  969   1.017   2.767   0.817  1.9462 -0.5014  3.3921
  324SOL     OW  970   0.194   2.470   2.461  0.9286  0.0524  0.1091
  324SOL    HW1  971   0.189   2.381   2.513  2.5457 -0.2478 -0.6931
  324SOL    HW2  972   0.160   2.552   2.517  0.4224 -1.3042  0.0230
  325SOL     OW  973   1.200   3.053   0.457  0.6808 -0.3150 -0.0923
  325SOL    HW1  974   1.229   3.080   0.361 -0.3806  0.4300 -1.7266
  325SOL    HW2  975   1.231   3.124   0.523  0.3898 -0.0251  0.7559
  326SOL     OW  976   2.459   0.764   3.059  0.1476  0.2766 -0.4006
  326SOL    HW1  977   2.439   0.711   2.971  1.4282 -0.2464  0.2477
  326SOL    HW2  978   2.510   0.709   3.131  2.6342  1.8389 -0.9523
  327SOL     OW  979   2.846   0.397   0.517  0.8326 -0.3060 -0.4271
  327SOL    HW1  980   2.787   0.390   0.433 -2.0968  1.4680  1.3449
  327SOL    HW2  981   2.818   0.333   0.591  0.3896  1.7663 -1.7692
  328SOL     OW  982   2.472   0.552   0.397  0.0481  0.2667 -0.0118
  328SOL    HW1  983   2.388   0.610   0.403 -0.3306 -0.3327 -0.7640
  328SOL    HW2  984   2.481   0.484   0.470  2.4913  0.2282 -1.4555
  329SOL     OW  985   2.952   2.997   2.166 -0.5197 -0.1586  0.0654
  329SOL    HW1  986   2.997   2.921   2.220 -2.6041 -1.2518  0.6065
  329SOL    HW2  987   2.977   3.090   2.208 -2.5668 -0.6185  1.4425
  330SOL     OW  988   0.527   0.173   1.885 -0.1181  0.2224 -0.0819
  330SOL    HW1  989   0.586   0.255   1.874  1.5559 -0.0018  2.3463
  330SOL    HW2  990   0.545   0.123   1.975  0.7940  0.6507  1.4448
  331SOL     OW  991   2.954   1.934   1.120 -0.3213  0.4719 -0.2442
  331SOL    HW1  992   2.982   2.018   1.069  0.6451 -0.3381 -1.9769
  331SOL    HW2  993   2.883   1.960   1.192  1.1097  0.4146 -0.3142
  332SOL     OW  994   0.421   1.125   0.084  0.2074 -0.3543  0.1601
  332SOL    HW1  995   0.351   1.073   0.025 -0.4862 -1.2421 -1.8345
  332SOL    HW2  996   0.378   1.206   0.130  0.2839 -0.3870 -1.7167
  333SOL     OW  997   2.872   1.041   0.306  0.1087  0.5578 -0.1556
  333SOL    HW1  998   2.895   1.121   0.368 -1.8746  0.9671 -0.6147
  333SOL    HW2  999   2.951   0.977   0.289  1.1698 -0.2372  3.0700
  334SOL     OW 1000   1.673   1.192   1.906  0.6756  0.0712 -0.4243
  334SOL    HW1 1001   1.755   1.169   1.853 -0.7845  0.4731 -0.0035
  334SOL    HW2 1002   1.685   1.264   1.983  0.4127  1.5150  0.5679
  335SOL     OW 1003   2.005   2.756   2.623 -0.5614  0.2947 -0.3660
  335SOL    HW1 1004   1.929   2.806   2.679 -2.5610 -2.8040  0.5511
  335SOL    HW2 1005   2.108   2.775   2.650  0.0874 -1.1447 -1.5441
  336SOL     OW 1006   0.255   0.114   2.754  0.0101 -0.3804  0.5034
  336SOL    HW1 1007   0.354   0.086   2.761 -1.4080  2.4630 -1.9533
  336SOL    HW2 1008   0.224   0.187   2.821  2.5854  0.9589 -1.4666
  337SOL     OW 1009   0.915   2.772   2.803  0.7870  0.2143 -0.0683
  337SOL    HW1 1010   0.904   2.785   2.902  1.0540  3.7557 -2.0110
  337SOL    HW2 1011   1.013   2.744   2.785  1.0013  0.1463 -0.8085
  338SOL     OW 1012   0.037   0.986   0.649 -0.2905 -0.0488  0.8063
  338SOL    HW1 1013  -0.064   0.960   0.665  1.2810 -3.0194 -0.2446
  338SOL    HW2 1014   0.059   1.085   0.667  0.6382 -0.8177 -1.3359
  339SOL     OW 1015   1.665   1.395   2.083  0.6848 -0.3531 -0.0509
  339SOL    HW1 1016   1.564   1.426   2.083  2.9945  0.4982  3.2314
  339SOL    HW2 1017   1.727   1.483   2.095 -1.9197  0.5600  0.9082
  340SOL     OW 1018   2.277   0.810   1.192  0.2008 -0.0243  0.7046
  340SOL    HW1 1019   2.177   0.832   1.192  1.0301  0.1187 -0.7905
  340SOL    HW2 1020   2.295   0.715   1.151  0.0207  0.0934  1.9020
  341SOL     OW 1021   1.912   2.154   0.361  0.7965 -0.1046 -0.4783
  341SOL    HW1 1022   1.918   2.217   0.276 -1.9788  3.0325  0.8794
  341SOL    HW2 1023   1.997   2.158   0.419 -0.1861 -2.3861  1.5138
  342SOL     OW 1024   2.207   2.101   2.768  0.2378  0.3483  0.0726
  342SOL    HW1 1025   2.271   2.039   2.818 -2.2900  0.8324  0.9238
  342SOL    HW2 1026   2.110   2.064   2.778 -2.1520 -1.9170  0.2198
  343SOL     OW 1027   0.333   0.796   2.772  0.0236 -0.1093  0.0387
  343SOL    HW1 1028   0.335   0.846   2.680 -3.4296 -1.1423 -0.8177
  343SOL    HW2 1029   0.425   0.764   2.802 -4.4184  1.7445 -0.5573
  344SOL     OW 1030   1.902   1.455   0.419 -0.0323  0.2498  0.7646
  344SOL    HW1 1031   1.903   1.360   0.378 -0.1876  1.3185  0.4537
  344SOL    HW2 1032   1.809   1.495   0.423  0.3016 -1.9909  1.3636
  345SOL     OW 1033   1.392   2.255   2.861  0.0399  0.5574  0.7090
  345SOL    HW1 1034   1.309   2.196   2.843  0.8358  0.8189  0.4597
  345SOL    HW2 1035   1.477   2.219   2.811 -1.2771 -0.4854 -0.6163
  346SOL     OW 1036   2.312   0.858   1.463 -0.3623  0.1557  0.2105
  346SOL    HW1 1037   2.269   0.946   1.502  0.4945  2.0257 -0.4547
  346SOL    HW2 1038   2.301   0.845   1.359  1.7629  0.1793  0.3331
  347SOL     OW 1039   0.721   2.861   1.513  0.3147  0.2236  0.2202
  347SOL    HW1 1040   0.695   2.780   1.570 -0.8908 -1.1934 -2.2736
  347SOL    HW2 1041   0.635   2.908   1.479  1.2890 -1.1441 -0.2838
  348SOL     OW 1042   0.073   0.656   2.868  0.1300 -0.7430  0.0691
  348SOL    HW1 1043  -0.018   0.708   2.852 -1.8245  0.6653 -0.0548
  348SOL    HW2 1044   0.159   0.697   2.818 -0.5166  0.1139 -0.9338
  349SOL     OW 1045   1.863   0.429   2.809 -0.4551 -0.2168 -0.3225
  349SOL    HW1 1046   1.842   0.507   2.741 -0.0197  3.9290  0.3330
  349SOL    HW2 1047   1.811   0.448   2.895 -2.6419 -0.1876 -0.7997
  350SOL     OW 1048   1.643   0.406   0.384 -0.1765  1.0231  0.1968
  350SOL    HW1 1049   1.717   0.421   0.459 -0.9618  1.1769  0.7676
  350SOL    HW2 1050   1.601   0.488   0.335 -2.1205  1.0945 -3.4417
  351SOL     OW 1051   0.959   0.909   2.069  0.4941  0.0214  0.0778
  351SOL    HW1 1052   0.952   1.009   2.052  0.8261  0.1534  1.6007
  351SOL    HW2 1053   0.956   0.853   1.982  1.4850 -3.2143 -1.3605
  352SOL     OW 1054   2.000   1.307   0.642 -0.1929 -0.9011  0.5201
  352SOL    HW1 1055   1.967   1.353   0.560  0.0219  2.2017  0.0080
  352SOL    HW2 1056   2.093   1.343   0.677  0.1143  1.4543  3.0137
  353SOL     OW 1057   2.131   2.899   1.126  0.5705 -0.2745  0.3692
  353SOL    HW1 1058   2.201   2.839   1.175 -2.1385 -0.6557 -0.3688
  353SOL    HW2 1059   2.064   2.838   1.072 -1.9981  0.4724  1.8368
  354SOL     OW 1060   0.248   1.398   2.844 -0.5732  0.7086 -0.1613
  354SOL    HW1 1061   0.263   1.486   2.791  0.3766  0.1564  0.7656
  354SOL    HW2 1062   0.323   1.323   2.829 -0.7609 -1.9789  1.7671
  355SOL     OW 1063   0.518   1.533   0.533 -0.1959  0.0822 -0.7699
  355SOL    HW1 1064   0.516   1.604   0.607  2.6867  0.7244 -0.3205
  355SOL    HW2 1065   0.584   1.457   0.553  1.9851 -1.4229 -2.1114
  356SOL     OW 1066   0.920   0.375   2.122  0.0110 -0.5798  0.4014
  356SOL    HW1 1067   1.010   0.418   2.106 -1.8132 -3.3373 -2.2669
  356SOL    HW2 1068   0.887   0.313   2.043  0.0963 -2.3146 -0.3403
  357SOL     OW 1069   1.012   1.284   0.319  0.4558  0.4428  0.7514
  357SOL    HW1 1070   0.945   1.280   0.239 -1.8606  3.9988  2.5684
  357SOL    HW2 1071   1.029   1.187   0.353  1.8019 -0.3916  3.5773
  358SOL     OW 1072   1.647   1.541   0.444  0.2091 -0.6623  0.1203
  358SOL    HW1 1073   1.583   1.501   0.516 -0.3163 -2.6168  1.4120
  358SOL    HW2 1074   1.609   1.552   0.347 -0.0491 -1.6017 -2.0035
  359SOL     OW 1075   1.565   2.682   0.107  0.4125  0.2425 -0.7657
  359SOL    HW1 1076   1.602   2.611   0.046 -1.0946  0.7074  0.3076
  359SOL    HW2 1077   1.464   2.667   0.137 -1.7901  0.0240 -0.1742
  360SOL     OW 1078   0.899   0.597   0.499 -0.2813  0.5195 -0.3569
  360SOL    HW1 1079   0.827   0.620   0.575 -0.3324  0.3254  1.7199
  360SOL    HW2 1080   0.924   0.497   0.498 -1.8538 -1.3362 -1.7588
  361SOL     OW 1081   1.260   1.390   0.678  0.1593  0.2742  0.0165
  361SOL    HW1 1082   1.289   1.366   0.775 -0.0693 -1.8560 -1.2085
  361SOL    HW2 1083   1.157   1.413   0.668 -3.8630  0.5786 -0.0160
  362SOL     OW 1084   1.381   1.746   0.777 -0.0577 -0.1794 -0.1395
  362SOL    HW1 1085   1.399   1.695   0.869 -1.0104  0.6968 -0.4719
  362SOL    HW2 1086   1.464   1.802   0.749 -0.2977  0.2316  1.2586
  363SOL     OW 1087   1.193   1.322   2.021  0.6539 -0.5117  0.3763
  363SOL    HW1 1088   1.206   1.409   2.073  0.5234 -2.5891 -0.1258
  363SOL    HW2 1089   1.201   1.334   1.920  1.6617 -1.4548  0.6395
  364SOL     OW 1090   0.543   2.337   1.924  0.0600 -0.0227 -0.2392
  364SOL    HW1 1091   0.472   2.410   1.942 -1.4570  1.2893 -0.4843
  364SOL    HW2 1092   0.603   2.363   1.841  0.9895  0.9399  0.7234
  365SOL     OW 1093   1.078   1.951   1.386 -0.1406 -0.1047  0.3180
  365SOL    HW1 1094   0.994   1.924   1.444 -2.8464  0.0105 -1.1214
  365SOL    HW2 1095   1.096   1.886   1.306  0.8110 -0.0228 -0.9218
  366SOL     OW 1096   2.815   2.063   0.472 -0.3290 -0.7318  0.2048
  366SOL    HW1 1097   2.739   1.997   0.488 -0.6299  0.4753  1.5276
  366SOL    HW2 1098   2.897   2.016   0.423 -1.0814 -1.1261 -1.1811
  367SOL     OW 1099   0.806   1.215   0.136 -0.4219 -0.2860  0.1933
  367SOL    HW1 1100   0.780   1.127   0.189  2.2213  1.7502  0.6197
  367SOL    HW2 1101   0.834   1.186   0.038  0.3837  2.6344  2.7711
  368SOL     OW 1102   1.530   0.561   0.715 -0.4759  0.4182  0.0433
  368SOL    HW1 1103   1.459   0.581   0.639 -3.2387 -0.3360 -1.6573
  368SOL    HW2 1104   1.621   0.610   0.697  1.1594  0.7860  0.3364
  369SOL     OW 1105   0.285   1.729   0.063 -0.3669 -0.2947 -0.5462
  369SOL    HW1 1106   0.331   1.811   0.115  2.7821  1.8650 -1.1015
  369SOL    HW2 1107   0.221   1.667   0.115 -0.4555  1.5419 -2.7328
  370SOL     OW 1108   0.385   2.116   1.024 -0.3127  0.2738  0.2554
  370SOL    HW1 1109   0.401   2.219   1.017  0.9027  0.2079  2.6730
  370SOL    HW2 1110   0.289   2.092   0.995  0.6495  0.3725 -0.4847
  371SOL     OW 1111   2.903   2.212   2.745 -0.0587  0.3270 -0.0816
  371SOL    HW1 1112   2.905   2.170   2.838 -0.0244 -0.2280  1.7239
  371SOL    HW2 1113   2.999   2.233   2.711 -1.4914  0.8936  3.2044
  372SOL     OW 1114   0.953   1.889   0.923  0.7401  0.7772  0.5020
  372SOL    HW1 1115   0.912   1.970   0.971  0.8155  1.8660 -1.3325
  372SOL    HW2 1116   1.045   1.901   0.875  0.5485  1.2842 -0.6609
  373SOL     OW 1117   1.977   2.007   0.911 -0.9085  0.3451 -0.7752
  373SOL    HW1 1118   2.041   1.985   0.991 -2.6748 -1.6708 -2.3591
  373SOL    HW2 1119   1.890   2.053   0.942  0.7234 -0.5638 -1.1006
  374SOL     OW 1120   1.852   0.460   0.548 -0.4225 -0.1818 -0.2935
  374SOL    HW1 1121   1.862   0.387   0.619  0.7303  1.6252 -0.9081
  374SOL    HW2 1122   1.946   0.477   0.501 -6.6330  2.7919  0.3345
  375SOL     OW 1123   2.385   2.147   1.137 -0.0934  0.0665  0.0068
  375SOL    HW1 1124   2.448   2.150   1.052 -2.4224 -1.7992 -0.0307
  375SOL    HW2 1125   2.434   2.145   1.227 -0.6453 -1.4399 -3.2277
  376SOL     OW 1126   3.038   0.610   1.427 -0.3639 -0.2186 -0.5240
  376SOL    HW1 1127   3.088   0.632   1.514 -0.5497  1.5248 -0.0393
  376SOL    HW2 1128   2.936   0.610   1.442  0.1538  0.1103 -2.6592
  377SOL     OW 1129   2.275   2.831   0.313  0.1551 -0.3578  0.1378
  377SOL    HW1 1130   2.245   2.928   0.335 -0.4655 -1.2065 -0.0072
  377SOL    HW2 1131   2.361   2.806   0.375 -0.2532  0.6957 -0.3990
  378SOL     OW 1132   1.824   1.909   2.635 -1.0861  0.6703  0.2270
  378SOL    HW1 1133   1.791   1.816   2.669  0.9674 -1.8993 -2.4505
  378SOL    HW2 1134   1.854   1.899   2.534 -3.1721 -0.3705 -2.7607
  379SOL     OW 1135   0.861   0.065   2.727  0.9143  0.0416  0.1377
  379SOL    HW1 1136   0.812  -0.025   2.725 -0.2845  1.4385  1.4562
  379SOL    HW2 1137   0.799   0.149   2.707 -0.1213  1.7312  0.5628
  380SOL     OW 1138   1.517   1.139   0.594  0.0829  0.4085 -0.0159
  380SOL    HW1 1139   1.415   1.118   0.569 -1.1204 -2.4534  0.8580
  380SOL    HW2 1140   1.574   1.051   0.594  0.5101 -1.7277 -1.7606
  381SOL     OW 1141   1.320   1.195   1.500 -0.0712 -0.1562  0.4728
  381SOL    HW1 1142   1.364   1.242   1.420 -0.1334 -1.9365  0.3759
  381SOL    HW2 1143   1.376   1.204   1.588  0.0913 -0.7324 -1.1715
  382SOL     OW 1144   1.750   0.795   0.274  0.2610 -0.0577 -0.4166
  382SOL    HW1 1145   1.793   0.770   0.180  1.9559  1.0723 -1.6058
  382SOL    HW2 1146   1.825   0.812   0.347 -0.9995 -1.3089  2.3751
  383SOL     OW 1147   2.582   0.978   1.507  0.0129 -0.2896 -0.0208
  383SOL    HW1 1148   2.480   0.944   1.487 -1.3757 -4.3357 -0.2090
  383SOL    HW2 1149   2.650   0.953   1.433 -1.8539  1.1953 -1.2264
  384SOL     OW 1150   0.908   2.278   0.098 -0.9239 -0.0779 -0.5838
  384SOL    HW1 1151   0.860   2.345   0.160 -0.2408 -1.3661  3.9869
  384SOL    HW2 1152   0.918   2.184   0.152  1.4805 -0.4978 -1.9864
  385SOL     OW 1153   2.997   2.012   1.754 -0.6706  0.2402 -0.0227
  385SOL    HW1 1154   3.061   2.095   1.753 -1.8486  0.8297  1.9366
  385SOL    HW2 1155   3.036   1.913   1.739 -0.5936 -1.2647  2.3771
  386SOL     OW 1156   0.441   1.148   0.449 -0.0979  0.1721  0.5041
  386SOL    HW1 1157   0.438   1.046   0.440  0.4541  2.4320  1.0717
  386SOL    HW2 1158   0.376   1.192   0.380 -1.7697  0.0348 -2.6666
  387SOL     OW 1159   0.975   0.285   1.667  0.1424 -0.6878 -0.7570
  387SOL    HW1 1160   1.018   0.384   1.668  1.6225  1.9193  1.4976
  387SOL    HW2 1161   0.973   0.240   1.575 -1.7570 -0.2033  2.8973
  388SOL     OW 1162   1.163   2.620   1.778  0.2118  0.1549  0.2105
  388SOL    HW1 1163   1.188   2.650   1.683  1.9182  0.7265 -1.6535
  388SOL    HW2 1164   1.224   2.543   1.800  1.4001 -0.1517 -0.3640
  389SOL     OW 1165   0.266   0.023   1.131  0.0232  0.3079 -0.0746
  389SOL    HW1 1166   0.193   0.040   1.204 -4.1272 -0.6727  0.8981
  389SOL    HW2 1167   0.304  -0.073   1.139  0.0907  1.0810  0.6198
  390SOL     OW 1168   1.021   0.878   1.237  0.0639  0.1754  0.1155
  390SOL    HW1 1169   1.116   0.878   1.281  0.0266 -0.9822 -1.2793
  390SOL    HW2 1170   0.953   0.910   1.306  1.2366 -0.5565 -3.3744
  391SOL     OW 1171   2.098   1.147   1.058 -0.1747  0.1871  0.2603
  391SOL    HW1 1172   2.000   1.113   1.064  0.7815  1.9977  1.3304
  391SOL    HW2 1173   2.157   1.078   1.006 -1.8335  1.6968  3.2204
  392SOL     OW 1174   0.871   2.714   3.060  0.0941 -0.2101 -0.3950
  392SOL    HW1 1175   0.792   2.676   3.114  2.7584 -1.5100 -0.2309
  392SOL    HW2 1176   0.950   2.739   3.120 -1.4159  0.3057 -1.9135
  393SOL     OW 1177   0.363   0.583   2.036  0.6016 -0.3553  1.0974
  393SOL    HW1 1178   0.282   0.519   2.026  0.0045 -0.9223  1.5055
  393SOL    HW2 1179   0.436   0.563   1.961 -2.1637  1.6402 -1.5138
  394SOL     OW 1180   2.845   1.825   2.798 -0.0832  0.3285  0.8259
  394SOL    HW1 1181   2.947   1.808   2.791  0.3670 -0.2750  0.6717
  394SOL    HW2 1182   2.810   1.904   2.733  2.0836 -2.4916 -4.5547
  395SOL     OW 1183   1.595   1.931   0.724 -0.4252  0.2738  0.7269
  395SOL    HW1 1184   1.663   1.870   0.663 -0.4414 -1.6387 -0.7762
  395SOL    HW2 1185   1.642   1.962   0.815  2.2190  0.3976  0.5970
  396SOL     OW 1186   2.759   2.056   1.308  0.2283 -0.1391  0.3679
  396SOL    HW1 1187   2.771   2.059   1.409 -0.9101  0.4332  0.3574
  396SOL    HW2 1188   2.669   2.096   1.275  0.1068 -2.2196 -1.2164
  397SOL     OW 1189   1.011   2.076   0.649  0.1245 -0.0069  0.1499
  397SOL    HW1 1190   0.932   2.062   0.587 -1.6270  1.6111  0.0707
  397SOL    HW2 1191   0.986   2.151   0.719  1.7403  0.8592 -2.0759
  398SOL     OW 1192   2.187   0.059   1.081  0.1594  0.2816  0.4566
  398SOL    HW1 1193   2.173  -0.044   1.108 -0.2217  1.8561  0.3561
  398SOL    HW2 1194   2.097   0.106   1.066 -1.4753  2.9936 -1.6546
  399SOL     OW 1195   2.958   2.543   2.736  0.4325 -0.4069 -0.4957
  399SOL    HW1 1196   2.914   2.489   2.661  1.0924  0.5777  0.5892
  399SOL    HW2 1197   2.932   2.500   2.832  0.5576 -1.4673  0.0661
  400SOL     OW 1198   0.846   1.610   1.266 -0.1876  0.3415  0.1200
  400SOL    HW1 1199   0.803   1.651   1.353 -0.7711  0.6863 -0.6285
  400SOL    HW2 1200   0.790   1.644   1.182  1.8933 -1.3545 -0.1541
  401SOL     OW 1201   1.834   0.123   1.272 -0.0356  0.6529  0.3663
  401SOL    HW1 1202   1.891   0.189   1.324 -1.1173 -0.7933 -2.4027
  401SOL    HW2 1203   1.741   0.116   1.321 -1.3050 -0.2141 -1.4272
  402SOL     OW 1204   1.315   0.142   3.039  0.3826 -0.3720 -0.1333
  402SOL    HW1 1205   1.401   0.109   2.992 -3.0768  2.3325  1.9849
  402SOL    HW2 1206   1.337   0.207   3.111  0.5875 -1.2946 -1.6226
  403SOL     OW 1207   2.294   1.813   0.943  0.1702  0.0892  0.1846
  403SOL    HW1 1208   2.396   1.816   0.971  1.5750 -1.8953 -1.0678
  403SOL    HW2 1209   2.235   1.862   1.013  1.6928 -1.8343 -0.6860
  404SOL     OW 1210   0.177   2.483   2.834 -0.2235  1.0868  0.0646
  404SOL    HW1 1211   0.275   2.445   2.806 -0.0906 -0.3253  0.3652
  404SOL    HW2 1212   0.171   2.587   2.842  2.1813  0.9568  4.0403
  405SOL     OW 1213   0.257   2.572   0.577 -0.8780 -0.0028 -0.3208
  405SOL    HW1 1214   0.248   2.588   0.477 -0.8874 -0.3503 -2.6451
  405SOL    HW2 1215   0.329   2.633   0.620  1.3618  1.7945 -0.4542
  406SOL     OW 1216   0.031   1.518   2.970  0.5490 -0.3304  0.5159
  406SOL    HW1 1217   0.104   1.457   2.922 -0.2845 -1.0271  1.4532
  406SOL    HW2 1218   0.035   1.508   3.072 -0.1334 -1.3363  0.3208
  407SOL     OW 1219   1.531   0.932   0.886 -0.3653 -0.4292 -0.0177
  407SOL    HW1 1220   1.538   0.917   0.783  0.4199  2.9108 -2.9190
  407SOL    HW2 1221   1.478   1.018   0.908 -1.7472 -1.1797  1.9451
  408SOL     OW 1222   1.493   2.392   0.964  0.5028  0.6261 -0.2104
  408SOL    HW1 1223   1.564   2.369   0.896  0.6764  0.4840 -0.6989
  408SOL    HW2 1224   1.520   2.453   1.047  0.5106 -0.2172  0.2529
  409SOL     OW 1225   0.664   0.879   0.687  0.3129 -0.4130  0.1484
  409SOL    HW1 1226   0.597   0.907   0.614  0.0302 -3.4072 -0.5366
  409SOL    HW2 1227   0.683   0.778   0.684 -2.2423  1.9417  2.3494
  410SOL     OW 1228   1.318   2.007   1.499  0.1164  0.3687  0.0210
  410SOL    HW1 1229   1.337   2.088   1.566  0.3569 -1.3781  0.9246
  410SOL    HW2 1230   1.220   1.972   1.484 -2.7061 -1.8189 -0.1096
  411SOL     OW 1231   2.372   1.838   0.046  0.4833  0.0326  0.0726
  411SOL    HW1 1232   2.273   1.834   0.009 -2.3256 -3.5269  2.2165
  411SOL    HW2 1233   2.439   1.832  -0.031 -0.4057 -0.0330 -2.4168
  412SOL     OW 1234   1.506   2.400   2.227 -0.3243  0.2037 -0.1006
  412SOL    HW1 1235   1.528   2.502   2.232  3.2190  0.9532 -0.6076
  412SOL    HW2 1236   1.449   2.367   2.309  1.8053 -2.5560 -0.9820
  413SOL     OW 1237   3.008   0.267   2.939  0.1454 -0.2237  0.9199
  413SOL    HW1 1238   2.963   0.179   2.907 -1.5461 -1.8514  2.8734
  413SOL    HW2 1239   3.109   0.268   2.936 -1.3048  0.8139 -1.4714
  414SOL     OW 1240   1.781   1.352   1.324 -0.1291  0.8449  0.4702
  414SOL    HW1 1241   1.709   1.416   1.364 -1.3564 -1.9861  0.3601
  414SOL    HW2 1242   1.754   1.327   1.223 -0.8926 -2.1145 -1.3801
  415SOL     OW 1243   0.369   2.271   0.671 -0.0086  0.1907 -0.1366
  415SOL    HW1 1244   0.351   2.361   0.631  0.8319  1.0446  0.1069
  415SOL    HW2 1245   0.289   2.204   0.659 -0.4753 -2.7582  1.4640
  416SOL     OW 1246   0.365   1.016   1.060  0.3098  0.1031 -0.4911
  416SOL    HW1 1247   0.343   0.968   0.970  0.1244  0.7572  1.6012
  416SOL    HW2 1248   0.443   1.078   1.048 -0.1792  1.4343  0.9897
  417SOL     OW 1249   2.152   2.321   1.878 -0.1096 -0.3364  0.3311
  417SOL    HW1 1250   2.201   2.232   1.912  0.8501 -0.7442  3.2123
  417SOL    HW2 1251   2.059   2.335   1.932 -1.1028  1.3061  1.2113
  418SOL     OW 1252   1.137   0.439   1.333 -0.4789  0.6964 -0.4955
  418SOL    HW1 1253   1.037   0.448   1.318  3.0210 -1.1639  1.8612
  418SOL    HW2 1254   1.198   0.426   1.242 -0.4915 -0.4395 -1.5096
  419SOL     OW 1255   0.973   0.383   3.030  0.1001 -0.1907  0.0601
  419SOL    HW1 1256   0.969   0.410   2.927 -0.0454  2.3464 -0.7443
  419SOL    HW2 1257   0.929   0.290   3.049 -3.1501  0.2893  2.5042
  420SOL     OW 1258   0.208   2.274   0.359  0.6164 -0.4214 -0.6496
  420SOL    HW1 1259   0.171   2.228   0.273  0.7329 -1.5848  1.1014
  420SOL    HW2 1260   0.136   2.262   0.433  0.6413  0.3914  1.6420
  421SOL     OW 1261   0.328   3.074   0.643 -0.0433  0.3164  0.1723
  421SOL    HW1 1262   0.330   3.016   0.558 -0.2409  0.3023  0.6690
  421SOL    HW2 1263   0.427   3.102   0.666  1.2516 -1.3985 -1.7979
  422SOL     OW 1264   0.928   2.505   1.027  0.0937 -0.2504  0.2479
  422SOL    HW1 1265   0.960   2.572   0.952 -1.2067  2.1536 -1.6578
  422SOL    HW2 1266   0.978   2.507   1.122 -0.7506  1.0083  1.1658
  423SOL     OW 1267   0.032   0.733   1.191  0.4510 -0.3286  0.0127
  423SOL    HW1 1268   0.008   0.698   1.282 -0.1161 -1.0230 -2.2641
  423SOL    HW2 1269  -0.051   0.738   1.124  0.1842  1.9776  1.1581
  424SOL     OW 1270   1.028   2.142   2.162 -0.1055  0.0864 -0.5618
  424SOL    HW1 1271   1.020   2.244   2.130 -1.1315  1.6464  0.1363
  424SOL    HW2 1272   0.989   2.130   2.259  0.2295 -0.3395 -1.1624
  425SOL     OW 1273   2.010   1.410   1.078 -0.7293 -0.3680 -0.0991
  425SOL    HW1 1274   2.025   1.306   1.078  2.3870  1.6797 -2.8862
  425SOL    HW2 1275   2.069   1.457   1.014 -0.9544 -1.2922  2.7914
  426SOL     OW 1276   1.557   1.521   1.381 -0.0158  0.2217 -0.3129
  426SOL    HW1 1277   1.508   1.609   1.344  0.1389  0.8397 -0.8444
  426SOL    HW2 1278   1.526   1.487   1.476 -0.4876  0.3509  1.3038
  427SOL     OW 1279   1.922   2.368   2.039  0.1430  0.1961  0.4474
  427SOL    HW1 1280   1.959   2.331   2.125 -2.9446 -1.0977  1.0109
  427SOL    HW2 1281   1.939   2.473   2.036  0.5446  0.5847  1.7719
  428SOL     OW 1282   0.919   3.044   0.127 -0.7246  0.1699 -0.2140
  428SOL    HW1 1283   0.978   3.123   0.175  0.7116  2.0084  2.8115
  428SOL    HW2 1284   0.977   2.958   0.112 -0.2148 -0.2708  2.4136
  429SOL     OW 1285   1.322   0.059   0.241 -0.2961  0.0006  0.0324
  429SOL    HW1 1286   1.396   0.125   0.257 -0.4260 -1.4434  1.9094
  429SOL    HW2 1287   1.335   0.020   0.144  0.2942  0.8117  0.0785
  430SOL     OW 1288   2.816   1.501   0.359 -0.0397  0.2830 -0.2316
  430SOL    HW1 1289   2.821   1.558   0.278 -1.2616 -0.0227 -1.3762
  430SOL    HW2 1290   2.800   1.557   0.448  0.3914 -1.4006  1.2370
  431SOL     OW 1291   2.113   1.600   0.907  0.7602  0.0126  0.2775
  431SOL    HW1 1292   2.178   1.676   0.941  1.5678 -0.3583 -1.6864
  431SOL    HW2 1293   2.028   1.641   0.863  0.4854 -0.4059  2.5721
  432SOL     OW 1294   2.906   2.300   1.243  0.6899 -0.0058  0.3246
  432SOL    HW1 1295   2.830   2.238   1.267  2.2129  1.7221 -3.4673
  432SOL    HW2 1296   2.986   2.310   1.311  0.2867 -1.1162 -1.9608
  433SOL     OW 1297   1.830   0.333   0.801 -0.2902  0.3020 -0.0229
  433SOL    HW1 1298   1.730   0.344   0.782  0.0048  2.0568  1.9123
  433SOL    HW2 1299   1.841   0.275   0.889 -1.3002 -0.2533  2.1836
  434SOL     OW 1300   1.545   0.272   0.706  0.0322  0.1294 -0.4129
  434SOL    HW1 1301   1.521   0.367   0.676  0.9653 -2.0019  0.7185
  434SOL    HW2 1302   1.566   0.264   0.810  0.5847 -0.9996  3.7461
  435SOL     OW 1303   1.440   1.539   2.111  0.2934 -0.2446 -0.2748
  435SOL    HW1 1304   1.418   1.512   2.210 -2.2882 -0.9217  1.7186
  435SOL    HW2 1305   1.369   1.597   2.065 -2.2821 -2.8084 -1.9011
  436SOL     OW 1306   1.650   2.671   2.380  0.5034 -0.4865  0.4805
  436SOL    HW1 1307   1.649   2.772   2.398  1.0811  0.5152  1.4957
  436SOL    HW2 1308   1.636   2.615   2.467 -1.4655 -3.1570  1.6607
  437SOL     OW 1309   1.094   2.915   0.857  0.2555 -0.0335  0.8021
  437SOL    HW1 1310   1.025   2.997   0.850 -1.2829 -0.2783  0.0191
  437SOL    HW2 1311   1.136   2.892   0.948  0.8522 -0.9399 -0.0641
  438SOL     OW 1312   1.039   2.510   1.285  0.8074  0.4062  0.2950
  438SOL    HW1 1313   1.071   2.569   1.366  1.4629 -0.1820 -0.9743
  438SOL    HW2 1314   1.024   2.415   1.325 -1.0847 -1.1819 -2.5591
  439SOL     OW 1315   0.711   1.689   1.051  0.1718  0.3510  0.0832
  439SOL    HW1 1316   0.763   1.768   1.012 -0.2862  1.0590  2.3974
  439SOL    HW2 1317   0.610   1.690   1.045  2.0203 -1.7977  2.4834
  440SOL     OW 1318   1.037   2.439   2.040  0.2100 -0.4846  0.2128
  440SOL    HW1 1319   1.002   2.463   1.946 -0.1255  1.1743 -1.5861
  440SOL    HW2 1320   1.139   2.428   2.044 -1.1105 -0.4652  0.9043
  441SOL     OW 1321   0.350   2.719   1.336 -0.1664  0.0211  1.2162
  441SOL    HW1 1322   0.410   2.639   1.349 -1.3238  0.3013  0.1937
  441SOL    HW2 1323   0.356   2.759   1.244  0.6152 -1.1749  4.2634
  442SOL     OW 1324   2.252   0.671   2.602 -0.1436 -0.2666  0.5066
  442SOL    HW1 1325   2.275   0.581   2.552  1.1434 -1.1699  0.3868
  442SOL    HW2 1326   2.153   0.695   2.604 -0.8339  1.6397 -1.5915
  443SOL     OW 1327   1.282   2.624   2.228  0.1423  0.9195  0.3029
  443SOL    HW1 1328   1.321   2.531   2.236 -0.7588  2.6459  0.0028
  443SOL    HW2 1329   1.201   2.641   2.290 -1.9369  0.6899  1.5099
  444SOL     OW 1330   1.024   1.205   1.466 -0.1064 -0.3287  0.4034
  444SOL    HW1 1331   1.128   1.196   1.457 -3.4567 -0.4107  0.2813
  444SOL    HW2 1332   0.992   1.304   1.486 -0.0804 -0.3217  1.1798
  445SOL     OW 1333   0.171   2.275   2.053 -0.5511  0.2300 -0.9873
  445SOL    HW1 1334   0.078   2.282   2.013  1.8390  1.4212 -0.4713
  445SOL    HW2 1335   0.171   2.220   2.144 -0.2809  1.8776 -0.0998
  446SOL     OW 1336   0.148   1.950   2.353  0.3899  0.0683  0.5150
  446SOL    HW1 1337   0.072   2.017   2.378  0.2658 -2.1502 -0.5598
  446SOL    HW2 1338   0.113   1.896   2.272 -2.4161  1.1499 -0.4672
  447SOL     OW 1339   1.264   1.706   1.968 -0.5820 -0.0900  0.5574
  447SOL    HW1 1340   1.178   1.763   1.986  1.0841  0.6657  1.1792
  447SOL    HW2 1341   1.354   1.756   1.983 -2.3768  0.4556  2.6727
  448SOL     OW 1342   0.207   1.445   2.057  0.1644 -0.2072  0.1477
  448SOL    HW1 1343   0.188   1.529   2.000  2.1449 -0.0663  0.0388
  448SOL    HW2 1344   0.130   1.418   2.127  2.9253  2.2038 -2.4183
  449SOL     OW 1345   1.881   2.915   0.801  0.1939 -0.1454 -0.0644
  449SOL    HW1 1346   1.865   2.933   0.901  0.2391 -0.8486 -3.2623
  449SOL    HW2 1347   1.939   2.825   0.789  1.2649 -1.9529  0.4579
  450SOL     OW 1348   2.248   1.446   0.672  0.6074  0.4955  0.0944
  450SOL    HW1 1349   2.183   1.486   0.742  1.9316  0.4487  1.0480
  450SOL    HW2 1350   2.311   1.517   0.623  1.3495 -2.4855 -0.3292
  451SOL     OW 1351   1.395   3.037   1.493 -0.2429  0.2959 -0.6129
  451SOL    HW1 1352   1.307   3.099   1.511  0.5512 -0.7727  1.7536
  451SOL    HW2 1353   1.427   2.993   1.585 -1.0387 -0.8301  3.6339
  452SOL     OW 1354   2.683   2.298   2.259 -0.2121 -0.5336  0.3440
  452SOL    HW1 1355   2.653   2.400   2.255 -0.9120  1.7656 -0.3159
  452SOL    HW2 1356   2.694   2.266   2.359 -3.5912 -1.7650 -0.5170
  453SOL     OW 1357   2.476   2.662   3.062  0.5542  0.3126 -0.1756
  453SOL    HW1 1358   2.403   2.730   3.089  2.0117  0.9062 -4.6196
  453SOL    HW2 1359   2.439   2.577   3.031  1.6177  1.1467 -0.9175
  454SOL     OW 1360   0.928   1.182   1.993 -0.4854 -0.3996  0.2112
  454SOL    HW1 1361   0.910   1.167   1.890  3.1648 -1.0371 -0.1585
  454SOL    HW2 1362   1.014   1.243   2.006 -0.1587  0.1144  0.7775
  455SOL     OW 1363   0.654   2.662   2.805  0.0963  0.2525 -0.5303
  455SOL    HW1 1364   0.752   2.690   2.818 -1.0552 -0.9453  0.0246
  455SOL    HW2 1365   0.645   2.576   2.863 -0.7010 -2.9703 -0.3427
  456SOL     OW 1366   0.377   1.941   0.219 -0.4258  0.3782  0.0907
  456SOL    HW1 1367   0.476   1.967   0.225 -0.0713 -2.8406  1.0443
  456SOL    HW2 1368   0.318   2.022   0.195  0.1076 -0.0923  0.2731
  457SOL     OW 1369   0.417   2.763   0.650  0.4244  0.4051 -0.1463
  457SOL    HW1 1370   0.410   2.840   0.581  0.2486  0.0118  2.6573
  457SOL    HW2 1371   0.509   2.750   0.701  2.2170  1.1326  1.8541
  458SOL     OW 1372   2.878   0.029   1.236 -0.8780 -0.2341 -0.0851
  458SOL    HW1 1373   2.942   0.111   1.259  0.1808  2.0275 -0.9354
  458SOL    HW2 1374   2.880  -0.007   1.138 -3.2550 -1.0675  0.3036
  459SOL     OW 1375   2.222   2.489   0.786  0.5130  0.0637  0.3456
  459SOL    HW1 1376   2.250   2.564   0.856  1.4934 -0.0766  0.9004
  459SOL    HW2 1377   2.304   2.470   0.721  1.1993  3.1878 -1.6397
  460SOL     OW 1378   1.193   2.060   2.763 -0.1381  0.5155  0.1141
  460SOL    HW1 1379   1.263   2.075   2.685  2.0816  2.7209  1.9816
  460SOL    HW2 1380   1.200   1.965   2.807  1.7288 -0.3208  0.2721
  461SOL     OW 1381   0.423   2.114   2.704 -0.2444  0.1711  0.1115
  461SOL    HW1 1382   0.381   2.028   2.655  0.2962 -0.5930  2.2404
  461SOL    HW2 1383   0.450   2.088   2.801 -2.5923 -0.4788 -2.3198
  462SOL     OW 1384   0.943   1.020   1.757 -0.1284 -0.0229 -0.2122
  462SOL    HW1 1385   0.920   0.940   1.697  1.1673  1.7607 -0.4598
  462SOL    HW2 1386   0.940   1.108   1.706  2.7646 -1.7052  1.7944
  463SOL     OW 1387   0.449   0.849   0.479  0.1767 -0.1451  0.1763
  463SOL    HW1 1388   0.498   0.765   0.444  0.3138 -0.1959 -0.1644
  463SOL    HW2 1389   0.353   0.820   0.495  3.6463  0.1233  0.0313
  464SOL     OW 1390   0.608   2.350   2.195 -0.3189 -0.1417 -0.7672
  464SOL    HW1 1391   0.559   2.416   2.264 -0.3839 -1.7887  0.8346
  464SOL    HW2 1392   0.562   2.353   2.099 -3.1549 -1.3622 -0.5651
  465SOL     OW 1393   0.235   0.905   0.827 -0.0856 -0.7312  0.2397
  465SOL    HW1 1394   0.150   0.916   0.764  0.5323  0.0296  2.3283
  465SOL    HW2 1395   0.285   0.814   0.825  2.7124  2.4423 -0.9699
  466SOL     OW 1396   1.374   1.139   1.006  0.2927  0.2588 -0.4590
  466SOL    HW1 1397   1.378   1.243   0.991  1.6521 -0.2252 -0.5916
  466SOL    HW2 1398   1.282   1.116   1.049  0.5195  1.2934  0.9455
  467SOL     OW 1399   0.577   0.409   2.486 -0.1196 -0.3898  0.1413
  467SOL    HW1 1400   0.549   0.512   2.486 -1.9329 -0.0622 -1.2358
  467SOL    HW2 1401   0.588   0.367   2.578 -2.4851 -1.3287 -0.6880
  468SOL     OW 1402   0.433   2.262   1.611  0.0634  0.3401 -0.5138
  468SOL    HW1 1403   0.531   2.273   1.648 -2.1136  1.0677  1.5143
  468SOL    HW2 1404   0.432   2.239   1.508 -0.5977 -0.9751  0.0596
  469SOL     OW 1405   1.402   1.324   1.280  0.1785 -0.4354  0.1794
  469SOL    HW1 1406   1.441   1.233   1.248 -1.3495  1.7914  3.3938
  469SOL    HW2 1407   1.473   1.405   1.283  2.5363  2.2579  0.3164
  470SOL     OW 1408   3.027   1.771   0.736 -0.1536  0.1711 -0.1993
  470SOL    HW1 1409   3.085   1.837   0.685 -1.7559 -3.5085  1.3864
  470SOL    HW2 1410   3.060   1.738   0.827  1.6335 -1.1455 -1.1708
  471SOL     OW 1411   2.557   1.383   2.165 -0.0917 -0.6515 -0.0447
  471SOL    HW1 1412   2.518   1.291   2.188  0.4314 -0.7688 -1.9331
  471SOL    HW2 1413   2.656   1.401   2.195  0.0460  0.2750  2.0202
  472SOL     OW 1414   1.127   2.439   0.069  0.2013 -0.4738 -0.3562
  472SOL    HW1 1415   1.191   2.455   0.150  0.8774 -1.3064 -0.8758
  472SOL    HW2 1416   1.041   2.387   0.093  0.4779 -1.8311  1.7448
  473SOL     OW 1417   1.069   1.503   1.001  0.3947 -0.0122 -0.2653
  473SOL    HW1 1418   0.979   1.493   0.953  0.4794 -0.0091  0.8836
  473SOL    HW2 1419   1.071   1.465   1.100  3.2239  1.8223  0.7658
  474SOL     OW 1420   0.651   1.284   0.546  0.0422 -0.0620 -0.0647
  474SOL    HW1 1421   0.575   1.224   0.507  1.4611  1.5439  0.5116
  474SOL    HW2 1422   0.738   1.228   0.554 -0.2050  0.4407  1.8508
  475SOL     OW 1423   2.803   0.045   0.810  0.0238 -0.5915 -0.5296
  475SOL    HW1 1424   2.879   0.118   0.804 -0.6298  0.8859  2.6409
  475SOL    HW2 1425   2.716   0.073   0.857 -0.0080  1.9657 -1.9469
  476SOL     OW 1426   0.987   3.041   1.790  0.1804 -0.5715 -0.4285
  476SOL    HW1 1427   1.078   3.096   1.778  0.2582 -0.7858 -1.7721
  476SOL    HW2 1428   0.952   3.010   1.698 -0.4899  1.5191  1.6858
  477SOL     OW 1429   1.465   0.294   2.398 -0.0984  0.2117 -0.1689
  477SOL    HW1 1430   1.458   0.328   2.496 -0.6859 -1.2990 -0.0620
  477SOL    HW2 1431   1.563   0.266   2.366  0.3262  0.3567 -1.7010
  478SOL     OW 1432   2.234   1.887   0.291 -0.3661 -0.4086 -0.2244
  478SOL    HW1 1433   2.168   1.801   0.305 -0.7217 -2.7661 -1.0468
  478SOL    HW2 1434   2.308   1.857   0.231 -3.3673  1.1703 -0.3685
  479SOL     OW 1435   1.232   0.967   2.908  0.0730 -0.0228  0.1312
  479SOL    HW1 1436   1.326   0.991   2.873  0.0942 -0.2532 -0.8613
  479SOL    HW2 1437   1.194   0.882   2.863 -0.0830 -0.0905  0.5218
  480SOL     OW 1438   2.700   2.307   0.383  0.4699  0.3510 -0.2091
  480SOL    HW1 1439   2.720   2.265   0.472 -0.6179  2.4644  0.2826
  480SOL    HW2 1440   2.631   2.253   0.329 -0.0883  0.6366 -1.8141
  481SOL     OW 1441   1.061   1.186   0.862  0.1529 -0.1075 -0.7194
  481SOL    HW1 1442   1.027   1.284   0.845 -1.4988  2.9585 -1.7599
  481SOL    HW2 1443   1.073   1.163   0.963 -0.8807 -1.0949 -0.8350
  482SOL     OW 1444   1.571   0.296   1.997  0.2014 -0.2453  0.3660
  482SOL    HW1 1445   1.570   0.382   1.939  0.4727  1.4303 -1.5158
  482SOL    HW2 1446   1.664   0.277   2.039  0.5808 -2.0343 -0.9650
  483SOL     OW 1447   0.220   2.338   1.219 -0.4965  0.1465  0.2506
  483SOL    HW1 1448   0.205   2.420   1.278  2.0010  0.9279 -0.6125
  483SOL    HW2 1449   0.217   2.361   1.120 -0.7137  2.0484  3.7077
  484SOL     OW 1450   1.757   1.057   1.333  0.0324 -0.0435  0.1932
  484SOL    HW1 1451   1.804   0.984   1.389 -2.4469  1.8723  2.3458
  484SOL    HW2 1452   1.769   1.153   1.375  0.8668  0.5020  0.8885
  485SOL     OW 1453   0.749   0.736   1.828  0.2982  0.3467 -0.0819
  485SOL    HW1 1454   0.718   0.785   1.740  0.2053 -3.5919  0.1814
  485SOL    HW2 1455   0.847   0.704   1.827 -1.6073  2.5123  2.1096
  486SOL     OW 1456   0.827   1.880   2.411  0.1176 -0.4554  0.1780
  486SOL    HW1 1457   0.840   1.923   2.503 -0.8752 -0.0135 -2.5121
  486SOL    HW2 1458   0.778   1.947   2.348 -1.9450  0.8614 -0.8962
  487SOL     OW 1459   1.792   1.571   1.042  0.2375 -0.6278 -0.2803
  487SOL    HW1 1460   1.854   1.487   1.059  1.4159  1.8169  1.8232
  487SOL    HW2 1461   1.803   1.611   0.947  0.2858  1.3014 -0.7690
  488SOL     OW 1462   2.964   0.836   2.293  0.6700  0.5202  0.1764
  488SOL    HW1 1463   3.041   0.769   2.275 -1.3411 -0.2825 -0.2323
  488SOL    HW2 1464   2.912   0.813   2.379  2.1977  1.1265 -0.9451
  489SOL     OW 1465   2.763   0.337   1.263 -0.1205  0.6192 -0.9639
  489SOL    HW1 1466   2.742   0.291   1.354 -1.2238 -1.1786 -1.9092
  489SOL    HW2 1467   2.865   0.320   1.240  1.0110 -0.2645  2.0296
  490SOL     OW 1468   1.435   2.903   2.821 -0.1014 -0.0764  0.0127
  490SOL    HW1 1469   1.481   2.810   2.840  3.3475  1.5876  0.2846
  490SOL    HW2 1470   1.447   2.940   2.726  1.2350 -1.1922 -0.1363
  491SOL     OW 1471   1.739   1.497   2.711 -0.3276  0.1774 -0.4610
  491SOL    HW1 1472   1.702   1.433   2.789 -1.8802 -1.3718  1.3494
  491SOL    HW2 1473   1.825   1.552   2.740  2.9950  0.3558  0.6983
  492SOL     OW 1474   0.552   2.063   0.662  0.8079  0.1718  0.3429
  492SOL    HW1 1475   0.584   2.047   0.762  0.1043 -1.7861 -1.6103
  492SOL    HW2 1476   0.488   2.142   0.654 -0.4821  2.9487 -0.5626
  493SOL     OW 1477   0.474   1.377   2.098 -0.1096  0.4506 -0.1736
  493SOL    HW1 1478   0.376   1.415   2.089  0.3324  1.2554 -0.5041
  493SOL    HW2 1479   0.473   1.274   2.104  2.0087  0.2547 -1.6168
  494SOL     OW 1480   2.698   2.573   0.093 -0.1435 -0.6397  0.1492
  494SOL    HW1 1481   2.732   2.614   0.182  1.2187 -1.1897 -0.9246
  494SOL    HW2 1482   2.612   2.618   0.057  0.5745 -0.7246 -0.7932
  495SOL     OW 1483   2.536   2.816   2.597 -0.0498  0.2207 -0.2767
  495SOL    HW1 1484   2.546   2.718   2.626  0.0121 -0.3197  1.5603
  495SOL    HW2 1485   2.626   2.863   2.579 -0.3822  1.1268 -1.0210
  496SOL     OW 1486   1.980   2.315   0.814 -0.4213 -0.1497  0.0434
  496SOL    HW1 1487   2.060   2.372   0.842  1.0101  0.6574 -0.9462
  496SOL    HW2 1488   1.989   2.217   0.845 -0.3099  2.8394  1.1729
  497SOL     OW 1489   0.172   2.997   2.384 -0.7259  0.0458 -0.4231
  497SOL    HW1 1490   0.132   3.056   2.455  1.2920  1.8599  1.3971
  497SOL    HW2 1491   0.211   3.048   2.307  1.2694 -0.8933  0.8349
  498SOL     OW 1492   1.124   1.368   1.249  0.3928  0.1840  0.7730
  498SOL    HW1 1493   1.227   1.393   1.246  2.6877 -1.7590  1.0113
  498SOL    HW2 1494   1.076   1.412   1.327 -0.3091 -0.1690 -0.7751
  499SOL     OW 1495   0.629   1.798   0.327  0.1696 -0.5398 -0.5600
  499SOL    HW1 1496   0.655   1.743   0.246  0.5648 -0.6080  0.9096
  499SOL    HW2 1497   0.695   1.871   0.366 -1.5674 -1.5761 -0.1354
  500SOL     OW 1498   1.508   2.880   1.683 -0.4745 -0.0557  0.6151
  500SOL    HW1 1499   1.556   2.872   1.774 -0.5946 -1.9948  1.3278
  500SOL    HW2 1500   1.539   2.816   1.611 -2.5966  0.6985 -0.9263
  501SOL     OW 1501   0.780   1.147   2.292 -0.1714 -0.6588 -0.1613
  501SOL    HW1 1502   0.705   1.068   2.304  1.0755  0.0872  0.9770
  501SOL    HW2 1503   0.827   1.149   2.202  0.1675 -2.1883  2.1915
  502SOL     OW 1504   2.601   0.924   1.783  0.4196 -0.0079 -0.1945
  502SOL    HW1 1505   2.615   0.948   1.682  0.8765  0.4913 -2.2134
  502SOL    HW2 1506   2.579   0.820   1.797 -0.6337  0.5463 -0.2023
  503SOL     OW 1507   1.294   0.136   0.647 -0.1388  0.0981 -0.5203
  503SOL    HW1 1508   1.228   0.210   0.661  1.4326 -0.2947 -0.1446
  503SOL    HW2 1509   1.389   0.166   0.664 -1.6455 -0.0994  1.0430
  504SOL     OW 1510   3.033   2.305   1.523 -0.3487  0.0683 -0.3505
  504SOL    HW1 1511   2.982   2.392   1.551 -0.3952  0.3689 -1.6405
  504SOL    HW2 1512   3.067   2.256   1.601 -3.2961  0.7160 -0.4836
  505SOL     OW 1513   2.310   1.182   1.443 -0.8373 -0.2045 -0.8090
  505SOL    HW1 1514   2.298   1.199   1.344  2.9274  2.1906 -1.8187
  505SOL    HW2 1515   2.395   1.236   1.475  1.2512  2.2020  2.1536
  506SOL     OW 1516   1.968   0.170   1.855 -0.0919  0.8093 -0.4083
  506SOL    HW1 1517   2.057   0.118   1.856 -2.6034 -0.9280  0.0702
  506SOL    HW2 1518   1.982   0.270   1.884 -0.9510  0.4101  0.4391
  507SOL     OW 1519   0.561   0.719   2.213  0.6440  0.2258  0.3002
  507SOL    HW1 1520   0.507   0.741   2.126  1.2864 -1.1872  0.9186
  507SOL    HW2 1521   0.633   0.641   2.199  1.3927 -5.2653  0.5131
  508SOL     OW 1522   0.326   1.681   0.788 -0.0441 -0.3425  0.2175
  508SOL    HW1 1523   0.370   1.746   0.723  1.1106  0.6740 -0.1313
  508SOL    HW2 1524   0.284   1.727   0.868 -1.8538 -0.0154 -1.3462
  509SOL     OW 1525   1.280   1.218   2.486  0.3059 -0.6449 -0.0053
  509SOL    HW1 1526   1.315   1.206   2.392  1.3690 -0.4751  0.7628
  509SOL    HW2 1527   1.179   1.202   2.504 -0.2534  1.7957  0.5865
  510SOL     OW 1528   1.318   2.045   2.228  1.0447  0.6010  0.0856
  510SOL    HW1 1529   1.320   2.065   2.125 -1.5863  3.4797 -0.3812
  510SOL    HW2 1530   1.235   1.980   2.251 -2.1988 -1.5299 -0.5475
  511SOL     OW 1531   3.014   2.752   1.293  0.0819 -0.4609 -0.4599
  511SOL    HW1 1532   3.031   2.794   1.200  3.2363  1.2539  0.0435
  511SOL    HW2 1533   2.917   2.731   1.305 -1.8023  0.5819 -0.3782
  512SOL     OW 1534   2.376   0.418   1.381  0.4368 -0.0062  0.3008
  512SOL    HW1 1535   2.277   0.451   1.380 -0.6339  0.7500  4.9873
  512SOL    HW2 1536   2.398   0.338   1.320  0.1209 -3.7253  0.3022
  513SOL     OW 1537   2.594   2.146   0.930  0.2230  0.2775  0.4719
  513SOL    HW1 1538   2.547   2.211   0.866 -2.8802 -0.8006 -0.8178
  513SOL    HW2 1539   2.683   2.106   0.893  0.5680  1.2353 -0.0722
  514SOL     OW 1540   0.660   2.711   0.420  0.5690  0.0031 -0.4853
  514SOL    HW1 1541   0.665   2.750   0.321  0.3549  1.8591  0.5945
  514SOL    HW2 1542   0.700   2.774   0.490 -0.7343 -1.4467  1.3500
  515SOL     OW 1543   1.928   1.350   2.420  0.2050  0.4164 -0.2556
  515SOL    HW1 1544   1.912   1.318   2.325 -1.5652 -1.8891 -0.0508
  515SOL    HW2 1545   1.852   1.308   2.481 -1.6982 -0.0958 -0.7676
  516SOL     OW 1546   0.258   0.273   1.878  0.6057  0.2811  0.0618
  516SOL    HW1 1547   0.359   0.243   1.880 -2.1444 -0.1258 -0.6418
  516SOL    HW2 1548   0.195   0.201   1.836 -0.3223 -0.7266  0.3838
  517SOL     OW 1549   0.476   0.166   1.167  0.2218 -0.2750  0.0508
  517SOL    HW1 1550   0.533   0.132   1.243  2.1727 -1.4441 -0.1233
  517SOL    HW2 1551   0.393   0.113   1.154  2.1126  0.0798  0.4406
  518SOL     OW 1552   2.145   3.053   1.795  0.2423  0.2271 -0.4679
  518SOL    HW1 1553   2.222   3.115   1.805 -0.2423  0.6613 -0.7659
  518SOL    HW2 1554   2.154   2.997   1.711  0.2799 -0.5883  0.1479
  519SOL     OW 1555   2.346   2.179   2.520 -0.1071 -0.5110 -0.1016
  519SOL    HW1 1556   2.273   2.153   2.590 -3.4796  3.3224 -1.3185
  519SOL    HW2 1557   2.377   2.277   2.518  0.5484  0.3074  2.4974
  520SOL     OW 1558   1.849   2.750   1.688  0.0216 -0.4465  0.6475
  520SOL    HW1 1559   1.777   2.677   1.722 -2.8219  1.1511  0.0871
  520SOL    HW2 1560   1.941   2.708   1.694  1.0985 -2.6059 -0.1392
  521SOL     OW 1561   0.557   0.044   2.136 -0.4341 -0.1058 -0.5375
  521SOL    HW1 1562   0.460   0.024   2.170 -0.0387 -1.0836  0.7667
  521SOL    HW2 1563   0.624  -0.003   2.191 -1.8700 -0.2605 -1.3052
  522SOL     OW 1564   0.235   1.864   1.461 -0.1748  0.0808 -0.2493
  522SOL    HW1 1565   0.256   1.920   1.550 -1.8337 -0.6814  3.4123
  522SOL    HW2 1566   0.208   1.924   1.379  2.3022 -0.8413 -0.8858
  523SOL     OW 1567   2.132   2.920   1.565  0.3411  0.0164 -0.1354
  523SOL    HW1 1568   2.190   2.835   1.571 -0.4532  2.5879 -0.0124
  523SOL    HW2 1569   2.057   2.900   1.494 -0.8313 -0.2266 -2.7727
  524SOL     OW 1570   0.216   2.758   2.794  0.3921  0.2385  0.1813
  524SOL    HW1 1571   0.199   2.846   2.856 -2.1782  1.1848  0.6335
  524SOL    HW2 1572   0.310   2.763   2.748 -2.1971  1.0512 -1.3702
  525SOL     OW 1573   2.131   2.043   0.476 -0.7160  0.2955 -0.3809
  525SOL    HW1 1574   2.160   2.025   0.572  3.1310  1.3308 -1.8481
  525SOL    HW2 1575   2.173   1.971   0.406  0.0085 -1.1368 -0.9001
  526SOL     OW 1576   0.440   1.532   1.791  0.0330 -0.3320  1.0118
  526SOL    HW1 1577   0.430   1.512   1.886  1.5621  1.8373 -2.5985
  526SOL    HW2 1578   0.455   1.444   1.740 -0.1992  1.0400  0.3078
  527SOL     OW 1579   1.057   2.938   1.225  0.4785 -0.1524  0.3590
  527SOL    HW1 1580   1.128   2.863   1.226 -0.9778 -1.2716  2.0736
  527SOL    HW2 1581   1.093   3.037   1.223 -0.6397  1.0067  1.6840
  528SOL     OW 1582   1.324   2.363   0.564  0.6404 -0.6195 -0.2808
  528SOL    HW1 1583   1.364   2.266   0.560  0.6723  2.9877 -1.8504
  528SOL    HW2 1584   1.346   2.413   0.654  2.0518  0.4714  2.3035
  529SOL     OW 1585   1.891   1.749   0.810 -0.1612 -0.1660 -0.3904
  529SOL    HW1 1586   1.844   1.751   0.719  0.1708 -0.7540 -0.0255
  529SOL    HW2 1587   1.913   1.845   0.837 -1.1735  0.9494  0.5485
  530SOL     OW 1588   0.443   2.487   0.193 -0.0438 -0.1678  0.1100
  530SOL    HW1 1589   0.493   2.414   0.251  0.0367 -1.3892 -0.1801
  530SOL    HW2 1590   0.432   2.450   0.099  0.5310  2.2184  2.5377
  531SOL     OW 1591   1.854   1.027   1.063  0.0470  0.4862 -0.2262
  531SOL    HW1 1592   1.791   0.986   0.998  0.9725  0.1941  1.1684
  531SOL    HW2 1593   1.830   1.017   1.164  0.4356 -1.5772 -0.7943
  532SOL     OW 1594   0.363   1.194   0.718 -0.5062  0.7635 -0.2791
  532SOL    HW1 1595   0.397   1.182   0.621  1.3780 -1.8410  2.3994
  532SOL    HW2 1596   0.328   1.111   0.763  0.4497  0.5440 -1.2748
  533SOL     OW 1597   1.837   0.049   2.530 -0.1233 -0.5067  0.1891
  533SOL    HW1 1598   1.933   0.041   2.560  0.5270 -0.0790  1.0127
  533SOL    HW2 1599   1.785   0.121   2.587  0.3068  1.1618 -2.0515
  534SOL     OW 1600   0.242   0.185   1.536  0.1056  0.0489 -0.5062
  534SOL    HW1 1601   0.326   0.240   1.498  1.4949 -2.7002  2.0878
  534SOL    HW2 1602   0.163   0.252   1.560  2.3437  1.7363 -0.7832
  535SOL     OW 1603   1.906   0.374   0.191 -0.4398 -1.0927 -0.3313
  535SOL    HW1 1604   1.940   0.433   0.277 -2.6860  0.2960  4.2179
  535SOL    HW2 1605   1.828   0.316   0.224  0.0213  1.0731 -0.8216
  536SOL     OW 1606   1.247   2.613   0.964  0.1404  0.8047 -0.9396
  536SOL    HW1 1607   1.302   2.526   0.987  0.5096 -0.8798 -1.8487
  536SOL    HW2 1608   1.193   2.602   0.879 -2.0981  0.9429  1.4667
  537SOL     OW 1609   0.902   0.204   2.348  0.2696  0.0299  0.3515
  537SOL    HW1 1610   0.949   0.224   2.259  0.2741  1.3534 -1.1103
  537SOL    HW2 1611   0.799   0.187   2.338 -0.7902  1.4546 -3.2672
  538SOL     OW 1612   1.689   2.348   1.535 -0.1949  0.5938 -0.2842
  538SOL    HW1 1613   1.653   2.266   1.478  1.0002 -2.1589  1.0455
  538SOL    HW2 1614   1.778   2.376   1.491 -1.6655 -1.4312 -0.4912
  539SOL     OW 1615   0.186   1.638   2.703 -0.0459  0.1611  0.2558
  539SOL    HW1 1616   0.099   1.589   2.656 -2.0277 -2.3808 -3.1581
  539SOL    HW2 1617   0.156   1.707   2.778  1.7677 -0.4583  2.7779
  540SOL     OW 1618   2.704   1.715   2.030 -0.0724 -0.6830 -0.4947
  540SOL    HW1 1619   2.657   1.645   1.970 -0.1272  3.1639  1.2523
  540SOL    HW2 1620   2.639   1.798   2.034  2.7194 -1.3783 -0.5781
  541SOL     OW 1621   0.457   2.295   3.067 -0.0228 -0.2951  0.2713
  541SOL    HW1 1622   0.517   2.213   3.090  3.6400  3.0280  0.6845
  541SOL    HW2 1623   0.367   2.262   3.026 -2.6231 -1.5207 -1.8585
  542SOL     OW 1624   2.189   2.605   0.492  0.0588 -0.0862  0.0300
  542SOL    HW1 1625   2.155   2.682   0.426  0.2859 -0.7858 -1.3384
  542SOL    HW2 1626   2.125   2.525   0.491  1.4055 -1.9420 -3.1402
  543SOL     OW 1627   0.998   1.787   1.714 -0.4395  0.1997 -0.1991
  543SOL    HW1 1628   0.996   1.801   1.818 -1.5180 -0.3516 -0.8286
  543SOL    HW2 1629   0.935   1.850   1.668 -0.3309  0.3404 -1.1869
  544SOL     OW 1630   0.881   0.421   0.171  0.0575 -0.3739  1.0208
  544SOL    HW1 1631   0.952   0.411   0.247  0.3426 -0.5283  1.9550
  544SOL    HW2 1632   0.923   0.408   0.074  0.1779 -0.1546  0.4054
  545SOL     OW 1633   1.168   1.695   0.606  0.7979 -0.0521 -0.4072
  545SOL    HW1 1634   1.246   1.698   0.676 -0.7851  0.1250  1.1061
  545SOL    HW2 1635   1.196   1.720   0.510  2.6537 -0.7217 -1.2937
  546SOL     OW 1636   2.673   1.555   0.018  0.1716  0.3494  0.3369
  546SOL    HW1 1637   2.720   1.499  -0.063  2.0174 -3.4309  0.0016
  546SOL    HW2 1638   2.584   1.511   0.053  2.6862  0.7136 -1.8959
  547SOL     OW 1639   0.547   0.031   2.804 -0.1461  0.5364 -0.1973
  547SOL    HW1 1640   0.568  -0.035   2.722  3.0937  0.1759 -1.8419
  547SOL    HW2 1641   0.542  -0.014   2.898 -1.7219 -0.6596  4.3363
  548SOL     OW 1642   2.064   0.850   3.021  0.6147  0.7790  0.4544
  548SOL    HW1 1643   1.976   0.810   3.065  0.1821 -0.0177 -0.6287
  548SOL    HW2 1644   2.092   0.935   3.068 -1.0159  3.4491  1.5009
  549SOL     OW 1645   0.612   0.394   0.137  0.9592  0.4319  0.5276
  549SOL    HW1 1646   0.592   0.476   0.075 -4.6163 -0.0066  1.0996
  549SOL    HW2 1647   0.716   0.397   0.161 -0.6728  0.3789 -1.7276
  550SOL     OW 1648   2.531   2.867   2.884  0.5357 -0.5200  0.4812
  550SOL    HW1 1649   2.508   2.783   2.943  0.5145  2.0184 -1.5853
  550SOL    HW2 1650   2.533   2.839   2.781 -1.4189 -3.3076  0.6443
  551SOL     OW 1651   0.240   0.818   0.169 -0.2728  0.7279 -0.6660
  551SOL    HW1 1652   0.338   0.847   0.166  1.0573  0.2692 -0.2666
  551SOL    HW2 1653   0.203   0.831   0.268  0.4382  0.9391  1.4406
  552SOL     OW 1654   0.805   2.802   1.854 -0.3172 -0.4336  0.4757
  552SOL    HW1 1655   0.774   2.794   1.952 -2.8311 -0.4441  1.4731
  552SOL    HW2 1656   0.879   2.868   1.840  1.1652  0.7131  0.9303
  553SOL     OW 1657   3.052   2.552   0.388 -0.0437  0.1104 -0.3035
  553SOL    HW1 1658   3.005   2.464   0.359  0.8472  0.5883 -1.6080
  553SOL    HW2 1659   3.014   2.579   0.482  2.3371  1.7218 -0.5019
  554SOL     OW 1660   2.162   0.283   0.570  0.8544  0.4414 -0.0842
  554SOL    HW1 1661   2.238   0.249   0.513 -0.4814  2.2903  0.9693
  554SOL    HW2 1662   2.146   0.230   0.660  0.1809 -0.3797  2.0323
  555SOL     OW 1663   0.432   2.913   2.434 -0.9256  0.1039 -0.1961
  555SOL    HW1 1664   0.336   2.951   2.433  0.3152 -0.1489 -0.1348
  555SOL    HW2 1665   0.455   2.855   2.351 -0.3404 -2.6000  4.2160
  556SOL     OW 1666   0.913   2.302   1.688 -0.2662  0.3478 -0.2062
  556SOL    HW1 1667   0.943   2.393   1.724  2.5450 -2.7218  0.9822
  556SOL    HW2 1668   0.949   2.280   1.592  0.3635  1.2738 -0.9733
  557SOL     OW 1669   0.170   2.132   0.122 -0.1251 -0.5006  0.4237
  557SOL    HW1 1670   0.090   2.065   0.112 -1.7924 -0.5031  0.6359
  557SOL    HW2 1671   0.193   2.168   0.028  1.0815  1.1774  0.3570
  558SOL     OW 1672   2.952   2.313   0.313 -0.4258 -0.7070  0.4624
  558SOL    HW1 1673   2.848   2.293   0.330 -1.1767 -2.8491  3.4345
  558SOL    HW2 1674   2.986   2.304   0.218 -1.0949  0.2099 -0.1285
  559SOL     OW 1675   0.431   2.218   1.354 -0.3899 -0.0088  0.0362
  559SOL    HW1 1676   0.335   2.225   1.311  0.2773  1.0463 -0.5442
  559SOL    HW2 1677   0.492   2.152   1.308 -0.7309  0.0152  0.6606
  560SOL     OW 1678   2.075   1.129   3.098  0.4472 -0.5240 -0.0375
  560SOL    HW1 1679   2.058   1.171   3.004 -2.2167 -2.8854 -0.6235
  560SOL    HW2 1680   1.992   1.122   3.155  1.1796  0.4446 -1.2183
  561SOL     OW 1681   3.057   1.926   0.014 -0.0528  0.6769 -0.6037
  561SOL    HW1 1682   2.983   1.865   0.041  3.5999  0.0712  1.1634
  561SOL    HW2 1683   3.018   2.010  -0.030  0.1349 -0.5799 -0.7177
  562SOL     OW 1684   0.866   2.168   2.406  0.2282 -0.2866 -1.0706
  562SOL    HW1 1685   0.761   2.144   2.401  0.7472  0.8782 -1.5624
  562SOL    HW2 1686   0.903   2.192   2.498  2.8296  1.7050 -0.6189
  563SOL     OW 1687   0.691   2.541   2.571 -0.5431 -0.5024  0.9648
  563SOL    HW1 1688   0.765   2.478   2.551 -2.6647  1.0023  2.4787
  563SOL    HW2 1689   0.673   2.562   2.670 -1.8742 -1.7402  1.7989
  564SOL     OW 1690   2.718   1.306   2.839 -0.5024 -0.2519  0.2076
  564SOL    HW1 1691   2.641   1.295   2.905 -1.5074  0.8662 -0.7147
  564SOL    HW2 1692   2.764   1.398   2.849 -2.6414 -0.8762  2.0363
  565SOL     OW 1693   2.533   1.963   2.590  0.2350 -0.4990 -0.2171
  565SOL    HW1 1694   2.456   2.024   2.557 -0.2296  0.1180  0.4534
  565SOL    HW2 1695   2.572   1.989   2.687  0.4405  0.2800  0.0386
  566SOL     OW 1696   1.965   2.867   1.360  0.1414 -0.2288 -0.6504
  566SOL    HW1 1697   1.946   2.767   1.341 -1.4883  2.2545 -0.9940
  566SOL    HW2 1698   1.988   2.918   1.271 -1.7609  1.7191  0.2555
  567SOL     OW 1699   2.466   0.137   2.230 -0.2572 -0.2151 -0.1162
  567SOL    HW1 1700   2.507   0.128   2.132 -1.0631  0.5952 -1.1582
  567SOL    HW2 1701   2.366   0.162   2.223 -1.8712  0.0463 -0.9175
  568SOL     OW 1702   1.493   1.833   0.388  0.2492  0.0358 -0.3197
  568SOL    HW1 1703   1.487   1.865   0.287 -2.1886  1.0099 -4.8891
  568SOL    HW2 1704   1.561   1.887   0.444  0.1752 -1.3422 -1.1424
  569SOL     OW 1705   0.320   0.636   0.796 -0.3538 -0.0766 -0.0823
  569SOL    HW1 1706   0.389   0.570   0.761  0.0147 -1.6815 -2.2854
  569SOL    HW2 1707   0.227   0.603   0.802 -2.2095 -0.4957  2.5202
  570SOL     OW 1708   0.604   0.766   2.834  0.3433 -0.0677  0.1543
  570SOL    HW1 1709   0.675   0.773   2.758  1.2773 -1.1904 -2.5161
  570SOL    HW2 1710   0.585   0.854   2.882  3.4631 -1.2605  2.8591
  571SOL     OW 1711   0.811   3.039   1.098  0.5111  0.1963 -0.0742
  571SOL    HW1 1712   0.837   3.097   1.014 -2.5719 -0.8806 -0.6989
  571SOL    HW2 1713   0.891   2.997   1.147 -1.6137  0.8062  0.6542
  572SOL     OW 1714   1.549   2.581   1.158  0.0744  0.6511 -0.0973
  572SOL    HW1 1715   1.488   2.521   1.215  1.0164  1.9645  1.9511
  572SOL    HW2 1716   1.498   2.660   1.124  0.5172 -0.6135  0.3918
  573SOL     OW 1717   2.939   0.410   2.085 -0.1309 -0.5059  0.0780
  573SOL    HW1 1718   2.903   0.318   2.102 -0.5166  3.3284 -0.8865
  573SOL    HW2 1719   2.869   0.477   2.048 -0.8680 -1.1299 -1.3428
  574SOL     OW 1720   0.230   1.785   1.018 -0.0598 -0.5338 -0.7643
  574SOL    HW1 1721   0.203   1.882   0.992  1.7912 -0.1853 -2.2356
  574SOL    HW2 1722   0.163   1.742   1.083 -0.5321 -0.7191  0.8972
  575SOL     OW 1723   0.883   2.141   0.999 -0.1446 -0.1780 -0.2717
  575SOL    HW1 1724   0.892   2.170   1.099 -2.7695  2.3486 -1.1352
  575SOL    HW2 1725   0.917   2.211   0.928 -1.3224 -0.4234 -2.8995
  576SOL     OW 1726   2.908   2.937   1.732  0.1158 -0.4239  0.0194
  576SOL    HW1 1727   2.862   2.870   1.665 -1.8040 -2.7556 -1.9560
  576SOL    HW2 1728   2.916   3.033   1.693 -2.0308 -0.1177 -2.3896
  577SOL     OW 1729   2.564   1.264   3.063 -0.1519  0.3653  0.5024
  577SOL    HW1 1730   2.554   1.161   3.049 -1.1573 -2.4520 -0.7594
  577SOL    HW2 1731   2.635   1.281   3.141  1.0663  0.5738  2.2575
  578SOL     OW 1732   1.309   2.677   2.539 -0.8351  0.3470 -0.2955
  578SOL    HW1 1733   1.221   2.675   2.484  0.0309  0.0055 -0.9998
  578SOL    HW2 1734   1.348   2.777   2.555  2.4702 -0.5419 -2.2210
  579SOL     OW 1735   0.130   2.488   0.187  0.1120 -0.6784  0.0322
  579SOL    HW1 1736   0.081   2.514   0.277 -0.7453  0.1232  0.7864
  579SOL    HW2 1737   0.210   2.425   0.208  0.3221  0.7503 -0.7084
  580SOL     OW 1738   1.008   2.653   0.370  0.1346  0.5581  0.4659
  580SOL    HW1 1739   1.083   2.702   0.314  1.8921 -0.1132  0.8069
  580SOL    HW2 1740   0.950   2.586   0.313 -0.4834 -0.7490  1.0676
  581SOL     OW 1741   1.201   2.618   1.499  0.7037  0.1950 -0.5754
  581SOL    HW1 1742   1.274   2.544   1.496  1.0204  1.0382  1.2565
  581SOL    HW2 1743   1.241   2.701   1.451 -1.6575  0.1446  1.2638
  582SOL     OW 1744   1.483   0.052   1.854  0.2730  0.5941  0.0527
  582SOL    HW1 1745   1.494   0.123   1.928  1.3723 -1.0262  0.4355
  582SOL    HW2 1746   1.570   0.043   1.791 -0.6912 -0.9421  0.1268
  583SOL     OW 1747   2.452   3.003   0.597  0.2250 -0.7522 -0.8300
  583SOL    HW1 1748   2.493   2.941   0.524 -0.2494  1.8360 -1.1461
  583SOL    HW2 1749   2.399   2.957   0.677  0.3008  0.2528  1.9197
  584SOL     OW 1750   1.573   1.004   2.133 -0.1136  0.3221  0.0049
  584SOL    HW1 1751   1.639   1.069   2.085  0.5038  1.5954  1.8165
  584SOL    HW2 1752   1.609   0.965   2.224  2.1831 -2.4048  0.6257
  585SOL     OW 1753   2.100   2.647   2.910 -0.6614  0.1714 -0.4613
  585SOL    HW1 1754   2.157   2.567   2.862 -0.9190 -3.5679 -0.5388
  585SOL    HW2 1755   2.003   2.650   2.876  1.7935 -0.8914  0.4244
  586SOL     OW 1756   2.748   0.246   1.557 -0.1647  0.3066  0.2562
  586SOL    HW1 1757   2.789   0.317   1.613 -0.9846  0.6077  0.2661
  586SOL    HW2 1758   2.649   0.214   1.589  0.5725  4.4915  2.3141
  587SOL     OW 1759   1.965   1.649   2.734 -0.3078 -0.0039  0.0570
  587SOL    HW1 1760   2.030   1.605   2.658 -0.5579 -0.9636 -1.7775
  587SOL    HW2 1761   2.011   1.639   2.826  1.7018  0.3972 -1.4414
  588SOL     OW 1762   0.490   2.732   2.239  0.3581 -0.2499 -0.5676
  588SOL    HW1 1763   0.393   2.725   2.197  0.1885 -0.5564 -1.8115
  588SOL    HW2 1764   0.495   2.673   2.322  1.7620 -0.3295 -0.2688
  589SOL     OW 1765   2.141   1.444   2.568  0.1050  0.0472  0.5429
  589SOL    HW1 1766   2.064   1.405   2.505 -2.7842  0.0580  3.3955
  589SOL    HW2 1767   2.231   1.397   2.552 -3.0929  0.6187  0.3949
  590SOL     OW 1768   2.366   1.696   1.997  0.3175  0.2667  0.5423
  590SOL    HW1 1769   2.432   1.616   2.003  1.0709  0.5688 -0.1747
  590SOL    HW2 1770   2.372   1.758   2.084 -0.4182  0.3887 -0.6566
  591SOL     OW 1771   1.365   2.466   0.295  0.1958  0.3905  0.2023
  591SOL    HW1 1772   1.464   2.460   0.257  0.2936 -1.4411  0.8446
  591SOL    HW2 1773   1.351   2.430   0.394 -1.9104 -0.6938  0.8284
  592SOL     OW 1774   1.699   2.329   0.779  0.3425 -0.2761 -0.4199
  592SOL    HW1 1775   1.666   2.350   0.683  0.6856  0.0240  1.1693
  592SOL    HW2 1776   1.798   2.359   0.787  3.6360  0.8179  0.7562
  593SOL     OW 1777   0.626   0.151   0.027  0.4309 -0.5303  0.6039
  593SOL    HW1 1778   0.710   0.147  -0.039  1.4499 -1.8491  3.9523
  593SOL    HW2 1779   0.627   0.237   0.093 -0.1556 -0.6161  2.7440
  594SOL     OW 1780   0.923   1.980   2.677 -0.0569 -0.9237  0.1213
  594SOL    HW1 1781   1.027   1.993   2.676 -0.3404 -0.8011 -1.4482
  594SOL    HW2 1782   0.885   1.999   2.771 -0.7493  0.2259  0.8857
  595SOL     OW 1783   1.540   0.026   1.082 -0.7862 -0.2374 -0.1885
  595SOL    HW1 1784   1.632   0.015   1.039  1.6916 -0.6746 -1.5146
  595SOL    HW2 1785   1.464  -0.011   1.021 -0.2279 -1.1429 -2.5627
  596SOL     OW 1786   0.008   1.390   2.240  0.2922  0.1825  0.4905
  596SOL    HW1 1787  -0.091   1.421   2.261  1.2530  0.0475 -3.8316
  596SOL    HW2 1788   0.055   1.376   2.324 -1.1340  2.1180 -2.3578
  597SOL     OW 1789   2.080   2.615   1.650 -0.5931 -0.1199 -0.2911
  597SOL    HW1 1790   2.047   2.533   1.593 -0.0033 -0.3898  0.8302
  597SOL    HW2 1791   2.165   2.594   1.705 -3.6078  2.5177 -3.8126
  598SOL     OW 1792   2.509   2.901   1.275 -0.3422  0.3556  0.6472
  598SOL    HW1 1793   2.550   2.941   1.359 -1.0255  0.1257 -0.1160
  598SOL    HW2 1794   2.576   2.873   1.206 -0.1249 -2.5874  3.1583
  599SOL     OW 1795   2.913   0.375   2.472 -0.1555  0.0839 -0.0751
  599SOL    HW1 1796   2.993   0.380   2.406  0.2433  1.7213 -0.2560
  599SOL    HW2 1797   2.821   0.384   2.424  1.9997  2.8023  0.8702
  600SOL     OW 1798   2.823   1.089   2.728  0.3860 -0.0969 -0.0418
  600SOL    HW1 1799   2.785   0.997   2.753  1.5084  1.8856 -2.0708
  600SOL    HW2 1800   2.786   1.172   2.778 -0.1810 -0.0987 -1.8287
  601SOL     OW 1801   3.002   1.243   2.025 -0.1691 -0.0435 -0.1402
  601SOL    HW1 1802   2.925   1.293   1.967 -2.2766  0.6765 -1.4909
  601SOL    HW2 1803   3.063   1.310   2.073 -4.4678  2.0623  1.0562
  602SOL     OW 1804   1.516   1.728   2.360 -0.5201 -0.0182 -0.5557
  602SOL    HW1 1805   1.462   1.648   2.338 -2.2383 -1.4775 -0.9499
  602SOL    HW2 1806   1.615   1.705   2.374  1.1658 -0.7438  0.2997
  603SOL     OW 1807   0.636   1.256   2.693 -0.2844 -0.2444 -0.0603
  603SOL    HW1 1808   0.575   1.257   2.611 -0.3773  0.6044  3.1723
  603SOL    HW2 1809   0.715   1.188   2.691 -0.9241 -1.3613  2.4509
  604SOL     OW 1810   2.417   0.963   0.163  0.1407 -0.4644 -0.4083
  604SOL    HW1 1811   2.470   1.031   0.106 -1.1576  1.0879 -2.4726
  604SOL    HW2 1812   2.398   0.877   0.114  0.9185  1.4606 -0.3242
  605SOL     OW 1813   2.692   1.142   1.958  0.0346  0.7298  0.3713
  605SOL    HW1 1814   2.670   1.072   1.879  1.4918 -2.6645 -2.1962
  605SOL    HW2 1815   2.683   1.102   2.053 -0.6380  0.1972  1.0062
  606SOL     OW 1816   1.524   2.526   2.617  0.0482 -0.2872  0.3495
  606SOL    HW1 1817   1.436   2.575   2.597  2.7219 -1.6707 -0.3092
  606SOL    HW2 1818   1.512   2.424   2.583  0.7669 -2.2545  0.0762
  607SOL     OW 1819   1.354   1.590   0.437  0.0509  0.2712 -0.3506
  607SOL    HW1 1820   1.308   1.589   0.531 -0.7794  1.2792  1.3565
  607SOL    HW2 1821   1.368   1.687   0.395 -1.1590  1.0036  0.8136
  608SOL     OW 1822   1.410   2.889   0.460 -0.3021 -0.1112  0.0222
  608SOL    HW1 1823   1.484   2.940   0.405 -0.9389 -0.1061  3.1171
  608SOL    HW2 1824   1.328   2.949   0.484 -0.5058 -1.2920 -0.1244
  609SOL     OW 1825   1.286   1.378   0.278 -0.0049  0.0051  0.1394
  609SOL    HW1 1826   1.305   1.455   0.342 -1.3757  1.2342 -0.9831
  609SOL    HW2 1827   1.188   1.336   0.288 -1.7910 -1.3245  0.5273
  610SOL     OW 1828   2.959   1.118   2.284  0.0208  0.2046 -0.3991
  610SOL    HW1 1829   2.956   1.013   2.292  1.8906 -1.5411 -0.5347
  610SOL    HW2 1830   2.961   1.149   2.183 -0.8765  0.5576 -0.4545
  611SOL     OW 1831   2.518   0.298   1.153  0.1743 -0.2123 -0.1445
  611SOL    HW1 1832   2.481   0.210   1.190 -0.3253  0.4037  1.7423
  611SOL    HW2 1833   2.617   0.313   1.184 -1.1594 -0.3840 -0.1469
  612SOL     OW 1834   0.762   2.205   1.262  0.4886  0.5711  0.0859
  612SOL    HW1 1835   0.698   2.124   1.247  3.4559  0.4264  0.4063
  612SOL    HW2 1836   0.728   2.293   1.217  2.2465  1.0274 -2.7742
  613SOL     OW 1837   0.887   1.469   2.379 -0.3278  0.1222  0.5947
  613SOL    HW1 1838   0.963   1.527   2.341 -1.6899 -0.0008 -0.3557
  613SOL    HW2 1839   0.876   1.384   2.325  0.9278  2.3388  0.3585
  614SOL     OW 1840   1.667   1.605   1.830  0.1372  0.4376  0.6930
  614SOL    HW1 1841   1.620   1.698   1.824 -0.9251  0.7387  0.2488
  614SOL    HW2 1842   1.720   1.590   1.917 -0.0430  1.5738  0.2794
  615SOL     OW 1843   0.834   1.290   1.713  0.5585  0.5524 -0.5078
  615SOL    HW1 1844   0.765   1.272   1.642  2.7163  1.3265  0.7580
  615SOL    HW2 1845   0.860   1.388   1.723  1.6956 -4.9884 -0.3095
  616SOL     OW 1846   1.114   1.561   2.202 -0.1139  0.9712  0.0649
  616SOL    HW1 1847   1.024   1.546   2.157  2.4438  1.0840  0.7662
  616SOL    HW2 1848   1.145   1.659   2.201  1.0309 -0.8828  1.5287
  617SOL     OW 1849   2.959   1.534   1.615 -0.6280 -0.4224 -0.1897
  617SOL    HW1 1850   2.963   1.467   1.694  0.6469 -1.1983 -2.2527
  617SOL    HW2 1851   3.022   1.512   1.540 -0.8023  0.3751  0.0905
  618SOL     OW 1852   1.877   2.094   1.359  0.2889 -0.1376 -0.2074
  618SOL    HW1 1853   1.842   2.172   1.302  0.8040 -1.4071 -0.8000
  618SOL    HW2 1854   1.871   1.994   1.316 -0.9341  0.8754  0.3870
  619SOL     OW 1855   1.757   0.459   2.373 -0.0453 -0.0033  0.1031
  619SOL    HW1 1856   1.695   0.512   2.307  0.8505  1.0811 -2.4991
  619SOL    HW2 1857   1.738   0.354   2.381  1.3176 -3.0343 -2.4594
  620SOL     OW 1858   2.299   2.869   0.770  0.1810  0.6474 -0.1997
  620SOL    HW1 1859   2.247   2.956   0.806 -0.0226  0.3065  0.3253
  620SOL    HW2 1860   2.300   2.795   0.840 -0.9736  0.7556 -1.1113
  621SOL     OW 1861   2.122   1.833   1.353 -0.1253 -1.1301  0.2970
  621SOL    HW1 1862   2.158   1.840   1.450 -2.5024 -0.2840 -0.3915
  621SOL    HW2 1863   2.072   1.741   1.334 -1.8600 -1.7869 -0.1560
  622SOL     OW 1864   2.308   0.939   1.851 -1.2172 -0.5554 -0.3251
  622SOL    HW1 1865   2.413   0.936   1.835  1.9553  0.4540  0.8249
  622SOL    HW2 1866   2.262   0.851   1.871  0.1279  0.1420  0.1913
  623SOL     OW 1867   1.344   0.792   2.435  0.7221 -0.0593 -0.3342
  623SOL    HW1 1868   1.246   0.743   2.432 -1.2170  0.1138 -0.9852
  623SOL    HW2 1869   1.347   0.869   2.364 -3.1959  0.1253 -0.9911
  624SOL     OW 1870   0.535   0.640   3.081  0.0056  0.2478 -0.1533
  624SOL    HW1 1871   0.552   0.681   2.986  1.2351 -0.6083 -2.4171
  624SOL    HW2 1872   0.564   0.707   3.159 -0.6776  0.1723  1.7438
  625SOL     OW 1873   2.788   1.709   1.005 -0.0840 -0.0078 -0.2350
  625SOL    HW1 1874   2.703   1.763   1.026  0.0586  1.6778  0.6412
  625SOL    HW2 1875   2.875   1.760   1.036  1.7201  0.1474  1.4373
  626SOL     OW 1876   0.622   2.675   1.711 -0.0370 -0.9409 -0.0888
  626SOL    HW1 1877   0.687   2.737   1.768 -0.3103  0.0338  0.1078
  626SOL    HW2 1878   0.522   2.660   1.748 -0.2909 -0.6897 -1.4253
  627SOL     OW 1879   0.644   0.887   1.576  0.0931  0.1671 -0.1682
  627SOL    HW1 1880   0.567   0.855   1.525  0.4968  0.4406  2.3420
  627SOL    HW2 1881   0.723   0.921   1.519  0.4194  1.7551 -1.8783
  628SOL     OW 1882   2.431   0.151   0.700  0.2915  0.7525  0.3164
  628SOL    HW1 1883   2.447   0.060   0.656  0.2668 -0.2779 -0.7947
  628SOL    HW2 1884   2.335   0.163   0.736  1.0051  0.2686  0.8637
  629SOL     OW 1885   1.899   0.903   1.985 -0.0818 -0.4302  0.1387
  629SOL    HW1 1886   1.920   0.972   1.908  1.2870  1.2847  0.2528
  629SOL    HW2 1887   1.882   0.962   2.068  0.0324 -1.1223  0.1426
  630SOL     OW 1888   2.914   2.323   0.778  0.5540  0.4827  0.0577
  630SOL    HW1 1889   2.840   2.400   0.783 -0.2590  0.8316 -1.0716
  630SOL    HW2 1890   2.877   2.223   0.777  1.6890 -2.1145  1.5850
  631SOL     OW 1891   3.073   0.144   2.174 -0.3279  0.7016  0.2594
  631SOL    HW1 1892   3.159   0.180   2.211 -0.3361 -0.9689  1.6130
  631SOL    HW2 1893   3.074   0.122   2.070 -1.2705  0.3195 -1.4671
  632SOL     OW 1894   2.444   2.567   0.597  0.9274 -0.0148  0.7326
  632SOL    HW1 1895   2.501   2.647   0.614  0.9285 -1.6961  0.5696
  632SOL    HW2 1896   2.353   2.593   0.554 -2.3679 -0.4480  0.4914
  633SOL     OW 1897   1.478   1.195   2.685  0.1945  0.5345 -0.0737
  633SOL    HW1 1898   1.461   1.275   2.752  2.0849 -2.0825 -0.2236
  633SOL    HW2 1899   1.410   1.185   2.602 -0.1847 -0.7906 -0.2708
  634SOL     OW 1900   0.635   2.032   0.912 -0.2172 -0.2694 -0.6715
  634SOL    HW1 1901   0.552   2.058   0.964  0.1942  0.7593  0.7452
  634SOL    HW2 1902   0.717   2.075   0.957  0.1592 -1.3558  0.3762
  635SOL     OW 1903   3.007   2.385   0.033 -0.2965 -0.2379  0.2730
  635SOL    HW1 1904   2.944   2.454  -0.013  1.1798 -0.2304  2.7494
  635SOL    HW2 1905   3.083   2.435   0.083 -2.4496  0.4811  0.5136
  636SOL     OW 1906   2.393   2.757   1.992 -0.8880  0.7604  0.0734
  636SOL    HW1 1907   2.381   2.860   1.981 -0.6054 -1.2695 -1.5105
  636SOL    HW2 1908   2.334   2.711   2.062 -1.4387 -0.1192  2.2460
  637SOL     OW 1909   2.768   0.612   1.978  0.3145  0.1885 -0.0358
  637SOL    HW1 1910   2.725   0.609   1.890 -0.0758  2.2201  2.9603
  637SOL    HW2 1911   2.834   0.693   1.979 -1.2706 -0.1829 -0.4410
  638SOL     OW 1912   2.443   1.852   1.294  0.0730  0.3461  0.1053
  638SOL    HW1 1913   2.344   1.839   1.274  0.3511 -1.7614  0.3318
  638SOL    HW2 1914   2.475   1.808   1.385 -0.0619  1.3135  1.0184
  639SOL     OW 1915   1.318   2.210   1.686 -0.0270 -0.1754  0.1274
  639SOL    HW1 1916   1.346   2.306   1.711 -0.1672  0.2236  1.1534
  639SOL    HW2 1917   1.234   2.177   1.737 -4.4163  0.0614 -0.9036
  640SOL     OW 1918   0.187   1.197   1.546 -0.1047  0.3208 -0.4237
  640SOL    HW1 1919   0.192   1.204   1.654  0.9312  0.7205  2.8818
  640SOL    HW2 1920   0.258   1.123   1.517  3.3708 -0.4560  2.5209
  641SOL     OW 1921   1.964   0.272   1.476 -0.1817 -0.0028 -0.8479
  641SOL    HW1 1922   1.892   0.294   1.546  0.8795 -0.4396  0.5235
  641SOL    HW2 1923   2.049   0.224   1.521  3.6462  0.9382 -0.7652
  642SOL     OW 1924   2.026   0.079   0.378 -0.2206  0.0824  0.3457
  642SOL    HW1 1925   2.127   0.063   0.384 -1.0614 -2.5217 -0.6208
  642SOL    HW2 1926   1.999   0.152   0.445 -0.2086  0.5336 -1.1348
  643SOL     OW 1927   2.911   1.846   2.156  0.5425 -0.2657 -0.2724
  643SOL    HW1 1928   2.847   1.779   2.111 -0.3729  2.0753 -0.0099
  643SOL    HW2 1929   2.899   1.939   2.110 -0.3062  1.2039  1.4586
  644SOL     OW 1930   2.292   2.431   1.237  0.0343  0.1490 -0.6544
  644SOL    HW1 1931   2.334   2.351   1.191 -0.2372  0.1000  0.8549
  644SOL    HW2 1932   2.254   2.413   1.331  2.5914 -0.4349  3.0201
  645SOL     OW 1933   0.596   0.825   1.250 -0.2261  0.0211  0.8745
  645SOL    HW1 1934   0.503   0.779   1.256 -3.0504 -0.0268  0.4091
  645SOL    HW2 1935   0.630   0.850   1.153 -0.0324  1.1854 -2.9197
  646SOL     OW 1936   1.500   1.818   2.047 -0.0390 -0.0720 -0.0137
  646SOL    HW1 1937   1.577   1.823   1.975  0.0879  1.4034  0.2523
  646SOL    HW2 1938   1.532   1.788   2.140  1.2126 -1.2990 -1.5458
  647SOL     OW 1939   0.843   1.098   0.650  0.5952 -0.0879 -0.6902
  647SOL    HW1 1940   0.925   1.137   0.706 -0.1531  0.1372 -0.9327
  647SOL    HW2 1941   0.796   1.015   0.694  2.9105 -0.0219  0.1831
  648SOL     OW 1942   0.149   0.265   0.293 -0.0470  0.4763 -0.2689
  648SOL    HW1 1943   0.140   0.176   0.237  0.0612 -0.1932 -0.4316
  648SOL    HW2 1944   0.133   0.344   0.232 -1.7840 -0.2579  0.2135
  649SOL     OW 1945   3.022   0.184   0.782  0.0386 -0.5156  0.4496
  649SOL    HW1 1946   3.107   0.126   0.782 -1.7205  0.4893  1.1723
  649SOL    HW2 1947   3.041   0.279   0.818 -1.8301  0.3032 -0.4453
  650SOL     OW 1948   2.722   0.651   1.545 -0.1099 -0.4897  0.4316
  650SOL    HW1 1949   2.616   0.643   1.538 -1.6299  1.3227  2.0911
  650SOL    HW2 1950   2.766   0.743   1.550  1.4199  0.6862  1.5792
  651SOL     OW 1951   0.876   1.543   1.677  0.0436  0.0114  0.2103
  651SOL    HW1 1952   0.894   1.619   1.744 -0.8206  0.1629 -2.4066
  651SOL    HW2 1953   0.943   1.550   1.597  0.9534  1.0223 -0.7771
  652SOL     OW 1954   2.402   2.459   2.470 -0.1102 -0.8015  0.2988
  652SOL    HW1 1955   2.302   2.497   2.478 -0.9611  0.6813 -1.0233
  652SOL    HW2 1956   2.443   2.490   2.378  1.3112 -0.3474 -0.6446
  653SOL     OW 1957   2.737   1.243   0.181 -0.1243 -0.1158 -0.1293
  653SOL    HW1 1958   2.778   1.322   0.235  2.1209 -0.4770  0.0077
  653SOL    HW2 1959   2.787   1.156   0.210 -1.6012 -1.2709 -1.7262
  654SOL     OW 1960   1.270   2.184   1.296 -0.0926  0.8291  0.3294
  654SOL    HW1 1961   1.265   2.088   1.335  1.1220 -2.7692  0.8012
  654SOL    HW2 1962   1.276   2.180   1.190 -0.7282 -0.4977 -1.5948
  655SOL     OW 1963   0.182   0.953   1.884  0.2257 -0.4387 -0.0780
  655SOL    HW1 1964   0.239   0.907   1.814 -0.2589 -0.7872  0.6023
  655SOL    HW2 1965   0.215   1.052   1.898  4.0289 -0.9712 -2.7379
  656SOL     OW 1966   2.569   2.558   2.657 -0.0029 -0.7596  0.1902
  656SOL    HW1 1967   2.667   2.543   2.619 -1.6262  0.8594 -0.0074
  656SOL    HW2 1968   2.497   2.529   2.585 -0.1302 -0.7254 -0.2160
  657SOL     OW 1969   3.006   1.045   1.811 -0.1458 -0.9057 -0.6197
  657SOL    HW1 1970   2.981   1.116   1.882 -1.6912  0.3654  3.1838
  657SOL    HW2 1971   3.105   1.009   1.813 -1.2331 -1.3740 -1.3263
  658SOL     OW 1972   1.710   0.203   2.305 -0.0163  0.2915 -0.4420
  658SOL    HW1 1973   1.735   0.122   2.357  0.8982 -0.6107 -2.5415
  658SOL    HW2 1974   1.738   0.194   2.203  2.1490  2.0885  1.1011
  659SOL     OW 1975   1.403   0.637   2.758 -0.2657  0.1194  0.4003
  659SOL    HW1 1976   1.443   0.721   2.717 -2.9273 -2.6504  0.7388
  659SOL    HW2 1977   1.303   0.658   2.786 -1.8936  0.1820 -2.1053
  660SOL     OW 1978   1.440   0.349   1.410 -0.2283  0.7339  0.7641
  660SOL    HW1 1979   1.447   0.403   1.494 -2.6086  1.5168 -2.3493
  660SOL    HW2 1980   1.510   0.274   1.399 -0.2834 -1.8775 -2.7717
  661SOL     OW 1981   2.441   1.250   0.639 -0.1491  0.4223 -0.1760
  661SOL    HW1 1982   2.464   1.258   0.536 -1.0035 -1.3091 -1.3412
  661SOL    HW2 1983   2.350   1.282   0.664 -2.2848 -0.4632 -2.7788
  662SOL     OW 1984   1.439   0.432   1.712 -0.5444  0.0695 -0.0663
  662SOL    HW1 1985   1.365   0.368   1.746 -0.2187  0.1290  1.8291
  662SOL    HW2 1986   1.417   0.532   1.723  1.3201 -3.9113  2.3291
  663SOL     OW 1987   0.863   1.562   2.107  0.4415 -1.0938  0.5734
  663SOL    HW1 1988   0.789   1.627   2.147 -1.9622  1.0252  3.5173
  663SOL    HW2 1989   0.827   1.516   2.023 -0.5362  0.9975  0.9994
  664SOL     OW 1990   1.606   2.121   1.424  0.2628 -0.5034  0.2318
  664SOL    HW1 1991   1.522   2.064   1.449  2.0066 -1.3564 -0.7670
  664SOL    HW2 1992   1.691   2.078   1.457  1.4212  1.1071  0.3449
  665SOL     OW 1993   2.279   0.657   1.958  0.2292 -0.6107 -0.0055
  665SOL    HW1 1994   2.264   0.553   1.972  0.1341 -0.3454 -1.6826
  665SOL    HW2 1995   2.322   0.702   2.039 -0.6467  1.0769  1.4678
  666SOL     OW 1996   0.479   2.240   0.314 -0.1358 -0.0367  0.1781
  666SOL    HW1 1997   0.544   2.274   0.387 -1.2517  2.2656 -2.6952
  666SOL    HW2 1998   0.379   2.255   0.336 -0.5804  2.1070 -0.6414
  667SOL     OW 1999   1.913   0.227   1.030 -0.0913  0.1125 -0.0488
  667SOL    HW1 2000   1.958   0.319   1.041 -3.1237  1.5737  0.8128
  667SOL    HW2 2001   1.862   0.201   1.116  1.3987 -0.8033 -2.8809
  668SOL     OW 2002   1.989   0.522   1.132 -0.3104  0.2267  0.4682
  668SOL    HW1 2003   2.053   0.530   1.052  2.1637  0.7216 -3.5295
  668SOL    HW2 2004   2.049   0.501   1.217  0.9324 -0.7965  0.2259
  669SOL     OW 2005   3.022   2.180   1.015 -0.3053 -0.1670  0.4983
  669SOL    HW1 2006   3.002   2.198   0.919  0.5581  0.1880  2.4131
  669SOL    HW2 2007   2.985   2.245   1.086  2.0285  2.6738  0.7309
  670SOL     OW 2008   2.895   2.303   2.090 -0.1786  0.1248  0.3112
  670SOL    HW1 2009   2.806   2.292   2.152 -1.9880  2.0801 -1.9827
  670SOL    HW2 2010   2.905   2.397   2.046 -0.6236 -0.1078  0.4611
  671SOL     OW 2011   1.774   1.772   1.545  0.1252 -0.4299  0.0124
  671SOL    HW1 2012   1.814   1.757   1.451  0.9469  2.9120 -0.3657
  671SOL    HW2 2013   1.670   1.762   1.531  0.0723  1.7356 -0.2472
  672SOL     OW 2014   0.476   0.666   2.538  0.0660  0.4243 -0.3693
  672SOL    HW1 2015   0.394   0.702   2.487  0.6374  0.2601  0.4287
  672SOL    HW2 2016   0.449   0.601   2.618 -1.0386  0.2998 -0.8397
  673SOL     OW 2017   0.071   1.293   1.114 -0.1334 -0.9409  0.1109
  673SOL    HW1 2018   0.062   1.381   1.165 -1.2310 -0.8903 -1.3939
  673SOL    HW2 2019   0.168   1.263   1.096  3.5932  0.8873  1.0505
  674SOL     OW 2020   1.636   2.973   0.311 -0.0302  0.6167 -0.1687
  674SOL    HW1 2021   1.607   3.026   0.224 -1.0365  0.9161  2.0313
  674SOL    HW2 2022   1.721   2.911   0.295  1.1654 -1.3959 -2.8741
  675SOL     OW 2023   1.732   0.841   2.332  0.2341  0.2532 -0.4305
  675SOL    HW1 2024   1.833   0.846   2.314 -2.0803  1.1042 -0.2500
  675SOL    HW2 2025   1.685   0.761   2.285 -1.3482 -1.7929  1.3554
  676SOL     OW 2026   2.557   1.511   1.926  0.0911 -0.4649 -0.1542
  676SOL    HW1 2027   2.518   1.467   1.839 -2.4410 -3.4927 -1.5736
  676SOL    HW2 2028   2.555   1.453   2.013 -2.1448  4.4384 -0.3297
  677SOL     OW 2029   1.918   0.730   0.892  0.3185 -0.1613 -0.6674
  677SOL    HW1 2030   1.844   0.690   0.953  0.3555 -2.4378 -0.5214
  677SOL    HW2 2031   2.007   0.689   0.924  1.6188 -0.4085  2.3674
  678SOL     OW 2032   0.112   0.748   1.618 -0.3493  0.2577  0.2899
  678SOL    HW1 2033   0.211   0.736   1.656  1.6412  1.6500 -1.1497
  678SOL    HW2 2034   0.041   0.732   1.693  0.1606 -0.5785  1.1538
  679SOL     OW 2035   2.591   1.186   1.168 -0.7718  0.5794  0.3729
  679SOL    HW1 2036   2.501   1.242   1.161  0.7697  0.9885  0.0571
  679SOL    HW2 2037   2.580   1.092   1.129 -1.2711  0.1651 -0.7811
  680SOL     OW 2038   2.841   0.474   1.708 -0.4026  0.0929 -0.0592
  680SOL    HW1 2039   2.795   0.543   1.648 -0.9842 -2.7229  1.7300
  680SOL    HW2 2040   2.919   0.512   1.770 -0.6282  1.0276 -0.4482
  681SOL     OW 2041   2.984   0.066   1.606 -0.3953 -0.2352 -0.6058
  681SOL    HW1 2042   3.022   0.020   1.519 -2.2734  1.6338  1.0335
  681SOL    HW2 2043   2.895   0.115   1.590  3.1233  0.6198 -1.0421
  682SOL     OW 2044   0.659   0.053   1.344  0.0777  0.1620 -0.0547
  682SOL    HW1 2045   0.598  -0.028   1.366  0.6476  0.3057 -2.7642
  682SOL    HW2 2046   0.716   0.035   1.260  1.0420  3.2266 -1.0988
  683SOL     OW 2047   1.372   0.209   2.157  0.2864 -0.3061  0.0065
  683SOL    HW1 2048   1.383   0.247   2.252  0.8064  2.4956 -0.8638
  683SOL    HW2 2049   1.464   0.223   2.109  0.4660 -0.5840 -0.2296
  684SOL     OW 2050   1.456   2.117   0.545 -0.0378 -0.1560  0.0571
  684SOL    HW1 2051   1.504   2.057   0.614  2.5601 -0.6948 -0.3974
  684SOL    HW2 2052   1.370   2.066   0.510  1.2940 -0.2716  0.3964
  685SOL     OW 2053   2.224   2.065   1.967  0.0804  0.7058 -0.0907
  685SOL    HW1 2054   2.281   2.049   1.884  1.7574 -1.2527  2.2145
  685SOL    HW2 2055   2.272   2.061   2.059  1.5297  0.1904  2.5579
  686SOL     OW 2056   1.493   1.824   2.850 -0.6105 -0.3000 -0.5288
  686SOL    HW1 2057   1.534   1.779   2.932 -0.6848  1.7746 -0.7573
  686SOL    HW2 2058   1.396   1.791   2.831 -1.5072 -1.2148 -0.6021
  687SOL     OW 2059   1.322   2.398   1.974 -0.0865  0.5928 -0.2327
  687SOL    HW1 2060   1.322   2.292   1.983  0.3897 -0.7584 -0.1698
  687SOL    HW2 2061   1.411   2.440   2.000 -1.7090 -0.8271  1.9349
  688SOL     OW 2062   2.041   1.526   1.785 -0.2808  0.3130  0.1896
  688SOL    HW1 2063   2.115   1.589   1.749 -1.6341 -1.8774  0.0531
  688SOL    HW2 2064   1.994   1.473   1.713  0.5668  0.3560  1.4013
  689SOL     OW 2065   2.389   1.094   2.730 -0.0602 -0.4666  0.2245
  689SOL    HW1 2066   2.300   1.036   2.745  0.7685 -2.3759 -0.8296
  689SOL    HW2 2067   2.436   1.130   2.814  0.4839  0.2347 -0.6996
  690SOL     OW 2068   2.244   2.780   0.064 -0.2325  0.4895 -0.0804
  690SOL    HW1 2069   2.148   2.742   0.033  1.5691  0.6325  0.3807
  690SOL    HW2 2070   2.266   2.793   0.164  1.4705 -0.0178 -1.1746
  691SOL     OW 2071   2.593   0.405   2.096 -0.2678  0.1425 -0.1376
  691SOL    HW1 2072   2.652   0.325   2.123 -0.2394  2.0521 -1.6576
  691SOL    HW2 2073   2.648   0.488   2.067  0.8429 -1.4461 -4.6895
  692SOL     OW 2074   2.635   1.205   0.818  0.4263 -0.3328  0.1563
  692SOL    HW1 2075   2.553   1.230   0.759 -0.0266  0.0531 -0.5134
  692SOL    HW2 2076   2.677   1.286   0.870 -0.2129  2.0143  0.5768
  693SOL     OW 2077   2.859   2.995   0.578  0.2052  0.5115 -0.0183
  693SOL    HW1 2078   2.845   3.058   0.661 -1.2224  0.0881  0.1291
  693SOL    HW2 2079   2.848   3.050   0.488  0.5055  1.1136  0.4346
  694SOL     OW 2080   2.447   2.199   0.142 -0.4684 -0.5231 -0.3551
  694SOL    HW1 2081   2.453   2.302   0.169  2.0751  1.1076 -0.3215
  694SOL    HW2 2082   2.362   2.178   0.085  0.5778 -0.4196 -0.3463
  695SOL     OW 2083   0.485   2.952   1.432 -0.4707 -0.0212 -0.0506
  695SOL    HW1 2084   0.412   2.888   1.399 -0.3544 -1.0764 -0.2112
  695SOL    HW2 2085   0.471   2.975   1.532 -0.6983  0.8868  1.3972
  696SOL     OW 2086   2.849   2.055   0.740  0.3600  0.5019 -0.2785
  696SOL    HW1 2087   2.899   1.969   0.771 -0.7368 -0.5957  0.7301
  696SOL    HW2 2088   2.844   2.060   0.635  0.9939  0.6280  1.4215
  697SOL     OW 2089   1.652   1.879   1.821 -0.3631  0.0644 -0.2712
  697SOL    HW1 2090   1.744   1.836   1.836 -1.6437  1.3882 -1.5934
  697SOL    HW2 2091   1.667   1.977   1.792  2.3100  0.6409  0.2481
  698SOL     OW 2092   2.889   0.434   2.757 -0.8343  0.5835 -0.0879
  698SOL    HW1 2093   2.901   0.398   2.654 -3.3424 -1.0482 -3.1511
  698SOL    HW2 2094   2.946   0.379   2.827  0.4283 -2.1629  0.4238
  699SOL     OW 2095   1.553   0.055   2.923 -0.1776 -0.1101  0.4405
  699SOL    HW1 2096   1.518  -0.039   2.889  0.7644 -2.2385  0.0144
  699SOL    HW2 2097   1.610   0.111   2.854 -0.3825 -0.4628 -0.6846
  700SOL     OW 2098   0.997   2.249   1.395  0.1812  0.6344  1.0068
  700SOL    HW1 2099   1.063   2.167   1.390  2.8259 -2.4428  2.9524
  700SOL    HW2 2100   0.906   2.233   1.352 -0.8605  2.3035  1.0045
  701SOL     OW 2101   1.918   2.868   0.002  0.3023  0.3632 -0.5054
  701SOL    HW1 2102   1.879   2.824   0.087 -0.9570  3.5833 -0.2980
  701SOL    HW2 2103   1.956   2.963   0.026 -0.2619 -0.9179  4.6988
  702SOL     OW 2104   2.073   1.307   1.954 -0.4883 -0.4381 -0.0525
  702SOL    HW1 2105   2.172   1.279   1.977  0.3229  0.7641 -0.6885
  702SOL    HW2 2106   2.060   1.401   1.910 -0.0213 -0.2133  1.2312
  703SOL     OW 2107   1.943   0.913   1.485  0.4020  0.1153 -0.1412
  703SOL    HW1 2108   1.920   0.829   1.547 -0.4685  0.3502 -0.9764
  703SOL    HW2 2109   2.042   0.943   1.501  1.0932 -1.4211  3.4668
  704SOL     OW 2110   0.294   2.024   1.686 -0.3252  0.1337 -0.4148
  704SOL    HW1 2111   0.318   1.981   1.774 -0.6829 -2.1871 -3.3627
  704SOL    HW2 2112   0.354   2.111   1.667  1.5533  1.3750 -0.0612
  705SOL     OW 2113   2.464   1.507   0.864 -0.0714  0.4198 -0.4837
  705SOL    HW1 2114   2.419   1.445   0.792 -3.6492  1.4379  0.1689
  705SOL    HW2 2115   2.558   1.480   0.894 -1.4430 -1.6039 -1.9514
  706SOL     OW 2116   0.689   1.703   1.839  0.2814 -0.3518 -0.0916
  706SOL    HW1 2117   0.672   1.596   1.847  1.8271 -1.8764  0.4405
  706SOL    HW2 2118   0.741   1.741   1.916  3.1208  2.2961  0.4876
  707SOL     OW 2119   2.339   1.204   1.981 -0.1812  0.2662  0.0668
  707SOL    HW1 2120   2.426   1.199   2.036 -0.6817 -1.8652  1.8981
  707SOL    HW2 2121   2.318   1.113   1.941  0.7240  0.9342  0.5032
  708SOL     OW 2122   3.015   0.533   3.030 -0.1248  0.0177  0.0010
  708SOL    HW1 2123   3.096   0.575   2.975 -1.8453  2.9955 -2.4150
  708SOL    HW2 2124   3.014   0.429   3.019 -2.2111  0.4170  3.5789
  709SOL     OW 2125   1.889   1.858   0.335  0.3336  0.5349  0.1678
  709SOL    HW1 2126   1.904   1.960   0.358  1.5331  1.8778 -0.2322
  709SOL    HW2 2127   1.887   1.838   0.234  0.5028 -0.2045  0.5044
  710SOL     OW 2128   1.766   1.627   2.473 -0.3614 -0.0586 -0.1637
  710SOL    HW1 2129   1.808   1.563   2.403 -2.2435 -1.2646  0.8156
  710SOL    HW2 2130   1.751   1.578   2.560  3.7992 -0.3519 -3.0805
  711SOL     OW 2131   2.596   2.933   0.969 -0.7816 -0.7034  0.3376
  711SOL    HW1 2132   2.559   3.030   0.967  0.1679  1.4887 -1.4085
  711SOL    HW2 2133   2.692   2.929   1.011  0.2163 -1.8462  0.3312
  712SOL     OW 2134   1.412   2.142   1.962  0.7369 -0.2464  0.0089
  712SOL    HW1 2135   1.504   2.192   1.975 -4.0712  1.3796 -0.6180
  712SOL    HW2 2136   1.402   2.101   1.865  0.5244  1.9382  0.4859
  713SOL     OW 2137   2.801   1.511   2.526  0.1754  0.1913 -0.1243
  713SOL    HW1 2138   2.809   1.407   2.509 -1.9448  1.7622 -0.0350
  713SOL    HW2 2139   2.705   1.534   2.562  0.1690 -2.3487 -0.0001
  714SOL     OW 2140   2.613   0.445   2.376 -0.5364 -0.7607  0.1640
  714SOL    HW1 2141   2.554   0.396   2.440  1.4243  3.3703 -0.8715
  714SOL    HW2 2142   2.585   0.437   2.274 -1.7760 -1.3913  1.5495
  715SOL     OW 2143   1.576   2.145   1.139 -0.0418 -0.5540 -0.4319
  715SOL    HW1 2144   1.476   2.154   1.122  0.7338 -1.6815  0.0802
  715SOL    HW2 2145   1.603   2.144   1.244 -1.0647  0.8119  0.7143
  716SOL     OW 2146   1.230   0.155   1.478 -0.3164  0.1812 -0.2816
  716SOL    HW1 2147   1.129   0.159   1.461 -4.5749 -0.3740 -0.2773
  716SOL    HW2 2148   1.274   0.239   1.446  1.3681 -0.5942 -2.1708
  717SOL     OW 2149   1.163   0.545   1.588 -0.2702 -0.2280 -0.1163
  717SOL    HW1 2150   1.244   0.607   1.606  2.7973 -2.5939 -1.4512
  717SOL    HW2 2151   1.173   0.500   1.492 -1.4005  1.9491  0.3116
  718SOL     OW 2152   0.654   0.895   0.951  0.5930 -0.3857 -0.2158
  718SOL    HW1 2153   0.647   0.892   0.845  0.0485 -0.6993  0.5881
  718SOL    HW2 2154   0.663   0.998   0.977 -0.3503  2.8792 -0.5597
  719SOL     OW 2155   0.602   1.740   2.284  0.0065 -0.2096 -0.2327
  719SOL    HW1 2156   0.682   1.763   2.351  0.3122  1.6956  1.1192
  719SOL    HW2 2157   0.571   1.646   2.281 -2.5346  2.1147  0.4648
  720SOL     OW 2158   2.218   1.128   0.293 -0.0929 -0.0799 -0.3418
  720SOL    HW1 2159   2.244   1.069   0.216  1.8795  2.0664  0.3616
  720SOL    HW2 2160   2.251   1.093   0.385 -0.8049 -1.8434  1.1543
  721SOL     OW 2161   2.248   2.996   2.051 -0.2791 -0.2438  0.0393
  721SOL    HW1 2162   2.215   3.017   1.954  2.5251  2.3005 -3.3846
  721SOL    HW2 2163   2.208   3.048   2.127  4.1442  0.0417 -0.0995
  722SOL     OW 2164   2.350   1.644   0.482 -0.5541  0.1503 -0.0374
  722SOL    HW1 2165   2.416   1.651   0.399  1.8385 -1.2570  2.1148
  722SOL    HW2 2166   2.248   1.640   0.455  1.1366  0.1845 -1.1266
  723SOL     OW 2167   2.646   2.711   1.922  0.2642 -0.1108 -0.1112
  723SOL    HW1 2168   2.712   2.791   1.930 -1.5969 -0.9163 -2.8678
  723SOL    HW2 2169   2.553   2.741   1.957  2.5201  1.1504 -1.6682
  724SOL     OW 2170   0.471   2.502   2.411  0.0243 -0.0524  0.1730
  724SOL    HW1 2171   0.375   2.494   2.451  2.0983 -1.8944 -2.4929
  724SOL    HW2 2172   0.544   2.480   2.484  0.8278  1.9379  1.0432
  725SOL     OW 2173   2.370   2.741   1.571 -0.2147 -0.8013 -0.1135
  725SOL    HW1 2174   2.448   2.769   1.509  1.8449 -0.3951  2.0379
  725SOL    HW2 2175   2.332   2.647   1.570  1.4673 -0.3889  1.8072
  726SOL     OW 2176   2.476   2.318   0.693 -0.8325  1.0399  0.1845
  726SOL    HW1 2177   2.470   2.404   0.636 -1.5248 -0.3170  0.6888
  726SOL    HW2 2178   2.464   2.224   0.635  1.1828 -3.7008 -0.1923
  727SOL     OW 2179   0.099   3.094   0.151  0.4984 -0.6649 -0.4643
  727SOL    HW1 2180   0.178   3.085   0.086 -1.0308 -1.9715  1.0228
  727SOL    HW2 2181   0.009   3.097   0.094 -0.8856  2.5413 -0.9970
  728SOL     OW 2182   2.901   0.708   0.915 -0.3924 -0.0044  0.4413
  728SOL    HW1 2183   2.857   0.684   0.821 -3.1171  0.2419  1.3806
  728SOL    HW2 2184   2.845   0.660   0.992 -1.7995  0.3922  2.3698
  729SOL     OW 2185   0.032   2.534   0.738 -0.3007  0.5431 -0.1732
  729SOL    HW1 2186   0.069   2.470   0.810  3.5249 -0.3237 -2.8603
  729SOL    HW2 2187   0.115   2.568   0.678  1.0290 -2.1693 -0.8972
  730SOL     OW 2188   2.542   0.666   0.851 -0.7439  0.2154 -0.3703
  730SOL    HW1 2189   2.562   0.771   0.844  1.9115  1.1941 -0.5427
  730SOL    HW2 2190   2.603   0.610   0.790 -0.0238  3.0102 -0.6468
  731SOL     OW 2191   3.080   2.186   2.401  0.2060  0.0278  0.5482
  731SOL    HW1 2192   3.101   2.219   2.498  0.0250  1.3774  2.0968
  731SOL    HW2 2193   2.994   2.228   2.366  0.6050  1.1509  1.1474
  732SOL     OW 2194   1.189   2.787   2.034 -0.8300  0.5549 -0.1607
  732SOL    HW1 2195   1.225   2.728   2.113 -0.9007  0.4229 -0.8513
  732SOL    HW2 2196   1.159   2.732   1.951  0.7253  1.3997  0.8931
  733SOL     OW 2197   0.007   0.577   2.255 -0.4475  0.4663  0.2120
  733SOL    HW1 2198   0.088   0.626   2.215 -2.3924  0.0914  0.3350
  733SOL    HW2 2199  -0.030   0.507   2.192  0.1507  1.1941  0.0603
  734SOL     OW 2200   1.458   0.377   2.674  0.2203  0.0808  0.0492
  734SOL    HW1 2201   1.430   0.477   2.679 -0.6122  1.2593  0.7090
  734SOL    HW2 2202   1.401   0.322   2.739  0.1416 -0.6960  1.3508
  735SOL     OW 2203   2.870   2.609   2.281  0.4120 -0.0418 -0.5043
  735SOL    HW1 2204   2.849   2.581   2.183 -0.3844  1.5455  1.0280
  735SOL    HW2 2205   2.959   2.672   2.286  1.4618  2.6511  2.6144
  736SOL     OW 2206   0.918   0.437   2.514  0.0793 -0.3024  0.0850
  736SOL    HW1 2207   0.824   0.479   2.504  0.0205  2.2279  1.2016
  736SOL    HW2 2208   0.930   0.358   2.453  1.3875  1.2756  0.3319
  737SOL     OW 2209   2.612   0.451   2.815  0.5841  0.3882 -0.1148
  737SOL    HW1 2210   2.596   0.455   2.920 -1.6846  2.3429  1.5873
  737SOL    HW2 2211   2.708   0.468   2.787 -0.5969  1.3110 -1.3701
  738SOL     OW 2212   1.713   1.288   2.883  0.1086 -0.0137  0.2438
  738SOL    HW1 2213   1.805   1.249   2.907 -1.4441  2.8118  0.1269
  738SOL    HW2 2214   1.649   1.209   2.860  0.8179  1.2600  1.4906
  739SOL     OW 2215   1.783   0.689   0.651 -0.0181  0.3341  0.3627
  739SOL    HW1 2216   1.834   0.699   0.744 -0.4128  1.6797  0.3161
  739SOL    HW2 2217   1.814   0.601   0.601  3.6700 -0.2023 -0.7410
  740SOL     OW 2218   1.940   1.929   2.374  0.0794  0.4075  0.0802
  740SOL    HW1 2219   2.018   1.866   2.382 -0.3321  2.7897 -3.2839
  740SOL    HW2 2220   1.876   1.916   2.290 -0.1890  0.0952 -2.3111
  741SOL     OW 2221   2.567   0.066   2.457  0.8773  0.6693 -0.0989
  741SOL    HW1 2222   2.670   0.070   2.440  2.5298  1.2483 -0.1579
  741SOL    HW2 2223   2.516   0.094   2.371  1.8004 -2.9104 -0.1927
  742SOL     OW 2224   2.194   1.372   0.149 -0.0646  0.5355 -0.2252
  742SOL    HW1 2225   2.093   1.397   0.120 -2.0447 -2.0619 -1.4676
  742SOL    HW2 2226   2.194   1.272   0.192  0.8831 -4.4214 -1.1074
  743SOL     OW 2227   1.774   0.628   2.616 -0.2008  0.6092  0.1937
  743SOL    HW1 2228   1.753   0.546   2.558  0.1664 -0.2794 -0.4092
  743SOL    HW2 2229   1.700   0.692   2.605 -0.2448  0.3003 -0.0834
  744SOL     OW 2230   2.672   2.082   0.044  0.5834 -0.7572 -0.2084
  744SOL    HW1 2231   2.583   2.113   0.094  1.0430 -1.4074  2.4662
  744SOL    HW2 2232   2.673   1.989   0.001 -0.2638 -3.7973 -2.8990
  745SOL     OW 2233   2.216   2.638   2.181 -0.2595  0.6013 -0.7375
  745SOL    HW1 2234   2.114   2.630   2.194 -2.2317  1.1548  2.2261
  745SOL    HW2 2235   2.259   2.686   2.261  0.2894  0.5132  0.0810
  746SOL     OW 2236   0.051   2.649   1.738 -0.0443  0.5463 -0.2303
  746SOL    HW1 2237   0.142   2.606   1.720  0.0498 -0.7938  0.5915
  746SOL    HW2 2238   0.056   2.694   1.832 -2.5613 -1.8586 -0.0919
  747SOL     OW 2239   0.052   1.808   1.658 -0.0993  0.1820 -0.4493
  747SOL    HW1 2240  -0.036   1.750   1.639  0.1756  0.6823  0.8901
  747SOL    HW2 2241   0.108   1.822   1.574 -1.7732  1.3651  3.6939
  748SOL     OW 2242   1.812   2.733   2.870  0.2036  0.1897  0.0600
  748SOL    HW1 2243   1.845   2.799   2.940  0.8862 -2.7846 -2.6202
  748SOL    HW2 2244   1.710   2.719   2.866  0.1530 -0.2463  2.5495
  749SOL     OW 2245   1.378   3.045   0.872  0.0560  0.3736 -0.2447
  749SOL    HW1 2246   1.291   3.039   0.806 -1.1327 -2.2796 -1.7543
  749SOL    HW2 2247   1.450   2.988   0.835 -2.5791  0.8897  0.6941
  750SOL     OW 2248   2.272   0.186   1.830  0.8160  0.5551  0.0619
  750SOL    HW1 2249   2.297   0.251   1.745  1.3990  1.5796 -1.2507
  750SOL    HW2 2250   2.269   0.238   1.922 -1.1374  0.8564  3.0671
  751SOL     OW 2251   0.759   2.132   2.894  1.2234 -0.3893  0.2024
  751SOL    HW1 2252   0.835   2.116   2.959 -3.1327  1.0469  0.7085
  751SOL    HW2 2253   0.667   2.099   2.932 -0.0250  1.1886 -2.0993
  752SOL     OW 2254   1.315   0.828   1.278  0.4891  0.3392  0.3568
  752SOL    HW1 2255   1.379   0.908   1.268  1.1913 -2.6056 -2.5419
  752SOL    HW2 2256   1.366   0.742   1.311 -0.1978  0.9351  2.1505
  753SOL     OW 2257   0.909   2.540   1.803 -0.5107  0.6484 -0.0116
  753SOL    HW1 2258   1.008   2.575   1.790  1.1724 -0.0025  2.0836
  753SOL    HW2 2259   0.843   2.621   1.819 -0.1975  1.7619  1.0258
  754SOL     OW 2260   1.113   1.228   3.042 -0.6163 -0.1422 -0.0731
  754SOL    HW1 2261   1.176   1.157   3.001  1.8331  0.0229  1.8059
  754SOL    HW2 2262   1.155   1.321   3.043 -1.6338  1.0354 -0.6590
  755SOL     OW 2263   1.979   0.438   2.210  0.1288  0.1843 -0.1883
  755SOL    HW1 2264   2.057   0.378   2.234 -2.3454  1.8603 -2.0656
  755SOL    HW2 2265   1.905   0.434   2.286 -0.4541  1.9733  2.8909
  756SOL     OW 2266   2.547   1.001   2.995  0.7510 -0.4270 -0.1364
  756SOL    HW1 2267   2.645   0.981   3.015 -3.1478 -0.4444  2.4617
  756SOL    HW2 2268   2.490   0.913   3.012  2.5582 -1.7842 -0.0933
  757SOL     OW 2269   0.108   0.467   1.994 -0.3144  1.1281 -0.4655
  757SOL    HW1 2270   0.174   0.392   1.951  1.7705 -3.4211  0.2018
  757SOL    HW2 2271   0.015   0.433   2.017  2.6447  1.3748 -0.1843
  758SOL     OW 2272   2.208   0.099   1.492  0.3736 -0.0547  0.0551
  758SOL    HW1 2273   2.192  -0.001   1.523 -0.8872 -1.0792 -1.9505
  758SOL    HW2 2274   2.261   0.111   1.406  0.4348 -0.3878  0.0471
  759SOL     OW 2275   1.698   0.061   0.064  0.2786  0.5583 -0.0992
  759SOL    HW1 2276   1.653   0.057  -0.030  0.9077 -0.2098  2.2132
  759SOL    HW2 2277   1.800   0.050   0.066 -0.8900 -1.1515 -0.6643
  760SOL     OW 2278   2.629   2.024   2.822 -1.0333  0.6442 -0.3254
  760SOL    HW1 2279   2.644   1.950   2.892  0.7427  0.8233 -0.7043
  760SOL    HW2 2280   2.630   2.116   2.870 -1.7823 -0.2736  0.7439
  761SOL     OW 2281   1.927   1.791   1.782  0.0045  0.0452 -0.0913
  761SOL    HW1 2282   1.966   1.698   1.801 -3.6532 -0.4750 -0.0179
  761SOL    HW2 2283   1.871   1.786   1.691  2.0395  2.0309 -0.6128
  762SOL     OW 2284   0.478   2.367   0.963  0.0340 -0.3910 -0.3398
  762SOL    HW1 2285   0.520   2.370   0.870  0.1688 -1.8687 -2.1160
  762SOL    HW2 2286   0.545   2.398   1.037  0.4836 -0.0300  1.1450
  763SOL     OW 2287   2.073   1.547   2.961  0.5307  0.2943 -0.0821
  763SOL    HW1 2288   2.166   1.496   2.961 -2.0468  0.7043  3.7833
  763SOL    HW2 2289   2.001   1.489   3.013  1.0060 -1.9533 -0.0998
  764SOL     OW 2290   0.692   0.608   0.716 -0.3964 -0.3292  0.0783
  764SOL    HW1 2291   0.605   0.550   0.706  2.7786 -0.7102  0.1430
  764SOL    HW2 2292   0.751   0.575   0.790  0.7281  1.5823 -1.8735
  765SOL     OW 2293   0.805   0.284   0.751 -0.2885 -0.6473  0.5664
  765SOL    HW1 2294   0.847   0.305   0.653  2.6693 -1.3221 -1.9840
  765SOL    HW2 2295   0.814   0.362   0.806  0.5118 -1.7964 -0.0100
  766SOL     OW 2296   2.922   2.153   3.021 -0.5711 -0.0491 -0.2563
  766SOL    HW1 2297   2.839   2.116   3.073  0.6083  0.2888 -0.9643
  766SOL    HW2 2298   2.965   2.240   3.066  0.9489  0.4880 -0.0746
  767SOL     OW 2299   2.795   1.661   0.600  0.4198 -0.1467 -0.4056
  767SOL    HW1 2300   2.710   1.669   0.657  1.0631 -0.3280 -0.4107
  767SOL    HW2 2301   2.880   1.684   0.659 -2.0268  4.4734 -0.4370
  768SOL     OW 2302   1.073   0.148   0.240 -0.8657 -0.2366  0.3226
  768SOL    HW1 2303   1.027   0.174   0.329  0.4671  1.4489 -2.4300
  768SOL    HW2 2304   1.173   0.123   0.246 -3.1137  0.7167  1.4871
  769SOL     OW 2305   1.127   1.828   2.314  0.2669  0.2016  0.2546
  769SOL    HW1 2306   1.030   1.846   2.338 -1.3926 -0.6940  1.0648
  769SOL    HW2 2307   1.179   1.792   2.397  0.3981  2.0202 -0.3610
  770SOL     OW 2308   0.160   1.123   2.303 -0.0258  0.0834  0.0062
  770SOL    HW1 2309   0.203   1.181   2.374 -1.3286 -1.9885  2.5054
  770SOL    HW2 2310   0.057   1.136   2.299 -0.9982  0.2686 -1.3516
  771SOL     OW 2311   3.064   2.823   1.942  0.4549 -0.1530 -0.3739
  771SOL    HW1 2312   2.987   2.842   1.871 -2.6825  0.3504  1.3734
  771SOL    HW2 2313   3.037   2.870   2.035 -2.1791 -0.7539 -1.3816
  772SOL     OW 2314   2.311   0.215   2.834 -0.2021 -0.1000  0.0653
  772SOL    HW1 2315   2.380   0.148   2.794 -1.3779  0.7925  0.7720
  772SOL    HW2 2316   2.328   0.242   2.936 -0.4282 -1.2835  0.7023
  773SOL     OW 2317   0.606   2.112   2.392  0.0035 -0.0888  0.2081
  773SOL    HW1 2318   0.589   2.182   2.320 -0.6979 -0.8748  0.7981
  773SOL    HW2 2319   0.522   2.066   2.434 -0.9258  2.9854 -2.0220
  774SOL     OW 2320   2.109   0.009   2.589  0.2598  0.0974  0.5031
  774SOL    HW1 2321   2.094   0.092   2.647 -1.6847 -1.0294 -0.7766
  774SOL    HW2 2322   2.154  -0.064   2.645  2.6930 -0.3035  0.5684
  775SOL     OW 2323   2.580   2.962   2.226 -0.2898  0.2152 -0.3417
  775SOL    HW1 2324   2.526   3.050   2.246 -1.0475 -1.9323 -0.1468
  775SOL    HW2 2325   2.631   2.925   2.306  2.1610  5.6397  0.2487
  776SOL     OW 2326   3.093   1.248   0.160 -0.3761 -0.0479  0.2114
  776SOL    HW1 2327   3.043   1.191   0.090  0.0264 -0.6070 -0.2970
  776SOL    HW2 2328   3.057   1.221   0.257 -0.8933 -2.1284 -0.1062
  777SOL     OW 2329   0.442   2.939   0.425 -0.0879  0.1712  0.1012
  777SOL    HW1 2330   0.351   2.906   0.387  2.0831 -0.9464  0.4252
  777SOL    HW2 2331   0.518   2.873   0.408 -0.4430  1.9515 -1.9699
  778SOL     OW 2332   1.328   1.957   0.179  0.2648 -0.3027 -0.2250
  778SOL    HW1 2333   1.270   1.981   0.259  2.0108 -0.8679  0.4852
  778SOL    HW2 2334   1.354   2.040   0.122  0.8410 -0.8285 -2.1973
  779SOL     OW 2335   0.162   0.859   0.442  0.2300  0.7657  0.1948
  779SOL    HW1 2336   0.115   0.770   0.454 -0.8971  4.7937  1.8099
  779SOL    HW2 2337   0.136   0.930   0.519  1.4717  1.7746  3.5227
  780SOL     OW 2338   0.190   0.285   2.383 -0.2320  0.1742  0.6619
  780SOL    HW1 2339   0.146   0.368   2.425  0.0887  1.5911  0.1936
  780SOL    HW2 2340   0.271   0.312   2.326 -0.7997 -2.0015  2.6646
  781SOL     OW 2341   0.706   1.675   1.484 -0.0087 -0.6753  0.0083
  781SOL    HW1 2342   0.758   1.624   1.558  0.9671 -1.4045 -1.5748
  781SOL    HW2 2343   0.603   1.661   1.498  0.3804  0.1423  1.2081
  782SOL     OW 2344   2.563   0.111   0.946  0.6149  0.3856 -0.8131
  782SOL    HW1 2345   2.520   0.105   0.854  0.1672  3.0565  2.1699
  782SOL    HW2 2346   2.536   0.194   1.003  0.5431 -1.7860  0.7948
  783SOL     OW 2347   2.760   0.678   2.471  0.3141  0.0437 -0.3486
  783SOL    HW1 2348   2.726   0.682   2.566 -0.8626 -0.2054  2.7858
  783SOL    HW2 2349   2.743   0.588   2.426 -3.0836 -2.1782  1.5447
  784SOL     OW 2350   1.401   2.194   0.057  0.1320 -0.4042  0.6893
  784SOL    HW1 2351   1.416   2.280   0.112 -1.3941 -3.8478  1.8469
  784SOL    HW2 2352   1.375   2.217  -0.041 -0.4794  3.6725 -2.6497
  785SOL     OW 2353   2.042   0.323   3.064 -0.3909 -0.0819  0.0433
  785SOL    HW1 2354   1.985   0.332   3.150  0.5435  2.7286  1.2737
  785SOL    HW2 2355   2.076   0.415   3.025 -3.1055  0.3878  2.3974
  786SOL     OW 2356   2.032   2.169   2.248  0.4957 -0.0331 -0.2939
  786SOL    HW1 2357   1.987   2.077   2.288 -0.6340 -4.0256  2.2645
  786SOL    HW2 2358   2.132   2.164   2.221 -0.7145 -2.6538  0.0806
  787SOL     OW 2359   1.354   0.520   0.924 -0.3386  0.2020 -0.2655
  787SOL    HW1 2360   1.297   0.612   0.929 -2.3420  0.7173  0.3721
  787SOL    HW2 2361   1.422   0.521   0.843  0.1482  2.1834  3.5868
  788SOL     OW 2362   1.212   0.424   0.055  0.4493 -0.3787  0.1583
  788SOL    HW1 2363   1.119   0.399   0.007  0.7370  1.9323  1.7148
  788SOL    HW2 2364   1.207   0.506   0.123  1.2565  0.0262 -2.0895
  789SOL     OW 2365   2.531   0.086   1.976  0.2885 -0.9351 -0.8942
  789SOL    HW1 2366   2.495   0.095   1.886  4.1894 -0.6115  0.5735
  789SOL    HW2 2367   2.617   0.022   1.981  0.8277  0.6080  4.3644
  790SOL     OW 2368   2.660   2.745   0.766 -0.1042  0.2270  0.6048
  790SOL    HW1 2369   2.696   2.816   0.696 -1.6940  0.8279  0.7763
  790SOL    HW2 2370   2.609   2.799   0.834 -0.4245  0.5259 -0.7845
  791SOL     OW 2371   1.930   1.219   0.290  0.0644 -0.5778 -0.1555
  791SOL    HW1 2372   1.853   1.161   0.325  4.0562  1.6471  1.0265
  791SOL    HW2 2373   2.023   1.180   0.313 -0.9592  0.3850 -1.2950
  792SOL     OW 2374   0.370   1.739   2.119 -0.1282  0.1079  0.3631
  792SOL    HW1 2375   0.418   1.761   2.207 -0.5362 -1.2957  0.7554
  792SOL    HW2 2376   0.270   1.751   2.124 -0.5530  2.7048  1.2780
  793SOL     OW 2377   2.098   1.560   2.101 -0.4118 -0.7911 -0.6017
  793SOL    HW1 2378   2.179   1.614   2.061  2.7869  0.8237  3.4006
  793SOL    HW2 2379   2.100   1.457   2.088  0.7306 -0.5849 -0.8281
  794SOL     OW 2380   0.566   1.451   2.336  0.3308 -0.1816  0.4846
  794SOL    HW1 2381   0.532   1.434   2.237  0.3632  1.8821 -0.7032
  794SOL    HW2 2382   0.498   1.502   2.400 -0.6889  1.8553 -1.4403
  795SOL     OW 2383   2.540   2.275   1.828  0.0121 -0.4456  0.3019
  795SOL    HW1 2384   2.539   2.267   1.929  2.5480 -1.4562  2.0282
  795SOL    HW2 2385   2.472   2.210   1.780 -4.2728 -0.5378  0.4563
  796SOL     OW 2386   0.009   1.108   2.681 -0.6228  0.0087  0.2893
  796SOL    HW1 2387  -0.093   1.094   2.674  0.7508  0.4966  2.1936
  796SOL    HW2 2388   0.050   1.122   2.775 -1.2939  1.4240 -0.5858
  797SOL     OW 2389   0.784   0.668   1.417 -0.1921  0.0545 -0.1667
  797SOL    HW1 2390   0.863   0.711   1.474  0.0595 -0.4298 -0.0769
  797SOL    HW2 2391   0.744   0.740   1.350 -1.1006  1.1365  0.4105
  798SOL     OW 2392   1.319   0.386   1.152  0.6447 -0.0321  0.5392
  798SOL    HW1 2393   1.380   0.378   1.233  0.1827  0.6664 -1.8994
  798SOL    HW2 2394   1.352   0.465   1.084 -0.1836  1.2675 -0.7899
  799SOL     OW 2395   1.993   2.708   0.973 -0.2334  0.1791  0.2599
  799SOL    HW1 2396   1.920   2.684   1.037  0.2217  3.0484 -0.4687
  799SOL    HW2 2397   1.972   2.675   0.879  0.4319 -0.0962 -1.1943
  800SOL     OW 2398   3.039   0.635   1.819  0.0832 -1.1293 -0.5671
  800SOL    HW1 2399   3.015   0.726   1.864  0.3070 -0.0212  0.6467
  800SOL    HW2 2400   3.100   0.573   1.878  5.5478  0.6096 -0.6226
  801SOL     OW 2401   1.950   2.253   0.080  0.3376 -0.2854  0.0711
  801SOL    HW1 2402   1.870   2.207   0.032  2.1797 -2.4868 -0.2018
  801SOL    HW2 2403   2.032   2.189   0.075 -0.0761  1.3437 -1.3325
  802SOL     OW 2404   0.728   0.810   2.560 -0.0486 -0.0492 -0.1494
  802SOL    HW1 2405   0.796   0.797   2.480 -2.0430  1.3583  0.1053
  802SOL    HW2 2406   0.628   0.802   2.533 -2.2989  0.3756 -1.7738
  803SOL     OW 2407   0.947   0.098   0.896  0.2034  0.0155 -0.3937
  803SOL    HW1 2408   1.045   0.136   0.904  1.2232 -0.9959 -0.1192
  803SOL    HW2 2409   0.885   0.166   0.839 -0.9542 -0.0027 -0.1659
  804SOL     OW 2410   0.286   0.048   2.165  0.2448 -0.3731  0.0980
  804SOL    HW1 2411   0.326   0.142   2.146 -2.1555 -0.7481  1.8912
  804SOL    HW2 2412   0.273  -0.010   2.077 -4.6538  1.8973  0.8435
  805SOL     OW 2413   2.440   0.249   0.270  0.7373  0.2493  0.8781
  805SOL    HW1 2414   2.530   0.285   0.297 -1.0322 -0.3055 -0.0587
  805SOL    HW2 2415   2.423   0.242   0.171  0.5447 -1.6394  4.0752
  806SOL     OW 2416   0.657   2.408   1.680 -0.1592  0.3124 -0.3237
  806SOL    HW1 2417   0.659   2.506   1.712  0.8749 -0.8520  1.2362
  806SOL    HW2 2418   0.750   2.362   1.666 -1.4193  0.0995  0.8963
  807SOL     OW 2419   2.381   0.970   0.462 -0.4989 -0.5458 -0.5444
  807SOL    HW1 2420   2.466   0.944   0.517 -2.7312 -1.9101  1.5217
  807SOL    HW2 2421   2.409   0.991   0.368 -0.7380  1.3420  4.1094
  808SOL     OW 2422   0.546   2.010   2.985  0.0487  0.4399  0.3603
  808SOL    HW1 2423   0.592   2.023   3.081 -1.6884 -0.1831  3.7738
  808SOL    HW2 2424   0.563   1.913   2.946  0.9623  0.4516  2.7454
  809SOL     OW 2425   2.596   1.979   1.960 -0.0964 -0.0741 -0.8853
  809SOL    HW1 2426   2.693   2.018   1.970  0.6399 -0.6150  2.8124
  809SOL    HW2 2427   2.562   1.979   1.860  1.1837  2.2988 -0.1720
  810SOL     OW 2428   2.092   1.061   0.562  0.2927 -0.6822  0.6219
  810SOL    HW1 2429   2.145   1.005   0.631 -0.3039 -2.2319  4.3238
  810SOL    HW2 2430   2.039   1.137   0.602  1.5198 -0.1607  0.7768
  811SOL     OW 2431   1.351   2.461   1.316 -0.0978  0.0592  0.4170
  811SOL    HW1 2432   1.355   2.358   1.329  0.4384  0.0562 -0.7465
  811SOL    HW2 2433   1.258   2.500   1.307 -0.7729  0.0928 -1.2177
  812SOL     OW 2434   1.469   0.798   1.953  0.2381  0.5484  0.3088
  812SOL    HW1 2435   1.544   0.837   2.014  1.3973 -1.7466  0.8732
  812SOL    HW2 2436   1.375   0.840   1.966 -0.5870 -0.6787 -2.0012
  813SOL     OW 2437   1.729   2.171   2.442 -0.2116 -0.8768  0.1094
  813SOL    HW1 2438   1.807   2.110   2.462  3.1300 -0.2084 -0.7315
  813SOL    HW2 2439   1.663   2.127   2.377 -0.6772  0.2730  1.1335
  814SOL     OW 2440   2.861   1.538   2.880  0.1131  0.7983 -0.9763
  814SOL    HW1 2441   2.961   1.527   2.896  1.2553  2.6073  2.2998
  814SOL    HW2 2442   2.841   1.620   2.821 -0.9562  2.3779 -1.8785
  815SOL     OW 2443   2.268   2.837   2.709 -0.1021 -0.5173  0.9215
  815SOL    HW1 2444   2.270   2.792   2.799 -0.3844  2.1750  0.2377
  815SOL    HW2 2445   2.345   2.813   2.649 -0.7402 -0.1618 -2.8344
  816SOL     OW 2446   1.677   0.297   1.584 -0.3844 -0.5824 -0.3089
  816SOL    HW1 2447   1.702   0.205   1.620 -0.4711  1.9870 -1.0017
  816SOL    HW2 2448   1.610   0.345   1.647 -0.6374  0.3476 -1.2342
  817SOL     OW 2449   0.445   1.257   2.495 -0.2903  0.0824  0.4309
  817SOL    HW1 2450   0.376   1.329   2.519 -0.7629 -0.9197  1.8974
  817SOL    HW2 2451   0.516   1.292   2.424  1.3542  0.5017 -0.4165
  818SOL     OW 2452   1.960   0.835   0.447 -0.1123 -0.0106  0.8833
  818SOL    HW1 2453   2.001   0.918   0.488  0.9711 -0.4847 -2.7418
  818SOL    HW2 2454   1.925   0.773   0.523  0.5602 -0.1181  1.2619
  819SOL     OW 2455   2.789   2.888   3.021  0.2209  0.0918 -0.2507
  819SOL    HW1 2456   2.864   2.831   2.979  1.0182  0.0278 -1.4215
  819SOL    HW2 2457   2.705   2.885   2.965  1.0849 -0.9893  1.5865
  820SOL     OW 2458   1.245   1.117   0.535 -0.1914 -0.1534 -0.0194
  820SOL    HW1 2459   1.210   1.211   0.553 -0.6721 -0.4664  0.7361
  820SOL    HW2 2460   1.253   1.056   0.617  2.2554 -1.0351  4.2962
  821SOL     OW 2461   0.005   1.271   0.665  0.6502 -0.0332 -0.1126
  821SOL    HW1 2462  -0.047   1.283   0.757  2.1094 -0.5182  1.1694
  821SOL    HW2 2463   0.076   1.348   0.651  2.4014  3.0374 -1.3488
  822SOL     OW 2464   2.528   1.751   2.413  0.2564 -0.1821 -0.2949
  822SOL    HW1 2465   2.530   1.836   2.475 -0.6917  1.5844  1.3817
  822SOL    HW2 2466   2.482   1.768   2.321 -0.1392  1.2241  0.6967
  823SOL     OW 2467   2.031   0.865   1.221  0.0736 -0.8212 -0.1171
  823SOL    HW1 2468   1.990   0.878   1.314  1.5269 -0.2223  0.4889
  823SOL    HW2 2469   1.964   0.861   1.142 -0.7973 -1.6216  0.0865
  824SOL     OW 2470   0.115   2.027   2.802  0.2977  0.5408  0.0327
  824SOL    HW1 2471   0.048   1.958   2.832  2.4461 -1.6624  0.5491
  824SOL    HW2 2472   0.183   1.987   2.738 -1.4853  0.5295  1.3469
  825SOL     OW 2473   1.284   1.079   0.235  0.2774  0.1339  0.0206
  825SOL    HW1 2474   1.330   1.170   0.252 -3.2770  2.7341  0.4492
  825SOL    HW2 2475   1.185   1.082   0.216  1.2233  1.6818  2.8897
  826SOL     OW 2476   1.941   0.639   1.599 -0.0997 -0.2089  0.0656
  826SOL    HW1 2477   1.993   0.565   1.649 -0.4439 -0.1979 -1.3966
  826SOL    HW2 2478   1.862   0.596   1.548 -0.5500 -0.8468  3.3114
  827SOL     OW 2479   0.731   1.418   0.291 -0.4773 -0.6038 -0.4393
  827SOL    HW1 2480   0.779   1.351   0.226  3.5997 -1.3408  1.0067
  827SOL    HW2 2481   0.678   1.375   0.371  0.3639 -0.6693  0.3653
  828SOL     OW 2482   2.508   0.090   1.588 -0.6829  0.1267  0.4779
  828SOL    HW1 2483   2.415   0.101   1.546  3.4110 -2.0395  0.2714
  828SOL    HW2 2484   2.504   0.003   1.651 -0.3985  2.1343  0.1284
  829SOL     OW 2485   2.814   2.502   2.967 -0.5481 -0.2554 -0.0573
  829SOL    HW1 2486   2.758   2.426   2.930  0.7392  0.2531  1.1178
  829SOL    HW2 2487   2.768   2.541   3.049  2.6359  1.5391 -1.4588
  830SOL     OW 2488   2.812   0.928   3.026  0.3785 -0.6168  0.2183
  830SOL    HW1 2489   2.868   1.010   3.055 -2.1410 -1.9053  2.4146
  830SOL    HW2 2490   2.838   0.842   3.070 -0.7632 -0.8804 -0.3428
  831SOL     OW 2491   0.015   0.636   0.379  0.2642  0.1446  0.1953
  831SOL    HW1 2492   0.012   0.559   0.447  0.0832 -1.7168  2.7714
  831SOL    HW2 2493   0.046   0.599   0.291 -3.5139 -2.6305  0.4782
  832SOL     OW 2494   1.843   0.728   0.008 -0.7486  0.1531 -0.0031
  832SOL    HW1 2495   1.770   0.797  -0.009 -0.6066  0.8404 -1.1718
  832SOL    HW2 2496   1.809   0.634  -0.020 -3.9343 -0.2237 -0.3345
  833SOL     OW 2497   2.419   2.113   0.533  0.6420 -0.7195 -0.2496
  833SOL    HW1 2498   2.335   2.106   0.479 -0.0026 -2.4004  1.5387
  833SOL    HW2 2499   2.490   2.042   0.514 -0.0725  1.8160  1.7543
  834SOL     OW 2500   0.165   0.196   0.576  0.3002 -0.1843 -0.6998
  834SOL    HW1 2501   0.221   0.108   0.605  0.8518 -1.3278  0.1062
  834SOL    HW2 2502   0.154   0.215   0.472  0.4299  0.0872  2.7874
  835SOL     OW 2503   2.372   1.519   1.153  0.5837  0.3372  0.4690
  835SOL    HW1 2504   2.468   1.563   1.171  2.1115  1.0103 -2.8974
  835SOL    HW2 2505   2.348   1.536   1.053  1.7875  0.6174  3.3633
  836SOL     OW 2506   1.575   0.816   2.572  0.2681  0.1920 -0.3092
  836SOL    HW1 2507   1.486   0.781   2.524 -0.7812  2.1871 -0.5969
  836SOL    HW2 2508   1.641   0.861   2.504  1.4000 -1.7493  0.3919
  837SOL     OW 2509   1.738   0.143   0.544  0.0732  0.3075  0.5070
  837SOL    HW1 2510   1.645   0.177   0.583 -0.5575  0.6044 -4.0014
  837SOL    HW2 2511   1.723   0.082   0.461  1.8585 -1.2530 -0.4189
  838SOL     OW 2512   1.188   1.566   2.728 -1.2979 -0.1079  0.3218
  838SOL    HW1 2513   1.189   1.516   2.817  0.5346 -0.0844 -0.9156
  838SOL    HW2 2514   1.115   1.517   2.673  1.3671 -2.3259 -0.6443
  839SOL     OW 2515   1.590   0.311   0.973 -0.1033  0.1492 -0.0425
  839SOL    HW1 2516   1.641   0.358   1.052 -1.8328  1.0362  0.6058
  839SOL    HW2 2517   1.529   0.237   1.014  0.6821 -0.1576 -2.1185
  840SOL     OW 2518   2.512   2.933   1.722 -0.4666  0.3292 -0.3529
  840SOL    HW1 2519   2.436   2.864   1.691 -3.8637 -2.0900  1.2231
  840SOL    HW2 2520   2.594   2.893   1.772 -1.3585  0.4825 -0.9924
  841SOL     OW 2521   1.600   0.812   3.057 -0.4469 -0.0286 -0.2579
  841SOL    HW1 2522   1.511   0.831   3.109 -1.7031 -0.4332 -0.4482
  841SOL    HW2 2523   1.603   0.846   2.956  0.9314 -1.0787  2.8066
  842SOL     OW 2524   0.822   1.474   0.905 -0.3011  0.2094  0.2227
  842SOL    HW1 2525   0.792   1.562   0.951 -0.4535  2.3754  0.6492
  842SOL    HW2 2526   0.741   1.412   0.883  0.1909 -1.0817 -0.8798
  843SOL     OW 2527   0.095   0.010   1.384 -0.0653 -0.4739  0.2479
  843SOL    HW1 2528   0.151   0.078   1.446  0.0531  0.3052 -1.8455
  843SOL    HW2 2529   0.081  -0.080   1.432 -1.5106 -1.6886 -2.8155
  844SOL     OW 2530   0.808   2.487   0.268 -0.1899 -0.5617 -0.3223
  844SOL    HW1 2531   0.764   2.441   0.349 -0.0480  1.0106 -0.9125
  844SOL    HW2 2532   0.738   2.557   0.234  2.2778 -0.1942  0.0983
  845SOL     OW 2533   1.655   2.886   1.302 -0.3492  0.3142  0.9047
  845SOL    HW1 2534   1.708   2.802   1.271  0.0108 -1.2617  0.4138
  845SOL    HW2 2535   1.702   2.942   1.370 -0.0261 -1.3094 -0.3092
  846SOL     OW 2536   1.592   2.944   0.717 -0.0405 -0.2162  0.5231
  846SOL    HW1 2537   1.564   2.953   0.616  2.0944  0.3672 -1.1360
  846SOL    HW2 2538   1.693   2.960   0.732  1.7509 -1.8796  1.3508
  847SOL     OW 2539   2.079   1.668   0.391 -0.2126  0.1710 -0.5757
  847SOL    HW1 2540   2.030   1.574   0.415 -1.1285 -0.2907 -0.1214
  847SOL    HW2 2541   2.027   1.741   0.433 -0.8901 -1.5750 -0.2552
  848SOL     OW 2542   2.445   0.857   2.614  0.1538  0.0259 -0.1243
  848SOL    HW1 2543   2.442   0.955   2.651  1.2586 -0.2762  0.5413
  848SOL    HW2 2544   2.351   0.812   2.611 -2.2354  0.9924  0.3883
  849SOL     OW 2545   2.555   0.859   2.365 -0.6406  0.2299  0.5526
  849SOL    HW1 2546   2.643   0.803   2.379  0.4107 -1.5978 -2.8197
  849SOL    HW2 2547   2.501   0.859   2.458 -0.0791  0.4140 -2.0052
  850SOL     OW 2548   1.559   0.096   1.362  0.0827 -0.1975 -0.1744
  850SOL    HW1 2549   1.551   0.052   1.267 -0.5688 -1.7029 -1.9356
  850SOL    HW2 2550   1.510   0.033   1.431 -0.6845 -0.3652 -0.5227
  851SOL     OW 2551   0.436   1.808   0.563 -0.2378 -0.4724 -0.0758
  851SOL    HW1 2552   0.451   1.908   0.568  1.3210 -1.1763 -4.2750
  851SOL    HW2 2553   0.478   1.765   0.477 -0.7205 -0.2338  1.6993
  852SOL     OW 2554   0.812   2.053   1.792 -0.4512  0.0981 -0.4543
  852SOL    HW1 2555   0.836   2.152   1.774 -1.5017  0.4849 -1.9217
  852SOL    HW2 2556   0.727   2.034   1.846  0.7968  1.9676 -1.5919
  853SOL     OW 2557   2.507   1.544   2.598 -0.3053  0.0037  0.1262
  853SOL    HW1 2558   2.453   1.461   2.572  1.1281 -1.0469  0.2016
  853SOL    HW2 2559   2.497   1.625   2.535 -0.8698  3.6108 -1.0778
  854SOL     OW 2560   2.417   1.368   1.742 -0.4147 -0.2439 -0.6693
  854SOL    HW1 2561   2.463   1.325   1.659 -1.8149  0.3412 -0.6545
  854SOL    HW2 2562   2.350   1.306   1.790 -2.1316 -0.3266  0.2685
  855SOL     OW 2563   2.084   2.471   1.043  0.2095  0.2770  0.0784
  855SOL    HW1 2564   2.072   2.564   0.996 -1.5551 -1.3994 -1.1028
  855SOL    HW2 2565   2.172   2.460   1.096 -0.3404 -0.0353 -0.0934
  856SOL     OW 2566   1.330   1.406   0.935  0.4918 -0.1355  0.2259
  856SOL    HW1 2567   1.408   1.470   0.941 -0.4429  0.0436 -1.3000
  856SOL    HW2 2568   1.241   1.452   0.947  2.7076 -0.9090  1.5421
  857SOL     OW 2569   3.061   2.750   0.988 -0.1181 -0.2394 -0.3989
  857SOL    HW1 2570   3.010   2.672   0.935 -0.4349 -2.9813  0.1606
  857SOL    HW2 2571   3.154   2.773   0.952 -1.1079  1.1720 -0.3123
  858SOL     OW 2572   2.356   2.093   1.711 -0.8045 -0.2352 -0.5470
  858SOL    HW1 2573   2.260   2.095   1.671  0.6512  3.0375  1.7525
  858SOL    HW2 2574   2.418   2.023   1.663  1.7192 -2.0909  1.4725
  859SOL     OW 2575   2.412   0.579   1.092  1.4555  0.2210  0.0817
  859SOL    HW1 2576   2.467   0.613   1.011  1.9268 -0.4610  3.1410
  859SOL    HW2 2577   2.422   0.477   1.111 -1.7831  0.1044  0.5783
  860SOL     OW 2578   1.827   2.805   0.509  0.8772 -0.2419  0.1018
  860SOL    HW1 2579   1.840   2.790   0.409  1.1565  1.0801 -1.5226
  860SOL    HW2 2580   1.861   2.895   0.536 -2.3664 -2.9041  0.5802
  861SOL     OW 2581   0.992   2.447   2.875  0.4530 -0.4775  0.2634
  861SOL    HW1 2582   1.052   2.522   2.832 -1.4185 -0.0879  1.1570
  861SOL    HW2 2583   0.960   2.461   2.974  0.3085  1.2356 -0.3261
  862SOL     OW 2584   2.931   2.556   1.610  0.0644 -0.0584 -0.5660
  862SOL    HW1 2585   3.022   2.592   1.645 -0.0759 -1.2409  1.6260
  862SOL    HW2 2586   2.879   2.625   1.548 -3.2734  2.2174  0.8444
  863SOL     OW 2587   1.805   2.743   0.240 -0.1686 -0.1050 -0.2617
  863SOL    HW1 2588   1.866   2.655   0.238  2.3890 -0.6638 -0.6776
  863SOL    HW2 2589   1.712   2.733   0.190 -0.0153 -0.8940 -0.9787
  864SOL     OW 2590   2.029   1.229   2.850 -0.0901 -0.5543 -0.2504
  864SOL    HW1 2591   2.064   1.165   2.784 -0.2888  0.9830  1.7318
  864SOL    HW2 2592   2.048   1.325   2.821 -1.9038 -2.2784 -1.0202
  865SOL     OW 2593   2.165   1.933   0.742 -0.5140 -0.0003  0.2506
  865SOL    HW1 2594   2.237   1.877   0.791 -1.8448  0.4676  0.0569
  865SOL    HW2 2595   2.085   1.956   0.805  0.4568 -2.0438 -0.2200
  866SOL     OW 2596   2.878   2.956   1.012 -0.0866 -0.1276 -0.3259
  866SOL    HW1 2597   2.869   3.010   0.928 -0.1122 -0.6158  3.7108
  866SOL    HW2 2598   2.952   2.883   1.020  0.5336 -0.8551  0.9130
  867SOL     OW 2599   0.361   1.456   0.935 -0.1936  0.0006  0.2409
  867SOL    HW1 2600   0.310   1.382   0.883  1.5579 -1.1052 -0.6759
  867SOL    HW2 2601   0.358   1.546   0.894  2.0940 -1.5348 -1.1415
  868SOL     OW 2602   0.766   1.841   2.100 -0.1133  0.3320  0.7905
  868SOL    HW1 2603   0.694   1.804   2.159 -0.1260  0.5240 -0.1230
  868SOL    HW2 2604   0.750   1.941   2.083 -1.1716  1.0987 -0.6413
  869SOL     OW 2605   2.579   1.942   1.629  0.2355  0.4419 -0.2112
  869SOL    HW1 2606   2.672   1.976   1.623 -2.0097 -1.5592 -3.8826
  869SOL    HW2 2607   2.578   1.836   1.621 -2.7347  0.0977  0.1318
  870SOL     OW 2608   2.306   2.705   1.229 -0.5481 -0.3587 -0.4240
  870SOL    HW1 2609   2.330   2.609   1.235 -1.5552  1.1849 -0.5183
  870SOL    HW2 2610   2.385   2.769   1.248 -1.6629 -3.9248 -2.3682
  871SOL     OW 2611   0.020   2.273   0.555  0.6031 -0.0525 -0.2619
  871SOL    HW1 2612  -0.039   2.313   0.630  2.9004 -0.2470 -2.9166
  871SOL    HW2 2613  -0.040   2.263   0.473  0.8268  2.0372  1.0062
  872SOL     OW 2614   2.095   0.435   1.687  0.3708  0.1994 -0.6019
  872SOL    HW1 2615   2.044   0.415   1.777  0.3223  1.3703 -0.6045
  872SOL    HW2 2616   2.194   0.410   1.691  2.0460  0.2607 -1.2368
  873SOL     OW 2617   1.707   2.098   3.101  0.6102  0.1952  0.0072
  873SOL    HW1 2618   1.636   2.142   3.162 -3.3229 -1.5139  0.0250
  873SOL    HW2 2619   1.692   2.103   3.001  1.1599 -0.8795 -0.3740
  874SOL     OW 2620   0.676   2.466   0.757  0.0281  0.0605  0.0103
  874SOL    HW1 2621   0.673   2.568   0.776 -0.6878 -2.2464  0.6732
  874SOL    HW2 2622   0.774   2.436   0.758  1.7296  0.6960 -0.0317
  875SOL     OW 2623   2.259   1.513   1.429  0.1695  0.6056 -0.1865
  875SOL    HW1 2624   2.298   1.584   1.491 -2.1940 -1.7229 -2.9513
  875SOL    HW2 2625   2.282   1.531   1.330  0.6722 -0.8026  0.2460
  876SOL     OW 2626   0.068   2.282   2.654  0.0699  0.3168  0.0504
  876SOL    HW1 2627   0.095   2.179   2.678 -0.2272 -3.0382 -0.4080
  876SOL    HW2 2628   0.105   2.354   2.715  0.1246 -0.8371 -1.4890
  877SOL     OW 2629   2.924   2.637   0.615  0.0357 -0.2685 -0.4182
  877SOL    HW1 2630   2.906   2.732   0.655 -0.5102 -1.5452 -0.8193
  877SOL    HW2 2631   3.002   2.588   0.664 -0.0183 -2.4785 -0.9651
  878SOL     OW 2632   2.816   1.497   2.257 -0.0664 -0.2184  0.3529
  878SOL    HW1 2633   2.804   1.580   2.198 -0.1131  0.2695  0.5787
  878SOL    HW2 2634   2.813   1.518   2.360 -1.4568 -2.2791 -0.1198
  879SOL     OW 2635   2.388   0.083   1.246 -0.3548  0.2864  0.8770
  879SOL    HW1 2636   2.435  -0.010   1.244  2.1016  1.1586  1.0730
  879SOL    HW2 2637   2.295   0.080   1.196 -2.8642  0.0694 -0.2257
  880SOL     OW 2638   0.737   0.525   2.244  0.1004  0.0862 -0.4250
  880SOL    HW1 2639   0.662   0.486   2.301  1.8391 -1.0594 -0.1126
  880SOL    HW2 2640   0.807   0.455   2.211  0.2707 -1.4365  0.8741
  881SOL     OW 2641   0.827   0.082   0.416  0.5433 -0.0325 -0.0653
  881SOL    HW1 2642   0.871  -0.010   0.403  2.1433 -2.3654 -1.2533
  881SOL    HW2 2643   0.742   0.101   0.362 -0.3396  2.4433  2.3294
  882SOL     OW 2644   2.715   1.666   1.697 -0.3639  0.3359 -0.0588
  882SOL    HW1 2645   2.791   1.605   1.656 -0.9777 -3.5758  0.4277
  882SOL    HW2 2646   2.746   1.716   1.780 -1.0728 -1.6212 -3.0110
  883SOL     OW 2647   0.817   0.512   0.936  0.4635  0.4930  0.2830
  883SOL    HW1 2648   0.870   0.589   0.981 -1.1420 -1.6830  2.1597
  883SOL    HW2 2649   0.756   0.463   1.006  0.7556 -2.0012  0.5942
  884SOL     OW 2650   1.103   1.751   1.162  0.0159 -0.3675  0.8014
  884SOL    HW1 2651   1.090   1.662   1.116 -0.5986  0.7780 -0.2394
  884SOL    HW2 2652   1.061   1.829   1.100 -1.4244 -0.1282 -0.9773
  885SOL     OW 2653   2.325   1.830   2.224  0.0348 -0.7888  0.0291
  885SOL    HW1 2654   2.241   1.782   2.265 -2.2601 -0.5924  0.9883
  885SOL    HW2 2655   2.319   1.929   2.255 -1.5066  0.2645  4.0966
  886SOL     OW 2656   2.594   0.348   1.801 -0.1349  0.0037 -0.3345
  886SOL    HW1 2657   2.589   0.291   1.889  0.1844 -0.5889 -0.9947
  886SOL    HW2 2658   2.691   0.378   1.783  0.0535 -1.0024 -0.0086
  887SOL     OW 2659   0.153   2.058   1.270 -0.2088  0.1880  0.6100
  887SOL    HW1 2660   0.056   2.035   1.242  2.2809  0.8414 -1.6711
  887SOL    HW2 2661   0.174   2.159   1.252 -0.9887 -1.2905  2.4142
  888SOL     OW 2662   0.650   1.216   1.494 -0.4368  0.4545 -0.2940
  888SOL    HW1 2663   0.690   1.266   1.414  1.4297 -2.5269  3.2027
  888SOL    HW2 2664   0.608   1.126   1.462  1.5745 -2.7468 -0.9998
  889SOL     OW 2665   0.851   2.487   2.243 -0.4046  1.0836 -0.6719
  889SOL    HW1 2666   0.768   2.436   2.213  1.8325  0.1449 -0.0088
  889SOL    HW2 2667   0.933   2.462   2.186 -0.1942 -0.1116  0.7565
  890SOL     OW 2668   2.350   2.491   0.242 -0.0868  0.5995  0.4972
  890SOL    HW1 2669   2.369   2.578   0.182  2.0863  0.5356 -0.9854
  890SOL    HW2 2670   2.298   2.519   0.328  2.2888  0.8708  0.8614
  891SOL     OW 2671   2.520   1.725   0.695 -0.3456  0.1499 -0.3390
  891SOL    HW1 2672   2.512   1.667   0.780 -0.8240  0.8050  0.4087
  891SOL    HW2 2673   2.444   1.700   0.627 -0.8320 -0.4603 -2.4753
  892SOL     OW 2674   0.410   0.361   2.227  0.6427 -0.5022  0.4790
  892SOL    HW1 2675   0.401   0.449   2.171  0.9176  0.3295 -1.8245
  892SOL    HW2 2676   0.472   0.369   2.311 -0.2140 -0.0564 -0.7646
  893SOL     OW 2677   1.705   0.216   2.714 -0.1742 -0.3860  0.4760
  893SOL    HW1 2678   1.796   0.260   2.741  0.3979  1.2827 -2.2261
  893SOL    HW2 2679   1.623   0.280   2.691 -3.7281  0.3880  0.3065
  894SOL     OW 2680   2.163   2.087   0.068 -0.2641 -0.0920  0.1472
  894SOL    HW1 2681   2.155   2.007  -0.000 -1.7739  0.5962  0.4168
  894SOL    HW2 2682   2.196   2.051   0.161  1.9210 -2.9040 -2.2895
  895SOL     OW 2683   2.765   1.452   0.932  0.9392  0.1257 -0.1773
  895SOL    HW1 2684   2.851   1.397   0.937  1.7918  1.7158  1.2237
  895SOL    HW2 2685   2.784   1.556   0.948 -0.9048 -1.2150 -3.7623
  896SOL     OW 2686   1.849   1.869   1.219  0.2085  0.0240 -0.3659
  896SOL    HW1 2687   1.929   1.809   1.230 -0.8620 -0.3623  1.2137
  896SOL    HW2 2688   1.788   1.830   1.145  0.7018 -0.2015  0.4232
  897SOL     OW 2689   0.279   0.525   3.038  0.4042  0.9468  0.3654
  897SOL    HW1 2690   0.222   0.586   2.971  1.4228  1.9783  2.1477
  897SOL    HW2 2691   0.375   0.564   3.048  1.4985  0.7285  0.0114
  898SOL     OW 2692   0.680   2.808   1.028 -0.2083  0.2991  0.3227
  898SOL    HW1 2693   0.731   2.894   1.057 -1.0562 -0.2885  1.9533
  898SOL    HW2 2694   0.734   2.729   1.064  0.1932  2.1177 -0.5055
  899SOL     OW 2695   2.839   0.887   1.417 -0.3510 -0.2515 -0.5041
  899SOL    HW1 2696   2.863   0.844   1.325  0.0960 -0.4908  1.4104
  899SOL    HW2 2697   2.923   0.920   1.465 -3.5209  1.7559 -1.6521
  900SOL     OW 2698   0.995   2.451   2.492  0.4822  0.7878  0.8584
  900SOL    HW1 2699   0.945   2.430   2.408 -0.5702  1.9559  1.8437
  900SOL    HW2 2700   0.968   2.375   2.560 -0.9429 -0.7213  2.1865
  901SOL     OW 2701   1.917   2.439   1.391 -0.2033 -0.0885 -0.4194
  901SOL    HW1 2702   1.866   2.394   1.309  1.6674 -1.8477 -1.6775
  901SOL    HW2 2703   2.018   2.414   1.399  1.8137 -2.4348 -1.4539
  902SOL     OW 2704   2.511   1.676   1.495 -0.0514 -0.0194  0.4317
  902SOL    HW1 2705   2.571   1.642   1.573  1.2739  0.7722  1.8141
  902SOL    HW2 2706   2.536   1.626   1.407  1.4735  0.3123  1.1181
  903SOL     OW 2707   0.330   2.504   1.991 -0.1213  0.1419 -0.2874
  903SOL    HW1 2708   0.264   2.423   1.984 -0.8102  1.0479  2.1521
  903SOL    HW2 2709   0.349   2.560   1.903  0.3780 -0.5279 -2.9608
  904SOL     OW 2710   1.993   0.797   2.523 -0.0727  0.0958  1.2526
  904SOL    HW1 2711   1.909   0.767   2.581 -0.3961 -0.0940  2.5115
  904SOL    HW2 2712   2.000   0.757   2.428 -1.3861  1.1799  0.0205
  905SOL     OW 2713   2.858   0.083   2.388  0.1114 -0.1218  0.3828
  905SOL    HW1 2714   2.893  -0.013   2.407  0.3944 -1.0949  2.3249
  905SOL    HW2 2715   2.923   0.162   2.416  1.8018  1.5993  1.1778
  906SOL     OW 2716   0.148   1.694   1.887 -0.4834 -0.5477  0.4888
  906SOL    HW1 2717   0.080   1.740   1.817  0.3612  3.3682 -1.8636
  906SOL    HW2 2718   0.247   1.691   1.853  2.0176  1.5497 -1.0652
  907SOL     OW 2719   0.212   2.464   0.962 -0.2559 -0.6415  0.3011
  907SOL    HW1 2720   0.304   2.427   0.933  0.0196  1.5248 -1.7638
  907SOL    HW2 2721   0.200   2.565   0.935 -2.5989 -1.4486  1.1135
  908SOL     OW 2722   2.832   3.047   0.268  0.1675  0.2335  0.0576
  908SOL    HW1 2723   2.732   3.041   0.234 -1.1107  1.0565 -0.6495
  908SOL    HW2 2724   2.887   2.960   0.279 -0.1165 -2.6030  1.0881
  909SOL     OW 2725   0.856   1.052   2.681  0.2169  0.1445 -0.2802
  909SOL    HW1 2726   0.800   0.963   2.661  0.5812  2.2288  0.4793
  909SOL    HW2 2727   0.925   1.068   2.605 -0.2292  2.0706  0.4276
  910SOL     OW 2728   1.769   1.880   2.160 -0.7182  0.0848  0.2916
  910SOL    HW1 2729   1.817   1.938   2.089 -3.1317  2.5837  3.3062
  910SOL    HW2 2730   1.703   1.935   2.215  2.3688 -1.0394  1.7820
  911SOL     OW 2731   1.789   2.964   1.546  0.0245  0.4808  0.3515
  911SOL    HW1 2732   1.867   2.968   1.472  0.9262 -1.5249  0.2178
  911SOL    HW2 2733   1.794   2.876   1.603 -1.3676  0.4780  0.7503
  912SOL     OW 2734   2.853   1.023   0.721 -0.0322  0.1140 -0.0809
  912SOL    HW1 2735   2.858   0.985   0.819  1.7056  0.7501 -0.4003
  912SOL    HW2 2736   2.818   1.118   0.726  2.0620  1.8081  0.0354
  913SOL     OW 2737   2.557   1.272   1.518  0.3473 -0.1100 -0.2117
  913SOL    HW1 2738   2.577   1.171   1.494 -0.0593 -2.0013 -1.4012
  913SOL    HW2 2739   2.611   1.331   1.452  1.7399 -4.3032 -0.9249
  914SOL     OW 2740   2.776   0.606   1.130 -0.1202  0.2528 -0.2857
  914SOL    HW1 2741   2.758   0.518   1.172  1.8119  2.2545 -2.7270
  914SOL    HW2 2742   2.712   0.681   1.156  0.8954  1.7087 -2.7672
  915SOL     OW 2743   1.200   0.778   0.993  0.6041 -0.5547  0.1667
  915SOL    HW1 2744   1.236   0.765   1.094 -0.2071  0.3860  2.8709
  915SOL    HW2 2745   1.098   0.767   0.987 -0.0574  2.7783  0.8219
  916SOL     OW 2746   0.567   0.117   0.668 -0.1230 -0.4332 -0.7065
  916SOL    HW1 2747   0.631   0.169   0.735 -0.4823 -0.4054  4.3653
  916SOL    HW2 2748   0.538   0.183   0.595 -3.3243 -1.5129  1.5195
  917SOL     OW 2749   2.873   2.555   1.999  0.2797 -0.1767 -0.0224
  917SOL    HW1 2750   2.784   2.578   1.948  2.5585 -1.8944  0.8482
  917SOL    HW2 2751   2.946   2.630   1.996  2.9320 -0.7166 -2.2582
  918SOL     OW 2752   1.007   2.067   3.010 -0.1223 -0.1567 -0.3870
  918SOL    HW1 2753   0.985   2.151   3.067 -1.1824 -1.2236  0.7886
  918SOL    HW2 2754   1.080   2.082   2.943 -0.3538  0.7649  0.9001
  919SOL     OW 2755   0.865   1.712   2.764 -0.1790 -0.0042  0.3276
  919SOL    HW1 2756   0.905   1.793   2.716 -0.9413 -1.3382  0.7297
  919SOL    HW2 2757   0.832   1.644   2.693 -0.4639  0.4506  0.9101
  920SOL     OW 2758   1.282   1.753   2.526 -0.5980  0.1702  0.3496
  920SOL    HW1 2759   1.380   1.748   2.488  0.5261 -0.4895  0.9161
  920SOL    HW2 2760   1.282   1.703   2.617  0.2001  0.0819 -0.5045
  921SOL     OW 2761   1.130   0.007   2.651 -0.2384  0.0417 -0.0048
  921SOL    HW1 2762   1.121   0.001   2.548  1.9333 -1.2202  1.6506
  921SOL    HW2 2763   1.034   0.014   2.699 -4.6001 -0.9259 -1.2787
  922SOL     OW 2764   2.184   2.372   2.743  0.0123  0.5757 -0.2003
  922SOL    HW1 2765   2.190   2.265   2.745  1.0375 -3.6599  1.3338
  922SOL    HW2 2766   2.167   2.410   2.646  0.8199 -0.5509  0.8787
  923SOL     OW 2767   1.273   2.713   0.267 -0.1884 -0.7279  0.0345
  923SOL    HW1 2768   1.302   2.786   0.333  0.9073 -1.1909  0.6627
  923SOL    HW2 2769   1.319   2.622   0.281  1.7619 -1.3050 -1.0345
  924SOL     OW 2770   2.881   1.687   0.147 -0.2659 -0.9573 -0.0980
  924SOL    HW1 2771   2.795   1.650   0.103 -0.8142 -1.9933 -3.3062
  924SOL    HW2 2772   2.964   1.622   0.129  2.4195 -0.4479  1.3002
  925SOL     OW 2773   0.049   2.866   1.520  0.0632  0.0340 -0.0548
  925SOL    HW1 2774   0.002   2.836   1.605  0.0155  2.4432  0.8737
  925SOL    HW2 2775   0.018   2.819   1.430 -0.2280 -1.9658 -0.8314
  926SOL     OW 2776   1.304   2.837   1.325 -0.3692  0.2701  0.3356
  926SOL    HW1 2777   1.352   2.833   1.229  1.3860  0.3441 -0.3727
  926SOL    HW2 2778   1.335   2.914   1.393 -0.5731 -2.9674  2.5114
  927SOL     OW 2779   0.350   2.648   1.764 -0.4257 -0.8363  0.6461
  927SOL    HW1 2780   0.323   2.598   1.677 -0.7907  0.0550 -1.6799
  927SOL    HW2 2781   0.349   2.749   1.744  1.7371  0.4334  1.8765
  928SOL     OW 2782   1.598   2.071   2.237 -0.2028 -0.1071  0.3324
  928SOL    HW1 2783   1.630   2.147   2.172  2.5472 -1.2205  0.5885
  928SOL    HW2 2784   1.504   2.036   2.223  0.8451 -0.2043 -0.2673
  929SOL     OW 2785   2.398   2.487   2.857 -0.0090 -0.3955  0.1377
  929SOL    HW1 2786   2.319   2.443   2.804 -0.1376 -2.2486 -2.0774
  929SOL    HW2 2787   2.474   2.527   2.799 -3.8582 -1.2155 -0.1734
  930SOL     OW 2788   2.158   1.983   1.121 -0.4014 -0.5639 -0.6703
  930SOL    HW1 2789   2.143   1.936   1.216  1.4038 -1.0626 -1.1010
  930SOL    HW2 2790   2.232   2.058   1.125  1.6259  0.9539  1.6113
  931SOL     OW 2791   0.518   1.725   2.640  0.5725 -0.0694 -0.0758
  931SOL    HW1 2792   0.557   1.747   2.734 -3.2698 -0.3484 -0.9207
  931SOL    HW2 2793   0.589   1.670   2.581  0.5210  1.7230 -1.4455
  932SOL     OW 2794   0.365   0.098   3.085 -0.0128  0.2135  0.2456
  932SOL    HW1 2795   0.459   0.130   3.110 -2.3019  0.8995  2.7859
  932SOL    HW2 2796   0.365  -0.002   3.073  2.9524 -0.7441 -0.1917
  933SOL     OW 2797   0.956   0.845   3.026 -0.3499 -0.1416 -0.4310
  933SOL    HW1 2798   0.858   0.808   3.019  0.5027 -0.0062 -0.1521
  933SOL    HW2 2799   0.963   0.946   3.038  0.8353 -0.4506 -0.4171
  934SOL     OW 2800   0.717   2.925   2.677 -0.0936  0.6833  0.7004
  934SOL    HW1 2801   0.712   2.885   2.583  0.4160 -1.1982 -1.4653
  934SOL    HW2 2802   0.796   2.877   2.728  1.4725 -0.2418  1.1960
  935SOL     OW 2803   0.006   0.539   0.808  0.3808 -0.1615 -0.2239
  935SOL    HW1 2804   0.006   0.517   0.706 -0.7793 -0.0521 -2.1192
  935SOL    HW2 2805  -0.079   0.585   0.837  2.1375 -0.4781 -2.4702
  936SOL     OW 2806   1.101   2.845   0.089 -0.0514 -0.2360  0.5227
  936SOL    HW1 2807   1.138   2.888   0.000 -0.3518 -0.6314  1.0978
  936SOL    HW2 2808   1.169   2.774   0.133  2.5571 -0.9625 -1.9280
  937SOL     OW 2809   1.898   2.649   2.073 -0.4848  0.0004 -0.0358
  937SOL    HW1 2810   1.795   2.648   2.097 -0.7191  1.9981  1.7229
  937SOL    HW2 2811   1.917   2.714   1.997 -0.2559  1.6245  2.8493
  938SOL     OW 2812   2.806   2.088   1.569  0.6624  0.0249  0.9102
  938SOL    HW1 2813   2.780   2.187   1.585  2.1021 -0.7039  0.8646
  938SOL    HW2 2814   2.894   2.059   1.615  1.1066 -0.3131 -1.6793
  939SOL     OW 2815   2.787   1.233   2.463 -0.0245  0.2580 -0.4264
  939SOL    HW1 2816   2.853   1.202   2.384  1.8157 -0.1048 -1.6608
  939SOL    HW2 2817   2.799   1.178   2.550 -1.4718 -0.9066 -1.5386
  940SOL     OW 2818   1.028   0.441   2.762 -0.2599  0.5768 -0.0422
  940SOL    HW1 2819   1.119   0.390   2.766  0.1835  2.7504 -2.6957
  940SOL    HW2 2820   0.988   0.426   2.667  1.2947 -1.1448 -2.8253
  941SOL     OW 2821  -0.003   2.778   2.263  0.5820 -0.3438  0.4593
  941SOL    HW1 2822   0.063   2.707   2.225 -0.5882 -0.7115  0.4313
  941SOL    HW2 2823   0.033   2.827   2.350 -2.3054 -0.8518  0.1527
  942SOL     OW 2824   0.070   0.083   2.556  0.4993  0.2814  0.2013
  942SOL    HW1 2825   0.139   0.087   2.634  0.7234  1.1207 -0.3406
  942SOL    HW2 2826   0.097   0.155   2.487  2.7758 -0.3665  1.6065
  943SOL     OW 2827   2.105   1.714   2.329  0.0028 -0.2179 -0.0969
  943SOL    HW1 2828   2.091   1.651   2.249  1.2600  0.6223  3.6461
  943SOL    HW2 2829   2.106   1.655   2.414 -1.5175  0.0865 -0.8597
  944SOL     OW 2830   2.194   2.373   1.489 -0.7908  0.2490 -0.8921
  944SOL    HW1 2831   2.279   2.414   1.535 -0.0016  1.2990  2.2950
  944SOL    HW2 2832   2.148   2.297   1.547  0.6271  0.2310  1.8690
  945SOL     OW 2833   0.704   1.580   0.068 -0.0488  0.0952 -0.0008
  945SOL    HW1 2834   0.602   1.581   0.038  0.8997 -4.0371 -3.4197
  945SOL    HW2 2835   0.724   1.519   0.150  0.8025  2.2560  1.3690
  946SOL     OW 2836   0.398   0.970   2.533  0.8091 -0.4178 -0.3435
  946SOL    HW1 2837   0.328   0.935   2.466  0.8011  0.6340 -0.2560
  946SOL    HW2 2838   0.412   1.070   2.537  1.5880 -2.3573 -0.5830
  947SOL     OW 2839   1.485   0.530   3.074 -0.4209 -0.4311 -0.0738
  947SOL    HW1 2840   1.495   0.614   3.015  0.6116 -1.5772  1.6467
  947SOL    HW2 2841   1.388   0.489   3.081  2.1646 -2.2466  0.3839
  948SOL     OW 2842   1.895   3.015   2.160  0.0155  0.9304  0.0661
  948SOL    HW1 2843   1.902   2.966   2.072 -0.2548 -1.1955 -0.7774
  948SOL    HW2 2844   1.902   2.951   2.245 -3.3557  0.7581  1.0400
  949SOL     OW 2845   0.598   2.447   0.471  0.0255  0.4284  0.2047
  949SOL    HW1 2846   0.603   2.545   0.434 -1.7707 -0.0419 -3.2769
  949SOL    HW2 2847   0.628   2.434   0.566  0.2227  0.0416 -2.8617
  950SOL     OW 2848   0.188   2.242   2.971 -0.4215  0.3708  0.2639
  950SOL    HW1 2849   0.142   2.335   2.944 -1.3631  1.6857 -1.3193
  950SOL    HW2 2850   0.141   2.159   2.920 -0.3840 -1.8203 -2.4863
  951SOL     OW 2851   1.162   2.650   2.777 -0.2830 -0.2258  0.5138
  951SOL    HW1 2852   1.226   2.615   2.855  1.4329 -0.9308 -0.0134
  951SOL    HW2 2853   1.215   2.658   2.690 -0.7466 -0.4093  1.5523
  952SOL     OW 2854   0.090   1.648   0.397 -0.8265 -0.0726  0.1777
  952SOL    HW1 2855   0.091   1.747   0.438 -3.0347  3.9538 -1.7837
  952SOL    HW2 2856   0.109   1.572   0.463 -2.0358  2.7670 -0.5315
  953SOL     OW 2857   2.537   1.775   0.248  0.1084  0.2379 -0.1751
  953SOL    HW1 2858   2.586   1.682   0.232  0.7358 -0.4784 -0.3763
  953SOL    HW2 2859   2.483   1.797   0.164  1.7210 -0.6507  0.3864
  954SOL     OW 2860   2.177   0.586   0.924  0.0843  0.3028 -0.3519
  954SOL    HW1 2861   2.170   0.557   0.821 -0.1253 -1.7788 -2.1931
  954SOL    HW2 2862   2.272   0.579   0.969  2.4562  0.5003  2.0158
  955SOL     OW 2863   0.100   2.550   1.366 -0.3980 -0.0609 -0.3138
  955SOL    HW1 2864   0.006   2.596   1.352 -0.9109  0.3327  0.5813
  955SOL    HW2 2865   0.175   2.618   1.363  3.6149 -2.1435  1.2650
  956SOL     OW 2866   2.807   2.476   2.507 -0.1895  0.0660  0.1807
  956SOL    HW1 2867   2.796   2.373   2.502 -1.8517 -0.6040 -0.2766
  956SOL    HW2 2868   2.831   2.523   2.415 -1.7623 -1.2606 -3.1646
  957SOL     OW 2869   1.564   2.062   2.725  0.0185  0.2749 -0.0228
  957SOL    HW1 2870   1.559   1.975   2.779  1.4792  0.6432  0.1257
  957SOL    HW2 2871   1.640   2.051   2.652 -0.5522  2.2362  0.4981
  958SOL     OW 2872   2.583   2.303   2.956 -0.1666  0.7440 -0.0835
  958SOL    HW1 2873   2.494   2.345   2.972  0.9178 -0.8372 -0.5217
  958SOL    HW2 2874   2.629   2.262   3.040 -0.3320  0.0601  1.4596
  959SOL     OW 2875   0.329   2.779   0.097 -0.5105  0.6912 -0.0062
  959SOL    HW1 2876   0.262   2.828   0.157  0.5554 -2.0643  0.5959
  959SOL    HW2 2877   0.329   2.676   0.110 -2.1452 -2.3625 -2.2559
  960SOL     OW 2878   1.964   0.424   1.929  0.1705 -0.2783  0.2043
  960SOL    HW1 2879   1.930   0.518   1.894  2.9501 -0.6394 -1.2479
  960SOL    HW2 2880   1.965   0.419   2.034  0.5643 -0.3637  2.0618
  961SOL     OW 2881   2.544   1.859   1.049  0.2531  0.5911  0.6847
  961SOL    HW1 2882   2.556   1.952   1.004  0.5092 -0.3354  2.7485
  961SOL    HW2 2883   2.506   1.868   1.145 -0.3431  2.3880 -0.8792
  962SOL     OW 2884   1.342   0.870   0.056  0.4288  0.4227  0.3322
  962SOL    HW1 2885   1.267   0.889  -0.014  1.3402 -0.0051 -0.5720
  962SOL    HW2 2886   1.350   0.943   0.126  0.3820 -0.5914 -4.2215
  963SOL     OW 2887   2.291   2.556   1.818  0.2411  0.0322 -0.0606
  963SOL    HW1 2888   2.257   2.460   1.858  3.9740 -3.4544 -3.0379
  963SOL    HW2 2889   2.293   2.629   1.890  0.0120 -1.5193  0.0866
  964SOL     OW 2890   2.373   0.359   1.661  0.1642 -0.1146  0.3961
  964SOL    HW1 2891   2.464   0.385   1.703 -1.4946 -2.0398  2.5929
  964SOL    HW2 2892   2.380   0.347   1.554  0.2377 -2.7494 -1.1396
  965SOL     OW 2893   2.579   2.987   0.163 -0.2034  0.0870  0.3770
  965SOL    HW1 2894   2.616   2.934   0.081 -1.8364 -2.1990 -1.2466
  965SOL    HW2 2895   2.504   3.054   0.133  0.1407  2.7470  0.1392
  966SOL     OW 2896   2.518   2.533   2.189 -0.0302  0.5020  0.2404
  966SOL    HW1 2897   2.558   2.628   2.173  0.9477  1.6090 -1.3166
  966SOL    HW2 2898   2.432   2.515   2.137  1.1578  0.6914 -0.9330
  967SOL     OW 2899   2.768   2.857   2.452  0.7720 -0.5404  0.3211
  967SOL    HW1 2900   2.793   2.757   2.449  0.2366 -1.2779  0.4287
  967SOL    HW2 2901   2.848   2.917   2.488  1.2433  1.9212 -2.9101
  968SOL     OW 2902   1.941   1.049   2.615 -0.1162  0.1695 -0.2784
  968SOL    HW1 2903   1.855   1.107   2.593  1.8349 -0.2896 -0.6026
  968SOL    HW2 2904   1.951   0.962   2.561 -2.7337  1.3504 -0.9956
  969SOL     OW 2905   2.753   2.469   1.074 -0.2605 -0.4679 -0.1440
  969SOL    HW1 2906   2.752   2.468   0.971 -0.3381 -2.5710 -0.2295
  969SOL    HW2 2907   2.813   2.396   1.116 -1.7069 -0.7702  1.9823
  970SOL     OW 2908   1.084   2.120   1.846 -0.0179 -0.3362 -0.3281
  970SOL    HW1 2909   1.008   2.070   1.804  0.7546  1.4780 -0.5594
  970SOL    HW2 2910   1.058   2.189   1.920  1.1643 -0.3285  2.1081
  971SOL     OW 2911   2.884   2.052   1.994  0.8712  0.2573  0.6502
  971SOL    HW1 2912   2.901   2.154   2.028 -0.4227  2.6990  0.4308
  971SOL    HW2 2913   2.913   2.037   1.892  0.6104 -2.0210 -0.9623
  972SOL     OW 2914   1.957   2.482   0.262  0.4125 -0.0925 -0.2124
  972SOL    HW1 2915   1.952   2.392   0.213  2.5790 -1.9278  1.1641
  972SOL    HW2 2916   2.001   2.461   0.356 -0.4890  0.6660 -0.9081
  973SOL     OW 2917   1.222   0.918   1.861  0.2765  0.0143 -0.2224
  973SOL    HW1 2918   1.184   0.821   1.855 -0.1538  1.0783 -0.8856
  973SOL    HW2 2919   1.156   0.983   1.809  0.1614  3.0492 -0.0191
  974SOL     OW 2920   1.641   0.573   1.932 -0.3106  0.3575 -0.7705
  974SOL    HW1 2921   1.728   0.609   1.894  0.4350 -0.3423 -0.0340
  974SOL    HW2 2922   1.565   0.637   1.920  2.6116 -0.3544 -1.6282
  975SOL     OW 2923   2.344   3.045   3.091 -0.2089 -0.1469  0.5941
  975SOL    HW1 2924   2.271   2.971   3.108  0.9956 -0.3747  0.6543
  975SOL    HW2 2925   2.421   3.017   3.025 -0.7491  0.3614  1.5748
  976SOL     OW 2926   1.887   2.831   2.370 -0.3456  0.0666  0.6934
  976SOL    HW1 2927   1.834   2.747   2.344  0.7579  0.0622 -0.4896
  976SOL    HW2 2928   1.954   2.809   2.442  0.4178  0.3469 -0.8669
  977SOL     OW 2929   0.514   0.608   0.987  0.0958 -0.5904 -0.7147
  977SOL    HW1 2930   0.433   0.620   0.934  2.0898 -2.0250  0.2135
  977SOL    HW2 2931   0.575   0.687   0.978 -0.5888  0.9800 -0.4437
   3.10000   3.10000   3.10000
