1000 SPC/Fw water molecules t=   1.73000 step= 1730
 2931
    1SOL     OW    1   2.488   0.379   2.666  0.3612 -0.2524  0.0861
    1SOL    HW1    2   2.500   0.278   2.638  3.7779  0.9134  0.2225
    1SOL    HW2    3   2.557   0.410   2.738  2.5830  0.3677  0.3764
    2SOL     OW    4   2.724   2.946   1.377  0.5704 -0.4411 -0.1477
    2SOL    HW1    5   2.821   2.936   1.344 -0.6740 -0.8481  1.1688
    2SOL    HW2    6   2.718   2.994   1.465 -0.4272 -3.6335 -2.4020
    3SOL     OW    7   2.709   2.486   0.368 -0.0958 -0.4073  0.2870
    3SOL    HW1    8   2.619   2.434   0.356 -0.2756 -1.7837 -0.9586
    3SOL    HW2    9   2.717   2.532   0.460  2.0759 -1.2037  0.5181
    4SOL     OW   10   1.314   1.558   2.447 -0.2736 -0.8523 -0.0970
    4SOL    HW1   11   1.232   1.562   2.385  1.0481  1.0437  0.9101
    4SOL    HW2   12   1.288   1.526   2.545 -3.7802  2.5662  0.6567
    5SOL     OW   13   1.119   1.574   3.013 -0.0573  0.6641 -0.5332
    5SOL    HW1   14   1.182   1.658   3.009  2.4102  1.3744 -1.0891
    5SOL    HW2   15   1.035   1.587   2.957 -1.8546  0.0800  0.2281
    6SOL     OW   16   0.252   1.815   3.091 -0.2953  0.1523  0.0079
    6SOL    HW1   17   0.168   1.785   3.141  0.2282  0.5459  0.3504
    6SOL    HW2   18   0.322   1.751   3.125 -0.2372  0.5031  2.2301
    7SOL     OW   19   2.506   0.911   1.079 -0.3851 -0.1067  0.2778
    7SOL    HW1   20   2.405   0.887   1.077  1.8949  0.6976  0.9668
    7SOL    HW2   21   2.551   0.895   0.988  1.3778 -0.5429  0.6347
    8SOL     OW   22   0.408   0.654   1.548 -0.1815  0.2816 -0.2398
    8SOL    HW1   23   0.487   0.599   1.586 -0.1745  0.3644  0.8492
    8SOL    HW2   24   0.430   0.714   1.467 -1.6014  0.9746 -0.3037
    9SOL     OW   25   1.127   0.898   2.345  0.2369 -0.0872  0.4824
    9SOL    HW1   26   1.203   0.911   2.272  1.3582  2.0993 -4.2200
    9SOL    HW2   27   1.113   0.796   2.378 -1.1083 -2.3314  0.3023
   10SOL     OW   28   0.676   1.404   1.253 -0.9345  0.1205  0.0262
   10SOL    HW1   29   0.593   1.375   1.198 -1.3938 -1.8437 -0.8120
   10SOL    HW2   30   0.686   1.507   1.264 -1.2975 -3.6051 -0.6570
   11SOL     OW   31   2.339   2.870   0.941 -0.5319 -0.4115 -0.0788
   11SOL    HW1   32   2.304   2.838   1.033 -0.4911  1.5687 -0.3575
   11SOL    HW2   33   2.438   2.894   0.943  2.9364 -0.7417 -0.4756
   12SOL     OW   34   1.506   0.849   0.464 -0.7615 -0.0386  0.5974
   12SOL    HW1   35   1.407   0.817   0.474 -0.3077 -0.9847 -2.6581
   12SOL    HW2   36   1.551   0.789   0.389  1.8709  0.6346  0.6590
   13SOL     OW   37   2.465   0.734   1.796  0.1055  0.4231 -0.2895
   13SOL    HW1   38   2.415   0.683   1.874  0.0951  0.0123 -2.6239
   13SOL    HW2   39   2.464   0.685   1.703  0.1997 -0.2596 -1.9822
   14SOL     OW   40   1.977   3.095   0.587 -0.1200 -0.9182  0.3031
   14SOL    HW1   41   1.879   3.123   0.560 -0.5332 -0.9813 -2.7244
   14SOL    HW2   42   1.991   3.074   0.687  0.2150  2.1488 -2.0916
   15SOL     OW   43   1.924   2.121   2.674  0.1775  0.4778 -0.1689
   15SOL    HW1   44   1.854   2.096   2.747  1.1065  2.1683  1.0186
   15SOL    HW2   45   1.933   2.050   2.602 -0.6705  1.6019  2.7392
   16SOL     OW   46   1.582   1.755   3.054 -0.4382  0.3505  0.6672
   16SOL    HW1   47   1.597   1.665   3.096 -2.0871  1.3437  0.5832
   16SOL    HW2   48   1.654   1.824   3.074  1.5572 -0.2831  1.1348
   17SOL     OW   49   0.120   0.474   0.169  0.0182 -0.1972  0.1535
   17SOL    HW1   50   0.207   0.500   0.120  1.3482  1.2120  0.2218
   17SOL    HW2   51   0.044   0.486   0.099 -1.6373  2.6278 -0.5089
   18SOL     OW   52   0.913   2.903   2.147  0.0455 -0.5929  0.2618
   18SOL    HW1   53   0.855   2.815   2.147 -3.7643 -1.2850 -0.1277
   18SOL    HW2   54   0.994   2.900   2.079  2.0686 -0.3596  1.9743
   19SOL     OW   55   0.557   0.907   1.910 -0.4230  0.6129 -0.0932
   19SOL    HW1   56   0.599   0.867   1.994 -0.9475  0.9256 -1.5031
   19SOL    HW2   57   0.609   0.984   1.867 -0.0186  0.3866  0.3894
   20SOL     OW   58   0.224   2.803   0.794  0.3893  0.2256 -0.2601
   20SOL    HW1   59   0.128   2.836   0.779  2.7996 -1.7498 -0.8793
   20SOL    HW2   60   0.239   2.710   0.745 -0.9254 -3.2430 -2.7548
   21SOL     OW   61   2.737   0.287   2.012  0.7926 -0.2495 -0.2090
   21SOL    HW1   62   2.717   0.199   1.961 -1.0512 -0.1014  0.0692
   21SOL    HW2   63   2.819   0.276   2.074  0.3351 -0.5212 -1.2685
   22SOL     OW   64   2.364   0.192   0.135  0.3546 -0.2125  0.6223
   22SOL    HW1   65   2.376   0.101   0.089  0.5937 -0.9373 -1.6305
   22SOL    HW2   66   2.285   0.253   0.095 -0.9212 -2.1992 -2.9967
   23SOL     OW   67   2.818   0.534   0.687  0.1335 -0.3127 -0.0598
   23SOL    HW1   68   2.859   0.443   0.679 -0.5845  0.3136  0.2094
   23SOL    HW2   69   2.835   0.588   0.601 -0.2871  0.4788  2.2093
   24SOL     OW   70   0.304   1.888   0.476  0.3043 -0.5573  0.3735
   24SOL    HW1   71   0.289   1.949   0.395 -0.8773  1.4182 -1.4247
   24SOL    HW2   72   0.400   1.852   0.477  0.1317 -0.1109 -2.5886
   25SOL     OW   73   2.286   0.609   0.217  0.2045  0.4202  0.1776
   25SOL    HW1   74   2.296   0.598   0.113  1.3171 -2.8198  1.4684
   25SOL    HW2   75   2.339   0.536   0.268  0.7304  0.3538  1.6366
   26SOL     OW   76   2.471   2.148   2.117 -0.2746  0.3656 -0.2004
   26SOL    HW1   77   2.541   2.201   2.175  2.1237  1.2944 -2.0167
   26SOL    HW2   78   2.513   2.098   2.037 -1.4640 -0.3562 -0.1678
   27SOL     OW   79   0.623   3.024   0.128  0.3345  0.3242 -0.6604
   27SOL    HW1   80   0.723   3.042   0.098 -1.0067  0.2577  1.4771
   27SOL    HW2   81   0.567   2.990   0.049  3.1218  0.4999  2.2787
   28SOL     OW   82   1.564   0.150   0.307  0.0841  0.4255  0.2465
   28SOL    HW1   83   1.596   0.120   0.210 -0.0130  1.0247 -1.2904
   28SOL    HW2   84   1.608   0.237   0.337  1.8303 -0.4120 -1.3909
   29SOL     OW   85   2.023   0.562   0.299 -0.3255 -0.3966  0.3013
   29SOL    HW1   86   1.995   0.606   0.387  0.2352 -0.7308  2.1025
   29SOL    HW2   87   2.126   0.567   0.283 -0.8794  0.7867  1.2255
   30SOL     OW   88   0.174   2.071   0.920  0.0728  0.2237  0.3927
   30SOL    HW1   89   0.184   1.993   0.855  2.2400  0.8695  3.0421
   30SOL    HW2   90   0.076   2.100   0.928  0.0741 -0.1860 -1.9651
   31SOL     OW   91   2.113   0.083   2.419 -0.2409  0.4336  0.1533
   31SOL    HW1   92   2.059   0.055   2.503 -0.6546 -0.3437 -1.3601
   31SOL    HW2   93   2.073   0.041   2.334 -2.0404  0.3055  0.3790
   32SOL     OW   94   3.068   3.078   0.246  0.5005 -0.3632  0.2874
   32SOL    HW1   95   3.049   2.980   0.261 -0.4678  0.1482  0.7964
   32SOL    HW2   96   3.170   3.095   0.240  2.1858  0.5573 -1.3218
   33SOL     OW   97   0.910   0.206   0.649 -0.2475  0.8674 -0.0919
   33SOL    HW1   98   0.882   0.161   0.564  0.9317 -0.8332  2.6299
   33SOL    HW2   99   0.988   0.276   0.639 -1.9845  1.4423 -1.0152
   34SOL     OW  100   0.346   2.695   1.004 -0.3070 -0.2906 -0.2363
   34SOL    HW1  101   0.300   2.734   0.918 -3.5312 -1.0288  1.9428
   34SOL    HW2  102   0.425   2.755   1.041  0.1540 -0.2862  1.3480
   35SOL     OW  103   0.053   0.133   1.911  0.0447  0.5065  0.4136
   35SOL    HW1  104   0.078   0.033   1.928  0.1234 -0.4203 -0.5480
   35SOL    HW2  105   0.004   0.145   1.820 -0.7732 -3.1412  1.3256
   36SOL     OW  106   1.921   1.185   1.500 -0.5265  0.6647 -0.1352
   36SOL    HW1  107   1.993   1.137   1.553 -2.1124  2.2147 -0.4904
   36SOL    HW2  108   1.951   1.272   1.451 -1.0845  2.3467 -0.0372
   37SOL     OW  109   1.120   0.257   1.016  0.4889  0.1455  0.0198
   37SOL    HW1  110   1.138   0.351   0.978 -2.2348 -3.2273  0.0466
   37SOL    HW2  111   1.188   0.192   0.980  0.7318 -0.4279  1.5201
   38SOL     OW  112   1.162   2.843   2.449  0.1750  0.5624  0.5910
   38SOL    HW1  113   1.074   2.817   2.491  1.2153  1.0670 -0.3227
   38SOL    HW2  114   1.146   2.932   2.392  2.3355 -0.9180 -1.7635
   39SOL     OW  115   2.482   1.414   3.007  0.3372 -0.6138 -0.1804
   39SOL    HW1  116   2.539   1.336   3.044 -1.6955 -1.6764  0.5289
   39SOL    HW2  117   2.383   1.415   3.042 -1.6139  0.6186 -2.3986
   40SOL     OW  118   2.048   2.523   2.514 -0.3224 -0.1110 -0.1106
   40SOL    HW1  119   1.984   2.604   2.519 -1.9129 -0.5536 -1.4573
   40SOL    HW2  120   1.993   2.442   2.491 -1.6337 -0.9568  2.1978
   41SOL     OW  121   3.035   0.719   2.778 -0.5817 -0.3080  0.6466
   41SOL    HW1  122   3.032   0.804   2.838  0.7367  2.1228  0.5414
   41SOL    HW2  123   2.942   0.669   2.775  0.6561 -1.6434 -1.9104
   42SOL     OW  124   1.748   1.731   0.513 -0.8334  0.2746 -0.3676
   42SOL    HW1  125   1.716   1.632   0.517 -0.1559  1.0061 -0.0173
   42SOL    HW2  126   1.769   1.766   0.415  0.6717 -0.9608 -1.1619
   43SOL     OW  127   0.458   1.675   1.130 -0.0578  0.0280  0.3043
   43SOL    HW1  128   0.450   1.586   1.085  3.0886  2.7532 -0.2783
   43SOL    HW2  129   0.374   1.696   1.184 -0.1162 -0.2593 -0.1767
   44SOL     OW  130   1.674   2.323   2.919  0.1704 -0.1132 -0.1920
   44SOL    HW1  131   1.575   2.354   2.923 -0.9132 -1.6335 -1.8812
   44SOL    HW2  132   1.734   2.389   2.863  1.8848 -0.2799  2.7982
   45SOL     OW  133   0.367   1.910   2.637 -0.1935 -0.0858  0.3570
   45SOL    HW1  134   0.326   1.901   2.541 -1.6394  0.7840 -0.0152
   45SOL    HW2  135   0.436   1.830   2.652  0.9777 -1.2241  2.9263
   46SOL     OW  136   1.329   0.728   0.248  0.4368 -0.0985 -0.1067
   46SOL    HW1  137   1.311   0.809   0.190 -0.2968  0.6606  2.2525
   46SOL    HW2  138   1.280   0.643   0.220  0.2284 -1.0849 -1.5061
   47SOL     OW  139   0.116   2.395   1.599 -0.1474 -0.8119  0.1779
   47SOL    HW1  140   0.079   2.308   1.647  1.3980 -1.1958 -1.8838
   47SOL    HW2  141   0.153   2.377   1.504 -0.3155 -1.8659  1.2599
   48SOL     OW  142   2.634   0.710   0.125  0.0575  1.1547 -0.0545
   48SOL    HW1  143   2.611   0.662   0.219  1.6844 -1.2261 -0.3181
   48SOL    HW2  144   2.737   0.700   0.100 -0.0300  1.7002  0.1996
   49SOL     OW  145   0.342   0.836   1.737  0.1823  0.2566 -0.0098
   49SOL    HW1  146   0.428   0.851   1.793  1.8624  0.4902 -4.3590
   49SOL    HW2  147   0.358   0.765   1.664 -2.3701 -0.5884 -0.4949
   50SOL     OW  148   1.724   1.088   0.314 -0.2084 -0.0794  0.1444
   50SOL    HW1  149   1.741   0.989   0.282 -1.6543 -1.3495 -0.0114
   50SOL    HW2  150   1.672   1.092   0.404 -2.4194 -0.6311 -0.1469
   51SOL     OW  151   2.959   1.746   0.323  0.1482 -0.0938 -0.5762
   51SOL    HW1  152   2.889   1.698   0.382  2.0047 -2.3381 -0.9957
   51SOL    HW2  153   3.052   1.726   0.361  0.9718  1.5863 -1.0190
   52SOL     OW  154   0.772   2.163   0.560 -0.1686  0.0572  0.2201
   52SOL    HW1  155   0.673   2.141   0.538  0.5044 -0.7214 -0.9652
   52SOL    HW2  156   0.813   2.095   0.627 -1.7268 -1.3621  0.5345
   53SOL     OW  157   0.309   0.427   1.437  0.4016 -0.0926  0.0356
   53SOL    HW1  158   0.333   0.519   1.477 -0.0575 -0.4247 -0.6568
   53SOL    HW2  159   0.267   0.440   1.342 -0.4071 -0.6474 -0.2430
   54SOL     OW  160   1.735   0.436   0.007  0.7624  0.4035 -0.1542
   54SOL    HW1  161   1.812   0.394   0.062 -0.9658  1.1730  2.0304
   54SOL    HW2  162   1.641   0.434   0.056  0.7430  0.0505  0.1768
   55SOL     OW  163   0.782   2.951   0.623  0.4352 -0.2161  0.3679
   55SOL    HW1  164   0.723   3.034   0.627  2.2130  1.1603 -0.0798
   55SOL    HW2  165   0.882   2.974   0.628 -0.2108  1.6066 -3.0740
   56SOL     OW  166   0.568   1.536   3.054 -0.3516  0.3242  0.4012
   56SOL    HW1  167   0.492   1.575   3.118 -3.3609  0.6065  1.5454
   56SOL    HW2  168   0.535   1.456   2.991  0.0197 -0.3545  0.2904
   57SOL     OW  169   1.680   2.457   2.334 -0.3820  0.0193  0.2827
   57SOL    HW1  170   1.766   2.398   2.338 -1.7901 -0.4750  0.2837
   57SOL    HW2  171   1.636   2.456   2.429 -0.5208 -0.4511  1.0017
   58SOL     OW  172   0.645   0.213   1.090 -0.4030 -0.0310  0.3490
   58SOL    HW1  173   0.565   0.208   1.156  0.8204  1.0790  0.8874
   58SOL    HW2  174   0.690   0.117   1.082  4.8834  0.3939  1.0410
   59SOL     OW  175   0.457   2.364   2.632  0.5424 -0.2084 -1.0090
   59SOL    HW1  176   0.472   2.274   2.678  0.4124 -1.2029 -0.1900
   59SOL    HW2  177   0.543   2.425   2.635 -0.6813 -0.7127  1.5697
   60SOL     OW  178   2.309   2.020   2.294 -0.2010 -0.0454 -0.6751
   60SOL    HW1  179   2.376   2.061   2.224  0.0371 -0.1137 -0.4512
   60SOL    HW2  180   2.323   2.056   2.392 -0.2691 -1.3912  2.2633
   61SOL     OW  181   1.194   0.648   0.484  0.2116  0.3477 -0.6784
   61SOL    HW1  182   1.096   0.683   0.505 -1.6338  0.7679  2.2924
   61SOL    HW2  183   1.230   0.690   0.397  1.3445 -0.1951  1.1959
   62SOL     OW  184   2.805   1.711   2.687 -0.2842 -0.6025  0.0243
   62SOL    HW1  185   2.756   1.631   2.648  1.8401  0.3435  1.5541
   62SOL    HW2  186   2.841   1.694   2.780  1.1536  0.1615  0.3429
   63SOL     OW  187   0.540   0.901   0.197 -0.1713 -0.1337 -0.3251
   63SOL    HW1  188   0.567   0.964   0.118  0.5282 -0.9502 -0.4173
   63SOL    HW2  189   0.571   0.929   0.289  0.2997 -2.6386 -0.4676
   64SOL     OW  190   3.001   0.547   2.336 -0.0762  0.1521 -0.0561
   64SOL    HW1  191   2.942   0.594   2.408  0.1691  3.4302  1.5893
   64SOL    HW2  192   3.015   0.604   2.251  0.6058  4.0838 -1.5367
   65SOL     OW  193   0.233   1.444   0.688 -0.2694 -0.3633 -0.4935
   65SOL    HW1  194   0.230   1.527   0.751 -0.9682  0.3515 -1.4785
   65SOL    HW2  195   0.283   1.457   0.597 -0.8674 -1.3074  2.4078
   66SOL     OW  196   2.570   0.343   0.539  0.0941 -0.1829 -0.7815
   66SOL    HW1  197   2.668   0.330   0.540 -2.3312  0.5048 -0.3453
   66SOL    HW2  198   2.526   0.277   0.606  1.5731  1.6808  1.0621
   67SOL     OW  199   0.596   2.531   1.436 -0.2394 -0.2685  0.4039
   67SOL    HW1  200   0.680   2.509   1.493  0.4143 -1.9034  3.2352
   67SOL    HW2  201   0.528   2.451   1.433  0.2371  1.1820 -0.9907
   68SOL     OW  202   0.912   1.016   2.449 -0.1278  1.0103  0.6679
   68SOL    HW1  203   0.987   0.961   2.400 -0.7632  0.0770  0.0073
   68SOL    HW2  204   0.844   1.070   2.395  1.2183  3.7183  1.6566
   69SOL     OW  205   0.798   2.625   2.366  0.2085 -0.6494 -0.2586
   69SOL    HW1  206   0.821   2.553   2.298  2.1562 -0.8537 -0.9989
   69SOL    HW2  207   0.696   2.652   2.356 -0.9818 -0.5386  3.2583
   70SOL     OW  208   0.470   0.162   2.565  0.2797  0.2027  0.2011
   70SOL    HW1  209   0.414   0.122   2.642 -0.5408 -2.2308  0.8011
   70SOL    HW2  210   0.545   0.093   2.542  1.4125 -1.2544 -0.3595
   71SOL     OW  211   1.063   1.759   0.315 -0.0584  0.3629  0.1587
   71SOL    HW1  212   0.992   1.736   0.382  2.5318  1.1832 -1.9948
   71SOL    HW2  213   1.026   1.765   0.219  2.5784  1.6579  0.3570
   72SOL     OW  214   1.867   0.272   2.156  0.4811  0.1929  0.0119
   72SOL    HW1  215   1.935   0.329   2.094 -0.0509 -1.9574 -3.8319
   72SOL    HW2  216   1.900   0.172   2.175  0.5246 -0.6338  0.9606
   73SOL     OW  217   2.756   2.194   2.486 -0.1710  0.0998  0.1986
   73SOL    HW1  218   2.736   2.099   2.443 -2.2154  0.4103  1.3637
   73SOL    HW2  219   2.802   2.178   2.579  3.0596  1.3573  0.2099
   74SOL     OW  220   2.713   2.930   2.107  0.2408  0.2419 -0.0837
   74SOL    HW1  221   2.639   2.902   2.172  1.5685  0.6690 -0.3573
   74SOL    HW2  222   2.779   2.981   2.164 -0.0573  0.0334  1.6442
   75SOL     OW  223   0.955   0.813   1.160 -0.2180 -0.2473  0.1477
   75SOL    HW1  224   0.856   0.832   1.124  0.8167  2.5540 -1.6731
   75SOL    HW2  225   0.987   0.867   1.249  0.4678 -0.3756  1.0184
   76SOL     OW  226   1.868   1.284   2.628  0.2826 -0.4271  0.1401
   76SOL    HW1  227   1.769   1.268   2.665 -0.7443  0.1901  3.2347
   76SOL    HW2  228   1.894   1.388   2.642  5.6946 -0.7637  2.2180
   77SOL     OW  229   2.908   0.936   1.052  0.2981 -0.2786 -0.0611
   77SOL    HW1  230   2.875   0.835   1.054 -0.4665 -0.6087  1.5262
   77SOL    HW2  231   2.988   0.949   1.119 -0.4956 -1.4676 -0.9602
   78SOL     OW  232   1.978   1.436   1.354 -0.5822 -0.1593 -0.0822
   78SOL    HW1  233   2.053   1.424   1.286  0.6471 -0.3281 -0.7043
   78SOL    HW2  234   1.886   1.444   1.305 -0.1624  0.6516 -0.1062
   79SOL     OW  235   0.707   1.451   0.826  0.0978  0.4265  0.4456
   79SOL    HW1  236   0.608   1.427   0.850 -1.0292 -2.1389 -2.0240
   79SOL    HW2  237   0.773   1.365   0.833  2.0431 -0.5824  4.8306
   80SOL     OW  238   0.636   0.451   1.573  0.9773  0.4073  0.3227
   80SOL    HW1  239   0.640   0.513   1.491  0.1408 -1.8557 -2.2578
   80SOL    HW2  240   0.654   0.347   1.562  0.7822 -2.5230  3.3884
   81SOL     OW  241   1.085   1.265   2.517  0.0044 -0.0054 -0.4591
   81SOL    HW1  242   1.067   1.164   2.501 -1.0465  1.4621 -0.5797
   81SOL    HW2  243   0.999   1.322   2.496  0.6024  0.5956  1.3382
   82SOL     OW  244   0.913   2.950   1.554  0.3892  0.0875  1.0984
   82SOL    HW1  245   0.992   2.892   1.519  2.6830  1.3251  1.4851
   82SOL    HW2  246   0.836   2.952   1.488 -1.5265 -2.2185  1.7320
   83SOL     OW  247   2.643   2.390   0.864  0.1231 -0.6964  0.2716
   83SOL    HW1  248   2.589   2.338   0.794  1.3937  0.0753  2.6496
   83SOL    HW2  249   2.651   2.492   0.844  1.0754  1.8581  0.8383
   84SOL     OW  250   0.779   3.091   2.281 -0.1595  0.1576  0.0844
   84SOL    HW1  251   0.750   3.047   2.372  2.8407 -0.1543  1.5955
   84SOL    HW2  252   0.823   3.027   2.216 -1.4135 -0.8196 -0.0301
   85SOL     OW  253   0.318   1.713   1.366  0.8648 -0.4226  0.2905
   85SOL    HW1  254   0.270   1.797   1.409  0.6966  1.3144 -2.2812
   85SOL    HW2  255   0.378   1.664   1.435 -1.7103  0.5458 -0.2720
   86SOL     OW  256   0.455   1.047   1.470  0.7342  0.1542 -0.6428
   86SOL    HW1  257   0.415   0.983   1.396 -0.7419 -1.1166 -2.7996
   86SOL    HW2  258   0.555   1.031   1.490 -0.2458 -1.2468  1.6667
   87SOL     OW  259   1.610   0.637   0.291  0.6843 -0.4815 -0.2791
   87SOL    HW1  260   1.701   0.681   0.267 -1.7350  0.2001  0.4246
   87SOL    HW2  261   1.544   0.608   0.216 -1.8336 -0.8935  0.6416
   88SOL     OW  262   1.563   1.324   0.250 -0.6102  0.0327  0.0046
   88SOL    HW1  263   1.606   1.238   0.285  1.1894  0.3935 -2.0276
   88SOL    HW2  264   1.467   1.310   0.221  4.4959  0.3849 -1.2951
   89SOL     OW  265   0.006   0.392   0.677 -0.0722 -0.4307  0.3740
   89SOL    HW1  266   0.111   0.399   0.678 -0.2334  2.8531 -0.6777
   89SOL    HW2  267  -0.029   0.323   0.613 -0.6791  2.5293  0.9663
   90SOL     OW  268   0.742   1.529   0.159 -0.3810 -0.2877 -0.1928
   90SOL    HW1  269   0.822   1.463   0.151 -0.6251 -1.0827  1.0864
   90SOL    HW2  270   0.673   1.524   0.080 -0.2154 -1.1058  1.1007
   91SOL     OW  271   1.309   1.509   1.708  0.3106  0.1873 -1.0509
   91SOL    HW1  272   1.220   1.543   1.751 -1.4118  0.3897  1.3653
   91SOL    HW2  273   1.354   1.438   1.769  0.0559 -0.3338  2.1870
   92SOL     OW  274   0.013   1.003   1.220  0.0469  0.1868 -0.1972
   92SOL    HW1  275   0.072   1.077   1.172  2.0643 -0.3016 -2.0173
   92SOL    HW2  276   0.029   0.999   1.328  0.4618  0.5735  1.8868
   93SOL     OW  277   3.056   2.636   0.066 -0.6788  0.2058  0.2167
   93SOL    HW1  278   3.028   2.657  -0.030  1.4563  2.4860 -2.9275
   93SOL    HW2  279   3.118   2.555   0.076 -0.1069 -1.5076  0.4730
   94SOL     OW  280   1.497   1.307   1.675  0.2895  0.0967 -0.0385
   94SOL    HW1  281   1.571   1.237   1.688 -0.2876  1.5290  2.5182
   94SOL    HW2  282   1.529   1.405   1.684  1.9548  1.6082  0.1892
   95SOL     OW  283   1.355   2.472   2.915  0.2876 -0.4308  0.1396
   95SOL    HW1  284   1.273   2.500   2.970 -0.7323  0.6322  1.5919
   95SOL    HW2  285   1.354   2.366   2.904 -0.5768  1.0480 -1.3648
   96SOL     OW  286   0.569   2.168   1.306 -0.0980 -0.3315 -0.3198
   96SOL    HW1  287   0.509   2.148   1.224  0.1914  0.9531  0.4475
   96SOL    HW2  288   0.581   2.090   1.376 -0.5021  0.5541  2.5459
   97SOL     OW  289   0.245   1.612   2.392  0.0862  0.1640 -0.5792
   97SOL    HW1  290   0.229   1.704   2.346 -3.1702 -1.9165 -1.7466
   97SOL    HW2  291   0.224   1.628   2.495 -0.8056 -2.2869  2.1848
   98SOL     OW  292   2.170   1.670   1.201  0.5102  0.3015 -0.5265
   98SOL    HW1  293   2.130   1.575   1.190  2.6273  0.5418  1.3142
   98SOL    HW2  294   2.265   1.686   1.168  0.3999 -0.2586  0.8887
   99SOL     OW  295   2.611   2.029   1.293  0.1652 -0.0177 -0.2217
   99SOL    HW1  296   2.657   2.099   1.355 -0.3789  1.7827  3.2687
   99SOL    HW2  297   2.539   1.974   1.349  0.2593  0.7881 -0.0765
  100SOL     OW  298   2.333   0.363   2.118  0.2665 -0.2638 -0.0599
  100SOL    HW1  299   2.271   0.345   2.197  0.6161 -3.0200  0.7065
  100SOL    HW2  300   2.430   0.390   2.147  0.0531  1.3412 -0.3515
  101SOL     OW  301   0.362   1.457   0.435  0.2312 -0.4857 -0.2879
  101SOL    HW1  302   0.363   1.541   0.493 -2.2048 -0.4735 -3.5754
  101SOL    HW2  303   0.453   1.430   0.396 -1.5858 -0.2263 -3.8004
  102SOL     OW  304   2.246   1.068   0.830 -0.0569  0.0971  0.8070
  102SOL    HW1  305   2.209   0.967   0.828  1.1278  1.3742 -1.4584
  102SOL    HW2  306   2.346   1.074   0.805  2.1891  0.3556  0.3079
  103SOL     OW  307   2.274   0.085   0.381  0.3841  0.0853 -0.2145
  103SOL    HW1  308   2.327   0.105   0.295 -0.7355 -2.7314 -1.0750
  103SOL    HW2  309   2.319   0.008   0.435  3.2222 -1.1290  2.2325
  104SOL     OW  310   3.051   1.790   2.191 -0.4099  0.2277 -0.0231
  104SOL    HW1  311   3.122   1.769   2.120  0.7068  0.5608 -1.8009
  104SOL    HW2  312   2.968   1.850   2.160  2.5582  1.5250 -0.0974
  105SOL     OW  313   1.335   2.096   0.770 -0.2966  0.0464 -0.2996
  105SOL    HW1  314   1.303   2.162   0.697 -1.6749 -0.7721 -1.0482
  105SOL    HW2  315   1.351   2.002   0.737 -0.7354  1.4684 -1.2959
  106SOL     OW  316   2.141   0.412   1.419 -0.0745 -0.2552  0.4799
  106SOL    HW1  317   2.058   0.355   1.398 -0.3862 -0.1268 -2.6519
  106SOL    HW2  318   2.177   0.402   1.515  0.5841  3.0730 -1.3220
  107SOL     OW  319   1.931   2.909   1.151  0.4767 -0.3456 -0.2379
  107SOL    HW1  320   1.846   2.958   1.182 -0.8857  0.7668 -1.3625
  107SOL    HW2  321   1.906   2.826   1.099 -1.3506  2.0770  0.3770
  108SOL     OW  322   0.847   2.821   1.135  0.4228  0.0128 -0.4102
  108SOL    HW1  323   0.816   2.726   1.107  0.7425  0.1705 -1.1775
  108SOL    HW2  324   0.952   2.825   1.145 -0.9856 -1.3661 -0.1875
  109SOL     OW  325   2.166   0.161   0.719  0.2690  0.0517  0.4842
  109SOL    HW1  326   2.109   0.095   0.663 -0.0508  1.0141  0.4294
  109SOL    HW2  327   2.116   0.196   0.804 -0.5910  0.1492 -2.2847
  110SOL     OW  328   0.501   2.825   2.751  0.0513  0.5273 -0.1069
  110SOL    HW1  329   0.490   2.841   2.653  0.5057  1.3289  1.1353
  110SOL    HW2  330   0.580   2.761   2.778  1.9131  0.0643  1.9925
  111SOL     OW  331   1.329   0.573   2.271  0.0599  0.2026 -0.0146
  111SOL    HW1  332   1.265   0.631   2.324  0.1179  0.8657  1.2569
  111SOL    HW2  333   1.373   0.496   2.326  0.8545  3.7182  1.4167
  112SOL     OW  334   1.734   0.454   1.540  0.2062  0.1382  0.5076
  112SOL    HW1  335   1.716   0.505   1.452  0.7997 -0.1171 -1.8779
  112SOL    HW2  336   1.644   0.451   1.592  2.8987  1.5540 -0.4114
  113SOL     OW  337   2.341   1.670   1.792 -0.8956 -0.1873  0.0759
  113SOL    HW1  338   2.396   1.585   1.764  0.6571 -2.4195  1.1969
  113SOL    HW2  339   2.319   1.682   1.896 -2.3435  0.4128 -0.3508
  114SOL     OW  340   0.267   0.396   1.153 -0.7573 -0.2874 -0.1561
  114SOL    HW1  341   0.172   0.431   1.157 -3.7485  0.7903 -1.3714
  114SOL    HW2  342   0.327   0.456   1.098 -2.5578 -0.3996  0.4850
  115SOL     OW  343   2.691   1.517   1.264 -0.0472  0.1428 -0.1679
  115SOL    HW1  344   2.699   1.419   1.294 -2.8478 -1.6720 -2.7349
  115SOL    HW2  345   2.780   1.544   1.216  1.3266 -0.9094  0.5860
  116SOL     OW  346   1.932   0.917   0.746  0.3271  0.8354 -0.3971
  116SOL    HW1  347   1.846   0.877   0.709  1.7579 -1.9859 -0.2907
  116SOL    HW2  348   1.930   1.020   0.754 -0.7696 -0.1647 -1.2579
  117SOL     OW  349   1.134   0.361   0.540 -0.0385 -0.4440  0.1153
  117SOL    HW1  350   1.171   0.457   0.545 -2.2538  3.4814 -0.9135
  117SOL    HW2  351   1.091   0.332   0.445 -1.6799 -1.4265 -1.9477
  118SOL     OW  352   1.152   1.219   1.082 -0.2866  0.1150  0.3205
  118SOL    HW1  353   1.069   1.208   1.136  1.0737  1.3910 -0.0393
  118SOL    HW2  354   1.187   1.318   1.087  1.4906 -0.7732  0.7837
  119SOL     OW  355   1.871   1.574   2.202  0.1066  0.3800  0.1564
  119SOL    HW1  356   1.822   1.649   2.154  2.1159  0.1673  0.6804
  119SOL    HW2  357   1.972   1.554   2.176  0.3508 -1.7528 -1.7046
  120SOL     OW  358   2.979   2.799   0.279  0.1036 -0.0093 -0.3631
  120SOL    HW1  359   3.012   2.734   0.206  1.2306 -1.5064  2.6938
  120SOL    HW2  360   2.876   2.796   0.302 -1.4758  0.3056 -0.3936
  121SOL     OW  361   2.013   0.777   2.323 -0.0894  0.2032 -0.1230
  121SOL    HW1  362   2.055   0.866   2.279 -0.1713  1.1919 -1.0642
  121SOL    HW2  363   2.031   0.690   2.271  0.5319 -1.4872  0.5492
  122SOL     OW  364   2.635   2.502   1.353  0.4626 -0.1630  0.6200
  122SOL    HW1  365   2.666   2.441   1.278 -2.4967 -1.2145  0.7588
  122SOL    HW2  366   2.644   2.462   1.448 -1.8165 -0.2218 -1.9735
  123SOL     OW  367   1.651   0.172   1.687 -0.4264  0.5524 -0.6001
  123SOL    HW1  368   1.669   0.096   1.622  2.0418  0.8740  0.0409
  123SOL    HW2  369   1.739   0.206   1.727  0.4801  1.1628 -0.4829
  124SOL     OW  370   3.044   0.418   1.160  0.3243  0.2229  0.4493
  124SOL    HW1  371   2.961   0.462   1.202  2.1548 -0.6807 -1.4590
  124SOL    HW2  372   3.077   0.460   1.070  0.9388 -1.5510  0.8757
  125SOL     OW  373   0.880   1.990   0.738  0.3660 -0.1367  0.4711
  125SOL    HW1  374   0.982   1.970   0.767  2.9487  0.5843  3.8451
  125SOL    HW2  375   0.813   1.971   0.812  2.3561 -0.1901 -0.7827
  126SOL     OW  376   1.887   2.316   2.450  0.3417 -0.0888  0.3301
  126SOL    HW1  377   1.946   2.260   2.381 -1.4338 -2.8216 -1.6957
  126SOL    HW2  378   1.877   2.258   2.533  0.8854 -1.3323 -2.3885
  127SOL     OW  379   0.894   0.973   0.171 -0.1744 -0.1950 -0.3647
  127SOL    HW1  380   0.897   1.020   0.265  3.4298 -1.3170 -0.1121
  127SOL    HW2  381   0.912   0.873   0.180  0.6430  0.4654 -1.5096
  128SOL     OW  382   0.929   0.193   1.411  0.1901 -0.6035 -0.4175
  128SOL    HW1  383   0.895   0.257   1.331 -2.3147  3.8303 -1.7942
  128SOL    HW2  384   0.891   0.095   1.396 -2.2522 -2.7320 -1.4602
  129SOL     OW  385   1.879   0.727   1.850  0.5293  0.1291  0.0245
  129SOL    HW1  386   1.892   0.698   1.755 -1.2347 -0.9168  3.1376
  129SOL    HW2  387   1.912   0.827   1.863 -0.7789  2.9125 -2.7759
  130SOL     OW  388   1.370   2.189   1.016  0.8848 -0.8477  0.4538
  130SOL    HW1  389   1.360   2.145   0.919 -1.9005 -1.4119 -0.4966
  130SOL    HW2  390   1.419   2.279   1.007 -0.5755 -0.6293 -1.5555
  131SOL     OW  391   3.039   1.398   1.411 -0.9524  0.0440  0.0571
  131SOL    HW1  392   2.981   1.311   1.416  2.2360 -2.1113  0.8918
  131SOL    HW2  393   3.139   1.380   1.422  2.4164 -0.9346  2.5528
  132SOL     OW  394   2.051   2.426   0.557 -0.2682 -0.0397 -0.1249
  132SOL    HW1  395   1.948   2.438   0.537  0.0423 -0.9905  1.1461
  132SOL    HW2  396   2.070   2.345   0.617  1.3823 -0.6055 -1.5961
  133SOL     OW  397   1.758   2.518   2.746  0.0714 -0.3041 -0.5521
  133SOL    HW1  398   1.662   2.512   2.705  1.4053 -1.0234 -3.3363
  133SOL    HW2  399   1.772   2.602   2.808  0.9680  2.7750  0.9214
  134SOL     OW  400   2.625   2.400   1.607 -0.3319  0.3927  0.4358
  134SOL    HW1  401   2.571   2.372   1.691 -0.3295 -0.0118 -2.0848
  134SOL    HW2  402   2.665   2.493   1.624 -1.1946 -0.4711  0.4253
  135SOL     OW  403   0.814   1.376   2.663 -0.5262 -1.0429 -0.5597
  135SOL    HW1  404   0.740   1.319   2.699  1.9736 -2.9104  0.3822
  135SOL    HW2  405   0.815   1.384   2.559 -0.9131 -1.3988 -0.5246
  136SOL     OW  406   1.166   1.992   0.396  0.3493 -0.3187 -0.0258
  136SOL    HW1  407   1.113   2.071   0.443  0.4113 -0.7074 -1.0630
  136SOL    HW2  408   1.110   1.902   0.389  0.7057 -0.4440 -0.6902
  137SOL     OW  409   0.413   1.214   2.309  0.3163 -0.5945 -0.3575
  137SOL    HW1  410   0.315   1.183   2.324 -0.5509 -3.5671  0.0898
  137SOL    HW2  411   0.475   1.136   2.287  1.1285  1.2477 -0.1442
  138SOL     OW  412   2.453   1.486   0.246 -0.0310 -0.2484  0.3009
  138SOL    HW1  413   2.399   1.452   0.166  1.1683 -0.2602  3.1062
  138SOL    HW2  414   2.486   1.410   0.306 -1.4828 -1.8042 -0.8044
  139SOL     OW  415   1.869   2.651   1.579  0.5869 -0.1814  0.2416
  139SOL    HW1  416   1.777   2.669   1.534 -0.6849 -2.5650  0.4070
  139SOL    HW2  417   1.914   2.572   1.521  1.1554  0.4358 -2.6168
  140SOL     OW  418   2.996   2.966   2.568 -0.0470  0.0056  0.6011
  140SOL    HW1  419   3.044   2.886   2.612 -0.1362  3.1983  0.6429
  140SOL    HW2  420   3.061   3.051   2.568  2.6309 -1.8020 -2.4921
  141SOL     OW  421   1.322   1.653   1.479 -0.1268 -0.0289  0.0206
  141SOL    HW1  422   1.222   1.663   1.467  1.2781  2.6301 -2.8790
  141SOL    HW2  423   1.347   1.615   1.574  1.1049  0.0620  0.8579
  142SOL     OW  424   1.585   0.674   2.218  0.4932 -0.1308  0.3843
  142SOL    HW1  425   1.575   0.717   2.125 -1.9525 -1.0938 -0.0277
  142SOL    HW2  426   1.497   0.636   2.256 -0.2390 -1.8957  2.2722
  143SOL     OW  427   2.745   0.801   0.541 -0.0878  0.0599 -0.5598
  143SOL    HW1  428   2.802   0.846   0.468 -0.7001 -1.1092  0.8486
  143SOL    HW2  429   2.766   0.839   0.633  0.9562 -1.3164  1.5799
  144SOL     OW  430   2.904   1.150   1.428  0.6574 -0.2288  0.0012
  144SOL    HW1  431   2.832   1.150   1.502  0.8363  2.8063  2.4928
  144SOL    HW2  432   2.987   1.085   1.445  2.2930 -0.9941 -1.3994
  145SOL     OW  433   0.893   1.758   0.060  0.2382  0.2282 -0.8410
  145SOL    HW1  434   0.872   1.812  -0.025  0.9696 -0.5571 -0.7570
  145SOL    HW2  435   0.836   1.670   0.069 -0.6526 -2.1575 -1.8710
  146SOL     OW  436   2.473   0.647   1.521  0.0058  0.6267  0.4658
  146SOL    HW1  437   2.460   0.552   1.473  0.7601 -2.5675 -0.2179
  146SOL    HW2  438   2.404   0.712   1.484  0.4862 -1.7871 -1.7317
  147SOL     OW  439   1.078   2.487   0.570  0.6021  0.7070 -0.2313
  147SOL    HW1  440   1.021   2.554   0.515  1.1155  1.4208  1.2189
  147SOL    HW2  441   1.165   2.453   0.521  1.5391 -0.3132  0.9285
  148SOL     OW  442   1.591   1.443   3.088  0.4370 -0.3007 -0.1511
  148SOL    HW1  443   1.606   1.353   3.040  0.4809 -0.1032  0.7448
  148SOL    HW2  444   1.583   1.440   3.191 -0.9554  0.7189  0.0823
  149SOL     OW  445   0.673   1.498   2.005 -0.2008  0.1511  0.0246
  149SOL    HW1  446   0.601   1.453   2.066 -0.5421 -2.4962  0.8869
  149SOL    HW2  447   0.673   1.471   1.906 -1.2673  0.3189  1.6929
  150SOL     OW  448   3.014   1.209   0.954 -0.6231  0.6890  0.6133
  150SOL    HW1  449   3.112   1.224   1.001  1.6183 -0.4449 -0.9406
  150SOL    HW2  450   2.965   1.126   0.990 -0.4560 -1.8860  0.0344
  151SOL     OW  451   0.141   0.877   2.090  0.4942  0.0326 -0.1438
  151SOL    HW1  452   0.166   0.972   2.056 -0.4829 -0.5284 -0.0174
  151SOL    HW2  453   0.202   0.796   2.058  0.7261 -2.1813 -0.3921
  152SOL     OW  454   1.472   1.871   1.115 -0.3115 -0.2808  0.0400
  152SOL    HW1  455   1.515   1.962   1.119 -0.3161 -0.4115 -0.3231
  152SOL    HW2  456   1.371   1.882   1.115  0.6281  2.8445 -0.7420
  153SOL     OW  457   0.110   1.488   0.269 -0.6176 -0.2842 -0.0664
  153SOL    HW1  458   0.033   1.420   0.281 -2.4586  3.8708 -1.1439
  153SOL    HW2  459   0.139   1.525   0.359  1.9049 -1.6928 -1.0926
  154SOL     OW  460   2.317   1.841   2.774 -0.9833  0.1785 -0.3021
  154SOL    HW1  461   2.344   1.739   2.787  0.8874  0.5674  0.4234
  154SOL    HW2  462   2.383   1.898   2.719  0.7229  1.6436 -0.3355
  155SOL     OW  463   2.525   1.305   0.442  1.2255 -0.4384  0.0312
  155SOL    HW1  464   2.599   1.317   0.513 -1.4574  2.2994 -0.8020
  155SOL    HW2  465   2.504   1.207   0.419  3.2683 -0.6999  0.1754
  156SOL     OW  466   2.464   0.785   0.772  0.2033  0.3804  0.0186
  156SOL    HW1  467   2.375   0.733   0.775 -0.4481 -2.4050 -0.6939
  156SOL    HW2  468   2.478   0.852   0.697 -0.0459 -3.0161 -0.6177
  157SOL     OW  469   1.265   3.091   3.058 -0.1961 -0.1500 -0.4237
  157SOL    HW1  470   1.323   3.057   2.976 -2.2330  1.0937 -1.0283
  157SOL    HW2  471   1.298   3.190   3.075  0.8374 -0.0252  1.1099
  158SOL     OW  472   1.073   1.900   1.847 -0.2111 -0.8302 -0.2052
  158SOL    HW1  473   1.076   2.003   1.822  1.5339 -1.6459  1.8862
  158SOL    HW2  474   1.000   1.885   1.919  5.1415  2.3889  2.7577
  159SOL     OW  475   0.785   0.403   1.246  0.7147 -0.4248 -0.3625
  159SOL    HW1  476   0.734   0.483   1.292  0.4860 -0.4263 -0.9158
  159SOL    HW2  477   0.723   0.347   1.185 -2.2326 -2.7783  0.3043
  160SOL     OW  478   1.410   2.476   1.419 -0.7004 -0.3254 -0.4124
  160SOL    HW1  479   1.353   2.399   1.456 -1.2516  0.3457 -3.0192
  160SOL    HW2  480   1.511   2.453   1.412 -0.5213  0.8012  1.6705
  161SOL     OW  481   0.039   2.646   0.425  0.7867  0.2087 -0.0711
  161SOL    HW1  482  -0.011   2.558   0.430 -1.9007 -2.1933  0.9417
  161SOL    HW2  483  -0.018   2.728   0.393 -0.8467  1.4721  0.5290
  162SOL     OW  484   2.523   1.917   0.474 -0.1195  0.8253 -0.6012
  162SOL    HW1  485   2.566   1.913   0.378  0.3942 -2.6035 -1.9672
  162SOL    HW2  486   2.489   1.820   0.494  0.4601 -2.0398 -2.1334
  163SOL     OW  487   1.983   2.737   0.761 -0.1610  0.3872  0.3555
  163SOL    HW1  488   1.970   2.751   0.662  0.8052  0.4793  0.7054
  163SOL    HW2  489   2.033   2.650   0.780 -2.4368  0.2213 -0.4021
  164SOL     OW  490   3.095   0.124   1.234 -0.4183 -0.1838  0.0069
  164SOL    HW1  491   3.106   0.223   1.220  0.3878  0.0324  1.7863
  164SOL    HW2  492   3.146   0.097   1.318  1.4056  1.5385  0.3219
  165SOL     OW  493   1.111   1.430   0.618  0.1376 -0.5448  0.5414
  165SOL    HW1  494   1.094   1.515   0.676  1.4073 -0.7621 -1.1198
  165SOL    HW2  495   1.049   1.415   0.538 -1.1952  0.8665  2.3038
  166SOL     OW  496   1.520   0.982   1.851 -0.0130 -0.5565  0.3209
  166SOL    HW1  497   1.438   1.026   1.892  1.7338  0.5729  1.8499
  166SOL    HW2  498   1.577   1.053   1.802  1.4248 -1.5627 -0.5519
  167SOL     OW  499   0.666   2.006   1.527  0.1548  0.0098 -0.4427
  167SOL    HW1  500   0.696   2.069   1.604  0.7276  0.9155  0.6174
  167SOL    HW2  501   0.640   1.906   1.556 -1.5079 -0.7220 -0.2640
  168SOL     OW  502   1.617   2.290   0.129  0.2370  0.2109 -0.0551
  168SOL    HW1  503   1.690   2.264   0.066 -0.1749 -1.2932  0.7820
  168SOL    HW2  504   1.632   2.273   0.229 -0.9569 -1.7838 -1.3144
  169SOL     OW  505   3.070   2.604   2.183 -0.2875  0.3365  0.2630
  169SOL    HW1  506   3.091   2.547   2.096  0.2170  1.0608 -0.1358
  169SOL    HW2  507   3.124   2.566   2.262 -2.0122 -1.1169 -0.1583
  170SOL     OW  508   1.167   0.127   2.095  0.4320  0.2216  0.5465
  170SOL    HW1  509   1.263   0.170   2.119  1.9700  2.0616 -0.7170
  170SOL    HW2  510   1.140   0.142   1.995  0.0734 -1.9866  2.4061
  171SOL     OW  511   0.189   0.862   2.427  0.5432 -0.3863  0.2659
  171SOL    HW1  512   0.092   0.843   2.463  1.7487  0.6444  1.2221
  171SOL    HW2  513   0.199   0.921   2.340 -0.9086  1.7061 -1.7004
  172SOL     OW  514   0.982   0.972   2.811 -0.5956 -0.4974 -0.3416
  172SOL    HW1  515   0.968   1.039   2.892  1.6358  2.6781 -2.4513
  172SOL    HW2  516   0.938   1.013   2.728 -1.8366  1.8341 -0.2015
  173SOL     OW  517   0.352   2.575   0.027 -0.3242 -0.0388 -0.5425
  173SOL    HW1  518   0.424   2.522  -0.034  2.5744 -1.9875 -0.7258
  173SOL    HW2  519   0.346   2.536   0.128 -2.6860 -4.1804  0.9161
  174SOL     OW  520   1.472   2.873   1.029  0.1726 -0.1304 -0.3515
  174SOL    HW1  521   1.553   2.932   0.998 -1.4568  1.9462 -0.8781
  174SOL    HW2  522   1.454   2.793   0.970  1.6328  0.0711 -0.3751
  175SOL     OW  523   0.497   3.029   1.724  0.2297 -0.2027 -0.1813
  175SOL    HW1  524   0.542   3.038   1.819  0.7228 -1.4924 -1.5365
  175SOL    HW2  525   0.454   3.119   1.694  0.9065 -0.9878 -0.2516
  176SOL     OW  526   2.613   0.465   3.071 -0.5923  0.0762  0.1054
  176SOL    HW1  527   2.624   0.548   3.132  2.5678 -1.0111 -1.3079
  176SOL    HW2  528   2.626   0.380   3.126 -3.1411 -1.6172 -2.0142
  177SOL     OW  529   0.374   0.227   0.837 -0.3795 -1.5668 -0.0989
  177SOL    HW1  530   0.324   0.138   0.860 -2.2575  0.9721 -0.2642
  177SOL    HW2  531   0.477   0.212   0.823  1.8934  1.6484 -2.6861
  178SOL     OW  532  -0.001   2.720   2.672  0.6063 -0.1578 -0.4146
  178SOL    HW1  533  -0.044   2.626   2.670 -4.1321 -0.3959  1.6416
  178SOL    HW2  534   0.098   2.719   2.705  0.0889 -0.3700  2.4025
  179SOL     OW  535   2.966   1.592   1.230 -0.1490 -0.6616  0.5716
  179SOL    HW1  536   3.029   1.592   1.152 -0.0203  1.3093  1.8668
  179SOL    HW2  537   2.987   1.511   1.294 -1.9986 -3.0068  0.8124
  180SOL     OW  538   0.282   1.416   1.747  0.3605 -0.3923 -0.0596
  180SOL    HW1  539   0.363   1.363   1.791  1.5443 -0.2557  3.4625
  180SOL    HW2  540   0.204   1.422   1.810  2.1155  1.2239 -0.2827
  181SOL     OW  541   3.001   1.767   2.476  0.3216 -0.6599  0.1934
  181SOL    HW1  542   2.989   1.754   2.374  3.4676  0.7041 -1.9632
  181SOL    HW2  543   2.909   1.758   2.528 -1.7953  0.2381  0.0931
  182SOL     OW  544   2.204   1.377   1.187 -1.0351  0.2963  0.2149
  182SOL    HW1  545   2.204   1.277   1.201  0.9811  0.6611 -1.3441
  182SOL    HW2  546   2.285   1.404   1.126 -1.7234 -0.2684 -1.1750
  183SOL     OW  547   1.459   2.229   2.420  0.1007 -0.0905  0.3421
  183SOL    HW1  548   1.386   2.158   2.438  0.5540  1.2848  0.3612
  183SOL    HW2  549   1.551   2.184   2.398 -1.2957  1.7118 -1.1124
  184SOL     OW  550   2.176   0.789   0.732  0.0846 -0.1476  0.2285
  184SOL    HW1  551   2.079   0.819   0.765 -1.6967 -3.1262 -0.7918
  184SOL    HW2  552   2.186   0.682   0.722 -0.3552 -0.2665 -2.0516
  185SOL     OW  553   1.589   2.778   2.004  0.2421 -0.3575  0.3875
  185SOL    HW1  554   1.495   2.819   2.027 -0.5961 -1.0378  0.1489
  185SOL    HW2  555   1.644   2.766   2.092  1.3510  0.3532 -1.0412
  186SOL     OW  556   0.042   2.195   1.777 -0.7833 -0.0074 -0.0746
  186SOL    HW1  557   0.002   2.247   1.860 -1.5202  1.5301 -1.0128
  186SOL    HW2  558   0.143   2.154   1.785  1.3740 -0.6484 -2.2163
  187SOL     OW  559   1.320   0.703   1.629  0.2207 -0.5329 -0.4637
  187SOL    HW1  560   1.414   0.740   1.634 -1.3004 -0.2905  0.3855
  187SOL    HW2  561   1.324   0.603   1.661 -1.3950  2.5550  2.3272
  188SOL     OW  562   2.690   2.688   1.586  0.1879  0.2323  0.2229
  188SOL    HW1  563   2.666   2.770   1.638 -2.9658  1.0225 -0.1366
  188SOL    HW2  564   2.673   2.701   1.485 -1.4516 -1.3979  0.1109
  189SOL     OW  565   0.921   1.207   1.346 -0.6452 -0.2731  0.3781
  189SOL    HW1  566   0.963   1.244   1.436  0.6626 -0.7765  0.5499
  189SOL    HW2  567   0.873   1.279   1.286  0.0591 -0.7116 -1.2087
  190SOL     OW  568   1.448   1.875   1.526 -0.1295 -0.6789  0.1408
  190SOL    HW1  569   1.392   1.796   1.490 -0.5562  1.4818 -0.9347
  190SOL    HW2  570   1.444   1.882   1.628  0.4363 -1.4005  0.4474
  191SOL     OW  571   0.851   0.778   1.502 -0.2384 -0.2617  0.1279
  191SOL    HW1  572   0.903   0.689   1.534  2.1785 -1.7571 -2.0169
  191SOL    HW2  573   0.904   0.844   1.445 -1.7388  1.9995 -1.4152
  192SOL     OW  574   1.829   2.441   1.122  0.0612 -0.1585  0.2900
  192SOL    HW1  575   1.729   2.433   1.139  0.4712  1.3785  2.3893
  192SOL    HW2  576   1.866   2.360   1.085  0.4919  4.9136  0.3466
  193SOL     OW  577   0.519   0.542   0.405 -0.5932 -1.0665 -0.1789
  193SOL    HW1  578   0.456   0.464   0.397 -0.0038 -0.2403 -2.1434
  193SOL    HW2  579   0.580   0.556   0.323 -1.0565  0.3659 -1.6732
  194SOL     OW  580   0.393   0.831   1.278 -0.0294  0.2320  0.0232
  194SOL    HW1  581   0.293   0.800   1.291  0.3214 -0.8661 -1.2037
  194SOL    HW2  582   0.419   0.839   1.175  1.8911 -0.9623 -2.6030
  195SOL     OW  583   1.044   2.944   0.530  0.2598 -0.0547  0.1914
  195SOL    HW1  584   1.041   2.852   0.483  0.6209  0.0026 -0.3618
  195SOL    HW2  585   1.141   2.981   0.530  0.9158  0.0629 -0.5761
  196SOL     OW  586   0.233   1.406   1.302 -0.0067 -0.1829 -0.4492
  196SOL    HW1  587   0.271   1.504   1.291 -1.5582  1.1740 -1.1689
  196SOL    HW2  588   0.258   1.367   1.396 -1.7138  0.9059  1.0332
  197SOL     OW  589   0.809   1.936   0.265 -0.8364 -0.1722 -0.6234
  197SOL    HW1  590   0.836   1.905   0.362 -1.7013 -1.6723  1.0571
  197SOL    HW2  591   0.863   1.889   0.191 -1.7259  0.2798  0.8591
  198SOL     OW  592   0.270   1.208   0.345  0.1755  0.2430  0.2423
  198SOL    HW1  593   0.173   1.195   0.315  0.2934 -0.5672 -0.6905
  198SOL    HW2  594   0.287   1.306   0.370 -0.8611  0.7306 -3.5014
  199SOL     OW  595   2.225   0.421   2.623 -0.3056 -0.4131  0.6400
  199SOL    HW1  596   2.161   0.357   2.668  1.0234  0.6014 -2.1958
  199SOL    HW2  597   2.323   0.408   2.658 -1.8041 -1.1945  0.5716
  200SOL     OW  598   3.064   2.887   0.801  0.5009  0.0231  0.2264
  200SOL    HW1  599   3.086   2.981   0.836  0.0585 -0.6587  1.1854
  200SOL    HW2  600   2.978   2.884   0.740  0.6437 -0.6923 -0.2459
  201SOL     OW  601   0.915   0.692   0.541  0.4628 -0.4540  0.1567
  201SOL    HW1  602   0.902   0.784   0.592  1.3615  2.4144  1.7093
  201SOL    HW2  603   0.848   0.623   0.574 -1.6522  0.8836  1.0960
  202SOL     OW  604   0.448   1.245   1.902 -0.3686  0.6742  0.1018
  202SOL    HW1  605   0.544   1.210   1.875 -0.1476 -0.9444  3.4558
  202SOL    HW2  606   0.447   1.298   1.991 -1.9632  1.6995 -2.5553
  203SOL     OW  607   0.672   0.177   1.559 -0.2637 -0.3579 -0.2797
  203SOL    HW1  608   0.674   0.103   1.488  1.6434  1.3369 -0.5951
  203SOL    HW2  609   0.771   0.196   1.589 -1.9096  0.4882  0.6320
  204SOL     OW  610   2.086   1.835   2.942 -0.1104  0.3636  0.0703
  204SOL    HW1  611   2.045   1.737   2.953 -1.3134  2.4333  2.7566
  204SOL    HW2  612   2.153   1.838   2.860 -0.5483  0.1776  2.2226
  205SOL     OW  613   1.830   1.899   3.038 -0.3612 -0.3503  0.0144
  205SOL    HW1  614   1.925   1.869   3.005  0.4122 -0.0539 -2.5715
  205SOL    HW2  615   1.785   1.961   2.972  0.5340  1.3709  0.0422
  206SOL     OW  616   2.367   2.702   0.272  0.0500  0.3228 -0.2243
  206SOL    HW1  617   2.331   2.684   0.364 -1.0100  2.3971 -2.8538
  206SOL    HW2  618   2.468   2.683   0.260 -0.8300 -3.1490 -2.1411
  207SOL     OW  619   0.698   1.750   2.937  0.7579 -0.0023 -0.2706
  207SOL    HW1  620   0.780   1.715   2.886 -0.7608  0.3150 -1.9726
  207SOL    HW2  621   0.651   1.684   3.004 -0.6214 -0.7588 -0.8095
  208SOL     OW  622   0.991   1.560   1.247  0.0943  0.0044 -0.5830
  208SOL    HW1  623   0.920   1.595   1.179  1.5131  1.1876 -1.0851
  208SOL    HW2  624   0.972   1.590   1.342 -1.2418  1.2163 -1.4731
  209SOL     OW  625   0.227   0.988   3.055 -0.1772  0.1060  0.0526
  209SOL    HW1  626   0.265   0.919   2.983 -1.1012  1.4509  0.5855
  209SOL    HW2  627   0.185   0.929   3.131  1.4542 -2.7519  1.2806
  210SOL     OW  628   1.673   0.572   1.292  0.1477  0.4354 -0.4556
  210SOL    HW1  629   1.583   0.587   1.246  1.9492 -1.7045  0.4069
  210SOL    HW2  630   1.752   0.625   1.247  1.0765  2.0597 -0.0783
  211SOL     OW  631   2.192   1.035   1.579 -0.7798  0.5052  0.0035
  211SOL    HW1  632   2.216   1.048   1.683  2.6374  0.8159  0.8657
  211SOL    HW2  633   2.239   1.109   1.528  3.8653 -1.2075  3.4503
  212SOL     OW  634   0.037   1.036   1.494  0.0115 -0.5639 -0.1340
  212SOL    HW1  635   0.109   1.110   1.518 -3.0575  0.7914  1.5966
  212SOL    HW2  636   0.047   0.944   1.546 -0.0524  0.3157 -0.3589
  213SOL     OW  637   2.827   0.036   0.372 -0.2556 -0.4116 -0.4004
  213SOL    HW1  638   2.921   0.004   0.352 -1.7036  0.1278  1.7984
  213SOL    HW2  639   2.762   0.015   0.300 -0.8889  1.2411  0.2193
  214SOL     OW  640   2.156   0.341   2.352  0.1695 -0.0548  0.2066
  214SOL    HW1  641   2.187   0.371   2.442 -1.5262  1.5401 -3.1191
  214SOL    HW2  642   2.124   0.240   2.348 -1.3305 -1.7191 -0.4540
  215SOL     OW  643   1.673   2.269   2.082  0.3911  0.1577  0.0597
  215SOL    HW1  644   1.770   2.308   2.098  3.0087 -0.6195  0.0843
  215SOL    HW2  645   1.600   2.340   2.106 -1.1257  0.3467  1.2624
  216SOL     OW  646   2.270   0.513   0.766  0.6650  0.1475  0.0146
  216SOL    HW1  647   2.237   0.459   0.685  0.6065 -1.2223  0.9078
  216SOL    HW2  648   2.364   0.475   0.803 -0.8076 -1.4856 -0.8994
  217SOL     OW  649   0.924   2.750   2.569 -0.6962 -0.0094  0.0318
  217SOL    HW1  650   0.938   2.695   2.650 -0.4390  2.2461  2.0640
  217SOL    HW2  651   0.887   2.695   2.486  0.5126 -0.2876  2.6539
  218SOL     OW  652   1.882   1.406   0.022  0.1738 -0.0543 -0.1382
  218SOL    HW1  653   1.780   1.408   0.035  0.2219 -0.2400  1.4139
  218SOL    HW2  654   1.917   1.321   0.070 -0.5855  1.6353  0.6455
  219SOL     OW  655   2.439   1.263   2.500 -0.1345 -0.3122  0.0788
  219SOL    HW1  656   2.476   1.222   2.413  2.4115  2.2152  0.8192
  219SOL    HW2  657   2.434   1.187   2.574 -1.2166 -1.6603 -0.2469
  220SOL     OW  658   1.413   1.018   1.329  0.7504  0.1153 -0.0858
  220SOL    HW1  659   1.502   0.961   1.336  1.2690  0.4335  1.7597
  220SOL    HW2  660   1.397   1.063   1.236 -0.5343 -0.2944 -0.0954
  221SOL     OW  661   1.346   0.938   2.196  0.0363  0.6343 -0.1430
  221SOL    HW1  662   1.311   0.959   2.097 -2.5853  1.7277  0.9720
  221SOL    HW2  663   1.423   0.999   2.219 -0.0601 -0.6911 -2.6601
  222SOL     OW  664   1.154   0.050   1.203 -0.1404 -0.1632 -0.2518
  222SOL    HW1  665   1.216   0.059   1.286  0.2299 -0.1018  0.4636
  222SOL    HW2  666   1.165   0.125   1.133 -2.8543 -0.5220  0.0449
  223SOL     OW  667   2.729   0.960   2.131 -0.0691  0.6626 -0.2257
  223SOL    HW1  668   2.712   1.063   2.134 -1.6337 -0.2950  0.4466
  223SOL    HW2  669   2.798   0.929   2.205 -0.1752  1.4284  1.0415
  224SOL     OW  670   1.501   0.991   2.826 -0.6154  0.1571  0.1867
  224SOL    HW1  671   1.502   0.904   2.765  1.3932 -1.3857 -2.2428
  224SOL    HW2  672   1.562   1.065   2.795  0.7155 -1.5428  3.2678
  225SOL     OW  673   2.952   2.676   2.908 -0.5472 -0.1849 -0.6542
  225SOL    HW1  674   2.868   2.649   2.846 -1.8392  0.6408  0.9351
  225SOL    HW2  675   3.024   2.716   2.846  1.7878 -1.2846 -0.0481
  226SOL     OW  676   2.415   1.580   2.786 -0.1806  0.4066  0.5037
  226SOL    HW1  677   2.478   1.578   2.705 -0.9466 -0.5627  0.2576
  226SOL    HW2  678   2.451   1.541   2.874 -1.2553 -1.0843  0.5737
  227SOL     OW  679   0.903   0.249   3.050  0.4668 -0.8372 -0.6598
  227SOL    HW1  680   0.962   0.323   3.015 -1.9447 -0.8526  2.0882
  227SOL    HW2  681   0.842   0.209   2.979  0.5185  0.8730  1.5124
  228SOL     OW  682   2.434   0.663   2.866 -0.0218 -0.0172  0.3491
  228SOL    HW1  683   2.470   0.702   2.777  2.9819 -1.8405 -2.1400
  228SOL    HW2  684   2.503   0.607   2.917  0.4669 -0.6459 -1.1708
  229SOL     OW  685   0.574   0.618   1.835  0.9643  0.2692  0.0893
  229SOL    HW1  686   0.651   0.641   1.895  2.4511  1.7826 -0.7196
  229SOL    HW2  687   0.584   0.533   1.775 -0.7832  0.2224  0.2027
  230SOL     OW  688   1.882   1.224   1.932 -0.3931 -0.2699 -0.6130
  230SOL    HW1  689   1.950   1.286   1.888  0.0896 -4.2281  0.0501
  230SOL    HW2  690   1.853   1.253   2.028  2.2981 -0.2668  0.8633
  231SOL     OW  691   0.639   1.086   3.074  0.3478 -0.4186  0.4349
  231SOL    HW1  692   0.713   1.149   3.032  1.2009  2.6450 -1.6080
  231SOL    HW2  693   0.568   1.141   3.126  3.4525 -0.5910 -1.1070
  232SOL     OW  694   2.410   2.992   2.802  0.3228 -0.3113 -0.1953
  232SOL    HW1  695   2.481   2.916   2.802  0.8699 -0.8089  0.9724
  232SOL    HW2  696   2.433   3.068   2.738 -1.9433 -2.7637 -1.5374
  233SOL     OW  697   1.808   1.167   1.101  0.1447 -0.2062  0.2821
  233SOL    HW1  698   1.882   1.214   1.044  1.2000  1.1871  0.9302
  233SOL    HW2  699   1.823   1.068   1.132  1.5643 -0.9751 -0.5110
  234SOL     OW  700   1.653   2.504   1.826  0.3059  0.0813  0.0270
  234SOL    HW1  701   1.619   2.568   1.903  3.0787  1.0259 -1.0163
  234SOL    HW2  702   1.602   2.416   1.805  2.3827 -3.1031 -0.3576
  235SOL     OW  703   0.028   3.006   2.849  0.8127  0.5765  0.3897
  235SOL    HW1  704  -0.053   2.994   2.787 -0.5006  1.0972  1.4615
  235SOL    HW2  705  -0.003   3.027   2.946  1.1460  0.5020  0.2384
  236SOL     OW  706   2.900   0.704   0.072 -0.6338  0.4157 -0.1226
  236SOL    HW1  707   2.968   0.725   0.150  1.0227  1.5126  0.9062
  236SOL    HW2  708   2.937   0.623   0.011  0.0919 -1.4828 -0.5611
  237SOL     OW  709   1.537   1.694   0.886  0.5833  0.4320 -0.0093
  237SOL    HW1  710   1.628   1.649   0.898 -3.3647 -1.7373  0.2962
  237SOL    HW2  711   1.518   1.770   0.955 -1.7277  0.1849  3.2088
  238SOL     OW  712   1.897   1.171   0.759  0.5413 -0.1195 -0.0316
  238SOL    HW1  713   1.939   1.230   0.841 -0.2173  1.7565  2.7843
  238SOL    HW2  714   1.798   1.196   0.741 -0.2096 -0.4681  0.2469
  239SOL     OW  715   1.990   0.252   2.785  0.2294  0.4670  0.1598
  239SOL    HW1  716   2.035   0.200   2.865 -0.3480 -1.5943  1.8735
  239SOL    HW2  717   1.914   0.316   2.805  3.4887  1.1328 -0.8468
  240SOL     OW  718   0.943   0.698   0.239 -0.0629  0.1528  0.1826
  240SOL    HW1  719   1.024   0.632   0.220  0.5138 -1.7938 -0.8640
  240SOL    HW2  720   0.931   0.709   0.342 -3.2918  0.0229  0.7688
  241SOL     OW  721   0.586   0.102   0.326  0.3437 -0.3955  0.6046
  241SOL    HW1  722   0.645   0.178   0.279 -2.0538  3.2792 -0.7815
  241SOL    HW2  723   0.577   0.021   0.263  0.9012 -1.0518  0.0778
  242SOL     OW  724   0.593   2.608   1.182 -0.3205  0.4631  0.0042
  242SOL    HW1  725   0.600   2.584   1.284 -2.4723 -0.4767 -2.8029
  242SOL    HW2  726   0.582   2.717   1.170  0.2703  0.4292  0.1839
  243SOL     OW  727   1.080   0.634   2.416 -0.2557  0.1827  0.1024
  243SOL    HW1  728   0.992   0.641   2.366  4.0325 -3.9124  1.5978
  243SOL    HW2  729   1.078   0.555   2.484  1.3691 -1.1346  0.1232
  244SOL     OW  730   2.701   1.964   2.374  0.4197 -0.2035  0.2290
  244SOL    HW1  731   2.740   1.951   2.281  0.9280 -0.5969 -1.0787
  244SOL    HW2  732   2.641   1.884   2.400  0.1068 -0.1312  1.6176
  245SOL     OW  733   2.093   1.013   2.214 -0.3518 -0.3396 -0.5270
  245SOL    HW1  734   2.193   0.998   2.236  1.1885 -1.0119  0.5113
  245SOL    HW2  735   2.050   1.091   2.269 -0.1200 -0.5192  0.5882
  246SOL     OW  736   0.296   2.843   1.799 -0.2409  0.3957  0.3933
  246SOL    HW1  737   0.218   2.864   1.733 -0.7803  0.9816 -1.3158
  246SOL    HW2  738   0.380   2.895   1.769 -0.6983 -0.6237  5.4032
  247SOL     OW  739   2.240   0.566   3.031  0.1713  0.1160  0.5294
  247SOL    HW1  740   2.327   0.606   2.981  0.1465  0.1915  0.3859
  247SOL    HW2  741   2.156   0.628   3.020 -0.8812 -2.3704  1.2852
  248SOL     OW  742   2.199   1.828   1.617 -0.2543  0.3711  0.4476
  248SOL    HW1  743   2.273   1.769   1.666 -0.4938  2.9377 -1.5233
  248SOL    HW2  744   2.107   1.803   1.654 -1.7807 -1.0239  1.2549
  249SOL     OW  745   1.897   1.919   1.835 -0.3679 -0.1258  0.4852
  249SOL    HW1  746   1.906   1.857   1.750 -1.8105 -1.5214  0.1671
  249SOL    HW2  747   1.989   1.946   1.876  0.9994 -1.3786  0.5565
  250SOL     OW  748   0.953   0.702   1.877  0.3894 -0.8071  0.0319
  250SOL    HW1  749   1.004   0.651   1.953  1.4910  1.6023  1.5146
  250SOL    HW2  750   0.972   0.664   1.777  1.2910 -0.5534 -2.6478
  251SOL     OW  751   3.045   1.527   2.606  0.4021  0.0106  0.4776
  251SOL    HW1  752   3.027   1.628   2.582 -0.1809 -0.0032  0.0568
  251SOL    HW2  753   2.990   1.456   2.553  0.5734 -0.6910  2.5188
  252SOL     OW  754   1.551   0.832   1.595 -0.4042 -0.1767  0.2813
  252SOL    HW1  755   1.618   0.872   1.526 -1.1117  0.3797  1.1043
  252SOL    HW2  756   1.552   0.888   1.683 -1.9384 -1.1580  1.6586
  253SOL     OW  757   0.948   1.499   0.416 -0.1551 -0.2865  0.6701
  253SOL    HW1  758   0.918   1.460   0.322  0.9942  0.8837  1.9324
  253SOL    HW2  759   0.863   1.526   0.474 -1.0664  1.2100 -0.7753
  254SOL     OW  760   2.041   2.176   1.649 -0.5121 -0.0071  0.2766
  254SOL    HW1  761   1.998   2.125   1.569 -1.0981  2.0967 -0.9917
  254SOL    HW2  762   1.971   2.230   1.709  0.4639 -0.7606  1.1345
  255SOL     OW  763   0.101   1.189   2.912 -0.3543  0.3822 -0.3976
  255SOL    HW1  764   0.157   1.271   2.904 -1.5724 -2.5757  1.3235
  255SOL    HW2  765   0.150   1.120   2.976 -1.1202 -1.9901  1.7481
  256SOL     OW  766   2.795   1.411   1.758 -0.6116 -0.1215 -0.2115
  256SOL    HW1  767   2.691   1.420   1.785 -1.7950 -1.3523  1.7720
  256SOL    HW2  768   2.819   1.317   1.726  1.5782  1.3279 -3.1005
  257SOL     OW  769   0.850   0.246   1.867 -0.6747  0.3430 -0.1823
  257SOL    HW1  770   0.909   0.288   1.794 -5.4043  0.9065  1.5436
  257SOL    HW2  771   0.846   0.145   1.869  0.0024 -3.1735  0.1004
  258SOL     OW  772   2.961   1.166   0.510 -0.0723 -0.0535 -0.4687
  258SOL    HW1  773   2.873   1.221   0.513  3.1003 -1.2949 -2.3668
  258SOL    HW2  774   3.039   1.209   0.562 -3.4283 -0.7960  2.0160
  259SOL     OW  775   0.490   2.947   2.999  0.5626  0.4286 -0.3867
  259SOL    HW1  776   0.398   2.928   3.052 -1.7396 -0.8202  0.0075
  259SOL    HW2  777   0.495   2.891   2.913 -1.5885 -0.9600  0.2305
  260SOL     OW  778   2.751   0.749   2.782  0.1182  0.0594  0.4576
  260SOL    HW1  779   2.677   0.800   2.732 -2.5836 -2.9214 -0.5242
  260SOL    HW2  780   2.725   0.652   2.809  3.4460 -1.5370  1.5909
  261SOL     OW  781   2.669   1.263   1.307 -0.8730 -0.2048 -0.2663
  261SOL    HW1  782   2.588   1.227   1.252 -2.1536 -2.1349  1.2968
  261SOL    HW2  783   2.752   1.202   1.323 -0.2579  0.1094 -0.1077
  262SOL     OW  784   1.385   2.979   2.064  0.3394  0.2271  0.1952
  262SOL    HW1  785   1.453   3.034   2.001  1.3669 -0.0205 -2.1052
  262SOL    HW2  786   1.291   2.961   2.025  0.3502 -0.3480  2.7681
  263SOL     OW  787   0.814   0.626   2.305  0.1198 -0.3716  0.3729
  263SOL    HW1  788   0.757   0.547   2.263 -1.6841  2.8432  0.8905
  263SOL    HW2  789   0.836   0.699   2.232 -2.2264  1.3728 -0.3440
  264SOL     OW  790   2.272   0.802   0.413 -0.1463 -0.3460  0.1520
  264SOL    HW1  791   2.303   0.725   0.351  1.9719  1.0713 -1.1877
  264SOL    HW2  792   2.354   0.857   0.445  0.2433 -1.4828 -0.7723
  265SOL     OW  793   0.898   2.369   2.608 -0.4725 -0.8479 -0.1283
  265SOL    HW1  794   0.954   2.436   2.658 -3.4540 -0.4916  0.8691
  265SOL    HW2  795   0.828   2.317   2.668 -0.6573 -2.3311  0.4209
  266SOL     OW  796   1.279   1.796   3.056 -0.2917  0.2568  0.0187
  266SOL    HW1  797   1.265   1.837   3.154  2.2754 -0.5010 -0.9895
  266SOL    HW2  798   1.379   1.787   3.034 -1.9416  0.8138 -1.1580
  267SOL     OW  799   1.089   0.002   2.331 -0.2041 -0.6305  0.1404
  267SOL    HW1  800   1.016  -0.061   2.280  0.0891  1.6125 -3.4625
  267SOL    HW2  801   1.142   0.052   2.252  1.4916 -2.3058 -1.0045
  268SOL     OW  802   0.865   1.289   1.065  0.0499  0.4820  0.1817
  268SOL    HW1  803   0.774   1.321   1.109  0.6798  0.8343  0.7972
  268SOL    HW2  804   0.914   1.366   1.018 -0.9242  1.0181 -0.4154
  269SOL     OW  805   2.371   2.546   1.593 -0.2376  0.1957  0.3623
  269SOL    HW1  806   2.463   2.504   1.607 -3.0228 -1.3668  2.0541
  269SOL    HW2  807   2.334   2.605   1.668 -1.7328 -1.8051 -1.1505
  270SOL     OW  808   0.146   2.990   1.989 -0.4966  0.2626  0.4006
  270SOL    HW1  809   0.193   2.932   1.917 -1.2263 -1.0217 -2.1090
  270SOL    HW2  810   0.124   2.932   2.074  1.6625 -0.4467 -0.8154
  271SOL     OW  811   0.460   1.383   1.108 -0.0990  0.3300 -0.1057
  271SOL    HW1  812   0.449   1.372   1.002  0.5540 -0.1141 -3.1245
  271SOL    HW2  813   0.386   1.335   1.160  0.3602 -0.3523 -1.0875
  272SOL     OW  814   1.876   3.081   1.935 -0.1702 -0.2897 -0.0521
  272SOL    HW1  815   1.823   3.003   1.892 -1.2936 -0.7565  1.0889
  272SOL    HW2  816   1.877   3.164   1.874  1.5233  0.5216  2.0117
  273SOL     OW  817   1.468   1.464   2.852 -0.2764  0.2003  0.4925
  273SOL    HW1  818   1.367   1.448   2.829 -1.1905  0.0743  1.5860
  273SOL    HW2  819   1.486   1.465   2.954 -0.0770 -0.9424  0.3683
  274SOL     OW  820   1.130   0.577   2.059  0.9326  1.1143  0.1332
  274SOL    HW1  821   1.050   0.524   2.097  1.0606  1.0281 -1.2107
  274SOL    HW2  822   1.206   0.571   2.127 -1.9336  1.0322 -1.9932
  275SOL     OW  823   0.661   2.095   1.932  0.2418 -0.3552  0.4021
  275SOL    HW1  824   0.629   2.193   1.947 -1.4933 -0.4231 -2.9364
  275SOL    HW2  825   0.593   2.027   1.963  2.3901  0.9158  2.3072
  276SOL     OW  826   2.244   0.944   2.864  0.4201  0.3235 -0.1288
  276SOL    HW1  827   2.168   0.984   2.810  3.4102 -0.5344  0.5510
  276SOL    HW2  828   2.229   0.846   2.893 -0.7933  1.6614  1.5703
  277SOL     OW  829  -0.003   0.751   0.257 -0.1489  0.4021 -0.3789
  277SOL    HW1  830   0.074   0.818   0.248 -0.7133  1.6600 -0.1204
  277SOL    HW2  831   0.023   0.669   0.316  0.7766  0.1601 -0.9451
  278SOL     OW  832   0.288   0.220   3.023  0.8942 -0.1623  0.1677
  278SOL    HW1  833   0.368   0.180   2.973  1.4646  1.7654 -1.0213
  278SOL    HW2  834   0.300   0.321   3.050 -0.9770  1.6395  0.8998
  279SOL     OW  835   0.273   3.066   0.899 -0.3913 -0.3982 -0.6135
  279SOL    HW1  836   0.299   3.057   0.999  1.7675  1.5745 -0.2147
  279SOL    HW2  837   0.236   2.980   0.860 -0.1897  2.6141  0.7252
  280SOL     OW  838   1.581   2.902   2.425 -0.2447 -0.2391  0.2870
  280SOL    HW1  839   1.632   2.976   2.472 -0.3784 -1.3392  1.3252
  280SOL    HW2  840   1.489   2.931   2.379 -2.4886 -0.9301 -0.0022
  281SOL     OW  841   0.569   0.936   2.336  0.0726 -0.4141  0.8913
  281SOL    HW1  842   0.542   0.843   2.293 -0.4023  1.7028  0.3229
  281SOL    HW2  843   0.526   0.945   2.429 -0.3334  0.8337 -2.4189
  282SOL     OW  844   1.785   2.466   0.553 -0.0874  0.3524  0.2882
  282SOL    HW1  845   1.741   2.395   0.493  0.4210  1.2770 -3.4107
  282SOL    HW2  846   1.747   2.556   0.532 -0.0916 -1.1956  2.8474
  283SOL     OW  847   1.174   0.925   0.791  0.4140  0.3264  0.7583
  283SOL    HW1  848   1.188   0.887   0.887  1.4798  0.7822 -1.0651
  283SOL    HW2  849   1.152   1.025   0.792  0.4315 -1.5796  1.3669
  284SOL     OW  850   2.238   2.818   2.460 -0.0522  0.0075 -0.0498
  284SOL    HW1  851   2.340   2.834   2.455 -0.2219 -0.7406  0.4537
  284SOL    HW2  852   2.209   2.832   2.556 -0.2827  0.1333 -2.9631
  285SOL     OW  853   1.314   3.041   2.621 -0.2971 -0.0638 -0.2960
  285SOL    HW1  854   1.324   3.021   2.520  0.5375  0.2952  0.8854
  285SOL    HW2  855   1.250   3.118   2.633 -1.9934  0.2138 -0.3257
  286SOL     OW  856   0.294   0.395   0.658 -0.5365 -0.5747  0.0070
  286SOL    HW1  857   0.313   0.313   0.727  0.0257 -0.3758 -1.5212
  286SOL    HW2  858   0.334   0.365   0.566 -0.4838 -2.2590 -3.4371
  287SOL     OW  859   0.081   1.275   2.550 -0.4922 -0.3750 -0.2444
  287SOL    HW1  860   0.030   1.198   2.606 -0.0391  0.9418  1.3221
  287SOL    HW2  861   0.057   1.373   2.567  0.9515  0.9193 -0.0250
  288SOL     OW  862   1.528   2.704   1.674 -0.2455 -0.4186 -0.4327
  288SOL    HW1  863   1.581   2.640   1.733 -0.7183  0.4928 -0.8158
  288SOL    HW2  864   1.580   2.735   1.589  0.6639  0.5325  2.4417
  289SOL     OW  865   0.647   2.791   0.794  0.0386 -0.2274  0.2220
  289SOL    HW1  866   0.684   2.861   0.726 -1.8313 -0.9217 -1.4688
  289SOL    HW2  867   0.592   2.824   0.871  1.3877  1.8630 -3.1007
  290SOL     OW  868   2.837   1.150   1.700  0.0584 -0.2138  0.0831
  290SOL    HW1  869   2.766   1.083   1.738  0.7225  0.2500 -3.6889
  290SOL    HW2  870   2.935   1.128   1.725  2.2096  0.9844 -1.9109
  291SOL     OW  871   1.923   3.082   0.066 -0.2680  0.4348  0.6532
  291SOL    HW1  872   1.938   3.119   0.164  2.7171  1.3422  0.7718
  291SOL    HW2  873   1.999   3.123   0.007  0.0403  2.5987  2.4774
  292SOL     OW  874   2.981   1.215   3.082 -0.0513  0.8149  0.6681
  292SOL    HW1  875   2.934   1.305   3.058 -1.9394  3.1042 -0.8833
  292SOL    HW2  876   3.064   1.202   3.014 -0.2366 -0.3183 -0.8693
  293SOL     OW  877   0.577   2.077   0.296 -0.2322  0.1273  0.2422
  293SOL    HW1  878   0.554   2.143   0.376  1.2242 -0.4769 -1.3687
  293SOL    HW2  879   0.675   2.041   0.302 -1.1377  0.9706 -0.1557
  294SOL     OW  880   1.876   2.351   1.794  0.2159 -0.0238  0.9763
  294SOL    HW1  881   1.901   2.329   1.889 -0.9971 -0.4445  1.1686
  294SOL    HW2  882   1.801   2.423   1.786  0.1290  0.2079 -0.2669
  295SOL     OW  883   0.941   1.058   0.463 -0.0890 -0.3137 -0.2094
  295SOL    HW1  884   1.035   1.105   0.483  1.0881 -0.7456  0.3180
  295SOL    HW2  885   0.917   0.995   0.543 -0.4850  2.7046  0.1896
  296SOL     OW  886   1.110   2.163   2.752  0.6382  0.0225 -0.3721
  296SOL    HW1  887   1.020   2.216   2.747 -0.5581 -3.0306  2.7203
  296SOL    HW2  888   1.147   2.144   2.658 -1.2442 -1.3256 -0.8209
  297SOL     OW  889   1.272   0.552   1.171 -0.1377  0.6728 -0.4713
  297SOL    HW1  890   1.293   0.517   1.266 -2.3336  4.5545 -1.2096
  297SOL    HW2  891   1.351   0.590   1.120 -0.6197  0.4548  0.6562
  298SOL     OW  892   0.472   1.301   2.927 -0.0007 -0.4516 -0.1087
  298SOL    HW1  893   0.451   1.228   2.993  0.3762 -1.2617 -2.7646
  298SOL    HW2  894   0.507   1.266   2.834 -1.0292  0.4106  0.1938
  299SOL     OW  895   0.428   0.195   1.263 -0.9035  0.5489  0.5620
  299SOL    HW1  896   0.378   0.281   1.227  3.6374  0.1269  0.2888
  299SOL    HW2  897   0.440   0.206   1.365  1.1577  0.8184 -0.0048
  300SOL     OW  898   1.369   1.815   2.580 -0.0100 -0.0917 -0.4150
  300SOL    HW1  899   1.343   1.738   2.518 -0.6087  1.9385  3.5076
  300SOL    HW2  900   1.435   1.783   2.659 -2.0997 -0.8940 -0.0627
  301SOL     OW  901   0.371   0.302   0.379 -0.8413 -0.2180  0.0946
  301SOL    HW1  902   0.271   0.280   0.363 -2.1301 -0.7972 -2.1911
  301SOL    HW2  903   0.433   0.221   0.359 -1.0669  0.1659 -2.2140
  302SOL     OW  904   1.242   2.403   2.305 -0.0014 -0.3944 -0.1267
  302SOL    HW1  905   1.152   2.352   2.305 -2.1468 -0.4433 -0.1300
  302SOL    HW2  906   1.312   2.360   2.367 -0.8519 -1.0093 -0.4882
  303SOL     OW  907   0.917   2.436   0.800 -0.2650  0.1147 -0.2444
  303SOL    HW1  908   0.962   2.430   0.708 -4.3471 -0.0393 -1.0280
  303SOL    HW2  909   0.950   2.519   0.853 -0.2392  0.1408  1.4275
  304SOL     OW  910   0.152   1.906   0.687 -0.1066 -0.5674  0.6320
  304SOL    HW1  911   0.234   1.895   0.616  0.6089  0.1003  2.9339
  304SOL    HW2  912   0.069   1.941   0.641 -1.0999 -1.3290  1.5385
  305SOL     OW  913   1.666   0.843   0.697  0.1014 -0.7988  0.0708
  305SOL    HW1  914   1.597   0.860   0.618  0.2295 -2.1552  0.2288
  305SOL    HW2  915   1.699   0.745   0.707 -1.3891 -0.6401 -1.8986
  306SOL     OW  916   0.376   1.836   1.961  0.6451  0.4112  0.1538
  306SOL    HW1  917   0.448   1.790   1.904  0.8477 -0.2539  0.5359
  306SOL    HW2  918   0.414   1.878   2.049 -0.5688 -0.9471  2.9708
  307SOL     OW  919   3.011   0.877   2.542  0.1537  0.1109  0.5005
  307SOL    HW1  920   3.021   0.958   2.604 -1.0596  1.4434 -0.8548
  307SOL    HW2  921   2.988   0.793   2.597  1.6758 -0.0215  1.9948
  308SOL     OW  922   1.446   2.705   2.824  0.1434 -0.3007 -0.0438
  308SOL    HW1  923   1.436   2.700   2.716 -2.1683 -0.5298 -2.0625
  308SOL    HW2  924   1.407   2.620   2.870 -0.2528  0.2708  1.3302
  309SOL     OW  925   1.216   0.173   1.811 -0.3646 -0.1457  0.0219
  309SOL    HW1  926   1.297   0.113   1.792 -0.1770  2.0863 -0.4370
  309SOL    HW2  927   1.159   0.194   1.726 -0.7489 -0.1597  1.1524
  310SOL     OW  928   1.496   2.482   0.665  0.1324  0.0221  0.1679
  310SOL    HW1  929   1.440   2.494   0.750 -1.0961  0.3796 -2.0262
  310SOL    HW2  930   1.550   2.572   0.641  1.3347  1.7444 -0.8935
  311SOL     OW  931   1.081   0.959   1.778  0.9265 -0.0310  0.0032
  311SOL    HW1  932   1.026   0.879   1.812  0.4219  1.3021  2.5192
  311SOL    HW2  933   1.117   0.949   1.681 -0.2759  0.9548  1.0673
  312SOL     OW  934   1.515   0.625   1.032 -0.3149  0.3846 -0.5398
  312SOL    HW1  935   1.533   0.728   1.040  0.9587 -0.5652  0.7598
  312SOL    HW2  936   1.478   0.603   0.937 -3.3534  1.1533  1.0929
  313SOL     OW  937   1.633   1.272   0.774  0.4383 -0.0847 -0.8116
  313SOL    HW1  938   1.559   1.284   0.847  0.2564  0.6479  1.7642
  313SOL    HW2  939   1.593   1.232   0.687  0.5784  2.6961 -2.4740
  314SOL     OW  940   3.000   3.063   3.064  0.3478  0.1526 -0.7173
  314SOL    HW1  941   3.001   3.079   3.168 -1.4939 -1.4108 -0.5989
  314SOL    HW2  942   2.910   3.027   3.025 -0.7696 -1.9241 -2.6149
  315SOL     OW  943   1.193   0.209   2.808  0.0727 -0.3819 -0.3618
  315SOL    HW1  944   1.124   0.167   2.745 -1.8898  1.5436  0.9873
  315SOL    HW2  945   1.224   0.142   2.881 -0.3902  0.7326 -1.5750
  316SOL     OW  946   1.790   2.085   0.881  0.0238  0.2480 -0.5663
  316SOL    HW1  947   1.735   2.096   0.965 -1.4558  2.8368  0.9321
  316SOL    HW2  948   1.799   2.174   0.835  1.1594 -1.5866  2.5047
  317SOL     OW  949   1.166   0.713   2.724  0.0825  0.1676 -0.6156
  317SOL    HW1  950   1.153   0.739   2.824  1.9439  0.4798 -0.9073
  317SOL    HW2  951   1.107   0.634   2.694 -0.6291  1.5037 -2.1560
  318SOL     OW  952   1.378   3.066   2.339 -0.7609 -0.1547 -0.1232
  318SOL    HW1  953   1.438   3.152   2.330  0.2310 -0.7124 -2.8351
  318SOL    HW2  954   1.359   3.024   2.246  2.7929 -0.4890 -0.3195
  319SOL     OW  955   0.635   2.389   3.026 -0.1538  0.1916 -0.4293
  319SOL    HW1  956   0.576   2.310   3.054 -1.0157 -0.4485  0.3276
  319SOL    HW2  957   0.706   2.361   2.957  2.1265 -0.2709  2.7639
  320SOL     OW  958   1.689   2.257   0.421 -0.1889  0.6946 -0.1193
  320SOL    HW1  959   1.757   2.181   0.419  1.4512  1.0340  2.3285
  320SOL    HW2  960   1.596   2.228   0.450 -0.3275 -2.9374 -0.9360
  321SOL     OW  961   1.647   2.703   0.530 -0.1932 -0.2987 -0.3799
  321SOL    HW1  962   1.560   2.732   0.483 -1.7283  1.1396  0.9646
  321SOL    HW2  963   1.710   2.783   0.534 -1.1209 -2.1263 -1.9876
  322SOL     OW  964   2.550   1.109   2.315 -0.4510 -0.7718 -0.2255
  322SOL    HW1  965   2.612   1.093   2.400  0.3333  0.3446  2.2805
  322SOL    HW2  966   2.513   1.019   2.288  2.3254  0.2495  3.8751
  323SOL     OW  967   1.148   2.699   0.770 -0.0818 -0.0723  0.1532
  323SOL    HW1  968   1.159   2.627   0.689  0.5825 -0.1506 -3.5911
  323SOL    HW2  969   1.118   2.791   0.733  2.5356 -1.4283 -1.6350
  324SOL     OW  970   0.075   2.566   2.433 -0.7670  0.0157  0.3244
  324SOL    HW1  971   0.053   2.522   2.524  1.4953 -0.0149  1.0158
  324SOL    HW2  972   0.037   2.663   2.426  0.2910  0.0628  0.5270
  325SOL     OW  973   1.315   3.040   0.456  0.2999 -0.2262  0.1661
  325SOL    HW1  974   1.313   3.091   0.366  0.0606  3.4344  2.8093
  325SOL    HW2  975   1.322   3.108   0.534 -2.3439  1.3415  0.9680
  326SOL     OW  976   2.451   0.879   0.017 -0.0872  0.5883  0.2673
  326SOL    HW1  977   2.364   0.852   0.065 -1.8567 -1.7863 -0.5157
  326SOL    HW2  978   2.528   0.818   0.052 -0.4766  1.3959 -1.1726
  327SOL     OW  979   2.856   0.268   0.528 -0.2841 -0.6243  0.0818
  327SOL    HW1  980   2.832   0.209   0.447 -2.4830 -2.0689 -0.8144
  327SOL    HW2  981   2.878   0.208   0.608 -0.3601  0.8642  0.9284
  328SOL     OW  982   2.621   0.585   0.364  0.3584  0.2127  0.2990
  328SOL    HW1  983   2.649   0.626   0.454  2.8273 -0.3990 -0.0009
  328SOL    HW2  984   2.555   0.507   0.376  0.2764 -0.0297  0.5028
  329SOL     OW  985   2.917   3.042   2.244  0.1808  0.5330  0.0661
  329SOL    HW1  986   3.009   2.993   2.253  0.8029 -1.6604  0.4502
  329SOL    HW2  987   2.924   3.137   2.203  1.1561 -1.6233 -2.9658
  330SOL     OW  988   0.533   0.269   1.901  0.3672  0.5115  0.3257
  330SOL    HW1  989   0.616   0.280   1.846 -1.6652  1.6495 -0.0429
  330SOL    HW2  990   0.550   0.246   1.999  0.3123  0.6771 -0.7143
  331SOL     OW  991   0.012   1.904   1.112  0.5657  0.7087  0.1010
  331SOL    HW1  992  -0.008   1.945   1.019 -1.3658  0.9525  1.4123
  331SOL    HW2  993  -0.064   1.910   1.182 -0.0814  0.2657 -1.3344
  332SOL     OW  994   0.366   1.183   0.091  0.3322 -0.3104  0.3672
  332SOL    HW1  995   0.304   1.106   0.055 -0.3639  1.4677  1.7411
  332SOL    HW2  996   0.348   1.197   0.192 -1.0834  1.2902  1.2239
  333SOL     OW  997   2.915   0.930   0.364 -0.0191 -0.1437  0.5872
  333SOL    HW1  998   2.953   0.989   0.434 -1.5512 -2.5933 -1.3432
  333SOL    HW2  999   2.986   0.855   0.340  1.0317  3.7873 -0.4200
  334SOL     OW 1000   1.728   1.127   1.701  0.2248  0.5862 -0.2223
  334SOL    HW1 1001   1.771   1.136   1.606 -1.1756 -0.5457  0.5086
  334SOL    HW2 1002   1.793   1.172   1.773  0.2422  0.0179 -0.2352
  335SOL     OW 1003   1.933   2.802   2.583  0.0546 -0.4422 -0.6762
  335SOL    HW1 1004   1.859   2.789   2.658 -1.7803  0.6032 -0.1959
  335SOL    HW2 1005   2.020   2.847   2.616 -0.2358 -0.8184 -0.9547
  336SOL     OW 1006   0.250   0.074   2.765 -0.1232  0.0315  0.4784
  336SOL    HW1 1007   0.322   0.098   2.835 -0.3703 -1.1502 -0.1823
  336SOL    HW2 1008   0.181   0.004   2.798  0.8894  1.8542 -3.2184
  337SOL     OW 1009   0.855   2.860   3.027 -1.0265 -0.0702  0.0151
  337SOL    HW1 1010   0.859   2.784   3.098  0.5766 -0.4143  3.8478
  337SOL    HW2 1011   0.924   2.925   3.053 -3.4809 -3.7971 -0.2603
  338SOL     OW 1012   0.019   0.968   0.711 -0.0813  0.1872 -0.3462
  338SOL    HW1 1013  -0.080   0.933   0.701 -1.5071 -0.2596 -0.8236
  338SOL    HW2 1014   0.032   1.074   0.707  0.2577  0.4646 -0.6101
  339SOL     OW 1015   1.767   1.320   2.172  0.1077  0.3416 -0.3645
  339SOL    HW1 1016   1.684   1.329   2.114 -0.2820 -0.8870 -0.2172
  339SOL    HW2 1017   1.807   1.412   2.179 -1.0741 -0.2324  0.1368
  340SOL     OW 1018   2.256   0.805   1.077  0.5305 -0.4038  0.6116
  340SOL    HW1 1019   2.166   0.859   1.106  1.0993  2.8241  0.1234
  340SOL    HW2 1020   2.238   0.704   1.073 -0.7252  1.3822 -2.3635
  341SOL     OW 1021   1.900   2.074   0.352 -0.2235 -0.8392 -0.3002
  341SOL    HW1 1022   1.910   2.120   0.259  0.1356 -3.1777 -2.7189
  341SOL    HW2 1023   1.987   2.033   0.385 -0.6051 -0.6357  0.5016
  342SOL     OW 1024   2.190   2.151   2.760  0.1177  0.5925  0.5510
  342SOL    HW1 1025   2.226   2.069   2.810 -3.2540 -3.6323  1.4073
  342SOL    HW2 1026   2.088   2.142   2.731 -1.3205  2.8588 -0.0972
  343SOL     OW 1027   0.378   0.863   2.828 -0.3051 -0.4510  0.3624
  343SOL    HW1 1028   0.350   0.922   2.747 -0.2837 -1.0207 -0.0013
  343SOL    HW2 1029   0.479   0.873   2.862  1.7350 -2.0287  2.4030
  344SOL     OW 1030   1.954   1.451   0.364  0.2123 -0.7452  0.0855
  344SOL    HW1 1031   1.940   1.373   0.296  1.3766  2.8345 -1.4060
  344SOL    HW2 1032   1.864   1.492   0.394 -0.1767  1.6245 -0.6484
  345SOL     OW 1033   1.373   2.189   2.851  0.4507  0.0495 -0.1188
  345SOL    HW1 1034   1.275   2.187   2.828  4.5562 -1.2665  1.0068
  345SOL    HW2 1035   1.441   2.178   2.771 -0.8447  0.7078 -0.8440
  346SOL     OW 1036   2.304   0.841   1.378  0.3498 -0.4996 -0.6681
  346SOL    HW1 1037   2.235   0.902   1.421  0.5451 -0.4600  0.3717
  346SOL    HW2 1038   2.290   0.831   1.278  0.2468 -1.3649 -1.2849
  347SOL     OW 1039   0.735   2.799   1.691 -0.5234  0.2440  0.1882
  347SOL    HW1 1040   0.815   2.858   1.658  0.1909  0.2841  0.1904
  347SOL    HW2 1041   0.670   2.791   1.616  0.8248  0.1942  2.3046
  348SOL     OW 1042   0.210   0.648   2.855  0.2268 -0.3012 -0.5049
  348SOL    HW1 1043   0.140   0.658   2.781  1.9256 -0.1774 -0.6904
  348SOL    HW2 1044   0.289   0.716   2.844 -3.2434  2.8576  1.4714
  349SOL     OW 1045   1.785   0.419   2.818 -0.4340  0.2341 -0.0506
  349SOL    HW1 1046   1.775   0.515   2.774 -0.3931  0.4391  0.2189
  349SOL    HW2 1047   1.770   0.422   2.922 -0.1088 -0.8167  2.0973
  350SOL     OW 1048   1.684   0.383   0.387 -0.0959 -0.0517  0.5032
  350SOL    HW1 1049   1.764   0.379   0.451  1.5624  3.0193 -2.9833
  350SOL    HW2 1050   1.678   0.470   0.338  5.2005 -4.1869 -0.6706
  351SOL     OW 1051   0.850   0.821   2.102 -0.3264 -0.5554 -0.5927
  351SOL    HW1 1052   0.900   0.912   2.114  0.2973 -0.1147  0.1998
  351SOL    HW2 1053   0.858   0.782   2.008  3.6139 -0.0191  3.0991
  352SOL     OW 1054   2.067   1.354   0.598 -0.2793  0.4773  0.0504
  352SOL    HW1 1055   2.026   1.396   0.514  2.0152  0.1497 -0.9099
  352SOL    HW2 1056   2.014   1.277   0.646  0.0988 -1.7350 -2.7643
  353SOL     OW 1057   2.189   2.716   1.117 -0.2915  0.0739  0.1405
  353SOL    HW1 1058   2.269   2.649   1.138 -1.6344 -0.7929  3.0476
  353SOL    HW2 1059   2.144   2.754   1.204 -0.6813 -2.1269  0.3996
  354SOL     OW 1060   0.221   1.445   2.901  0.0380 -0.1239  0.2352
  354SOL    HW1 1061   0.221   1.509   2.818  3.4304 -0.2581 -0.2055
  354SOL    HW2 1062   0.316   1.408   2.925  0.3255 -1.1728 -0.6376
  355SOL     OW 1063   0.729   1.599   0.601  0.3737  0.6317 -0.3120
  355SOL    HW1 1064   0.733   1.540   0.685 -2.2664  1.6375 -2.4172
  355SOL    HW2 1065   0.671   1.557   0.527  0.6769  1.5381  1.1568
  356SOL     OW 1066   0.977   0.333   2.112  0.2587 -0.2915 -0.3765
  356SOL    HW1 1067   1.043   0.260   2.132  0.6210  3.3941  0.8873
  356SOL    HW2 1068   0.920   0.317   2.026  2.4475  0.4969 -0.5465
  357SOL     OW 1069   0.983   1.406   0.167  0.0950  0.6177 -0.1937
  357SOL    HW1 1070   1.027   1.349   0.096 -0.4271  1.3352  0.2000
  357SOL    HW2 1071   1.052   1.478   0.193  0.1083 -0.3748 -0.7926
  358SOL     OW 1072   1.681   1.468   0.482  0.0726 -0.0889 -0.4138
  358SOL    HW1 1073   1.634   1.443   0.570 -1.2498  1.6516 -0.9686
  358SOL    HW2 1074   1.644   1.416   0.402 -0.6039 -1.0321 -0.9962
  359SOL     OW 1075   1.608   2.574   0.213 -0.5008 -0.3298 -0.0703
  359SOL    HW1 1076   1.623   2.475   0.181 -0.3399 -1.4952  0.6540
  359SOL    HW2 1077   1.508   2.591   0.228 -1.0713  0.6328 -2.0227
  360SOL     OW 1078   0.725   0.494   0.600 -0.3313  0.3457  0.2155
  360SOL    HW1 1079   0.655   0.517   0.526  0.0585  3.1574 -2.2314
  360SOL    HW2 1080   0.768   0.404   0.606  0.1025  1.7304 -0.3579
  361SOL     OW 1081   1.349   1.323   0.621  0.1162  0.0939 -0.4957
  361SOL    HW1 1082   1.373   1.343   0.723 -1.3790  1.2352  1.8806
  361SOL    HW2 1083   1.257   1.366   0.601 -0.3839 -0.9596  1.2100
  362SOL     OW 1084   1.368   1.828   0.685  0.0332 -0.4823  0.3319
  362SOL    HW1 1085   1.393   1.756   0.756 -0.3745 -1.0858 -0.3457
  362SOL    HW2 1086   1.447   1.864   0.628  0.0625 -0.0811  1.0340
  363SOL     OW 1087   1.288   1.353   1.975 -0.6101 -0.2844 -0.7164
  363SOL    HW1 1088   1.374   1.356   2.036  0.1353 -0.2534 -2.9485
  363SOL    HW2 1089   1.205   1.397   2.016  0.4542 -1.3739  0.2003
  364SOL     OW 1090   0.554   2.373   1.956 -0.0000  0.2820 -0.1449
  364SOL    HW1 1091   0.453   2.371   1.986 -0.0260  0.2255 -1.1698
  364SOL    HW2 1092   0.581   2.471   1.927 -3.0394  0.7301  1.0831
  365SOL     OW 1093   0.926   1.974   1.444 -0.0517 -0.1904  0.2523
  365SOL    HW1 1094   0.827   1.981   1.476  0.3227  0.1238  1.6419
  365SOL    HW2 1095   0.928   1.993   1.344  1.3807 -0.8858 -0.6474
  366SOL     OW 1096   2.748   1.929   0.249  0.1236 -0.4578  0.3116
  366SOL    HW1 1097   2.676   1.877   0.207 -0.2098  2.1846 -0.0365
  366SOL    HW2 1098   2.832   1.875   0.266 -2.0671 -0.9571 -1.7347
  367SOL     OW 1099   0.941   1.111   3.038  0.5978 -0.6098 -0.3163
  367SOL    HW1 1100   0.930   1.054   3.123  1.2073  2.3507  0.6064
  367SOL    HW2 1101   1.018   1.181   3.052 -0.2219 -0.7492 -2.6719
  368SOL     OW 1102   1.450   0.546   0.505 -0.3024 -0.2509 -0.5785
  368SOL    HW1 1103   1.363   0.603   0.487  2.2971  0.0980 -1.9956
  368SOL    HW2 1104   1.522   0.578   0.442 -0.7249 -1.8349  1.6663
  369SOL     OW 1105   0.389   1.617   0.137 -0.1475  0.9888 -0.1268
  369SOL    HW1 1106   0.446   1.687   0.186 -0.5917 -0.5041 -2.5303
  369SOL    HW2 1107   0.319   1.566   0.197 -2.7395  0.8025  1.0106
  370SOL     OW 1108   0.438   2.182   1.069 -0.3858 -0.6169 -0.8198
  370SOL    HW1 1109   0.454   2.283   1.039 -1.9858  0.9855 -0.9650
  370SOL    HW2 1110   0.346   2.145   1.040  1.3772 -2.0179  0.1441
  371SOL     OW 1111   2.906   2.186   2.727  0.0833 -0.3953 -0.4750
  371SOL    HW1 1112   2.967   2.102   2.720 -0.5935 -2.9192 -2.0859
  371SOL    HW2 1113   2.926   2.249   2.804 -0.0675 -2.8781  0.8273
  372SOL     OW 1114   0.990   2.051   1.162 -0.4074  0.0211 -0.1665
  372SOL    HW1 1115   0.938   2.092   1.084 -2.6794  3.1674  1.0334
  372SOL    HW2 1116   1.072   2.113   1.187 -0.3426 -1.5893  1.2659
  373SOL     OW 1117   1.942   1.911   1.047 -0.1915 -0.2405  0.0971
  373SOL    HW1 1118   2.039   1.926   1.083  0.4811  1.3149  0.9188
  373SOL    HW2 1119   1.899   1.986   0.988  1.6462 -2.0574 -0.4630
  374SOL     OW 1120   1.914   0.396   0.553  0.0850 -0.2108 -0.2172
  374SOL    HW1 1121   1.905   0.323   0.631  0.7802 -1.7711  0.3809
  374SOL    HW2 1122   2.011   0.392   0.524 -1.2690  0.3879 -1.5431
  375SOL     OW 1123   2.425   2.188   1.140  0.1038  0.1015  0.3034
  375SOL    HW1 1124   2.434   2.205   1.036  0.1149 -0.8878 -2.8544
  375SOL    HW2 1125   2.505   2.131   1.183  0.9013  1.5747  1.8728
  376SOL     OW 1126   3.091   0.629   1.443 -0.4700 -0.1719 -0.2218
  376SOL    HW1 1127   3.101   0.703   1.518  0.1498  3.0843  0.6108
  376SOL    HW2 1128   3.051   0.534   1.463 -2.0587  0.0799  0.8714
  377SOL     OW 1129   2.222   2.930   0.190  0.9383 -0.0466 -0.1742
  377SOL    HW1 1130   2.158   2.969   0.261 -2.8197 -1.1997 -0.2743
  377SOL    HW2 1131   2.280   2.853   0.231  0.7523  0.6473  2.5869
  378SOL     OW 1132   1.893   1.898   2.513  0.1223  0.3512  0.3612
  378SOL    HW1 1133   1.989   1.875   2.492 -1.4336 -0.4240  0.1040
  378SOL    HW2 1134   1.824   1.835   2.472  1.3052  2.6863 -0.1285
  379SOL     OW 1135   0.749   0.150   2.820  0.3237  0.0551  0.5906
  379SOL    HW1 1136   0.756   0.051   2.782 -1.8998 -0.5513 -3.9319
  379SOL    HW2 1137   0.755   0.228   2.752  0.9005 -3.4747 -0.4875
  380SOL     OW 1138   1.537   1.125   0.521  0.1282 -0.3600  0.6750
  380SOL    HW1 1139   1.463   1.189   0.554 -0.8763  1.1913  0.4365
  380SOL    HW2 1140   1.499   1.025   0.510  1.4960  1.0435  0.1152
  381SOL     OW 1141   1.254   1.307   1.507  0.1760  0.0806 -0.6285
  381SOL    HW1 1142   1.310   1.239   1.452 -1.3934 -1.0529 -0.1481
  381SOL    HW2 1143   1.306   1.368   1.572  0.9219  1.7977  0.2897
  382SOL     OW 1144   1.828   0.837   0.248 -0.2634 -0.0622 -0.0309
  382SOL    HW1 1145   1.866   0.768   0.179 -2.1965 -0.3420 -0.0862
  382SOL    HW2 1146   1.894   0.868   0.323 -1.3987  0.6604  1.9264
  383SOL     OW 1147   2.512   0.975   1.466 -0.2344  0.5172  0.1569
  383SOL    HW1 1148   2.410   0.948   1.441  1.2084 -0.1024 -2.5291
  383SOL    HW2 1149   2.576   0.968   1.384  1.2145 -1.2413 -0.0674
  384SOL     OW 1150   0.945   2.296   0.246 -0.3660  0.6956 -0.5004
  384SOL    HW1 1151   0.847   2.326   0.239  0.3622 -0.7831  0.0688
  384SOL    HW2 1152   0.974   2.283   0.341  0.9636 -1.1920 -0.8228
  385SOL     OW 1153   2.950   2.033   1.685 -0.2507  0.0005 -0.1255
  385SOL    HW1 1154   3.026   2.093   1.725 -0.7532  0.6293  1.1172
  385SOL    HW2 1155   2.985   1.940   1.649 -2.2497  0.6111  0.0028
  386SOL     OW 1156   0.471   1.067   0.461 -0.1827  0.0703 -0.0665
  386SOL    HW1 1157   0.457   0.963   0.476  2.1161  3.3069  2.4643
  386SOL    HW2 1158   0.392   1.109   0.414  0.8155 -0.5116  1.2467
  387SOL     OW 1159   0.981   0.345   1.653 -0.3507 -0.5763 -0.1101
  387SOL    HW1 1160   0.998   0.447   1.656 -0.4955 -2.1044 -0.9394
  387SOL    HW2 1161   0.958   0.307   1.561 -1.6558 -0.5553  0.1462
  388SOL     OW 1162   1.204   2.707   1.744 -0.4303  0.3081  0.2489
  388SOL    HW1 1163   1.263   2.713   1.661 -0.6993 -2.1316 -0.8433
  388SOL    HW2 1164   1.244   2.635   1.806 -1.5229  1.0105  0.3768
  389SOL     OW 1165   0.130   2.904   1.331 -0.0346 -0.3678 -0.1910
  389SOL    HW1 1166   0.030   2.894   1.312 -0.1623  1.1029 -0.6413
  389SOL    HW2 1167   0.180   2.817   1.324 -0.7286  0.4764  1.1557
  390SOL     OW 1168   1.020   0.962   1.387  0.1503  0.8256 -0.3428
  390SOL    HW1 1169   1.106   0.956   1.444  0.2473 -0.3703  0.1473
  390SOL    HW2 1170   0.993   1.057   1.360 -2.1777  1.3476  2.5838
  391SOL     OW 1171   2.193   1.113   1.132 -0.6926 -0.3671 -0.1518
  391SOL    HW1 1172   2.123   1.048   1.170 -0.4921  0.8443  2.0099
  391SOL    HW2 1173   2.198   1.114   1.031  0.2322  0.0574  2.3254
  392SOL     OW 1174   0.881   2.635   0.079 -0.0427 -0.2583 -0.3422
  392SOL    HW1 1175   0.975   2.596   0.078 -0.6140  0.4685  0.0403
  392SOL    HW2 1176   0.814   2.569   0.131  0.3740 -0.3117  1.9285
  393SOL     OW 1177   0.277   0.677   1.988  0.4313  0.0120 -0.1789
  393SOL    HW1 1178   0.256   0.574   1.982  0.1567  0.3051 -1.5786
  393SOL    HW2 1179   0.329   0.705   1.906 -1.7133 -1.0461 -0.0677
  394SOL     OW 1180   3.051   1.953   2.680  0.5698  0.0910 -0.0184
  394SOL    HW1 1181   3.131   1.923   2.737  0.4466 -2.9204  2.4419
  394SOL    HW2 1182   3.048   1.896   2.593 -1.1624  0.0345  1.7285
  395SOL     OW 1183   1.611   1.957   0.627  0.3076  0.4809  0.5081
  395SOL    HW1 1184   1.664   1.872   0.603 -2.1954  0.4760 -1.1338
  395SOL    HW2 1185   1.660   2.029   0.685  0.4309  0.7822  0.7276
  396SOL     OW 1186   2.907   1.869   1.268  0.7404  0.6737 -0.3247
  396SOL    HW1 1187   2.931   1.767   1.262 -1.1175  2.2444 -0.6721
  396SOL    HW2 1188   2.815   1.879   1.315  0.0995  1.8492  2.0132
  397SOL     OW 1189   1.036   2.215   0.491  0.4883 -0.1972  0.3387
  397SOL    HW1 1190   0.939   2.188   0.517  0.2505 -2.2910  2.2578
  397SOL    HW2 1191   1.057   2.303   0.542 -1.8727 -1.0846  0.3464
  398SOL     OW 1192   2.147   3.060   1.125  0.4330  0.5064  0.2469
  398SOL    HW1 1193   2.076   2.987   1.149 -1.9910  0.9013  2.1143
  398SOL    HW2 1194   2.101   3.140   1.077 -0.1741 -1.1878  0.2067
  399SOL     OW 1195   3.046   2.458   2.652  0.3073  0.0711  0.1058
  399SOL    HW1 1196   2.953   2.434   2.603  0.7140 -4.6495 -1.3907
  399SOL    HW2 1197   3.095   2.374   2.681  1.7715  2.0438  2.2784
  400SOL     OW 1198   0.678   1.667   1.372 -0.0034  0.3824 -0.1117
  400SOL    HW1 1199   0.623   1.721   1.442 -1.1167 -1.1273  2.0015
  400SOL    HW2 1200   0.655   1.685   1.275  0.2223 -0.8693 -0.3500
  401SOL     OW 1201   1.834   0.271   1.152  0.1900 -0.1553 -0.1586
  401SOL    HW1 1202   1.860   0.294   1.249 -0.7907  3.1040 -1.8867
  401SOL    HW2 1203   1.773   0.340   1.100  1.6815  1.0393 -1.0147
  402SOL     OW 1204   1.339   0.257   3.079 -0.1953  0.6548  0.0516
  402SOL    HW1 1205   1.418   0.227   3.016  0.4521 -1.4407  0.9168
  402SOL    HW2 1206   1.276   0.333   3.043 -0.0144  0.2537 -0.4072
  403SOL     OW 1207   2.220   1.834   0.846 -0.3427  0.5726 -0.1980
  403SOL    HW1 1208   2.325   1.858   0.828  2.1955  0.2288 -2.3635
  403SOL    HW2 1209   2.182   1.903   0.916 -0.7620  0.6212  1.0546
  404SOL     OW 1210   0.240   2.477   2.749  0.2490  0.1349  0.2191
  404SOL    HW1 1211   0.329   2.440   2.704 -0.6233 -0.7799  0.7073
  404SOL    HW2 1212   0.249   2.554   2.819 -0.6904  1.5302  0.3688
  405SOL     OW 1213   0.093   2.385   0.752  0.6375 -0.5978 -0.3376
  405SOL    HW1 1214   0.064   2.308   0.686 -2.4852  1.1646  1.4299
  405SOL    HW2 1215   0.189   2.427   0.733 -1.8501  1.0551  0.1507
  406SOL     OW 1216   0.061   1.538   3.097 -0.3400 -0.2963  0.2178
  406SOL    HW1 1217   0.125   1.501   3.023 -0.5535  4.9834 -0.6079
  406SOL    HW2 1218   0.090   1.506   3.191 -0.8456  0.0939  0.1085
  407SOL     OW 1219   1.593   0.894   0.970  0.4013 -0.3112  0.1687
  407SOL    HW1 1220   1.589   0.894   0.867  1.4065 -0.6575  1.7694
  407SOL    HW2 1221   1.526   0.965   1.003 -1.0055  0.2021  0.6318
  408SOL     OW 1222   1.536   2.406   0.959 -0.0278 -0.4716 -0.0710
  408SOL    HW1 1223   1.614   2.404   0.894 -1.2580  0.0015  2.9161
  408SOL    HW2 1224   1.475   2.489   0.944 -1.1362  0.1440 -1.2212
  409SOL     OW 1225   0.633   0.843   0.756 -0.8464 -0.3694 -0.1055
  409SOL    HW1 1226   0.564   0.850   0.678  1.3237  2.0269  1.2093
  409SOL    HW2 1227   0.616   0.772   0.828 -0.3317 -0.7108 -0.1923
  410SOL     OW 1228   1.260   2.015   1.388 -0.3576 -0.5701 -0.4079
  410SOL    HW1 1229   1.345   1.962   1.425 -0.0810 -1.0630  1.6702
  410SOL    HW2 1230   1.188   1.963   1.339  0.5759  1.6576  1.2500
  411SOL     OW 1231   2.526   1.831   3.013  0.3271  0.2179  0.5851
  411SOL    HW1 1232   2.590   1.914   3.029  2.9879 -1.4114 -0.4371
  411SOL    HW2 1233   2.450   1.859   2.951 -0.2038  2.0119  2.8286
  412SOL     OW 1234   1.474   2.462   2.144 -0.1542  0.2386  0.2847
  412SOL    HW1 1235   1.550   2.488   2.211  0.6870 -0.1841 -1.0727
  412SOL    HW2 1236   1.378   2.455   2.184  0.4116  0.2274 -0.7953
  413SOL     OW 1237   3.093   0.218   2.978 -0.1794  0.5409  0.6224
  413SOL    HW1 1238   3.058   0.126   3.011 -0.8482 -2.4598 -1.0061
  413SOL    HW2 1239   3.194   0.230   3.000  1.1333 -1.8182 -0.6015
  414SOL     OW 1240   1.760   1.481   1.170  0.4816  0.2223 -0.3710
  414SOL    HW1 1241   1.757   1.580   1.192 -1.8859 -1.4407 -2.1274
  414SOL    HW2 1242   1.744   1.475   1.067 -1.6535  0.6345 -1.5553
  415SOL     OW 1243   0.309   2.186   0.693  0.0792 -0.4146 -0.4619
  415SOL    HW1 1244   0.282   2.163   0.787  3.4321  0.0529 -2.9818
  415SOL    HW2 1245   0.225   2.195   0.629  3.8975 -1.6494 -1.3000
  416SOL     OW 1246   0.377   1.098   1.060  0.1249  0.4603 -0.0401
  416SOL    HW1 1247   0.364   1.000   1.023  3.5718 -1.0079 -0.2156
  416SOL    HW2 1248   0.476   1.123   1.080  0.3259  1.0491  1.5198
  417SOL     OW 1249   2.348   2.446   2.096 -0.1066 -0.5953  0.3632
  417SOL    HW1 1250   2.328   2.343   2.096  0.2373 -2.5131  0.8589
  417SOL    HW2 1251   2.296   2.496   2.170  3.3377  3.2299  3.3471
  418SOL     OW 1252   1.024   0.485   1.344 -0.5366  0.0950  0.1021
  418SOL    HW1 1253   0.928   0.465   1.299  1.3333  0.8753 -3.4854
  418SOL    HW2 1254   1.101   0.488   1.276 -1.6896 -0.9582 -1.2752
  419SOL     OW 1255   0.940   0.542   2.975  0.1944  0.7806  0.1264
  419SOL    HW1 1256   0.849   0.559   2.933 -1.2133  1.6563 -1.1774
  419SOL    HW2 1257   0.993   0.620   3.019  0.5759 -0.6362  0.5631
  420SOL     OW 1258   0.125   2.222   0.501  0.1147 -0.0218  0.1123
  420SOL    HW1 1259   0.205   2.191   0.437  0.8826  0.6600 -1.8494
  420SOL    HW2 1260   0.059   2.144   0.534 -1.7452  0.4480  3.9957
  421SOL     OW 1261   0.335   2.973   0.555  0.1984  0.9185 -0.3746
  421SOL    HW1 1262   0.317   2.922   0.643 -0.1926  0.0125 -1.2006
  421SOL    HW2 1263   0.406   3.049   0.561 -0.3268 -0.0754 -0.3177
  422SOL     OW 1264   1.024   2.605   1.031  0.3626 -0.7677 -0.2375
  422SOL    HW1 1265   1.049   2.678   0.956  1.2749  1.0284 -2.1405
  422SOL    HW2 1266   1.104   2.560   1.078  0.4545 -0.2735 -4.3852
  423SOL     OW 1267   0.134   0.739   1.234  0.1288 -0.1728  0.3330
  423SOL    HW1 1268   0.076   0.675   1.296  0.1802 -0.6631  1.5347
  423SOL    HW2 1269   0.082   0.825   1.206  2.7370 -0.6803 -0.4293
  424SOL     OW 1270   1.185   2.229   2.042  0.0117 -0.0792  0.1590
  424SOL    HW1 1271   1.139   2.321   2.023 -3.1869 -0.6575  0.5559
  424SOL    HW2 1272   1.141   2.177   2.122 -1.6618  0.3449  1.0394
  425SOL     OW 1273   2.006   1.313   0.970 -0.2469 -0.0532  0.1380
  425SOL    HW1 1274   2.074   1.264   1.026 -1.5609 -3.4350  0.6542
  425SOL    HW2 1275   2.006   1.417   0.974  0.0005  0.5011 -0.0391
  426SOL     OW 1276   1.423   1.606   1.210  0.1295 -0.1120 -0.7989
  426SOL    HW1 1277   1.464   1.689   1.178 -0.8768 -1.1184  2.9478
  426SOL    HW2 1278   1.416   1.603   1.314  1.5797  0.2736  0.3567
  427SOL     OW 1279   1.941   2.341   2.070  0.1874  0.3055 -0.2642
  427SOL    HW1 1280   2.000   2.298   2.139 -0.4462  0.6709 -0.0522
  427SOL    HW2 1281   1.961   2.446   2.058 -0.0605  1.6155 -1.6050
  428SOL     OW 1282   0.883   0.021   0.115  0.2863  0.4679  0.0297
  428SOL    HW1 1283   0.910   0.105   0.060 -3.0524 -0.2441 -0.7735
  428SOL    HW2 1284   0.968  -0.034   0.130 -0.9799  1.4974  0.1052
  429SOL     OW 1285   1.306   0.168   0.255  0.4929  0.1183 -0.1435
  429SOL    HW1 1286   1.405   0.163   0.291 -1.2197 -0.3582  0.5933
  429SOL    HW2 1287   1.299   0.192   0.157  0.9625 -0.8401  0.3006
  430SOL     OW 1288   2.906   1.419   0.310 -0.0033  0.1191 -0.1699
  430SOL    HW1 1289   2.875   1.443   0.215 -2.0956 -0.5188  0.8818
  430SOL    HW2 1290   2.881   1.477   0.392 -2.4038  1.3799  3.4842
  431SOL     OW 1291   2.059   1.575   0.929 -0.1923  0.0360 -0.2269
  431SOL    HW1 1292   2.120   1.648   0.966  1.0861  0.6037 -1.3898
  431SOL    HW2 1293   1.990   1.611   0.861 -0.2934 -1.3302 -0.1615
  432SOL     OW 1294   2.923   2.138   1.229 -0.4745 -0.1347  0.0848
  432SOL    HW1 1295   2.914   2.054   1.287  1.2038  1.1006 -0.4601
  432SOL    HW2 1296   2.975   2.215   1.278  1.7917 -1.0539  0.8650
  433SOL     OW 1297   1.858   0.188   0.821  0.1908  0.5503  0.2892
  433SOL    HW1 1298   1.786   0.240   0.870  2.6711 -0.4789 -0.3040
  433SOL    HW2 1299   1.868   0.084   0.840 -1.9368 -3.4189  0.5036
  434SOL     OW 1300   1.550   0.324   0.655 -0.0988  0.1285 -0.3997
  434SOL    HW1 1301   1.530   0.402   0.586  0.0433  0.7037  3.1710
  434SOL    HW2 1302   1.590   0.353   0.751 -1.5988 -1.5670  1.9891
  435SOL     OW 1303   1.535   1.422   2.071 -0.4069  0.0069  0.0341
  435SOL    HW1 1304   1.528   1.472   2.164 -2.1267 -1.9400  1.1117
  435SOL    HW2 1305   1.534   1.489   1.990  0.6376 -1.5911  1.0946
  436SOL     OW 1306   1.697   2.728   2.254 -0.1892 -0.1672 -0.5130
  436SOL    HW1 1307   1.647   2.795   2.324  0.0276  2.3088  0.1609
  436SOL    HW2 1308   1.710   2.634   2.294  0.9229  2.8113  3.3242
  437SOL     OW 1309   1.089   2.963   0.912  0.4112  0.0520  0.4169
  437SOL    HW1 1310   1.028   3.045   0.906  1.2684  0.0992  0.3166
  437SOL    HW2 1311   1.088   2.931   1.009 -2.0905  1.2649 -0.6224
  438SOL     OW 1312   1.000   2.671   1.448  0.5881 -0.0874  0.6070
  438SOL    HW1 1313   1.093   2.710   1.474  2.0558  2.2935  0.4056
  438SOL    HW2 1314   1.002   2.571   1.419 -4.7183  0.8866 -0.6905
  439SOL     OW 1315   0.683   1.851   1.067  0.1404 -0.0501 -0.1759
  439SOL    HW1 1316   0.670   1.934   1.005  1.2036  2.1306  0.5361
  439SOL    HW2 1317   0.597   1.791   1.071 -0.4791  0.7310 -1.6082
  440SOL     OW 1318   1.096   2.478   1.982 -0.2890  0.2163  0.4948
  440SOL    HW1 1319   1.037   2.482   1.898 -1.0375 -0.6605 -0.3238
  440SOL    HW2 1320   1.196   2.503   1.957  2.0109 -0.4187  0.5145
  441SOL     OW 1321   0.384   2.666   1.559 -0.4832 -0.6048  0.0531
  441SOL    HW1 1322   0.463   2.603   1.530  0.6704  1.1179  0.2331
  441SOL    HW2 1323   0.311   2.672   1.489  1.2199  1.8618 -1.6483
  442SOL     OW 1324   2.264   0.694   2.552  0.2207 -0.2218  0.1723
  442SOL    HW1 1325   2.255   0.591   2.565 -3.7303 -1.8426 -0.1861
  442SOL    HW2 1326   2.172   0.739   2.577 -0.2482  1.5395  1.1956
  443SOL     OW 1327   1.203   2.683   2.202  0.0259 -0.7311 -0.0980
  443SOL    HW1 1328   1.199   2.732   2.293  0.9429 -0.5843  0.3761
  443SOL    HW2 1329   1.200   2.582   2.214  2.7733 -2.0552 -0.8663
  444SOL     OW 1330   0.999   1.348   1.566 -0.3265  0.6055 -0.3175
  444SOL    HW1 1331   1.102   1.334   1.544  0.9255  1.5877 -0.5285
  444SOL    HW2 1332   0.965   1.443   1.543 -0.6890 -0.6872 -1.3349
  445SOL     OW 1333   3.061   2.373   1.970 -0.1100 -0.7321 -0.2502
  445SOL    HW1 1334   3.071   2.458   1.914 -1.5840  0.7643  1.1798
  445SOL    HW2 1335   2.961   2.354   1.986 -1.1387  2.5960  1.8641
  446SOL     OW 1336   0.201   1.901   2.354  0.0221 -0.5478 -0.0799
  446SOL    HW1 1337   0.164   1.987   2.401 -2.5077  0.1439  1.6190
  446SOL    HW2 1338   0.142   1.868   2.273 -0.7280 -2.6796  0.3001
  447SOL     OW 1339   1.207   1.654   1.947  0.5039  0.3100 -0.2648
  447SOL    HW1 1340   1.162   1.739   1.908  1.9077 -0.7907 -1.3231
  447SOL    HW2 1341   1.311   1.646   1.942  1.6391 -1.1826 -0.0961
  448SOL     OW 1342   0.113   1.502   1.954 -0.1311  0.8372  0.0646
  448SOL    HW1 1343   0.109   1.604   1.968 -0.6061 -2.5720  2.1453
  448SOL    HW2 1344   0.138   1.450   2.041  1.7674  0.2349 -0.3364
  449SOL     OW 1345   1.995   3.023   0.855  0.2472 -0.2769 -0.2339
  449SOL    HW1 1346   2.081   3.024   0.918  0.7607  2.4723 -0.7103
  449SOL    HW2 1347   1.966   2.926   0.841 -0.5622 -0.6196 -1.5372
  450SOL     OW 1348   2.278   1.371   0.889 -0.3132  0.0601  0.1250
  450SOL    HW1 1349   2.238   1.283   0.854  1.9169 -4.0179 -0.6793
  450SOL    HW2 1350   2.219   1.451   0.872  1.4282  1.0913  1.3497
  451SOL     OW 1351   1.425   0.025   1.444 -0.1928  0.3733 -0.4190
  451SOL    HW1 1352   1.351   0.098   1.447  0.1293  1.1247  1.2263
  451SOL    HW2 1353   1.422  -0.037   1.531 -0.8230 -0.7094  0.2434
  452SOL     OW 1354   2.636   2.292   2.249 -0.1025  0.5814 -0.2180
  452SOL    HW1 1355   2.613   2.392   2.242 -0.4443 -1.6787  0.5675
  452SOL    HW2 1356   2.673   2.264   2.346  0.5951 -1.6418  2.8657
  453SOL     OW 1357   2.439   2.590   3.041  0.0125 -0.2041 -0.3613
  453SOL    HW1 1358   2.365   2.658   3.074 -0.5996  1.9055 -1.3474
  453SOL    HW2 1359   2.415   2.537   2.954  2.2033 -1.9467  1.0491
  454SOL     OW 1360   0.964   1.082   2.075  0.3924  0.1624  0.0751
  454SOL    HW1 1361   0.973   1.128   1.980 -2.0377 -0.2771 -0.0625
  454SOL    HW2 1362   1.049   1.104   2.127 -1.6005  0.0341  0.2820
  455SOL     OW 1363   0.702   2.636   2.914 -0.4466  0.1469  0.0395
  455SOL    HW1 1364   0.757   2.700   2.977 -0.2262  1.8099  2.0587
  455SOL    HW2 1365   0.671   2.554   2.966 -0.6197  3.2218 -0.3728
  456SOL     OW 1366   0.563   1.798   0.292 -0.2023  0.0381 -0.0823
  456SOL    HW1 1367   0.664   1.777   0.307 -0.4722 -0.0449  2.9630
  456SOL    HW2 1368   0.556   1.896   0.274  1.1838  0.3545  1.0478
  457SOL     OW 1369   0.336   2.559   0.671  0.1357 -0.8970 -0.1417
  457SOL    HW1 1370   0.336   2.579   0.571 -1.0232 -0.4560  1.3465
  457SOL    HW2 1371   0.428   2.556   0.719 -1.2776  0.2216 -0.6533
  458SOL     OW 1372   2.972   2.937   1.267  0.3425  0.1227  0.4648
  458SOL    HW1 1373   2.981   3.034   1.239 -4.2007  0.8950  3.9019
  458SOL    HW2 1374   2.939   2.879   1.191 -1.0132  2.8343  2.6423
  459SOL     OW 1375   2.112   2.533   0.916  1.0594 -0.0738 -0.1874
  459SOL    HW1 1376   2.134   2.608   0.984  0.0295 -1.9769 -2.4919
  459SOL    HW2 1377   2.186   2.510   0.848  1.3487 -1.4177 -0.0764
  460SOL     OW 1378   1.068   1.913   2.917  0.1816 -0.0502  0.4090
  460SOL    HW1 1379   1.074   2.007   2.882 -0.1084 -0.4798  1.2439
  460SOL    HW2 1380   1.156   1.882   2.963 -0.8947 -0.6026 -0.3229
  461SOL     OW 1381   0.528   2.113   2.708  0.4834 -0.0820  0.2862
  461SOL    HW1 1382   0.458   2.039   2.679  0.7031 -0.5933 -1.0111
  461SOL    HW2 1383   0.590   2.084   2.788 -2.0434  2.3587  1.5518
  462SOL     OW 1384   0.959   1.208   1.814 -0.0434 -0.0765 -0.3741
  462SOL    HW1 1385   1.001   1.118   1.784  4.1179 -2.9566 -0.9828
  462SOL    HW2 1386   0.988   1.288   1.758 -1.3590 -2.0686  0.0398
  463SOL     OW 1387   0.448   0.812   0.548  0.0167 -0.0393 -0.2647
  463SOL    HW1 1388   0.502   0.735   0.512 -0.4382  1.5874 -0.7198
  463SOL    HW2 1389   0.346   0.787   0.547 -0.6889 -0.5983  0.8390
  464SOL     OW 1390   0.491   2.253   2.219 -0.0981 -0.0699  0.2103
  464SOL    HW1 1391   0.422   2.318   2.265 -1.6132  0.1307 -0.3032
  464SOL    HW2 1392   0.544   2.297   2.142  0.9040 -2.7153  0.7462
  465SOL     OW 1393   0.248   0.869   0.884  0.6527 -0.1903 -0.0016
  465SOL    HW1 1394   0.171   0.909   0.832  1.0232  0.9244  3.8221
  465SOL    HW2 1395   0.262   0.767   0.883  1.9790  0.5707  1.7437
  466SOL     OW 1396   1.381   1.066   1.040  0.2703 -0.4253  0.0483
  466SOL    HW1 1397   1.459   1.136   1.055  0.0187  1.2127 -0.6440
  466SOL    HW2 1398   1.288   1.107   1.054  2.1733 -1.4082  2.1275
  467SOL     OW 1399   0.440   0.394   2.414  0.2742 -0.0894  0.4945
  467SOL    HW1 1400   0.429   0.488   2.453 -3.5890  0.4718 -0.3727
  467SOL    HW2 1401   0.440   0.319   2.484 -0.2126 -0.9020 -1.1725
  468SOL     OW 1402   0.501   2.244   1.697  0.1947 -0.3116  0.2729
  468SOL    HW1 1403   0.565   2.315   1.736 -0.8606  0.5696 -1.9344
  468SOL    HW2 1404   0.459   2.276   1.610  1.1712 -0.6429  0.7910
  469SOL     OW 1405   1.549   1.258   1.098  0.2567 -0.2143 -0.1289
  469SOL    HW1 1406   1.651   1.239   1.085  0.0695 -1.9531  0.0790
  469SOL    HW2 1407   1.528   1.345   1.149 -2.3763  1.8580 -0.2753
  470SOL     OW 1408   3.024   1.643   0.709 -1.0555 -0.4675 -0.9138
  470SOL    HW1 1409   3.112   1.637   0.761 -0.3600 -0.4902  0.9195
  470SOL    HW2 1410   2.944   1.697   0.748 -1.0508  0.0140 -2.6476
  471SOL     OW 1411   2.680   1.298   2.144 -0.3087 -0.2089  0.0024
  471SOL    HW1 1412   2.615   1.242   2.204 -2.3746  0.8063 -1.3811
  471SOL    HW2 1413   2.730   1.373   2.200 -1.7608 -1.2075 -0.3319
  472SOL     OW 1414   1.113   2.466   0.022  0.3258 -0.2579  0.3644
  472SOL    HW1 1415   1.189   2.461   0.093  2.0699  0.2613 -1.1777
  472SOL    HW2 1416   1.044   2.389   0.040 -1.1248  0.7054  1.8221
  473SOL     OW 1417   1.057   1.590   0.845 -0.2790  0.2476 -0.3237
  473SOL    HW1 1418   0.970   1.614   0.897 -0.4332 -1.2678 -0.4876
  473SOL    HW2 1419   1.131   1.564   0.907  1.4403 -1.3010 -1.6146
  474SOL     OW 1420   0.804   1.210   0.746  0.0233 -0.1661  0.6865
  474SOL    HW1 1421   0.757   1.206   0.652  0.0517 -0.1210 -1.6905
  474SOL    HW2 1422   0.891   1.157   0.753  1.9860  1.9295 -1.0199
  475SOL     OW 1423   2.876   0.088   0.757  0.3765 -0.0802  0.4565
  475SOL    HW1 1424   2.962   0.099   0.813 -1.1883 -1.2649  1.0928
  475SOL    HW2 1425   2.798   0.113   0.814  3.0832 -2.0005 -0.8473
  476SOL     OW 1426   0.870   3.057   1.833 -0.0012 -0.5307  0.3424
  476SOL    HW1 1427   0.955   3.011   1.870 -0.7530 -1.6322 -1.2737
  476SOL    HW2 1428   0.862   3.042   1.730 -0.5472  0.2772 -0.1399
  477SOL     OW 1429   1.442   0.356   2.425 -0.0289  0.6232  0.2242
  477SOL    HW1 1430   1.421   0.366   2.527  0.5190 -1.2723  0.0511
  477SOL    HW2 1431   1.535   0.315   2.405 -0.7631  2.8934 -0.1176
  478SOL     OW 1432   2.278   1.817   0.255 -0.3679 -0.1571  0.8740
  478SOL    HW1 1433   2.222   1.737   0.216 -0.4937  0.5138 -1.0221
  478SOL    HW2 1434   2.372   1.788   0.279  0.2975 -0.5315  1.6455
  479SOL     OW 1435   1.233   1.096   2.845 -0.7066 -0.0684 -0.5186
  479SOL    HW1 1436   1.335   1.063   2.827  2.8270  1.7510 -1.6520
  479SOL    HW2 1437   1.160   1.036   2.801  1.1142 -2.7663 -1.2722
  480SOL     OW 1438   2.461   2.342   0.372  0.4460  0.0425 -0.4228
  480SOL    HW1 1439   2.419   2.280   0.444 -3.8282  1.1933  0.8900
  480SOL    HW2 1440   2.398   2.360   0.288  0.7155  1.3769  0.9661
  481SOL     OW 1441   1.101   1.191   0.813 -0.5209  0.5512  0.0449
  481SOL    HW1 1442   1.106   1.282   0.763 -0.0598 -0.1819 -3.4410
  481SOL    HW2 1443   1.109   1.201   0.915  0.1962  0.0646  0.2709
  482SOL     OW 1444   1.619   0.303   2.027 -0.0333 -0.2677  0.2670
  482SOL    HW1 1445   1.638   0.386   1.965 -0.5744  2.4363 -1.7592
  482SOL    HW2 1446   1.702   0.282   2.086  0.5472 -0.5551 -1.4168
  483SOL     OW 1447   0.140   2.355   1.314 -0.0450  0.1488  0.1791
  483SOL    HW1 1448   0.049   2.388   1.341  0.8237 -1.3516 -0.4683
  483SOL    HW2 1449   0.161   2.389   1.219 -2.7932  1.4286 -0.8407
  484SOL     OW 1450   1.724   0.975   1.378  0.1009 -0.2994  0.1997
  484SOL    HW1 1451   1.811   0.935   1.423 -0.8574 -0.9228 -0.7487
  484SOL    HW2 1452   1.731   1.077   1.364 -0.1145 -1.2434 -1.7929
  485SOL     OW 1453   0.695   1.113   1.772 -0.1987 -0.1425 -0.1291
  485SOL    HW1 1454   0.680   1.088   1.672 -1.4958  0.4232  1.0302
  485SOL    HW2 1455   0.791   1.153   1.792  3.6150 -0.2241  0.8068
  486SOL     OW 1456   0.886   1.911   2.442 -0.3563 -0.0177 -0.6005
  486SOL    HW1 1457   0.930   1.854   2.516 -0.8828 -3.2394  0.0648
  486SOL    HW2 1458   0.851   2.003   2.475  0.0524  2.1751 -0.5014
  487SOL     OW 1459   1.742   1.497   0.899 -0.0276 -0.3133 -0.0427
  487SOL    HW1 1460   1.727   1.415   0.835  0.1479 -1.9054 -0.3813
  487SOL    HW2 1461   1.794   1.575   0.847 -0.9810  4.3985  1.6853
  488SOL     OW 1462   2.950   0.972   2.290 -0.1260 -0.2525  0.2263
  488SOL    HW1 1463   3.004   0.917   2.221  2.1619 -0.1713 -1.5794
  488SOL    HW2 1464   2.982   0.947   2.386  1.2665 -0.9385 -2.6178
  489SOL     OW 1465   2.806   0.209   1.308  0.0417 -0.5040 -0.0722
  489SOL    HW1 1466   2.770   0.232   1.404 -0.0767  1.1172  0.4903
  489SOL    HW2 1467   2.906   0.187   1.298 -2.2358  0.9666  0.1546
  490SOL     OW 1468   1.425   2.972   2.858  0.3347  0.6793  0.2168
  490SOL    HW1 1469   1.452   2.870   2.850  1.6858 -2.4759 -3.0654
  490SOL    HW2 1470   1.389   3.004   2.765 -0.9092  1.3311 -2.9476
  491SOL     OW 1471   1.909   1.555   2.669  0.3005 -0.1932 -0.3738
  491SOL    HW1 1472   1.839   1.553   2.745  1.3897 -2.1222  0.8085
  491SOL    HW2 1473   2.009   1.539   2.690 -1.6610  2.3051 -4.0638
  492SOL     OW 1474   0.475   1.948   0.737 -0.0378 -0.4058 -0.4186
  492SOL    HW1 1475   0.539   1.966   0.815  2.0637  0.3002  0.2481
  492SOL    HW2 1476   0.414   2.030   0.716 -1.5064 -1.5937  0.7260
  493SOL     OW 1477   0.434   1.388   2.119  0.7442  0.0751  0.0426
  493SOL    HW1 1478   0.343   1.439   2.112  0.2374 -0.1461 -0.2216
  493SOL    HW2 1479   0.431   1.327   2.205 -0.8432  0.3734  0.9209
  494SOL     OW 1480   2.630   2.664   0.176 -0.1035  0.3240  0.6609
  494SOL    HW1 1481   2.676   2.581   0.224 -0.3426 -1.2679 -0.0979
  494SOL    HW2 1482   2.582   2.641   0.088 -3.0050  2.1376  0.9097
  495SOL     OW 1483   2.774   2.698   2.692  0.2782  0.4098  0.1555
  495SOL    HW1 1484   2.773   2.602   2.651 -0.7353 -2.2320  0.3150
  495SOL    HW2 1485   2.777   2.766   2.617  0.6210 -0.8186  2.2391
  496SOL     OW 1486   2.064   2.185   0.720 -0.8665 -0.0988  0.1191
  496SOL    HW1 1487   2.053   2.176   0.820 -0.1633 -0.2282 -4.0183
  496SOL    HW2 1488   2.015   2.110   0.659  1.7543  1.4241 -1.3358
  497SOL     OW 1489   0.240   2.972   2.417 -0.1063  0.1209 -0.3472
  497SOL    HW1 1490   0.172   3.005   2.489 -2.2251  3.7173  0.4014
  497SOL    HW2 1491   0.257   3.048   2.350  0.2008  1.7607 -0.3878
  498SOL     OW 1492   1.211   1.492   1.099  0.2226  0.0640 -0.4585
  498SOL    HW1 1493   1.290   1.557   1.122 -0.8996  1.3305  1.4648
  498SOL    HW2 1494   1.132   1.503   1.159  0.6242  1.1096 -4.7658
  499SOL     OW 1495   0.853   1.844   0.511 -0.2626 -0.2049 -0.4742
  499SOL    HW1 1496   0.801   1.760   0.537 -0.1054  0.9491 -0.5320
  499SOL    HW2 1497   0.874   1.896   0.595  1.6645 -0.9267 -0.4008
  500SOL     OW 1498   1.440   2.990   1.672  0.5941 -0.0707 -0.4573
  500SOL    HW1 1499   1.464   3.038   1.758  0.1529 -0.4730 -2.4534
  500SOL    HW2 1500   1.461   2.888   1.683  1.3223 -0.7833  0.0856
  501SOL     OW 1501   0.732   1.134   2.286  0.2528 -0.3298 -0.2145
  501SOL    HW1 1502   0.676   1.049   2.293  3.3381  1.6356  0.4877
  501SOL    HW2 1503   0.793   1.134   2.201  0.5163 -0.9660  0.4513
  502SOL     OW 1504   2.613   0.961   1.724 -0.2522 -0.1977  0.3228
  502SOL    HW1 1505   2.600   0.961   1.620  1.3272 -0.8424 -1.7790
  502SOL    HW2 1506   2.556   0.892   1.772 -0.9560 -0.8098  1.6444
  503SOL     OW 1507   1.337   0.161   0.628 -0.3239 -0.5715  0.2228
  503SOL    HW1 1508   1.259   0.225   0.603  0.7615 -0.5616 -0.8310
  503SOL    HW2 1509   1.426   0.218   0.623 -1.7804 -2.0345  0.2298
  504SOL     OW 1510   2.969   2.376   1.405  0.0456 -0.9203  0.0777
  504SOL    HW1 1511   2.954   2.466   1.455 -1.0160  3.3828 -0.2726
  504SOL    HW2 1512   2.917   2.303   1.449  1.2383  0.8594 -1.3730
  505SOL     OW 1513   2.313   1.243   1.427  0.1008  0.5232 -0.2357
  505SOL    HW1 1514   2.284   1.336   1.408 -0.1209 -1.6434  1.2131
  505SOL    HW2 1515   2.413   1.239   1.457 -0.6208 -2.2085 -2.1241
  506SOL     OW 1516   1.906   0.234   1.782  0.1894  0.1156 -0.8512
  506SOL    HW1 1517   1.988   0.203   1.727  0.1177 -1.2712 -1.4114
  506SOL    HW2 1518   1.926   0.329   1.816  1.8770 -3.3557  0.5253
  507SOL     OW 1519   0.477   0.712   2.169 -0.4457  0.9967 -0.0450
  507SOL    HW1 1520   0.392   0.704   2.109 -0.1276  0.4435 -0.2565
  507SOL    HW2 1521   0.541   0.633   2.152  0.4675  0.5117 -1.6948
  508SOL     OW 1522   0.169   1.676   0.826  0.4839  0.3106 -0.7451
  508SOL    HW1 1523   0.177   1.776   0.801 -0.4481  0.6928  1.7444
  508SOL    HW2 1524   0.198   1.656   0.926 -0.2569  0.5356 -1.2116
  509SOL     OW 1525   1.354   1.184   2.582 -0.1478 -0.2078  0.1990
  509SOL    HW1 1526   1.291   1.241   2.518  0.6503 -0.5291  0.7844
  509SOL    HW2 1527   1.332   1.086   2.576 -2.4997  3.2082 -1.2441
  510SOL     OW 1528   1.325   1.996   2.021 -0.0987 -0.0484  0.3402
  510SOL    HW1 1529   1.286   2.090   2.010  0.5743  1.5530 -0.6943
  510SOL    HW2 1530   1.274   1.941   2.095  0.8541 -1.0750 -3.0172
  511SOL     OW 1531   3.083   2.635   1.296 -0.4235  0.0005 -0.6760
  511SOL    HW1 1532   3.022   2.609   1.220 -1.1454 -1.0771  1.0633
  511SOL    HW2 1533   3.045   2.615   1.391  0.0948 -0.1966  1.2825
  512SOL     OW 1534   2.409   0.421   1.374 -0.1308 -0.5277  0.1592
  512SOL    HW1 1535   2.305   0.442   1.372  1.1544  0.9221 -0.2975
  512SOL    HW2 1536   2.428   0.344   1.312  0.8048  0.0367  2.1280
  513SOL     OW 1537   2.504   1.986   0.823  0.4754 -0.4593 -0.4381
  513SOL    HW1 1538   2.463   2.082   0.827  0.2682 -1.2046  1.9408
  513SOL    HW2 1539   2.594   1.980   0.770 -0.7054 -2.1042 -2.4395
  514SOL     OW 1540   0.671   2.802   0.408  0.1831 -0.0292  0.3182
  514SOL    HW1 1541   0.636   2.876   0.348 -0.5397 -1.0717 -0.3267
  514SOL    HW2 1542   0.718   2.838   0.490 -0.6805 -0.1047  0.3641
  515SOL     OW 1543   1.970   1.228   2.366  0.0627  0.1298  0.2595
  515SOL    HW1 1544   1.891   1.246   2.298 -3.7627  1.3886  4.0103
  515SOL    HW2 1545   1.929   1.238   2.462 -2.3858  1.7579  2.1724
  516SOL     OW 1546   0.273   0.323   1.972 -0.0101  0.5106 -0.1045
  516SOL    HW1 1547   0.368   0.309   1.933  0.3519  2.2954 -0.4519
  516SOL    HW2 1548   0.197   0.265   1.924  0.7491  2.0060 -0.1221
  517SOL     OW 1549   0.362   3.039   1.183  0.2072 -0.3370  0.9019
  517SOL    HW1 1550   0.371   3.136   1.212  0.7803 -1.0884  1.0219
  517SOL    HW2 1551   0.284   2.991   1.236 -2.8286 -1.6589  0.1627
  518SOL     OW 1552   2.135   0.167   1.648 -0.3868 -0.1266 -0.3902
  518SOL    HW1 1553   2.204   0.216   1.714 -1.1258  1.0495  1.4556
  518SOL    HW2 1554   2.171   0.075   1.621 -0.8693  1.0340 -0.6728
  519SOL     OW 1555   2.351   2.165   2.524  0.0753  0.1906  0.2247
  519SOL    HW1 1556   2.286   2.166   2.605 -3.4575  0.3452 -0.3847
  519SOL    HW2 1557   2.412   2.249   2.513  1.3198  1.7036 -1.9629
  520SOL     OW 1558   1.773   2.856   1.812 -0.0028 -0.2320  0.7756
  520SOL    HW1 1559   1.693   2.856   1.879 -2.7287 -0.6255 -0.3520
  520SOL    HW2 1560   1.844   2.783   1.822  1.4618  1.0438  0.1883
  521SOL     OW 1561   0.572   0.144   2.167 -0.1256 -0.1304  0.5531
  521SOL    HW1 1562   0.479   0.104   2.189  0.2929  0.2286  0.3080
  521SOL    HW2 1563   0.648   0.117   2.231  0.7558 -0.3009  0.0550
  522SOL     OW 1564   0.231   1.902   1.562  0.5474  0.4073 -0.0852
  522SOL    HW1 1565   0.243   1.970   1.639 -0.1782 -1.0643  0.5629
  522SOL    HW2 1566   0.206   1.948   1.471 -1.1387  2.7017  0.2240
  523SOL     OW 1567   2.220   3.015   1.607  0.2156  0.6607 -0.4609
  523SOL    HW1 1568   2.244   2.922   1.568 -1.9914  2.1070 -1.0904
  523SOL    HW2 1569   2.123   3.012   1.640 -0.1401 -0.0149  2.1418
  524SOL     OW 1570   0.233   2.754   2.817 -0.4300  0.4772 -0.3233
  524SOL    HW1 1571   0.198   2.828   2.876 -1.4544  0.4501 -0.0713
  524SOL    HW2 1572   0.329   2.783   2.795  0.8702 -0.0018  0.4441
  525SOL     OW 1573   2.134   1.935   0.463  0.1364  0.8807 -0.7431
  525SOL    HW1 1574   2.108   1.852   0.528 -0.3497 -0.2155 -0.6507
  525SOL    HW2 1575   2.198   1.908   0.386 -0.0592 -0.8786  0.0324
  526SOL     OW 1576   0.423   1.556   1.541  0.1375  0.6322 -0.3161
  526SOL    HW1 1577   0.358   1.525   1.614 -0.3467 -1.5895 -0.1093
  526SOL    HW2 1578   0.512   1.507   1.551  0.7109  0.1293 -1.5127
  527SOL     OW 1579   1.107   2.897   1.199  0.0710  0.1367  0.0408
  527SOL    HW1 1580   1.170   2.852   1.265 -0.3664 -0.9135 -3.3429
  527SOL    HW2 1581   1.117   3.003   1.205 -0.3986  2.0344  1.6529
  528SOL     OW 1582   1.344   2.395   0.444 -0.1656 -0.1422 -0.3387
  528SOL    HW1 1583   1.367   2.293   0.449 -1.1368 -0.5984  0.2307
  528SOL    HW2 1584   1.399   2.446   0.513 -0.4271  0.5239 -0.5006
  529SOL     OW 1585   1.825   1.729   0.783  0.2968 -0.3071 -0.1702
  529SOL    HW1 1586   1.802   1.743   0.683  2.7458 -1.6354  1.2411
  529SOL    HW2 1587   1.834   1.817   0.835 -1.2354  1.7151 -0.6300
  530SOL     OW 1588   0.347   2.462   0.262  0.2295 -0.1517 -0.4712
  530SOL    HW1 1589   0.345   2.551   0.316 -1.1248  0.6022  3.9200
  530SOL    HW2 1590   0.342   2.383   0.321  5.3971  0.4256 -3.8923
  531SOL     OW 1591   1.850   0.830   1.002 -0.6332  0.4463 -0.5691
  531SOL    HW1 1592   1.903   0.856   0.916  3.5886 -0.3635  0.8290
  531SOL    HW2 1593   1.745   0.852   0.996  1.5089  0.1186  2.2008
  532SOL     OW 1594   0.488   1.091   0.760 -0.3622  0.2946  0.3412
  532SOL    HW1 1595   0.495   1.074   0.656 -0.1329 -1.6908  1.5408
  532SOL    HW2 1596   0.423   1.023   0.808 -0.9748 -0.1090  0.7338
  533SOL     OW 1597   1.758   0.027   2.558 -0.6026 -0.4237  0.2530
  533SOL    HW1 1598   1.849  -0.008   2.602  2.1679 -1.7170 -1.0547
  533SOL    HW2 1599   1.711   0.101   2.615 -0.7274  1.6067  0.2466
  534SOL     OW 1600   0.402   0.194   1.559  0.1042  0.8459 -0.1179
  534SOL    HW1 1601   0.504   0.206   1.586  1.3378 -1.4532 -1.0196
  534SOL    HW2 1602   0.351   0.283   1.530 -1.9034  0.7405 -0.2440
  535SOL     OW 1603   1.942   0.342   0.165  0.0630 -0.2374 -0.5822
  535SOL    HW1 1604   1.960   0.437   0.204  0.0165 -1.3581  0.4030
  535SOL    HW2 1605   1.952   0.262   0.231 -0.1689  2.7003 -1.6534
  536SOL     OW 1606   1.363   2.610   0.900 -0.2836 -0.0762 -0.5592
  536SOL    HW1 1607   1.331   2.569   0.990 -0.6190  0.4784  3.3834
  536SOL    HW2 1608   1.279   2.650   0.849 -0.8001  1.4856 -1.9259
  537SOL     OW 1609   0.840   0.249   2.361  0.0390 -0.4726 -0.0573
  537SOL    HW1 1610   0.897   0.308   2.295  2.2553  1.6719 -1.3056
  537SOL    HW2 1611   0.842   0.144   2.333 -2.0659 -1.5304 -0.4469
  538SOL     OW 1612   1.659   2.370   1.387  0.1420  0.4094  0.2056
  538SOL    HW1 1613   1.657   2.266   1.405  1.8711 -0.5766  2.3875
  538SOL    HW2 1614   1.754   2.415   1.405 -0.1707  3.9054 -0.0201
  539SOL     OW 1615   0.177   1.610   2.683 -0.1194  0.3486 -0.6823
  539SOL    HW1 1616   0.080   1.575   2.667 -0.3178  0.0674  1.4254
  539SOL    HW2 1617   0.172   1.692   2.750  1.4770  0.2134  0.4033
  540SOL     OW 1618   2.669   1.713   1.916  0.1988  0.3021  0.3525
  540SOL    HW1 1619   2.627   1.622   1.944 -0.4611  1.5193  0.5177
  540SOL    HW2 1620   2.605   1.796   1.923 -0.1086 -2.3334 -2.4027
  541SOL     OW 1621   0.542   2.145   0.029 -0.4168 -0.7184  0.3097
  541SOL    HW1 1622   0.561   2.108   0.125  0.7440  2.2213 -0.4237
  541SOL    HW2 1623   0.446   2.123  -0.010 -0.6043 -1.5260  1.5165
  542SOL     OW 1624   2.249   2.661   0.552  0.4185  0.1665  0.8454
  542SOL    HW1 1625   2.250   2.760   0.587  2.0531  1.3345 -1.9821
  542SOL    HW2 1626   2.152   2.619   0.549 -0.8510  0.6134  1.7711
  543SOL     OW 1627   1.094   1.786   1.601 -0.2071 -0.4496  0.3494
  543SOL    HW1 1628   1.098   1.816   1.701  0.6388  3.0725  1.0883
  543SOL    HW2 1629   1.058   1.867   1.547  0.8827 -2.5085  1.3670
  544SOL     OW 1630   1.179   0.523   0.156  0.3539 -0.1568  0.0701
  544SOL    HW1 1631   1.137   0.458   0.225 -0.5825  1.6405  0.4470
  544SOL    HW2 1632   1.202   0.479   0.065 -1.6278 -1.2204 -2.7201
  545SOL     OW 1633   1.112   1.849   0.780 -0.2340 -0.2645  0.4132
  545SOL    HW1 1634   1.201   1.852   0.724  0.5695 -0.6815 -0.8285
  545SOL    HW2 1635   1.077   1.753   0.799 -1.6343  1.1218  0.7002
  546SOL     OW 1636   2.673   1.613   2.989 -0.3867  0.3105  0.2811
  546SOL    HW1 1637   2.625   1.702   2.972  2.7728  2.5063  0.5663
  546SOL    HW2 1638   2.604   1.530   2.999 -1.5668 -1.0326  1.0251
  547SOL     OW 1639   0.664   3.044   2.529  0.3559 -0.2094  1.0666
  547SOL    HW1 1640   0.718   2.995   2.602 -1.3798  3.1928 -2.0172
  547SOL    HW2 1641   0.583   2.988   2.498 -1.5361  0.6311  0.7981
  548SOL     OW 1642   2.049   0.761   3.037 -0.5781  0.0047 -0.1875
  548SOL    HW1 1643   1.948   0.738   3.054 -0.6912  0.6307 -0.8769
  548SOL    HW2 1644   2.082   0.853   3.080  0.0707 -0.2420  0.9189
  549SOL     OW 1645   0.698   0.575   0.186  0.3238  0.6299 -0.4172
  549SOL    HW1 1646   0.637   0.616   0.109 -3.0811  3.1319  2.0847
  549SOL    HW2 1647   0.789   0.618   0.196  1.8376 -1.3629 -0.0279
  550SOL     OW 1648   2.570   2.786   2.864  0.4112 -0.5628  0.5212
  550SOL    HW1 1649   2.537   2.721   2.939 -0.3749 -2.0248  1.9038
  550SOL    HW2 1650   2.640   2.745   2.794 -0.8908 -1.8430 -2.8543
  551SOL     OW 1651   0.252   0.873   0.253  0.4442  0.0184 -0.5358
  551SOL    HW1 1652   0.343   0.856   0.215  0.8213 -2.3795  0.5109
  551SOL    HW2 1653   0.254   0.911   0.351  2.5281  1.5972 -1.0491
  552SOL     OW 1654   0.617   3.038   1.967  0.5578  0.1269 -0.3290
  552SOL    HW1 1655   0.601   3.116   2.035  1.5598 -1.1892 -0.1937
  552SOL    HW2 1656   0.714   3.031   1.933  2.2110  0.1150 -0.8179
  553SOL     OW 1657   2.994   2.395   0.379  0.5103  0.1077 -0.1682
  553SOL    HW1 1658   2.997   2.292   0.387 -1.5944  2.4536 -0.6212
  553SOL    HW2 1659   2.897   2.433   0.382 -3.0395 -0.5014  0.7633
  554SOL     OW 1660   2.204   0.367   0.532 -0.3180 -0.2188  0.3195
  554SOL    HW1 1661   2.271   0.373   0.448 -0.7343  0.3169  0.2563
  554SOL    HW2 1662   2.213   0.275   0.580 -0.6541  0.2290  0.9475
  555SOL     OW 1663   0.476   2.857   2.473 -0.4854  0.0276  0.0922
  555SOL    HW1 1664   0.378   2.895   2.463  1.8363 -1.4936  1.0555
  555SOL    HW2 1665   0.485   2.775   2.414  3.1390  1.2603  0.2144
  556SOL     OW 1666   0.820   2.443   1.610  0.1306 -0.3493  0.5284
  556SOL    HW1 1667   0.871   2.515   1.660 -1.1951 -1.0005 -3.1598
  556SOL    HW2 1668   0.876   2.410   1.527 -0.3391 -4.0720 -0.5306
  557SOL     OW 1669   0.268   2.095   0.275  0.2776  0.0890 -0.8511
  557SOL    HW1 1670   0.192   2.044   0.224 -0.0308  2.0381  3.1738
  557SOL    HW2 1671   0.331   2.144   0.205  1.7961 -1.9672 -0.3707
  558SOL     OW 1672   2.837   2.125   0.399  0.0633  0.0590  0.0215
  558SOL    HW1 1673   2.785   2.215   0.408 -0.2531  2.9720 -0.3990
  558SOL    HW2 1674   2.797   2.039   0.353  1.4055  0.7410 -3.1982
  559SOL     OW 1675   0.394   2.320   1.452  0.0792 -0.2064  0.4304
  559SOL    HW1 1676   0.299   2.327   1.408 -3.5045 -3.3088 -1.2376
  559SOL    HW2 1677   0.458   2.278   1.386 -0.5818  1.8613  0.6774
  560SOL     OW 1678   2.135   1.015   3.100  0.3790 -0.6056  0.1378
  560SOL    HW1 1679   2.182   1.082   3.170 -0.3623  1.0863  2.0051
  560SOL    HW2 1680   2.192   0.997   3.009  0.6846 -0.4908  0.5894
  561SOL     OW 1681   0.021   1.946   0.198 -0.3967  0.5585  0.2994
  561SOL    HW1 1682  -0.019   1.858   0.227  0.3121 -0.1615  1.6840
  561SOL    HW2 1683  -0.027   1.999   0.125  1.1786  2.1018 -1.3078
  562SOL     OW 1684   1.078   2.084   2.252 -0.8390  0.5906 -0.2960
  562SOL    HW1 1685   1.039   2.173   2.285  0.6498 -1.3207 -1.7036
  562SOL    HW2 1686   1.022   2.003   2.289 -0.9346 -2.5463 -1.2388
  563SOL     OW 1687   0.662   2.540   2.668  0.1637  0.2875  0.2193
  563SOL    HW1 1688   0.752   2.521   2.621  0.9009 -0.2768  0.2262
  563SOL    HW2 1689   0.666   2.576   2.765 -1.3139  1.3840 -1.0180
  564SOL     OW 1690   2.850   1.408   2.875  0.1383  0.4371 -0.2757
  564SOL    HW1 1691   2.789   1.486   2.907 -0.8541  2.1994 -0.4811
  564SOL    HW2 1692   2.945   1.438   2.862 -1.8688 -2.5208  0.5512
  565SOL     OW 1693   2.527   1.970   2.637 -0.3030  0.1203  0.0151
  565SOL    HW1 1694   2.487   2.057   2.601  1.8512 -1.2459  0.3294
  565SOL    HW2 1695   2.593   1.989   2.714 -1.8730  0.3994 -1.0968
  566SOL     OW 1696   1.953   2.896   1.440 -0.8692  0.1969 -0.2721
  566SOL    HW1 1697   1.959   2.805   1.493 -0.2704  1.8942  3.6382
  566SOL    HW2 1698   1.930   2.889   1.340  0.8150 -0.7726 -0.2682
  567SOL     OW 1699   2.366   0.024   2.323 -0.6257  0.0705 -0.3680
  567SOL    HW1 1700   2.290   0.060   2.384 -1.3359  0.0336  0.8170
  567SOL    HW2 1701   2.351   0.056   2.228 -2.8245  1.8396 -0.2897
  568SOL     OW 1702   1.504   1.723   0.247  0.1842  0.4926 -0.4581
  568SOL    HW1 1703   1.448   1.789   0.196  0.0290 -2.0435 -1.8464
  568SOL    HW2 1704   1.599   1.756   0.259 -0.6438  0.7449 -0.9434
  569SOL     OW 1705   0.249   0.587   0.898 -0.4161  0.0035 -0.1058
  569SOL    HW1 1706   0.275   0.517   0.822  2.1640 -0.2927  0.4924
  569SOL    HW2 1707   0.150   0.578   0.918  1.1188 -1.5664  0.5205
  570SOL     OW 1708   0.636   0.859   2.906  0.4729 -0.3228 -0.3918
  570SOL    HW1 1709   0.687   0.873   2.816  0.1474  0.4310 -0.0381
  570SOL    HW2 1710   0.635   0.941   2.970 -2.7600  2.3085  0.9462
  571SOL     OW 1711   0.767   3.066   1.068  0.5532 -0.1232 -0.0773
  571SOL    HW1 1712   0.804   3.113   0.984 -1.4013  0.0116  1.3366
  571SOL    HW2 1713   0.811   2.975   1.090 -0.8962  0.9256 -0.8033
  572SOL     OW 1714   1.654   2.711   1.423 -0.0340  0.7981 -0.1562
  572SOL    HW1 1715   1.585   2.637   1.396 -3.8155  2.1070 -0.5810
  572SOL    HW2 1716   1.626   2.798   1.381  1.7360 -1.6126  1.2803
  573SOL     OW 1717   3.049   0.490   1.922 -0.1382  0.0973 -0.4202
  573SOL    HW1 1718   3.011   0.392   1.924 -3.9582  0.2234  2.8241
  573SOL    HW2 1719   3.125   0.504   1.847 -0.8092 -2.8274  0.9859
  574SOL     OW 1720   0.133   1.663   1.102 -0.3614 -0.2167 -0.0431
  574SOL    HW1 1721   0.165   1.620   1.188  1.8004  1.1455 -0.8467
  574SOL    HW2 1722   0.085   1.755   1.117  0.0192  0.0799  0.1525
  575SOL     OW 1723   0.879   2.241   0.993 -0.1427  0.2081  0.1201
  575SOL    HW1 1724   0.851   2.289   1.077  1.2769  0.1969 -2.3329
  575SOL    HW2 1725   0.904   2.310   0.917  1.3600  0.4621 -0.2549
  576SOL     OW 1726   2.939   2.998   1.711 -0.2256  0.0702 -0.3690
  576SOL    HW1 1727   2.841   2.994   1.685  1.0005  0.0002 -0.8722
  576SOL    HW2 1728   2.981   3.097   1.705 -0.7861 -2.1229  0.2239
  577SOL     OW 1729   2.669   1.235   3.063 -0.0899  0.0267 -0.8727
  577SOL    HW1 1730   2.645   1.141   3.025 -4.4657  2.5920 -1.1057
  577SOL    HW2 1731   2.756   1.232   3.117  0.2550  0.8892 -0.0404
  578SOL     OW 1732   1.398   2.726   2.537  0.0375 -0.6387 -0.0890
  578SOL    HW1 1733   1.303   2.770   2.513 -0.5169 -0.0746  1.7010
  578SOL    HW2 1734   1.475   2.787   2.505  0.9718 -0.8419 -1.4903
  579SOL     OW 1735   0.096   2.406   0.161  0.5616 -0.4364 -0.1603
  579SOL    HW1 1736   0.023   2.420   0.235 -0.7970 -2.0142 -0.5908
  579SOL    HW2 1737   0.193   2.417   0.194 -2.1681  0.8049 -0.1234
  580SOL     OW 1738   0.941   2.677   0.409 -0.2260 -0.2743  0.2426
  580SOL    HW1 1739   0.985   2.673   0.315 -0.4967  1.5746 -0.2383
  580SOL    HW2 1740   0.838   2.688   0.405 -2.1201 -2.9553 -2.2511
  581SOL     OW 1741   1.283   2.728   1.467 -0.2879  0.8276  0.2254
  581SOL    HW1 1742   1.315   2.630   1.465  2.5309  0.1921  2.2344
  581SOL    HW2 1743   1.349   2.792   1.425 -3.5202  1.2601  1.5768
  582SOL     OW 1744   1.509   0.055   1.895 -0.0193 -0.1674 -0.8093
  582SOL    HW1 1745   1.523   0.133   1.963 -1.0912 -0.6419  0.0286
  582SOL    HW2 1746   1.559   0.075   1.811  0.7462 -1.1938  1.8843
  583SOL     OW 1747   2.440   3.009   0.503 -0.1041 -0.7729 -0.7945
  583SOL    HW1 1748   2.520   2.959   0.456 -1.8057 -0.8696 -0.3202
  583SOL    HW2 1749   2.377   2.941   0.556 -2.5339  1.4941  0.2853
  584SOL     OW 1750   1.568   1.096   2.248 -0.6571 -0.7441  0.1802
  584SOL    HW1 1751   1.615   1.187   2.242  0.4202 -2.5601 -2.0352
  584SOL    HW2 1752   1.633   1.028   2.292 -0.5623  4.1203 -2.9046
  585SOL     OW 1753   2.023   2.667   2.886  0.2710 -0.1152  0.2034
  585SOL    HW1 1754   2.034   2.567   2.866 -0.2123  3.4925 -1.0589
  585SOL    HW2 1755   1.922   2.686   2.891  0.4447 -1.5698 -1.7905
  586SOL     OW 1756   2.938   0.393   1.602 -0.6683  0.1282 -0.5088
  586SOL    HW1 1757   2.948   0.483   1.647  0.3335  2.0189  2.1214
  586SOL    HW2 1758   2.840   0.357   1.611 -0.0401 -0.5959  1.7571
  587SOL     OW 1759   2.171   1.464   2.764  0.6562  0.2358  0.2379
  587SOL    HW1 1760   2.161   1.420   2.671  0.5477  0.5607  1.8410
  587SOL    HW2 1761   2.262   1.510   2.774 -0.3115 -0.9501 -0.0366
  588SOL     OW 1762   0.497   2.627   2.293 -0.4014 -0.4413 -0.5586
  588SOL    HW1 1763   0.445   2.665   2.213 -3.0158  1.6822  0.2757
  588SOL    HW2 1764   0.451   2.534   2.327 -0.3284  1.1824  1.1897
  589SOL     OW 1765   2.175   1.357   2.505 -0.1254  0.2667  0.3216
  589SOL    HW1 1766   2.120   1.291   2.447  0.8966  3.1287  1.0818
  589SOL    HW2 1767   2.271   1.328   2.517 -1.1305 -1.7693  1.1567
  590SOL     OW 1768   2.296   1.697   2.083 -0.1192  0.1539 -0.1736
  590SOL    HW1 1769   2.382   1.642   2.082 -1.1878 -0.2555 -1.5199
  590SOL    HW2 1770   2.284   1.732   2.182  2.4950 -0.0889 -0.8818
  591SOL     OW 1771   1.337   2.453   0.171  0.4417  0.0275 -0.1295
  591SOL    HW1 1772   1.360   2.360   0.131 -2.0147  1.9300  0.7973
  591SOL    HW2 1773   1.344   2.451   0.277 -2.1369  0.4622  4.1912
  592SOL     OW 1774   1.780   2.348   0.810  0.2080 -0.1604 -0.1222
  592SOL    HW1 1775   1.776   2.407   0.723  2.4126  0.9622  1.0596
  592SOL    HW2 1776   1.868   2.355   0.864 -1.9364 -1.5688 -0.7515
  593SOL     OW 1777   0.745   0.295   0.211  0.0049 -0.4219 -0.2900
  593SOL    HW1 1778   0.766   0.263   0.114 -0.3762  0.9211 -2.2883
  593SOL    HW2 1779   0.752   0.397   0.216 -3.0943 -1.3682 -1.0482
  594SOL     OW 1780   1.094   1.790   2.661 -0.1439 -0.2110 -0.0588
  594SOL    HW1 1781   1.198   1.797   2.632  1.4100 -0.2579 -0.5647
  594SOL    HW2 1782   1.081   1.820   2.763  1.9207 -2.2523  0.1243
  595SOL     OW 1783   1.532   0.152   0.998  0.1347  0.3485  0.0645
  595SOL    HW1 1784   1.602   0.073   0.977  0.4675  1.3661 -1.0149
  595SOL    HW2 1785   1.435   0.138   0.960  1.3990 -0.9161  0.5465
  596SOL     OW 1786   0.167   1.398   2.208  0.2185  0.0894 -0.4741
  596SOL    HW1 1787   0.101   1.326   2.229  2.1298  0.7123 -0.7360
  596SOL    HW2 1788   0.168   1.469   2.284 -0.1555 -0.2768  1.0256
  597SOL     OW 1789   2.003   2.695   1.828 -0.7753  0.0569 -0.2871
  597SOL    HW1 1790   1.969   2.675   1.729  0.4737 -0.1407  0.8812
  597SOL    HW2 1791   2.108   2.682   1.839  2.3405 -0.9208 -0.1161
  598SOL     OW 1792   2.482   2.836   1.295  0.1615 -0.6688 -0.0957
  598SOL    HW1 1793   2.575   2.848   1.335 -1.2398 -2.0415 -2.0696
  598SOL    HW2 1794   2.471   2.749   1.241 -0.8779  1.4973 -0.7043
  599SOL     OW 1795   2.885   0.272   2.524  0.6885 -0.1945 -0.3582
  599SOL    HW1 1796   2.975   0.279   2.472  1.5844  0.7541 -1.3894
  599SOL    HW2 1797   2.816   0.347   2.509  2.1319  1.8260 -0.4870
  600SOL     OW 1798   2.773   1.156   2.769 -0.3574 -0.0158 -0.1868
  600SOL    HW1 1799   2.720   1.099   2.839 -0.9480  0.1114  0.1105
  600SOL    HW2 1800   2.791   1.252   2.796  1.9610 -1.0403 -1.8694
  601SOL     OW 1801   2.964   1.356   1.958  0.6729  0.2563 -0.8077
  601SOL    HW1 1802   2.879   1.373   1.900 -2.5873  1.8713 -1.0010
  601SOL    HW2 1803   3.042   1.416   1.924 -3.5398  2.3360 -2.2952
  602SOL     OW 1804   1.558   1.544   2.308 -0.2690  0.2188  0.6576
  602SOL    HW1 1805   1.469   1.539   2.360  1.2588  1.1729  1.1554
  602SOL    HW2 1806   1.623   1.603   2.359  0.7202 -0.0379 -0.8324
  603SOL     OW 1807   0.601   1.193   2.694 -0.1573 -0.7517  0.1978
  603SOL    HW1 1808   0.504   1.219   2.668  0.5283 -0.5833 -1.7221
  603SOL    HW2 1809   0.621   1.098   2.665  2.1957  1.1422 -0.4432
  604SOL     OW 1810   2.539   1.068   0.236  0.0928 -0.3167  0.0547
  604SOL    HW1 1811   2.622   1.128   0.238 -0.8125 -0.5509  0.8068
  604SOL    HW2 1812   2.509   1.026   0.146 -3.0659  1.4754 -0.8476
  605SOL     OW 1813   2.585   1.197   1.902  0.5105 -0.0473  0.1062
  605SOL    HW1 1814   2.615   1.108   1.858 -1.3384  1.0685  1.1937
  605SOL    HW2 1815   2.634   1.220   1.990 -1.2855  0.6127 -1.4400
  606SOL     OW 1816   1.541   2.475   2.588  0.0104  0.4050 -0.1261
  606SOL    HW1 1817   1.465   2.533   2.554  1.1253 -0.8031  2.2495
  606SOL    HW2 1818   1.534   2.371   2.571 -1.4387 -1.2014  0.1730
  607SOL     OW 1819   1.265   1.582   0.270  0.7438 -0.5863  0.3648
  607SOL    HW1 1820   1.188   1.644   0.304 -0.3783 -1.7180  0.0113
  607SOL    HW2 1821   1.351   1.641   0.263 -1.3417 -0.9995 -2.9487
  608SOL     OW 1822   1.379   2.795   0.335  0.3831 -0.6184 -0.3394
  608SOL    HW1 1823   1.436   2.833   0.255  1.0048  0.4891  1.6237
  608SOL    HW2 1824   1.349   2.871   0.398 -0.1494 -0.8477 -2.6893
  609SOL     OW 1825   1.301   1.321   0.185 -0.0474  0.2330  0.5351
  609SOL    HW1 1826   1.291   1.414   0.223 -0.0811 -0.5569  1.1130
  609SOL    HW2 1827   1.257   1.305   0.089 -1.4288 -2.1633 -2.5209
  610SOL     OW 1828   3.032   1.223   2.197  0.5741  0.5076 -0.5471
  610SOL    HW1 1829   2.983   1.129   2.209 -3.1540 -1.2928 -0.3444
  610SOL    HW2 1830   2.995   1.285   2.122 -2.1562  1.3696 -1.4859
  611SOL     OW 1831   2.562   0.189   1.142 -0.0465 -0.1913  0.2370
  611SOL    HW1 1832   2.497   0.111   1.164  1.7232  0.3666 -2.3987
  611SOL    HW2 1833   2.648   0.192   1.199 -1.4979 -0.0470 -0.3185
  612SOL     OW 1834   0.766   2.362   1.252  0.3342  0.1840  0.4129
  612SOL    HW1 1835   0.707   2.282   1.288 -1.9066 -1.9330 -1.1271
  612SOL    HW2 1836   0.704   2.443   1.232 -0.7379  1.4430  1.1799
  613SOL     OW 1837   0.774   1.380   2.383 -0.0298 -0.1831  0.6547
  613SOL    HW1 1838   0.812   1.447   2.313  2.8560 -1.5019  0.6646
  613SOL    HW2 1839   0.747   1.288   2.348  0.4357 -1.5869  1.2313
  614SOL     OW 1840   1.507   1.659   1.911 -0.3394  0.3086  0.8680
  614SOL    HW1 1841   1.492   1.723   1.831  1.4938 -0.2218 -0.9729
  614SOL    HW2 1842   1.585   1.697   1.964  1.8288  1.8324  1.5463
  615SOL     OW 1843   0.715   1.474   1.711 -0.2139  0.0432 -0.3833
  615SOL    HW1 1844   0.682   1.386   1.683 -2.4039  1.0221  0.9921
  615SOL    HW2 1845   0.791   1.508   1.646 -0.7328 -1.2885 -1.6390
  616SOL     OW 1846   1.142   1.579   2.196  0.3097  0.6565  0.0781
  616SOL    HW1 1847   1.041   1.566   2.215 -0.1902  2.2820 -0.6617
  616SOL    HW2 1848   1.164   1.590   2.094 -0.3866 -2.4993  1.2983
  617SOL     OW 1849   2.984   1.585   1.643 -0.8362  0.3511 -0.2165
  617SOL    HW1 1850   2.910   1.532   1.696  0.4805  0.6352 -0.2924
  617SOL    HW2 1851   3.031   1.527   1.572 -0.2968 -1.4411  2.0206
  618SOL     OW 1852   1.916   2.000   1.460  0.4827 -0.0665 -0.1874
  618SOL    HW1 1853   1.990   1.988   1.392  0.3520  0.8436  1.0002
  618SOL    HW2 1854   1.892   1.908   1.508  1.6664  0.3965 -1.4378
  619SOL     OW 1855   1.781   0.543   2.359 -0.0189  0.0626 -0.0141
  619SOL    HW1 1856   1.715   0.595   2.302 -1.3864 -0.9528 -0.3880
  619SOL    HW2 1857   1.737   0.451   2.380  1.7781  0.2742  2.7441
  620SOL     OW 1858   2.221   2.899   0.671 -0.5347 -0.1829  0.2126
  620SOL    HW1 1859   2.142   2.958   0.656  1.5675 -1.8532 -0.4321
  620SOL    HW2 1860   2.262   2.901   0.767  0.8155  2.0885 -0.6617
  621SOL     OW 1861   2.154   1.891   1.352 -0.4641 -0.2178  0.0018
  621SOL    HW1 1862   2.149   1.881   1.461 -1.1376 -1.6954  0.9846
  621SOL    HW2 1863   2.144   1.797   1.303 -1.0639 -1.2341  2.2585
  622SOL     OW 1864   2.230   0.995   1.851  0.1798 -0.3393 -0.0206
  622SOL    HW1 1865   2.302   0.922   1.840 -1.5371 -3.3712 -0.1674
  622SOL    HW2 1866   2.137   0.964   1.869  2.4059  1.0313 -0.5796
  623SOL     OW 1867   1.283   0.927   2.568 -0.8490 -0.1169  0.2500
  623SOL    HW1 1868   1.226   0.884   2.642  1.2527  2.6135  0.4073
  623SOL    HW2 1869   1.241   0.919   2.472  2.4870  1.1764 -1.5236
  624SOL     OW 1870   0.544   0.693   0.002 -0.0554 -0.2721 -0.4558
  624SOL    HW1 1871   0.583   0.715  -0.088  1.5163  1.7081 -0.8197
  624SOL    HW2 1872   0.543   0.759   0.075 -3.2310 -0.2981 -2.7957
  625SOL     OW 1873   2.781   1.737   0.798  0.3068  0.0129  0.1918
  625SOL    HW1 1874   2.772   1.764   0.896 -1.8835 -2.3248  0.7711
  625SOL    HW2 1875   2.703   1.674   0.766 -1.4683  1.6912  1.1671
  626SOL     OW 1876   0.396   2.791   2.060 -0.2976  0.3192  0.4455
  626SOL    HW1 1877   0.423   2.890   2.062 -0.4414  1.4460 -1.1765
  626SOL    HW2 1878   0.334   2.769   1.980 -3.8875  0.5617  0.9156
  627SOL     OW 1879   0.711   1.028   1.494 -0.8124  0.0391 -0.0274
  627SOL    HW1 1880   0.757   0.938   1.516 -2.2188  0.4624  0.2156
  627SOL    HW2 1881   0.779   1.094   1.463  1.8623 -0.1073  0.2953
  628SOL     OW 1882   2.446   0.137   0.687  0.2157 -0.4167 -0.5441
  628SOL    HW1 1883   2.453   0.068   0.615  1.9662 -1.3485  0.0177
  628SOL    HW2 1884   2.351   0.156   0.725  0.0972  0.1764  1.4633
  629SOL     OW 1885   1.974   0.962   1.953  0.1134  0.0514 -0.0261
  629SOL    HW1 1886   2.022   0.971   2.046 -0.5522  0.6733 -1.3501
  629SOL    HW2 1887   1.913   1.048   1.939  0.1298  2.5370  1.2395
  630SOL     OW 1888   2.838   2.201   0.760  0.0331 -0.1052  0.4215
  630SOL    HW1 1889   2.766   2.253   0.807 -0.3172  0.5333 -0.5186
  630SOL    HW2 1890   2.800   2.119   0.706  2.4232  1.6814  2.3248
  631SOL     OW 1891   2.996   0.187   2.139  0.0510 -1.1582 -0.3977
  631SOL    HW1 1892   3.053   0.209   2.227  1.4751  2.4365  1.7511
  631SOL    HW2 1893   3.061   0.170   2.055  2.1534  0.7670 -0.1435
  632SOL     OW 1894   2.375   2.523   0.767  0.2879  0.1509  0.2487
  632SOL    HW1 1895   2.465   2.560   0.809  1.5156 -3.2203 -1.7922
  632SOL    HW2 1896   2.369   2.557   0.669  1.1856  4.2197 -0.5259
  633SOL     OW 1897   1.590   1.278   2.695 -0.0568 -0.6136  0.1624
  633SOL    HW1 1898   1.554   1.358   2.753  0.5890  1.3076 -1.1073
  633SOL    HW2 1899   1.514   1.223   2.648 -1.6219  1.5966  0.9735
  634SOL     OW 1900   0.640   2.078   0.903 -0.1071 -0.6342 -0.3115
  634SOL    HW1 1901   0.578   2.133   0.969  1.2971 -0.5041 -1.2498
  634SOL    HW2 1902   0.716   2.139   0.867  1.2273  3.6574 -0.5845
  635SOL     OW 1903   0.073   2.244   3.038 -0.1278  0.1731  0.7709
  635SOL    HW1 1904  -0.015   2.291   3.009  1.8347 -1.9773 -1.3476
  635SOL    HW2 1905   0.102   2.271   3.136 -1.0387  1.3616 -1.2612
  636SOL     OW 1906   2.333   2.870   2.018  0.3199 -0.5966 -0.0852
  636SOL    HW1 1907   2.309   2.972   2.018  1.4459 -1.0274 -4.5377
  636SOL    HW2 1908   2.293   2.817   2.104  1.5822  1.0523  0.8549
  637SOL     OW 1909   2.592   0.718   2.070 -0.4397  0.1919  0.1903
  637SOL    HW1 1910   2.566   0.710   1.971  0.0760 -4.2130 -1.3477
  637SOL    HW2 1911   2.641   0.804   2.092 -1.5997  0.9652 -0.6786
  638SOL     OW 1912   2.420   1.896   1.432 -1.1263 -0.4643  0.0840
  638SOL    HW1 1913   2.323   1.902   1.392  2.2415  0.7938  2.3179
  638SOL    HW2 1914   2.469   1.804   1.441  1.1629  0.3583  1.1426
  639SOL     OW 1915   1.290   2.237   1.557 -0.0936 -0.1741  0.2192
  639SOL    HW1 1916   1.285   2.157   1.493  0.8879  0.8597  0.5414
  639SOL    HW2 1917   1.213   2.242   1.629  0.0928 -0.3356  2.3832
  640SOL     OW 1918   0.235   1.213   1.523  0.7241 -0.7484  0.8584
  640SOL    HW1 1919   0.260   1.278   1.600  1.2603 -2.1997 -1.7773
  640SOL    HW2 1920   0.311   1.138   1.513  3.5742  1.8090  0.7717
  641SOL     OW 1921   1.884   0.257   1.424 -0.6803  0.2297  0.0426
  641SOL    HW1 1922   1.815   0.319   1.477 -2.0494  0.2726 -1.3049
  641SOL    HW2 1923   1.952   0.215   1.489  2.0281  0.1878  3.9697
  642SOL     OW 1924   2.008   0.105   0.329 -0.4641  0.0910 -0.2625
  642SOL    HW1 1925   2.111   0.103   0.333 -0.7837  2.3342 -0.1774
  642SOL    HW2 1926   1.962   0.079   0.422  0.0592 -0.1982  2.3843
  643SOL     OW 1927   2.805   1.887   2.136 -0.1685 -0.2256 -0.4137
  643SOL    HW1 1928   2.765   1.811   2.080 -0.0016  1.2097 -1.8819
  643SOL    HW2 1929   2.832   1.963   2.071  1.0022  0.0109  2.4502
  644SOL     OW 1930   2.191   2.269   1.231  0.3185  0.3472  0.1974
  644SOL    HW1 1931   2.288   2.245   1.210  0.6492 -0.4475 -2.2433
  644SOL    HW2 1932   2.180   2.301   1.325  2.3953 -1.9844 -0.5802
  645SOL     OW 1933   0.689   0.835   1.108 -0.2717 -0.6045 -0.9035
  645SOL    HW1 1934   0.601   0.780   1.103 -1.8780  3.7892  0.0252
  645SOL    HW2 1935   0.675   0.929   1.069 -2.4833 -1.3509  1.2484
  646SOL     OW 1936   1.447   1.896   1.792  0.2398 -0.4983  0.3914
  646SOL    HW1 1937   1.531   1.958   1.794  0.4987 -1.2889  1.4048
  646SOL    HW2 1938   1.389   1.925   1.873 -1.8876  0.5441  0.9505
  647SOL     OW 1939   0.899   0.930   0.693  0.0892  0.0641 -0.1291
  647SOL    HW1 1940   0.973   0.917   0.766 -0.5704  1.1224  0.5054
  647SOL    HW2 1941   0.809   0.911   0.737  0.0862  2.9835 -2.1954
  648SOL     OW 1942   0.104   0.250   0.324 -0.8158 -0.0861  0.2018
  648SOL    HW1 1943   0.023   0.182   0.329  0.7933 -2.1888  1.2108
  648SOL    HW2 1944   0.087   0.328   0.259 -2.1561  2.8006 -2.6710
  649SOL     OW 1945   0.003   0.011   0.952  0.2254 -0.0512 -0.2342
  649SOL    HW1 1946   0.109   0.021   0.943 -0.2743 -0.9835 -0.9489
  649SOL    HW2 1947  -0.042   0.054   1.033  1.0455  1.2397 -0.2448
  650SOL     OW 1948   2.727   0.718   1.444  0.3584 -0.2485  0.0677
  650SOL    HW1 1949   2.633   0.714   1.490  0.6613  1.4641 -1.2598
  650SOL    HW2 1950   2.741   0.807   1.393 -1.3712  0.0563  3.2950
  651SOL     OW 1951   0.912   1.600   1.520 -0.5236  0.6945 -0.4402
  651SOL    HW1 1952   0.967   1.677   1.565  0.0356  2.5576  0.8203
  651SOL    HW2 1953   0.835   1.627   1.463  0.7359 -1.3300 -0.5487
  652SOL     OW 1954   2.299   2.505   2.383  1.1884 -0.4633  0.0968
  652SOL    HW1 1955   2.206   2.506   2.422  1.5487  0.8423 -0.8168
  652SOL    HW2 1956   2.323   2.606   2.362 -1.2364 -1.8976 -1.1150
  653SOL     OW 1957   2.791   1.168   0.259  0.3154 -0.3695 -0.2556
  653SOL    HW1 1958   2.855   1.252   0.274  3.8109  0.1601 -2.9210
  653SOL    HW2 1959   2.832   1.077   0.287 -1.1225  2.4753 -1.1121
  654SOL     OW 1960   1.186   2.217   1.223 -0.4349  0.1960  0.3026
  654SOL    HW1 1961   1.229   2.166   1.306  2.1754 -0.5698 -0.1767
  654SOL    HW2 1962   1.255   2.209   1.144 -1.5375 -0.0822 -1.8333
  655SOL     OW 1963   0.234   1.073   1.896 -0.7430  0.2038  0.8077
  655SOL    HW1 1964   0.261   0.992   1.830  0.9043 -2.1893 -1.7151
  655SOL    HW2 1965   0.320   1.134   1.913 -1.4270 -1.4643 -0.8622
  656SOL     OW 1966   2.468   2.420   2.568 -0.5650 -0.1790 -0.4817
  656SOL    HW1 1967   2.547   2.479   2.584 -1.3637 -1.7964 -0.5567
  656SOL    HW2 1968   2.402   2.456   2.498 -1.5898 -0.1291 -1.1173
  657SOL     OW 1969   3.063   1.101   1.877  0.3803  0.1971  0.1312
  657SOL    HW1 1970   3.028   1.187   1.925  0.4095 -1.4312  1.9169
  657SOL    HW2 1971   3.164   1.085   1.898  0.3829 -0.9673  1.8122
  658SOL     OW 1972   1.690   0.233   2.371  0.2859  0.2235 -0.3196
  658SOL    HW1 1973   1.718   0.142   2.419 -0.5569 -2.1907  1.4570
  658SOL    HW2 1974   1.750   0.239   2.290 -1.9561 -1.0257  2.8459
  659SOL     OW 1975   1.407   0.627   2.840  0.0858  0.1818 -0.4182
  659SOL    HW1 1976   1.481   0.681   2.885  2.1892 -0.9183 -0.6870
  659SOL    HW2 1977   1.340   0.687   2.786 -0.0534  1.3060  0.5252
  660SOL     OW 1978   1.388   0.435   1.375 -0.2762  0.1807  0.5356
  660SOL    HW1 1979   1.438   0.446   1.465 -2.9527 -0.6166 -0.6317
  660SOL    HW2 1980   1.443   0.382   1.303  1.6497 -1.1722  0.9397
  661SOL     OW 1981   2.466   1.131   0.666 -0.0969 -0.0189  0.0966
  661SOL    HW1 1982   2.505   1.054   0.611  0.7897  0.5117 -0.3729
  661SOL    HW2 1983   2.392   1.179   0.614  0.0341 -0.9409  1.5842
  662SOL     OW 1984   1.274   0.449   1.826 -0.5627 -0.1072  0.5810
  662SOL    HW1 1985   1.266   0.345   1.818  1.7529  1.0194 -1.2364
  662SOL    HW2 1986   1.232   0.484   1.917  2.8132  1.9586 -1.3391
  663SOL     OW 1987   0.839   1.568   2.201 -0.2266  0.7466  0.4025
  663SOL    HW1 1988   0.809   1.658   2.241  1.5028 -0.2566 -0.2733
  663SOL    HW2 1989   0.783   1.533   2.116  2.7301 -0.6967  1.3883
  664SOL     OW 1990   1.654   2.078   1.388 -0.4458 -0.3582 -0.2535
  664SOL    HW1 1991   1.590   2.005   1.427  1.0769 -0.7316  2.0111
  664SOL    HW2 1992   1.753   2.051   1.398  0.4657  2.0047 -0.8239
  665SOL     OW 1993   2.314   0.609   1.996 -0.1190  0.2808  0.2088
  665SOL    HW1 1994   2.329   0.520   2.036  2.5303  1.0409 -0.4440
  665SOL    HW2 1995   2.245   0.661   2.048  0.6046  1.2057 -1.3776
  666SOL     OW 1996   0.464   2.262   0.466 -0.4611 -0.0916 -0.2478
  666SOL    HW1 1997   0.520   2.348   0.454 -1.2377 -0.7930  0.0516
  666SOL    HW2 1998   0.423   2.253   0.559 -1.0664 -0.7085  0.5226
  667SOL     OW 1999   2.091   0.213   1.005 -0.1874 -0.8792  0.5586
  667SOL    HW1 2000   2.149   0.280   1.050  1.1956 -0.8804 -3.0432
  667SOL    HW2 2001   1.989   0.229   1.029  1.0239 -0.3297  0.6113
  668SOL     OW 2002   2.017   0.636   1.269  0.6822  0.7562  0.0576
  668SOL    HW1 2003   2.089   0.610   1.201 -1.8019 -3.2874  0.1385
  668SOL    HW2 2004   2.023   0.579   1.358 -0.0682  2.6079  0.8585
  669SOL     OW 2005   3.014   2.102   0.955  0.0971  0.6641  0.1427
  669SOL    HW1 2006   2.942   2.140   0.894 -0.1207 -0.1698 -1.1208
  669SOL    HW2 2007   2.991   2.123   1.050 -1.8854  4.0631  0.7608
  670SOL     OW 2008   2.787   2.326   2.009  0.5376  0.2800 -0.3253
  670SOL    HW1 2009   2.733   2.308   2.094  1.2149 -1.0705  0.0389
  670SOL    HW2 2010   2.770   2.420   1.966 -0.3103 -1.4763  0.0465
  671SOL     OW 2011   1.652   1.707   1.476 -0.0468  0.6602  0.2167
  671SOL    HW1 2012   1.690   1.692   1.379  0.0534 -0.6225  0.3527
  671SOL    HW2 2013   1.560   1.767   1.474 -1.2848 -0.5253 -1.3643
  672SOL     OW 2014   0.385   0.658   2.441 -0.2954  0.4519  0.4779
  672SOL    HW1 2015   0.424   0.675   2.346  0.0108 -2.1199 -2.3025
  672SOL    HW2 2016   0.301   0.715   2.461  1.9220 -2.0328  0.2551
  673SOL     OW 2017   0.142   1.245   1.078  0.0382  0.2610 -0.5946
  673SOL    HW1 2018   0.153   1.301   1.164 -2.2874 -1.8553  0.1299
  673SOL    HW2 2019   0.223   1.187   1.060 -1.9458  3.4564  0.0343
  674SOL     OW 2020   1.559   2.896   0.146  0.5390  0.2011  0.0473
  674SOL    HW1 2021   1.582   2.999   0.150  0.4347  1.1174 -1.7773
  674SOL    HW2 2022   1.636   2.836   0.126 -0.1927 -0.0387 -1.4810
  675SOL     OW 2023   1.717   0.892   2.363 -0.0200  0.3879 -0.7320
  675SOL    HW1 2024   1.820   0.886   2.379 -0.3753  2.1612  0.5466
  675SOL    HW2 2025   1.687   0.819   2.291 -0.2791 -0.9290 -2.4513
  676SOL     OW 2026   2.507   1.518   2.031  0.5076 -0.0787 -0.2767
  676SOL    HW1 2027   2.489   1.467   1.945 -0.9575  0.3524 -0.3820
  676SOL    HW2 2028   2.569   1.474   2.103  1.1256  1.1370 -0.8836
  677SOL     OW 2029   1.898   0.555   0.906  0.9259 -0.2396 -0.4954
  677SOL    HW1 2030   1.887   0.621   0.989 -0.0366  1.0913 -0.0310
  677SOL    HW2 2031   1.848   0.464   0.915 -0.0338 -2.2482  1.0350
  678SOL     OW 2032   0.090   0.804   1.655 -0.1688 -0.6664 -0.1003
  678SOL    HW1 2033   0.186   0.827   1.686 -0.2322  0.8499 -0.4896
  678SOL    HW2 2034   0.022   0.830   1.727  1.1784 -0.6965 -1.6864
  679SOL     OW 2035   2.462   1.204   1.156 -0.2239  0.3263  0.1974
  679SOL    HW1 2036   2.385   1.194   1.224 -2.5154  0.5612  0.0958
  679SOL    HW2 2037   2.474   1.117   1.105  1.5444 -1.3622  1.7968
  680SOL     OW 2038   2.879   0.644   1.697  0.0298 -0.2798  0.2029
  680SOL    HW1 2039   2.820   0.682   1.619  2.9104  0.3893 -1.0336
  680SOL    HW2 2040   2.899   0.711   1.774 -0.6652  2.5640  1.7316
  681SOL     OW 2041   3.075   0.142   1.640  0.0407 -0.1144  0.1892
  681SOL    HW1 2042   3.156   0.115   1.577 -0.5420  0.7936  1.0529
  681SOL    HW2 2043   3.036   0.235   1.622  1.1813  1.3817  1.4587
  682SOL     OW 2044   0.724   3.087   1.354 -0.1678  0.0826 -0.6960
  682SOL    HW1 2045   0.658   3.018   1.395  1.0542 -2.7162  2.1869
  682SOL    HW2 2046   0.724   3.088   1.250 -0.7375  1.5767 -3.5642
  683SOL     OW 2047   1.396   0.235   2.177  0.2572 -0.2665 -0.0017
  683SOL    HW1 2048   1.387   0.282   2.267  0.3722  0.5238 -0.5656
  683SOL    HW2 2049   1.476   0.273   2.123 -0.6889 -1.2773  0.9142
  684SOL     OW 2050   1.453   2.128   0.477 -0.0028  0.1915  0.3367
  684SOL    HW1 2051   1.513   2.061   0.529 -0.2653  0.0356  0.1554
  684SOL    HW2 2052   1.376   2.082   0.425 -0.1155  0.7011 -1.0849
  685SOL     OW 2053   2.148   1.946   1.956  0.6032 -0.0729  0.4567
  685SOL    HW1 2054   2.206   2.011   1.894  0.3893 -1.0211 -1.0117
  685SOL    HW2 2055   2.210   1.870   1.995  2.6492 -1.1976 -1.1581
  686SOL     OW 2056   1.528   1.723   2.767  0.1679 -0.4674 -0.0286
  686SOL    HW1 2057   1.521   1.615   2.772  0.4021 -2.2699  0.5056
  686SOL    HW2 2058   1.533   1.765   2.862 -0.8424 -0.9938 -0.5678
  687SOL     OW 2059   1.345   2.501   1.898  0.2176 -0.5248 -0.2857
  687SOL    HW1 2060   1.392   2.440   1.828  0.7885  2.2424  2.3727
  687SOL    HW2 2061   1.382   2.487   1.993 -1.0777  0.7856 -0.4169
  688SOL     OW 2062   2.072   1.508   1.593  0.3602 -0.1542  0.0910
  688SOL    HW1 2063   2.169   1.531   1.565 -1.3170  0.9570 -0.7268
  688SOL    HW2 2064   2.017   1.493   1.502  0.2182  0.2711 -2.1783
  689SOL     OW 2065   2.432   1.061   2.697  0.1034 -0.3809  0.4259
  689SOL    HW1 2066   2.347   1.042   2.759  0.0164 -0.6726  0.3297
  689SOL    HW2 2067   2.514   1.083   2.756  0.3661  0.6011 -2.5106
  690SOL     OW 2068   2.221   2.764   3.062  0.2573  0.2898 -0.1434
  690SOL    HW1 2069   2.134   2.749   3.001 -1.7943 -0.2197 -1.1033
  690SOL    HW2 2070   2.213   2.827   3.146  0.8820  1.1525 -2.2275
  691SOL     OW 2071   2.582   0.459   2.176  0.0700 -0.2883  0.4363
  691SOL    HW1 2072   2.641   0.397   2.118 -0.7505 -1.2726 -0.7210
  691SOL    HW2 2073   2.574   0.554   2.133 -4.1144  0.4486  0.2473
  692SOL     OW 2074   2.737   1.248   0.672 -0.3744  0.4761 -0.1578
  692SOL    HW1 2075   2.642   1.216   0.708 -0.6297 -1.1537  1.0381
  692SOL    HW2 2076   2.779   1.325   0.726  0.7840  3.5607 -1.4263
  693SOL     OW 2077   2.839   2.925   0.611 -0.5031  0.2490  0.2023
  693SOL    HW1 2078   2.871   3.018   0.646  0.5040  1.9850  2.2134
  693SOL    HW2 2079   2.784   2.940   0.523 -1.2035  0.8172 -0.6735
  694SOL     OW 2080   2.380   2.128   0.074  0.1648  0.3523 -0.1888
  694SOL    HW1 2081   2.358   2.222   0.102  0.1327  1.7755  1.0758
  694SOL    HW2 2082   2.306   2.057   0.087  1.3999  4.4114  0.3738
  695SOL     OW 2083   0.553   2.903   1.475 -0.0543  0.1995  0.0749
  695SOL    HW1 2084   0.493   2.820   1.454 -1.5061 -3.7836  0.4097
  695SOL    HW2 2085   0.522   2.953   1.561  1.7862  0.4967  0.6599
  696SOL     OW 2086   2.728   1.969   0.640 -0.1054  0.3535 -0.3173
  696SOL    HW1 2087   2.777   1.890   0.678  0.4403  2.6761  2.2348
  696SOL    HW2 2088   2.666   1.944   0.562  0.3734 -1.2554  2.0113
  697SOL     OW 2089   1.670   2.056   1.718  0.0656 -0.6304 -0.2156
  697SOL    HW1 2090   1.752   2.029   1.776 -0.7468 -0.5718  1.6592
  697SOL    HW2 2091   1.697   2.117   1.637 -2.0498  2.0517 -0.9382
  698SOL     OW 2092   2.922   0.315   2.789  0.0809  0.1299  0.3491
  698SOL    HW1 2093   2.918   0.266   2.694  1.3859 -0.8989  3.8115
  698SOL    HW2 2094   2.980   0.270   2.864  1.5194  1.5011  0.8429
  699SOL     OW 2095   1.524   0.106   2.929 -0.1493 -0.3960 -0.0617
  699SOL    HW1 2096   1.499   0.005   2.914 -2.3408 -0.8056 -0.5758
  699SOL    HW2 2097   1.561   0.149   2.839  2.2600  0.0436  0.3312
  700SOL     OW 2098   0.987   2.383   1.403  0.0766  0.7562 -0.3859
  700SOL    HW1 2099   1.073   2.337   1.361  0.3931  1.3822 -0.8042
  700SOL    HW2 2100   0.904   2.362   1.346  1.5886 -0.5631 -2.0416
  701SOL     OW 2101   1.865   2.805   0.023 -0.1993 -0.3274  0.1596
  701SOL    HW1 2102   1.872   2.769   0.119 -0.7831 -0.1539 -0.9976
  701SOL    HW2 2103   1.887   2.907   0.020 -0.2685  1.0971  1.7486
  702SOL     OW 2104   2.079   1.372   1.827  0.0038 -0.2397 -0.5877
  702SOL    HW1 2105   2.167   1.333   1.875  0.2075  0.7793  0.6738
  702SOL    HW2 2106   2.084   1.412   1.733  1.2970  1.1815 -1.8395
  703SOL     OW 2107   1.998   0.866   1.469 -0.3772  0.2455  0.2737
  703SOL    HW1 2108   1.974   0.770   1.500  1.2617  2.1845 -0.7556
  703SOL    HW2 2109   2.065   0.920   1.529 -0.2598  1.0169  0.6791
  704SOL     OW 2110   0.278   2.060   1.785 -0.6101 -0.0446  0.1792
  704SOL    HW1 2111   0.297   2.004   1.867  0.6494  1.0999 -1.5344
  704SOL    HW2 2112   0.347   2.130   1.755 -2.7114  3.9347 -2.4355
  705SOL     OW 2113   2.541   1.410   0.846  0.5528 -0.3503  0.1779
  705SOL    HW1 2114   2.441   1.386   0.874 -2.5897  0.7919  1.3400
  705SOL    HW2 2115   2.607   1.373   0.918 -1.2428  0.6308  1.5435
  706SOL     OW 2116   0.632   1.761   1.892 -0.3069 -0.0201 -0.6786
  706SOL    HW1 2117   0.627   1.662   1.924 -1.9262 -5.0228 -1.8824
  706SOL    HW2 2118   0.723   1.810   1.914 -0.0399 -0.2293  0.7425
  707SOL     OW 2119   2.323   1.251   1.937  0.2357  0.0634 -0.6318
  707SOL    HW1 2120   2.428   1.233   1.951 -1.4172  0.0223  0.8325
  707SOL    HW2 2121   2.272   1.161   1.922 -0.2464 -0.5790 -1.4386
  708SOL     OW 2122   3.058   0.526   3.035 -0.2382  0.4767 -0.1654
  708SOL    HW1 2123   3.140   0.570   2.989  1.7679  0.9412 -2.9224
  708SOL    HW2 2124   3.046   0.425   3.012  0.7280 -4.9430 -1.0557
  709SOL     OW 2125   1.762   1.865   0.248 -0.1279  0.0711 -0.5380
  709SOL    HW1 2126   1.795   1.943   0.302 -2.8269 -0.7278 -2.5019
  709SOL    HW2 2127   1.811   1.866   0.154  3.0746 -1.2156 -2.1220
  710SOL     OW 2128   1.769   1.666   2.442 -0.1456 -0.1975 -0.2541
  710SOL    HW1 2129   1.816   1.648   2.345 -0.6849  0.1337 -1.7906
  710SOL    HW2 2130   1.814   1.604   2.514  0.5727  0.1779 -0.5078
  711SOL     OW 2131   2.608   2.920   0.965 -0.0716 -0.5464  0.0705
  711SOL    HW1 2132   2.623   3.024   0.953  0.4547 -0.6845 -0.3058
  711SOL    HW2 2133   2.692   2.874   1.014  2.1869  0.2368 -0.1192
  712SOL     OW 2134   1.495   2.295   1.781  0.0619  0.3509 -0.2849
  712SOL    HW1 2135   1.560   2.216   1.798 -0.2351 -1.3592 -1.2389
  712SOL    HW2 2136   1.425   2.264   1.709  0.3199  0.1251  1.0392
  713SOL     OW 2137   2.843   1.353   2.474  0.8563 -0.5236  0.3067
  713SOL    HW1 2138   2.837   1.251   2.453  1.0756 -0.7259 -0.3764
  713SOL    HW2 2139   2.760   1.387   2.526 -4.2981 -1.1074 -0.6130
  714SOL     OW 2140   2.693   0.434   2.440 -0.2761 -0.1484 -0.5428
  714SOL    HW1 2141   2.615   0.410   2.504 -1.5963 -1.8496 -1.2502
  714SOL    HW2 2142   2.661   0.475   2.350  0.4240  0.6870 -2.2667
  715SOL     OW 2143   1.643   2.138   1.104  0.0284 -0.0512 -0.0933
  715SOL    HW1 2144   1.553   2.177   1.071 -0.5758  0.4576 -1.1709
  715SOL    HW2 2145   1.652   2.141   1.208  2.0943 -2.1647 -0.8401
  716SOL     OW 2146   1.225   0.212   1.458 -0.2839 -0.3877 -0.1379
  716SOL    HW1 2147   1.125   0.191   1.442 -0.1978  1.2295 -1.8231
  716SOL    HW2 2148   1.258   0.298   1.414  2.3372  0.2898  1.4984
  717SOL     OW 2149   1.047   0.614   1.586  0.2819 -0.0473  0.0407
  717SOL    HW1 2150   1.135   0.661   1.614 -0.2852  1.3340 -0.9942
  717SOL    HW2 2151   1.057   0.560   1.497 -1.5761  0.8152  1.8366
  718SOL     OW 2152   0.650   1.083   1.001 -0.0167  0.3360 -0.0821
  718SOL    HW1 2153   0.645   1.083   0.897  1.0998 -0.6157  2.5538
  718SOL    HW2 2154   0.745   1.100   1.036 -1.6084 -3.6901  0.6302
  719SOL     OW 2155   0.738   1.816   2.233  0.0836 -0.2937 -0.0371
  719SOL    HW1 2156   0.774   1.847   2.320 -3.0598 -1.6163 -2.1708
  719SOL    HW2 2157   0.633   1.824   2.238 -1.5956 -1.4816  3.0473
  720SOL     OW 2158   2.262   1.139   0.217  0.1308 -0.0379  0.1111
  720SOL    HW1 2159   2.363   1.116   0.214  1.4130 -0.9228 -0.2025
  720SOL    HW2 2160   2.217   1.101   0.302 -2.9420  0.2263  0.2701
  721SOL     OW 2161   2.235   0.022   2.013  0.3170 -0.1267 -0.4808
  721SOL    HW1 2162   2.261   0.108   1.959 -2.2785  0.7168 -2.0960
  721SOL    HW2 2163   2.134   0.019   2.039  0.2161  0.6747  1.6702
  722SOL     OW 2164   2.371   1.651   0.501  0.5840 -0.3715  0.0989
  722SOL    HW1 2165   2.382   1.566   0.441 -0.3045  1.5641  1.6414
  722SOL    HW2 2166   2.273   1.670   0.532  0.5166  0.2312 -1.5350
  723SOL     OW 2167   2.564   2.852   1.900  0.1408  0.3245  0.0613
  723SOL    HW1 2168   2.640   2.873   1.974 -0.0219 -0.7869  2.9457
  723SOL    HW2 2169   2.470   2.846   1.941  0.5976 -1.7821  0.9259
  724SOL     OW 2170   0.334   2.426   2.366 -0.6979 -0.1078 -0.5081
  724SOL    HW1 2171   0.235   2.462   2.375 -1.9743  1.3223 -1.6194
  724SOL    HW2 2172   0.362   2.388   2.460 -0.2290  0.0048 -2.1901
  725SOL     OW 2173   2.265   2.778   1.467  0.2621 -0.0792  0.1738
  725SOL    HW1 2174   2.326   2.824   1.394  1.6421  3.0078  2.4103
  725SOL    HW2 2175   2.287   2.677   1.489 -2.3408  2.3225  2.0375
  726SOL     OW 2176   2.385   2.249   0.806 -0.0814  0.3104  0.2028
  726SOL    HW1 2177   2.366   2.353   0.791 -1.2297  1.7962  0.7184
  726SOL    HW2 2178   2.361   2.199   0.719  2.1802  0.5197 -1.3197
  727SOL     OW 2179   0.234   3.056   0.163 -0.0820 -0.2623  0.0929
  727SOL    HW1 2180   0.251   2.970   0.109  0.4215 -1.4826 -0.2134
  727SOL    HW2 2181   0.270   3.142   0.120 -0.9257  0.6860  1.0005
  728SOL     OW 2182   2.859   0.670   1.010  0.5567 -0.8779 -0.4689
  728SOL    HW1 2183   2.785   0.616   0.959  0.2359 -1.2676 -1.7149
  728SOL    HW2 2184   2.888   0.624   1.099  0.0035 -2.5614 -1.7490
  729SOL     OW 2185   2.938   2.470   0.743  0.8842  0.3979 -0.3572
  729SOL    HW1 2186   2.907   2.369   0.732  1.3817 -0.5730 -1.0981
  729SOL    HW2 2187   3.042   2.476   0.740 -1.6747 -0.2334 -0.7135
  730SOL     OW 2188   2.619   0.596   0.875  0.5663 -0.3609  0.2457
  730SOL    HW1 2189   2.559   0.685   0.863 -2.2328 -0.4441 -0.8544
  730SOL    HW2 2190   2.668   0.562   0.787 -0.1478  4.5766 -0.8773
  731SOL     OW 2191   0.077   2.113   2.452  0.3706  0.0576 -0.3630
  731SOL    HW1 2192   0.089   2.150   2.551 -1.7465  1.5312  4.1845
  731SOL    HW2 2193  -0.023   2.107   2.424  1.9606  0.7944  1.2439
  732SOL     OW 2194   1.114   2.828   1.970 -0.0509  0.2485 -0.2342
  732SOL    HW1 2195   1.154   2.769   2.044  1.6000  0.6689  0.0127
  732SOL    HW2 2196   1.131   2.787   1.877 -0.0593 -0.8176  0.8433
  733SOL     OW 2197   3.032   0.695   2.113 -0.1821 -0.7431  0.0666
  733SOL    HW1 2198   3.121   0.747   2.111 -1.2652 -1.1572  0.6281
  733SOL    HW2 2199   3.022   0.634   2.031 -0.6690 -1.1971  0.3899
  734SOL     OW 2200   1.391   0.365   2.709 -0.3368  0.1404  0.1008
  734SOL    HW1 2201   1.397   0.458   2.750 -0.4760  2.2663 -0.2294
  734SOL    HW2 2202   1.309   0.306   2.741  0.5852  1.3119 -0.6541
  735SOL     OW 2203   2.814   2.619   2.278 -0.5024  0.6004  0.3569
  735SOL    HW1 2204   2.719   2.593   2.237  2.0692  0.5763 -0.4570
  735SOL    HW2 2205   2.894   2.601   2.213  0.0674  1.0937  1.1392
  736SOL     OW 2206   0.788   0.398   2.640  0.2304  0.3940 -0.5687
  736SOL    HW1 2207   0.725   0.477   2.628  2.5949 -1.7025 -0.5517
  736SOL    HW2 2208   0.792   0.342   2.549 -2.6945  0.8035 -1.0418
  737SOL     OW 2209   2.710   0.492   2.823 -0.1755  0.3011  0.5299
  737SOL    HW1 2210   2.670   0.476   2.915 -0.1848 -0.1285 -1.3316
  737SOL    HW2 2211   2.789   0.428   2.804 -2.0098  2.7941 -1.5265
  738SOL     OW 2212   1.654   1.180   3.007 -0.2394 -0.1604 -0.5053
  738SOL    HW1 2213   1.744   1.149   2.964  1.5112 -3.0218  1.2481
  738SOL    HW2 2214   1.614   1.107   3.068  3.5007  0.0953  1.6452
  739SOL     OW 2215   1.751   0.583   0.681  0.1103 -0.5897 -0.2051
  739SOL    HW1 2216   1.802   0.576   0.771  1.9981 -1.2717 -0.5206
  739SOL    HW2 2217   1.798   0.521   0.608  1.8019 -1.8213 -0.2394
  740SOL     OW 2218   1.902   2.003   2.150 -0.4434  0.2487  0.0371
  740SOL    HW1 2219   1.989   1.983   2.098  0.3322 -1.7694 -1.1971
  740SOL    HW2 2220   1.817   1.980   2.098  0.7885  2.1386  0.1105
  741SOL     OW 2221   2.505   0.120   2.548  0.2018 -0.6197  0.2771
  741SOL    HW1 2222   2.601   0.092   2.575  1.5107  0.5540  1.5266
  741SOL    HW2 2223   2.479   0.083   2.452  1.6489 -0.1176 -1.5776
  742SOL     OW 2224   2.259   1.380   0.045 -0.3461  0.5739 -0.4577
  742SOL    HW1 2225   2.179   1.439   0.050 -0.9798 -0.9743  0.6635
  742SOL    HW2 2226   2.257   1.308   0.116  3.1632 -0.8871 -4.1941
  743SOL     OW 2227   1.748   0.639   2.644  0.0042  0.2246  0.0980
  743SOL    HW1 2228   1.779   0.603   2.554 -2.3152 -0.2038  2.7038
  743SOL    HW2 2229   1.674   0.711   2.631 -1.6675 -1.3509  2.3521
  744SOL     OW 2230   2.652   2.053   0.015 -0.0758 -0.5683  0.2619
  744SOL    HW1 2231   2.554   2.068   0.041  3.3347 -1.8941  1.5612
  744SOL    HW2 2232   2.712   2.019   0.092 -0.1370  0.8400  0.5710
  745SOL     OW 2233   2.201   2.705   2.197 -0.0015  0.1568 -0.2499
  745SOL    HW1 2234   2.103   2.699   2.156  0.9487 -1.9876  1.2756
  745SOL    HW2 2235   2.203   2.754   2.289 -1.3924 -0.6121  0.0903
  746SOL     OW 2236   0.003   2.609   1.845 -0.1068 -0.3830 -0.3373
  746SOL    HW1 2237   0.106   2.606   1.828  0.0737  1.6777 -0.6357
  746SOL    HW2 2238  -0.039   2.694   1.888 -1.6242 -2.1317  2.1520
  747SOL     OW 2239   0.015   1.810   1.720 -0.3035 -0.4702 -0.4275
  747SOL    HW1 2240  -0.028   1.719   1.694  0.6452 -0.7720  0.8083
  747SOL    HW2 2241   0.101   1.830   1.666  1.4323 -0.1275 -0.3968
  748SOL     OW 2242   1.758   2.752   2.877 -0.4369  0.0262 -0.0646
  748SOL    HW1 2243   1.807   2.779   2.965 -0.7034  0.8622 -1.4418
  748SOL    HW2 2244   1.657   2.754   2.878  3.2834 -1.1156  0.0956
  749SOL     OW 2245   1.283   0.059   0.883 -0.0243  0.0542  0.4185
  749SOL    HW1 2246   1.243  -0.035   0.897  1.4533 -1.4222 -1.6189
  749SOL    HW2 2247   1.297   0.077   0.780  1.7808  2.0749  0.4974
  750SOL     OW 2248   2.293   0.248   1.880 -0.6771  0.3776 -0.2510
  750SOL    HW1 2249   2.365   0.285   1.807  1.3510  2.5212 -1.9988
  750SOL    HW2 2250   2.308   0.289   1.975  0.2804  1.5573 -1.4602
  751SOL     OW 2251   0.828   2.244   2.868  0.1492  0.3339  0.1094
  751SOL    HW1 2252   0.902   2.256   2.938 -0.7295 -0.0305  3.6691
  751SOL    HW2 2253   0.781   2.153   2.883 -0.6401  2.0379 -0.1540
  752SOL     OW 2254   1.239   0.939   1.544  0.0082  0.0075  0.1403
  752SOL    HW1 2255   1.309   0.988   1.481 -0.2866  1.6631  0.5462
  752SOL    HW2 2256   1.276   0.845   1.575  0.8038  1.1479  1.9191
  753SOL     OW 2257   0.934   2.639   1.786  0.0628  0.5174 -0.7804
  753SOL    HW1 2258   1.020   2.681   1.745  3.4463  0.7973 -0.4617
  753SOL    HW2 2259   0.844   2.691   1.769 -1.1964 -1.1020  0.2860
  754SOL     OW 2260   1.153   1.294   3.057 -0.2643  0.3443 -0.4109
  754SOL    HW1 2261   1.199   1.240   2.980 -0.5910  1.2821  2.1571
  754SOL    HW2 2262   1.157   1.399   3.043  2.5300  2.0040 -0.1996
  755SOL     OW 2263   2.026   0.525   2.213 -0.0611 -0.7207  0.2286
  755SOL    HW1 2264   2.092   0.463   2.262  1.9770 -0.6387 -0.3735
  755SOL    HW2 2265   1.935   0.534   2.265  1.1945  2.3199 -0.0170
  756SOL     OW 2266   2.639   0.979   2.924  0.2790  0.0706  0.3541
  756SOL    HW1 2267   2.716   0.914   2.945 -2.2952  2.0999  0.8193
  756SOL    HW2 2268   2.553   0.963   2.982 -0.9158  0.1188 -1.3915
  757SOL     OW 2269   0.096   0.519   1.704  0.3637 -0.1253  0.5555
  757SOL    HW1 2270   0.099   0.619   1.672  0.0721 -0.4625 -0.9408
  757SOL    HW2 2271   0.094   0.450   1.631  0.7511 -3.1221  0.6014
  758SOL     OW 2272   2.464   0.012   1.517  0.8104  0.6599  0.2350
  758SOL    HW1 2273   2.373   0.004   1.565  0.0089  0.1403  0.7013
  758SOL    HW2 2274   2.446  -0.001   1.412  1.2490 -0.7459 -0.6954
  759SOL     OW 2275   1.664   0.063   0.051 -0.0614  0.6634  0.0932
  759SOL    HW1 2276   1.608   0.093  -0.033 -0.2777  0.5613  1.0370
  759SOL    HW2 2277   1.766   0.033   0.034  0.4563  2.7004  1.5046
  760SOL     OW 2278   2.733   1.980   2.813  0.0631 -0.5595 -0.1596
  760SOL    HW1 2279   2.780   1.904   2.754  1.2493 -0.2386 -3.1417
  760SOL    HW2 2280   2.769   2.076   2.803 -1.2187 -1.5758 -1.6189
  761SOL     OW 2281   1.909   1.722   1.598 -0.2482  0.7085  0.1529
  761SOL    HW1 2282   1.966   1.638   1.596  0.4202  1.4514 -0.2787
  761SOL    HW2 2283   1.806   1.700   1.578 -0.7701 -1.1229  1.3851
  762SOL     OW 2284   0.535   2.426   0.997  0.0102  0.2993  0.4672
  762SOL    HW1 2285   0.535   2.482   0.910 -0.4522 -1.0611  0.9388
  762SOL    HW2 2286   0.556   2.484   1.076 -0.0607  0.0648 -0.5466
  763SOL     OW 2287   2.001   1.573   2.955 -0.2451 -0.2233  0.6782
  763SOL    HW1 2288   2.083   1.531   2.910  0.4703 -0.1415 -2.4655
  763SOL    HW2 2289   1.955   1.509   3.024 -1.4271 -0.9981  2.1386
  764SOL     OW 2290   0.675   0.557   0.859  0.2299  0.5254 -0.5101
  764SOL    HW1 2291   0.675   0.529   0.760  1.5422  0.2275  0.3529
  764SOL    HW2 2292   0.773   0.577   0.885  0.4758 -1.5005  0.4360
  765SOL     OW 2293   0.666   0.201   0.808  0.3786  0.2371  0.2069
  765SOL    HW1 2294   0.753   0.224   0.758  0.4091  1.0217 -2.3408
  765SOL    HW2 2295   0.670   0.224   0.910  0.9251 -0.8861 -0.0631
  766SOL     OW 2296   2.963   2.017   3.043  0.3662 -0.5547 -0.1204
  766SOL    HW1 2297   2.873   1.993   3.002  2.0916  0.2541 -1.0091
  766SOL    HW2 2298   3.019   2.087   2.994  1.1148  1.0586 -0.4357
  767SOL     OW 2299   2.855   1.576   0.528  0.1962  0.2302  0.7275
  767SOL    HW1 2300   2.760   1.583   0.572 -0.9082 -3.1811  2.3878
  767SOL    HW2 2301   2.927   1.603   0.595 -1.6952 -0.0043  2.0612
  768SOL     OW 2302   1.048   0.296   0.304  0.1457  0.4423  0.0485
  768SOL    HW1 2303   0.954   0.265   0.287 -0.3791  1.9322 -0.2619
  768SOL    HW2 2304   1.120   0.223   0.293 -3.4035  2.2242 -0.1345
  769SOL     OW 2305   1.241   1.826   2.306  0.4239  0.1060 -0.5618
  769SOL    HW1 2306   1.340   1.815   2.290 -2.6605  1.9137 -1.6607
  769SOL    HW2 2307   1.193   1.744   2.262 -0.5958 -3.7163 -1.2477
  770SOL     OW 2308   0.161   1.138   2.344  0.5009 -0.5813 -0.3797
  770SOL    HW1 2309   0.137   1.197   2.434 -1.8887 -0.5990  0.3863
  770SOL    HW2 2310   0.082   1.144   2.276  4.0080  2.2606 -0.0510
  771SOL     OW 2311   2.956   2.815   1.941 -0.1145  0.0791  0.0353
  771SOL    HW1 2312   2.955   2.891   1.876 -0.8252  0.8282  0.5922
  771SOL    HW2 2313   2.932   2.839   2.042  1.5464  3.0129  1.2255
  772SOL     OW 2314   2.124   0.101   2.993  0.2091 -0.4641  0.0779
  772SOL    HW1 2315   2.213   0.050   2.992 -0.5039 -1.5197 -1.3571
  772SOL    HW2 2316   2.135   0.197   3.033  0.4943 -0.7494 -0.1942
  773SOL     OW 2317   0.704   2.126   2.477  0.8312  0.2231 -0.4322
  773SOL    HW1 2318   0.661   2.158   2.391  0.3107 -0.0976 -1.6384
  773SOL    HW2 2319   0.635   2.126   2.556  2.2065  2.6638  2.4833
  774SOL     OW 2320   2.019   0.018   2.677 -0.1186  1.1966  0.1179
  774SOL    HW1 2321   2.018   0.112   2.722 -2.2262 -2.2581 -0.3126
  774SOL    HW2 2322   2.095  -0.041   2.717  1.5049 -0.0027  0.3428
  775SOL     OW 2323   2.500   2.882   2.381  0.5594  0.1674  0.0396
  775SOL    HW1 2324   2.463   2.978   2.378  2.3361 -0.0542  3.8335
  775SOL    HW2 2325   2.585   2.870   2.438 -1.5256 -0.9226 -2.0012
  776SOL     OW 2326   0.009   1.207   0.253 -0.2045 -0.2295  0.4063
  776SOL    HW1 2327  -0.016   1.183   0.157  0.8032 -0.5829 -0.9328
  776SOL    HW2 2328  -0.062   1.204   0.328  0.9132  0.1817  0.5054
  777SOL     OW 2329   0.304   2.670   0.420  0.3180  0.2042 -0.7906
  777SOL    HW1 2330   0.200   2.661   0.431  0.6208 -0.0632 -0.4553
  777SOL    HW2 2331   0.340   2.763   0.439  3.4908 -2.2432  0.1711
  778SOL     OW 2332   1.321   1.937   0.186  0.0127 -0.0111 -0.1108
  778SOL    HW1 2333   1.252   1.946   0.265  0.7169  0.4864  1.3318
  778SOL    HW2 2334   1.346   2.024   0.139 -1.8573  0.4075 -1.5335
  779SOL     OW 2335   0.167   0.833   0.539  0.0720  0.2441 -0.1449
  779SOL    HW1 2336   0.132   0.734   0.528 -3.7602  1.8045 -0.0495
  779SOL    HW2 2337   0.110   0.888   0.606  0.0100 -1.4972 -0.9880
  780SOL     OW 2338   0.009   0.299   2.363  0.2908 -0.7202  0.2667
  780SOL    HW1 2339  -0.036   0.393   2.361  2.4695 -0.7045  1.2553
  780SOL    HW2 2340   0.104   0.306   2.327 -0.2297 -0.5693  0.9974
  781SOL     OW 2341   0.578   1.770   1.619 -0.2608  0.4981  0.4544
  781SOL    HW1 2342   0.645   1.751   1.699  0.2670 -0.2269  1.0647
  781SOL    HW2 2343   0.487   1.728   1.629  0.2225 -1.9604 -1.1668
  782SOL     OW 2344   2.639   0.139   0.893 -0.3124 -0.0663  0.2215
  782SOL    HW1 2345   2.560   0.150   0.821  1.0005  3.7512 -2.3352
  782SOL    HW2 2346   2.610   0.175   0.990  1.4500 -0.6411  1.5464
  783SOL     OW 2347   2.811   0.671   2.513  0.2988  0.2635  0.2410
  783SOL    HW1 2348   2.780   0.718   2.596 -0.9364 -2.7968  1.2688
  783SOL    HW2 2349   2.764   0.578   2.495 -0.5097  0.6010  2.5810
  784SOL     OW 2350   1.383   2.207   0.032 -0.3238  0.2522  0.2745
  784SOL    HW1 2351   1.478   2.245   0.061  2.7998  0.5685 -0.3440
  784SOL    HW2 2352   1.378   2.194  -0.068  0.2540  2.5908  0.8963
  785SOL     OW 2353   2.163   0.333   0.015  0.5508 -0.1410  0.2265
  785SOL    HW1 2354   2.075   0.342   0.073  0.7108  0.3341 -0.5671
  785SOL    HW2 2355   2.188   0.427  -0.031 -3.3013 -0.0085  2.9867
  786SOL     OW 2356   2.043   2.190   2.263  0.4145  0.4639 -0.3970
  786SOL    HW1 2357   1.984   2.107   2.223 -1.1286 -0.9781 -3.0185
  786SOL    HW2 2358   2.147   2.175   2.252  3.6788  1.1947  0.0839
  787SOL     OW 2359   1.413   0.619   0.777 -0.0166  0.2238  0.1949
  787SOL    HW1 2360   1.482   0.698   0.760 -1.0522 -1.1935 -1.4237
  787SOL    HW2 2361   1.425   0.557   0.695  0.9165  0.6993 -1.3712
  788SOL     OW 2362   1.208   0.466   2.980  0.0543  0.1804 -0.3510
  788SOL    HW1 2363   1.112   0.500   2.963 -1.1840 -2.5338 -3.0320
  788SOL    HW2 2364   1.280   0.512   2.924 -0.9517 -1.2926  5.4179
  789SOL     OW 2365   2.662   0.079   1.874 -0.3929 -0.6506 -0.3765
  789SOL    HW1 2366   2.564   0.077   1.844 -2.2535 -1.9684 -1.1476
  789SOL    HW2 2367   2.695  -0.014   1.900  1.2428  3.4193  0.5509
  790SOL     OW 2368   2.615   2.654   0.826 -0.3901  0.6573  0.3355
  790SOL    HW1 2369   2.671   2.660   0.738  0.7356 -2.6175 -3.1059
  790SOL    HW2 2370   2.572   2.745   0.854  1.4132  0.0661  1.4629
  791SOL     OW 2371   1.951   1.211   0.191 -0.2090  0.1180 -0.4099
  791SOL    HW1 2372   1.865   1.162   0.218 -1.0534  2.5566  0.4560
  791SOL    HW2 2373   2.041   1.152   0.197  1.1639 -0.2559 -1.1663
  792SOL     OW 2374   0.446   1.976   2.206  0.5030  0.1270  0.1231
  792SOL    HW1 2375   0.474   2.076   2.217 -0.0075  1.7573  0.7272
  792SOL    HW2 2376   0.358   1.955   2.253 -0.2812  0.1784 -0.9291
  793SOL     OW 2377   2.096   1.498   2.091  0.2516 -0.1807 -0.8549
  793SOL    HW1 2378   2.184   1.547   2.107 -2.2607  2.5586 -0.0669
  793SOL    HW2 2379   2.072   1.462   1.996  1.9343  2.8784  3.9776
  794SOL     OW 2380   0.546   1.528   2.455 -0.0163  0.3031  0.1417
  794SOL    HW1 2381   0.600   1.455   2.401  3.5218 -0.7020  1.8645
  794SOL    HW2 2382   0.451   1.555   2.419 -0.2474 -0.1991  2.2780
  795SOL     OW 2383   2.481   2.297   1.808 -0.1280  0.5824  0.4391
  795SOL    HW1 2384   2.489   2.337   1.900 -0.1431 -1.4155 -0.8737
  795SOL    HW2 2385   2.398   2.227   1.810 -0.9840 -1.7285  0.3445
  796SOL     OW 2386   3.057   1.101   2.703  0.1881  0.0966 -0.0797
  796SOL    HW1 2387   2.952   1.115   2.716 -2.5362  1.5839  0.3001
  796SOL    HW2 2388   3.106   1.124   2.793  0.1080  0.4364  2.1323
  797SOL     OW 2389   0.667   0.643   1.368  0.1363 -0.0524  0.2567
  797SOL    HW1 2390   0.739   0.704   1.411  0.9422  0.6513 -1.1676
  797SOL    HW2 2391   0.617   0.706   1.304  0.3555  0.0452 -0.2022
  798SOL     OW 2392   1.189   0.519   0.922 -0.0858  0.2142  0.4311
  798SOL    HW1 2393   1.190   0.546   1.019 -0.6021 -2.0437  0.4281
  798SOL    HW2 2394   1.231   0.589   0.855 -1.2524  0.1908  1.2363
  799SOL     OW 2395   1.821   2.701   0.990 -0.1981  0.3571  0.3834
  799SOL    HW1 2396   1.817   2.605   1.023  0.0458  0.8689  0.9300
  799SOL    HW2 2397   1.885   2.707   0.906 -2.4131 -4.7679 -1.0685
  800SOL     OW 2398   3.017   0.835   1.857 -0.0824 -0.4748  0.1645
  800SOL    HW1 2399   3.013   0.937   1.866  0.4282 -1.3066 -0.5773
  800SOL    HW2 2400   3.018   0.780   1.943  0.6718 -0.5027 -0.1661
  801SOL     OW 2401   1.955   2.160   0.108  0.0511  0.0433 -0.0483
  801SOL    HW1 2402   1.919   2.201   0.021  1.1410  1.4536 -0.7611
  801SOL    HW2 2403   2.040   2.101   0.091 -1.3659 -0.2944  1.2472
  802SOL     OW 2404   0.668   0.643   2.579 -0.4747  0.0108  0.0980
  802SOL    HW1 2405   0.714   0.630   2.488 -0.6344 -0.4068  0.3724
  802SOL    HW2 2406   0.566   0.641   2.576 -0.2040 -1.0456 -0.4766
  803SOL     OW 2407   0.937   0.089   0.891  0.1268  0.5451  0.0136
  803SOL    HW1 2408   1.002   0.157   0.945  1.9705 -0.1409  2.2688
  803SOL    HW2 2409   0.928   0.112   0.789 -1.1958 -0.5445 -0.3738
  804SOL     OW 2410   0.284   0.050   2.184  0.1626 -0.2480  0.4256
  804SOL    HW1 2411   0.273   0.149   2.211 -0.0152 -2.8450  0.8932
  804SOL    HW2 2412   0.232   0.020   2.102  3.3326  0.0609  0.5577
  805SOL     OW 2413   2.419   0.383   0.331  0.3502 -0.3794 -0.0927
  805SOL    HW1 2414   2.471   0.356   0.414 -2.0195  0.0070  2.6400
  805SOL    HW2 2415   2.405   0.299   0.269 -0.4015 -3.2684 -0.9732
  806SOL     OW 2416   0.577   2.634   1.871  0.4293  0.0128  0.4867
  806SOL    HW1 2417   0.509   2.682   1.934 -0.1342  0.0526  1.0607
  806SOL    HW2 2418   0.628   2.698   1.813  1.1228 -0.6189  1.3305
  807SOL     OW 2419   2.516   0.945   0.470  0.2450 -0.6510  0.4290
  807SOL    HW1 2420   2.592   0.883   0.504 -0.1305 -0.2177 -2.1495
  807SOL    HW2 2421   2.536   0.987   0.372  1.8027 -0.9221 -1.7798
  808SOL     OW 2422   0.675   2.020   2.923  0.1683 -0.1144  0.4538
  808SOL    HW1 2423   0.634   2.065   3.008 -0.7579  3.0577 -0.9136
  808SOL    HW2 2424   0.687   1.914   2.929  1.2840 -2.4023  0.0649
  809SOL     OW 2425   2.578   1.978   1.921  0.1898  0.0835  0.3223
  809SOL    HW1 2426   2.675   2.006   1.923 -0.4144 -0.2668 -3.8079
  809SOL    HW2 2427   2.546   1.968   1.826 -0.1922  0.5494  0.1882
  810SOL     OW 2428   2.190   1.113   0.498  0.0130  0.4645 -0.3051
  810SOL    HW1 2429   2.149   1.024   0.525 -0.5688  0.2724  0.5155
  810SOL    HW2 2430   2.146   1.195   0.537 -1.2058 -2.6067 -1.5065
  811SOL     OW 2431   1.286   2.479   1.150 -0.3358  0.0124  0.1910
  811SOL    HW1 2432   1.218   2.417   1.187 -2.6109  3.2210 -0.6563
  811SOL    HW2 2433   1.332   2.524   1.228  2.1266 -2.3638 -1.2929
  812SOL     OW 2434   1.505   0.751   1.972 -0.0436  0.5424 -0.3300
  812SOL    HW1 2435   1.407   0.722   1.970  0.7274  2.7918  1.3008
  812SOL    HW2 2436   1.529   0.835   1.922 -0.0941 -1.8403 -3.3832
  813SOL     OW 2437   1.688   2.052   2.389  0.2778 -0.2509 -0.0432
  813SOL    HW1 2438   1.772   2.003   2.428  0.9882 -1.2527  2.0465
  813SOL    HW2 2439   1.689   2.054   2.286 -1.5791 -0.4311 -0.2376
  814SOL     OW 2440   2.994   1.674   2.898  0.8350  0.4756  0.1096
  814SOL    HW1 2441   3.023   1.606   2.970 -0.1136 -0.3551  0.0508
  814SOL    HW2 2442   3.021   1.767   2.925  0.5823 -2.7023  2.8288
  815SOL     OW 2443   2.165   2.845   2.728 -0.0732 -0.2971  0.2024
  815SOL    HW1 2444   2.137   2.768   2.792 -0.1786 -1.2061 -0.3018
  815SOL    HW2 2445   2.251   2.897   2.761 -0.4701 -0.4636  0.8659
  816SOL     OW 2446   1.488   0.394   1.647 -0.0779  0.3083  0.3100
  816SOL    HW1 2447   1.533   0.303   1.659  1.4253 -0.2251  1.3774
  816SOL    HW2 2448   1.427   0.425   1.725 -0.6879 -2.9860  0.1078
  817SOL     OW 2449   0.357   1.306   2.597  0.1762  0.0969 -0.3883
  817SOL    HW1 2450   0.253   1.325   2.598 -0.8680 -2.8864  1.9509
  817SOL    HW2 2451   0.410   1.341   2.510  0.4613 -1.0457 -1.6133
  818SOL     OW 2452   2.016   0.853   0.460  0.0807 -0.3095  0.0253
  818SOL    HW1 2453   2.118   0.853   0.424  0.1780 -0.8266 -1.1880
  818SOL    HW2 2454   2.016   0.824   0.563  2.0446 -1.0254  0.5381
  819SOL     OW 2455   2.795   2.914   2.969 -0.4741  0.0264 -0.6016
  819SOL    HW1 2456   2.848   2.826   2.986  2.0654 -0.8234  1.0294
  819SOL    HW2 2457   2.703   2.882   2.932  0.2857  0.5532  0.3153
  820SOL     OW 2458   1.235   1.031   0.540 -0.5531  0.0706  0.4714
  820SOL    HW1 2459   1.234   1.131   0.580  2.8269  2.0469 -0.2441
  820SOL    HW2 2460   1.211   0.956   0.617  0.9612 -1.2689  0.9032
  821SOL     OW 2461   0.047   1.241   0.713  0.2807  0.2484  0.1009
  821SOL    HW1 2462   0.005   1.255   0.811 -2.4535  0.2941  0.6286
  821SOL    HW2 2463   0.104   1.321   0.694 -0.1942  0.5928  3.6648
  822SOL     OW 2464   2.538   1.755   2.467  0.4504  0.1732 -0.1058
  822SOL    HW1 2465   2.541   1.836   2.531 -1.2521  0.9268 -0.2890
  822SOL    HW2 2466   2.452   1.751   2.406 -0.3505 -1.7808  1.8177
  823SOL     OW 2467   2.029   0.904   1.185 -0.0318  0.2210 -0.5840
  823SOL    HW1 2468   2.029   0.853   1.275 -1.9459  1.0106 -0.5817
  823SOL    HW2 2469   1.962   0.863   1.111  3.0351  1.7809  0.0235
  824SOL     OW 2470   0.188   1.847   2.829 -0.3100 -0.6002  0.4602
  824SOL    HW1 2471   0.227   1.840   2.926 -0.6054  0.7448  1.3749
  824SOL    HW2 2472   0.259   1.860   2.755 -0.2576  2.3541 -2.3864
  825SOL     OW 2473   1.296   1.076   0.270 -0.2138 -0.3228  0.2924
  825SOL    HW1 2474   1.311   1.180   0.250  2.3820 -0.4269 -2.4198
  825SOL    HW2 2475   1.283   1.053   0.369 -0.9173 -0.1474 -2.6004
  826SOL     OW 2476   1.950   0.612   1.598  0.2285  0.3525  0.3981
  826SOL    HW1 2477   2.035   0.564   1.637 -1.3185  0.8672  0.8098
  826SOL    HW2 2478   1.867   0.550   1.576  1.1170 -0.0002  0.4953
  827SOL     OW 2479   0.700   1.213   0.481  0.1503 -0.7006  0.3854
  827SOL    HW1 2480   0.793   1.167   0.454  0.2365 -2.3592  0.8631
  827SOL    HW2 2481   0.616   1.156   0.456  1.0752 -0.3699  0.8586
  828SOL     OW 2482   2.678   0.205   1.563  0.5109  0.3592  0.3698
  828SOL    HW1 2483   2.604   0.141   1.540  3.7499  0.2667 -0.0382
  828SOL    HW2 2484   2.711   0.195   1.660  1.8903 -0.1119  0.5774
  829SOL     OW 2485   2.916   2.400   2.936  0.0948  0.3088 -0.8724
  829SOL    HW1 2486   2.813   2.382   2.945 -2.4383  2.0541 -0.7066
  829SOL    HW2 2487   2.932   2.501   2.933 -1.1958  0.2967 -0.3084
  830SOL     OW 2488   2.928   0.914   2.994  0.1225 -0.2077 -0.2361
  830SOL    HW1 2489   2.941   1.004   3.044 -1.2316 -0.7862 -0.3840
  830SOL    HW2 2490   2.920   0.836   3.063  1.2465  0.2487  1.4164
  831SOL     OW 2491   0.079   0.568   0.443 -0.6558 -0.6232  0.5766
  831SOL    HW1 2492   0.025   0.510   0.509  0.0695 -0.1026  0.9314
  831SOL    HW2 2493   0.108   0.513   0.359  1.0239  0.4491  0.9961
  832SOL     OW 2494   1.799   0.699   0.006  0.4526 -0.4491  0.6628
  832SOL    HW1 2495   1.727   0.768  -0.016  0.0229 -2.4231  1.8525
  832SOL    HW2 2496   1.769   0.597  -0.001 -1.4410 -1.0103  0.9919
  833SOL     OW 2497   2.349   2.122   0.558 -0.2937  0.0747  0.3446
  833SOL    HW1 2498   2.259   2.082   0.533  0.4128 -3.2865  0.1224
  833SOL    HW2 2499   2.422   2.051   0.534  0.7249  0.7597  1.0513
  834SOL     OW 2500   0.113   0.055   0.561 -0.2840  0.1644  0.0818
  834SOL    HW1 2501   0.183  -0.016   0.540 -0.3490 -0.0737  1.3509
  834SOL    HW2 2502   0.128   0.141   0.507 -0.4107 -2.4806 -0.2620
  835SOL     OW 2503   2.460   1.656   1.160 -0.0632  0.3551 -0.4677
  835SOL    HW1 2504   2.531   1.598   1.208 -0.3487  1.4745 -0.5156
  835SOL    HW2 2505   2.506   1.737   1.115  2.5430  3.3948  1.8463
  836SOL     OW 2506   1.541   0.825   2.573 -0.3186  0.1955  1.0699
  836SOL    HW1 2507   1.444   0.861   2.555 -2.0415  0.9490 -2.4452
  836SOL    HW2 2508   1.605   0.856   2.501  0.8695 -3.0741  1.3947
  837SOL     OW 2509   1.720   0.092   0.535 -0.0435 -0.1880  0.0731
  837SOL    HW1 2510   1.685   0.172   0.589  0.0322 -2.3672 -1.3853
  837SOL    HW2 2511   1.700   0.096   0.436 -0.6405 -1.5737  0.4991
  838SOL     OW 2512   1.179   1.485   2.684 -0.6312  0.1538 -0.2675
  838SOL    HW1 2513   1.095   1.521   2.736 -0.9930 -1.5046  1.4555
  838SOL    HW2 2514   1.175   1.380   2.687  1.5977 -0.8661  0.2061
  839SOL     OW 2515   1.664   0.385   0.966 -0.6150  0.2711  0.0794
  839SOL    HW1 2516   1.597   0.459   0.985  1.7538  0.6073 -3.2763
  839SOL    HW2 2517   1.605   0.297   0.985 -1.7410  1.7077  0.3793
  840SOL     OW 2518   2.642   2.949   1.668  0.3490 -0.1339  0.2097
  840SOL    HW1 2519   2.579   2.997   1.599 -0.4917 -0.7609 -2.7850
  840SOL    HW2 2520   2.588   2.925   1.755 -2.6613  1.0531 -0.9544
  841SOL     OW 2521   1.548   0.836   3.056 -0.3637  0.1630  0.3519
  841SOL    HW1 2522   1.473   0.865   3.121  1.7819  3.3779 -1.0207
  841SOL    HW2 2523   1.534   0.884   2.970 -1.1264 -2.7161  4.8905
  842SOL     OW 2524   0.839   1.608   1.013 -0.3101  0.1709  0.5313
  842SOL    HW1 2525   0.803   1.701   1.026  3.3068 -1.5513 -0.1870
  842SOL    HW2 2526   0.779   1.548   0.949 -1.3233  1.9021 -1.9157
  843SOL     OW 2527   0.160   0.069   1.459  0.0377  0.2271 -0.6553
  843SOL    HW1 2528   0.251   0.095   1.496  1.0829  0.1773 -1.0054
  843SOL    HW2 2529   0.158  -0.033   1.436  2.6539 -1.0706 -1.0705
  844SOL     OW 2530   0.703   2.461   0.200  0.2906 -0.4711 -0.2439
  844SOL    HW1 2531   0.635   2.478   0.276  1.5918 -0.5615  0.6118
  844SOL    HW2 2532   0.663   2.423   0.113  1.5096 -2.4750 -0.1631
  845SOL     OW 2533   1.744   0.009   1.259  0.0263  0.4619  0.4937
  845SOL    HW1 2534   1.680   0.028   1.333 -1.8597  0.2657 -1.3813
  845SOL    HW2 2535   1.805   0.089   1.237 -0.8752 -0.5211  1.8625
  846SOL     OW 2536   1.685   3.042   0.911 -0.4852 -0.4013 -0.0629
  846SOL    HW1 2537   1.703   2.996   0.816  0.1740  0.9845 -2.1849
  846SOL    HW2 2538   1.763   3.025   0.978  0.6345 -0.6483  1.4699
  847SOL     OW 2539   2.103   1.632   0.160 -0.5279 -0.5117 -0.3833
  847SOL    HW1 2540   2.045   1.594   0.234 -0.7617 -1.3809 -0.3435
  847SOL    HW2 2541   2.045   1.655   0.073 -0.8709  0.6412 -2.3070
  848SOL     OW 2542   2.507   0.804   2.637 -0.1070 -0.0927  0.2289
  848SOL    HW1 2543   2.497   0.905   2.654  2.6760  1.1604  1.6619
  848SOL    HW2 2544   2.426   0.761   2.593  1.8917 -1.6299 -0.0589
  849SOL     OW 2545   2.376   0.831   2.299  0.2523  0.3162  0.0482
  849SOL    HW1 2546   2.429   0.762   2.239 -1.8060 -1.9600  0.8866
  849SOL    HW2 2547   2.323   0.786   2.373 -1.1491  0.7286 -1.7756
  850SOL     OW 2548   1.520   0.220   1.263 -0.3174 -0.2378 -0.1499
  850SOL    HW1 2549   1.531   0.182   1.167  0.0558 -0.7592  1.4225
  850SOL    HW2 2550   1.488   0.147   1.330 -1.2693 -0.0811  1.1241
  851SOL     OW 2551   0.446   1.662   0.633  0.1161  0.2085 -0.0214
  851SOL    HW1 2552   0.407   1.752   0.666 -0.1156 -0.7772 -1.4051
  851SOL    HW2 2553   0.548   1.665   0.633 -2.8585  1.0472  1.4860
  852SOL     OW 2554   0.841   2.195   1.732  0.3617  0.0677  0.5117
  852SOL    HW1 2555   0.811   2.274   1.675 -1.4662  1.8978 -0.8186
  852SOL    HW2 2556   0.765   2.172   1.801  2.1487  2.0793  0.3145
  853SOL     OW 2557   2.621   1.491   2.579 -0.8444  0.2020 -0.4009
  853SOL    HW1 2558   2.560   1.416   2.554 -0.6010  4.6360  0.4545
  853SOL    HW2 2559   2.589   1.574   2.530 -0.4970  1.5860  1.2270
  854SOL     OW 2560   2.459   1.432   1.773 -0.1001  1.1063  0.1909
  854SOL    HW1 2561   2.494   1.405   1.681 -0.2175  0.8860  0.6392
  854SOL    HW2 2562   2.409   1.359   1.828  2.0795  1.1336  0.9788
  855SOL     OW 2563   2.034   2.281   1.008  0.2137  0.5596 -0.5809
  855SOL    HW1 2564   2.046   2.373   0.967  3.0735 -3.3859 -0.7198
  855SOL    HW2 2565   2.099   2.268   1.089 -0.5405  0.8187  0.1730
  856SOL     OW 2566   1.422   1.426   0.881  0.2856  0.5752  0.1976
  856SOL    HW1 2567   1.442   1.526   0.881  0.6124 -2.0206  0.7122
  856SOL    HW2 2568   1.428   1.393   0.978 -0.0875  3.6171  1.2633
  857SOL     OW 2569   2.889   2.540   1.054  0.3295 -0.2536  0.7938
  857SOL    HW1 2570   2.828   2.466   1.091  1.2826 -3.1206  0.8718
  857SOL    HW2 2571   2.923   2.518   0.958 -0.9482 -0.3109 -0.6308
  858SOL     OW 2572   2.287   2.112   1.800 -0.7261  0.5760  0.4929
  858SOL    HW1 2573   2.201   2.143   1.752 -1.0880 -0.9737 -0.0068
  858SOL    HW2 2574   2.359   2.055   1.749  0.5420  0.4683 -2.4275
  859SOL     OW 2575   2.424   0.366   0.969  0.8851 -0.3187  0.4861
  859SOL    HW1 2576   2.494   0.432   0.936 -0.7885  2.7325 -0.0762
  859SOL    HW2 2577   2.463   0.293   1.026 -2.4879  2.2724 -1.2048
  860SOL     OW 2578   1.933   2.828   0.510 -0.6859 -0.5600 -0.4020
  860SOL    HW1 2579   1.902   2.792   0.417 -0.9012 -0.7460 -2.4290
  860SOL    HW2 2580   1.942   2.929   0.518 -0.2763  1.1022  1.7925
  861SOL     OW 2581   1.001   2.544   2.810  0.0946  0.5590  0.0874
  861SOL    HW1 2582   1.070   2.617   2.795 -0.5018  0.3217  0.2576
  861SOL    HW2 2583   0.999   2.512   2.907  1.8357  1.7281  1.0131
  862SOL     OW 2584   2.984   2.618   1.563 -0.3685  0.0360  0.2261
  862SOL    HW1 2585   3.051   2.636   1.639  0.8232  1.7497 -0.1689
  862SOL    HW2 2586   2.889   2.646   1.588  1.2638  2.8976  0.2273
  863SOL     OW 2587   1.854   2.679   0.281  0.2571  1.0567  0.0087
  863SOL    HW1 2588   1.908   2.594   0.290  0.2239 -0.3564 -0.1553
  863SOL    HW2 2589   1.756   2.664   0.244 -0.1657 -2.5611  2.5855
  864SOL     OW 2590   1.916   1.137   2.938 -0.1576  0.1496 -0.2056
  864SOL    HW1 2591   1.962   1.097   2.855 -2.6816 -0.6487  1.6266
  864SOL    HW2 2592   1.969   1.119   3.021  0.9598 -1.3440 -1.7760
  865SOL     OW 2593   2.124   1.732   0.628  0.2668 -0.5398 -0.4194
  865SOL    HW1 2594   2.164   1.776   0.714  0.9572  3.6292 -2.4661
  865SOL    HW2 2595   2.098   1.638   0.636  0.1033  1.4264  2.1018
  866SOL     OW 2596   2.887   2.799   1.022 -0.1548  0.0238 -0.6133
  866SOL    HW1 2597   2.962   2.836   0.953  0.2799  1.4335 -0.2553
  866SOL    HW2 2598   2.894   2.696   1.035  0.8108  0.0019 -0.2484
  867SOL     OW 2599   0.454   1.362   0.843 -0.7627  0.2427  0.3434
  867SOL    HW1 2600   0.473   1.257   0.831  1.1737  0.8468 -2.3131
  867SOL    HW2 2601   0.378   1.392   0.784 -0.5367 -0.0068 -1.0203
  868SOL     OW 2602   0.853   1.915   1.998 -0.3454 -0.1521  0.6234
  868SOL    HW1 2603   0.809   1.876   2.086 -0.0590 -1.5942 -3.2110
  868SOL    HW2 2604   0.804   1.994   1.952  1.6516 -1.0443 -2.1331
  869SOL     OW 2605   2.519   2.010   1.653  0.4646 -0.3716 -0.2718
  869SOL    HW1 2606   2.594   2.077   1.618  1.4265 -1.6972  1.0482
  869SOL    HW2 2607   2.482   1.948   1.573 -2.6031 -0.2468  0.3106
  870SOL     OW 2608   2.396   2.512   1.185 -0.0801 -0.1422  0.0873
  870SOL    HW1 2609   2.369   2.409   1.189  0.7889 -0.2968  0.2551
  870SOL    HW2 2610   2.485   2.523   1.236 -0.4637 -1.1628  1.3020
  871SOL     OW 2611   3.044   1.995   0.514 -0.0241 -0.0054  0.0731
  871SOL    HW1 2612   2.956   2.049   0.483 -2.6197  0.1371  2.3414
  871SOL    HW2 2613   3.052   1.901   0.476  0.0502 -0.0575 -1.9741
  872SOL     OW 2614   2.167   0.469   1.712  0.1104  0.1606  0.4447
  872SOL    HW1 2615   2.123   0.499   1.802  0.9119 -1.3961 -0.7418
  872SOL    HW2 2616   2.273   0.461   1.721 -2.0260 -0.1768  0.2638
  873SOL     OW 2617   1.727   2.072   2.865  0.1401  0.2044 -0.1628
  873SOL    HW1 2618   1.722   2.167   2.904 -0.5813  0.3640  0.6445
  873SOL    HW2 2619   1.653   2.043   2.798 -1.7255 -1.2355  0.6261
  874SOL     OW 2620   0.646   2.525   0.742 -0.5794  0.6516 -0.2615
  874SOL    HW1 2621   0.659   2.628   0.769  0.4025 -2.2484  2.5288
  874SOL    HW2 2622   0.714   2.454   0.772 -0.7624 -0.4780  0.9104
  875SOL     OW 2623   2.313   1.580   1.436 -0.1270  0.2122  0.5547
  875SOL    HW1 2624   2.405   1.625   1.437 -0.9140 -1.3533  1.9488
  875SOL    HW2 2625   2.250   1.613   1.358 -0.4627 -2.8565 -0.4015
  876SOL     OW 2626   0.144   2.225   2.717 -0.7473  0.2785  0.1451
  876SOL    HW1 2627   0.201   2.156   2.768  1.8337 -1.1643  2.2267
  876SOL    HW2 2628   0.173   2.324   2.733 -0.2038  2.3838 -0.7683
  877SOL     OW 2629   2.777   2.661   0.592  0.0247 -0.4879  0.2515
  877SOL    HW1 2630   2.809   2.760   0.595  1.0622  1.0947  1.9840
  877SOL    HW2 2631   2.824   2.594   0.655 -2.4552  1.8887  0.5326
  878SOL     OW 2632   2.760   1.528   2.277  0.0064  0.3692 -0.0580
  878SOL    HW1 2633   2.733   1.622   2.303  0.4019 -1.8054 -0.3349
  878SOL    HW2 2634   2.822   1.480   2.343 -3.1942  2.0897  0.3755
  879SOL     OW 2635   2.381   3.092   1.246 -0.4642 -0.3658 -0.1535
  879SOL    HW1 2636   2.406   2.989   1.254 -0.8685 -0.4296  1.5679
  879SOL    HW2 2637   2.285   3.098   1.205  0.0433 -1.2539 -0.6273
  880SOL     OW 2638   0.602   0.456   2.200 -0.6011  0.6595  0.3964
  880SOL    HW1 2639   0.537   0.432   2.274 -2.3557  0.9855  2.2416
  880SOL    HW2 2640   0.651   0.375   2.162  1.4101 -1.0830 -2.5400
  881SOL     OW 2641   0.879   0.090   0.404 -0.6348 -0.1251  0.1844
  881SOL    HW1 2642   0.924  -0.003   0.407 -0.8860  0.1074 -2.0123
  881SOL    HW2 2643   0.798   0.093   0.337 -0.3477  1.9649 -1.7668
  882SOL     OW 2644   2.750   1.757   1.648  0.6844  0.6979  0.4809
  882SOL    HW1 2645   2.843   1.731   1.614 -3.3461  1.1174  1.0414
  882SOL    HW2 2646   2.735   1.745   1.749  2.2580 -0.2104  1.1236
  883SOL     OW 2647   0.918   0.607   0.958  0.5199 -0.2130  0.0098
  883SOL    HW1 2648   0.932   0.661   1.044 -0.9795 -2.3902 -0.8908
  883SOL    HW2 2649   1.010   0.579   0.918  0.0361  0.0766 -1.2904
  884SOL     OW 2650   1.165   1.849   1.080 -0.0171  0.3384 -0.0677
  884SOL    HW1 2651   1.151   1.851   0.979  0.2566 -0.6975 -0.8670
  884SOL    HW2 2652   1.100   1.912   1.129  0.4910  1.4909  1.9006
  885SOL     OW 2653   2.291   1.769   2.354  0.0139 -0.0689  0.1085
  885SOL    HW1 2654   2.201   1.722   2.390 -1.8712  0.5614  0.1402
  885SOL    HW2 2655   2.284   1.876   2.333  2.2063 -1.3285  1.8186
  886SOL     OW 2656   2.686   0.457   1.813  0.0892  0.1065 -0.0803
  886SOL    HW1 2657   2.702   0.392   1.896  0.2102 -1.4343  0.4461
  886SOL    HW2 2658   2.768   0.516   1.791  5.1114 -0.0544 -0.1145
  887SOL     OW 2659   0.182   2.019   1.303 -0.0851  0.2450 -0.1302
  887SOL    HW1 2660   0.149   1.989   1.209 -1.3994  0.6812 -1.1233
  887SOL    HW2 2661   0.195   2.118   1.308 -1.2425  0.5890 -1.0290
  888SOL     OW 2662   0.594   1.298   1.499  0.0316 -0.0885  0.6522
  888SOL    HW1 2663   0.637   1.350   1.421 -1.0628 -0.5312 -0.0526
  888SOL    HW2 2664   0.553   1.201   1.478  1.2621 -3.0489 -0.5849
  889SOL     OW 2665   0.844   2.465   2.123 -0.1652 -0.5576  0.3342
  889SOL    HW1 2666   0.755   2.477   2.069 -3.3691  2.0519  0.1733
  889SOL    HW2 2667   0.935   2.465   2.072  0.2023 -1.9737 -0.4050
  890SOL     OW 2668   2.298   2.393   0.118  0.1164 -0.1606  0.2409
  890SOL    HW1 2669   2.339   2.476   0.069  0.5326  1.4263  1.9054
  890SOL    HW2 2670   2.199   2.409   0.141 -1.1764  1.0445 -1.7457
  891SOL     OW 2671   2.614   1.596   0.637 -0.4793  1.2296  0.2018
  891SOL    HW1 2672   2.592   1.514   0.701 -0.4627  1.1830  2.0030
  891SOL    HW2 2673   2.531   1.625   0.578  0.8045 -0.3290 -2.1656
  892SOL     OW 2674   0.256   0.313   2.237  0.6849  0.3083  0.4813
  892SOL    HW1 2675   0.259   0.351   2.136 -1.7019  0.0158 -2.8579
  892SOL    HW2 2676   0.324   0.349   2.310 -1.6046 -0.5468  1.6355
  893SOL     OW 2677   1.635   0.216   2.707 -0.2949 -0.4209 -0.5528
  893SOL    HW1 2678   1.706   0.283   2.739  0.1258 -0.1548  0.1805
  893SOL    HW2 2679   1.551   0.270   2.682  2.0612  2.2480  0.4090
  894SOL     OW 2680   2.150   1.980   0.083  0.3009  0.3901  0.0307
  894SOL    HW1 2681   2.120   1.954  -0.014 -2.3144  1.1532  0.1150
  894SOL    HW2 2682   2.187   1.900   0.138 -2.3709  2.6697  2.2141
  895SOL     OW 2683   2.878   1.414   0.824 -0.1608 -0.8215  0.0634
  895SOL    HW1 2684   2.922   1.342   0.883 -0.8753  2.8318  2.1781
  895SOL    HW2 2685   2.950   1.472   0.777  0.8465 -1.1118  1.5463
  896SOL     OW 2686   1.763   1.774   1.190 -0.2424 -0.2976 -0.2188
  896SOL    HW1 2687   1.854   1.809   1.151 -1.6963  0.2252 -0.6479
  896SOL    HW2 2688   1.684   1.827   1.153 -0.8159  0.6441  1.3329
  897SOL     OW 2689   0.310   0.510   3.078  0.4014  0.3951  0.1614
  897SOL    HW1 2690   0.266   0.560   2.996  0.5939 -0.7468 -1.6952
  897SOL    HW2 2691   0.410   0.535   3.087  0.5141 -0.4849 -2.3787
  898SOL     OW 2692   0.561   2.853   1.107  0.1246  0.0477 -0.7292
  898SOL    HW1 2693   0.521   2.950   1.114 -0.5862 -0.0446 -1.4702
  898SOL    HW2 2694   0.665   2.859   1.119  0.0932  1.2912  0.8329
  899SOL     OW 2695   2.699   0.943   1.254 -0.1713  0.1181  0.7936
  899SOL    HW1 2696   2.620   0.921   1.187  1.6664  0.1089  0.1746
  899SOL    HW2 2697   2.786   0.974   1.213 -0.6350  2.2734 -0.1628
  900SOL     OW 2698   0.985   2.322   2.342 -0.0396 -0.5916  0.1065
  900SOL    HW1 2699   0.921   2.363   2.272 -1.4320  0.6780 -0.3069
  900SOL    HW2 2700   0.965   2.352   2.444  1.3657 -0.1398  3.7262
  901SOL     OW 2701   1.927   2.468   1.382  0.6244  0.5551 -0.1000
  901SOL    HW1 2702   1.912   2.475   1.276  0.2148 -0.1948 -2.1900
  901SOL    HW2 2703   2.024   2.449   1.415  0.1712 -1.2776 -1.0539
  902SOL     OW 2704   2.576   1.683   1.464  0.0806  0.7042 -0.1068
  902SOL    HW1 2705   2.630   1.711   1.548 -2.9609  0.1959  2.1103
  902SOL    HW2 2706   2.636   1.639   1.387 -0.4601 -0.1363 -1.4338
  903SOL     OW 2707   0.284   2.368   1.988  0.5878  0.5519  0.3663
  903SOL    HW1 2708   0.190   2.336   2.008 -1.7432  0.8924  0.8126
  903SOL    HW2 2709   0.290   2.440   1.911  0.9832  1.8621 -0.1573
  904SOL     OW 2710   1.994   0.782   2.590  0.6145 -0.2045  0.0972
  904SOL    HW1 2711   1.912   0.724   2.624  3.2088 -1.8238 -0.4810
  904SOL    HW2 2712   2.002   0.775   2.489 -2.4747 -0.5368  3.1021
  905SOL     OW 2713   2.759   0.047   2.597  0.2909 -0.4843 -0.7900
  905SOL    HW1 2714   2.826  -0.033   2.612 -0.2620  1.7913 -1.0110
  905SOL    HW2 2715   2.805   0.133   2.571 -1.1458 -0.4182 -0.0795
  906SOL     OW 2716   0.107   1.789   1.984  0.1545  0.2529  0.1246
  906SOL    HW1 2717   0.059   1.817   1.896 -1.9328 -0.3960 -2.8575
  906SOL    HW2 2718   0.211   1.801   1.982  1.5688 -0.1120 -0.2235
  907SOL     OW 2719   0.196   2.438   1.043  0.2584 -0.4858  0.0169
  907SOL    HW1 2720   0.265   2.514   1.032 -0.0485 -0.8139  2.1451
  907SOL    HW2 2721   0.168   2.396   0.957 -0.1754  1.9017 -0.4749
  908SOL     OW 2722   2.635   2.855   0.389  0.6503 -0.1900 -0.7871
  908SOL    HW1 2723   2.618   2.859   0.288  0.1960  2.1861 -0.3582
  908SOL    HW2 2724   2.660   2.762   0.427 -0.2289  0.8495  1.9749
  909SOL     OW 2725   0.685   0.916   2.606 -0.4791  0.7980  0.5275
  909SOL    HW1 2726   0.668   0.815   2.601  1.7964  0.6777 -1.1946
  909SOL    HW2 2727   0.773   0.940   2.556  1.4990 -1.9263 -1.8795
  910SOL     OW 2728   1.720   1.785   2.005 -0.5903  0.2113 -0.3203
  910SOL    HW1 2729   1.782   1.828   1.934 -1.2088  2.4838 -0.2535
  910SOL    HW2 2730   1.656   1.857   2.046 -0.1554  0.6454 -0.1742
  911SOL     OW 2731   1.736   3.023   1.575 -0.0293 -0.1833 -0.1483
  911SOL    HW1 2732   1.816   3.003   1.515  0.2121  0.3138 -0.2490
  911SOL    HW2 2733   1.725   2.965   1.658  0.7682  1.9554 -0.8868
  912SOL     OW 2734   2.822   0.941   0.762  0.4932 -0.3634 -0.3233
  912SOL    HW1 2735   2.836   0.939   0.865  1.6198 -0.5560 -0.9566
  912SOL    HW2 2736   2.801   1.036   0.727  0.2201  0.0972  0.5524
  913SOL     OW 2737   2.561   1.288   1.559  0.8884 -0.3827 -0.5172
  913SOL    HW1 2738   2.544   1.189   1.577 -0.8250 -1.2921  0.7468
  913SOL    HW2 2739   2.614   1.302   1.469  0.0332 -1.1263  0.2693
  914SOL     OW 2740   2.828   0.519   1.279  0.5381 -0.2468  0.3953
  914SOL    HW1 2741   2.789   0.426   1.263 -0.3364 -3.0883 -0.8309
  914SOL    HW2 2742   2.787   0.563   1.361  0.6790 -0.1058  1.0204
  915SOL     OW 2743   1.189   0.845   1.040  0.1861 -0.6269  0.2499
  915SOL    HW1 2744   1.248   0.900   1.104 -1.5920 -0.7251 -0.1144
  915SOL    HW2 2745   1.097   0.820   1.081 -2.0418  0.2561  0.6978
  916SOL     OW 2746   0.532   0.059   0.582 -0.0351 -0.2808 -0.6068
  916SOL    HW1 2747   0.579   0.120   0.649 -2.6728 -0.0222  0.3673
  916SOL    HW2 2748   0.551   0.078   0.482 -0.5424  0.1424 -0.1180
  917SOL     OW 2749   2.761   2.599   1.892 -0.4465 -0.4314  0.1375
  917SOL    HW1 2750   2.678   2.658   1.899  0.3410  2.5099 -2.0991
  917SOL    HW2 2751   2.849   2.660   1.877  1.5325  1.3161 -2.4518
  918SOL     OW 2752   1.001   2.199  -0.001  0.6121 -0.0708 -0.3182
  918SOL    HW1 2753   0.981   2.217   0.098  3.2760 -1.4945  0.0019
  918SOL    HW2 2754   1.055   2.115  -0.020 -2.5138 -1.0618 -1.3575
  919SOL     OW 2755   0.910   1.614   2.794  0.1887  0.2572  0.2463
  919SOL    HW1 2756   0.945   1.673   2.713 -0.7764 -2.2867 -3.2869
  919SOL    HW2 2757   0.868   1.525   2.755 -2.9080  0.7642  0.4163
  920SOL     OW 2758   1.226   2.076   2.509 -0.0931  0.6505  0.1097
  920SOL    HW1 2759   1.173   2.063   2.421 -1.2123 -2.7746 -0.9200
  920SOL    HW2 2760   1.254   1.987   2.543 -0.9892  1.9670 -0.5741
  921SOL     OW 2761   1.047   0.137   2.587  0.5262 -0.4663 -0.2490
  921SOL    HW1 2762   1.080   0.131   2.493 -0.5188  0.8273  2.3242
  921SOL    HW2 2763   0.954   0.092   2.599 -1.9603 -0.1922  1.1673
  922SOL     OW 2764   2.086   2.415   2.774 -0.0812  0.0303  0.2878
  922SOL    HW1 2765   2.107   2.315   2.779 -0.5847  0.8010 -0.5072
  922SOL    HW2 2766   2.037   2.432   2.686 -0.5496 -1.1586 -1.3459
  923SOL     OW 2767   1.162   2.684   0.202  0.4266  0.5707 -0.4344
  923SOL    HW1 2768   1.244   2.706   0.259  1.6251 -1.5281  1.4800
  923SOL    HW2 2769   1.185   2.622   0.122 -0.1426 -1.8854  0.7662
  924SOL     OW 2770   2.855   1.570   0.084 -0.1426  0.2498 -0.2906
  924SOL    HW1 2771   2.784   1.605   0.016 -0.4286 -1.6047 -1.6010
  924SOL    HW2 2772   2.917   1.645   0.122  0.6683  0.9741  0.1462
  925SOL     OW 2773   0.099   2.874   1.613 -0.0440  0.2650 -0.7931
  925SOL    HW1 2774   0.003   2.901   1.643  1.4443  0.4687 -0.2105
  925SOL    HW2 2775   0.106   2.810   1.531  0.7451 -0.5682  1.7463
  926SOL     OW 2776   1.458   2.890   1.309  0.4068 -0.1883  0.0153
  926SOL    HW1 2777   1.452   2.897   1.207 -0.3371  3.3918  0.8159
  926SOL    HW2 2778   1.438   2.983   1.355 -0.9200  0.0292 -0.3253
  927SOL     OW 2779   0.254   2.551   1.774  0.2434  0.3755 -0.0891
  927SOL    HW1 2780   0.202   2.481   1.714 -0.5858 -0.9276 -0.1169
  927SOL    HW2 2781   0.300   2.622   1.715  0.5961  1.8631  1.5359
  928SOL     OW 2782   1.601   2.011   2.091 -0.1477 -0.0134 -0.2435
  928SOL    HW1 2783   1.619   2.114   2.075 -2.1174  2.9671 -3.4709
  928SOL    HW2 2784   1.499   1.994   2.079  0.0190  2.1426  1.8585
  929SOL     OW 2785   2.348   2.444   2.820 -0.3295 -0.2184  0.3550
  929SOL    HW1 2786   2.242   2.445   2.808 -1.3110  0.1043 -1.3675
  929SOL    HW2 2787   2.394   2.403   2.737  0.9634 -1.2923 -2.2009
  930SOL     OW 2788   2.206   1.993   1.084  0.0099 -0.4388  0.1353
  930SOL    HW1 2789   2.185   1.975   1.182  2.0771  0.7144 -1.7032
  930SOL    HW2 2790   2.243   2.087   1.071 -0.8257 -1.8646  1.0077
  931SOL     OW 2791   0.587   1.738   2.643  0.0003 -0.3446  0.3883
  931SOL    HW1 2792   0.600   1.741   2.742  1.4472  2.5042  0.0300
  931SOL    HW2 2793   0.591   1.646   2.604  1.5666  3.0737 -1.6182
  932SOL     OW 2794   0.491   0.103   2.906 -0.1493 -0.4310 -0.0135
  932SOL    HW1 2795   0.581   0.129   2.862 -1.9387  2.5524  1.3204
  932SOL    HW2 2796   0.501   0.032   2.981 -2.8236 -1.9562 -0.7214
  933SOL     OW 2797   1.066   0.770   3.004 -0.2140 -0.0265 -0.6229
  933SOL    HW1 2798   1.119   0.813   3.085  1.7144  0.0743  0.6114
  933SOL    HW2 2799   1.007   0.837   2.946 -1.0354  1.1741 -1.5511
  934SOL     OW 2800   0.828   2.928   2.758  0.7612  0.0915 -0.2410
  934SOL    HW1 2801   0.867   2.861   2.691 -2.5628 -3.6650  2.4695
  934SOL    HW2 2802   0.829   2.896   2.860  0.9707  0.9354 -1.4617
  935SOL     OW 2803   3.082   0.557   0.914 -0.5506  0.7991  0.3682
  935SOL    HW1 2804   3.072   0.501   0.829 -0.4589  0.6604  2.7871
  935SOL    HW2 2805   3.001   0.618   0.935  3.7761 -0.7377  1.1413
  936SOL     OW 2806   1.093   2.983   0.128  0.0093 -0.0022  0.3851
  936SOL    HW1 2807   1.181   3.025   0.081  1.4118  1.6190 -0.2127
  936SOL    HW2 2808   1.115   2.892   0.169 -1.0323  0.6312 -0.1155
  937SOL     OW 2809   1.949   2.640   2.090  0.1068  0.2247  0.4306
  937SOL    HW1 2810   1.852   2.656   2.112  1.2347  0.8359  1.6829
  937SOL    HW2 2811   1.967   2.658   1.990 -0.0268  1.3332 -1.7740
  938SOL     OW 2812   2.773   2.179   1.517 -0.0930 -0.0519  0.2802
  938SOL    HW1 2813   2.730   2.252   1.577  0.3689  0.0063 -0.6020
  938SOL    HW2 2814   2.820   2.100   1.572 -2.5488 -0.1959  1.6232
  939SOL     OW 2815   2.728   1.046   2.523 -0.1167 -0.5306 -0.0273
  939SOL    HW1 2816   2.776   0.963   2.492 -0.9326 -1.5230  1.4124
  939SOL    HW2 2817   2.752   1.074   2.623  0.4743 -1.0846  0.7505
  940SOL     OW 2818   1.068   0.460   2.632  0.0760  0.3739  0.6344
  940SOL    HW1 2819   1.096   0.363   2.620 -0.5609 -2.6661 -3.5669
  940SOL    HW2 2820   0.967   0.463   2.662 -3.2830  0.0987  1.2745
  941SOL     OW 2821   0.074   2.864   2.211 -0.2065  0.6715 -0.0678
  941SOL    HW1 2822   0.043   2.766   2.187  0.3917 -0.0728  0.3815
  941SOL    HW2 2823   0.141   2.874   2.292  1.2786  0.6053  1.7984
  942SOL     OW 2824   0.073   0.063   2.553  0.3016 -0.0835 -0.5496
  942SOL    HW1 2825   0.145   0.100   2.617  0.2907  0.1403 -1.5986
  942SOL    HW2 2826   0.042   0.134   2.481  2.0416  1.2299  1.9018
  943SOL     OW 2827   2.069   1.613   2.433  0.4535  0.6945  0.3514
  943SOL    HW1 2828   2.129   1.530   2.425  3.6253 -0.0192  2.1771
  943SOL    HW2 2829   1.988   1.602   2.493 -1.4399  3.7723 -2.9504
  944SOL     OW 2830   2.168   2.361   1.494  0.7332 -0.3326  0.2728
  944SOL    HW1 2831   2.253   2.394   1.535 -1.6204 -0.4864  1.0201
  944SOL    HW2 2832   2.126   2.285   1.547 -2.5192 -2.5129  2.3379
  945SOL     OW 2833   0.629   1.438   0.381  0.0696  1.2748 -0.7531
  945SOL    HW1 2834   0.671   1.484   0.299 -0.4670 -0.4803 -0.0563
  945SOL    HW2 2835   0.679   1.349   0.407 -0.2831  1.0970  0.5643
  946SOL     OW 2836   0.345   1.022   2.592 -0.5115 -0.0527  0.3208
  946SOL    HW1 2837   0.294   0.969   2.518  0.5150  1.5009  0.2922
  946SOL    HW2 2838   0.333   1.129   2.589  1.5955  2.7746  1.9169
  947SOL     OW 2839   1.471   0.459   0.135  0.0429  0.0170  0.3219
  947SOL    HW1 2840   1.417   0.479   0.219 -0.6107  0.1028  2.8860
  947SOL    HW2 2841   1.421   0.392   0.073 -0.3106  1.9543  1.7267
  948SOL     OW 2842   1.958   0.013   2.191  0.1813  0.0347 -0.2646
  948SOL    HW1 2843   1.935  -0.008   2.094 -0.0882  3.9985  2.7356
  948SOL    HW2 2844   1.933  -0.070   2.254 -1.1369 -0.3653  0.8407
  949SOL     OW 2845   0.594   2.516   0.470 -0.5272  0.3958 -0.1108
  949SOL    HW1 2846   0.585   2.611   0.434  0.1506  0.5110  0.2060
  949SOL    HW2 2847   0.629   2.508   0.568  0.1520  2.0480 -0.0808
  950SOL     OW 2848   0.304   2.107   3.015 -0.3545 -0.3513 -0.2631
  950SOL    HW1 2849   0.219   2.165   2.991  0.3650 -0.0613  0.2477
  950SOL    HW2 2850   0.300   2.008   2.987 -0.1475 -0.8108  0.6517
  951SOL     OW 2851   1.155   2.778   2.766 -0.2203  0.0228  0.2958
  951SOL    HW1 2852   1.174   2.867   2.716 -2.0973  1.9502 -0.9209
  951SOL    HW2 2853   1.227   2.760   2.833  1.1355 -0.1028 -0.5258
  952SOL     OW 2854   0.084   1.680   0.474  0.4683  0.7278 -0.4995
  952SOL    HW1 2855   0.146   1.765   0.491 -0.9078 -1.2049  1.0460
  952SOL    HW2 2856   0.023   1.644   0.551 -0.7281  1.5917  1.4132
  953SOL     OW 2857   2.540   1.733   0.161 -0.6132  0.5163 -0.2239
  953SOL    HW1 2858   2.532   1.632   0.194 -1.8166  0.4237  0.3980
  953SOL    HW2 2859   2.528   1.754   0.062  1.1948  0.2699  1.7806
  954SOL     OW 2860   2.175   0.552   1.048  0.0609 -0.6850  0.7040
  954SOL    HW1 2861   2.100   0.539   0.971 -2.1650 -0.5594 -0.9021
  954SOL    HW2 2862   2.261   0.505   1.028 -1.8414  1.8853  0.9366
  955SOL     OW 2863   0.260   2.657   1.305 -0.4380  0.0369  0.0271
  955SOL    HW1 2864   0.158   2.634   1.305 -2.2113  1.2435  0.8692
  955SOL    HW2 2865   0.314   2.616   1.228 -2.6628 -1.5724 -2.3260
  956SOL     OW 2866   2.785   2.473   2.521 -0.5094  0.2018 -0.0817
  956SOL    HW1 2867   2.741   2.382   2.533  0.0598  1.6405  0.6377
  956SOL    HW2 2868   2.788   2.511   2.419 -0.7350 -0.8784 -1.5085
  957SOL     OW 2869   1.548   2.075   2.663 -0.4397 -0.6615  0.0585
  957SOL    HW1 2870   1.501   1.984   2.674  0.5868 -0.1299  1.5704
  957SOL    HW2 2871   1.599   2.088   2.570  2.2731  1.7250 -2.8572
  958SOL     OW 2872   2.658   2.330   3.012 -0.2630 -0.0376  0.1089
  958SOL    HW1 2873   2.561   2.353   3.039  0.7974 -2.2880  0.3573
  958SOL    HW2 2874   2.674   2.235   3.040 -0.4562  0.5908  0.0303
  959SOL     OW 2875   0.246   2.829   0.017 -0.4161  0.2356  0.3736
  959SOL    HW1 2876   0.147   2.808   0.036 -1.0394  0.2846 -0.0919
  959SOL    HW2 2877   0.301   2.740   0.018 -0.0253 -1.1787  0.7789
  960SOL     OW 2878   2.016   0.499   1.928 -0.1120 -0.4611 -0.1817
  960SOL    HW1 2879   1.964   0.589   1.916 -1.6312  0.0448  3.4880
  960SOL    HW2 2880   2.053   0.497   2.025 -2.0203 -0.2817 -2.5891
  961SOL     OW 2881   2.622   1.867   1.037  0.2212  0.2481  0.0092
  961SOL    HW1 2882   2.569   1.906   0.953 -0.5136 -2.1704 -0.3523
  961SOL    HW2 2883   2.636   1.939   1.111  4.1409 -0.8992 -1.5781
  962SOL     OW 2884   1.258   0.932   0.052  0.5577 -0.5759  0.3646
  962SOL    HW1 2885   1.243   0.987  -0.036 -0.9242 -0.3109  0.6146
  962SOL    HW2 2886   1.258   0.983   0.141 -0.0776 -0.4159 -0.9227
  963SOL     OW 2887   2.315   2.649   1.871  0.0512 -0.2641 -0.8470
  963SOL    HW1 2888   2.320   2.575   1.947  0.3911  1.3705  0.8827
  963SOL    HW2 2889   2.308   2.746   1.908 -1.3577 -0.9771  0.0090
  964SOL     OW 2890   2.451   0.392   1.682  0.0271 -0.0602  0.4683
  964SOL    HW1 2891   2.538   0.410   1.738  1.2981 -2.8438 -0.2121
  964SOL    HW2 2892   2.474   0.343   1.596  1.1748  1.9735 -0.7735
  965SOL     OW 2893   2.645   3.013   0.115  0.1032  0.1870 -0.2041
  965SOL    HW1 2894   2.716   3.013   0.049  1.1428  0.2221  2.5208
  965SOL    HW2 2895   2.547   3.039   0.086 -1.6689 -1.7247  3.0326
  966SOL     OW 2896   2.559   2.604   2.153  0.4378  0.5599  0.1220
  966SOL    HW1 2897   2.492   2.527   2.132 -0.0114  0.8589  0.9896
  966SOL    HW2 2898   2.509   2.695   2.165  0.3956  1.5511 -1.3088
  967SOL     OW 2899   2.778   2.840   2.455  0.0838 -0.0610 -0.0797
  967SOL    HW1 2900   2.802   2.772   2.385 -1.8143 -0.5600  0.0333
  967SOL    HW2 2901   2.851   2.916   2.466  1.8901 -0.7464  1.2363
  968SOL     OW 2902   2.007   1.043   2.702 -0.3876  0.6950  0.4380
  968SOL    HW1 2903   1.948   1.110   2.656 -2.9324 -1.4364 -1.1666
  968SOL    HW2 2904   2.007   0.955   2.648 -0.9710  1.6949  0.6123
  969SOL     OW 2905   2.735   2.331   1.146 -0.4448  0.0110 -0.3435
  969SOL    HW1 2906   2.675   2.297   1.068 -1.6655 -3.2166  1.1458
  969SOL    HW2 2907   2.796   2.258   1.186  1.5674  2.5654 -0.8767
  970SOL     OW 2908   1.110   2.226   1.763 -0.6225 -0.2585  0.2815
  970SOL    HW1 2909   1.013   2.211   1.742 -0.1821 -0.0300  3.6022
  970SOL    HW2 2910   1.128   2.203   1.861  1.5191 -0.5308 -0.1651
  971SOL     OW 2911   2.856   2.065   1.927 -0.2292  0.0842 -0.1621
  971SOL    HW1 2912   2.829   2.161   1.944 -0.0133 -2.2826 -0.9904
  971SOL    HW2 2913   2.883   2.048   1.829  4.0740 -0.8158  2.5348
  972SOL     OW 2914   2.062   2.418   0.247  0.2595  0.3805  0.1348
  972SOL    HW1 2915   2.028   2.333   0.195  2.0032  1.7167  1.6712
  972SOL    HW2 2916   2.100   2.399   0.342 -0.7712  0.0068 -0.1772
  973SOL     OW 2917   1.271   1.069   1.950  0.3460 -0.4610 -0.3362
  973SOL    HW1 2918   1.199   1.030   1.886 -1.7349  1.4435 -0.0180
  973SOL    HW2 2919   1.281   1.170   1.939  2.0174  3.0077 -2.5916
  974SOL     OW 2920   1.650   0.533   1.900  0.0770  0.2301 -0.1205
  974SOL    HW1 2921   1.722   0.595   1.859 -1.7335 -3.1143 -0.9040
  974SOL    HW2 2922   1.569   0.583   1.935  0.2814 -3.0282  0.9712
  975SOL     OW 2923   2.382   3.061   3.071  0.4504  0.4374  0.5863
  975SOL    HW1 2924   2.341   2.975   3.114 -1.4909  1.0472 -0.8249
  975SOL    HW2 2925   2.413   3.049   2.966  0.6933 -0.2945 -2.1859
  976SOL     OW 2926   1.915   2.885   2.322  0.3035  0.2523  0.2439
  976SOL    HW1 2927   1.829   2.830   2.288 -1.0833 -1.9873 -2.2356
  976SOL    HW2 2928   1.943   2.852   2.413  0.8159 -0.8634 -0.1934
  977SOL     OW 2929   0.493   0.676   1.011 -0.0968 -0.1267 -0.2190
  977SOL    HW1 2930   0.396   0.655   0.980 -0.0026 -3.4020 -0.7771
  977SOL    HW2 2931   0.566   0.617   0.961 -2.1746  0.9887  1.4633
   3.10000   3.10000   3.10000
