1000 SPC/Fw water molecules t=   1.07000 step= 1070
 2931
    1SOL     OW    1   2.563   0.345   2.653 -0.3173  0.1434 -0.5122
    1SOL    HW1    2   2.597   0.254   2.620 -1.3408 -0.6983  2.7355
    1SOL    HW2    3   2.605   0.371   2.747 -3.3513 -1.2471 -1.1406
    2SOL     OW    4   2.711   3.034   1.409  0.6273 -0.4495 -0.5332
    2SOL    HW1    5   2.802   3.052   1.363 -1.8999 -0.1547  1.3233
    2SOL    HW2    6   2.676   3.120   1.458  1.9634 -1.0399  0.4973
    3SOL     OW    7   2.619   2.617   0.437 -0.7336 -0.3765  0.1403
    3SOL    HW1    8   2.603   2.521   0.465  0.3343  1.3264  0.2404
    3SOL    HW2    9   2.687   2.668   0.495  1.1481 -0.8728 -1.1290
    4SOL     OW   10   1.226   1.554   2.314 -0.1527  0.2181  0.5602
    4SOL    HW1   11   1.129   1.569   2.273  0.6866  0.6930  1.0451
    4SOL    HW2   12   1.230   1.477   2.382  0.6485  2.3531 -2.2627
    5SOL     OW   13   1.148   1.531   3.053 -0.0467  0.5229 -0.4834
    5SOL    HW1   14   1.215   1.609   3.079 -1.1746  1.1455 -1.6587
    5SOL    HW2   15   1.049   1.560   3.066 -1.3828  0.9031 -3.3876
    6SOL     OW   16   0.158   1.735   2.987 -0.0904  0.1578  0.1206
    6SOL    HW1   17   0.089   1.777   3.047  0.0278  1.2194 -4.3198
    6SOL    HW2   18   0.256   1.721   3.025 -0.3970  0.8047  0.3010
    7SOL     OW   19   2.586   0.899   1.075 -0.4470  0.0544 -0.4722
    7SOL    HW1   20   2.495   0.863   1.102 -0.1653  2.4609 -0.4038
    7SOL    HW2   21   2.600   0.897   0.974  1.0312 -1.9076 -0.2816
    8SOL     OW   22   0.403   0.630   1.513 -0.1831 -0.9177 -0.2992
    8SOL    HW1   23   0.496   0.590   1.540  0.0707  0.8930  0.5608
    8SOL    HW2   24   0.389   0.608   1.414  2.1256 -0.9673 -1.8339
    9SOL     OW   25   1.193   0.915   2.421  0.1963  0.8095  0.0569
    9SOL    HW1   26   1.229   0.930   2.326 -0.4233 -0.9911  1.8211
    9SOL    HW2   27   1.181   0.817   2.436 -0.3724  2.2605 -2.7076
   10SOL     OW   28   0.677   1.372   1.306 -0.3185 -0.1802  0.1112
   10SOL    HW1   29   0.584   1.393   1.260  1.5706  0.9954 -2.4089
   10SOL    HW2   30   0.735   1.457   1.324  0.2446  4.0128  1.4329
   11SOL     OW   31   2.299   2.790   0.873  0.3663  0.3193 -0.6706
   11SOL    HW1   32   2.259   2.774   0.972 -0.9161 -1.1855  1.1486
   11SOL    HW2   33   2.401   2.759   0.854  1.1968  1.5462 -0.9004
   12SOL     OW   34   1.522   0.885   0.357  0.0178 -0.9056  0.5489
   12SOL    HW1   35   1.431   0.932   0.336  1.1696  0.7730 -2.3513
   12SOL    HW2   36   1.532   0.791   0.319  1.0797  0.0647  2.1100
   13SOL     OW   37   2.475   0.716   1.782 -0.1910  0.0359  0.3699
   13SOL    HW1   38   2.404   0.672   1.845  0.5345 -3.2895 -0.6005
   13SOL    HW2   39   2.460   0.681   1.683 -2.3033  1.2856 -3.2773
   14SOL     OW   40   1.853   0.102   0.673 -0.4480 -0.2216  0.1097
   14SOL    HW1   41   1.754   0.107   0.642 -0.7739 -0.7160 -0.6129
   14SOL    HW2   42   1.873   0.025   0.740  1.3318  2.2212  1.6825
   15SOL     OW   43   1.956   2.096   2.723 -0.0710 -0.1969  0.2056
   15SOL    HW1   44   1.898   2.182   2.735  2.8619  1.0523  0.0972
   15SOL    HW2   45   1.902   2.010   2.694 -2.6188 -0.5884  1.8773
   16SOL     OW   46   1.626   1.695   2.984  0.0843  0.0661  0.2456
   16SOL    HW1   47   1.612   1.616   3.055 -0.8248  0.0530  0.5324
   16SOL    HW2   48   1.724   1.739   2.992  0.1611  0.2310 -1.0502
   17SOL     OW   49   0.097   0.459   0.161 -0.7638 -0.4356  0.0792
   17SOL    HW1   50   0.185   0.504   0.125  2.3758  3.1245 -1.4949
   17SOL    HW2   51   0.013   0.497   0.113 -0.9266 -1.0221 -0.1691
   18SOL     OW   52   0.943   2.936   2.153 -0.3433  0.1622 -0.5258
   18SOL    HW1   53   0.868   2.860   2.162 -0.8400 -0.3656  1.3760
   18SOL    HW2   54   0.986   2.940   2.062  0.5716  1.6623 -0.8258
   19SOL     OW   55   0.548   0.816   1.890 -0.1007 -0.2674  0.0586
   19SOL    HW1   56   0.559   0.795   1.991 -0.3922  0.5022  1.4500
   19SOL    HW2   57   0.607   0.904   1.867  0.2067  1.3341  2.8844
   20SOL     OW   58   0.182   2.784   0.865 -0.0886  0.5215  0.4161
   20SOL    HW1   59   0.117   2.855   0.823 -0.9543  1.1597 -3.1183
   20SOL    HW2   60   0.187   2.695   0.809  2.4841 -1.3755  1.0314
   21SOL     OW   61   2.699   0.268   2.020 -0.5329 -0.0775 -0.3923
   21SOL    HW1   62   2.638   0.192   1.975  0.9778  0.3401 -1.4863
   21SOL    HW2   63   2.790   0.231   2.056 -1.1739  0.8169  0.1365
   22SOL     OW   64   2.336   0.265   0.147 -0.5101  0.6407  0.3847
   22SOL    HW1   65   2.339   0.165   0.110  2.1837 -2.4507  0.1121
   22SOL    HW2   66   2.257   0.317   0.106  0.0771 -1.5781 -2.4757
   23SOL     OW   67   2.790   0.583   0.605 -0.0496  0.4255  0.3192
   23SOL    HW1   68   2.793   0.480   0.621  2.0513 -1.1200  2.8364
   23SOL    HW2   69   2.761   0.608   0.506  0.5987  1.2734 -2.7893
   24SOL     OW   70   0.208   1.948   0.405  0.3169  0.0117  0.8047
   24SOL    HW1   71   0.160   2.022   0.343 -0.6528  4.4196 -2.7613
   24SOL    HW2   72   0.297   1.918   0.362  1.6207 -1.2639 -0.6481
   25SOL     OW   73   2.235   0.616   0.244  0.0386  0.3563  0.3766
   25SOL    HW1   74   2.264   0.611   0.145  0.7770 -0.2766 -2.2298
   25SOL    HW2   75   2.280   0.540   0.301  0.4671  2.6785  0.4283
   26SOL     OW   76   2.488   2.157   2.065 -0.1989  0.2888 -0.0048
   26SOL    HW1   77   2.566   2.215   2.111  0.7325  0.7124  1.8396
   26SOL    HW2   78   2.532   2.078   2.009 -1.8288 -1.0728 -0.3404
   27SOL     OW   79   0.595   2.912   0.199 -0.3597 -0.3292 -0.4004
   27SOL    HW1   80   0.697   2.937   0.203  1.4210 -1.7812 -0.2533
   27SOL    HW2   81   0.570   2.910   0.100  0.1350  1.0674 -0.1762
   28SOL     OW   82   1.579   0.187   0.285  0.4002 -0.4794  0.2323
   28SOL    HW1   83   1.637   0.160   0.203 -2.6286  0.2801 -2.8336
   28SOL    HW2   84   1.619   0.273   0.327  2.1889 -0.8216 -0.2145
   29SOL     OW   85   1.990   0.600   0.344 -0.0010 -0.6392 -0.2613
   29SOL    HW1   86   1.915   0.666   0.360  0.3567 -0.2533 -2.0370
   29SOL    HW2   87   2.078   0.634   0.300  1.0775  2.2151 -0.4216
   30SOL     OW   88   0.156   1.992   0.930 -0.4399  1.3879 -0.1346
   30SOL    HW1   89   0.128   1.962   0.834  1.4448  2.3843 -1.0335
   30SOL    HW2   90   0.089   2.062   0.974  0.2668  2.1827  2.8791
   31SOL     OW   91   2.143   3.094   2.365  0.4587  0.1440  0.1618
   31SOL    HW1   92   2.182   3.019   2.422 -2.3894  2.1347  0.3729
   31SOL    HW2   93   2.043   3.076   2.346  0.3690  2.6265  0.4285
   32SOL     OW   94   2.967   0.034   0.248 -0.3388  0.7911  0.0867
   32SOL    HW1   95   2.966  -0.067   0.225  1.1250 -0.6767 -2.1530
   32SOL    HW2   96   3.061   0.082   0.238  0.4919 -2.7422  0.7654
   33SOL     OW   97   0.905   0.323   0.583  0.1185 -0.0164  0.0953
   33SOL    HW1   98   0.894   0.237   0.525  2.3042  0.3290 -0.5317
   33SOL    HW2   99   1.003   0.344   0.605 -2.6497  1.1837  0.4236
   34SOL     OW  100   0.335   2.740   1.086  0.2113 -0.6354  0.2208
   34SOL    HW1  101   0.274   2.752   0.998  0.9704  2.4584  0.3098
   34SOL    HW2  102   0.427   2.785   1.076 -2.6604 -0.1853 -1.0476
   35SOL     OW  103   0.011   0.103   1.897 -0.1124  0.3141  0.4425
   35SOL    HW1  104   0.049   0.008   1.904 -0.5688  0.4187 -2.4025
   35SOL    HW2  105   0.003   0.141   1.802 -0.8594  0.9900  2.2856
   36SOL     OW  106   1.921   1.304   1.653 -0.3729 -0.8364 -0.6229
   36SOL    HW1  107   1.977   1.212   1.648  0.2055 -2.0182  1.6728
   36SOL    HW2  108   1.938   1.376   1.578 -0.3706 -0.7887  1.0395
   37SOL     OW  109   1.183   0.206   0.980 -0.4034  0.3356 -0.2090
   37SOL    HW1  110   1.239   0.282   1.016  0.5777  0.4454  0.2698
   37SOL    HW2  111   1.232   0.116   0.975 -0.4287  0.7919 -0.2449
   38SOL     OW  112   1.145   2.834   2.447  0.2454 -0.5418 -0.6300
   38SOL    HW1  113   1.113   2.738   2.444  0.5189 -2.9846 -0.8280
   38SOL    HW2  114   1.082   2.906   2.401 -0.3894 -1.7027 -2.4978
   39SOL     OW  115   2.309   1.458   3.055 -0.1831 -0.1836 -0.1466
   39SOL    HW1  116   2.386   1.384   3.074  1.9645  1.7321  0.1820
   39SOL    HW2  117   2.260   1.485   3.144  0.4708  0.1035  1.0631
   40SOL     OW  118   1.999   2.429   2.552 -0.4416  0.1307 -0.1960
   40SOL    HW1  119   1.982   2.529   2.537 -0.1404  0.6171 -2.2122
   40SOL    HW2  120   1.933   2.361   2.504 -0.6392 -2.4055  2.1943
   41SOL     OW  121   3.031   0.677   2.804  0.0217 -0.0172  0.3144
   41SOL    HW1  122   2.962   0.753   2.801 -2.5379  1.4276 -1.6038
   41SOL    HW2  123   2.993   0.594   2.757  1.3502 -1.7419  1.0474
   42SOL     OW  124   1.775   1.792   0.489 -0.1343  0.0647 -1.0320
   42SOL    HW1  125   1.735   1.696   0.486  1.8205  0.0241 -2.6470
   42SOL    HW2  126   1.784   1.823   0.393 -2.3413 -0.2535  1.7370
   43SOL     OW  127   0.434   1.686   1.129 -0.4515  0.3590 -0.1262
   43SOL    HW1  128   0.434   1.592   1.168  2.2634 -0.1694  2.2699
   43SOL    HW2  129   0.343   1.737   1.146  1.3514  1.1287  1.8893
   44SOL     OW  130   1.734   2.401   3.008 -0.5237 -0.7653  0.1715
   44SOL    HW1  131   1.657   2.474   3.018 -0.5743 -0.5537 -0.5604
   44SOL    HW2  132   1.775   2.402   2.909  2.4371  1.9268 -0.9776
   45SOL     OW  133   0.368   1.891   2.629 -0.4529  0.3873  0.0315
   45SOL    HW1  134   0.335   1.901   2.533 -0.3641  0.6456  1.9802
   45SOL    HW2  135   0.415   1.799   2.649  0.3745  1.0440  1.3881
   46SOL     OW  136   1.242   0.614   0.143  0.6669  0.2416 -0.1399
   46SOL    HW1  137   1.286   0.705   0.117  0.3950  0.5789  1.5327
   46SOL    HW2  138   1.137   0.621   0.165 -0.4559 -0.8543  1.5679
   47SOL     OW  139   0.215   2.545   1.537  0.2846 -0.3995  0.0476
   47SOL    HW1  140   0.242   2.442   1.535 -0.2557  0.7896 -2.0768
   47SOL    HW2  141   0.203   2.593   1.442  1.7354  3.6399 -0.6782
   48SOL     OW  142   2.632   0.627   0.135 -0.5547 -0.2985 -0.0839
   48SOL    HW1  143   2.639   0.596   0.233 -0.7009  1.0256  0.3551
   48SOL    HW2  144   2.720   0.679   0.100  1.2044 -0.9810 -0.3300
   49SOL     OW  145   0.315   0.749   1.755 -0.5517 -0.0706 -0.7135
   49SOL    HW1  146   0.388   0.764   1.829  0.4156 -2.4659  0.9265
   49SOL    HW2  147   0.353   0.715   1.664 -0.2069  0.6805 -0.0567
   50SOL     OW  148   1.674   1.130   0.342 -0.0446  0.4909  0.1481
   50SOL    HW1  149   1.633   1.041   0.299  1.7227 -2.4580 -2.5026
   50SOL    HW2  150   1.653   1.136   0.446  0.8689  0.5012  3.3399
   51SOL     OW  151   2.922   1.752   0.245  0.1883 -0.8145  0.1093
   51SOL    HW1  152   2.925   1.652   0.214  2.9314  0.9181 -2.6390
   51SOL    HW2  153   2.964   1.768   0.341 -0.2151  1.8853  3.6537
   52SOL     OW  154   0.803   2.080   0.564  0.0339  0.5837  0.7542
   52SOL    HW1  155   0.738   2.131   0.631 -0.8658 -1.0225 -1.1710
   52SOL    HW2  156   0.845   1.992   0.602  1.6213 -0.6235  1.9977
   53SOL     OW  157   0.209   0.441   1.591  1.1003  0.0838  0.2117
   53SOL    HW1  158   0.279   0.519   1.579  0.9899  0.6376 -3.1125
   53SOL    HW2  159   0.125   0.463   1.531  1.8906  0.5185 -0.9499
   54SOL     OW  160   1.807   0.524   3.065 -0.0807 -0.1130 -0.7183
   54SOL    HW1  161   1.870   0.471   3.131 -0.4959 -3.5972  0.8813
   54SOL    HW2  162   1.710   0.513   3.090 -0.4579 -1.9569  1.7544
   55SOL     OW  163   0.760   2.895   0.692  0.0431 -0.6581  0.2601
   55SOL    HW1  164   0.697   2.979   0.693  0.1548  2.7197 -0.3503
   55SOL    HW2  165   0.857   2.929   0.705  2.5135 -0.7413  0.0533
   56SOL     OW  166   0.608   1.560   0.013  0.7864 -0.0706 -0.3728
   56SOL    HW1  167   0.518   1.615   0.020 -0.4039  1.6531  0.4867
   56SOL    HW2  168   0.599   1.475  -0.052 -1.5970 -1.5562  1.6333
   57SOL     OW  169   1.757   2.526   2.359 -0.2873  0.0767 -0.7026
   57SOL    HW1  170   1.792   2.428   2.358  0.6784 -2.5757 -2.5834
   57SOL    HW2  171   1.666   2.539   2.412  1.8317  1.3174 -2.0004
   58SOL     OW  172   0.712   0.251   1.066 -0.1311  0.3399  0.1844
   58SOL    HW1  173   0.647   0.267   1.141  4.2870  0.5425 -1.7941
   58SOL    HW2  174   0.751   0.153   1.068  0.4719  2.0384  1.3666
   59SOL     OW  175   0.393   2.315   2.726 -0.1970 -0.4288  0.1548
   59SOL    HW1  176   0.445   2.239   2.677  1.1888 -0.8940  0.7407
   59SOL    HW2  177   0.431   2.339   2.817 -1.4763 -1.8828 -3.2520
   60SOL     OW  178   2.321   2.075   2.267  0.2520  0.6646  0.5567
   60SOL    HW1  179   2.397   2.104   2.193  0.3511 -1.1745 -4.1603
   60SOL    HW2  180   2.342   2.102   2.367 -0.5998 -0.5553  0.7309
   61SOL     OW  181   1.313   0.635   0.440 -0.5063 -0.6165  0.1986
   61SOL    HW1  182   1.212   0.659   0.458  0.2355  1.6388  0.3616
   61SOL    HW2  183   1.348   0.642   0.345  0.2592  0.1106 -1.9785
   62SOL     OW  184   2.710   1.811   2.930  0.0104 -0.7127 -0.0477
   62SOL    HW1  185   2.659   1.755   2.859  1.8791 -2.6560  1.5953
   62SOL    HW2  186   2.814   1.791   2.934  2.0175 -0.5216 -2.2084
   63SOL     OW  187   0.519   0.807   0.179  0.3527 -0.1286 -0.1808
   63SOL    HW1  188   0.580   0.883   0.147  0.1365 -0.2572 -1.1533
   63SOL    HW2  189   0.527   0.787   0.279  0.7505 -1.4919 -0.3157
   64SOL     OW  190   0.076   0.432   2.463 -0.5006  0.2227 -0.2546
   64SOL    HW1  191   0.081   0.453   2.567  2.0690 -2.2784 -1.4167
   64SOL    HW2  192   0.008   0.496   2.411 -2.0462  0.7497  0.2133
   65SOL     OW  193   0.162   1.515   0.599  0.6505 -0.3792 -0.2157
   65SOL    HW1  194   0.227   1.557   0.671 -2.3334 -0.6444 -1.6565
   65SOL    HW2  195   0.218   1.492   0.516 -0.6567  3.2783 -0.5721
   66SOL     OW  196   2.543   0.353   0.583  0.0781  0.1888 -0.0703
   66SOL    HW1  197   2.636   0.317   0.609 -0.5007 -0.2009 -1.5736
   66SOL    HW2  198   2.462   0.321   0.637  1.7487 -1.3149 -2.6410
   67SOL     OW  199   0.567   2.492   1.450 -0.0529 -0.7463 -0.0178
   67SOL    HW1  200   0.662   2.465   1.489  0.3252 -0.7071 -0.9964
   67SOL    HW2  201   0.518   2.413   1.405  1.4604 -0.7296  0.6378
   68SOL     OW  202   0.991   1.093   2.497 -0.4410 -0.7512 -0.0487
   68SOL    HW1  203   1.044   1.000   2.485 -0.2889 -2.3573  0.7665
   68SOL    HW2  204   0.918   1.109   2.418 -1.8085  1.5374 -2.2948
   69SOL     OW  205   0.706   2.772   2.159 -0.3941  0.2217  0.3882
   69SOL    HW1  206   0.735   2.672   2.150 -1.6504  4.0013  0.4718
   69SOL    HW2  207   0.602   2.778   2.182 -1.8742  0.5232 -0.3547
   70SOL     OW  208   0.474   0.224   2.631  0.0334 -0.8387 -0.2027
   70SOL    HW1  209   0.376   0.223   2.660 -0.2443  0.1455 -1.5016
   70SOL    HW2  210   0.520   0.130   2.634 -1.9109  0.1095 -1.9559
   71SOL     OW  211   1.130   1.776   0.426  0.1714  0.3704 -0.6832
   71SOL    HW1  212   1.090   1.706   0.492 -4.3321  0.6006  0.3539
   71SOL    HW2  213   1.072   1.795   0.341  2.8180 -1.6620  0.9080
   72SOL     OW  214   1.826   0.197   2.149 -0.0352  0.2892  0.4529
   72SOL    HW1  215   1.896   0.271   2.157  0.4842 -2.7103  0.5366
   72SOL    HW2  216   1.875   0.101   2.136  1.7625 -5.0889 -0.4260
   73SOL     OW  217   2.818   2.162   2.399 -0.0731  0.0401 -0.0707
   73SOL    HW1  218   2.816   2.058   2.375  0.1583  0.2391  1.0069
   73SOL    HW2  219   2.870   2.174   2.485  0.3157  2.0182 -3.8994
   74SOL     OW  220   2.685   2.847   2.157 -0.0914  0.1869  0.7828
   74SOL    HW1  221   2.625   2.834   2.237 -0.6274 -1.4133 -2.4583
   74SOL    HW2  222   2.786   2.878   2.184  3.1451 -1.6373  1.7989
   75SOL     OW  223   0.940   0.848   1.104  0.6115 -0.0946  0.7024
   75SOL    HW1  224   0.859   0.886   1.051  1.2886 -2.5830 -2.8817
   75SOL    HW2  225   0.953   0.884   1.198  2.2362 -0.3841 -0.5828
   76SOL     OW  226   1.723   1.208   2.511 -0.0572  0.0975 -0.3446
   76SOL    HW1  227   1.629   1.207   2.477  0.0935 -0.6563  1.2327
   76SOL    HW2  228   1.747   1.300   2.552  1.6716 -0.0099  0.3066
   77SOL     OW  229   2.934   0.947   1.002 -0.0125  0.5226  0.2149
   77SOL    HW1  230   2.916   0.844   0.991 -1.1032  1.0134  0.0272
   77SOL    HW2  231   2.980   0.965   1.091 -0.2943 -0.5374 -1.9874
   78SOL     OW  232   2.001   1.464   1.466  0.2462  0.4987 -0.3859
   78SOL    HW1  233   2.096   1.497   1.448 -1.9148  1.0667  0.6051
   78SOL    HW2  234   1.941   1.460   1.383  0.2886 -2.2258  1.2506
   79SOL     OW  235   0.617   1.404   0.802  0.3844  0.2872 -0.5572
   79SOL    HW1  236   0.521   1.394   0.850 -3.0167  1.3928  2.0302
   79SOL    HW2  237   0.629   1.355   0.712  0.8050 -0.2575 -1.3096
   80SOL     OW  238   0.639   0.499   1.567  0.2775 -0.3518 -0.0065
   80SOL    HW1  239   0.678   0.576   1.506 -1.2693 -0.4178  0.2984
   80SOL    HW2  240   0.640   0.407   1.524  1.2664 -1.1018  0.0451
   81SOL     OW  241   1.039   1.326   2.622 -0.2074 -0.7295 -0.1837
   81SOL    HW1  242   1.067   1.228   2.599  2.6527  0.5797 -0.5570
   81SOL    HW2  243   0.970   1.373   2.557  2.5462  0.5193 -1.3068
   82SOL     OW  244   0.968   3.011   1.551 -0.1639  0.0476 -0.4470
   82SOL    HW1  245   0.869   3.037   1.550  1.5177  0.0131  0.2600
   82SOL    HW2  246   0.996   2.960   1.466  0.4811 -0.0514 -0.6616
   83SOL     OW  247   2.646   2.403   0.857 -0.7692 -0.1419 -0.0791
   83SOL    HW1  248   2.623   2.328   0.794  0.0225  2.2781  3.1401
   83SOL    HW2  249   2.650   2.491   0.800  2.4331  0.5024 -0.9673
   84SOL     OW  250   0.638   3.047   2.368  0.2704  0.0668  1.2594
   84SOL    HW1  251   0.591   3.057   2.461  0.2409 -0.6050 -0.6596
   84SOL    HW2  252   0.684   2.950   2.370 -1.2478 -1.9183  1.4246
   85SOL     OW  253   0.282   1.612   1.436  0.4468  0.4388 -0.1045
   85SOL    HW1  254   0.250   1.711   1.413 -4.6670 -0.2445 -0.3526
   85SOL    HW2  255   0.352   1.612   1.515  2.0353  0.4369  1.6978
   86SOL     OW  256   0.456   1.016   1.532  0.3188  0.6128 -0.4523
   86SOL    HW1  257   0.408   0.961   1.461 -1.6499  0.7822  1.6563
   86SOL    HW2  258   0.559   1.005   1.529 -0.4293  1.6123 -0.8229
   87SOL     OW  259   1.573   0.649   0.222  0.6089  0.0502  0.5983
   87SOL    HW1  260   1.651   0.708   0.201 -0.6319 -1.0628 -2.1229
   87SOL    HW2  261   1.556   0.584   0.141 -1.4529 -0.3184  0.7003
   88SOL     OW  262   1.542   1.356   0.270 -0.6650 -0.0702 -0.1045
   88SOL    HW1  263   1.589   1.269   0.299 -0.1764 -0.3000  1.6762
   88SOL    HW2  264   1.441   1.351   0.255 -0.7347 -1.2517  1.2257
   89SOL     OW  265   3.075   0.456   0.589  0.1507 -0.2998 -0.1216
   89SOL    HW1  266   3.145   0.387   0.552 -3.2414  0.2382 -0.0384
   89SOL    HW2  267   2.985   0.412   0.603  1.9259  2.9840  0.2763
   90SOL     OW  268   0.909   1.560   0.064 -0.2518 -0.2452 -0.4220
   90SOL    HW1  269   0.870   1.528   0.156  1.5122 -0.2197 -0.5068
   90SOL    HW2  270   0.840   1.561  -0.011 -1.9984 -0.0109  1.5347
   91SOL     OW  271   1.224   1.477   1.806  0.0353  0.3630 -0.4130
   91SOL    HW1  272   1.203   1.573   1.844  1.0611 -0.2531  0.6255
   91SOL    HW2  273   1.325   1.468   1.773  2.7084  2.2764 -1.1300
   92SOL     OW  274   3.078   0.935   1.236  0.4982  0.3756  0.1916
   92SOL    HW1  275   3.148   0.995   1.187  1.7299 -2.2330  1.3870
   92SOL    HW2  276   3.086   0.940   1.339  0.6874  1.7353 -0.7769
   93SOL     OW  277   0.004   2.748   0.019 -0.9900 -0.0379  0.3620
   93SOL    HW1  278  -0.057   2.763  -0.066 -1.3886  0.7456  0.0757
   93SOL    HW2  279   0.011   2.646   0.052 -1.6077 -0.3185  2.2300
   94SOL     OW  280   1.514   1.465   1.801 -0.5163  0.2250  0.4554
   94SOL    HW1  281   1.588   1.390   1.787  0.3587 -0.2517  1.3946
   94SOL    HW2  282   1.534   1.548   1.865 -0.7520  0.1737 -2.9993
   95SOL     OW  283   1.427   2.513   3.011  0.6239 -0.1595 -0.4691
   95SOL    HW1  284   1.324   2.524   3.042 -2.2735  0.4372  2.3223
   95SOL    HW2  285   1.446   2.415   2.985 -0.4703 -0.3470  0.8964
   96SOL     OW  286   0.567   2.098   1.299 -0.0783  0.2457  0.6297
   96SOL    HW1  287   0.527   2.034   1.228 -0.5781 -1.8096  1.8000
   96SOL    HW2  288   0.636   2.054   1.366  0.7013  0.7175 -0.3817
   97SOL     OW  289   0.371   1.618   2.446 -0.8885 -0.7357  0.0015
   97SOL    HW1  290   0.325   1.635   2.357  1.3674  2.6344  3.5929
   97SOL    HW2  291   0.302   1.629   2.520 -0.9604  0.3137 -1.5309
   98SOL     OW  292   2.062   1.644   1.171  0.9697 -0.1993  0.2101
   98SOL    HW1  293   1.974   1.598   1.168  0.3540  0.9704 -2.2267
   98SOL    HW2  294   2.126   1.612   1.099  0.5098  0.7487 -0.8267
   99SOL     OW  295   2.521   2.049   1.285  0.2888  0.4613 -0.1624
   99SOL    HW1  296   2.519   2.036   1.388 -1.5957 -0.0039  0.2113
   99SOL    HW2  297   2.512   1.960   1.234 -0.5724 -0.3503  0.1171
  100SOL     OW  298   2.334   0.376   2.085 -0.7881  0.7112  0.1652
  100SOL    HW1  299   2.282   0.343   2.167 -0.2898 -1.0805  0.8478
  100SOL    HW2  300   2.397   0.448   2.122  0.7547 -0.1205 -0.8334
  101SOL     OW  301   0.418   1.489   0.471 -0.3366  0.2909  0.4653
  101SOL    HW1  302   0.449   1.582   0.501 -1.7695  0.2698 -0.0410
  101SOL    HW2  303   0.495   1.420   0.459  1.9208  0.3766 -1.3053
  102SOL     OW  304   2.247   1.040   0.837  0.5652  0.1615  0.1153
  102SOL    HW1  305   2.162   0.990   0.804  0.7592  1.5885 -2.1945
  102SOL    HW2  306   2.240   1.143   0.813 -2.6485 -1.4305  0.7484
  103SOL     OW  307   2.225   0.075   0.375  0.0336 -0.1573 -0.3052
  103SOL    HW1  308   2.305   0.136   0.341 -0.0661  1.5607  2.0668
  103SOL    HW2  309   2.240   0.035   0.467  0.4956  0.7095  0.0302
  104SOL     OW  310   0.100   1.795   2.162  0.1181  0.4943 -0.7258
  104SOL    HW1  311   0.132   1.785   2.065 -1.7138 -1.2158 -0.1447
  104SOL    HW2  312   0.005   1.839   2.174 -2.8852  0.3024  2.4085
  105SOL     OW  313   1.283   2.089   0.780  0.2649  0.3543  0.3857
  105SOL    HW1  314   1.358   2.105   0.709  0.5806 -0.4190  1.0076
  105SOL    HW2  315   1.251   1.992   0.794 -0.9561  1.1527 -0.2333
  106SOL     OW  316   2.125   0.394   1.410  0.2259 -0.6394  0.4194
  106SOL    HW1  317   2.054   0.316   1.418  0.4038  0.6255  1.2551
  106SOL    HW2  318   2.131   0.444   1.502  0.5081 -1.2431  0.6084
  107SOL     OW  319   1.891   2.964   1.240  0.6918  0.0273  0.1150
  107SOL    HW1  320   1.867   3.041   1.306 -1.9736  1.7318  1.0078
  107SOL    HW2  321   1.817   2.894   1.236  1.2891 -1.3200 -1.1066
  108SOL     OW  322   0.793   2.790   1.278  0.6567  0.2631  0.1495
  108SOL    HW1  323   0.789   2.716   1.352  0.8275  0.6322 -0.8436
  108SOL    HW2  324   0.893   2.818   1.251  1.6023 -1.4443  0.8092
  109SOL     OW  325   2.129   0.099   0.790 -0.3539  0.2597 -0.6393
  109SOL    HW1  326   2.037   0.131   0.751 -0.6739 -0.7858 -2.0055
  109SOL    HW2  327   2.124   0.048   0.883  0.2299  1.4818  0.5662
  110SOL     OW  328   0.452   2.834   2.774  0.9179 -0.4046  0.1984
  110SOL    HW1  329   0.427   2.803   2.672  1.5314 -0.5438 -2.0158
  110SOL    HW2  330   0.520   2.770   2.816  2.0178 -0.6233 -0.8812
  111SOL     OW  331   1.308   0.488   2.324  0.1011 -0.1939  0.0776
  111SOL    HW1  332   1.226   0.517   2.374  0.9514 -1.6143  1.2745
  111SOL    HW2  333   1.373   0.432   2.387  2.2249 -0.6086 -1.0437
  112SOL     OW  334   1.719   0.505   1.456  0.6635  0.2523  0.6758
  112SOL    HW1  335   1.724   0.497   1.350  2.1370  0.7313 -1.7809
  112SOL    HW2  336   1.685   0.422   1.509  0.0741 -2.1607  4.2723
  113SOL     OW  337   2.343   1.652   1.770  1.1294 -0.2494  0.2234
  113SOL    HW1  338   2.409   1.578   1.741 -1.0053  1.0099 -0.3852
  113SOL    HW2  339   2.362   1.679   1.868 -0.0514 -4.3213 -0.8083
  114SOL     OW  340   0.349   0.535   1.247 -0.2886  0.0591 -0.4100
  114SOL    HW1  341   0.421   0.589   1.182  3.0223 -3.7106 -1.0476
  114SOL    HW2  342   0.255   0.582   1.248 -0.1247 -1.2244  0.2390
  115SOL     OW  343   2.716   1.626   1.199  0.2071  0.0630 -0.1929
  115SOL    HW1  344   2.706   1.521   1.204  1.0494  1.0330 -0.0262
  115SOL    HW2  345   2.806   1.660   1.168  3.6425  1.4127 -0.2722
  116SOL     OW  346   1.791   1.011   0.590 -0.4028 -0.5115 -0.2985
  116SOL    HW1  347   1.717   0.938   0.591  0.2526  3.0882  1.4076
  116SOL    HW2  348   1.757   1.086   0.654 -0.6273 -1.0913 -1.3986
  117SOL     OW  349   1.185   0.351   0.568 -0.4470 -0.0272 -0.2722
  117SOL    HW1  350   1.233   0.447   0.554  0.2396  4.3767 -2.3366
  117SOL    HW2  351   1.155   0.304   0.480 -2.2526  2.8411  0.6607
  118SOL     OW  352   1.127   1.152   1.119 -0.8336  0.5074 -0.5094
  118SOL    HW1  353   1.114   1.084   1.196 -2.0656  3.2632 -2.7369
  118SOL    HW2  354   1.154   1.242   1.156 -0.1031  0.1298 -2.0627
  119SOL     OW  355   1.815   1.580   2.166  0.1905  0.2782 -0.1701
  119SOL    HW1  356   1.764   1.669   2.176 -0.1190 -0.0730 -2.5866
  119SOL    HW2  357   1.917   1.593   2.152  0.9419  1.6064 -0.3688
  120SOL     OW  358   2.923   2.863   0.204 -0.0177 -0.4174  0.5319
  120SOL    HW1  359   3.011   2.838   0.152  0.4135  1.4091  2.2207
  120SOL    HW2  360   2.848   2.795   0.181 -1.8492  0.2093  2.0240
  121SOL     OW  361   1.945   0.753   2.227 -0.0959 -0.2238  0.3462
  121SOL    HW1  362   1.961   0.795   2.132 -3.3404  0.3712 -1.0125
  121SOL    HW2  363   1.944   0.648   2.226  0.2889  0.8615  0.3807
  122SOL     OW  364   2.641   2.573   1.323  1.0081 -0.6125  0.1208
  122SOL    HW1  365   2.690   2.539   1.241 -1.7036  0.3732 -1.9921
  122SOL    HW2  366   2.540   2.548   1.325  0.5227  0.2142 -3.4670
  123SOL     OW  367   1.735   0.035   1.704  0.6436 -0.1059  0.2315
  123SOL    HW1  368   1.764  -0.036   1.639  0.2807  1.2152 -2.2025
  123SOL    HW2  369   1.813   0.058   1.770  0.8814 -2.1441 -0.8522
  124SOL     OW  370   0.059   0.423   1.080  0.2003  0.4509 -0.0160
  124SOL    HW1  371   0.061   0.493   1.156 -0.5989 -2.6053  1.7594
  124SOL    HW2  372   0.048   0.468   0.987  0.5301  2.0573 -2.8027
  125SOL     OW  373   0.861   1.856   0.713  0.1068  0.8113  0.2862
  125SOL    HW1  374   0.963   1.844   0.742  0.3871  0.1549  0.8813
  125SOL    HW2  375   0.793   1.857   0.791 -1.3764 -1.2644  0.2396
  126SOL     OW  376   1.821   2.261   2.411  0.3779 -0.1212  0.6211
  126SOL    HW1  377   1.909   2.233   2.365 -2.4925  1.9581  1.2104
  126SOL    HW2  378   1.771   2.176   2.445  0.0993  1.2305  0.0148
  127SOL     OW  379   0.952   0.918   0.183 -0.4931  0.0310 -0.6294
  127SOL    HW1  380   0.970   0.973   0.269 -1.8110 -0.9632 -2.1540
  127SOL    HW2  381   0.954   0.814   0.204  1.4940 -0.6934  1.0034
  128SOL     OW  382   0.926   0.200   1.390 -0.3794 -0.0877 -0.0819
  128SOL    HW1  383   0.929   0.282   1.317  2.4944  3.2637 -0.0603
  128SOL    HW2  384   0.864   0.122   1.366 -0.3562  0.8071  2.7072
  129SOL     OW  385   1.846   0.660   1.831  0.1537  0.1231  0.9499
  129SOL    HW1  386   1.860   0.676   1.730  0.7275 -0.8093  0.5279
  129SOL    HW2  387   1.885   0.741   1.890 -2.0583  0.4307 -1.3115
  130SOL     OW  388   1.378   2.142   1.027  0.3832 -0.5105 -0.3052
  130SOL    HW1  389   1.327   2.091   0.951  1.5280  1.1792  0.7884
  130SOL    HW2  390   1.464   2.195   0.991 -1.5451  3.9745 -3.5315
  131SOL     OW  391   2.994   1.410   1.370 -0.3625  0.0217  0.1707
  131SOL    HW1  392   2.933   1.336   1.418  0.2549 -3.1105  0.9552
  131SOL    HW2  393   3.097   1.387   1.370  1.3021  0.4338 -3.9539
  132SOL     OW  394   2.038   2.426   0.475  0.0352 -0.4040 -0.0935
  132SOL    HW1  395   1.942   2.469   0.489 -3.5162  0.4528  0.5764
  132SOL    HW2  396   2.064   2.363   0.557  2.1787  4.8979  0.4919
  133SOL     OW  397   1.793   2.350   2.735 -0.4604  0.2314 -0.4054
  133SOL    HW1  398   1.689   2.364   2.711 -2.7242 -1.6391  2.1674
  133SOL    HW2  399   1.856   2.392   2.661 -0.0016 -0.3362 -1.4401
  134SOL     OW  400   2.662   2.308   1.597  0.1379  0.1609  0.2384
  134SOL    HW1  401   2.563   2.314   1.626  0.4447 -2.7254  0.6016
  134SOL    HW2  402   2.720   2.395   1.605  0.1463  1.3502  0.9734
  135SOL     OW  403   0.725   1.469   2.674  0.1951 -0.5102  0.2930
  135SOL    HW1  404   0.659   1.400   2.707 -3.9041  0.7922 -0.4729
  135SOL    HW2  405   0.770   1.439   2.584 -0.0472 -1.7756  0.7098
  136SOL     OW  406   1.204   2.040   0.456 -0.1640 -0.4465  0.7910
  136SOL    HW1  407   1.130   2.110   0.484  0.9176  1.3779 -0.0419
  136SOL    HW2  408   1.170   1.942   0.444  0.7292  1.6906 -0.1754
  137SOL     OW  409   0.437   1.204   2.218 -0.1192 -0.7122  0.5922
  137SOL    HW1  410   0.342   1.170   2.238  3.5027  2.1254  1.2142
  137SOL    HW2  411   0.500   1.128   2.209 -0.4335  1.3338 -1.4162
  138SOL     OW  412   2.505   1.486   0.283 -0.6236  0.6149 -0.2029
  138SOL    HW1  413   2.409   1.461   0.260  0.0775 -0.5021 -0.8316
  138SOL    HW2  414   2.545   1.410   0.338  2.0942  2.7499 -0.8103
  139SOL     OW  415   1.893   2.624   1.357  0.5095  0.6063  0.6354
  139SOL    HW1  416   1.789   2.632   1.350  0.3105 -2.4603 -0.3418
  139SOL    HW2  417   1.919   2.521   1.369  0.9220 -2.1193  0.8824
  140SOL     OW  418   3.000   2.974   2.508 -0.1243  0.0996  0.0917
  140SOL    HW1  419   3.056   2.885   2.516 -1.1698 -0.2920  1.9217
  140SOL    HW2  420   3.056   3.058   2.481 -2.0246 -2.3672 -0.0714
  141SOL     OW  421   1.325   1.689   1.591 -0.3936  0.3287  0.3706
  141SOL    HW1  422   1.228   1.729   1.582 -0.1338  0.4209  0.5669
  141SOL    HW2  423   1.353   1.663   1.687  1.7851  0.1413 -0.5610
  142SOL     OW  424   1.533   0.601   2.249 -0.7874  0.0891  0.3287
  142SOL    HW1  425   1.549   0.567   2.151 -1.0331 -1.2496  1.3406
  142SOL    HW2  426   1.447   0.565   2.296  3.8635 -1.1435 -0.7828
  143SOL     OW  427   2.745   0.910   0.495 -0.2650 -0.3500  0.1070
  143SOL    HW1  428   2.795   0.948   0.417  0.6986  1.0550  2.7484
  143SOL    HW2  429   2.810   0.891   0.573 -1.3935  0.7030  0.1934
  144SOL     OW  430   2.894   1.213   1.493 -0.3760  0.0850  0.2010
  144SOL    HW1  431   2.854   1.187   1.589 -0.8498 -1.0462  2.2364
  144SOL    HW2  432   2.956   1.135   1.456 -2.1381 -2.6598  0.0801
  145SOL     OW  433   1.034   1.823   0.137  0.6106  0.3204 -0.3200
  145SOL    HW1  434   1.127   1.814   0.094  1.2753  0.1265 -0.4604
  145SOL    HW2  435   0.971   1.741   0.120 -3.0628  0.7396 -0.6358
  146SOL     OW  436   2.449   0.656   1.487 -0.0738 -0.0185  0.1159
  146SOL    HW1  437   2.416   0.567   1.442  1.9029  3.5259  0.0920
  146SOL    HW2  438   2.404   0.744   1.453 -1.4557 -1.9040  2.7089
  147SOL     OW  439   1.092   2.525   0.591  0.1858  1.2862 -0.2025
  147SOL    HW1  440   1.070   2.614   0.543  0.4064 -2.5700 -0.4903
  147SOL    HW2  441   1.189   2.484   0.586 -0.7334  1.1082  2.9256
  148SOL     OW  442   1.608   1.469   0.029 -0.0964 -0.2518 -0.0397
  148SOL    HW1  443   1.615   1.400  -0.052 -1.0489 -0.9660  0.0025
  148SOL    HW2  444   1.604   1.428   0.126 -1.4258  0.9786  0.4901
  149SOL     OW  445   0.657   1.450   1.962 -0.5024 -0.0747  0.0917
  149SOL    HW1  446   0.564   1.421   2.003 -1.8761  0.6933 -0.3339
  149SOL    HW2  447   0.692   1.379   1.895  0.4947 -2.0013  1.0386
  150SOL     OW  448   3.052   1.239   0.946 -0.1703 -0.1623  0.2092
  150SOL    HW1  449   3.114   1.211   1.022 -1.0724 -2.5014  0.3998
  150SOL    HW2  450   2.967   1.187   0.957  0.5776 -2.6267  0.1780
  151SOL     OW  451   0.130   0.698   2.088  0.3307 -0.2916  0.4520
  151SOL    HW1  452   0.129   0.795   2.053  0.5346 -0.2100 -1.3029
  151SOL    HW2  453   0.204   0.641   2.040 -0.0123 -2.1937  1.1694
  152SOL     OW  454   1.466   1.793   1.197 -0.3600  0.3392 -0.6032
  152SOL    HW1  455   1.507   1.892   1.185 -0.4638  2.4463 -0.3166
  152SOL    HW2  456   1.365   1.792   1.179  2.9860 -1.2047  2.0658
  153SOL     OW  457   0.125   1.590   0.204  0.2699 -0.2630  0.0664
  153SOL    HW1  458   0.100   1.487   0.199 -1.2195 -2.6245  0.2068
  153SOL    HW2  459   0.088   1.633   0.292  1.6614 -1.8090  1.9469
  154SOL     OW  460   2.371   1.871   2.848 -0.1184  0.2648  0.3649
  154SOL    HW1  461   2.399   1.775   2.881 -0.9069  0.1782 -0.0501
  154SOL    HW2  462   2.424   1.897   2.758 -0.1095  0.9296  2.2630
  155SOL     OW  463   2.511   1.187   0.384  0.7432 -0.5112  0.4646
  155SOL    HW1  464   2.587   1.185   0.314 -0.3181 -0.9223  1.5317
  155SOL    HW2  465   2.435   1.116   0.374 -0.7288 -0.4547  4.7439
  156SOL     OW  466   2.476   0.884   0.795 -0.5560 -0.4476 -0.2768
  156SOL    HW1  467   2.379   0.915   0.812 -1.5820  0.0078 -2.4489
  156SOL    HW2  468   2.536   0.955   0.753  0.4565 -4.1637  0.1169
  157SOL     OW  469   1.212   3.005   2.961 -0.0776 -0.1604 -0.3616
  157SOL    HW1  470   1.303   2.962   2.939 -0.3647  2.0521 -1.6900
  157SOL    HW2  471   1.225   3.102   3.010 -0.4734  1.6419  1.8203
  158SOL     OW  472   0.991   1.849   1.892 -0.0753 -0.2106  0.2230
  158SOL    HW1  473   1.021   1.945   1.872  1.5493  1.0268 -0.9782
  158SOL    HW2  474   0.908   1.851   1.955  1.7321  3.8252  2.3292
  159SOL     OW  475   0.890   0.415   1.203 -0.6644  0.7173 -0.1190
  159SOL    HW1  476   0.846   0.495   1.257 -0.9281  2.9993 -0.5221
  159SOL    HW2  477   0.819   0.358   1.145  2.0458 -1.1290 -0.2008
  160SOL     OW  478   1.355   2.417   1.601 -0.2537  0.5803 -0.2547
  160SOL    HW1  479   1.330   2.321   1.639 -1.4856 -0.7488  0.8686
  160SOL    HW2  480   1.455   2.434   1.596  1.8081  1.0987 -0.8339
  161SOL     OW  481   0.008   2.946   0.455 -0.4502 -0.5593  0.8971
  161SOL    HW1  482  -0.056   2.870   0.437  1.3003 -2.0785  2.0886
  161SOL    HW2  483  -0.040   3.033   0.441  2.2375 -1.8910  1.6791
  162SOL     OW  484   2.598   1.870   0.503  0.1384 -0.0462 -0.8135
  162SOL    HW1  485   2.571   1.811   0.423  0.2945 -1.6591  2.9075
  162SOL    HW2  486   2.647   1.812   0.572  0.8852 -0.7539 -3.2225
  163SOL     OW  487   1.929   2.746   0.731  0.4740 -0.3166  0.3002
  163SOL    HW1  488   1.945   2.788   0.635 -0.0036  0.6307 -0.2859
  163SOL    HW2  489   2.007   2.686   0.764 -1.3756 -1.6459  1.3130
  164SOL     OW  490   3.041   0.222   1.244 -0.2103 -0.5832  0.3517
  164SOL    HW1  491   3.084   0.272   1.165 -0.3596 -1.8371 -4.4669
  164SOL    HW2  492   3.111   0.208   1.319  3.9326  0.2344  1.4165
  165SOL     OW  493   0.966   1.371   0.748  0.6783  0.2943  0.2498
  165SOL    HW1  494   0.900   1.404   0.825  2.2086 -0.3211  0.5191
  165SOL    HW2  495   0.989   1.437   0.671  0.2010 -0.8227 -3.3660
  166SOL     OW  496   1.580   1.016   1.784  0.1916 -0.1443  0.8956
  166SOL    HW1  497   1.483   1.024   1.825 -0.2492 -3.1664 -2.4539
  166SOL    HW2  498   1.641   1.101   1.801  0.9993 -0.7917  0.5336
  167SOL     OW  499   0.746   1.994   1.466 -0.1883 -0.5966  0.1670
  167SOL    HW1  500   0.764   2.069   1.540  0.2357  0.4911  2.1900
  167SOL    HW2  501   0.693   1.912   1.509 -0.1713 -4.5028  0.5652
  168SOL     OW  502   1.618   2.349   0.161  0.6825  0.1105  0.4496
  168SOL    HW1  503   1.709   2.384   0.119 -1.0238 -0.1121 -0.7679
  168SOL    HW2  504   1.629   2.333   0.265 -1.7406 -2.4132 -0.4424
  169SOL     OW  505   0.179   2.582   2.225  0.0000 -0.1517 -0.0745
  169SOL    HW1  506   0.202   2.556   2.127 -3.6207  1.3908  1.5667
  169SOL    HW2  507   0.219   2.509   2.289 -0.8317  1.1388  1.0246
  170SOL     OW  508   1.097   0.232   2.017  0.4740 -0.1703  0.0651
  170SOL    HW1  509   1.155   0.164   2.075 -1.4862  0.9216 -2.1747
  170SOL    HW2  510   1.130   0.245   1.917  0.3510  0.2430 -0.3703
  171SOL     OW  511   0.171   0.816   2.359 -0.2909  0.2049  0.4839
  171SOL    HW1  512   0.089   0.830   2.422  2.7202 -1.5421 -1.6963
  171SOL    HW2  513   0.153   0.792   2.261 -1.0443  0.6565  0.9810
  172SOL     OW  514   0.954   0.982   2.875  0.0143 -0.6438  0.2375
  172SOL    HW1  515   0.933   1.045   2.954 -0.6525 -0.6748  2.9058
  172SOL    HW2  516   0.879   0.977   2.804  2.6865  0.8440 -1.1880
  173SOL     OW  517   0.570   2.579   0.129 -0.5443 -0.7523  0.1221
  173SOL    HW1  518   0.582   2.651   0.057 -1.6958 -3.9194 -0.8249
  173SOL    HW2  519   0.472   2.578   0.157  0.5308  3.5444 -3.7893
  174SOL     OW  520   1.540   2.793   1.041 -0.0093 -0.1015 -0.4084
  174SOL    HW1  521   1.566   2.855   0.955 -0.2947  1.3523  1.9534
  174SOL    HW2  522   1.512   2.701   1.012  0.8349 -1.4140  0.4224
  175SOL     OW  523   0.478   3.050   1.720 -0.4815 -0.0706  0.0381
  175SOL    HW1  524   0.564   3.029   1.779  1.3447  1.4009  1.3829
  175SOL    HW2  525   0.449   3.151   1.715 -2.6295  0.5271  1.0994
  176SOL     OW  526   2.564   0.403   0.011  0.1059  0.2920 -0.2096
  176SOL    HW1  527   2.585   0.488   0.067 -0.2717 -2.3429 -4.1664
  176SOL    HW2  528   2.507   0.332   0.059 -1.0284  1.9220  1.3817
  177SOL     OW  529   0.291   0.355   0.926 -0.1605 -0.3873  0.0318
  177SOL    HW1  530   0.258   0.257   0.914 -0.9397  1.6129 -2.5868
  177SOL    HW2  531   0.334   0.372   1.020  0.8351 -0.2314 -0.6507
  178SOL     OW  532   0.066   2.747   2.559 -0.2568 -0.1489 -0.4509
  178SOL    HW1  533   0.009   2.664   2.545 -1.3217  2.7242  0.2011
  178SOL    HW2  534   0.112   2.749   2.652 -0.6931  0.3654  1.1519
  179SOL     OW  535   3.036   1.584   1.146 -0.6305 -0.1369  0.2131
  179SOL    HW1  536   3.069   1.522   1.072 -0.3360  0.7009  0.9153
  179SOL    HW2  537   2.997   1.534   1.234 -0.7757 -0.5497  2.0649
  180SOL     OW  538   0.193   1.269   1.815  0.0841  0.1638 -0.4607
  180SOL    HW1  539   0.275   1.230   1.857 -3.2074  3.4054  0.0546
  180SOL    HW2  540   0.171   1.363   1.858 -0.3081 -1.1640 -0.5583
  181SOL     OW  541   0.009   1.885   2.468  0.3181 -0.2623  0.0577
  181SOL    HW1  542   0.055   1.977   2.457 -0.0430  3.5563  2.0258
  181SOL    HW2  543  -0.087   1.874   2.425  2.1444 -0.7880  0.9746
  182SOL     OW  544   2.327   1.229   1.180  0.3684 -0.4835  0.3480
  182SOL    HW1  545   2.248   1.205   1.118 -2.8484  1.1110 -1.9531
  182SOL    HW2  546   2.348   1.327   1.175  1.3742 -1.3134  0.8370
  183SOL     OW  547   1.441   2.253   2.544 -0.5610 -0.1325  0.0562
  183SOL    HW1  548   1.356   2.221   2.588  0.4776  0.9498 -0.7244
  183SOL    HW2  549   1.505   2.180   2.506  1.9043 -0.8247 -5.2617
  184SOL     OW  550   2.034   0.922   0.681 -0.3443  0.4985  0.1811
  184SOL    HW1  551   1.954   0.977   0.642  2.3032 -2.1951  2.4209
  184SOL    HW2  552   2.000   0.838   0.736  3.7808  0.9706 -0.3100
  185SOL     OW  553   1.591   2.775   1.954 -0.8442 -0.0282 -0.3388
  185SOL    HW1  554   1.520   2.848   1.955 -0.8285 -2.2920 -1.4087
  185SOL    HW2  555   1.639   2.765   2.046 -2.5478  1.2295  1.1397
  186SOL     OW  556   0.150   2.255   1.658  0.0116 -0.0816  0.0854
  186SOL    HW1  557   0.142   2.314   1.746 -0.7995 -1.6103  2.4174
  186SOL    HW2  558   0.226   2.186   1.655 -2.2100  1.2759  0.7012
  187SOL     OW  559   1.366   0.681   1.649  0.6983  0.0686 -0.1170
  187SOL    HW1  560   1.454   0.728   1.630 -0.9103 -0.6077  0.3869
  187SOL    HW2  561   1.388   0.602   1.711 -0.0782  0.6812 -2.2809
  188SOL     OW  562   2.806   2.761   1.451  0.7141  0.2083  0.2876
  188SOL    HW1  563   2.773   2.861   1.451 -1.3379  2.0716 -2.5913
  188SOL    HW2  564   2.739   2.702   1.400  2.1365  1.0389  0.3229
  189SOL     OW  565   0.923   1.189   1.466 -0.8729 -0.1251  0.2142
  189SOL    HW1  566   1.001   1.244   1.518  1.2248 -1.2984  0.4561
  189SOL    HW2  567   0.880   1.255   1.393  1.0507 -1.2684 -1.5433
  190SOL     OW  568   1.442   1.951   1.627  0.6022 -0.3826 -0.2369
  190SOL    HW1  569   1.401   1.854   1.616 -2.6386  0.4783  0.5502
  190SOL    HW2  570   1.524   1.961   1.685 -1.9156  3.5158 -0.9333
  191SOL     OW  571   0.925   0.740   1.516 -0.1432  0.7196 -0.5730
  191SOL    HW1  572   1.001   0.677   1.549  2.1937  2.6941  1.0005
  191SOL    HW2  573   0.952   0.832   1.478  0.0419 -0.1738 -1.0217
  192SOL     OW  574   1.857   2.313   1.078 -0.0208 -0.2469  0.5348
  192SOL    HW1  575   1.771   2.348   1.026 -1.9948 -1.4898 -3.1607
  192SOL    HW2  576   1.950   2.331   1.033  0.1915  0.4586  0.1920
  193SOL     OW  577   0.530   0.559   0.434  0.0111 -0.3856 -0.5783
  193SOL    HW1  578   0.472   0.482   0.464 -0.3849 -2.6594 -0.4535
  193SOL    HW2  579   0.573   0.533   0.344  0.9571  0.7241  2.0277
  194SOL     OW  580   0.368   0.872   1.290 -0.0594 -0.1466 -0.0007
  194SOL    HW1  581   0.297   0.803   1.307  2.1402 -0.1450 -2.9703
  194SOL    HW2  582   0.339   0.940   1.217 -0.4112  0.7083  1.4023
  195SOL     OW  583   1.023   2.938   0.516 -0.4577  0.0559  0.6333
  195SOL    HW1  584   1.014   2.845   0.465  2.6378 -0.5269 -0.6617
  195SOL    HW2  585   1.118   2.977   0.492  0.2883 -1.0888 -2.6878
  196SOL     OW  586   0.191   1.348   1.385  0.0708 -0.5836 -0.6712
  196SOL    HW1  587   0.221   1.445   1.414 -0.5615  0.1714  1.9886
  196SOL    HW2  588   0.220   1.275   1.457  0.1410 -2.9023 -1.4734
  197SOL     OW  589   0.834   2.044   0.241 -0.2306 -0.1514 -0.3284
  197SOL    HW1  590   0.836   2.051   0.346 -1.3976  0.3627 -0.6211
  197SOL    HW2  591   0.853   1.947   0.216  0.1695 -0.0272 -1.0126
  198SOL     OW  592   0.279   1.259   0.328  0.1222  0.3702  0.7255
  198SOL    HW1  593   0.178   1.250   0.314 -0.4649  2.5343 -0.6340
  198SOL    HW2  594   0.301   1.344   0.373  1.2253 -2.7220 -0.8461
  199SOL     OW  595   2.325   0.378   2.527 -0.0374  0.0480  0.6814
  199SOL    HW1  596   2.249   0.386   2.597 -3.5727  1.3361  1.2796
  199SOL    HW2  597   2.421   0.365   2.575  0.5252 -0.1944  1.2021
  200SOL     OW  598   3.091   2.943   0.743 -0.1398  0.1654  0.1924
  200SOL    HW1  599   2.991   2.914   0.742 -0.4342 -1.7880  1.6412
  200SOL    HW2  600   3.134   2.956   0.649 -4.2025 -1.5356 -2.5298
  201SOL     OW  601   1.050   0.708   0.550 -0.3835 -0.1919  0.0632
  201SOL    HW1  602   1.080   0.786   0.608  1.4830 -3.6231 -3.1428
  201SOL    HW2  603   0.944   0.689   0.565  0.1451  0.5392  0.0403
  202SOL     OW  604   0.397   1.113   1.950 -0.0891  0.1344  0.3486
  202SOL    HW1  605   0.470   1.050   1.909  1.9146 -0.5460  1.3342
  202SOL    HW2  606   0.451   1.182   2.005 -0.6802  4.1287 -0.2194
  203SOL     OW  607   0.625   0.207   1.474 -1.1120  0.1779  0.4543
  203SOL    HW1  608   0.633   0.136   1.399 -0.7031  0.3873 -0.5501
  203SOL    HW2  609   0.703   0.196   1.540  0.3393 -0.2151  0.5748
  204SOL     OW  610   2.109   1.784   2.896 -0.6959 -0.7260  0.1886
  204SOL    HW1  611   2.101   1.676   2.898 -0.2833  0.6030 -0.2311
  204SOL    HW2  612   2.197   1.822   2.854  2.6664 -1.3789  0.7496
  205SOL     OW  613   1.860   1.835   3.021  0.1572 -0.0579 -0.0193
  205SOL    HW1  614   1.954   1.827   2.975  0.0607  1.3205  1.2555
  205SOL    HW2  615   1.824   1.929   3.039 -0.6152 -1.6795  0.3904
  206SOL     OW  616   2.438   2.812   0.342 -0.6012 -0.2046 -0.0403
  206SOL    HW1  617   2.491   2.730   0.380 -0.6616  0.3450  0.4538
  206SOL    HW2  618   2.502   2.876   0.285  0.6512  1.3358  0.5020
  207SOL     OW  619   0.700   1.818   2.962 -0.1653  0.2442 -0.6959
  207SOL    HW1  620   0.765   1.757   2.905  0.7275 -2.5904  0.3318
  207SOL    HW2  621   0.659   1.767   3.041 -2.1910  0.2480 -0.4452
  208SOL     OW  622   1.151   1.575   1.401  0.1973  0.4753  0.4354
  208SOL    HW1  623   1.148   1.670   1.359  0.7897 -1.0761 -3.5544
  208SOL    HW2  624   1.244   1.547   1.434  2.0085 -0.7487  0.9793
  209SOL     OW  625   0.252   0.938   3.048 -0.0277 -0.0894  0.3304
  209SOL    HW1  626   0.236   0.848   3.003 -2.4037  1.8622  0.9930
  209SOL    HW2  627   0.260   0.932   3.149  0.9003  0.1981 -1.2119
  210SOL     OW  628   1.723   0.471   1.161  0.2356  0.1976  0.0471
  210SOL    HW1  629   1.682   0.564   1.129 -0.9423  1.3335 -1.5858
  210SOL    HW2  630   1.829   0.481   1.162 -1.3890  0.0900  0.1829
  211SOL     OW  631   2.115   1.053   1.595  0.2525  0.1497 -0.0532
  211SOL    HW1  632   2.144   0.996   1.677 -2.6436  1.0840 -0.2634
  211SOL    HW2  633   2.188   1.108   1.552 -1.6660  1.8205  1.3056
  212SOL     OW  634   0.011   0.972   1.503  0.0527 -0.4447 -0.2622
  212SOL    HW1  635   0.073   1.053   1.526  0.9387  0.2372 -1.5786
  212SOL    HW2  636   0.017   0.898   1.576  0.2034  1.8317  3.2449
  213SOL     OW  637   2.807   0.169   0.395  0.0262 -0.4861 -1.0823
  213SOL    HW1  638   2.873   0.106   0.346 -2.8367  0.9659  0.5955
  213SOL    HW2  639   2.717   0.186   0.353 -2.6648 -5.4555  0.2431
  214SOL     OW  640   2.169   0.286   2.326  0.5936  0.4673  0.8138
  214SOL    HW1  641   2.242   0.312   2.399  1.4742  1.4063 -0.6494
  214SOL    HW2  642   2.136   0.190   2.347  2.0153  2.4535 -0.7742
  215SOL     OW  643   1.593   2.311   2.086  0.9407  0.5674 -0.1610
  215SOL    HW1  644   1.694   2.305   2.088 -0.8945 -1.8340 -1.4382
  215SOL    HW2  645   1.557   2.405   2.118  2.2924  0.3146 -0.0535
  216SOL     OW  646   2.192   0.616   0.689  0.5249  0.2018  0.5469
  216SOL    HW1  647   2.151   0.534   0.636  0.2202 -1.4212 -2.2225
  216SOL    HW2  648   2.205   0.699   0.623 -0.9268  1.6501 -0.8047
  217SOL     OW  649   0.749   2.790   2.420  0.0139  0.4683 -0.2846
  217SOL    HW1  650   0.720   2.730   2.500  3.0352  0.6980  1.1496
  217SOL    HW2  651   0.737   2.752   2.323 -1.8623  0.0148  3.0733
  218SOL     OW  652   1.903   1.415   0.027  0.2167  0.5818 -0.1799
  218SOL    HW1  653   1.802   1.443   0.008 -3.2861 -0.9737  1.6831
  218SOL    HW2  654   1.916   1.338   0.095  1.7029 -2.8829  0.3482
  219SOL     OW  655   2.431   1.320   2.501 -0.0947 -0.0733  0.4004
  219SOL    HW1  656   2.459   1.282   2.407  0.5678  1.2387  0.8677
  219SOL    HW2  657   2.442   1.244   2.570  1.7631 -0.0610 -2.1451
  220SOL     OW  658   1.469   1.064   1.305  0.0249  0.3498  0.4359
  220SOL    HW1  659   1.573   1.068   1.318  1.4981 -0.3559 -3.3089
  220SOL    HW2  660   1.439   1.088   1.207  0.2051 -0.4968 -1.3336
  221SOL     OW  661   1.288   0.990   2.168  0.0321 -0.2464  0.1782
  221SOL    HW1  662   1.270   0.978   2.069 -1.2531  3.2788  1.7121
  221SOL    HW2  663   1.391   1.012   2.178 -0.1109 -0.7919 -0.8497
  222SOL     OW  664   1.115   0.070   1.206  0.0248  0.0390  0.2116
  222SOL    HW1  665   1.120   0.122   1.297 -0.0910  1.2312  0.2378
  222SOL    HW2  666   1.121   0.129   1.119  0.4850  1.5006 -3.3087
  223SOL     OW  667   2.728   0.959   2.168 -0.1880 -0.2420 -0.0790
  223SOL    HW1  668   2.683   1.036   2.217  1.2275 -0.4673  1.7616
  223SOL    HW2  669   2.821   0.934   2.211 -0.4923 -1.0684  1.2773
  224SOL     OW  670   1.512   1.076   2.726  0.3384 -0.2453 -0.1932
  224SOL    HW1  671   1.559   0.989   2.678 -0.9297  2.4182 -0.4208
  224SOL    HW2  672   1.471   1.141   2.656 -1.0654  1.4189 -0.9527
  225SOL     OW  673   2.945   2.787   2.888  0.4928 -0.5884 -0.3469
  225SOL    HW1  674   2.870   2.765   2.819  4.5429 -0.7563 -0.1409
  225SOL    HW2  675   3.038   2.797   2.853  0.4845  0.1973  1.7063
  226SOL     OW  676   2.454   1.628   2.873 -0.1836  0.1072 -0.5479
  226SOL    HW1  677   2.477   1.601   2.780  0.5133  3.3859  0.0453
  226SOL    HW2  678   2.418   1.549   2.937 -1.2799 -2.5748  1.1370
  227SOL     OW  679   0.865   0.137   0.043 -0.5653  0.5926 -0.6581
  227SOL    HW1  680   0.913   0.214  -0.004  1.4330  0.8552 -1.4537
  227SOL    HW2  681   0.802   0.098  -0.028  1.4838 -4.0712 -2.4369
  228SOL     OW  682   2.427   0.597   2.842 -0.1672 -0.3150  0.4967
  228SOL    HW1  683   2.460   0.667   2.778 -3.0753 -1.7515  1.6758
  228SOL    HW2  684   2.502   0.545   2.885  2.3487 -0.7300  0.1767
  229SOL     OW  685   0.568   0.467   1.838  0.2386  0.7156 -0.8003
  229SOL    HW1  686   0.563   0.360   1.849  0.2125 -2.4095 -0.9906
  229SOL    HW2  687   0.586   0.486   1.735  2.5690 -1.5351 -1.4011
  230SOL     OW  688   1.918   1.147   2.091  1.0696  0.0936 -0.3337
  230SOL    HW1  689   1.970   1.222   2.043 -0.2033 -0.5024 -0.5836
  230SOL    HW2  690   1.818   1.175   2.097 -0.4277  0.7172  2.0850
  231SOL     OW  691   0.622   1.014   0.064 -0.0705  0.0891  0.4092
  231SOL    HW1  692   0.704   1.075   0.039 -1.3420 -1.9366 -1.2686
  231SOL    HW2  693   0.534   1.062   0.056 -0.4891 -0.2898 -0.1363
  232SOL     OW  694   2.420   3.071   2.855  0.2928 -0.4283  0.9565
  232SOL    HW1  695   2.456   2.972   2.863 -0.9768 -2.1028  0.3760
  232SOL    HW2  696   2.461   3.116   2.771 -0.2815  2.0053  1.9214
  233SOL     OW  697   1.674   1.231   1.119  0.2599 -0.2448  0.1196
  233SOL    HW1  698   1.688   1.180   1.030 -1.4333  1.8209  0.3763
  233SOL    HW2  699   1.695   1.167   1.202  1.7591 -1.4873 -0.3669
  234SOL     OW  700   1.556   2.517   1.876  0.2164 -0.5566  0.1372
  234SOL    HW1  701   1.566   2.618   1.891  0.5958  0.3524  0.2291
  234SOL    HW2  702   1.615   2.453   1.931 -3.1892 -2.0113  0.6043
  235SOL     OW  703   0.026   3.051   2.812 -0.1020  0.0841 -0.1007
  235SOL    HW1  704  -0.020   3.022   2.721 -3.0195  0.0889  2.9352
  235SOL    HW2  705  -0.039   3.093   2.880 -1.8458 -0.1739  0.0335
  236SOL     OW  706   2.879   0.734   0.087  0.6569  0.3218 -0.0331
  236SOL    HW1  707   2.943   0.777   0.157 -0.5488 -0.9285 -0.6305
  236SOL    HW2  708   2.918   0.643   0.052  0.9295 -0.6602 -1.9249
  237SOL     OW  709   1.566   1.659   0.961 -0.0038 -0.0825 -0.1047
  237SOL    HW1  710   1.672   1.641   0.948  0.3863 -1.7158 -1.1004
  237SOL    HW2  711   1.538   1.680   1.057  2.5641 -1.8227 -0.9183
  238SOL     OW  712   1.793   1.269   0.843  0.1974 -0.2850 -0.1853
  238SOL    HW1  713   1.868   1.312   0.902  1.4957 -1.1340  2.7425
  238SOL    HW2  714   1.698   1.317   0.844  0.2661 -0.3088  0.2404
  239SOL     OW  715   2.101   0.315   2.694  0.2114  0.1879  0.3202
  239SOL    HW1  716   2.145   0.269   2.775 -1.1763 -0.2300 -1.2690
  239SOL    HW2  717   2.021   0.377   2.721  1.4824  2.2743  2.8228
  240SOL     OW  718   0.933   0.662   0.276 -0.1584 -0.0030 -0.0350
  240SOL    HW1  719   0.979   0.569   0.256 -1.6331 -0.6720 -0.8314
  240SOL    HW2  720   0.948   0.701   0.372  2.1829 -1.8666 -0.2321
  241SOL     OW  721   0.597   0.020   0.387  0.2835  0.5489  0.1343
  241SOL    HW1  722   0.632   0.099   0.340  1.7839 -0.4777  0.5234
  241SOL    HW2  723   0.581  -0.062   0.323  1.5808  1.8765 -0.8990
  242SOL     OW  724   0.600   2.515   1.157 -0.1552 -0.2553 -0.0196
  242SOL    HW1  725   0.565   2.534   1.254  0.9655  1.6416 -0.0852
  242SOL    HW2  726   0.641   2.593   1.103 -0.5473 -0.5914 -1.1493
  243SOL     OW  727   1.082   0.628   2.502 -0.4984 -0.5763  0.5805
  243SOL    HW1  728   0.986   0.640   2.454 -0.4033 -1.2101 -1.7947
  243SOL    HW2  729   1.085   0.588   2.596  0.7204 -0.1878  1.5113
  244SOL     OW  730   2.848   1.910   2.346 -0.1122 -0.3221 -0.2374
  244SOL    HW1  731   2.876   1.902   2.249  1.1942 -0.9735  4.6841
  244SOL    HW2  732   2.770   1.849   2.380 -0.5200  2.1311  0.4490
  245SOL     OW  733   2.307   0.816   2.161 -0.1890  0.7236 -0.1338
  245SOL    HW1  734   2.393   0.872   2.183 -1.2295  1.0304 -2.3032
  245SOL    HW2  735   2.274   0.763   2.250 -1.0309 -0.3273  1.9662
  246SOL     OW  736   0.241   2.922   1.738  0.3754  0.5903 -0.5072
  246SOL    HW1  737   0.171   2.942   1.660  1.3242 -0.4356  1.4297
  246SOL    HW2  738   0.327   2.976   1.718 -1.1543 -1.1601 -0.7831
  247SOL     OW  739   2.226   0.632   3.035 -0.7779  0.4383 -0.4386
  247SOL    HW1  740   2.298   0.610   2.967  0.7845  1.0299  0.9333
  247SOL    HW2  741   2.191   0.730   3.036  1.0701  3.0698 -2.9482
  248SOL     OW  742   2.156   1.820   1.597  0.0720 -0.0991  0.3751
  248SOL    HW1  743   2.213   1.766   1.659 -0.0313 -2.7739  0.1409
  248SOL    HW2  744   2.057   1.812   1.632 -0.3292 -0.5883 -0.3263
  249SOL     OW  745   1.851   1.940   1.924 -0.1797  0.1763  0.5225
  249SOL    HW1  746   1.851   1.877   1.838  1.2054  0.7917 -0.8215
  249SOL    HW2  747   1.941   1.989   1.937 -1.6943 -0.8954  0.7682
  250SOL     OW  748   1.098   0.684   1.885 -0.3544 -0.2653 -0.0510
  250SOL    HW1  749   1.125   0.619   1.964  0.9115  1.2135  1.3985
  250SOL    HW2  750   1.051   0.636   1.806  1.6858 -0.4912  1.2195
  251SOL     OW  751   0.057   1.617   2.496 -0.3662  0.6919  0.4298
  251SOL    HW1  752   0.049   1.719   2.493 -0.2136 -1.6264 -0.3037
  251SOL    HW2  753  -0.037   1.577   2.489  1.5681 -0.2618 -1.5261
  252SOL     OW  754   1.596   0.842   1.567  0.6624 -0.4931 -0.0839
  252SOL    HW1  755   1.679   0.791   1.542 -1.1217  0.9016 -1.0800
  252SOL    HW2  756   1.609   0.904   1.643  0.0922 -2.4003 -0.7120
  253SOL     OW  757   1.007   1.550   0.521  0.4699  0.7702  0.8261
  253SOL    HW1  758   1.027   1.473   0.456  0.8120  0.7433 -0.0708
  253SOL    HW2  759   0.902   1.574   0.526  0.7562  1.4566  1.1113
  254SOL     OW  760   2.051   2.146   1.622  0.0656  0.2292 -0.0665
  254SOL    HW1  761   2.000   2.069   1.573 -1.0382  0.6828  2.4907
  254SOL    HW2  762   1.982   2.206   1.669 -0.8913 -0.8082 -1.6497
  255SOL     OW  763   0.112   1.118   2.905 -0.0935 -0.1022  0.8393
  255SOL    HW1  764   0.166   1.201   2.915  0.4127  2.2040 -0.4395
  255SOL    HW2  765   0.153   1.039   2.956 -2.6626 -2.3915  0.5195
  256SOL     OW  766   2.791   1.412   1.777  0.7175  0.1487 -0.0280
  256SOL    HW1  767   2.691   1.433   1.784  3.3636  0.5881 -1.9849
  256SOL    HW2  768   2.810   1.310   1.777 -1.5359  0.4058 -0.0612
  257SOL     OW  769   0.758   0.144   1.760 -0.1825 -0.4043 -0.2495
  257SOL    HW1  770   0.821   0.217   1.716  1.4030  1.8684 -0.8165
  257SOL    HW2  771   0.807   0.066   1.811 -0.5199  1.1620  1.2221
  258SOL     OW  772   3.019   1.241   0.425  0.0674  0.0772  0.1125
  258SOL    HW1  773   2.940   1.309   0.416  0.1929 -0.7967 -1.0087
  258SOL    HW2  774   3.063   1.232   0.522  0.1285  0.0254 -1.0282
  259SOL     OW  775   0.461   2.933   3.052  0.0809  0.3263  0.2398
  259SOL    HW1  776   0.381   2.879   3.093  0.6302 -1.5654  0.3303
  259SOL    HW2  777   0.507   2.885   2.965  2.4752 -1.6584 -2.1543
  260SOL     OW  778   2.759   0.777   2.802  0.5206 -1.6121 -0.1403
  260SOL    HW1  779   2.663   0.775   2.761 -1.2358  0.2840  3.5455
  260SOL    HW2  780   2.748   0.769   2.902 -1.2303 -0.3593 -2.0683
  261SOL     OW  781   2.724   1.370   1.256 -0.8338 -0.1245  0.1682
  261SOL    HW1  782   2.682   1.299   1.189 -1.8272  0.2632 -1.6651
  261SOL    HW2  783   2.829   1.364   1.275  1.4215 -0.8894 -1.1247
  262SOL     OW  784   1.381   2.958   1.976 -0.2174 -0.4465 -0.0853
  262SOL    HW1  785   1.430   3.043   1.935  1.2865 -2.2670 -1.0785
  262SOL    HW2  786   1.278   2.945   1.962  0.6240  0.2973 -1.5063
  263SOL     OW  787   0.852   0.697   2.358  0.0782 -0.2564  0.1459
  263SOL    HW1  788   0.775   0.635   2.338  1.0869  3.2815 -2.0214
  263SOL    HW2  789   0.877   0.754   2.275 -2.0193 -2.1510  0.1998
  264SOL     OW  790   2.193   0.830   0.463 -0.2371 -0.1891 -0.2757
  264SOL    HW1  791   2.263   0.786   0.399  1.9475  2.6116 -0.8023
  264SOL    HW2  792   2.234   0.906   0.518  3.8326 -2.4965 -1.9540
  265SOL     OW  793   0.955   2.434   2.592 -0.2580  0.5459  0.0704
  265SOL    HW1  794   1.009   2.467   2.675  1.4664  0.3543  1.9080
  265SOL    HW2  795   0.917   2.343   2.608  2.2253  0.1297 -0.4005
  266SOL     OW  796   1.297   1.759  -0.001  0.3217  0.3732 -0.4305
  266SOL    HW1  797   1.293   1.833   0.070 -3.0821 -1.2624 -3.7725
  266SOL    HW2  798   1.394   1.736  -0.024 -0.3185  1.0358  0.2722
  267SOL     OW  799   1.015   0.017   2.337  0.1298  0.5780  0.3040
  267SOL    HW1  800   0.977  -0.048   2.260 -2.0612  2.1829 -0.3997
  267SOL    HW2  801   0.971   0.113   2.335  2.1597  3.6463 -0.7913
  268SOL     OW  802   0.608   1.174   1.031 -0.0825 -0.2836  0.4974
  268SOL    HW1  803   0.633   1.181   1.134  1.8413 -2.3932 -2.5481
  268SOL    HW2  804   0.612   1.261   0.977  2.5287  0.3740 -0.8690
  269SOL     OW  805   2.325   2.565   1.610 -0.6797  0.1159  0.1898
  269SOL    HW1  806   2.387   2.482   1.621 -0.3427  2.9887  3.6802
  269SOL    HW2  807   2.268   2.583   1.694  2.5498  2.4022 -0.7466
  270SOL     OW  808   0.177   2.929   2.007  0.0170  0.3494 -0.2186
  270SOL    HW1  809   0.204   2.925   1.908 -2.7927  2.3169  0.5002
  270SOL    HW2  810   0.105   2.863   2.031  0.3639  1.0291  0.2179
  271SOL     OW  811   0.408   1.417   1.193 -0.1400  0.0499 -0.1903
  271SOL    HW1  812   0.402   1.410   1.092  1.1737 -1.8425  2.4388
  271SOL    HW2  813   0.317   1.415   1.241  1.1306 -1.2266  0.5437
  272SOL     OW  814   2.004   2.902   1.937  0.6880  0.5377 -0.2391
  272SOL    HW1  815   1.924   2.848   1.882 -0.3705  1.4472  0.5345
  272SOL    HW2  816   2.075   2.940   1.876  1.0006  2.0424  2.3145
  273SOL     OW  817   1.481   1.421   2.727 -0.4446  0.4844  0.3690
  273SOL    HW1  818   1.380   1.446   2.748 -1.8886  1.2530 -0.2611
  273SOL    HW2  819   1.532   1.377   2.807  0.8878  0.7906  1.8074
  274SOL     OW  820   1.175   0.488   2.067 -0.0913  0.0224 -0.4403
  274SOL    HW1  821   1.160   0.385   2.072 -0.2170  0.5497  1.1465
  274SOL    HW2  822   1.235   0.515   2.149  0.5323  1.4009  0.2706
  275SOL     OW  823   0.617   2.088   1.883  0.1315  0.3813 -0.1473
  275SOL    HW1  824   0.558   2.167   1.921 -1.9995  4.1096 -0.6633
  275SOL    HW2  825   0.564   2.025   1.819 -1.9292  1.0521 -0.2567
  276SOL     OW  826   2.195   1.004   2.724  0.1226  0.8381 -0.1528
  276SOL    HW1  827   2.117   1.048   2.673  0.8953 -2.7723  0.1014
  276SOL    HW2  828   2.158   0.940   2.797 -1.4794 -1.0717 -0.7547
  277SOL     OW  829   3.088   0.829   0.220  0.0896 -0.8809 -0.2877
  277SOL    HW1  830   3.176   0.873   0.184 -0.9707 -1.5248 -0.8568
  277SOL    HW2  831   3.106   0.759   0.297 -0.2365  2.3186  0.6650
  278SOL     OW  832   0.248   0.300   3.029 -0.5599  0.9737 -0.5752
  278SOL    HW1  833   0.318   0.220   3.017 -1.5122 -1.9434 -0.3726
  278SOL    HW2  834   0.282   0.392   3.060  0.6409 -0.9191 -3.3877
  279SOL     OW  835   0.169   0.092   0.873 -0.3855  0.4938  0.4320
  279SOL    HW1  836   0.220   0.049   0.955  2.2653  0.5189  0.2303
  279SOL    HW2  837   0.184   0.037   0.788  0.2750  1.5602  0.7144
  280SOL     OW  838   1.605   2.907   2.403  0.0799  0.0363  0.1480
  280SOL    HW1  839   1.667   2.965   2.463 -1.9645  1.2375 -0.5652
  280SOL    HW2  840   1.535   2.961   2.346  0.2967 -1.2378  3.1543
  281SOL     OW  841   0.554   0.951   2.238  0.1220 -0.4787  0.4962
  281SOL    HW1  842   0.553   0.851   2.200  0.6877 -0.9462 -0.4502
  281SOL    HW2  843   0.494   0.964   2.321  1.2279  0.9578 -0.5878
  282SOL     OW  844   1.777   2.502   0.514 -0.0240  0.0310 -0.0822
  282SOL    HW1  845   1.715   2.432   0.472 -0.8049  1.9928 -1.0434
  282SOL    HW2  846   1.729   2.585   0.549  1.6158 -0.2173  1.7943
  283SOL     OW  847   1.213   0.929   0.838  0.8384  0.0018 -0.1799
  283SOL    HW1  848   1.255   0.875   0.913 -3.8675 -1.1948 -0.1607
  283SOL    HW2  849   1.126   0.970   0.865  3.4588 -0.7579  0.7014
  284SOL     OW  850   2.269   2.803   2.537 -0.3444  0.6788  0.0641
  284SOL    HW1  851   2.350   2.809   2.468 -0.6356 -2.0908  0.9692
  284SOL    HW2  852   2.281   2.850   2.625 -0.9062  2.2936 -1.0800
  285SOL     OW  853   1.335   3.026   2.571 -0.1604  0.0191  0.0600
  285SOL    HW1  854   1.359   3.046   2.469  0.5628  0.1043  1.2479
  285SOL    HW2  855   1.243   3.058   2.588  2.8358  1.0296 -3.0372
  286SOL     OW  856   0.448   0.423   0.722 -0.2800  0.0932  0.0428
  286SOL    HW1  857   0.370   0.398   0.788 -0.5105 -1.6577 -0.6083
  286SOL    HW2  858   0.455   0.361   0.634 -0.5936 -2.4939 -2.3139
  287SOL     OW  859   0.096   1.288   2.500  0.0762 -0.4632 -0.1411
  287SOL    HW1  860   0.074   1.216   2.576 -1.6343  2.3757 -0.2329
  287SOL    HW2  861   0.092   1.384   2.526 -0.9616 -2.4663  2.6520
  288SOL     OW  862   1.609   2.653   1.629 -0.2649  0.2525 -0.4120
  288SOL    HW1  863   1.628   2.578   1.700  0.3633  1.9002  1.8355
  288SOL    HW2  864   1.621   2.613   1.541 -1.4693 -0.1098  4.1066
  289SOL     OW  865   0.632   2.724   0.889  0.0903  0.1525 -0.7482
  289SOL    HW1  866   0.665   2.776   0.806 -0.9515 -2.0812 -0.9506
  289SOL    HW2  867   0.598   2.785   0.967 -0.0808  0.7913  0.3141
  290SOL     OW  868   2.819   1.120   1.765 -0.0707  0.4955  0.8228
  290SOL    HW1  869   2.737   1.060   1.766  1.8303  1.1209  0.3499
  290SOL    HW2  870   2.885   1.085   1.839 -1.9763  2.3678  0.7930
  291SOL     OW  871   1.997   0.011   0.017 -0.2061 -0.5770 -0.1095
  291SOL    HW1  872   2.018   0.046   0.109  0.7234  1.1936 -2.5702
  291SOL    HW2  873   2.058   0.060  -0.050  1.4758  2.2136 -0.5130
  292SOL     OW  874   2.995   1.184   3.097  0.4255  0.3449 -0.3090
  292SOL    HW1  875   2.952   1.251   3.030  0.5041 -1.0337  1.7304
  292SOL    HW2  876   3.073   1.134   3.056 -2.8377  1.5482 -0.5967
  293SOL     OW  877   0.539   2.122   0.244  0.0122 -0.3382  1.0347
  293SOL    HW1  878   0.512   2.181   0.321  0.5910 -1.0723 -2.8087
  293SOL    HW2  879   0.637   2.133   0.224  0.7789 -0.3590 -2.4524
  294SOL     OW  880   1.829   2.287   1.768  0.0304 -0.1409 -0.5581
  294SOL    HW1  881   1.827   2.316   1.869 -0.5680  2.1323  1.3708
  294SOL    HW2  882   1.801   2.364   1.706  0.2285  1.1227  3.5326
  295SOL     OW  883   0.977   1.082   0.416 -0.3499 -0.0753  0.1491
  295SOL    HW1  884   1.050   1.074   0.482 -0.2253  1.4706  0.5640
  295SOL    HW2  885   0.888   1.095   0.467  0.8870  1.5399 -1.6134
  296SOL     OW  886   1.163   2.128   2.588  0.3210  0.0077  0.2390
  296SOL    HW1  887   1.069   2.122   2.635  1.0597  1.1044  1.0065
  296SOL    HW2  888   1.158   2.071   2.504 -1.7274 -1.0984 -0.5819
  297SOL     OW  889   1.401   0.629   1.352 -0.0138  0.6039 -0.6227
  297SOL    HW1  890   1.418   0.542   1.410  0.7184 -2.2738 -1.0548
  297SOL    HW2  891   1.472   0.645   1.283 -1.1133 -0.4841  1.6391
  298SOL     OW  892   0.508   1.336   2.990 -0.2111  0.6822  0.0535
  298SOL    HW1  893   0.482   1.260   3.053  1.3498  3.9450 -1.6569
  298SOL    HW2  894   0.552   1.298   2.898 -0.5849 -2.5700 -3.4239
  299SOL     OW  895   0.464   0.293   1.217 -0.1800 -0.0874 -0.4606
  299SOL    HW1  896   0.417   0.381   1.205  1.8810 -1.6935 -2.9649
  299SOL    HW2  897   0.486   0.270   1.316  0.2113  0.7905  1.6489
  300SOL     OW  898   1.254   1.744   2.691  0.2800 -0.9644 -0.7621
  300SOL    HW1  899   1.227   1.648   2.721 -0.5222 -2.7876  2.0164
  300SOL    HW2  900   1.345   1.770   2.727 -2.6610 -1.7920  0.9756
  301SOL     OW  901   0.400   0.284   0.485 -0.4026 -0.0413  0.1038
  301SOL    HW1  902   0.302   0.257   0.470 -0.7900  0.6007  2.7093
  301SOL    HW2  903   0.459   0.217   0.437 -2.7392  1.6752 -0.4491
  302SOL     OW  904   1.274   2.408   2.369 -0.2245  0.1551 -0.1152
  302SOL    HW1  905   1.204   2.482   2.376  2.3415 -1.3812  1.9903
  302SOL    HW2  906   1.274   2.340   2.450  3.0257 -0.6616  3.1757
  303SOL     OW  907   0.948   2.390   0.803  0.1954 -0.3353  0.1696
  303SOL    HW1  908   1.005   2.430   0.722 -0.6491  1.4550 -0.8231
  303SOL    HW2  909   0.974   2.432   0.894 -0.3596  1.0426 -1.9850
  304SOL     OW  910   0.084   1.945   0.664  0.5888 -0.0171  0.3160
  304SOL    HW1  911   0.154   1.932   0.592 -0.5100  2.1480 -0.1442
  304SOL    HW2  912   0.025   2.027   0.642  1.9780 -0.7557 -0.8389
  305SOL     OW  913   1.585   0.836   0.633  0.6486 -0.1121  0.4954
  305SOL    HW1  914   1.534   0.814   0.544 -1.9998  0.1648  2.7875
  305SOL    HW2  915   1.640   0.749   0.659  2.1756 -3.3982 -0.7148
  306SOL     OW  916   0.412   1.878   1.885  0.7005  0.6190 -0.2687
  306SOL    HW1  917   0.450   1.785   1.897 -1.4207  0.1214 -1.1206
  306SOL    HW2  918   0.420   1.935   1.970  1.5668  0.7763 -1.9038
  307SOL     OW  919   3.045   0.891   2.498  0.5750 -0.4066  0.3134
  307SOL    HW1  920   3.078   0.970   2.559  1.6632  0.7257 -2.7103
  307SOL    HW2  921   2.978   0.822   2.543 -0.8836 -0.0584  0.6880
  308SOL     OW  922   1.545   2.671   2.802 -0.0376 -0.3357 -0.6311
  308SOL    HW1  923   1.518   2.632   2.709  2.1717  1.0068  0.7679
  308SOL    HW2  924   1.505   2.622   2.884 -0.7210  2.6246  0.4484
  309SOL     OW  925   1.293   0.198   1.762 -0.0905  0.0432  0.2300
  309SOL    HW1  926   1.384   0.147   1.787 -0.7098  1.2854  2.5853
  309SOL    HW2  927   1.256   0.176   1.670  0.3206  2.1599  0.2428
  310SOL     OW  928   1.531   2.581   0.691  0.3988  0.4946 -0.2623
  310SOL    HW1  929   1.505   2.563   0.789 -0.8627 -1.3369  1.0541
  310SOL    HW2  930   1.579   2.669   0.678  1.9153 -3.3213  0.1076
  311SOL     OW  931   1.166   0.924   1.674 -0.2386 -0.1563  0.4137
  311SOL    HW1  932   1.130   0.844   1.727  0.5680  0.1407  2.1736
  311SOL    HW2  933   1.225   0.896   1.593 -0.5665 -1.9397 -1.8161
  312SOL     OW  934   1.597   0.731   1.134 -0.9857  0.2960 -0.1128
  312SOL    HW1  935   1.622   0.824   1.104 -2.5900 -1.2609  1.3307
  312SOL    HW2  936   1.540   0.684   1.065 -1.3941  1.7486  2.7490
  313SOL     OW  937   1.571   1.404   0.702  0.3280  0.4825 -0.1251
  313SOL    HW1  938   1.492   1.427   0.773 -1.6870 -1.8018  2.4338
  313SOL    HW2  939   1.580   1.307   0.675  0.2550  0.9594 -1.7091
  314SOL     OW  940   2.960   0.045   3.018  0.5390  0.4542  0.6082
  314SOL    HW1  941   2.973   0.060   3.122  1.5806 -0.1847  0.8894
  314SOL    HW2  942   2.876  -0.013   2.987 -0.3854  1.7538 -3.1368
  315SOL     OW  943   1.137   0.220   2.821 -0.5487  0.4325  0.3218
  315SOL    HW1  944   1.112   0.150   2.748  2.9713 -1.4522  0.9817
  315SOL    HW2  945   1.196   0.180   2.891 -2.3124  1.1460  2.0503
  316SOL     OW  946   1.768   2.059   0.943  0.1708  0.5016  0.2659
  316SOL    HW1  947   1.737   2.082   1.043  0.3368 -1.2929  4.2019
  316SOL    HW2  948   1.766   2.144   0.885 -0.0451 -0.2377  2.4403
  317SOL     OW  949   1.189   0.683   2.817  0.6466  0.4867 -0.6221
  317SOL    HW1  950   1.147   0.704   2.910  0.4402 -0.8583 -1.4784
  317SOL    HW2  951   1.143   0.598   2.774  0.0367 -4.2979 -1.5080
  318SOL     OW  952   1.391   3.035   2.275  0.2886 -0.3786 -0.9489
  318SOL    HW1  953   1.356   3.129   2.250  2.2279  0.0991 -0.6784
  318SOL    HW2  954   1.382   2.974   2.193  1.2476  0.1291  0.1046
  319SOL     OW  955   0.590   2.419   2.943 -0.2128  0.0651 -0.4019
  319SOL    HW1  956   0.527   2.379   3.014  0.9066 -0.4566 -2.2693
  319SOL    HW2  957   0.663   2.351   2.907 -0.7393  1.9643 -0.1868
  320SOL     OW  958   1.670   2.257   0.407  0.5873 -0.0909 -0.6737
  320SOL    HW1  959   1.723   2.187   0.355 -3.0708  1.2321  2.6309
  320SOL    HW2  960   1.593   2.209   0.460 -2.1593  0.6748  1.2904
  321SOL     OW  961   1.657   2.776   0.569  0.1972 -0.2599  0.2311
  321SOL    HW1  962   1.581   2.833   0.518 -1.7726  0.7258 -0.7755
  321SOL    HW2  963   1.753   2.817   0.565  1.0857 -1.2612  2.3169
  322SOL     OW  964   2.578   1.139   2.337  0.3397  0.0110  0.0674
  322SOL    HW1  965   2.664   1.155   2.392 -0.5545 -0.3869  0.5923
  322SOL    HW2  966   2.528   1.055   2.360 -0.3446  0.5557 -0.6958
  323SOL     OW  967   1.203   2.690   0.868  0.0150 -0.3484  0.4605
  323SOL    HW1  968   1.167   2.636   0.784  1.1892  0.5578  1.1722
  323SOL    HW2  969   1.143   2.773   0.895  0.5705  0.2045  1.3851
  324SOL     OW  970   0.268   2.421   2.486  0.0291  0.1953  0.0521
  324SOL    HW1  971   0.275   2.356   2.568 -0.0256  1.4707 -1.5090
  324SOL    HW2  972   0.214   2.509   2.512  0.1893 -0.6529  2.5466
  325SOL     OW  973   1.267   3.053   0.447  0.2053  0.4106 -0.0001
  325SOL    HW1  974   1.304   3.106   0.364 -0.9294  0.9720  2.8383
  325SOL    HW2  975   1.287   3.104   0.539 -1.1654 -0.0339 -0.0796
  326SOL     OW  976   2.452   0.787   0.014 -0.6005 -0.4024  0.2236
  326SOL    HW1  977   2.401   0.728  -0.057  0.7888  3.6989 -1.9519
  326SOL    HW2  978   2.513   0.731   0.081  2.0509  0.4342 -0.5729
  327SOL     OW  979   2.826   0.310   0.628 -0.2350  0.0404  0.1145
  327SOL    HW1  980   2.843   0.263   0.533 -1.7840 -0.3403  0.4351
  327SOL    HW2  981   2.840   0.228   0.698  1.5456 -3.1162  1.5835
  328SOL     OW  982   2.599   0.559   0.397 -0.3199  0.2554 -0.1579
  328SOL    HW1  983   2.552   0.655   0.392  0.2230  1.0077  1.2866
  328SOL    HW2  984   2.567   0.507   0.483 -0.3367  1.1325  3.6315
  329SOL     OW  985   2.962   2.962   2.161 -0.3104 -0.3378  0.3009
  329SOL    HW1  986   3.040   2.916   2.215  2.4481  1.4793  1.5223
  329SOL    HW2  987   2.968   3.066   2.157 -1.1463  0.7032 -0.7474
  330SOL     OW  988   0.521   0.213   1.903  0.0677  0.4357 -0.0991
  330SOL    HW1  989   0.587   0.169   1.842  0.6735  0.8170 -0.3943
  330SOL    HW2  990   0.506   0.181   1.997  0.3134 -1.9823 -1.7640
  331SOL     OW  991   2.985   1.954   1.095  0.4156  0.2403 -0.0595
  331SOL    HW1  992   2.974   2.053   1.069  1.3020  1.3354  2.2896
  331SOL    HW2  993   2.920   1.913   1.168  1.7473 -0.6387 -0.1835
  332SOL     OW  994   0.404   1.162   0.076  0.2139  0.5258  0.0445
  332SOL    HW1  995   0.302   1.133   0.058 -0.6502 -1.7356  0.9282
  332SOL    HW2  996   0.417   1.226   0.156  2.8753 -0.4333 -1.9862
  333SOL     OW  997   2.897   1.046   0.269  0.6391  0.3313 -1.0237
  333SOL    HW1  998   2.945   1.119   0.323 -2.0931 -0.0469 -3.0612
  333SOL    HW2  999   2.964   0.966   0.251 -0.2788  1.6619  3.8869
  334SOL     OW 1000   1.718   1.270   1.820  0.6470  0.4650 -0.0873
  334SOL    HW1 1001   1.798   1.280   1.753  2.4180 -0.1358 -1.6880
  334SOL    HW2 1002   1.731   1.306   1.917  1.0930 -0.0931  1.8115
  335SOL     OW 1003   1.992   2.706   2.595  0.3710 -0.0950  0.1661
  335SOL    HW1 1004   1.960   2.715   2.692  0.0514  2.9571 -1.5404
  335SOL    HW2 1005   2.090   2.733   2.592 -1.1305 -0.7274  0.7473
  336SOL     OW 1006   0.228   0.093   2.715  0.2939 -0.4390 -0.2455
  336SOL    HW1 1007   0.293   0.113   2.796  1.1036  0.1294  0.7936
  336SOL    HW2 1008   0.153   0.029   2.748 -2.4828  2.6046 -1.5000
  337SOL     OW 1009   0.996   2.884   2.852  1.0487 -0.4908 -0.0314
  337SOL    HW1 1010   0.941   2.832   2.927 -1.6308  4.2611  0.0927
  337SOL    HW2 1011   1.088   2.922   2.890  0.9004  2.2015  0.1045
  338SOL     OW 1012   0.050   1.017   0.648  0.6357  0.1751  0.2342
  338SOL    HW1 1013  -0.048   0.977   0.666 -1.2470  0.9102  0.3062
  338SOL    HW2 1014   0.052   1.121   0.643 -1.3443  0.4084  0.3041
  339SOL     OW 1015   1.703   1.337   2.099  0.2165 -0.8392 -0.5498
  339SOL    HW1 1016   1.608   1.366   2.114  0.4919  1.0104  1.7852
  339SOL    HW2 1017   1.757   1.424   2.110 -0.1859  1.0554  0.8122
  340SOL     OW 1018   2.303   0.802   1.131 -0.3909 -0.6885  0.5352
  340SOL    HW1 1019   2.202   0.819   1.101 -0.2620  1.1643  0.3271
  340SOL    HW2 1020   2.340   0.710   1.111 -1.7058  1.4669  0.7826
  341SOL     OW 1021   1.904   2.097   0.288  0.3146  0.0540  0.0723
  341SOL    HW1 1022   1.921   2.124   0.189  0.9857 -1.7375 -0.0325
  341SOL    HW2 1023   1.991   2.097   0.342  1.6526 -0.2488  1.0143
  342SOL     OW 1024   2.219   2.110   2.796 -1.1585 -0.0465 -0.0214
  342SOL    HW1 1025   2.281   2.035   2.837 -0.4305  0.2783  0.6665
  342SOL    HW2 1026   2.118   2.091   2.812  0.0837 -0.3648 -1.7639
  343SOL     OW 1027   0.369   0.831   2.749  0.5565  0.1330  0.0149
  343SOL    HW1 1028   0.414   0.848   2.662 -0.6218 -0.3451  2.2561
  343SOL    HW2 1029   0.417   0.865   2.835 -2.1384  0.8271  2.6405
  344SOL     OW 1030   1.942   1.458   0.432  0.4021  0.6814  0.4040
  344SOL    HW1 1031   1.930   1.382   0.362  0.7420  1.4248 -1.1786
  344SOL    HW2 1032   1.847   1.489   0.464 -1.0173 -2.3612 -0.3204
  345SOL     OW 1033   1.401   2.247   2.921  0.3280  0.6167 -0.2647
  345SOL    HW1 1034   1.319   2.227   2.864  2.1539 -0.7801 -0.1021
  345SOL    HW2 1035   1.487   2.201   2.883 -1.4297 -1.4173  0.3725
  346SOL     OW 1036   2.342   0.897   1.402 -0.0652  0.0407  0.0542
  346SOL    HW1 1037   2.315   0.997   1.412 -0.7748  0.3828  1.8441
  346SOL    HW2 1038   2.344   0.873   1.297  0.6052  1.9276 -1.8254
  347SOL     OW 1039   0.737   2.732   1.601  0.1016 -0.1935  0.5163
  347SOL    HW1 1040   0.670   2.734   1.682  2.3980 -1.2934  0.6312
  347SOL    HW2 1041   0.710   2.794   1.523 -0.4999 -1.3851 -1.8671
  348SOL     OW 1042   0.172   0.704   2.917 -0.5671  0.0879  0.2216
  348SOL    HW1 1043   0.077   0.708   2.865  2.3191  0.5509 -0.7795
  348SOL    HW2 1044   0.250   0.728   2.852 -0.4845 -1.0828  1.0310
  349SOL     OW 1045   1.856   0.468   2.799  0.2311 -0.2891 -0.2253
  349SOL    HW1 1046   1.856   0.563   2.753  0.5472 -1.4889 -2.5655
  349SOL    HW2 1047   1.841   0.466   2.907 -0.0832 -0.0323  2.2884
  350SOL     OW 1048   1.658   0.432   0.390 -0.2696 -0.0471  0.0046
  350SOL    HW1 1049   1.752   0.426   0.430 -0.3937  1.5359  0.9771
  350SOL    HW2 1050   1.635   0.521   0.347 -0.3928  1.2946 -0.2837
  351SOL     OW 1051   0.978   0.794   2.144 -0.1690  0.0353 -0.6028
  351SOL    HW1 1052   1.054   0.853   2.187  0.7915  0.1235 -0.3137
  351SOL    HW2 1053   0.989   0.766   2.048  0.7782  1.4184  0.1516
  352SOL     OW 1054   2.019   1.309   0.648  0.2316  0.8308  0.0869
  352SOL    HW1 1055   2.006   1.387   0.577  2.2016  1.4786 -4.4491
  352SOL    HW2 1056   1.949   1.300   0.720  2.8412  0.9060  1.7839
  353SOL     OW 1057   2.161   2.777   1.090 -0.2271  0.0498  0.4745
  353SOL    HW1 1058   2.226   2.736   1.161  0.3802  0.2633  4.7253
  353SOL    HW2 1059   2.074   2.721   1.067 -3.9720  1.3273 -0.2460
  354SOL     OW 1060   0.255   1.357   2.892 -0.1026 -0.0227 -0.2439
  354SOL    HW1 1061   0.252   1.425   2.815  1.2085  1.1144  0.8169
  354SOL    HW2 1062   0.347   1.365   2.935 -1.9091  0.6436 -3.0216
  355SOL     OW 1063   0.702   1.593   0.597 -0.2991  0.1465 -0.1161
  355SOL    HW1 1064   0.711   1.540   0.688  2.2934 -1.4975  0.7801
  355SOL    HW2 1065   0.682   1.536   0.515 -0.3162 -0.4504 -0.9408
  356SOL     OW 1066   0.814   0.344   2.045 -0.4736  0.2279 -0.2532
  356SOL    HW1 1067   0.910   0.310   2.032  2.7964 -1.1859 -1.8278
  356SOL    HW2 1068   0.764   0.349   1.960 -1.5567 -2.2416  0.4241
  357SOL     OW 1069   1.015   1.341   0.331  0.3867 -0.7597 -0.8573
  357SOL    HW1 1070   1.098   1.326   0.275  0.3117 -2.0731 -0.1046
  357SOL    HW2 1071   0.981   1.251   0.365  3.1809  1.1258  1.2367
  358SOL     OW 1072   1.685   1.543   0.488 -0.4710  0.4186 -0.1765
  358SOL    HW1 1073   1.656   1.514   0.585  1.1911 -1.4272 -2.0405
  358SOL    HW2 1074   1.619   1.514   0.413  0.7942  4.1193  2.0846
  359SOL     OW 1075   1.573   2.645   0.206  0.0837 -0.0234  0.1210
  359SOL    HW1 1076   1.539   2.552   0.169  0.0775  2.5872 -0.4095
  359SOL    HW2 1077   1.512   2.677   0.281 -2.5886 -0.5229  0.7384
  360SOL     OW 1078   0.789   0.585   0.529 -0.3357  0.1772 -0.4075
  360SOL    HW1 1079   0.685   0.590   0.509  0.8875  0.4630  1.0315
  360SOL    HW2 1080   0.828   0.485   0.534  0.8687 -0.6169 -0.3968
  361SOL     OW 1081   1.236   1.294   0.679  0.5247  0.0795 -0.2963
  361SOL    HW1 1082   1.299   1.373   0.710 -0.6032 -0.5188 -0.8272
  361SOL    HW2 1083   1.136   1.317   0.702  0.8492 -1.2152 -0.5342
  362SOL     OW 1084   1.397   1.830   0.830 -0.5589 -0.4652 -0.1025
  362SOL    HW1 1085   1.452   1.756   0.881  0.0979  0.0664  0.8052
  362SOL    HW2 1086   1.458   1.893   0.772 -1.7795  1.8274  0.0028
  363SOL     OW 1087   1.217   1.313   2.048  0.1798  0.7758  0.1737
  363SOL    HW1 1088   1.312   1.344   2.081  1.4272 -0.1408  0.9657
  363SOL    HW2 1089   1.196   1.369   1.960 -1.2946 -0.6153 -1.7195
  364SOL     OW 1090   0.524   2.335   1.984  0.5394 -0.4611 -0.4243
  364SOL    HW1 1091   0.428   2.378   1.966  1.5827  1.1848 -3.0958
  364SOL    HW2 1092   0.600   2.382   1.930  1.1657 -0.1383  2.3992
  365SOL     OW 1093   0.996   1.964   1.345 -0.3909  0.3509 -0.3479
  365SOL    HW1 1094   0.898   1.981   1.379 -0.1501 -0.8270  1.5184
  365SOL    HW2 1095   1.007   1.911   1.254  0.5739 -0.5726 -1.2468
  366SOL     OW 1096   2.837   1.974   0.398  0.0447 -0.6709 -0.0177
  366SOL    HW1 1097   2.733   1.970   0.425 -2.2215 -2.4076  1.0145
  366SOL    HW2 1098   2.856   1.903   0.322  0.0284 -0.2038 -0.3725
  367SOL     OW 1099   0.881   1.112   0.023  0.2393  1.1018 -1.0889
  367SOL    HW1 1100   0.918   1.033   0.084 -0.1344  1.9032 -0.9432
  367SOL    HW2 1101   0.956   1.181   0.006 -0.2860 -0.6606  1.0961
  368SOL     OW 1102   1.441   0.581   0.685 -0.3871 -0.2478  0.0143
  368SOL    HW1 1103   1.395   0.604   0.593  3.4744 -3.8034 -3.1930
  368SOL    HW2 1104   1.544   0.571   0.666 -1.4430  1.0944 -4.2555
  369SOL     OW 1105   0.359   1.685   0.079 -0.0301 -0.1361  0.7364
  369SOL    HW1 1106   0.399   1.762   0.132 -0.9979  1.0636 -1.8194
  369SOL    HW2 1107   0.281   1.639   0.130  1.0744 -3.9588  2.3244
  370SOL     OW 1108   0.428   2.049   1.001 -0.2355 -0.3301  0.6266
  370SOL    HW1 1109   0.418   2.154   0.992  1.0584  0.0865  0.3233
  370SOL    HW2 1110   0.333   2.001   1.006 -4.5264 -0.5588 -1.2034
  371SOL     OW 1111   2.930   2.209   2.635 -0.3521 -0.0773 -0.0005
  371SOL    HW1 1112   2.864   2.189   2.718 -2.2095 -0.2248  0.4036
  371SOL    HW2 1113   3.024   2.239   2.673 -1.5935 -0.3876  1.1187
  372SOL     OW 1114   1.061   2.017   1.056 -0.8105  0.0896 -0.0846
  372SOL    HW1 1115   0.984   2.044   0.994 -0.2080 -0.4011 -1.4022
  372SOL    HW2 1116   1.139   2.083   1.058 -0.7490  0.8623 -1.3222
  373SOL     OW 1117   2.003   1.963   0.840 -0.1747  0.0838  0.3892
  373SOL    HW1 1118   2.070   1.973   0.917  0.6626 -0.9729 -1.4783
  373SOL    HW2 1119   1.912   1.990   0.880  1.1787  0.8978 -1.7695
  374SOL     OW 1120   1.874   0.398   0.577 -0.6011  0.3082  0.0465
  374SOL    HW1 1121   1.862   0.311   0.634  2.6263 -0.7707 -1.1755
  374SOL    HW2 1122   1.970   0.424   0.566  3.3666  0.6302  0.7582
  375SOL     OW 1123   2.376   2.148   1.093  0.5950 -0.2327 -0.1569
  375SOL    HW1 1124   2.437   2.115   1.013  0.1747  1.1909 -2.6428
  375SOL    HW2 1125   2.422   2.122   1.185  1.5551 -2.5928  1.0754
  376SOL     OW 1126   3.087   0.572   1.489 -0.7630 -0.0460 -0.0310
  376SOL    HW1 1127   3.097   0.650   1.556 -1.8587 -0.0113  0.5768
  376SOL    HW2 1128   2.998   0.527   1.501  1.4702  0.6501  0.6325
  377SOL     OW 1129   2.201   2.916   0.290 -0.2740  0.3527 -0.4209
  377SOL    HW1 1130   2.213   3.015   0.326 -2.5796 -0.5291 -1.4125
  377SOL    HW2 1131   2.287   2.858   0.292 -0.2043  1.7044  0.8246
  378SOL     OW 1132   1.823   1.857   2.630 -0.6861  0.1600  0.0724
  378SOL    HW1 1133   1.825   1.766   2.681  0.8010  0.1763 -3.1358
  378SOL    HW2 1134   1.838   1.838   2.531 -0.0473 -1.9870  1.3777
  379SOL     OW 1135   0.701   0.114   2.877  0.1041 -0.2025  0.1532
  379SOL    HW1 1136   0.647   0.045   2.812 -2.9950 -0.6207  2.3627
  379SOL    HW2 1137   0.748   0.192   2.828 -1.7125 -0.8615 -1.0600
  380SOL     OW 1138   1.503   1.143   0.613  0.0771 -0.4092  0.4311
  380SOL    HW1 1139   1.411   1.166   0.573  0.4969  1.9265 -1.1210
  380SOL    HW2 1140   1.516   1.044   0.643  0.5816  1.6606 -0.6610
  381SOL     OW 1141   1.357   1.169   1.519 -0.4755  0.3571 -0.1039
  381SOL    HW1 1142   1.404   1.142   1.429 -1.8879  0.4878 -0.3843
  381SOL    HW2 1143   1.406   1.127   1.603 -2.0388 -1.1628  1.7405
  382SOL     OW 1144   1.775   0.859   0.183 -0.1344  0.0802 -0.0441
  382SOL    HW1 1145   1.808   0.844   0.084  0.5528  0.5448 -1.5422
  382SOL    HW2 1146   1.844   0.911   0.238  0.8003  0.4072 -0.1732
  383SOL     OW 1147   2.601   1.021   1.464  0.0070  0.5880 -0.1890
  383SOL    HW1 1148   2.523   0.972   1.430  2.5478 -1.5165  2.0082
  383SOL    HW2 1149   2.694   0.987   1.429 -2.2220  2.6917 -0.9537
  384SOL     OW 1150   0.971   2.288   0.131  0.8846 -0.1727 -0.3837
  384SOL    HW1 1151   0.906   2.365   0.153 -0.3202  0.0363 -2.3365
  384SOL    HW2 1152   0.930   2.197   0.155  0.2700 -0.6022  2.7266
  385SOL     OW 1153   3.038   2.050   1.642  0.0055  0.3616 -0.2709
  385SOL    HW1 1154   3.124   2.111   1.642 -2.6695 -1.4749  0.7379
  385SOL    HW2 1155   3.067   1.950   1.644 -3.3559  0.4988  1.7658
  386SOL     OW 1156   0.491   1.107   0.404 -0.3043 -0.9795  0.5765
  386SOL    HW1 1157   0.464   1.006   0.407 -2.4716  0.2627 -0.3329
  386SOL    HW2 1158   0.407   1.170   0.382 -1.1213 -0.7401  1.0264
  387SOL     OW 1159   0.958   0.298   1.640  0.4693 -0.4377  0.7396
  387SOL    HW1 1160   0.994   0.396   1.623  0.4746 -0.1789 -0.8496
  387SOL    HW2 1161   0.956   0.245   1.552 -0.5843  0.7815  1.8907
  388SOL     OW 1162   1.197   2.672   1.733 -0.1157  0.7184 -0.0569
  388SOL    HW1 1163   1.209   2.689   1.631  2.2549  0.0274  0.8795
  388SOL    HW2 1164   1.239   2.579   1.754  2.6506  1.2477 -3.8858
  389SOL     OW 1165   0.184   2.968   1.098  0.7237  0.3983  0.1798
  389SOL    HW1 1166   0.080   2.971   1.099  1.4467  0.4147  2.9399
  389SOL    HW2 1167   0.227   2.877   1.108 -2.9273  2.2421  0.5800
  390SOL     OW 1168   1.019   0.943   1.355 -0.0682 -0.1791  0.1031
  390SOL    HW1 1169   1.115   0.905   1.374 -0.6196 -0.0309 -0.2349
  390SOL    HW2 1170   0.996   1.027   1.405 -1.2641  0.8653 -0.1983
  391SOL     OW 1171   2.134   1.084   1.074  0.7272 -0.1972  0.0987
  391SOL    HW1 1172   2.045   1.034   1.093  2.3537  2.2863 -0.4718
  391SOL    HW2 1173   2.186   1.058   0.988  1.9154  0.7287  0.3626
  392SOL     OW 1174   0.865   2.746   3.090 -0.1197  0.4972  0.8045
  392SOL    HW1 1175   0.862   2.659   3.141  2.4410  0.2197 -1.9584
  392SOL    HW2 1176   0.952   2.804   3.112 -2.6607  0.4798 -0.7241
  393SOL     OW 1177   0.324   0.525   1.998  0.1215  0.3112  0.7957
  393SOL    HW1 1178   0.242   0.478   1.952  2.3977  0.7650  0.8656
  393SOL    HW2 1179   0.397   0.525   1.924  1.0630  0.6957 -1.7533
  394SOL     OW 1180   3.058   1.818   2.813  0.6742  0.2637  0.1853
  394SOL    HW1 1181   3.130   1.788   2.886  1.6583 -1.1730  0.5719
  394SOL    HW2 1182   3.079   1.905   2.766 -0.8026 -0.0208  0.8773
  395SOL     OW 1183   1.618   1.927   0.684  0.1411  0.5438 -0.0980
  395SOL    HW1 1184   1.662   1.855   0.623 -0.4028 -0.9792 -0.0953
  395SOL    HW2 1185   1.668   1.950   0.771  1.4800  2.8649 -0.3626
  396SOL     OW 1186   2.822   1.880   1.310  0.4119 -0.7198 -0.7682
  396SOL    HW1 1187   2.829   1.780   1.343  1.1023 -0.4512 -2.8146
  396SOL    HW2 1188   2.808   1.950   1.390  0.8216  2.4088  2.2841
  397SOL     OW 1189   1.039   2.246   0.509  0.1981 -0.1450 -0.1108
  397SOL    HW1 1190   0.936   2.231   0.533 -0.0419  0.3959 -0.7581
  397SOL    HW2 1191   1.071   2.341   0.524  0.3930  1.6377  1.2424
  398SOL     OW 1192   2.118   3.052   1.032  0.5867 -0.6513 -0.7870
  398SOL    HW1 1193   2.120   2.955   1.068  1.8460  0.9970 -1.8241
  398SOL    HW2 1194   2.053   3.119   1.087 -3.1727  2.0266  0.1844
  399SOL     OW 1195   3.006   2.527   2.559  0.8468 -0.1885 -0.6371
  399SOL    HW1 1196   2.901   2.516   2.566 -2.5196 -0.0491  1.1681
  399SOL    HW2 1197   3.051   2.440   2.546  0.6812  1.1882 -0.9954
  400SOL     OW 1198   0.774   1.628   1.328  0.2058 -0.0096  0.2316
  400SOL    HW1 1199   0.781   1.677   1.424 -1.1077 -1.9003  2.2310
  400SOL    HW2 1200   0.760   1.686   1.246 -4.4084  0.1029  2.0121
  401SOL     OW 1201   1.803   0.081   1.381 -0.2842  0.1265 -0.3079
  401SOL    HW1 1202   1.858   0.064   1.470  3.4287 -2.5158 -0.3913
  401SOL    HW2 1203   1.700   0.082   1.390 -0.2818  0.7851 -0.2286
  402SOL     OW 1204   1.317   0.132   3.028  0.2272  0.1103  0.2974
  402SOL    HW1 1205   1.410   0.114   2.983  1.0963 -0.9796 -2.6052
  402SOL    HW2 1206   1.297   0.227   3.064 -0.7478 -2.0351  0.8397
  403SOL     OW 1207   2.314   1.793   0.884  0.2551 -0.4960 -0.1417
  403SOL    HW1 1208   2.416   1.812   0.904 -0.5071  1.5177  0.3601
  403SOL    HW2 1209   2.263   1.849   0.959 -0.5502  1.0820  0.9285
  404SOL     OW 1210   0.182   2.492   2.819  0.0840  0.3194 -0.0617
  404SOL    HW1 1211   0.259   2.447   2.771 -0.6763  1.6941  1.0959
  404SOL    HW2 1212   0.188   2.595   2.839  2.1484  2.2714 -0.8288
  405SOL     OW 1213   0.160   2.395   0.649 -0.1273  0.0504  0.4249
  405SOL    HW1 1214   0.132   2.352   0.558  1.1744 -3.4881  2.3392
  405SOL    HW2 1215   0.216   2.484   0.645 -0.5442  3.3978 -1.5873
  406SOL     OW 1216  -0.003   1.480   3.009 -0.4328 -0.3433  0.1560
  406SOL    HW1 1217   0.067   1.422   2.967  0.1781  3.2442  1.7548
  406SOL    HW2 1218   0.045   1.549   3.074  0.8493  3.4224  1.1533
  407SOL     OW 1219   1.583   0.964   0.901 -0.3850  0.2210 -0.4611
  407SOL    HW1 1220   1.542   0.898   0.832  1.8199 -0.3390 -1.1430
  407SOL    HW2 1221   1.509   1.012   0.969 -2.5219 -0.0326  0.5132
  408SOL     OW 1222   1.592   2.324   0.932 -0.3000 -0.0975  0.1451
  408SOL    HW1 1223   1.656   2.320   0.844 -0.6120 -0.8604 -2.4570
  408SOL    HW2 1224   1.516   2.390   0.926  0.3542 -1.1741  1.4808
  409SOL     OW 1225   0.676   0.839   0.692 -0.4552  0.2193 -0.4053
  409SOL    HW1 1226   0.594   0.857   0.627 -1.7512 -1.7013 -1.2643
  409SOL    HW2 1227   0.662   0.748   0.733  1.1972  1.4544 -1.4330
  410SOL     OW 1228   1.247   2.048   1.444 -0.0466  0.0578  0.0306
  410SOL    HW1 1229   1.310   1.990   1.498  1.5691 -0.0917  3.2173
  410SOL    HW2 1230   1.155   2.009   1.429  3.8925  0.3665 -1.0352
  411SOL     OW 1231   2.504   1.855   0.020 -0.0179  0.1086 -0.4374
  411SOL    HW1 1232   2.410   1.877  -0.022 -0.4158 -1.3362 -0.8460
  411SOL    HW2 1233   2.578   1.840  -0.051 -0.7608  0.7766  0.5449
  412SOL     OW 1234   1.458   2.547   2.189 -0.0251 -0.7574  0.0757
  412SOL    HW1 1235   1.485   2.649   2.201  0.3455  0.4711 -1.8258
  412SOL    HW2 1236   1.394   2.509   2.262 -1.1655  0.3352  0.2851
  413SOL     OW 1237   3.080   0.279   2.963 -0.2229 -0.3366  0.2338
  413SOL    HW1 1238   3.046   0.181   2.966  0.8879 -0.7035 -0.8990
  413SOL    HW2 1239   3.184   0.281   2.975  2.0248 -1.7414  0.6855
  414SOL     OW 1240   1.829   1.464   1.230  0.0465  0.8779 -0.0618
  414SOL    HW1 1241   1.759   1.506   1.287  0.3057 -0.2241  1.4072
  414SOL    HW2 1242   1.794   1.373   1.189 -1.3447 -2.9374  1.1687
  415SOL     OW 1243   0.305   2.176   0.739  0.1669 -0.5402  0.1229
  415SOL    HW1 1244   0.265   2.272   0.726  0.3178  1.1289 -0.8894
  415SOL    HW2 1245   0.272   2.127   0.822  2.3814  2.6220 -1.1234
  416SOL     OW 1246   0.336   1.018   1.033 -0.1304 -0.2838 -0.3340
  416SOL    HW1 1247   0.302   0.974   0.945 -1.4091 -3.9022  0.9814
  416SOL    HW2 1248   0.441   1.038   1.030  0.5822 -2.5720 -0.0189
  417SOL     OW 1249   2.154   2.285   1.926  0.2268  0.0200  0.0862
  417SOL    HW1 1250   2.187   2.204   1.984  2.3116  0.3108  0.6305
  417SOL    HW2 1251   2.086   2.253   1.857  0.1632 -1.7882 -0.2593
  418SOL     OW 1252   1.130   0.507   1.332 -0.2285  0.0185  0.1252
  418SOL    HW1 1253   1.079   0.461   1.251  0.2632 -2.1591 -1.4867
  418SOL    HW2 1254   1.218   0.545   1.303  1.8872  0.8129 -0.7626
  419SOL     OW 1255   0.938   0.395   3.014 -0.4426  0.3635 -0.7544
  419SOL    HW1 1256   0.951   0.376   2.915 -0.9525  0.5196  1.2651
  419SOL    HW2 1257   0.887   0.482   3.044  2.5637  1.0252  0.3506
  420SOL     OW 1258   0.091   2.266   0.431 -0.6120  0.1052  0.2434
  420SOL    HW1 1259   0.088   2.259   0.328  0.1050 -1.3313  0.5543
  420SOL    HW2 1260   0.008   2.222   0.475  0.8239 -1.1954 -1.6529
  421SOL     OW 1261   0.352   2.945   0.702  0.4107  0.4392  0.0888
  421SOL    HW1 1262   0.337   2.868   0.772  3.0747  1.7138 -0.7884
  421SOL    HW2 1263   0.435   3.004   0.728  2.4338  0.4340 -2.6708
  422SOL     OW 1264   1.024   2.531   1.019  0.7367 -0.3175  0.2068
  422SOL    HW1 1265   1.066   2.605   0.960 -1.1884  0.0051 -1.4944
  422SOL    HW2 1266   1.024   2.550   1.120 -3.1434 -2.2066 -1.4788
  423SOL     OW 1267   0.096   0.674   1.258 -0.5547  0.1351 -0.2014
  423SOL    HW1 1268   0.067   0.613   1.337 -2.3472 -0.8337  0.7383
  423SOL    HW2 1269   0.035   0.754   1.250 -2.7820  1.7802 -0.4194
  424SOL     OW 1270   1.026   2.224   2.054 -0.3138 -0.3894 -0.8065
  424SOL    HW1 1271   1.005   2.322   2.028  0.3961  1.2915  2.4941
  424SOL    HW2 1272   1.016   2.208   2.159  2.0096  1.2338  0.1394
  425SOL     OW 1273   1.989   1.397   0.973 -0.4395 -0.7298 -0.1636
  425SOL    HW1 1274   2.023   1.353   1.063  1.3011 -2.9411  1.3175
  425SOL    HW2 1275   2.056   1.456   0.919 -0.2243  1.4255  0.6890
  426SOL     OW 1276   1.553   1.590   1.377 -0.1371  0.3052  0.2820
  426SOL    HW1 1277   1.539   1.655   1.296 -0.4152  1.7196 -2.2496
  426SOL    HW2 1278   1.491   1.609   1.460 -0.9784 -0.7323 -1.5250
  427SOL     OW 1279   1.868   2.354   2.041  0.3936  0.9220 -0.0459
  427SOL    HW1 1280   1.927   2.291   2.095 -1.1220 -1.1269  1.6504
  427SOL    HW2 1281   1.875   2.454   2.069 -0.4512 -0.6375  1.0947
  428SOL     OW 1282   0.845   2.982   0.192  0.5759 -0.2686  0.0976
  428SOL    HW1 1283   0.849   3.082   0.155 -0.6150  0.7908  1.1598
  428SOL    HW2 1284   0.933   2.926   0.183  0.1968 -2.8721 -0.5279
  429SOL     OW 1285   1.327   0.082   0.214 -0.0481 -0.5291 -0.3624
  429SOL    HW1 1286   1.420   0.128   0.240  0.5513  0.5400 -1.0598
  429SOL    HW2 1287   1.314   0.085   0.111  0.1878 -0.0831 -0.0236
  430SOL     OW 1288   2.823   1.414   0.371  0.6482 -0.2971 -0.6568
  430SOL    HW1 1289   2.869   1.451   0.285  0.7051 -0.6710 -3.0149
  430SOL    HW2 1290   2.809   1.489   0.445 -4.1609 -1.7270 -2.5849
  431SOL     OW 1291   2.159   1.571   0.834 -0.2618 -0.0228  0.1713
  431SOL    HW1 1292   2.228   1.640   0.862 -0.5738  0.9205  1.2294
  431SOL    HW2 1293   2.083   1.615   0.783 -0.3247  0.2128  3.2824
  432SOL     OW 1294   2.902   2.252   1.207  0.1617  0.2489 -0.8571
  432SOL    HW1 1295   2.826   2.184   1.232 -0.6662 -1.8273 -0.3143
  432SOL    HW2 1296   2.961   2.279   1.292 -1.4266 -2.2338  1.8260
  433SOL     OW 1297   1.948   0.402   0.868  0.1601 -0.0073 -0.1884
  433SOL    HW1 1298   1.876   0.346   0.912  1.4112  1.6542 -0.9434
  433SOL    HW2 1299   2.028   0.422   0.935 -0.8707  2.1008  0.7308
  434SOL     OW 1300   1.536   0.287   0.775  0.0802 -0.0967 -0.3884
  434SOL    HW1 1301   1.510   0.385   0.769 -1.0267 -0.9035 -1.1835
  434SOL    HW2 1302   1.605   0.262   0.851 -4.0981 -2.2382 -2.1553
  435SOL     OW 1303   1.434   1.452   2.172  0.3421 -0.1559 -0.1080
  435SOL    HW1 1304   1.350   1.497   2.221  1.8382 -0.5187 -2.1823
  435SOL    HW2 1305   1.478   1.513   2.099 -2.7145  4.2168 -2.8160
  436SOL     OW 1306   1.669   2.747   2.214  0.1808 -0.0673 -0.0238
  436SOL    HW1 1307   1.641   2.818   2.281 -0.7449  1.8986 -2.1510
  436SOL    HW2 1308   1.714   2.662   2.255 -1.2787 -0.2466  0.9347
  437SOL     OW 1309   1.043   2.918   0.923  0.2702  0.0051  0.1607
  437SOL    HW1 1310   1.038   3.006   0.863 -2.1755  2.4565  0.4056
  437SOL    HW2 1311   1.013   2.918   1.025  1.1553 -2.4065  0.6513
  438SOL     OW 1312   1.039   2.576   1.308  0.0314 -0.2266 -0.6026
  438SOL    HW1 1313   1.119   2.615   1.361 -2.7437 -0.8774 -0.5188
  438SOL    HW2 1314   1.034   2.472   1.324 -1.1602 -1.7411 -0.1403
  439SOL     OW 1315   0.687   1.702   1.067 -0.3246  0.3229 -0.0740
  439SOL    HW1 1316   0.699   1.781   1.002  0.9711 -1.4604 -0.4651
  439SOL    HW2 1317   0.586   1.687   1.089  0.7158 -0.2858 -0.0025
  440SOL     OW 1318   0.991   2.498   1.966 -0.5660 -0.0834  0.3667
  440SOL    HW1 1319   0.962   2.526   1.872  1.1299 -1.4302  0.1266
  440SOL    HW2 1320   1.098   2.496   1.976 -0.7086  0.4855 -1.1928
  441SOL     OW 1321   0.446   2.738   1.370  0.4917 -0.5461 -0.2373
  441SOL    HW1 1322   0.471   2.648   1.411 -3.7584  0.4233  1.0961
  441SOL    HW2 1323   0.345   2.737   1.330 -1.5582  0.0298 -1.5654
  442SOL     OW 1324   2.348   0.653   2.450  0.3781 -0.0672 -0.7068
  442SOL    HW1 1325   2.353   0.557   2.490  0.4198 -2.0159 -0.3361
  442SOL    HW2 1326   2.250   0.686   2.461  1.6073 -0.1084 -0.8411
  443SOL     OW 1327   1.235   2.727   2.171  0.3379  0.1080 -0.4712
  443SOL    HW1 1328   1.258   2.783   2.259 -1.8523 -0.6110  2.4417
  443SOL    HW2 1329   1.248   2.629   2.178  2.1067 -0.9786  1.6329
  444SOL     OW 1330   1.121   1.306   1.603 -0.2084 -0.3787 -0.2380
  444SOL    HW1 1331   1.211   1.264   1.572  1.6369 -1.1231 -0.4096
  444SOL    HW2 1332   1.137   1.359   1.692  0.8351 -2.4728  0.8963
  445SOL     OW 1333   0.006   2.396   1.870  0.2864 -0.3051 -0.1264
  445SOL    HW1 1334  -0.010   2.498   1.861 -1.0358 -1.6255 -1.7661
  445SOL    HW2 1335  -0.074   2.349   1.913  4.4113 -0.1683 -1.8819
  446SOL     OW 1336   0.274   1.911   2.352 -0.0938  0.4836 -0.6544
  446SOL    HW1 1337   0.244   2.006   2.369  1.1152 -1.5618 -1.9673
  446SOL    HW2 1338   0.194   1.852   2.312  2.6593 -0.0342  1.8534
  447SOL     OW 1339   1.216   1.714   1.926 -0.6567  0.4139 -0.2850
  447SOL    HW1 1340   1.125   1.760   1.908 -0.3409 -1.1938 -1.2776
  447SOL    HW2 1341   1.287   1.784   1.960 -1.1500 -0.6711  2.3055
  448SOL     OW 1342   0.114   1.498   1.996 -0.4250  0.4985  0.1331
  448SOL    HW1 1343   0.116   1.601   1.968  2.0697  0.8719  1.2557
  448SOL    HW2 1344   0.074   1.478   2.093 -2.5928  1.0470 -4.0052
  449SOL     OW 1345   1.878   2.982   0.856  0.2897 -0.5644 -0.0837
  449SOL    HW1 1346   1.905   2.983   0.955  1.0622 -0.0204  1.7798
  449SOL    HW2 1347   1.904   2.889   0.814  0.2876 -2.3906 -1.2635
  450SOL     OW 1348   2.367   1.434   0.722 -0.3914 -0.4741  0.0021
  450SOL    HW1 1349   2.272   1.451   0.766  0.7111  0.0273  1.1615
  450SOL    HW2 1350   2.374   1.488   0.632 -0.2382  1.5303  2.0432
  451SOL     OW 1351   1.376   2.982   1.452 -0.2378 -0.1965  0.4869
  451SOL    HW1 1352   1.310   3.062   1.448  1.2848 -1.2359 -0.8113
  451SOL    HW2 1353   1.397   2.948   1.549  0.4274 -0.2836 -0.0815
  452SOL     OW 1354   2.698   2.300   2.168 -0.1883 -0.1749 -0.2153
  452SOL    HW1 1355   2.634   2.385   2.184  0.9030  0.2152  0.3695
  452SOL    HW2 1356   2.743   2.264   2.256  1.9959  1.3357  0.9538
  453SOL     OW 1357   2.490   2.646   0.018  0.0971  0.0201 -0.2042
  453SOL    HW1 1358   2.400   2.695   0.046  0.8356 -1.2135  0.2158
  453SOL    HW2 1359   2.482   2.587  -0.074 -2.4083 -1.1297 -0.3448
  454SOL     OW 1360   0.991   1.158   2.105  0.5135  0.0481  0.1768
  454SOL    HW1 1361   0.944   1.154   2.014  1.1671  0.8572  0.2763
  454SOL    HW2 1362   1.084   1.203   2.093 -1.0291  1.4429  0.4832
  455SOL     OW 1363   0.643   2.689   2.939 -0.4133 -0.0460 -0.2399
  455SOL    HW1 1364   0.728   2.714   2.995  1.3544  0.5775  1.6241
  455SOL    HW2 1365   0.638   2.588   2.937  0.5504  1.3845 -1.1384
  456SOL     OW 1366   0.460   1.868   0.261  0.6271  0.1806  0.6236
  456SOL    HW1 1367   0.528   1.828   0.330 -1.3333  1.4926  0.5379
  456SOL    HW2 1368   0.477   1.972   0.248 -0.1457  1.4127  2.8048
  457SOL     OW 1369   0.295   2.660   0.637 -0.3906 -0.0344  0.1915
  457SOL    HW1 1370   0.287   2.728   0.562 -2.0140 -0.4086  3.0875
  457SOL    HW2 1371   0.391   2.639   0.671 -3.3417  1.1456 -1.0748
  458SOL     OW 1372   2.937   3.054   1.235  0.2269 -0.2007 -0.4612
  458SOL    HW1 1373   2.985   3.144   1.254  1.3502 -3.4525 -1.1448
  458SOL    HW2 1374   2.954   3.017   1.140  0.5268  2.1318 -0.6108
  459SOL     OW 1375   2.178   2.575   0.796  0.5081  0.1641 -0.4205
  459SOL    HW1 1376   2.216   2.666   0.831  1.6334 -1.4043 -0.9412
  459SOL    HW2 1377   2.250   2.519   0.742  2.1300  2.6485 -3.9369
  460SOL     OW 1378   1.216   2.007   2.842 -0.8425 -0.3005  0.1696
  460SOL    HW1 1379   1.229   2.047   2.746  0.1507  2.1565 -0.0253
  460SOL    HW2 1380   1.269   1.916   2.853  0.4778 -1.3229  0.8233
  461SOL     OW 1381   0.554   2.093   2.656  0.1921 -0.3109  0.3146
  461SOL    HW1 1382   0.489   2.012   2.649 -0.6293  0.2372  2.0131
  461SOL    HW2 1383   0.594   2.104   2.747 -2.7846 -1.0306 -1.2186
  462SOL     OW 1384   0.964   1.151   1.824  0.2559 -0.3171  0.1259
  462SOL    HW1 1385   1.047   1.127   1.764  3.5354 -0.3568 -2.0323
  462SOL    HW2 1386   0.912   1.231   1.790 -2.9006  1.1156  1.5917
  463SOL     OW 1387   0.462   0.833   0.458  0.0929  0.0829 -0.0959
  463SOL    HW1 1388   0.497   0.733   0.475 -3.4230 -1.5842  1.1432
  463SOL    HW2 1389   0.360   0.830   0.463  1.3268 -1.1394  1.4620
  464SOL     OW 1390   0.616   2.291   2.236  0.0879 -0.4907  0.0222
  464SOL    HW1 1391   0.561   2.349   2.303  1.3249  1.6288 -1.5424
  464SOL    HW2 1392   0.570   2.286   2.142 -2.9564  0.8823 -0.6003
  465SOL     OW 1393   0.302   0.925   0.777 -0.0598 -0.2252 -0.3069
  465SOL    HW1 1394   0.213   0.954   0.743  2.1025 -2.4008  4.0033
  465SOL    HW2 1395   0.314   0.819   0.781  2.9439 -0.7254  2.5172
  466SOL     OW 1396   1.401   1.116   1.028 -0.3017 -0.4268  0.3969
  466SOL    HW1 1397   1.419   1.221   1.039 -0.7925 -0.8695  1.7346
  466SOL    HW2 1398   1.311   1.098   0.980  0.1634  2.3245  2.1127
  467SOL     OW 1399   0.480   0.356   2.388 -0.5864  0.5661 -0.7404
  467SOL    HW1 1400   0.426   0.446   2.375  1.0246  0.0243 -4.3219
  467SOL    HW2 1401   0.461   0.312   2.481  1.1637  0.0382 -1.3527
  468SOL     OW 1402   0.461   2.286   1.679 -0.3961 -0.2403 -0.3349
  468SOL    HW1 1403   0.532   2.343   1.728  1.0834 -1.9042  0.4998
  468SOL    HW2 1404   0.454   2.317   1.583 -1.4900  1.4993  3.8175
  469SOL     OW 1405   1.472   1.409   1.180  0.2410 -0.2836  0.2239
  469SOL    HW1 1406   1.550   1.360   1.139 -1.9188 -4.0079 -0.6801
  469SOL    HW2 1407   1.500   1.448   1.274  0.7061  0.4289  0.1593
  470SOL     OW 1408   3.016   1.682   0.728 -0.3957 -0.1986  0.8956
  470SOL    HW1 1409   3.108   1.730   0.702  2.8372 -0.2901  0.5257
  470SOL    HW2 1410   2.986   1.702   0.826 -0.3966  0.1483  0.6497
  471SOL     OW 1411   2.712   1.309   2.109 -0.4550  0.3955 -0.0949
  471SOL    HW1 1412   2.698   1.259   2.201  2.2340  1.6707  2.1024
  471SOL    HW2 1413   2.748   1.405   2.121  1.2609  1.1401 -1.2875
  472SOL     OW 1414   1.153   2.472   3.088 -0.9071  0.2428 -0.6321
  472SOL    HW1 1415   1.163   2.486   3.189  0.1236 -1.0930 -0.3140
  472SOL    HW2 1416   1.139   2.374   3.061  2.8447 -1.6169  1.7097
  473SOL     OW 1417   1.112   1.552   1.019  0.3450 -0.0054  0.1671
  473SOL    HW1 1418   1.016   1.555   0.989  2.5595  1.0349 -1.9891
  473SOL    HW2 1419   1.133   1.479   1.095  2.0034  0.9348  3.2170
  474SOL     OW 1420   0.687   1.299   0.541  0.2820  0.2845 -0.2248
  474SOL    HW1 1421   0.718   1.304   0.441  0.8759  0.8043 -0.7874
  474SOL    HW2 1422   0.722   1.211   0.586 -0.9013 -2.1464  0.1176
  475SOL     OW 1423   2.836   0.086   0.791  0.1536 -0.1220 -0.2174
  475SOL    HW1 1424   2.929   0.123   0.829  2.8392  0.5870  1.6231
  475SOL    HW2 1425   2.749   0.126   0.843 -2.1823 -0.3775  1.3252
  476SOL     OW 1426   0.975   3.024   1.819 -0.6350 -0.3483  0.8281
  476SOL    HW1 1427   1.048   2.979   1.875  1.1704 -2.3041 -2.4779
  476SOL    HW2 1428   0.989   3.018   1.717 -4.5403  1.9647 -1.0792
  477SOL     OW 1429   1.457   0.329   2.482  0.1730  0.0716 -0.1686
  477SOL    HW1 1430   1.437   0.314   2.580 -3.1119 -0.1389 -1.1720
  477SOL    HW2 1431   1.551   0.279   2.462 -0.1984 -0.2746 -1.1168
  478SOL     OW 1432   2.197   1.845   0.220  0.0098  0.5051  0.3757
  478SOL    HW1 1433   2.126   1.770   0.208 -1.0763  0.3543 -3.5538
  478SOL    HW2 1434   2.298   1.810   0.232  1.5044 -0.6043  1.7575
  479SOL     OW 1435   1.274   1.056   2.925  0.1210  0.4003  0.0285
  479SOL    HW1 1436   1.353   1.100   2.866  1.5203  0.0654 -1.5327
  479SOL    HW2 1437   1.196   1.009   2.876 -3.0276  0.2614  0.0078
  480SOL     OW 1438   2.566   2.350   0.406 -0.2425 -0.6283  0.0906
  480SOL    HW1 1439   2.528   2.255   0.426  3.6628 -0.8602 -0.4827
  480SOL    HW2 1440   2.513   2.391   0.325  0.3755  0.4421  0.3270
  481SOL     OW 1441   0.991   1.124   0.877  0.2131 -0.2126  0.3969
  481SOL    HW1 1442   0.992   1.209   0.816  0.1429  0.1547 -2.9622
  481SOL    HW2 1443   1.052   1.128   0.962  0.6154  1.4435  1.6640
  482SOL     OW 1444   1.554   0.271   2.050 -0.3973  0.3809  0.1700
  482SOL    HW1 1445   1.540   0.371   2.014 -0.3129 -0.9640  2.6111
  482SOL    HW2 1446   1.645   0.261   2.097  1.6161 -0.9733 -2.6592
  483SOL     OW 1447   0.107   2.335   1.291  0.2521  0.0438  0.2097
  483SOL    HW1 1448   0.032   2.372   1.352 -0.2068 -1.1870 -1.7453
  483SOL    HW2 1449   0.137   2.402   1.218  0.4225 -0.3746 -0.1617
  484SOL     OW 1450   1.743   1.066   1.358  0.0584 -0.1595  0.1967
  484SOL    HW1 1451   1.817   0.993   1.355  0.5003 -2.2240 -0.0551
  484SOL    HW2 1452   1.757   1.123   1.442 -0.7222 -1.8129  2.0092
  485SOL     OW 1453   0.698   1.044   1.821 -0.7322 -0.0880 -0.2176
  485SOL    HW1 1454   0.671   1.040   1.722  2.4839  0.7753 -0.1754
  485SOL    HW2 1455   0.801   1.066   1.843 -1.3425  0.4485  2.3740
  486SOL     OW 1456   0.827   1.935   2.464 -0.3765  0.1937 -0.7204
  486SOL    HW1 1457   0.907   1.905   2.526  2.6861 -1.0159 -1.8835
  486SOL    HW2 1458   0.808   2.032   2.496 -0.0791 -0.2307  0.9105
  487SOL     OW 1459   1.851   1.662   0.952  0.7370 -0.3473 -0.4354
  487SOL    HW1 1460   1.901   1.579   0.978  0.8050 -0.0800  0.3756
  487SOL    HW2 1461   1.869   1.680   0.850 -1.6142  0.2491  1.4749
  488SOL     OW 1462   2.978   0.861   2.239 -0.2856  0.1501  0.2373
  488SOL    HW1 1463   2.963   0.760   2.222  0.3725  0.3056 -1.8875
  488SOL    HW2 1464   2.992   0.877   2.341 -3.0895 -2.8854  0.3997
  489SOL     OW 1465   2.770   0.233   1.286 -0.5898 -0.5043  0.3987
  489SOL    HW1 1466   2.745   0.272   1.381 -1.9257 -0.6197  0.1520
  489SOL    HW2 1467   2.873   0.239   1.273  3.6264  0.7858  0.9297
  490SOL     OW 1468   1.479   2.974   2.792 -0.6712 -0.2839  0.8955
  490SOL    HW1 1469   1.538   2.891   2.788  1.1922  0.0101 -0.4190
  490SOL    HW2 1470   1.425   2.991   2.701  0.1854  0.7046 -1.2871
  491SOL     OW 1471   1.776   1.444   2.621  0.9225 -0.0940 -0.0968
  491SOL    HW1 1472   1.713   1.437   2.701  0.0399  1.2634 -0.2622
  491SOL    HW2 1473   1.870   1.481   2.647 -1.0860 -0.6146  0.3810
  492SOL     OW 1474   0.518   2.003   0.677 -0.2195 -0.9769  0.1975
  492SOL    HW1 1475   0.543   1.970   0.768  1.8205 -0.8457 -0.3826
  492SOL    HW2 1476   0.438   2.074   0.678 -0.5414  1.4524 -1.4481
  493SOL     OW 1477   0.388   1.407   2.029  0.0648  0.0958  0.0294
  493SOL    HW1 1478   0.298   1.454   2.008  3.5719 -0.4338 -1.2934
  493SOL    HW2 1479   0.385   1.353   2.121 -0.9873  0.3532  1.1468
  494SOL     OW 1480   2.735   2.681   0.147 -0.0546  0.1092 -0.3087
  494SOL    HW1 1481   2.699   2.627   0.231 -0.5086  1.1325  1.5143
  494SOL    HW2 1482   2.658   2.711   0.077  1.6911  0.4592 -0.6822
  495SOL     OW 1483   2.732   2.702   2.747  0.4552  0.3981  0.0111
  495SOL    HW1 1484   2.679   2.615   2.735  0.5494 -1.3874  0.9293
  495SOL    HW2 1485   2.756   2.742   2.656 -2.5343 -0.5779 -0.6168
  496SOL     OW 1486   2.080   2.262   0.707 -0.4590 -0.1433 -0.1366
  496SOL    HW1 1487   2.118   2.265   0.803 -4.0019  2.2898  0.0673
  496SOL    HW2 1488   2.093   2.165   0.664  1.8309 -0.8634 -1.1820
  497SOL     OW 1489   0.261   2.974   2.426 -0.3005 -0.2219  0.4091
  497SOL    HW1 1490   0.179   3.036   2.453  1.3929  0.6032  2.3886
  497SOL    HW2 1491   0.295   3.003   2.331  1.6401 -0.4634  1.0299
  498SOL     OW 1492   1.222   1.382   1.227  0.7360  0.6549 -0.0301
  498SOL    HW1 1493   1.325   1.399   1.219 -0.5994  3.5419 -1.4781
  498SOL    HW2 1494   1.180   1.445   1.295 -0.2782  1.2544 -2.3154
  499SOL     OW 1495   0.683   1.840   0.427  0.1207  0.2441 -0.3392
  499SOL    HW1 1496   0.720   1.755   0.476 -1.0669  2.0103  0.2383
  499SOL    HW2 1497   0.693   1.929   0.478 -1.8649  1.6352 -0.2528
  500SOL     OW 1498   1.411   2.838   1.684  0.6805  0.5504  0.1008
  500SOL    HW1 1499   1.320   2.809   1.723 -1.3804 -4.1365  3.0122
  500SOL    HW2 1500   1.478   2.761   1.692 -0.2670 -0.4888  0.6478
  501SOL     OW 1501   0.805   1.135   2.314  0.1955 -0.3052  0.3012
  501SOL    HW1 1502   0.718   1.086   2.293  2.2883  0.7354 -1.2583
  501SOL    HW2 1503   0.872   1.126   2.231  2.9664 -0.6592 -2.4068
  502SOL     OW 1504   2.582   0.967   1.736  0.0597 -0.5187 -0.3409
  502SOL    HW1 1505   2.565   0.993   1.639 -0.9945  0.3820  1.8754
  502SOL    HW2 1506   2.557   0.866   1.758  1.8086 -2.2017 -0.1877
  503SOL     OW 1507   1.320   0.101   0.679 -0.3759 -0.2771 -0.6607
  503SOL    HW1 1508   1.263   0.186   0.704 -0.1154  0.7853  1.4349
  503SOL    HW2 1509   1.418   0.119   0.705  1.3584 -1.3378 -0.1597
  504SOL     OW 1510   3.007   2.316   1.464  0.2669  0.2565  0.5914
  504SOL    HW1 1511   2.920   2.369   1.502 -2.5933 -0.7421 -1.4219
  504SOL    HW2 1512   3.077   2.304   1.538  0.8268  0.1930 -1.4928
  505SOL     OW 1513   2.310   1.156   1.439 -0.1340 -0.7478  0.6257
  505SOL    HW1 1514   2.303   1.178   1.340 -1.5839  3.5473 -2.0276
  505SOL    HW2 1515   2.374   1.223   1.488 -1.1233 -0.6890  1.5477
  506SOL     OW 1516   1.980   0.153   1.828 -0.3405 -0.0474 -0.2047
  506SOL    HW1 1517   2.037   0.076   1.859  2.9298 -0.1711  0.1945
  506SOL    HW2 1518   1.976   0.232   1.892 -2.7585  0.9858  0.8558
  507SOL     OW 1519   0.534   0.688   2.145 -0.0982  0.6082  0.1085
  507SOL    HW1 1520   0.463   0.632   2.088 -3.0190 -0.8556 -3.4410
  507SOL    HW2 1521   0.605   0.617   2.189  0.1935  0.9159  0.7809
  508SOL     OW 1522   0.290   1.641   0.804  0.0227  0.3841  0.3778
  508SOL    HW1 1523   0.375   1.681   0.755  0.1133 -1.0974  1.0465
  508SOL    HW2 1524   0.248   1.705   0.873 -1.2869 -1.7119  0.3539
  509SOL     OW 1525   1.220   1.266   2.353  0.1018 -0.2895  0.0237
  509SOL    HW1 1526   1.214   1.267   2.247 -3.1362  0.8853 -2.2263
  509SOL    HW2 1527   1.141   1.229   2.391  0.1934 -0.7575 -1.8725
  510SOL     OW 1528   1.271   2.005   2.153  0.1346 -0.8377 -0.7618
  510SOL    HW1 1529   1.261   2.099   2.103 -0.3000  2.9117 -0.5022
  510SOL    HW2 1530   1.185   1.975   2.200  0.4559  0.4039 -0.4322
  511SOL     OW 1531   3.054   2.763   1.326 -0.3826  0.0811 -0.0093
  511SOL    HW1 1532   3.009   2.751   1.237  0.8778  3.0924  1.5392
  511SOL    HW2 1533   2.985   2.773   1.401  1.6028  0.5839 -2.5046
  512SOL     OW 1534   2.411   0.407   1.381  0.0352  0.7292 -0.0834
  512SOL    HW1 1535   2.307   0.397   1.381  1.5312  0.5960 -2.2424
  512SOL    HW2 1536   2.448   0.345   1.313 -0.0559  3.4599  3.1941
  513SOL     OW 1537   2.556   2.043   0.860 -0.5361 -0.1563 -0.1995
  513SOL    HW1 1538   2.508   2.113   0.797 -1.8810 -1.0194 -2.3163
  513SOL    HW2 1539   2.626   1.980   0.812 -1.1675  3.0906  0.4197
  514SOL     OW 1540   0.612   2.741   0.434 -0.0753 -0.0786  0.4946
  514SOL    HW1 1541   0.597   2.803   0.352 -2.2581  0.4274  1.8649
  514SOL    HW2 1542   0.691   2.769   0.499  0.8805 -1.2790  0.6423
  515SOL     OW 1543   1.981   1.189   2.353 -0.5986 -0.6499 -0.4130
  515SOL    HW1 1544   1.986   1.157   2.251  6.5382  1.5424  0.5240
  515SOL    HW2 1545   1.891   1.201   2.403  1.5471 -3.7057  1.3742
  516SOL     OW 1546   0.230   0.286   1.864  0.0463  0.1189  0.2367
  516SOL    HW1 1547   0.324   0.248   1.853  1.0250 -0.1293 -1.9539
  516SOL    HW2 1548   0.156   0.215   1.875  1.4966  3.1588 -0.9371
  517SOL     OW 1549   0.426   0.012   1.152  0.2349  0.3241  0.6132
  517SOL    HW1 1550   0.437   0.111   1.172  2.3317  0.2685  1.2492
  517SOL    HW2 1551   0.332  -0.032   1.150 -0.1173 -0.0546  1.9063
  518SOL     OW 1552   2.178   3.067   1.829  0.4772 -0.0878 -0.1374
  518SOL    HW1 1553   2.230   3.157   1.843  0.1462  0.9574 -1.0449
  518SOL    HW2 1554   2.206   3.031   1.736  1.0262 -1.6536 -0.7518
  519SOL     OW 1555   2.332   2.162   2.544  0.2033  0.2116  0.6090
  519SOL    HW1 1556   2.269   2.130   2.623 -2.0288  1.0381 -0.1493
  519SOL    HW2 1557   2.292   2.248   2.498 -1.0225  1.9348 -0.2740
  520SOL     OW 1558   1.830   2.770   1.793 -0.3076 -0.1603  0.0831
  520SOL    HW1 1559   1.732   2.778   1.823  0.2815  0.9254  0.3007
  520SOL    HW2 1560   1.851   2.679   1.745  0.4366 -1.9679 -1.7948
  521SOL     OW 1561   0.570   3.072   2.069  0.2440 -0.0559 -0.1848
  521SOL    HW1 1562   0.472   3.096   2.067 -0.4878 -0.4289  2.3950
  521SOL    HW2 1563   0.599   3.067   2.170  0.1102  0.5973 -0.1505
  522SOL     OW 1564   0.226   1.877   1.469 -0.4586  0.5671 -0.1203
  522SOL    HW1 1565   0.281   1.929   1.542 -0.3809 -0.8252  0.1156
  522SOL    HW2 1566   0.187   1.940   1.396 -2.5448 -0.2693 -0.6458
  523SOL     OW 1567   2.252   2.986   1.573  0.1116  0.6288  0.0097
  523SOL    HW1 1568   2.338   2.922   1.572  1.9527 -0.5758  0.5726
  523SOL    HW2 1569   2.173   2.944   1.514 -2.2230  0.6946 -1.1970
  524SOL     OW 1570   0.183   2.794   2.813 -0.7418 -0.2921  0.6077
  524SOL    HW1 1571   0.138   2.885   2.843 -1.4881  1.6376 -0.9059
  524SOL    HW2 1572   0.284   2.801   2.782  2.7111 -1.0555  1.4770
  525SOL     OW 1573   2.161   2.042   0.422 -0.2985 -0.4204  0.1383
  525SOL    HW1 1574   2.186   1.967   0.488  1.3718  1.0148  2.2090
  525SOL    HW2 1575   2.159   2.003   0.326  1.2234  1.9003  0.4146
  526SOL     OW 1576   0.448   1.552   1.654  0.0752  0.0326 -0.1898
  526SOL    HW1 1577   0.483   1.573   1.752 -0.0683  1.4349  0.2970
  526SOL    HW2 1578   0.491   1.470   1.607 -0.6272  0.7053 -0.9923
  527SOL     OW 1579   1.033   2.906   1.229 -0.1651  0.6153 -0.1692
  527SOL    HW1 1580   1.118   2.848   1.224 -0.3008  1.4563  1.2628
  527SOL    HW2 1581   1.052   3.006   1.211  0.5607 -1.8223 -1.0808
  528SOL     OW 1582   1.355   2.420   0.521 -0.2551  0.1729  0.4625
  528SOL    HW1 1583   1.384   2.321   0.531 -0.7760  1.0422  2.4285
  528SOL    HW2 1584   1.411   2.489   0.580 -1.0095  1.6617 -0.7183
  529SOL     OW 1585   1.969   1.742   0.690 -0.3881 -0.4993 -0.7365
  529SOL    HW1 1586   1.929   1.763   0.597  0.7142  1.3562  0.4803
  529SOL    HW2 1587   2.002   1.827   0.748  0.0665 -0.1797 -1.4884
  530SOL     OW 1588   0.335   2.609   0.260 -0.0600  0.5496  0.0423
  530SOL    HW1 1589   0.351   2.689   0.325  0.2263  1.1480 -2.3371
  530SOL    HW2 1590   0.354   2.511   0.304 -2.7946 -2.3764  2.1415
  531SOL     OW 1591   1.851   0.975   0.957 -0.0332 -0.0733 -0.6495
  531SOL    HW1 1592   1.894   1.032   0.883 -0.6040 -0.2559 -1.2577
  531SOL    HW2 1593   1.753   0.951   0.938  3.2687  0.1159 -1.7248
  532SOL     OW 1594   0.384   1.198   0.717  0.4812  0.2258 -0.0584
  532SOL    HW1 1595   0.427   1.218   0.625  0.1140 -1.1359 -2.1381
  532SOL    HW2 1596   0.355   1.095   0.730  2.1934 -3.9189 -1.0483
  533SOL     OW 1597   1.733   0.027   2.593  0.4603  0.2050  0.5237
  533SOL    HW1 1598   1.836   0.024   2.597 -2.0287  0.0709  0.8019
  533SOL    HW2 1599   1.689   0.088   2.662 -0.8433 -0.2947 -3.4291
  534SOL     OW 1600   0.369   0.189   1.625  0.5387  0.2785  0.0362
  534SOL    HW1 1601   0.472   0.201   1.600  2.3500 -1.5913 -2.5007
  534SOL    HW2 1602   0.320   0.285   1.635  0.4338  2.8471 -0.6278
  535SOL     OW 1603   1.933   0.377   0.185  0.3688 -0.8971 -0.0100
  535SOL    HW1 1604   1.961   0.453   0.251  1.2113  0.5968 -2.6321
  535SOL    HW2 1605   1.940   0.283   0.229  0.8763  2.6567 -1.0785
  536SOL     OW 1606   1.411   2.543   0.954 -0.6651  0.5080 -0.3413
  536SOL    HW1 1607   1.397   2.531   1.057 -0.5749 -1.6152 -2.3207
  536SOL    HW2 1608   1.321   2.584   0.911 -0.8769  0.1049 -0.4743
  537SOL     OW 1609   0.826   0.202   2.348  0.1260  0.4853  0.4943
  537SOL    HW1 1610   0.797   0.223   2.251 -2.6892 -2.1928 -0.5490
  537SOL    HW2 1611   0.787   0.111   2.379  0.0514 -0.4293  0.2955
  538SOL     OW 1612   1.678   2.354   1.523 -0.3826  0.2316  0.3288
  538SOL    HW1 1613   1.643   2.256   1.518  1.8657 -0.5669 -2.6963
  538SOL    HW2 1614   1.753   2.374   1.457 -0.2115 -1.9664  1.7882
  539SOL     OW 1615   0.215   1.595   2.730  0.2615  0.5033  0.1284
  539SOL    HW1 1616   0.138   1.603   2.661 -0.6083 -0.2702 -0.1841
  539SOL    HW2 1617   0.208   1.665   2.809 -1.5050 -0.9104  2.0808
  540SOL     OW 1618   2.713   1.663   1.939  0.0547  0.3357 -1.0076
  540SOL    HW1 1619   2.734   1.587   2.008 -2.9246 -1.5845 -0.4677
  540SOL    HW2 1620   2.616   1.693   1.932 -0.0257 -0.6333  1.6001
  541SOL     OW 1621   0.460   2.250   0.002  0.6486 -0.6238  0.0767
  541SOL    HW1 1622   0.503   2.208   0.084 -1.0979  0.4523 -0.0931
  541SOL    HW2 1623   0.357   2.233  -0.011  2.9689 -0.7942  1.6234
  542SOL     OW 1624   2.273   2.565   0.431 -0.2410  0.2873  0.3643
  542SOL    HW1 1625   2.290   2.664   0.452 -1.9567  0.0838  1.4130
  542SOL    HW2 1626   2.173   2.544   0.443  0.2104  0.8898 -2.6430
  543SOL     OW 1627   1.062   1.831   1.582  0.1785  0.4502 -1.2581
  543SOL    HW1 1628   1.040   1.864   1.678 -1.1545 -0.9214 -0.8125
  543SOL    HW2 1629   1.024   1.891   1.507  0.4308 -1.3867  1.7302
  544SOL     OW 1630   1.011   0.394   0.187 -0.3814 -0.2184 -0.5104
  544SOL    HW1 1631   1.052   0.321   0.251  1.0360  3.1377 -0.2229
  544SOL    HW2 1632   0.973   0.366   0.094 -1.8902  2.9370  0.3198
  545SOL     OW 1633   1.124   1.773   0.789 -0.0594 -1.0196 -0.0949
  545SOL    HW1 1634   1.228   1.791   0.783  2.4439  1.4438  0.0498
  545SOL    HW2 1635   1.098   1.739   0.885  1.1418 -1.9109  1.4508
  546SOL     OW 1636   2.676   1.493   3.087  0.3578  0.0721 -1.1163
  546SOL    HW1 1637   2.626   1.548   3.018 -1.5902  0.6827  1.5121
  546SOL    HW2 1638   2.621   1.464   3.173 -1.7322 -1.7597  0.2749
  547SOL     OW 1639   0.599   3.063   2.665  0.3009 -0.4053 -0.6450
  547SOL    HW1 1640   0.690   3.005   2.661  3.8833 -2.5344  0.8582
  547SOL    HW2 1641   0.519   3.004   2.707  0.1120  0.3793  1.5195
  548SOL     OW 1642   2.095   0.873   2.994  0.2195  0.4218  0.3265
  548SOL    HW1 1643   2.006   0.836   3.026  3.9432  2.4921 -1.3466
  548SOL    HW2 1644   2.110   0.971   3.023 -0.6268  1.2700 -1.0709
  549SOL     OW 1645   0.692   0.510   0.211 -0.3292 -0.3614  0.0385
  549SOL    HW1 1646   0.664   0.533   0.111 -0.0105 -3.9435 -0.3188
  549SOL    HW2 1647   0.766   0.575   0.253  3.3818  2.3816  3.0935
  550SOL     OW 1648   2.519   2.828   2.883  1.0646 -0.2763 -0.4154
  550SOL    HW1 1649   2.482   2.760   2.951 -1.3539  1.5171  0.3032
  550SOL    HW2 1650   2.595   2.794   2.824 -1.4878  3.0432 -0.1817
  551SOL     OW 1651   0.267   0.906   0.224 -0.8119 -0.6366 -0.0292
  551SOL    HW1 1652   0.360   0.867   0.196  0.7800  0.9324  0.8165
  551SOL    HW2 1653   0.252   0.917   0.325  0.4632  1.8800 -1.4340
  552SOL     OW 1654   0.706   2.973   1.872  0.2852 -0.1088  0.6477
  552SOL    HW1 1655   0.658   3.001   1.959 -0.5169  0.3758  2.2957
  552SOL    HW2 1656   0.810   2.997   1.869  2.7947  0.3913  1.2461
  553SOL     OW 1657   2.984   2.527   0.344 -0.0052 -0.0838  0.1423
  553SOL    HW1 1658   2.929   2.447   0.318 -1.4141  0.1780  0.1357
  553SOL    HW2 1659   2.937   2.592   0.413 -0.9756  1.6893  1.8790
  554SOL     OW 1660   2.160   0.370   0.584  0.5415  0.0111 -0.7333
  554SOL    HW1 1661   2.228   0.383   0.508 -3.5007  2.0587 -1.1416
  554SOL    HW2 1662   2.180   0.289   0.644  3.1707  2.0776  1.0645
  555SOL     OW 1663   0.369   2.753   2.518  0.2737 -0.6441 -0.2237
  555SOL    HW1 1664   0.317   2.840   2.502 -0.2510  1.5966 -0.1970
  555SOL    HW2 1665   0.414   2.724   2.428 -1.3825 -2.3229  0.4278
  556SOL     OW 1666   0.818   2.403   1.499  0.1592  0.3211 -0.4383
  556SOL    HW1 1667   0.879   2.441   1.572  2.6523 -0.6123 -0.2907
  556SOL    HW2 1668   0.867   2.352   1.420  0.5931  0.5317  0.9571
  557SOL     OW 1669   0.063   2.058   0.192 -0.0817  0.4237  0.1341
  557SOL    HW1 1670   0.012   1.974   0.160  1.2328 -0.3970  3.3922
  557SOL    HW2 1671   0.124   2.106   0.124 -1.0248 -0.2341 -0.5069
  558SOL     OW 1672   2.870   2.276   0.301 -1.1034 -0.0701  0.4164
  558SOL    HW1 1673   2.768   2.276   0.317 -1.9649 -0.5796 -1.6126
  558SOL    HW2 1674   2.900   2.179   0.286  0.1753  1.4053  0.6404
  559SOL     OW 1675   0.383   2.293   1.390 -0.2276  0.0719 -0.0385
  559SOL    HW1 1676   0.290   2.317   1.359 -0.0987 -3.2840 -1.9070
  559SOL    HW2 1677   0.435   2.213   1.341  0.2326 -2.0623 -0.3850
  560SOL     OW 1678   2.093   1.129   3.058  0.0060 -0.1591 -0.2257
  560SOL    HW1 1679   2.055   1.166   3.148 -0.2725 -0.4160 -0.2138
  560SOL    HW2 1680   2.131   1.204   2.998  0.4900 -1.9194 -0.8443
  561SOL     OW 1681   3.070   1.861   0.024  0.5505 -0.1203 -0.2616
  561SOL    HW1 1682   3.021   1.814   0.099  0.9306  1.4396  0.8251
  561SOL    HW2 1683   3.015   1.943  -0.004  0.5254 -1.4944 -1.9709
  562SOL     OW 1684   0.986   2.251   2.322 -0.2310 -0.4260 -0.0556
  562SOL    HW1 1685   0.908   2.219   2.375  3.1805  2.7248  1.0461
  562SOL    HW2 1686   1.038   2.328   2.375 -2.6738 -2.2058  0.2150
  563SOL     OW 1687   0.711   2.581   2.615  0.3787 -0.2286  0.3534
  563SOL    HW1 1688   0.801   2.530   2.592  1.9486  0.9081  0.8518
  563SOL    HW2 1689   0.700   2.594   2.718 -1.3171  0.0068 -1.9434
  564SOL     OW 1690   2.854   1.324   2.907  0.7077  0.4000 -0.2128
  564SOL    HW1 1691   2.782   1.357   2.977  0.7298 -0.1377 -1.1459
  564SOL    HW2 1692   2.877   1.389   2.831 -0.3379 -0.0969 -0.0956
  565SOL     OW 1693   2.536   1.982   2.640 -0.1287  0.6935 -0.0977
  565SOL    HW1 1694   2.467   2.046   2.594 -0.1046  4.5552 -0.1056
  565SOL    HW2 1695   2.617   2.033   2.683  0.6485  1.5108 -0.9697
  566SOL     OW 1696   2.074   2.822   1.387  0.0924 -0.0448  0.6204
  566SOL    HW1 1697   2.012   2.739   1.396 -0.2128  1.5432 -0.4526
  566SOL    HW2 1698   2.037   2.885   1.308 -0.7337  1.7624 -0.6046
  567SOL     OW 1699   2.434   0.004   2.360 -0.9104 -0.9561 -0.0832
  567SOL    HW1 1700   2.329  -0.004   2.351 -1.4453 -2.4869 -0.7430
  567SOL    HW2 1701   2.469   0.018   2.266 -0.3041 -0.1941  0.8362
  568SOL     OW 1702   1.506   1.769   0.255  0.0420 -0.4676 -0.7286
  568SOL    HW1 1703   1.434   1.843   0.255 -0.5473 -0.5034  1.3834
  568SOL    HW2 1704   1.603   1.797   0.232  0.0888  0.8852  3.0426
  569SOL     OW 1705   0.273   0.659   0.816  0.4995 -0.8957  0.6925
  569SOL    HW1 1706   0.332   0.583   0.783 -3.1243  0.6681  0.4951
  569SOL    HW2 1707   0.174   0.636   0.838  1.0785  1.2244 -0.3668
  570SOL     OW 1708   0.603   0.888   2.919  0.2647 -0.3081  0.0646
  570SOL    HW1 1709   0.644   0.935   2.843 -2.1586 -0.5085  0.5693
  570SOL    HW2 1710   0.640   0.920   3.008 -0.7631 -0.6484  0.0368
  571SOL     OW 1711   0.783   0.016   1.010  0.1529 -0.2249  0.3822
  571SOL    HW1 1712   0.860   0.047   0.943  0.4606  3.5007 -0.8850
  571SOL    HW2 1713   0.698  -0.022   0.958  2.2275 -0.7711 -2.0592
  572SOL     OW 1714   1.614   2.583   1.318 -0.1386  0.2166  0.1808
  572SOL    HW1 1715   1.523   2.550   1.273 -0.3696 -0.5694  0.6792
  572SOL    HW2 1716   1.617   2.682   1.339  0.7121 -2.4979 -2.5240
  573SOL     OW 1717   2.874   0.524   2.012  0.4330  0.3059 -0.1032
  573SOL    HW1 1718   2.796   0.455   2.024  0.5653  0.1393 -0.8432
  573SOL    HW2 1719   2.888   0.551   1.918  0.2893 -0.7083 -0.1116
  574SOL     OW 1720   0.163   1.739   1.062  0.3639 -0.0643  0.7143
  574SOL    HW1 1721   0.146   1.839   1.041  1.7166  1.5815 -1.6127
  574SOL    HW2 1722   0.074   1.694   1.103 -1.0071 -0.9924  1.3171
  575SOL     OW 1723   0.865   2.153   0.918 -0.1061 -0.0082 -0.2781
  575SOL    HW1 1724   0.844   2.206   1.007 -1.3145 -1.0184  1.8066
  575SOL    HW2 1725   0.916   2.209   0.844 -0.5611 -1.3530 -0.6451
  576SOL     OW 1726   2.915   3.031   1.720 -0.9282 -0.0331 -0.5890
  576SOL    HW1 1727   2.819   2.992   1.712  0.3392 -2.1988 -0.3982
  576SOL    HW2 1728   2.919   3.125   1.678 -0.4308 -0.7294 -1.5744
  577SOL     OW 1729   2.467   1.248   0.011 -0.0435 -0.3667 -0.1367
  577SOL    HW1 1730   2.488   1.184  -0.070 -1.5113  0.2478 -0.0774
  577SOL    HW2 1731   2.552   1.239   0.074 -1.3858 -1.0941 -0.6069
  578SOL     OW 1732   1.388   2.736   2.425  0.2756 -0.4805 -0.1980
  578SOL    HW1 1733   1.303   2.788   2.449  2.5429 -0.2819 -0.0249
  578SOL    HW2 1734   1.475   2.795   2.435 -1.4513 -0.4001  1.4527
  579SOL     OW 1735   0.076   2.505   0.146 -0.6130 -0.1579  0.4787
  579SOL    HW1 1736   0.002   2.501   0.220  1.4219  0.0858  1.4911
  579SOL    HW2 1737   0.171   2.530   0.183  1.9264 -2.4220 -2.7277
  580SOL     OW 1738   0.987   2.694   0.394  0.4932 -0.0260 -0.4332
  580SOL    HW1 1739   1.061   2.677   0.327 -0.5104 -2.0971 -0.9175
  580SOL    HW2 1740   0.904   2.627   0.376  0.8269 -0.0178 -0.8714
  581SOL     OW 1741   1.241   2.652   1.459  0.0172  0.2694 -0.1028
  581SOL    HW1 1742   1.307   2.576   1.492 -2.2304 -0.7308  0.3820
  581SOL    HW2 1743   1.285   2.709   1.388 -2.9922 -0.3071  1.4320
  582SOL     OW 1744   1.510   0.077   1.850 -0.1008  0.0035 -0.2862
  582SOL    HW1 1745   1.536   0.139   1.931  0.1955 -1.7869  2.0148
  582SOL    HW2 1746   1.590   0.042   1.791  0.1179 -2.3449  0.1282
  583SOL     OW 1747   2.463   3.059   0.560 -0.1903  0.1182  0.1630
  583SOL    HW1 1748   2.522   3.002   0.502 -0.5717 -0.7245 -0.1288
  583SOL    HW2 1749   2.377   3.018   0.603  0.1342 -0.1001 -4.2534
  584SOL     OW 1750   1.561   0.993   2.137 -0.4468  1.1428  0.3593
  584SOL    HW1 1751   1.628   1.014   2.058  0.3829  3.7252  0.4260
  584SOL    HW2 1752   1.597   0.931   2.211  0.8976  2.7121 -3.2718
  585SOL     OW 1753   2.137   2.673   2.925  0.6573 -0.3911  0.1686
  585SOL    HW1 1754   2.123   2.578   2.893  0.6419  1.8179  1.9006
  585SOL    HW2 1755   2.053   2.718   2.970 -0.8598  1.6581  1.1232
  586SOL     OW 1756   2.826   0.375   1.586  0.0035 -0.1926  0.6220
  586SOL    HW1 1757   2.806   0.467   1.636  0.1157  2.2108  2.6150
  586SOL    HW2 1758   2.755   0.295   1.600 -1.2183  0.0358 -0.0428
  587SOL     OW 1759   2.047   1.558   2.627  0.4654  0.3472 -0.6411
  587SOL    HW1 1760   2.096   1.488   2.568  3.7770 -1.3431  0.1713
  587SOL    HW2 1761   2.079   1.544   2.724  2.5456 -0.7824 -0.8632
  588SOL     OW 1762   0.472   2.684   2.260  0.3501 -0.2950 -0.3043
  588SOL    HW1 1763   0.374   2.684   2.224 -0.2225  1.6464 -2.3355
  588SOL    HW2 1764   0.506   2.595   2.300 -0.8645  0.8792  1.8573
  589SOL     OW 1765   2.165   1.352   2.494 -0.2268 -0.1847 -0.2265
  589SOL    HW1 1766   2.102   1.289   2.437  2.1749 -1.8124  0.2015
  589SOL    HW2 1767   2.264   1.322   2.498  1.0690  0.2501 -3.1870
  590SOL     OW 1768   2.350   1.674   2.054  0.0842  0.2849 -0.5679
  590SOL    HW1 1769   2.392   1.580   2.052 -0.8111  0.2809 -1.1727
  590SOL    HW2 1770   2.364   1.739   2.134  0.1741 -0.6161  1.0341
  591SOL     OW 1771   1.305   2.383   0.253 -0.0427  0.2128 -0.7258
  591SOL    HW1 1772   1.317   2.286   0.225  0.2481 -0.9595 -1.9499
  591SOL    HW2 1773   1.357   2.406   0.342  0.7239  0.4195 -0.4258
  592SOL     OW 1774   1.782   2.271   0.752  0.2351  0.0195  0.1799
  592SOL    HW1 1775   1.755   2.288   0.653 -0.2901 -0.5367 -1.2711
  592SOL    HW2 1776   1.882   2.293   0.767 -1.6512 -0.7450 -0.6598
  593SOL     OW 1777   0.700   0.240   0.239 -0.1926  0.0362  0.1083
  593SOL    HW1 1778   0.759   0.195   0.167  0.6791  3.2387  0.0224
  593SOL    HW2 1779   0.699   0.344   0.231 -0.9634 -2.8448 -0.7718
  594SOL     OW 1780   0.990   1.873   2.677  1.1025 -0.6138  0.2549
  594SOL    HW1 1781   1.086   1.838   2.678 -3.1074 -0.6627 -0.6341
  594SOL    HW2 1782   0.971   1.952   2.742 -0.2458 -0.4906 -0.5063
  595SOL     OW 1783   1.540   0.013   1.082 -0.2828 -0.5068 -0.0381
  595SOL    HW1 1784   1.588  -0.064   1.031 -0.3117  0.4083  0.4890
  595SOL    HW2 1785   1.439   0.008   1.073  0.2472  0.3586 -0.5373
  596SOL     OW 1786   0.016   1.444   2.242  0.7935  0.2874  0.1146
  596SOL    HW1 1787  -0.035   1.353   2.237  0.8349  0.0459 -3.0560
  596SOL    HW2 1788   0.034   1.484   2.338  0.8699  1.4738 -0.1364
  597SOL     OW 1789   1.962   2.550   1.710 -0.9160  0.1371  0.2672
  597SOL    HW1 1790   1.996   2.514   1.622 -1.2402 -1.0673  1.8387
  597SOL    HW2 1791   2.044   2.537   1.774  0.4560 -1.2297  0.0539
  598SOL     OW 1792   2.546   2.952   1.193  0.4955  0.1656 -0.3069
  598SOL    HW1 1793   2.607   2.955   1.277 -1.8844 -0.2306  1.9545
  598SOL    HW2 1794   2.603   2.949   1.106 -0.1001  0.4805  0.5950
  599SOL     OW 1795   2.899   0.320   2.500 -0.5455 -0.0937  0.3516
  599SOL    HW1 1796   3.000   0.319   2.481 -2.2716  1.4299 -0.3959
  599SOL    HW2 1797   2.856   0.396   2.446  0.9047 -1.3472 -2.3845
  600SOL     OW 1798   2.827   1.072   2.746 -0.4600  0.6390  0.1315
  600SOL    HW1 1799   2.809   0.981   2.791 -0.1420  0.3807 -2.1816
  600SOL    HW2 1800   2.833   1.154   2.809 -1.6299  2.0713 -0.3803
  601SOL     OW 1801   2.978   1.334   1.975  0.1869  0.0587 -0.1366
  601SOL    HW1 1802   2.903   1.386   1.923  2.1518 -0.7038 -1.5326
  601SOL    HW2 1803   3.067   1.363   1.939 -0.3806  0.5390  3.5673
  602SOL     OW 1804   1.444   1.729   2.324 -1.1959  0.4415 -0.2422
  602SOL    HW1 1805   1.362   1.663   2.322 -1.6000 -0.8480  0.0607
  602SOL    HW2 1806   1.536   1.681   2.347 -0.5848 -0.5342 -1.6571
  603SOL     OW 1807   0.588   1.232   2.760  0.4123  0.0479  0.1662
  603SOL    HW1 1808   0.494   1.208   2.724 -1.9111  0.7447  2.2049
  603SOL    HW2 1809   0.665   1.177   2.722  0.2187  1.2832 -0.8300
  604SOL     OW 1810   2.370   0.992   0.161 -0.1145 -0.0581 -0.4055
  604SOL    HW1 1811   2.387   1.065   0.094  1.9121 -2.6895  2.7646
  604SOL    HW2 1812   2.392   0.901   0.115 -1.0232  0.6302 -0.5819
  605SOL     OW 1813   2.545   1.159   1.958 -0.1540  0.4669 -0.0438
  605SOL    HW1 1814   2.564   1.065   1.922  0.8829  0.5083 -1.1385
  605SOL    HW2 1815   2.627   1.200   2.017  0.9235 -1.2253  1.5453
  606SOL     OW 1816   1.530   2.532   2.551  0.0079  0.0001  0.6337
  606SOL    HW1 1817   1.486   2.607   2.491 -1.0019  0.1081 -1.9114
  606SOL    HW2 1818   1.491   2.443   2.519  0.9440  0.7975 -1.3666
  607SOL     OW 1819   1.312   1.587   0.347  0.1810  0.4819  0.2395
  607SOL    HW1 1820   1.243   1.655   0.384 -0.4680 -0.2360 -2.1572
  607SOL    HW2 1821   1.386   1.639   0.303 -0.1191  1.6065 -0.2550
  608SOL     OW 1822   1.405   2.829   0.380  0.3408 -0.5634  0.5303
  608SOL    HW1 1823   1.484   2.865   0.324  1.3679 -0.4755  1.6880
  608SOL    HW2 1824   1.354   2.901   0.433  0.5513 -0.2085 -1.6916
  609SOL     OW 1825   1.272   1.344   0.216  0.1695 -0.5322  0.6922
  609SOL    HW1 1826   1.269   1.436   0.268 -2.8269  3.0238  3.8212
  609SOL    HW2 1827   1.224   1.354   0.126  1.2153  0.0615  1.1393
  610SOL     OW 1828   2.969   1.169   2.246 -0.3509  0.0516  0.1754
  610SOL    HW1 1829   3.004   1.072   2.230 -0.1497 -0.7131  0.3425
  610SOL    HW2 1830   2.909   1.201   2.169 -0.2851  0.3760 -0.5756
  611SOL     OW 1831   2.521   0.285   1.170  0.2244 -0.2314  0.0834
  611SOL    HW1 1832   2.463   0.199   1.182 -0.2991  0.0040  1.6580
  611SOL    HW2 1833   2.619   0.270   1.207  0.6465 -0.1336 -0.3314
  612SOL     OW 1834   0.764   2.270   1.172 -0.0069 -0.2881 -0.1515
  612SOL    HW1 1835   0.701   2.187   1.169  2.8421  0.6878  3.6215
  612SOL    HW2 1836   0.715   2.364   1.169  0.1158  2.2208  0.8464
  613SOL     OW 1837   0.852   1.404   2.445 -0.2770  0.1823 -0.1549
  613SOL    HW1 1838   0.805   1.465   2.374 -1.7175  0.9511 -1.2622
  613SOL    HW2 1839   0.856   1.307   2.415  1.5383 -0.6863  0.4490
  614SOL     OW 1840   1.565   1.673   1.959  0.0238  0.8106  0.2448
  614SOL    HW1 1841   1.492   1.742   1.938  0.9070  0.2296  0.0197
  614SOL    HW2 1842   1.641   1.706   2.017  0.5281  0.5338 -3.1195
  615SOL     OW 1843   0.799   1.345   1.705  0.1488 -0.2304 -0.2441
  615SOL    HW1 1844   0.717   1.305   1.652 -4.1264  2.5445 -4.1100
  615SOL    HW2 1845   0.842   1.425   1.656  2.1072 -1.8629 -2.3293
  616SOL     OW 1846   1.013   1.597   2.152  0.3816 -0.0786 -0.1683
  616SOL    HW1 1847   0.918   1.575   2.183  3.4424  0.2421 -1.4782
  616SOL    HW2 1848   1.019   1.647   2.064 -0.3231 -1.6670  1.1254
  617SOL     OW 1849   2.969   1.551   1.621  0.0134  0.4190 -0.3263
  617SOL    HW1 1850   2.921   1.493   1.689  1.1135 -0.2961 -2.8207
  617SOL    HW2 1851   2.980   1.494   1.529  1.8416 -0.2189 -0.6478
  618SOL     OW 1852   1.900   1.988   1.489 -0.7589  0.0129 -0.9111
  618SOL    HW1 1853   1.982   1.983   1.429 -1.5739 -0.8034  0.5325
  618SOL    HW2 1854   1.860   1.896   1.505 -2.9329  0.6070  1.0894
  619SOL     OW 1855   1.758   0.497   2.396  0.4932  0.1235 -0.0238
  619SOL    HW1 1856   1.672   0.527   2.342  1.5454 -0.3245 -1.8320
  619SOL    HW2 1857   1.740   0.398   2.426  0.7256 -0.4195  0.2822
  620SOL     OW 1858   2.225   2.982   0.661 -0.0792 -0.2526  0.4619
  620SOL    HW1 1859   2.177   3.065   0.692 -0.0577  2.0680 -1.5658
  620SOL    HW2 1860   2.243   2.915   0.742 -2.6385  0.7199 -1.1742
  621SOL     OW 1861   2.150   1.872   1.323 -0.7517 -0.0666 -0.2730
  621SOL    HW1 1862   2.165   1.857   1.422 -1.5719 -0.2235  1.4150
  621SOL    HW2 1863   2.086   1.803   1.281  2.2050 -1.1184  2.7214
  622SOL     OW 1864   2.241   0.915   1.802  0.1321 -0.1700 -0.2446
  622SOL    HW1 1865   2.325   0.900   1.746  1.7027 -3.0066  1.5098
  622SOL    HW2 1866   2.233   0.840   1.873  0.2706 -1.8898 -0.4507
  623SOL     OW 1867   1.350   0.811   2.658  0.5035 -0.2402 -0.0945
  623SOL    HW1 1868   1.285   0.760   2.725  0.4829 -1.4155  1.9557
  623SOL    HW2 1869   1.302   0.855   2.576  2.4672  0.5636 -0.2760
  624SOL     OW 1870   0.592   0.636   0.002  0.0395  0.3296  0.3826
  624SOL    HW1 1871   0.604   0.689  -0.090 -1.4275  0.3184 -0.2772
  624SOL    HW2 1872   0.566   0.703   0.075 -0.4133  0.9968 -2.5489
  625SOL     OW 1873   2.879   1.752   0.970 -0.1203  0.1730 -0.2266
  625SOL    HW1 1874   2.774   1.753   0.974 -0.7500 -0.9939 -2.1043
  625SOL    HW2 1875   2.926   1.826   1.026 -2.2350  1.6813 -3.2551
  626SOL     OW 1876   0.610   2.709   1.843 -0.1675 -0.3507  0.2109
  626SOL    HW1 1877   0.631   2.811   1.855  1.2682 -0.8181 -0.5495
  626SOL    HW2 1878   0.514   2.692   1.803  0.0768  1.8977  2.1027
  627SOL     OW 1879   0.718   0.998   1.518  0.1694 -0.4180 -0.6029
  627SOL    HW1 1880   0.748   0.931   1.444  1.7900 -1.4231  0.6931
  627SOL    HW2 1881   0.798   1.063   1.527 -1.5084 -0.7267 -0.9801
  628SOL     OW 1882   2.388   0.185   0.732  0.3621  0.1814  0.1510
  628SOL    HW1 1883   2.423   0.125   0.653 -3.8338 -1.8572 -0.6347
  628SOL    HW2 1884   2.299   0.149   0.764 -1.2429 -0.4835 -0.1955
  629SOL     OW 1885   1.969   0.898   1.975 -0.4753  0.0513  0.1320
  629SOL    HW1 1886   2.030   0.935   1.900  0.9240  0.6372  3.5235
  629SOL    HW2 1887   1.946   0.976   2.041  0.7301  2.1126 -1.5574
  630SOL     OW 1888   2.854   2.209   0.857 -0.0313  0.1793  0.0772
  630SOL    HW1 1889   2.770   2.268   0.867  1.0965  0.6070 -0.7207
  630SOL    HW2 1890   2.838   2.110   0.845  2.9685  1.1538  1.7368
  631SOL     OW 1891   2.946   0.147   2.108 -0.1857 -0.6895 -0.7492
  631SOL    HW1 1892   3.024   0.184   2.176  0.6717  1.7345  1.8985
  631SOL    HW2 1893   2.987   0.124   2.016  2.3697  1.0535  0.6165
  632SOL     OW 1894   2.443   2.517   0.658 -0.0155 -0.3363  0.8828
  632SOL    HW1 1895   2.481   2.610   0.685  1.2624  1.5263  1.9576
  632SOL    HW2 1896   2.392   2.517   0.564 -1.3741  2.2348 -0.8889
  633SOL     OW 1897   1.439   1.248   2.516  1.2529 -0.0792 -0.1921
  633SOL    HW1 1898   1.445   1.334   2.576 -0.8086  0.9090  0.4506
  633SOL    HW2 1899   1.353   1.252   2.456 -1.0833  0.2841  0.1200
  634SOL     OW 1900   0.688   1.945   0.937  0.2767  0.2359  0.1751
  634SOL    HW1 1901   0.597   1.977   0.976 -0.8125 -2.2127  0.4530
  634SOL    HW2 1902   0.756   2.026   0.928 -0.5866  0.1942 -1.4390
  635SOL     OW 1903   3.078   2.318   3.068  0.4650 -0.2583 -0.4032
  635SOL    HW1 1904   2.996   2.362   3.021 -0.6311  0.6332 -0.8318
  635SOL    HW2 1905   3.122   2.385   3.138  2.5015  2.0422 -0.0571
  636SOL     OW 1906   2.269   2.717   2.101  0.3390 -0.4185  0.1823
  636SOL    HW1 1907   2.276   2.821   2.107 -1.1310  2.1316 -2.0908
  636SOL    HW2 1908   2.222   2.668   2.183  1.5088  1.4344  0.7667
  637SOL     OW 1909   2.625   0.719   2.033 -0.5412  0.1609 -0.0150
  637SOL    HW1 1910   2.597   0.717   1.931 -1.7814 -0.6456 -3.4847
  637SOL    HW2 1911   2.685   0.802   2.059  0.5305 -0.7985  0.6083
  638SOL     OW 1912   2.398   1.789   1.233  0.0076  0.5851  0.0081
  638SOL    HW1 1913   2.308   1.829   1.268 -1.9996  0.2300  1.2376
  638SOL    HW2 1914   2.447   1.743   1.312 -2.1134 -0.3543 -1.3123
  639SOL     OW 1915   1.295   2.184   1.716  0.2768 -0.0798 -0.5026
  639SOL    HW1 1916   1.333   2.101   1.669  0.1869 -1.7317 -0.7363
  639SOL    HW2 1917   1.196   2.178   1.745  1.5656  2.6954  1.8475
  640SOL     OW 1918   0.203   1.158   1.580  0.4014  0.1266 -0.0363
  640SOL    HW1 1919   0.194   1.204   1.672 -1.1471  1.4114 -0.9840
  640SOL    HW2 1920   0.277   1.087   1.574  0.7589  1.4464 -0.6117
  641SOL     OW 1921   2.025   0.158   1.519 -0.0315 -0.2911 -0.1415
  641SOL    HW1 1922   2.015   0.154   1.624  1.2827 -0.4709 -0.4100
  641SOL    HW2 1923   2.124   0.152   1.494 -0.3637  1.9616  1.7175
  642SOL     OW 1924   1.951   0.128   0.295 -0.4245  0.4361 -0.0364
  642SOL    HW1 1925   2.037   0.096   0.341 -2.1228  1.9895 -2.9079
  642SOL    HW2 1926   1.869   0.077   0.332  1.7024  1.0902  0.6158
  643SOL     OW 1927   2.905   1.873   2.053 -0.6022  0.1713 -0.2240
  643SOL    HW1 1928   2.888   1.777   2.021  0.9322 -0.7721  2.0733
  643SOL    HW2 1929   2.882   1.945   1.981  2.3310 -1.5991 -0.0235
  644SOL     OW 1930   2.275   2.390   1.215 -0.2247  0.0796 -0.1853
  644SOL    HW1 1931   2.320   2.301   1.177 -0.6661 -2.7657  3.9836
  644SOL    HW2 1932   2.232   2.378   1.314  0.5326 -0.5249  2.7467
  645SOL     OW 1933   0.639   0.852   1.262 -0.1440  0.4634  0.7662
  645SOL    HW1 1934   0.539   0.875   1.292  1.1548  2.3848  0.4284
  645SOL    HW2 1935   0.679   0.907   1.183  1.1236  0.6476  0.0851
  646SOL     OW 1936   1.402   1.925   1.936 -0.1671 -0.0569 -0.6256
  646SOL    HW1 1937   1.461   2.002   1.899  1.7844  0.5361 -0.7133
  646SOL    HW2 1938   1.353   1.955   2.023  0.8348  0.4803 -0.9425
  647SOL     OW 1939   0.808   1.073   0.672  0.2421  0.2083 -0.4717
  647SOL    HW1 1940   0.871   1.085   0.756  2.9409 -0.1060 -0.8336
  647SOL    HW2 1941   0.747   0.991   0.693 -0.7624 -2.8468  0.5280
  648SOL     OW 1942   0.111   0.180   0.219  0.1783 -0.2502 -0.1671
  648SOL    HW1 1943   0.157   0.113   0.157  2.6339  1.3990  0.5211
  648SOL    HW2 1944   0.104   0.279   0.174  0.4885  1.0727 -1.1925
  649SOL     OW 1945   3.043   0.223   0.889  0.4428 -0.2936 -0.0623
  649SOL    HW1 1946   3.144   0.194   0.880  1.5592 -0.6227 -3.5002
  649SOL    HW2 1947   3.033   0.321   0.858  0.7415  0.0607 -1.0337
  650SOL     OW 1948   2.734   0.669   1.422 -0.5540 -0.4209 -0.0536
  650SOL    HW1 1949   2.635   0.672   1.459 -0.5387 -0.8249  0.5466
  650SOL    HW2 1950   2.753   0.760   1.375 -2.0852  1.3430  1.3464
  651SOL     OW 1951   0.927   1.565   1.588  0.4572 -0.0465 -0.3491
  651SOL    HW1 1952   0.947   1.650   1.646 -2.0161  3.2387  1.0295
  651SOL    HW2 1953   1.015   1.542   1.536 -0.3762  2.4814  0.3359
  652SOL     OW 1954   2.309   2.453   2.504 -0.6642 -0.0412  0.3390
  652SOL    HW1 1955   2.265   2.483   2.592  0.2923  0.8271  0.3248
  652SOL    HW2 1956   2.262   2.495   2.421  1.0646 -0.4826  3.3421
  653SOL     OW 1957   2.695   1.205   0.174 -0.4251 -0.6426  0.0853
  653SOL    HW1 1958   2.721   1.277   0.247  2.5342  2.8887 -1.9963
  653SOL    HW2 1959   2.767   1.128   0.182  1.4088 -2.1137  1.0573
  654SOL     OW 1960   1.292   2.250   1.262  0.1323  0.1841  0.0309
  654SOL    HW1 1961   1.277   2.182   1.341  1.9814  0.6055 -0.2824
  654SOL    HW2 1962   1.320   2.201   1.170  0.6928  2.5089 -0.8170
  655SOL     OW 1963   0.169   0.949   1.882  0.3972  0.3021 -0.9381
  655SOL    HW1 1964   0.222   0.883   1.818 -0.2570 -0.0977  0.6389
  655SOL    HW2 1965   0.226   1.016   1.937  0.9537 -1.0726 -1.0744
  656SOL     OW 1966   2.544   2.500   2.617 -0.2383  0.1767 -0.4267
  656SOL    HW1 1967   2.624   2.445   2.583  0.6238  0.1432  0.0808
  656SOL    HW2 1968   2.454   2.466   2.580  6.0609 -1.8395  0.0161
  657SOL     OW 1969   3.013   1.049   1.941  0.6841 -0.0651 -0.1536
  657SOL    HW1 1970   3.016   1.154   1.950 -1.3017  0.8746  3.0720
  657SOL    HW2 1971   3.106   1.012   1.910 -1.7245  0.8161 -0.2762
  658SOL     OW 1972   1.715   0.223   2.407  0.3976 -0.0743  0.4002
  658SOL    HW1 1973   1.724   0.140   2.472  0.9541 -0.8973 -1.8725
  658SOL    HW2 1974   1.767   0.211   2.314 -0.1952  2.3627 -1.6676
  659SOL     OW 1975   1.460   0.639   2.942 -0.0047  0.3846  0.1346
  659SOL    HW1 1976   1.513   0.731   2.939  0.6108  0.5685  1.0125
  659SOL    HW2 1977   1.357   0.648   2.938  1.9592  1.6968 -0.1316
  660SOL     OW 1978   1.398   0.365   1.453 -0.1388  0.0522  0.6066
  660SOL    HW1 1979   1.412   0.353   1.552 -1.2872  0.6524 -3.9542
  660SOL    HW2 1980   1.457   0.294   1.402 -0.2418 -0.6867  0.2301
  661SOL     OW 1981   2.488   1.193   0.659  0.6794 -0.1826 -0.4561
  661SOL    HW1 1982   2.511   1.195   0.556 -1.6193 -3.6800 -0.3269
  661SOL    HW2 1983   2.424   1.271   0.685 -2.2459  1.6939 -1.0389
  662SOL     OW 1984   1.382   0.458   1.820 -0.3735 -0.4512  0.7882
  662SOL    HW1 1985   1.359   0.363   1.784  1.2778  0.5150  0.5379
  662SOL    HW2 1986   1.312   0.493   1.888 -0.3592 -0.4450  0.0985
  663SOL     OW 1987   0.762   1.543   2.212 -0.0386  0.3726 -0.0938
  663SOL    HW1 1988   0.718   1.630   2.241  1.1105  1.0390 -0.0659
  663SOL    HW2 1989   0.720   1.496   2.129  0.2642 -0.6989 -7.3179
  664SOL     OW 1990   1.634   2.090   1.470  0.4964  0.0052  0.9139
  664SOL    HW1 1991   1.559   2.041   1.528 -2.5611 -2.8580 -1.1522
  664SOL    HW2 1992   1.733   2.051   1.482  0.1108 -0.9737  0.6807
  665SOL     OW 1993   2.273   0.657   1.943 -0.1768 -0.0087  0.5736
  665SOL    HW1 1994   2.256   0.560   1.963 -0.5732  0.3937 -0.6114
  665SOL    HW2 1995   2.284   0.720   2.027  4.2343 -0.1240 -1.6218
  666SOL     OW 1996   0.364   2.355   0.379  0.3109 -0.2248  1.0909
  666SOL    HW1 1997   0.440   2.391   0.438 -0.6868 -1.1986  0.2609
  666SOL    HW2 1998   0.301   2.280   0.419  0.2865  0.4589 -0.5414
  667SOL     OW 1999   1.986   0.142   1.170 -0.3628 -0.0328  0.2438
  667SOL    HW1 2000   2.013   0.240   1.158  2.3839  0.2618  0.3194
  667SOL    HW2 2001   1.905   0.123   1.236  0.1696 -3.3966  0.7235
  668SOL     OW 2002   2.013   0.506   1.175 -0.3616 -0.0491  0.4702
  668SOL    HW1 2003   2.074   0.548   1.103  0.1996  2.8985  1.4376
  668SOL    HW2 2004   2.066   0.485   1.257 -1.5318 -1.5355 -2.4817
  669SOL     OW 2005   3.074   2.198   1.013 -0.3173  0.5811 -0.0971
  669SOL    HW1 2006   3.008   2.212   0.930 -5.1709 -0.3745 -2.7332
  669SOL    HW2 2007   3.036   2.234   1.105 -2.9635  0.8310  1.8271
  670SOL     OW 2008   2.849   2.329   1.940  0.2512  0.1382 -0.0902
  670SOL    HW1 2009   2.791   2.303   2.025  1.4338  1.0451 -0.0712
  670SOL    HW2 2010   2.825   2.423   1.907 -1.0241  2.5770 -1.7207
  671SOL     OW 2011   1.771   1.747   1.483  0.5889  0.4523 -0.6056
  671SOL    HW1 2012   1.772   1.760   1.379 -0.1743  4.8139  0.3844
  671SOL    HW2 2013   1.673   1.716   1.514 -1.5558 -0.8864  2.2314
  672SOL     OW 2014   0.388   0.620   2.383 -0.0512 -0.0218 -0.2451
  672SOL    HW1 2015   0.445   0.637   2.294  0.1123 -2.3306 -2.2803
  672SOL    HW2 2016   0.311   0.686   2.394 -1.7543  0.3927 -1.6809
  673SOL     OW 2017   0.112   1.170   1.158  0.2690  0.4246  0.7818
  673SOL    HW1 2018   0.141   1.236   1.227  0.6683 -2.0793  0.8984
  673SOL    HW2 2019   0.197   1.128   1.112 -0.1839 -1.5192  0.2314
  674SOL     OW 2020   1.614   2.931   0.228 -0.2170 -0.4256 -0.2334
  674SOL    HW1 2021   1.659   3.027   0.221 -1.6667  1.5262  0.8846
  674SOL    HW2 2022   1.665   2.850   0.190 -0.6764 -1.3537  0.6171
  675SOL     OW 2023   1.697   0.821   2.315 -0.5895  0.1428 -0.1801
  675SOL    HW1 2024   1.800   0.811   2.299 -0.9656 -1.2311 -0.3682
  675SOL    HW2 2025   1.635   0.737   2.282  0.3827 -2.4674 -0.3284
  676SOL     OW 2026   2.485   1.443   2.007 -0.0490 -0.1150  0.2341
  676SOL    HW1 2027   2.476   1.396   1.912  1.0683  1.9305 -0.0728
  676SOL    HW2 2028   2.541   1.385   2.067 -0.0890 -0.1814  0.7825
  677SOL     OW 2029   1.946   0.711   0.864  0.1536 -0.0225 -0.4110
  677SOL    HW1 2030   1.973   0.739   0.961  2.7398  0.6407  1.5423
  677SOL    HW2 2031   2.018   0.652   0.823  0.7128 -0.1602 -2.0686
  678SOL     OW 2032   0.014   0.771   1.690  0.8075  0.0664  0.4445
  678SOL    HW1 2033   0.115   0.756   1.715 -1.4600  1.0883  0.7507
  678SOL    HW2 2034  -0.051   0.768   1.770 -1.4562 -0.5958 -0.8006
  679SOL     OW 2035   2.608   1.193   1.097 -0.1040  0.0393  0.5320
  679SOL    HW1 2036   2.512   1.200   1.133  0.5395  1.7349  0.0982
  679SOL    HW2 2037   2.635   1.092   1.087  2.3696 -0.2254 -0.1637
  680SOL     OW 2038   2.787   0.628   1.718 -0.1822  0.0063  0.0286
  680SOL    HW1 2039   2.773   0.692   1.637  0.4232  0.8777  0.0967
  680SOL    HW2 2040   2.850   0.673   1.785 -0.8097 -1.2636 -1.0382
  681SOL     OW 2041   3.023   0.191   1.660 -0.1889 -0.4073  0.0775
  681SOL    HW1 2042   3.095   0.174   1.589 -1.0661  2.7178 -1.5703
  681SOL    HW2 2043   2.978   0.283   1.629  1.5658 -2.1906  0.0435
  682SOL     OW 2044   0.722   0.029   1.291 -0.7299 -0.0113 -0.7677
  682SOL    HW1 2045   0.701  -0.066   1.336 -0.4176  1.4644 -0.1329
  682SOL    HW2 2046   0.743   0.024   1.186  0.2110 -0.0304  0.7602
  683SOL     OW 2047   1.341   0.184   2.206 -0.3036  0.6463  0.0562
  683SOL    HW1 2048   1.298   0.262   2.257 -2.2781 -1.0959 -1.0598
  683SOL    HW2 2049   1.416   0.214   2.139  1.5537 -0.5325 -1.7935
  684SOL     OW 2050   1.462   2.118   0.546  0.2761 -0.0096  0.3195
  684SOL    HW1 2051   1.511   2.043   0.604  0.4171  0.3463  1.6679
  684SOL    HW2 2052   1.366   2.091   0.511  1.4762 -0.0727 -0.0979
  685SOL     OW 2053   2.151   1.987   1.975  0.3848  0.3923 -0.3091
  685SOL    HW1 2054   2.220   2.014   1.899  2.6116  0.2560 -3.6324
  685SOL    HW2 2055   2.202   1.960   2.063 -0.9666  0.4657 -0.5991
  686SOL     OW 2056   1.508   1.798   2.756  0.2882 -0.0996  0.3938
  686SOL    HW1 2057   1.546   1.728   2.824 -0.9424 -1.6041  0.3868
  686SOL    HW2 2058   1.551   1.791   2.663 -1.1913  3.9110 -0.5396
  687SOL     OW 2059   1.261   2.489   1.989  0.1617  0.0615 -0.3543
  687SOL    HW1 2060   1.287   2.391   1.990 -0.3992  0.7256  0.8179
  687SOL    HW2 2061   1.354   2.541   1.997  2.5526 -4.8650  0.8308
  688SOL     OW 2062   2.078   1.593   1.749  0.1100  0.2037  0.1995
  688SOL    HW1 2063   2.173   1.596   1.788 -2.1680 -2.0041  0.5254
  688SOL    HW2 2064   2.060   1.538   1.662 -0.3987  1.8823 -1.3546
  689SOL     OW 2065   2.460   1.064   2.656  0.1534 -0.2122 -0.1945
  689SOL    HW1 2066   2.362   1.040   2.679 -0.3437  4.0947 -1.4099
  689SOL    HW2 2067   2.517   1.064   2.746  3.8051  1.3444  0.2025
  690SOL     OW 2068   2.250   2.806   0.038  0.1093  0.0872  0.5019
  690SOL    HW1 2069   2.189   2.778  -0.044 -0.6669  1.3122 -0.1888
  690SOL    HW2 2070   2.206   2.841   0.126  2.1049 -2.7586  0.1809
  691SOL     OW 2071   2.588   0.489   2.196 -0.2155  0.4304 -1.2271
  691SOL    HW1 2072   2.652   0.406   2.172  0.5076 -2.1448 -2.3489
  691SOL    HW2 2073   2.595   0.567   2.126  0.4021 -1.2338 -2.0732
  692SOL     OW 2074   2.765   1.223   0.710 -0.0069 -0.2566  0.1858
  692SOL    HW1 2075   2.663   1.209   0.705 -0.3893  0.3575 -1.0022
  692SOL    HW2 2076   2.793   1.317   0.745 -0.9982 -0.4250 -1.5107
  693SOL     OW 2077   2.787   2.951   0.660 -0.2547  0.2755  0.3261
  693SOL    HW1 2078   2.817   3.033   0.714 -0.5025  1.0234 -2.5665
  693SOL    HW2 2079   2.723   2.987   0.586 -0.3014  2.0169  0.2970
  694SOL     OW 2080   2.376   2.201   0.077  0.2873  0.3953  0.2398
  694SOL    HW1 2081   2.374   2.295   0.125  0.6966 -0.6784 -1.1052
  694SOL    HW2 2082   2.285   2.158   0.053  2.0913  0.5075 -0.6614
  695SOL     OW 2083   0.594   2.945   1.486  0.2202  0.4426  0.4429
  695SOL    HW1 2084   0.531   2.876   1.431  2.4760 -1.6555  1.4087
  695SOL    HW2 2085   0.552   2.974   1.579 -0.9021 -0.4971  0.9049
  696SOL     OW 2086   2.836   1.935   0.779  0.2108 -0.3541 -0.5766
  696SOL    HW1 2087   2.875   1.856   0.837  2.1858 -0.1066  2.5697
  696SOL    HW2 2088   2.889   1.949   0.693  0.1364  1.4900  0.1074
  697SOL     OW 2089   1.627   2.076   1.815  0.2827  0.5112 -0.1136
  697SOL    HW1 2090   1.706   2.023   1.853  3.5935 -0.0355  0.4008
  697SOL    HW2 2091   1.663   2.161   1.765  1.1508 -0.3845  1.1903
  698SOL     OW 2092   2.945   0.426   2.761  0.4089 -0.8300  0.0251
  698SOL    HW1 2093   2.891   0.377   2.690 -1.8960  0.3526  0.3717
  698SOL    HW2 2094   2.997   0.359   2.826  1.4197 -0.1154  1.4134
  699SOL     OW 2095   1.562   0.097   2.925 -0.3337 -0.0557  0.5476
  699SOL    HW1 2096   1.561   0.001   2.882  1.3092  3.1964  0.6847
  699SOL    HW2 2097   1.622   0.163   2.868  2.2402 -2.1182 -0.9712
  700SOL     OW 2098   1.017   2.298   1.314  0.2477  0.4048  0.0253
  700SOL    HW1 2099   1.114   2.262   1.290 -0.2616 -0.4762 -0.6845
  700SOL    HW2 2100   0.951   2.279   1.237 -0.8274 -0.7220 -0.8328
  701SOL     OW 2101   1.945   2.847   3.082 -0.1716  0.0576 -0.1343
  701SOL    HW1 2102   1.891   2.798   3.154 -1.1525  1.2552  1.1759
  701SOL    HW2 2103   1.943   2.950   3.103  1.5347  0.4579  2.4477
  702SOL     OW 2104   2.043   1.341   1.925 -0.1172 -0.4508 -0.0293
  702SOL    HW1 2105   2.122   1.291   1.886 -2.2131  0.7115  1.0038
  702SOL    HW2 2106   2.000   1.401   1.850 -1.7558  1.2016 -0.6856
  703SOL     OW 2107   1.953   0.889   1.422  0.0047  0.2430 -0.3743
  703SOL    HW1 2108   1.963   0.799   1.476 -1.0918 -1.9871  0.6010
  703SOL    HW2 2109   2.016   0.961   1.452 -0.7561 -0.7757  0.0847
  704SOL     OW 2110   0.347   2.038   1.685  0.4440 -0.2206  0.8394
  704SOL    HW1 2111   0.376   1.975   1.759 -1.0327 -2.5031 -1.8432
  704SOL    HW2 2112   0.403   2.127   1.694  1.0974 -0.8452 -0.6073
  705SOL     OW 2113   2.487   1.410   0.970  0.3799 -0.6857 -0.2526
  705SOL    HW1 2114   2.435   1.392   0.880 -0.8203 -1.4042  0.3553
  705SOL    HW2 2115   2.557   1.338   0.987  1.0772 -1.9598  1.9426
  706SOL     OW 2116   0.671   1.686   1.829 -0.0562  0.9521  0.0957
  706SOL    HW1 2117   0.675   1.593   1.882 -1.4492  1.6359  0.2620
  706SOL    HW2 2118   0.696   1.770   1.886 -0.7957  0.1039  1.1886
  707SOL     OW 2119   2.278   1.185   1.874 -0.4663 -0.2728 -0.0866
  707SOL    HW1 2120   2.366   1.197   1.923  1.2264 -2.2057  0.7049
  707SOL    HW2 2121   2.256   1.082   1.860 -0.1299 -1.1973 -2.8667
  708SOL     OW 2122   2.992   0.545   3.049 -0.6655  0.2989 -0.2505
  708SOL    HW1 2123   2.975   0.613   2.973  1.9751 -2.1637  0.2751
  708SOL    HW2 2124   2.994   0.446   3.002 -1.3516  2.2041 -1.4976
  709SOL     OW 2125   1.793   1.846   0.199 -0.2720  0.0819  0.0115
  709SOL    HW1 2126   1.816   1.941   0.224 -0.8847 -0.7523  1.2827
  709SOL    HW2 2127   1.786   1.831   0.095 -4.3527 -0.7778 -0.4537
  710SOL     OW 2128   1.710   1.624   2.412 -0.1173 -0.0141 -0.1339
  710SOL    HW1 2129   1.772   1.599   2.336  0.1066  0.3555 -1.2695
  710SOL    HW2 2130   1.723   1.550   2.484 -1.4690 -1.3505  0.7703
  711SOL     OW 2131   2.684   2.980   0.976  0.1004 -0.3617  0.2369
  711SOL    HW1 2132   2.669   3.078   0.955  1.7646 -1.6618  0.0234
  711SOL    HW2 2133   2.786   2.956   0.978 -0.4011  1.2937  0.2623
  712SOL     OW 2134   1.349   2.229   1.976  0.0135  0.8628 -0.1296
  712SOL    HW1 2135   1.447   2.246   2.003 -0.0692  1.1624  2.3431
  712SOL    HW2 2136   1.338   2.206   1.878  1.0511 -1.9213  1.0370
  713SOL     OW 2137   2.945   1.440   2.580 -0.4572  0.3223  0.4532
  713SOL    HW1 2138   2.866   1.374   2.573  2.2428  0.3095  1.3455
  713SOL    HW2 2139   2.927   1.510   2.655  1.4207 -2.1678  0.0227
  714SOL     OW 2140   2.684   0.523   2.447 -0.2379  0.0516 -0.6539
  714SOL    HW1 2141   2.634   0.461   2.512 -0.8827 -1.4807 -0.8322
  714SOL    HW2 2142   2.633   0.539   2.356 -0.6615 -0.1974 -3.0161
  715SOL     OW 2143   1.597   2.040   1.199 -0.1956 -0.0249  0.3860
  715SOL    HW1 2144   1.532   2.114   1.164 -1.6835  0.9107 -0.3575
  715SOL    HW2 2145   1.618   2.050   1.299  0.8034  0.9543 -1.1376
  716SOL     OW 2146   1.202   0.136   1.461 -0.7266  0.6141  0.5118
  716SOL    HW1 2147   1.100   0.123   1.458 -0.9798  1.3086 -2.6787
  716SOL    HW2 2148   1.240   0.232   1.450  2.6566 -0.0786 -0.2921
  717SOL     OW 2149   1.116   0.555   1.597 -0.3818  0.3371  0.5148
  717SOL    HW1 2150   1.204   0.601   1.630 -0.5019 -0.4802 -1.1806
  717SOL    HW2 2151   1.108   0.526   1.499 -1.3656  2.4367 -0.0940
  718SOL     OW 2152   0.715   0.920   0.969  0.1869 -0.0666 -0.8323
  718SOL    HW1 2153   0.716   0.882   0.875 -1.3993  3.6052 -0.5158
  718SOL    HW2 2154   0.672   1.013   0.967 -0.8312 -1.0631 -2.4253
  719SOL     OW 2155   0.681   1.790   2.302  0.5477  0.3620 -0.0491
  719SOL    HW1 2156   0.750   1.837   2.365 -0.8023  2.1869 -1.3153
  719SOL    HW2 2157   0.591   1.753   2.344 -2.0274 -0.3799 -2.8422
  720SOL     OW 2158   2.191   1.163   0.266 -0.1192 -0.1541 -0.6157
  720SOL    HW1 2159   2.254   1.096   0.216 -0.8748 -2.0679 -0.9363
  720SOL    HW2 2160   2.187   1.144   0.365 -0.1028  0.6554 -1.3412
  721SOL     OW 2161   2.272   2.997   2.133  0.5702  0.0114 -0.2795
  721SOL    HW1 2162   2.276   3.041   2.039 -1.8679  1.4991  0.8047
  721SOL    HW2 2163   2.193   3.038   2.192  0.8733  0.2955 -1.5610
  722SOL     OW 2164   2.383   1.608   0.503 -0.4585  0.2191  1.1313
  722SOL    HW1 2165   2.408   1.599   0.403 -0.8230  1.4407  1.2423
  722SOL    HW2 2166   2.337   1.702   0.528 -2.6054 -1.6122  1.4880
  723SOL     OW 2167   2.515   2.728   1.982 -0.1809 -0.0179 -0.2768
  723SOL    HW1 2168   2.574   2.784   2.047  1.8587 -0.4781 -0.6036
  723SOL    HW2 2169   2.416   2.723   2.019  0.3114  0.3812  1.5348
  724SOL     OW 2170   0.541   2.462   2.426  0.0822 -0.4958 -0.0401
  724SOL    HW1 2171   0.438   2.460   2.458 -3.7153  0.2856  0.1755
  724SOL    HW2 2172   0.609   2.501   2.498 -0.0051  2.8654  1.3125
  725SOL     OW 2173   2.430   2.802   1.502 -0.3531 -0.0855  0.6560
  725SOL    HW1 2174   2.435   2.836   1.403 -2.2599  1.4481 -0.4790
  725SOL    HW2 2175   2.383   2.711   1.510  2.5573  1.5022 -0.7637
  726SOL     OW 2176   2.452   2.240   0.704 -0.7990  0.2285 -0.0943
  726SOL    HW1 2177   2.443   2.339   0.702  1.1140 -2.0547 -0.1158
  726SOL    HW2 2178   2.456   2.193   0.608  1.6379 -0.5022 -0.6104
  727SOL     OW 2179   0.135   3.084   0.035 -0.1379 -0.1212  0.0401
  727SOL    HW1 2180   0.190   3.001   0.062  0.0824 -0.5138  1.4702
  727SOL    HW2 2181   0.124   3.095  -0.063 -1.9979  1.8090  2.3514
  728SOL     OW 2182   2.872   0.681   0.975 -0.1318 -0.0499 -0.0249
  728SOL    HW1 2183   2.774   0.678   0.930 -3.8451  1.0897  0.6080
  728SOL    HW2 2184   2.872   0.627   1.067 -3.5373 -1.1182 -1.3439
  729SOL     OW 2185   3.023   2.479   0.759 -0.3014  0.2934 -0.0396
  729SOL    HW1 2186   3.013   2.403   0.836  1.3165 -1.3914 -0.8528
  729SOL    HW2 2187   3.106   2.453   0.701 -1.3844  2.8571  2.3754
  730SOL     OW 2188   2.636   0.665   0.829  0.0849 -0.1417  0.1556
  730SOL    HW1 2189   2.577   0.751   0.813  0.6649  1.7829  2.0445
  730SOL    HW2 2190   2.666   0.634   0.737 -0.1747 -2.1780 -1.6578
  731SOL     OW 2191   0.134   2.167   2.440  0.1875  0.5392 -0.5814
  731SOL    HW1 2192   0.140   2.182   2.543  2.0122  1.0919  1.2216
  731SOL    HW2 2193   0.101   2.245   2.384 -1.0198  1.0678  2.7580
  732SOL     OW 2194   1.144   2.848   1.949 -0.2653  0.2673  0.1038
  732SOL    HW1 2195   1.183   2.799   2.036  2.5257  0.4644 -0.7731
  732SOL    HW2 2196   1.155   2.783   1.862  2.8704  2.4843 -0.5109
  733SOL     OW 2197   3.035   0.569   2.245 -0.0302 -0.4629  0.0640
  733SOL    HW1 2198   3.112   0.617   2.194  0.8820 -0.8237 -2.6427
  733SOL    HW2 2199   2.975   0.509   2.177 -0.0004 -0.3858  0.4835
  734SOL     OW 2200   1.420   0.352   2.760  0.3365 -0.0173 -0.2886
  734SOL    HW1 2201   1.430   0.445   2.812  1.8210 -1.2507  0.6966
  734SOL    HW2 2202   1.340   0.298   2.794 -0.0488 -0.1303  1.0511
  735SOL     OW 2203   2.884   2.632   2.248 -0.0184  0.1436 -0.3533
  735SOL    HW1 2204   2.851   2.605   2.150 -3.2406 -1.9416  0.1854
  735SOL    HW2 2205   2.964   2.697   2.251  1.5854 -1.1785 -0.5457
  736SOL     OW 2206   0.753   0.290   2.676 -0.1908  0.2167 -0.0443
  736SOL    HW1 2207   0.654   0.296   2.661 -2.0783  1.5070 -1.5127
  736SOL    HW2 2208   0.805   0.267   2.591  1.5128 -0.7149  0.9119
  737SOL     OW 2209   2.684   0.422   2.875 -0.1943 -0.7206  0.2189
  737SOL    HW1 2210   2.637   0.408   2.967  1.5264 -2.4119  0.5268
  737SOL    HW2 2211   2.786   0.409   2.879 -0.1977 -4.0179  1.5779
  738SOL     OW 2212   1.637   1.271   2.910 -0.1261 -0.3175  0.2276
  738SOL    HW1 2213   1.740   1.256   2.904 -0.5572 -1.6692  0.6416
  738SOL    HW2 2214   1.589   1.209   2.846 -0.5236  1.7502 -2.6355
  739SOL     OW 2215   1.742   0.608   0.690 -0.0500 -0.0426 -0.0520
  739SOL    HW1 2216   1.816   0.639   0.761 -2.7297  0.0588 -0.0098
  739SOL    HW2 2217   1.771   0.517   0.645  1.0936  0.4896 -0.2438
  740SOL     OW 2218   2.002   1.923   2.227 -0.1222 -0.0916  0.7716
  740SOL    HW1 2219   2.065   1.864   2.288  2.5977  0.5649  0.0685
  740SOL    HW2 2220   1.915   1.879   2.199  4.0622  0.3575 -3.1543
  741SOL     OW 2221   2.539   0.049   2.615  0.1317  0.1827  0.3209
  741SOL    HW1 2222   2.642   0.044   2.608 -1.1070 -0.3854  2.7162
  741SOL    HW2 2223   2.487   0.058   2.526 -1.5869  2.8558 -0.5839
  742SOL     OW 2224   2.235   1.438   0.254  0.2878  0.5741 -0.1268
  742SOL    HW1 2225   2.167   1.520   0.255 -0.2946  1.2149  0.7466
  742SOL    HW2 2226   2.198   1.342   0.251 -1.5784  0.8056 -1.6077
  743SOL     OW 2227   1.844   0.671   2.631 -0.5666 -0.1306 -0.1055
  743SOL    HW1 2228   1.802   0.625   2.552  1.9286  0.4249  0.2708
  743SOL    HW2 2229   1.786   0.758   2.656  0.4503  0.3434  1.1873
  744SOL     OW 2230   2.619   2.081   0.110  0.8641 -0.2347 -0.5949
  744SOL    HW1 2231   2.531   2.140   0.118 -2.6447  5.1608 -0.9383
  744SOL    HW2 2232   2.602   1.982   0.098 -0.5727 -0.0660 -1.3207
  745SOL     OW 2233   2.182   2.629   2.336 -0.1619  0.4850 -0.3482
  745SOL    HW1 2234   2.105   2.592   2.394 -0.1586  0.6513 -2.3940
  745SOL    HW2 2235   2.191   2.729   2.356 -2.7335 -0.3616  0.5592
  746SOL     OW 2236   3.076   2.648   1.721 -0.4794  0.5266  0.3309
  746SOL    HW1 2237   3.162   2.624   1.673 -1.7478  0.7148 -0.1256
  746SOL    HW2 2238   3.082   2.733   1.777  0.0892 -0.9967  2.4679
  747SOL     OW 2239  -0.001   1.786   1.627 -0.3891 -0.4008 -0.3023
  747SOL    HW1 2240  -0.054   1.701   1.625 -0.1548  3.4562 -1.7677
  747SOL    HW2 2241   0.093   1.781   1.579  0.9941 -0.2027 -1.1061
  748SOL     OW 2242   1.843   2.738   2.823  0.5940 -0.0770 -0.3145
  748SOL    HW1 2243   1.836   2.776   2.922 -2.5058  0.8992  2.9975
  748SOL    HW2 2244   1.743   2.720   2.795 -1.8359 -1.7241  0.2921
  749SOL     OW 2245   1.279   3.062   0.959  0.1567 -0.4057 -0.0956
  749SOL    HW1 2246   1.216   2.987   0.983  3.8788 -0.3215  2.5322
  749SOL    HW2 2247   1.305   3.072   0.858 -2.3775  1.6338 -2.8868
  750SOL     OW 2248   2.355   0.190   1.863  1.0323  0.5467 -0.4855
  750SOL    HW1 2249   2.358   0.233   1.769 -0.6020 -2.5574  0.2510
  750SOL    HW2 2250   2.346   0.258   1.938  1.9251  0.8943 -0.9968
  751SOL     OW 2251   0.905   2.167   2.737  0.3420  0.7527 -0.1098
  751SOL    HW1 2252   0.954   2.185   2.831 -0.2084  1.7634  0.8313
  751SOL    HW2 2253   0.807   2.143   2.748 -0.6065 -1.2701 -0.5872
  752SOL     OW 2254   1.277   0.865   1.384 -0.5869 -0.2113  0.5417
  752SOL    HW1 2255   1.347   0.944   1.360 -1.8998  0.1705  0.5484
  752SOL    HW2 2256   1.334   0.775   1.401 -1.7564 -0.7621 -2.1010
  753SOL     OW 2257   0.933   2.579   1.709 -0.1493  0.0088  0.0941
  753SOL    HW1 2258   1.035   2.610   1.708  0.3628  0.9791  4.3505
  753SOL    HW2 2259   0.867   2.647   1.669  1.4979  2.5108  1.2040
  754SOL     OW 2260   1.114   1.253   3.075  0.1631  0.4673  0.7028
  754SOL    HW1 2261   1.170   1.174   3.041 -1.8370 -3.1977 -0.2385
  754SOL    HW2 2262   1.133   1.344   3.029  1.1448  2.2565  0.2368
  755SOL     OW 2263   1.960   0.448   2.235 -0.7577  0.1978 -0.0833
  755SOL    HW1 2264   2.044   0.397   2.278  1.6460 -1.2285 -0.6114
  755SOL    HW2 2265   1.876   0.463   2.296 -0.5712  2.2644  3.1101
  756SOL     OW 2266   2.547   1.021   2.960  0.1592 -0.4314  0.1683
  756SOL    HW1 2267   2.646   1.021   2.992  1.1436  0.8596 -0.5956
  756SOL    HW2 2268   2.490   0.934   2.995  0.6458  0.5914  1.4219
  757SOL     OW 2269   3.077   0.442   1.776 -0.2354 -0.1980 -0.3000
  757SOL    HW1 2270   3.175   0.422   1.759 -2.2094 -0.0227  1.3533
  757SOL    HW2 2271   3.040   0.371   1.842 -3.9083 -1.3845 -1.2698
  758SOL     OW 2272   2.389   0.088   1.431  0.1968 -0.0097 -0.2576
  758SOL    HW1 2273   2.374   0.001   1.483  0.3970 -2.8298 -1.0357
  758SOL    HW2 2274   2.385   0.088   1.327 -1.0028 -0.0533 -0.8840
  759SOL     OW 2275   1.727   0.088   0.077  0.0551  0.1089  0.0781
  759SOL    HW1 2276   1.658   0.086  -0.001 -0.3681 -0.7693 -0.3446
  759SOL    HW2 2277   1.825   0.096   0.049 -0.8029 -0.4251  1.7709
  760SOL     OW 2278   2.732   2.074   2.824  0.1901  0.6022  0.0953
  760SOL    HW1 2279   2.737   1.981   2.873 -1.6205 -0.2448 -0.2158
  760SOL    HW2 2280   2.697   2.149   2.884  0.2456  1.6250  0.7075
  761SOL     OW 2281   1.888   1.789   1.714 -0.0582  0.0987 -0.1612
  761SOL    HW1 2282   1.948   1.703   1.740  1.3502  0.0240 -1.0420
  761SOL    HW2 2283   1.838   1.776   1.621  0.7890  0.6951  1.0604
  762SOL     OW 2284   0.464   2.320   0.966  0.0364 -0.1846 -0.2846
  762SOL    HW1 2285   0.507   2.327   0.872 -1.7287 -0.9281 -1.2843
  762SOL    HW2 2286   0.506   2.371   1.042 -1.0431 -1.0797 -0.0746
  763SOL     OW 2287   2.074   1.519   2.917  0.4460  0.3766  0.3974
  763SOL    HW1 2288   2.158   1.468   2.941 -2.8160  0.4932 -0.3407
  763SOL    HW2 2289   1.998   1.494   2.980  2.5830 -0.6348 -1.1081
  764SOL     OW 2290   0.614   0.614   0.845 -0.3044 -0.7884  0.1249
  764SOL    HW1 2291   0.555   0.544   0.796 -2.1128 -0.3462 -0.0338
  764SOL    HW2 2292   0.713   0.585   0.867  2.0987  1.0919  1.1578
  765SOL     OW 2293   0.709   0.250   0.786 -0.1610 -0.2278  0.4843
  765SOL    HW1 2294   0.752   0.313   0.721 -1.7956  1.2607 -0.3184
  765SOL    HW2 2295   0.719   0.284   0.887  1.4095  2.7977  2.1080
  766SOL     OW 2296   2.916   2.080   0.006  0.3314  0.1005 -0.3320
  766SOL    HW1 2297   2.816   2.094   0.032 -0.7650  0.8846  2.8109
  766SOL    HW2 2298   2.971   2.172   0.014  1.7089 -0.5970  0.8928
  767SOL     OW 2299   2.799   1.562   0.603  0.4868  0.1941  0.1003
  767SOL    HW1 2300   2.725   1.604   0.667 -1.2770 -1.3493 -0.6390
  767SOL    HW2 2301   2.890   1.606   0.614  1.1104 -3.0692 -2.7521
  768SOL     OW 2302   1.086   0.192   0.323  0.7698  0.3650  0.7388
  768SOL    HW1 2303   1.008   0.133   0.361 -5.4305  3.4306  0.3937
  768SOL    HW2 2304   1.160   0.137   0.280 -1.2834 -0.1474  3.4386
  769SOL     OW 2305   0.993   1.900   2.225  0.5032  0.1426  0.3770
  769SOL    HW1 2306   0.945   1.975   2.277  1.3111 -0.9355 -0.4063
  769SOL    HW2 2307   1.022   1.830   2.297 -0.6442 -2.2430  0.3528
  770SOL     OW 2308   0.175   1.133   2.263 -0.1992  0.6524 -0.5135
  770SOL    HW1 2309   0.150   1.197   2.342 -1.2017 -0.0785 -1.4863
  770SOL    HW2 2310   0.102   1.129   2.195 -0.9116  0.0710 -1.2468
  771SOL     OW 2311   3.005   2.845   1.897 -0.3851 -0.2769 -0.0759
  771SOL    HW1 2312   2.974   2.920   1.828 -0.4652  1.3793  1.1861
  771SOL    HW2 2313   2.998   2.871   1.999  0.1204 -3.9411 -1.1870
  772SOL     OW 2314   2.207   0.189   2.930 -0.2529 -0.7914  0.2287
  772SOL    HW1 2315   2.302   0.156   2.938  3.5479 -0.2791  0.7739
  772SOL    HW2 2316   2.194   0.269   2.994 -1.6726  0.2208 -0.9768
  773SOL     OW 2317   0.738   2.192   2.480 -1.0364  0.2358  0.4968
  773SOL    HW1 2318   0.701   2.255   2.404 -2.8193  1.3432 -0.2235
  773SOL    HW2 2319   0.663   2.152   2.537 -1.9571 -2.6906  2.3387
  774SOL     OW 2320   2.016   0.016   2.635 -0.7208  0.1113 -0.0299
  774SOL    HW1 2321   2.074   0.098   2.655  1.3982  2.7996  2.9625
  774SOL    HW2 2322   2.049  -0.063   2.694 -0.8761  0.5729 -2.3169
  775SOL     OW 2323   2.528   2.845   2.424 -0.3585  0.2969  0.0669
  775SOL    HW1 2324   2.553   2.942   2.439  3.5409 -0.0011 -1.7802
  775SOL    HW2 2325   2.591   2.783   2.475 -3.4708 -2.8419  1.1659
  776SOL     OW 2326   0.028   1.300   0.199  0.9249 -0.3623  0.2136
  776SOL    HW1 2327  -0.010   1.245   0.115 -0.4930  0.1486 -0.0342
  776SOL    HW2 2328  -0.018   1.269   0.289 -2.1367  3.7195  2.5441
  777SOL     OW 2329   0.282   2.862   0.414 -0.4468 -0.1378  0.0640
  777SOL    HW1 2330   0.197   2.908   0.386  0.9301 -2.5833  0.5373
  777SOL    HW2 2331   0.354   2.924   0.453 -1.1713  0.1750  2.7238
  778SOL     OW 2332   1.303   1.954   0.180  0.2123 -0.7013 -0.4764
  778SOL    HW1 2333   1.246   1.986   0.261 -1.1449  1.8132  1.4507
  778SOL    HW2 2334   1.343   2.034   0.124  1.9894 -0.8040  1.2549
  779SOL     OW 2335   0.190   0.847   0.483  0.1032 -0.0460  0.2163
  779SOL    HW1 2336   0.138   0.765   0.448  1.6724 -0.5052 -1.2580
  779SOL    HW2 2337   0.139   0.908   0.552 -1.0764  0.2682  0.2971
  780SOL     OW 2338   0.090   0.246   2.221 -0.0173  0.7083  0.1354
  780SOL    HW1 2339   0.089   0.329   2.282 -0.3419 -3.9368  2.4301
  780SOL    HW2 2340   0.180   0.237   2.168  0.8491  2.0579  3.4226
  781SOL     OW 2341   0.627   1.757   1.561  0.0026  0.3457 -0.5040
  781SOL    HW1 2342   0.650   1.723   1.661  0.6579 -1.4103  0.6370
  781SOL    HW2 2343   0.542   1.704   1.531 -2.5544  0.1890 -0.8874
  782SOL     OW 2344   2.627   0.186   0.895 -0.1522  0.1526  0.7390
  782SOL    HW1 2345   2.548   0.192   0.825 -0.6728 -1.5556 -3.3243
  782SOL    HW2 2346   2.599   0.219   0.988 -0.7248 -0.6633 -0.5812
  783SOL     OW 2347   2.849   0.703   2.549  0.5950  0.2989 -0.5137
  783SOL    HW1 2348   2.821   0.733   2.649 -0.6592  0.8695  2.1404
  783SOL    HW2 2349   2.770   0.650   2.498  0.2760 -2.8823  1.6703
  784SOL     OW 2350   1.415   2.195   0.091 -0.7350  0.2289 -0.0694
  784SOL    HW1 2351   1.486   2.261   0.122 -0.5180  0.5401 -1.5827
  784SOL    HW2 2352   1.395   2.210  -0.010 -1.5654 -0.5894 -0.6028
  785SOL     OW 2353   2.134   0.392   0.005  0.7180  0.0582 -0.6558
  785SOL    HW1 2354   2.046   0.389   0.065  0.3997  1.1397 -0.7351
  785SOL    HW2 2355   2.165   0.488  -0.010 -2.0381  1.7936  1.5216
  786SOL     OW 2356   2.029   2.192   2.226 -0.6405  0.2715  0.1679
  786SOL    HW1 2357   2.022   2.092   2.208 -0.7848 -0.9108  4.1313
  786SOL    HW2 2358   2.120   2.229   2.264  1.3970  0.7793 -1.1316
  787SOL     OW 2359   1.439   0.637   0.948  0.3390 -0.2577 -0.4833
  787SOL    HW1 2360   1.352   0.676   0.983  1.9898  1.3955 -0.0126
  787SOL    HW2 2361   1.440   0.617   0.846 -0.4686  0.0180 -1.4153
  788SOL     OW 2362   1.251   0.393   3.076 -0.0902 -0.3071 -0.4158
  788SOL    HW1 2363   1.150   0.406   3.045 -3.0611 -1.4988 -2.0426
  788SOL    HW2 2364   1.269   0.461   3.152  3.2858 -0.3421 -0.0433
  789SOL     OW 2365   2.591   0.038   1.802  0.0920 -0.5804  0.0900
  789SOL    HW1 2366   2.494   0.089   1.794 -1.7871  0.5281  1.3190
  789SOL    HW2 2367   2.589  -0.062   1.784  0.1559 -0.9241 -0.8490
  790SOL     OW 2368   2.568   2.709   0.812 -0.1571 -0.2320  0.0291
  790SOL    HW1 2369   2.601   2.805   0.796  0.6414  2.2280  3.5917
  790SOL    HW2 2370   2.586   2.676   0.904 -0.8350 -0.0497 -2.6453
  791SOL     OW 2371   1.919   1.242   0.258  0.0748 -0.2808  0.5157
  791SOL    HW1 2372   1.821   1.207   0.284 -2.7535  0.7918 -0.4746
  791SOL    HW2 2373   1.995   1.175   0.280  0.8158  0.1477 -1.4449
  792SOL     OW 2374   0.434   1.994   2.138 -0.4928 -0.1883 -0.1128
  792SOL    HW1 2375   0.533   2.015   2.158  0.4601 -1.1843  4.3712
  792SOL    HW2 2376   0.386   1.964   2.224  1.2550  0.7990 -1.6261
  793SOL     OW 2377   2.092   1.586   2.106 -0.6726 -0.1748 -0.2110
  793SOL    HW1 2378   2.178   1.647   2.080  1.6680  1.9262  0.0291
  793SOL    HW2 2379   2.080   1.508   2.039 -1.1531  1.0580 -2.5860
  794SOL     OW 2380   0.428   1.358   2.453  0.3071  0.5540  0.2887
  794SOL    HW1 2381   0.468   1.316   2.367  1.5562  0.8578  1.8354
  794SOL    HW2 2382   0.405   1.460   2.444 -4.1058 -0.6485  0.1191
  795SOL     OW 2383   2.392   2.308   1.691  0.1489  0.3128  0.5013
  795SOL    HW1 2384   2.392   2.351   1.783  3.5384 -1.2039 -1.6405
  795SOL    HW2 2385   2.381   2.204   1.692  2.6658  0.9469 -0.1395
  796SOL     OW 2386   3.071   1.092   2.671  0.6987  0.0888  0.2090
  796SOL    HW1 2387   2.969   1.068   2.690 -0.1347 -1.4139 -2.1495
  796SOL    HW2 2388   3.127   1.086   2.763  1.0487 -0.3125  1.0477
  797SOL     OW 2389   0.752   0.622   1.344 -0.2020 -0.3631 -0.1268
  797SOL    HW1 2390   0.831   0.666   1.399  0.5160 -0.7979 -0.7277
  797SOL    HW2 2391   0.691   0.693   1.291  0.1318 -0.0016 -1.2906
  798SOL     OW 2392   1.340   0.417   1.120 -0.0036  0.4813 -0.4205
  798SOL    HW1 2393   1.372   0.417   1.220  0.1410 -0.7202  3.2806
  798SOL    HW2 2394   1.378   0.497   1.067 -0.7599 -0.8884  0.2145
  799SOL     OW 2395   1.935   2.611   1.060  0.2708  0.1479  0.0472
  799SOL    HW1 2396   1.893   2.540   1.124  2.5796 -2.4473  0.0856
  799SOL    HW2 2397   1.875   2.622   0.982  1.9499  1.4041  1.4173
  800SOL     OW 2398   2.964   0.769   1.913 -0.2754  0.7136 -1.0731
  800SOL    HW1 2399   2.980   0.869   1.919  1.8178 -0.1363  0.1806
  800SOL    HW2 2400   3.000   0.724   1.999 -0.3352  1.3368 -0.2370
  801SOL     OW 2401   1.975   2.200   0.033  0.3291 -0.2172 -0.1054
  801SOL    HW1 2402   1.882   2.206  -0.009 -0.0779  0.4576 -4.0561
  801SOL    HW2 2403   2.037   2.130  -0.013 -2.5631  0.6664 -1.1487
  802SOL     OW 2404   0.602   0.815   2.591  0.1418 -0.0469  0.0880
  802SOL    HW1 2405   0.593   0.716   2.609 -0.4380  0.2028 -1.6142
  802SOL    HW2 2406   0.528   0.852   2.522 -2.0384  0.8221  0.5241
  803SOL     OW 2407   0.959   0.073   0.808  0.3026  0.3591  0.4902
  803SOL    HW1 2408   1.034   0.138   0.843  0.7620  0.5293 -1.4354
  803SOL    HW2 2409   0.895   0.110   0.734 -1.8449  0.0553  0.5781
  804SOL     OW 2410   0.315   3.086   2.173  0.2491 -0.0108 -0.0274
  804SOL    HW1 2411   0.316   3.191   2.162 -1.5994  1.3174 -0.5471
  804SOL    HW2 2412   0.249   3.036   2.108 -0.8128 -0.3758 -2.3856
  805SOL     OW 2413   2.344   0.415   0.386 -0.1350  0.1383 -0.4234
  805SOL    HW1 2414   2.427   0.407   0.451 -0.6605 -3.3716  0.9986
  805SOL    HW2 2415   2.364   0.384   0.287 -2.0947  1.3673  0.4920
  806SOL     OW 2416   0.659   2.438   1.775  0.4502 -0.4383  0.5750
  806SOL    HW1 2417   0.654   2.539   1.809  2.4165  0.9065  1.0813
  806SOL    HW2 2418   0.754   2.420   1.738  0.8452 -0.0104 -1.0378
  807SOL     OW 2419   2.510   0.820   0.385  0.4015 -0.0008  0.6489
  807SOL    HW1 2420   2.590   0.858   0.433 -0.9003 -0.8025 -1.0638
  807SOL    HW2 2421   2.465   0.876   0.310  1.1672  2.9008  2.3081
  808SOL     OW 2422   0.644   2.113   2.922 -0.3599 -0.2119  0.5159
  808SOL    HW1 2423   0.579   2.159   2.989  0.9463 -0.7953  0.1524
  808SOL    HW2 2424   0.667   2.015   2.948 -1.0061  2.0004  1.0212
  809SOL     OW 2425   2.590   1.965   1.893 -0.2187  0.2501  0.0605
  809SOL    HW1 2426   2.687   1.994   1.883  1.6159 -0.4759 -0.3480
  809SOL    HW2 2427   2.545   1.975   1.799  1.4484  1.8727 -1.5246
  810SOL     OW 2428   2.180   1.120   0.544  0.6490 -0.6463  0.1436
  810SOL    HW1 2429   2.125   1.048   0.590  1.7152  0.6044 -3.0537
  810SOL    HW2 2430   2.141   1.213   0.564  0.5843 -3.8474  0.0393
  811SOL     OW 2431   1.360   2.517   1.221  0.6434  0.1891 -0.2125
  811SOL    HW1 2432   1.356   2.413   1.253 -0.3392 -1.2264 -1.2303
  811SOL    HW2 2433   1.266   2.554   1.194  2.5088  0.4777  0.4299
  812SOL     OW 2434   1.424   0.749   1.963 -0.2272 -0.5975  0.0780
  812SOL    HW1 2435   1.458   0.838   2.008 -0.0383 -0.1359  1.9031
  812SOL    HW2 2436   1.335   0.755   1.911 -0.4658  3.7531  0.4048
  813SOL     OW 2437   1.651   2.073   2.511  0.2515  0.0917 -0.7114
  813SOL    HW1 2438   1.696   1.989   2.544 -0.0119  3.5645 -1.0585
  813SOL    HW2 2439   1.626   2.064   2.409  2.4579 -0.5361 -0.8587
  814SOL     OW 2440   2.941   1.589   2.817 -0.2651 -0.3890  0.6278
  814SOL    HW1 2441   3.002   1.548   2.893 -0.1840  0.6635 -2.6797
  814SOL    HW2 2442   2.979   1.685   2.786 -0.6054 -0.5408 -0.7506
  815SOL     OW 2443   2.197   2.932   2.789  0.2542  0.5341 -0.1887
  815SOL    HW1 2444   2.182   2.852   2.856 -1.2892  0.7140  0.7923
  815SOL    HW2 2445   2.253   3.013   2.823 -2.9375 -1.4947 -1.1847
  816SOL     OW 2446   1.604   0.320   1.651 -0.2668 -0.0050  0.4166
  816SOL    HW1 2447   1.675   0.252   1.677 -0.8282  1.6008 -1.2904
  816SOL    HW2 2448   1.581   0.382   1.734  0.5828  2.2973  0.1756
  817SOL     OW 2449   0.350   1.154   2.619  0.5478 -0.1134  0.3439
  817SOL    HW1 2450   0.273   1.148   2.689  1.2911  0.4218 -1.8445
  817SOL    HW2 2451   0.364   1.247   2.568  0.3505 -1.2604  1.2109
  818SOL     OW 2452   1.943   0.959   0.374  0.3746 -0.5893  1.0976
  818SOL    HW1 2453   2.031   0.918   0.412  1.9515 -3.0770  2.7796
  818SOL    HW2 2454   1.878   0.989   0.449 -1.2183 -4.4870 -1.1620
  819SOL     OW 2455   2.747   2.943   3.005  0.2699  0.0113  0.5626
  819SOL    HW1 2456   2.827   2.892   2.965 -0.3667 -1.9410  1.2164
  819SOL    HW2 2457   2.663   2.936   2.947 -1.9326  0.5647  0.8021
  820SOL     OW 2458   1.219   1.049   0.579 -0.0811  0.1190 -0.3008
  820SOL    HW1 2459   1.232   1.151   0.602  1.1650  1.1327 -0.5312
  820SOL    HW2 2460   1.221   0.991   0.670 -0.0629  0.1191 -1.7919
  821SOL     OW 2461   0.012   1.286   0.685  0.0811  0.4203  0.1445
  821SOL    HW1 2462   0.004   1.285   0.785  1.8056 -2.6009  1.6385
  821SOL    HW2 2463   0.074   1.358   0.643  2.6633 -1.2639 -1.7103
  822SOL     OW 2464   2.587   1.787   2.441  0.3900 -0.3773  0.2409
  822SOL    HW1 2465   2.579   1.846   2.527 -0.2707 -1.8439  0.9869
  822SOL    HW2 2466   2.498   1.796   2.385  1.6363  1.0920  1.2807
  823SOL     OW 2467   2.010   0.809   1.098  0.0126 -0.3158  0.2988
  823SOL    HW1 2468   2.002   0.799   1.205 -0.2912 -1.4528  1.7084
  823SOL    HW2 2469   1.928   0.856   1.060 -0.8839 -1.3760 -0.4867
  824SOL     OW 2470   0.210   1.992   2.839 -0.9852 -0.1402 -0.5989
  824SOL    HW1 2471   0.202   1.920   2.913 -0.5449  2.2941 -1.4228
  824SOL    HW2 2472   0.253   1.949   2.753 -0.6798  2.5472 -1.7364
  825SOL     OW 2473   1.288   1.047   0.298 -0.0194 -0.3784 -0.1601
  825SOL    HW1 2474   1.304   1.138   0.257  0.7815  0.0558  1.6167
  825SOL    HW2 2475   1.228   1.053   0.388 -0.5974 -1.0434  0.5726
  826SOL     OW 2476   1.941   0.650   1.552  0.5466 -0.2693 -0.2877
  826SOL    HW1 2477   2.008   0.580   1.588  0.4037  1.0173  0.9246
  826SOL    HW2 2478   1.858   0.602   1.514  0.8422  0.9667 -0.6973
  827SOL     OW 2479   0.735   1.220   0.287  0.6226 -0.4413 -0.0042
  827SOL    HW1 2480   0.794   1.162   0.230  0.8876  0.3330  1.4230
  827SOL    HW2 2481   0.659   1.168   0.326  2.7187  2.0335  0.5674
  828SOL     OW 2482   2.630   0.167   1.560 -0.2568 -0.7139 -0.6639
  828SOL    HW1 2483   2.539   0.190   1.521 -1.0317 -0.6380 -1.3722
  828SOL    HW2 2484   2.618   0.109   1.646  2.4312  1.2818 -0.2097
  829SOL     OW 2485   2.877   2.443   2.936  0.6183 -0.0394 -0.5593
  829SOL    HW1 2486   2.792   2.390   2.965  1.4396 -0.7535  0.2384
  829SOL    HW2 2487   2.863   2.543   2.906  0.1924  1.5011 -1.7348
  830SOL     OW 2488   2.809   0.969   3.049 -0.1793  0.2571  0.1223
  830SOL    HW1 2489   2.893   1.028   3.059 -0.4721  0.2323 -2.1500
  830SOL    HW2 2490   2.829   0.883   3.106  0.3402 -0.2990 -2.1097
  831SOL     OW 2491   0.070   0.625   0.380  1.2184 -0.5918  0.2672
  831SOL    HW1 2492   0.029   0.571   0.459 -0.5912  1.5587 -1.3245
  831SOL    HW2 2493   0.106   0.556   0.309  0.9049 -1.2714 -0.0772
  832SOL     OW 2494   1.829   0.788   3.020 -0.0104  0.0810 -0.0341
  832SOL    HW1 2495   1.756   0.838   2.965 -1.5086 -0.3939 -1.7578
  832SOL    HW2 2496   1.821   0.686   3.014  0.3984  0.7536 -2.4485
  833SOL     OW 2497   2.473   2.103   0.446  0.2963 -0.0516 -0.4808
  833SOL    HW1 2498   2.370   2.107   0.421 -1.0112  3.0247  1.0301
  833SOL    HW2 2499   2.511   2.009   0.442  0.9206  1.8427  0.8288
  834SOL     OW 2500   0.108   0.221   0.495 -0.0485 -0.5439  0.1663
  834SOL    HW1 2501   0.025   0.172   0.534  3.3571 -1.3009 -0.0004
  834SOL    HW2 2502   0.118   0.217   0.389 -1.2484 -1.3433 -2.8420
  835SOL     OW 2503   2.336   1.517   1.164 -0.1385 -0.3030  0.2479
  835SOL    HW1 2504   2.344   1.621   1.186  1.1184 -1.2171  0.0292
  835SOL    HW2 2505   2.398   1.480   1.084  3.6272 -1.8674 -0.2848
  836SOL     OW 2506   1.617   0.853   2.614 -0.6222  0.4158  0.0415
  836SOL    HW1 2507   1.525   0.804   2.618  2.4275 -1.2844  0.1673
  836SOL    HW2 2508   1.637   0.879   2.517 -1.6268 -2.2799  1.3322
  837SOL     OW 2509   1.598   0.115   0.572 -0.0970  0.4490 -0.1626
  837SOL    HW1 2510   1.588   0.197   0.634 -0.2089  0.1495  1.7075
  837SOL    HW2 2511   1.565   0.134   0.475  0.3048  2.5944 -0.7738
  838SOL     OW 2512   1.220   1.466   2.758  0.1947  0.3444  0.6054
  838SOL    HW1 2513   1.185   1.480   2.854  1.2212 -1.8629  0.9621
  838SOL    HW2 2514   1.152   1.421   2.689  0.5597 -1.4094  2.4772
  839SOL     OW 2515   1.701   0.272   0.977 -0.6584 -0.5308 -0.5428
  839SOL    HW1 2516   1.717   0.346   1.050 -0.9634  1.7705 -1.4332
  839SOL    HW2 2517   1.685   0.179   1.020 -1.3554 -0.0808 -2.0946
  840SOL     OW 2518   2.537   2.865   1.756 -0.8722 -1.0505  0.1469
  840SOL    HW1 2519   2.509   2.817   1.670  1.9182  1.1418  2.8018
  840SOL    HW2 2520   2.535   2.805   1.840  0.0305 -0.2114  0.2166
  841SOL     OW 2521   1.582   0.902   2.953  0.0473  0.2511  0.2088
  841SOL    HW1 2522   1.555   0.942   3.042  1.3031  1.8128 -1.4892
  841SOL    HW2 2523   1.521   0.930   2.879 -0.4388  0.2964  2.8005
  842SOL     OW 2524   0.818   1.512   0.924  0.1155  0.3511  0.7940
  842SOL    HW1 2525   0.797   1.603   0.976 -2.9119  1.1742  0.0839
  842SOL    HW2 2526   0.729   1.461   0.888 -2.4071 -0.2186  0.1560
  843SOL     OW 2527   0.120   0.137   1.489  0.7723 -0.0339  0.0501
  843SOL    HW1 2528   0.214   0.170   1.513 -1.3811  0.8399  2.3833
  843SOL    HW2 2529   0.104   0.035   1.471  1.2054  0.0898 -0.4107
  844SOL     OW 2530   0.786   2.508   0.307 -0.2533 -0.3771 -0.1546
  844SOL    HW1 2531   0.768   2.461   0.394 -1.7102  1.1463 -1.2412
  844SOL    HW2 2532   0.703   2.540   0.258 -0.8490 -1.4537  2.7451
  845SOL     OW 2533   1.632   2.865   1.376  0.0483 -0.5455 -0.3047
  845SOL    HW1 2534   1.713   2.879   1.444  0.8565 -2.6383  1.4580
  845SOL    HW2 2535   1.538   2.896   1.407 -0.0925 -0.9673  0.2084
  846SOL     OW 2536   1.595   2.978   0.838  1.2420  0.2835  0.1776
  846SOL    HW1 2537   1.552   2.965   0.744  1.7251  1.7966 -0.7818
  846SOL    HW2 2538   1.692   3.013   0.831  0.3274 -3.0726 -3.4115
  847SOL     OW 2539   2.031   1.642   0.251 -0.0326 -0.1052 -0.1634
  847SOL    HW1 2540   2.013   1.578   0.333 -0.1317 -4.0548 -1.2228
  847SOL    HW2 2541   1.946   1.704   0.226 -0.2816  2.3651 -0.0644
  848SOL     OW 2542   2.505   0.781   2.645  0.2549  0.4427 -0.0817
  848SOL    HW1 2543   2.495   0.885   2.655  0.3580  1.9495  3.8672
  848SOL    HW2 2544   2.457   0.740   2.567 -1.3868  0.5160  2.0797
  849SOL     OW 2545   2.520   0.844   2.326 -1.0150  0.0613  0.0971
  849SOL    HW1 2546   2.597   0.818   2.260 -2.0786  1.3459 -0.4156
  849SOL    HW2 2547   2.459   0.765   2.349 -0.4465 -0.1985 -0.9023
  850SOL     OW 2548   1.513   0.116   1.340  0.0924 -0.6262 -0.0654
  850SOL    HW1 2549   1.535   0.117   1.235 -1.6147  2.3423 -3.3387
  850SOL    HW2 2550   1.474   0.024   1.373 -1.6060  0.2140 -0.3688
  851SOL     OW 2551   0.472   1.742   0.627 -0.1568 -0.2978  0.5467
  851SOL    HW1 2552   0.485   1.845   0.642  1.2947 -2.5802 -0.4436
  851SOL    HW2 2553   0.561   1.693   0.611 -1.6446 -1.2511 -0.9127
  852SOL     OW 2554   0.796   2.164   1.686 -0.0992 -0.1238  0.0648
  852SOL    HW1 2555   0.757   2.244   1.625  0.7088  1.5703  1.0930
  852SOL    HW2 2556   0.744   2.157   1.776  0.4532 -3.5558  1.3945
  853SOL     OW 2557   2.488   1.568   2.613 -0.1258  0.3308  0.4417
  853SOL    HW1 2558   2.464   1.474   2.575 -1.6913 -1.6152  1.1492
  853SOL    HW2 2559   2.550   1.629   2.556 -1.9883 -0.4811  0.5286
  854SOL     OW 2560   2.521   1.349   1.744  0.2154 -0.6775  0.6442
  854SOL    HW1 2561   2.526   1.337   1.642 -2.6034  0.0519 -0.4057
  854SOL    HW2 2562   2.535   1.261   1.796  0.9167  1.2536  0.8385
  855SOL     OW 2563   2.104   2.348   0.964 -0.0082 -0.3659  0.6460
  855SOL    HW1 2564   2.128   2.428   0.905  0.2047 -0.5514  1.1105
  855SOL    HW2 2565   2.174   2.323   1.032 -0.2921  2.0511 -1.7355
  856SOL     OW 2566   1.352   1.486   0.854 -0.6188 -0.3068  0.2442
  856SOL    HW1 2567   1.419   1.552   0.894 -1.6147 -1.8573 -0.7152
  856SOL    HW2 2568   1.253   1.509   0.891 -0.1230  0.9266  1.3681
  857SOL     OW 2569   2.967   2.663   1.029 -0.3134 -0.0612  0.1189
  857SOL    HW1 2570   2.882   2.607   1.039  0.3370  1.7145 -0.4700
  857SOL    HW2 2571   3.056   2.606   1.040 -1.8664  0.4705 -0.3250
  858SOL     OW 2572   2.289   2.048   1.718  0.5511  0.7802 -0.1594
  858SOL    HW1 2573   2.196   2.087   1.681 -2.8895 -0.6647  0.6335
  858SOL    HW2 2574   2.333   1.972   1.661 -1.5234  0.4991  1.2158
  859SOL     OW 2575   2.451   0.549   1.025 -0.5325 -0.0411 -0.1241
  859SOL    HW1 2576   2.520   0.602   0.961 -0.9540  1.0939  1.2168
  859SOL    HW2 2577   2.488   0.465   1.074 -0.5025  2.8170 -0.3361
  860SOL     OW 2578   1.930   2.830   0.445 -0.1557  0.2207  0.5337
  860SOL    HW1 2579   1.886   2.767   0.376  0.7323  0.6411  2.5136
  860SOL    HW2 2580   2.021   2.850   0.406  3.0775 -0.0333 -0.5703
  861SOL     OW 2581   1.071   2.544   2.838  0.1922  0.3240 -0.0134
  861SOL    HW1 2582   1.140   2.616   2.802  0.0326 -0.0554  3.0379
  861SOL    HW2 2583   1.076   2.531   2.943  0.2206  0.1475 -0.8891
  862SOL     OW 2584   2.845   2.533   1.591 -0.2557 -0.3124 -0.2919
  862SOL    HW1 2585   2.906   2.545   1.676  1.8728 -0.8406 -0.9414
  862SOL    HW2 2586   2.828   2.625   1.553 -2.1969 -1.4370 -1.8199
  863SOL     OW 2587   1.835   2.691   0.178  0.3595 -0.1825 -0.1032
  863SOL    HW1 2588   1.898   2.603   0.165 -1.5888 -3.4043 -1.5781
  863SOL    HW2 2589   1.736   2.670   0.198 -0.3003  2.3551 -0.3923
  864SOL     OW 2590   1.873   1.172   2.867 -0.1677 -0.0532  0.2553
  864SOL    HW1 2591   1.891   1.145   2.768 -1.4603 -1.0668  0.2961
  864SOL    HW2 2592   1.946   1.130   2.932  0.5702 -2.8856 -0.9373
  865SOL     OW 2593   2.205   1.834   0.607 -0.3715 -0.2100  0.3475
  865SOL    HW1 2594   2.243   1.843   0.705  0.7092  1.8979  0.6912
  865SOL    HW2 2595   2.115   1.779   0.601  0.3511 -0.0413  0.7707
  866SOL     OW 2596   2.968   2.911   0.976 -0.5513 -0.0455 -0.6696
  866SOL    HW1 2597   3.029   2.934   0.899 -1.1369  1.9838 -0.7082
  866SOL    HW2 2598   2.971   2.805   0.993  0.3063 -0.3376 -1.5575
  867SOL     OW 2599   0.352   1.378   0.917 -0.5596  0.3227  0.7434
  867SOL    HW1 2600   0.337   1.306   0.844  0.4147  4.3406 -0.2739
  867SOL    HW2 2601   0.287   1.460   0.911 -2.1803  2.0881  1.3914
  868SOL     OW 2602   0.725   1.872   2.023  0.4571  0.1715 -0.2439
  868SOL    HW1 2603   0.739   1.865   2.127  1.0783  0.2625  0.2343
  868SOL    HW2 2604   0.692   1.966   1.993 -0.2441 -1.6843  1.2005
  869SOL     OW 2605   2.533   1.944   1.592  0.1326 -0.3236 -0.1034
  869SOL    HW1 2606   2.629   1.983   1.572 -0.0172  2.5498  1.4542
  869SOL    HW2 2607   2.536   1.857   1.648 -2.1116  1.0408 -0.7113
  870SOL     OW 2608   2.314   2.662   1.278 -0.0214  0.1875 -0.4006
  870SOL    HW1 2609   2.293   2.564   1.251 -0.9649  0.6066 -0.2547
  870SOL    HW2 2610   2.254   2.692   1.357 -2.1958 -1.4962  3.8696
  871SOL     OW 2611   2.977   2.126   0.556 -0.0862 -0.5000  0.3839
  871SOL    HW1 2612   2.931   2.174   0.635 -0.6538 -1.5126 -0.9281
  871SOL    HW2 2613   2.916   2.065   0.493 -3.8326  1.2333 -0.8158
  872SOL     OW 2614   2.121   0.473   1.671 -0.2317  0.2353 -0.4424
  872SOL    HW1 2615   2.073   0.453   1.757  3.3374 -1.0865 -0.4954
  872SOL    HW2 2616   2.220   0.446   1.676 -0.3992 -1.2595 -1.6362
  873SOL     OW 2617   1.728   2.082   3.046  0.5778 -0.5402  0.0424
  873SOL    HW1 2618   1.660   2.134   3.107 -0.4235  0.2568 -2.1199
  873SOL    HW2 2619   1.696   2.085   2.945 -0.0313 -1.8863 -0.8310
  874SOL     OW 2620   0.665   2.460   0.806 -0.3613  0.7957  0.2280
  874SOL    HW1 2621   0.656   2.552   0.849 -2.4616  1.5564 -0.8364
  874SOL    HW2 2622   0.764   2.416   0.815  1.4997  0.3510  0.5561
  875SOL     OW 2623   2.261   1.527   1.439 -0.1481 -1.1235 -0.0820
  875SOL    HW1 2624   2.336   1.585   1.483  0.5714  3.8169  1.2595
  875SOL    HW2 2625   2.282   1.501   1.342 -0.1401 -1.9507  1.4982
  876SOL     OW 2626   0.078   2.253   2.740  0.4648 -0.2103 -0.2034
  876SOL    HW1 2627   0.124   2.178   2.802  0.0814  1.0014 -1.9159
  876SOL    HW2 2628   0.113   2.348   2.762 -1.2641 -1.9120 -3.2387
  877SOL     OW 2629   2.887   2.703   0.558 -0.0562  0.0163 -0.3216
  877SOL    HW1 2630   2.855   2.780   0.621 -2.0082 -2.4664 -2.3832
  877SOL    HW2 2631   2.945   2.633   0.603  0.7569 -0.2039 -0.3456
  878SOL     OW 2632   2.806   1.545   2.183 -0.0865  0.7963  0.1461
  878SOL    HW1 2633   2.907   1.516   2.185 -1.7178 -0.8685 -1.7348
  878SOL    HW2 2634   2.774   1.578   2.275 -0.6093 -0.8955 -0.0144
  879SOL     OW 2635   2.368   0.061   1.152  0.1471 -0.3670  0.1120
  879SOL    HW1 2636   2.420  -0.028   1.149  1.3810 -1.0822 -1.0365
  879SOL    HW2 2637   2.274   0.051   1.107  0.7863 -3.2034 -1.6416
  880SOL     OW 2638   0.679   0.491   2.237 -0.7079 -0.1651 -0.0277
  880SOL    HW1 2639   0.618   0.438   2.305 -0.3219 -0.6007  2.3668
  880SOL    HW2 2640   0.743   0.428   2.181  0.1470 -2.7689  0.6556
  881SOL     OW 2641   0.901   0.059   0.478  0.0372 -0.0997  0.4640
  881SOL    HW1 2642   0.944  -0.030   0.515 -0.9661 -0.0590 -0.9703
  881SOL    HW2 2643   0.811   0.053   0.421  0.8260  0.2325  0.9404
  882SOL     OW 2644   2.721   1.712   1.657  0.2170 -0.3016 -0.1129
  882SOL    HW1 2645   2.813   1.678   1.619 -2.2962 -1.9865  0.6033
  882SOL    HW2 2646   2.723   1.696   1.763 -1.1566  0.5384  2.1487
  883SOL     OW 2647   0.878   0.616   0.978  0.0374  0.1772 -0.2306
  883SOL    HW1 2648   0.882   0.709   1.021 -1.7070  2.0007  1.2398
  883SOL    HW2 2649   0.906   0.538   1.040 -1.0361  0.6270 -0.0468
  884SOL     OW 2650   1.176   1.783   1.156 -0.1839  0.1560 -0.5118
  884SOL    HW1 2651   1.159   1.690   1.111  1.7017 -2.6009 -1.3150
  884SOL    HW2 2652   1.128   1.866   1.120 -1.4977 -3.6608  1.2694
  885SOL     OW 2653   2.359   1.813   2.293 -0.1061 -0.2713 -0.1126
  885SOL    HW1 2654   2.276   1.758   2.331 -2.6885  1.9153  0.8646
  885SOL    HW2 2655   2.343   1.916   2.297 -2.5826  2.1012  1.8972
  886SOL     OW 2656   2.588   0.413   1.802 -0.0772  0.3674  0.4509
  886SOL    HW1 2657   2.619   0.359   1.885 -0.2091  1.4592  1.4719
  886SOL    HW2 2658   2.640   0.501   1.798  0.4451 -1.1514 -0.4653
  887SOL     OW 2659   0.105   2.026   1.267  0.2998 -0.4947 -0.5816
  887SOL    HW1 2660   0.034   1.985   1.200 -2.0322  1.6542 -1.4885
  887SOL    HW2 2661   0.103   2.128   1.274 -0.6374  1.1897  0.8317
  888SOL     OW 2662   0.579   1.309   1.556 -0.1578  0.6527  0.5065
  888SOL    HW1 2663   0.627   1.331   1.467 -1.8756  0.9960  0.8312
  888SOL    HW2 2664   0.543   1.211   1.557  1.4648  2.7588  1.1522
  889SOL     OW 2665   0.807   2.521   2.162  0.8324  0.6604  0.2753
  889SOL    HW1 2666   0.754   2.432   2.181 -2.0173  2.6655 -1.5864
  889SOL    HW2 2667   0.877   2.518   2.084 -3.7974 -1.0577  0.6996
  890SOL     OW 2668   2.404   2.455   0.206 -0.4605 -0.0939 -0.1973
  890SOL    HW1 2669   2.456   2.508   0.133  0.6053  0.2850  0.0755
  890SOL    HW2 2670   2.351   2.514   0.271 -1.9923  0.4211 -0.6605
  891SOL     OW 2671   2.602   1.672   0.764  0.1521 -0.6156  0.3676
  891SOL    HW1 2672   2.597   1.730   0.851  2.4445  0.8778 -2.9692
  891SOL    HW2 2673   2.531   1.595   0.768 -0.3540 -0.7934 -2.2576
  892SOL     OW 2674   0.378   0.241   2.142 -0.0624 -0.4613 -0.0416
  892SOL    HW1 2675   0.359   0.338   2.104 -0.0613 -1.0016  1.5298
  892SOL    HW2 2676   0.412   0.240   2.240  0.5257 -0.2387 -1.0215
  893SOL     OW 2677   1.670   0.259   2.741 -0.3442 -0.2118 -0.1967
  893SOL    HW1 2678   1.744   0.330   2.763  1.4053 -0.4481  0.3181
  893SOL    HW2 2679   1.574   0.296   2.757  0.5090 -1.3574  0.3640
  894SOL     OW 2680   2.186   1.995   0.003  0.3676 -0.1121  0.8009
  894SOL    HW1 2681   2.151   1.943  -0.084 -0.1699  0.7986  1.9136
  894SOL    HW2 2682   2.191   1.931   0.082  2.8621  0.9577  0.7999
  895SOL     OW 2683   2.842   1.421   0.920  0.2446  0.1440 -0.7842
  895SOL    HW1 2684   2.935   1.374   0.919  2.9468  1.2701  1.9712
  895SOL    HW2 2685   2.840   1.517   0.896 -1.2566 -0.7951  3.3397
  896SOL     OW 2686   1.813   1.836   1.210  0.3363  0.4240  0.2838
  896SOL    HW1 2687   1.871   1.809   1.128 -1.2789 -0.3276 -1.2277
  896SOL    HW2 2688   1.735   1.900   1.185 -1.3394  1.1754 -0.8666
  897SOL     OW 2689   0.310   0.586   0.040 -0.8333 -0.5044 -0.3377
  897SOL    HW1 2690   0.263   0.626  -0.044  2.5161  0.0896 -1.0412
  897SOL    HW2 2691   0.415   0.595   0.044  0.1658  2.5342 -2.0915
  898SOL     OW 2692   0.576   2.886   1.108  0.0735 -0.5469 -0.0620
  898SOL    HW1 2693   0.524   2.974   1.136 -1.5516 -0.4971 -0.3271
  898SOL    HW2 2694   0.647   2.855   1.179 -1.5076  0.4476 -0.3161
  899SOL     OW 2695   2.778   0.894   1.279 -0.2827 -0.1826  0.3448
  899SOL    HW1 2696   2.710   0.903   1.199  1.6701  0.2781 -0.4466
  899SOL    HW2 2697   2.869   0.865   1.238 -1.3333 -1.6281 -0.1329
  900SOL     OW 2698   1.044   2.574   2.373 -0.2188 -0.1992 -0.0563
  900SOL    HW1 2699   0.981   2.601   2.290  0.3680  2.2763 -1.8196
  900SOL    HW2 2700   0.996   2.555   2.461 -0.0490  4.2122  0.1414
  901SOL     OW 2701   1.907   2.357   1.340 -0.3641  0.1088  0.3643
  901SOL    HW1 2702   1.873   2.317   1.246 -0.4514 -1.0491 -0.3541
  901SOL    HW2 2703   1.983   2.301   1.388  0.7409 -0.8309  2.3493
  902SOL     OW 2704   2.537   1.653   1.452 -0.5741  0.2012  0.0340
  902SOL    HW1 2705   2.588   1.689   1.532 -0.4355  0.0227 -0.0783
  902SOL    HW2 2706   2.603   1.625   1.380 -2.2395  0.7842  1.3942
  903SOL     OW 2707   0.265   2.480   1.985 -0.2650 -0.2090 -0.0076
  903SOL    HW1 2708   0.180   2.447   1.933  0.5358  0.6586 -1.6902
  903SOL    HW2 2709   0.303   2.560   1.939 -2.5758  0.4760  0.3511
  904SOL     OW 2710   2.075   0.766   2.488 -0.1505 -0.7892 -0.5143
  904SOL    HW1 2711   1.996   0.730   2.545  3.0555  0.3984  0.3698
  904SOL    HW2 2712   2.045   0.783   2.389 -2.0269 -1.8713 -2.2735
  905SOL     OW 2713   2.796   0.069   2.567  0.9109  0.0234 -0.0345
  905SOL    HW1 2714   2.847  -0.020   2.564 -0.3903 -1.1215 -1.9183
  905SOL    HW2 2715   2.857   0.149   2.548 -1.1398 -0.1869  0.4676
  906SOL     OW 2716   0.152   1.750   1.881 -0.1841  0.2303 -0.2673
  906SOL    HW1 2717   0.088   1.772   1.803  1.2545  0.3275 -1.6576
  906SOL    HW2 2718   0.240   1.800   1.878 -2.8200  1.6698 -2.6340
  907SOL     OW 2719   0.147   2.420   0.996 -0.8040 -0.6136 -0.2541
  907SOL    HW1 2720   0.239   2.411   0.947 -0.1188  0.9898  3.1974
  907SOL    HW2 2721   0.103   2.326   1.006  1.7607  1.0414 -3.0801
  908SOL     OW 2722   2.698   2.959   0.369 -0.4752 -0.4662 -0.1329
  908SOL    HW1 2723   2.686   3.017   0.284  1.4172  1.0425  2.1738
  908SOL    HW2 2724   2.796   2.920   0.368  1.8741 -1.6326  0.6856
  909SOL     OW 2725   0.759   1.034   2.658 -0.1356  0.1225  0.5611
  909SOL    HW1 2726   0.710   0.945   2.629  1.0024  0.6941  2.6784
  909SOL    HW2 2727   0.843   1.059   2.598  0.9914  0.1620  2.5907
  910SOL     OW 2728   1.724   1.845   2.149  0.8196 -0.4566 -0.1206
  910SOL    HW1 2729   1.758   1.884   2.058  0.9412 -0.1003  2.5601
  910SOL    HW2 2730   1.640   1.902   2.182  0.1993  1.1972 -2.3413
  911SOL     OW 2731   1.834   2.921   1.544  0.7017  0.3445 -0.0391
  911SOL    HW1 2732   1.927   2.908   1.506  1.4165  0.9948  0.0154
  911SOL    HW2 2733   1.821   2.875   1.638  1.1536  0.4629  1.1957
  912SOL     OW 2734   2.898   0.978   0.723  0.2375  0.2765  0.4684
  912SOL    HW1 2735   2.900   0.944   0.819 -0.7131 -0.2491  1.1064
  912SOL    HW2 2736   2.861   1.076   0.724  0.8497  0.6544 -3.0223
  913SOL     OW 2737   2.564   1.294   1.472 -0.4171 -0.2505  0.3810
  913SOL    HW1 2738   2.590   1.195   1.459 -1.1712  0.0964 -0.2161
  913SOL    HW2 2739   2.615   1.351   1.407  0.4748  0.9657  0.9882
  914SOL     OW 2740   2.914   0.563   1.217 -0.1187  0.0476  0.1526
  914SOL    HW1 2741   2.975   0.480   1.243  0.7300 -0.1939  0.3844
  914SOL    HW2 2742   2.835   0.592   1.277  1.4350  0.4852  0.2853
  915SOL     OW 2743   1.236   0.771   1.076  0.2621  0.1910  0.1161
  915SOL    HW1 2744   1.252   0.723   1.161 -1.1028  0.8614 -1.7267
  915SOL    HW2 2745   1.137   0.793   1.060 -0.6543 -2.9451 -0.4782
  916SOL     OW 2746   0.596   0.028   0.678 -0.2374 -0.3185  0.0545
  916SOL    HW1 2747   0.631   0.117   0.716  1.6088 -1.1796  1.0876
  916SOL    HW2 2748   0.588   0.032   0.574 -2.4265  2.6433 -0.4661
  917SOL     OW 2749   2.846   2.619   1.946  0.2431 -0.0402  0.0751
  917SOL    HW1 2750   2.759   2.667   1.975 -1.6554  1.3407  1.5287
  917SOL    HW2 2751   2.919   2.678   1.905  1.0514 -0.1667  1.1931
  918SOL     OW 2752   1.038   2.205   2.964 -0.0374  0.2842 -0.5004
  918SOL    HW1 2753   1.013   2.216   3.068 -0.7412  1.2874 -0.7513
  918SOL    HW2 2754   1.127   2.154   2.938  0.3668  0.0029  0.4232
  919SOL     OW 2755   0.854   1.675   2.802  0.2320 -0.0455  0.0565
  919SOL    HW1 2756   0.896   1.738   2.732 -1.1749 -0.6461  0.2968
  919SOL    HW2 2757   0.825   1.588   2.760  1.5680 -1.3072  2.9405
  920SOL     OW 2758   1.236   1.870   2.443  0.3706 -0.4772  0.3913
  920SOL    HW1 2759   1.320   1.842   2.384 -2.1336  0.2717 -0.8614
  920SOL    HW2 2760   1.234   1.827   2.538  1.4470  1.4647  0.9471
  921SOL     OW 2761   1.047   0.017   2.612  0.4954 -0.0565  0.0399
  921SOL    HW1 2762   1.027   0.005   2.513  2.8004 -0.7217  0.2319
  921SOL    HW2 2763   0.989  -0.041   2.675  1.2454  2.7856 -1.7687
  922SOL     OW 2764   2.156   2.397   2.782  0.6687  0.3850  0.4314
  922SOL    HW1 2765   2.174   2.301   2.816  0.2153  0.0241  1.0160
  922SOL    HW2 2766   2.089   2.396   2.708 -2.5712  0.2159  1.1537
  923SOL     OW 2767   1.215   2.673   0.265 -0.7655  0.0854  0.1451
  923SOL    HW1 2768   1.287   2.734   0.311  0.2797  0.7506  1.5595
  923SOL    HW2 2769   1.246   2.574   0.255  0.6357 -1.0936 -0.6956
  924SOL     OW 2770   2.906   1.522   0.118 -0.1710  0.3789 -0.2006
  924SOL    HW1 2771   2.815   1.497   0.077 -0.1307 -1.8992 -1.0067
  924SOL    HW2 2772   2.983   1.484   0.057  1.2998  1.2992 -0.3027
  925SOL     OW 2773   0.040   2.945   1.522 -0.0809  0.4016 -0.4834
  925SOL    HW1 2774  -0.045   2.952   1.576  0.6499  3.1484 -3.0658
  925SOL    HW2 2775   0.042   2.853   1.475 -0.2937 -2.1135  2.3513
  926SOL     OW 2776   1.320   2.829   1.215  0.1899 -0.2296  0.3091
  926SOL    HW1 2777   1.409   2.808   1.166  2.4552 -0.0764  1.1655
  926SOL    HW2 2778   1.333   2.894   1.296  1.1466  1.1787  0.0979
  927SOL     OW 2779   0.355   2.665   1.746  0.0524 -0.2644 -0.0134
  927SOL    HW1 2780   0.307   2.611   1.674  0.5895  1.6254  0.6363
  927SOL    HW2 2781   0.326   2.766   1.749  2.0237  1.8795  1.7027
  928SOL     OW 2782   1.543   2.070   2.252  0.0798 -0.1405 -0.4349
  928SOL    HW1 2783   1.579   2.144   2.190 -0.8272 -1.4206  1.7845
  928SOL    HW2 2784   1.439   2.039   2.233 -0.5710 -1.7834  0.6775
  929SOL     OW 2785   2.458   2.462   2.903  0.5783 -0.1278  0.5545
  929SOL    HW1 2786   2.359   2.464   2.921  1.1512 -0.4641 -0.5115
  929SOL    HW2 2787   2.482   2.455   2.800 -0.5736 -1.2709  0.7273
  930SOL     OW 2788   2.185   1.961   1.049 -0.5091 -0.1528 -0.6034
  930SOL    HW1 2789   2.151   1.935   1.141  1.5990 -0.8134 -1.2738
  930SOL    HW2 2790   2.249   2.046   1.058  0.4701 -1.6063 -0.5026
  931SOL     OW 2791   0.557   1.712   2.705 -0.0503 -0.2813  0.2971
  931SOL    HW1 2792   0.612   1.762   2.774  3.1590 -2.1991 -0.3151
  931SOL    HW2 2793   0.602   1.623   2.701  2.8691  2.3081  0.6975
  932SOL     OW 2794   0.435   0.093   2.963 -0.1711 -0.7679  0.2729
  932SOL    HW1 2795   0.539   0.120   2.964  2.1699 -0.0608 -1.5517
  932SOL    HW2 2796   0.427  -0.001   3.008  0.2861  4.1152  1.4878
  933SOL     OW 2797   1.038   0.774   3.051  0.1969  0.0017  0.0818
  933SOL    HW1 2798   1.050   0.842   3.127  0.2776 -0.2365  0.9855
  933SOL    HW2 2799   0.995   0.821   2.965 -1.6946  2.3382 -0.2551
  934SOL     OW 2800   0.826   2.920   2.658  0.6249 -0.1045  0.3178
  934SOL    HW1 2801   0.826   2.868   2.569  0.3862  1.6211 -2.0455
  934SOL    HW2 2802   0.890   2.896   2.733  0.2266  0.4102 -0.4035
  935SOL     OW 2803   0.017   0.556   0.852  0.2812 -0.1855  0.0816
  935SOL    HW1 2804   0.007   0.525   0.752  3.0829  2.2842 -0.7986
  935SOL    HW2 2805  -0.056   0.618   0.878  0.5827 -1.5756 -2.6453
  936SOL     OW 2806   1.103   2.860   0.085 -0.2612  0.5245  0.0084
  936SOL    HW1 2807   1.154   2.908   0.016 -2.9952 -0.8952 -0.6938
  936SOL    HW2 2808   1.161   2.810   0.155 -0.2956 -0.8149  0.6991
  937SOL     OW 2809   1.956   2.629   2.095 -0.2070 -0.4259 -0.1657
  937SOL    HW1 2810   1.915   2.714   2.144  1.3542  1.0420  3.0383
  937SOL    HW2 2811   2.024   2.660   2.021 -0.4048  1.3573  4.2600
  938SOL     OW 2812   2.775   2.059   1.535 -0.0561 -0.7038 -0.5427
  938SOL    HW1 2813   2.726   2.152   1.561 -2.3251 -0.0545  0.0666
  938SOL    HW2 2814   2.868   2.054   1.583 -1.8828  2.4700  1.8153
  939SOL     OW 2815   2.787   1.211   2.491 -0.0651 -0.1480 -0.6486
  939SOL    HW1 2816   2.876   1.194   2.443 -1.9947 -1.1365 -2.7998
  939SOL    HW2 2817   2.782   1.166   2.581  0.1057  3.8066  2.1054
  940SOL     OW 2818   1.018   0.465   2.737 -0.4932  0.0656  0.0822
  940SOL    HW1 2819   1.063   0.374   2.762  0.0991  3.4691  1.4291
  940SOL    HW2 2820   0.934   0.455   2.677  0.8126  4.5291  1.1250
  941SOL     OW 2821   0.060   2.823   2.275 -0.1315  0.4558  0.4228
  941SOL    HW1 2822   0.096   2.729   2.252  1.0459 -4.0780 -1.8981
  941SOL    HW2 2823   0.115   2.857   2.357  2.4451  0.7679 -0.1898
  942SOL     OW 2824   0.066   0.074   2.470 -0.2907  0.7271 -0.3003
  942SOL    HW1 2825   0.115   0.124   2.544 -1.7204 -1.4822 -0.2186
  942SOL    HW2 2826   0.062   0.128   2.381 -0.3745 -0.9929  2.1050
  943SOL     OW 2827   2.120   1.723   2.406 -0.3894 -0.3880  0.0670
  943SOL    HW1 2828   2.119   1.654   2.326  0.7273 -0.2387  1.0713
  943SOL    HW2 2829   2.092   1.684   2.494  1.6996  0.8748 -2.4031
  944SOL     OW 2830   2.177   2.358   1.465 -0.2154  0.1845 -0.0676
  944SOL    HW1 2831   2.236   2.437   1.495 -1.1720  0.8544 -2.8901
  944SOL    HW2 2832   2.155   2.283   1.536 -2.4835 -0.5150 -1.2954
  945SOL     OW 2833   0.718   1.490   0.282  0.1705 -0.2097  0.0334
  945SOL    HW1 2834   0.653   1.514   0.205 -1.1635  1.1512  4.6785
  945SOL    HW2 2835   0.740   1.389   0.292  0.6851  1.7147  0.3286
  946SOL     OW 2836   0.396   0.931   2.459 -0.4844 -0.2973  0.5181
  946SOL    HW1 2837   0.308   0.895   2.425 -0.0122 -2.1334  2.0116
  946SOL    HW2 2838   0.387   1.009   2.528  0.7138  1.6441 -2.4118
  947SOL     OW 2839   1.552   0.459   0.015  0.1681 -0.0948  0.9173
  947SOL    HW1 2840   1.496   0.514  -0.056  0.8413  0.7330 -2.4066
  947SOL    HW2 2841   1.502   0.380   0.049  4.6979  1.7947 -0.3561
  948SOL     OW 2842   1.952   3.056   2.145  0.1532  0.4238  0.2740
  948SOL    HW1 2843   1.953   2.996   2.056  2.5535 -1.4127 -2.6263
  948SOL    HW2 2844   1.931   3.005   2.231  3.3269 -0.2101  0.3804
  949SOL     OW 2845   0.559   2.487   0.534  0.5288  0.0416 -0.0097
  949SOL    HW1 2846   0.582   2.578   0.482 -1.0824  2.4280 -1.5532
  949SOL    HW2 2847   0.586   2.480   0.639 -0.8924 -1.7792  2.2650
  950SOL     OW 2848   0.212   2.181   3.036 -0.6831 -0.7125  0.3046
  950SOL    HW1 2849   0.129   2.246   3.020  1.1480  1.3620 -1.0979
  950SOL    HW2 2850   0.216   2.107   2.965  0.7284  1.2999  0.7126
  951SOL     OW 2851   1.220   2.740   2.733 -1.1120  0.8893 -0.1960
  951SOL    HW1 2852   1.296   2.783   2.678  1.2627  0.7034 -2.0857
  951SOL    HW2 2853   1.143   2.806   2.752  0.0446  0.0141  0.8408
  952SOL     OW 2854   0.016   1.708   0.435  0.2312 -0.4795  0.6706
  952SOL    HW1 2855   0.079   1.795   0.446  2.3549 -4.0163  2.1022
  952SOL    HW2 2856   0.039   1.631   0.500  2.6009  0.5071  0.7997
  953SOL     OW 2857   2.471   1.762   0.274 -0.0284  0.0385 -0.0001
  953SOL    HW1 2858   2.502   1.664   0.278  0.6272  2.0452  0.5585
  953SOL    HW2 2859   2.499   1.804   0.184  1.2627  2.9118 -1.0241
  954SOL     OW 2860   2.185   0.550   0.959 -0.4231 -0.2583 -0.5586
  954SOL    HW1 2861   2.187   0.576   0.859 -0.6596 -1.3188  1.3283
  954SOL    HW2 2862   2.280   0.530   0.993 -1.9941  0.3574 -0.2510
  955SOL     OW 2863   0.191   2.624   1.289  0.2842  0.3498  0.1393
  955SOL    HW1 2864   0.099   2.671   1.291 -1.2942  0.1095 -0.8698
  955SOL    HW2 2865   0.255   2.654   1.207 -1.6371 -3.5562 -0.1634
  956SOL     OW 2866   2.746   2.444   2.441 -0.4378  0.7465 -0.2519
  956SOL    HW1 2867   2.778   2.342   2.447  1.2080 -1.8389  3.2538
  956SOL    HW2 2868   2.742   2.488   2.349 -1.8167 -1.6062  0.2231
  957SOL     OW 2869   1.586   2.070   2.787 -0.0581 -0.2471 -0.1592
  957SOL    HW1 2870   1.562   1.975   2.814  0.2253  0.1878 -0.2289
  957SOL    HW2 2871   1.593   2.088   2.685 -1.0529  2.2431 -0.0702
  958SOL     OW 2872   2.639   2.302   2.992  0.1863  0.0562 -0.5518
  958SOL    HW1 2873   2.559   2.356   2.948 -1.0581 -0.8399  0.2481
  958SOL    HW2 2874   2.606   2.265   3.086 -1.5375 -1.1692  1.0169
  959SOL     OW 2875   0.261   2.796   0.086 -0.0346  0.0554 -0.0164
  959SOL    HW1 2876   0.165   2.793   0.047  2.0149  1.1808 -1.7288
  959SOL    HW2 2877   0.280   2.719   0.155 -0.9555 -2.2675 -0.0111
  960SOL     OW 2878   1.987   0.444   1.947 -0.7507 -0.5387 -0.8955
  960SOL    HW1 2879   1.926   0.522   1.913  1.6318  0.7698  0.2201
  960SOL    HW2 2880   1.979   0.441   2.052 -0.7259 -0.3301  2.0746
  961SOL     OW 2881   2.578   1.811   0.997 -0.0216 -0.4189  1.4827
  961SOL    HW1 2882   2.572   1.909   0.972  2.1361 -0.0893 -0.6151
  961SOL    HW2 2883   2.535   1.784   1.086  0.3147  3.3040  2.1835
  962SOL     OW 2884   1.307   0.883   0.076 -0.5055  0.0587 -0.5135
  962SOL    HW1 2885   1.313   0.958   0.005 -3.8727 -0.7513  2.0631
  962SOL    HW2 2886   1.278   0.914   0.170 -1.2466  0.9374 -1.2538
  963SOL     OW 2887   2.212   2.554   1.860  0.2747 -0.4809 -0.2431
  963SOL    HW1 2888   2.220   2.460   1.911 -0.3511 -0.8717 -0.2999
  963SOL    HW2 2889   2.248   2.633   1.921  1.4556  0.5305  4.0192
  964SOL     OW 2890   2.368   0.366   1.641 -0.1395  0.3004 -0.1511
  964SOL    HW1 2891   2.448   0.406   1.699  0.9865 -2.2921  2.1747
  964SOL    HW2 2892   2.394   0.358   1.538  3.2822  0.8994 -0.1974
  965SOL     OW 2893   2.631   3.058   0.125 -0.4978  0.0197  0.4542
  965SOL    HW1 2894   2.692   3.032   0.048  0.4537  0.0610  0.7153
  965SOL    HW2 2895   2.534   3.089   0.108  2.5452 -0.9298 -0.0550
  966SOL     OW 2896   2.514   2.485   2.209 -0.7467 -0.1855 -0.0799
  966SOL    HW1 2897   2.459   2.537   2.276 -0.2078 -0.3493 -0.1791
  966SOL    HW2 2898   2.473   2.497   2.115  0.0571  0.7150  0.7568
  967SOL     OW 2899   2.805   2.788   2.504  0.4521 -0.2918  0.0870
  967SOL    HW1 2900   2.839   2.704   2.454  0.4944  0.7039 -1.9707
  967SOL    HW2 2901   2.860   2.873   2.489 -1.7860 -1.5963  1.7915
  968SOL     OW 2902   1.944   1.000   2.618  0.7480  0.7116 -0.1248
  968SOL    HW1 2903   1.862   1.032   2.560 -3.3085  2.1802  1.7546
  968SOL    HW2 2904   2.009   0.925   2.576  0.0233  0.2355  2.1764
  969SOL     OW 2905   2.786   2.456   1.065 -0.5944 -0.2405  0.3268
  969SOL    HW1 2906   2.744   2.435   0.971 -0.5314 -0.6173 -1.4368
  969SOL    HW2 2907   2.819   2.371   1.117 -1.1215  0.5368  0.1287
  970SOL     OW 2908   1.037   2.128   1.774  0.2477 -0.2269  0.0904
  970SOL    HW1 2909   0.948   2.139   1.722  0.9779  0.5335  0.8875
  970SOL    HW2 2910   1.039   2.164   1.871 -2.0105  1.1654 -0.3077
  971SOL     OW 2911   2.860   2.067   1.864 -0.2269 -0.2604 -0.2089
  971SOL    HW1 2912   2.863   2.163   1.903 -2.8903  0.7219  0.7614
  971SOL    HW2 2913   2.925   2.042   1.793 -2.0692 -1.1511  2.4781
  972SOL     OW 2914   1.983   2.465   0.198 -0.6038 -0.5053 -0.5436
  972SOL    HW1 2915   1.996   2.384   0.130 -0.4506 -1.0561 -1.6060
  972SOL    HW2 2916   1.990   2.429   0.295  3.1153  3.2440  0.2206
  973SOL     OW 2917   1.297   1.066   1.874  0.1182  0.0287 -0.1576
  973SOL    HW1 2918   1.227   1.020   1.814 -2.6403 -0.0983  0.1558
  973SOL    HW2 2919   1.269   1.149   1.931  0.7923 -0.3562  0.3186
  974SOL     OW 2920   1.623   0.554   1.994  0.6613 -0.2839 -0.3425
  974SOL    HW1 2921   1.697   0.587   1.931  2.1929  1.9330  0.1705
  974SOL    HW2 2922   1.541   0.610   1.968 -0.3107  2.5778  0.5280
  975SOL     OW 2923   2.349   3.099   0.058 -0.4265 -0.8045 -0.5593
  975SOL    HW1 2924   2.294   3.032   0.116 -2.7909 -2.6111 -0.1999
  975SOL    HW2 2925   2.359   3.070  -0.041  0.8822  1.2379 -1.3285
  976SOL     OW 2926   1.911   2.842   2.323  0.0010  0.1591 -0.2785
  976SOL    HW1 2927   1.823   2.817   2.282  2.0286 -3.7301 -0.0444
  976SOL    HW2 2928   1.923   2.799   2.417  0.0161 -0.2637  0.0699
  977SOL     OW 2929   0.451   0.691   1.072 -0.2242  0.2733  0.1576
  977SOL    HW1 2930   0.374   0.744   1.034  1.6557 -0.5082  0.4283
  977SOL    HW2 2931   0.525   0.684   1.005 -0.9150  2.4795  1.1837
   3.10000   3.10000   3.10000
