1000 SPC/Fw water molecules t=   1.27000 step= 1270
 2931
    1SOL     OW    1   2.550   0.347   2.606 -0.2134  0.4051 -0.0176
    1SOL    HW1    2   2.542   0.240   2.589  1.7130 -1.9905 -0.9786
    1SOL    HW2    3   2.593   0.364   2.700  2.1716 -1.9434 -2.2488
    2SOL     OW    4   2.760   2.987   1.371 -0.1827 -0.0362 -0.1782
    2SOL    HW1    5   2.840   3.011   1.312 -0.8240  2.0334 -1.2052
    2SOL    HW2    6   2.735   3.065   1.435 -1.3669  1.3241  1.1273
    3SOL     OW    7   2.614   2.573   0.427 -0.2103 -0.4875 -0.3711
    3SOL    HW1    8   2.577   2.479   0.444 -0.0170  0.6250  1.1727
    3SOL    HW2    9   2.675   2.607   0.506 -0.2688 -1.4952 -1.1712
    4SOL     OW   10   1.250   1.523   2.393 -0.3199  0.0442  0.8459
    4SOL    HW1   11   1.175   1.546   2.320 -0.9619 -0.3616 -1.0178
    4SOL    HW2   12   1.274   1.423   2.396  0.8928 -0.8583  1.5605
    5SOL     OW   13   1.184   1.579   2.950  0.3125 -0.0759 -0.9864
    5SOL    HW1   14   1.245   1.660   2.968 -0.7458 -0.0427  0.5517
    5SOL    HW2   15   1.080   1.601   2.955 -1.2672 -0.3720 -2.8890
    6SOL     OW   16   0.277   1.826   3.034  0.4578  0.4935 -0.1648
    6SOL    HW1   17   0.172   1.837   3.054 -2.7446  0.5692  1.2774
    6SOL    HW2   18   0.338   1.806   3.122 -1.3252 -2.0155  0.8343
    7SOL     OW   19   2.525   0.833   1.065 -0.1699 -0.0334 -0.3520
    7SOL    HW1   20   2.442   0.785   1.105  1.6229 -1.3475  0.1269
    7SOL    HW2   21   2.525   0.825   0.961 -0.6659  1.6323  0.8925
    8SOL     OW   22   0.411   0.606   1.472 -0.5592 -0.0086  0.8132
    8SOL    HW1   23   0.504   0.564   1.488 -2.9572  1.1929 -1.3675
    8SOL    HW2   24   0.381   0.604   1.371 -1.1359  1.2089  0.6881
    9SOL     OW   25   1.177   0.842   2.422  0.6200  0.4758  0.5723
    9SOL    HW1   26   1.188   0.882   2.325  2.3949 -1.6502 -0.4911
    9SOL    HW2   27   1.133   0.747   2.422 -0.7517 -2.0106 -0.0993
   10SOL     OW   28   0.660   1.371   1.305  0.1753  0.3528 -0.0268
   10SOL    HW1   29   0.583   1.391   1.241  2.4493  0.3310  3.8395
   10SOL    HW2   30   0.712   1.462   1.320 -1.4819  2.3204  0.7882
   11SOL     OW   31   2.311   2.825   0.818  0.2296  0.1105 -0.1668
   11SOL    HW1   32   2.270   2.842   0.912 -2.3361  1.1461  1.5013
   11SOL    HW2   33   2.394   2.766   0.814 -2.1282  1.8734  0.7102
   12SOL     OW   34   1.484   0.809   0.435 -0.1029 -0.0443 -0.3551
   12SOL    HW1   35   1.448   0.879   0.364 -0.9201  1.8801  1.3894
   12SOL    HW2   36   1.555   0.744   0.392  0.8891  0.8838 -1.5416
   13SOL     OW   37   2.418   0.740   1.754 -0.3228  0.1115  0.1659
   13SOL    HW1   38   2.387   0.663   1.813  0.4119 -1.1573 -2.4047
   13SOL    HW2   39   2.421   0.704   1.654 -0.8092 -0.2892  2.0878
   14SOL     OW   40   1.900   0.063   0.664  0.5412 -0.3033 -0.5806
   14SOL    HW1   41   1.799   0.056   0.637  0.4607 -0.5897 -0.9880
   14SOL    HW2   42   1.927  -0.020   0.721  1.5091  0.8289  0.1948
   15SOL     OW   43   1.895   2.101   2.677  0.3207  0.0311 -0.3870
   15SOL    HW1   44   1.830   2.172   2.711 -0.4300  0.2607 -1.1229
   15SOL    HW2   45   1.864   2.003   2.694  0.5160 -0.4556 -1.7529
   16SOL     OW   46   1.593   1.701   3.000  0.5384 -0.0264 -0.0988
   16SOL    HW1   47   1.582   1.603   3.030 -1.1282 -1.3426  0.8873
   16SOL    HW2   48   1.684   1.739   3.021 -1.4763  1.5404  0.9184
   17SOL     OW   49   0.120   0.458   0.174  0.3575 -0.3605  0.1852
   17SOL    HW1   50   0.191   0.457   0.100 -0.5183 -2.4180  2.5714
   17SOL    HW2   51   0.027   0.477   0.142  1.9264 -1.0135  0.9273
   18SOL     OW   52   0.932   2.946   2.159 -0.3921 -0.1844  0.0064
   18SOL    HW1   53   0.870   2.867   2.180  2.9780  1.6316  2.9932
   18SOL    HW2   54   0.958   2.960   2.061  1.9957 -1.2864 -1.2016
   19SOL     OW   55   0.499   0.838   1.892  0.4060  0.0432 -0.0808
   19SOL    HW1   56   0.515   0.800   1.986 -0.6006 -2.4066 -0.6309
   19SOL    HW2   57   0.556   0.923   1.879 -0.6160 -2.3472  2.0593
   20SOL     OW   58   0.210   2.821   0.851  0.4375  0.0492 -0.3752
   20SOL    HW1   59   0.142   2.891   0.818 -2.7933 -3.1898 -0.4374
   20SOL    HW2   60   0.239   2.753   0.782  0.0581 -0.6812  1.8609
   21SOL     OW   61   2.736   0.253   1.952 -0.3141  0.0960 -0.6694
   21SOL    HW1   62   2.682   0.192   1.889  0.1802  0.0540  1.3822
   21SOL    HW2   63   2.815   0.200   1.997 -0.4307 -1.3243  2.4867
   22SOL     OW   64   2.335   0.190   0.134  0.0154 -0.3192 -0.8102
   22SOL    HW1   65   2.316   0.098   0.097  1.2876  2.1274  3.4710
   22SOL    HW2   66   2.298   0.265   0.080  0.9535 -1.0754 -0.0197
   23SOL     OW   67   2.817   0.564   0.674 -0.1813 -0.4951 -0.4861
   23SOL    HW1   68   2.820   0.485   0.607  2.4080 -0.4641  2.0709
   23SOL    HW2   69   2.815   0.654   0.628  0.3480 -1.4124  1.1230
   24SOL     OW   70   0.249   1.911   0.469  0.3635 -0.2481  0.5893
   24SOL    HW1   71   0.219   1.987   0.406  1.5137 -4.4647  0.5838
   24SOL    HW2   72   0.349   1.901   0.452  0.1741  0.1121 -2.1745
   25SOL     OW   73   2.216   0.632   0.184  0.0240  0.2800 -0.5427
   25SOL    HW1   74   2.244   0.653   0.084 -0.8839  0.3085 -0.4179
   25SOL    HW2   75   2.279   0.562   0.227  0.8116  0.8611 -1.5758
   26SOL     OW   76   2.456   2.150   2.063 -0.3540  0.0943  0.8153
   26SOL    HW1   77   2.532   2.195   2.114 -2.3613 -0.6619  0.8680
   26SOL    HW2   78   2.490   2.067   2.016 -1.6562  1.2256  0.8995
   27SOL     OW   79   0.654   2.911   0.287  0.0908  0.3861 -0.2485
   27SOL    HW1   80   0.723   2.982   0.257 -2.1922  0.0150  0.8148
   27SOL    HW2   81   0.598   2.881   0.204 -1.1636 -1.0155  0.2223
   28SOL     OW   82   1.564   0.130   0.316 -0.0620 -0.3409  0.4726
   28SOL    HW1   83   1.599   0.090   0.225 -0.9984 -1.2549 -1.3120
   28SOL    HW2   84   1.600   0.229   0.330 -0.7546 -0.1680 -0.1578
   29SOL     OW   85   1.949   0.564   0.286 -0.4803  0.0127  0.0929
   29SOL    HW1   86   1.895   0.616   0.358 -0.4716  0.4623 -2.1091
   29SOL    HW2   87   2.054   0.571   0.289 -1.7185 -4.2817 -2.1333
   30SOL     OW   88   0.191   2.080   0.892 -0.0740  0.0801 -0.2418
   30SOL    HW1   89   0.158   2.020   0.811  3.0177 -0.3098 -2.9347
   30SOL    HW2   90   0.124   2.153   0.928 -1.1025 -0.2574  0.5370
   31SOL     OW   91   2.127   0.098   2.400  0.7256  0.6244  0.5728
   31SOL    HW1   92   2.091   0.088   2.499 -0.3348 -0.1054  2.6925
   31SOL    HW2   93   2.069   0.044   2.329  1.7257  0.1046 -0.1615
   32SOL     OW   94   2.940   0.048   0.250 -0.2004  0.2388  0.3377
   32SOL    HW1   95   2.933  -0.055   0.269  2.4530 -0.9254  0.6376
   32SOL    HW2   96   3.025   0.089   0.281 -2.7104 -0.7662 -0.8847
   33SOL     OW   97   0.880   0.306   0.608  0.3287 -0.4868 -0.1946
   33SOL    HW1   98   0.903   0.211   0.570 -0.2066  1.2406  0.9730
   33SOL    HW2   99   0.963   0.365   0.610  0.8952 -2.1445 -0.4390
   34SOL     OW  100   0.335   2.719   1.112 -0.1560  0.4151 -0.4219
   34SOL    HW1  101   0.277   2.755   1.034  0.7530 -1.1253 -0.4943
   34SOL    HW2  102   0.434   2.745   1.106  0.1089  0.5659 -0.2926
   35SOL     OW  103   0.009   0.122   1.866  0.3928 -0.2353 -0.6123
   35SOL    HW1  104   0.072   0.041   1.881 -1.0500 -0.7887 -1.4552
   35SOL    HW2  105  -0.043   0.118   1.778  0.7016 -1.6985 -2.0484
   36SOL     OW  106   1.858   1.236   1.565 -0.6661  0.2078  0.2784
   36SOL    HW1  107   1.910   1.145   1.585  0.9680  0.8381  3.1549
   36SOL    HW2  108   1.913   1.319   1.536 -1.3196  0.8625  0.7375
   37SOL     OW  109   1.199   0.229   0.949 -0.0393 -0.2927  0.0186
   37SOL    HW1  110   1.250   0.311   0.997  0.2104 -2.5338 -0.4908
   37SOL    HW2  111   1.260   0.146   0.946  0.6653  1.5778 -0.8491
   38SOL     OW  112   1.158   2.853   2.349 -0.5108  0.4187 -0.6878
   38SOL    HW1  113   1.105   2.797   2.424  1.4150 -0.1426  0.8002
   38SOL    HW2  114   1.127   2.948   2.334  4.1489 -0.8905 -1.7695
   39SOL     OW  115   2.338   1.362   3.026  0.4683 -0.3989  0.0251
   39SOL    HW1  116   2.413   1.294   3.021  1.3927  1.6086 -0.5777
   39SOL    HW2  117   2.306   1.377   3.122 -0.1020 -0.2927  0.2452
   40SOL     OW  118   1.982   2.465   2.613  0.1591 -0.5996 -0.6929
   40SOL    HW1  119   1.981   2.564   2.577 -1.1056  2.2569 -0.0726
   40SOL    HW2  120   1.949   2.396   2.543  1.1701  0.6018  0.3064
   41SOL     OW  121   3.028   0.646   2.812  0.2115  0.0561 -0.2906
   41SOL    HW1  122   2.941   0.701   2.812  2.3292 -0.8196 -0.3621
   41SOL    HW2  123   3.019   0.567   2.749 -0.8674  2.3128 -0.2093
   42SOL     OW  124   1.741   1.796   0.509  0.3799 -0.1246  0.8271
   42SOL    HW1  125   1.677   1.709   0.497  0.9702 -1.7618  1.7585
   42SOL    HW2  126   1.762   1.840   0.419  0.6466  0.3798  0.4758
   43SOL     OW  127   0.456   1.659   1.205  0.3771 -0.2983  0.7118
   43SOL    HW1  128   0.458   1.553   1.184  2.5883 -2.6621 -0.7748
   43SOL    HW2  129   0.410   1.683   1.291 -0.7507 -0.3701 -0.8411
   44SOL     OW  130   1.694   2.368   3.010 -0.3407  0.8861 -0.0093
   44SOL    HW1  131   1.604   2.414   3.006  1.7359  0.2913 -0.0072
   44SOL    HW2  132   1.743   2.357   2.920  0.4860 -1.7403  1.2516
   45SOL     OW  133   0.353   1.900   2.575  0.5911  0.1967 -0.1897
   45SOL    HW1  134   0.325   1.901   2.475 -0.3647  1.3404 -0.9826
   45SOL    HW2  135   0.404   1.817   2.609 -1.0637 -1.0148  0.4835
   46SOL     OW  136   1.279   0.648   0.138  0.5085  0.2886 -0.1249
   46SOL    HW1  137   1.272   0.750   0.111 -0.2677  2.2634  1.8042
   46SOL    HW2  138   1.191   0.602   0.165  1.9197 -0.7408 -1.7847
   47SOL     OW  139   0.191   2.492   1.587 -0.3638 -0.2861 -0.1239
   47SOL    HW1  140   0.201   2.389   1.584 -0.0354 -0.3351 -1.3596
   47SOL    HW2  141   0.216   2.550   1.500  2.1327  2.1464  2.2795
   48SOL     OW  142   2.640   0.611   0.141  0.1763  0.1752  0.0166
   48SOL    HW1  143   2.616   0.612   0.239  0.2147 -1.5552 -1.1182
   48SOL    HW2  144   2.728   0.662   0.118 -2.7497 -0.3347  2.4044
   49SOL     OW  145   0.316   0.765   1.675 -0.0333  0.3410  0.9498
   49SOL    HW1  146   0.387   0.776   1.752  1.5840  0.9228 -0.4321
   49SOL    HW2  147   0.355   0.732   1.586  0.5473 -0.3105  3.2877
   50SOL     OW  148   1.699   1.116   0.317  0.1417  0.2606  0.0535
   50SOL    HW1  149   1.723   1.022   0.290 -1.0247  0.0354 -1.8957
   50SOL    HW2  150   1.665   1.125   0.412  0.8800 -0.3407  0.8276
   51SOL     OW  151   3.000   1.731   0.248  0.3953  0.0516  0.1730
   51SOL    HW1  152   2.934   1.655   0.231  1.4986  0.0023 -3.3637
   51SOL    HW2  153   3.062   1.717   0.332 -0.9108  0.5924  0.3910
   52SOL     OW  154   0.806   2.151   0.624  0.0469  0.1786  0.1762
   52SOL    HW1  155   0.802   2.232   0.680 -2.0155 -0.5973 -1.2631
   52SOL    HW2  156   0.841   2.065   0.676 -0.3666  0.3844  1.4297
   53SOL     OW  157   0.183   0.461   1.572 -0.3557  0.6214 -0.2130
   53SOL    HW1  158   0.261   0.516   1.528  1.8470 -0.7739 -2.2230
   53SOL    HW2  159   0.092   0.486   1.529  1.3361 -0.7388 -6.3500
   54SOL     OW  160   1.814   0.496   3.053  0.4400 -0.2828  0.1675
   54SOL    HW1  161   1.868   0.429   3.111 -1.5866  1.3810 -1.0052
   54SOL    HW2  162   1.718   0.507   3.089  2.8856 -0.1080  3.3657
   55SOL     OW  163   0.764   2.877   0.715 -0.3290  0.3604  0.4745
   55SOL    HW1  164   0.717   2.971   0.723 -0.4855 -1.4161 -0.8051
   55SOL    HW2  165   0.844   2.888   0.646 -1.2068  0.9863 -0.2274
   56SOL     OW  166   0.568   1.617   0.034 -0.0319  0.6426  0.0057
   56SOL    HW1  167   0.490   1.664   0.087  0.2443  0.1323  0.1398
   56SOL    HW2  168   0.547   1.529  -0.016  1.4686  2.6493  0.3522
   57SOL     OW  169   1.747   2.515   2.384 -0.1725  0.0025  0.4492
   57SOL    HW1  170   1.810   2.430   2.385  1.8301 -1.7563  0.9629
   57SOL    HW2  171   1.682   2.515   2.459  0.3740  1.8354  1.5766
   58SOL     OW  172   0.663   0.236   1.121 -0.0782 -0.6484 -0.1422
   58SOL    HW1  173   0.571   0.244   1.174 -1.6528  0.8056  1.2957
   58SOL    HW2  174   0.688   0.132   1.108  1.4463 -0.3460  1.8606
   59SOL     OW  175   0.409   2.375   2.741  0.1264  0.5097  0.1834
   59SOL    HW1  176   0.393   2.281   2.700  3.0732  1.6599  1.2202
   59SOL    HW2  177   0.473   2.378   2.821  4.5734 -0.2554 -0.8606
   60SOL     OW  178   2.334   2.107   2.326  0.4655  0.3462  0.2341
   60SOL    HW1  179   2.397   2.145   2.256 -2.6384  1.0795  0.1183
   60SOL    HW2  180   2.325   2.166   2.406 -0.5111 -1.2034 -0.2918
   61SOL     OW  181   1.234   0.600   0.424 -0.9820  0.4620  0.1337
   61SOL    HW1  182   1.148   0.633   0.460  4.2914  0.8576  0.6925
   61SOL    HW2  183   1.258   0.634   0.328  0.7906  0.0447  1.4437
   62SOL     OW  184   2.717   1.712   2.864 -0.5037 -0.7389 -0.3559
   62SOL    HW1  185   2.714   1.799   2.809  0.9599  0.4398 -0.4023
   62SOL    HW2  186   2.807   1.661   2.860 -2.6134 -0.7250 -0.7165
   63SOL     OW  187   0.578   0.880   0.215  0.0889  0.6499  0.0378
   63SOL    HW1  188   0.624   0.930   0.136 -0.8158 -1.4892 -1.4679
   63SOL    HW2  189   0.636   0.873   0.299 -0.8306 -0.2579 -0.8842
   64SOL     OW  190   3.039   0.549   2.435 -0.6343  0.2578 -1.2376
   64SOL    HW1  191   2.960   0.596   2.478  2.7408 -0.8513  0.2771
   64SOL    HW2  192   3.047   0.592   2.341 -1.9836 -0.0412 -0.0075
   65SOL     OW  193   0.221   1.460   0.680 -0.0884 -0.6599  0.4996
   65SOL    HW1  194   0.235   1.549   0.731 -2.8660 -2.2679 -0.4318
   65SOL    HW2  195   0.298   1.457   0.606  0.1120 -0.9428 -3.2258
   66SOL     OW  196   2.506   0.388   0.532 -0.1447 -0.1151 -0.3789
   66SOL    HW1  197   2.607   0.361   0.502  0.0156  0.6495 -1.4067
   66SOL    HW2  198   2.465   0.330   0.608 -0.2563 -0.0391 -0.1300
   67SOL     OW  199   0.620   2.472   1.415  0.3799  0.3495 -0.1011
   67SOL    HW1  200   0.700   2.421   1.457 -1.6335 -0.1819 -2.0010
   67SOL    HW2  201   0.523   2.439   1.438 -1.3113  2.7484  1.6975
   68SOL     OW  202   0.989   1.010   2.527  0.6839  0.1006 -0.3485
   68SOL    HW1  203   1.081   0.978   2.503  1.2476 -1.0298  0.8402
   68SOL    HW2  204   0.933   1.039   2.449  0.4760 -0.0645  1.1500
   69SOL     OW  205   0.745   2.766   2.217  0.5346 -0.2613  0.1760
   69SOL    HW1  206   0.756   2.680   2.161  0.2090 -0.9340 -1.1856
   69SOL    HW2  207   0.641   2.777   2.238 -0.6072 -0.4034  1.4428
   70SOL     OW  208   0.459   0.123   2.554  0.3148 -0.1082 -0.5519
   70SOL    HW1  209   0.366   0.104   2.605 -2.0707  0.8518 -2.9711
   70SOL    HW2  210   0.516   0.037   2.562 -2.5626  0.7781 -1.0718
   71SOL     OW  211   1.143   1.788   0.353  0.9159 -0.2363 -0.5801
   71SOL    HW1  212   1.087   1.707   0.397 -1.6507  0.2339 -1.1320
   71SOL    HW2  213   1.088   1.844   0.292  2.2095  0.4549  1.7242
   72SOL     OW  214   1.815   0.173   2.170 -0.4404  0.2896 -0.0297
   72SOL    HW1  215   1.871   0.257   2.162  1.2773 -1.7824 -2.6700
   72SOL    HW2  216   1.884   0.090   2.174 -0.6985  3.2939  3.1121
   73SOL     OW  217   2.807   2.145   2.359  0.1337 -0.2794  0.2113
   73SOL    HW1  218   2.779   2.046   2.338 -2.6301  2.8815 -2.6269
   73SOL    HW2  219   2.831   2.152   2.459 -3.6431 -1.2048  0.6801
   74SOL     OW  220   2.638   2.864   2.192  0.5655  0.1529 -0.1555
   74SOL    HW1  221   2.621   2.867   2.293  0.2999  0.8890  1.9093
   74SOL    HW2  222   2.735   2.893   2.174 -2.7151 -2.3387 -1.4753
   75SOL     OW  223   0.961   0.856   1.072 -0.4685  0.1374  0.2105
   75SOL    HW1  224   0.885   0.898   1.009 -1.8183  0.7512 -1.2290
   75SOL    HW2  225   0.995   0.909   1.156  1.6159  1.3000  1.5581
   76SOL     OW  226   1.805   1.217   2.461  0.1651  0.3536 -0.2278
   76SOL    HW1  227   1.705   1.210   2.478  1.3135 -2.1395 -1.4507
   76SOL    HW2  228   1.843   1.311   2.471  1.8913 -2.7748  0.5520
   77SOL     OW  229   2.947   0.913   1.034 -0.0410 -0.2923  0.1980
   77SOL    HW1  230   2.904   0.819   1.013 -1.2827 -0.8130  0.0036
   77SOL    HW2  231   3.006   0.918   1.119 -1.5081 -1.6650  1.5715
   78SOL     OW  232   1.995   1.425   1.443  0.5463 -0.5240 -0.0936
   78SOL    HW1  233   2.098   1.422   1.425  1.5700  0.0812 -0.0762
   78SOL    HW2  234   1.940   1.447   1.358 -1.9825 -0.6417  1.7529
   79SOL     OW  235   0.622   1.430   0.799  0.1137  0.1244  0.1352
   79SOL    HW1  236   0.523   1.434   0.840  2.4470  0.9042  3.2621
   79SOL    HW2  237   0.647   1.343   0.742  2.4002 -1.6558  0.6417
   80SOL     OW  238   0.661   0.470   1.531  0.0076  0.4909 -0.4960
   80SOL    HW1  239   0.726   0.539   1.485 -0.0154 -0.0857  0.3711
   80SOL    HW2  240   0.675   0.369   1.503 -0.1625 -0.8437 -0.4715
   81SOL     OW  241   0.997   1.307   2.610 -0.1037  0.2410  0.1833
   81SOL    HW1  242   1.015   1.204   2.590  0.2477  0.4744 -1.0849
   81SOL    HW2  243   0.937   1.357   2.539  0.6916  1.6361 -0.1219
   82SOL     OW  244   0.953   2.919   1.502  0.6620 -1.1105  0.4221
   82SOL    HW1  245   0.862   2.894   1.458  1.7740 -2.5879 -0.5647
   82SOL    HW2  246   1.031   2.921   1.431  0.9634 -0.4305  0.3709
   83SOL     OW  247   2.588   2.370   0.859 -0.1791 -0.0870 -0.2084
   83SOL    HW1  248   2.545   2.349   0.954 -1.4090 -1.7703  2.2071
   83SOL    HW2  249   2.516   2.373   0.783  1.7719  2.7505  1.4405
   84SOL     OW  250   0.725   3.102   2.387 -0.2240  0.6006 -0.5106
   84SOL    HW1  251   0.672   3.057   2.463 -0.6886  1.0526  0.2145
   84SOL    HW2  252   0.804   3.037   2.362 -2.0143  0.4759  0.9565
   85SOL     OW  253   0.256   1.614   1.451  0.2011  0.2968  0.0110
   85SOL    HW1  254   0.214   1.704   1.448  0.2798 -3.5792 -1.5055
   85SOL    HW2  255   0.307   1.593   1.540 -1.3473 -2.6578 -0.8316
   86SOL     OW  256   0.449   1.073   1.492 -0.3787 -0.6839  0.4446
   86SOL    HW1  257   0.394   1.026   1.416  0.1834 -0.4886 -3.3813
   86SOL    HW2  258   0.550   1.038   1.502  1.4514 -1.3848  1.4141
   87SOL     OW  259   1.659   0.683   0.286  0.2428 -0.1144  0.1872
   87SOL    HW1  260   1.711   0.775   0.265  2.5611  3.1485 -1.2613
   87SOL    HW2  261   1.636   0.632   0.194 -0.7711  1.8250 -1.3970
   88SOL     OW  262   1.546   1.342   0.267 -0.9327  0.1611 -0.1807
   88SOL    HW1  263   1.583   1.247   0.284 -2.1398  1.3348  1.5092
   88SOL    HW2  264   1.442   1.346   0.268  0.3770 -1.8086 -0.5204
   89SOL     OW  265   3.083   0.350   0.607 -0.2205 -1.2454  0.1283
   89SOL    HW1  266   3.145   0.272   0.581  1.2296 -1.0587  0.2696
   89SOL    HW2  267   2.980   0.326   0.591 -4.7072 -2.2042 -0.2302
   90SOL     OW  268   0.844   1.564   0.103 -0.3249  0.1205  0.0787
   90SOL    HW1  269   0.898   1.491   0.057  0.0169  1.5248  2.1972
   90SOL    HW2  270   0.753   1.592   0.057  0.6263  0.2834 -1.6230
   91SOL     OW  271   1.207   1.453   1.764  0.0281  0.2808 -0.5277
   91SOL    HW1  272   1.168   1.537   1.803 -1.2425 -2.7981  0.4173
   91SOL    HW2  273   1.307   1.430   1.789 -1.7884 -2.8029  1.7965
   92SOL     OW  274   0.015   0.949   1.248 -0.0631 -0.0144 -0.1982
   92SOL    HW1  275   0.069   1.016   1.190  1.5206  0.0070  0.3186
   92SOL    HW2  276   0.024   0.966   1.350 -0.1318  3.6147  0.9357
   93SOL     OW  277   3.069   2.700   0.052  0.3456  0.0050 -0.1393
   93SOL    HW1  278   3.036   2.688  -0.046  1.2376 -0.3344 -1.9814
   93SOL    HW2  279   3.079   2.616   0.112  1.3640 -1.2855 -1.0241
   94SOL     OW  280   1.494   1.449   1.783 -0.1310  0.0051 -0.2130
   94SOL    HW1  281   1.567   1.374   1.785  1.8601  1.6894 -0.6790
   94SOL    HW2  282   1.528   1.545   1.790 -0.1920 -1.2977  1.3210
   95SOL     OW  283   1.434   2.507   2.968 -0.9104  0.0776 -0.1013
   95SOL    HW1  284   1.358   2.569   2.998  1.4203 -1.4322 -0.7682
   95SOL    HW2  285   1.402   2.418   2.932 -0.8751 -1.0150  1.7594
   96SOL     OW  286   0.564   2.096   1.315  0.2880 -0.0832  0.1007
   96SOL    HW1  287   0.521   2.035   1.240  0.1611  0.2284 -0.3180
   96SOL    HW2  288   0.638   2.046   1.370 -0.6589 -1.2169 -1.8486
   97SOL     OW  289   0.303   1.602   2.461 -0.1494  0.1455 -0.0171
   97SOL    HW1  290   0.253   1.667   2.399 -2.1280  1.3393  0.8216
   97SOL    HW2  291   0.273   1.605   2.561 -0.2055  0.5519 -1.0814
   98SOL     OW  292   2.141   1.593   1.212  0.5544 -0.0871 -0.1594
   98SOL    HW1  293   2.057   1.545   1.172  2.3670 -0.4979 -2.4477
   98SOL    HW2  294   2.235   1.563   1.168  0.0411 -1.0149 -0.2794
   99SOL     OW  295   2.573   2.086   1.277 -0.1978  0.6442  0.0175
   99SOL    HW1  296   2.597   2.119   1.371  2.1019 -1.4942 -3.8867
   99SOL    HW2  297   2.529   1.991   1.279  0.6547 -0.2111  1.4728
  100SOL     OW  298   2.292   0.409   2.092  0.7492  0.0523  0.3774
  100SOL    HW1  299   2.267   0.408   2.196  0.5231 -2.2823 -0.7824
  100SOL    HW2  300   2.395   0.391   2.080  0.3765 -0.1871  0.9367
  101SOL     OW  301   0.407   1.516   0.472 -0.3416  0.1213  0.7448
  101SOL    HW1  302   0.402   1.602   0.528 -3.6617  1.8347  1.2434
  101SOL    HW2  303   0.476   1.525   0.392 -1.2095  2.3455 -0.8628
  102SOL     OW  304   2.288   1.068   0.840  0.2443 -0.3152 -0.0235
  102SOL    HW1  305   2.217   1.014   0.789  0.1513 -0.5254 -2.0655
  102SOL    HW2  306   2.374   1.066   0.789 -1.8547  0.2016  0.6876
  103SOL     OW  307   2.213   0.129   0.384  0.1780  0.1065 -0.4193
  103SOL    HW1  308   2.249   0.184   0.306  0.7039  0.8786  2.5845
  103SOL    HW2  309   2.286   0.074   0.436  2.2366  0.5868  0.2284
  104SOL     OW  310   0.052   1.906   2.098 -0.1286  0.0008 -0.1985
  104SOL    HW1  311   0.100   1.849   2.031  0.6361  0.8736  0.3804
  104SOL    HW2  312  -0.053   1.910   2.088 -0.1853  0.7879 -0.7430
  105SOL     OW  313   1.246   2.116   0.824 -0.4383 -0.2598  0.4285
  105SOL    HW1  314   1.197   2.165   0.745  0.3336  0.2910  1.3398
  105SOL    HW2  315   1.294   2.027   0.792  1.9570 -0.4492  0.6279
  106SOL     OW  316   2.087   0.358   1.443 -0.4404  0.2886 -0.2229
  106SOL    HW1  317   2.032   0.272   1.426 -1.6727  0.0963 -2.5707
  106SOL    HW2  318   2.082   0.394   1.540 -1.2030 -1.5205  2.8547
  107SOL     OW  319   1.946   2.948   1.186  0.6085  0.0989 -0.4555
  107SOL    HW1  320   1.878   3.014   1.223  1.6423 -3.2278 -1.2586
  107SOL    HW2  321   1.905   2.861   1.149  1.0557  0.7452 -1.8014
  108SOL     OW  322   0.855   2.822   1.202 -0.2347  0.3060 -0.7787
  108SOL    HW1  323   0.893   2.728   1.214  1.5848  0.2952 -2.6168
  108SOL    HW2  324   0.928   2.895   1.188 -0.5088  2.0201  2.4687
  109SOL     OW  325   2.137   0.143   0.766  0.3069  0.0942  0.2506
  109SOL    HW1  326   2.042   0.132   0.724  0.2494  0.1989  2.4350
  109SOL    HW2  327   2.145   0.099   0.858  2.3235 -1.1693 -1.3185
  110SOL     OW  328   0.466   2.796   2.761  0.5153  0.0050 -0.4888
  110SOL    HW1  329   0.440   2.786   2.658 -0.1749 -1.2215  2.5509
  110SOL    HW2  330   0.511   2.709   2.798  1.3797 -1.3347  1.5054
  111SOL     OW  331   1.275   0.482   2.334  0.3722  0.3063  0.7323
  111SOL    HW1  332   1.194   0.529   2.381 -1.1588  0.3995  1.2176
  111SOL    HW2  333   1.329   0.417   2.401 -0.1214  1.2695 -0.3764
  112SOL     OW  334   1.765   0.450   1.478  0.2166 -0.3115 -0.1296
  112SOL    HW1  335   1.729   0.456   1.383  1.9362  1.1418  2.7277
  112SOL    HW2  336   1.705   0.408   1.552 -0.4133  0.8465  1.1291
  113SOL     OW  337   2.363   1.690   1.729  0.2265  0.8461  0.1700
  113SOL    HW1  338   2.415   1.598   1.728  0.0380 -0.9866  0.2331
  113SOL    HW2  339   2.424   1.769   1.765  2.1986  0.8556 -0.6012
  114SOL     OW  340   0.318   0.530   1.211  0.0459 -0.5898 -0.4449
  114SOL    HW1  341   0.375   0.577   1.140 -0.0369 -2.2379  0.9178
  114SOL    HW2  342   0.231   0.579   1.227 -1.0941  0.7419  1.0433
  115SOL     OW  343   2.806   1.571   1.287 -0.2778 -0.4794  0.3155
  115SOL    HW1  344   2.785   1.473   1.315  0.7396  2.7135 -0.9802
  115SOL    HW2  345   2.890   1.574   1.218 -0.0902 -1.6841 -1.4803
  116SOL     OW  346   1.856   0.990   0.649  0.6454 -0.5767  0.2167
  116SOL    HW1  347   1.766   0.950   0.687 -2.5778 -1.0757  1.6680
  116SOL    HW2  348   1.860   1.090   0.683  2.0399  1.1501  3.6171
  117SOL     OW  349   1.175   0.367   0.556  0.0506  0.2226  0.0671
  117SOL    HW1  350   1.245   0.441   0.525 -1.6717 -0.3680 -0.4054
  117SOL    HW2  351   1.146   0.308   0.477  0.6076 -1.4692 -0.1731
  118SOL     OW  352   1.068   1.209   1.094  0.1607  0.1883  0.1193
  118SOL    HW1  353   1.021   1.152   1.170  0.6399 -0.6118 -0.1302
  118SOL    HW2  354   1.060   1.313   1.116  1.3712  1.1151  0.4263
  119SOL     OW  355   1.848   1.598   2.197  0.7372  0.0325 -0.3756
  119SOL    HW1  356   1.816   1.695   2.165  0.9009 -0.0535  0.3083
  119SOL    HW2  357   1.945   1.576   2.166  0.4015  0.9659  1.1320
  120SOL     OW  358   2.895   2.816   0.237  0.0512 -0.5908  0.2175
  120SOL    HW1  359   2.974   2.784   0.177 -0.6208  1.3860  2.0842
  120SOL    HW2  360   2.801   2.777   0.216  1.4503  1.4054 -1.4405
  121SOL     OW  361   1.868   0.709   2.163  0.0920 -0.3015 -0.4121
  121SOL    HW1  362   1.885   0.799   2.116 -3.6186 -0.1006  0.1001
  121SOL    HW2  363   1.920   0.630   2.123 -1.4336  0.7440 -1.2491
  122SOL     OW  364   2.640   2.549   1.347 -0.9730 -0.6872 -0.2441
  122SOL    HW1  365   2.665   2.488   1.267  0.8508 -4.0255  2.9768
  122SOL    HW2  366   2.588   2.505   1.420  1.1022 -0.2117 -1.1951
  123SOL     OW  367   1.731   0.126   1.713  0.4675  0.4542  0.0006
  123SOL    HW1  368   1.737   0.045   1.640  0.5636 -1.9051 -0.1395
  123SOL    HW2  369   1.826   0.141   1.755 -2.0458  0.8569 -0.4422
  124SOL     OW  370   3.080   0.462   1.082 -0.7021  0.6579  0.0797
  124SOL    HW1  371   2.983   0.487   1.104  1.3427 -0.5150 -0.6567
  124SOL    HW2  372   3.113   0.489   0.985 -0.5696 -0.4491 -0.1630
  125SOL     OW  373   0.908   1.921   0.769 -0.0209 -0.2618  0.1084
  125SOL    HW1  374   0.984   1.864   0.804 -2.4332  1.2656 -0.6517
  125SOL    HW2  375   0.814   1.904   0.815 -2.0888 -0.4935  0.3652
  126SOL     OW  376   1.911   2.292   2.404  1.1319 -0.0978  0.0086
  126SOL    HW1  377   1.978   2.261   2.335 -0.0956 -0.5856 -0.9305
  126SOL    HW2  378   1.863   2.210   2.440  0.6338  2.0537  2.5112
  127SOL     OW  379   0.903   0.960   0.198 -0.2143  0.4500 -0.1055
  127SOL    HW1  380   0.935   1.000   0.287 -1.7868  0.1476  2.6298
  127SOL    HW2  381   0.898   0.856   0.203  0.6650  0.1256  0.0406
  128SOL     OW  382   0.964   0.262   1.427  0.7605  0.3959 -0.1146
  128SOL    HW1  383   0.957   0.338   1.362  1.0771 -0.4715  3.1976
  128SOL    HW2  384   0.916   0.174   1.410  0.4372  0.4242  2.9499
  129SOL     OW  385   1.857   0.684   1.851  0.0342 -0.5747  0.5133
  129SOL    HW1  386   1.892   0.688   1.750  2.1542  1.3505 -2.9987
  129SOL    HW2  387   1.881   0.769   1.903 -0.8414 -0.7138  2.3849
  130SOL     OW  388   1.431   2.207   1.017 -0.5625  0.8142 -0.0678
  130SOL    HW1  389   1.368   2.200   0.938  0.9443  2.0846 -0.5442
  130SOL    HW2  390   1.501   2.282   1.004 -1.9361  0.8532  1.1364
  131SOL     OW  391   3.017   1.345   1.353  0.6209 -0.2345  0.0717
  131SOL    HW1  392   2.981   1.260   1.401 -0.9967  1.1363 -3.2738
  131SOL    HW2  393   3.119   1.367   1.363 -0.8345  0.1039 -1.1041
  132SOL     OW  394   2.036   2.379   0.485 -0.2154 -0.2894  0.4263
  132SOL    HW1  395   1.945   2.435   0.487 -2.5569 -2.0994 -0.2470
  132SOL    HW2  396   2.046   2.319   0.565  1.3523  0.9252  1.2219
  133SOL     OW  397   1.753   2.345   2.754  0.2273 -0.4291  0.5975
  133SOL    HW1  398   1.691   2.400   2.695  1.4206  0.1501 -0.3788
  133SOL    HW2  399   1.848   2.361   2.723 -0.8813  0.3877 -1.2110
  134SOL     OW  400   2.673   2.333   1.592  0.0025  0.7926 -0.3715
  134SOL    HW1  401   2.603   2.332   1.671  1.6004 -4.1999  1.4399
  134SOL    HW2  402   2.766   2.381   1.612 -0.2169  0.3857  1.4048
  135SOL     OW  403   0.705   1.466   2.640 -0.5426  0.0774 -0.1747
  135SOL    HW1  404   0.655   1.390   2.689  1.8802 -2.6502 -0.9680
  135SOL    HW2  405   0.735   1.442   2.545 -1.4858 -1.6601  1.0403
  136SOL     OW  406   1.234   2.027   0.493 -1.0970 -0.5245 -0.5055
  136SOL    HW1  407   1.150   2.090   0.498 -1.2167  1.2309 -0.3625
  136SOL    HW2  408   1.213   1.929   0.480  0.3162  0.4682 -1.4028
  137SOL     OW  409   0.433   1.220   2.262 -0.4391  0.3513  0.3301
  137SOL    HW1  410   0.332   1.215   2.252  0.3520  2.8759  0.1144
  137SOL    HW2  411   0.479   1.131   2.229  1.6106 -2.3317 -0.6764
  138SOL     OW  412   2.485   1.515   0.284 -0.4302  0.2234  0.1139
  138SOL    HW1  413   2.401   1.456   0.261 -0.7541  2.1926 -0.4911
  138SOL    HW2  414   2.556   1.458   0.341 -1.6439 -0.4260  0.8447
  139SOL     OW  415   1.885   2.629   1.496 -0.2441 -0.1575  0.2511
  139SOL    HW1  416   1.789   2.651   1.470  0.5075 -0.2052 -0.8772
  139SOL    HW2  417   1.908   2.532   1.484  0.7859  1.5491 -1.8112
  140SOL     OW  418   3.027   2.990   2.575 -0.1180  0.6007  0.6164
  140SOL    HW1  419   3.079   2.898   2.586  1.4895 -1.5593  0.4325
  140SOL    HW2  420   3.085   3.068   2.539  1.2199  1.1947 -1.6613
  141SOL     OW  421   1.309   1.656   1.584  0.1402 -0.5007 -0.0764
  141SOL    HW1  422   1.237   1.731   1.582 -0.3657 -1.1288 -1.5424
  141SOL    HW2  423   1.270   1.566   1.617  1.0368 -1.5025 -0.5362
  142SOL     OW  424   1.534   0.595   2.273  0.1997  0.5701  0.0645
  142SOL    HW1  425   1.574   0.578   2.177  0.8149 -1.1048  0.2521
  142SOL    HW2  426   1.441   0.553   2.293  0.7997 -0.8452 -0.3965
  143SOL     OW  427   2.781   0.869   0.533 -0.5568 -1.0895  0.8948
  143SOL    HW1  428   2.843   0.915   0.460  2.7800  1.8481 -0.8605
  143SOL    HW2  429   2.819   0.890   0.630 -0.5345  0.4778 -0.3606
  144SOL     OW  430   2.883   1.154   1.510  0.4128  0.1843 -0.5470
  144SOL    HW1  431   2.857   1.177   1.608 -0.4172 -0.0616 -1.2338
  144SOL    HW2  432   2.949   1.076   1.498  1.5021  0.8103 -1.1539
  145SOL     OW  433   0.970   1.830   0.120 -0.7390  0.2879  0.4002
  145SOL    HW1  434   1.025   1.806   0.037  0.7751 -0.0482 -0.5816
  145SOL    HW2  435   0.916   1.749   0.156 -0.5511  0.6662  0.9087
  146SOL     OW  436   2.444   0.680   1.474  0.0080 -0.0731 -0.0812
  146SOL    HW1  437   2.421   0.588   1.432 -1.5195 -2.2988  0.1358
  146SOL    HW2  438   2.389   0.763   1.439 -0.9666  1.5980 -1.0369
  147SOL     OW  439   1.081   2.492   0.588  0.3324 -0.5997 -0.0823
  147SOL    HW1  440   1.039   2.541   0.508 -0.4752  2.1837 -0.7434
  147SOL    HW2  441   1.179   2.453   0.574  0.2931 -1.9854 -1.0293
  148SOL     OW  442   1.639   1.434   3.097  0.1663  0.3783  0.0105
  148SOL    HW1  443   1.618   1.350   3.036 -0.2531 -0.7620  0.7914
  148SOL    HW2  444   1.591   1.428   3.190 -2.0904  1.1114 -0.2849
  149SOL     OW  445   0.650   1.509   1.967  0.3855  0.5691 -0.5552
  149SOL    HW1  446   0.554   1.499   2.006  2.2209  1.3744  1.3118
  149SOL    HW2  447   0.671   1.440   1.894  0.7239  0.9712  0.6915
  150SOL     OW  448   3.010   1.225   0.981 -0.0188  0.2164 -0.7004
  150SOL    HW1  449   3.105   1.214   1.024  1.8161 -1.7862  0.5217
  150SOL    HW2  450   2.956   1.135   0.989 -0.2772 -1.5085  1.3781
  151SOL     OW  451   0.195   0.789   2.078  0.3747  0.3599  0.3144
  151SOL    HW1  452   0.176   0.841   1.992 -2.7402 -1.3670 -0.2572
  151SOL    HW2  453   0.258   0.712   2.060 -0.3532  1.8644 -1.9371
  152SOL     OW  454   1.430   1.795   1.186 -0.4845 -0.4412  0.2263
  152SOL    HW1  455   1.494   1.876   1.165  0.3032 -1.6828  0.4492
  152SOL    HW2  456   1.335   1.808   1.148 -2.3990  0.1508 -0.8877
  153SOL     OW  457   0.184   1.503   0.208  0.2936  0.3894 -0.3062
  153SOL    HW1  458   0.137   1.411   0.191  1.0812  0.8556 -0.0636
  153SOL    HW2  459   0.183   1.528   0.307  0.4684 -1.5537 -2.9309
  154SOL     OW  460   2.330   1.904   2.808 -0.5571  0.2054 -0.5911
  154SOL    HW1  461   2.350   1.800   2.803  1.4046 -2.5373  0.0460
  154SOL    HW2  462   2.397   1.958   2.754 -1.3113  1.9543  2.9415
  155SOL     OW  463   2.525   1.242   0.378 -0.5490  0.4587 -0.3295
  155SOL    HW1  464   2.600   1.209   0.312  0.8789 -1.1717 -1.5309
  155SOL    HW2  465   2.433   1.205   0.347 -0.0151  1.1340 -0.2970
  156SOL     OW  466   2.473   0.826   0.753 -0.6656  0.2239 -0.1923
  156SOL    HW1  467   2.372   0.815   0.729  0.2084 -0.8200 -1.5452
  156SOL    HW2  468   2.520   0.872   0.671  2.8403  0.5944 -0.7498
  157SOL     OW  469   1.237   3.009   2.977 -0.0221  0.1303  0.4171
  157SOL    HW1  470   1.312   2.980   2.917 -1.3833 -1.7894 -2.9871
  157SOL    HW2  471   1.242   3.107   3.013 -0.1955 -1.4922 -0.3907
  158SOL     OW  472   0.988   1.879   1.828  0.4949 -0.3714  0.0108
  158SOL    HW1  473   1.028   1.977   1.827  1.4366  0.1243  2.8597
  158SOL    HW2  474   0.924   1.871   1.909  0.4538 -0.6067  0.1174
  159SOL     OW  475   0.850   0.434   1.218 -0.0994 -0.0365  0.0265
  159SOL    HW1  476   0.823   0.526   1.259 -0.1314  1.5268  0.9129
  159SOL    HW2  477   0.775   0.375   1.179  2.5773  0.8729 -0.3010
  160SOL     OW  478   1.381   2.456   1.536  0.0558 -0.1358 -0.0734
  160SOL    HW1  479   1.327   2.394   1.597 -0.8368 -0.7749 -1.0895
  160SOL    HW2  480   1.483   2.433   1.519  0.8016  1.7085 -3.5417
  161SOL     OW  481   3.059   2.768   0.449 -0.2444 -0.5743  0.2032
  161SOL    HW1  482   3.036   2.683   0.505  2.8287  0.0378 -2.5641
  161SOL    HW2  483   2.979   2.795   0.386  1.4336  0.0308  2.5856
  162SOL     OW  484   2.567   1.816   0.472  0.2320  0.0117  0.0467
  162SOL    HW1  485   2.545   1.791   0.375  2.0257 -2.4321 -1.4164
  162SOL    HW2  486   2.520   1.749   0.538 -3.9114 -1.0911 -1.2364
  163SOL     OW  487   1.967   2.684   0.745 -0.0246 -0.1835  0.0933
  163SOL    HW1  488   1.922   2.648   0.658 -2.8721  1.4057  1.6771
  163SOL    HW2  489   2.040   2.619   0.778 -0.4438 -1.5133  0.7932
  164SOL     OW  490   3.062   0.256   1.270 -0.7341 -0.5787  0.2155
  164SOL    HW1  491   3.087   0.336   1.208  0.7304 -0.3882  2.2796
  164SOL    HW2  492   3.137   0.240   1.338 -0.5370  1.0509 -3.1882
  165SOL     OW  493   1.070   1.431   0.679 -0.0831  0.3138 -0.7166
  165SOL    HW1  494   1.044   1.454   0.775  3.0800 -0.9355  1.3548
  165SOL    HW2  495   1.033   1.495   0.602  0.9910  1.6767 -1.8625
  166SOL     OW  496   1.588   1.018   1.779 -0.1557 -0.0978 -0.2110
  166SOL    HW1  497   1.505   1.032   1.838 -2.2647 -2.0050  0.6182
  166SOL    HW2  498   1.657   1.094   1.782  1.7505  0.0709 -0.5507
  167SOL     OW  499   0.776   1.957   1.446  0.1703 -0.1875  0.1072
  167SOL    HW1  500   0.790   2.028   1.521  2.6497 -1.2936 -4.2115
  167SOL    HW2  501   0.763   1.863   1.482  1.6651  1.5130 -0.0560
  168SOL     OW  502   1.592   2.350   0.162  0.2048  0.1736 -0.0802
  168SOL    HW1  503   1.665   2.372   0.095 -0.6888  1.5717  2.5649
  168SOL    HW2  504   1.631   2.298   0.241 -1.3548 -1.3580 -1.9347
  169SOL     OW  505   0.129   2.576   2.220 -0.6773  0.0779 -0.2933
  169SOL    HW1  506   0.167   2.522   2.143 -1.5190 -0.3969 -0.5653
  169SOL    HW2  507   0.178   2.555   2.310 -1.9663  1.9855  0.4941
  170SOL     OW  508   1.108   0.234   2.017 -0.0716 -0.1723  0.2379
  170SOL    HW1  509   1.169   0.198   2.092  1.0204  0.5343  1.6691
  170SOL    HW2  510   1.136   0.204   1.916  1.3757 -4.0926 -0.6594
  171SOL     OW  511   0.204   0.824   2.377  0.0022  0.1676 -0.0062
  171SOL    HW1  512   0.116   0.824   2.431 -1.3682  0.9114 -0.0349
  171SOL    HW2  513   0.194   0.845   2.271  1.0336  0.9377 -1.0981
  172SOL     OW  514   0.973   0.991   2.923 -0.3246 -0.0008  0.2671
  172SOL    HW1  515   0.967   1.072   2.988  1.4427 -1.6044 -0.6074
  172SOL    HW2  516   0.897   0.986   2.855  0.3781  1.0463  1.5809
  173SOL     OW  517   0.511   2.449   0.145 -0.1059 -0.4821  0.5623
  173SOL    HW1  518   0.497   2.373   0.083 -0.0468 -0.0352  3.8539
  173SOL    HW2  519   0.431   2.495   0.183  0.2907 -1.3101  0.8417
  174SOL     OW  520   1.479   2.834   1.055 -0.0390  0.2712  0.3722
  174SOL    HW1  521   1.554   2.895   1.030 -3.8735  0.3364  3.0950
  174SOL    HW2  522   1.463   2.756   0.986 -0.0860 -1.1420 -0.2979
  175SOL     OW  523   0.474   3.051   1.682 -0.0887  0.4254 -0.0213
  175SOL    HW1  524   0.522   2.999   1.756  1.1205  1.7982 -2.5891
  175SOL    HW2  525   0.426   3.134   1.715 -0.5989 -1.2277 -1.0264
  176SOL     OW  526   2.576   0.374   0.012  0.3466 -0.1118 -0.1529
  176SOL    HW1  527   2.622   0.455   0.064  2.2867 -0.8221 -0.7347
  176SOL    HW2  528   2.547   0.289   0.072  0.6555 -0.2664  2.2306
  177SOL     OW  529   0.301   0.277   0.953  0.1553 -0.0385  0.7511
  177SOL    HW1  530   0.289   0.179   0.924  3.0728  0.9228 -2.1594
  177SOL    HW2  531   0.319   0.287   1.054 -1.7673  2.0190 -0.0348
  178SOL     OW  532   0.000   2.725   2.603  0.0182 -0.0999 -0.4602
  178SOL    HW1  533  -0.026   2.633   2.563 -2.2039  0.5829  0.3965
  178SOL    HW2  534   0.080   2.716   2.673 -1.5247  0.4652  0.8034
  179SOL     OW  535   3.030   1.557   1.143  0.2444 -0.2327 -0.4782
  179SOL    HW1  536   3.115   1.585   1.198  0.4544  2.6955  0.5955
  179SOL    HW2  537   3.011   1.458   1.140  2.0670  1.7154 -0.7092
  180SOL     OW  538   0.188   1.344   1.796 -0.2682  0.7891 -0.5933
  180SOL    HW1  539   0.256   1.284   1.842  2.1737 -0.0665  1.5281
  180SOL    HW2  540   0.132   1.402   1.861 -1.1229 -1.4854  1.4069
  181SOL     OW  541   3.008   1.949   2.495 -0.2552 -0.5792  0.0455
  181SOL    HW1  542   3.075   2.030   2.474 -2.5515  0.3493  0.2525
  181SOL    HW2  543   2.930   1.933   2.435  0.7569 -0.0054  1.4834
  182SOL     OW  544   2.337   1.252   1.256 -0.1506  0.6159  0.6389
  182SOL    HW1  545   2.286   1.200   1.175  1.8852  0.9021  0.2053
  182SOL    HW2  546   2.361   1.351   1.225 -0.1734  1.9634 -3.0988
  183SOL     OW  547   1.420   2.243   2.521 -0.7066 -0.3009 -0.5562
  183SOL    HW1  548   1.360   2.195   2.589 -0.1880 -1.1411 -0.7329
  183SOL    HW2  549   1.493   2.182   2.471 -0.4802  0.0279 -1.5943
  184SOL     OW  550   2.112   0.903   0.716  0.7187 -0.7750  0.1102
  184SOL    HW1  551   2.022   0.936   0.683 -0.4203  1.2205 -0.4867
  184SOL    HW2  552   2.096   0.813   0.755 -0.2793 -0.0659 -2.4866
  185SOL     OW  553   1.549   2.736   2.000 -0.6100  0.0266  0.3240
  185SOL    HW1  554   1.491   2.818   1.967 -0.5201  0.8756 -0.5033
  185SOL    HW2  555   1.589   2.749   2.097  0.4499  1.0199  0.1337
  186SOL     OW  556   0.070   2.208   1.637 -0.6450 -0.2481  0.1216
  186SOL    HW1  557   0.053   2.257   1.728 -0.4199 -0.1516 -1.3126
  186SOL    HW2  558   0.158   2.158   1.628 -0.1637  1.6364  0.6744
  187SOL     OW  559   1.377   0.620   1.638 -0.1831 -0.1672 -0.1326
  187SOL    HW1  560   1.474   0.665   1.637  0.3467  2.1181 -2.1209
  187SOL    HW2  561   1.382   0.537   1.697 -1.0771 -0.9584  3.5277
  188SOL     OW  562   2.826   2.703   1.436  0.6348 -0.0470 -0.6924
  188SOL    HW1  563   2.805   2.807   1.417 -0.6117  1.6610 -1.4013
  188SOL    HW2  564   2.748   2.650   1.395 -0.6693  0.3697  0.7716
  189SOL     OW  565   0.884   1.170   1.421  0.1862 -0.1263  0.1563
  189SOL    HW1  566   0.959   1.195   1.490  0.0621 -0.5067  0.5699
  189SOL    HW2  567   0.825   1.251   1.413  0.8318 -0.3035 -4.0870
  190SOL     OW  568   1.503   1.888   1.580 -0.1370 -0.5811 -0.3956
  190SOL    HW1  569   1.458   1.803   1.542  1.3299 -1.8956 -2.0147
  190SOL    HW2  570   1.478   1.902   1.678  0.1776 -0.6084  2.7509
  191SOL     OW  571   0.934   0.800   1.504 -0.1073  0.6883  0.5308
  191SOL    HW1  572   1.001   0.757   1.569  1.7049 -0.4106 -3.2281
  191SOL    HW2  573   0.983   0.858   1.434  1.6683  1.2434  2.0692
  192SOL     OW  574   1.851   2.421   1.109 -0.4015  1.1218 -0.3395
  192SOL    HW1  575   1.759   2.431   1.060  1.7053  1.1250  0.0284
  192SOL    HW2  576   1.937   2.397   1.051  2.0087  0.5403  0.2481
  193SOL     OW  577   0.519   0.530   0.407 -0.1067  0.2270  0.1082
  193SOL    HW1  578   0.456   0.448   0.439  2.6211  0.2716  1.2356
  193SOL    HW2  579   0.562   0.515   0.317 -2.5367  0.5267 -0.0388
  194SOL     OW  580   0.303   0.912   1.300 -0.0057  0.1788  0.3299
  194SOL    HW1  581   0.241   0.827   1.295 -0.6352 -0.3615  1.2851
  194SOL    HW2  582   0.327   0.955   1.209  0.0452 -1.1829  1.3542
  195SOL     OW  583   0.984   2.887   0.510 -0.0400 -0.3738 -0.1651
  195SOL    HW1  584   0.979   2.813   0.439  2.6952  0.1655  1.1578
  195SOL    HW2  585   1.086   2.903   0.521 -0.2018  0.2107  0.6388
  196SOL     OW  586   0.200   1.372   1.342  0.0538 -0.0216 -0.0690
  196SOL    HW1  587   0.203   1.468   1.381  0.7990  1.6887 -3.3955
  196SOL    HW2  588   0.243   1.300   1.404 -0.4656 -0.0234  0.4686
  197SOL     OW  589   0.814   1.997   0.283  0.2583 -0.4441  0.5769
  197SOL    HW1  590   0.787   1.944   0.369  0.4686 -0.6057 -0.8353
  197SOL    HW2  591   0.875   1.935   0.220 -2.1665 -2.1889 -0.5206
  198SOL     OW  592   0.330   1.251   0.341 -0.5665 -0.2491 -0.1203
  198SOL    HW1  593   0.226   1.244   0.319  0.1062 -1.2893  3.6313
  198SOL    HW2  594   0.350   1.345   0.385 -0.2241 -1.1837  0.2849
  199SOL     OW  595   2.282   0.433   2.586  0.0373 -0.4008 -0.2643
  199SOL    HW1  596   2.217   0.405   2.661 -2.2811  2.2088 -0.2190
  199SOL    HW2  597   2.376   0.400   2.595 -2.1784  1.1431  0.5177
  200SOL     OW  598   3.095   3.008   0.759 -0.0355 -0.1345  0.5217
  200SOL    HW1  599   3.102   3.105   0.788 -1.1549 -3.9568  2.4270
  200SOL    HW2  600   3.005   2.981   0.715  2.9671  1.2127  0.7085
  201SOL     OW  601   0.977   0.706   0.503 -0.2671  0.1953  0.1850
  201SOL    HW1  602   1.007   0.770   0.575 -0.5998  2.1338 -0.8398
  201SOL    HW2  603   0.890   0.658   0.535  3.1427 -0.0394 -1.1222
  202SOL     OW  604   0.424   1.202   1.876 -0.1784  0.1139 -0.0910
  202SOL    HW1  605   0.516   1.151   1.871 -1.8081 -0.5313 -3.6455
  202SOL    HW2  606   0.423   1.267   1.958 -1.0519  1.4188 -0.8783
  203SOL     OW  607   0.565   0.181   1.533 -0.3658  0.2982  0.7922
  203SOL    HW1  608   0.547   0.093   1.483  0.5672  1.8515  0.7670
  203SOL    HW2  609   0.623   0.161   1.618 -0.4000 -1.7475 -0.8444
  204SOL     OW  610   2.119   1.805   2.979 -0.0604  0.0004  0.4533
  204SOL    HW1  611   2.117   1.705   2.986  0.7172  3.5426  2.9020
  204SOL    HW2  612   2.170   1.847   2.901 -1.5435 -1.7457 -0.2003
  205SOL     OW  613   1.840   1.816   3.045  0.0952 -0.1934  0.5053
  205SOL    HW1  614   1.942   1.823   3.038 -1.7175  0.7590 -1.3616
  205SOL    HW2  615   1.792   1.905   3.019  1.8474  0.4446  0.1157
  206SOL     OW  616   2.423   2.814   0.373 -0.0967 -0.0420  0.0990
  206SOL    HW1  617   2.401   2.728   0.425 -1.3172 -1.6912  2.3834
  206SOL    HW2  618   2.515   2.814   0.325  1.5341  0.5778  0.9434
  207SOL     OW  619   0.682   1.770   2.936  0.1495 -0.8269 -0.4766
  207SOL    HW1  620   0.754   1.706   2.901  1.6036  0.1562  2.8001
  207SOL    HW2  621   0.635   1.733   3.019 -3.0257 -0.8821 -1.7238
  208SOL     OW  622   1.156   1.665   1.335 -0.4359  0.2723 -0.9531
  208SOL    HW1  623   1.159   1.724   1.250 -0.0265  0.8742 -0.4497
  208SOL    HW2  624   1.121   1.713   1.419 -1.4134 -0.8503 -0.0261
  209SOL     OW  625   0.243   0.978   3.090 -0.5700 -0.0499  0.2472
  209SOL    HW1  626   0.200   0.904   3.025 -1.5560 -2.2539 -2.1958
  209SOL    HW2  627   0.244   0.941   3.190  0.3938 -0.1876  1.2291
  210SOL     OW  628   1.711   0.497   1.219  0.3057  0.2000 -0.4924
  210SOL    HW1  629   1.660   0.583   1.184 -0.9795 -0.2353 -0.8772
  210SOL    HW2  630   1.808   0.510   1.199 -1.6042 -1.2066 -0.4658
  211SOL     OW  631   2.033   1.047   1.576 -0.3506  0.1971 -0.3692
  211SOL    HW1  632   2.057   0.986   1.657 -3.0958 -1.4379  0.8623
  211SOL    HW2  633   2.116   1.112   1.543  3.1983  0.1586 -0.3595
  212SOL     OW  634   0.011   0.989   1.521 -0.5782  0.3215 -0.5742
  212SOL    HW1  635   0.083   1.058   1.548 -2.3651  0.1768  0.1446
  212SOL    HW2  636   0.015   0.904   1.578  0.7210  1.1364 -0.5000
  213SOL     OW  637   2.726   0.176   0.323  0.6410  0.6292 -0.5217
  213SOL    HW1  638   2.811   0.134   0.278 -0.2637  0.9422  0.8561
  213SOL    HW2  639   2.631   0.129   0.289  1.3157  0.3505  0.0211
  214SOL     OW  640   2.180   0.394   2.336 -0.3325  0.2924  0.2877
  214SOL    HW1  641   2.224   0.435   2.424 -1.0141  0.8311 -0.3893
  214SOL    HW2  642   2.165   0.292   2.351 -1.8161 -1.2383 -0.0786
  215SOL     OW  643   1.644   2.280   2.107  0.5334 -0.4481  0.1317
  215SOL    HW1  644   1.738   2.323   2.092  1.1268 -0.5978 -3.0543
  215SOL    HW2  645   1.571   2.354   2.126  1.2208  0.2842 -1.9706
  216SOL     OW  646   2.215   0.594   0.711 -0.4762 -0.0328 -0.4632
  216SOL    HW1  647   2.203   0.497   0.674 -2.0516  0.5287 -0.7390
  216SOL    HW2  648   2.192   0.653   0.634 -0.0099 -1.6567 -0.1764
  217SOL     OW  649   0.821   2.798   2.488  0.4122 -0.5517  0.3105
  217SOL    HW1  650   0.745   2.739   2.534 -0.6476 -1.3543  0.9721
  217SOL    HW2  651   0.852   2.764   2.398  2.7938 -2.9240  0.6404
  218SOL     OW  652   1.896   1.485   0.047 -0.5006 -0.0444  0.1644
  218SOL    HW1  653   1.805   1.484   0.000  1.4590  1.0451  1.8850
  218SOL    HW2  654   1.915   1.402   0.104 -0.0843  0.2233 -1.1100
  219SOL     OW  655   2.450   1.279   2.524  0.6340  0.1603  0.5030
  219SOL    HW1  656   2.524   1.255   2.452  1.6614 -3.2217  0.6127
  219SOL    HW2  657   2.462   1.222   2.612 -0.2533 -0.9555  2.0113
  220SOL     OW  658   1.437   1.001   1.347 -0.2941  0.1345  0.6679
  220SOL    HW1  659   1.531   0.964   1.351 -1.4543  0.3212  0.2790
  220SOL    HW2  660   1.425   1.070   1.274 -0.0218 -2.8880  0.8701
  221SOL     OW  661   1.275   0.972   2.194  0.1564 -0.3299  0.2881
  221SOL    HW1  662   1.265   0.940   2.097  0.4591 -3.2115 -0.7277
  221SOL    HW2  663   1.370   1.015   2.202 -0.6752  0.1171 -0.4284
  222SOL     OW  664   1.121   0.139   1.191 -0.5392  0.2661  0.1907
  222SOL    HW1  665   1.107   0.193   1.276  0.1873 -0.1155  0.7389
  222SOL    HW2  666   1.135   0.190   1.099  2.0659 -1.3667  0.2022
  223SOL     OW  667   2.701   0.926   2.145 -0.2114 -0.0240 -0.4966
  223SOL    HW1  668   2.652   1.010   2.183 -0.4464  1.5957  0.5209
  223SOL    HW2  669   2.791   0.906   2.197 -1.5911 -0.1750  1.6787
  224SOL     OW  670   1.461   1.090   2.723  0.1787 -0.5769  0.0150
  224SOL    HW1  671   1.481   1.001   2.682 -3.5519  1.2814 -2.3192
  224SOL    HW2  672   1.461   1.173   2.653 -1.8641  2.5774 -2.3775
  225SOL     OW  673   2.974   2.724   2.875  0.2213 -0.0765  0.0872
  225SOL    HW1  674   2.905   2.716   2.795 -0.1456 -0.1929  1.2636
  225SOL    HW2  675   3.058   2.787   2.850  0.4248  0.4729 -1.4812
  226SOL     OW  676   2.351   1.615   2.851 -0.0981 -0.5873 -0.3284
  226SOL    HW1  677   2.435   1.585   2.796 -0.6788  1.2235 -3.9601
  226SOL    HW2  678   2.318   1.551   2.925  0.3259  2.9062 -2.2428
  227SOL     OW  679   0.845   0.206   3.084  0.1195  0.0721  0.0315
  227SOL    HW1  680   0.897   0.294   3.065  0.6822 -2.0364  1.6917
  227SOL    HW2  681   0.771   0.190   3.014  1.2162  0.2076  2.0321
  228SOL     OW  682   2.428   0.587   2.841 -0.0380 -0.0536 -0.5755
  228SOL    HW1  683   2.439   0.658   2.765  0.1520 -1.5055 -0.1402
  228SOL    HW2  684   2.508   0.515   2.836 -0.4945  0.3975  3.2671
  229SOL     OW  685   0.566   0.447   1.815 -0.1520  0.3288 -0.3557
  229SOL    HW1  686   0.567   0.353   1.865 -1.7208  1.4799 -0.4012
  229SOL    HW2  687   0.608   0.440   1.722  1.8458  1.1984 -0.1992
  230SOL     OW  688   1.884   1.172   2.032 -0.4659 -0.0533 -0.3857
  230SOL    HW1  689   1.957   1.228   1.986 -0.6271  1.3877  0.3889
  230SOL    HW2  690   1.813   1.229   2.083  1.2266 -1.1084  1.2790
  231SOL     OW  691   0.641   1.067   0.019  0.9339  0.1052 -0.1624
  231SOL    HW1  692   0.718   1.133   0.014 -1.6787 -1.1264  1.1528
  231SOL    HW2  693   0.550   1.122   0.016 -2.5385  2.2254 -0.9337
  232SOL     OW  694   2.434   3.033   2.836  0.2890 -0.6601 -0.5985
  232SOL    HW1  695   2.500   2.955   2.846  0.0700  1.8374  2.1335
  232SOL    HW2  696   2.462   3.098   2.763 -2.1090 -1.4283 -0.8788
  233SOL     OW  697   1.774   1.250   1.215 -0.1473 -0.3444  0.8360
  233SOL    HW1  698   1.862   1.231   1.162  0.7969 -1.6040 -1.8258
  233SOL    HW2  699   1.753   1.173   1.285 -1.3738 -1.3181  0.6853
  234SOL     OW  700   1.592   2.522   1.852  0.0931  0.3814 -0.4766
  234SOL    HW1  701   1.564   2.606   1.913 -0.6166  3.9287  0.3504
  234SOL    HW2  702   1.535   2.438   1.874  2.3652 -0.3492  2.0066
  235SOL     OW  703   0.024   3.036   2.828 -0.0367 -0.1222  0.1661
  235SOL    HW1  704  -0.030   3.051   2.748 -0.9394 -0.9384  4.4888
  235SOL    HW2  705  -0.024   3.063   2.917  0.9938 -1.1344  0.3068
  236SOL     OW  706   2.866   0.734   0.074 -0.0279 -0.1687  0.6736
  236SOL    HW1  707   2.928   0.743   0.152  0.3650  1.3346 -2.1284
  236SOL    HW2  708   2.893   0.650   0.015  0.4910 -2.2548  1.4509
  237SOL     OW  709   1.525   1.632   0.957 -0.0858  0.0023 -0.0342
  237SOL    HW1  710   1.627   1.611   0.950 -1.4966  1.1329 -1.3557
  237SOL    HW2  711   1.495   1.675   1.045  1.9696 -0.6975  2.9781
  238SOL     OW  712   1.871   1.263   0.761  0.0177 -0.6912 -0.3433
  238SOL    HW1  713   1.917   1.290   0.854  1.4767 -0.2052 -0.8063
  238SOL    HW2  714   1.787   1.316   0.737  4.3542 -0.9204  2.2709
  239SOL     OW  715   2.099   0.303   2.741  0.1965 -0.0722  0.1586
  239SOL    HW1  716   2.147   0.311   2.829 -3.1031  1.0916  0.8921
  239SOL    HW2  717   2.005   0.354   2.742  0.7954  0.8620 -0.0544
  240SOL     OW  718   0.927   0.668   0.244 -0.1718 -0.0609 -0.1847
  240SOL    HW1  719   0.972   0.585   0.214  0.6387  2.7963  0.5854
  240SOL    HW2  720   0.952   0.688   0.340 -1.0332 -3.7032 -1.7455
  241SOL     OW  721   0.601   0.098   0.399  0.2165  0.0507 -0.3618
  241SOL    HW1  722   0.659   0.158   0.333  2.1239  1.7846 -1.7657
  241SOL    HW2  723   0.563   0.012   0.349  0.1987  1.2485 -0.0581
  242SOL     OW  724   0.616   2.532   1.145  0.4777  0.4515  0.6478
  242SOL    HW1  725   0.627   2.529   1.250 -0.5100 -1.0875  2.6299
  242SOL    HW2  726   0.609   2.628   1.108  0.8289  0.6094 -1.2959
  243SOL     OW  727   1.053   0.593   2.459 -0.3250 -0.9108 -0.8306
  243SOL    HW1  728   0.979   0.626   2.394  0.1371 -0.7044  1.1206
  243SOL    HW2  729   1.024   0.558   2.550  0.3307 -0.9881 -3.2488
  244SOL     OW  730   2.799   1.889   2.335 -0.3085  0.2327 -0.6160
  244SOL    HW1  731   2.832   1.859   2.240 -1.5606 -0.9739 -3.3615
  244SOL    HW2  732   2.718   1.834   2.377 -1.1757 -1.6859  1.3300
  245SOL     OW  733   2.209   0.904   2.185 -0.5868  0.3364  0.3343
  245SOL    HW1  734   2.305   0.906   2.228  2.1074 -0.6058  0.3224
  245SOL    HW2  735   2.157   0.980   2.233  1.9938 -0.6574  1.0932
  246SOL     OW  736   0.201   2.896   1.698 -0.2009 -0.7018  0.3753
  246SOL    HW1  737   0.117   2.920   1.639 -1.7381  1.2799  1.6854
  246SOL    HW2  738   0.276   2.971   1.689  2.7826  1.7476  0.1075
  247SOL     OW  739   2.224   0.646   2.995 -0.1045 -0.0371  1.2262
  247SOL    HW1  740   2.296   0.631   2.916 -0.6696  1.8640 -3.1071
  247SOL    HW2  741   2.158   0.725   2.971 -0.4379  0.3711  0.5479
  248SOL     OW  742   2.183   1.825   1.552  0.2175  0.1600 -0.3615
  248SOL    HW1  743   2.261   1.777   1.609  0.5162 -2.7826  1.2825
  248SOL    HW2  744   2.097   1.815   1.605  3.3826 -0.6363 -1.8010
  249SOL     OW  745   1.940   1.896   1.897  0.6094 -0.3160  0.2122
  249SOL    HW1  746   1.944   1.842   1.808  1.1914  2.6294  0.1422
  249SOL    HW2  747   2.030   1.944   1.909 -0.6144 -0.0737 -2.0617
  250SOL     OW  748   1.081   0.710   1.884  0.0524  0.4012 -0.6310
  250SOL    HW1  749   1.130   0.652   1.958  1.9038  0.4266  0.7138
  250SOL    HW2  750   1.065   0.661   1.794 -0.5038 -1.1324 -0.4425
  251SOL     OW  751   3.077   1.675   2.518 -0.7923  0.3789  0.1853
  251SOL    HW1  752   3.053   1.775   2.517  2.8776  2.0119 -1.6651
  251SOL    HW2  753   2.991   1.613   2.513 -1.2537  0.0374  1.4980
  252SOL     OW  754   1.624   0.749   1.684  0.0506 -0.3981  0.3582
  252SOL    HW1  755   1.707   0.715   1.736 -2.8365 -1.4142  2.5473
  252SOL    HW2  756   1.614   0.855   1.691 -1.4278  0.7141 -1.5077
  253SOL     OW  757   0.987   1.586   0.460 -0.4399  0.9006  0.2401
  253SOL    HW1  758   0.982   1.483   0.437 -1.0065 -1.4294  0.0233
  253SOL    HW2  759   0.904   1.616   0.506  1.5321 -0.4282  0.4263
  254SOL     OW  760   2.036   2.180   1.644 -0.1354 -0.2252 -0.5100
  254SOL    HW1  761   1.993   2.113   1.576 -1.0103  0.7325 -0.0179
  254SOL    HW2  762   1.961   2.235   1.692 -0.3069  0.3022  0.4655
  255SOL     OW  763   0.143   1.184   2.913  0.0540  0.1345 -0.1195
  255SOL    HW1  764   0.185   1.284   2.911 -0.5087  3.3355 -0.7123
  255SOL    HW2  765   0.190   1.117   2.976 -1.1278  0.5141 -0.9711
  256SOL     OW  766   2.876   1.416   1.808 -0.2201 -0.3220  0.4749
  256SOL    HW1  767   2.800   1.480   1.832 -1.0326  0.8350  1.5829
  256SOL    HW2  768   2.849   1.312   1.800 -3.1809 -0.6317 -1.2716
  257SOL     OW  769   0.791   0.175   1.738  0.2641  0.2454 -0.1069
  257SOL    HW1  770   0.827   0.276   1.714  3.7666  1.4918  0.6894
  257SOL    HW2  771   0.862   0.101   1.724 -0.1920 -0.1488  0.3901
  258SOL     OW  772   2.997   1.232   0.475  0.0490 -0.0511  0.0804
  258SOL    HW1  773   2.895   1.256   0.471 -1.2496 -2.3932 -0.1247
  258SOL    HW2  774   3.043   1.236   0.567 -1.8521  4.0996 -0.4486
  259SOL     OW  775   0.428   2.906   3.053 -0.3233 -0.2761 -0.3185
  259SOL    HW1  776   0.373   2.846   3.113 -0.9737 -0.7788 -0.7461
  259SOL    HW2  777   0.471   2.856   2.974 -0.7523  0.3066  2.9474
  260SOL     OW  778   2.731   0.664   2.773  0.1258  0.1831 -0.0996
  260SOL    HW1  779   2.643   0.717   2.772 -0.7232  0.4382 -2.7899
  260SOL    HW2  780   2.714   0.562   2.769 -2.4021 -1.3087 -2.5842
  261SOL     OW  781   2.728   1.296   1.336  0.2268 -0.8617  0.2951
  261SOL    HW1  782   2.681   1.235   1.262  0.5198 -2.4497  0.4445
  261SOL    HW2  783   2.795   1.251   1.401 -1.3175  0.3184  0.3726
  262SOL     OW  784   1.396   2.949   1.920 -0.2854  0.1782 -0.4420
  262SOL    HW1  785   1.454   3.034   1.917 -1.9219 -0.1522  3.1838
  262SOL    HW2  786   1.293   2.959   1.930  0.8896 -0.1495  1.4174
  263SOL     OW  787   0.863   0.668   2.282 -0.3094  0.0174  0.1126
  263SOL    HW1  788   0.801   0.591   2.254 -0.9850 -1.7176 -3.6000
  263SOL    HW2  789   0.877   0.733   2.203 -1.9486  0.5417 -0.2182
  264SOL     OW  790   2.241   0.800   0.399 -0.0565  0.1271 -0.3845
  264SOL    HW1  791   2.226   0.735   0.321  3.8678 -0.0969  0.8828
  264SOL    HW2  792   2.327   0.851   0.381  0.5683 -0.9205 -0.0305
  265SOL     OW  793   0.921   2.446   2.647  0.3498 -0.5199 -0.1019
  265SOL    HW1  794   1.003   2.499   2.695 -0.5778 -2.8099 -1.9060
  265SOL    HW2  795   0.914   2.350   2.680  0.3980  0.7860 -0.8801
  266SOL     OW  796   1.332   1.801   3.038  0.0122 -0.5677  0.1306
  266SOL    HW1  797   1.330   1.856   3.125 -2.2614 -0.6757 -0.5577
  266SOL    HW2  798   1.425   1.759   3.019 -0.8916 -1.0289 -1.9846
  267SOL     OW  799   1.031   0.071   2.321  0.2219  0.4052 -0.0374
  267SOL    HW1  800   0.992   0.028   2.241  0.3690  1.0977  0.9148
  267SOL    HW2  801   0.960   0.138   2.362  0.9528  3.4324 -3.4432
  268SOL     OW  802   0.672   1.216   1.084  1.0837  0.5348  0.0854
  268SOL    HW1  803   0.672   1.269   1.169  1.5749  0.2824  0.1930
  268SOL    HW2  804   0.715   1.276   1.007 -0.3254  0.7693 -1.7065
  269SOL     OW  805   2.330   2.523   1.621  0.5903 -0.1439 -0.1862
  269SOL    HW1  806   2.389   2.456   1.672 -2.6117 -1.6175 -1.9919
  269SOL    HW2  807   2.253   2.558   1.679  1.4934 -5.0194  1.2019
  270SOL     OW  808   0.157   2.967   1.958 -0.0883  0.5036 -0.0447
  270SOL    HW1  809   0.175   2.922   1.865 -0.0251 -0.2599  0.2603
  270SOL    HW2  810   0.076   2.923   2.007  0.3521  0.2565  1.9293
  271SOL     OW  811   0.425   1.394   1.155 -0.0727  0.6095 -0.1550
  271SOL    HW1  812   0.422   1.367   1.053  0.8031 -0.5991 -0.4567
  271SOL    HW2  813   0.329   1.394   1.204 -2.7565  0.2020  0.3862
  272SOL     OW  814   2.029   2.960   1.934 -0.4701  0.3130  0.1609
  272SOL    HW1  815   1.928   2.951   1.924  0.3686 -0.2002  0.4972
  272SOL    HW2  816   2.084   2.992   1.848  5.0427  0.2457 -1.9094
  273SOL     OW  817   1.500   1.442   2.750 -0.0652 -0.2132  0.3526
  273SOL    HW1  818   1.396   1.435   2.755  0.6632 -1.3285 -1.2395
  273SOL    HW2  819   1.548   1.378   2.817  0.9637 -2.1892 -1.6926
  274SOL     OW  820   1.183   0.504   2.057 -0.2892 -0.0154  0.0242
  274SOL    HW1  821   1.138   0.413   2.052  2.7407 -0.7208 -0.4961
  274SOL    HW2  822   1.208   0.521   2.156  2.3126  0.0422 -1.2742
  275SOL     OW  823   0.652   2.134   1.881  0.1966 -0.0459  0.2782
  275SOL    HW1  824   0.628   2.213   1.940  2.9736 -0.2157 -1.1965
  275SOL    HW2  825   0.572   2.080   1.849 -0.4873 -0.0713  1.9016
  276SOL     OW  826   2.198   1.121   2.776 -0.3773  0.3617  0.2042
  276SOL    HW1  827   2.139   1.119   2.693 -0.1842 -0.5100 -0.2472
  276SOL    HW2  828   2.199   1.028   2.824 -0.1316 -0.3734 -0.4568
  277SOL     OW  829  -0.004   0.762   0.243  0.0177  0.3227 -0.0236
  277SOL    HW1  830   0.085   0.795   0.197  1.1162  2.0347 -1.3411
  277SOL    HW2  831   0.016   0.682   0.308  1.7690 -0.5714 -0.5798
  278SOL     OW  832   0.216   0.284   2.921 -0.3357 -0.7366  0.0081
  278SOL    HW1  833   0.307   0.228   2.924  0.1758  0.1211  0.8892
  278SOL    HW2  834   0.221   0.379   2.960  0.1495  1.1542 -3.9527
  279SOL     OW  835   0.230   0.026   0.899 -0.0421 -0.2113  0.2790
  279SOL    HW1  836   0.208  -0.051   0.962  0.4136  1.5305 -1.2558
  279SOL    HW2  837   0.246  -0.002   0.801 -0.0410 -0.6394 -1.4287
  280SOL     OW  838   1.613   2.949   2.388  0.0130 -0.1620  0.2774
  280SOL    HW1  839   1.693   2.978   2.451  0.0544  1.9823  0.5527
  280SOL    HW2  840   1.562   3.020   2.338  1.0772 -1.1306 -2.9410
  281SOL     OW  841   0.590   0.983   2.266 -0.1733  0.0770 -0.2152
  281SOL    HW1  842   0.608   0.887   2.227 -0.0466 -0.5799  1.3976
  281SOL    HW2  843   0.538   0.980   2.355  0.4483  1.2342  2.0785
  282SOL     OW  844   1.783   2.486   0.497  0.2975  0.0622  0.1924
  282SOL    HW1  845   1.736   2.406   0.452  3.9826  0.3756  0.5118
  282SOL    HW2  846   1.750   2.576   0.459 -1.2660 -1.1104 -0.3708
  283SOL     OW  847   1.216   0.942   0.774 -0.3938  0.0559 -0.3087
  283SOL    HW1  848   1.221   0.874   0.852 -1.2098  0.1471  0.8826
  283SOL    HW2  849   1.160   1.025   0.801 -0.4833  0.5113  2.1348
  284SOL     OW  850   2.244   2.820   2.515  0.6123 -0.3839 -0.7387
  284SOL    HW1  851   2.341   2.805   2.486  0.8881  0.2408  2.0182
  284SOL    HW2  852   2.232   2.851   2.619 -1.7444 -2.0255  4.0852
  285SOL     OW  853   1.378   3.064   2.574  0.8369  0.2022 -0.1526
  285SOL    HW1  854   1.398   3.077   2.475  0.3249 -1.0719  0.9781
  285SOL    HW2  855   1.288   3.112   2.608 -3.4409  1.0012 -1.6293
  286SOL     OW  856   0.422   0.424   0.762 -0.1279 -0.1551 -0.3668
  286SOL    HW1  857   0.409   0.360   0.838 -0.5715  0.8476 -1.2105
  286SOL    HW2  858   0.416   0.378   0.669 -0.4571 -1.4266  3.1110
  287SOL     OW  859   0.073   1.271   2.510  0.0491  0.1013  0.7240
  287SOL    HW1  860   0.048   1.201   2.576 -1.5040  3.6767 -0.3654
  287SOL    HW2  861   0.046   1.369   2.533 -1.7336  0.8341  0.0516
  288SOL     OW  862   1.601   2.696   1.632  0.1420  0.5053  1.1123
  288SOL    HW1  863   1.603   2.625   1.711 -1.5624  2.0772 -0.9184
  288SOL    HW2  864   1.569   2.656   1.539  0.5223 -1.7567 -1.9565
  289SOL     OW  865   0.574   2.715   0.850 -0.4724  0.0863 -0.1631
  289SOL    HW1  866   0.633   2.768   0.784  0.7064 -0.9953  1.4838
  289SOL    HW2  867   0.582   2.753   0.950  0.2998 -0.6548  0.5862
  290SOL     OW  868   2.851   1.154   1.784  0.2483 -0.1216 -0.2260
  290SOL    HW1  869   2.776   1.079   1.771 -0.4489 -2.3915 -2.2449
  290SOL    HW2  870   2.925   1.111   1.841 -0.0587  0.5057 -0.5224
  291SOL     OW  871   1.987   3.088   0.036 -0.2940  0.0360  0.2187
  291SOL    HW1  872   1.982   3.123   0.134  0.1781  3.9394  2.5610
  291SOL    HW2  873   2.067   3.138  -0.016  3.0161 -0.5610  1.2377
  292SOL     OW  874   3.022   1.227   3.084  0.1217  0.1976  0.5923
  292SOL    HW1  875   2.932   1.262   3.037 -1.6773  1.4375 -0.8265
  292SOL    HW2  876   3.098   1.204   3.016  1.9496 -1.7679 -1.9224
  293SOL     OW  877   0.531   2.184   0.290  0.0439  0.3969  0.2960
  293SOL    HW1  878   0.517   2.279   0.328  0.3149  0.3383 -0.6861
  293SOL    HW2  879   0.633   2.158   0.279 -2.1633 -1.7090  0.8586
  294SOL     OW  880   1.831   2.302   1.769 -0.1309  0.3293  0.3108
  294SOL    HW1  881   1.856   2.324   1.868 -2.0050  0.9596 -2.4349
  294SOL    HW2  882   1.756   2.354   1.729  0.7764  0.0425  0.5734
  295SOL     OW  883   0.977   1.060   0.435 -0.3554 -0.4538 -0.0885
  295SOL    HW1  884   1.083   1.068   0.443  2.4841  0.6693 -0.9985
  295SOL    HW2  885   0.932   1.048   0.531  1.1457  0.5370 -1.3898
  296SOL     OW  886   1.214   2.116   2.692 -1.1412  0.7864  0.4641
  296SOL    HW1  887   1.120   2.150   2.669  0.6395 -0.6096  2.1671
  296SOL    HW2  888   1.254   2.058   2.612  3.2809 -0.3290  2.9513
  297SOL     OW  889   1.370   0.585   1.315  0.1153 -0.4283 -0.3015
  297SOL    HW1  890   1.389   0.523   1.398  0.6890  0.7454 -0.4155
  297SOL    HW2  891   1.452   0.637   1.277  2.4535  1.0248  0.6117
  298SOL     OW  892   0.530   1.354   2.999  0.0491 -0.0986  0.0219
  298SOL    HW1  893   0.471   1.307   3.065 -1.6689  1.3487 -0.7466
  298SOL    HW2  894   0.566   1.292   2.921 -3.2225 -1.8863 -0.2920
  299SOL     OW  895   0.454   0.300   1.279 -0.5187  0.1790  0.4024
  299SOL    HW1  896   0.397   0.385   1.264 -1.7513  0.8840 -2.3374
  299SOL    HW2  897   0.508   0.305   1.367 -0.5822 -0.1603 -1.7219
  300SOL     OW  898   1.257   1.712   2.590 -0.1992  0.1622 -0.5066
  300SOL    HW1  899   1.247   1.616   2.544  0.9894  0.6950  0.3132
  300SOL    HW2  900   1.347   1.725   2.636  0.5422  1.5118 -4.2108
  301SOL     OW  901   0.412   0.262   0.510  0.6337  0.4335  0.6794
  301SOL    HW1  902   0.320   0.233   0.465  1.6531  0.5612 -0.2383
  301SOL    HW2  903   0.494   0.211   0.463  0.0997  0.3805 -3.4392
  302SOL     OW  904   1.247   2.430   2.316 -0.5149  0.1273  0.0084
  302SOL    HW1  905   1.156   2.473   2.307 -0.0889  0.9086 -1.0299
  302SOL    HW2  906   1.273   2.408   2.414 -0.4633 -0.0763 -1.8654
  303SOL     OW  907   0.918   2.426   0.817 -0.3088 -0.1889  0.2076
  303SOL    HW1  908   0.970   2.457   0.732 -0.1756 -2.6410  1.0847
  303SOL    HW2  909   0.968   2.453   0.899 -1.5233 -2.0341  1.4669
  304SOL     OW  910   0.086   1.917   0.699 -0.3578 -0.2813 -0.0040
  304SOL    HW1  911   0.150   1.899   0.618  0.1384 -0.4696 -2.4669
  304SOL    HW2  912  -0.004   1.960   0.665  1.6498 -1.9729 -2.5198
  305SOL     OW  913   1.599   0.886   0.665  0.1491 -0.0038  0.3050
  305SOL    HW1  914   1.556   0.874   0.576  3.1851  3.8157  2.5293
  305SOL    HW2  915   1.611   0.793   0.708  0.8177  2.4478  1.6004
  306SOL     OW  916   0.443   1.925   1.887 -0.0373  0.8701 -0.2503
  306SOL    HW1  917   0.519   1.851   1.880 -0.5691  1.1344  1.1622
  306SOL    HW2  918   0.431   1.958   1.988 -3.0161 -1.4009 -1.6714
  307SOL     OW  919   3.008   0.863   2.516 -0.4288 -0.3692  0.1112
  307SOL    HW1  920   3.039   0.920   2.595 -0.6276 -0.5396  0.2890
  307SOL    HW2  921   2.939   0.789   2.540  1.0695 -1.1439 -0.3674
  308SOL     OW  922   1.598   2.661   2.782 -0.1490 -0.0452  0.6165
  308SOL    HW1  923   1.578   2.618   2.691 -1.5540  2.2326  0.1028
  308SOL    HW2  924   1.558   2.602   2.860 -0.1762  0.6299  2.0372
  309SOL     OW  925   1.219   0.173   1.784 -0.1129 -0.3878 -0.0436
  309SOL    HW1  926   1.301   0.130   1.823 -1.1984  0.6808 -0.6637
  309SOL    HW2  927   1.218   0.181   1.681 -1.3169  0.7933 -0.5290
  310SOL     OW  928   1.522   2.544   0.675 -0.2110  0.1946  0.3176
  310SOL    HW1  929   1.481   2.592   0.764  0.0372  0.2704  0.0280
  310SOL    HW2  930   1.593   2.594   0.625 -1.5169 -2.7385 -1.9929
  311SOL     OW  931   1.137   0.934   1.753  0.1442  0.2979  0.1602
  311SOL    HW1  932   1.121   0.847   1.805  4.1327  0.8600 -0.1124
  311SOL    HW2  933   1.162   0.917   1.653 -0.6426  1.1012  1.3185
  312SOL     OW  934   1.545   0.679   1.114  0.0640 -0.3967  0.5641
  312SOL    HW1  935   1.573   0.772   1.075  1.2342 -0.9451  0.8914
  312SOL    HW2  936   1.499   0.618   1.038 -1.1314 -2.1819  1.4071
  313SOL     OW  937   1.612   1.361   0.719 -0.6820 -0.3319  0.4609
  313SOL    HW1  938   1.556   1.395   0.794  0.4638 -2.4321 -2.2049
  313SOL    HW2  939   1.589   1.265   0.690 -2.2045 -0.7838 -1.6639
  314SOL     OW  940   2.991   3.087   3.067 -0.0123 -0.1230  0.3631
  314SOL    HW1  941   3.025   3.115   3.162 -0.1538  1.0614  0.0646
  314SOL    HW2  942   2.903   3.028   3.064  1.3643 -0.4668 -0.4551
  315SOL     OW  943   1.180   0.261   2.779  0.1270 -0.1590 -0.6160
  315SOL    HW1  944   1.159   0.196   2.699  2.7391 -0.2879  0.2915
  315SOL    HW2  945   1.225   0.211   2.857  1.9702  0.3025  0.4358
  316SOL     OW  946   1.727   2.088   0.898  0.6179  0.0127 -0.2643
  316SOL    HW1  947   1.682   2.100   0.991  2.2307 -0.0889 -3.3205
  316SOL    HW2  948   1.731   2.178   0.846  0.8486  1.0071 -0.9978
  317SOL     OW  949   1.182   0.646   2.785 -0.5513  0.1294 -0.3603
  317SOL    HW1  950   1.137   0.704   2.853 -1.0132 -2.6509  0.2909
  317SOL    HW2  951   1.113   0.569   2.758 -0.7259  2.2210  0.9352
  318SOL     OW  952   1.433   3.090   2.231 -0.3099  0.2903 -0.0962
  318SOL    HW1  953   1.384   3.182   2.220 -0.8158 -0.6743  0.6600
  318SOL    HW2  954   1.397   3.022   2.161  0.6134  1.3220 -0.7893
  319SOL     OW  955   0.612   2.329   2.909  0.6782 -0.3282 -0.4934
  319SOL    HW1  956   0.553   2.283   2.988 -1.0805 -2.6151 -0.4067
  319SOL    HW2  957   0.660   2.262   2.843  1.0984 -0.7117  0.2260
  320SOL     OW  958   1.703   2.233   0.410 -0.5995  0.2262 -0.2961
  320SOL    HW1  959   1.786   2.173   0.382  0.6826 -2.4239  1.8661
  320SOL    HW2  960   1.638   2.177   0.479 -1.8094  0.4215 -2.5036
  321SOL     OW  961   1.674   2.759   0.575 -0.1828  0.2818  0.2943
  321SOL    HW1  962   1.593   2.808   0.533  0.7957 -0.2373  1.1801
  321SOL    HW2  963   1.757   2.763   0.514  3.0745 -0.8517 -0.6051
  322SOL     OW  964   2.597   1.125   2.335  0.0216 -0.0093 -0.7089
  322SOL    HW1  965   2.688   1.118   2.387 -0.7023  2.6773 -1.2677
  322SOL    HW2  966   2.532   1.041   2.357 -1.5250 -0.8056  0.4553
  323SOL     OW  967   1.156   2.666   0.825  0.4060 -0.7521 -0.5623
  323SOL    HW1  968   1.109   2.656   0.741 -0.1552 -0.1020  1.1022
  323SOL    HW2  969   1.156   2.759   0.869 -1.5401  0.6343  2.0431
  324SOL     OW  970   0.265   2.509   2.461 -0.1373  0.5037 -0.2947
  324SOL    HW1  971   0.209   2.443   2.521 -2.2370 -1.1810 -0.4723
  324SOL    HW2  972   0.265   2.607   2.491 -0.5660  0.9142  1.3989
  325SOL     OW  973   1.269   2.992   0.493 -0.2316 -0.3529 -0.4893
  325SOL    HW1  974   1.264   3.039   0.401 -0.4768  1.9265 -1.7869
  325SOL    HW2  975   1.284   3.062   0.567 -0.1160  0.1460 -0.5522
  326SOL     OW  976   2.449   0.787   0.003  0.2159  0.0624  0.1962
  326SOL    HW1  977   2.363   0.764  -0.047 -0.0442  1.9787 -1.1456
  326SOL    HW2  978   2.502   0.706   0.041  1.7851 -3.1817  0.8807
  327SOL     OW  979   2.808   0.304   0.548 -0.5390 -0.1692 -0.7275
  327SOL    HW1  980   2.774   0.248   0.468  0.6675  2.6495 -0.8404
  327SOL    HW2  981   2.806   0.247   0.638  1.2334  1.9040  0.2884
  328SOL     OW  982   2.606   0.609   0.419  0.2337  0.0138 -0.1620
  328SOL    HW1  983   2.665   0.691   0.435  2.0098 -1.0478  0.1592
  328SOL    HW2  984   2.566   0.567   0.506 -1.5393  0.7861 -1.0058
  329SOL     OW  985   2.911   2.943   2.128 -0.1365 -0.3939 -0.4336
  329SOL    HW1  986   2.978   2.895   2.191 -1.8544  0.2761 -1.7421
  329SOL    HW2  987   2.935   3.043   2.111 -1.7895  0.3765  2.2090
  330SOL     OW  988   0.587   0.182   1.923  0.0298 -0.3258  0.3138
  330SOL    HW1  989   0.668   0.173   1.854  0.0791 -3.3855  1.8957
  330SOL    HW2  990   0.588   0.110   2.000  2.0066 -0.6160 -0.3098
  331SOL     OW  991   3.014   1.935   1.077 -0.0678 -0.3121  0.0992
  331SOL    HW1  992   2.960   1.931   0.987 -1.9874  0.9504  0.2708
  331SOL    HW2  993   2.955   1.924   1.162  0.4925 -0.9564 -2.2620
  332SOL     OW  994   0.384   1.193   0.070 -0.0202 -0.3390 -0.1193
  332SOL    HW1  995   0.340   1.106   0.042  1.3091  1.4673  0.5540
  332SOL    HW2  996   0.381   1.198   0.174  0.8531  2.2657  0.0546
  333SOL     OW  997   2.928   0.992   0.307  0.0961  0.4097  0.3837
  333SOL    HW1  998   2.988   1.065   0.353  2.2886  1.1570  2.0446
  333SOL    HW2  999   2.986   0.912   0.275  3.0370 -2.4865  1.3348
  334SOL     OW 1000   1.701   1.277   1.802  0.9571 -0.0272 -0.2169
  334SOL    HW1 1001   1.763   1.273   1.720  0.3814  1.8348  1.6713
  334SOL    HW2 1002   1.749   1.268   1.889 -2.3008  0.1244 -1.3730
  335SOL     OW 1003   1.989   2.745   2.582 -0.1280  0.4982  0.3307
  335SOL    HW1 1004   1.925   2.759   2.666 -1.6277  1.4433  0.6468
  335SOL    HW2 1005   2.080   2.797   2.593  2.1479 -0.2507 -0.5247
  336SOL     OW 1006   0.261   0.031   2.725  0.3196 -0.1915  0.5716
  336SOL    HW1 1007   0.336   0.047   2.798 -0.4129 -0.6927 -0.8532
  336SOL    HW2 1008   0.170   0.006   2.765 -0.8810 -3.6160 -1.8977
  337SOL     OW 1009   0.985   2.932   2.944 -0.3103  0.2209  0.6624
  337SOL    HW1 1010   0.950   2.858   3.002 -0.3167 -1.1092 -0.0975
  337SOL    HW2 1011   1.090   2.943   2.949  3.3287 -0.1596 -1.3425
  338SOL     OW 1012   0.065   0.991   0.698 -0.2483  0.0910 -0.1178
  338SOL    HW1 1013  -0.028   0.953   0.727  1.2548  0.3882 -0.4525
  338SOL    HW2 1014   0.069   1.094   0.703 -0.2777 -0.0048  2.1128
  339SOL     OW 1015   1.716   1.348   2.149  0.2928  0.3202  0.5737
  339SOL    HW1 1016   1.618   1.372   2.185  0.1370  3.1566  0.4538
  339SOL    HW2 1017   1.771   1.440   2.139 -2.8991  2.1464 -1.1808
  340SOL     OW 1018   2.288   0.753   1.167 -0.7428  0.3637  0.1051
  340SOL    HW1 1019   2.199   0.802   1.145  0.1475  1.0905  0.3464
  340SOL    HW2 1020   2.292   0.656   1.127 -0.3330 -2.9369  0.2924
  341SOL     OW 1021   1.942   2.119   0.323 -0.3173  0.2948  0.1007
  341SOL    HW1 1022   1.978   2.145   0.229  0.6990 -2.6425  1.1993
  341SOL    HW2 1023   2.018   2.077   0.388 -1.7640  0.0325  1.9402
  342SOL     OW 1024   2.148   2.133   2.778  0.2376  0.0334 -0.3199
  342SOL    HW1 1025   2.210   2.051   2.800  0.9707  0.3146 -0.5686
  342SOL    HW2 1026   2.056   2.104   2.738 -1.3352 -0.4140  0.2036
  343SOL     OW 1027   0.402   0.793   2.776  0.4763 -0.3255 -0.1545
  343SOL    HW1 1028   0.405   0.846   2.687 -2.8343  1.9130 -1.4557
  343SOL    HW2 1029   0.489   0.798   2.831 -0.6514  1.1114 -1.1054
  344SOL     OW 1030   1.903   1.494   0.413 -0.6914 -0.0260 -0.6020
  344SOL    HW1 1031   1.873   1.404   0.370 -1.6037 -0.5651  2.0268
  344SOL    HW2 1032   1.822   1.537   0.465 -0.7612 -0.3784 -0.9335
  345SOL     OW 1033   1.386   2.252   2.861  0.6644 -0.0771  0.2598
  345SOL    HW1 1034   1.292   2.261   2.817 -0.1401 -0.7578  0.3195
  345SOL    HW2 1035   1.445   2.175   2.828 -1.2235  1.5993 -1.5838
  346SOL     OW 1036   2.334   0.923   1.399 -0.1372  0.2094  0.0849
  346SOL    HW1 1037   2.296   1.018   1.404  1.9115  0.9057 -0.2742
  346SOL    HW2 1038   2.306   0.878   1.312 -1.3431  0.8430  2.2430
  347SOL     OW 1039   0.745   2.727   1.638 -0.2131 -0.0640  0.1297
  347SOL    HW1 1040   0.666   2.715   1.702  0.6240 -1.3291 -1.8450
  347SOL    HW2 1041   0.728   2.809   1.576 -0.5893 -1.3085 -2.3401
  348SOL     OW 1042   0.177   0.774   2.920 -0.0666  0.3870 -0.0039
  348SOL    HW1 1043   0.087   0.748   2.877  0.7456  0.9144 -1.7343
  348SOL    HW2 1044   0.264   0.762   2.861  2.5643  0.9959 -2.6515
  349SOL     OW 1045   1.848   0.423   2.773 -0.5728  0.2852  0.4467
  349SOL    HW1 1046   1.836   0.505   2.711 -2.1650  0.4194 -0.5501
  349SOL    HW2 1047   1.818   0.432   2.872 -1.0044 -1.0438 -1.8897
  350SOL     OW 1048   1.653   0.398   0.372  0.3174 -0.3797 -0.3885
  350SOL    HW1 1049   1.742   0.384   0.426 -0.7762 -1.8156 -1.0628
  350SOL    HW2 1050   1.624   0.501   0.365 -1.1086  0.7884  1.3062
  351SOL     OW 1051   0.960   0.854   2.085 -0.3952  0.0621  0.0705
  351SOL    HW1 1052   0.991   0.951   2.065 -0.7108 -3.1733  0.5512
  351SOL    HW2 1053   0.985   0.782   2.015 -0.8763 -0.5656 -1.0050
  352SOL     OW 1054   2.076   1.366   0.586  0.5581  0.6683 -0.3612
  352SOL    HW1 1055   2.025   1.428   0.515  1.4243 -0.2834 -2.3101
  352SOL    HW2 1056   2.022   1.324   0.665 -1.3119 -2.0114 -1.1230
  353SOL     OW 1057   2.188   2.816   1.069  0.2767  0.4013 -0.6352
  353SOL    HW1 1058   2.251   2.771   1.142  0.9147  2.5989 -0.3676
  353SOL    HW2 1059   2.088   2.775   1.063 -0.6778  2.5385 -0.1631
  354SOL     OW 1060   0.280   1.416   2.847  0.0852  0.3863  0.4060
  354SOL    HW1 1061   0.252   1.504   2.793 -0.8504  1.3972 -0.6758
  354SOL    HW2 1062   0.379   1.419   2.875  0.7516  3.0410  0.2368
  355SOL     OW 1063   0.743   1.593   0.591  0.1748 -0.3023 -0.2707
  355SOL    HW1 1064   0.722   1.517   0.660  1.6063 -0.6812 -1.1876
  355SOL    HW2 1065   0.713   1.577   0.491 -1.1499  1.8867 -1.4154
  356SOL     OW 1066   0.853   0.325   2.046  0.5971 -0.5323 -0.4333
  356SOL    HW1 1067   0.953   0.297   2.040 -3.5832 -0.4591 -0.3092
  356SOL    HW2 1068   0.794   0.265   1.991  1.6894  0.8838  0.3584
  357SOL     OW 1069   1.009   1.323   0.369  0.8417 -0.0973 -0.3730
  357SOL    HW1 1070   1.096   1.333   0.309  2.2224 -0.6696 -1.0162
  357SOL    HW2 1071   0.984   1.224   0.394  4.5367 -1.8955  1.0317
  358SOL     OW 1072   1.638   1.542   0.490  0.5585  0.0552 -0.2385
  358SOL    HW1 1073   1.617   1.472   0.568 -1.6464 -1.4743  3.4137
  358SOL    HW2 1074   1.599   1.506   0.399 -1.6031 -0.7459 -1.3503
  359SOL     OW 1075   1.611   2.624   0.248 -0.2373 -0.3906  0.1934
  359SOL    HW1 1076   1.592   2.526   0.222 -2.6980 -0.1185  1.3131
  359SOL    HW2 1077   1.524   2.673   0.284 -1.4609  0.7424  0.0153
  360SOL     OW 1078   0.766   0.547   0.542 -0.0663  0.0176  0.0793
  360SOL    HW1 1079   0.669   0.554   0.530  0.4947 -0.0721 -2.0644
  360SOL    HW2 1080   0.809   0.453   0.565  0.8357 -1.1931  0.9010
  361SOL     OW 1081   1.302   1.271   0.654  0.1658 -0.1560 -0.3454
  361SOL    HW1 1082   1.371   1.309   0.716 -0.6166 -2.8749  1.8471
  361SOL    HW2 1083   1.221   1.334   0.646  0.8626  0.9085 -1.4333
  362SOL     OW 1084   1.381   1.754   0.746 -0.2308  0.0132 -0.7057
  362SOL    HW1 1085   1.445   1.698   0.806 -1.2442  0.5615  1.2550
  362SOL    HW2 1086   1.410   1.760   0.649  2.0220 -0.8601  0.1285
  363SOL     OW 1087   1.242   1.328   2.077 -0.3885 -0.3266 -0.1061
  363SOL    HW1 1088   1.327   1.388   2.071 -2.3472 -2.9348  0.6160
  363SOL    HW2 1089   1.158   1.380   2.049  0.7465 -0.6801 -0.2291
  364SOL     OW 1090   0.515   2.361   2.022 -0.4177  0.0046  0.3487
  364SOL    HW1 1091   0.417   2.397   2.013  0.4822 -1.6802 -2.1397
  364SOL    HW2 1092   0.580   2.406   1.957 -0.3525  1.5367  1.3415
  365SOL     OW 1093   1.032   1.964   1.338  0.1980  0.1889  0.1264
  365SOL    HW1 1094   0.939   1.992   1.376 -1.1821 -2.1616  0.7997
  365SOL    HW2 1095   1.035   1.980   1.235  0.2580  1.1742  0.8497
  366SOL     OW 1096   2.846   1.944   0.365  0.2175 -0.1003  0.2424
  366SOL    HW1 1097   2.771   1.896   0.417 -1.0485  0.5898 -4.3760
  366SOL    HW2 1098   2.899   1.880   0.310 -0.0758  0.1145  0.3172
  367SOL     OW 1099   0.973   1.192   0.022  0.1455  0.2724  0.3164
  367SOL    HW1 1100   0.972   1.125   0.102  1.4236 -3.3651 -1.1448
  367SOL    HW2 1101   1.058   1.249   0.028 -0.2354  2.5338  1.3825
  368SOL     OW 1102   1.420   0.535   0.625  0.0183 -0.5927 -0.3620
  368SOL    HW1 1103   1.374   0.579   0.546  3.2033  1.7012 -1.6502
  368SOL    HW2 1104   1.511   0.581   0.639  2.4725 -0.1584  2.0886
  369SOL     OW 1105   0.375   1.754   0.172  0.1664  0.0157  0.6715
  369SOL    HW1 1106   0.413   1.829   0.236  1.7364  1.2722  0.1165
  369SOL    HW2 1107   0.310   1.684   0.214  0.4508  0.9251 -0.8574
  370SOL     OW 1108   0.441   2.068   1.047  0.0873  0.6107 -0.6906
  370SOL    HW1 1109   0.436   2.167   1.023 -0.6919 -0.9081  0.8136
  370SOL    HW2 1110   0.345   2.031   1.021  0.1796  1.9976  1.5871
  371SOL     OW 1111   2.874   2.207   2.610 -0.5154  0.1967  0.1258
  371SOL    HW1 1112   2.807   2.155   2.663  0.8832  0.6585  1.3444
  371SOL    HW2 1113   2.939   2.249   2.679  1.7608  1.1735 -0.8536
  372SOL     OW 1114   1.058   2.050   1.005  0.9187  0.6902 -0.1844
  372SOL    HW1 1115   0.970   2.083   0.962  1.1161  0.7019  0.9001
  372SOL    HW2 1116   1.141   2.070   0.945 -0.7735 -1.8941 -0.6145
  373SOL     OW 1117   1.939   1.919   0.931 -0.4474  0.1749  1.2656
  373SOL    HW1 1118   2.028   1.951   0.976  0.1117 -1.0584  3.8472
  373SOL    HW2 1119   1.864   1.991   0.914 -4.5480 -1.8545 -0.4135
  374SOL     OW 1120   1.866   0.388   0.556 -0.1075  0.3171  0.2947
  374SOL    HW1 1121   1.846   0.378   0.652  2.3085 -1.2428 -2.1828
  374SOL    HW2 1122   1.968   0.373   0.538 -0.9944  0.3933  1.1773
  375SOL     OW 1123   2.401   2.158   1.089  0.1156  0.1806  0.0030
  375SOL    HW1 1124   2.438   2.128   0.996 -1.3495 -0.0499  1.2987
  375SOL    HW2 1125   2.474   2.152   1.164 -0.0391 -1.3736 -0.8554
  376SOL     OW 1126   3.026   0.515   1.484  0.4967  0.0849 -0.2684
  376SOL    HW1 1127   3.000   0.584   1.562 -1.1968 -1.0877 -1.3518
  376SOL    HW2 1128   2.954   0.444   1.463 -0.1861 -1.3065  1.5736
  377SOL     OW 1129   2.173   2.912   0.312  0.0181  0.2412  0.1205
  377SOL    HW1 1130   2.178   3.013   0.326  0.0873 -0.5959 -1.0381
  377SOL    HW2 1131   2.261   2.864   0.347  1.8516 -0.1569  1.3155
  378SOL     OW 1132   1.740   1.854   2.533  0.2174  0.0243 -0.5279
  378SOL    HW1 1133   1.828   1.892   2.506  1.8532 -4.3584  0.9528
  378SOL    HW2 1134   1.724   1.754   2.509 -1.0310  0.2382  0.2578
  379SOL     OW 1135   0.690   0.152   2.842  0.1036 -0.2910  0.0511
  379SOL    HW1 1136   0.740   0.065   2.820  1.4975  1.0371 -0.5179
  379SOL    HW2 1137   0.680   0.221   2.761  3.1450  1.9486 -1.1261
  380SOL     OW 1138   1.557   1.137   0.585  0.9391  0.2632 -0.7954
  380SOL    HW1 1139   1.453   1.156   0.576  0.7287 -0.0459  0.3943
  380SOL    HW2 1140   1.579   1.039   0.612 -0.0774  0.2234  1.4999
  381SOL     OW 1141   1.346   1.198   1.576  0.3305  0.0596  0.2897
  381SOL    HW1 1142   1.391   1.133   1.510 -0.1024 -0.3331 -2.3205
  381SOL    HW2 1143   1.414   1.250   1.633 -1.5105  1.3857 -0.2368
  382SOL     OW 1144   1.822   0.892   0.194  0.4354 -0.1793  0.6173
  382SOL    HW1 1145   1.841   0.835   0.108 -0.1648  0.1705  1.3543
  382SOL    HW2 1146   1.884   0.862   0.275  0.0308 -3.4291 -0.9883
  383SOL     OW 1147   2.582   1.004   1.470  0.3393 -0.1228  0.0992
  383SOL    HW1 1148   2.479   0.979   1.447 -2.2297 -1.2280  0.3997
  383SOL    HW2 1149   2.649   0.988   1.388 -1.1112  1.5767 -0.6337
  384SOL     OW 1150   0.933   2.227   0.160 -0.8839  0.2443  0.6134
  384SOL    HW1 1151   0.939   2.317   0.205 -1.4022 -1.2925  1.8300
  384SOL    HW2 1152   0.907   2.149   0.225  1.3532 -0.1719 -0.8028
  385SOL     OW 1153   2.964   2.007   1.662  0.2140  0.0661  0.3087
  385SOL    HW1 1154   3.033   2.079   1.654 -2.2224 -0.9469 -1.9177
  385SOL    HW2 1155   3.008   1.920   1.634 -2.4914 -1.7047 -1.1875
  386SOL     OW 1156   0.521   1.047   0.464 -0.0033  1.0574 -0.0594
  386SOL    HW1 1157   0.524   0.947   0.465 -0.3478  0.0129 -0.0818
  386SOL    HW2 1158   0.425   1.087   0.450  0.0789  1.4057  1.5986
  387SOL     OW 1159   0.926   0.409   1.683 -0.7267  0.2658  0.0031
  387SOL    HW1 1160   0.992   0.487   1.687  0.4508 -3.5687 -1.1460
  387SOL    HW2 1161   0.940   0.347   1.603 -1.8880  0.0309 -0.5592
  388SOL     OW 1162   1.203   2.713   1.738 -0.2834 -0.0166 -0.5243
  388SOL    HW1 1163   1.221   2.711   1.636 -0.7608  0.9411 -1.0794
  388SOL    HW2 1164   1.230   2.628   1.786  0.5539 -1.4521 -1.5899
  389SOL     OW 1165   0.167   3.023   1.216 -0.3890 -0.5240  0.5291
  389SOL    HW1 1166   0.070   3.053   1.237  2.0510 -2.0662 -0.2858
  389SOL    HW2 1167   0.188   2.920   1.223  0.8659 -0.6352  1.5525
  390SOL     OW 1168   1.035   0.975   1.317  0.2301 -0.5480 -0.5635
  390SOL    HW1 1169   1.115   0.965   1.382 -2.5082  0.7822 -0.7573
  390SOL    HW2 1170   0.955   1.033   1.355  0.5808  0.7870  0.1525
  391SOL     OW 1171   2.188   1.125   1.080  0.3996  0.1859  0.1783
  391SOL    HW1 1172   2.140   1.049   1.128  1.9318 -0.0505 -0.5435
  391SOL    HW2 1173   2.220   1.099   0.981  0.8971 -1.9835 -2.3391
  392SOL     OW 1174   0.854   2.674   3.079  0.1145 -0.3812 -0.5998
  392SOL    HW1 1175   0.922   2.593   3.049  3.9229 -1.1747  0.2407
  392SOL    HW2 1176   0.863   2.694   3.180 -1.7495 -0.0678  0.0480
  393SOL     OW 1177   0.400   0.581   1.970  0.1003  0.0142  0.1377
  393SOL    HW1 1178   0.335   0.504   1.974  1.2911  2.4137  0.2448
  393SOL    HW2 1179   0.478   0.550   1.901  1.3528  0.2171  0.3379
  394SOL     OW 1180   2.953   1.888   2.784 -0.0649  0.9001  0.2876
  394SOL    HW1 1181   3.014   1.935   2.849 -1.0725 -1.3638 -0.3453
  394SOL    HW2 1182   2.976   1.909   2.686  0.8146 -0.3117 -0.9956
  395SOL     OW 1183   1.609   1.983   0.666 -0.2405  0.0382 -0.0877
  395SOL    HW1 1184   1.676   1.936   0.604  0.3737  0.0531  2.2611
  395SOL    HW2 1185   1.648   1.999   0.760 -1.6071 -0.7833 -0.3202
  396SOL     OW 1186   2.811   1.858   1.280 -0.0982 -0.2963  0.1012
  396SOL    HW1 1187   2.805   1.758   1.287 -2.7690  1.5136 -2.9462
  396SOL    HW2 1188   2.784   1.913   1.364 -1.0286 -0.0271 -0.4423
  397SOL     OW 1189   1.041   2.240   0.496  0.2685 -0.0405 -0.0635
  397SOL    HW1 1190   0.950   2.202   0.515  3.2315  1.0793  2.0029
  397SOL    HW2 1191   1.044   2.343   0.487 -0.1775  0.7888 -2.1805
  398SOL     OW 1192   2.159   3.099   1.021  0.2565 -0.3555  0.1937
  398SOL    HW1 1193   2.152   3.005   1.059  1.7197  2.0101  1.3392
  398SOL    HW2 1194   2.086   3.162   1.065  2.4876  0.4809  3.2537
  399SOL     OW 1195   3.049   2.471   2.519  0.1883 -0.1441  0.4833
  399SOL    HW1 1196   2.965   2.445   2.471  3.2375  1.0191  2.3205
  399SOL    HW2 1197   3.075   2.402   2.593  0.4613 -1.9188  0.5994
  400SOL     OW 1198   0.780   1.623   1.332  0.0565  0.0428  0.2787
  400SOL    HW1 1199   0.742   1.671   1.415 -1.8411 -1.8139 -2.2048
  400SOL    HW2 1200   0.758   1.668   1.238  3.4194  0.7957 -2.5929
  401SOL     OW 1201   1.850   0.078   1.310  0.3752  0.1149  0.2430
  401SOL    HW1 1202   1.925   0.081   1.384 -2.3580 -3.0188  0.0364
  401SOL    HW2 1203   1.757   0.099   1.345  1.4364  0.3565 -0.4456
  402SOL     OW 1204   1.310   0.153   3.080 -0.3096 -0.2120  0.3308
  402SOL    HW1 1205   1.404   0.125   3.033  0.4458 -1.8095 -0.8099
  402SOL    HW2 1206   1.282   0.254   3.071 -1.8688 -0.4892 -0.0899
  403SOL     OW 1207   2.287   1.748   0.955  0.4144 -0.0768  0.7026
  403SOL    HW1 1208   2.385   1.754   0.987  0.5196  3.7041  2.0392
  403SOL    HW2 1209   2.235   1.835   0.988 -1.3043  2.1149 -0.6165
  404SOL     OW 1210   0.166   2.514   2.791 -0.0712  0.2034  0.2564
  404SOL    HW1 1211   0.261   2.474   2.774 -1.2231  0.2569 -0.4215
  404SOL    HW2 1212   0.164   2.614   2.822 -1.6860 -2.1760 -1.2611
  405SOL     OW 1213   0.135   2.420   0.733  0.1279  0.5892  0.0004
  405SOL    HW1 1214   0.125   2.403   0.635  0.9431 -1.5819 -0.7870
  405SOL    HW2 1215   0.214   2.482   0.757 -1.7842  2.0263 -1.7456
  406SOL     OW 1216   0.094   1.521   3.053  0.0671 -0.0330  0.2700
  406SOL    HW1 1217   0.184   1.493   3.010  4.0196 -0.1832 -0.7788
  406SOL    HW2 1218   0.105   1.536   3.154  0.8159 -1.1704 -2.4972
  407SOL     OW 1219   1.520   0.954   1.006  0.1383 -0.9371  0.4627
  407SOL    HW1 1220   1.507   0.930   0.905 -0.2905 -1.0217 -2.9566
  407SOL    HW2 1221   1.453   1.021   1.048  2.6326 -0.7956 -1.8407
  408SOL     OW 1222   1.616   2.411   0.956  0.3971  0.6099 -0.4363
  408SOL    HW1 1223   1.674   2.387   0.873 -0.4433  1.5908  0.7306
  408SOL    HW2 1224   1.539   2.473   0.929 -1.7451 -1.2455 -1.2393
  409SOL     OW 1225   0.604   0.842   0.736 -0.1155 -0.9659  0.0792
  409SOL    HW1 1226   0.561   0.831   0.639  1.5418  1.2414  0.3748
  409SOL    HW2 1227   0.634   0.749   0.772  0.5582 -0.1511  2.0437
  410SOL     OW 1228   1.318   2.073   1.416 -0.0006 -0.6475 -0.2452
  410SOL    HW1 1229   1.382   2.013   1.473 -1.5700  2.8945 -2.8613
  410SOL    HW2 1230   1.258   2.020   1.352  0.1824 -1.3972 -0.1741
  411SOL     OW 1231   2.598   1.899   3.043  0.2398  0.1758  0.1448
  411SOL    HW1 1232   2.503   1.933   3.016 -0.1435 -1.1808  2.7523
  411SOL    HW2 1233   2.631   1.813   2.991  1.1087  0.1652 -0.2806
  412SOL     OW 1234   1.464   2.461   2.167  0.2550  0.1917  0.0677
  412SOL    HW1 1235   1.501   2.541   2.215  0.1992  0.1058 -1.1295
  412SOL    HW2 1236   1.380   2.419   2.210  0.2811 -1.0646  0.1253
  413SOL     OW 1237   3.038   0.226   2.945  0.0362 -0.6710 -0.5245
  413SOL    HW1 1238   3.012   0.133   2.981  0.7088  0.9944  1.6696
  413SOL    HW2 1239   3.141   0.228   2.930 -1.0084  0.4306  1.1435
  414SOL     OW 1240   1.856   1.513   1.191  1.1605  0.3768 -0.0692
  414SOL    HW1 1241   1.775   1.577   1.207 -0.8583  2.1611  2.2600
  414SOL    HW2 1242   1.820   1.416   1.183 -1.1003  3.0221 -0.7855
  415SOL     OW 1243   0.351   2.237   0.683 -0.5581  0.6876 -0.1988
  415SOL    HW1 1244   0.280   2.316   0.681 -1.0772  1.8756 -0.7169
  415SOL    HW2 1245   0.334   2.180   0.766  0.9781 -2.4061  0.6425
  416SOL     OW 1246   0.380   1.036   1.062  0.0348  0.8372 -0.0135
  416SOL    HW1 1247   0.368   0.999   0.966 -0.9273  0.5507 -3.2254
  416SOL    HW2 1248   0.463   1.092   1.077  0.8593  1.2337  1.5330
  417SOL     OW 1249   2.231   2.328   2.014  0.2814 -0.4902  0.3513
  417SOL    HW1 1250   2.301   2.267   2.060 -2.2990  0.8799  2.5792
  417SOL    HW2 1251   2.144   2.272   1.994 -0.0367 -1.8762  1.4212
  418SOL     OW 1252   1.085   0.539   1.356 -0.0576  0.4427  0.1443
  418SOL    HW1 1253   1.008   0.539   1.293  2.7090 -0.6505  1.2781
  418SOL    HW2 1254   1.177   0.554   1.310 -1.6034  0.5654 -0.7770
  419SOL     OW 1255   0.929   0.483   3.007  0.4835  0.6018 -0.1857
  419SOL    HW1 1256   0.854   0.482   2.931 -1.0117  0.4644 -0.6871
  419SOL    HW2 1257   0.938   0.580   3.052  0.8712  0.3630  1.5398
  420SOL     OW 1258   0.098   2.259   0.471  0.2294  0.0827  0.7215
  420SOL    HW1 1259   0.122   2.210   0.380 -0.4598  1.2022 -0.6534
  420SOL    HW2 1260   0.036   2.200   0.529  2.0439 -3.3009 -0.1851
  421SOL     OW 1261   0.346   3.013   0.654 -0.8001 -0.2977 -0.2823
  421SOL    HW1 1262   0.369   2.927   0.705  2.0773 -1.3678 -0.4851
  421SOL    HW2 1263   0.432   3.077   0.652 -0.7695  2.0239  2.5544
  422SOL     OW 1264   1.057   2.501   1.039 -0.0521  0.6970  0.6149
  422SOL    HW1 1265   1.130   2.555   0.989 -0.1385 -0.1095 -0.9935
  422SOL    HW2 1266   1.022   2.541   1.129 -0.7901  1.2431  1.7582
  423SOL     OW 1267   0.102   0.684   1.298  0.5266  0.2544  0.0560
  423SOL    HW1 1268   0.054   0.636   1.373  1.6814  3.1913 -3.9356
  423SOL    HW2 1269   0.059   0.777   1.276 -1.7912 -2.1162 -1.0426
  424SOL     OW 1270   0.991   2.231   2.036  0.1110  0.6765  0.3979
  424SOL    HW1 1271   0.994   2.332   2.015 -0.3858  0.8168 -1.2427
  424SOL    HW2 1272   0.971   2.205   2.134  1.6265  3.6440 -1.0733
  425SOL     OW 1273   2.014   1.329   0.991 -0.3276 -0.1636  0.6656
  425SOL    HW1 1274   2.084   1.262   1.030 -3.7280 -1.5456  0.9595
  425SOL    HW2 1275   2.052   1.415   0.950 -0.4835 -0.6280  0.3920
  426SOL     OW 1276   1.478   1.586   1.383  0.3324 -0.1848 -0.3873
  426SOL    HW1 1277   1.443   1.665   1.319 -0.3549  0.2429 -2.0493
  426SOL    HW2 1278   1.427   1.575   1.468 -0.4062 -2.7618 -1.8572
  427SOL     OW 1279   1.908   2.365   2.056  0.3842  0.1427  0.3163
  427SOL    HW1 1280   1.957   2.284   2.107  0.0257 -0.8461 -0.9888
  427SOL    HW2 1281   1.937   2.458   2.086 -0.7987 -1.5204  2.2710
  428SOL     OW 1282   0.842   0.000   0.164 -0.3116  0.8974 -0.3178
  428SOL    HW1 1283   0.832   0.068   0.085  0.5654  0.1835 -2.0528
  428SOL    HW2 1284   0.935  -0.046   0.162  1.4059 -3.9620  0.0858
  429SOL     OW 1285   1.306   0.060   0.254 -0.3782  0.3242  0.0217
  429SOL    HW1 1286   1.399   0.081   0.297  0.4068 -0.2562  0.6493
  429SOL    HW2 1287   1.304   0.101   0.158  1.4020 -0.1593 -0.6884
  430SOL     OW 1288   2.764   1.431   0.309  0.4595 -0.0029  0.2687
  430SOL    HW1 1289   2.796   1.482   0.219 -0.5225  1.5721 -1.4608
  430SOL    HW2 1290   2.805   1.471   0.393 -2.8701  0.2588  0.1496
  431SOL     OW 1291   2.107   1.556   0.873  0.3011  0.0555 -0.3408
  431SOL    HW1 1292   2.164   1.629   0.927 -1.0740  2.4764 -1.5508
  431SOL    HW2 1293   2.040   1.602   0.810  0.9714  0.8689 -0.4649
  432SOL     OW 1294   2.854   2.240   1.246  0.3614 -0.2098 -0.2815
  432SOL    HW1 1295   2.761   2.194   1.264  1.4989 -0.9715 -2.8406
  432SOL    HW2 1296   2.921   2.250   1.325  0.1518  4.2428 -1.6428
  433SOL     OW 1297   1.847   0.369   0.849  0.0622  0.0307 -0.2532
  433SOL    HW1 1298   1.766   0.360   0.919 -2.6295 -1.2496  0.4484
  433SOL    HW2 1299   1.912   0.287   0.855 -2.4684  2.0333 -0.4216
  434SOL     OW 1300   1.510   0.246   0.744  0.0616  0.2806 -0.7565
  434SOL    HW1 1301   1.466   0.335   0.703 -0.1434  2.9616 -2.0217
  434SOL    HW2 1302   1.525   0.245   0.846 -1.4290 -0.6220 -0.9417
  435SOL     OW 1303   1.469   1.487   2.096 -0.1978  0.5272 -1.0062
  435SOL    HW1 1304   1.460   1.560   2.165  1.2016 -3.0057 -1.4383
  435SOL    HW2 1305   1.498   1.517   1.999 -2.0980 -0.2477  0.3563
  436SOL     OW 1306   1.708   2.733   2.235  0.2717 -0.5129  0.5311
  436SOL    HW1 1307   1.645   2.790   2.298  0.7893  1.4958  1.6478
  436SOL    HW2 1308   1.746   2.647   2.280  1.0664  0.9119 -0.4815
  437SOL     OW 1309   1.107   2.946   0.961  0.4384  0.6900  0.1213
  437SOL    HW1 1310   1.044   3.018   0.916 -1.4906 -1.0464 -0.7421
  437SOL    HW2 1311   1.111   2.946   1.066  1.0198  0.7379  1.1237
  438SOL     OW 1312   0.999   2.595   1.308  0.2058 -0.1589  0.1583
  438SOL    HW1 1313   1.054   2.636   1.384 -2.6035 -1.0202 -1.1137
  438SOL    HW2 1314   0.988   2.491   1.325 -1.3268 -0.7671 -0.4848
  439SOL     OW 1315   0.679   1.769   1.080 -0.2545  0.2559  0.1812
  439SOL    HW1 1316   0.661   1.862   1.034 -0.7896  0.3189  0.0615
  439SOL    HW2 1317   0.592   1.724   1.117  1.0082 -1.4631  1.9607
  440SOL     OW 1318   1.007   2.504   1.957  0.1933  0.0326 -0.6191
  440SOL    HW1 1319   0.957   2.524   1.868  1.1948 -3.9276 -2.4751
  440SOL    HW2 1320   1.108   2.517   1.954 -2.7901 -0.6700 -1.5487
  441SOL     OW 1321   0.503   2.728   1.435  0.0043  0.1682 -0.0826
  441SOL    HW1 1322   0.566   2.648   1.456 -0.3975 -3.5050  0.4075
  441SOL    HW2 1323   0.418   2.704   1.386  2.6009  3.4539  1.3543
  442SOL     OW 1324   2.281   0.698   2.498 -0.6669  0.3314  0.2467
  442SOL    HW1 1325   2.281   0.598   2.532 -0.7727  0.9963  0.4972
  442SOL    HW2 1326   2.189   0.716   2.452  1.7089 -0.5421 -2.3567
  443SOL     OW 1327   1.249   2.706   2.144 -0.6739  0.2916  0.4631
  443SOL    HW1 1328   1.202   2.759   2.217  1.2547  3.2185 -2.7186
  443SOL    HW2 1329   1.300   2.618   2.176  2.4365 -0.6195 -0.9099
  444SOL     OW 1330   1.066   1.263   1.586 -0.1435  0.0077  0.0171
  444SOL    HW1 1331   1.161   1.222   1.580 -1.8439  1.4121 -3.8167
  444SOL    HW2 1332   1.066   1.337   1.655 -0.5521 -3.0651 -0.2250
  445SOL     OW 1333   0.020   2.362   1.860 -0.3934 -0.2708  0.2984
  445SOL    HW1 1334  -0.001   2.456   1.814  0.3095  1.9423 -0.2353
  445SOL    HW2 1335  -0.051   2.335   1.931 -2.1608  1.1644  1.0771
  446SOL     OW 1336   0.237   1.910   2.306 -0.8076  0.3450  0.1838
  446SOL    HW1 1337   0.195   1.987   2.358  1.1741 -0.3242  2.3083
  446SOL    HW2 1338   0.182   1.899   2.222  2.0464  1.1404 -0.1367
  447SOL     OW 1339   1.169   1.684   1.939 -0.2340  0.4332  0.0857
  447SOL    HW1 1340   1.100   1.736   1.878  0.1230 -0.1151 -2.8237
  447SOL    HW2 1341   1.252   1.737   1.968 -1.6023  0.2035  1.4711
  448SOL     OW 1342   0.170   1.541   2.038 -0.0778  0.2512 -0.1675
  448SOL    HW1 1343   0.178   1.620   1.968  1.0374  0.8249  0.9252
  448SOL    HW2 1344   0.127   1.564   2.125  2.5247  2.2009 -0.2394
  449SOL     OW 1345   1.968   2.936   0.832  0.4436 -0.5783 -0.0096
  449SOL    HW1 1346   2.046   2.976   0.885 -1.8090  2.5819 -2.1676
  449SOL    HW2 1347   1.975   2.835   0.813 -1.4245  1.5926  0.0394
  450SOL     OW 1348   2.347   1.354   0.739 -0.0683 -0.6977  0.3621
  450SOL    HW1 1349   2.279   1.293   0.785  1.4090  0.4392 -0.3858
  450SOL    HW2 1350   2.302   1.444   0.706 -0.0342  1.5076  2.5031
  451SOL     OW 1351   1.319   3.064   1.436  0.0532  0.8898 -0.3494
  451SOL    HW1 1352   1.273   3.154   1.465  0.2266  0.3736 -0.1204
  451SOL    HW2 1353   1.380   3.021   1.513  0.2217  0.2005  1.3995
  452SOL     OW 1354   2.681   2.287   2.169  0.0937  0.0930  0.0955
  452SOL    HW1 1355   2.618   2.352   2.217 -1.1850 -2.2357  0.0153
  452SOL    HW2 1356   2.740   2.235   2.239  0.7123  2.2742  1.1087
  453SOL     OW 1357   2.454   2.668   3.069 -0.2158 -0.2775 -0.7664
  453SOL    HW1 1358   2.361   2.695   3.093  1.2893  0.9725  1.3207
  453SOL    HW2 1359   2.465   2.587   3.009 -1.5721  0.5976  0.0860
  454SOL     OW 1360   1.038   1.106   2.063  0.2067 -0.2227 -0.1283
  454SOL    HW1 1361   0.996   1.129   1.967  0.0077  3.0946 -0.2947
  454SOL    HW2 1362   1.116   1.169   2.095  0.1817  1.5464 -1.2809
  455SOL     OW 1363   0.620   2.603   2.892 -0.1418  0.2268  0.1692
  455SOL    HW1 1364   0.684   2.655   2.957 -2.2858 -0.0247  0.1742
  455SOL    HW2 1365   0.639   2.500   2.899 -0.7027 -0.6536  1.4342
  456SOL     OW 1366   0.493   1.914   0.341  0.0570 -0.3271  0.5347
  456SOL    HW1 1367   0.582   1.884   0.390  0.8378  0.0616  2.9459
  456SOL    HW2 1368   0.487   2.020   0.319  1.2388  0.7315  0.7494
  457SOL     OW 1369   0.343   2.617   0.705  0.4166  0.1272  0.8511
  457SOL    HW1 1370   0.362   2.625   0.598  0.9444  0.7762 -1.4141
  457SOL    HW2 1371   0.429   2.635   0.760  1.0451  1.5117  1.0145
  458SOL     OW 1372   2.955   0.004   1.206 -0.1253  0.1301  0.3766
  458SOL    HW1 1373   2.992   0.099   1.221  2.7938  1.1049 -3.6027
  458SOL    HW2 1374   2.937  -0.017   1.104 -1.0538  0.1794 -2.0474
  459SOL     OW 1375   2.194   2.535   0.818 -0.0963 -0.6022  0.3869
  459SOL    HW1 1376   2.212   2.633   0.819  0.6016 -2.1634  0.2314
  459SOL    HW2 1377   2.255   2.482   0.755 -2.6847  0.4902  0.1679
  460SOL     OW 1378   1.125   1.969   2.902 -0.0503 -0.3835  0.6227
  460SOL    HW1 1379   1.157   2.043   2.836  1.1387 -0.4030  0.2380
  460SOL    HW2 1380   1.203   1.927   2.948 -1.6933  1.5393  0.8904
  461SOL     OW 1381   0.506   2.108   2.674 -0.2880  0.4582  0.2937
  461SOL    HW1 1382   0.447   2.035   2.627 -0.1179 -0.1411  1.1422
  461SOL    HW2 1383   0.553   2.077   2.761 -0.5111 -0.8143  1.5839
  462SOL     OW 1384   0.917   1.104   1.827  0.3175  0.6588 -0.0066
  462SOL    HW1 1385   0.987   1.041   1.786  0.0137  3.3127  3.3376
  462SOL    HW2 1386   0.898   1.192   1.771 -0.3221  4.1946  0.9713
  463SOL     OW 1387   0.460   0.775   0.508 -0.0600 -0.5467  0.4202
  463SOL    HW1 1388   0.482   0.674   0.484  0.9767 -0.2052  1.4878
  463SOL    HW2 1389   0.355   0.777   0.518 -3.3655 -2.5756 -1.7476
  464SOL     OW 1390   0.578   2.248   2.267 -0.0005 -0.7751  0.6680
  464SOL    HW1 1391   0.580   2.327   2.332  2.1845 -0.7835 -2.6912
  464SOL    HW2 1392   0.535   2.281   2.175  0.8576 -0.6739  0.4929
  465SOL     OW 1393   0.306   0.935   0.814 -0.3678  0.0584  0.0926
  465SOL    HW1 1394   0.215   0.968   0.775 -1.1893  0.3662 -0.6458
  465SOL    HW2 1395   0.324   0.831   0.798 -0.2528  1.1926  0.8760
  466SOL     OW 1396   1.364   1.154   1.112 -0.0010  0.6598  1.0798
  466SOL    HW1 1397   1.426   1.235   1.126 -1.4263  0.8680  2.9493
  466SOL    HW2 1398   1.264   1.167   1.143 -2.6999  1.3546  1.2978
  467SOL     OW 1399   0.489   0.299   2.358  0.0723  0.2887  0.1930
  467SOL    HW1 1400   0.441   0.386   2.380  0.3526  0.1514 -0.5764
  467SOL    HW2 1401   0.492   0.229   2.435  0.3609 -1.8187 -1.9979
  468SOL     OW 1402   0.474   2.311   1.683  0.0945  0.1701  0.3914
  468SOL    HW1 1403   0.555   2.368   1.725 -0.0617  1.1404  0.0578
  468SOL    HW2 1404   0.460   2.326   1.579 -0.4021 -1.1088 -1.1562
  469SOL     OW 1405   1.510   1.343   1.243 -0.3758  0.3723  0.7689
  469SOL    HW1 1406   1.598   1.290   1.259  0.0478 -1.1490  0.5660
  469SOL    HW2 1407   1.515   1.436   1.282 -2.0663 -2.0901 -1.9148
  470SOL     OW 1408   3.031   1.675   0.791  0.5335  0.4429 -0.2701
  470SOL    HW1 1409   3.114   1.725   0.760 -0.1275 -0.1019  0.1295
  470SOL    HW2 1410   2.976   1.721   0.864 -2.9373  0.3641 -0.1497
  471SOL     OW 1411   2.647   1.333   2.159 -0.2368  0.1608  0.0043
  471SOL    HW1 1412   2.622   1.272   2.238  0.8765  2.1699  0.1629
  471SOL    HW2 1413   2.745   1.369   2.170  0.8008  1.3516  1.4579
  472SOL     OW 1414   1.139   2.503   3.062 -0.0857 -0.2545 -0.0026
  472SOL    HW1 1415   1.168   2.497   3.160 -1.2675 -1.7252 -2.4928
  472SOL    HW2 1416   1.123   2.410   3.021  1.0731  0.2120  1.7058
  473SOL     OW 1417   1.072   1.501   0.986 -0.4742 -0.0383 -0.3989
  473SOL    HW1 1418   0.973   1.510   1.014 -2.2924 -0.8677 -0.2639
  473SOL    HW2 1419   1.142   1.506   1.064 -2.7048 -0.3318 -1.7766
  474SOL     OW 1420   0.707   1.234   0.606 -0.0222 -0.6593  0.3217
  474SOL    HW1 1421   0.688   1.233   0.504  2.3154  1.5846  2.3844
  474SOL    HW2 1422   0.773   1.160   0.637  0.0504  0.4295 -0.0747
  475SOL     OW 1423   2.832   0.150   0.762 -0.5762  0.7038  0.4958
  475SOL    HW1 1424   2.904   0.168   0.836 -3.2383 -0.5533  1.3648
  475SOL    HW2 1425   2.737   0.166   0.800  2.4054  1.4004  0.6924
  476SOL     OW 1426   0.858   2.968   1.770 -0.0890 -0.3513  0.0101
  476SOL    HW1 1427   0.934   2.929   1.832  0.9989 -0.2278 -0.0167
  476SOL    HW2 1428   0.874   2.944   1.667  0.3051  0.9509 -0.3039
  477SOL     OW 1429   1.441   0.340   2.493  0.1897 -0.1075 -0.0045
  477SOL    HW1 1430   1.445   0.356   2.595  0.0955  0.6701  0.1239
  477SOL    HW2 1431   1.531   0.307   2.457 -4.2697  0.6749 -1.6462
  478SOL     OW 1432   2.234   1.826   0.266  1.0261 -0.3028 -0.0709
  478SOL    HW1 1433   2.165   1.750   0.245 -1.3459  0.2713  0.9557
  478SOL    HW2 1434   2.333   1.794   0.263 -1.9663  1.2805 -1.4488
  479SOL     OW 1435   1.295   1.095   2.938  0.5493 -0.0629 -0.0912
  479SOL    HW1 1436   1.353   1.076   2.852 -2.4693 -1.5527  2.1776
  479SOL    HW2 1437   1.189   1.109   2.925  1.0860 -0.7801 -0.4003
  480SOL     OW 1438   2.515   2.319   0.382 -0.2919  0.4059  0.1047
  480SOL    HW1 1439   2.466   2.236   0.410  1.2138  0.0823  1.7019
  480SOL    HW2 1440   2.469   2.377   0.308  1.5376  1.8339 -0.1476
  481SOL     OW 1441   1.023   1.149   0.843 -0.1332  0.0057 -0.1141
  481SOL    HW1 1442   1.019   1.215   0.762 -0.5525 -0.7468 -1.0988
  481SOL    HW2 1443   1.043   1.192   0.936  1.4102 -1.6314  0.8097
  482SOL     OW 1444   1.608   0.294   2.047 -0.0891  0.1330  0.0315
  482SOL    HW1 1445   1.616   0.395   2.027  0.4150 -1.8564  0.4229
  482SOL    HW2 1446   1.694   0.248   2.096  3.1586 -1.2887  1.4140
  483SOL     OW 1447   0.169   2.330   1.242  0.3688  0.3547  0.5844
  483SOL    HW1 1448   0.079   2.317   1.296  0.5804  1.1260  0.9969
  483SOL    HW2 1449   0.158   2.393   1.156  0.2778  0.1785 -0.8565
  484SOL     OW 1450   1.727   1.049   1.381 -0.8536 -0.7344 -0.6355
  484SOL    HW1 1451   1.780   0.960   1.367 -0.7609  0.4599  0.7624
  484SOL    HW2 1452   1.757   1.092   1.471 -0.4422 -1.8777 -1.1089
  485SOL     OW 1453   0.638   1.046   1.816  0.2507 -0.0850 -0.7075
  485SOL    HW1 1454   0.629   1.041   1.707  0.5387 -1.6903 -3.2205
  485SOL    HW2 1455   0.734   1.056   1.853 -2.0885  0.4047 -1.0769
  486SOL     OW 1456   0.903   1.918   2.469  0.7177  0.2347  0.2146
  486SOL    HW1 1457   0.953   1.884   2.561  0.1483 -1.4878  0.1079
  486SOL    HW2 1458   0.830   1.991   2.498 -0.2759 -0.5141  0.2136
  487SOL     OW 1459   1.795   1.574   0.916 -1.0511 -0.3200 -0.1320
  487SOL    HW1 1460   1.859   1.574   1.001 -2.2457 -0.5128  0.3198
  487SOL    HW2 1461   1.831   1.618   0.834 -2.1732 -1.9101  1.3336
  488SOL     OW 1462   2.933   0.867   2.257  0.2896  0.2705 -0.4933
  488SOL    HW1 1463   2.981   0.778   2.227  0.4628  1.7907  1.0000
  488SOL    HW2 1464   2.954   0.886   2.358 -1.5704  0.9322  0.1890
  489SOL     OW 1465   2.778   0.258   1.299  0.5322 -0.3600  0.6405
  489SOL    HW1 1466   2.754   0.207   1.383 -1.2720  3.7543 -0.5109
  489SOL    HW2 1467   2.876   0.232   1.263  0.7534 -2.0794  0.2040
  490SOL     OW 1468   1.446   2.903   2.803 -0.1002 -0.0803 -0.3541
  490SOL    HW1 1469   1.519   2.832   2.793  1.1746  1.3488 -1.8857
  490SOL    HW2 1470   1.437   2.953   2.713  0.6001 -1.2579  1.4812
  491SOL     OW 1471   1.812   1.472   2.612 -0.6321  0.1481  0.5042
  491SOL    HW1 1472   1.748   1.488   2.697 -2.0157 -2.8169  1.3171
  491SOL    HW2 1473   1.913   1.492   2.636  0.7369  1.6136  1.5809
  492SOL     OW 1474   0.520   1.994   0.658 -0.1265  0.5491  0.3175
  492SOL    HW1 1475   0.579   2.003   0.745  2.1437 -3.1513  1.8716
  492SOL    HW2 1476   0.454   2.071   0.638  0.2325 -0.0447  0.6350
  493SOL     OW 1477   0.396   1.400   2.063  0.3992 -0.2467  0.1316
  493SOL    HW1 1478   0.306   1.448   2.047 -1.1681  2.0148  0.2052
  493SOL    HW2 1479   0.400   1.357   2.159 -0.6448  0.3818  1.2139
  494SOL     OW 1480   2.632   2.750   0.212 -0.2239 -0.2501  0.0791
  494SOL    HW1 1481   2.613   2.682   0.292 -0.6879 -0.2612  1.8157
  494SOL    HW2 1482   2.566   2.740   0.137  0.4972  0.0915  0.0293
  495SOL     OW 1483   2.778   2.666   2.672 -0.5719  0.1627  0.0193
  495SOL    HW1 1484   2.722   2.582   2.649 -0.5246  0.7117 -0.2993
  495SOL    HW2 1485   2.823   2.705   2.586  0.2654  0.5603 -0.0319
  496SOL     OW 1486   2.027   2.221   0.707  0.1863 -0.7639  0.1073
  496SOL    HW1 1487   2.046   2.246   0.808  0.9206  2.1449  0.1636
  496SOL    HW2 1488   2.104   2.162   0.674 -1.1676  1.3557  0.6672
  497SOL     OW 1489   0.234   2.995   2.462 -0.0787 -0.0489 -0.7357
  497SOL    HW1 1490   0.193   3.077   2.511 -0.1326 -2.8297  0.4320
  497SOL    HW2 1491   0.279   3.025   2.371  0.0234  0.1682 -0.4782
  498SOL     OW 1492   1.235   1.421   1.220  0.1210  0.3758 -0.4217
  498SOL    HW1 1493   1.333   1.389   1.234 -1.2401 -0.7609  0.4454
  498SOL    HW2 1494   1.208   1.498   1.287 -4.2201  0.0986  3.5171
  499SOL     OW 1495   0.718   1.861   0.505  0.0326 -0.0657  0.2616
  499SOL    HW1 1496   0.740   1.772   0.554 -0.1394 -0.9121 -0.7480
  499SOL    HW2 1497   0.677   1.940   0.566 -0.8220  1.0559  1.2482
  500SOL     OW 1498   1.467   2.953   1.638  0.3113  0.3950 -0.0323
  500SOL    HW1 1499   1.423   2.928   1.729  0.4343 -1.2906 -0.6037
  500SOL    HW2 1500   1.536   2.878   1.619 -0.0187 -0.0004 -0.1268
  501SOL     OW 1501   0.853   1.107   2.284 -0.0967  0.0900 -0.1694
  501SOL    HW1 1502   0.758   1.071   2.272  0.0040  3.4500 -0.2773
  501SOL    HW2 1503   0.908   1.106   2.193  0.6213 -3.0004  2.4617
  502SOL     OW 1504   2.635   0.958   1.761  0.0837 -0.1272  0.2900
  502SOL    HW1 1505   2.637   0.985   1.661 -1.5638  4.2882 -0.6098
  502SOL    HW2 1506   2.573   0.877   1.779  1.6718  0.8115 -1.8872
  503SOL     OW 1507   1.258   0.120   0.658  0.1352  0.6261  0.0541
  503SOL    HW1 1508   1.212   0.206   0.690  3.0452 -0.5412  0.3281
  503SOL    HW2 1509   1.352   0.154   0.627  0.5600  1.8228  1.7671
  504SOL     OW 1510   3.047   2.347   1.425 -0.0217 -0.2040 -0.5093
  504SOL    HW1 1511   2.995   2.429   1.455  1.1488 -3.8224 -3.5434
  504SOL    HW2 1512   3.072   2.289   1.506  3.3197 -0.5946 -0.1652
  505SOL     OW 1513   2.266   1.168   1.500  0.0414 -0.0253  0.3944
  505SOL    HW1 1514   2.293   1.226   1.415  0.5433 -0.8227  1.1008
  505SOL    HW2 1515   2.318   1.191   1.581 -1.9404 -1.0170 -1.8973
  506SOL     OW 1516   1.985   0.159   1.782  0.1611  0.4645 -0.3203
  506SOL    HW1 1517   2.073   0.104   1.811 -1.2196  0.9000  0.7877
  506SOL    HW2 1518   1.987   0.253   1.825 -1.1589 -0.7356 -1.3608
  507SOL     OW 1519   0.541   0.697   2.159 -0.3199 -0.4681  0.1015
  507SOL    HW1 1520   0.483   0.645   2.086  0.9193  0.6208  0.1088
  507SOL    HW2 1521   0.608   0.630   2.190 -2.7149 -1.2108 -2.2393
  508SOL     OW 1522   0.259   1.659   0.875  0.5478 -0.1455  0.2209
  508SOL    HW1 1523   0.342   1.714   0.848 -0.2481 -0.6089  0.8994
  508SOL    HW2 1524   0.218   1.691   0.963 -1.6548 -0.4842 -0.3240
  509SOL     OW 1525   1.320   1.263   2.349 -0.3395  0.2773  0.0846
  509SOL    HW1 1526   1.285   1.284   2.257  0.9935 -4.1863  2.4665
  509SOL    HW2 1527   1.390   1.181   2.339  3.9249 -2.1428 -2.8993
  510SOL     OW 1528   1.299   2.027   2.061  0.2821  0.2849 -0.3735
  510SOL    HW1 1529   1.308   2.128   2.047 -0.3181 -2.0015 -2.0825
  510SOL    HW2 1530   1.226   1.998   2.127  0.1994 -0.6860  1.7548
  511SOL     OW 1531   3.085   2.731   1.311 -0.2560  0.2542  1.5505
  511SOL    HW1 1532   3.083   2.674   1.221  0.0446 -1.6107  0.4681
  511SOL    HW2 1533   3.006   2.703   1.374  3.3380 -2.4009  1.9066
  512SOL     OW 1534   2.357   0.411   1.397 -0.1058 -0.3418  0.7529
  512SOL    HW1 1535   2.256   0.384   1.404 -1.1308  0.5341 -0.4506
  512SOL    HW2 1536   2.407   0.346   1.332  3.0211  0.4304 -1.2187
  513SOL     OW 1537   2.509   2.070   0.847  0.0666 -0.0634 -0.1431
  513SOL    HW1 1538   2.437   2.124   0.791 -0.8278 -0.6131 -1.5107
  513SOL    HW2 1539   2.562   2.005   0.791 -2.7173  0.9122 -2.1321
  514SOL     OW 1540   0.552   2.769   0.511  0.2257  0.0378  0.2080
  514SOL    HW1 1541   0.587   2.805   0.419 -2.8959  2.3319 -0.7496
  514SOL    HW2 1542   0.603   2.811   0.594  0.1311  1.2645  0.1102
  515SOL     OW 1543   2.037   1.111   2.276  0.1491  0.1750 -0.5330
  515SOL    HW1 1544   2.026   1.138   2.175 -1.9068 -1.9913 -2.2158
  515SOL    HW2 1545   1.963   1.122   2.350 -1.2523 -2.0498 -0.0360
  516SOL     OW 1546   0.281   0.283   1.910  0.1524 -0.6062 -0.0016
  516SOL    HW1 1547   0.352   0.265   1.830  1.0305 -1.9081 -0.7607
  516SOL    HW2 1548   0.193   0.228   1.898 -1.0319 -2.2209 -0.0201
  517SOL     OW 1549   0.427   3.069   1.171 -0.2946 -0.4647 -0.0833
  517SOL    HW1 1550   0.461   3.169   1.183  1.4275  1.7817  0.8894
  517SOL    HW2 1551   0.321   3.053   1.184 -0.6583 -1.2337  1.7873
  518SOL     OW 1552   2.221   0.025   1.806 -0.4960 -0.2298 -0.3757
  518SOL    HW1 1553   2.290   0.095   1.836 -1.9390 -1.9913 -2.3189
  518SOL    HW2 1554   2.257  -0.044   1.733 -3.3738 -0.3584 -1.6540
  519SOL     OW 1555   2.363   2.228   2.588 -0.2658 -0.0410  0.1094
  519SOL    HW1 1556   2.296   2.209   2.661  1.3465  2.6317 -0.3875
  519SOL    HW2 1557   2.393   2.326   2.594 -0.1604 -1.7657  0.6929
  520SOL     OW 1558   1.777   2.844   1.868 -0.6523  0.6190 -0.0452
  520SOL    HW1 1559   1.692   2.812   1.913  2.0608  1.2186  0.0811
  520SOL    HW2 1560   1.839   2.765   1.843  1.0149  2.5450  0.3973
  521SOL     OW 1561   0.572   0.023   2.149 -0.0324 -0.1959  0.3008
  521SOL    HW1 1562   0.479  -0.025   2.169 -0.0670 -1.7443  2.4784
  521SOL    HW2 1563   0.634   0.030   2.233 -0.5839 -0.3373  0.2475
  522SOL     OW 1564   0.211   1.919   1.447  0.0022 -0.2492 -0.2862
  522SOL    HW1 1565   0.272   1.977   1.509 -0.2782 -0.8501 -0.1154
  522SOL    HW2 1566   0.188   1.963   1.354 -0.6287 -0.5996 -0.2438
  523SOL     OW 1567   2.264   2.984   1.540 -0.0409  0.0022 -0.0834
  523SOL    HW1 1568   2.346   2.925   1.532  1.3961 -0.9875  1.6810
  523SOL    HW2 1569   2.184   2.936   1.500  2.8629  1.6331 -3.2683
  524SOL     OW 1570   0.171   2.787   2.814 -0.2946 -0.6017 -0.5393
  524SOL    HW1 1571   0.131   2.883   2.834  0.1935 -1.7915  2.0120
  524SOL    HW2 1572   0.275   2.776   2.798 -0.2746 -1.5888  0.9040
  525SOL     OW 1573   2.143   2.003   0.469  0.1165 -0.4443 -0.1645
  525SOL    HW1 1574   2.186   1.986   0.563 -0.6094 -2.8544  0.6361
  525SOL    HW2 1575   2.170   1.934   0.393 -2.4909  1.7577 -1.7034
  526SOL     OW 1576   0.407   1.558   1.683 -0.2751  0.1318  0.1483
  526SOL    HW1 1577   0.350   1.513   1.756 -0.4885 -0.2553 -1.4159
  526SOL    HW2 1578   0.478   1.497   1.634  1.9407  0.3892 -1.3646
  527SOL     OW 1579   1.100   2.953   1.226 -0.0948  0.5629  0.0594
  527SOL    HW1 1580   1.180   2.895   1.267  1.2079 -1.5016 -2.3879
  527SOL    HW2 1581   1.122   3.055   1.225  1.9651 -0.2667  0.7799
  528SOL     OW 1582   1.341   2.424   0.518 -0.0853  0.2968 -0.7364
  528SOL    HW1 1583   1.383   2.331   0.529  1.1894 -0.8220 -0.8684
  528SOL    HW2 1584   1.402   2.494   0.565 -1.3832  1.1125  0.0016
  529SOL     OW 1585   1.939   1.746   0.734 -0.1387  0.1644  0.3794
  529SOL    HW1 1586   1.872   1.774   0.659 -0.7085  2.6622 -1.2686
  529SOL    HW2 1587   1.938   1.813   0.811 -1.0535 -0.9317 -1.4448
  530SOL     OW 1588   0.301   2.567   0.310 -0.1539 -0.4019  0.2756
  530SOL    HW1 1589   0.270   2.646   0.369  0.4540 -1.3990  1.3163
  530SOL    HW2 1590   0.343   2.482   0.359  0.9346 -1.1450 -0.7189
  531SOL     OW 1591   1.799   1.004   0.979  0.1306  0.0971 -0.3070
  531SOL    HW1 1592   1.813   1.088   0.917 -2.1498  0.3210  2.7392
  531SOL    HW2 1593   1.698   0.989   0.999  0.1914  1.5669  1.6904
  532SOL     OW 1594   0.478   1.134   0.751  0.9110 -1.0043  0.0311
  532SOL    HW1 1595   0.528   1.132   0.661  0.2912  0.4222 -1.8117
  532SOL    HW2 1596   0.429   1.047   0.775  0.0252  2.2434 -0.1003
  533SOL     OW 1597   1.753   0.033   2.610 -0.1550  0.3234 -0.4488
  533SOL    HW1 1598   1.857   0.033   2.621  1.8431  0.1452  1.0305
  533SOL    HW2 1599   1.703   0.089   2.684 -3.1415  0.3684 -1.2086
  534SOL     OW 1600   0.315   0.246   1.630 -0.1760 -0.1967  0.1111
  534SOL    HW1 1601   0.414   0.253   1.624 -2.9982 -1.6745 -0.5229
  534SOL    HW2 1602   0.264   0.334   1.614  0.9519 -2.1426 -0.7085
  535SOL     OW 1603   1.956   0.339   0.119 -0.4301  0.2646 -0.2592
  535SOL    HW1 1604   1.961   0.426   0.181  0.4143  1.8046  1.5325
  535SOL    HW2 1605   1.946   0.252   0.174 -1.4092 -3.6293  0.8710
  536SOL     OW 1606   1.410   2.603   0.928 -0.1810  0.3562 -0.0701
  536SOL    HW1 1607   1.403   2.564   1.023  0.2115  0.4651 -0.7149
  536SOL    HW2 1608   1.316   2.618   0.886  1.9333  0.4930  0.2912
  537SOL     OW 1609   0.830   0.259   2.413  0.4140 -0.0247  0.0825
  537SOL    HW1 1610   0.806   0.345   2.360  0.0308 -0.8699 -0.1238
  537SOL    HW2 1611   0.763   0.183   2.390 -0.6615  0.6189 -1.3992
  538SOL     OW 1612   1.626   2.364   1.533  0.1475 -0.5488 -0.5900
  538SOL    HW1 1613   1.590   2.269   1.527  3.0745  1.0622 -1.7640
  538SOL    HW2 1614   1.714   2.374   1.481 -0.6258 -1.4482  0.7791
  539SOL     OW 1615   0.174   1.647   2.700 -0.4623  0.0362 -0.3179
  539SOL    HW1 1616   0.103   1.661   2.625 -0.9823 -0.6800 -1.8574
  539SOL    HW2 1617   0.184   1.715   2.775  0.6014  0.1192  0.3672
  540SOL     OW 1618   2.669   1.747   1.937  0.7046  0.7001 -0.0460
  540SOL    HW1 1619   2.611   1.677   1.986  2.0433  4.0699 -1.4976
  540SOL    HW2 1620   2.610   1.823   1.902 -1.4798 -2.7579  1.9270
  541SOL     OW 1621   0.469   2.198   0.016  0.1819  0.0849 -0.5057
  541SOL    HW1 1622   0.487   2.175   0.117  1.5440 -0.4876  1.5603
  541SOL    HW2 1623   0.368   2.188  -0.005 -0.6635 -1.7672  2.2220
  542SOL     OW 1624   2.229   2.575   0.428  0.3108 -0.1358  0.0274
  542SOL    HW1 1625   2.197   2.671   0.402 -1.3989 -1.5242 -2.0854
  542SOL    HW2 1626   2.146   2.513   0.455 -1.8022  0.1094  0.1110
  543SOL     OW 1627   1.110   1.837   1.576  0.3707 -0.3146  0.3737
  543SOL    HW1 1628   1.094   1.893   1.662  0.4532  0.6262 -2.0032
  543SOL    HW2 1629   1.070   1.883   1.490  1.0416  0.0081 -2.6271
  544SOL     OW 1630   1.094   0.452   0.184  0.2791  0.1194 -0.7758
  544SOL    HW1 1631   1.093   0.395   0.271 -1.0495 -0.5529  2.7352
  544SOL    HW2 1632   1.124   0.399   0.099  0.5573 -2.1025 -2.0470
  545SOL     OW 1633   1.114   1.741   0.806  0.3185 -0.3451 -0.3508
  545SOL    HW1 1634   1.214   1.754   0.776 -0.0754 -0.2670  0.4483
  545SOL    HW2 1635   1.094   1.645   0.831  0.0315  2.8056  1.2929
  546SOL     OW 1636   2.640   1.525   3.035  0.4015  0.8151 -0.2686
  546SOL    HW1 1637   2.655   1.594   2.955  1.8834 -1.0576 -2.3364
  546SOL    HW2 1638   2.543   1.498   3.056  3.7197  0.7721  1.1225
  547SOL     OW 1639   0.608   3.010   2.630 -0.0087 -0.3325 -0.2533
  547SOL    HW1 1640   0.708   2.993   2.643  1.2231  0.8848  0.6061
  547SOL    HW2 1641   0.551   2.954   2.688  0.4675  0.5101 -3.0319
  548SOL     OW 1642   2.075   0.903   2.975  0.5204 -0.6398  0.2214
  548SOL    HW1 1643   1.985   0.853   2.995 -0.8304 -0.8636  1.0332
  548SOL    HW2 1644   2.075   1.007   3.003 -0.6224  1.3385  1.3560
  549SOL     OW 1645   0.700   0.525   0.169 -0.2771  0.6484 -0.2718
  549SOL    HW1 1646   0.643   0.554   0.093  0.2575 -0.7129 -1.2637
  549SOL    HW2 1647   0.763   0.595   0.215 -2.0398 -1.2851  1.4944
  550SOL     OW 1648   2.617   2.814   2.879  0.2482 -0.5120  0.0745
  550SOL    HW1 1649   2.553   2.756   2.941 -1.3968  0.1749  1.1732
  550SOL    HW2 1650   2.682   2.763   2.818  1.0195  0.2653 -2.6697
  551SOL     OW 1651   0.280   0.847   0.230  0.1449  0.0725 -0.4757
  551SOL    HW1 1652   0.383   0.862   0.223  1.1752  0.1841  1.3598
  551SOL    HW2 1653   0.246   0.830   0.328  1.0642 -0.7730  1.1148
  552SOL     OW 1654   0.619   2.971   1.896 -0.2250 -0.3104 -0.5115
  552SOL    HW1 1655   0.624   3.001   1.994 -1.0764 -0.0107 -1.4527
  552SOL    HW2 1656   0.714   2.970   1.853 -1.9325  0.9565  4.1043
  553SOL     OW 1657   2.925   2.485   0.366 -0.6803 -0.4609 -0.1452
  553SOL    HW1 1658   2.893   2.388   0.391 -1.9554 -0.0415  0.4798
  553SOL    HW2 1659   2.857   2.554   0.401  0.5677 -4.3728  0.9718
  554SOL     OW 1660   2.156   0.373   0.546  0.2568 -0.5102 -0.4868
  554SOL    HW1 1661   2.202   0.389   0.457  1.7728  1.8086  0.5765
  554SOL    HW2 1662   2.178   0.279   0.578 -0.3619  2.8294  1.3745
  555SOL     OW 1663   0.385   2.781   2.495 -0.0999  0.3955  0.1947
  555SOL    HW1 1664   0.327   2.871   2.492 -1.8376 -0.9240  1.9415
  555SOL    HW2 1665   0.422   2.759   2.405 -0.5583  1.8317  4.0735
  556SOL     OW 1666   0.867   2.368   1.547  0.0068 -0.7656  0.1235
  556SOL    HW1 1667   0.916   2.454   1.586  2.3000  0.6908 -0.5405
  556SOL    HW2 1668   0.915   2.335   1.463 -1.0301  0.0499  0.5404
  557SOL     OW 1669   0.155   2.077   0.223 -0.1195 -0.2238 -0.2640
  557SOL    HW1 1670   0.082   2.005   0.193 -0.0076 -2.5643 -0.4292
  557SOL    HW2 1671   0.195   2.133   0.142  2.1946  0.1170 -0.2858
  558SOL     OW 1672   2.778   2.248   0.399 -0.0008 -0.2797  0.5272
  558SOL    HW1 1673   2.677   2.276   0.422  0.4555 -0.3924 -1.0102
  558SOL    HW2 1674   2.778   2.176   0.323  0.6161 -1.4206  1.1109
  559SOL     OW 1675   0.389   2.307   1.418  0.3227  0.4826 -0.0058
  559SOL    HW1 1676   0.316   2.324   1.345  1.7465  1.1074 -1.6690
  559SOL    HW2 1677   0.457   2.229   1.394 -1.7876 -0.1388  1.2696
  560SOL     OW 1678   2.105   1.174   3.058  0.2262 -0.4426  0.5507
  560SOL    HW1 1679   2.144   1.164   3.154  1.4335 -2.3585  0.1912
  560SOL    HW2 1680   2.175   1.222   3.003  2.9657 -2.5883  0.4796
  561SOL     OW 1681   3.078   1.847   0.013  0.1944 -0.0650 -0.0040
  561SOL    HW1 1682   3.053   1.790   0.098  1.1180 -2.4836 -1.0601
  561SOL    HW2 1683   3.021   1.936   0.008  1.1704  0.4002 -0.6928
  562SOL     OW 1684   0.970   2.184   2.314  0.6381 -0.9397 -0.7150
  562SOL    HW1 1685   0.982   2.248   2.396 -0.9922  0.4297 -0.7065
  562SOL    HW2 1686   0.959   2.086   2.328 -1.5119  2.9632 -0.1184
  563SOL     OW 1687   0.696   2.600   2.605  0.3430  0.3376 -0.1675
  563SOL    HW1 1688   0.780   2.535   2.607  1.4267 -0.5788 -0.8736
  563SOL    HW2 1689   0.650   2.608   2.697 -1.6494 -1.0193  0.2181
  564SOL     OW 1690   2.815   1.333   2.890 -0.1575  0.3252  0.1385
  564SOL    HW1 1691   2.750   1.376   2.957  1.0261 -1.9145 -0.9232
  564SOL    HW2 1692   2.881   1.398   2.844  0.4665  1.7468 -0.4689
  565SOL     OW 1693   2.541   2.036   2.657 -0.0823 -0.0410  0.2125
  565SOL    HW1 1694   2.491   2.114   2.610  2.7116  1.6464  0.4589
  565SOL    HW2 1695   2.619   2.071   2.715 -1.9082 -0.9817 -1.8039
  566SOL     OW 1696   2.054   2.835   1.434 -0.7920  0.1893  0.4636
  566SOL    HW1 1697   1.998   2.755   1.469 -0.6754 -0.8628 -1.7802
  566SOL    HW2 1698   2.016   2.870   1.342 -1.2258 -0.4284  2.3422
  567SOL     OW 1699   2.412   3.038   2.366 -0.3815 -0.1962 -0.3304
  567SOL    HW1 1700   2.317   3.065   2.394  1.8392  0.6645 -0.6592
  567SOL    HW2 1701   2.417   3.050   2.260 -0.9973  0.3163 -1.5171
  568SOL     OW 1702   1.537   1.757   0.215 -0.0252  0.5001  0.3201
  568SOL    HW1 1703   1.479   1.833   0.172  2.9305  2.0475 -0.3590
  568SOL    HW2 1704   1.638   1.765   0.197 -1.0131 -2.4099  0.1797
  569SOL     OW 1705   0.263   0.641   0.803 -0.6658 -0.1795 -0.9481
  569SOL    HW1 1706   0.345   0.576   0.791  1.8712 -3.2074 -1.4951
  569SOL    HW2 1707   0.174   0.591   0.834  0.6480 -2.9076  0.9364
  570SOL     OW 1708   0.651   0.820   2.936  0.0078  0.0321 -0.0669
  570SOL    HW1 1709   0.690   0.826   2.839  1.3228 -1.5658 -1.7018
  570SOL    HW2 1710   0.667   0.906   2.991 -0.8479 -1.3780 -2.1695
  571SOL     OW 1711   0.757   3.093   1.073 -0.2712  0.0290 -0.3610
  571SOL    HW1 1712   0.826   3.142   1.017 -1.3090  1.3383  0.8033
  571SOL    HW2 1713   0.771   2.996   1.089  1.3062  1.7863  2.4679
  572SOL     OW 1714   1.634   2.656   1.331 -0.2128 -0.0238 -0.3098
  572SOL    HW1 1715   1.555   2.619   1.273 -0.2761  1.4386  0.3155
  572SOL    HW2 1716   1.645   2.760   1.335  0.0891  2.6549 -0.3110
  573SOL     OW 1717   2.917   0.485   2.031  0.4241  0.0009  0.3417
  573SOL    HW1 1718   2.834   0.430   2.043  3.7901  1.7398  2.1751
  573SOL    HW2 1719   2.954   0.490   1.930 -1.0991  0.4393 -1.3998
  574SOL     OW 1720   0.144   1.757   1.120 -0.0016 -0.4152  0.1819
  574SOL    HW1 1721   0.229   1.806   1.147 -0.6820 -0.9625  0.0323
  574SOL    HW2 1722   0.069   1.822   1.102  1.8554 -1.4426  0.8399
  575SOL     OW 1723   0.810   2.219   0.933 -0.2478  0.1971 -0.2620
  575SOL    HW1 1724   0.789   2.235   1.035  0.8813 -1.4640  1.6961
  575SOL    HW2 1725   0.857   2.294   0.885 -1.6418 -1.0235 -1.4851
  576SOL     OW 1726   2.854   2.992   1.670 -0.1913 -0.3844 -0.1772
  576SOL    HW1 1727   2.759   2.974   1.693  3.0051  0.6874  0.8477
  576SOL    HW2 1728   2.873   3.091   1.659  2.3551 -1.5272  2.1707
  577SOL     OW 1729   2.531   1.168   0.001  0.5048 -0.4561 -0.0218
  577SOL    HW1 1730   2.575   1.117  -0.075  0.3198  0.0399  0.3951
  577SOL    HW2 1731   2.604   1.204   0.064 -3.1966  0.0188  2.5760
  578SOL     OW 1732   1.433   2.733   2.460 -0.4469  0.8098 -0.2004
  578SOL    HW1 1733   1.336   2.756   2.434 -2.9113  3.2193  1.9008
  578SOL    HW2 1734   1.499   2.812   2.450 -0.0667  0.3468  0.6523
  579SOL     OW 1735   0.045   2.483   0.181 -0.0330 -0.0338  0.2396
  579SOL    HW1 1736  -0.022   2.489   0.260  0.1306  1.7548 -0.3889
  579SOL    HW2 1737   0.146   2.496   0.211  0.8967 -1.8465 -0.1605
  580SOL     OW 1738   0.979   2.669   0.339 -0.5631 -0.1243  0.0173
  580SOL    HW1 1739   1.074   2.683   0.294  2.8390  0.0704 -2.0296
  580SOL    HW2 1740   0.918   2.596   0.297  2.4961  0.6843 -0.8373
  581SOL     OW 1741   1.210   2.666   1.462  0.1812  0.0776  0.2826
  581SOL    HW1 1742   1.253   2.573   1.483 -2.9644 -0.3644  2.7472
  581SOL    HW2 1743   1.271   2.731   1.406  0.6475  1.8450 -0.4808
  582SOL     OW 1744   1.492   0.100   1.860  0.0034  0.2037  0.3235
  582SOL    HW1 1745   1.534   0.145   1.945 -0.5459 -0.1252  0.9739
  582SOL    HW2 1746   1.554   0.083   1.776 -0.5256 -2.2865 -0.7662
  583SOL     OW 1747   2.422   3.082   0.500 -0.0138 -0.5854  0.3316
  583SOL    HW1 1748   2.514   3.055   0.456 -1.4336 -2.6534 -0.1600
  583SOL    HW2 1749   2.368   3.005   0.542  2.6724  0.1050 -1.1829
  584SOL     OW 1750   1.552   1.101   2.236  0.1255 -0.3465  0.4472
  584SOL    HW1 1751   1.612   1.185   2.227  0.1804 -2.2819  2.1154
  584SOL    HW2 1752   1.598   1.013   2.258  2.9524  0.5308 -0.5840
  585SOL     OW 1753   2.121   2.686   2.911 -0.3772 -0.4442 -0.6154
  585SOL    HW1 1754   2.152   2.588   2.928  0.7522 -2.6988 -0.3648
  585SOL    HW2 1755   2.015   2.700   2.909 -0.4068  1.1246  2.0172
  586SOL     OW 1756   2.835   0.347   1.606 -0.0404  0.5441 -0.7105
  586SOL    HW1 1757   2.872   0.443   1.632  0.4888 -1.1964  2.6550
  586SOL    HW2 1758   2.737   0.336   1.589  1.2746 -1.2402 -1.2023
  587SOL     OW 1759   2.079   1.507   2.656  0.0180 -0.3906 -0.4276
  587SOL    HW1 1760   2.119   1.430   2.596  1.7099 -1.1629  0.2480
  587SOL    HW2 1761   2.127   1.505   2.749 -0.3452  0.0152 -0.1305
  588SOL     OW 1762   0.456   2.684   2.230 -0.0672 -0.0127  0.1538
  588SOL    HW1 1763   0.396   2.677   2.145  2.0357  1.9095  0.7833
  588SOL    HW2 1764   0.478   2.595   2.279  1.3914 -1.0865  1.2654
  589SOL     OW 1765   2.186   1.323   2.475 -0.0808  0.0055  0.1386
  589SOL    HW1 1766   2.142   1.279   2.395  0.3699 -0.8314  0.1944
  589SOL    HW2 1767   2.285   1.294   2.482 -1.0562 -0.0995 -0.8425
  590SOL     OW 1768   2.295   1.778   2.025 -0.4700  0.1539 -0.2519
  590SOL    HW1 1769   2.352   1.690   2.009  3.5788  0.6135  2.0915
  590SOL    HW2 1770   2.309   1.815   2.123  3.2266 -2.3891  0.4775
  591SOL     OW 1771   1.264   2.421   0.240  0.3006 -0.1546  0.6492
  591SOL    HW1 1772   1.285   2.329   0.191  0.0636 -0.7508 -0.0336
  591SOL    HW2 1773   1.290   2.415   0.338 -2.9414 -0.8724 -2.1941
  592SOL     OW 1774   1.773   2.317   0.746 -0.4402  0.5931  0.6802
  592SOL    HW1 1775   1.754   2.390   0.674 -1.8280 -2.0958  1.0418
  592SOL    HW2 1776   1.862   2.267   0.726  1.1941  0.0563 -1.2610
  593SOL     OW 1777   0.706   0.256   0.210 -0.2759  0.1053  0.3979
  593SOL    HW1 1778   0.785   0.211   0.162  0.6096  1.6639 -0.3228
  593SOL    HW2 1779   0.708   0.356   0.193  1.4161  1.6913 -2.5811
  594SOL     OW 1780   1.029   1.814   2.680  0.1056 -0.3425 -0.1572
  594SOL    HW1 1781   1.122   1.776   2.652  1.1774 -0.0778 -2.9025
  594SOL    HW2 1782   1.049   1.880   2.761  0.1226  1.5558  1.0490
  595SOL     OW 1783   1.537   0.089   1.007  0.1807  0.7087 -0.1153
  595SOL    HW1 1784   1.617   0.026   0.991 -0.7303  1.8855  0.5716
  595SOL    HW2 1785   1.448   0.051   0.962 -0.9276  2.2013  1.7787
  596SOL     OW 1786   0.048   1.577   2.277 -0.2311 -0.1343  0.2867
  596SOL    HW1 1787   0.105   1.491   2.285  1.7239 -0.8653  2.9657
  596SOL    HW2 1788   0.026   1.609   2.372 -1.1662  2.4549 -0.5330
  597SOL     OW 1789   1.923   2.635   1.801 -0.2810  0.4688  0.4939
  597SOL    HW1 1790   1.888   2.636   1.701 -0.3296  2.6235 -2.1376
  597SOL    HW2 1791   2.024   2.606   1.802 -0.0544 -2.7565 -2.9694
  598SOL     OW 1792   2.525   2.914   1.232  0.2503 -0.0447  0.3744
  598SOL    HW1 1793   2.592   2.943   1.306  0.4926 -0.6039  0.0931
  598SOL    HW2 1794   2.565   2.917   1.139 -1.8787 -0.8685 -0.2324
  599SOL     OW 1795   2.897   0.304   2.451  0.3258  0.0275  0.0407
  599SOL    HW1 1796   2.972   0.376   2.428  0.7040  0.6841 -4.0533
  599SOL    HW2 1797   2.802   0.350   2.447  0.1354  2.3425  0.3109
  600SOL     OW 1798   2.804   1.100   2.734 -0.1496  0.3518 -0.1441
  600SOL    HW1 1799   2.708   1.081   2.715  0.0070  0.3213 -1.3362
  600SOL    HW2 1800   2.816   1.186   2.792  2.4359  0.9863 -0.0430
  601SOL     OW 1801   3.064   1.321   1.995 -0.0331  0.1088  0.0768
  601SOL    HW1 1802   2.986   1.350   1.934  4.0380 -0.3524 -1.9837
  601SOL    HW2 1803   3.122   1.400   2.032  0.0874  1.2350  3.6694
  602SOL     OW 1804   1.450   1.697   2.311  0.1218  0.1389  0.6801
  602SOL    HW1 1805   1.370   1.638   2.331 -1.4153  0.2011 -1.2897
  602SOL    HW2 1806   1.530   1.669   2.367 -0.7105 -1.4962 -2.5078
  603SOL     OW 1807   0.621   1.197   2.798  0.6986 -0.8170 -0.3669
  603SOL    HW1 1808   0.528   1.179   2.752  0.9652  2.3237 -2.8835
  603SOL    HW2 1809   0.698   1.128   2.782  3.2038 -0.5011  0.0843
  604SOL     OW 1810   2.415   1.007   0.182  0.5705  0.1317  0.0137
  604SOL    HW1 1811   2.463   1.084   0.126  1.6492  2.0959  0.1509
  604SOL    HW2 1812   2.417   0.919   0.124  0.1833 -0.1263  0.6340
  605SOL     OW 1813   2.519   1.151   1.924 -0.1401  0.3490  0.8412
  605SOL    HW1 1814   2.563   1.065   1.886  0.0269 -2.1518  1.1534
  605SOL    HW2 1815   2.559   1.186   2.009 -1.0220  0.0150 -0.8522
  606SOL     OW 1816   1.529   2.474   2.593  0.0903  0.4136 -0.3929
  606SOL    HW1 1817   1.479   2.533   2.523  0.8921  0.9174  0.7649
  606SOL    HW2 1818   1.472   2.391   2.614  1.0530  0.8436  1.4782
  607SOL     OW 1819   1.328   1.578   0.308 -0.3323  0.5770  0.2119
  607SOL    HW1 1820   1.254   1.644   0.340  2.1142  0.1336  1.3000
  607SOL    HW2 1821   1.413   1.634   0.270  1.5518  0.6646  0.4315
  608SOL     OW 1822   1.463   2.831   0.404  0.0042 -0.2908 -0.1690
  608SOL    HW1 1823   1.515   2.887   0.331 -0.8814  0.9494  0.9030
  608SOL    HW2 1824   1.386   2.886   0.450 -0.3858 -1.1821 -2.8751
  609SOL     OW 1825   1.268   1.331   0.261 -0.1718 -0.1397 -0.2996
  609SOL    HW1 1826   1.289   1.426   0.309  1.6243 -0.0706 -2.8014
  609SOL    HW2 1827   1.258   1.340   0.159 -2.0413 -2.0059  0.0406
  610SOL     OW 1828   2.956   1.147   2.218  0.1922 -0.1480 -0.1049
  610SOL    HW1 1829   2.942   1.044   2.211  0.7807 -0.2725 -0.2882
  610SOL    HW2 1830   2.968   1.193   2.125 -1.4371 -0.7616 -0.3220
  611SOL     OW 1831   2.535   0.275   1.183 -0.1238 -0.1126  0.1482
  611SOL    HW1 1832   2.477   0.190   1.171 -0.0697 -0.6039 -1.0629
  611SOL    HW2 1833   2.620   0.259   1.241  1.5040 -0.4167 -4.6150
  612SOL     OW 1834   0.733   2.281   1.181 -1.0084  0.4787 -0.3420
  612SOL    HW1 1835   0.678   2.209   1.226 -0.2356 -0.0226  3.8251
  612SOL    HW2 1836   0.685   2.375   1.170  1.2513  2.5384  0.7879
  613SOL     OW 1837   0.797   1.382   2.393  0.4463  0.1696 -0.2272
  613SOL    HW1 1838   0.786   1.452   2.316 -0.2634  2.0752  1.1034
  613SOL    HW2 1839   0.813   1.282   2.361  0.0339 -0.9528  0.7094
  614SOL     OW 1840   1.581   1.686   1.935 -0.0156 -0.6530 -0.7356
  614SOL    HW1 1841   1.518   1.767   1.909 -0.0073 -1.4220 -0.1670
  614SOL    HW2 1842   1.670   1.713   1.985  1.2032  0.3524 -0.9751
  615SOL     OW 1843   0.795   1.340   1.729  0.5849 -0.0071  0.0290
  615SOL    HW1 1844   0.726   1.300   1.661  0.3387  2.7503  2.0465
  615SOL    HW2 1845   0.826   1.432   1.704 -0.9864 -1.2664  0.7689
  616SOL     OW 1846   1.090   1.589   2.180  0.3209 -0.3473  0.2886
  616SOL    HW1 1847   0.987   1.587   2.170 -0.3674  0.9140 -1.5735
  616SOL    HW2 1848   1.136   1.621   2.090  0.6432 -0.7840 -3.0392
  617SOL     OW 1849   2.972   1.535   1.587  0.3091  0.2350  0.5042
  617SOL    HW1 1850   2.962   1.463   1.665  1.4949 -0.2667  3.9934
  617SOL    HW2 1851   2.961   1.486   1.495 -1.0376 -0.9784  2.6013
  618SOL     OW 1852   1.919   2.012   1.428  0.3933  0.2277  0.5132
  618SOL    HW1 1853   1.982   2.020   1.346  1.2514  1.8965  2.4490
  618SOL    HW2 1854   1.863   1.923   1.431  0.8924  1.6306 -1.6704
  619SOL     OW 1855   1.749   0.489   2.395 -1.3416 -0.2329  0.0105
  619SOL    HW1 1856   1.661   0.532   2.361  1.5291  0.2179  0.6238
  619SOL    HW2 1857   1.737   0.386   2.395  1.3883 -0.8269  1.4572
  620SOL     OW 1858   2.199   2.949   0.608  0.3800 -0.3328  0.0268
  620SOL    HW1 1859   2.097   2.974   0.628 -1.8195 -1.8999  0.8939
  620SOL    HW2 1860   2.240   2.899   0.686  2.4289 -0.2447 -1.5840
  621SOL     OW 1861   2.141   1.861   1.290  0.2805  0.2853 -0.3989
  621SOL    HW1 1862   2.159   1.864   1.397  1.5543 -0.1617  2.1856
  621SOL    HW2 1863   2.122   1.763   1.260  2.6650 -0.3021  1.8118
  622SOL     OW 1864   2.146   0.848   1.755 -0.2571 -0.1836 -0.7763
  622SOL    HW1 1865   2.237   0.809   1.727 -0.3710 -2.3935  0.0381
  622SOL    HW2 1866   2.114   0.798   1.840 -1.5081 -2.9423 -0.0100
  623SOL     OW 1867   1.366   0.768   2.613 -0.2154 -0.0822 -0.9175
  623SOL    HW1 1868   1.304   0.716   2.678 -0.5734  0.8281  0.4682
  623SOL    HW2 1869   1.324   0.797   2.525  0.8805  1.4755 -0.2327
  624SOL     OW 1870   0.518   0.663   0.019 -0.0459 -0.0536  0.2125
  624SOL    HW1 1871   0.552   0.713  -0.070 -1.8615  0.0882  1.0168
  624SOL    HW2 1872   0.501   0.737   0.094 -0.8417  2.9014  2.1797
  625SOL     OW 1873   2.796   1.746   0.952 -0.1482  0.0915 -0.2771
  625SOL    HW1 1874   2.699   1.784   0.966 -0.3218 -1.8347 -3.1876
  625SOL    HW2 1875   2.801   1.642   0.948  1.6576 -0.4935  1.8269
  626SOL     OW 1876   0.558   2.714   1.835 -0.2708  0.5747 -0.0177
  626SOL    HW1 1877   0.567   2.812   1.872  0.3634  1.5178 -0.1375
  626SOL    HW2 1878   0.460   2.694   1.803 -0.6141  0.8567 -0.4968
  627SOL     OW 1879   0.711   0.994   1.554 -0.6754  0.0654  0.1722
  627SOL    HW1 1880   0.748   0.906   1.592 -0.5034  2.1573  2.3074
  627SOL    HW2 1881   0.788   1.041   1.497 -0.1829  0.7050  0.3592
  628SOL     OW 1882   2.401   0.189   0.686  0.1568  0.2945 -0.2609
  628SOL    HW1 1883   2.417   0.115   0.615 -0.7784  2.7393  0.2658
  628SOL    HW2 1884   2.302   0.183   0.722 -1.9906  0.6039  2.0344
  629SOL     OW 1885   1.954   0.908   1.980  0.0324  0.5317 -0.5129
  629SOL    HW1 1886   2.050   0.903   2.014  1.6426  0.7872  1.7234
  629SOL    HW2 1887   1.912   1.000   2.007  2.8079  2.1713  0.3448
  630SOL     OW 1888   2.789   2.222   0.778 -0.5494 -0.1640  0.1004
  630SOL    HW1 1889   2.706   2.286   0.801  0.5012  0.2280  1.0251
  630SOL    HW2 1890   2.754   2.129   0.747  0.1657 -3.2510 -0.8413
  631SOL     OW 1891   2.960   0.114   2.090  0.3676 -0.0579  0.5814
  631SOL    HW1 1892   2.993   0.143   2.182  0.8911 -2.3027 -1.2756
  631SOL    HW2 1893   3.011   0.151   2.010 -0.4890  0.9559 -1.6298
  632SOL     OW 1894   2.421   2.491   0.629 -0.8713 -0.2203 -0.1577
  632SOL    HW1 1895   2.488   2.567   0.656  0.6060  0.3465  1.3026
  632SOL    HW2 1896   2.383   2.508   0.534  2.4983  2.4900 -0.5173
  633SOL     OW 1897   1.526   1.279   2.534  1.3748  0.0167  0.3873
  633SOL    HW1 1898   1.530   1.365   2.592  2.9885 -0.6956 -1.1263
  633SOL    HW2 1899   1.447   1.288   2.467  1.8475  2.8991  1.6199
  634SOL     OW 1900   0.653   1.992   0.910  0.0973  0.6208 -0.2461
  634SOL    HW1 1901   0.571   2.017   0.971  1.2596  0.2283  0.6941
  634SOL    HW2 1902   0.725   2.067   0.906 -0.4816 -1.5199 -1.1372
  635SOL     OW 1903   0.023   2.325   3.060  0.2411 -0.1019 -0.0622
  635SOL    HW1 1904  -0.017   2.372   2.978  0.6191  1.2255  0.4486
  635SOL    HW2 1905   0.040   2.386   3.140 -1.4995 -2.2364 -0.8328
  636SOL     OW 1906   2.281   2.744   2.036  0.5806  0.9178  0.3520
  636SOL    HW1 1907   2.289   2.848   2.049 -0.5689  0.0888  0.5622
  636SOL    HW2 1908   2.230   2.703   2.111 -1.8232  1.6081 -4.9551
  637SOL     OW 1909   2.592   0.701   2.055 -0.3568 -0.2099  0.0046
  637SOL    HW1 1910   2.542   0.704   1.964  1.1480  0.7481  0.0764
  637SOL    HW2 1911   2.651   0.783   2.075  1.3382 -4.2702  1.3940
  638SOL     OW 1912   2.429   1.841   1.296  0.5507 -0.0170  0.2295
  638SOL    HW1 1913   2.326   1.830   1.268 -2.7274 -0.8559  0.8204
  638SOL    HW2 1914   2.465   1.753   1.339  1.3809 -0.7793  1.9985
  639SOL     OW 1915   1.292   2.196   1.644 -0.4779  0.1357  0.0231
  639SOL    HW1 1916   1.302   2.166   1.541  0.3742 -0.2718 -1.4728
  639SOL    HW2 1917   1.206   2.157   1.692 -0.9655 -1.9400  2.8363
  640SOL     OW 1918   0.212   1.179   1.565  0.4642 -0.1407  0.2377
  640SOL    HW1 1919   0.197   1.250   1.643 -1.5114  0.6537 -0.0581
  640SOL    HW2 1920   0.309   1.141   1.553  1.8246  3.9549 -1.1422
  641SOL     OW 1921   2.038   0.076   1.506 -0.4307 -0.1697 -0.0771
  641SOL    HW1 1922   2.016   0.093   1.605 -0.3806  1.7410 -0.2436
  641SOL    HW2 1923   2.136   0.039   1.491  1.7276  0.1295  2.1433
  642SOL     OW 1924   1.963   0.104   0.290 -0.7074 -0.0917 -0.2767
  642SOL    HW1 1925   2.064   0.113   0.324  1.8763  1.8812  1.7759
  642SOL    HW2 1926   1.898   0.075   0.367  0.1479 -2.2619  0.0360
  643SOL     OW 1927   2.856   1.893   2.068 -0.6555 -0.2441  0.3447
  643SOL    HW1 1928   2.808   1.814   2.021 -1.8559  0.0394 -0.2009
  643SOL    HW2 1929   2.839   1.977   2.014  1.5264  2.2138  1.2815
  644SOL     OW 1930   2.219   2.335   1.184 -0.8113  0.0870  0.1457
  644SOL    HW1 1931   2.288   2.266   1.145 -1.7499  2.4920  3.8871
  644SOL    HW2 1932   2.189   2.320   1.285  1.6844  0.4849 -2.5213
  645SOL     OW 1933   0.634   0.854   1.197 -0.2820 -0.7735 -0.0387
  645SOL    HW1 1934   0.555   0.809   1.152 -0.6289 -0.3244 -0.7062
  645SOL    HW2 1935   0.684   0.919   1.135  2.1398  1.3165  1.5991
  646SOL     OW 1936   1.450   1.938   1.850 -0.0047  0.3580  0.0907
  646SOL    HW1 1937   1.535   2.003   1.834  1.6829 -0.3970 -1.2894
  646SOL    HW2 1938   1.391   1.971   1.927  0.8179  0.1911 -0.5067
  647SOL     OW 1939   0.851   1.009   0.683  0.2729 -0.1510  0.8913
  647SOL    HW1 1940   0.905   1.043   0.764  0.1542  0.9690 -1.0138
  647SOL    HW2 1941   0.759   0.968   0.717 -0.1657  0.1230 -0.1654
  648SOL     OW 1942   0.111   0.179   0.249 -0.6616  0.0026  0.2031
  648SOL    HW1 1943   0.151   0.113   0.177 -0.3763 -0.3841 -0.3625
  648SOL    HW2 1944   0.125   0.278   0.231 -0.2402 -3.4051  2.4867
  649SOL     OW 1945   3.062   0.177   0.919  0.0413 -0.4486  0.1484
  649SOL    HW1 1946   3.119   0.209   0.838  1.1414  0.7399  0.7451
  649SOL    HW2 1947   3.115   0.185   1.007 -0.2021 -0.4870 -0.4002
  650SOL     OW 1948   2.717   0.704   1.428  0.1058  0.4606 -0.6505
  650SOL    HW1 1949   2.616   0.704   1.436  2.6028 -0.3494  2.0568
  650SOL    HW2 1950   2.740   0.791   1.378 -2.9337  4.1665  1.5436
  651SOL     OW 1951   0.940   1.571   1.636 -0.4977 -0.2889  0.2932
  651SOL    HW1 1952   0.926   1.659   1.694 -0.0274 -1.6692 -0.3001
  651SOL    HW2 1953   0.938   1.592   1.533  0.0901  2.4561  0.1159
  652SOL     OW 1954   2.269   2.523   2.494  0.0642  0.1226 -0.2094
  652SOL    HW1 1955   2.193   2.475   2.550 -1.7239  0.7847 -0.0425
  652SOL    HW2 1956   2.235   2.566   2.408 -1.2768 -1.2303 -1.5433
  653SOL     OW 1957   2.732   1.174   0.219 -0.1899 -0.0830  0.5130
  653SOL    HW1 1958   2.764   1.258   0.268  0.9599 -2.2488  0.9644
  653SOL    HW2 1959   2.801   1.096   0.239  1.6003  0.6448 -0.3173
  654SOL     OW 1960   1.245   2.254   1.224  0.0962  0.2103 -0.4496
  654SOL    HW1 1961   1.277   2.200   1.306  0.4293  2.2693  1.3693
  654SOL    HW2 1962   1.298   2.242   1.136 -0.8154  0.4004 -0.3675
  655SOL     OW 1963   0.217   0.941   1.844  0.2751  0.2931 -0.5795
  655SOL    HW1 1964   0.249   0.883   1.768  2.3876  2.1859  1.3589
  655SOL    HW2 1965   0.288   1.004   1.884 -0.1291 -0.7500 -0.4684
  656SOL     OW 1966   2.521   2.495   2.609 -0.4177 -0.4042  0.6030
  656SOL    HW1 1967   2.594   2.472   2.538  1.7285  0.7742 -0.8633
  656SOL    HW2 1968   2.448   2.553   2.574  0.3867  1.1075 -1.5455
  657SOL     OW 1969   3.088   1.076   1.895 -0.1759  0.4159 -0.2615
  657SOL    HW1 1970   3.093   1.174   1.935 -1.6380  2.2121  0.9503
  657SOL    HW2 1971   3.177   1.029   1.885 -0.0990  0.6930 -0.0384
  658SOL     OW 1972   1.673   0.223   2.407 -0.5203 -0.2537  0.1651
  658SOL    HW1 1973   1.681   0.150   2.481  0.4807 -2.0740 -0.3778
  658SOL    HW2 1974   1.728   0.184   2.326 -0.9062 -0.7327 -0.8851
  659SOL     OW 1975   1.444   0.633   2.912 -0.3833 -0.5022 -0.0158
  659SOL    HW1 1976   1.502   0.721   2.919 -0.4762 -0.1082 -0.4192
  659SOL    HW2 1977   1.355   0.638   2.857 -1.3573  0.5299 -0.4570
  660SOL     OW 1978   1.437   0.360   1.447 -0.0376  0.4380 -0.0999
  660SOL    HW1 1979   1.491   0.367   1.537  0.6339  1.0013  1.2527
  660SOL    HW2 1980   1.486   0.306   1.369  0.4264 -2.2648  2.1670
  661SOL     OW 1981   2.507   1.158   0.656  0.1230  0.2846 -0.6016
  661SOL    HW1 1982   2.513   1.155   0.556  0.9635  0.5320  2.1466
  661SOL    HW2 1983   2.443   1.233   0.685  1.1508 -0.5175 -0.6909
  662SOL     OW 1984   1.339   0.431   1.841 -0.0758  0.2876 -0.2252
  662SOL    HW1 1985   1.290   0.344   1.816  0.8525 -1.0618  0.0548
  662SOL    HW2 1986   1.297   0.471   1.928 -0.9470  0.6277  0.9317
  663SOL     OW 1987   0.819   1.589   2.155  0.2913  0.1793  0.5267
  663SOL    HW1 1988   0.774   1.661   2.210  1.8229 -1.6901  2.8051
  663SOL    HW2 1989   0.765   1.560   2.067  1.2388  0.9992  2.1503
  664SOL     OW 1990   1.654   2.094   1.446  0.4084 -0.3320 -0.2971
  664SOL    HW1 1991   1.599   2.020   1.494  1.1630 -0.3224 -0.2063
  664SOL    HW2 1992   1.756   2.091   1.461 -0.6994  0.1622 -1.4250
  665SOL     OW 1993   2.216   0.663   2.009 -0.3001  0.5193  0.5267
  665SOL    HW1 1994   2.225   0.564   2.051 -0.2592 -1.5390  0.3772
  665SOL    HW2 1995   2.233   0.743   2.077 -0.9061  0.7008  1.3090
  666SOL     OW 1996   0.425   2.377   0.446  0.3824 -0.0049  0.3935
  666SOL    HW1 1997   0.513   2.433   0.476  2.2292  1.2613  2.1181
  666SOL    HW2 1998   0.380   2.318   0.519  1.7986 -0.9501 -1.9238
  667SOL     OW 1999   1.974   0.187   1.088 -0.5100 -0.1245 -1.1008
  667SOL    HW1 2000   1.968   0.287   1.065  0.9365  1.9446 -1.7119
  667SOL    HW2 2001   1.926   0.152   1.171  3.6794  0.3876  0.0410
  668SOL     OW 2002   1.987   0.513   1.162 -0.5536  0.6140  0.1322
  668SOL    HW1 2003   2.058   0.516   1.079  0.1106  1.1949 -0.1194
  668SOL    HW2 2004   2.033   0.531   1.251  0.6119 -0.3770 -0.0348
  669SOL     OW 2005   3.019   2.271   0.976 -0.1522 -0.5024 -0.1897
  669SOL    HW1 2006   2.937   2.276   0.913  2.0857  1.3117  0.1640
  669SOL    HW2 2007   3.002   2.229   1.071  3.6568  0.0916 -0.0398
  670SOL     OW 2008   2.887   2.333   1.993  0.2592 -0.3558  0.3684
  670SOL    HW1 2009   2.820   2.300   2.062  3.1917  0.2174  0.2720
  670SOL    HW2 2010   2.867   2.435   1.973 -0.3164  0.2010  0.3886
  671SOL     OW 2011   1.794   1.775   1.437 -0.8170 -0.5153 -0.1591
  671SOL    HW1 2012   1.797   1.786   1.336  2.2167 -0.6279 -0.9433
  671SOL    HW2 2013   1.699   1.756   1.467  0.9935  0.8091 -1.9084
  672SOL     OW 2014   0.417   0.573   2.388  0.7581 -0.2507 -0.1958
  672SOL    HW1 2015   0.446   0.622   2.304  0.1964 -2.5905  2.7789
  672SOL    HW2 2016   0.335   0.615   2.437  0.8283 -0.7544  0.6581
  673SOL     OW 2017   0.148   1.183   1.136  0.0322 -0.1705  0.1442
  673SOL    HW1 2018   0.155   1.239   1.224 -2.1031 -0.8382  1.8135
  673SOL    HW2 2019   0.240   1.146   1.101 -0.4147  1.4223  1.2539
  674SOL     OW 2020   1.589   2.902   0.165 -0.3366 -0.1233 -0.3270
  674SOL    HW1 2021   1.645   2.985   0.144  0.7138  0.4727  1.7869
  674SOL    HW2 2022   1.610   2.820   0.104 -0.8390 -2.9937 -3.2445
  675SOL     OW 2023   1.652   0.851   2.281 -0.7356 -0.6980  0.3759
  675SOL    HW1 2024   1.747   0.831   2.245 -0.7546  2.9549  1.5864
  675SOL    HW2 2025   1.590   0.771   2.304  0.7094  3.2408  1.9588
  676SOL     OW 2026   2.493   1.560   2.022 -0.3244  0.1013 -0.0809
  676SOL    HW1 2027   2.484   1.511   1.928 -2.6500  1.2250  0.4228
  676SOL    HW2 2028   2.530   1.493   2.096  0.8558 -1.8269  1.9828
  677SOL     OW 2029   1.889   0.642   0.893 -0.5239 -0.2641  0.3043
  677SOL    HW1 2030   1.908   0.673   0.988 -1.2375 -3.7015  1.2856
  677SOL    HW2 2031   1.898   0.540   0.887 -1.4165 -0.3781  1.6257
  678SOL     OW 2032   0.028   0.726   1.663 -0.3559 -0.4114  0.1906
  678SOL    HW1 2033   0.132   0.741   1.670 -0.2280  2.7787 -1.6190
  678SOL    HW2 2034  -0.026   0.734   1.755 -1.2951 -0.1879  2.7574
  679SOL     OW 2035   2.554   1.150   1.114 -0.3069 -0.2590 -0.5430
  679SOL    HW1 2036   2.467   1.152   1.170 -0.2785  1.3280  1.3929
  679SOL    HW2 2037   2.584   1.054   1.091  1.7572  1.3506 -1.3465
  680SOL     OW 2038   2.829   0.623   1.663  0.4877  0.1313 -0.5336
  680SOL    HW1 2039   2.790   0.662   1.574 -0.0573 -1.7126 -1.1566
  680SOL    HW2 2040   2.885   0.690   1.716  0.3391 -1.5841  0.1117
  681SOL     OW 2041   2.998   0.126   1.629  0.1484  0.0140  0.6431
  681SOL    HW1 2042   3.074   0.122   1.554  0.5048 -3.0474 -3.2633
  681SOL    HW2 2043   2.939   0.207   1.613  0.5212  0.0768  0.9581
  682SOL     OW 2044   0.781   0.064   1.336 -0.1383 -0.3909  0.5116
  682SOL    HW1 2045   0.731  -0.008   1.392 -2.1646 -0.2580 -0.5700
  682SOL    HW2 2046   0.786   0.048   1.236  0.4005 -0.8630  1.7379
  683SOL     OW 2047   1.349   0.265   2.155  0.5002  0.4549 -0.0898
  683SOL    HW1 2048   1.336   0.334   2.229  0.0508  0.2907 -0.1715
  683SOL    HW2 2049   1.436   0.284   2.101 -0.3651  3.4555  0.3321
  684SOL     OW 2050   1.451   2.178   0.548 -0.2400 -0.1204 -0.4450
  684SOL    HW1 2051   1.505   2.126   0.618 -0.8568 -0.3100 -1.5712
  684SOL    HW2 2052   1.367   2.129   0.517 -1.1421  2.5237  1.2203
  685SOL     OW 2053   2.210   2.002   1.904 -0.3190  0.2912 -0.2125
  685SOL    HW1 2054   2.302   2.044   1.876  0.2802  0.7341  3.2261
  685SOL    HW2 2055   2.230   1.912   1.951  1.6077 -0.1593 -1.0268
  686SOL     OW 2056   1.510   1.754   2.708  0.3149 -0.2593 -1.0146
  686SOL    HW1 2057   1.523   1.678   2.774 -3.0486  1.9137 -2.7362
  686SOL    HW2 2058   1.598   1.781   2.663 -1.4065 -0.4910  0.8474
  687SOL     OW 2059   1.290   2.512   1.919  0.2651  0.4629 -0.5348
  687SOL    HW1 2060   1.330   2.422   1.958  0.9166 -2.8862  2.2377
  687SOL    HW2 2061   1.342   2.596   1.946  1.0648 -0.7254  0.4166
  688SOL     OW 2062   2.088   1.516   1.711 -0.4390 -0.6921 -0.9876
  688SOL    HW1 2063   2.181   1.562   1.710  1.1536  2.2856 -1.1094
  688SOL    HW2 2064   2.054   1.474   1.621 -0.6786 -1.6138 -1.2124
  689SOL     OW 2065   2.478   1.096   2.722 -0.0952 -0.5116  0.4512
  689SOL    HW1 2066   2.378   1.104   2.738 -0.7144  2.6209 -2.9213
  689SOL    HW2 2067   2.530   1.036   2.789 -1.0830  1.7715 -1.3634
  690SOL     OW 2068   2.212   2.753   0.085 -0.6210 -0.2380  0.3730
  690SOL    HW1 2069   2.155   2.755  -0.004  0.2971 -0.0071  2.2614
  690SOL    HW2 2070   2.173   2.802   0.169  0.9124  1.6906 -0.7912
  691SOL     OW 2071   2.561   0.405   2.099 -0.2835 -0.1491 -0.1694
  691SOL    HW1 2072   2.624   0.341   2.045  1.2136 -0.1936  2.0485
  691SOL    HW2 2073   2.570   0.502   2.067  1.7171  0.1998  0.7132
  692SOL     OW 2074   2.764   1.213   0.709  0.1960  0.1639  0.1621
  692SOL    HW1 2075   2.665   1.181   0.683 -1.3602  0.6201 -1.5995
  692SOL    HW2 2076   2.769   1.304   0.759 -0.4934 -1.2153  0.2048
  693SOL     OW 2077   2.834   2.980   0.676  0.6216 -0.0885 -0.0901
  693SOL    HW1 2078   2.832   3.077   0.716  1.6592 -0.3160  1.7706
  693SOL    HW2 2079   2.768   2.971   0.590 -0.9969  1.0319 -0.8270
  694SOL     OW 2080   2.436   2.230   0.074  0.3210  0.2343 -0.3505
  694SOL    HW1 2081   2.395   2.307   0.133  2.4593  0.4109  0.6440
  694SOL    HW2 2082   2.367   2.152   0.050 -2.0013 -3.7905  1.5279
  695SOL     OW 2083   0.634   2.976   1.467 -0.3134 -0.2169 -0.1109
  695SOL    HW1 2084   0.599   2.886   1.436 -0.7184  0.8979  0.3463
  695SOL    HW2 2085   0.585   3.019   1.547  2.1371  0.2917  0.2669
  696SOL     OW 2086   2.695   1.919   0.724 -0.6587  0.4076 -0.0412
  696SOL    HW1 2087   2.747   1.874   0.803 -2.6277  1.0829  0.6852
  696SOL    HW2 2088   2.705   1.871   0.634 -1.3902 -2.0156 -0.9374
  697SOL     OW 2089   1.683   2.076   1.859  0.7044  0.1032 -0.4180
  697SOL    HW1 2090   1.764   2.009   1.876  1.4364  0.1823  0.0237
  697SOL    HW2 2091   1.724   2.166   1.839  2.6937 -1.7210  3.8033
  698SOL     OW 2092   2.924   0.365   2.739 -0.5717 -0.1366  0.1800
  698SOL    HW1 2093   2.919   0.332   2.639 -1.9050 -0.0571 -1.0757
  698SOL    HW2 2094   2.955   0.290   2.803 -3.9284  2.2877 -2.2555
  699SOL     OW 2095   1.522   0.052   2.936 -0.7060  0.3239 -0.3044
  699SOL    HW1 2096   1.513  -0.033   2.883 -0.4455  0.5140 -1.1374
  699SOL    HW2 2097   1.580   0.117   2.879  1.2366 -1.8303 -2.6507
  700SOL     OW 2098   0.988   2.315   1.309  0.4324 -0.1343  0.2893
  700SOL    HW1 2099   1.077   2.285   1.267 -3.2808 -2.7914  0.4008
  700SOL    HW2 2100   0.912   2.313   1.236  0.0167  2.2927 -0.2520
  701SOL     OW 2101   1.933   2.825   0.006 -0.1950 -0.0359  0.0495
  701SOL    HW1 2102   1.909   2.773   0.096 -0.3606 -0.0590  0.4995
  701SOL    HW2 2103   1.960   2.925   0.026  0.7358 -0.8577 -0.3573
  702SOL     OW 2104   2.092   1.341   1.921  0.1406  0.0250  0.4220
  702SOL    HW1 2105   2.161   1.265   1.903 -1.7691 -2.3044 -0.0848
  702SOL    HW2 2106   2.086   1.412   1.839 -0.5567  0.5479  0.3676
  703SOL     OW 2107   1.929   0.834   1.397 -0.4322 -0.1988 -0.0036
  703SOL    HW1 2108   1.899   0.754   1.463 -0.2571 -1.4499 -0.1222
  703SOL    HW2 2109   1.978   0.910   1.450  1.5819 -1.5025  1.7926
  704SOL     OW 2110   0.302   2.066   1.655  0.1810  0.5444  0.2311
  704SOL    HW1 2111   0.317   1.977   1.708  0.4555 -3.8970 -1.1064
  704SOL    HW2 2112   0.358   2.144   1.690 -0.3697  0.1274 -0.2260
  705SOL     OW 2113   2.527   1.395   0.945  0.0892  0.0340 -0.3370
  705SOL    HW1 2114   2.465   1.377   0.863  3.6933  0.3781 -0.2977
  705SOL    HW2 2115   2.583   1.310   0.972 -0.9289 -0.7754  1.9004
  706SOL     OW 2116   0.651   1.755   1.844  0.1426 -0.2497  0.2609
  706SOL    HW1 2117   0.633   1.668   1.894 -2.2674  3.2010  2.8558
  706SOL    HW2 2118   0.694   1.827   1.905  1.2597  0.2700  2.6340
  707SOL     OW 2119   2.231   1.099   1.891  0.1226  0.0311 -0.0812
  707SOL    HW1 2120   2.331   1.124   1.913  1.0051 -0.8069 -1.8233
  707SOL    HW2 2121   2.220   1.001   1.867  1.3543  3.6084  1.1374
  708SOL     OW 2122   2.970   0.523   3.047  0.2632 -0.2130  0.2241
  708SOL    HW1 2123   3.021   0.544   2.958  2.8518 -0.3809 -1.3425
  708SOL    HW2 2124   2.950   0.419   3.045 -1.7265 -0.0118  1.4899
  709SOL     OW 2125   1.788   1.900   0.253  0.4261 -0.2328 -0.0382
  709SOL    HW1 2126   1.833   1.991   0.283  1.6917  1.9020  1.8983
  709SOL    HW2 2127   1.816   1.869   0.159 -0.8433 -0.7965  1.3266
  710SOL     OW 2128   1.681   1.590   2.402  0.3547 -0.1784  0.2399
  710SOL    HW1 2129   1.736   1.593   2.311 -1.7736 -2.2845  0.1371
  710SOL    HW2 2130   1.715   1.506   2.459 -0.6039  0.8589 -1.1535
  711SOL     OW 2131   2.660   2.937   0.970  0.8401 -0.5715 -0.0009
  711SOL    HW1 2132   2.612   3.028   0.948  1.6642  2.3587  0.2456
  711SOL    HW2 2133   2.762   2.945   0.991 -0.4472  0.2234  2.4816
  712SOL     OW 2134   1.426   2.266   1.899  0.6598  0.0313 -1.0626
  712SOL    HW1 2135   1.515   2.216   1.916 -1.3330 -1.1536  0.1493
  712SOL    HW2 2136   1.386   2.252   1.805 -1.7145  1.1178 -0.9776
  713SOL     OW 2137   2.830   1.521   2.535 -0.8536  0.1998 -0.4938
  713SOL    HW1 2138   2.812   1.420   2.529  0.1396  0.3728 -0.6020
  713SOL    HW2 2139   2.741   1.561   2.569  0.0112  0.6955 -2.7650
  714SOL     OW 2140   2.680   0.462   2.388 -0.4297 -0.7045  0.2222
  714SOL    HW1 2141   2.602   0.421   2.442  2.2274 -0.1622  0.9325
  714SOL    HW2 2142   2.672   0.456   2.286 -0.4334  0.3073  2.6613
  715SOL     OW 2143   1.594   2.041   1.168 -0.0810  0.1965 -0.1263
  715SOL    HW1 2144   1.514   2.097   1.128  2.4908 -1.5908 -2.9388
  715SOL    HW2 2145   1.636   2.076   1.257  0.5359 -0.4328  0.0534
  716SOL     OW 2146   1.205   0.217   1.517  0.3228  0.4315 -0.0245
  716SOL    HW1 2147   1.111   0.240   1.481  0.1362 -0.9042 -0.7194
  716SOL    HW2 2148   1.281   0.275   1.478  1.1353 -1.8387 -0.3984
  717SOL     OW 2149   1.110   0.606   1.612 -0.7278  0.5180  0.0881
  717SOL    HW1 2150   1.214   0.621   1.630  2.3076  0.5490 -3.1265
  717SOL    HW2 2151   1.093   0.578   1.513  1.4710 -0.7291 -2.4148
  718SOL     OW 2152   0.739   0.981   0.950  0.3354  0.2710 -0.0362
  718SOL    HW1 2153   0.665   0.941   0.890 -1.3912  1.9344 -2.0450
  718SOL    HW2 2154   0.704   1.068   0.995 -1.0342  2.4188  0.5157
  719SOL     OW 2155   0.718   1.800   2.269  0.4305 -0.2259 -0.3830
  719SOL    HW1 2156   0.784   1.857   2.329  4.3487  2.4064  0.7540
  719SOL    HW2 2157   0.634   1.773   2.323  0.5578 -0.4583  0.8340
  720SOL     OW 2158   2.188   1.143   0.228 -0.1396 -0.2922 -0.5174
  720SOL    HW1 2159   2.264   1.072   0.212 -0.4788 -0.3097  1.7137
  720SOL    HW2 2160   2.155   1.141   0.328 -1.3511 -0.1244  1.5382
  721SOL     OW 2161   2.297   3.024   2.098  0.1046  0.8245 -0.0071
  721SOL    HW1 2162   2.329   3.032   1.999  0.7440  2.1962  0.5550
  721SOL    HW2 2163   2.209   3.066   2.122 -1.3736 -2.6268 -1.4512
  722SOL     OW 2164   2.370   1.615   0.581 -0.1035  0.2788 -0.0397
  722SOL    HW1 2165   2.355   1.543   0.508  0.8631 -0.2278 -3.3107
  722SOL    HW2 2166   2.289   1.671   0.608 -0.3264  1.6432 -3.1469
  723SOL     OW 2167   2.557   2.704   1.985 -0.0819  0.7174 -0.5204
  723SOL    HW1 2168   2.578   2.769   2.064  1.3004  1.6011 -0.1267
  723SOL    HW2 2169   2.454   2.692   1.974  2.0935 -0.9635 -0.7969
  724SOL     OW 2170   0.536   2.473   2.411 -0.2098  0.2638 -0.3100
  724SOL    HW1 2171   0.440   2.454   2.442  0.8283  1.2050 -0.2426
  724SOL    HW2 2172   0.584   2.536   2.472 -0.1775 -0.9845 -2.3041
  725SOL     OW 2173   2.456   2.754   1.545  0.3918 -0.0558  0.2555
  725SOL    HW1 2174   2.465   2.754   1.439  2.7266 -1.8968 -1.0430
  725SOL    HW2 2175   2.423   2.663   1.584  1.8816 -1.9752  1.7951
  726SOL     OW 2176   2.369   2.240   0.661 -0.0307 -0.2255 -0.3657
  726SOL    HW1 2177   2.397   2.340   0.650 -2.1995  2.7959 -0.6573
  726SOL    HW2 2178   2.393   2.177   0.578  2.8558  1.0592  2.6948
  727SOL     OW 2179   0.178   3.087   0.057  0.4819 -0.0331  0.3163
  727SOL    HW1 2180   0.240   3.003   0.058 -0.0692  2.5780 -0.8993
  727SOL    HW2 2181   0.121   3.092  -0.027  0.2981  0.9074  0.4667
  728SOL     OW 2182   2.864   0.665   0.976 -0.0798  0.2205  0.0366
  728SOL    HW1 2183   2.794   0.673   0.899  0.3101 -0.5993  0.8509
  728SOL    HW2 2184   2.812   0.608   1.046 -2.5552 -0.3645 -0.4025
  729SOL     OW 2185   2.950   2.449   0.731 -0.8487 -0.2312 -0.6108
  729SOL    HW1 2186   2.920   2.351   0.737 -1.6287 -0.3799  0.4629
  729SOL    HW2 2187   3.053   2.451   0.738  2.4557  0.1477  0.5227
  730SOL     OW 2188   2.605   0.618   0.868  0.2777 -0.4145 -0.1679
  730SOL    HW1 2189   2.551   0.694   0.818  0.3619 -1.8927  4.6727
  730SOL    HW2 2190   2.660   0.556   0.804 -0.2621  1.0092  0.1192
  731SOL     OW 2191   0.113   2.127   2.443 -0.0501  0.1332  0.4499
  731SOL    HW1 2192   0.115   2.172   2.537 -1.3756 -2.0105 -2.2234
  731SOL    HW2 2193   0.120   2.186   2.362  0.0929 -1.8580 -0.6176
  732SOL     OW 2194   1.098   2.893   1.925  0.2437 -0.0120  0.3645
  732SOL    HW1 2195   1.113   2.828   2.006  0.1820 -0.8667  0.8138
  732SOL    HW2 2196   1.139   2.863   1.833 -0.4312  2.5922  0.8046
  733SOL     OW 2197   3.081   0.636   2.171  0.2104  0.2049 -0.4139
  733SOL    HW1 2198   3.169   0.665   2.122  2.0493  0.8912 -2.2900
  733SOL    HW2 2199   3.020   0.580   2.115  3.9981  0.3153  0.0560
  734SOL     OW 2200   1.416   0.401   2.778  0.4927 -0.0583  0.2825
  734SOL    HW1 2201   1.429   0.476   2.846  0.3376 -0.4533 -1.0242
  734SOL    HW2 2202   1.314   0.370   2.767 -0.9317 -1.1340  1.4609
  735SOL     OW 2203   2.924   2.589   2.266 -0.2813 -0.0288  0.1064
  735SOL    HW1 2204   2.892   2.578   2.171 -0.9084  1.1789  0.4717
  735SOL    HW2 2205   3.029   2.599   2.275  1.6647 -0.9711  1.5405
  736SOL     OW 2206   0.699   0.381   2.628 -0.1922  1.1318 -0.6580
  736SOL    HW1 2207   0.637   0.466   2.612  0.0739  0.0875 -3.5221
  736SOL    HW2 2208   0.726   0.337   2.539 -1.1361  2.6783  3.9509
  737SOL     OW 2209   2.653   0.410   2.847  0.1889  0.6013  0.0988
  737SOL    HW1 2210   2.623   0.389   2.944  0.1949  0.3985  0.7875
  737SOL    HW2 2211   2.755   0.395   2.833  0.8767 -3.8423  1.3315
  738SOL     OW 2212   1.608   1.245   2.907  0.4003  0.2712  0.1426
  738SOL    HW1 2213   1.698   1.196   2.923 -2.2232  1.9912 -0.8751
  738SOL    HW2 2214   1.537   1.180   2.863  2.2875 -2.7106  1.8098
  739SOL     OW 2215   1.694   0.632   0.638  0.2216  0.3808  0.1431
  739SOL    HW1 2216   1.765   0.640   0.711 -0.2628 -1.1188 -0.7849
  739SOL    HW2 2217   1.714   0.555   0.571 -0.9749 -1.0306  0.7220
  740SOL     OW 2218   1.939   1.914   2.344 -0.0835 -0.2428  0.4017
  740SOL    HW1 2219   2.012   1.862   2.396 -1.6723  1.1720  1.5162
  740SOL    HW2 2220   1.883   1.854   2.283 -0.1331 -1.6916 -1.8842
  741SOL     OW 2221   2.542   0.081   2.625  0.4036 -0.1226 -0.0654
  741SOL    HW1 2222   2.644   0.066   2.611  0.2094  0.4795  1.4908
  741SOL    HW2 2223   2.475   0.017   2.571  0.7037 -2.0473 -1.2347
  742SOL     OW 2224   2.236   1.401   0.179  0.3752 -0.0448 -0.2515
  742SOL    HW1 2225   2.170   1.482   0.189  1.1877 -2.1299 -1.0926
  742SOL    HW2 2226   2.203   1.306   0.215  2.2631  0.0491  0.9042
  743SOL     OW 2227   1.817   0.661   2.594 -0.6874  0.0313 -0.2265
  743SOL    HW1 2228   1.789   0.592   2.520 -0.1880 -1.1104 -1.0005
  743SOL    HW2 2229   1.747   0.736   2.608  0.9920 -2.0604  2.2382
  744SOL     OW 2230   2.697   2.137   0.074 -0.2759  0.4438 -0.3089
  744SOL    HW1 2231   2.614   2.205   0.087  1.6666  2.5219  0.7208
  744SOL    HW2 2232   2.672   2.040   0.041  2.0661 -0.0752  0.1471
  745SOL     OW 2233   2.153   2.666   2.288 -0.1297  0.1076 -0.5874
  745SOL    HW1 2234   2.067   2.671   2.232 -3.6108  0.9466  1.6582
  745SOL    HW2 2235   2.162   2.744   2.358 -0.9871  2.0678  0.7539
  746SOL     OW 2236   3.089   2.616   1.772  0.2376 -0.6231  1.0717
  746SOL    HW1 2237   3.167   2.632   1.706  0.8979  0.8180  0.6713
  746SOL    HW2 2238   3.059   2.704   1.821  1.1341  0.4641 -0.3030
  747SOL     OW 2239   0.029   1.772   1.615  0.0186 -0.2147  0.0093
  747SOL    HW1 2240   0.005   1.677   1.585  0.6255 -0.5796 -2.6954
  747SOL    HW2 2241   0.064   1.830   1.535  1.2542 -0.5570  2.3452
  748SOL     OW 2242   1.862   2.768   2.832 -0.1747  0.1501  0.1496
  748SOL    HW1 2243   1.865   2.790   2.932 -0.0269  0.6806 -2.1817
  748SOL    HW2 2244   1.773   2.718   2.813  1.5227  0.3057 -3.5101
  749SOL     OW 2245   1.328   3.080   0.888  0.0358 -0.0747  0.2008
  749SOL    HW1 2246   1.266   3.001   0.919 -0.1924 -3.3239  2.9080
  749SOL    HW2 2247   1.315   3.104   0.788 -0.5827  2.1683  1.0049
  750SOL     OW 2248   2.373   0.233   1.873 -0.5427  0.0766 -0.0963
  750SOL    HW1 2249   2.384   0.292   1.788  1.2236 -1.3248 -1.1120
  750SOL    HW2 2250   2.311   0.284   1.946 -4.0840  0.2980 -0.6857
  751SOL     OW 2251   0.940   2.172   2.724  0.0768  0.2572 -0.3253
  751SOL    HW1 2252   0.946   2.181   2.828  0.1236  2.3904 -0.8391
  751SOL    HW2 2253   0.855   2.120   2.690 -0.5209 -0.9408  0.5932
  752SOL     OW 2254   1.244   0.864   1.509  0.7094 -0.4132  0.1596
  752SOL    HW1 2255   1.328   0.916   1.483  0.2490  2.0729  2.2206
  752SOL    HW2 2256   1.274   0.768   1.525  0.6001  0.0029 -1.0606
  753SOL     OW 2257   0.955   2.588   1.707  0.0773  0.1238  0.4292
  753SOL    HW1 2258   1.050   2.621   1.714 -3.1815  1.2953  0.6613
  753SOL    HW2 2259   0.894   2.660   1.660  3.6204  1.3643 -2.6424
  754SOL     OW 2260   1.211   1.315   3.097  0.1057  0.2249 -0.3931
  754SOL    HW1 2261   1.249   1.238   3.033  1.6314 -0.4422  1.2024
  754SOL    HW2 2262   1.199   1.409   3.053  0.8260 -2.1182  0.0699
  755SOL     OW 2263   1.947   0.426   2.213  0.1588 -0.1775 -0.0253
  755SOL    HW1 2264   2.045   0.428   2.250 -0.7093  0.4887 -2.2427
  755SOL    HW2 2265   1.871   0.450   2.283 -0.7200  0.9797 -0.2282
  756SOL     OW 2266   2.603   0.954   2.930 -0.1399 -0.2837 -0.0760
  756SOL    HW1 2267   2.702   0.943   2.959  1.8152 -0.1775  0.0956
  756SOL    HW2 2268   2.544   0.921   3.003  1.2924 -0.3159 -2.5812
  757SOL     OW 2269   3.048   0.469   1.789  0.0021  0.0936  0.0643
  757SOL    HW1 2270   3.132   0.475   1.728 -0.1786 -1.7278 -0.9229
  757SOL    HW2 2271   3.032   0.374   1.828  1.5488  2.7672  0.9274
  758SOL     OW 2272   2.382   0.104   1.427 -0.1288 -0.2892  0.1082
  758SOL    HW1 2273   2.345   0.017   1.476  0.3362 -0.1332 -1.1561
  758SOL    HW2 2274   2.386   0.094   1.323 -2.1488 -3.9322  2.4441
  759SOL     OW 2275   1.693   0.030   0.072  0.0315 -0.0927  0.3162
  759SOL    HW1 2276   1.633   0.058  -0.009  1.4324 -0.5533  1.8186
  759SOL    HW2 2277   1.795   0.037   0.059  0.6540  4.5107  3.0363
  760SOL     OW 2278   2.749   2.075   2.814  0.0140 -0.1188  0.1959
  760SOL    HW1 2279   2.805   2.006   2.862 -2.3257  1.0156 -1.4998
  760SOL    HW2 2280   2.752   2.168   2.861 -0.3862  1.0139 -2.4179
  761SOL     OW 2281   1.957   1.749   1.668  0.2970 -0.6141 -0.6807
  761SOL    HW1 2282   1.998   1.665   1.715 -0.0333 -1.8443 -0.1903
  761SOL    HW2 2283   1.901   1.727   1.588 -0.9712  0.1020 -0.2563
  762SOL     OW 2284   0.468   2.339   0.974  0.2086 -0.0234  0.1901
  762SOL    HW1 2285   0.512   2.352   0.884 -1.2667 -1.6523 -0.5248
  762SOL    HW2 2286   0.500   2.414   1.039 -1.9472  2.4379  1.1828
  763SOL     OW 2287   2.102   1.536   2.969  0.0133  0.0950  0.2044
  763SOL    HW1 2288   2.170   1.455   2.972 -1.5096 -2.1932  2.0531
  763SOL    HW2 2289   2.016   1.518   3.031 -1.3122  0.2531  0.3781
  764SOL     OW 2290   0.663   0.596   0.859  0.4228  0.1674  0.5011
  764SOL    HW1 2291   0.649   0.542   0.771 -0.3101  1.9225 -1.4912
  764SOL    HW2 2292   0.764   0.607   0.887 -0.7579 -1.5114  2.9221
  765SOL     OW 2293   0.702   0.210   0.843 -0.4603 -0.1985  0.6127
  765SOL    HW1 2294   0.718   0.290   0.781 -1.0738  0.0090 -0.5337
  765SOL    HW2 2295   0.676   0.239   0.940  0.3614  3.1823 -0.5038
  766SOL     OW 2296   2.962   2.090   3.088  0.1258  0.2110  0.2040
  766SOL    HW1 2297   2.863   2.098   3.129 -3.3538  0.0551 -0.7114
  766SOL    HW2 2298   3.019   2.171   3.115 -2.7848  1.0718 -1.5818
  767SOL     OW 2299   2.863   1.570   0.541  0.2505 -0.0969 -0.2662
  767SOL    HW1 2300   2.770   1.549   0.581  0.9917  3.4529  0.1265
  767SOL    HW2 2301   2.941   1.556   0.608  3.4237 -1.0153  0.5485
  768SOL     OW 2302   1.085   0.229   0.353  0.2509 -0.2543 -0.1406
  768SOL    HW1 2303   1.028   0.153   0.400  0.1940  2.7788 -1.3361
  768SOL    HW2 2304   1.163   0.192   0.300 -0.3174  0.7776  0.4626
  769SOL     OW 2305   1.118   1.893   2.257 -0.2183 -0.4538  0.1392
  769SOL    HW1 2306   1.062   1.901   2.347 -1.8962  0.6485  0.0941
  769SOL    HW2 2307   1.101   1.791   2.228  1.9263  0.9294  0.6989
  770SOL     OW 2308   0.128   1.274   2.252  0.3829  0.9913  0.3328
  770SOL    HW1 2309   0.117   1.257   2.353  0.8130  1.1322 -0.7540
  770SOL    HW2 2310   0.036   1.254   2.202 -1.4156 -1.2519 -0.0420
  771SOL     OW 2311   2.945   2.841   1.871  0.4957  0.0265 -0.0889
  771SOL    HW1 2312   2.923   2.917   1.797 -0.5400  2.9540  0.1278
  771SOL    HW2 2313   2.899   2.854   1.962 -2.1395 -1.0600 -0.9151
  772SOL     OW 2314   2.171   0.106   2.975  0.0303  0.4830  0.1100
  772SOL    HW1 2315   2.254   0.070   2.918 -0.2978 -0.4734 -0.5606
  772SOL    HW2 2316   2.190   0.197   3.019  2.5801 -0.1797 -1.1132
  773SOL     OW 2317   0.735   2.122   2.513  0.0627 -1.0580  0.0940
  773SOL    HW1 2318   0.732   2.183   2.430  0.0186 -0.4906  3.2747
  773SOL    HW2 2319   0.642   2.120   2.564 -0.1810 -0.9489 -0.1983
  774SOL     OW 2320   2.037   0.016   2.669  0.0113 -0.1519 -0.3029
  774SOL    HW1 2321   2.072   0.101   2.721  1.5242 -0.5635  1.6965
  774SOL    HW2 2322   2.086  -0.064   2.707  2.0227 -0.5671 -0.9944
  775SOL     OW 2323   2.523   2.809   2.493 -0.5739  0.3948  0.3608
  775SOL    HW1 2324   2.484   2.902   2.462  1.4110 -0.4073 -2.6962
  775SOL    HW2 2325   2.629   2.813   2.506  0.8390  2.4684 -0.5857
  776SOL     OW 2326   0.057   1.253   0.237 -0.5535 -0.5449  0.2850
  776SOL    HW1 2327   0.011   1.234   0.148  0.9185  1.7630 -0.0290
  776SOL    HW2 2328   0.004   1.251   0.327  0.7173  0.0581  2.7859
  777SOL     OW 2329   0.241   2.767   0.480 -0.1745 -1.2399  0.0809
  777SOL    HW1 2330   0.151   2.784   0.530 -1.0275  0.3210 -1.6868
  777SOL    HW2 2331   0.304   2.851   0.482  0.7670 -1.3011 -1.4133
  778SOL     OW 2332   1.359   1.981   0.163 -0.0753  0.4613  0.2598
  778SOL    HW1 2333   1.354   1.969   0.267 -0.2577  1.5021  0.9625
  778SOL    HW2 2334   1.367   2.080   0.134 -2.9179  1.3917  0.8366
  779SOL     OW 2335   0.189   0.795   0.501 -0.0186 -0.4238  0.5227
  779SOL    HW1 2336   0.147   0.702   0.509  0.4449  0.6258 -1.5252
  779SOL    HW2 2337   0.151   0.870   0.566 -0.2140 -0.9735  0.0475
  780SOL     OW 2338   0.039   0.272   2.287 -0.0990  0.3355  0.7222
  780SOL    HW1 2339   0.043   0.373   2.304 -0.1086  1.9563 -1.2831
  780SOL    HW2 2340   0.125   0.228   2.246 -0.3974 -0.1222 -1.5637
  781SOL     OW 2341   0.661   1.720   1.562 -0.0586 -0.1270 -0.0152
  781SOL    HW1 2342   0.662   1.725   1.666 -1.4924 -2.5312 -2.3720
  781SOL    HW2 2343   0.560   1.701   1.533  0.1047  0.6117 -0.0972
  782SOL     OW 2344   2.592   0.147   0.892  0.3416  0.1195 -0.5689
  782SOL    HW1 2345   2.529   0.163   0.808  1.7978 -1.1349  0.0772
  782SOL    HW2 2346   2.567   0.204   0.973  1.8750  0.6427 -0.1335
  783SOL     OW 2347   2.822   0.654   2.531 -0.2097  0.3530  0.4742
  783SOL    HW1 2348   2.784   0.678   2.625  0.7555  1.5728 -0.3509
  783SOL    HW2 2349   2.773   0.585   2.475  3.0104 -0.0953  3.0980
  784SOL     OW 2350   1.372   2.232   0.048 -0.2500  0.4951  0.0533
  784SOL    HW1 2351   1.448   2.290   0.091 -2.8492  2.7139 -0.3342
  784SOL    HW2 2352   1.352   2.253  -0.054  0.7341 -1.4602  0.8612
  785SOL     OW 2353   2.196   0.373   3.068  0.2490 -0.0183 -0.0906
  785SOL    HW1 2354   2.109   0.373   3.127 -1.0916  0.7052 -0.5784
  785SOL    HW2 2355   2.211   0.472   3.035 -0.9438  2.2479 -2.2514
  786SOL     OW 2356   2.052   2.140   2.193  0.1243 -0.7215 -0.0929
  786SOL    HW1 2357   2.000   2.061   2.238  0.5599  0.0547  0.6549
  786SOL    HW2 2358   2.149   2.142   2.221 -5.1719  1.4655  4.1944
  787SOL     OW 2359   1.404   0.613   0.880 -0.3436 -0.1451 -0.1173
  787SOL    HW1 2360   1.333   0.690   0.898  1.1964  1.2343  0.7852
  787SOL    HW2 2361   1.401   0.577   0.780 -1.5605 -1.1811 -0.4975
  788SOL     OW 2362   1.221   0.412   3.030 -0.0651 -0.4440  0.1472
  788SOL    HW1 2363   1.136   0.415   2.970  2.6129  2.0073  3.5144
  788SOL    HW2 2364   1.225   0.501   3.083 -0.9231  0.7939 -1.6374
  789SOL     OW 2365   2.604   0.078   1.800 -0.0928  0.4595 -0.5807
  789SOL    HW1 2366   2.526   0.125   1.846  2.6206 -0.7203 -1.1492
  789SOL    HW2 2367   2.592  -0.024   1.780 -0.0609 -3.9286  1.1790
  790SOL     OW 2368   2.558   2.689   0.855 -0.2847 -0.0265 -0.2817
  790SOL    HW1 2369   2.616   2.765   0.901 -0.2589 -4.3148 -1.4399
  790SOL    HW2 2370   2.550   2.601   0.905 -3.1109  1.0377 -0.8045
  791SOL     OW 2371   1.928   1.270   0.258  0.4325 -0.1615 -0.0239
  791SOL    HW1 2372   1.837   1.222   0.268  0.7409  2.4215 -0.0877
  791SOL    HW2 2373   2.001   1.213   0.217  0.4163  1.9182 -0.7545
  792SOL     OW 2374   0.452   2.011   2.135  0.1024  0.1811  0.3820
  792SOL    HW1 2375   0.507   2.091   2.171 -1.9094  1.6867 -0.3535
  792SOL    HW2 2376   0.372   1.990   2.192  0.0884  1.4302  2.1205
  793SOL     OW 2377   2.092   1.551   2.087  0.0027  0.1692  0.0050
  793SOL    HW1 2378   2.132   1.627   2.031 -0.5745 -1.4084 -1.8874
  793SOL    HW2 2379   2.094   1.462   2.033 -2.5034 -3.9293  0.3728
  794SOL     OW 2380   0.468   1.375   2.480  0.2292 -0.2246 -0.5734
  794SOL    HW1 2381   0.456   1.317   2.397  1.1668 -0.1592 -1.7838
  794SOL    HW2 2382   0.425   1.467   2.472  0.0703  1.2956 -0.2525
  795SOL     OW 2383   2.474   2.366   1.793  0.0254  0.1247  0.0652
  795SOL    HW1 2384   2.504   2.366   1.894  0.3507 -1.2890  3.2987
  795SOL    HW2 2385   2.392   2.300   1.775 -0.3993  0.9170 -1.9373
  796SOL     OW 2386   3.100   1.073   2.699  0.0805 -0.1309  0.1388
  796SOL    HW1 2387   3.002   1.086   2.721  2.4892 -2.6833  0.1396
  796SOL    HW2 2388   3.157   1.118   2.770  1.6355 -2.1654 -2.6127
  797SOL     OW 2389   0.770   0.670   1.331  0.2340  0.0222 -0.0070
  797SOL    HW1 2390   0.832   0.724   1.391 -3.5193 -0.0333 -1.1977
  797SOL    HW2 2391   0.707   0.727   1.270  0.7168 -0.7089  0.6332
  798SOL     OW 2392   1.336   0.431   1.065 -0.2539 -0.0337 -0.2462
  798SOL    HW1 2393   1.364   0.486   1.152 -0.5021 -0.2754 -0.0019
  798SOL    HW2 2394   1.355   0.490   0.983 -0.4810 -0.6690 -1.7964
  799SOL     OW 2395   1.948   2.694   1.037 -0.4083  0.3861  0.1342
  799SOL    HW1 2396   1.907   2.610   1.084 -1.2664  1.7037 -3.3882
  799SOL    HW2 2397   1.912   2.705   0.937  1.3616 -1.8075 -2.3946
  800SOL     OW 2398   2.926   0.827   1.862  0.3983 -0.2470  0.0923
  800SOL    HW1 2399   2.969   0.905   1.915 -1.2819  1.0363  1.0190
  800SOL    HW2 2400   2.824   0.833   1.857  1.0747 -0.2107  1.3206
  801SOL     OW 2401   1.971   2.154   0.051 -0.0074 -0.4670  0.2274
  801SOL    HW1 2402   1.888   2.128  -0.009 -0.1017  0.7743 -2.0022
  801SOL    HW2 2403   2.056   2.111   0.021 -1.6167  0.6066 -1.6883
  802SOL     OW 2404   0.694   0.753   2.520  0.4089 -0.5180 -0.3647
  802SOL    HW1 2405   0.762   0.702   2.464  1.7082 -3.5577  0.6130
  802SOL    HW2 2406   0.600   0.712   2.514  0.8909 -0.0227 -0.4780
  803SOL     OW 2407   0.957   0.094   0.891  0.5116 -0.1213  0.1540
  803SOL    HW1 2408   1.055   0.129   0.885  1.7514 -1.9060 -0.7676
  803SOL    HW2 2409   0.883   0.165   0.870 -0.6706  0.2548  1.0989
  804SOL     OW 2410   0.294   3.048   2.197 -0.4376  0.2927 -0.1990
  804SOL    HW1 2411   0.291   3.149   2.177  1.8311 -1.4142 -2.9312
  804SOL    HW2 2412   0.255   2.990   2.121  0.1943  0.6496  0.5384
  805SOL     OW 2413   2.337   0.419   0.327  0.0485  0.1345  0.4042
  805SOL    HW1 2414   2.399   0.426   0.416  0.7982  0.3054  1.8398
  805SOL    HW2 2415   2.351   0.334   0.273  0.2771 -2.0286  0.8355
  806SOL     OW 2416   0.686   2.469   1.796 -0.7046  0.4745 -0.0876
  806SOL    HW1 2417   0.670   2.568   1.815 -0.1553  0.5402 -1.4303
  806SOL    HW2 2418   0.780   2.454   1.756 -1.0156  1.7115 -2.6278
  807SOL     OW 2419   2.511   0.917   0.436 -0.7880  0.5990  0.0205
  807SOL    HW1 2420   2.608   0.944   0.465  2.0971  1.1125 -4.8844
  807SOL    HW2 2421   2.481   0.964   0.351  4.1394 -2.3154  0.4149
  808SOL     OW 2422   0.657   2.054   2.909 -0.5971 -0.0393 -0.8826
  808SOL    HW1 2423   0.618   2.098   2.997 -0.0250  0.8054  1.0213
  808SOL    HW2 2424   0.669   1.952   2.922  0.2719 -1.8488 -0.7872
  809SOL     OW 2425   2.561   1.987   1.846 -0.1094 -0.2307  0.0732
  809SOL    HW1 2426   2.661   2.025   1.840  0.9889  2.6952 -1.9337
  809SOL    HW2 2427   2.521   1.984   1.747  0.0912  0.8438  1.2976
  810SOL     OW 2428   2.183   1.116   0.494 -0.0465 -0.8147  0.1364
  810SOL    HW1 2429   2.169   1.034   0.560 -0.7494  0.3928  2.0759
  810SOL    HW2 2430   2.146   1.209   0.536 -3.4173  2.3546 -0.9738
  811SOL     OW 2431   1.397   2.537   1.192 -0.4417  0.3831  0.0856
  811SOL    HW1 2432   1.397   2.444   1.235  2.8891 -0.0664 -1.6945
  811SOL    HW2 2433   1.351   2.614   1.242  0.4525  0.5581  1.6340
  812SOL     OW 2434   1.410   0.761   1.981 -0.3179  0.3509  0.0120
  812SOL    HW1 2435   1.316   0.724   1.957  1.2346 -0.8762 -1.8785
  812SOL    HW2 2436   1.422   0.867   1.974  1.9617  1.1051  0.2453
  813SOL     OW 2437   1.615   2.063   2.437 -0.3793 -0.0245 -0.0455
  813SOL    HW1 2438   1.678   1.986   2.467  0.9652 -0.6676 -2.0146
  813SOL    HW2 2439   1.587   2.052   2.336 -0.2611  0.7932  0.0120
  814SOL     OW 2440   2.994   1.597   2.847  0.5463  0.1547  0.1550
  814SOL    HW1 2441   3.057   1.584   2.925  0.9169 -0.9235  0.6486
  814SOL    HW2 2442   2.995   1.696   2.811 -1.9007  2.8478  2.6458
  815SOL     OW 2443   2.190   2.902   2.747  0.1216 -0.1658 -0.2512
  815SOL    HW1 2444   2.146   2.833   2.817  0.1650 -1.8469  0.3471
  815SOL    HW2 2445   2.279   2.943   2.780  3.0766 -2.5542 -0.2681
  816SOL     OW 2446   1.600   0.350   1.676 -0.3879 -0.3972 -0.1292
  816SOL    HW1 2447   1.637   0.252   1.695  1.0369 -0.5110  1.5951
  816SOL    HW2 2448   1.560   0.389   1.765  1.1572 -0.4888 -2.1862
  817SOL     OW 2449   0.397   1.187   2.661 -0.0361 -0.6652  0.2708
  817SOL    HW1 2450   0.332   1.215   2.736 -1.0522 -0.7229  1.4734
  817SOL    HW2 2451   0.416   1.259   2.585  0.8337  0.9762  0.1478
  818SOL     OW 2452   1.942   0.829   0.439  0.1854 -0.1019  0.2049
  818SOL    HW1 2453   2.044   0.807   0.434 -0.5827 -0.9157 -1.5318
  818SOL    HW2 2454   1.915   0.885   0.521 -0.8997  1.1155 -0.7615
  819SOL     OW 2455   2.760   2.951   3.097 -0.0902  0.3280 -0.6302
  819SOL    HW1 2456   2.773   2.887   3.174 -1.1449  0.8673 -1.4203
  819SOL    HW2 2457   2.716   2.911   3.013 -1.0319  3.4445 -1.7146
  820SOL     OW 2458   1.238   1.049   0.523  0.0217 -0.2147 -0.1588
  820SOL    HW1 2459   1.267   1.142   0.562  1.1456  0.6771 -1.1052
  820SOL    HW2 2460   1.240   0.973   0.591  4.9782  0.2549 -0.1341
  821SOL     OW 2461   0.046   1.263   0.717  0.3036 -0.2202 -0.0119
  821SOL    HW1 2462  -0.011   1.277   0.806 -0.3215 -0.1375  2.3069
  821SOL    HW2 2463   0.125   1.334   0.698 -1.4340 -1.6723 -0.9579
  822SOL     OW 2464   2.541   1.807   2.458 -0.3295 -0.2387  0.1753
  822SOL    HW1 2465   2.542   1.882   2.532 -0.2938  0.7109  1.2529
  822SOL    HW2 2466   2.463   1.820   2.391 -1.2157 -0.4404  0.8226
  823SOL     OW 2467   2.025   0.882   1.133 -0.5941 -0.0950  0.4959
  823SOL    HW1 2468   1.972   0.842   1.213  1.6507 -0.8145 -0.5155
  823SOL    HW2 2469   1.961   0.925   1.061 -1.5338 -0.3956 -3.2189
  824SOL     OW 2470   0.211   1.977   2.803  0.1246  0.0936 -0.3919
  824SOL    HW1 2471   0.271   1.934   2.871 -0.9153  3.0855 -0.1032
  824SOL    HW2 2472   0.237   1.948   2.708 -2.3948  1.6540  0.0633
  825SOL     OW 2473   1.316   1.034   0.262 -0.1133 -0.1754 -0.1820
  825SOL    HW1 2474   1.307   1.135   0.236  0.9126  2.7014 -0.8155
  825SOL    HW2 2475   1.288   1.025   0.360 -0.7261  0.2619 -2.3973
  826SOL     OW 2476   1.919   0.637   1.590  0.0108 -0.2043 -0.0128
  826SOL    HW1 2477   2.013   0.591   1.606 -0.6551 -2.4334 -0.1889
  826SOL    HW2 2478   1.850   0.570   1.545 -2.4132  0.5395  1.1815
  827SOL     OW 2479   0.645   1.227   0.298 -0.2229 -0.3711  0.0554
  827SOL    HW1 2480   0.702   1.181   0.224  0.2708  0.5436  1.9617
  827SOL    HW2 2481   0.573   1.162   0.340 -0.9838  0.9783 -1.6593
  828SOL     OW 2482   2.655   0.110   1.523  0.3622 -0.0001  0.3808
  828SOL    HW1 2483   2.561   0.088   1.475 -0.2242 -0.4275 -0.1640
  828SOL    HW2 2484   2.649   0.107   1.626  1.7443  1.1593 -0.1614
  829SOL     OW 2485   2.953   2.372   2.827 -0.1909 -0.1884 -0.1238
  829SOL    HW1 2486   2.871   2.349   2.888  0.8532  0.0390  0.2691
  829SOL    HW2 2487   2.963   2.471   2.796  1.0538 -2.1797 -0.3393
  830SOL     OW 2488   2.874   0.989   3.051  0.8107 -0.7596  0.3397
  830SOL    HW1 2489   2.908   1.044   3.132 -0.2482  0.1001 -1.2259
  830SOL    HW2 2490   2.877   0.891   3.074 -3.4019  1.6405  1.7559
  831SOL     OW 2491   0.063   0.555   0.432 -0.9418 -0.2799 -0.0522
  831SOL    HW1 2492   0.037   0.503   0.516  0.3277 -0.1789  0.6785
  831SOL    HW2 2493   0.084   0.493   0.352  0.2940  2.2339 -0.6379
  832SOL     OW 2494   1.830   0.783   3.035  0.2775 -0.1918  0.2582
  832SOL    HW1 2495   1.741   0.828   3.001 -0.5461 -0.8784  0.9294
  832SOL    HW2 2496   1.830   0.679   3.040 -2.7347 -0.1411  1.2729
  833SOL     OW 2497   2.413   2.062   0.466 -0.1928 -0.2290  0.0296
  833SOL    HW1 2498   2.321   2.034   0.430  0.4894  2.8898  0.7840
  833SOL    HW2 2499   2.482   1.989   0.481  1.6183 -1.9088  1.3755
  834SOL     OW 2500   0.136   0.107   0.533  0.5396 -0.3010  0.5042
  834SOL    HW1 2501   0.181   0.024   0.568 -1.8413 -0.5396  0.0869
  834SOL    HW2 2502   0.132   0.113   0.430 -0.2738 -0.8290  0.1379
  835SOL     OW 2503   2.403   1.514   1.154 -0.0491  0.2254  0.2331
  835SOL    HW1 2504   2.471   1.503   1.226  0.3166  0.0782 -1.6129
  835SOL    HW2 2505   2.441   1.498   1.055  1.8242  0.7776  1.8835
  836SOL     OW 2506   1.629   0.861   2.575 -0.1467 -0.5476 -0.2958
  836SOL    HW1 2507   1.534   0.820   2.587 -0.5865 -1.4970  0.0543
  836SOL    HW2 2508   1.646   0.883   2.475  0.4706  0.7851 -0.4928
  837SOL     OW 2509   1.632   0.049   0.575  0.1983 -0.1217  0.2724
  837SOL    HW1 2510   1.588   0.115   0.645 -2.6659 -1.0822  2.0951
  837SOL    HW2 2511   1.608   0.073   0.478  0.3904 -0.5195  1.7812
  838SOL     OW 2512   1.227   1.375   2.776 -0.0913 -0.3755 -0.3971
  838SOL    HW1 2513   1.202   1.461   2.826 -0.6049 -0.0322 -1.0011
  838SOL    HW2 2514   1.147   1.328   2.732  0.3367  2.2318 -0.5477
  839SOL     OW 2515   1.618   0.333   1.005 -0.8114  0.0804  0.5318
  839SOL    HW1 2516   1.662   0.380   1.087  0.2609  0.3828 -0.1295
  839SOL    HW2 2517   1.585   0.240   1.031  0.8001  0.6577  1.3991
  840SOL     OW 2518   2.551   2.907   1.785  0.4410  0.5657 -0.0932
  840SOL    HW1 2519   2.501   2.853   1.708 -0.2140  0.6481 -0.9439
  840SOL    HW2 2520   2.598   2.839   1.852  0.4018 -0.2526  1.3401
  841SOL     OW 2521   1.569   0.871   2.970 -0.3167 -0.0851 -0.2396
  841SOL    HW1 2522   1.578   0.883   3.072  0.4897 -1.7659 -1.5294
  841SOL    HW2 2523   1.543   0.957   2.919 -0.5146  2.6231  1.9953
  842SOL     OW 2524   0.809   1.533   1.006 -0.3094  0.0859 -0.0338
  842SOL    HW1 2525   0.785   1.629   1.036  2.7667 -1.6709 -0.5506
  842SOL    HW2 2526   0.759   1.504   0.922  2.1160  1.9201  0.1074
  843SOL     OW 2527   0.128   0.111   1.468 -0.0884  0.2378 -0.2077
  843SOL    HW1 2528   0.198   0.171   1.524  0.7892  2.4420 -1.4163
  843SOL    HW2 2529   0.165   0.017   1.442  0.3666  1.1949 -0.0538
  844SOL     OW 2530   0.784   2.483   0.279  0.0397 -0.1269 -0.4744
  844SOL    HW1 2531   0.736   2.463   0.371 -1.3758  0.8145 -1.6712
  844SOL    HW2 2532   0.719   2.482   0.199  0.2681  1.6503  1.6260
  845SOL     OW 2533   1.677   2.933   1.367 -0.0248  0.8186 -0.2346
  845SOL    HW1 2534   1.709   2.942   1.468  0.0458  0.3386 -1.2212
  845SOL    HW2 2535   1.644   3.022   1.322  0.8892  2.0437  0.2440
  846SOL     OW 2536   1.689   2.961   0.906  0.1701 -0.2217  0.2753
  846SOL    HW1 2537   1.653   2.959   0.809  0.1986 -1.7331  0.9567
  846SOL    HW2 2538   1.791   2.949   0.913  2.1859  0.1369 -1.7987
  847SOL     OW 2539   2.045   1.644   0.232  0.4642 -0.4819 -0.3551
  847SOL    HW1 2540   2.015   1.587   0.317 -1.0943  0.0584  1.8030
  847SOL    HW2 2541   1.976   1.636   0.159  2.0143  1.8281  0.5503
  848SOL     OW 2542   2.465   0.806   2.669  0.0665  1.2934  0.3257
  848SOL    HW1 2543   2.472   0.910   2.668  0.2154 -0.8797  0.4244
  848SOL    HW2 2544   2.390   0.765   2.603 -0.7967 -1.9415 -1.6911
  849SOL     OW 2545   2.452   0.858   2.298 -0.5094 -0.3300 -0.2225
  849SOL    HW1 2546   2.503   0.805   2.227  0.5981  0.0132  0.4753
  849SOL    HW2 2547   2.413   0.795   2.373  3.5217 -2.3079  2.4047
  850SOL     OW 2548   1.573   0.062   1.307  0.5142 -0.4174 -0.8766
  850SOL    HW1 2549   1.587   0.079   1.207  0.2031  2.4218 -0.2887
  850SOL    HW2 2550   1.479   0.035   1.332  1.0104 -2.5952  1.3237
  851SOL     OW 2551   0.454   1.712   0.695 -0.1553  0.3476 -0.2820
  851SOL    HW1 2552   0.463   1.809   0.656  3.5828  0.8638  1.5478
  851SOL    HW2 2553   0.547   1.682   0.738 -1.1165 -3.3079  2.4028
  852SOL     OW 2554   0.804   2.125   1.650  0.1193  0.2321 -0.3149
  852SOL    HW1 2555   0.794   2.222   1.614 -0.8128 -2.0476  2.7277
  852SOL    HW2 2556   0.752   2.115   1.743 -0.6809 -2.4576  1.8889
  853SOL     OW 2557   2.513   1.564   2.607  0.7038  0.0484 -0.3986
  853SOL    HW1 2558   2.455   1.480   2.570 -0.9631  0.1520 -0.5182
  853SOL    HW2 2559   2.518   1.645   2.544 -0.7991 -0.2797 -0.0782
  854SOL     OW 2560   2.494   1.400   1.796 -0.3822  0.3550 -0.2952
  854SOL    HW1 2561   2.506   1.376   1.695 -0.5639 -0.4335 -1.9480
  854SOL    HW2 2562   2.505   1.314   1.851 -1.2904  0.0087  0.1067
  855SOL     OW 2563   2.068   2.330   0.962 -0.1467  0.0669 -0.8598
  855SOL    HW1 2564   2.115   2.411   0.910  2.2327 -1.0477  0.5942
  855SOL    HW2 2565   2.106   2.317   1.059 -0.0348  1.0703 -0.9667
  856SOL     OW 2566   1.387   1.385   0.916 -0.0215 -0.4740  0.4054
  856SOL    HW1 2567   1.410   1.478   0.952  1.4189  1.3936 -0.8130
  856SOL    HW2 2568   1.295   1.358   0.951  2.4998  0.6978 -0.2885
  857SOL     OW 2569   2.994   2.599   1.093 -0.3971  0.2283 -0.0599
  857SOL    HW1 2570   2.907   2.538   1.088 -3.0753 -1.6316 -1.8820
  857SOL    HW2 2571   3.075   2.552   1.051 -0.4979  0.8635 -1.3975
  858SOL     OW 2572   2.310   2.169   1.699 -0.1254  0.1957 -0.0166
  858SOL    HW1 2573   2.206   2.166   1.718  0.2445 -0.8513  1.5892
  858SOL    HW2 2574   2.354   2.089   1.653  1.0094 -1.1902  1.9277
  859SOL     OW 2575   2.435   0.508   1.060  0.1316 -0.0722 -0.1746
  859SOL    HW1 2576   2.512   0.525   0.992 -0.8735 -1.3564 -0.2551
  859SOL    HW2 2577   2.452   0.432   1.129  1.8209 -4.2732  2.2976
  860SOL     OW 2578   1.925   2.779   0.437  0.2198 -0.5394  0.5965
  860SOL    HW1 2579   1.896   2.751   0.343 -0.3797  1.7572  0.0354
  860SOL    HW2 2580   1.992   2.862   0.434 -1.0820  1.6534 -2.3921
  861SOL     OW 2581   1.120   2.600   2.785 -0.1382 -0.0723 -0.2581
  861SOL    HW1 2582   1.140   2.695   2.748 -0.3855  3.6252  0.8745
  861SOL    HW2 2583   1.150   2.587   2.884  3.4598  0.2508 -0.1171
  862SOL     OW 2584   2.897   2.496   1.613  0.6097  0.0410  0.1617
  862SOL    HW1 2585   2.961   2.541   1.685 -0.6053  0.0883 -3.7418
  862SOL    HW2 2586   2.863   2.574   1.546 -1.5999  2.3730  0.6492
  863SOL     OW 2587   1.862   2.662   0.211  0.4796 -1.2248  0.0520
  863SOL    HW1 2588   1.911   2.572   0.190 -1.8331  1.0435 -0.1591
  863SOL    HW2 2589   1.758   2.653   0.225  0.0724 -4.1140  1.8609
  864SOL     OW 2590   1.858   1.165   2.931 -1.1508  0.2762 -0.0925
  864SOL    HW1 2591   1.887   1.176   2.832 -0.1318  1.1743 -2.8901
  864SOL    HW2 2592   1.942   1.143   2.986 -2.0038  0.3517 -1.4016
  865SOL     OW 2593   2.208   1.839   0.680  0.1310 -0.7897  0.2301
  865SOL    HW1 2594   2.237   1.854   0.777 -0.7445 -0.9345  0.4885
  865SOL    HW2 2595   2.114   1.807   0.680  1.4212 -0.8773  0.7609
  866SOL     OW 2596   2.935   2.905   0.978 -0.4263  0.0213 -0.0379
  866SOL    HW1 2597   2.994   2.933   0.899  0.9685  0.7356  0.6203
  866SOL    HW2 2598   2.962   2.812   1.013 -1.4092  1.2786 -0.3143
  867SOL     OW 2599   0.381   1.346   0.902  0.3234  0.0688 -0.4448
  867SOL    HW1 2600   0.407   1.266   0.843 -2.4624  0.4861 -0.0488
  867SOL    HW2 2601   0.288   1.388   0.877  0.9730  0.8033  0.3818
  868SOL     OW 2602   0.780   1.923   2.031  0.4776  0.4582 -0.2383
  868SOL    HW1 2603   0.752   1.873   2.120 -1.9597 -1.5564  0.4520
  868SOL    HW2 2604   0.743   2.014   2.022 -1.3566 -2.4553 -0.3444
  869SOL     OW 2605   2.491   1.925   1.601 -0.6496  0.2675 -0.3474
  869SOL    HW1 2606   2.573   1.984   1.573  0.2082  0.8619  1.0924
  869SOL    HW2 2607   2.483   1.841   1.541  1.9649 -1.2672 -0.1860
  870SOL     OW 2608   2.272   2.600   1.251 -0.1677 -0.2066 -0.2031
  870SOL    HW1 2609   2.266   2.509   1.208 -1.9526  0.9534  1.1114
  870SOL    HW2 2610   2.221   2.602   1.342  1.4328 -0.5518 -1.7753
  871SOL     OW 2611   2.996   2.095   0.573 -0.1025 -0.1754 -0.1638
  871SOL    HW1 2612   2.935   2.148   0.633 -0.4521 -0.3631 -3.5485
  871SOL    HW2 2613   2.946   2.061   0.487 -1.4807  3.2733  0.1759
  872SOL     OW 2614   2.135   0.477   1.699  0.0667  0.0672  0.1537
  872SOL    HW1 2615   2.100   0.476   1.797  0.5841  2.1148  0.9574
  872SOL    HW2 2616   2.238   0.468   1.700 -0.1209  2.6519  1.4752
  873SOL     OW 2617   1.723   2.089   2.968 -0.2375 -0.0219 -0.4744
  873SOL    HW1 2618   1.701   2.178   3.011 -1.4792 -0.9096  1.0531
  873SOL    HW2 2619   1.652   2.070   2.893 -0.8950  1.7351 -0.9538
  874SOL     OW 2620   0.624   2.463   0.788  0.4379 -0.3399  0.0647
  874SOL    HW1 2621   0.601   2.562   0.810 -0.2318  1.4049 -1.6860
  874SOL    HW2 2622   0.724   2.441   0.800 -1.6403  0.6152 -2.6940
  875SOL     OW 2623   2.268   1.483   1.440 -0.5180  0.8658  0.1653
  875SOL    HW1 2624   2.360   1.522   1.460 -1.2175 -0.8693  1.4452
  875SOL    HW2 2625   2.214   1.536   1.373 -1.7657  0.1653 -1.1290
  876SOL     OW 2626   0.114   2.244   2.704  0.5251 -0.8071 -0.4979
  876SOL    HW1 2627   0.157   2.167   2.756  0.4967  0.1073 -0.8867
  876SOL    HW2 2628   0.127   2.333   2.758  1.7697  2.7779 -1.3751
  877SOL     OW 2629   2.802   2.678   0.639 -0.5159 -0.0385  0.8211
  877SOL    HW1 2630   2.815   2.772   0.673  0.3501 -0.8774 -1.7567
  877SOL    HW2 2631   2.845   2.602   0.701  2.7534 -2.3028  3.3822
  878SOL     OW 2632   2.859   1.528   2.212  0.4103 -1.0622  0.5752
  878SOL    HW1 2633   2.959   1.549   2.218 -1.2893 -1.0390  0.0629
  878SOL    HW2 2634   2.811   1.569   2.293  1.2887 -0.3659 -0.0183
  879SOL     OW 2635   2.394   0.040   1.157 -0.3031  0.1756  0.4122
  879SOL    HW1 2636   2.439  -0.056   1.176  1.0636 -0.9475  0.5204
  879SOL    HW2 2637   2.314   0.025   1.088 -0.2577 -2.3624  0.1946
  880SOL     OW 2638   0.701   0.465   2.205  0.3948  0.4805  0.2339
  880SOL    HW1 2639   0.631   0.393   2.240  0.3796  0.7454 -1.2013
  880SOL    HW2 2640   0.765   0.421   2.131 -2.3737  2.4302  0.7295
  881SOL     OW 2641   0.910   0.053   0.478 -0.7304 -0.0848 -0.5422
  881SOL    HW1 2642   0.945  -0.045   0.498 -0.2084 -1.4090 -1.1248
  881SOL    HW2 2643   0.841   0.062   0.404  2.9564  0.0925 -0.2495
  882SOL     OW 2644   2.689   1.619   1.667 -0.3455 -0.3633  0.5433
  882SOL    HW1 2645   2.782   1.588   1.633  2.1305  0.1529 -2.1039
  882SOL    HW2 2646   2.703   1.679   1.751 -0.2857  0.0064 -2.1523
  883SOL     OW 2647   0.934   0.587   0.938  0.3344 -0.0162  0.1408
  883SOL    HW1 2648   0.976   0.670   0.986 -0.3217 -0.9528 -0.3011
  883SOL    HW2 2649   0.937   0.505   0.994  0.0051  1.4160 -1.7651
  884SOL     OW 2650   1.188   1.821   1.079  0.3555  0.1693  0.0636
  884SOL    HW1 2651   1.142   1.761   1.002 -0.2882  1.7684  2.1066
  884SOL    HW2 2652   1.150   1.918   1.081  0.6289 -0.4428 -2.6340
  885SOL     OW 2653   2.310   1.844   2.292 -0.1499  0.4587 -0.3234
  885SOL    HW1 2654   2.236   1.785   2.333  3.6301  2.3289 -0.7874
  885SOL    HW2 2655   2.293   1.945   2.296 -1.2989 -0.6111  0.3560
  886SOL     OW 2656   2.638   0.464   1.780 -0.0203 -0.0873 -0.2462
  886SOL    HW1 2657   2.678   0.395   1.848  2.9165 -0.3646 -0.3587
  886SOL    HW2 2658   2.717   0.525   1.742  0.2499 -0.5764 -0.9968
  887SOL     OW 2659   0.141   2.068   1.213 -0.3520  0.2669  0.2010
  887SOL    HW1 2660   0.055   2.035   1.174  3.0272  0.0657  0.9835
  887SOL    HW2 2661   0.148   2.172   1.223 -2.0776  0.0693  0.1735
  888SOL     OW 2662   0.560   1.350   1.553 -0.2299 -0.3069 -0.3417
  888SOL    HW1 2663   0.600   1.363   1.455  1.3295  2.4887 -0.5109
  888SOL    HW2 2664   0.502   1.263   1.555  1.5730 -0.9995 -2.1463
  889SOL     OW 2665   0.816   2.500   2.162  0.1720 -0.4215  0.1513
  889SOL    HW1 2666   0.764   2.417   2.185  1.9053  0.9985 -1.8844
  889SOL    HW2 2667   0.880   2.499   2.084  0.3427 -1.7175  2.5552
  890SOL     OW 2668   2.358   2.466   0.189  0.3197 -0.1138 -0.0115
  890SOL    HW1 2669   2.373   2.543   0.125 -3.1588 -1.6537  0.2074
  890SOL    HW2 2670   2.301   2.497   0.269 -0.1858 -1.4049 -0.5646
  891SOL     OW 2671   2.652   1.544   0.696 -0.1386 -0.6212 -0.7134
  891SOL    HW1 2672   2.688   1.534   0.791  0.4549 -0.9152 -1.9351
  891SOL    HW2 2673   2.550   1.529   0.698  2.5690 -0.9603  1.1306
  892SOL     OW 2674   0.293   0.222   2.177 -0.7215 -0.1980  0.5985
  892SOL    HW1 2675   0.314   0.256   2.082  0.2855 -0.2559  0.0492
  892SOL    HW2 2676   0.375   0.228   2.242  0.1093  0.7872  0.8858
  893SOL     OW 2677   1.635   0.231   2.774 -0.1011  0.2611  0.4359
  893SOL    HW1 2678   1.722   0.287   2.774 -0.0602 -0.9472 -0.5332
  893SOL    HW2 2679   1.548   0.286   2.771  1.3183 -0.1157 -4.2032
  894SOL     OW 2680   2.270   2.023   0.026 -0.1639  0.0714 -0.0304
  894SOL    HW1 2681   2.245   1.960  -0.050 -0.2572  4.1941  0.9432
  894SOL    HW2 2682   2.285   1.965   0.114  1.8037 -1.0634  0.9465
  895SOL     OW 2683   2.861   1.455   0.862 -0.3987 -0.4495  0.2031
  895SOL    HW1 2684   2.897   1.393   0.939 -0.6118  2.9978  0.0811
  895SOL    HW2 2685   2.932   1.518   0.820  1.5629 -3.2662 -3.2427
  896SOL     OW 2686   1.798   1.796   1.155 -0.3914 -0.3241 -0.1629
  896SOL    HW1 2687   1.866   1.822   1.080 -2.3377  0.5394 -1.7343
  896SOL    HW2 2688   1.708   1.843   1.140  1.4316 -1.4306  0.0986
  897SOL     OW 2689   0.269   0.543   3.041 -0.0938  0.2393 -0.2932
  897SOL    HW1 2690   0.214   0.619   3.001  3.5983  2.4623  0.8494
  897SOL    HW2 2691   0.362   0.585   3.066 -1.9656  1.7258 -0.9697
  898SOL     OW 2692   0.600   2.828   1.106  0.1328  0.2330  0.1022
  898SOL    HW1 2693   0.548   2.913   1.138 -0.7103 -1.6866  2.3484
  898SOL    HW2 2694   0.694   2.817   1.143 -0.2128 -1.0009 -1.0659
  899SOL     OW 2695   2.732   0.911   1.226  0.5150  0.5007  0.4056
  899SOL    HW1 2696   2.663   0.860   1.165  0.0421 -1.0335 -1.7189
  899SOL    HW2 2697   2.824   0.918   1.174  1.7931  1.2236 -1.7682
  900SOL     OW 2698   0.984   2.585   2.361 -0.3860 -0.1793 -0.0147
  900SOL    HW1 2699   0.927   2.558   2.274 -0.3440 -1.5713  0.2914
  900SOL    HW2 2700   0.931   2.571   2.449 -0.2887 -0.8462 -0.1047
  901SOL     OW 2701   1.879   2.363   1.375  0.7157  0.4391 -0.0421
  901SOL    HW1 2702   1.872   2.396   1.277 -0.8305 -0.6583  2.3951
  901SOL    HW2 2703   1.964   2.311   1.403 -1.9600  0.3419  0.3269
  902SOL     OW 2704   2.569   1.659   1.434  0.6915 -0.1063 -0.1982
  902SOL    HW1 2705   2.596   1.636   1.534 -1.6147  0.5547 -0.5366
  902SOL    HW2 2706   2.644   1.629   1.367  0.7457  0.5850 -0.8320
  903SOL     OW 2707   0.235   2.468   1.997  0.3401  0.0250  0.0892
  903SOL    HW1 2708   0.173   2.396   1.949 -0.2883  0.6211  0.9586
  903SOL    HW2 2709   0.243   2.550   1.931 -0.9096  1.2535 -2.1233
  904SOL     OW 2710   2.034   0.708   2.389 -0.3917  0.6545 -0.5077
  904SOL    HW1 2711   1.971   0.720   2.468 -1.0366 -1.0071 -0.3677
  904SOL    HW2 2712   1.982   0.718   2.297 -3.1734 -1.2227 -0.8348
  905SOL     OW 2713   2.813   0.076   2.595  0.0568  0.0801 -0.1279
  905SOL    HW1 2714   2.885   0.005   2.619  0.3754 -1.0967 -2.2880
  905SOL    HW2 2715   2.851   0.149   2.535 -2.5032  0.5237  1.1614
  906SOL     OW 2716   0.147   1.766   1.880 -0.1210 -0.3339  0.0086
  906SOL    HW1 2717   0.089   1.753   1.797  2.4406 -2.3901  0.2809
  906SOL    HW2 2718   0.244   1.785   1.856  0.7506 -1.6624 -0.2960
  907SOL     OW 2719   0.131   2.483   1.015  0.1991 -0.2518 -0.2739
  907SOL    HW1 2720   0.198   2.565   1.001  1.9876  0.7575  1.3270
  907SOL    HW2 2721   0.121   2.433   0.920  2.9412 -0.9486 -2.3259
  908SOL     OW 2722   2.704   2.952   0.437  0.3506  0.3808  0.4650
  908SOL    HW1 2723   2.685   2.985   0.344  0.3726 -0.6674 -0.2950
  908SOL    HW2 2724   2.722   2.850   0.431 -0.7399 -0.0307  1.8027
  909SOL     OW 2725   0.787   0.962   2.696  0.1468 -0.5350 -0.1300
  909SOL    HW1 2726   0.711   0.913   2.643 -2.1312  1.0848  1.1548
  909SOL    HW2 2727   0.877   0.964   2.639 -1.6398  0.2179 -2.4813
  910SOL     OW 2728   1.755   1.845   2.110 -0.1635 -0.0541 -0.3634
  910SOL    HW1 2729   1.819   1.887   2.042 -0.1840  0.4346 -1.1736
  910SOL    HW2 2730   1.684   1.913   2.143 -1.5734  0.3457 -0.6801
  911SOL     OW 2731   1.814   2.946   1.618 -0.6645  0.1578  0.4677
  911SOL    HW1 2732   1.916   2.926   1.598 -0.4525 -0.3821  0.0447
  911SOL    HW2 2733   1.771   2.891   1.694 -0.3542  2.4536 -0.0136
  912SOL     OW 2734   2.898   0.970   0.757 -0.1561  0.1382  0.3082
  912SOL    HW1 2735   2.906   0.934   0.856  0.1649 -2.6303  0.1294
  912SOL    HW2 2736   2.868   1.069   0.750 -1.1440 -0.6558  0.6155
  913SOL     OW 2737   2.574   1.273   1.561  0.0547 -0.2488  0.2111
  913SOL    HW1 2738   2.570   1.171   1.543  0.2622  2.4142  1.0029
  913SOL    HW2 2739   2.626   1.318   1.482 -0.6419  0.5682 -2.5610
  914SOL     OW 2740   2.800   0.521   1.187 -0.0584  0.0748 -0.1976
  914SOL    HW1 2741   2.799   0.420   1.215  2.9677  2.5261 -1.5293
  914SOL    HW2 2742   2.798   0.594   1.264 -2.6171  0.9196  0.7409
  915SOL     OW 2743   1.254   0.790   1.010  0.2512 -0.1501 -0.6846
  915SOL    HW1 2744   1.338   0.817   1.068  0.1915  2.9608  1.8572
  915SOL    HW2 2745   1.165   0.830   1.049  0.0507  0.5310 -0.0289
  916SOL     OW 2746   0.600   0.034   0.670  0.1788 -0.2159  0.1853
  916SOL    HW1 2747   0.636   0.087   0.754 -1.5234  0.4559  0.9438
  916SOL    HW2 2748   0.641   0.067   0.578 -1.6995  0.8304 -0.6441
  917SOL     OW 2749   2.813   2.608   1.980 -0.2810  0.0091  0.1370
  917SOL    HW1 2750   2.709   2.619   1.971  1.8613 -1.8268  1.8159
  917SOL    HW2 2751   2.866   2.686   1.942 -1.7379 -1.5313 -0.3463
  918SOL     OW 2752   1.038   2.215   3.005  0.0055  0.1874  0.1032
  918SOL    HW1 2753   0.990   2.226   3.098 -0.1438 -2.7235 -0.6806
  918SOL    HW2 2754   1.077   2.119   2.992 -1.6960 -0.8887 -0.6301
  919SOL     OW 2755   0.893   1.609   2.819  0.2127 -0.2047 -0.2868
  919SOL    HW1 2756   0.932   1.696   2.776 -0.5357  0.6090  2.4006
  919SOL    HW2 2757   0.853   1.544   2.746  2.1321 -0.0883 -2.0652
  920SOL     OW 2758   1.267   1.969   2.472  0.3436  0.3396 -0.0751
  920SOL    HW1 2759   1.257   1.966   2.368 -0.5015  2.9496 -0.4763
  920SOL    HW2 2760   1.264   1.871   2.513  0.6754 -2.7147  0.0833
  921SOL     OW 2761   1.108   0.058   2.604 -0.2501  0.3122  0.3063
  921SOL    HW1 2762   1.098   0.060   2.498  0.3631 -0.8031 -2.5635
  921SOL    HW2 2763   1.021   0.029   2.655 -0.2320  3.1386 -0.9601
  922SOL     OW 2764   2.140   2.411   2.901 -0.0537 -0.4561 -0.0007
  922SOL    HW1 2765   2.160   2.309   2.892 -2.4529  1.7472 -0.7027
  922SOL    HW2 2766   2.078   2.441   2.821  3.0408  0.4010  0.2780
  923SOL     OW 2767   1.225   2.689   0.263  0.1196 -0.1425 -0.1671
  923SOL    HW1 2768   1.301   2.739   0.313 -2.6941 -0.0664  0.2584
  923SOL    HW2 2769   1.244   2.586   0.263  3.2917 -0.2334  0.2634
  924SOL     OW 2770   2.859   1.553   0.083  0.1910  0.2454  0.1845
  924SOL    HW1 2771   2.781   1.536   0.014  0.3404  1.4193  0.4915
  924SOL    HW2 2772   2.951   1.530   0.044 -2.3535  0.9013  0.0052
  925SOL     OW 2773   3.101   2.930   1.521  0.0771 -0.6224 -0.0438
  925SOL    HW1 2774   3.002   2.959   1.530 -2.6294 -0.8212  0.9413
  925SOL    HW2 2775   3.117   2.879   1.431 -0.1138 -1.5629  0.7897
  926SOL     OW 2776   1.353   2.833   1.302 -0.0367  0.0412  0.0715
  926SOL    HW1 2777   1.414   2.831   1.218  0.4257 -0.2813  2.7674
  926SOL    HW2 2778   1.346   2.928   1.341  2.5432 -0.9392 -0.3806
  927SOL     OW 2779   0.297   2.651   1.792 -0.4544 -0.2744  0.2612
  927SOL    HW1 2780   0.281   2.576   1.725  0.7551 -0.9797  1.5441
  927SOL    HW2 2781   0.259   2.746   1.765  0.6041  0.1067  0.9435
  928SOL     OW 2782   1.563   2.020   2.173  0.2221 -0.0953 -0.6865
  928SOL    HW1 2783   1.605   2.105   2.138  2.5589  1.5454 -0.1846
  928SOL    HW2 2784   1.463   2.007   2.150  0.5111 -0.8430 -0.8623
  929SOL     OW 2785   2.429   2.470   2.869 -0.2230  0.5243 -0.7282
  929SOL    HW1 2786   2.331   2.443   2.890 -0.4494 -0.1245 -1.3421
  929SOL    HW2 2787   2.456   2.460   2.771  0.8358 -1.4240  3.1580
  930SOL     OW 2788   2.185   1.985   1.063 -0.3720  0.1633  0.1063
  930SOL    HW1 2789   2.156   1.955   1.160  1.1178  1.5388  3.4767
  930SOL    HW2 2790   2.240   2.073   1.069  0.2498  0.2451 -0.2977
  931SOL     OW 2791   0.537   1.707   2.696 -0.3284  0.1867 -0.3220
  931SOL    HW1 2792   0.567   1.732   2.795  2.6972  2.0156  1.7345
  931SOL    HW2 2793   0.589   1.622   2.660  4.9889 -1.9978  0.3211
  932SOL     OW 2794   0.435   0.037   2.914  0.2047 -0.2624 -0.3110
  932SOL    HW1 2795   0.534   0.064   2.893 -1.7974 -0.5917 -1.2033
  932SOL    HW2 2796   0.436  -0.041   2.978 -1.1653 -0.5020 -0.3254
  933SOL     OW 2797   1.067   0.728   3.012 -0.0177  0.2550 -0.7282
  933SOL    HW1 2798   1.145   0.725   3.080  0.6296  1.3360 -1.4117
  933SOL    HW2 2799   1.039   0.826   2.993  1.5166 -0.4528 -1.1396
  934SOL     OW 2800   0.883   2.990   2.677  0.3026  0.4901  0.2212
  934SOL    HW1 2801   0.876   2.913   2.602  0.4439  0.2764  1.8163
  934SOL    HW2 2802   0.923   2.963   2.772 -1.0749  2.1759  2.3991
  935SOL     OW 2803   3.090   0.555   0.813  0.4605 -0.0745 -0.2557
  935SOL    HW1 2804   3.073   0.497   0.730  1.0461  1.7745  0.1865
  935SOL    HW2 2805   3.003   0.606   0.841 -3.1071  1.6900 -2.8665
  936SOL     OW 2806   1.108   2.917   0.138  0.5767 -0.2932  0.2964
  936SOL    HW1 2807   1.153   2.945   0.049 -0.1006 -1.4399 -2.0827
  936SOL    HW2 2808   1.158   2.838   0.190 -1.9936  2.2901  2.8461
  937SOL     OW 2809   1.939   2.662   2.091 -0.6545 -0.2738  0.3996
  937SOL    HW1 2810   1.840   2.695   2.113 -0.7863 -0.3755  0.1930
  937SOL    HW2 2811   1.972   2.666   1.994  0.1861 -1.8575 -1.4152
  938SOL     OW 2812   2.713   2.069   1.538  0.1339  0.4786  1.3053
  938SOL    HW1 2813   2.716   2.170   1.563  2.4546 -1.8217 -0.2892
  938SOL    HW2 2814   2.791   2.024   1.585 -0.1118  0.8965  0.4944
  939SOL     OW 2815   2.859   1.224   2.464  0.4592  0.2752  0.2108
  939SOL    HW1 2816   2.903   1.203   2.371 -2.7332 -0.3884 -0.7680
  939SOL    HW2 2817   2.902   1.169   2.542 -0.5479 -0.4948  0.6479
  940SOL     OW 2818   0.987   0.451   2.694  0.2391 -0.3824  0.2036
  940SOL    HW1 2819   1.060   0.380   2.703  2.3307  0.5074  0.4954
  940SOL    HW2 2820   0.892   0.422   2.670 -2.3536  4.1714  0.4186
  941SOL     OW 2821   0.061   2.834   2.205 -0.2892  0.5720 -0.1917
  941SOL    HW1 2822   0.084   2.727   2.217 -0.1614  0.6782  3.2673
  941SOL    HW2 2823   0.121   2.887   2.267 -1.2773 -2.8313 -1.6201
  942SOL     OW 2824   0.053   0.127   2.519 -0.6273  0.0268  0.3400
  942SOL    HW1 2825   0.077   0.196   2.594  1.7443 -0.3646  1.9746
  942SOL    HW2 2826   0.021   0.177   2.435  0.4783  1.6033 -0.5601
  943SOL     OW 2827   2.138   1.647   2.374 -0.1369 -0.1069  0.9526
  943SOL    HW1 2828   2.110   1.590   2.287 -0.9625  0.6862  1.4653
  943SOL    HW2 2829   2.103   1.612   2.469 -2.3806 -0.8689  2.6435
  944SOL     OW 2830   2.161   2.325   1.452  0.2569 -0.4424  0.2668
  944SOL    HW1 2831   2.229   2.397   1.487  0.8289  1.1076  1.0616
  944SOL    HW2 2832   2.125   2.259   1.524 -1.3071 -0.8608 -0.5581
  945SOL     OW 2833   0.651   1.510   0.324 -0.2725 -0.0327  1.0069
  945SOL    HW1 2834   0.713   1.542   0.245  2.1612  0.9641  0.0405
  945SOL    HW2 2835   0.658   1.404   0.332 -0.0468 -1.8127  3.3006
  946SOL     OW 2836   0.428   0.933   2.537  0.5242  0.3795  0.4443
  946SOL    HW1 2837   0.339   0.913   2.485 -0.4673 -2.2900 -1.0120
  946SOL    HW2 2838   0.428   1.021   2.589  0.4781 -2.5367  3.1507
  947SOL     OW 2839   1.547   0.557   0.072 -0.2300  0.3760 -0.5014
  947SOL    HW1 2840   1.510   0.594  -0.021 -1.3352 -1.8535  0.7988
  947SOL    HW2 2841   1.468   0.524   0.129 -2.2972  2.0661  2.4726
  948SOL     OW 2842   2.017   3.068   2.177  0.4449 -0.2903 -0.2673
  948SOL    HW1 2843   2.037   3.039   2.077 -0.4785 -0.6419  1.2513
  948SOL    HW2 2844   1.982   2.991   2.235 -1.1796 -1.0408 -2.9650
  949SOL     OW 2845   0.647   2.506   0.521  0.5586  0.2869 -0.6691
  949SOL    HW1 2846   0.621   2.603   0.496 -1.1134 -2.1993  2.2108
  949SOL    HW2 2847   0.645   2.480   0.620 -0.9431  0.1953 -4.6906
  950SOL     OW 2848   0.220   2.150   3.053  0.1227  0.0424  0.0164
  950SOL    HW1 2849   0.148   2.228   3.057 -1.8554 -0.5919  1.4330
  950SOL    HW2 2850   0.203   2.070   2.988  2.2661 -0.3925 -2.6382
  951SOL     OW 2851   1.188   2.843   2.668  0.3411  0.5078  0.2808
  951SOL    HW1 2852   1.176   2.914   2.596  1.1322 -0.6344  1.5512
  951SOL    HW2 2853   1.271   2.862   2.722 -1.0900  1.9573  3.4559
  952SOL     OW 2854   0.112   1.639   0.441 -0.2955 -0.0876 -0.5818
  952SOL    HW1 2855   0.148   1.730   0.456  0.3818 -4.0412  1.7967
  952SOL    HW2 2856   0.145   1.576   0.518  2.0247  1.3568  1.9642
  953SOL     OW 2857   2.487   1.767   0.194 -0.4980  0.5068 -0.6861
  953SOL    HW1 2858   2.499   1.666   0.190  0.5369  1.1761  4.2808
  953SOL    HW2 2859   2.523   1.818   0.108  0.9809  0.2477 -2.8500
  954SOL     OW 2860   2.185   0.531   0.976 -0.3477 -0.0381  0.3495
  954SOL    HW1 2861   2.191   0.566   0.880  1.0311 -0.0307  1.3947
  954SOL    HW2 2862   2.280   0.503   1.014  1.6125 -1.1517  1.1488
  955SOL     OW 2863   0.242   2.645   1.361  0.4170  0.0874  0.6434
  955SOL    HW1 2864   0.140   2.673   1.361 -1.4601  1.3541  1.1139
  955SOL    HW2 2865   0.279   2.636   1.268 -0.8113  1.9084  1.3388
  956SOL     OW 2866   2.776   2.445   2.432  0.1448 -0.5019 -0.5247
  956SOL    HW1 2867   2.787   2.341   2.423  0.4288  1.9612  0.6698
  956SOL    HW2 2868   2.837   2.503   2.375  2.6117  1.9524  1.6356
  957SOL     OW 2869   1.535   2.033   2.739  0.0404  0.0043  0.4848
  957SOL    HW1 2870   1.506   1.931   2.754 -0.0157 -1.5011 -0.0106
  957SOL    HW2 2871   1.560   2.060   2.640 -0.7579  1.6691  1.4726
  958SOL     OW 2872   2.702   2.329   2.954  0.8245 -0.7291 -0.2094
  958SOL    HW1 2873   2.610   2.378   2.939  0.6962  0.7270  0.0609
  958SOL    HW2 2874   2.704   2.293   3.054 -0.2607  1.4314  0.8787
  959SOL     OW 2875   0.259   2.758   0.105 -0.2497 -0.1609  0.6072
  959SOL    HW1 2876   0.162   2.766   0.077  1.1994 -1.4062 -0.9144
  959SOL    HW2 2877   0.271   2.686   0.181  0.4178  1.3509 -0.4514
  960SOL     OW 2878   1.991   0.426   1.922  0.2622 -0.3348 -0.0366
  960SOL    HW1 2879   1.924   0.501   1.902  0.5459  0.1203  0.9400
  960SOL    HW2 2880   2.010   0.424   2.027  0.1758  0.8296  1.4197
  961SOL     OW 2881   2.549   1.846   1.023  0.0273 -0.2956  0.2508
  961SOL    HW1 2882   2.549   1.932   0.962  0.0704 -1.1521 -0.9114
  961SOL    HW2 2883   2.533   1.864   1.125 -0.7647 -2.6764  1.3110
  962SOL     OW 2884   1.249   0.898   0.044  0.0867  0.1184  0.3001
  962SOL    HW1 2885   1.259   0.954  -0.044 -0.1567  1.7129  0.8744
  962SOL    HW2 2886   1.278   0.953   0.130  0.3433 -0.7665  0.5542
  963SOL     OW 2887   2.195   2.563   1.849  0.2069 -0.0398 -0.5762
  963SOL    HW1 2888   2.208   2.485   1.910  1.2951  1.6001 -2.4624
  963SOL    HW2 2889   2.220   2.649   1.902 -2.0047 -0.2497  0.0691
  964SOL     OW 2890   2.407   0.395   1.661 -0.0663  0.1015  0.0843
  964SOL    HW1 2891   2.500   0.432   1.685  0.6747  3.2591  0.1538
  964SOL    HW2 2892   2.377   0.418   1.566  1.2769 -0.3935  0.1342
  965SOL     OW 2893   2.581   3.092   0.202  0.0558  0.6230  0.9140
  965SOL    HW1 2894   2.668   3.073   0.140  1.8880 -1.7931 -1.6137
  965SOL    HW2 2895   2.493   3.049   0.165  1.5841 -2.3090  2.0389
  966SOL     OW 2896   2.465   2.469   2.237 -0.0971 -0.1155  0.4508
  966SOL    HW1 2897   2.386   2.503   2.297 -0.9961  0.1163  0.7564
  966SOL    HW2 2898   2.499   2.540   2.172  0.6149 -0.9223  3.8676
  967SOL     OW 2899   2.802   2.820   2.432 -0.0931 -0.3753 -0.3836
  967SOL    HW1 2900   2.812   2.726   2.385 -0.7902 -0.0651  0.6700
  967SOL    HW2 2901   2.887   2.878   2.444  1.2193 -1.5175 -0.4062
  968SOL     OW 2902   1.936   1.087   2.658 -0.2920  0.3050  0.1789
  968SOL    HW1 2903   1.871   1.136   2.590 -2.2802  1.8232 -0.5710
  968SOL    HW2 2904   1.903   1.001   2.697  0.2027 -1.6043  1.0496
  969SOL     OW 2905   2.756   2.444   1.072 -0.3029  0.5293  0.0565
  969SOL    HW1 2906   2.743   2.431   0.970 -1.0525 -0.0914  0.6577
  969SOL    HW2 2907   2.811   2.373   1.121  0.0680  1.2712 -2.3524
  970SOL     OW 2908   1.063   2.135   1.803 -0.0772  0.0935  0.0881
  970SOL    HW1 2909   0.973   2.150   1.751 -1.5738  1.4384  1.8048
  970SOL    HW2 2910   1.056   2.169   1.903  0.0647 -0.1513 -1.7100
  971SOL     OW 2911   2.823   2.097   1.879 -0.0758 -0.0752 -0.3088
  971SOL    HW1 2912   2.843   2.189   1.928 -2.1241  2.1228 -0.4277
  971SOL    HW2 2913   2.891   2.071   1.802  0.9663 -1.4306 -2.5038
  972SOL     OW 2914   1.953   2.410   0.209  0.4626 -0.3894  0.0244
  972SOL    HW1 2915   1.976   2.356   0.126 -0.3269  2.2106  1.0363
  972SOL    HW2 2916   1.978   2.364   0.297 -1.0811  0.8226 -0.1697
  973SOL     OW 2917   1.321   1.067   1.900 -0.5764  0.1244  0.7108
  973SOL    HW1 2918   1.241   1.022   1.849  1.2138  1.1738  0.8649
  973SOL    HW2 2919   1.294   1.150   1.953 -0.5187 -1.9466 -0.5281
  974SOL     OW 2920   1.620   0.568   1.971 -0.1005  0.6484 -0.2016
  974SOL    HW1 2921   1.712   0.577   1.925 -0.4850 -0.7637  0.5937
  974SOL    HW2 2922   1.566   0.655   1.965  1.2268 -1.7434 -1.3709
  975SOL     OW 2923   2.376   3.014   0.025 -0.0350  0.0455  0.1499
  975SOL    HW1 2924   2.320   2.927   0.051 -1.9922 -0.7657 -0.6459
  975SOL    HW2 2925   2.408   3.010  -0.070  0.4034 -1.6785  0.8965
  976SOL     OW 2926   1.912   2.892   2.359  0.5787  0.4715  0.3779
  976SOL    HW1 2927   1.837   2.854   2.302  0.4834  0.0844  0.3452
  976SOL    HW2 2928   1.940   2.832   2.445 -1.7083 -1.5339 -0.0822
  977SOL     OW 2929   0.456   0.683   1.007 -0.1442 -0.3618  0.2102
  977SOL    HW1 2930   0.372   0.698   0.948  0.4942 -2.0463  3.0033
  977SOL    HW2 2931   0.535   0.641   0.947  1.9162  0.0632 -0.2265
   3.10000   3.10000   3.10000
