1000 SPC/Fw water molecules t=   0.24000 step= 240
 2931
    1SOL     OW    1   2.551   0.319   2.534  0.1780 -0.5209 -0.2324
    1SOL    HW1    2   2.585   0.227   2.499  0.9754  1.0722  1.1575
    1SOL    HW2    3   2.577   0.343   2.630 -2.1464  0.8624 -1.8734
    2SOL     OW    4   2.714   3.012   1.402  0.0218 -0.0889 -0.3771
    2SOL    HW1    5   2.774   3.081   1.363  1.9723 -1.6929  2.4161
    2SOL    HW2    6   2.641   3.058   1.461 -0.9221 -0.8537  0.5787
    3SOL     OW    7   2.738   2.588   0.418 -0.4799 -0.0831  0.4996
    3SOL    HW1    8   2.689   2.497   0.437 -1.8676  0.4835 -0.2809
    3SOL    HW2    9   2.809   2.601   0.495 -0.1170 -1.7781 -0.2669
    4SOL     OW   10   1.340   1.478   2.378 -0.0828  0.2376  0.5872
    4SOL    HW1   11   1.261   1.542   2.399 -1.2619  0.1753  0.8090
    4SOL    HW2   12   1.354   1.404   2.451  0.6526  1.7825  0.2502
    5SOL     OW   13   1.207   1.492   3.042  0.6341 -0.3045 -0.5638
    5SOL    HW1   14   1.273   1.573   3.060  0.5511 -0.2677 -1.4141
    5SOL    HW2   15   1.105   1.521   3.047 -0.0463  0.8732 -0.4687
    6SOL     OW   16   0.062   1.837   2.943 -0.6299 -0.3165 -0.2464
    6SOL    HW1   17   0.038   1.902   3.021 -1.6154  1.7849  2.1566
    6SOL    HW2   18   0.021   1.743   2.964 -1.1624 -1.6260 -0.5267
    7SOL     OW   19   2.609   0.798   1.155 -0.1785  0.2906  0.2769
    7SOL    HW1   20   2.513   0.779   1.178 -0.9854  1.4926 -0.0520
    7SOL    HW2   21   2.629   0.775   1.054  1.6919  2.6431 -2.6283
    8SOL     OW   22   0.459   0.672   1.549  0.1369 -0.0682  0.6713
    8SOL    HW1   23   0.529   0.595   1.578  0.3539 -0.6032  1.5314
    8SOL    HW2   24   0.412   0.651   1.458 -1.8027  0.9426 -0.4783
    9SOL     OW   25   1.181   0.966   2.280  0.1532  0.2800 -0.2286
    9SOL    HW1   26   1.242   1.032   2.230  1.6922  1.8310 -0.0603
    9SOL    HW2   27   1.152   0.887   2.217 -0.5192  2.3127  2.1932
   10SOL     OW   28   0.683   1.343   1.260  0.2270 -0.3815 -0.2769
   10SOL    HW1   29   0.588   1.359   1.224  0.4386  0.1206  0.7904
   10SOL    HW2   30   0.736   1.436   1.262  2.4390  3.8018 -1.5134
   11SOL     OW   31   2.342   2.582   0.940  0.6744  0.0919 -0.0942
   11SOL    HW1   32   2.342   2.627   1.035 -0.2711  0.1678  1.9378
   11SOL    HW2   33   2.426   2.529   0.928 -2.2853  1.0075 -0.3909
   12SOL     OW   34   1.466   0.896   0.463 -0.3310 -0.2660 -0.7076
   12SOL    HW1   35   1.393   0.951   0.414  0.6076  1.3744  0.6783
   12SOL    HW2   36   1.493   0.811   0.414 -0.0609 -0.2824 -0.6094
   13SOL     OW   37   2.503   0.646   1.824  0.5942  0.2839  0.3374
   13SOL    HW1   38   2.406   0.680   1.840  1.5537  0.3654 -0.0175
   13SOL    HW2   39   2.508   0.576   1.748  2.5342 -1.5365  1.4306
   14SOL     OW   40   1.887   3.083   0.583  0.4011  0.2482 -0.1076
   14SOL    HW1   41   1.795   3.127   0.555 -2.2784  1.4646  0.1565
   14SOL    HW2   42   1.886   3.037   0.679  0.2271 -2.9415 -0.2293
   15SOL     OW   43   1.955   2.035   2.866  0.1970 -0.0124  0.3245
   15SOL    HW1   44   1.891   2.110   2.893  1.5769  1.8825 -1.0055
   15SOL    HW2   45   1.921   1.969   2.790  0.3278 -1.2513 -0.3076
   16SOL     OW   46   1.603   1.696   0.050  0.0321 -0.4170 -0.2711
   16SOL    HW1   47   1.595   1.593   0.032  0.0404 -0.3758  1.2404
   16SOL    HW2   48   1.651   1.719   0.140  2.4610  1.3737 -1.9753
   17SOL     OW   49   0.130   0.432   0.158  0.1573 -0.2111 -0.2709
   17SOL    HW1   50   0.219   0.477   0.130 -0.0199  0.4033  0.8579
   17SOL    HW2   51   0.058   0.414   0.084 -1.6432  0.0498  0.1436
   18SOL     OW   52   1.073   2.896   2.173 -0.7407  0.4954  0.8181
   18SOL    HW1   53   1.002   2.819   2.161 -1.9873  0.0615  0.3327
   18SOL    HW2   54   1.153   2.887   2.115 -1.5358  1.0321  0.5725
   19SOL     OW   55   0.495   0.971   1.939 -0.4623 -0.6273  0.1343
   19SOL    HW1   56   0.450   1.000   2.028  1.5343 -0.4136 -0.6945
   19SOL    HW2   57   0.576   0.908   1.957 -0.4856  0.3353  1.0720
   20SOL     OW   58   0.235   2.777   0.885 -0.4096  0.7949  0.1390
   20SOL    HW1   59   0.153   2.829   0.847  1.7665  1.8239 -0.7182
   20SOL    HW2   60   0.301   2.748   0.804 -0.3699 -1.5583 -0.0749
   21SOL     OW   61   2.794   0.178   2.143  0.0239 -0.5794 -0.2480
   21SOL    HW1   62   2.813   0.101   2.072 -2.7735  0.2807  0.6432
   21SOL    HW2   63   2.784   0.139   2.241  2.1783  1.2830  0.1955
   22SOL     OW   64   2.335   0.193   0.008 -0.9218 -0.5136 -0.5970
   22SOL    HW1   65   2.354   0.092  -0.002 -1.9789  2.6522 -1.6171
   22SOL    HW2   66   2.235   0.211   0.008 -0.3448  1.5439 -1.7816
   23SOL     OW   67   2.774   0.647   0.686 -0.4075 -0.3644 -0.1349
   23SOL    HW1   68   2.757   0.553   0.639  2.4598 -0.3151 -1.1150
   23SOL    HW2   69   2.792   0.713   0.609 -1.7405  0.2658 -1.9259
   24SOL     OW   70   0.180   1.875   0.475 -0.0026 -0.0996 -0.2171
   24SOL    HW1   71   0.084   1.906   0.456  0.8547  1.4248 -3.4714
   24SOL    HW2   72   0.250   1.903   0.405 -0.3961  2.4949 -1.0466
   25SOL     OW   73   2.258   0.513   0.189  0.1413 -0.5048  0.1196
   25SOL    HW1   74   2.332   0.450   0.227  0.7802 -0.0825 -0.6987
   25SOL    HW2   75   2.226   0.474   0.091 -2.8686  0.2957 -1.3687
   26SOL     OW   76   2.527   2.183   2.103  0.0291 -0.2829  0.0785
   26SOL    HW1   77   2.601   2.216   2.172 -1.3587  0.4864  0.4874
   26SOL    HW2   78   2.558   2.099   2.054 -1.8719 -0.0239  1.6727
   27SOL     OW   79   0.664   2.973   0.106  0.0110 -0.2963 -0.2449
   27SOL    HW1   80   0.758   3.009   0.078 -1.6932  1.4866  0.1050
   27SOL    HW2   81   0.601   2.983   0.026  1.5144 -1.1713 -2.1420
   28SOL     OW   82   1.523   0.202   0.232  0.8543 -0.4079  0.3060
   28SOL    HW1   83   1.576   0.153   0.153  0.1715 -2.0073  0.2050
   28SOL    HW2   84   1.580   0.268   0.283  4.1659 -1.4486  0.9643
   29SOL     OW   85   2.023   0.645   0.246  0.1969 -0.0302  0.4306
   29SOL    HW1   86   2.026   0.730   0.302 -1.2022 -1.0420 -1.9628
   29SOL    HW2   87   2.116   0.605   0.227  2.6040  1.2399  0.6517
   30SOL     OW   88   0.193   2.058   0.929 -0.0915  0.0653 -0.2566
   30SOL    HW1   89   0.161   2.038   0.827  2.5189  0.1688 -1.3237
   30SOL    HW2   90   0.124   2.131   0.967 -1.1898 -1.5897 -0.0134
   31SOL     OW   91   2.060   0.050   2.315  1.0528 -0.2194 -0.0972
   31SOL    HW1   92   2.078   0.039   2.420 -1.2219  1.3098  1.2877
   31SOL    HW2   93   2.002  -0.031   2.282  1.0469 -1.8405  1.3860
   32SOL     OW   94   2.930   0.122   0.157 -0.5328  0.2131 -0.6166
   32SOL    HW1   95   2.873   0.079   0.232  0.3989 -2.1110 -1.8790
   32SOL    HW2   96   3.033   0.099   0.161 -2.3388  2.6357 -0.8853
   33SOL     OW   97   0.954   0.307   0.429 -0.5566  0.0787  0.1586
   33SOL    HW1   98   0.888   0.232   0.414  1.7497  0.6494  0.4165
   33SOL    HW2   99   1.035   0.285   0.495  1.1472 -2.1888  0.4089
   34SOL     OW  100   0.412   2.906   1.056 -0.0395 -0.4928 -0.1353
   34SOL    HW1  101   0.355   2.874   0.973  0.7113  0.4147 -2.0693
   34SOL    HW2  102   0.509   2.868   1.068  1.8289 -0.3401  0.1183
   35SOL     OW  103   0.061   0.019   1.821 -0.4753  0.0225  0.0266
   35SOL    HW1  104   0.065  -0.080   1.838 -3.7831  0.7512  0.5341
   35SOL    HW2  105   0.017   0.041   1.734  0.4567  1.5094  3.3846
   36SOL     OW  106   1.917   1.169   1.832  0.5699  0.0867  0.0435
   36SOL    HW1  107   1.945   1.120   1.749 -0.6608  0.0868  0.8271
   36SOL    HW2  108   1.979   1.244   1.865 -2.7148 -0.5369  0.4785
   37SOL     OW  109   1.134   0.289   0.966  0.4480 -0.4599 -0.3346
   37SOL    HW1  110   1.147   0.386   1.005  0.1465  0.4357  1.5016
   37SOL    HW2  111   1.218   0.230   0.978 -1.3421 -1.2770 -0.9579
   38SOL     OW  112   1.132   2.693   2.406 -0.4714 -0.0873 -0.2752
   38SOL    HW1  113   1.064   2.625   2.439 -0.6385 -1.9453 -0.0682
   38SOL    HW2  114   1.089   2.791   2.398  1.8431  0.1604  1.7807
   39SOL     OW  115   2.340   1.437   3.041 -0.3469  0.0644 -0.0806
   39SOL    HW1  116   2.429   1.379   3.024 -0.2781  1.3682 -0.4933
   39SOL    HW2  117   2.309   1.439   3.141 -0.2039 -1.0148 -3.5499
   40SOL     OW  118   2.075   2.531   2.552 -0.0127  0.5184  0.3903
   40SOL    HW1  119   2.021   2.601   2.603  2.3268 -0.4984 -2.2493
   40SOL    HW2  120   2.021   2.466   2.490  4.7713 -0.0032  1.6417
   41SOL     OW  121   2.936   0.696   2.759  0.3081  0.7184 -0.2093
   41SOL    HW1  122   2.847   0.750   2.775 -1.2777 -0.1893 -2.7016
   41SOL    HW2  123   2.916   0.594   2.728  0.1172 -2.3083  2.0342
   42SOL     OW  124   1.794   1.750   0.590  0.2837 -0.0829  0.0937
   42SOL    HW1  125   1.740   1.664   0.563 -0.8803  2.2459  1.6658
   42SOL    HW2  126   1.846   1.794   0.506  0.5096  0.5997 -1.5198
   43SOL     OW  127   0.494   1.734   1.197  0.9816 -0.7916  0.1624
   43SOL    HW1  128   0.493   1.673   1.276  1.0918 -0.6492 -0.6762
   43SOL    HW2  129   0.397   1.756   1.164 -1.2132 -0.6680  1.7178
   44SOL     OW  130   1.728   2.507   0.030  0.2063  0.1858 -0.1171
   44SOL    HW1  131   1.753   2.575  -0.047  0.4097 -0.7095 -1.2862
   44SOL    HW2  132   1.804   2.483   0.098 -1.3310 -2.8828  3.3001
   45SOL     OW  133   0.363   1.924   2.520  0.1797  0.4221  0.8872
   45SOL    HW1  134   0.278   1.914   2.463 -0.1233  0.9103  0.9953
   45SOL    HW2  135   0.417   1.837   2.526 -0.3519  1.4655  0.0537
   46SOL     OW  136   1.160   0.623   0.167  0.3102 -0.0736  0.1152
   46SOL    HW1  137   1.232   0.695   0.148  1.5340 -0.0231  0.2600
   46SOL    HW2  138   1.062   0.656   0.174 -1.2113 -1.7145 -1.3564
   47SOL     OW  139   0.241   2.459   1.609 -0.0214 -0.4297 -0.3150
   47SOL    HW1  140   0.323   2.390   1.593  0.7926 -1.2094  0.8967
   47SOL    HW2  141   0.185   2.471   1.527  2.8070 -0.0996 -1.0639
   48SOL     OW  142   2.568   0.563   0.159 -0.5829  0.3428  0.7379
   48SOL    HW1  143   2.517   0.580   0.240  0.4022 -0.5566 -2.1227
   48SOL    HW2  144   2.645   0.633   0.154  1.0417  1.7015 -2.6332
   49SOL     OW  145   0.342   0.873   1.723  0.3756  0.0979 -0.5427
   49SOL    HW1  146   0.398   0.924   1.794 -1.9584 -0.7199 -0.7232
   49SOL    HW2  147   0.394   0.799   1.673  0.5270 -0.8225 -0.8724
   50SOL     OW  148   1.743   1.083   0.357 -0.3690  0.4456 -0.3346
   50SOL    HW1  149   1.725   0.985   0.325  0.0025  2.5172  1.4907
   50SOL    HW2  150   1.667   1.114   0.429 -0.4020 -0.7616  0.5152
   51SOL     OW  151   3.022   1.901   0.387  0.6688 -0.2019 -0.2411
   51SOL    HW1  152   3.036   1.913   0.285 -0.3859 -0.5365 -0.0625
   51SOL    HW2  153   2.976   1.812   0.408 -0.6161 -0.0937  0.2225
   52SOL     OW  154   0.818   1.972   0.504 -0.2766  0.8326 -0.3032
   52SOL    HW1  155   0.728   2.014   0.527  0.1101 -1.4067 -0.5359
   52SOL    HW2  156   0.839   1.889   0.567 -0.1334  0.6364  1.4059
   53SOL     OW  157   3.061   0.353   1.530 -0.0856  0.0403  0.2892
   53SOL    HW1  158   2.989   0.345   1.610  1.4377  1.8642  2.4562
   53SOL    HW2  159   3.063   0.448   1.492 -1.0339 -0.1909  1.0045
   54SOL     OW  160   1.733   0.465   3.009 -0.3732 -0.6188  0.6483
   54SOL    HW1  161   1.775   0.424   3.092 -0.9337  1.8745 -1.7126
   54SOL    HW2  162   1.631   0.474   3.018  0.2085 -0.3020 -0.2666
   55SOL     OW  163   0.712   2.932   0.623 -0.1456  0.2602  0.1096
   55SOL    HW1  164   0.671   3.028   0.636 -0.1409 -0.3532 -1.0724
   55SOL    HW2  165   0.804   2.946   0.572  1.8282  0.5560 -1.2428
   56SOL     OW  166   0.487   1.557   3.059  0.0003 -0.3065  0.2817
   56SOL    HW1  167   0.404   1.595   3.113 -1.4554  1.8566  0.5270
   56SOL    HW2  168   0.463   1.461   3.022 -1.2409  2.1635  0.1152
   57SOL     OW  169   1.786   2.382   2.658  0.4886  0.0339  0.7870
   57SOL    HW1  170   1.826   2.341   2.571 -0.4916 -0.2001  1.2760
   57SOL    HW2  171   1.692   2.422   2.636 -1.1290  0.8433  1.1921
   58SOL     OW  172   0.586   0.447   1.103 -0.1720  0.3275  0.1690
   58SOL    HW1  173   0.516   0.523   1.092  3.0583  1.9043 -2.4317
   58SOL    HW2  174   0.532   0.357   1.131  2.9490 -4.1465  1.3739
   59SOL     OW  175   0.479   2.411   2.669  0.1533 -0.3204 -0.0753
   59SOL    HW1  176   0.476   2.313   2.696  0.9333  2.4969 -0.8915
   59SOL    HW2  177   0.554   2.459   2.724 -1.3319 -1.3277  1.4376
   60SOL     OW  178   2.323   2.173   2.281  0.1584 -0.6163  0.5774
   60SOL    HW1  179   2.408   2.189   2.220 -2.4421  1.9709 -0.2213
   60SOL    HW2  180   2.331   2.204   2.381 -3.4927 -0.9378  1.3582
   61SOL     OW  181   1.400   0.581   0.455  0.5311  0.2819  0.7281
   61SOL    HW1  182   1.309   0.623   0.477  1.3169  0.2705 -1.8121
   61SOL    HW2  183   1.407   0.567   0.353  0.3959 -0.7817  2.5303
   62SOL     OW  184   2.656   1.869   3.087 -0.2442  0.2778  0.2590
   62SOL    HW1  185   2.667   1.767   3.105  2.0613  0.9662 -0.3800
   62SOL    HW2  186   2.727   1.903   3.024 -1.1905 -2.0498 -3.0706
   63SOL     OW  187   0.532   0.815   0.158  0.0021  0.2565  0.1600
   63SOL    HW1  188   0.524   0.919   0.157  1.5280  0.5248 -2.3604
   63SOL    HW2  189   0.549   0.774   0.252 -0.7330  0.7009 -0.5199
   64SOL     OW  190   0.100   0.488   2.524  0.0784 -0.3213  0.0074
   64SOL    HW1  191   0.061   0.516   2.616  0.5293 -0.8990  4.2722
   64SOL    HW2  192   0.097   0.562   2.448  0.4207 -2.6136 -2.4806
   65SOL     OW  193   0.194   1.469   0.642  0.2252 -0.1152  0.5062
   65SOL    HW1  194   0.194   1.535   0.721 -0.7913 -0.8268  1.3954
   65SOL    HW2  195   0.295   1.449   0.618  2.8078 -2.1454  3.0887
   66SOL     OW  196   2.472   0.391   0.710  0.3500  0.4650  0.0480
   66SOL    HW1  197   2.384   0.451   0.685 -0.6996  1.0642 -0.2391
   66SOL    HW2  198   2.449   0.292   0.732  0.8418 -1.3912 -0.4586
   67SOL     OW  199   0.501   2.535   1.343 -0.1250 -0.3640  0.2873
   67SOL    HW1  200   0.601   2.555   1.344  0.4487  0.5721 -0.8712
   67SOL    HW2  201   0.473   2.437   1.317  1.1095 -2.8780  0.3291
   68SOL     OW  202   1.018   1.095   2.438 -0.5237 -0.0270  0.1977
   68SOL    HW1  203   1.087   1.044   2.381  2.4500  1.6058 -0.2326
   68SOL    HW2  204   0.935   1.124   2.386  0.1599  2.3511 -2.3725
   69SOL     OW  205   0.760   2.696   2.154 -0.4505 -0.2461 -0.1104
   69SOL    HW1  206   0.802   2.611   2.184 -2.5084  0.8231  0.0047
   69SOL    HW2  207   0.658   2.701   2.183 -1.4603 -1.0965 -0.9722
   70SOL     OW  208   0.606   0.250   2.716  0.0259 -0.3485  0.2247
   70SOL    HW1  209   0.620   0.274   2.816  0.7590 -0.3398 -0.5623
   70SOL    HW2  210   0.547   0.167   2.702  0.3140  0.4215  1.2727
   71SOL     OW  211   1.076   1.780   0.346  0.2960  0.0346 -0.5568
   71SOL    HW1  212   1.033   1.686   0.352 -1.3941 -1.4806 -1.2542
   71SOL    HW2  213   1.090   1.823   0.249  2.2369  0.2431 -1.0298
   72SOL     OW  214   1.809   0.095   2.086 -0.2931  0.9732  0.1688
   72SOL    HW1  215   1.879   0.121   2.009 -2.6670  1.0257  0.5029
   72SOL    HW2  216   1.849   0.022   2.152  0.3796 -0.1659  1.5644
   73SOL     OW  217   2.813   2.223   2.513 -0.2294 -0.3604 -0.3084
   73SOL    HW1  218   2.799   2.124   2.480 -0.8117 -0.3934 -1.0549
   73SOL    HW2  219   2.837   2.237   2.610 -1.5110  1.3506  0.2355
   74SOL     OW  220   2.747   3.009   2.039 -0.1645 -0.3585  0.1363
   74SOL    HW1  221   2.665   2.991   2.097 -1.1209 -0.2115 -1.2872
   74SOL    HW2  222   2.838   2.975   2.079  0.3165 -0.9551 -1.4040
   75SOL     OW  223   0.923   0.768   1.000 -0.1809  0.2465  0.0064
   75SOL    HW1  224   0.833   0.805   0.967 -0.1857  0.2198  0.2369
   75SOL    HW2  225   0.957   0.819   1.091  2.3865  1.0808  1.4402
   76SOL     OW  226   1.742   1.242   2.564 -0.2914  0.0693 -0.0089
   76SOL    HW1  227   1.644   1.213   2.568  2.2578  0.8286  0.6074
   76SOL    HW2  228   1.769   1.316   2.639  1.2514 -0.7403  1.9243
   77SOL     OW  229   2.989   0.979   0.999 -0.3138  0.1082  0.3084
   77SOL    HW1  230   2.966   0.879   0.973 -0.4686  1.0635 -2.6373
   77SOL    HW2  231   3.069   1.001   1.062  0.2348 -0.7624 -0.2776
   78SOL     OW  232   1.981   1.407   1.488  0.7027  0.3887  0.3103
   78SOL    HW1  233   2.073   1.435   1.456  0.6735  0.9729 -1.0799
   78SOL    HW2  234   1.924   1.379   1.410 -0.8901  0.4913  2.2313
   79SOL     OW  235   0.595   1.322   0.846  0.0177 -0.0305 -0.2507
   79SOL    HW1  236   0.545   1.401   0.889  1.4237  1.2992 -0.4410
   79SOL    HW2  237   0.527   1.259   0.788 -1.2889 -0.6001  1.1476
   80SOL     OW  238   0.666   0.493   1.609  0.3228  0.5860 -0.3530
   80SOL    HW1  239   0.733   0.559   1.557  2.1859  1.0134  1.0749
   80SOL    HW2  240   0.672   0.394   1.576 -1.1062  0.1404 -1.0075
   81SOL     OW  241   1.061   1.389   2.638 -0.3078  0.0045  0.0398
   81SOL    HW1  242   1.003   1.348   2.715  1.5739 -0.0437 -0.2344
   81SOL    HW2  243   1.013   1.400   2.549 -2.3323  0.2489  2.7834
   82SOL     OW  244   0.911   2.993   1.523  0.6721 -0.1189  0.0312
   82SOL    HW1  245   0.966   2.946   1.451  1.8681  2.1272  3.8985
   82SOL    HW2  246   0.827   2.936   1.546  1.6891  0.6594 -3.2777
   83SOL     OW  247   2.759   2.460   0.791  0.1239  0.6405 -0.0188
   83SOL    HW1  248   2.686   2.396   0.763  0.0679  1.6081  0.1194
   83SOL    HW2  249   2.744   2.557   0.753 -2.9752 -0.3851 -1.0143
   84SOL     OW  250   0.710   3.101   2.410  0.6452 -0.2286  0.3980
   84SOL    HW1  251   0.608   3.107   2.436 -1.1293  0.1407  1.3327
   84SOL    HW2  252   0.765   3.051   2.481  0.5894 -0.8411 -0.3009
   85SOL     OW  253   0.388   1.661   1.492 -0.0387  0.6186  0.2879
   85SOL    HW1  254   0.329   1.743   1.477 -2.6446  0.7388  1.2036
   85SOL    HW2  255   0.382   1.629   1.591  0.0510  0.9722  1.9556
   86SOL     OW  256   0.344   1.002   1.490 -0.3279 -0.4535  0.3895
   86SOL    HW1  257   0.325   0.958   1.398 -0.3450  1.2788 -0.5698
   86SOL    HW2  258   0.346   0.933   1.567  4.0551 -0.5271  0.1336
   87SOL     OW  259   1.583   0.605   0.203 -0.3721  0.3724  0.4562
   87SOL    HW1  260   1.655   0.678   0.208  1.6288 -0.9634 -1.9445
   87SOL    HW2  261   1.537   0.592   0.110  1.9658 -2.0230 -0.7373
   88SOL     OW  262   1.577   1.251   0.191  0.0364  0.3893 -0.2571
   88SOL    HW1  263   1.635   1.186   0.251 -1.0422  0.0581  3.7419
   88SOL    HW2  264   1.475   1.255   0.220 -0.6398 -1.9802 -2.1624
   89SOL     OW  265   3.000   0.446   0.577 -0.1665 -0.0433 -0.1157
   89SOL    HW1  266   3.056   0.364   0.598  0.7396 -1.3626  0.2403
   89SOL    HW2  267   2.899   0.416   0.563 -2.6114  0.7151  1.5924
   90SOL     OW  268   0.978   1.661   3.051  0.1562  0.0182 -0.5946
   90SOL    HW1  269   0.895   1.654   3.117 -0.1524  0.8804 -0.1589
   90SOL    HW2  270   0.940   1.645   2.955 -0.1661  0.7454  0.6860
   91SOL     OW  271   1.275   1.467   1.778  0.1659  1.0149 -0.4754
   91SOL    HW1  272   1.310   1.538   1.843 -1.0017 -0.5105  1.2443
   91SOL    HW2  273   1.348   1.400   1.741 -0.6972  0.6420  1.1621
   92SOL     OW  274   0.084   1.043   1.162 -0.4429 -0.0262 -0.0973
   92SOL    HW1  275   0.170   1.035   1.112 -1.5086  0.5862 -0.1408
   92SOL    HW2  276   0.087   1.024   1.264 -2.0579 -2.0303  0.8454
   93SOL     OW  277   0.040   2.840   0.067 -0.4248 -0.4725  0.4575
   93SOL    HW1  278  -0.028   2.840  -0.013  1.3702  1.3093  0.7148
   93SOL    HW2  279   0.065   2.744   0.099  1.7339  1.0894 -0.6499
   94SOL     OW  280   1.521   1.342   1.683  0.2274  0.2304 -0.2430
   94SOL    HW1  281   1.561   1.249   1.706 -2.0655 -0.5251  0.1596
   94SOL    HW2  282   1.571   1.418   1.732 -0.1016 -3.8419  1.7907
   95SOL     OW  283   1.350   2.471   2.922 -0.2634 -0.3115 -0.2427
   95SOL    HW1  284   1.287   2.468   3.001 -0.0108  0.8084 -2.6364
   95SOL    HW2  285   1.366   2.379   2.877 -0.0466  2.1618  0.1657
   96SOL     OW  286   0.499   2.000   1.213 -0.1178  0.4483 -0.5192
   96SOL    HW1  287   0.477   2.041   1.122 -0.6008 -2.5867  0.1440
   96SOL    HW2  288   0.490   1.898   1.210 -0.0282  1.9576 -1.7578
   97SOL     OW  289   0.352   1.442   2.490  1.0099 -0.3350  0.3553
   97SOL    HW1  290   0.265   1.389   2.497 -0.7793  1.8850  0.4467
   97SOL    HW2  291   0.341   1.514   2.559  0.7836 -0.3539 -0.9624
   98SOL     OW  292   2.020   1.695   1.310 -0.1676 -0.4328 -0.1004
   98SOL    HW1  293   2.068   1.630   1.249 -1.1240 -1.3586  3.3427
   98SOL    HW2  294   1.967   1.646   1.390 -4.9596 -1.4134 -0.9499
   99SOL     OW  295   2.467   2.136   1.322  0.1607  0.1683  0.0598
   99SOL    HW1  296   2.461   2.178   1.414 -2.2966 -1.3735 -0.0698
   99SOL    HW2  297   2.478   2.032   1.319  1.9731 -0.0314 -0.4711
  100SOL     OW  298   2.277   0.373   2.043 -0.0773 -0.4144  0.4694
  100SOL    HW1  299   2.232   0.334   2.127  0.9493 -2.1738  3.7801
  100SOL    HW2  300   2.378   0.368   2.058 -0.8036 -1.3044 -2.4628
  101SOL     OW  301   0.416   1.457   0.280  0.0588  0.7485  0.2441
  101SOL    HW1  302   0.395   1.475   0.380 -0.7270  0.2473  1.1742
  101SOL    HW2  303   0.485   1.525   0.245 -1.7042  0.4940 -0.0822
  102SOL     OW  304   2.296   1.067   0.794  0.7865  0.1514 -0.1243
  102SOL    HW1  305   2.215   1.009   0.789 -0.8143  2.5577  0.7310
  102SOL    HW2  306   2.320   1.113   0.702 -1.6619  2.8608 -0.0356
  103SOL     OW  307   2.292   0.079   0.423 -0.5481 -0.3575  0.0080
  103SOL    HW1  308   2.351   0.147   0.375 -0.4952 -1.9418  2.4165
  103SOL    HW2  309   2.341   0.021   0.490  0.7851 -0.9726 -0.4643
  104SOL     OW  310   0.089   1.874   2.124  0.0450 -0.0423 -0.2468
  104SOL    HW1  311   0.118   1.813   2.046  3.6837  0.8618 -2.8306
  104SOL    HW2  312  -0.008   1.913   2.117  0.1393  3.2256  0.7463
  105SOL     OW  313   1.123   1.946   0.837  0.1430 -0.1205  0.1317
  105SOL    HW1  314   1.066   2.015   0.783 -0.0729  0.3184 -0.0332
  105SOL    HW2  315   1.176   1.885   0.771  0.0706 -2.1973  0.1596
  106SOL     OW  316   2.063   0.432   1.351  0.5949 -0.5531  0.4316
  106SOL    HW1  317   2.013   0.354   1.404 -0.9817  0.5719  1.9067
  106SOL    HW2  318   2.031   0.524   1.389 -2.3918 -1.6900  0.0268
  107SOL     OW  319   1.817   3.007   1.083 -0.1477 -0.4802 -0.5526
  107SOL    HW1  320   1.862   3.073   1.149 -0.1623 -0.1629  1.0733
  107SOL    HW2  321   1.765   2.928   1.130  1.9525 -0.6588 -0.1023
  108SOL     OW  322   0.754   2.635   1.303  0.1350 -0.1111 -0.1959
  108SOL    HW1  323   0.724   2.698   1.376  2.2388 -2.6397  1.9162
  108SOL    HW2  324   0.848   2.595   1.324  1.2957  0.9913 -2.5286
  109SOL     OW  325   2.102   0.096   0.725  0.4702  0.1944  0.7929
  109SOL    HW1  326   2.027   0.068   0.659  0.6018  0.2714  0.9728
  109SOL    HW2  327   2.103   0.047   0.816  0.5140 -2.0459  0.9293
  110SOL     OW  328   0.485   2.796   2.708 -0.2138  0.6041 -0.4166
  110SOL    HW1  329   0.470   2.833   2.611 -0.8478  0.2947 -0.4738
  110SOL    HW2  330   0.571   2.738   2.722  2.6303 -0.2473 -0.8590
  111SOL     OW  331   1.294   0.519   2.289 -0.2200 -0.0098 -0.3609
  111SOL    HW1  332   1.214   0.563   2.347 -0.6676  0.2999  0.5077
  111SOL    HW2  333   1.350   0.442   2.340 -1.7997  1.4129 -0.7887
  112SOL     OW  334   1.716   0.486   1.422  0.4469 -0.1610 -0.3230
  112SOL    HW1  335   1.715   0.465   1.322 -0.9218  3.9477 -0.3000
  112SOL    HW2  336   1.697   0.404   1.480 -1.9294 -0.6674 -0.4890
  113SOL     OW  337   2.311   1.654   1.728  0.1139  0.0401 -0.5440
  113SOL    HW1  338   2.390   1.585   1.711  1.3984 -2.2934 -2.2952
  113SOL    HW2  339   2.317   1.700   1.820 -2.5389 -2.6458  0.9298
  114SOL     OW  340   0.343   0.578   1.288 -0.7724 -0.2537 -0.1100
  114SOL    HW1  341   0.324   0.680   1.273 -1.7897 -0.8475  2.1478
  114SOL    HW2  342   0.291   0.519   1.223  0.7037 -1.5027  1.3596
  115SOL     OW  343   2.622   1.578   1.232 -0.8239 -0.5693 -0.6378
  115SOL    HW1  344   2.648   1.480   1.235  1.9246  0.7620  0.5181
  115SOL    HW2  345   2.666   1.629   1.155  0.4239 -1.3158  0.1245
  116SOL     OW  346   1.824   1.074   0.763 -0.0673  0.6722 -0.5679
  116SOL    HW1  347   1.755   1.000   0.744 -0.7955  0.3708 -0.0016
  116SOL    HW2  348   1.789   1.168   0.785 -0.5370 -0.9643 -0.6850
  117SOL     OW  349   1.146   0.362   0.656 -0.2713  0.1625  0.0544
  117SOL    HW1  350   1.168   0.370   0.755 -1.4506 -1.1846 -0.1765
  117SOL    HW2  351   1.172   0.446   0.598  2.2866  1.0876  0.4766
  118SOL     OW  352   1.072   1.091   1.120  0.2629 -0.0499  0.6752
  118SOL    HW1  353   1.067   1.020   1.196  1.2360  2.0710 -0.3882
  118SOL    HW2  354   1.088   1.191   1.162  2.0735  2.1114 -1.8400
  119SOL     OW  355   1.824   1.622   2.029  0.0223  0.4189  0.3154
  119SOL    HW1  356   1.788   1.697   2.093 -0.1013 -3.1622 -1.9511
  119SOL    HW2  357   1.928   1.608   2.035  1.9327  2.0011  2.8730
  120SOL     OW  358   2.965   2.789   0.326  0.6221  0.1905  0.1137
  120SOL    HW1  359   2.901   2.747   0.254  0.8305 -1.6294 -0.5563
  120SOL    HW2  360   3.012   2.715   0.378 -1.6141 -1.3070 -1.3198
  121SOL     OW  361   2.012   0.742   2.188 -0.2950 -0.9378  0.2535
  121SOL    HW1  362   2.077   0.777   2.116  0.6743  1.6677 -0.2934
  121SOL    HW2  363   1.983   0.643   2.171 -1.1165  2.2206 -1.8446
  122SOL     OW  364   2.747   2.542   1.367  0.5705  0.2360 -0.4694
  122SOL    HW1  365   2.757   2.543   1.266 -0.6865 -1.1061  2.0414
  122SOL    HW2  366   2.702   2.455   1.402 -1.0725 -2.8167  1.8039
  123SOL     OW  367   1.712   0.031   1.690 -0.0083 -0.0477  0.0519
  123SOL    HW1  368   1.738  -0.028   1.607  0.9416 -0.8613 -1.9801
  123SOL    HW2  369   1.790   0.046   1.756  0.2255  0.4093 -2.1941
  124SOL     OW  370   0.170   0.485   1.056 -0.9757  0.4243  0.5526
  124SOL    HW1  371   0.115   0.540   1.121  2.7981 -1.8334  0.3942
  124SOL    HW2  372   0.134   0.476   0.961  2.6858 -1.3537  0.3223
  125SOL     OW  373   0.878   1.773   0.674  0.5164 -0.1742 -0.0701
  125SOL    HW1  374   0.981   1.793   0.665 -1.0924  0.9385  0.9997
  125SOL    HW2  375   0.859   1.710   0.755 -0.9883 -0.5144  2.4442
  126SOL     OW  376   1.914   2.373   2.389 -0.2372  0.0521 -0.1084
  126SOL    HW1  377   1.969   2.289   2.358  1.1949  0.8165  2.3086
  126SOL    HW2  378   1.823   2.380   2.339  0.3668 -0.8077 -0.8493
  127SOL     OW  379   0.852   0.979   0.180 -1.1607 -0.3768 -0.0367
  127SOL    HW1  380   0.884   1.024   0.268  2.6702  0.5117 -1.2172
  127SOL    HW2  381   0.845   0.877   0.196  2.1398  0.5425 -1.2275
  128SOL     OW  382   0.991   0.162   1.489 -0.2832 -0.1020  0.2356
  128SOL    HW1  383   0.950   0.226   1.417  1.4553  0.5529 -0.0854
  128SOL    HW2  384   0.969   0.062   1.483 -1.3591  1.8924  1.3020
  129SOL     OW  385   1.831   0.696   1.876  0.7369 -0.6551  0.3469
  129SOL    HW1  386   1.824   0.722   1.776 -0.1672  3.1645 -3.3593
  129SOL    HW2  387   1.865   0.782   1.929  2.0702  1.2785  0.6085
  130SOL     OW  388   1.330   2.070   1.003 -0.0516  0.0609  0.3021
  130SOL    HW1  389   1.273   1.996   0.960  3.0065 -0.6439  3.6134
  130SOL    HW2  390   1.363   2.144   0.938  2.5989 -0.4363 -1.1808
  131SOL     OW  391   0.008   1.521   1.382 -0.0335  0.0170  0.7592
  131SOL    HW1  392  -0.061   1.457   1.338 -0.6339 -0.0913 -1.0568
  131SOL    HW2  393   0.105   1.488   1.382  0.2654  0.9694 -1.8092
  132SOL     OW  394   1.944   2.494   0.522  0.0302 -0.9201 -0.0388
  132SOL    HW1  395   1.841   2.476   0.542 -0.8695  2.2129 -1.4063
  132SOL    HW2  396   2.005   2.482   0.606  1.4604  0.5774 -0.7647
  133SOL     OW  397   1.820   2.276   2.906 -0.2033 -0.0908 -0.0969
  133SOL    HW1  398   1.786   2.357   2.958  3.4117 -0.0576 -1.2721
  133SOL    HW2  399   1.799   2.278   2.800 -0.9436  0.3881 -0.4491
  134SOL     OW  400   2.664   2.353   1.610  0.6355  0.0752 -0.1335
  134SOL    HW1  401   2.588   2.337   1.679 -1.8419 -0.4923 -2.6103
  134SOL    HW2  402   2.736   2.424   1.640  0.8778 -0.3166 -0.7315
  135SOL     OW  403   0.720   1.546   2.562  0.2436  0.7850  0.2103
  135SOL    HW1  404   0.669   1.460   2.589 -1.2145 -2.1231 -0.4132
  135SOL    HW2  405   0.797   1.521   2.496 -4.1638 -2.4048  2.5282
  136SOL     OW  406   1.196   2.052   0.483  0.2122 -0.4530  0.2041
  136SOL    HW1  407   1.121   2.109   0.532  1.2993  0.0641  2.6716
  136SOL    HW2  408   1.156   1.958   0.458 -0.7816  0.5386 -0.2388
  137SOL     OW  409   0.383   1.076   2.208  0.2439  0.2816 -0.2187
  137SOL    HW1  410   0.291   1.099   2.251  0.8550  0.2073  0.4635
  137SOL    HW2  411   0.439   0.999   2.257  0.3375 -0.5325  0.1636
  138SOL     OW  412   2.442   1.470   0.254 -0.2034  0.0358 -0.4299
  138SOL    HW1  413   2.337   1.471   0.228  0.4224  2.8187 -0.7202
  138SOL    HW2  414   2.471   1.396   0.323 -1.6365  0.8093 -0.0178
  139SOL     OW  415   1.786   2.599   1.224 -0.1232  0.1736 -0.0119
  139SOL    HW1  416   1.706   2.540   1.205 -0.6225  2.3597  0.4273
  139SOL    HW2  417   1.855   2.550   1.289  0.3420 -0.0756 -0.1465
  140SOL     OW  418   2.997   2.974   2.528 -0.1872 -0.0229 -0.5766
  140SOL    HW1  419   3.053   2.896   2.560 -3.4346  0.9175  1.2689
  140SOL    HW2  420   3.051   3.063   2.531 -1.0123  1.9550 -2.3988
  141SOL     OW  421   1.185   1.629   1.562  0.7761  0.0293 -0.2014
  141SOL    HW1  422   1.133   1.700   1.624 -0.9734  1.2467 -0.0815
  141SOL    HW2  423   1.201   1.535   1.612  2.1806 -0.5159  0.6499
  142SOL     OW  424   1.553   0.617   2.262  0.4392  0.1530 -0.2604
  142SOL    HW1  425   1.575   0.619   2.158 -2.0355 -0.1594 -0.7337
  142SOL    HW2  426   1.452   0.597   2.282  0.0840  1.4958 -1.8294
  143SOL     OW  427   2.771   0.862   0.498 -0.3992  0.1201 -0.3927
  143SOL    HW1  428   2.796   0.912   0.413 -1.1023 -0.3853 -1.4517
  143SOL    HW2  429   2.786   0.916   0.586 -0.9153 -2.6119  2.2799
  144SOL     OW  430   2.967   1.259   1.358 -0.6201  0.1030  0.0095
  144SOL    HW1  431   2.942   1.223   1.453 -1.7120  1.0848  0.6000
  144SOL    HW2  432   3.049   1.206   1.328 -1.0681  0.1572 -0.8205
  145SOL     OW  433   1.077   1.892   0.082  0.0309  0.2214  0.0429
  145SOL    HW1  434   1.087   1.971   0.015  0.4332 -0.2528 -2.0320
  145SOL    HW2  435   1.052   1.804   0.036  0.0501 -0.0094  0.2777
  146SOL     OW  436   2.532   0.643   1.461 -0.2718 -0.3165  0.1309
  146SOL    HW1  437   2.456   0.568   1.450  0.5231 -0.5786  0.9360
  146SOL    HW2  438   2.486   0.737   1.462  1.8631 -1.6925  0.7878
  147SOL     OW  439   1.037   2.539   0.613 -0.2068 -0.7038  0.1508
  147SOL    HW1  440   1.001   2.582   0.525 -1.4221 -1.5682 -1.6145
  147SOL    HW2  441   1.133   2.490   0.603 -0.0411 -1.3055  0.4631
  148SOL     OW  442   1.624   1.434   3.092  0.0042 -0.4434  0.7576
  148SOL    HW1  443   1.682   1.368   3.035  0.8487  1.5193 -0.7724
  148SOL    HW2  444   1.582   1.377   3.169  0.8030 -2.2372  2.7598
  149SOL     OW  445   0.668   1.406   1.971 -0.2180 -0.1150  0.1868
  149SOL    HW1  446   0.574   1.388   2.014  0.9657 -0.4851  1.7804
  149SOL    HW2  447   0.702   1.336   1.903 -1.1737  1.1792  0.3321
  150SOL     OW  448   2.979   1.276   0.928 -0.0589 -0.3439  0.2407
  150SOL    HW1  449   3.039   1.343   0.976  2.9416 -0.7443 -0.6556
  150SOL    HW2  450   2.997   1.180   0.966 -0.5176  0.3652  0.0678
  151SOL     OW  451   0.171   0.764   2.108  0.2622  0.0288  0.6759
  151SOL    HW1  452   0.152   0.856   2.062 -0.3652  0.0690 -2.0491
  151SOL    HW2  453   0.232   0.704   2.054 -1.4244 -4.5639 -0.2396
  152SOL     OW  454   1.412   1.757   1.275  0.2364 -0.0082 -0.2658
  152SOL    HW1  455   1.421   1.821   1.357 -0.2405 -0.7789  1.9701
  152SOL    HW2  456   1.309   1.756   1.243  0.2762  0.5669 -0.4376
  153SOL     OW  457   0.076   1.530   0.163 -0.3416  0.1123  0.1866
  153SOL    HW1  458   0.076   1.427   0.149 -1.6594 -1.6354 -0.6726
  153SOL    HW2  459   0.093   1.544   0.265 -0.0857  0.1087 -1.7613
  154SOL     OW  460   2.411   1.920   2.837  0.4023 -0.7609 -0.0162
  154SOL    HW1  461   2.423   1.815   2.849  1.0821  1.0366 -1.1424
  154SOL    HW2  462   2.422   1.943   2.735 -2.2662 -1.4164  1.5428
  155SOL     OW  463   2.519   1.223   0.383  0.0778  0.9014 -0.3194
  155SOL    HW1  464   2.584   1.230   0.303  2.1212  1.9312 -1.7234
  155SOL    HW2  465   2.516   1.130   0.427 -4.0568 -0.5502 -1.8453
  156SOL     OW  466   2.536   0.948   0.874 -0.2509 -0.1919 -0.3337
  156SOL    HW1  467   2.451   0.971   0.826  0.4798 -3.8897  3.5249
  156SOL    HW2  468   2.600   1.028   0.883 -0.9363  1.4660 -0.5984
  157SOL     OW  469   1.310   3.032   3.036 -0.9099 -0.1044 -0.5184
  157SOL    HW1  470   1.375   2.997   2.960 -2.1818  1.8899 -2.4606
  157SOL    HW2  471   1.315   3.138   3.030 -0.4254 -1.8742  3.0808
  158SOL     OW  472   1.050   1.899   2.025  0.3154 -0.3789  0.5386
  158SOL    HW1  473   1.077   1.892   2.122 -0.7509  1.8568  0.4221
  158SOL    HW2  474   0.959   1.853   2.004 -0.9090  0.7211 -0.0124
  159SOL     OW  475   0.862   0.368   1.313 -0.7146  0.2359 -0.1335
  159SOL    HW1  476   0.840   0.457   1.361  1.8173 -0.4121 -1.7519
  159SOL    HW2  477   0.791   0.345   1.244  2.0648  1.7946  0.2809
  160SOL     OW  478   1.468   2.405   1.660 -0.5107  0.7330  0.0617
  160SOL    HW1  479   1.464   2.493   1.607  1.7693  3.0269 -1.8434
  160SOL    HW2  480   1.563   2.363   1.669 -1.2689  1.2737 -0.5024
  161SOL     OW  481   0.127   2.932   0.340  0.4827 -0.1913 -0.0981
  161SOL    HW1  482   0.044   2.871   0.350  0.3971  2.1458 -0.4953
  161SOL    HW2  483   0.124   2.996   0.248 -1.0330  1.3044 -1.6563
  162SOL     OW  484   2.581   1.892   0.516 -0.1680  0.2951 -0.0416
  162SOL    HW1  485   2.524   1.851   0.439  1.7815 -0.2641 -1.5691
  162SOL    HW2  486   2.586   1.831   0.597 -0.9961  1.3125  1.5269
  163SOL     OW  487   1.971   2.720   0.768 -0.4464 -0.3061  0.0944
  163SOL    HW1  488   1.941   2.741   0.668 -0.6070  1.2499 -1.4243
  163SOL    HW2  489   2.033   2.634   0.773  2.7321 -1.5973  0.0067
  164SOL     OW  490   3.066   0.284   1.239 -0.6676 -0.0403 -0.4402
  164SOL    HW1  491   3.140   0.277   1.166 -0.0399  0.5954 -1.9134
  164SOL    HW2  492   3.085   0.353   1.316  0.9632  1.0621  0.0130
  165SOL     OW  493   0.986   1.456   0.665  0.1650  0.3896 -0.2315
  165SOL    HW1  494   0.934   1.512   0.738  1.1784  0.9430  2.4850
  165SOL    HW2  495   0.957   1.467   0.566  1.7438  0.1455  0.9174
  166SOL     OW  496   1.428   1.048   1.755 -0.2410  0.3376 -0.1238
  166SOL    HW1  497   1.341   1.008   1.806 -4.0083 -2.4707  1.7555
  166SOL    HW2  498   1.505   1.082   1.819  2.2638 -1.6199 -1.4515
  167SOL     OW  499   0.887   1.911   1.552  0.3163  0.4352 -0.1915
  167SOL    HW1  500   0.864   1.981   1.629 -0.3023  0.4367 -1.7014
  167SOL    HW2  501   0.804   1.856   1.521  0.7514 -0.0680 -1.4087
  168SOL     OW  502   1.512   2.374   0.145  0.6945  0.5302  0.3357
  168SOL    HW1  503   1.569   2.405   0.065 -0.0826 -0.7247  1.0485
  168SOL    HW2  504   1.573   2.328   0.217 -0.5810 -1.5129 -1.6419
  169SOL     OW  505   0.177   2.569   2.180 -0.1324 -0.0532  0.4884
  169SOL    HW1  506   0.256   2.525   2.131 -0.8120  1.1445 -0.5411
  169SOL    HW2  507   0.171   2.537   2.281  2.3954 -0.8856 -0.6636
  170SOL     OW  508   1.263   0.296   1.891  0.0231 -0.3065  0.4631
  170SOL    HW1  509   1.310   0.264   1.976  1.7307 -1.5356 -0.0604
  170SOL    HW2  510   1.195   0.228   1.847  0.1552 -1.0612 -0.9521
  171SOL     OW  511   0.267   0.800   2.431  0.2688 -0.3049 -0.1417
  171SOL    HW1  512   0.162   0.809   2.465 -1.8610 -0.1288  2.0374
  171SOL    HW2  513   0.281   0.815   2.331  0.4581  0.5495 -1.0132
  172SOL     OW  514   0.904   1.127   2.931 -0.3527  0.1002  0.3135
  172SOL    HW1  515   1.001   1.141   2.967 -1.9826 -0.1495 -0.6094
  172SOL    HW2  516   0.899   1.074   2.837  0.9272  1.9550 -0.3670
  173SOL     OW  517   0.675   2.707   0.153  0.0468 -0.1944  0.3667
  173SOL    HW1  518   0.678   2.811   0.162 -0.6666 -1.2122 -2.3187
  173SOL    HW2  519   0.580   2.670   0.149  1.6854  0.0539  0.8089
  174SOL     OW  520   1.347   2.761   1.042  0.4151  0.1282 -0.0311
  174SOL    HW1  521   1.346   2.834   0.968  1.1100 -2.1987 -0.6401
  174SOL    HW2  522   1.285   2.686   1.019 -0.0312  1.0327  1.6060
  175SOL     OW  523   0.374  -0.004   1.696  0.3901 -0.3636 -0.1959
  175SOL    HW1  524   0.441   0.049   1.754  1.8120 -2.3045 -1.4531
  175SOL    HW2  525   0.293   0.057   1.663 -0.6641  0.3068 -1.5426
  176SOL     OW  526   2.567   0.372   3.046 -0.6299  0.2568  0.0053
  176SOL    HW1  527   2.567   0.442   3.125  2.3101  1.9267 -0.8643
  176SOL    HW2  528   2.486   0.303   3.043 -2.2995 -1.4817 -2.5814
  177SOL     OW  529   0.381   0.405   0.897  0.0733  0.2721  0.5015
  177SOL    HW1  530   0.450   0.343   0.943  1.4738  0.9165 -2.1525
  177SOL    HW2  531   0.313   0.449   0.962  0.6731 -0.9010 -0.4450
  178SOL     OW  532   3.087   2.731   2.596  0.7718  0.4376 -0.5428
  178SOL    HW1  533   3.021   2.680   2.654  1.6180 -0.0966 -1.8663
  178SOL    HW2  534   3.177   2.737   2.648  0.0702 -0.2654  1.9785
  179SOL     OW  535   0.019   1.698   1.154 -0.0310 -0.1931 -0.4229
  179SOL    HW1  536  -0.061   1.763   1.138  2.5518 -1.9557  1.8804
  179SOL    HW2  537   0.022   1.661   1.248 -2.2455  0.1185  0.4375
  180SOL     OW  538   0.188   1.248   1.833  0.0281  0.3456 -0.1177
  180SOL    HW1  539   0.284   1.262   1.806 -0.1589 -0.8889 -0.4479
  180SOL    HW2  540   0.150   1.314   1.907 -0.7339 -5.2783 -1.1109
  181SOL     OW  541   3.000   1.823   2.534  0.6925  0.4124 -0.1879
  181SOL    HW1  542   3.069   1.879   2.482 -2.0309  0.4091  3.2191
  181SOL    HW2  543   2.899   1.829   2.512 -4.4434 -1.9126 -0.0799
  182SOL     OW  544   2.321   1.234   1.219  0.2901 -0.6657 -0.6402
  182SOL    HW1  545   2.256   1.210   1.146  0.8190  1.1960  0.7109
  182SOL    HW2  546   2.335   1.337   1.221  1.1584 -1.2143 -0.7025
  183SOL     OW  547   1.487   2.254   2.523 -0.6226  0.6440  0.5855
  183SOL    HW1  548   1.409   2.196   2.559  1.9500 -2.4437 -1.6939
  183SOL    HW2  549   1.579   2.206   2.514  0.5264 -1.2599  0.9966
  184SOL     OW  550   2.062   0.925   0.753  0.0811  0.1884 -0.2491
  184SOL    HW1  551   1.973   0.975   0.752 -0.5754  1.3502 -0.8579
  184SOL    HW2  552   2.060   0.825   0.782  1.0042 -2.0001  0.5615
  185SOL     OW  553   1.668   2.734   2.101 -0.4808  0.0923 -0.1601
  185SOL    HW1  554   1.626   2.827   2.077  0.9147 -0.2247  0.3294
  185SOL    HW2  555   1.648   2.710   2.200 -1.6807 -1.2709  1.7243
  186SOL     OW  556   0.106   2.236   1.749 -0.0772 -0.5326  0.0866
  186SOL    HW1  557   0.153   2.327   1.730 -0.7637  1.1146  0.1261
  186SOL    HW2  558   0.175   2.155   1.751 -0.5564  0.5497  1.5568
  187SOL     OW  559   1.426   0.659   1.704  0.3523 -0.0953 -0.2103
  187SOL    HW1  560   1.462   0.728   1.635  0.1321  0.8319 -2.7366
  187SOL    HW2  561   1.417   0.702   1.797  0.3915  1.2624 -0.5586
  188SOL     OW  562   2.742   2.768   1.533 -0.0478  0.4430  0.2051
  188SOL    HW1  563   2.747   2.857   1.477 -1.4355 -0.0467  0.3400
  188SOL    HW2  564   2.727   2.688   1.466 -3.3660  1.1467 -0.8648
  189SOL     OW  565   0.763   1.004   1.474  0.3224  0.7462 -0.3374
  189SOL    HW1  566   0.846   1.067   1.461  1.1288 -1.3312  0.9167
  189SOL    HW2  567   0.742   0.939   1.393  0.0928 -1.1722 -2.1160
  190SOL     OW  568   1.469   1.710   1.629  0.3808 -0.3737 -0.4516
  190SOL    HW1  569   1.376   1.689   1.589  1.8915 -3.1693  0.4207
  190SOL    HW2  570   1.484   1.809   1.656 -1.5561 -2.1815 -2.3910
  191SOL     OW  571   1.005   0.801   1.549 -0.5374 -0.2000  0.4218
  191SOL    HW1  572   1.057   0.715   1.570 -0.9825 -1.1039 -3.1142
  191SOL    HW2  573   1.065   0.875   1.510  0.2164 -1.2175  0.4830
  192SOL     OW  574   1.866   2.276   1.222 -0.6849  0.4641 -0.6216
  192SOL    HW1  575   1.777   2.260   1.172  1.2021  0.5601  2.9008
  192SOL    HW2  576   1.946   2.295   1.157 -1.5757  0.1511 -0.6384
  193SOL     OW  577   0.529   0.564   0.326  0.0516  0.1132  0.6208
  193SOL    HW1  578   0.523   0.500   0.405  1.0821  2.0696 -1.4161
  193SOL    HW2  579   0.546   0.515   0.236 -0.6257 -1.0759 -0.8150
  194SOL     OW  580   0.279   0.849   1.262 -0.1654  0.3413 -0.3272
  194SOL    HW1  581   0.184   0.809   1.236  0.4361  0.8713 -0.9338
  194SOL    HW2  582   0.307   0.920   1.189  1.7334 -0.3077 -1.6459
  195SOL     OW  583   0.949   2.951   0.477 -0.0058  0.0555 -0.2646
  195SOL    HW1  584   0.961   2.860   0.429  2.1044  2.2027  2.0800
  195SOL    HW2  585   1.039   2.998   0.494 -3.0341 -0.0098  0.7392
  196SOL     OW  586   0.276   1.426   1.389  0.2966 -0.0822  0.1962
  196SOL    HW1  587   0.328   1.505   1.433 -1.4575 -0.0585  1.4477
  196SOL    HW2  588   0.262   1.348   1.454 -0.1219 -2.7531 -0.9441
  197SOL     OW  589   0.864   2.001   0.209  0.3944  0.0666  0.8130
  197SOL    HW1  590   0.880   1.985   0.309 -0.7085 -0.5180 -0.0384
  197SOL    HW2  591   0.940   1.958   0.150  0.8346 -2.5409  0.9444
  198SOL     OW  592   0.288   1.215   0.234  0.4629 -0.2050 -0.2121
  198SOL    HW1  593   0.185   1.223   0.242 -1.1138  1.3031  0.4909
  198SOL    HW2  594   0.339   1.299   0.257  2.0302 -2.9752 -0.2031
  199SOL     OW  595   2.255   0.395   2.527 -0.6304 -0.1753 -0.0694
  199SOL    HW1  596   2.192   0.344   2.593  1.1563  1.6586  2.7420
  199SOL    HW2  597   2.356   0.360   2.543 -1.1280  0.2860  0.1836
  200SOL     OW  598   3.095   2.876   0.784  0.1028  0.3016 -0.3500
  200SOL    HW1  599   3.015   2.897   0.717  0.9415 -2.9696 -1.0245
  200SOL    HW2  600   3.150   2.964   0.800  0.0830 -0.2641  0.3141
  201SOL     OW  601   1.149   0.698   0.533  0.5093  0.0155 -0.1305
  201SOL    HW1  602   1.163   0.787   0.590 -0.5651  1.7026  3.1368
  201SOL    HW2  603   1.052   0.684   0.505 -0.4552  0.6596 -0.9744
  202SOL     OW  604   0.451   1.256   1.732  0.3838  0.5585 -0.8419
  202SOL    HW1  605   0.474   1.261   1.630  1.1361  2.5425 -3.7245
  202SOL    HW2  606   0.483   1.163   1.773  0.1529  1.5025 -0.1710
  203SOL     OW  607   0.647   0.235   1.513  0.9439  0.0070  0.0417
  203SOL    HW1  608   0.671   0.174   1.431 -0.3060 -2.6727  1.0979
  203SOL    HW2  609   0.678   0.203   1.604 -0.2122 -2.1816 -2.6686
  204SOL     OW  610   2.089   1.871   3.033  0.3812 -0.4716 -0.1609
  204SOL    HW1  611   2.093   1.775   2.997  1.1201 -2.4479  2.2189
  204SOL    HW2  612   2.030   1.929   2.970 -0.4257  1.5311  2.3558
  205SOL     OW  613   1.852   1.855   0.104 -0.0598  0.3010  0.3221
  205SOL    HW1  614   1.950   1.860   0.062  3.9402  1.0935 -0.9683
  205SOL    HW2  615   1.785   1.925   0.062 -0.2177 -1.0704 -1.5616
  206SOL     OW  616   2.525   2.817   0.410  0.7731 -0.2457  0.0313
  206SOL    HW1  617   2.578   2.730   0.434  0.6535 -0.4748  0.8842
  206SOL    HW2  618   2.551   2.863   0.316  1.9878 -0.0202 -0.8690
  207SOL     OW  619   0.587   1.729   2.862  0.7942  0.4787 -0.3027
  207SOL    HW1  620   0.687   1.713   2.829  0.7539  1.4568  1.5805
  207SOL    HW2  621   0.561   1.672   2.946  0.1102 -0.3112 -1.5509
  208SOL     OW  622   0.998   1.464   1.421 -0.5355  0.4197  0.2556
  208SOL    HW1  623   0.930   1.510   1.358 -1.4589  1.8901 -0.6976
  208SOL    HW2  624   1.071   1.530   1.452  0.1539  0.6137 -1.2254
  209SOL     OW  625   0.170   0.929   3.060  0.8813  0.0336 -0.4667
  209SOL    HW1  626   0.235   0.905   2.979 -1.4148 -0.0849 -2.0662
  209SOL    HW2  627   0.195   0.884   3.147  1.3441 -1.0565 -1.5915
  210SOL     OW  628   1.710   0.499   1.142 -0.0597  0.5824 -0.3063
  210SOL    HW1  629   1.655   0.574   1.089  1.7808  0.3639  1.4567
  210SOL    HW2  630   1.809   0.498   1.116  0.0432 -2.1894 -0.9662
  211SOL     OW  631   2.107   1.030   1.677  0.3971  0.2000 -0.3957
  211SOL    HW1  632   2.145   0.970   1.755 -2.4679 -0.6792  3.1929
  211SOL    HW2  633   2.187   1.074   1.626 -2.6914 -1.1836  0.4273
  212SOL     OW  634   0.023   1.015   1.454 -0.2724 -0.2492 -0.0087
  212SOL    HW1  635   0.085   1.092   1.492 -1.0677 -2.9300  1.8540
  212SOL    HW2  636   0.040   0.928   1.509  1.7539 -0.9029  0.3919
  213SOL     OW  637   2.699   0.324   0.254  0.2915  0.5915  0.0808
  213SOL    HW1  638   2.785   0.276   0.225  1.0449  1.7404 -2.4729
  213SOL    HW2  639   2.690   0.413   0.206  1.8716 -1.9524  3.3825
  214SOL     OW  640   2.192   0.273   2.275  0.4111  0.5093 -0.4898
  214SOL    HW1  641   2.230   0.319   2.366 -0.9079 -0.0572  0.5629
  214SOL    HW2  642   2.143   0.182   2.293 -0.0815 -0.2644  0.2463
  215SOL     OW  643   1.657   2.309   2.065 -0.0626 -0.6549 -0.4634
  215SOL    HW1  644   1.752   2.347   2.043 -0.3031  2.8721  0.0561
  215SOL    HW2  645   1.613   2.372   2.141  0.8530  0.2730  1.1682
  216SOL     OW  646   2.242   0.536   0.643 -0.2173  0.2799  0.0285
  216SOL    HW1  647   2.203   0.469   0.577  2.1434 -0.4589  2.3651
  216SOL    HW2  648   2.267   0.632   0.597  0.2645  0.9426 -0.4866
  217SOL     OW  649   0.765   2.798   2.421  0.0578 -0.4976  0.3147
  217SOL    HW1  650   0.749   2.695   2.453  1.1698 -1.1246  0.6329
  217SOL    HW2  651   0.805   2.803   2.324  2.1216 -2.3745 -0.3474
  218SOL     OW  652   1.926   1.446   0.066  0.2658 -0.2230  0.3737
  218SOL    HW1  653   1.833   1.482   0.048 -0.4447  0.4494  0.1433
  218SOL    HW2  654   1.918   1.349   0.095 -3.5275  0.7927  0.7831
  219SOL     OW  655   2.381   1.330   2.560 -0.0999  0.2473  0.3803
  219SOL    HW1  656   2.441   1.307   2.476 -1.2450 -1.0400 -5.4513
  219SOL    HW2  657   2.374   1.247   2.622 -0.2829  1.5044 -1.8309
  220SOL     OW  658   1.427   1.046   1.262  0.6098  0.0882 -0.4151
  220SOL    HW1  659   1.508   1.026   1.319 -2.9839 -0.2543  4.9473
  220SOL    HW2  660   1.434   1.123   1.198  2.9555 -1.1080  0.2790
  221SOL     OW  661   1.293   1.173   2.143 -0.2595  0.2845  0.3608
  221SOL    HW1  662   1.249   1.249   2.091 -0.9515 -0.1636  1.6445
  221SOL    HW2  663   1.383   1.141   2.104  0.6591  1.4936 -0.3388
  222SOL     OW  664   1.280   0.080   1.137  0.0788 -0.2280 -0.2930
  222SOL    HW1  665   1.372   0.039   1.163 -0.8124 -0.3066  0.9776
  222SOL    HW2  666   1.264   0.170   1.187 -1.0667 -2.0368 -1.0835
  223SOL     OW  667   2.896   0.818   1.965 -0.1937  1.0269 -0.0369
  223SOL    HW1  668   2.907   0.816   2.070  0.2917  0.6159  0.4467
  223SOL    HW2  669   2.898   0.913   1.921  1.1736  1.2792 -1.1756
  224SOL     OW  670   1.561   0.987   2.784 -0.2561 -0.1826 -0.1126
  224SOL    HW1  671   1.547   0.930   2.701  2.2268 -2.8866 -2.6429
  224SOL    HW2  672   1.563   1.091   2.770  0.8637 -0.9357 -0.7378
  225SOL     OW  673   2.983   2.801   2.919 -0.5266  0.0613  0.0024
  225SOL    HW1  674   2.959   2.713   2.868 -2.3700  0.3555  0.3129
  225SOL    HW2  675   3.041   2.857   2.855  2.5934 -0.1669 -0.1738
  226SOL     OW  676   2.451   1.641   2.869 -0.0717 -0.5131  0.5317
  226SOL    HW1  677   2.503   1.601   2.789 -1.3662 -0.1916  0.8809
  226SOL    HW2  678   2.405   1.563   2.924  0.3875 -1.9587 -3.5937
  227SOL     OW  679   0.801   0.131   2.983  0.3547  0.0220  0.3928
  227SOL    HW1  680   0.861   0.093   3.057  0.5432 -1.2811 -1.3704
  227SOL    HW2  681   0.839   0.105   2.889 -0.2655 -1.6670 -1.0742
  228SOL     OW  682   2.366   0.574   2.794  0.1371  0.1810  0.0480
  228SOL    HW1  683   2.303   0.580   2.713  0.3758  1.7564  0.3996
  228SOL    HW2  684   2.421   0.485   2.796  0.7790 -2.4238 -0.1230
  229SOL     OW  685   0.585   0.499   1.864 -0.3334 -0.1051 -0.3239
  229SOL    HW1  686   0.628   0.513   1.770  0.1491 -0.0404  3.5406
  229SOL    HW2  687   0.654   0.539   1.935  2.0696  0.5926 -2.2556
  230SOL     OW  688   1.918   1.248   2.148  0.0675  0.2167 -0.6476
  230SOL    HW1  689   1.972   1.273   2.065 -1.2278 -2.5564  0.6964
  230SOL    HW2  690   1.822   1.286   2.135 -0.9786 -1.8651 -0.1159
  231SOL     OW  691   0.639   1.030   2.954  0.3494 -0.1084  0.2554
  231SOL    HW1  692   0.730   1.083   2.953  2.5872  1.7435  0.8096
  231SOL    HW2  693   0.600   1.029   3.050  1.1511 -1.4358  1.5714
  232SOL     OW  694   2.533   0.049   2.753 -0.3482 -0.0970  0.0943
  232SOL    HW1  695   2.577  -0.016   2.821  0.1528  0.8256 -0.8626
  232SOL    HW2  696   2.495   0.006   2.666  2.6977 -0.7031 -0.4976
  233SOL     OW  697   1.730   1.275   1.048 -0.3521  0.1589  0.0246
  233SOL    HW1  698   1.763   1.338   0.971 -0.0101 -1.9131  0.1056
  233SOL    HW2  699   1.783   1.186   1.054  1.2314 -0.3429 -1.7561
  234SOL     OW  700   1.623   2.637   1.842  0.0208 -0.2765 -0.1643
  234SOL    HW1  701   1.652   2.665   1.940  0.8273  0.4364 -0.7987
  234SOL    HW2  702   1.548   2.562   1.844  0.8608 -1.4828  0.8882
  235SOL     OW  703   0.054   3.007   2.838  0.6077  0.6169  0.6385
  235SOL    HW1  704   0.130   3.060   2.792  0.4622 -0.6057 -1.3265
  235SOL    HW2  705  -0.013   3.066   2.892  0.8327 -1.2084 -0.0768
  236SOL     OW  706   2.808   0.706   0.048 -0.2844 -0.2315  0.5879
  236SOL    HW1  707   2.879   0.764   0.090  0.6867 -2.1038  0.2455
  236SOL    HW2  708   2.843   0.623  -0.001 -0.1630  0.2593 -0.9846
  237SOL     OW  709   1.495   1.634   1.024 -0.3341 -0.6340  0.1552
  237SOL    HW1  710   1.597   1.617   1.049  0.9944 -0.7473 -2.1818
  237SOL    HW2  711   1.444   1.679   1.100  1.9312 -1.7956 -0.8031
  238SOL     OW  712   1.765   1.358   0.758 -0.3734 -0.2171  0.1289
  238SOL    HW1  713   1.854   1.353   0.701  1.0287  3.9627 -0.8645
  238SOL    HW2  714   1.689   1.411   0.710  1.7395 -2.1389 -2.3670
  239SOL     OW  715   2.104   0.247   2.717 -0.3390 -0.4106  0.2211
  239SOL    HW1  716   2.195   0.237   2.772  0.7046  0.0367 -0.1579
  239SOL    HW2  717   2.033   0.308   2.766 -0.1475 -0.1673 -2.8482
  240SOL     OW  718   0.854   0.699   0.209 -0.1031  0.3006  0.0647
  240SOL    HW1  719   0.838   0.609   0.160 -0.9689  0.3484  4.5792
  240SOL    HW2  720   0.843   0.677   0.311  0.7282 -1.7191  2.7441
  241SOL     OW  721   0.570   0.024   0.309 -0.5513 -0.0558  0.6591
  241SOL    HW1  722   0.596  -0.013   0.216  0.3807 -0.4559 -1.9117
  241SOL    HW2  723   0.491  -0.025   0.356  1.4960  2.3816 -2.4240
  242SOL     OW  724   0.691   2.400   1.114  0.0802 -0.0282  0.3816
  242SOL    HW1  725   0.648   2.473   1.179 -1.6746  1.5435  1.5636
  242SOL    HW2  726   0.786   2.423   1.078 -0.2654  0.9490  2.2650
  243SOL     OW  727   1.081   0.616   2.429  0.2510  0.2062 -0.7931
  243SOL    HW1  728   1.020   0.697   2.399 -0.3970  1.6193 -3.4307
  243SOL    HW2  729   1.035   0.550   2.493 -2.2243 -0.0346 -0.7447
  244SOL     OW  730   2.772   1.937   2.404 -0.5734 -0.3078  1.1207
  244SOL    HW1  731   2.810   1.947   2.308 -1.6351  0.1550  1.8370
  244SOL    HW2  732   2.678   1.883   2.405 -3.5882  1.2318  0.0841
  245SOL     OW  733   2.459   0.747   2.147 -0.1179  0.1572 -0.9530
  245SOL    HW1  734   2.505   0.795   2.228  0.7925  0.2127 -3.1284
  245SOL    HW2  735   2.515   0.675   2.107 -1.9311 -1.2086  1.1839
  246SOL     OW  736   0.219   2.880   1.728  0.4076  0.1924 -0.1084
  246SOL    HW1  737   0.158   2.874   1.643 -0.9920 -0.4492 -0.7497
  246SOL    HW2  738   0.278   2.967   1.719 -1.0277 -1.0797 -0.1643
  247SOL     OW  739   2.191   0.536   3.000 -0.2042  0.4111  0.0320
  247SOL    HW1  740   2.254   0.554   2.916 -0.0485 -0.3007 -0.5800
  247SOL    HW2  741   2.115   0.601   3.011  1.0816  0.1295 -1.3582
  248SOL     OW  742   2.186   1.894   1.640  0.4275 -0.5029  0.5654
  248SOL    HW1  743   2.212   1.797   1.667 -1.2322 -0.3769 -0.9028
  248SOL    HW2  744   2.088   1.917   1.665  0.9205  0.4506  0.1599
  249SOL     OW  745   1.990   1.923   1.943 -0.4337  0.1487  0.0107
  249SOL    HW1  746   1.959   1.842   1.886  0.4765  0.1204 -0.4397
  249SOL    HW2  747   2.080   1.962   1.923 -1.1215  0.8772  0.1923
  250SOL     OW  748   0.997   0.634   1.879  0.1211  0.1103  0.1977
  250SOL    HW1  749   1.065   0.602   1.949 -0.2106 -0.7300 -1.7975
  250SOL    HW2  750   1.025   0.602   1.783  1.5534  0.9188  1.5477
  251SOL     OW  751   3.018   1.553   2.576  0.3246  0.1607  0.3845
  251SOL    HW1  752   3.011   1.651   2.542  0.5092 -1.5553  0.4760
  251SOL    HW2  753   2.929   1.500   2.570  1.4095  0.5571 -2.6311
  252SOL     OW  754   1.546   0.889   1.578 -0.1962 -0.4006 -0.5721
  252SOL    HW1  755   1.593   0.960   1.515  0.7107  0.5847 -1.0971
  252SOL    HW2  756   1.501   0.938   1.656  0.7476  2.0973 -1.5776
  253SOL     OW  757   0.994   1.508   0.387  0.3952 -0.4502 -0.1409
  253SOL    HW1  758   1.053   1.440   0.328  1.0017 -0.0871  3.2967
  253SOL    HW2  759   0.904   1.520   0.336 -3.2690 -0.1482 -0.6013
  254SOL     OW  760   1.993   2.152   1.600  0.1035 -0.1026  0.2295
  254SOL    HW1  761   1.941   2.106   1.524  1.0403 -0.2160  0.0496
  254SOL    HW2  762   1.969   2.122   1.697  0.4421  0.5196 -1.3887
  255SOL     OW  763   0.081   1.156   2.887 -0.4253 -0.1144  0.3027
  255SOL    HW1  764   0.127   1.245   2.927 -0.0167 -0.8421 -1.1104
  255SOL    HW2  765   0.127   1.075   2.930 -0.4025  0.8598 -1.4073
  256SOL     OW  766   2.771   1.336   1.862  1.0064  0.6551 -0.1644
  256SOL    HW1  767   2.724   1.420   1.827  2.5425 -0.6604 -0.2510
  256SOL    HW2  768   2.706   1.255   1.893 -0.1530 -0.0356 -1.6874
  257SOL     OW  769   0.851   0.240   1.901  0.6812  0.1084  0.5931
  257SOL    HW1  770   0.887   0.290   1.816 -0.5663  1.3693 -0.7754
  257SOL    HW2  771   0.859   0.136   1.893 -1.1848 -0.4412 -2.3780
  258SOL     OW  772   2.951   1.251   0.417 -0.0925  0.3535  0.1541
  258SOL    HW1  773   2.895   1.338   0.398 -1.2945  0.1756  1.1019
  258SOL    HW2  774   2.998   1.254   0.516  1.6632  1.1910  0.0513
  259SOL     OW  775   0.488   2.906   2.999 -0.8061  0.7697  0.3361
  259SOL    HW1  776   0.448   2.835   3.063  1.2461 -2.8682  0.5030
  259SOL    HW2  777   0.499   2.862   2.904 -2.0122 -0.8118 -1.7172
  260SOL     OW  778   2.641   0.714   2.747 -0.0453  0.0204  0.6555
  260SOL    HW1  779   2.581   0.791   2.712  0.2431 -1.1514 -0.5428
  260SOL    HW2  780   2.586   0.627   2.765 -1.6748  0.0539 -0.0313
  261SOL     OW  781   2.713   1.327   1.301  0.4841  0.4311  0.0693
  261SOL    HW1  782   2.672   1.242   1.255  2.2609  1.7028 -0.8625
  261SOL    HW2  783   2.819   1.319   1.304 -0.1292  2.2768 -0.0914
  262SOL     OW  784   1.478   2.930   2.037  0.3461 -0.0679  0.3201
  262SOL    HW1  785   1.466   3.004   1.963 -1.6132 -0.0655 -1.7851
  262SOL    HW2  786   1.419   2.846   2.014 -0.1765  0.4184  2.4229
  263SOL     OW  787   0.879   0.778   2.348  0.9761  0.6204 -0.0552
  263SOL    HW1  788   0.819   0.692   2.334 -0.3158 -0.5934 -1.7932
  263SOL    HW2  789   0.871   0.850   2.270  1.0096  1.3738 -1.6205
  264SOL     OW  790   2.273   0.762   0.521  0.3382  0.3487 -0.2215
  264SOL    HW1  791   2.185   0.773   0.461  1.1550 -2.5656  0.1528
  264SOL    HW2  792   2.341   0.839   0.518  0.2048 -1.7178  1.7902
  265SOL     OW  793   0.853   2.332   2.706  0.1322 -0.0427  0.0625
  265SOL    HW1  794   0.904   2.407   2.762 -0.3685  0.8986 -0.3790
  265SOL    HW2  795   0.838   2.252   2.764 -0.4853  1.8947 -1.7873
  266SOL     OW  796   1.335   1.730   0.030  0.4828 -0.2915  0.0335
  266SOL    HW1  797   1.311   1.817   0.083 -1.0225  1.7007  1.5999
  266SOL    HW2  798   1.431   1.692   0.043  2.7977  0.4579  1.6107
  267SOL     OW  799   1.071   0.035   2.342 -0.3478 -0.0804  0.2856
  267SOL    HW1  800   1.090  -0.051   2.288 -2.6971  1.8088 -0.4574
  267SOL    HW2  801   1.005   0.101   2.299 -0.0111 -0.1285  0.2898
  268SOL     OW  802   0.608   1.124   1.042  0.4982  0.1118 -0.6876
  268SOL    HW1  803   0.621   1.185   1.129  0.7392 -0.4913 -1.0825
  268SOL    HW2  804   0.631   1.171   0.953 -0.1941 -0.2065 -0.9242
  269SOL     OW  805   2.462   2.564   1.574 -0.2250  0.0780  0.1616
  269SOL    HW1  806   2.542   2.500   1.587 -0.4992  0.8389  0.4525
  269SOL    HW2  807   2.420   2.590   1.666  1.1549  1.2870 -2.0475
  270SOL     OW  808   0.247   2.817   2.029 -0.6483  1.2109 -0.1551
  270SOL    HW1  809   0.221   2.803   1.930  0.0621  0.3254  0.0473
  270SOL    HW2  810   0.187   2.770   2.098 -0.3028  2.4475  0.7349
  271SOL     OW  811   0.416   1.386   1.166  0.8414  0.0313  0.4542
  271SOL    HW1  812   0.381   1.404   1.070  0.0125  2.7212 -0.3238
  271SOL    HW2  813   0.345   1.422   1.239 -1.5713  0.4600  0.0437
  272SOL     OW  814   1.964   2.857   1.913 -0.6563  0.0982 -0.2948
  272SOL    HW1  815   1.882   2.857   1.845 -0.5432  1.9022  0.0632
  272SOL    HW2  816   2.049   2.905   1.876 -0.8824  1.3766  1.5564
  273SOL     OW  817   1.414   1.451   2.864  0.4521  0.0181 -0.1075
  273SOL    HW1  818   1.504   1.461   2.917  0.6493  0.5610  1.3575
  273SOL    HW2  819   1.333   1.470   2.928  0.4586  0.4393  0.0871
  274SOL     OW  820   1.168   0.498   2.038  0.2007  0.6361  0.1556
  274SOL    HW1  821   1.194   0.418   1.983  1.4872 -0.3409  0.2484
  274SOL    HW2  822   1.225   0.505   2.125  0.4529  1.9593 -3.5328
  275SOL     OW  823   0.636   2.073   1.928  0.0447 -0.4909  0.4114
  275SOL    HW1  824   0.611   2.172   1.951 -3.1324  1.9756  0.5607
  275SOL    HW2  825   0.550   2.010   1.925 -1.0418 -0.1239 -3.3061
  276SOL     OW  826   2.160   0.994   2.803 -0.0900 -0.0640  0.5112
  276SOL    HW1  827   2.096   1.000   2.718 -1.5603 -0.7901 -0.2713
  276SOL    HW2  828   2.109   0.971   2.889  3.1200  0.3625 -1.8471
  277SOL     OW  829   3.003   0.823   0.204  0.8505 -0.0835  0.0059
  277SOL    HW1  830   3.093   0.858   0.168  1.4502  3.6686 -1.3349
  277SOL    HW2  831   3.007   0.726   0.243 -3.8577 -1.7138 -0.0409
  278SOL     OW  832   0.199   0.275   2.929 -0.1402 -0.1360  0.2818
  278SOL    HW1  833   0.216   0.195   2.995 -0.3688 -0.2063  0.2474
  278SOL    HW2  834   0.212   0.373   2.964  0.8232  2.0094  4.3501
  279SOL     OW  835   0.149   3.084   0.880  0.1550 -0.2575 -0.0364
  279SOL    HW1  836   0.185   3.108   0.974  2.4289 -0.2717 -0.3794
  279SOL    HW2  837   0.210   3.118   0.801  0.6086 -0.9214  1.2913
  280SOL     OW  838   1.650   2.938   2.516  0.2615  0.1648  0.1932
  280SOL    HW1  839   1.715   3.019   2.532  4.5025  1.5901 -0.4852
  280SOL    HW2  840   1.546   2.966   2.512 -3.2031  0.6871  2.2217
  281SOL     OW  841   0.638   0.931   2.351  0.0052 -0.0816  0.3850
  281SOL    HW1  842   0.584   0.853   2.306  1.1490 -1.0513  3.7853
  281SOL    HW2  843   0.699   0.899   2.430 -0.3645 -0.1298  2.1494
  282SOL     OW  844   1.640   2.474   0.558  0.2842 -0.3285  0.0766
  282SOL    HW1  845   1.631   2.415   0.474  0.4904 -0.5858 -0.6816
  282SOL    HW2  846   1.607   2.575   0.541  0.4042  0.3359  2.1071
  283SOL     OW  847   1.148   0.951   0.695  0.4196  0.8701 -0.2415
  283SOL    HW1  848   1.163   0.882   0.777  0.9268 -0.9752  0.1296
  283SOL    HW2  849   1.076   1.017   0.719  2.4088 -0.2119 -0.6019
  284SOL     OW  850   2.271   2.811   2.408  0.3570 -0.5759 -0.2604
  284SOL    HW1  851   2.353   2.863   2.454  3.0732  0.9874  1.2134
  284SOL    HW2  852   2.265   2.823   2.306 -2.1861  1.1448  1.4235
  285SOL     OW  853   1.403   3.055   2.544 -0.0771 -0.1555  0.1753
  285SOL    HW1  854   1.399   3.063   2.436 -1.0491 -1.5441  0.3268
  285SOL    HW2  855   1.324   3.102   2.587 -1.0311 -2.4690  0.5761
  286SOL     OW  856   0.424   0.488   0.643  0.3380 -0.4228  0.1821
  286SOL    HW1  857   0.417   0.462   0.743 -0.5767  1.0862  1.5653
  286SOL    HW2  858   0.414   0.413   0.574 -1.0861 -1.7714  1.1822
  287SOL     OW  859   0.071   1.341   2.512 -0.2164  0.1066 -0.1257
  287SOL    HW1  860   0.039   1.265   2.579 -1.0657 -1.4400  0.4824
  287SOL    HW2  861   0.023   1.429   2.528  0.1832 -0.5782 -0.7360
  288SOL     OW  862   1.581   2.631   1.473  0.0078  0.5438  0.8850
  288SOL    HW1  863   1.666   2.627   1.520 -1.6993 -1.3994 -2.1144
  288SOL    HW2  864   1.592   2.599   1.376  0.0457  1.2244 -2.3577
  289SOL     OW  865   0.679   2.716   0.814  0.4174 -0.5161 -0.6462
  289SOL    HW1  866   0.702   2.800   0.757  2.4867  1.7246  0.3105
  289SOL    HW2  867   0.703   2.732   0.914 -2.2793  0.9236 -0.9976
  290SOL     OW  868   2.962   1.231   1.657 -0.5212 -0.0010 -0.6096
  290SOL    HW1  869   2.881   1.254   1.720  1.2423  0.7141 -1.4232
  290SOL    HW2  870   3.034   1.175   1.700  0.5619  4.3235 -0.3280
  291SOL     OW  871   1.974   0.044   0.064  0.1637 -0.2366  0.0148
  291SOL    HW1  872   1.989   0.036   0.167  1.7277 -0.9101  0.3458
  291SOL    HW2  873   2.013   0.132   0.030 -0.5557  0.2773  1.0684
  292SOL     OW  874   2.968   1.181   3.049 -0.1226  0.6245 -0.2250
  292SOL    HW1  875   2.893   1.240   3.007  0.4748  0.6974 -0.9052
  292SOL    HW2  876   3.048   1.169   2.983 -0.9249  0.8014 -1.0717
  293SOL     OW  877   0.573   2.060   0.154 -0.2421  0.3526 -0.4623
  293SOL    HW1  878   0.538   2.126   0.223  1.4674  0.8398 -0.5743
  293SOL    HW2  879   0.672   2.039   0.174  0.1276  0.2467  1.7388
  294SOL     OW  880   1.686   2.143   1.837  0.1143  0.2964 -0.1823
  294SOL    HW1  881   1.690   2.209   1.920 -0.5109  1.6154 -0.5738
  294SOL    HW2  882   1.679   2.197   1.750 -1.9997  2.8794  0.0110
  295SOL     OW  883   0.941   1.146   0.415 -0.2168 -1.2585  0.3850
  295SOL    HW1  884   1.038   1.158   0.447 -2.2127 -2.6422 -0.7410
  295SOL    HW2  885   0.866   1.156   0.494 -0.6237 -1.0557  0.3576
  296SOL     OW  886   1.279   2.072   2.534  0.2260 -0.5098 -0.3259
  296SOL    HW1  887   1.259   2.137   2.453 -0.0577  3.6159 -0.5881
  296SOL    HW2  888   1.325   1.977   2.513 -1.0954 -1.0852  2.4683
  297SOL     OW  889   1.524   0.702   1.350 -0.0658 -0.1259  0.2792
  297SOL    HW1  890   1.598   0.633   1.335 -0.6120 -0.4094  0.8391
  297SOL    HW2  891   1.538   0.748   1.442  0.2978  0.0939  1.5488
  298SOL     OW  892   0.531   1.257   2.833 -0.1072 -0.4663 -0.0322
  298SOL    HW1  893   0.558   1.165   2.874  0.8327 -1.5244 -1.8352
  298SOL    HW2  894   0.589   1.281   2.752  0.3073 -0.1179 -0.5312
  299SOL     OW  895   0.384   0.339   1.442 -0.2179 -0.2319 -0.4690
  299SOL    HW1  896   0.383   0.422   1.378  1.8321  0.0200  1.4496
  299SOL    HW2  897   0.479   0.298   1.466  0.4525 -0.4113 -0.0745
  300SOL     OW  898   1.219   1.791   2.858  0.0655 -0.0311  0.3120
  300SOL    HW1  899   1.243   1.725   2.782 -0.8070 -1.2232 -0.2285
  300SOL    HW2  900   1.204   1.747   2.950 -1.3426  3.3544 -0.7681
  301SOL     OW  901   0.458   0.281   0.457 -0.3051  0.2864  0.3043
  301SOL    HW1  902   0.364   0.276   0.416  2.3730 -0.9372  0.4200
  301SOL    HW2  903   0.525   0.225   0.396  0.3441 -0.0549  1.4556
  302SOL     OW  904   1.222   2.298   2.326  0.2917  0.4869 -0.6180
  302SOL    HW1  905   1.151   2.365   2.373  1.0005 -0.0555  0.5022
  302SOL    HW2  906   1.175   2.218   2.282  0.4738 -2.8326 -0.7056
  303SOL     OW  907   0.931   2.380   0.796  0.1190 -0.1585 -0.1470
  303SOL    HW1  908   0.955   2.453   0.723 -0.3350  1.2718 -0.7594
  303SOL    HW2  909   0.933   2.421   0.893  0.5611 -2.6241  0.9528
  304SOL     OW  910   0.104   2.055   0.684  0.3788  0.4796 -0.2496
  304SOL    HW1  911   0.138   1.982   0.617  0.6265 -3.3406  1.2256
  304SOL    HW2  912   0.052   2.133   0.645  2.9824 -1.7881  1.7168
  305SOL     OW  913   1.627   0.881   0.694 -0.1390 -0.1818 -0.2842
  305SOL    HW1  914   1.561   0.871   0.617  1.0581  2.3881  1.1161
  305SOL    HW2  915   1.693   0.801   0.689  2.1241  1.6410  0.3397
  306SOL     OW  916   0.445   1.855   1.917  0.1917  0.4297 -0.2744
  306SOL    HW1  917   0.508   1.787   1.872  0.1043 -2.4239 -0.2275
  306SOL    HW2  918   0.410   1.818   2.009  2.0765 -1.2552 -0.5610
  307SOL     OW  919   0.030   0.848   2.539 -0.1354 -0.4555  0.2568
  307SOL    HW1  920   0.041   0.952   2.546  2.3201  0.6328 -0.2136
  307SOL    HW2  921  -0.058   0.803   2.572 -0.7834 -1.9894 -0.1912
  308SOL     OW  922   1.576   2.674   2.822  0.1576 -1.0211  0.5608
  308SOL    HW1  923   1.599   2.651   2.722 -0.0597 -1.8161 -1.0883
  308SOL    HW2  924   1.498   2.620   2.852  0.1298  4.5493 -1.6218
  309SOL     OW  925   1.234   0.020   1.770 -0.1867  0.0170 -0.6423
  309SOL    HW1  926   1.326   0.025   1.827  0.8137 -0.2786  1.8375
  309SOL    HW2  927   1.258   0.035   1.668 -1.1805  0.1585  0.7721
  310SOL     OW  928   1.318   2.677   0.726  0.4578 -0.4116 -0.3801
  310SOL    HW1  929   1.236   2.738   0.734 -0.0865 -1.1542 -2.1905
  310SOL    HW2  930   1.389   2.728   0.677 -0.7890  2.5244  2.3745
  311SOL     OW  931   1.209   0.945   1.443 -0.0154  0.4769  0.2050
  311SOL    HW1  932   1.296   0.896   1.420  2.2929  0.1220  2.9319
  311SOL    HW2  933   1.225   1.042   1.458  1.3421 -3.3078 -0.7267
  312SOL     OW  934   1.576   0.687   1.000  0.4982  0.0805 -0.7154
  312SOL    HW1  935   1.560   0.790   1.007  0.5493  0.2423 -0.3992
  312SOL    HW2  936   1.495   0.633   0.958  0.9391  0.0808  0.5611
  313SOL     OW  937   1.569   1.447   0.577 -0.0395 -0.0710  0.6872
  313SOL    HW1  938   1.491   1.489   0.523  1.2677  0.4691  0.4826
  313SOL    HW2  939   1.596   1.354   0.534 -0.8814  1.2624 -0.2328
  314SOL     OW  940   2.954   0.050   2.989  0.6451 -0.1793 -0.7464
  314SOL    HW1  941   2.927   0.102   3.075  0.5727 -0.3426  1.2586
  314SOL    HW2  942   2.894  -0.032   2.978  0.9523 -0.3093  0.9827
  315SOL     OW  943   1.250   0.232   2.784 -0.2888  0.2131 -0.0219
  315SOL    HW1  944   1.223   0.163   2.708 -0.1578 -0.0448 -0.5129
  315SOL    HW2  945   1.257   0.188   2.876  3.0610  1.7118 -0.0525
  316SOL     OW  946   1.667   2.079   0.899 -0.0784  0.4997 -0.2240
  316SOL    HW1  947   1.640   2.086   1.003  1.4003 -1.0873 -1.5624
  316SOL    HW2  948   1.685   2.169   0.850 -0.1358  1.3676 -2.4749
  317SOL     OW  949   1.158   0.711   2.839  0.4376 -0.0532  0.1857
  317SOL    HW1  950   1.100   0.751   2.915  1.3735  1.4164  1.3842
  317SOL    HW2  951   1.123   0.619   2.803  1.4677 -0.0499 -0.7303
  318SOL     OW  952   1.411   3.065   2.282  0.3445 -0.3063  0.1627
  318SOL    HW1  953   1.373   3.146   2.229  0.3716  2.2051 -4.3241
  318SOL    HW2  954   1.448   2.994   2.211  1.2692 -0.4582 -2.0502
  319SOL     OW  955   0.625   2.373   2.944  0.1422  0.3220  0.0483
  319SOL    HW1  956   0.549   2.329   3.005 -2.2968 -0.9904 -1.8696
  319SOL    HW2  957   0.694   2.300   2.909  3.1173 -0.0636  1.0526
  320SOL     OW  958   1.609   2.269   0.365  0.3559 -0.2467 -0.2209
  320SOL    HW1  959   1.696   2.219   0.385  0.0825  0.1941 -0.2872
  320SOL    HW2  960   1.530   2.236   0.418 -1.9483 -0.6147 -1.7724
  321SOL     OW  961   1.587   2.727   0.526 -0.3984 -0.8390  0.0984
  321SOL    HW1  962   1.518   2.791   0.485  2.1789 -3.6078 -1.6410
  321SOL    HW2  963   1.667   2.776   0.570  0.1308  0.8264 -1.7428
  322SOL     OW  964   2.649   1.104   2.242 -0.6168  0.5548  0.3557
  322SOL    HW1  965   2.739   1.116   2.288 -3.5719 -3.1649 -0.3094
  322SOL    HW2  966   2.604   1.019   2.288  0.0452  0.3165  0.1843
  323SOL     OW  967   1.023   2.699   0.853 -0.5095  0.1513 -0.1831
  323SOL    HW1  968   1.009   2.654   0.761 -1.8479 -0.2248  0.0717
  323SOL    HW2  969   1.007   2.805   0.858  0.9761 -0.1917  0.1111
  324SOL     OW  970   0.112   2.488   2.447  0.0113 -0.3275 -0.0962
  324SOL    HW1  971   0.092   2.408   2.510  1.1015  1.6571  0.0896
  324SOL    HW2  972   0.043   2.562   2.468  0.1299 -1.9770 -0.0405
  325SOL     OW  973   1.184   3.069   0.469 -0.3657 -0.1159  0.0062
  325SOL    HW1  974   1.219   3.105   0.379  1.2033  3.1123 -0.4785
  325SOL    HW2  975   1.204   3.130   0.553  1.1300  2.3745  0.8442
  326SOL     OW  976   2.382   0.751   0.013  0.6918 -0.1038 -0.3426
  326SOL    HW1  977   2.282   0.761   0.003  0.0859  0.0271 -0.5766
  326SOL    HW2  978   2.411   0.653   0.026 -0.9555 -0.7154  0.7887
  327SOL     OW  979   2.727   0.418   0.536  0.7667  0.5897  0.0997
  327SOL    HW1  980   2.707   0.387   0.438 -1.3778  0.0040  0.8065
  327SOL    HW2  981   2.654   0.384   0.599  0.5194 -0.0186  0.0336
  328SOL     OW  982   2.475   0.606   0.413 -0.0420 -0.5505  0.4641
  328SOL    HW1  983   2.388   0.653   0.434  0.0770  0.5251  0.2983
  328SOL    HW2  984   2.535   0.575   0.490 -1.0950 -2.6849  0.6237
  329SOL     OW  985   2.993   2.974   2.159  0.1119  0.5438  0.0623
  329SOL    HW1  986   3.054   2.904   2.209 -2.0348 -1.1284  0.4849
  329SOL    HW2  987   3.032   3.066   2.155 -0.0516 -0.1605  0.2464
  330SOL     OW  988   0.550   0.180   1.866 -0.5435 -0.1323  0.3681
  330SOL    HW1  989   0.603   0.262   1.829  0.7477 -1.4613 -1.1979
  330SOL    HW2  990   0.609   0.132   1.939 -2.4395 -1.3226 -0.2114
  331SOL     OW  991   2.937   1.914   1.120  0.1210  0.0926  0.0535
  331SOL    HW1  992   3.002   1.978   1.064  2.3522  0.9211  0.3516
  331SOL    HW2  993   2.885   1.962   1.195 -0.3161  0.5773  1.2720
  332SOL     OW  994   0.421   1.059   0.066 -0.5173  0.3517  0.1580
  332SOL    HW1  995   0.348   1.015   0.009 -1.2886  1.0753  1.2953
  332SOL    HW2  996   0.381   1.134   0.130 -2.5047  2.8441  1.5956
  333SOL     OW  997   2.845   1.047   0.263 -0.3472 -0.6502  0.1389
  333SOL    HW1  998   2.888   1.103   0.340 -0.5007 -0.8692 -1.8179
  333SOL    HW2  999   2.915   0.980   0.223 -0.4076  0.4962 -0.2169
  334SOL     OW 1000   1.644   1.154   1.897  0.4250  0.3507  0.1507
  334SOL    HW1 1001   1.738   1.129   1.865  1.6871 -0.9816 -0.7095
  334SOL    HW2 1002   1.655   1.235   1.956  3.7103 -1.4092 -2.2180
  335SOL     OW 1003   1.973   2.801   2.615  0.0015 -0.4281 -0.0208
  335SOL    HW1 1004   1.891   2.822   2.674  2.9927 -0.4061 -0.8913
  335SOL    HW2 1005   2.062   2.830   2.660 -3.2603  1.9601 -0.1771
  336SOL     OW 1006   0.234   0.097   2.743 -0.0972  0.0320  0.3542
  336SOL    HW1 1007   0.334   0.085   2.716  1.8958 -0.1915  0.7424
  336SOL    HW2 1008   0.228   0.180   2.808  3.4343  1.3070 -0.3816
  337SOL     OW 1009   0.935   2.818   2.837 -0.3552  0.0630 -0.1893
  337SOL    HW1 1010   0.917   2.827   2.938 -0.2287 -0.3683  1.8962
  337SOL    HW2 1011   1.019   2.764   2.814 -0.5243 -0.7542 -1.0094
  338SOL     OW 1012   0.032   1.021   0.608 -0.7201  0.2192  0.1077
  338SOL    HW1 1013  -0.067   1.008   0.635  1.1476  3.6018 -1.5074
  338SOL    HW2 1014   0.055   1.120   0.631 -0.3061 -0.0917  0.8895
  339SOL     OW 1015   1.676   1.367   2.081 -0.3316  0.3506 -0.0134
  339SOL    HW1 1016   1.573   1.394   2.086 -0.2969  1.9496 -1.3902
  339SOL    HW2 1017   1.730   1.447   2.039 -1.6045 -0.1090  1.1529
  340SOL     OW 1018   2.329   0.752   1.195 -0.2362  0.4648 -0.5222
  340SOL    HW1 1019   2.231   0.783   1.206 -0.1886 -0.4047 -0.2430
  340SOL    HW2 1020   2.331   0.669   1.133 -0.7578  0.8379 -0.1101
  341SOL     OW 1021   1.884   2.153   0.436 -0.1861  0.0672 -0.8992
  341SOL    HW1 1022   1.927   2.176   0.344  1.2341 -0.0419 -0.6651
  341SOL    HW2 1023   1.946   2.170   0.521  1.9967 -1.4473  3.3302
  342SOL     OW 1024   2.202   2.148   2.762  0.0019 -0.5663 -0.6027
  342SOL    HW1 1025   2.275   2.088   2.797 -0.2378 -2.0985  0.0756
  342SOL    HW2 1026   2.110   2.112   2.802 -0.4102  1.0402 -2.0717
  343SOL     OW 1027   0.340   0.889   2.843  0.0618 -0.1572 -0.1747
  343SOL    HW1 1028   0.335   0.958   2.765  1.3421 -2.1716  2.5923
  343SOL    HW2 1029   0.433   0.851   2.867 -0.7375 -1.2069  3.2144
  344SOL     OW 1030   1.929   1.508   0.361  1.0507  0.1957  0.0458
  344SOL    HW1 1031   1.945   1.448   0.278  1.8890  2.5514 -0.8371
  344SOL    HW2 1032   1.837   1.554   0.364 -2.1101 -4.4149  2.6208
  345SOL     OW 1033   1.402   2.191   2.834 -0.0909  0.0805 -0.2140
  345SOL    HW1 1034   1.322   2.135   2.801 -0.8653  0.3458  0.4016
  345SOL    HW2 1035   1.495   2.157   2.799 -0.5460  0.2110 -2.1252
  346SOL     OW 1036   2.410   0.899   1.423 -0.0358  0.2133  0.5497
  346SOL    HW1 1037   2.371   0.982   1.473 -2.2300 -0.2138  0.8033
  346SOL    HW2 1038   2.366   0.885   1.329 -1.1550 -1.3426  1.6488
  347SOL     OW 1039   0.704   2.819   1.518 -0.6119  0.3211 -0.2743
  347SOL    HW1 1040   0.695   2.753   1.600  0.3470  0.0234  0.1766
  347SOL    HW2 1041   0.630   2.888   1.524 -1.3634 -0.5258 -1.1694
  348SOL     OW 1042   0.084   0.709   2.851  0.3164  0.3871  0.4136
  348SOL    HW1 1043  -0.010   0.720   2.800  0.7076 -0.1067 -2.2695
  348SOL    HW2 1044   0.163   0.742   2.793  0.0990  0.5329 -0.1428
  349SOL     OW 1045   1.908   0.412   2.819 -0.1764 -0.1816  0.0068
  349SOL    HW1 1046   1.927   0.505   2.777  1.5563 -1.0172  0.1616
  349SOL    HW2 1047   1.835   0.426   2.895 -1.9295 -0.8492 -0.3140
  350SOL     OW 1048   1.649   0.386   0.381  0.2792  0.3927 -0.0977
  350SOL    HW1 1049   1.699   0.388   0.468 -0.8108  3.0383 -2.3401
  350SOL    HW2 1050   1.620   0.479   0.345  0.0588 -0.8146  1.7487
  351SOL     OW 1051   0.888   0.919   2.117 -0.4109 -0.7433 -0.8821
  351SOL    HW1 1052   0.916   1.014   2.088 -0.0799  0.0455 -3.0990
  351SOL    HW2 1053   0.849   0.857   2.043  0.4547  0.1889 -0.5895
  352SOL     OW 1054   1.984   1.380   0.602  0.3198 -0.1299  0.4213
  352SOL    HW1 1055   1.955   1.437   0.517 -1.4461  1.9622 -1.0979
  352SOL    HW2 1056   2.078   1.406   0.627  2.2701 -2.1791 -1.5718
  353SOL     OW 1057   2.138   2.836   1.150 -0.0858  0.0493 -0.8996
  353SOL    HW1 1058   2.232   2.796   1.174  0.8813  1.3301 -1.1222
  353SOL    HW2 1059   2.080   2.768   1.095  0.4252 -0.7929  2.0071
  354SOL     OW 1060   0.274   1.385   2.894  0.0962  0.0860 -0.4644
  354SOL    HW1 1061   0.245   1.450   2.815  0.4028  2.2053  0.2500
  354SOL    HW2 1062   0.361   1.331   2.877 -1.9003  2.1306 -0.4306
  355SOL     OW 1063   0.459   1.491   0.577 -0.2635 -0.2104 -0.1568
  355SOL    HW1 1064   0.484   1.590   0.580 -3.7571  1.2833 -2.3010
  355SOL    HW2 1065   0.540   1.430   0.580  0.7784  2.1101 -0.1171
  356SOL     OW 1066   0.890   0.449   2.089 -0.1210 -0.2440  0.3606
  356SOL    HW1 1067   0.980   0.493   2.059  1.9513 -0.4255 -2.2409
  356SOL    HW2 1068   0.851   0.390   2.010  0.0137 -1.4635  1.2249
  357SOL     OW 1069   1.043   1.293   0.201 -0.2065  0.5462  0.1503
  357SOL    HW1 1070   0.985   1.297   0.114 -3.5566  2.2549 -1.6493
  357SOL    HW2 1071   1.004   1.229   0.279 -0.2139 -0.7756  2.2540
  358SOL     OW 1072   1.647   1.633   0.359  0.2575 -0.2343  0.5464
  358SOL    HW1 1073   1.585   1.554   0.375 -1.0753 -0.4367 -0.6859
  358SOL    HW2 1074   1.597   1.720   0.348 -0.8913 -0.4828  0.0109
  359SOL     OW 1075   1.561   2.719   0.183 -0.3778 -0.1406  0.3363
  359SOL    HW1 1076   1.578   2.635   0.124  0.2988 -1.1882 -0.6369
  359SOL    HW2 1077   1.458   2.728   0.198  2.7614  0.1162  0.4647
  360SOL     OW 1078   0.888   0.596   0.493 -0.5197 -0.2718  0.0813
  360SOL    HW1 1079   0.803   0.604   0.550  0.2890 -0.4978  1.2793
  360SOL    HW2 1080   0.904   0.494   0.463  1.8204 -2.4622  0.7279
  361SOL     OW 1081   1.249   1.401   0.658 -0.1932  0.2179  0.2204
  361SOL    HW1 1082   1.302   1.400   0.748 -0.4097 -0.1900  3.2807
  361SOL    HW2 1083   1.148   1.428   0.672  0.5153  3.1101  0.6165
  362SOL     OW 1084   1.391   1.763   0.799  0.2609  0.0298  0.3940
  362SOL    HW1 1085   1.406   1.714   0.889 -2.3594  0.8160 -1.0492
  362SOL    HW2 1086   1.474   1.819   0.766 -0.4469 -0.8150  0.3892
  363SOL     OW 1087   1.138   1.374   1.995 -0.2281  0.1851 -0.2795
  363SOL    HW1 1088   1.117   1.445   2.064 -0.7067 -0.8625 -1.1136
  363SOL    HW2 1089   1.187   1.408   1.908  2.2718 -0.0873  1.6089
  364SOL     OW 1090   0.594   2.352   1.957 -0.3245  0.4451 -0.6734
  364SOL    HW1 1091   0.496   2.391   1.964  0.0107  2.1256 -0.8128
  364SOL    HW2 1092   0.630   2.368   1.861  2.5035  0.8593 -0.0510
  365SOL     OW 1093   1.114   1.890   1.399 -0.7530  0.1270 -0.6673
  365SOL    HW1 1094   1.033   1.890   1.463 -1.0500 -0.0133 -0.5711
  365SOL    HW2 1095   1.111   1.815   1.325 -1.9270 -0.1344 -1.5007
  366SOL     OW 1096   2.803   2.061   0.478  0.2889 -0.0976  0.5686
  366SOL    HW1 1097   2.725   1.991   0.461 -1.0246 -1.3209 -1.6168
  366SOL    HW2 1098   2.893   2.028   0.445 -1.2414  2.3408 -0.5495
  367SOL     OW 1099   0.782   1.231   0.083 -0.0972  0.6443  0.5015
  367SOL    HW1 1100   0.799   1.131   0.117  2.5726  1.7295  4.3812
  367SOL    HW2 1101   0.777   1.254  -0.017  1.2097  1.7797  1.2036
  368SOL     OW 1102   1.565   0.517   0.667 -0.0481  0.1005 -0.1349
  368SOL    HW1 1103   1.517   0.562   0.586  0.8535  1.9252  0.8259
  368SOL    HW2 1104   1.660   0.483   0.646  0.1624 -0.4937 -2.9275
  369SOL     OW 1105   0.291   1.674   0.095  0.0390  0.3720  0.1985
  369SOL    HW1 1106   0.309   1.776   0.120 -1.6631 -2.7688 -1.7112
  369SOL    HW2 1107   0.203   1.634   0.129 -0.6876  3.1291 -3.0629
  370SOL     OW 1108   0.443   2.130   0.970 -0.0464  0.1072  0.0390
  370SOL    HW1 1109   0.465   2.225   0.936  0.0972  0.6143 -0.8157
  370SOL    HW2 1110   0.342   2.104   0.953 -0.2299 -0.7233  2.7679
  371SOL     OW 1111   2.915   2.222   2.769 -0.2946 -0.0805 -0.3168
  371SOL    HW1 1112   2.903   2.180   2.868 -0.8193  0.1834 -0.2663
  371SOL    HW2 1113   3.012   2.234   2.741 -0.7568 -1.5073 -0.8817
  372SOL     OW 1114   0.898   1.871   0.984  0.5008 -0.1404 -0.5130
  372SOL    HW1 1115   0.836   1.953   0.970  0.2640  1.6121 -0.0697
  372SOL    HW2 1116   0.975   1.875   0.916 -0.7619 -2.1884 -1.5455
  373SOL     OW 1117   1.961   2.002   0.937  0.3816  0.5274 -0.1587
  373SOL    HW1 1118   2.011   2.014   1.028  0.2584 -0.8253 -1.0841
  373SOL    HW2 1119   1.868   2.051   0.928 -0.0396  0.1214  1.1087
  374SOL     OW 1120   1.839   0.412   0.587  1.0474 -0.2529  0.2389
  374SOL    HW1 1121   1.838   0.363   0.684 -0.4218  2.3116  2.3705
  374SOL    HW2 1122   1.920   0.394   0.531 -1.9537  2.7474 -0.6584
  375SOL     OW 1123   2.460   2.277   1.080 -0.2556 -0.4585  0.2755
  375SOL    HW1 1124   2.483   2.223   0.994 -0.4912  2.1706  0.9058
  375SOL    HW2 1125   2.456   2.211   1.163  1.4860 -2.2180 -0.3761
  376SOL     OW 1126   3.075   0.636   1.429 -0.2966 -0.0644  0.6440
  376SOL    HW1 1127   3.135   0.673   1.507 -0.1721  0.7290 -2.1044
  376SOL    HW2 1128   2.978   0.666   1.440 -0.7040  1.3818 -0.6187
  377SOL     OW 1129   2.247   2.863   0.352  0.2578  0.5443  0.0293
  377SOL    HW1 1130   2.218   2.959   0.318 -2.9230  2.2337  1.8358
  377SOL    HW2 1131   2.340   2.856   0.397 -1.5133 -0.3716  1.8968
  378SOL     OW 1132   1.901   1.860   2.665 -0.1054  0.2747 -0.4830
  378SOL    HW1 1133   1.931   1.767   2.701 -0.1250  2.9852  3.0210
  378SOL    HW2 1134   1.870   1.855   2.565 -1.5344  0.6784  0.2861
  379SOL     OW 1135   0.875   0.095   2.707 -0.0279  0.0874 -0.1737
  379SOL    HW1 1136   0.841  -0.004   2.688 -0.7732 -2.1196 -3.4176
  379SOL    HW2 1137   0.803   0.163   2.677 -0.2067 -0.6451 -2.1604
  380SOL     OW 1138   1.536   1.179   0.553 -0.2342 -0.3014  0.3323
  380SOL    HW1 1139   1.462   1.106   0.556 -0.3384  0.8249 -1.5653
  380SOL    HW2 1140   1.558   1.221   0.648  2.3801  0.6319  2.0197
  381SOL     OW 1141   1.270   1.213   1.491 -0.1031 -0.2177  0.4158
  381SOL    HW1 1142   1.344   1.215   1.417 -0.2417 -1.2411 -0.6585
  381SOL    HW2 1143   1.303   1.222   1.587 -1.0662 -0.6946 -2.5169
  382SOL     OW 1144   1.767   0.805   0.286 -0.9576  0.3423  0.3234
  382SOL    HW1 1145   1.816   0.800   0.193 -1.3591 -0.9230  0.7974
  382SOL    HW2 1146   1.825   0.766   0.366  1.5969 -1.9128  0.9467
  383SOL     OW 1147   2.642   1.003   1.534 -1.1095  0.0394 -1.1796
  383SOL    HW1 1148   2.557   0.954   1.502  1.0136  0.9894  1.5267
  383SOL    HW2 1149   2.725   0.977   1.475  2.3443 -2.9370  0.9394
  384SOL     OW 1150   1.018   2.277   0.161 -0.1450 -0.6139 -0.1005
  384SOL    HW1 1151   0.928   2.334   0.176 -1.6749  2.9432 -2.3262
  384SOL    HW2 1152   1.019   2.197   0.218 -1.8877  2.1437  1.1993
  385SOL     OW 1153   3.020   2.057   1.693  0.5054 -0.3662 -0.1219
  385SOL    HW1 1154   3.065   2.145   1.694  0.4109 -1.3337  0.9893
  385SOL    HW2 1155   3.077   1.974   1.708 -0.1290  4.2836 -2.0552
  386SOL     OW 1156   0.457   1.079   0.428 -0.2345  0.5872  0.0074
  386SOL    HW1 1157   0.445   0.977   0.434  1.0254 -2.4648 -0.8465
  386SOL    HW2 1158   0.396   1.120   0.353 -1.0550  0.4839  0.7802
  387SOL     OW 1159   0.964   0.365   1.673  0.0993 -0.2008  0.1687
  387SOL    HW1 1160   1.039   0.438   1.681 -2.8571 -2.0399  0.9033
  387SOL    HW2 1161   0.983   0.288   1.602 -0.6458 -2.0489 -2.4161
  388SOL     OW 1162   1.244   2.580   1.765 -0.5828 -0.2161 -0.5780
  388SOL    HW1 1163   1.262   2.582   1.665  0.3951 -0.1340  1.1406
  388SOL    HW2 1164   1.291   2.500   1.807  0.1057  1.0810  1.7773
  389SOL     OW 1165   0.249   0.021   1.142 -0.5297 -0.5423 -0.5583
  389SOL    HW1 1166   0.221   0.012   1.245 -1.8349  0.4177 -0.6128
  389SOL    HW2 1167   0.316  -0.055   1.122  0.9188 -1.9499 -1.2335
  390SOL     OW 1168   1.033   0.829   1.241 -0.5003 -0.0395  0.7287
  390SOL    HW1 1169   1.133   0.818   1.215 -2.1787  0.4493  0.8241
  390SOL    HW2 1170   1.004   0.806   1.338 -3.1527 -1.2844  3.0512
  391SOL     OW 1171   2.143   1.181   1.014  0.2472 -0.2200 -0.0539
  391SOL    HW1 1172   2.058   1.118   1.023 -2.0747  0.9243  0.5478
  391SOL    HW2 1173   2.208   1.153   0.936 -0.8211 -0.7782 -0.0422
  392SOL     OW 1174   0.907   2.674   0.004 -0.3427 -0.2185 -0.3283
  392SOL    HW1 1175   0.825   2.686   0.063  1.5352 -1.9970 -0.7623
  392SOL    HW2 1176   0.990   2.725   0.034 -0.5009 -2.8044 -0.6832
  393SOL     OW 1177   0.342   0.566   1.991 -0.2321  0.2553  0.0604
  393SOL    HW1 1178   0.267   0.505   1.947 -0.7740  2.7064 -2.0990
  393SOL    HW2 1179   0.435   0.552   1.947 -0.5132  1.3406  2.4118
  394SOL     OW 1180   2.830   1.759   2.754 -0.4403  0.4415  0.2203
  394SOL    HW1 1181   2.923   1.770   2.700  2.9029  0.2576  0.7072
  394SOL    HW2 1182   2.791   1.854   2.777 -1.2319  0.7040 -0.0364
  395SOL     OW 1183   1.603   1.943   0.668  0.6034 -0.1976 -0.0506
  395SOL    HW1 1184   1.669   1.872   0.630 -1.9055  2.6095 -2.9028
  395SOL    HW2 1185   1.641   1.994   0.753 -0.4692  0.9220 -1.0783
  396SOL     OW 1186   2.774   2.027   1.298 -0.2527 -0.1105 -0.0688
  396SOL    HW1 1187   2.800   2.030   1.400 -0.5013  1.0906  1.2457
  396SOL    HW2 1188   2.674   2.037   1.284  0.5529  3.9801 -0.4958
  397SOL     OW 1189   0.992   2.128   0.660  0.0425 -0.0532 -0.6027
  397SOL    HW1 1190   0.911   2.075   0.618 -0.3534 -0.3774  0.1250
  397SOL    HW2 1191   0.974   2.222   0.688  1.4652 -1.8148  1.7093
  398SOL     OW 1192   2.168   0.018   1.088 -0.2741  0.1822  0.2540
  398SOL    HW1 1193   2.121  -0.072   1.086 -1.6830 -0.5138  1.3270
  398SOL    HW2 1194   2.102   0.104   1.092  0.6320  0.4024 -0.0236
  399SOL     OW 1195   2.873   2.606   2.760  0.2823  0.0109  0.7123
  399SOL    HW1 1196   2.844   2.562   2.666 -2.8918  1.8681 -2.1661
  399SOL    HW2 1197   2.850   2.545   2.843  0.9876  0.3973  0.6034
  400SOL     OW 1198   0.799   1.585   1.267  0.3632  0.1667 -0.1884
  400SOL    HW1 1199   0.764   1.636   1.354 -0.9318 -1.0095  0.3140
  400SOL    HW2 1200   0.765   1.628   1.177 -2.4661 -3.2097 -1.1863
  401SOL     OW 1201   1.861   0.093   1.306 -0.4794 -0.0724  0.2853
  401SOL    HW1 1202   1.916   0.118   1.392  2.3432  0.2306 -0.9905
  401SOL    HW2 1203   1.760   0.077   1.320  1.3462 -1.0686 -0.2193
  402SOL     OW 1204   1.345   0.196   3.035 -0.4397  0.4999  0.1740
  402SOL    HW1 1205   1.422   0.193   2.971 -3.1739 -1.7674  2.8587
  402SOL    HW2 1206   1.317   0.282   3.089  0.5175 -2.9203  0.8073
  403SOL     OW 1207   2.255   1.790   1.012 -0.2057 -0.3136  0.1010
  403SOL    HW1 1208   2.361   1.791   1.011 -1.5737  3.4491  0.4396
  403SOL    HW2 1209   2.213   1.874   1.054 -3.3535 -0.2727 -1.8466
  404SOL     OW 1210   0.207   2.448   2.752 -0.5060 -0.1648  0.1762
  404SOL    HW1 1211   0.306   2.423   2.729 -2.0284  2.3975  3.6485
  404SOL    HW2 1212   0.198   2.553   2.765 -0.0439  0.3321 -2.0395
  405SOL     OW 1213   0.226   2.496   0.573  0.3489 -0.6407 -0.0114
  405SOL    HW1 1214   0.229   2.449   0.482  0.3852  0.2390 -1.8413
  405SOL    HW2 1215   0.303   2.559   0.591 -0.5840 -0.8214  0.0172
  406SOL     OW 1216   0.012   1.559   2.982  0.1125 -0.4904  0.0677
  406SOL    HW1 1217   0.081   1.521   2.914  0.4790 -0.8558 -1.8318
  406SOL    HW2 1218   0.043   1.534   3.079 -0.4670 -2.0359 -0.5733
  407SOL     OW 1219   1.559   0.964   0.955 -0.1276 -0.2913  0.3362
  407SOL    HW1 1220   1.551   0.950   0.852  0.4846 -3.0334 -0.1273
  407SOL    HW2 1221   1.478   1.013   0.995 -0.6721  0.5264  0.3100
  408SOL     OW 1222   1.451   2.358   0.934  0.1906  0.3308 -0.3082
  408SOL    HW1 1223   1.541   2.357   0.884  3.2611  1.4704  1.0048
  408SOL    HW2 1224   1.412   2.449   0.947  1.0634 -0.4451 -1.6408
  409SOL     OW 1225   0.613   0.864   0.685 -0.4071  0.0007  0.2163
  409SOL    HW1 1226   0.533   0.855   0.623  2.6160 -1.1197  0.6792
  409SOL    HW2 1227   0.676   0.785   0.669 -0.1337  2.4785  1.6411
  410SOL     OW 1228   1.339   2.001   1.495 -0.4829  0.1875  0.0000
  410SOL    HW1 1229   1.314   2.080   1.561 -1.7827 -0.1941  1.4036
  410SOL    HW2 1230   1.258   1.934   1.466  1.3121  1.6943 -0.9135
  411SOL     OW 1231   2.358   1.855   0.058 -0.7530  0.1517 -0.1743
  411SOL    HW1 1232   2.272   1.857   0.003  2.0229 -0.9413 -0.9974
  411SOL    HW2 1233   2.444   1.881   0.004  0.4344  0.7655 -1.4264
  412SOL     OW 1234   1.553   2.408   2.279 -0.7405  0.1485  0.1064
  412SOL    HW1 1235   1.539   2.513   2.276 -0.7868 -0.0914 -0.1445
  412SOL    HW2 1236   1.498   2.368   2.359 -1.7772  4.3514  0.9483
  413SOL     OW 1237   3.029   0.285   2.877 -0.3539 -0.4902  0.4518
  413SOL    HW1 1238   2.981   0.206   2.929  1.8918  0.1014 -0.7223
  413SOL    HW2 1239   3.133   0.279   2.888  0.0271  0.6178 -0.4872
  414SOL     OW 1240   1.766   1.300   1.323  0.1553 -0.2684 -0.0798
  414SOL    HW1 1241   1.712   1.370   1.386 -2.4691  2.2437  3.1305
  414SOL    HW2 1242   1.737   1.305   1.223 -0.3882  0.1663  1.7918
  415SOL     OW 1243   0.301   2.267   0.721  0.7052 -0.0794  0.0392
  415SOL    HW1 1244   0.289   2.350   0.653 -0.9988  1.2548 -3.5284
  415SOL    HW2 1245   0.230   2.191   0.719  0.0651  1.2416 -1.4108
  416SOL     OW 1246   0.320   1.019   1.039  0.0728 -0.0183  0.4134
  416SOL    HW1 1247   0.278   0.994   0.951 -1.7056 -0.7659  3.3032
  416SOL    HW2 1248   0.391   1.098   1.035 -0.4106  1.7751  0.2060
  417SOL     OW 1249   2.181   2.331   1.875 -0.0552 -0.5266 -0.2641
  417SOL    HW1 1250   2.222   2.234   1.891  3.5206  1.0952  1.9117
  417SOL    HW2 1251   2.079   2.336   1.891 -1.2085  1.0072 -1.5134
  418SOL     OW 1252   1.118   0.466   1.380  0.3395 -0.7133 -0.1857
  418SOL    HW1 1253   1.030   0.444   1.328  1.6598 -0.5446 -2.1226
  418SOL    HW2 1254   1.196   0.468   1.315 -3.9840 -0.5134  3.5969
  419SOL     OW 1255   0.967   0.359   2.981  0.4048 -0.1252  0.4311
  419SOL    HW1 1256   1.015   0.400   2.898 -0.4543  0.6397  0.3100
  419SOL    HW2 1257   0.884   0.298   2.959  0.1322 -0.4252 -0.5432
  420SOL     OW 1258   0.184   2.280   0.362  0.2254  0.3175  0.3492
  420SOL    HW1 1259   0.171   2.243   0.265  2.0615  0.8698 -3.8912
  420SOL    HW2 1260   0.097   2.278   0.422 -1.2468  0.9452  0.2701
  421SOL     OW 1261   0.331   0.069   0.685  0.1896 -0.1566 -0.0579
  421SOL    HW1 1262   0.347   0.001   0.610 -1.0543 -0.7253  1.6924
  421SOL    HW2 1263   0.417   0.115   0.717 -1.3397  0.7413 -1.1240
  422SOL     OW 1264   0.942   2.519   1.043 -0.0679 -0.1559 -0.5921
  422SOL    HW1 1265   0.959   2.608   0.985  1.8961  0.8157  2.6978
  422SOL    HW2 1266   0.950   2.539   1.144 -1.1678  0.7079 -0.9201
  423SOL     OW 1267   0.056   0.728   1.187  0.0856 -0.0271  0.5961
  423SOL    HW1 1268   0.013   0.681   1.272 -0.2613 -1.1540 -0.2118
  423SOL    HW2 1269  -0.012   0.775   1.131  2.9311 -2.9415  1.7666
  424SOL     OW 1270   0.977   2.136   2.219  0.3175  0.2249 -0.3617
  424SOL    HW1 1271   0.929   2.142   2.126  0.9177 -1.1779  0.5287
  424SOL    HW2 1272   0.916   2.165   2.300 -0.3982  0.8525 -0.0214
  425SOL     OW 1273   2.006   1.439   1.081  0.2669 -0.1183 -0.0930
  425SOL    HW1 1274   2.027   1.339   1.083  2.9772  3.5279 -1.6502
  425SOL    HW2 1275   2.075   1.476   1.012 -0.3883  1.5405 -1.2518
  426SOL     OW 1276   1.571   1.541   1.402  0.2188 -0.1848  0.3350
  426SOL    HW1 1277   1.517   1.601   1.336  0.4151 -0.4494 -0.3684
  426SOL    HW2 1278   1.526   1.539   1.497 -1.5736 -0.7787  1.4471
  427SOL     OW 1279   1.922   2.342   2.038  0.2166  0.1443  0.2774
  427SOL    HW1 1280   1.991   2.281   2.091  0.2965 -1.3280 -0.9895
  427SOL    HW2 1281   1.944   2.442   2.034 -1.9934 -2.9312 -1.4417
  428SOL     OW 1282   0.935   3.074   0.082  0.3097 -0.2803  0.4502
  428SOL    HW1 1283   0.952   3.147   0.155  1.5474 -0.5374 -0.7375
  428SOL    HW2 1284   1.001   2.989   0.089  1.4438 -2.8317  0.5253
  429SOL     OW 1285   1.314   0.054   0.230  0.3415 -0.6367 -0.6285
  429SOL    HW1 1286   1.392   0.123   0.240  2.4092 -0.1456  0.1714
  429SOL    HW2 1287   1.305   0.023   0.134 -2.2348 -0.2387  2.2205
  430SOL     OW 1288   2.787   1.491   0.345  0.2146 -0.1547  0.5177
  430SOL    HW1 1289   2.791   1.572   0.274  3.0073  1.2553 -1.7913
  430SOL    HW2 1290   2.792   1.517   0.445 -0.5519 -1.1363 -1.4928
  431SOL     OW 1291   2.110   1.598   0.872 -0.4622 -0.0609 -0.0797
  431SOL    HW1 1292   2.172   1.665   0.921  0.1309 -2.0917 -1.3567
  431SOL    HW2 1293   2.012   1.632   0.874 -0.6950  0.7719 -0.1427
  432SOL     OW 1294   2.880   2.311   1.221  0.0286  1.2013  0.3415
  432SOL    HW1 1295   2.800   2.249   1.231 -1.0481  1.1856  2.5072
  432SOL    HW2 1296   2.923   2.330   1.309 -0.3216 -1.2973 -0.4593
  433SOL     OW 1297   1.857   0.268   0.814 -0.0638  0.1383  0.1019
  433SOL    HW1 1298   1.770   0.275   0.865  0.1035  3.2971 -0.0970
  433SOL    HW2 1299   1.929   0.216   0.865 -1.3247  1.2733 -2.1098
  434SOL     OW 1300   1.524   0.246   0.711  0.5241 -0.1559  0.0144
  434SOL    HW1 1301   1.519   0.346   0.686  1.6804  4.0149  2.4149
  434SOL    HW2 1302   1.551   0.233   0.814 -2.2205 -1.1837 -0.6495
  435SOL     OW 1303   1.427   1.473   2.096  0.2898  0.1069  0.3098
  435SOL    HW1 1304   1.389   1.470   2.189 -1.3432 -0.1247 -0.7615
  435SOL    HW2 1305   1.413   1.562   2.050  0.3133  1.5437  0.3495
  436SOL     OW 1306   1.644   2.687   2.382  0.4167 -0.1477 -0.3512
  436SOL    HW1 1307   1.639   2.788   2.416  0.0236  1.0966  1.1404
  436SOL    HW2 1308   1.633   2.614   2.457 -3.2909  0.8226 -0.5785
  437SOL     OW 1309   0.994   2.978   0.858  0.2131  0.4285 -0.9725
  437SOL    HW1 1310   0.945   3.069   0.855 -0.9569 -1.1965  1.9655
  437SOL    HW2 1311   1.068   2.980   0.927  0.8500  0.0608 -0.2207
  438SOL     OW 1312   1.003   2.520   1.328  0.1594 -0.2014  0.4028
  438SOL    HW1 1313   1.080   2.549   1.393  0.8027  2.6753  1.3287
  438SOL    HW2 1314   0.980   2.415   1.325 -0.7359 -1.0222 -0.7623
  439SOL     OW 1315   0.709   1.706   1.047 -0.4311  0.4628  0.3169
  439SOL    HW1 1316   0.782   1.778   1.027 -1.8850 -0.4670  1.3805
  439SOL    HW2 1317   0.636   1.742   1.111  0.7217  0.5789  1.5822
  440SOL     OW 1318   0.962   2.366   1.988  0.6107 -0.2938 -0.3021
  440SOL    HW1 1319   0.943   2.435   1.910 -1.9118  0.1125 -1.1273
  440SOL    HW2 1320   1.032   2.400   2.053  1.6785  2.0279 -0.3579
  441SOL     OW 1321   0.382   2.763   1.302  0.1630 -0.4024 -0.5951
  441SOL    HW1 1322   0.423   2.671   1.329  1.7094  0.0248 -0.7439
  441SOL    HW2 1323   0.380   2.781   1.203 -1.5504  0.5963  1.3388
  442SOL     OW 1324   2.237   0.666   2.559  0.1266 -0.3891  0.1158
  442SOL    HW1 1325   2.254   0.570   2.522  2.4601  1.3999 -0.5686
  442SOL    HW2 1326   2.158   0.722   2.514 -3.2572 -1.4691 -0.7005
  443SOL     OW 1327   1.250   2.539   2.191 -0.1019 -0.7674  0.7562
  443SOL    HW1 1328   1.247   2.442   2.228 -1.3029 -1.3208  1.0457
  443SOL    HW2 1329   1.222   2.608   2.261 -0.9220 -1.8952 -1.4023
  444SOL     OW 1330   0.982   1.204   1.480  0.5682 -0.1435 -0.0896
  444SOL    HW1 1331   1.082   1.189   1.512 -0.2268  0.7717 -0.3470
  444SOL    HW2 1332   0.967   1.307   1.461  1.2708 -1.2151  1.8348
  445SOL     OW 1333   0.165   2.242   2.116  0.6019  0.2113  0.2880
  445SOL    HW1 1334   0.120   2.166   2.061 -3.3676  0.1561  0.6426
  445SOL    HW2 1335   0.134   2.236   2.218  2.8617 -0.8074 -0.3032
  446SOL     OW 1336   0.106   1.950   2.393 -0.4210 -0.0923 -0.6112
  446SOL    HW1 1337   0.075   2.050   2.382  0.4411  1.5394 -1.7341
  446SOL    HW2 1338   0.113   1.911   2.292 -0.4395 -0.9170 -1.5975
  447SOL     OW 1339   1.308   1.709   1.905 -0.3446  0.1830 -0.2668
  447SOL    HW1 1340   1.242   1.768   1.852  1.2052  3.0669  1.5656
  447SOL    HW2 1341   1.373   1.769   1.962 -0.4811 -0.4210  0.1395
  448SOL     OW 1342   0.176   1.471   2.015  0.0214  0.0602  0.4812
  448SOL    HW1 1343   0.185   1.557   1.953 -2.1105  0.1520  2.9258
  448SOL    HW2 1344   0.105   1.484   2.085  0.4738 -0.8589 -0.5244
  449SOL     OW 1345   1.834   2.940   0.824 -0.3097 -0.3898  0.4515
  449SOL    HW1 1346   1.827   2.978   0.922 -2.1995  2.0046  0.4010
  449SOL    HW2 1347   1.887   2.851   0.816 -3.1967  2.3744 -1.0120
  450SOL     OW 1348   2.236   1.467   0.683 -0.2736 -0.2983 -0.3631
  450SOL    HW1 1349   2.194   1.508   0.772  1.8722 -0.6749  0.0954
  450SOL    HW2 1350   2.288   1.538   0.628  0.7024 -3.2538  0.1808
  451SOL     OW 1351   1.413   2.978   1.467 -0.3148 -0.1299  0.7325
  451SOL    HW1 1352   1.373   3.066   1.506  0.4394 -0.1830  0.5348
  451SOL    HW2 1353   1.460   2.923   1.549  1.0186  0.4904 -0.5985
  452SOL     OW 1354   2.706   2.299   2.273  0.2243 -0.0433  0.0978
  452SOL    HW1 1355   2.649   2.388   2.267  1.3771  1.4924 -1.8777
  452SOL    HW2 1356   2.729   2.267   2.370 -0.6083 -1.1079  1.6000
  453SOL     OW 1357   2.448   2.653   3.092 -0.0705  0.2026 -0.3965
  453SOL    HW1 1358   2.369   2.697   3.130  2.6284 -0.0798 -1.1593
  453SOL    HW2 1359   2.432   2.567   3.037 -1.2624  0.7583 -0.7180
  454SOL     OW 1360   0.935   1.196   2.009  0.2618 -0.0119  0.3853
  454SOL    HW1 1361   0.896   1.185   1.913  0.8103 -0.4966  0.3376
  454SOL    HW2 1362   1.011   1.267   2.009 -0.1414 -0.9576  2.6846
  455SOL     OW 1363   0.702   2.614   2.808 -0.2239 -0.4455  0.0441
  455SOL    HW1 1364   0.785   2.660   2.844 -0.2500  2.1123 -4.8514
  455SOL    HW2 1365   0.682   2.528   2.866 -1.7570 -0.7169  0.1987
  456SOL     OW 1366   0.304   1.931   0.224 -0.0026 -0.0685  0.3788
  456SOL    HW1 1367   0.395   1.980   0.229  0.8623 -1.3929 -0.8933
  456SOL    HW2 1368   0.235   1.986   0.172  0.9123 -0.0986 -0.0447
  457SOL     OW 1369   0.396   2.707   0.673 -0.2074  0.5863  0.7191
  457SOL    HW1 1370   0.400   2.754   0.583 -2.1971  1.4814 -1.1411
  457SOL    HW2 1371   0.492   2.693   0.711  0.1891  1.5604 -1.2175
  458SOL     OW 1372   2.935   0.028   1.265  0.1443  0.3205 -0.2996
  458SOL    HW1 1373   2.992   0.117   1.271  2.1411  1.0525 -2.3616
  458SOL    HW2 1374   2.950  -0.021   1.176  1.2527 -0.3164 -1.4401
  459SOL     OW 1375   2.141   2.513   0.725  0.3167 -0.9428  0.2918
  459SOL    HW1 1376   2.200   2.505   0.811 -2.8027  0.2353  3.3715
  459SOL    HW2 1377   2.189   2.487   0.635 -0.2912  0.5001  0.4500
  460SOL     OW 1378   1.153   2.033   2.765 -0.1025  0.2788 -0.0072
  460SOL    HW1 1379   1.199   2.040   2.670 -0.5065 -0.7855 -0.1384
  460SOL    HW2 1380   1.176   1.947   2.818 -0.0445  0.5419 -1.4234
  461SOL     OW 1381   0.468   2.139   2.714 -0.1125 -0.3850 -0.2225
  461SOL    HW1 1382   0.449   2.067   2.644  3.3963  4.2159  1.2752
  461SOL    HW2 1383   0.501   2.098   2.804 -1.5645  1.2396 -1.0264
  462SOL     OW 1384   0.943   1.020   1.748  0.2443 -0.2388  0.0185
  462SOL    HW1 1385   0.921   0.938   1.690 -1.6195  1.8130 -0.4114
  462SOL    HW2 1386   0.888   1.102   1.719  1.3156 -1.4239  2.0624
  463SOL     OW 1387   0.430   0.809   0.466  0.4161 -0.2466 -0.3595
  463SOL    HW1 1388   0.462   0.716   0.443  0.9920  1.8667  2.2007
  463SOL    HW2 1389   0.330   0.813   0.484  0.3661  1.9946  0.9589
  464SOL     OW 1390   0.606   2.363   2.272  0.0482 -0.4318 -0.2685
  464SOL    HW1 1391   0.529   2.432   2.299  0.8299  1.4917  0.9301
  464SOL    HW2 1392   0.584   2.304   2.188 -0.0028  1.6639 -2.4837
  465SOL     OW 1393   0.230   0.972   0.787 -0.0129 -0.6754 -0.1372
  465SOL    HW1 1394   0.157   0.978   0.712  0.1627 -2.2355  0.8617
  465SOL    HW2 1395   0.251   0.876   0.811 -1.9550  0.0579 -1.4178
  466SOL     OW 1396   1.329   1.150   0.997  0.0961  0.5387  0.9724
  466SOL    HW1 1397   1.330   1.246   0.963 -0.9127 -0.7901 -1.0373
  466SOL    HW2 1398   1.243   1.129   1.053 -1.2562 -2.2107 -0.3581
  467SOL     OW 1399   0.627   0.466   2.532 -0.2255 -0.3576 -0.4681
  467SOL    HW1 1400   0.548   0.528   2.554  1.6288 -0.4990 -0.2734
  467SOL    HW2 1401   0.624   0.379   2.589 -1.5131  1.2863  1.8490
  468SOL     OW 1402   0.466   2.262   1.587  0.1611  0.1170  0.3758
  468SOL    HW1 1403   0.540   2.319   1.634 -0.0051 -1.1079  0.9783
  468SOL    HW2 1404   0.448   2.289   1.488  1.8053 -0.9899 -0.2301
  469SOL     OW 1405   1.435   1.346   1.220 -0.6172  0.0043 -0.5402
  469SOL    HW1 1406   1.472   1.345   1.126  1.1205 -0.2585 -0.7398
  469SOL    HW2 1407   1.502   1.401   1.284  0.8640  0.6168 -0.6701
  470SOL     OW 1408   3.004   1.817   0.799  0.1092  0.0940 -0.1600
  470SOL    HW1 1409   3.096   1.856   0.785 -0.0144 -0.6421 -1.7763
  470SOL    HW2 1410   3.016   1.717   0.830  1.3724 -1.2669 -1.1551
  471SOL     OW 1411   2.641   1.377   2.192 -0.5447  0.0648 -0.1582
  471SOL    HW1 1412   2.657   1.277   2.211  0.6897 -0.5026  1.1083
  471SOL    HW2 1413   2.718   1.433   2.230 -2.3370  0.0527  0.2392
  472SOL     OW 1414   1.175   2.467   0.041 -1.0246  0.6241  0.6289
  472SOL    HW1 1415   1.209   2.522   0.120 -1.0904  0.7839  0.1770
  472SOL    HW2 1416   1.098   2.400   0.071 -0.8499 -1.0232  0.5629
  473SOL     OW 1417   1.088   1.526   0.998  0.0454  0.1037  0.1527
  473SOL    HW1 1418   0.987   1.533   0.968 -1.2966  0.7348  0.3912
  473SOL    HW2 1419   1.102   1.480   1.090 -0.2274 -0.4377 -0.9744
  474SOL     OW 1420   0.633   1.286   0.507  0.2864 -0.3748  0.5337
  474SOL    HW1 1421   0.560   1.230   0.463 -1.0475  1.5241 -0.7663
  474SOL    HW2 1422   0.702   1.230   0.563  1.0919  1.0466  2.0776
  475SOL     OW 1423   2.824   0.060   0.817  0.1716 -0.1224 -0.6258
  475SOL    HW1 1424   2.858   0.158   0.816 -1.8608  1.0052  0.1490
  475SOL    HW2 1425   2.741   0.058   0.880  0.3568  0.2694  2.1283
  476SOL     OW 1426   0.955   3.068   1.819  0.3930  0.1351 -0.1069
  476SOL    HW1 1427   1.059   3.065   1.831 -0.6000  0.3198 -1.1882
  476SOL    HW2 1428   0.931   3.059   1.716  0.9209  3.5013 -1.1513
  477SOL     OW 1429   1.434   0.327   2.424  0.0648 -0.3537 -0.0869
  477SOL    HW1 1430   1.425   0.362   2.522  0.9304  0.0693  0.9566
  477SOL    HW2 1431   1.521   0.272   2.404  0.1816  2.2974 -1.4978
  478SOL     OW 1432   2.211   1.896   0.280  0.0537 -0.1762  0.0233
  478SOL    HW1 1433   2.187   1.808   0.330 -0.4011  2.4182 -2.8338
  478SOL    HW2 1434   2.280   1.873   0.201 -0.1879 -0.5555 -3.5136
  479SOL     OW 1435   1.320   0.930   2.898 -0.4759 -0.1994  0.4999
  479SOL    HW1 1436   1.393   0.970   2.837  1.5631 -1.0942  2.3443
  479SOL    HW2 1437   1.257   0.866   2.845 -1.9322 -0.6330 -1.5746
  480SOL     OW 1438   2.686   2.299   0.403 -0.2725  0.3416 -0.3948
  480SOL    HW1 1439   2.747   2.219   0.433  0.6614 -1.5529 -1.7515
  480SOL    HW2 1440   2.583   2.277   0.387  0.5892 -0.7713 -1.2898
  481SOL     OW 1441   0.983   1.154   0.856  0.4789  0.1878  0.7499
  481SOL    HW1 1442   1.031   1.239   0.819  1.6644 -0.9046  0.1334
  481SOL    HW2 1443   1.019   1.125   0.948  1.2034 -2.7594  0.2491
  482SOL     OW 1444   1.630   0.296   2.021 -0.0157 -0.2733 -0.3590
  482SOL    HW1 1445   1.641   0.396   2.000 -0.2455 -0.0598 -0.5693
  482SOL    HW2 1446   1.715   0.249   2.053 -0.8137 -1.4346  0.7747
  483SOL     OW 1447   0.160   2.346   1.186  0.9880 -0.0686 -0.0932
  483SOL    HW1 1448   0.136   2.407   1.268  2.3833 -0.4582 -0.8951
  483SOL    HW2 1449   0.190   2.411   1.112  0.7786  3.0331 -0.1079
  484SOL     OW 1450   1.717   1.058   1.441  0.1428  0.2234 -1.1590
  484SOL    HW1 1451   1.795   1.007   1.491 -0.8923 -0.6285 -0.3170
  484SOL    HW2 1452   1.752   1.146   1.396  0.3615 -1.3657  1.1218
  485SOL     OW 1453   0.757   0.768   1.907  0.5809  0.4510 -0.1897
  485SOL    HW1 1454   0.736   0.801   1.814 -1.0175 -0.6883  2.5774
  485SOL    HW2 1455   0.837   0.700   1.906 -2.4123 -0.9907 -1.0071
  486SOL     OW 1456   0.882   1.888   2.449  0.1454 -0.3091 -0.0191
  486SOL    HW1 1457   0.882   1.899   2.551 -1.8546  0.3862  2.2885
  486SOL    HW2 1458   0.816   1.951   2.398  0.4559 -1.7061 -1.5993
  487SOL     OW 1459   1.766   1.590   1.075 -0.1940  0.1728  0.2325
  487SOL    HW1 1460   1.839   1.529   1.119 -0.0528  0.6878 -0.4736
  487SOL    HW2 1461   1.787   1.624   0.978 -0.4086  0.6308 -0.0892
  488SOL     OW 1462   2.923   0.797   2.249 -0.2055 -0.0871  0.6795
  488SOL    HW1 1463   3.006   0.734   2.260 -1.0915  0.5187  2.4432
  488SOL    HW2 1464   2.865   0.796   2.335 -1.3682 -1.3909  0.7186
  489SOL     OW 1465   2.773   0.349   1.303  0.0250 -0.0592 -0.4514
  489SOL    HW1 1466   2.776   0.284   1.385 -0.6971 -0.3182 -0.8467
  489SOL    HW2 1467   2.866   0.346   1.258 -0.7372  2.2449  0.9477
  490SOL     OW 1468   1.473   2.948   2.823 -0.3533  0.0993 -0.0648
  490SOL    HW1 1469   1.506   2.849   2.813 -1.2393 -0.6551 -2.5572
  490SOL    HW2 1470   1.466   2.993   2.729 -0.5637  1.7476 -0.5672
  491SOL     OW 1471   1.788   1.454   2.721 -0.5144  0.3616 -0.0195
  491SOL    HW1 1472   1.771   1.376   2.787 -0.1238  1.9083  2.0991
  491SOL    HW2 1473   1.866   1.520   2.745  0.7812  0.4606  0.6562
  492SOL     OW 1474   0.578   2.099   0.593 -0.6792  0.1475  0.2092
  492SOL    HW1 1475   0.617   2.104   0.690  2.2761  0.6290  3.4981
  492SOL    HW2 1476   0.480   2.144   0.583 -1.1109  0.6226  0.3091
  493SOL     OW 1477   0.404   1.321   2.089  0.1278 -0.0036  0.0001
  493SOL    HW1 1478   0.324   1.378   2.061  1.8335 -0.8666 -1.8412
  493SOL    HW2 1479   0.392   1.218   2.099  0.1671  1.5183  3.4740
  494SOL     OW 1480   2.713   2.649   0.119  0.5723 -0.1513 -0.7523
  494SOL    HW1 1481   2.708   2.639   0.222 -0.1473  1.2471  0.2665
  494SOL    HW2 1482   2.624   2.669   0.069 -0.5816  2.4597 -1.7806
  495SOL     OW 1483   2.536   2.817   2.636  0.2494  0.1448  0.2925
  495SOL    HW1 1484   2.548   2.716   2.640  1.0451  1.8865 -1.0176
  495SOL    HW2 1485   2.609   2.860   2.584  0.3458  0.6386  1.3726
  496SOL     OW 1486   1.947   2.315   0.837 -0.1501 -0.5635  0.0616
  496SOL    HW1 1487   2.000   2.364   0.916 -0.7558 -2.5967  2.0032
  496SOL    HW2 1488   1.995   2.233   0.807 -2.6855  0.1311  1.1911
  497SOL     OW 1489   0.239   2.997   2.345 -1.0539  0.2052 -0.1841
  497SOL    HW1 1490   0.196   3.068   2.401  1.8381 -0.3280  3.0810
  497SOL    HW2 1491   0.286   3.039   2.267  1.4232  2.5247  1.7874
  498SOL     OW 1492   1.147   1.343   1.209 -0.0086  0.3623 -0.1415
  498SOL    HW1 1493   1.252   1.363   1.210 -1.7741  1.4775 -0.0051
  498SOL    HW2 1494   1.089   1.370   1.293 -1.6403 -0.4440  0.7264
  499SOL     OW 1495   0.594   1.836   0.350 -0.0873  0.4832 -0.3418
  499SOL    HW1 1496   0.619   1.775   0.270  1.0340 -1.4381 -1.1070
  499SOL    HW2 1497   0.670   1.905   0.362 -0.1220 -0.2645 -0.4592
  500SOL     OW 1498   1.539   2.818   1.649  0.0911  0.5546 -0.3420
  500SOL    HW1 1499   1.562   2.770   1.735 -0.0526  0.7575 -4.2273
  500SOL    HW2 1500   1.545   2.753   1.572  1.1654  0.3552 -0.5291
  501SOL     OW 1501   0.800   1.172   2.263  0.3411 -0.0973  0.1512
  501SOL    HW1 1502   0.739   1.093   2.240  3.5459  1.1150 -1.6422
  501SOL    HW2 1503   0.854   1.195   2.175 -0.1214 -0.8026 -0.3750
  502SOL     OW 1504   2.587   0.914   1.805  0.3137 -0.2473  0.1787
  502SOL    HW1 1505   2.623   0.935   1.702  1.7735 -0.7293 -2.3637
  502SOL    HW2 1506   2.565   0.814   1.822  0.8199 -0.8023  0.5594
  503SOL     OW 1507   1.275   0.112   0.689  0.7775 -0.2357  0.0770
  503SOL    HW1 1508   1.214   0.197   0.696 -0.1527  0.0269  1.0385
  503SOL    HW2 1509   1.373   0.141   0.697  0.3293 -2.2749  0.3246
  504SOL     OW 1510   3.002   2.355   1.485  0.0739 -0.4649 -0.4624
  504SOL    HW1 1511   2.938   2.417   1.535  1.6419 -3.1145 -1.6038
  504SOL    HW2 1512   3.067   2.315   1.554  2.5824 -0.6819  0.4662
  505SOL     OW 1513   2.307   1.138   1.500  0.0199  0.2680  0.0553
  505SOL    HW1 1514   2.295   1.167   1.402 -3.8139 -1.4408 -0.8975
  505SOL    HW2 1515   2.379   1.195   1.544 -1.0816 -0.6338  0.7657
  506SOL     OW 1516   1.956   0.162   1.874 -0.0075  0.0802 -0.5372
  506SOL    HW1 1517   2.058   0.153   1.888 -0.6871  0.0093  1.6188
  506SOL    HW2 1518   1.919   0.261   1.866 -0.8283 -1.5896 -1.9488
  507SOL     OW 1519   0.502   0.748   2.219 -0.1243 -0.6411  0.1110
  507SOL    HW1 1520   0.454   0.694   2.150 -1.5334 -0.0136 -0.1742
  507SOL    HW2 1521   0.582   0.691   2.258  0.3255 -2.0824 -2.0622
  508SOL     OW 1522   0.267   1.658   0.808 -0.0447  0.1346 -0.3429
  508SOL    HW1 1523   0.351   1.695   0.759 -0.9434 -0.8879 -1.8496
  508SOL    HW2 1524   0.250   1.707   0.896 -0.2504  0.6514  2.6698
  509SOL     OW 1525   1.308   1.216   2.463  0.3601 -0.1284 -0.1264
  509SOL    HW1 1526   1.314   1.254   2.369 -0.9638  1.1435  0.5331
  509SOL    HW2 1527   1.215   1.192   2.492  0.1288 -1.4651 -1.8679
  510SOL     OW 1528   1.295   2.028   2.230 -0.1897 -0.0811 -0.1620
  510SOL    HW1 1529   1.319   2.043   2.129  0.4232 -0.6787 -1.6364
  510SOL    HW2 1530   1.228   1.952   2.247  1.3058  1.8982 -1.4546
  511SOL     OW 1531   2.997   2.691   1.320 -0.2248  1.2069 -0.6687
  511SOL    HW1 1532   3.003   2.716   1.219 -0.4837 -0.7563 -1.2214
  511SOL    HW2 1533   2.911   2.634   1.343 -0.5284 -0.8455 -2.6050
  512SOL     OW 1534   2.340   0.451   1.420  0.4817  0.1585 -0.4058
  512SOL    HW1 1535   2.239   0.447   1.400  1.0881  1.0204 -0.9257
  512SOL    HW2 1536   2.405   0.403   1.353 -1.0305 -2.3885 -0.3182
  513SOL     OW 1537   2.541   2.078   0.847  0.4094  0.0323 -0.5239
  513SOL    HW1 1538   2.502   2.154   0.787 -0.2130 -0.1814 -0.1448
  513SOL    HW2 1539   2.619   2.025   0.808  1.2497  0.6503 -0.8051
  514SOL     OW 1540   0.620   2.726   0.462  0.2099 -0.4310 -0.2813
  514SOL    HW1 1541   0.676   2.695   0.386 -1.6938 -0.9386 -0.7043
  514SOL    HW2 1542   0.657   2.811   0.510  1.3113  1.1340  0.4445
  515SOL     OW 1543   1.939   1.340   2.391 -0.0137  0.1316  0.3652
  515SOL    HW1 1544   1.942   1.311   2.290 -1.8678  2.0533 -1.7340
  515SOL    HW2 1545   1.877   1.275   2.439 -0.2356  1.0872 -0.4698
  516SOL     OW 1546   0.268   0.148   1.945 -0.1088  0.2730  0.3911
  516SOL    HW1 1547   0.346   0.193   1.893  1.8832 -1.1378  0.6583
  516SOL    HW2 1548   0.201   0.096   1.878  0.2408  1.5621 -0.6333
  517SOL     OW 1549   0.476   0.214   1.153  0.2166 -0.4462  0.6615
  517SOL    HW1 1550   0.534   0.156   1.210  0.2133  0.1859 -1.5236
  517SOL    HW2 1551   0.388   0.169   1.131  1.3698 -0.9043  1.9233
  518SOL     OW 1552   2.172   3.001   1.827  0.0595 -0.2503  0.4594
  518SOL    HW1 1553   2.196   3.099   1.832  2.3820  0.2583  1.5437
  518SOL    HW2 1554   2.189   2.968   1.730  1.1865 -0.9388  1.3217
  519SOL     OW 1555   2.347   2.228   2.538  0.6317 -0.6945 -0.0025
  519SOL    HW1 1556   2.284   2.196   2.618 -0.3680  0.6789  0.1258
  519SOL    HW2 1557   2.341   2.333   2.528  2.3211  0.4752  1.7749
  520SOL     OW 1558   1.826   2.710   1.643  0.1811  0.7392 -0.0468
  520SOL    HW1 1559   1.771   2.660   1.711  0.0430 -0.7163 -0.6672
  520SOL    HW2 1560   1.932   2.689   1.642  1.4557 -0.8872 -1.2765
  521SOL     OW 1561   0.645   0.070   2.157 -0.2095 -0.0342  0.0688
  521SOL    HW1 1562   0.561   0.016   2.145  1.8908  2.3707  0.3364
  521SOL    HW2 1563   0.679   0.050   2.253  0.1026  0.8977  1.2917
  522SOL     OW 1564   0.226   1.928   1.474 -0.2848 -0.3513 -0.1281
  522SOL    HW1 1565   0.267   1.984   1.554  2.0679 -1.5089 -1.2634
  522SOL    HW2 1566   0.214   1.980   1.384  1.4786 -2.3667 -1.9302
  523SOL     OW 1567   2.204   2.927   1.584 -0.7687 -0.0471 -0.1454
  523SOL    HW1 1568   2.300   2.895   1.572  3.3845  1.0947  1.2854
  523SOL    HW2 1569   2.134   2.876   1.522 -0.9596  2.5906 -1.2713
  524SOL     OW 1570   0.204   2.761   2.797 -0.6200  0.3541  0.1939
  524SOL    HW1 1571   0.152   2.846   2.827  1.3501 -3.1596  2.4431
  524SOL    HW2 1572   0.309   2.774   2.776  2.6440 -1.3144  1.6034
  525SOL     OW 1573   2.200   2.073   0.496 -0.2277 -0.3908 -0.1732
  525SOL    HW1 1574   2.171   2.024   0.586 -0.5453 -0.2529  1.0339
  525SOL    HW2 1575   2.201   2.012   0.417  0.3770 -1.6890  0.7474
  526SOL     OW 1576   0.416   1.526   1.738  0.6588 -0.4742  0.1262
  526SOL    HW1 1577   0.485   1.593   1.774 -0.6155  4.7580  0.1323
  526SOL    HW2 1578   0.430   1.425   1.755  2.1040  1.6718 -0.6556
  527SOL     OW 1579   1.095   2.954   1.142 -0.5182 -0.5607  0.7319
  527SOL    HW1 1580   1.127   2.899   1.220  0.5451 -0.9517  0.6704
  527SOL    HW2 1581   1.162   3.024   1.115 -0.4148 -3.7826  2.4611
  528SOL     OW 1582   1.283   2.408   0.612  0.0414  0.1872 -0.6459
  528SOL    HW1 1583   1.354   2.336   0.604 -0.1846 -0.6041  1.4853
  528SOL    HW2 1584   1.321   2.504   0.646 -0.3259 -1.0109  0.4240
  529SOL     OW 1585   1.874   1.750   0.858  1.0140  0.4002  0.3401
  529SOL    HW1 1586   1.844   1.734   0.763 -1.3747 -1.1439  0.3939
  529SOL    HW2 1587   1.896   1.849   0.877 -0.7198  1.3136 -1.1633
  530SOL     OW 1588   0.409   2.462   0.193  0.3343 -0.1881 -0.0481
  530SOL    HW1 1589   0.452   2.387   0.251 -1.4685  1.4952  0.7907
  530SOL    HW2 1590   0.409   2.439   0.092 -1.5022 -1.7798 -0.8146
  531SOL     OW 1591   1.836   1.008   1.029 -0.3697 -0.6052  0.2820
  531SOL    HW1 1592   1.858   1.022   0.929  0.7539  2.3853  1.2405
  531SOL    HW2 1593   1.744   0.962   1.035  0.5678 -2.4164 -0.5219
  532SOL     OW 1594   0.389   1.179   0.714  0.3123  0.0457 -0.0119
  532SOL    HW1 1595   0.406   1.171   0.615 -1.3615 -1.8323 -1.2847
  532SOL    HW2 1596   0.353   1.087   0.747  1.2250 -0.4742 -1.4002
  533SOL     OW 1597   1.820   0.083   2.563  0.4859  0.3356  0.6057
  533SOL    HW1 1598   1.921   0.052   2.575  1.6400 -0.7376  0.1263
  533SOL    HW2 1599   1.783   0.142   2.640 -0.5826  1.3582 -0.5602
  534SOL     OW 1600   0.208   0.184   1.574 -0.1348  0.6819 -0.1722
  534SOL    HW1 1601   0.277   0.246   1.527 -3.0101 -1.6700 -0.9839
  534SOL    HW2 1602   0.110   0.225   1.574  1.5439 -0.9697  1.4042
  535SOL     OW 1603   1.867   0.400   0.140  0.3115  0.4747  0.3605
  535SOL    HW1 1604   1.904   0.495   0.170 -0.6085 -2.5574  0.7245
  535SOL    HW2 1605   1.819   0.364   0.222 -2.1998 -4.2202 -1.2803
  536SOL     OW 1606   1.213   2.507   0.998  0.3627  0.1685  0.3655
  536SOL    HW1 1607   1.251   2.504   0.903 -0.1984  1.1283  2.1057
  536SOL    HW2 1608   1.109   2.501   0.995 -1.1649 -0.4712 -0.4675
  537SOL     OW 1609   0.877   0.245   2.298  0.2502 -0.4034  0.1959
  537SOL    HW1 1610   0.840   0.324   2.236 -2.1985  0.5172 -0.1269
  537SOL    HW2 1611   0.813   0.163   2.288 -0.8604 -2.2394  3.9166
  538SOL     OW 1612   1.696   2.299   1.596  0.0630  0.3637 -1.0320
  538SOL    HW1 1613   1.654   2.228   1.536  0.4585  0.8722  2.0806
  538SOL    HW2 1614   1.777   2.345   1.558  0.2905  2.0034  1.4389
  539SOL     OW 1615   0.166   1.564   2.719  0.1112  0.1287 -0.4708
  539SOL    HW1 1616   0.081   1.566   2.658  1.2640  1.9821  0.1357
  539SOL    HW2 1617   0.192   1.662   2.746 -4.4925  2.7893 -1.0824
  540SOL     OW 1618   2.672   1.769   2.136  0.1159 -0.9076 -0.6649
  540SOL    HW1 1619   2.634   1.691   2.085  2.3470  0.0934  0.3576
  540SOL    HW2 1620   2.648   1.858   2.092 -0.0549 -3.1450  3.4235
  541SOL     OW 1621   0.422   2.278   3.096  0.4017 -0.5122  0.2478
  541SOL    HW1 1622   0.472   2.215   3.163  2.4087  0.6203  1.7195
  541SOL    HW2 1623   0.333   2.239   3.048 -0.7261  1.0481  1.3206
  542SOL     OW 1624   2.181   2.605   0.449  0.2505  0.4634 -0.1904
  542SOL    HW1 1625   2.187   2.695   0.398  0.0806 -1.3214 -0.0726
  542SOL    HW2 1626   2.081   2.589   0.486 -0.8254 -1.3590 -0.0603
  543SOL     OW 1627   1.057   1.807   1.741 -0.5217 -0.0641  0.2594
  543SOL    HW1 1628   1.065   1.847   1.832  0.6498 -1.0474 -1.7888
  543SOL    HW2 1629   0.997   1.859   1.671 -0.7368  0.9971 -0.7477
  544SOL     OW 1630   0.855   0.418   0.128  0.0355 -0.1357  0.4122
  544SOL    HW1 1631   0.890   0.364   0.212  2.1688 -0.7298 -0.0658
  544SOL    HW2 1632   0.907   0.393   0.041 -0.5457 -2.0624  0.7326
  545SOL     OW 1633   1.149   1.775   0.634 -0.1364 -0.1072  0.0012
  545SOL    HW1 1634   1.233   1.753   0.689  0.0764  0.2474 -1.2775
  545SOL    HW2 1635   1.153   1.737   0.537 -1.1753  0.0823 -0.2283
  546SOL     OW 1636   2.678   1.600   0.048 -0.3330 -0.4078 -0.0605
  546SOL    HW1 1637   2.707   1.554  -0.045  0.2862  2.6728  0.2529
  546SOL    HW2 1638   2.605   1.549   0.103 -1.0080 -2.6703  1.7822
  547SOL     OW 1639   0.490   3.102   2.746  0.2862  0.9008 -0.2819
  547SOL    HW1 1640   0.531   3.053   2.670  1.1206 -1.6454  2.7971
  547SOL    HW2 1641   0.493   3.048   2.837  1.9616 -0.8783  1.1386
  548SOL     OW 1642   2.070   0.789   3.096 -0.1267  0.3168 -0.1076
  548SOL    HW1 1643   1.981   0.746   3.077  0.1437 -0.1694  0.2709
  548SOL    HW2 1644   2.054   0.893   3.107  2.1359  2.0444  0.7125
  549SOL     OW 1645   0.559   0.432   0.071  0.1555 -0.0068 -0.2503
  549SOL    HW1 1646   0.518   0.504   0.006 -1.6828  0.4930  2.9622
  549SOL    HW2 1647   0.662   0.432   0.079 -2.4945 -1.9633  3.3245
  550SOL     OW 1648   2.545   2.858   2.912  0.1755 -0.6054 -0.0449
  550SOL    HW1 1649   2.504   2.778   2.963  2.1949 -1.1285 -1.7679
  550SOL    HW2 1650   2.535   2.846   2.808  2.9237  2.9281  1.3494
  551SOL     OW 1651   0.227   0.777   0.199 -0.1447 -0.3485 -0.1655
  551SOL    HW1 1652   0.327   0.783   0.171  0.7153  0.9634 -3.2665
  551SOL    HW2 1653   0.214   0.786   0.301 -0.1381 -0.2545 -0.7574
  552SOL     OW 1654   0.836   2.796   1.907 -0.3319 -0.0312 -0.2347
  552SOL    HW1 1655   0.813   2.761   1.997 -1.2510  0.9171  0.7188
  552SOL    HW2 1656   0.865   2.896   1.904  0.4035  0.9638 -0.2543
  553SOL     OW 1657   3.075   2.541   0.388  0.3031  0.2999  0.9233
  553SOL    HW1 1658   2.999   2.473   0.365 -1.9742  1.5365  0.0728
  553SOL    HW2 1659   3.120   2.524   0.482 -1.7038  2.2861  2.2321
  554SOL     OW 1660   2.152   0.307   0.505 -0.0992 -0.2573  0.3489
  554SOL    HW1 1661   2.195   0.231   0.449  4.7112 -1.4504  0.2572
  554SOL    HW2 1662   2.128   0.271   0.602 -1.1504 -1.9627 -0.9355
  555SOL     OW 1663   0.471   2.912   2.470 -0.4031  0.5301  0.0786
  555SOL    HW1 1664   0.388   2.927   2.405 -0.4065 -1.0970 -0.1807
  555SOL    HW2 1665   0.550   2.857   2.430  1.5219  0.8629  0.4407
  556SOL     OW 1666   0.903   2.303   1.619 -1.2900 -0.3620 -0.4065
  556SOL    HW1 1667   0.955   2.371   1.677  0.0288 -0.0534  1.8113
  556SOL    HW2 1668   0.953   2.286   1.529 -0.8776 -1.2341  0.4205
  557SOL     OW 1669   0.151   2.141   0.123 -0.6714 -0.3728  0.5401
  557SOL    HW1 1670   0.075   2.067   0.127  1.2204 -3.4497 -2.2467
  557SOL    HW2 1671   0.169   2.181   0.026  3.1547  1.9210 -1.3887
  558SOL     OW 1672   2.918   2.347   0.290 -0.1589 -0.4188  0.4434
  558SOL    HW1 1673   2.818   2.338   0.312  0.8431  1.3189 -1.1042
  558SOL    HW2 1674   2.943   2.358   0.190  1.3318 -0.0885 -0.8439
  559SOL     OW 1675   0.426   2.264   1.282 -0.0874 -0.3688  0.1080
  559SOL    HW1 1676   0.342   2.298   1.236  0.3761  1.5311  2.0160
  559SOL    HW2 1677   0.436   2.160   1.275 -1.3465 -1.0972 -0.5522
  560SOL     OW 1678   2.013   1.087   3.050 -0.3222  0.2061  1.1013
  560SOL    HW1 1679   2.033   1.168   2.989 -0.7795  0.2760  1.8944
  560SOL    HW2 1680   1.982   1.124   3.141  2.6937  0.6594  2.2133
  561SOL     OW 1681   3.050   1.962   0.105  0.1127 -0.1485 -0.1593
  561SOL    HW1 1682   3.009   1.866   0.108 -0.2587 -0.9993  0.8303
  561SOL    HW2 1683   2.999   2.024   0.040  1.5403  0.9504  3.0591
  562SOL     OW 1684   0.825   2.184   2.459  0.1019 -0.0045  0.5758
  562SOL    HW1 1685   0.737   2.144   2.432  0.9779  1.0223  1.0646
  562SOL    HW2 1686   0.837   2.238   2.549  0.8212 -0.6068 -0.6836
  563SOL     OW 1687   0.741   2.551   2.525 -0.0506  0.8464 -0.1059
  563SOL    HW1 1688   0.821   2.506   2.481  0.3589  2.3146  0.2936
  563SOL    HW2 1689   0.749   2.543   2.630 -1.3800  1.6112 -2.0584
  564SOL     OW 1690   2.763   1.276   2.872  0.4877 -0.0136 -0.3267
  564SOL    HW1 1691   2.672   1.276   2.922  0.7947  2.0161  1.5538
  564SOL    HW2 1692   2.803   1.373   2.875  2.3334  0.0134 -1.1595
  565SOL     OW 1693   2.521   2.016   2.575 -0.1526 -0.0653 -0.3739
  565SOL    HW1 1694   2.445   2.090   2.564 -1.8004 -0.1580  0.0307
  565SOL    HW2 1695   2.609   2.054   2.613 -1.3676  0.1381 -1.2822
  566SOL     OW 1696   2.006   2.814   1.394 -0.6077  0.2238 -0.5639
  566SOL    HW1 1697   2.005   2.716   1.426  0.1555 -0.4061 -0.5019
  566SOL    HW2 1698   2.060   2.830   1.304  0.4291  1.8290  1.4310
  567SOL     OW 1699   2.464   0.147   2.240 -0.0417 -0.1980 -0.0455
  567SOL    HW1 1700   2.477   0.134   2.138 -0.3430  0.9229  1.5171
  567SOL    HW2 1701   2.386   0.215   2.259  1.7762  2.3981  2.5849
  568SOL     OW 1702   1.408   1.808   0.421 -0.0975  0.0745 -0.4943
  568SOL    HW1 1703   1.394   1.890   0.349 -0.9325  0.2771  0.5774
  568SOL    HW2 1704   1.446   1.842   0.510  3.6622  1.3245 -0.4647
  569SOL     OW 1705   0.279   0.674   0.795  0.0861 -0.7061 -0.0008
  569SOL    HW1 1706   0.344   0.633   0.734 -0.5538  0.6337  0.0972
  569SOL    HW2 1707   0.191   0.626   0.801 -1.2641 -4.1158  0.9980
  570SOL     OW 1708   0.627   0.791   2.838 -0.0228 -0.1879 -0.0112
  570SOL    HW1 1709   0.685   0.773   2.756 -0.8349 -0.2130  1.7837
  570SOL    HW2 1710   0.663   0.860   2.903  0.1043 -0.6057  0.2879
  571SOL     OW 1711   0.844   3.055   1.135 -0.2074  0.1809 -0.5376
  571SOL    HW1 1712   0.843   3.146   1.080  1.9382  1.1500  1.5955
  571SOL    HW2 1713   0.930   2.997   1.128 -0.8562 -0.3330  2.1037
  572SOL     OW 1714   1.514   2.547   1.184  0.1484 -0.3351 -0.2752
  572SOL    HW1 1715   1.435   2.493   1.221  0.0931 -0.1587  0.9429
  572SOL    HW2 1716   1.474   2.625   1.128 -0.0512  2.6688 -0.8230
  573SOL     OW 1717   2.949   0.424   2.113 -0.0645 -0.1158 -0.0802
  573SOL    HW1 1718   2.901   0.334   2.117 -1.0068 -0.5550  1.4738
  573SOL    HW2 1719   2.875   0.492   2.088 -0.6507 -1.5715  2.6840
  574SOL     OW 1720   0.244   1.819   1.043  0.0814  0.0569 -0.2993
  574SOL    HW1 1721   0.233   1.915   1.002 -1.8056  1.4768 -1.6315
  574SOL    HW2 1722   0.162   1.783   1.098  0.0707 -0.8682  2.1589
  575SOL     OW 1723   0.915   2.147   1.003 -0.2136 -0.1768 -0.1737
  575SOL    HW1 1724   0.856   2.144   1.087 -0.3441 -0.4254  0.9623
  575SOL    HW2 1725   1.012   2.180   1.023 -0.3157 -0.4293  1.0956
  576SOL     OW 1726   2.928   2.891   1.707  0.3949 -0.1988 -0.0924
  576SOL    HW1 1727   2.832   2.862   1.686  1.5015  2.2273  0.2488
  576SOL    HW2 1728   2.944   2.988   1.674  2.9944 -0.2356 -1.0232
  577SOL     OW 1729   2.556   1.255   3.041  0.0098 -0.4408  0.0932
  577SOL    HW1 1730   2.523   1.155   3.025 -1.0584 -1.6074 -0.5123
  577SOL    HW2 1731   2.582   1.269   3.139  1.4127  2.5446  0.7929
  578SOL     OW 1732   1.340   2.752   2.567  0.1922 -0.6651 -0.0281
  578SOL    HW1 1733   1.262   2.735   2.494  1.2283  0.6076 -0.8088
  578SOL    HW2 1734   1.371   2.849   2.570 -0.9662 -3.4771  2.0391
  579SOL     OW 1735   0.127   2.560   0.157 -0.0185 -0.2657  0.3622
  579SOL    HW1 1736   0.062   2.566   0.239  2.2137 -0.9858  0.0831
  579SOL    HW2 1737   0.189   2.478   0.159  1.8512  0.6391 -0.2780
  580SOL     OW 1738   0.996   2.683   0.352  0.4242 -0.3756 -0.1453
  580SOL    HW1 1739   1.088   2.720   0.316  0.8959 -1.0365  0.6474
  580SOL    HW2 1740   0.942   2.631   0.279  1.2174 -1.0949 -2.6759
  581SOL     OW 1741   1.256   2.583   1.489 -0.7382  0.1715  0.1463
  581SOL    HW1 1742   1.258   2.493   1.434 -0.5797  0.1125  0.5619
  581SOL    HW2 1743   1.280   2.670   1.436 -2.0480  3.7129  3.2945
  582SOL     OW 1744   1.514   0.051   1.875 -0.4429 -0.2415  0.2884
  582SOL    HW1 1745   1.551   0.128   1.944 -1.0645 -0.2832  0.3713
  582SOL    HW2 1746   1.582   0.037   1.796 -2.4243  0.1350  1.3416
  583SOL     OW 1747   2.424   2.995   0.596  0.5912  0.2743  0.1525
  583SOL    HW1 1748   2.474   2.932   0.528 -1.1204 -1.4180  0.8780
  583SOL    HW2 1749   2.376   2.943   0.674  0.6829  2.0697  0.1967
  584SOL     OW 1750   1.539   0.961   2.102 -0.3819 -0.3740 -0.0321
  584SOL    HW1 1751   1.610   1.024   2.061  1.2229  0.3379 -0.7080
  584SOL    HW2 1752   1.550   0.954   2.206 -1.0345 -0.4900  1.5344
  585SOL     OW 1753   2.141   2.653   2.929  0.6761 -0.4638  0.2951
  585SOL    HW1 1754   2.177   2.561   2.884  0.7960  1.0431 -0.6410
  585SOL    HW2 1755   2.040   2.672   2.905 -2.0009 -1.0339  0.3442
  586SOL     OW 1756   2.802   0.229   1.565 -0.1352  0.1911  0.6747
  586SOL    HW1 1757   2.783   0.331   1.583  1.2506  0.1228  0.4733
  586SOL    HW2 1758   2.714   0.179   1.558  3.5288  1.8297  2.1133
  587SOL     OW 1759   2.005   1.621   2.735  0.1611 -0.3478  0.0028
  587SOL    HW1 1760   2.060   1.568   2.666 -4.4382  3.0115 -1.8759
  587SOL    HW2 1761   2.045   1.631   2.832  0.1461  0.0163  1.2052
  588SOL     OW 1762   0.496   2.703   2.223  0.6595  0.3784 -0.3964
  588SOL    HW1 1763   0.418   2.714   2.158  0.1013  1.2933  1.9747
  588SOL    HW2 1764   0.482   2.630   2.297 -0.4086 -0.4342  0.7061
  589SOL     OW 1765   2.136   1.464   2.543  0.4683 -0.3838 -0.3075
  589SOL    HW1 1766   2.073   1.411   2.476  0.6929  0.9383  0.4367
  589SOL    HW2 1767   2.229   1.418   2.563  1.7720  1.5545  0.7810
  590SOL     OW 1768   2.357   1.726   1.991  0.1773 -0.5437 -0.3858
  590SOL    HW1 1769   2.438   1.653   1.989  2.3665 -1.0760  0.6202
  590SOL    HW2 1770   2.364   1.786   2.076 -2.1447 -0.1962 -0.2426
  591SOL     OW 1771   1.339   2.488   0.313  0.0870 -0.0696 -0.0954
  591SOL    HW1 1772   1.411   2.451   0.246  0.7700 -2.1208  2.8109
  591SOL    HW2 1773   1.346   2.448   0.410  1.1277  0.1012  0.6962
  592SOL     OW 1774   1.681   2.315   0.773  0.0611  0.1073  0.2815
  592SOL    HW1 1775   1.644   2.389   0.713 -2.6317 -0.3761 -2.9605
  592SOL    HW2 1776   1.784   2.335   0.798  1.4204 -1.2571 -2.3463
  593SOL     OW 1777   0.547   0.205   3.016  0.0407 -0.3981  0.3818
  593SOL    HW1 1778   0.650   0.185   3.000  0.3352 -2.0944  0.7581
  593SOL    HW2 1779   0.536   0.293   3.080  3.2475  1.3958 -0.3868
  594SOL     OW 1780   0.889   1.930   2.717 -0.3655  0.1881 -1.1792
  594SOL    HW1 1781   0.987   1.965   2.723  0.0350 -1.4637  0.6833
  594SOL    HW2 1782   0.817   2.005   2.742  2.6755  2.3150  3.0347
  595SOL     OW 1783   1.550   0.024   1.043 -0.2104  0.9320  0.9080
  595SOL    HW1 1784   1.647  -0.010   1.021  0.5753  0.7240  1.0455
  595SOL    HW2 1785   1.482  -0.037   0.993 -1.9244 -1.0507  2.5182
  596SOL     OW 1786   3.073   1.473   2.215 -0.0230  0.0790 -0.0621
  596SOL    HW1 1787   2.985   1.522   2.224  0.9182 -0.4465 -1.8044
  596SOL    HW2 1788   3.131   1.456   2.298  4.6599  0.1688  1.8363
  597SOL     OW 1789   2.093   2.631   1.630  0.5815 -0.1316 -0.0962
  597SOL    HW1 1790   2.122   2.562   1.558  0.3080  0.7220  4.0983
  597SOL    HW2 1791   2.166   2.628   1.704  0.9000 -1.8134 -2.3189
  598SOL     OW 1792   2.569   2.908   1.192 -0.7248  0.0253  0.2058
  598SOL    HW1 1793   2.632   2.937   1.269  0.7009 -3.3959  1.2683
  598SOL    HW2 1794   2.625   2.908   1.104  1.5713  1.4725 -0.8651
  599SOL     OW 1795   2.938   0.348   2.395  0.2544  0.3415 -0.1296
  599SOL    HW1 1796   3.015   0.341   2.322 -0.1562 -1.3296 -1.2901
  599SOL    HW2 1797   2.864   0.419   2.377 -0.9409 -2.3251  0.0013
  600SOL     OW 1798   2.827   1.040   2.752  0.3135 -0.1326 -0.5906
  600SOL    HW1 1799   2.803   0.961   2.807 -0.1421  0.5824 -1.8836
  600SOL    HW2 1800   2.790   1.128   2.795  1.6159 -1.8696  1.4072
  601SOL     OW 1801   2.938   1.243   2.064  0.1491 -1.0276  0.0786
  601SOL    HW1 1802   2.855   1.270   2.007  1.8176  0.7064 -0.2114
  601SOL    HW2 1803   2.986   1.325   2.111  2.3275  1.1175  1.0183
  602SOL     OW 1804   1.530   1.673   2.363  0.3054  0.4217  0.1300
  602SOL    HW1 1805   1.470   1.591   2.352 -0.8575 -0.9454 -1.9614
  602SOL    HW2 1806   1.625   1.652   2.375 -1.1243 -0.6744 -0.2203
  603SOL     OW 1807   0.680   1.270   2.607 -0.4167 -0.2922  0.5781
  603SOL    HW1 1808   0.602   1.253   2.541 -0.4126  0.1265  2.2036
  603SOL    HW2 1809   0.732   1.184   2.631 -2.3572  3.2886 -0.9048
  604SOL     OW 1810   2.393   0.968   0.174  0.2847 -0.3608  0.0379
  604SOL    HW1 1811   2.433   1.028   0.101  0.5815 -1.1699  2.3997
  604SOL    HW2 1812   2.394   0.872   0.138 -0.5464 -0.9546 -0.3067
  605SOL     OW 1813   2.627   1.125   1.976  0.5253 -0.3253 -0.3219
  605SOL    HW1 1814   2.611   1.035   1.923 -0.1887 -1.5473  0.6470
  605SOL    HW2 1815   2.625   1.109   2.079  1.1265 -0.7542  1.4059
  606SOL     OW 1816   1.533   2.528   2.584 -0.1414  0.0648 -0.3200
  606SOL    HW1 1817   1.448   2.590   2.573  0.2979  2.8294 -0.8925
  606SOL    HW2 1818   1.509   2.431   2.562  1.9169  2.1909 -0.4725
  607SOL     OW 1819   1.345   1.542   0.453 -0.2666 -0.1426  0.5257
  607SOL    HW1 1820   1.293   1.506   0.540  1.1904 -0.6050 -0.4234
  607SOL    HW2 1821   1.328   1.644   0.434  1.7375 -0.6939  0.6398
  608SOL     OW 1822   1.406   2.903   0.426  0.3705  0.3233 -0.0167
  608SOL    HW1 1823   1.481   2.945   0.362  1.9855  0.0300  2.8508
  608SOL    HW2 1824   1.322   2.966   0.441  0.4770 -0.3732 -2.3420
  609SOL     OW 1825   1.333   1.334   0.256  0.3829  0.3133  0.1310
  609SOL    HW1 1826   1.349   1.404   0.334  1.7952 -0.2692  1.2905
  609SOL    HW2 1827   1.242   1.348   0.211  1.2898 -1.2601  1.8202
  610SOL     OW 1828   2.994   1.073   2.251  0.0731  0.2632  0.1831
  610SOL    HW1 1829   2.964   0.975   2.228  0.1138 -0.2093  1.1498
  610SOL    HW2 1830   2.981   1.143   2.173  1.1692  2.2074 -0.0738
  611SOL     OW 1831   2.509   0.335   1.242 -0.2764 -0.2870  0.0867
  611SOL    HW1 1832   2.495   0.240   1.200  0.1625 -0.7694  0.1562
  611SOL    HW2 1833   2.609   0.349   1.265  0.1554 -0.5224 -1.2401
  612SOL     OW 1834   0.755   2.137   1.259  0.0543  0.4071 -0.4399
  612SOL    HW1 1835   0.671   2.077   1.264 -1.4902  1.9707  1.9629
  612SOL    HW2 1836   0.729   2.234   1.227  0.9493 -1.5773  0.8681
  613SOL     OW 1837   0.899   1.418   2.398 -0.2844  0.4830 -0.0368
  613SOL    HW1 1838   0.959   1.452   2.320 -3.5980  1.6884  1.3244
  613SOL    HW2 1839   0.840   1.341   2.361  1.1222 -1.5986  1.4234
  614SOL     OW 1840   1.668   1.533   1.797  0.2028  0.4770  0.4826
  614SOL    HW1 1841   1.615   1.616   1.766  0.2747 -0.3067  1.3115
  614SOL    HW2 1842   1.729   1.553   1.878 -0.3739  0.9304  2.0582
  615SOL     OW 1843   0.783   1.265   1.756 -0.6551 -0.5898 -0.1524
  615SOL    HW1 1844   0.704   1.239   1.698  3.0708  1.7181  2.2216
  615SOL    HW2 1845   0.817   1.357   1.733 -0.8130 -2.2883  1.9308
  616SOL     OW 1846   1.036   1.554   2.200  0.7636 -0.4572  0.8182
  616SOL    HW1 1847   0.975   1.576   2.123  3.0511 -0.2482 -0.0726
  616SOL    HW2 1848   1.079   1.635   2.244 -1.9070 -2.0528  0.7383
  617SOL     OW 1849   2.954   1.515   1.615 -0.1497 -0.0836  0.4918
  617SOL    HW1 1850   2.990   1.437   1.667 -0.1939  1.3729 -0.6689
  617SOL    HW2 1851   2.976   1.504   1.516 -0.9102  1.6330  0.4325
  618SOL     OW 1852   1.858   2.054   1.380 -0.3265  0.6880  0.1869
  618SOL    HW1 1853   1.877   2.139   1.320  2.3047 -1.4572 -1.5578
  618SOL    HW2 1854   1.841   1.971   1.323  0.5312  1.2150  0.0622
  619SOL     OW 1855   1.757   0.453   2.382  0.5512  0.2389  0.3407
  619SOL    HW1 1856   1.688   0.518   2.329 -3.5880  1.5989 -0.1916
  619SOL    HW2 1857   1.715   0.358   2.399 -2.9790  2.0931 -0.5561
  620SOL     OW 1858   2.258   2.823   0.766 -0.2142  0.3152  0.4346
  620SOL    HW1 1859   2.159   2.807   0.750  1.6450  0.4835 -1.7152
  620SOL    HW2 1860   2.309   2.735   0.794  1.2863 -1.3449  0.9182
  621SOL     OW 1861   2.190   1.913   1.352 -0.5520 -0.3275  0.4407
  621SOL    HW1 1862   2.192   1.930   1.454 -2.5308 -2.0423  0.4747
  621SOL    HW2 1863   2.115   1.846   1.325  0.8180 -0.0072 -0.6694
  622SOL     OW 1864   2.319   0.964   1.868  0.1384  0.4007  0.2397
  622SOL    HW1 1865   2.410   0.955   1.819 -1.3463  0.0092  2.4990
  622SOL    HW2 1866   2.299   0.887   1.931  1.7381 -1.7228  0.8550
  623SOL     OW 1867   1.249   0.831   2.527  0.1237 -0.3039 -0.4098
  623SOL    HW1 1868   1.198   0.744   2.534  1.4724  1.9744  0.7341
  623SOL    HW2 1869   1.221   0.894   2.449  3.4676  3.4626  2.1920
  624SOL     OW 1870   0.491   0.662   3.046 -0.4452 -0.3610  0.6316
  624SOL    HW1 1871   0.565   0.684   2.973 -1.7612  1.0036 -2.5701
  624SOL    HW2 1872   0.491   0.733   3.124  1.8764 -0.1821  1.6431
  625SOL     OW 1873   2.753   1.718   1.002  0.3294  0.0431  0.5167
  625SOL    HW1 1874   2.670   1.781   0.993 -0.3884  0.2304 -0.8186
  625SOL    HW2 1875   2.833   1.774   1.039  1.9373  0.3189 -0.0014
  626SOL     OW 1876   0.651   2.675   1.725 -0.0661  0.0546 -0.1844
  626SOL    HW1 1877   0.716   2.721   1.795 -0.2898  0.6896  1.2180
  626SOL    HW2 1878   0.548   2.697   1.738 -1.8837 -1.2652  4.3745
  627SOL     OW 1879   0.684   0.831   1.665 -0.0937  0.1520 -0.8183
  627SOL    HW1 1880   0.597   0.790   1.633 -2.5706  0.1880  0.1156
  627SOL    HW2 1881   0.711   0.907   1.602 -1.1379 -1.2807  0.1685
  628SOL     OW 1882   2.391   0.135   0.729  0.5019  0.1358 -0.6101
  628SOL    HW1 1883   2.431   0.052   0.684 -1.2141  0.6790 -0.3222
  628SOL    HW2 1884   2.289   0.124   0.729 -1.6652  2.1322 -3.3518
  629SOL     OW 1885   1.912   0.932   1.978 -0.0544  0.0594 -0.1486
  629SOL    HW1 1886   1.911   1.025   1.935 -2.5503 -0.0366 -3.1625
  629SOL    HW2 1887   1.936   0.930   2.077  1.5114 -0.6130  1.0252
  630SOL     OW 1888   2.902   2.216   0.818 -0.0897  0.2667  0.2406
  630SOL    HW1 1889   2.860   2.307   0.798  2.3637  0.5178 -3.1539
  630SOL    HW2 1890   2.847   2.133   0.782 -1.3620  2.5205 -1.7713
  631SOL     OW 1891   3.085   0.130   2.080  0.9733  0.4800 -0.0998
  631SOL    HW1 1892   3.148   0.172   2.149  2.4604  1.1074  0.1017
  631SOL    HW2 1893   3.126   0.111   1.988  0.3662  2.4222  1.1383
  632SOL     OW 1894   2.424   2.571   0.635  0.7896 -0.0140 -0.6463
  632SOL    HW1 1895   2.496   2.644   0.657  2.8654  1.6904 -3.1342
  632SOL    HW2 1896   2.341   2.601   0.579  1.0720 -2.1756  1.2217
  633SOL     OW 1897   1.485   1.259   2.682 -0.5563 -0.4265  0.2666
  633SOL    HW1 1898   1.449   1.332   2.746 -3.3997 -1.0283 -0.3031
  633SOL    HW2 1899   1.414   1.220   2.620  0.2812  0.8836  2.6525
  634SOL     OW 1900   0.684   2.073   0.849 -0.4975 -0.1432  0.3474
  634SOL    HW1 1901   0.602   2.085   0.911 -0.7445  0.7960 -1.5064
  634SOL    HW2 1902   0.768   2.120   0.886 -0.1640 -2.3951 -1.3500
  635SOL     OW 1903   3.073   2.376   0.012  0.0166 -0.2987 -0.3926
  635SOL    HW1 1904   2.991   2.433  -0.021  0.2910 -1.4180  0.9120
  635SOL    HW2 1905   3.152   2.439   0.034 -0.6669 -0.5160 -2.4527
  636SOL     OW 1906   2.370   2.688   2.057  0.5280  0.2925 -0.6288
  636SOL    HW1 1907   2.377   2.785   2.074 -1.1947 -0.1486  0.9824
  636SOL    HW2 1908   2.301   2.641   2.118 -0.2175  1.4278 -1.8292
  637SOL     OW 1909   2.723   0.625   1.994  0.1193  0.3462  0.1582
  637SOL    HW1 1910   2.642   0.635   1.931 -1.5312 -0.6928 -0.7997
  637SOL    HW2 1911   2.792   0.695   1.977  0.1387 -0.7278  2.0721
  638SOL     OW 1912   2.458   1.867   1.312  0.0614  0.1800  0.2059
  638SOL    HW1 1913   2.355   1.886   1.313 -0.5927 -1.5799 -1.9048
  638SOL    HW2 1914   2.482   1.799   1.387  1.0928 -1.6839 -1.1166
  639SOL     OW 1915   1.269   2.216   1.648  0.7642  0.1588 -0.0541
  639SOL    HW1 1916   1.337   2.293   1.663  2.8834  0.2201  0.3066
  639SOL    HW2 1917   1.227   2.179   1.738 -1.9015  1.4810  1.3182
  640SOL     OW 1918   0.190   1.205   1.548  0.5188 -0.3693  0.5287
  640SOL    HW1 1919   0.169   1.221   1.650 -1.4433 -1.6103 -1.5420
  640SOL    HW2 1920   0.269   1.137   1.533  0.5716 -0.1400 -0.6965
  641SOL     OW 1921   1.963   0.230   1.524  0.0763 -0.4688 -0.4791
  641SOL    HW1 1922   1.918   0.274   1.606 -1.2730  0.8857  0.5284
  641SOL    HW2 1923   2.060   0.195   1.540 -2.0110 -0.6662  1.8249
  642SOL     OW 1924   2.038   0.016   0.320  0.0187  0.5817 -0.2949
  642SOL    HW1 1925   2.132   0.038   0.364  0.7693  2.3039  1.1120
  642SOL    HW2 1926   1.953   0.026   0.382 -2.5850  0.9481 -0.7896
  643SOL     OW 1927   2.895   1.951   2.149  0.2446  0.0897 -0.1126
  643SOL    HW1 1928   2.845   1.861   2.149 -1.8824  1.9075 -2.3030
  643SOL    HW2 1929   2.895   1.995   2.055  1.0328  1.2080  1.0928
  644SOL     OW 1930   2.284   2.431   1.235 -0.2926  0.3593 -0.2190
  644SOL    HW1 1931   2.357   2.390   1.174  1.3892 -0.4603 -1.6304
  644SOL    HW2 1932   2.290   2.385   1.328 -1.6358 -1.5405  0.4472
  645SOL     OW 1933   0.680   0.847   1.251 -0.2554 -0.2373  0.0132
  645SOL    HW1 1934   0.589   0.889   1.272 -1.5928  1.5212  2.4316
  645SOL    HW2 1935   0.693   0.828   1.151  0.8576  0.0721 -0.0372
  646SOL     OW 1936   1.512   1.812   2.040 -0.0642  0.5087  0.1459
  646SOL    HW1 1937   1.584   1.831   1.968 -1.0627 -0.6271  0.1911
  646SOL    HW2 1938   1.557   1.776   2.127 -0.6771 -0.4552  0.4643
  647SOL     OW 1939   0.795   1.106   0.650  0.7083  0.6045  0.2898
  647SOL    HW1 1940   0.851   1.131   0.736 -0.0407  0.9849  0.2840
  647SOL    HW2 1941   0.740   1.018   0.661 -0.3484  1.5658 -0.2796
  648SOL     OW 1942   0.185   0.211   0.360 -0.0059 -0.0572 -0.5948
  648SOL    HW1 1943   0.175   0.117   0.328  0.3889  1.6619  1.1078
  648SOL    HW2 1944   0.137   0.279   0.299  0.2544  0.5806  1.8828
  649SOL     OW 1945   2.990   0.268   0.871  0.0270 -0.1273 -0.9147
  649SOL    HW1 1946   3.059   0.228   0.804  0.0850  1.3682  0.0571
  649SOL    HW2 1947   3.007   0.368   0.891 -1.0660 -0.3457 -2.7425
  650SOL     OW 1948   2.818   0.701   1.512  0.1257 -0.7955  0.1187
  650SOL    HW1 1949   2.721   0.672   1.512 -1.7201  2.6291  1.5951
  650SOL    HW2 1950   2.837   0.793   1.467 -0.5543 -0.1280 -1.6439
  651SOL     OW 1951   0.869   1.515   1.685 -0.0126  0.7428  0.0293
  651SOL    HW1 1952   0.888   1.557   1.779  1.1566  0.3418  1.2450
  651SOL    HW2 1953   0.955   1.503   1.626 -0.3037 -3.0922  0.2726
  652SOL     OW 1954   2.365   2.499   2.479 -0.0820 -0.3940 -0.8550
  652SOL    HW1 1955   2.275   2.546   2.501  1.6307 -2.6288  1.3131
  652SOL    HW2 1956   2.385   2.498   2.377  1.1683 -0.5857 -0.9634
  653SOL     OW 1957   2.695   1.269   0.188  0.1609  0.0528 -0.3339
  653SOL    HW1 1958   2.733   1.354   0.238 -0.1528  0.6685 -0.0557
  653SOL    HW2 1959   2.753   1.182   0.208 -1.6493 -2.7526  3.1044
  654SOL     OW 1960   1.244   2.158   1.271  0.5607  0.8824  0.2546
  654SOL    HW1 1961   1.258   2.097   1.360  0.8809  0.5164  1.9513
  654SOL    HW2 1962   1.286   2.108   1.189 -0.3312 -0.3146 -2.3012
  655SOL     OW 1963   0.172   0.996   1.937 -0.3389  0.0741 -0.0460
  655SOL    HW1 1964   0.214   0.943   1.856  0.5248  1.3372 -1.8457
  655SOL    HW2 1965   0.185   1.098   1.914 -0.1540  0.2989  1.2327
  656SOL     OW 1966   2.594   2.545   2.636  0.4665  0.3132  0.0714
  656SOL    HW1 1967   2.683   2.539   2.582  0.6200 -0.1084  0.9803
  656SOL    HW2 1968   2.513   2.501   2.582 -0.3219  1.4330  1.7080
  657SOL     OW 1969   3.022   1.052   1.868 -0.5274 -0.3753 -0.4562
  657SOL    HW1 1970   2.972   1.116   1.937 -1.0866  2.4577 -2.2528
  657SOL    HW2 1971   3.119   1.031   1.891  0.7965  0.8929  1.0485
  658SOL     OW 1972   1.661   0.182   2.379 -0.4356  0.2184 -0.6347
  658SOL    HW1 1973   1.728   0.146   2.453 -0.7688 -0.1932  0.2787
  658SOL    HW2 1974   1.630   0.104   2.324  1.8620  1.1498  1.3736
  659SOL     OW 1975   1.431   0.652   2.803 -0.8157 -0.4232  0.1186
  659SOL    HW1 1976   1.467   0.689   2.716 -1.2016  0.4924  1.6381
  659SOL    HW2 1977   1.333   0.682   2.828  0.9517 -4.1740  1.1652
  660SOL     OW 1978   1.462   0.308   1.412  0.4323 -0.2070 -0.0472
  660SOL    HW1 1979   1.485   0.341   1.508 -0.2539 -0.5696  0.8238
  660SOL    HW2 1980   1.502   0.221   1.368  0.3833  2.1463 -1.8483
  661SOL     OW 1981   2.413   1.270   0.638  0.6860 -0.3728 -0.0660
  661SOL    HW1 1982   2.445   1.260   0.542  2.1073 -0.0827 -1.5446
  661SOL    HW2 1983   2.330   1.340   0.640 -1.9536 -0.0375 -0.3287
  662SOL     OW 1984   1.465   0.389   1.702 -0.0757  0.4124 -0.3810
  662SOL    HW1 1985   1.383   0.351   1.756  1.5182  3.5493 -1.1480
  662SOL    HW2 1986   1.469   0.491   1.710 -1.0103  0.6034 -0.9809
  663SOL     OW 1987   0.860   1.590   1.938  0.5221  0.0469 -0.0549
  663SOL    HW1 1988   0.830   1.676   1.992 -1.2934  1.1341 -2.6171
  663SOL    HW2 1989   0.808   1.506   1.969  0.6883 -2.6078  1.0974
  664SOL     OW 1990   1.578   2.097   1.429 -0.3485 -0.2374  0.5543
  664SOL    HW1 1991   1.489   2.053   1.456  0.6404  0.5212 -0.8613
  664SOL    HW2 1992   1.658   2.032   1.407  0.0633 -1.0058 -2.7663
  665SOL     OW 1993   2.256   0.684   1.975 -0.1931  0.2564 -0.1418
  665SOL    HW1 1994   2.227   0.588   1.975  2.5496  0.4882 -0.9186
  665SOL    HW2 1995   2.325   0.708   2.052  1.1345 -0.8953  0.7465
  666SOL     OW 1996   0.458   2.234   0.344  0.5608 -0.0050 -0.4222
  666SOL    HW1 1997   0.502   2.308   0.399 -2.7062  1.1807  1.1258
  666SOL    HW2 1998   0.354   2.235   0.357 -0.0593 -0.9469  0.2784
  667SOL     OW 1999   1.978   0.211   1.060 -0.9177 -0.0756 -0.1488
  667SOL    HW1 2000   1.978   0.312   1.038  3.2970 -1.7416 -1.9787
  667SOL    HW2 2001   1.918   0.185   1.139 -1.4066  1.9994 -1.0954
  668SOL     OW 2002   1.975   0.511   1.087 -0.4707  0.1353  0.0862
  668SOL    HW1 2003   2.059   0.515   1.015 -1.5022  1.0824 -3.3473
  668SOL    HW2 2004   2.014   0.504   1.181  0.0974 -0.6002  0.1719
  669SOL     OW 2005   3.039   2.155   1.028 -0.4864  0.1821  0.4542
  669SOL    HW1 2006   2.991   2.180   0.940 -0.4844  1.0921 -0.5660
  669SOL    HW2 2007   2.991   2.194   1.108 -1.7308 -1.6531 -1.5086
  670SOL     OW 2008   2.923   2.326   2.099  0.1366 -0.3465 -0.3777
  670SOL    HW1 2009   2.851   2.331   2.175  0.8265  1.5290 -0.1000
  670SOL    HW2 2010   2.929   2.422   2.057 -2.7569  0.0634  2.0031
  671SOL     OW 2011   1.794   1.715   1.490  0.4470  0.6743  0.2073
  671SOL    HW1 2012   1.806   1.766   1.401  1.5250  0.8155 -1.5187
  671SOL    HW2 2013   1.701   1.678   1.510  0.1266  1.1920  2.6246
  672SOL     OW 2014   0.435   0.650   2.581  0.5626 -0.3721  0.2386
  672SOL    HW1 2015   0.372   0.703   2.510 -0.8628  0.4565 -2.9880
  672SOL    HW2 2016   0.420   0.686   2.676 -0.2947 -1.1612 -2.4815
  673SOL     OW 2017   0.107   1.378   1.068  0.2264 -0.0762 -0.2375
  673SOL    HW1 2018   0.121   1.391   1.167 -0.2144  0.3318  0.5398
  673SOL    HW2 2019   0.197   1.383   1.016  1.4440 -1.9463 -0.6388
  674SOL     OW 2020   1.612   2.978   0.258  0.4122 -0.0037  0.3598
  674SOL    HW1 2021   1.626   3.042   0.178  0.1643 -1.0151  0.3930
  674SOL    HW2 2022   1.604   2.877   0.224 -1.5041  1.2782 -2.2956
  675SOL     OW 2023   1.684   0.865   2.336  0.4172 -0.1784  0.2507
  675SOL    HW1 2024   1.779   0.884   2.312  0.3903 -1.1780 -0.0579
  675SOL    HW2 2025   1.653   0.769   2.309  0.9596  1.4808 -0.9908
  676SOL     OW 2026   2.550   1.545   1.997 -0.1612 -0.0550 -0.2978
  676SOL    HW1 2027   2.543   1.489   1.909 -1.2149 -0.8604  2.0286
  676SOL    HW2 2028   2.579   1.495   2.082  2.1076  0.3505  1.4841
  677SOL     OW 2029   1.869   0.705   0.887  0.0825 -0.6539  0.1095
  677SOL    HW1 2030   1.776   0.714   0.929  0.5333 -2.2767 -2.2629
  677SOL    HW2 2031   1.945   0.683   0.956  2.1993  2.2952 -0.4453
  678SOL     OW 2032   0.078   0.783   1.640 -0.1014 -1.0839 -0.1277
  678SOL    HW1 2033   0.174   0.798   1.679 -1.0321  1.0465 -0.6352
  678SOL    HW2 2034   0.007   0.752   1.712 -2.1456 -0.9965 -0.6984
  679SOL     OW 2035   2.583   1.121   1.193  0.0564  0.5283 -0.1825
  679SOL    HW1 2036   2.491   1.164   1.203  0.8373 -0.5275 -2.0993
  679SOL    HW2 2037   2.577   1.021   1.159  0.5741 -0.2153 -2.8712
  680SOL     OW 2038   2.847   0.483   1.687  0.7578 -1.0811  0.2137
  680SOL    HW1 2039   2.839   0.561   1.617 -1.8642  0.2471  0.6351
  680SOL    HW2 2040   2.923   0.508   1.752  0.6325 -0.9461 -2.8067
  681SOL     OW 2041   2.994   0.033   1.574  0.0535  0.3772  0.6789
  681SOL    HW1 2042   2.995  -0.018   1.485  0.8656  5.5653  0.5444
  681SOL    HW2 2043   2.930   0.116   1.565  1.3472 -0.0941 -0.8684
  682SOL     OW 2044   0.651   0.039   1.288 -0.1726  0.1213  0.9497
  682SOL    HW1 2045   0.584  -0.022   1.335 -1.5769 -2.1969 -2.1516
  682SOL    HW2 2046   0.730  -0.011   1.239  0.1969 -0.7039  0.7341
  683SOL     OW 2047   1.381   0.227   2.133  0.1140 -0.4068 -0.1895
  683SOL    HW1 2048   1.363   0.291   2.218 -2.5979  2.4077  0.0847
  683SOL    HW2 2049   1.467   0.254   2.080  0.0575 -0.3195 -2.4982
  684SOL     OW 2050   1.421   2.167   0.575  0.1139 -0.3587  0.0000
  684SOL    HW1 2051   1.480   2.098   0.629  0.3666  0.0430 -1.9037
  684SOL    HW2 2052   1.332   2.128   0.540  0.7373  0.6524 -1.4850
  685SOL     OW 2053   2.257   2.083   1.972 -0.1390  0.2752 -0.2172
  685SOL    HW1 2054   2.340   2.030   1.942 -0.6450 -0.7005 -1.8615
  685SOL    HW2 2055   2.275   2.130   2.064 -1.4447 -0.6065 -0.5450
  686SOL     OW 2056   1.534   1.882   2.936 -0.5479 -0.0114 -0.5090
  686SOL    HW1 2057   1.581   1.824   3.006  0.1604 -2.1465 -1.2957
  686SOL    HW2 2058   1.433   1.867   2.933  0.0781 -0.6216  0.5874
  687SOL     OW 2059   1.347   2.397   1.955 -0.4349  0.0407  0.1605
  687SOL    HW1 2060   1.373   2.296   1.980 -0.2019  1.4044 -0.8154
  687SOL    HW2 2061   1.326   2.452   2.040 -3.5217  0.2372  1.0282
  688SOL     OW 2062   2.094   1.494   1.731 -0.1993  0.4926 -0.1445
  688SOL    HW1 2063   2.183   1.537   1.705 -0.5872 -1.8744 -1.0138
  688SOL    HW2 2064   2.037   1.462   1.650  1.5161 -0.6227 -0.7311
  689SOL     OW 2065   2.391   1.136   2.763  0.5233  0.3564 -0.4245
  689SOL    HW1 2066   2.302   1.084   2.766  2.9043  0.8121  0.0897
  689SOL    HW2 2067   2.450   1.111   2.843 -1.1805  0.0241 -0.0912
  690SOL     OW 2068   2.198   2.757   0.057  0.4313  0.3769 -0.7417
  690SOL    HW1 2069   2.173   2.719  -0.034 -3.2209  0.9066  0.9253
  690SOL    HW2 2070   2.111   2.759   0.114 -3.0936  0.3758  1.2891
  691SOL     OW 2071   2.570   0.428   2.121 -0.0434  0.5318 -0.2652
  691SOL    HW1 2072   2.614   0.336   2.131  2.0598  0.0482 -1.4149
  691SOL    HW2 2073   2.630   0.493   2.063  1.4547  2.4402 -0.0139
  692SOL     OW 2074   2.665   1.216   0.772 -0.3075 -0.4106 -0.2541
  692SOL    HW1 2075   2.581   1.246   0.715 -1.0167  0.6221 -2.4119
  692SOL    HW2 2076   2.701   1.291   0.834 -2.0432 -0.3468  1.3528
  693SOL     OW 2077   2.848   2.939   0.620 -0.4572  0.6305  0.7266
  693SOL    HW1 2078   2.826   3.014   0.694 -3.0790  0.2228  1.9186
  693SOL    HW2 2079   2.807   2.966   0.527 -1.2642 -3.1960  0.0583
  694SOL     OW 2080   2.393   2.225   0.164  0.5030 -0.9483  0.0372
  694SOL    HW1 2081   2.366   2.329   0.184  0.4932 -0.8636  1.3706
  694SOL    HW2 2082   2.310   2.164   0.140 -1.4087 -1.1467  0.9674
  695SOL     OW 2083   0.479   2.997   1.456  0.5696 -0.2230 -0.2632
  695SOL    HW1 2084   0.413   2.928   1.417 -0.6444 -2.2460  0.5706
  695SOL    HW2 2085   0.434   3.056   1.529  0.5257  2.6548 -0.3753
  696SOL     OW 2086   2.772   1.970   0.744  0.4118 -0.2479 -0.1974
  696SOL    HW1 2087   2.845   1.892   0.755  0.5082  0.2411 -0.9455
  696SOL    HW2 2088   2.773   2.008   0.647 -0.5101  2.9222  0.9153
  697SOL     OW 2089   1.675   1.866   1.815 -0.1715 -0.0891  0.1373
  697SOL    HW1 2090   1.762   1.815   1.798 -0.5676 -0.8347  0.4793
  697SOL    HW2 2091   1.691   1.968   1.822 -0.3864 -2.0931 -0.5014
  698SOL     OW 2092   2.897   0.435   2.663 -0.5778  0.3236  0.5165
  698SOL    HW1 2093   2.946   0.410   2.572 -1.1599 -2.4570  0.5563
  698SOL    HW2 2094   2.930   0.378   2.746  0.0923 -0.8829  2.0117
  699SOL     OW 2095   1.561   0.084   2.913 -0.0006 -0.0689 -0.1428
  699SOL    HW1 2096   1.534  -0.010   2.872  1.0505 -1.5645  1.1403
  699SOL    HW2 2097   1.624   0.139   2.847  0.7871  0.1578 -1.9947
  700SOL     OW 2098   0.990   2.238   1.360  0.0404  0.5499  0.5827
  700SOL    HW1 2099   1.091   2.218   1.332 -2.7038 -1.1815 -1.2074
  700SOL    HW2 2100   0.917   2.167   1.343  0.5122  0.1868 -0.9656
  701SOL     OW 2101   1.907   2.846   0.054 -0.0499  0.0492 -0.1771
  701SOL    HW1 2102   1.874   2.800   0.145 -1.8759  2.1347  0.9520
  701SOL    HW2 2103   1.927   2.943   0.084 -0.2121 -1.7423 -0.6236
  702SOL     OW 2104   2.102   1.357   1.964 -0.3117 -0.1439  0.2293
  702SOL    HW1 2105   2.194   1.306   1.974  1.3508 -0.4618 -0.3317
  702SOL    HW2 2106   2.102   1.416   1.876  0.7495  2.3652 -0.5216
  703SOL     OW 2107   1.924   0.912   1.524 -0.1935  0.2387  0.3622
  703SOL    HW1 2108   1.934   0.808   1.519 -3.1676 -0.2411  1.7705
  703SOL    HW2 2109   2.002   0.959   1.582  2.0176 -0.5257 -0.2042
  704SOL     OW 2110   0.321   2.049   1.699  0.2946 -0.1677 -0.4229
  704SOL    HW1 2111   0.364   2.014   1.787  0.5471 -0.3709  1.9643
  704SOL    HW2 2112   0.378   2.123   1.655 -2.1665  0.1224  0.3982
  705SOL     OW 2113   2.433   1.455   0.927 -0.0793  0.2757 -0.0952
  705SOL    HW1 2114   2.390   1.410   0.845  2.1894  2.8891 -0.6675
  705SOL    HW2 2115   2.527   1.415   0.946  0.6067  0.2765 -1.5470
  706SOL     OW 2116   0.631   1.701   1.803  0.3617 -0.2669 -0.9503
  706SOL    HW1 2117   0.682   1.755   1.738  0.7497 -1.2348  1.4638
  706SOL    HW2 2118   0.693   1.646   1.867  2.0226  0.4749  4.5318
  707SOL     OW 2119   2.328   1.212   1.985 -0.1419 -0.2268 -0.1610
  707SOL    HW1 2120   2.351   1.216   2.087 -0.7262  1.1037 -0.2562
  707SOL    HW2 2121   2.343   1.116   1.946  0.8536 -1.7596 -0.3830
  708SOL     OW 2122   3.027   0.468   3.079  0.2642 -0.1033  0.2293
  708SOL    HW1 2123   3.065   0.557   3.038  0.4177  1.1232 -0.5461
  708SOL    HW2 2124   3.019   0.387   3.009 -1.5262 -2.6433 -3.0518
  709SOL     OW 2125   1.886   1.888   0.382  0.4527 -0.5591 -0.1004
  709SOL    HW1 2126   1.875   1.984   0.420 -0.7337 -3.7862  0.4222
  709SOL    HW2 2127   1.876   1.885   0.279 -1.3823  1.0994  0.6891
  710SOL     OW 2128   1.812   1.577   2.459  0.5930 -0.0084  0.0732
  710SOL    HW1 2129   1.863   1.494   2.422 -0.4452  3.5189  0.1363
  710SOL    HW2 2130   1.777   1.565   2.557  1.0947  1.5185  1.1558
  711SOL     OW 2131   2.697   2.901   0.925 -0.3384  0.6928 -0.5635
  711SOL    HW1 2132   2.635   2.987   0.921 -3.6062  1.2397  0.5485
  711SOL    HW2 2133   2.788   2.927   0.968  0.4289  0.3350  0.5917
  712SOL     OW 2134   1.405   2.122   1.992 -0.1818  0.2139  0.2520
  712SOL    HW1 2135   1.500   2.098   1.954  1.1354 -2.2710  1.8403
  712SOL    HW2 2136   1.329   2.121   1.914  2.6665  0.9418 -0.2890
  713SOL     OW 2137   2.774   1.416   2.501 -0.3028  0.4906 -0.2326
  713SOL    HW1 2138   2.789   1.312   2.511 -2.9583 -0.0380  0.2886
  713SOL    HW2 2139   2.689   1.445   2.556  0.0507 -0.4960 -1.7665
  714SOL     OW 2140   2.690   0.490   2.372  0.0380 -0.2242 -0.4154
  714SOL    HW1 2141   2.633   0.421   2.427  0.1146  0.2230  0.1052
  714SOL    HW2 2142   2.648   0.495   2.278 -0.9841  0.6109  4.4077
  715SOL     OW 2143   1.591   2.171   1.149  0.7514  0.1768  0.2216
  715SOL    HW1 2144   1.507   2.177   1.088 -0.7635 -0.7453 -2.5214
  715SOL    HW2 2145   1.562   2.153   1.247 -2.6714  3.6148 -1.1104
  716SOL     OW 2146   1.261   0.109   1.518 -0.2248 -0.5953 -0.2322
  716SOL    HW1 2147   1.155   0.103   1.527 -0.9757  2.8576 -1.1150
  716SOL    HW2 2148   1.305   0.203   1.500 -0.6981  1.9364  0.7657
  717SOL     OW 2149   1.147   0.577   1.624 -0.3842 -0.1412 -0.2778
  717SOL    HW1 2150   1.245   0.592   1.654 -1.3159 -1.3712  0.6109
  717SOL    HW2 2151   1.147   0.537   1.528 -0.8995  1.6967  0.3826
  718SOL     OW 2152   0.680   0.879   0.956  0.4897  0.4921 -0.2887
  718SOL    HW1 2153   0.656   0.901   0.856  0.6370 -1.6576 -2.0054
  718SOL    HW2 2154   0.642   0.961   1.018 -0.1058  0.6382 -0.1527
  719SOL     OW 2155   0.679   1.727   2.298 -0.1173  0.2578  0.5306
  719SOL    HW1 2156   0.741   1.765   2.368 -1.5241 -1.1117 -2.0791
  719SOL    HW2 2157   0.631   1.638   2.330  0.7657 -2.4635  2.6948
  720SOL     OW 2158   2.187   1.156   0.294  0.1043 -0.1417  0.1520
  720SOL    HW1 2159   2.265   1.094   0.271  0.5157 -1.6874 -0.9250
  720SOL    HW2 2160   2.134   1.126   0.379  0.9297 -0.8243  0.0159
  721SOL     OW 2161   2.241   3.025   2.116  0.0226  0.0491 -0.3203
  721SOL    HW1 2162   2.199   3.020   2.022  1.2182 -0.3838 -0.8626
  721SOL    HW2 2163   2.183   3.051   2.197 -3.9592  1.2062  0.6200
  722SOL     OW 2164   2.352   1.684   0.536 -0.2091 -0.0989 -0.4371
  722SOL    HW1 2165   2.420   1.677   0.459 -2.3423  0.6304  0.1246
  722SOL    HW2 2166   2.257   1.717   0.502  1.3314 -1.3537 -0.8288
  723SOL     OW 2167   2.637   2.777   1.943 -0.3190  0.0378 -0.0744
  723SOL    HW1 2168   2.684   2.863   1.979 -1.0068 -2.2592 -1.8529
  723SOL    HW2 2169   2.561   2.740   2.000  0.7528 -1.0687 -1.6811
  724SOL     OW 2170   0.382   2.516   2.406  0.5123 -0.2814  0.2319
  724SOL    HW1 2171   0.282   2.494   2.405 -0.1905 -0.5387  0.3301
  724SOL    HW2 2172   0.428   2.507   2.502  1.3427  2.0479 -1.0017
  725SOL     OW 2173   2.442   2.841   1.496 -0.3382 -0.4040  1.1099
  725SOL    HW1 2174   2.449   2.875   1.400 -1.8808 -1.6520  2.0316
  725SOL    HW2 2175   2.483   2.749   1.505  2.9182 -1.2437 -1.0399
  726SOL     OW 2176   2.528   2.332   0.697 -0.2164 -0.4877  0.2259
  726SOL    HW1 2177   2.497   2.437   0.688 -1.1677  3.1586  0.1721
  726SOL    HW2 2178   2.527   2.280   0.607 -0.3214  2.2151  1.2206
  727SOL     OW 2179   0.107   0.010   0.107  0.0707  0.0283  0.5381
  727SOL    HW1 2180   0.206   0.033   0.082  1.2869 -0.5409 -0.6871
  727SOL    HW2 2181   0.074  -0.088   0.080 -1.4939  2.6163  2.2210
  728SOL     OW 2182   2.932   0.691   0.933  0.4941 -0.3738  0.1264
  728SOL    HW1 2183   2.867   0.685   0.852  0.1047  0.8223 -2.7842
  728SOL    HW2 2184   2.884   0.668   1.022  0.3187  0.9506  0.2519
  729SOL     OW 2185   0.037   2.537   0.786  0.3728 -0.7313  0.0170
  729SOL    HW1 2186   0.053   2.494   0.882 -2.3717  0.6495  0.4350
  729SOL    HW2 2187   0.118   2.530   0.725 -2.6761  0.9859  1.2842
  730SOL     OW 2188   2.587   0.679   0.896  0.6878 -0.3632 -0.2663
  730SOL    HW1 2189   2.562   0.781   0.892  1.7236 -1.6071  0.5846
  730SOL    HW2 2190   2.643   0.657   0.809  1.3799 -0.4181  0.2458
  731SOL     OW 2191   3.079   2.185   2.341 -0.2586 -0.0841  0.2690
  731SOL    HW1 2192   3.066   2.210   2.441 -0.1244 -1.5349  0.3672
  731SOL    HW2 2193   3.019   2.236   2.277 -3.0527 -0.1170  1.1139
  732SOL     OW 2194   1.280   2.751   2.006 -0.1635  0.0165  0.0460
  732SOL    HW1 2195   1.269   2.678   2.083 -0.0596 -0.0782  0.0737
  732SOL    HW2 2196   1.273   2.708   1.911 -0.0751  0.7088 -0.9406
  733SOL     OW 2197   0.029   0.592   2.262 -0.0620 -0.0200  0.1302
  733SOL    HW1 2198   0.094   0.651   2.209 -0.2287  0.5746  0.5689
  733SOL    HW2 2199  -0.006   0.511   2.209 -0.2444  0.7109  0.6105
  734SOL     OW 2200   1.460   0.386   2.703 -0.2433 -0.3372 -0.6396
  734SOL    HW1 2201   1.462   0.471   2.760  0.8200 -0.6413 -0.0763
  734SOL    HW2 2202   1.380   0.322   2.725  1.9102 -4.1362  1.4949
  735SOL     OW 2203   2.944   2.653   2.289 -0.6647  0.3193 -0.1565
  735SOL    HW1 2204   2.942   2.601   2.198  0.7201  0.1231 -0.5767
  735SOL    HW2 2205   2.994   2.745   2.276 -3.5768 -1.0021 -2.9752
  736SOL     OW 2206   0.912   0.407   2.544 -0.5433 -0.1517 -0.3364
  736SOL    HW1 2207   0.814   0.436   2.560  0.5726 -3.2874 -0.8723
  736SOL    HW2 2208   0.934   0.356   2.455 -0.7337  1.7093 -1.9156
  737SOL     OW 2209   2.613   0.439   2.787 -0.3978 -0.4204  0.6347
  737SOL    HW1 2210   2.583   0.398   2.880 -0.4450 -0.9995 -1.9959
  737SOL    HW2 2211   2.715   0.457   2.772  1.4751  1.3030  0.1488
  738SOL     OW 2212   1.748   1.230   2.941  0.2427  0.1874  0.0151
  738SOL    HW1 2213   1.848   1.211   2.914  2.4287  1.0214 -0.0462
  738SOL    HW2 2214   1.700   1.157   2.999 -2.4779 -0.0498 -1.2527
  739SOL     OW 2215   1.844   0.683   0.614  0.3118 -0.4247  0.2657
  739SOL    HW1 2216   1.861   0.698   0.715  1.1920  1.1016  2.6095
  739SOL    HW2 2217   1.840   0.578   0.592  0.2502  0.6884  2.2695
  740SOL     OW 2218   1.963   1.939   2.337 -0.0907  0.0026  0.2025
  740SOL    HW1 2219   2.021   1.860   2.369  2.0214 -4.5898 -0.5179
  740SOL    HW2 2220   1.899   1.909   2.259 -0.1675  0.0001  0.3313
  741SOL     OW 2221   2.527  -0.002   2.471  0.0587 -0.6537  0.4204
  741SOL    HW1 2222   2.629  -0.009   2.461 -0.3479 -0.1104  1.8412
  741SOL    HW2 2223   2.490   0.047   2.388  2.4676  2.5412  0.6246
  742SOL     OW 2224   2.185   1.428   0.167  0.1103  0.5120 -0.3972
  742SOL    HW1 2225   2.088   1.440   0.127 -0.6655  2.5440 -2.1662
  742SOL    HW2 2226   2.194   1.338   0.223  2.6157  0.7383 -1.5975
  743SOL     OW 2227   1.833   0.612   2.613  0.0894 -0.1415 -0.3370
  743SOL    HW1 2228   1.811   0.559   2.527  1.8705  0.6737 -1.8004
  743SOL    HW2 2229   1.755   0.663   2.659 -2.3856 -0.8986  1.1776
  744SOL     OW 2230   2.663   2.164   0.075  0.5116 -0.7356  0.5783
  744SOL    HW1 2231   2.577   2.207   0.111 -0.3683 -0.1509 -5.4775
  744SOL    HW2 2232   2.651   2.060   0.057 -2.3427 -0.0801 -3.8190
  745SOL     OW 2233   2.199   2.560   2.217 -0.4868  0.5887  0.0857
  745SOL    HW1 2234   2.119   2.576   2.152 -0.2727 -1.0749 -0.6256
  745SOL    HW2 2235   2.169   2.565   2.312  0.1395  0.2762  0.3313
  746SOL     OW 2236   0.026   2.599   1.751 -0.0009  0.4883 -0.1031
  746SOL    HW1 2237   0.115   2.549   1.724  0.7352  0.3766 -0.1461
  746SOL    HW2 2238   0.036   2.692   1.796 -1.0621  0.5537  0.9939
  747SOL     OW 2239   0.052   1.798   1.643  0.7133  0.2424  0.1310
  747SOL    HW1 2240   0.012   1.714   1.594  1.5967  2.2977  0.2832
  747SOL    HW2 2241   0.121   1.843   1.577  0.3159 -2.4322 -1.6254
  748SOL     OW 2242   1.839   2.733   2.911  0.2197  0.5821  0.0614
  748SOL    HW1 2243   1.849   2.783   2.995 -1.6097 -1.9409 -0.6350
  748SOL    HW2 2244   1.742   2.741   2.881  1.4353 -1.1857  2.2177
  749SOL     OW 2245   1.326   2.970   0.862  0.4758  0.9418  0.3876
  749SOL    HW1 2246   1.291   3.063   0.837  1.8991 -3.0921  1.9473
  749SOL    HW2 2247   1.420   2.957   0.812  3.2831  0.6942 -1.8929
  750SOL     OW 2248   2.222   0.179   1.849 -0.0502  0.0001 -0.3793
  750SOL    HW1 2249   2.271   0.222   1.766  2.2817  1.2961  0.4807
  750SOL    HW2 2250   2.242   0.234   1.941  2.5157  0.0595  0.4892
  751SOL     OW 2251   0.781   2.136   2.867 -0.5641 -0.1918 -0.2723
  751SOL    HW1 2252   0.864   2.117   2.928  0.5209  0.4125 -0.5815
  751SOL    HW2 2253   0.691   2.108   2.912  1.4786 -2.3053 -0.8542
  752SOL     OW 2254   1.300   0.800   1.162 -0.5779  0.0558  0.0955
  752SOL    HW1 2255   1.344   0.893   1.177 -1.3907  1.5924 -0.7640
  752SOL    HW2 2256   1.347   0.731   1.223 -0.2204  0.9533 -1.5963
  753SOL     OW 2257   0.963   2.570   1.796  0.0442 -0.2542  0.1418
  753SOL    HW1 2258   1.067   2.574   1.769  3.6853  0.3807  0.4275
  753SOL    HW2 2259   0.926   2.666   1.827  1.2293  2.6743  4.0952
  754SOL     OW 2260   1.175   1.157   2.994 -0.1716  0.3915  0.2211
  754SOL    HW1 2261   1.228   1.087   2.945 -0.6286  0.1386  1.6094
  754SOL    HW2 2262   1.224   1.246   3.009 -0.5198  0.0262 -0.2552
  755SOL     OW 2263   1.971   0.463   2.210  0.3517  0.0160  0.0590
  755SOL    HW1 2264   2.047   0.399   2.234  0.8645 -3.2774  0.4560
  755SOL    HW2 2265   1.891   0.464   2.278  3.1163  2.1753 -1.6545
  756SOL     OW 2266   2.503   0.990   3.004  0.1449  0.8757 -0.1500
  756SOL    HW1 2267   2.606   0.968   3.014  1.4131 -0.2937 -0.5202
  756SOL    HW2 2268   2.455   0.898   3.004  2.4772  0.7252  0.2119
  757SOL     OW 2269   0.085   0.412   1.961  0.4528 -0.5248 -0.3484
  757SOL    HW1 2270   0.147   0.330   1.941 -1.3123  1.1628  1.6698
  757SOL    HW2 2271   0.004   0.392   2.026 -2.6719  0.0818  2.5766
  758SOL     OW 2272   2.240   0.089   1.506 -0.8428  0.3831  0.1716
  758SOL    HW1 2273   2.196  -0.006   1.515  0.3828  0.6526  0.9575
  758SOL    HW2 2274   2.265   0.112   1.406 -1.5613  1.7593 -1.4973
  759SOL     OW 2275   1.681   0.048   0.066 -0.5714 -0.7514 -0.1510
  759SOL    HW1 2276   1.643   0.057  -0.029  1.1666 -0.0741  1.4110
  759SOL    HW2 2277   1.785   0.064   0.065 -2.0944  2.1670  1.5664
  760SOL     OW 2278   2.689   2.009   2.832 -0.4664 -0.0603 -0.5680
  760SOL    HW1 2279   2.606   1.948   2.847 -0.0996 -1.9764  1.6844
  760SOL    HW2 2280   2.678   2.112   2.840 -0.3153 -1.3842 -1.8351
  761SOL     OW 2281   1.928   1.744   1.729  0.4120 -0.5591  0.3680
  761SOL    HW1 2282   1.973   1.654   1.752  1.7489 -0.0023  1.6922
  761SOL    HW2 2283   1.871   1.741   1.643 -0.8220  0.9732 -0.0549
  762SOL     OW 2284   0.480   2.403   0.931 -0.4485 -0.6751  0.3587
  762SOL    HW1 2285   0.516   2.418   0.834  0.7445  0.5560 -0.9834
  762SOL    HW2 2286   0.553   2.395   1.005  0.5156  1.0473  0.4477
  763SOL     OW 2287   2.105   1.577   2.981 -0.5326 -0.6630  0.4312
  763SOL    HW1 2288   2.198   1.535   2.999 -1.1780  0.4303 -1.1872
  763SOL    HW2 2289   2.031   1.547   3.051  0.4962  1.4116 -0.4418
  764SOL     OW 2290   0.683   0.605   0.680  0.2764 -0.0720  0.3877
  764SOL    HW1 2291   0.601   0.547   0.666  2.9108  2.4900  0.4561
  764SOL    HW2 2292   0.734   0.589   0.769  1.5076 -1.6535 -1.0086
  765SOL     OW 2293   0.809   0.331   0.710  0.1372 -0.4137 -0.0284
  765SOL    HW1 2294   0.891   0.350   0.656 -3.3581 -0.9752  3.0825
  765SOL    HW2 2295   0.793   0.400   0.787 -1.5630  2.2910  3.7522
  766SOL     OW 2296   2.930   2.152   3.069  0.4266 -0.0696  0.0553
  766SOL    HW1 2297   2.836   2.163   3.118 -2.0547 -0.9397  0.9948
  766SOL    HW2 2298   3.001   2.227   3.087 -0.6443 -0.7010 -0.0426
  767SOL     OW 2299   2.825   1.609   0.604 -0.4317  0.2040  0.6837
  767SOL    HW1 2300   2.736   1.648   0.643 -0.1058  0.8347 -0.4141
  767SOL    HW2 2301   2.907   1.627   0.663  0.0360  1.0479 -1.2527
  768SOL     OW 2302   1.069   0.201   0.186 -0.0378  0.2057  0.2263
  768SOL    HW1 2303   1.040   0.252   0.269  2.4542  0.1067  0.3205
  768SOL    HW2 2304   1.158   0.148   0.210  1.5771  0.6646  1.4445
  769SOL     OW 2305   1.127   1.825   2.290 -0.5333  0.0788  0.2100
  769SOL    HW1 2306   1.036   1.870   2.322 -2.3996 -0.4577  0.0599
  769SOL    HW2 2307   1.186   1.800   2.368  0.2295 -1.3921  1.0825
  770SOL     OW 2308   0.148   1.142   2.334 -0.8999 -0.6758 -0.1428
  770SOL    HW1 2309   0.127   1.217   2.401 -0.4324  1.0572 -1.0578
  770SOL    HW2 2310   0.061   1.091   2.305 -1.0310  3.6803 -1.8164
  771SOL     OW 2311   3.034   2.824   1.937  0.0696 -0.0241  0.2737
  771SOL    HW1 2312   2.979   2.848   1.848 -0.1372 -2.1757  1.8954
  771SOL    HW2 2313   3.012   2.894   2.013  2.5282  1.8947 -2.3185
  772SOL     OW 2314   2.364   0.245   2.813  0.0630  0.3463 -0.1369
  772SOL    HW1 2315   2.417   0.165   2.766  0.7688  0.1151  0.1020
  772SOL    HW2 2316   2.377   0.245   2.913  1.1716  0.1544 -4.2415
  773SOL     OW 2317   0.585   2.060   2.411  0.0025  0.2841 -0.1520
  773SOL    HW1 2318   0.548   2.159   2.392 -2.0026  1.2758 -0.3512
  773SOL    HW2 2319   0.510   2.003   2.459  1.0460 -1.0353 -2.5152
  774SOL     OW 2320   2.124   0.023   2.577 -0.2596 -0.2385 -0.3411
  774SOL    HW1 2321   2.130   0.118   2.614 -1.7306  2.6230 -2.3808
  774SOL    HW2 2322   2.166  -0.051   2.636 -1.1955 -0.8372 -0.6819
  775SOL     OW 2323   2.546   2.948   2.235 -0.1151  0.6924 -0.5878
  775SOL    HW1 2324   2.462   3.006   2.224  0.9016 -3.4461 -1.2012
  775SOL    HW2 2325   2.580   2.950   2.338 -1.4238  1.9061  2.3696
  776SOL     OW 2326   3.103   1.256   0.185 -0.6896  0.4028 -0.7421
  776SOL    HW1 2327   3.046   1.209   0.108  0.1235 -1.4714  0.4766
  776SOL    HW2 2328   3.043   1.266   0.268  3.4572  1.6622 -1.3463
  777SOL     OW 2329   0.387   2.951   0.455 -0.6945 -0.4441 -1.1723
  777SOL    HW1 2330   0.289   2.954   0.423  2.1354 -2.2445 -1.2509
  777SOL    HW2 2331   0.430   2.862   0.427  0.8139  1.7322 -0.0044
  778SOL     OW 2332   1.374   2.011   0.266 -0.3232  0.2423 -0.3441
  778SOL    HW1 2333   1.308   2.052   0.335 -0.1885  0.6738 -1.6628
  778SOL    HW2 2334   1.386   2.063   0.177 -2.0677  0.7518  0.1481
  779SOL     OW 2335   0.154   0.796   0.475 -0.0366  0.0911  0.1419
  779SOL    HW1 2336   0.086   0.719   0.452 -1.7224 -3.5069  0.4934
  779SOL    HW2 2337   0.103   0.875   0.523 -0.4069 -1.3038  0.2794
  780SOL     OW 2338   0.114   0.292   2.330  0.2206 -0.5359 -0.2034
  780SOL    HW1 2339   0.124   0.353   2.414 -0.2898 -1.3080 -1.5489
  780SOL    HW2 2340   0.197   0.296   2.270 -1.2166 -1.5556 -0.2599
  781SOL     OW 2341   0.715   1.695   1.517  0.1652  0.5780  0.1243
  781SOL    HW1 2342   0.778   1.627   1.565  1.0605  0.5800  1.0375
  781SOL    HW2 2343   0.614   1.674   1.525  0.2651  2.3266  0.7065
  782SOL     OW 2344   2.566   0.060   0.931 -0.0936  0.0771  0.4575
  782SOL    HW1 2345   2.494   0.091   0.861 -1.3492 -2.4667  1.2786
  782SOL    HW2 2346   2.529   0.069   1.029  0.5384  2.8509  1.2222
  783SOL     OW 2347   2.762   0.748   2.468  0.3490  0.4769  0.3590
  783SOL    HW1 2348   2.748   0.737   2.573  2.2574 -0.6440  2.5080
  783SOL    HW2 2349   2.737   0.653   2.429  1.3882  0.5168 -2.3099
  784SOL     OW 2350   1.425   2.147   0.015 -0.2623  0.3713 -0.1800
  784SOL    HW1 2351   1.439   2.237   0.060  1.6888  2.2950 -1.4944
  784SOL    HW2 2352   1.414   2.159  -0.091 -0.0814 -2.3204 -1.3752
  785SOL     OW 2353   2.089   0.300   3.098 -0.0515 -0.3048  0.5217
  785SOL    HW1 2354   2.003   0.331   3.159 -0.8080 -0.7915  0.0277
  785SOL    HW2 2355   2.119   0.381   3.040 -0.6373  0.6907  0.8767
  786SOL     OW 2356   2.056   2.184   2.255 -0.6454 -0.0001 -0.8052
  786SOL    HW1 2357   2.016   2.086   2.264  1.0061  1.8642  0.4204
  786SOL    HW2 2358   2.161   2.182   2.272  3.5981 -2.5678 -1.7513
  787SOL     OW 2359   1.361   0.558   0.880 -0.7067  0.6517  0.2889
  787SOL    HW1 2360   1.289   0.638   0.876 -0.3576 -1.5880  0.7600
  787SOL    HW2 2361   1.426   0.550   0.797  2.1485  0.0784  0.4943
  788SOL     OW 2362   1.226   0.419   0.018 -0.4797 -0.0093  0.0665
  788SOL    HW1 2363   1.149   0.368  -0.030  0.3645  0.7239  1.4648
  788SOL    HW2 2364   1.183   0.494   0.079 -2.0821 -1.8879 -0.4159
  789SOL     OW 2365   2.523   0.119   1.950  0.1265 -0.2301 -0.0833
  789SOL    HW1 2366   2.429   0.081   1.920 -2.2163 -0.5075  2.3962
  789SOL    HW2 2367   2.603   0.050   1.942 -2.7111  1.8565 -0.6616
  790SOL     OW 2368   2.603   2.762   0.688  0.0040 -0.0123 -0.1307
  790SOL    HW1 2369   2.683   2.791   0.634 -3.1135 -2.8802  0.4439
  790SOL    HW2 2370   2.602   2.801   0.784 -0.6019  0.2397  2.1337
  791SOL     OW 2371   1.938   1.201   0.192  0.0724  0.0781  0.6894
  791SOL    HW1 2372   1.857   1.159   0.239  1.2252 -1.8161 -2.7183
  791SOL    HW2 2373   2.031   1.191   0.233 -0.0159  1.5884 -3.1256
  792SOL     OW 2374   0.408   1.749   2.169 -0.2453 -0.6971 -0.0404
  792SOL    HW1 2375   0.501   1.755   2.207 -1.2647 -0.2861 -2.7552
  792SOL    HW2 2376   0.377   1.651   2.165 -2.3700 -0.2674  0.5102
  793SOL     OW 2377   2.119   1.597   2.096 -0.3419  0.0423  0.5763
  793SOL    HW1 2378   2.190   1.647   2.041 -1.2332 -2.5209  1.4017
  793SOL    HW2 2379   2.105   1.502   2.058  0.4857 -1.2338  1.5273
  794SOL     OW 2380   0.517   1.494   2.278  0.4877  0.2906 -0.3057
  794SOL    HW1 2381   0.488   1.431   2.198  2.1200  0.0397 -1.6602
  794SOL    HW2 2382   0.455   1.482   2.363  0.1731 -1.4773  0.6746
  795SOL     OW 2383   2.502   2.270   1.810  0.2785  0.8616  0.2471
  795SOL    HW1 2384   2.516   2.237   1.905  0.0007 -0.9741  1.7127
  795SOL    HW2 2385   2.434   2.217   1.757 -0.1531  2.7947  0.5747
  796SOL     OW 2386   3.081   1.103   2.639  0.2357  0.3119 -0.3626
  796SOL    HW1 2387   2.988   1.116   2.675 -0.7280  1.9318 -1.3173
  796SOL    HW2 2388   3.148   1.105   2.717 -1.6915 -0.4475  1.0953
  797SOL     OW 2389   0.829   0.630   1.405 -0.0500 -0.1659 -0.2153
  797SOL    HW1 2390   0.900   0.691   1.455  0.7091  0.5043 -0.6878
  797SOL    HW2 2391   0.764   0.685   1.340 -0.7122 -0.1476 -1.0003
  798SOL     OW 2392   1.312   0.436   1.191  0.1975 -0.0028  0.1442
  798SOL    HW1 2393   1.388   0.403   1.254 -0.3936  0.1534  0.2177
  798SOL    HW2 2394   1.341   0.501   1.117 -2.8917 -2.5718  0.0828
  799SOL     OW 2395   1.971   2.648   1.026  0.6399  0.3085 -0.4340
  799SOL    HW1 2396   1.895   2.657   1.096  0.0416  1.3520  0.3965
  799SOL    HW2 2397   1.951   2.676   0.927 -0.8624 -0.8024 -0.5091
  800SOL     OW 2398   3.048   0.622   1.842  0.6276 -0.4881 -0.6305
  800SOL    HW1 2399   3.013   0.704   1.894 -0.1841 -0.1747 -2.3505
  800SOL    HW2 2400   3.104   0.557   1.904 -0.0572 -2.3043  1.5430
  801SOL     OW 2401   1.904   2.231   0.137  0.1732 -0.0528 -0.5063
  801SOL    HW1 2402   1.823   2.187   0.087 -0.3793  0.8301  1.9729
  801SOL    HW2 2403   1.982   2.164   0.138  0.2420  0.4207 -0.1437
  802SOL     OW 2404   0.726   0.765   2.577 -0.5217 -0.2999  0.1396
  802SOL    HW1 2405   0.797   0.738   2.512 -0.5980 -0.5502 -0.3830
  802SOL    HW2 2406   0.641   0.702   2.570 -0.6554 -1.4404 -1.7304
  803SOL     OW 2407   0.904   0.140   0.926 -0.0756 -0.6992 -0.1615
  803SOL    HW1 2408   1.000   0.189   0.943  2.2598 -0.5421 -0.5856
  803SOL    HW2 2409   0.845   0.193   0.859  0.7872 -0.6865 -1.7436
  804SOL     OW 2410   0.381   3.065   2.117 -1.0857  0.9219 -0.1306
  804SOL    HW1 2411   0.356   3.159   2.075 -1.5728  0.0602 -2.3033
  804SOL    HW2 2412   0.337   2.985   2.062  1.0854 -0.3040 -1.4597
  805SOL     OW 2413   2.443   0.253   0.262  0.0349 -0.1431 -0.1369
  805SOL    HW1 2414   2.544   0.274   0.257  0.0112 -1.2071 -1.0961
  805SOL    HW2 2415   2.402   0.235   0.174 -1.1691  1.2925  3.7751
  806SOL     OW 2416   0.664   2.407   1.691 -0.1418 -0.7113  0.3956
  806SOL    HW1 2417   0.660   2.511   1.692  2.1615 -1.6036 -1.2544
  806SOL    HW2 2418   0.755   2.373   1.657 -2.0516  0.1856 -1.9157
  807SOL     OW 2419   2.450   0.956   0.446 -0.2724 -0.5348  0.6382
  807SOL    HW1 2420   2.540   0.912   0.461 -0.6791  1.0412  2.1987
  807SOL    HW2 2421   2.412   0.962   0.350 -0.6315 -0.8015 -0.2440
  808SOL     OW 2422   0.554   1.995   2.972 -0.3747 -0.5071 -0.4965
  808SOL    HW1 2423   0.545   2.008   3.075 -0.1160  1.0184 -2.0783
  808SOL    HW2 2424   0.530   1.899   2.946 -1.9936 -1.2938  2.1241
  809SOL     OW 2425   2.610   1.966   1.951 -1.0641 -0.3908  0.0035
  809SOL    HW1 2426   2.705   2.015   1.931 -0.8842  1.1208 -1.1553
  809SOL    HW2 2427   2.581   1.906   1.871 -0.4715  2.5978 -1.5723
  810SOL     OW 2428   2.051   1.112   0.514 -0.4781 -0.6756  0.8589
  810SOL    HW1 2429   2.035   1.059   0.602 -1.1427  0.1923  1.7474
  810SOL    HW2 2430   2.025   1.210   0.529 -2.4689  2.5266 -1.1183
  811SOL     OW 2431   1.290   2.418   1.262  0.6725 -0.0776  0.4025
  811SOL    HW1 2432   1.285   2.314   1.267 -2.5434  0.4799 -2.0344
  811SOL    HW2 2433   1.251   2.458   1.173 -0.9882  0.9790  1.1464
  812SOL     OW 2434   1.391   0.788   1.944  0.5943  0.2142  0.0345
  812SOL    HW1 2435   1.433   0.851   2.018 -0.3232 -1.0526  1.1790
  812SOL    HW2 2436   1.298   0.823   1.909 -0.0445  0.7055 -0.1072
  813SOL     OW 2437   1.756   2.096   2.455 -0.1893  0.7670 -0.4083
  813SOL    HW1 2438   1.855   2.057   2.441  1.0843 -2.1382  0.1119
  813SOL    HW2 2439   1.698   2.087   2.373 -1.1072 -0.0809 -0.9746
  814SOL     OW 2440   2.848   1.532   2.912 -0.0937 -0.2447  0.4437
  814SOL    HW1 2441   2.946   1.541   2.945  0.7711  0.2750  1.3932
  814SOL    HW2 2442   2.819   1.607   2.849 -2.3672 -0.7859 -0.6643
  815SOL     OW 2443   2.251   2.910   2.720  0.0911  0.0991 -0.1689
  815SOL    HW1 2444   2.258   2.901   2.822  1.9362 -0.3941 -0.7673
  815SOL    HW2 2445   2.315   2.851   2.662 -0.1754 -0.2803 -0.6290
  816SOL     OW 2446   1.755   0.355   1.689  0.1595  0.0911 -0.2877
  816SOL    HW1 2447   1.694   0.271   1.688  1.6114 -1.7820  0.9454
  816SOL    HW2 2448   1.709   0.440   1.721 -0.1135 -2.4298 -2.7920
  817SOL     OW 2449   0.479   1.196   2.444 -0.1061 -0.0911 -0.2513
  817SOL    HW1 2450   0.425   1.282   2.452  0.3577  0.8401 -2.1032
  817SOL    HW2 2451   0.486   1.158   2.349  0.9825  3.0606  0.7283
  818SOL     OW 2452   2.032   0.842   0.432 -0.3386 -0.6933  0.6527
  818SOL    HW1 2453   2.036   0.946   0.451 -0.3602  1.9533 -1.2402
  818SOL    HW2 2454   1.987   0.781   0.502 -0.9565 -0.7524 -0.3134
  819SOL     OW 2455   2.759   2.928   3.049  0.3028 -0.7588 -0.3182
  819SOL    HW1 2456   2.830   2.851   3.034 -1.2848 -1.9607 -0.1717
  819SOL    HW2 2457   2.677   2.905   2.992  0.2061  0.9995  0.1962
  820SOL     OW 2458   1.233   1.114   0.492  0.3320 -0.0586 -0.5529
  820SOL    HW1 2459   1.243   1.210   0.526  0.8045  3.1497  1.4585
  820SOL    HW2 2460   1.208   1.049   0.574 -0.6414 -2.3812 -1.7060
  821SOL     OW 2461   3.067   1.287   0.669  0.3158  0.3812 -0.1718
  821SOL    HW1 2462   3.024   1.268   0.762 -0.9900 -1.2287  2.4803
  821SOL    HW2 2463   3.135   1.368   0.673  2.9592 -0.7866 -0.9220
  822SOL     OW 2464   2.525   1.793   2.430  0.2043  0.3991  0.4639
  822SOL    HW1 2465   2.518   1.878   2.497 -1.0753  1.3580  1.6197
  822SOL    HW2 2466   2.459   1.803   2.352 -0.5234  1.3572 -0.0196
  823SOL     OW 2467   2.041   0.890   1.226  0.2160 -0.1158  0.3919
  823SOL    HW1 2468   2.039   0.905   1.328  0.1314  2.7264  1.1842
  823SOL    HW2 2469   1.963   0.931   1.175 -0.2850 -2.5350  0.0528
  824SOL     OW 2470   0.146   2.015   2.731 -0.5388 -0.0490  0.0628
  824SOL    HW1 2471   0.113   1.930   2.786 -0.8807 -1.9768 -1.1253
  824SOL    HW2 2472   0.219   1.986   2.665  1.3947 -1.5596  1.8271
  825SOL     OW 2473   1.236   1.037   0.240  0.1214 -0.2144 -0.0678
  825SOL    HW1 2474   1.223   1.064   0.343  0.8384  1.1404  1.4941
  825SOL    HW2 2475   1.247   1.126   0.189 -0.1529  2.5989  1.1802
  826SOL     OW 2476   1.943   0.634   1.517  0.3695  0.2091 -0.0643
  826SOL    HW1 2477   1.998   0.580   1.585 -1.6056  0.2993 -0.5008
  826SOL    HW2 2478   1.854   0.591   1.489 -0.3922  4.1620  0.3971
  827SOL     OW 2479   0.752   1.427   0.294 -0.4612 -0.1206 -0.3490
  827SOL    HW1 2480   0.772   1.353   0.223 -2.5900  0.0105 -0.3259
  827SOL    HW2 2481   0.705   1.385   0.376 -1.8615 -0.6626 -0.6826
  828SOL     OW 2482   2.553   0.081   1.564 -0.2103 -0.1587 -0.0107
  828SOL    HW1 2483   2.466   0.135   1.555  1.4692  1.4771 -0.9172
  828SOL    HW2 2484   2.557   0.009   1.637  2.2338 -0.1888 -2.7466
  829SOL     OW 2485   2.842   2.486   3.039 -0.7299  0.1828 -0.2587
  829SOL    HW1 2486   2.790   2.406   3.006  2.0648 -1.4262  2.3829
  829SOL    HW2 2487   2.793   2.554   3.101  1.1438  2.1622  1.4905
  830SOL     OW 2488   2.763   0.952   3.047 -0.5732 -0.1273  0.1552
  830SOL    HW1 2489   2.846   1.010   3.064 -1.4623 -2.0586 -3.4860
  830SOL    HW2 2490   2.772   0.864   3.101  1.5722  0.0004 -1.4312
  831SOL     OW 2491   0.016   0.602   0.341 -0.2211  0.5604  0.1910
  831SOL    HW1 2492  -0.003   0.547   0.426  0.6175  1.1782 -1.2826
  831SOL    HW2 2493   0.051   0.540   0.266  1.1038  1.8931 -2.6933
  832SOL     OW 2494   1.781   0.737   3.090  0.7324 -0.1174  0.2128
  832SOL    HW1 2495   1.699   0.801   3.073 -0.9535 -0.1156 -1.1246
  832SOL    HW2 2496   1.750   0.641   3.068  1.7984 -0.4966  0.4803
  833SOL     OW 2497   2.464   2.159   0.486 -0.3221 -0.2785 -0.1623
  833SOL    HW1 2498   2.361   2.136   0.479  1.0778 -0.1109  0.3257
  833SOL    HW2 2499   2.516   2.084   0.533 -2.6780  1.5339  2.9907
  834SOL     OW 2500   0.082   0.249   0.639  0.5505 -0.4728  0.0997
  834SOL    HW1 2501   0.157   0.232   0.711  0.1448  1.5348 -4.0670
  834SOL    HW2 2502   0.124   0.235   0.545  1.0097 -0.5903  1.9792
  835SOL     OW 2503   2.351   1.492   1.177  0.1270  0.8776  0.2551
  835SOL    HW1 2504   2.440   1.536   1.205 -2.5369  0.0050  0.8928
  835SOL    HW2 2505   2.349   1.479   1.077 -1.7280 -0.7529  1.1854
  836SOL     OW 2506   1.527   0.800   2.586  0.2581  0.0676 -0.1640
  836SOL    HW1 2507   1.425   0.800   2.559  0.9808  0.9251  0.3153
  836SOL    HW2 2508   1.586   0.845   2.511  0.1515  0.0064 -0.1101
  837SOL     OW 2509   1.633   0.063   0.541  1.3257  0.5285  0.2793
  837SOL    HW1 2510   1.610   0.150   0.594  0.0455 -1.0810  2.7657
  837SOL    HW2 2511   1.594   0.063   0.441 -1.2404 -0.6602  0.4701
  838SOL     OW 2512   1.265   1.586   2.676 -1.0233 -0.3064  0.0408
  838SOL    HW1 2513   1.349   1.549   2.727  1.9161 -2.2526 -0.0138
  838SOL    HW2 2514   1.182   1.523   2.671 -2.1795 -0.6426 -2.8188
  839SOL     OW 2515   1.641   0.280   0.973 -0.0501  0.1915 -0.3245
  839SOL    HW1 2516   1.666   0.356   1.042  1.6450  0.4862 -1.9070
  839SOL    HW2 2517   1.600   0.193   1.017 -1.0887 -2.3021 -1.8103
  840SOL     OW 2518   2.545   2.948   1.725  0.1527 -0.0557  0.0793
  840SOL    HW1 2519   2.499   2.907   1.641  0.3044 -2.6803  0.3858
  840SOL    HW2 2520   2.573   2.879   1.797  0.8845 -3.8032  0.6635
  841SOL     OW 2521   1.560   0.897   3.048  0.1366 -0.1005  0.0558
  841SOL    HW1 2522   1.457   0.881   3.076 -0.4566 -0.5263 -1.8637
  841SOL    HW2 2523   1.569   0.901   2.949 -2.5524 -0.6635  1.7740
  842SOL     OW 2524   0.811   1.542   0.875 -0.4893 -0.3262  0.4605
  842SOL    HW1 2525   0.765   1.606   0.944 -0.9488 -0.0743  2.3179
  842SOL    HW2 2526   0.763   1.452   0.860 -1.0114 -2.4800 -0.3417
  843SOL     OW 2527   0.176   3.063   1.394 -1.0557  0.3584  0.5686
  843SOL    HW1 2528   0.178   3.145   1.455  2.4773 -0.5798 -0.0040
  843SOL    HW2 2529   0.110   2.987   1.424  1.7599 -2.2935  0.3972
  844SOL     OW 2530   0.803   2.451   0.257 -0.5358 -0.1411  0.1735
  844SOL    HW1 2531   0.748   2.429   0.341  1.7989  0.3826  0.9525
  844SOL    HW2 2532   0.765   2.522   0.194 -0.8836 -1.1771  0.1201
  845SOL     OW 2533   1.678   2.844   1.231  0.3976  0.3957 -0.9512
  845SOL    HW1 2534   1.711   2.749   1.211  0.1363  0.8332  0.3691
  845SOL    HW2 2535   1.675   2.868   1.332  1.4810  0.0024  2.7463
  846SOL     OW 2536   1.566   2.967   0.717  0.1142  0.1700 -0.6140
  846SOL    HW1 2537   1.577   3.025   0.633 -0.3057 -0.5808  0.9866
  846SOL    HW2 2538   1.657   2.945   0.760 -1.6429 -5.1364 -0.7475
  847SOL     OW 2539   2.098   1.702   0.424  0.0099 -0.9810 -0.5864
  847SOL    HW1 2540   2.032   1.625   0.431  3.1539  1.2135  4.3022
  847SOL    HW2 2541   2.040   1.788   0.443 -2.4776  1.4646  1.2936
  848SOL     OW 2542   2.404   0.890   2.599 -0.0246 -0.0655 -0.3942
  848SOL    HW1 2543   2.367   0.961   2.661  0.7453 -1.1534  0.2054
  848SOL    HW2 2544   2.350   0.801   2.607  1.7541 -0.4505  0.2412
  849SOL     OW 2545   2.554   0.878   2.378  0.7539 -0.0244  0.1711
  849SOL    HW1 2546   2.637   0.823   2.420  0.9090  2.4222  0.5866
  849SOL    HW2 2547   2.476   0.896   2.447 -1.0712 -0.5802  0.8220
  850SOL     OW 2548   1.562   0.063   1.325  0.4089  1.0181 -0.1267
  850SOL    HW1 2549   1.578   0.052   1.222  3.9830  1.3062 -2.6851
  850SOL    HW2 2550   1.520  -0.017   1.374 -0.4590 -0.2544  1.8424
  851SOL     OW 2551   0.497   1.771   0.622 -0.5714  0.4536 -0.5242
  851SOL    HW1 2552   0.572   1.812   0.687  0.1432  1.2301  2.4276
  851SOL    HW2 2553   0.518   1.805   0.524  1.2263  0.4215 -1.5903
  852SOL     OW 2554   0.851   2.070   1.763 -0.1389 -0.8171  0.8530
  852SOL    HW1 2555   0.901   2.153   1.733  0.2466 -2.0562  2.0662
  852SOL    HW2 2556   0.766   2.097   1.814 -0.8479  2.1047 -0.0924
  853SOL     OW 2557   2.551   1.559   2.601  0.1251  0.0434 -0.0876
  853SOL    HW1 2558   2.482   1.489   2.573 -1.5750  0.1748 -1.2196
  853SOL    HW2 2559   2.543   1.652   2.554  0.2302  0.1282 -0.1937
  854SOL     OW 2560   2.450   1.396   1.773 -0.3186  0.0484  0.5217
  854SOL    HW1 2561   2.501   1.363   1.690 -0.1295  0.5206 -2.3060
  854SOL    HW2 2562   2.426   1.322   1.839 -0.2674 -1.7170 -1.6818
  855SOL     OW 2563   2.072   2.398   1.052 -0.1659  0.3031  0.6032
  855SOL    HW1 2564   2.025   2.492   1.051  1.0413  0.1745 -0.5689
  855SOL    HW2 2565   2.166   2.403   1.098  2.0056  0.5904 -0.7497
  856SOL     OW 2566   1.328   1.423   0.922  0.1080 -0.1570  0.1868
  856SOL    HW1 2567   1.402   1.481   0.964 -0.1650 -2.9818 -1.3458
  856SOL    HW2 2568   1.236   1.463   0.943  2.3492  2.4511  0.9045
  857SOL     OW 2569   0.000   2.752   1.057 -0.2349  0.0506 -0.1996
  857SOL    HW1 2570  -0.025   2.707   0.968  0.1706  1.2605  1.2764
  857SOL    HW2 2571   0.093   2.799   1.051  3.8502 -0.8260 -2.4292
  858SOL     OW 2572   2.391   2.071   1.653 -0.4991 -0.3183  0.6165
  858SOL    HW1 2573   2.302   2.013   1.646 -2.3120 -0.2337  1.6477
  858SOL    HW2 2574   2.479   2.019   1.694  0.6130 -0.6530  0.8674
  859SOL     OW 2575   2.422   0.523   1.036 -0.8837 -0.2051 -0.7794
  859SOL    HW1 2576   2.494   0.565   0.972 -2.0254 -0.4380  0.7034
  859SOL    HW2 2577   2.458   0.455   1.107 -1.9527  3.6078  0.7286
  860SOL     OW 2578   1.881   2.810   0.531 -0.4931  0.4269  0.1939
  860SOL    HW1 2579   1.869   2.776   0.433 -0.3340 -0.6586  1.9822
  860SOL    HW2 2580   1.883   2.912   0.538 -1.8819  1.4432 -2.9387
  861SOL     OW 2581   0.960   2.505   2.886 -0.6489 -0.1870  0.3872
  861SOL    HW1 2582   1.049   2.543   2.843  1.1563 -2.1151 -1.0454
  861SOL    HW2 2583   0.947   2.543   2.982 -1.1528  2.0315 -0.2045
  862SOL     OW 2584   2.867   2.529   1.657  0.3868  0.5377 -0.3238
  862SOL    HW1 2585   2.960   2.564   1.692  2.9946  0.1985 -0.1839
  862SOL    HW2 2586   2.802   2.597   1.612 -2.0538 -1.1392  2.1344
  863SOL     OW 2587   1.821   2.718   0.282  0.2031  0.4625  0.3991
  863SOL    HW1 2588   1.870   2.631   0.251 -2.6483 -1.1697 -1.6354
  863SOL    HW2 2589   1.724   2.732   0.242 -3.4926  1.5454  1.3164
  864SOL     OW 2590   2.017   1.256   2.831 -0.2356  0.5609  0.3449
  864SOL    HW1 2591   2.018   1.168   2.776 -2.5815  0.6180  0.1450
  864SOL    HW2 2592   2.082   1.332   2.809 -2.2662 -1.6569 -1.5828
  865SOL     OW 2593   2.155   1.939   0.743  0.1484  0.0239  0.1005
  865SOL    HW1 2594   2.231   1.891   0.793 -0.6360  0.3600 -0.8017
  865SOL    HW2 2595   2.080   1.957   0.811  2.2960  0.0866 -0.8154
  866SOL     OW 2596   2.935   2.995   1.019  0.0081 -0.2253  0.3967
  866SOL    HW1 2597   2.928   3.055   0.937 -1.8341  0.6949 -0.8614
  866SOL    HW2 2598   3.028   2.951   1.025 -1.3410  3.4137 -0.9201
  867SOL     OW 2599   0.344   1.404   0.911 -0.2572 -0.0931  0.5961
  867SOL    HW1 2600   0.333   1.317   0.862 -1.2327  3.1451 -0.1159
  867SOL    HW2 2601   0.338   1.481   0.845 -0.1795  1.5504  1.6205
  868SOL     OW 2602   0.785   1.836   2.048 -0.3568 -0.2157  0.1035
  868SOL    HW1 2603   0.744   1.811   2.141 -0.3233  1.5057  3.6732
  868SOL    HW2 2604   0.761   1.929   2.016 -0.1770 -0.0141 -0.0461
  869SOL     OW 2605   2.616   1.913   1.675  0.0458 -0.1434  0.2980
  869SOL    HW1 2606   2.687   1.986   1.660 -0.8208  2.8988 -0.1163
  869SOL    HW2 2607   2.642   1.817   1.652 -1.2810  2.6846  1.4634
  870SOL     OW 2608   2.349   2.689   1.221 -0.1911  0.2777  0.7605
  870SOL    HW1 2609   2.309   2.593   1.242  0.6835 -0.6357  1.7998
  870SOL    HW2 2610   2.447   2.704   1.231 -4.3345 -2.2223 -2.0942
  871SOL     OW 2611   3.056   2.239   0.498 -0.0052  0.3692 -0.0719
  871SOL    HW1 2612   2.996   2.264   0.575 -0.1206 -2.7570  0.1377
  871SOL    HW2 2613   3.018   2.261   0.403 -0.5894 -2.6567 -1.4693
  872SOL     OW 2614   2.106   0.493   1.708  0.0183 -0.0662  0.1450
  872SOL    HW1 2615   2.046   0.475   1.789 -1.3712  0.3861  0.2477
  872SOL    HW2 2616   2.199   0.445   1.708  0.5651 -0.1576 -1.1979
  873SOL     OW 2617   1.703   2.101   3.099 -0.2075  0.4476  0.1223
  873SOL    HW1 2618   1.600   2.106   3.115 -0.7149  0.6441 -0.2852
  873SOL    HW2 2619   1.728   2.156   3.015  1.1115  2.0710 -0.2417
  874SOL     OW 2620   0.665   2.452   0.732  0.1890  0.1646  0.1964
  874SOL    HW1 2621   0.652   2.550   0.756 -1.6538  1.6619 -1.8885
  874SOL    HW2 2622   0.760   2.418   0.758 -2.0866 -0.2122  2.2553
  875SOL     OW 2623   2.230   1.492   1.412 -0.5224 -0.3923 -0.3837
  875SOL    HW1 2624   2.277   1.546   1.484 -2.5004 -0.2476  1.9633
  875SOL    HW2 2625   2.267   1.498   1.314 -1.8075  0.3597  0.7008
  876SOL     OW 2626   0.044   2.258   2.632 -0.2529  0.0227 -0.2877
  876SOL    HW1 2627   0.078   2.164   2.654  1.7872  3.9635 -0.5426
  876SOL    HW2 2628   0.103   2.330   2.679  3.0190  2.0040 -1.1096
  877SOL     OW 2629   2.922   2.655   0.615  0.5174  0.6240 -0.3149
  877SOL    HW1 2630   2.888   2.753   0.623  1.1901 -1.5872 -0.4962
  877SOL    HW2 2631   2.985   2.621   0.695  0.2534  2.9734 -0.3594
  878SOL     OW 2632   2.843   1.586   2.288 -0.2385 -0.6847 -0.3408
  878SOL    HW1 2633   2.781   1.660   2.253 -0.7041 -0.5432  0.5359
  878SOL    HW2 2634   2.809   1.543   2.375 -1.6075 -0.3147 -0.6775
  879SOL     OW 2635   2.446   0.054   1.198 -0.4087  0.5009  0.4693
  879SOL    HW1 2636   2.499  -0.035   1.208  0.8918  0.0457 -0.5684
  879SOL    HW2 2637   2.355   0.046   1.145 -0.4122 -1.1942 -1.6113
  880SOL     OW 2638   0.707   0.549   2.281  0.1562 -0.1314 -0.3785
  880SOL    HW1 2639   0.681   0.484   2.359  0.6552  0.2544  1.1196
  880SOL    HW2 2640   0.795   0.519   2.230  0.0079 -1.4780 -0.9220
  881SOL     OW 2641   0.831   0.084   0.396  0.3660  0.4585  0.3353
  881SOL    HW1 2642   0.878  -0.001   0.435 -1.3030 -1.1682 -0.2056
  881SOL    HW2 2643   0.731   0.075   0.376 -1.1594 -1.1121 -0.1716
  882SOL     OW 2644   2.718   1.627   1.698  0.5224  0.1650 -0.4825
  882SOL    HW1 2645   2.799   1.578   1.648  0.7684  2.4412 -1.3923
  882SOL    HW2 2646   2.746   1.666   1.786  1.5038  0.4143  0.7362
  883SOL     OW 2647   0.790   0.519   0.930 -0.0076 -0.1133 -0.3053
  883SOL    HW1 2648   0.846   0.605   0.948  2.2695 -0.7407 -1.3702
  883SOL    HW2 2649   0.731   0.492   1.015 -1.0614  0.9325 -1.3368
  884SOL     OW 2650   1.163   1.777   1.131 -1.0232  0.8205  0.3406
  884SOL    HW1 2651   1.153   1.689   1.071  0.8137 -2.5794  1.3349
  884SOL    HW2 2652   1.110   1.854   1.088  2.4219 -2.3295  0.4399
  885SOL     OW 2653   2.361   1.904   2.225 -0.2414  0.0382  0.5930
  885SOL    HW1 2654   2.273   1.855   2.238  0.7192 -1.9727  0.3686
  885SOL    HW2 2655   2.347   2.006   2.248 -0.4578  2.1425 -1.3139
  886SOL     OW 2656   2.605   0.378   1.761 -0.7532  0.1264 -0.3256
  886SOL    HW1 2657   2.581   0.338   1.854 -0.4679  0.2710 -2.6876
  886SOL    HW2 2658   2.695   0.432   1.754 -0.9210  2.0599  0.6414
  887SOL     OW 2659   0.154   2.093   1.258 -0.3349  0.0197  0.0545
  887SOL    HW1 2660   0.127   2.043   1.173  2.2319 -1.9171  1.7970
  887SOL    HW2 2661   0.162   2.197   1.246 -0.1835 -2.7763  0.8385
  888SOL     OW 2662   0.598   1.236   1.498  0.4160 -0.9060  0.1026
  888SOL    HW1 2663   0.627   1.266   1.407 -0.3273  1.0696  0.0072
  888SOL    HW2 2664   0.631   1.143   1.525 -2.7900  1.2954 -0.8465
  889SOL     OW 2665   0.861   2.436   2.242  0.0931  0.6936 -0.2129
  889SOL    HW1 2666   0.763   2.405   2.265 -0.9703 -1.3845 -0.1350
  889SOL    HW2 2667   0.888   2.392   2.151  1.5179 -1.1491  2.0116
  890SOL     OW 2668   2.346   2.496   0.213 -0.3934  0.6556  0.1193
  890SOL    HW1 2669   2.398   2.568   0.154 -0.0638  2.6249 -0.1744
  890SOL    HW2 2670   2.278   2.533   0.285 -5.4923 -1.1596  1.1057
  891SOL     OW 2671   2.569   1.682   0.707 -0.1425 -0.2543 -0.1327
  891SOL    HW1 2672   2.571   1.655   0.806 -1.5663 -0.0326  1.5882
  891SOL    HW2 2673   2.478   1.677   0.654 -0.3576 -1.2983  0.4840
  892SOL     OW 2674   0.351   0.397   2.196 -0.1023  0.4080  0.1877
  892SOL    HW1 2675   0.341   0.489   2.146  1.4999  0.1847  0.4008
  892SOL    HW2 2676   0.437   0.351   2.175 -1.0376 -0.8062  0.4781
  893SOL     OW 2677   1.689   0.247   2.760  0.0069 -0.6030 -0.0391
  893SOL    HW1 2678   1.769   0.315   2.773 -0.6807  3.1616 -0.4101
  893SOL    HW2 2679   1.596   0.297   2.743  1.2115  2.8468  0.1115
  894SOL     OW 2680   2.154   2.080   0.095 -0.0129  0.2613  0.1555
  894SOL    HW1 2681   2.156   2.011   0.019  0.9285  0.8667  1.1105
  894SOL    HW2 2682   2.162   2.036   0.190 -2.2187  1.7929 -0.4999
  895SOL     OW 2683   2.720   1.434   0.938  0.2990  0.2389  0.6764
  895SOL    HW1 2684   2.812   1.381   0.939 -0.6528  0.1942  0.6873
  895SOL    HW2 2685   2.725   1.526   0.980 -1.9265  1.2104  0.2984
  896SOL     OW 2686   1.792   1.824   1.242 -0.1028  0.3359 -0.3271
  896SOL    HW1 2687   1.879   1.767   1.223  1.2638  2.3209 -2.2055
  896SOL    HW2 2688   1.705   1.790   1.201  1.9920  0.5843 -0.0206
  897SOL     OW 2689   0.230   0.533   2.999  0.3597 -0.2319  0.0581
  897SOL    HW1 2690   0.178   0.618   2.965 -0.5988 -2.2488  0.3443
  897SOL    HW2 2691   0.335   0.557   3.012  0.5888 -0.7901 -1.3009
  898SOL     OW 2692   0.704   2.821   1.075  0.1328  0.0919  0.2210
  898SOL    HW1 2693   0.736   2.920   1.081 -0.9124  0.6725 -2.1244
  898SOL    HW2 2694   0.723   2.765   1.158 -0.9335  1.0089  1.6727
  899SOL     OW 2695   2.872   0.952   1.373  0.0702  0.3331  0.4931
  899SOL    HW1 2696   2.836   1.006   1.291  2.1978 -0.1480  3.0615
  899SOL    HW2 2697   2.965   0.986   1.412 -1.6970 -1.6582  0.8996
  900SOL     OW 2698   1.012   2.437   2.462  0.4428 -0.3946  0.2292
  900SOL    HW1 2699   0.950   2.424   2.380 -0.0044  0.8567 -1.1029
  900SOL    HW2 2700   0.974   2.394   2.545  1.7079 -0.2425  0.4480
  901SOL     OW 2701   1.893   2.452   1.434  0.4352  0.7196 -0.1957
  901SOL    HW1 2702   1.881   2.374   1.362 -0.2648  0.6765 -0.9914
  901SOL    HW2 2703   1.962   2.419   1.512  2.3712 -1.4366  0.4780
  902SOL     OW 2704   2.532   1.662   1.464 -0.0072  0.2555  0.0067
  902SOL    HW1 2705   2.585   1.631   1.550 -0.6270 -0.1840  0.1447
  902SOL    HW2 2706   2.570   1.624   1.375 -1.6332 -1.0890 -1.0542
  903SOL     OW 2707   0.331   2.429   2.007  0.3141  0.3970  0.2875
  903SOL    HW1 2708   0.272   2.351   2.041 -1.0060 -0.1434 -2.7001
  903SOL    HW2 2709   0.278   2.488   1.942  1.4467 -0.2094  0.7370
  904SOL     OW 2710   2.016   0.788   2.448  0.1203 -0.6876 -0.0442
  904SOL    HW1 2711   1.948   0.721   2.488 -0.8619 -0.6840 -1.1772
  904SOL    HW2 2712   2.035   0.776   2.345 -0.4891 -1.7289 -1.7965
  905SOL     OW 2713   2.817   0.080   2.409  0.2083 -0.2971  0.0870
  905SOL    HW1 2714   2.872  -0.005   2.428  1.0539 -2.3101 -0.1134
  905SOL    HW2 2715   2.876   0.166   2.401 -0.2595  1.3780  0.7677
  906SOL     OW 2716   0.167   1.731   1.903 -0.6290 -0.4694 -0.1654
  906SOL    HW1 2717   0.109   1.751   1.818 -1.1425 -1.4059 -2.8855
  906SOL    HW2 2718   0.255   1.788   1.901  0.3424  3.4515  1.1197
  907SOL     OW 2719   0.232   2.514   0.993  0.2043  0.1815  0.3359
  907SOL    HW1 2720   0.314   2.459   0.953 -0.8189 -1.2529  0.1170
  907SOL    HW2 2721   0.241   2.614   0.971 -2.0020 -1.7010 -2.6405
  908SOL     OW 2722   2.815   3.022   0.342  0.3564  0.5292 -0.2743
  908SOL    HW1 2723   2.736   3.020   0.276 -0.2320 -1.4923 -1.0727
  908SOL    HW2 2724   2.883   2.940   0.336 -1.4405 -2.0338  0.3861
  909SOL     OW 2725   0.844   1.028   2.668 -0.4298 -0.1481 -0.2312
  909SOL    HW1 2726   0.778   0.952   2.653  0.3791  1.6257 -0.9981
  909SOL    HW2 2727   0.920   1.029   2.595 -1.1390  0.0901  0.6469
  910SOL     OW 2728   1.781   1.893   2.149  0.0627 -0.7706  0.2050
  910SOL    HW1 2729   1.834   1.924   2.066  0.2620  2.5549 -1.2318
  910SOL    HW2 2730   1.703   1.961   2.159  1.1195  2.1523 -1.6372
  911SOL     OW 2731   1.760   2.925   1.487  0.1770  0.6332  0.1763
  911SOL    HW1 2732   1.859   2.900   1.459 -0.1176  1.8877  3.1552
  911SOL    HW2 2733   1.735   2.875   1.576  1.4937  0.3618  1.0469
  912SOL     OW 2734   2.860   1.041   0.732 -0.1879  0.3294 -0.4718
  912SOL    HW1 2735   2.894   1.033   0.827  0.3041 -0.4132 -1.0300
  912SOL    HW2 2736   2.788   1.117   0.716 -1.9532  1.8682 -1.3691
  913SOL     OW 2737   2.624   1.281   1.570 -0.0216  0.1801 -0.0738
  913SOL    HW1 2738   2.634   1.178   1.580 -3.0615  1.8565  2.7099
  913SOL    HW2 2739   2.663   1.312   1.479 -1.0338 -1.4063  0.3449
  914SOL     OW 2740   2.785   0.609   1.169 -0.3185 -0.1919 -0.1562
  914SOL    HW1 2741   2.784   0.524   1.225 -2.5435  0.9325 -2.3110
  914SOL    HW2 2742   2.719   0.684   1.198 -0.4717 -2.7652 -3.5332
  915SOL     OW 2743   1.171   0.774   0.917  0.0514  0.0467  0.9494
  915SOL    HW1 2744   1.235   0.787   0.995 -0.0012 -3.5579 -0.9144
  915SOL    HW2 2745   1.072   0.751   0.947 -1.9885 -1.3322  1.4449
  916SOL     OW 2746   0.624   0.120   0.621 -0.1134  0.3838 -0.2063
  916SOL    HW1 2747   0.707   0.186   0.628  1.3240  2.0611 -1.6068
  916SOL    HW2 2748   0.542   0.160   0.566 -3.7643  1.8750 -1.1454
  917SOL     OW 2749   2.910   2.589   2.009  0.0873 -0.0668 -0.1602
  917SOL    HW1 2750   2.826   2.625   1.966  2.5152 -0.6737  1.0597
  917SOL    HW2 2751   2.990   2.653   1.987 -2.7549 -1.9436  1.2654
  918SOL     OW 2752   1.011   2.123   3.024 -0.0668  0.6038  0.0812
  918SOL    HW1 2753   1.008   2.172   3.112  1.4069 -0.4531 -1.3283
  918SOL    HW2 2754   1.069   2.171   2.953  0.5340 -0.8412 -0.2836
  919SOL     OW 2755   0.867   1.660   2.792  0.4119  0.6340 -0.6113
  919SOL    HW1 2756   0.883   1.755   2.761 -0.6027 -0.4394 -0.2277
  919SOL    HW2 2757   0.819   1.598   2.727  1.1201 -0.3500  1.0490
  920SOL     OW 2758   1.309   1.794   2.504 -0.4056 -0.3601  0.1040
  920SOL    HW1 2759   1.390   1.768   2.444 -2.0171  0.4882 -0.8500
  920SOL    HW2 2760   1.287   1.717   2.575 -2.1004  0.0162  2.0922
  921SOL     OW 2761   1.153   0.040   2.604  0.0970 -0.1872  0.4877
  921SOL    HW1 2762   1.134   0.038   2.500 -0.9134  2.1272 -2.5169
  921SOL    HW2 2763   1.064   0.026   2.657  0.0989  2.2917 -2.2617
  922SOL     OW 2764   2.185   2.429   2.777 -0.6582  0.2163 -0.1229
  922SOL    HW1 2765   2.174   2.326   2.805 -2.6465 -0.9496  0.8046
  922SOL    HW2 2766   2.161   2.449   2.679  1.9232 -0.2611 -3.8325
  923SOL     OW 2767   1.260   2.744   0.268  0.7474 -0.0002 -0.0172
  923SOL    HW1 2768   1.283   2.813   0.342  0.9602  1.2076 -0.5567
  923SOL    HW2 2769   1.279   2.648   0.301  1.7980 -0.2375  1.2693
  924SOL     OW 2770   2.942   1.699   0.148  0.1548 -0.0062 -0.1841
  924SOL    HW1 2771   2.857   1.671   0.089 -2.4630 -0.5454 -2.3695
  924SOL    HW2 2772   3.020   1.634   0.140  0.1909 -0.2116 -0.8087
  925SOL     OW 2773   0.022   2.860   1.505 -0.4547  0.7090 -0.3011
  925SOL    HW1 2774  -0.053   2.876   1.578 -3.8158 -1.7637  0.6261
  925SOL    HW2 2775  -0.009   2.797   1.428  1.0032 -0.4742  2.6547
  926SOL     OW 2776   1.283   2.814   1.307 -0.0164  0.1543 -0.2222
  926SOL    HW1 2777   1.316   2.800   1.209 -0.9370  0.7037  1.7994
  926SOL    HW2 2778   1.350   2.862   1.372 -0.4502  1.2268 -1.7256
  927SOL     OW 2779   0.376   2.654   1.778  0.3211  0.6663 -0.3687
  927SOL    HW1 2780   0.335   2.581   1.719  1.5466 -1.2530 -0.0539
  927SOL    HW2 2781   0.337   2.748   1.754  0.9169  1.3280 -1.3093
  928SOL     OW 2782   1.585   2.073   2.229 -0.3862 -0.1800 -0.0295
  928SOL    HW1 2783   1.596   2.153   2.162 -1.0184 -0.5535  1.8713
  928SOL    HW2 2784   1.485   2.056   2.251 -0.4223  1.5877 -0.1789
  929SOL     OW 2785   2.451   2.485   2.877 -0.0714 -0.0208  0.1702
  929SOL    HW1 2786   2.366   2.451   2.824  2.6329 -0.4093 -2.6746
  929SOL    HW2 2787   2.512   2.535   2.814  1.4676 -0.8986 -0.2544
  930SOL     OW 2788   2.186   2.054   1.108  0.0728 -0.4067 -0.4410
  930SOL    HW1 2789   2.206   2.021   1.203  0.4862  2.2824  1.1734
  930SOL    HW2 2790   2.267   2.109   1.069  0.7989 -0.4651 -0.3705
  931SOL     OW 2791   0.488   1.701   2.597  0.2123  0.5263  0.4616
  931SOL    HW1 2792   0.507   1.712   2.700  2.3204 -0.8862 -0.5120
  931SOL    HW2 2793   0.549   1.623   2.560 -0.5510  1.3756  0.6034
  932SOL     OW 2794   0.383   0.018   0.043 -0.0316 -0.4327 -0.3153
  932SOL    HW1 2795   0.433   0.097   0.001 -0.6449 -0.1455 -0.9591
  932SOL    HW2 2796   0.421  -0.069   0.005 -1.2167  0.8235 -0.2272
  933SOL     OW 2797   1.012   0.831   3.046 -0.0862  0.2920  0.0324
  933SOL    HW1 2798   1.096   0.845   3.106 -2.2984  1.3597  0.8618
  933SOL    HW2 2799   0.934   0.894   3.080 -2.7868  0.2165 -0.2146
  934SOL     OW 2800   0.806   2.960   2.629 -1.1639 -0.2599 -0.0256
  934SOL    HW1 2801   0.776   2.889   2.549 -0.7357 -0.9837 -1.8943
  934SOL    HW2 2802   0.860   2.907   2.698 -0.3594  0.9873  0.6546
  935SOL     OW 2803   0.024   0.566   0.827 -0.1067  0.1857  0.1694
  935SOL    HW1 2804  -0.022   0.550   0.735  1.1243 -1.4062  2.9473
  935SOL    HW2 2805  -0.046   0.608   0.893 -2.3590  0.2168  1.2599
  936SOL     OW 2806   1.118   2.852   0.066 -0.2244  0.2316 -0.0229
  936SOL    HW1 2807   1.183   2.918   0.012  1.4358 -2.1005 -1.2064
  936SOL    HW2 2808   1.172   2.808   0.143 -0.0521  1.2584 -1.7787
  937SOL     OW 2809   1.987   2.620   2.044  0.8313 -0.2476 -0.0526
  937SOL    HW1 2810   1.934   2.626   2.134  2.8636  0.3511  0.0873
  937SOL    HW2 2811   1.986   2.711   1.991  0.3773  1.4205 -0.6602
  938SOL     OW 2812   2.787   2.097   1.578 -0.0179 -0.6377 -0.2368
  938SOL    HW1 2813   2.765   2.197   1.567  1.9920 -0.1900 -0.7814
  938SOL    HW2 2814   2.883   2.086   1.613 -0.9768 -0.8765  2.3892
  939SOL     OW 2815   2.838   1.148   2.487  0.1407  0.0720  0.0546
  939SOL    HW1 2816   2.925   1.120   2.438  0.7600  1.9165  1.2426
  939SOL    HW2 2817   2.814   1.082   2.562 -0.8668  1.1241  0.7639
  940SOL     OW 2818   1.093   0.452   2.751  0.2372 -0.3743 -0.5016
  940SOL    HW1 2819   1.167   0.382   2.745  1.7434  0.5294 -2.7792
  940SOL    HW2 2820   1.025   0.431   2.674  0.0302  0.7971  1.7409
  941SOL     OW 2821   0.076   2.805   2.261  0.0517 -0.2859  0.7780
  941SOL    HW1 2822   0.104   2.710   2.225  0.4914  1.5715  1.3046
  941SOL    HW2 2823   0.151   2.861   2.300 -0.0046 -0.2757 -3.3539
  942SOL     OW 2824   0.095   0.081   2.509 -0.1509 -0.1601  0.2131
  942SOL    HW1 2825   0.125   0.082   2.611 -0.1567 -1.8825  0.7655
  942SOL    HW2 2826   0.108   0.174   2.464 -1.8255  0.8806  0.0831
  943SOL     OW 2827   2.127   1.708   2.357  0.1592 -0.4397 -0.2683
  943SOL    HW1 2828   2.095   1.688   2.265  1.7053  2.1331 -0.5304
  943SOL    HW2 2829   2.122   1.628   2.421  1.5462  2.7542 -1.1289
  944SOL     OW 2830   2.160   2.355   1.534 -0.1061  0.4376 -0.5429
  944SOL    HW1 2831   2.248   2.370   1.592  1.3808  0.9391 -0.3771
  944SOL    HW2 2832   2.114   2.263   1.555 -3.5924  0.8911 -0.8332
  945SOL     OW 2833   0.721   1.598   0.082 -0.5494 -0.2389 -0.3848
  945SOL    HW1 2834   0.627   1.578   0.044  1.1393 -0.6745 -0.1078
  945SOL    HW2 2835   0.747   1.534   0.163  0.1529 -1.8028 -0.5690
  946SOL     OW 2836   0.307   1.024   2.622 -0.3352  0.2207 -0.1769
  946SOL    HW1 2837   0.284   0.958   2.546 -0.2421 -2.4483  1.3622
  946SOL    HW2 2838   0.352   1.105   2.579  1.3685 -1.1541 -2.1212
  947SOL     OW 2839   1.476   0.526   3.045  0.0994  0.7378 -0.5380
  947SOL    HW1 2840   1.452   0.596   2.971 -0.2727  0.4846  3.1234
  947SOL    HW2 2841   1.393   0.488   3.098  3.1477  2.2972  1.1266
  948SOL     OW 2842   1.925   2.960   2.175 -0.3214  0.1001  0.3692
  948SOL    HW1 2843   1.938   2.940   2.073  1.2817  1.0077 -0.0407
  948SOL    HW2 2844   1.904   2.877   2.227  1.5857 -1.4324  0.3973
  949SOL     OW 2845   0.607   2.434   0.467  0.0426 -0.1818 -0.1111
  949SOL    HW1 2846   0.585   2.534   0.452  3.6156 -2.5342 -0.0846
  949SOL    HW2 2847   0.636   2.408   0.563  0.6648  0.3171  0.9416
  950SOL     OW 2848   0.203   2.190   2.946  0.4302 -0.2737  0.1221
  950SOL    HW1 2849   0.174   2.274   2.894  1.6992  2.6917  0.0853
  950SOL    HW2 2850   0.190   2.100   2.891  1.4553 -2.0479  1.1648
  951SOL     OW 2851   1.172   2.674   2.801  0.1379 -0.2920  0.1291
  951SOL    HW1 2852   1.235   2.615   2.857 -1.6700  2.4029  0.4396
  951SOL    HW2 2853   1.225   2.718   2.724  1.3776  0.8844 -1.7124
  952SOL     OW 2854   0.108   1.630   0.435  0.2895  0.6195 -0.8058
  952SOL    HW1 2855   0.156   1.723   0.432  1.4434 -0.7097  1.1989
  952SOL    HW2 2856   0.134   1.581   0.523  0.1809  2.5504  3.3478
  953SOL     OW 2857   2.550   1.736   0.286 -0.2730 -0.8285  0.1818
  953SOL    HW1 2858   2.507   1.644   0.264  1.1985  0.4357  1.0702
  953SOL    HW2 2859   2.563   1.795   0.202  0.4160  2.9047 -0.5485
  954SOL     OW 2860   2.173   0.560   0.907 -0.2869  0.2520 -0.0612
  954SOL    HW1 2861   2.177   0.540   0.803  0.6636 -1.4945 -1.7987
  954SOL    HW2 2862   2.266   0.551   0.963  0.6493  0.5778  0.6462
  955SOL     OW 2863   0.124   2.545   1.377 -0.1929 -1.0027 -0.5799
  955SOL    HW1 2864   0.022   2.566   1.379  1.1581  0.6925 -1.3059
  955SOL    HW2 2865   0.183   2.630   1.355 -1.2504  1.8506  0.2462
  956SOL     OW 2866   2.839   2.499   2.507  0.0424 -0.3402  0.3927
  956SOL    HW1 2867   2.842   2.397   2.487 -1.5803 -0.1703 -0.8582
  956SOL    HW2 2868   2.875   2.552   2.423 -1.0058  0.9490 -1.9319
  957SOL     OW 2869   1.639   2.072   2.759 -0.1031 -0.5102 -0.0411
  957SOL    HW1 2870   1.607   1.988   2.814 -1.9393  0.7208  2.8342
  957SOL    HW2 2871   1.689   2.052   2.675  0.8923 -0.2499  1.6113
  958SOL     OW 2872   2.651   2.285   2.932 -0.0628  0.3735 -0.9675
  958SOL    HW1 2873   2.563   2.336   2.911 -2.0686  0.2823 -2.4379
  958SOL    HW2 2874   2.649   2.233   3.022  2.6086  4.8568 -1.9485
  959SOL     OW 2875   0.344   2.760   0.142 -0.2124 -0.4359 -0.5637
  959SOL    HW1 2876   0.276   2.830   0.169 -1.4396  1.2470  1.0398
  959SOL    HW2 2877   0.313   2.667   0.178  0.6851  0.4808  1.2141
  960SOL     OW 2878   1.961   0.462   1.942  0.1686 -0.4832  0.8078
  960SOL    HW1 2879   1.901   0.545   1.914 -0.4349  0.0385 -1.8759
  960SOL    HW2 2880   1.968   0.444   2.046 -2.1291 -0.7833 -1.4188
  961SOL     OW 2881   2.534   1.871   1.042  0.3368 -0.0719 -0.7029
  961SOL    HW1 2882   2.531   1.958   0.988  1.7650 -1.3439  1.0675
  961SOL    HW2 2883   2.531   1.880   1.147  3.5177 -2.1996 -0.1524
  962SOL     OW 2884   1.278   0.854   0.050  0.0536 -0.1998 -0.3808
  962SOL    HW1 2885   1.295   0.897  -0.040 -0.4425 -3.0506  2.7639
  962SOL    HW2 2886   1.250   0.923   0.124 -0.7347 -1.3468 -1.1045
  963SOL     OW 2887   2.282   2.576   1.811  0.1007 -0.3570  0.7985
  963SOL    HW1 2888   2.236   2.483   1.835  0.3256  2.1153 -0.0433
  963SOL    HW2 2889   2.320   2.626   1.896  0.5754  1.0364  1.6977
  964SOL     OW 2890   2.354   0.324   1.659  0.3606 -0.3869 -0.0310
  964SOL    HW1 2891   2.461   0.331   1.682  2.8208 -1.9459  0.3812
  964SOL    HW2 2892   2.329   0.362   1.561  0.8635  1.7727  1.0070
  965SOL     OW 2893   2.600   2.964   0.147  0.0584 -0.3753 -0.6645
  965SOL    HW1 2894   2.685   2.953   0.085  1.8284 -0.5314  0.0484
  965SOL    HW2 2895   2.516   2.998   0.092 -0.6368  1.1512 -1.3896
  966SOL     OW 2896   2.488   2.496   2.232 -0.2667  0.4721 -0.3809
  966SOL    HW1 2897   2.495   2.594   2.194  0.4616  0.3110 -0.1894
  966SOL    HW2 2898   2.414   2.447   2.179 -1.9010 -0.4203 -0.3555
  967SOL     OW 2899   2.751   2.851   2.463 -0.4076 -0.3399 -0.2048
  967SOL    HW1 2900   2.789   2.781   2.394  0.9098 -2.5457  0.5660
  967SOL    HW2 2901   2.825   2.904   2.511 -0.6128 -0.6116  0.2335
  968SOL     OW 2902   1.940   1.040   2.619 -0.3225  0.0374 -0.0441
  968SOL    HW1 2903   1.869   1.111   2.598  1.8442 -1.8440  0.0347
  968SOL    HW2 2904   1.959   0.990   2.531 -0.2148  0.4064 -0.3090
  969SOL     OW 2905   2.823   2.570   1.107 -0.2038 -0.4040 -0.0122
  969SOL    HW1 2906   2.813   2.582   1.005  0.9821 -1.2233 -0.6677
  969SOL    HW2 2907   2.887   2.490   1.133  0.1296 -2.7037  0.8847
  970SOL     OW 2908   1.138   2.107   1.868 -0.0257  1.1000  0.3227
  970SOL    HW1 2909   1.134   2.040   1.944 -0.8158  1.5609  1.7954
  970SOL    HW2 2910   1.063   2.174   1.881  2.1407  0.5382  0.2246
  971SOL     OW 2911   2.848   2.096   1.922 -0.3975 -1.0029  0.3482
  971SOL    HW1 2912   2.858   2.184   1.982  1.5135 -0.0395  0.3685
  971SOL    HW2 2913   2.906   2.102   1.834  1.8336 -1.1482  0.5235
  972SOL     OW 2914   1.928   2.474   0.221 -0.1963  0.1762  0.2283
  972SOL    HW1 2915   1.923   2.371   0.195  3.3363  2.9743 -0.6159
  972SOL    HW2 2916   1.944   2.480   0.321 -0.0197  2.4197  0.2357
  973SOL     OW 2917   1.150   0.888   1.878  0.3051 -0.2631  0.0036
  973SOL    HW1 2918   1.092   0.803   1.868 -0.3558 -2.8910  0.3999
  973SOL    HW2 2919   1.099   0.977   1.857  2.1959  0.3533  0.6091
  974SOL     OW 2920   1.594   0.592   1.993  0.1118  0.2529  0.5920
  974SOL    HW1 2921   1.676   0.625   1.942 -1.0960  1.3103  0.3049
  974SOL    HW2 2922   1.509   0.634   1.955 -0.1785 -0.2249  0.3895
  975SOL     OW 2923   2.383   3.026   3.080 -0.7681 -0.2196 -0.2642
  975SOL    HW1 2924   2.292   2.975   3.102 -0.4421 -0.1335  2.6936
  975SOL    HW2 2925   2.444   2.971   3.017 -0.6120  0.3198  0.4098
  976SOL     OW 2926   1.915   2.712   2.332 -0.9211  0.5874  0.2572
  976SOL    HW1 2927   1.815   2.699   2.354 -1.0428  1.3396 -0.7472
  976SOL    HW2 2928   1.974   2.733   2.416 -0.6264  3.5782  0.4236
  977SOL     OW 2929   0.465   0.705   1.022  0.1492 -0.1210  0.4335
  977SOL    HW1 2930   0.380   0.704   0.972 -0.0117 -1.6688  0.1986
  977SOL    HW2 2931   0.526   0.780   0.992 -0.3975 -2.1851 -0.0478
   3.10000   3.10000   3.10000
