1000 SPC/Fw water molecules t=   0.68000 step= 680
 2931
    1SOL     OW    1   2.474   0.374   2.604  0.5086  0.4450  0.4084
    1SOL    HW1    2   2.511   0.282   2.573 -2.1333  0.8678 -1.0642
    1SOL    HW2    3   2.522   0.403   2.689 -0.5869  0.0104 -1.5647
    2SOL     OW    4   2.733   3.045   1.403  0.4041 -0.2966  0.1316
    2SOL    HW1    5   2.760   3.082   1.310 -1.3805 -2.4506  1.0677
    2SOL    HW2    6   2.711   3.119   1.471  1.6487  0.6409  2.0367
    3SOL     OW    7   2.726   2.619   0.366 -0.2293  0.4528 -0.0848
    3SOL    HW1    8   2.695   2.519   0.384 -0.6434 -0.5877 -1.1009
    3SOL    HW2    9   2.816   2.643   0.414  2.1742 -0.2905  0.7860
    4SOL     OW   10   1.286   1.436   2.365 -0.0125 -0.1919  0.3625
    4SOL    HW1   11   1.201   1.485   2.376 -0.7876 -0.4925 -2.3222
    4SOL    HW2   12   1.277   1.338   2.398 -1.9394 -0.6466 -3.0189
    5SOL     OW   13   1.168   1.507   3.078  0.0750  0.3917 -0.0473
    5SOL    HW1   14   1.239   1.586   3.077 -1.3020  1.3784 -1.2866
    5SOL    HW2   15   1.075   1.539   3.108  0.5744 -1.9888  1.2041
    6SOL     OW   16   0.092   1.872   2.938 -0.0368  0.8118 -0.1011
    6SOL    HW1   17   0.017   1.895   3.004  0.9380 -0.4052  3.0105
    6SOL    HW2   18   0.151   1.797   2.983 -0.2399 -3.2630  1.6694
    7SOL     OW   19   2.534   0.944   1.135  0.2482  0.4556  0.0399
    7SOL    HW1   20   2.477   0.857   1.161 -0.0554  0.8055 -0.3615
    7SOL    HW2   21   2.564   0.958   1.035  1.8827 -1.3957 -1.9917
    8SOL     OW   22   0.409   0.576   1.530 -0.5299 -0.1571  0.1825
    8SOL    HW1   23   0.494   0.533   1.577  1.3924 -0.5083  0.0699
    8SOL    HW2   24   0.382   0.532   1.441  0.3504  0.8337 -0.3965
    9SOL     OW   25   1.149   0.901   2.324  0.5226 -0.1403  0.5252
    9SOL    HW1   26   1.224   0.960   2.284  1.8533 -1.3849 -0.2041
    9SOL    HW2   27   1.089   0.850   2.251 -0.2370 -2.7732 -0.6262
   10SOL     OW   28   0.631   1.343   1.288 -0.5776  0.0962  0.5989
   10SOL    HW1   29   0.543   1.366   1.236  2.0836  1.5357  2.1738
   10SOL    HW2   30   0.699   1.421   1.288 -1.8863  3.5456 -1.5288
   11SOL     OW   31   2.377   2.738   0.879  0.2260 -0.1589 -0.1341
   11SOL    HW1   32   2.332   2.804   0.945  0.6124 -1.1549 -1.2586
   11SOL    HW2   33   2.478   2.756   0.881 -2.6959  0.1006 -2.2295
   12SOL     OW   34   1.474   0.871   0.366 -0.0821  0.1506  0.4106
   12SOL    HW1   35   1.434   0.949   0.310 -0.9272  2.9319  1.0812
   12SOL    HW2   36   1.515   0.792   0.313  1.0313 -2.1725 -0.0671
   13SOL     OW   37   2.503   0.682   1.815 -0.1544  0.1345 -0.0930
   13SOL    HW1   38   2.416   0.669   1.871 -0.6959  1.5626 -1.6554
   13SOL    HW2   39   2.488   0.656   1.718 -2.8452  1.5635  0.0963
   14SOL     OW   40   1.954   0.092   0.725 -0.7362 -0.2392 -0.0265
   14SOL    HW1   41   1.873   0.077   0.658 -1.8405 -0.3029  0.6123
   14SOL    HW2   42   1.929   0.046   0.817 -1.6377 -1.1714 -0.2561
   15SOL     OW   43   1.949   2.018   2.749  0.2344  0.4267 -0.5909
   15SOL    HW1   44   1.895   2.107   2.740 -0.5132  1.0549  0.6742
   15SOL    HW2   45   1.894   1.934   2.723  0.1190 -1.2265  0.2345
   16SOL     OW   46   1.603   1.713   3.003 -0.1489 -0.5873 -0.8538
   16SOL    HW1   47   1.616   1.614   3.026 -3.4131 -0.5640 -0.3043
   16SOL    HW2   48   1.690   1.766   3.007  1.1263 -0.8804 -1.1556
   17SOL     OW   49   0.113   0.527   0.155  0.3554  0.1793  0.3738
   17SOL    HW1   50   0.200   0.531   0.100  1.4499 -1.6072 -1.0217
   17SOL    HW2   51   0.026   0.559   0.103  1.7698  1.2159  0.5140
   18SOL     OW   52   0.936   2.995   2.104 -0.1664 -0.1746 -0.4906
   18SOL    HW1   53   0.853   2.934   2.105 -1.8910 -0.9456 -2.1727
   18SOL    HW2   54   0.987   2.984   2.017 -1.8838  0.7858  2.8722
   19SOL     OW   55   0.523   0.822   1.904 -0.0986 -0.1225 -0.0813
   19SOL    HW1   56   0.548   0.819   2.001 -1.4741  1.0802 -2.7284
   19SOL    HW2   57   0.601   0.822   1.837 -2.8532 -0.2655 -0.6714
   20SOL     OW   58   0.228   2.769   0.854  0.1389 -0.4167  0.1517
   20SOL    HW1   59   0.154   2.810   0.791  2.8769 -0.0344 -0.5172
   20SOL    HW2   60   0.315   2.752   0.802 -0.3851  0.2048 -0.4454
   21SOL     OW   61   2.778   0.183   2.084 -0.2366  0.3184  0.2633
   21SOL    HW1   62   2.703   0.126   2.039  1.4257  0.5889 -0.4066
   21SOL    HW2   63   2.871   0.140   2.095 -0.5247  1.2153 -0.1524
   22SOL     OW   64   2.368   0.206   0.066  0.4172  0.3486 -0.2745
   22SOL    HW1   65   2.367   0.106   0.034 -1.8242 -2.9549  1.0518
   22SOL    HW2   66   2.275   0.245   0.084  2.6493  0.7145 -0.9993
   23SOL     OW   67   2.748   0.660   0.626  0.0159  0.1023  0.1726
   23SOL    HW1   68   2.808   0.573   0.599  3.2417  0.0733  1.4903
   23SOL    HW2   69   2.748   0.737   0.553 -0.8290  0.5650 -0.6105
   24SOL     OW   70   0.169   1.917   0.358  0.1720 -0.4966 -0.2143
   24SOL    HW1   71   0.091   1.953   0.302  1.8831  0.8959 -2.2444
   24SOL    HW2   72   0.264   1.924   0.313 -2.3721 -1.6451 -1.3639
   25SOL     OW   73   2.216   0.518   0.300 -0.5195  0.7422  0.6278
   25SOL    HW1   74   2.256   0.611   0.285 -1.7629 -2.2485 -1.4525
   25SOL    HW2   75   2.231   0.441   0.230  2.1464 -0.4877 -0.6051
   26SOL     OW   76   2.535   2.109   2.095  0.1460 -0.0775  0.2362
   26SOL    HW1   77   2.579   2.184   2.153  1.3095 -0.4586  4.6051
   26SOL    HW2   78   2.603   2.046   2.046 -1.4872  1.1676 -0.0361
   27SOL     OW   79   0.602   2.982   0.183  0.0498  0.2784  0.1271
   27SOL    HW1   80   0.702   2.957   0.164  0.7038 -0.3743  1.8907
   27SOL    HW2   81   0.538   2.969   0.101 -0.9991  0.3189  0.2597
   28SOL     OW   82   1.567   0.175   0.297  0.6433 -0.0703  0.5157
   28SOL    HW1   83   1.580   0.158   0.196  2.6757  1.9076  0.6781
   28SOL    HW2   84   1.541   0.278   0.317  1.0864 -0.8275 -1.0853
   29SOL     OW   85   1.967   0.553   0.400  0.2570  0.0426 -0.3984
   29SOL    HW1   86   1.977   0.657   0.423  1.6673  2.2541 -0.2703
   29SOL    HW2   87   2.050   0.511   0.362 -1.1287 -1.2861  0.8342
   30SOL     OW   88   0.213   2.024   0.908  0.2915 -0.5459 -0.1704
   30SOL    HW1   89   0.196   2.023   0.806 -2.6161 -1.2156  3.3367
   30SOL    HW2   90   0.138   2.090   0.951  1.5821 -0.9297  0.2013
   31SOL     OW   91   2.105   3.079   2.314  0.3447  0.1774 -0.1208
   31SOL    HW1   92   2.098   3.076   2.419 -1.8363  1.9802  1.2863
   31SOL    HW2   93   2.030   3.021   2.277 -0.3510 -1.8311  1.9531
   32SOL     OW   94   2.956   0.153   0.260  0.1821 -0.8143  0.0283
   32SOL    HW1   95   2.914   0.087   0.324 -0.3588  1.2671 -3.2997
   32SOL    HW2   96   3.054   0.181   0.287 -0.2050 -1.2257 -0.2233
   33SOL     OW   97   0.936   0.327   0.597  0.0146 -0.2325  0.0440
   33SOL    HW1   98   0.914   0.243   0.542 -1.6106 -1.0356  2.9804
   33SOL    HW2   99   1.034   0.349   0.605  2.4170  0.1884 -0.7364
   34SOL     OW  100   0.319   2.824   1.086 -0.6231  0.2897 -0.8479
   34SOL    HW1  101   0.275   2.791   0.995 -0.8538 -0.3579 -1.1192
   34SOL    HW2  102   0.417   2.853   1.070 -1.2028 -1.0616  1.4434
   35SOL     OW  103   3.096   0.214   1.828  0.1040 -0.2702  0.3462
   35SOL    HW1  104   3.124   0.123   1.867  1.1998 -1.2500  0.5406
   35SOL    HW2  105   3.055   0.205   1.733  0.0312 -1.8763 -1.2536
   36SOL     OW  106   1.974   1.114   1.814  0.1919  0.9056 -0.5554
   36SOL    HW1  107   2.029   1.094   1.733 -1.7121  1.8481 -0.7378
   36SOL    HW2  108   1.994   1.202   1.864 -0.2040 -2.5163 -0.4439
   37SOL     OW  109   1.202   0.154   0.882 -0.4308 -0.3209  0.0618
   37SOL    HW1  110   1.255   0.212   0.949 -0.9974 -1.5891 -0.0452
   37SOL    HW2  111   1.265   0.097   0.818  0.2334 -0.0660  0.3231
   38SOL     OW  112   1.115   2.801   2.414  0.2579  0.3617  0.1099
   38SOL    HW1  113   1.067   2.720   2.445  1.4819  1.8689 -0.4849
   38SOL    HW2  114   1.057   2.890   2.416 -0.9523 -0.1676  2.5420
   39SOL     OW  115   2.326   1.411   3.041 -0.9416  0.4029  0.4929
   39SOL    HW1  116   2.404   1.345   3.013  1.7028  1.2093  2.5866
   39SOL    HW2  117   2.264   1.382   3.124 -2.4011 -3.3177 -2.8000
   40SOL     OW  118   2.083   2.490   2.572 -0.5140  0.0772 -0.3574
   40SOL    HW1  119   2.047   2.587   2.575  1.2262  0.7054 -0.9985
   40SOL    HW2  120   2.008   2.423   2.534  0.9772 -2.3778  0.8407
   41SOL     OW  121   2.989   0.656   2.788  0.3618  0.2850  0.5839
   41SOL    HW1  122   2.902   0.709   2.817  1.2802  1.9476  1.9998
   41SOL    HW2  123   2.959   0.553   2.769 -1.8311 -2.0501 -0.7742
   42SOL     OW  124   1.762   1.772   0.533  0.0408 -0.6242 -0.3945
   42SOL    HW1  125   1.757   1.670   0.531  1.1709 -0.1817  0.5862
   42SOL    HW2  126   1.809   1.806   0.447  2.3711 -0.1112 -1.5862
   43SOL     OW  127   0.472   1.684   1.086  0.3362 -0.3544  0.2849
   43SOL    HW1  128   0.473   1.585   1.100  2.2772  1.9962 -4.4590
   43SOL    HW2  129   0.376   1.719   1.077 -0.1496  0.7994  0.6399
   44SOL     OW  130   1.828   2.474   3.056  0.0892  0.0528  0.2071
   44SOL    HW1  131   1.809   2.549   2.990  3.6878 -1.3850 -0.6390
   44SOL    HW2  132   1.899   2.502   3.117 -2.9522  1.6365 -0.6295
   45SOL     OW  133   0.363   1.944   2.600  0.4628  1.2031 -0.0092
   45SOL    HW1  134   0.296   1.942   2.516  1.6857 -0.5133 -0.3571
   45SOL    HW2  135   0.434   1.862   2.604  0.2715 -1.6395 -0.7151
   46SOL     OW  136   1.244   0.679   0.192 -0.0039 -0.2595  0.7948
   46SOL    HW1  137   1.264   0.739   0.105  3.5944  0.4484  2.4990
   46SOL    HW2  138   1.151   0.697   0.236  0.2036  1.5618  1.1501
   47SOL     OW  139   0.206   2.471   1.624 -0.1669  0.3004 -0.3699
   47SOL    HW1  140   0.301   2.428   1.614  4.0846 -0.1696  2.9113
   47SOL    HW2  141   0.174   2.520   1.535 -0.0079  0.5319  0.4023
   48SOL     OW  142   2.598   0.614   0.134 -0.3500  0.0655 -0.0082
   48SOL    HW1  143   2.600   0.604   0.237 -0.2708  2.4584 -3.7940
   48SOL    HW2  144   2.685   0.656   0.103  0.9835 -1.9376 -0.8950
   49SOL     OW  145   0.331   0.776   1.708  0.1536 -0.0691  0.0288
   49SOL    HW1  146   0.394   0.805   1.784  2.3160 -0.6630 -1.3683
   49SOL    HW2  147   0.368   0.704   1.644  0.0475  0.3000 -0.6499
   50SOL     OW  148   1.658   1.135   0.287  0.0074 -0.5233 -0.0665
   50SOL    HW1  149   1.662   1.038   0.259  0.9003  4.1967 -0.9469
   50SOL    HW2  150   1.612   1.150   0.378  0.3095 -1.7407 -2.0503
   51SOL     OW  151   2.894   1.846   0.370  0.0483  0.5271 -0.2182
   51SOL    HW1  152   2.859   1.820   0.271 -0.7174  1.0959 -2.0941
   51SOL    HW2  153   2.915   1.764   0.426 -0.0542 -1.3024 -2.3747
   52SOL     OW  154   0.791   1.997   0.479  0.4168  0.3021  0.2643
   52SOL    HW1  155   0.699   2.045   0.502  0.7466 -0.1288 -0.3428
   52SOL    HW2  156   0.803   1.912   0.531 -1.9816  1.6649 -0.5184
   53SOL     OW  157   0.118   0.428   1.590  1.5024  0.3696  0.0674
   53SOL    HW1  158   0.151   0.481   1.670  0.6926 -1.7271 -1.0577
   53SOL    HW2  159   0.052   0.482   1.537  0.9197 -1.3930  3.6913
   54SOL     OW  160   1.790   0.460   3.058  0.0485 -0.0708 -0.0499
   54SOL    HW1  161   1.838   0.435   3.146  0.8652  0.9955  0.6526
   54SOL    HW2  162   1.692   0.430   3.058  1.9184  0.5957 -2.2871
   55SOL     OW  163   0.770   2.903   0.687 -0.5681 -0.4233  0.4889
   55SOL    HW1  164   0.727   2.997   0.674  2.8534 -2.9081 -2.8327
   55SOL    HW2  165   0.872   2.898   0.679 -2.0150  1.4690  1.4320
   56SOL     OW  166   0.450   1.593   3.098  0.0465  0.7852  0.5658
   56SOL    HW1  167   0.360   1.641   3.113 -0.6770  1.5535  0.4487
   56SOL    HW2  168   0.445   1.501   3.038 -0.4772 -1.1720  1.9505
   57SOL     OW  169   1.785   2.522   2.586  0.1161  0.4227 -0.7778
   57SOL    HW1  170   1.813   2.437   2.538 -0.5392  0.1215  1.1385
   57SOL    HW2  171   1.678   2.517   2.604 -0.5294 -2.1675 -2.0862
   58SOL     OW  172   0.651   0.331   1.041 -0.2151 -0.3914  0.0700
   58SOL    HW1  173   0.560   0.375   1.015  1.2087 -2.8341 -0.3812
   58SOL    HW2  174   0.626   0.244   1.088 -1.4300 -0.4353 -1.0340
   59SOL     OW  175   0.434   2.408   2.779 -0.0332  0.4240 -0.0694
   59SOL    HW1  176   0.451   2.322   2.724 -0.6392 -1.4514  1.4846
   59SOL    HW2  177   0.508   2.427   2.855  0.4456  1.7953  2.5062
   60SOL     OW  178   2.288   2.041   2.200 -0.1565  0.2179  0.0489
   60SOL    HW1  179   2.375   2.052   2.150  1.6169 -2.1460  0.6788
   60SOL    HW2  180   2.287   2.060   2.300 -1.7765  2.1219 -1.5259
   61SOL     OW  181   1.310   0.614   0.473  0.6738  0.2331 -0.5201
   61SOL    HW1  182   1.245   0.673   0.527  0.3471  1.1812  0.9107
   61SOL    HW2  183   1.300   0.624   0.371  0.0807  0.3273 -1.8397
   62SOL     OW  184   2.731   1.787   2.925  1.0376  0.3779 -0.2490
   62SOL    HW1  185   2.708   1.686   2.896  1.5774 -0.9111 -1.0828
   62SOL    HW2  186   2.818   1.822   2.885  0.0217 -1.6738  1.1743
   63SOL     OW  187   0.617   0.898   0.161  0.2902 -0.2316  0.3538
   63SOL    HW1  188   0.586   0.987   0.125  1.4950  0.1677 -0.6041
   63SOL    HW2  189   0.696   0.905   0.227  1.1839  4.1080  1.2259
   64SOL     OW  190   0.133   0.545   2.512  0.4270 -0.1023 -0.6138
   64SOL    HW1  191   0.188   0.519   2.596 -0.2413 -2.2125 -0.2051
   64SOL    HW2  192   0.118   0.645   2.494  0.3056 -3.4376 -2.7510
   65SOL     OW  193   0.191   1.478   0.555  0.0007  0.0802 -0.4097
   65SOL    HW1  194   0.238   1.552   0.607  1.3065 -0.1140  0.5031
   65SOL    HW2  195   0.262   1.432   0.498  0.4764 -0.5031 -1.3485
   66SOL     OW  196   2.536   0.373   0.574  0.1553  0.1600 -0.1025
   66SOL    HW1  197   2.553   0.446   0.645  1.3935  0.5537  0.0941
   66SOL    HW2  198   2.539   0.280   0.612  2.7682  1.2025 -2.1808
   67SOL     OW  199   0.538   2.522   1.362 -0.1985  0.0752  0.0635
   67SOL    HW1  200   0.589   2.521   1.450  0.4373  2.0168 -0.0992
   67SOL    HW2  201   0.466   2.446   1.346 -0.9123 -0.1212 -3.1464
   68SOL     OW  202   1.021   1.125   2.439 -0.6642 -0.0212 -0.1680
   68SOL    HW1  203   1.050   1.037   2.390  2.9392  0.3716  0.9032
   68SOL    HW2  204   0.935   1.161   2.393  0.2614  0.5723  0.8132
   69SOL     OW  205   0.760   2.773   2.213 -0.5102  0.0622 -0.4387
   69SOL    HW1  206   0.761   2.670   2.190  1.3211  0.2457  1.7647
   69SOL    HW2  207   0.662   2.804   2.210 -3.7063 -1.3486 -1.1918
   70SOL     OW  208   0.573   0.310   2.714 -0.7454  0.2321 -0.1464
   70SOL    HW1  209   0.595   0.362   2.799  1.9426  1.0715 -1.7998
   70SOL    HW2  210   0.554   0.207   2.725  2.4433 -2.3998  1.6626
   71SOL     OW  211   1.060   1.716   0.358  0.1660 -0.3797  0.1332
   71SOL    HW1  212   0.983   1.658   0.390  0.6019  0.7344  1.3371
   71SOL    HW2  213   1.058   1.739   0.255  0.1455  1.9227 -2.1807
   72SOL     OW  214   1.808   0.175   2.113  0.0847  0.3578  0.7456
   72SOL    HW1  215   1.859   0.208   2.028  0.5941 -0.8519  1.9690
   72SOL    HW2  216   1.812   0.074   2.122 -0.8352  1.2511 -0.9943
   73SOL     OW  217   2.831   2.131   2.427  0.3285  0.2434 -0.0876
   73SOL    HW1  218   2.811   2.033   2.385  1.1688 -5.5087 -3.6474
   73SOL    HW2  219   2.843   2.136   2.527  1.3390  0.4524 -0.9510
   74SOL     OW  220   2.711   2.897   2.082 -0.1426  0.1392  1.2685
   74SOL    HW1  221   2.635   2.917   2.150  1.5775  0.0357 -3.0670
   74SOL    HW2  222   2.800   2.946   2.105 -1.5977  0.2134  1.1176
   75SOL     OW  223   0.928   0.748   1.084 -0.4004  0.2058  0.5176
   75SOL    HW1  224   0.837   0.785   1.037  1.0646  1.5685  1.3372
   75SOL    HW2  225   0.980   0.822   1.141  1.4861  0.3052 -0.8574
   76SOL     OW  226   1.663   1.276   2.533 -0.1202 -0.5691 -0.2111
   76SOL    HW1  227   1.576   1.245   2.585 -0.5465 -1.2230 -1.4761
   76SOL    HW2  228   1.678   1.378   2.556  0.7444  2.1324  1.4570
   77SOL     OW  229   2.968   0.930   0.965  0.6756 -0.2744  0.3001
   77SOL    HW1  230   2.958   0.829   0.945 -2.4732 -0.3631  1.1238
   77SOL    HW2  231   3.012   0.955   1.052 -1.4361 -0.0505 -1.4608
   78SOL     OW  232   2.078   1.388   1.526  0.6862  0.3344 -0.1231
   78SOL    HW1  233   2.167   1.415   1.480  1.6730 -2.0432 -0.0181
   78SOL    HW2  234   2.015   1.333   1.462 -2.1390  0.4260  0.4498
   79SOL     OW  235   0.652   1.311   0.872 -0.2504 -0.8848  0.0391
   79SOL    HW1  236   0.570   1.353   0.911  0.2250 -0.7401 -1.2379
   79SOL    HW2  237   0.655   1.318   0.767  2.7274  0.8941 -0.2169
   80SOL     OW  238   0.655   0.462   1.602 -0.7366  0.2807 -0.6471
   80SOL    HW1  239   0.692   0.524   1.525 -1.1431  1.4236 -0.8120
   80SOL    HW2  240   0.668   0.360   1.590  3.4011  1.5453 -2.3305
   81SOL     OW  241   1.037   1.380   2.601  0.0863 -0.0431  0.1053
   81SOL    HW1  242   1.043   1.281   2.564 -0.7311 -3.5794  1.8918
   81SOL    HW2  243   0.979   1.442   2.548 -0.7720 -1.5481 -1.4069
   82SOL     OW  244   0.954   2.940   1.487  0.6582 -0.1048 -0.3022
   82SOL    HW1  245   0.982   2.987   1.399  1.2887  1.0934  0.8852
   82SOL    HW2  246   0.890   2.862   1.463  2.0587  0.0185 -1.6921
   83SOL     OW  247   2.727   2.506   0.857  0.6173 -0.1108  0.3014
   83SOL    HW1  248   2.653   2.438   0.828  1.6618 -0.1615  2.5405
   83SOL    HW2  249   2.697   2.607   0.842  0.9604  3.6059 -0.4129
   84SOL     OW  250   0.682   3.055   2.328 -0.0058 -0.0624  0.5147
   84SOL    HW1  251   0.626   2.970   2.357 -2.4828 -2.1628 -0.1833
   84SOL    HW2  252   0.778   3.047   2.356  0.3703 -0.4790 -0.5191
   85SOL     OW  253   0.331   1.582   1.520 -0.4677 -0.3412 -0.8705
   85SOL    HW1  254   0.274   1.659   1.550  0.2460 -0.4263  2.0440
   85SOL    HW2  255   0.382   1.550   1.601 -2.9770 -0.6102 -0.2802
   86SOL     OW  256   0.391   0.970   1.507  0.2554  0.2517  0.0361
   86SOL    HW1  257   0.377   0.926   1.413 -1.7988  0.8582 -2.3496
   86SOL    HW2  258   0.368   0.904   1.584  1.0456 -0.9867  0.0166
   87SOL     OW  259   1.572   0.666   0.191  0.6921  0.0860  0.1904
   87SOL    HW1  260   1.651   0.727   0.162 -0.7960  0.6748  2.3828
   87SOL    HW2  261   1.544   0.601   0.112  0.2907 -1.0762 -0.9634
   88SOL     OW  262   1.573   1.375   0.212  0.6772 -0.2571 -0.8626
   88SOL    HW1  263   1.611   1.278   0.222 -0.9861 -0.7660  0.2405
   88SOL    HW2  264   1.471   1.390   0.237  1.3284 -0.9279  1.7680
   89SOL     OW  265   0.007   0.419   0.589 -0.0300 -0.3946 -0.0197
   89SOL    HW1  266   0.070   0.344   0.562  0.1707  0.1600  3.4588
   89SOL    HW2  267  -0.097   0.393   0.583 -2.0866 -1.0313 -0.9679
   90SOL     OW  268   0.914   1.624   0.023 -0.7164  0.0461  0.0203
   90SOL    HW1  269   0.831   1.610   0.085 -0.6459 -1.3036  0.8639
   90SOL    HW2  270   0.888   1.622  -0.078  0.8706  1.2818  0.4222
   91SOL     OW  271   1.249   1.446   1.776 -0.4997  0.5516 -0.0735
   91SOL    HW1  272   1.226   1.512   1.855 -1.2384 -1.0922 -0.5965
   91SOL    HW2  273   1.349   1.416   1.761 -1.0303 -0.7823 -2.2335
   92SOL     OW  274   0.020   0.931   1.210  0.7695  0.0401 -0.5965
   92SOL    HW1  275   0.064   1.019   1.180  0.9590 -0.2353  2.6467
   92SOL    HW2  276   0.019   0.927   1.315 -0.0294 -0.6072  1.0249
   93SOL     OW  277   0.035   2.748   0.002 -0.1854 -0.0809 -0.5860
   93SOL    HW1  278  -0.036   2.744  -0.072  0.9731  0.8076  0.5320
   93SOL    HW2  279   0.042   2.657   0.048  2.8415  2.0120  1.0370
   94SOL     OW  280   1.520   1.434   1.757  0.2758 -0.6889 -0.1097
   94SOL    HW1  281   1.591   1.361   1.761  0.7503 -0.7850 -0.2168
   94SOL    HW2  282   1.543   1.511   1.823 -2.8680 -0.4980 -1.0087
   95SOL     OW  283   1.410   2.508   3.026 -0.0084 -0.3428  0.0763
   95SOL    HW1  284   1.332   2.487   3.089 -0.4700 -1.3153  0.0070
   95SOL    HW2  285   1.420   2.433   2.953 -0.3662 -0.6540 -0.7588
   96SOL     OW  286   0.557   2.093   1.327  0.2246  0.4389  0.0499
   96SOL    HW1  287   0.514   2.060   1.238  2.2963  2.2387  1.5725
   96SOL    HW2  288   0.606   2.022   1.385 -0.2218  1.2746 -0.0170
   97SOL     OW  289   0.393   1.640   2.443 -0.3170  0.4728  0.5997
   97SOL    HW1  290   0.290   1.630   2.431 -1.3963  1.5560 -0.8536
   97SOL    HW2  291   0.418   1.674   2.536 -0.3390  1.4519 -1.7150
   98SOL     OW  292   1.956   1.589   1.241 -0.2418 -0.2545 -0.1006
   98SOL    HW1  293   1.892   1.542   1.305  0.0996  1.8896 -2.4426
   98SOL    HW2  294   1.973   1.532   1.156  0.4039 -0.9673  0.4447
   99SOL     OW  295   2.459   2.129   1.377 -0.1232 -0.4228  0.7266
   99SOL    HW1  296   2.489   2.180   1.461  0.1894 -0.7453 -0.0057
   99SOL    HW2  297   2.450   2.029   1.397 -1.4518  0.0081  0.3140
  100SOL     OW  298   2.302   0.332   2.074  0.3943 -0.5439 -0.2098
  100SOL    HW1  299   2.233   0.302   2.146  1.1021 -2.0330  3.6585
  100SOL    HW2  300   2.392   0.376   2.111  1.6024  2.4189 -0.6093
  101SOL     OW  301   0.338   1.529   0.251 -0.2935  0.3048  0.1372
  101SOL    HW1  302   0.386   1.519   0.341 -0.6902 -2.4316  1.2045
  101SOL    HW2  303   0.401   1.537   0.171  1.3614 -2.6321  0.0237
  102SOL     OW  304   2.289   0.991   0.861 -0.3961 -0.6423  0.5286
  102SOL    HW1  305   2.216   0.927   0.830  0.0077  2.6149  2.8256
  102SOL    HW2  306   2.301   1.067   0.790 -0.4898 -0.3227 -2.1488
  103SOL     OW  307   2.290   0.018   0.391 -0.0972  0.0974 -0.0736
  103SOL    HW1  308   2.298   0.123   0.391 -2.6121  1.8375 -1.5625
  103SOL    HW2  309   2.360  -0.035   0.444  0.0167  3.4857 -2.4796
  104SOL     OW  310   0.105   1.773   2.178  0.4131  0.3734 -0.1278
  104SOL    HW1  311   0.138   1.719   2.093  0.2465  0.8637  1.4372
  104SOL    HW2  312   0.002   1.784   2.162 -2.0451  1.4360  0.2111
  105SOL     OW  313   1.272   2.119   0.775 -0.1673  0.0127  0.1793
  105SOL    HW1  314   1.211   2.124   0.693 -0.3007 -0.6222  0.2834
  105SOL    HW2  315   1.299   2.022   0.796  2.7939  0.9380 -0.7258
  106SOL     OW  316   2.150   0.496   1.402  0.2666 -0.8456  0.4544
  106SOL    HW1  317   2.077   0.436   1.445 -1.3868 -0.8439  0.5036
  106SOL    HW2  318   2.166   0.584   1.451  0.2751 -0.2494  1.5174
  107SOL     OW  319   1.748   3.012   1.157 -0.0637  0.4836  0.1881
  107SOL    HW1  320   1.814   3.080   1.196 -1.3286  1.1756  1.4760
  107SOL    HW2  321   1.673   2.987   1.229 -1.5902 -1.4791  0.4096
  108SOL     OW  322   0.819   2.788   1.186 -0.4516 -0.0793  0.1632
  108SOL    HW1  323   0.774   2.759   1.275  0.1397 -0.0455 -0.1519
  108SOL    HW2  324   0.922   2.779   1.187  0.4427  0.3215 -1.9152
  109SOL     OW  325   2.223   0.098   0.752  0.5382  0.0570 -0.2567
  109SOL    HW1  326   2.121   0.116   0.738 -0.9392 -0.4910 -1.0157
  109SOL    HW2  327   2.241   0.090   0.854  0.1589  0.2566  0.8623
  110SOL     OW  328   0.441   2.854   2.765  0.0436 -0.0788 -0.0332
  110SOL    HW1  329   0.434   2.871   2.659  0.5566 -0.2829 -0.1834
  110SOL    HW2  330   0.521   2.790   2.787 -2.3247  0.9777  1.0787
  111SOL     OW  331   1.311   0.498   2.285  0.1352 -0.0052  0.2955
  111SOL    HW1  332   1.242   0.544   2.347  1.2012  0.5674  0.1624
  111SOL    HW2  333   1.371   0.435   2.341  2.6679 -1.4976 -0.4834
  112SOL     OW  334   1.707   0.527   1.490 -0.7017  0.6664 -0.2275
  112SOL    HW1  335   1.716   0.497   1.389 -0.7911  0.5081  1.9175
  112SOL    HW2  336   1.698   0.450   1.555 -1.3444  1.5612 -2.0420
  113SOL     OW  337   2.252   1.655   1.782 -0.2364  0.6154 -0.0121
  113SOL    HW1  338   2.320   1.596   1.728 -1.9413 -1.3465 -2.6498
  113SOL    HW2  339   2.281   1.680   1.878  0.0264  0.3958 -0.9804
  114SOL     OW  340   0.386   0.499   1.244 -0.7709  0.4179 -0.1103
  114SOL    HW1  341   0.427   0.587   1.201  0.1615  0.1669  1.0668
  114SOL    HW2  342   0.306   0.460   1.192  1.8682  0.6944 -0.1668
  115SOL     OW  343   2.796   1.625   1.305  0.5960 -0.6197 -0.0068
  115SOL    HW1  344   2.784   1.519   1.311  0.4660 -0.8496  0.2959
  115SOL    HW2  345   2.816   1.658   1.209 -0.3095  0.2953 -1.9300
  116SOL     OW  346   1.839   1.042   0.697  0.0666  0.4081  0.1232
  116SOL    HW1  347   1.754   1.005   0.650 -0.2067 -1.7668 -1.8098
  116SOL    HW2  348   1.830   1.129   0.750 -1.5239 -0.0001 -1.2733
  117SOL     OW  349   1.192   0.404   0.698 -0.1997  0.3007 -0.4749
  117SOL    HW1  350   1.150   0.402   0.789  2.1490  2.7472 -3.6017
  117SOL    HW2  351   1.241   0.495   0.680 -0.1939  1.9958 -0.1862
  118SOL     OW  352   1.113   1.145   1.069  0.4322 -0.4665  0.1603
  118SOL    HW1  353   1.094   1.047   1.110 -0.5671 -0.2494  1.3557
  118SOL    HW2  354   1.148   1.215   1.134  0.4750 -0.3182  1.5548
  119SOL     OW  355   1.831   1.606   2.126 -0.1432  0.3493  0.4853
  119SOL    HW1  356   1.811   1.708   2.159  1.1541 -0.3586  0.7187
  119SOL    HW2  357   1.933   1.584   2.122 -0.4536  0.6357  3.8926
  120SOL     OW  358   2.922   2.818   0.199 -0.3246 -0.1892 -0.4032
  120SOL    HW1  359   3.008   2.805   0.139  1.2628 -2.1137 -2.3111
  120SOL    HW2  360   2.841   2.777   0.158  1.6105  0.8568 -1.2034
  121SOL     OW  361   2.021   0.759   2.320 -0.1656 -0.1512 -0.3612
  121SOL    HW1  362   2.076   0.821   2.263  0.4619  1.6076  1.0124
  121SOL    HW2  363   2.009   0.661   2.281 -0.4364  0.0852 -0.9157
  122SOL     OW  364   2.633   2.692   1.227  0.0082  0.0806 -0.4396
  122SOL    HW1  365   2.685   2.605   1.188 -0.0117  1.3389 -0.2629
  122SOL    HW2  366   2.566   2.735   1.160 -2.0548  0.7324 -1.6676
  123SOL     OW  367   1.742   0.066   1.675  0.8821  0.0275  0.1407
  123SOL    HW1  368   1.771  -0.031   1.649  0.9141 -0.7110  0.3696
  123SOL    HW2  369   1.819   0.117   1.730 -0.5911  0.3239  1.5861
  124SOL     OW  370   0.127   0.422   1.092 -0.2879 -0.0224 -0.8672
  124SOL    HW1  371   0.119   0.512   1.157  0.6558  3.6539 -2.0381
  124SOL    HW2  372   0.087   0.446   1.000 -1.0971  0.0037  1.8043
  125SOL     OW  373   0.836   1.844   0.686 -0.2408  0.6068  0.1757
  125SOL    HW1  374   0.912   1.779   0.714 -0.6403  1.7455 -1.8779
  125SOL    HW2  375   0.779   1.873   0.763  1.3517  0.1241  0.1207
  126SOL     OW  376   1.902   2.304   2.480 -0.0780 -0.6200 -0.1868
  126SOL    HW1  377   1.960   2.265   2.400  2.9323 -1.0983  1.0575
  126SOL    HW2  378   1.842   2.232   2.524 -0.8417  1.1031 -0.3739
  127SOL     OW  379   0.864   0.877   0.294  0.6130 -0.4363 -0.2353
  127SOL    HW1  380   0.874   0.928   0.386 -1.2390  1.5075 -0.7742
  127SOL    HW2  381   0.910   0.782   0.295  0.0875 -1.2902 -1.0649
  128SOL     OW  382   0.957   0.243   1.375 -0.3344  0.3711  0.5010
  128SOL    HW1  383   0.933   0.324   1.316 -2.6132  2.5879 -3.2229
  128SOL    HW2  384   0.879   0.179   1.379 -0.4313 -0.4930  0.1697
  129SOL     OW  385   1.832   0.728   1.886 -0.2867  0.0811  0.0524
  129SOL    HW1  386   1.853   0.738   1.789  1.2603  1.1864  2.8507
  129SOL    HW2  387   1.867   0.811   1.947 -0.5707  0.8008 -1.3492
  130SOL     OW  388   1.375   2.206   1.026  0.0015 -0.6583  0.2243
  130SOL    HW1  389   1.342   2.189   0.928 -1.3813  0.6019  0.7874
  130SOL    HW2  390   1.454   2.271   1.026  1.1679 -1.4911 -0.2109
  131SOL     OW  391   3.037   1.428   1.366 -0.1653 -0.5458 -0.2510
  131SOL    HW1  392   2.998   1.337   1.378 -0.5083  1.1374 -0.6075
  131SOL    HW2  393   3.137   1.428   1.348 -0.7925  1.5286  1.5354
  132SOL     OW  394   2.046   2.439   0.562  0.5469 -0.6257  0.4257
  132SOL    HW1  395   1.948   2.469   0.562  0.1079 -0.7439 -2.3309
  132SOL    HW2  396   2.059   2.357   0.630 -0.4260  1.1011 -0.1696
  133SOL     OW  397   1.881   2.292   2.769  0.3677  0.5984  0.2358
  133SOL    HW1  398   1.947   2.299   2.845 -0.5475  0.1403  0.5032
  133SOL    HW2  399   1.835   2.380   2.739 -0.7816  2.0837  0.1739
  134SOL     OW  400   2.702   2.324   1.667 -0.0376  0.0443  0.4645
  134SOL    HW1  401   2.644   2.314   1.752  1.9169 -0.4580  0.9077
  134SOL    HW2  402   2.743   2.417   1.661  0.5407 -0.7541 -0.0911
  135SOL     OW  403   0.712   1.493   2.669 -0.2069 -0.1604  0.3862
  135SOL    HW1  404   0.685   1.397   2.694 -2.7228  1.3416  1.1536
  135SOL    HW2  405   0.785   1.499   2.585  3.6387  1.0007 -1.2823
  136SOL     OW  406   1.189   1.952   0.439  0.1233  0.2928 -0.0900
  136SOL    HW1  407   1.147   2.004   0.515 -0.7743 -0.4581 -0.8080
  136SOL    HW2  408   1.134   1.865   0.427  0.0261  1.1288  1.2880
  137SOL     OW  409   0.417   1.146   2.143  0.2227  0.5081 -0.2322
  137SOL    HW1  410   0.322   1.147   2.185 -0.2729 -2.5066  0.4803
  137SOL    HW2  411   0.480   1.080   2.190  2.5716 -1.1242 -0.9625
  138SOL     OW  412   2.479   1.499   0.279 -0.4980  0.2659 -0.0357
  138SOL    HW1  413   2.399   1.466   0.221 -0.0019 -2.2443  1.8921
  138SOL    HW2  414   2.513   1.423   0.339 -1.2385 -0.4253 -0.1552
  139SOL     OW  415   1.844   2.650   1.304  0.7674 -0.2196  0.2435
  139SOL    HW1  416   1.758   2.642   1.250  3.3274  1.7993 -0.3884
  139SOL    HW2  417   1.878   2.557   1.321  1.0612 -0.8297 -0.5433
  140SOL     OW  418   3.016   2.908   2.602 -0.0816  0.9362 -0.3460
  140SOL    HW1  419   3.062   2.813   2.604 -0.0199 -1.6798 -2.0147
  140SOL    HW2  420   3.082   2.982   2.633  4.7676 -0.2765  0.0465
  141SOL     OW  421   1.297   1.701   1.630  0.6846  0.1542  0.3329
  141SOL    HW1  422   1.215   1.763   1.641 -1.2716 -0.4212 -0.4133
  141SOL    HW2  423   1.293   1.624   1.697  2.7027 -0.7166 -1.5180
  142SOL     OW  424   1.564   0.596   2.229  0.1429 -0.7572  0.6825
  142SOL    HW1  425   1.576   0.591   2.125  0.7186 -1.9771 -0.1679
  142SOL    HW2  426   1.465   0.567   2.254  1.2461  1.8458 -0.7329
  143SOL     OW  427   2.740   0.900   0.486  0.0002 -0.2834 -0.0222
  143SOL    HW1  428   2.784   0.949   0.409 -0.0951 -0.4795 -2.0613
  143SOL    HW2  429   2.760   0.954   0.573 -0.3137  3.4077  0.4770
  144SOL     OW  430   2.930   1.179   1.459 -0.3071  0.0409  0.4625
  144SOL    HW1  431   2.902   1.156   1.557  1.7569 -0.0708 -0.9913
  144SOL    HW2  432   2.998   1.111   1.418 -3.1760 -0.6862 -0.8595
  145SOL     OW  433   1.004   1.870   0.080  0.5221  0.5352  0.2057
  145SOL    HW1  434   1.037   1.934   0.007 -0.3779  1.4337  0.7533
  145SOL    HW2  435   0.983   1.775   0.041  0.6535  1.7213  0.3502
  146SOL     OW  436   2.469   0.682   1.509  0.3225 -0.1645 -0.2893
  146SOL    HW1  437   2.456   0.613   1.433 -0.2160 -1.7207  0.7341
  146SOL    HW2  438   2.428   0.774   1.470  0.1877 -2.0616 -0.8282
  147SOL     OW  439   1.132   2.479   0.610  0.7482 -0.2259  0.1472
  147SOL    HW1  440   1.090   2.522   0.518 -0.9564  0.3913 -0.1822
  147SOL    HW2  441   1.220   2.425   0.584  3.1540 -1.4647 -0.8378
  148SOL     OW  442   1.672   1.461   3.063  0.2838  0.0144 -0.3807
  148SOL    HW1  443   1.678   1.368   3.014 -0.6458 -1.5248  1.4799
  148SOL    HW2  444   1.629   1.442   3.155  0.0244  0.3656 -0.5533
  149SOL     OW  445   0.700   1.426   1.974 -0.2851 -0.2555  0.1679
  149SOL    HW1  446   0.599   1.414   1.999  0.8665  0.3720  0.4197
  149SOL    HW2  447   0.747   1.338   1.951 -0.5999  1.6470  0.5178
  150SOL     OW  448   3.038   1.274   0.971 -0.1270  0.1883 -0.0164
  150SOL    HW1  449   3.100   1.286   1.052 -0.1759  0.1149 -0.6402
  150SOL    HW2  450   3.017   1.175   0.947  1.6540 -0.9056 -0.7447
  151SOL     OW  451   0.235   0.746   2.124 -0.0444 -0.3146  0.5272
  151SOL    HW1  452   0.202   0.812   2.048  1.0909 -0.3832 -1.7827
  151SOL    HW2  453   0.271   0.654   2.088  1.9839 -0.7175 -0.3619
  152SOL     OW  454   1.387   1.770   1.280 -0.2009 -0.4984 -0.0372
  152SOL    HW1  455   1.394   1.862   1.325  0.7761 -0.4918 -1.0934
  152SOL    HW2  456   1.294   1.754   1.228 -0.8932  0.2701  0.4208
  153SOL     OW  457   3.060   1.522   0.173  0.5423  0.1820 -0.1967
  153SOL    HW1  458   3.067   1.421   0.193 -1.9315 -0.2621  0.2504
  153SOL    HW2  459   3.097   1.581   0.251 -1.4512  1.6051  0.0425
  154SOL     OW  460   2.360   1.841   2.744  0.4443  0.3081 -0.4052
  154SOL    HW1  461   2.378   1.748   2.785  1.1825  1.5976 -0.7739
  154SOL    HW2  462   2.435   1.878   2.682 -1.5163  2.2272 -0.0961
  155SOL     OW  463   2.419   1.234   0.394 -0.0459 -0.1740 -0.2519
  155SOL    HW1  464   2.512   1.233   0.347  3.2972  0.1382  0.1533
  155SOL    HW2  465   2.343   1.176   0.345 -0.5461 -0.1365 -4.0350
  156SOL     OW  466   2.574   0.980   0.870 -0.3086 -0.5947  0.1568
  156SOL    HW1  467   2.473   0.990   0.862  1.1214  1.4548 -0.6244
  156SOL    HW2  468   2.626   1.036   0.802  1.0928  2.2442  0.9975
  157SOL     OW  469   1.277   2.973   3.072  0.5906 -0.2384 -0.0401
  157SOL    HW1  470   1.291   2.944   2.970 -2.5041 -3.3750 -1.2599
  157SOL    HW2  471   1.318   3.068   3.090  1.2793  1.8084  1.1743
  158SOL     OW  472   1.028   1.834   1.950  0.3621  0.0923 -0.7155
  158SOL    HW1  473   1.069   1.920   1.923 -0.6345 -0.0016 -2.1223
  158SOL    HW2  474   0.953   1.843   2.022 -0.1133  1.7606  0.6412
  159SOL     OW  475   0.817   0.436   1.227 -0.4098 -0.2261 -0.3649
  159SOL    HW1  476   0.789   0.522   1.272 -1.7650 -2.6705  0.4497
  159SOL    HW2  477   0.750   0.408   1.150 -0.1231 -2.0589  1.1557
  160SOL     OW  478   1.402   2.344   1.640 -0.4022 -0.7694 -0.5892
  160SOL    HW1  479   1.435   2.403   1.719  0.0640 -0.8768  1.9155
  160SOL    HW2  480   1.475   2.329   1.568 -1.9854 -2.3995 -1.1127
  161SOL     OW  481   0.084   2.922   0.287 -0.5802  0.2690 -0.2455
  161SOL    HW1  482  -0.018   2.897   0.283  2.1479 -0.2393  1.5711
  161SOL    HW2  483   0.107   3.007   0.224  1.2102  2.6853 -1.8345
  162SOL     OW  484   2.544   1.919   0.461 -0.4502 -0.2679  0.2158
  162SOL    HW1  485   2.519   1.899   0.363 -0.0665  2.1433  0.4665
  162SOL    HW2  486   2.537   1.835   0.514  0.9960  2.8371 -0.0813
  163SOL     OW  487   1.932   2.739   0.761 -0.3524  0.5717 -0.3849
  163SOL    HW1  488   1.906   2.752   0.661  1.0192  1.2737 -0.8980
  163SOL    HW2  489   2.014   2.675   0.770 -3.1310 -0.5991 -0.7041
  164SOL     OW  490   3.067   0.206   1.187  0.5647  0.2527 -0.3529
  164SOL    HW1  491   3.137   0.283   1.170  3.0587 -0.0241  1.4696
  164SOL    HW2  492   3.081   0.157   1.282  2.0015  2.5037  0.1044
  165SOL     OW  493   0.917   1.419   0.685  0.4567 -0.3203  0.0673
  165SOL    HW1  494   0.875   1.476   0.763  0.4571  3.0969  0.8874
  165SOL    HW2  495   0.902   1.474   0.602  0.1041 -2.7868 -0.8078
  166SOL     OW  496   1.486   1.086   1.740  0.1105  0.3406  0.4237
  166SOL    HW1  497   1.418   1.061   1.814  3.2148 -0.8179  1.9443
  166SOL    HW2  498   1.577   1.121   1.777 -1.3903  0.0572 -1.6864
  167SOL     OW  499   0.726   1.911   1.460 -0.2913  0.1982 -0.5141
  167SOL    HW1  500   0.753   1.986   1.531  0.4833  1.3409 -0.4315
  167SOL    HW2  501   0.697   1.822   1.500 -1.8610  1.3067 -0.2334
  168SOL     OW  502   1.648   2.394   0.145 -0.1628  0.0448 -0.1710
  168SOL    HW1  503   1.717   2.435   0.080  0.7284 -3.3021  1.6495
  168SOL    HW2  504   1.682   2.326   0.213  0.6358  0.9972 -0.7473
  169SOL     OW  505   0.167   2.551   2.225 -0.6409  0.4102 -0.3563
  169SOL    HW1  506   0.203   2.503   2.139  1.1959 -1.6372  3.7096
  169SOL    HW2  507   0.179   2.488   2.306 -0.6932  1.2656  0.2849
  170SOL     OW  508   1.163   0.242   1.996  0.0031 -0.3047  0.1834
  170SOL    HW1  509   1.241   0.214   2.060 -1.0311 -0.4432  0.3755
  170SOL    HW2  510   1.151   0.171   1.922 -0.1964 -0.3988  1.1361
  171SOL     OW  511   0.221   0.807   2.380 -0.1203 -0.3750  0.3995
  171SOL    HW1  512   0.131   0.849   2.417 -2.0025 -0.6309  3.7782
  171SOL    HW2  513   0.214   0.783   2.277 -1.3055  1.0647 -1.4475
  172SOL     OW  514   0.920   1.052   2.918 -0.3046 -0.4586 -0.2510
  172SOL    HW1  515   0.997   1.101   2.967 -1.0892 -0.2019 -1.5047
  172SOL    HW2  516   0.929   1.063   2.815  0.1579 -3.1753  1.6253
  173SOL     OW  517   0.661   2.656   0.074 -0.6976  0.2323 -0.1044
  173SOL    HW1  518   0.682   2.727   0.008 -0.1973 -0.5861 -0.6509
  173SOL    HW2  519   0.565   2.625   0.077  3.5311 -0.3123 -0.0174
  174SOL     OW  520   1.406   2.815   1.074  0.4063 -0.1653  0.3196
  174SOL    HW1  521   1.384   2.884   1.000 -2.6481 -0.3714 -1.7181
  174SOL    HW2  522   1.384   2.721   1.041  1.1096  2.6376  2.8215
  175SOL     OW  523   0.364   0.063   1.672 -0.1631  1.1527  0.0405
  175SOL    HW1  524   0.447   0.112   1.714  1.3844 -1.5398 -1.0787
  175SOL    HW2  525   0.328   0.116   1.589  3.5587 -1.6879 -2.2561
  176SOL     OW  526   2.566   0.380   3.088 -0.0134  0.2544  0.0006
  176SOL    HW1  527   2.586   0.475   3.130  3.0878  1.2100 -1.0027
  176SOL    HW2  528   2.491   0.327   3.127 -0.6713 -2.4514 -0.1847
  177SOL     OW  529   0.351   0.310   0.982  0.3366 -0.1679  0.6477
  177SOL    HW1  530   0.410   0.240   1.032 -1.1988 -0.3480 -2.2334
  177SOL    HW2  531   0.264   0.343   1.027  0.7408  0.1052 -1.5853
  178SOL     OW  532   0.017   2.665   2.651 -0.8833 -0.4429 -0.3506
  178SOL    HW1  533  -0.070   2.611   2.676 -0.9914  1.6000  1.2927
  178SOL    HW2  534   0.079   2.672   2.734 -0.2255 -0.2610  0.0038
  179SOL     OW  535   0.012   1.694   1.196  0.1525  0.1613  0.2019
  179SOL    HW1  536  -0.059   1.769   1.188  0.7078  0.0640 -1.7989
  179SOL    HW2  537  -0.020   1.613   1.239  0.7615 -0.6045 -1.8377
  180SOL     OW  538   0.232   1.195   1.863  0.6347 -0.2046 -0.6284
  180SOL    HW1  539   0.330   1.190   1.873 -3.1744  0.7883  0.1067
  180SOL    HW2  540   0.184   1.260   1.934 -1.6469  0.0511  0.4635
  181SOL     OW  541   3.004   1.839   2.500  0.1722  0.5361 -0.3544
  181SOL    HW1  542   3.056   1.923   2.471  0.4850 -0.2271 -0.5301
  181SOL    HW2  543   2.915   1.832   2.449 -3.0586 -4.1570  0.5030
  182SOL     OW  544   2.260   1.300   1.160 -0.4822  0.1089  0.1252
  182SOL    HW1  545   2.186   1.284   1.090  0.4357 -0.7301 -1.8494
  182SOL    HW2  546   2.307   1.395   1.158  0.4175  1.0318 -1.9202
  183SOL     OW  547   1.511   2.229   2.557  0.0094 -0.3976 -0.2919
  183SOL    HW1  548   1.405   2.231   2.534 -1.5068  0.3676 -1.6415
  183SOL    HW2  549   1.545   2.131   2.567  1.2922 -1.8320 -0.3445
  184SOL     OW  550   2.054   0.885   0.762  0.1024 -0.4167 -0.1709
  184SOL    HW1  551   1.967   0.937   0.738  1.0281 -0.0922 -1.5588
  184SOL    HW2  552   2.038   0.794   0.807 -2.1060 -0.8553  2.2320
  185SOL     OW  553   1.552   2.766   2.095 -0.0591  0.6605  0.2023
  185SOL    HW1  554   1.533   2.858   2.044 -0.1033  0.2721 -2.0434
  185SOL    HW2  555   1.512   2.761   2.191 -1.2527 -1.3601  2.1640
  186SOL     OW  556   0.073   2.217   1.682  1.0951  0.3504 -0.2329
  186SOL    HW1  557   0.101   2.307   1.715 -1.4411 -1.0718  1.0598
  186SOL    HW2  558   0.148   2.147   1.697 -0.1742  0.1326 -2.4880
  187SOL     OW  559   1.385   0.735   1.672 -0.2748  0.3267 -0.4834
  187SOL    HW1  560   1.435   0.790   1.599  0.3118  1.1536 -1.3987
  187SOL    HW2  561   1.407   0.764   1.769 -2.0415 -3.1500  0.3510
  188SOL     OW  562   2.774   2.751   1.460  0.1068 -0.0452  0.3296
  188SOL    HW1  563   2.754   2.853   1.458  1.4801  1.2764 -0.1653
  188SOL    HW2  564   2.731   2.702   1.377 -0.0714  0.2450  0.1499
  189SOL     OW  565   0.852   1.132   1.374  0.2954  0.2100  0.4512
  189SOL    HW1  566   0.932   1.189   1.415 -0.4914  2.0937 -0.2882
  189SOL    HW2  567   0.771   1.196   1.352 -0.0881  2.4208  1.2177
  190SOL     OW  568   1.518   1.889   1.571 -0.4487 -0.0263 -0.4533
  190SOL    HW1  569   1.444   1.818   1.587 -1.0456 -1.2413  0.8737
  190SOL    HW2  570   1.533   1.947   1.656 -2.3637  0.2584 -0.4557
  191SOL     OW  571   0.974   0.755   1.524 -0.7080  0.1829 -0.2926
  191SOL    HW1  572   1.046   0.681   1.527 -0.2621 -0.4285  0.6292
  191SOL    HW2  573   1.017   0.847   1.508 -1.8469  1.3222 -0.1675
  192SOL     OW  574   1.867   2.203   1.136 -0.0706  0.1497 -0.0532
  192SOL    HW1  575   1.772   2.179   1.102 -0.3166  1.0182  1.1438
  192SOL    HW2  576   1.909   2.288   1.091 -0.4050  2.3925 -0.9089
  193SOL     OW  577   0.508   0.594   0.456  0.2855 -0.4261  0.4996
  193SOL    HW1  578   0.507   0.507   0.504  0.0554  0.9707 -1.3341
  193SOL    HW2  579   0.575   0.593   0.374  0.1667 -2.8363 -1.3985
  194SOL     OW  580   0.305   0.858   1.274 -0.0860  0.6968 -0.0701
  194SOL    HW1  581   0.262   0.762   1.276  0.0161 -0.8905 -1.5449
  194SOL    HW2  582   0.278   0.907   1.189  0.5132 -0.1342  0.7385
  195SOL     OW  583   1.017   2.912   0.551  0.5269 -0.1383  0.5938
  195SOL    HW1  584   1.035   2.815   0.543  3.0717  1.1473 -1.8028
  195SOL    HW2  585   1.105   2.959   0.540 -2.4487 -1.1765  0.4392
  196SOL     OW  586   0.223   1.385   1.367 -0.7311  0.1315  0.1445
  196SOL    HW1  587   0.264   1.470   1.412 -1.6244  0.8070 -0.6137
  196SOL    HW2  588   0.218   1.305   1.437 -0.4288 -0.2661  2.0575
  197SOL     OW  589   0.834   2.026   0.213  0.0087  0.5595 -0.3036
  197SOL    HW1  590   0.829   1.996   0.314 -0.5701 -0.4018  0.7870
  197SOL    HW2  591   0.903   1.975   0.155 -0.0103 -1.5355  0.5296
  198SOL     OW  592   0.306   1.238   0.236  0.3361 -0.0704 -0.2626
  198SOL    HW1  593   0.208   1.224   0.224 -0.2914  0.7144 -0.8527
  198SOL    HW2  594   0.326   1.340   0.245  2.5131 -0.7800  2.2239
  199SOL     OW  595   2.203   0.346   2.554 -1.0309  0.0532  0.2565
  199SOL    HW1  596   2.135   0.332   2.626  2.4144  0.3035 -0.1689
  199SOL    HW2  597   2.303   0.360   2.591  1.2153  2.9682 -0.1723
  200SOL     OW  598   0.042   2.950   0.710 -0.0043 -0.6817  0.4131
  200SOL    HW1  599  -0.015   2.950   0.622 -0.2192 -1.8262 -0.2012
  200SOL    HW2  600   0.031   3.040   0.765 -0.2898  0.1135  1.1807
  201SOL     OW  601   1.113   0.733   0.628 -0.8034 -0.1018  0.3213
  201SOL    HW1  602   1.128   0.799   0.707  1.1271  1.4535 -1.8772
  201SOL    HW2  603   1.017   0.698   0.610  0.8196 -0.0974 -1.3698
  202SOL     OW  604   0.516   1.209   1.803  0.3004 -0.1327  0.1613
  202SOL    HW1  605   0.518   1.204   1.700 -4.1923 -1.7466 -2.4768
  202SOL    HW2  606   0.583   1.141   1.849  0.3505  0.7872  2.0614
  203SOL     OW  607   0.695   0.203   1.554 -0.3211  0.4707 -0.0187
  203SOL    HW1  608   0.726   0.149   1.470  0.4711 -2.1352 -1.4832
  203SOL    HW2  609   0.759   0.191   1.638 -1.3071  2.3518  1.3766
  204SOL     OW  610   2.045   1.879   2.971  0.2876  0.2580 -0.6326
  204SOL    HW1  611   2.096   1.789   2.946  3.3133 -1.1385 -0.0521
  204SOL    HW2  612   2.003   1.914   2.883 -0.9490  0.6852  0.7475
  205SOL     OW  613   1.806   1.860   0.010 -0.4919  0.8230 -0.3545
  205SOL    HW1  614   1.899   1.856  -0.034  0.8794  0.1636 -0.3478
  205SOL    HW2  615   1.770   1.957  -0.002  0.6712 -0.6946 -2.3899
  206SOL     OW  616   2.507   2.776   0.352 -0.1444 -0.2534  0.5402
  206SOL    HW1  617   2.577   2.703   0.380  2.2118  2.1049 -1.6534
  206SOL    HW2  618   2.542   2.837   0.272  0.4894 -0.6544 -0.9523
  207SOL     OW  619   0.570   1.774   2.946  0.4629  0.1233  0.7404
  207SOL    HW1  620   0.649   1.714   2.906  0.3888  0.9666 -1.5784
  207SOL    HW2  621   0.514   1.719   3.017  0.9892  0.3044  1.2783
  208SOL     OW  622   1.181   1.563   1.414  0.0419  0.4060  0.3424
  208SOL    HW1  623   1.183   1.614   1.319 -0.7080  0.7954 -2.6442
  208SOL    HW2  624   1.239   1.612   1.487  0.8849 -2.1888 -0.7444
  209SOL     OW  625   0.271   0.972   3.006 -0.1164 -0.2042  0.3242
  209SOL    HW1  626   0.307   0.914   2.925  1.6590  1.9349 -1.3406
  209SOL    HW2  627   0.252   0.910   3.087  0.8525 -3.0992 -2.1560
  210SOL     OW  628   1.766   0.481   1.225 -0.1571  0.3713  0.1105
  210SOL    HW1  629   1.748   0.568   1.172  2.9984  2.5149 -0.8593
  210SOL    HW2  630   1.859   0.442   1.197 -1.1484 -0.1721  1.1860
  211SOL     OW  631   2.116   1.039   1.595 -0.1095  0.2354 -0.2666
  211SOL    HW1  632   2.178   0.988   1.659  0.0800 -0.4756 -1.7982
  211SOL    HW2  633   2.170   1.094   1.521  0.1078 -1.9472  2.0354
  212SOL     OW  634   0.021   0.989   1.482  0.0768 -0.1224 -0.0177
  212SOL    HW1  635   0.078   1.075   1.505 -0.6900  1.3316  1.2132
  212SOL    HW2  636   0.058   0.899   1.520 -4.4654  0.3295  0.9497
  213SOL     OW  637   2.763   0.393   0.335  0.2268 -0.0144  0.8379
  213SOL    HW1  638   2.809   0.322   0.275 -2.1178 -0.7979 -2.9996
  213SOL    HW2  639   2.685   0.438   0.280  1.7935 -2.9083 -1.6812
  214SOL     OW  640   2.152   0.254   2.290  0.0656 -0.2514  0.0253
  214SOL    HW1  641   2.180   0.267   2.388  1.4374  0.2970 -1.3697
  214SOL    HW2  642   2.128   0.156   2.268 -0.1885 -0.5355  3.1169
  215SOL     OW  643   1.626   2.324   2.056 -0.1945 -0.4910  0.2325
  215SOL    HW1  644   1.727   2.349   2.066 -1.3196  1.3062  0.9258
  215SOL    HW2  645   1.565   2.383   2.118 -0.4756  0.0840  2.3250
  216SOL     OW  646   2.216   0.624   0.662 -0.1220  0.1322 -0.4198
  216SOL    HW1  647   2.192   0.527   0.632  0.4400  1.7859 -2.9450
  216SOL    HW2  648   2.227   0.689   0.581 -1.1024  3.4526 -2.1940
  217SOL     OW  649   0.732   2.766   2.488 -0.0606 -0.1359 -0.4027
  217SOL    HW1  650   0.698   2.674   2.518  1.8203 -0.8471  1.8079
  217SOL    HW2  651   0.767   2.771   2.391  1.0637  1.7543  0.3318
  218SOL     OW  652   1.936   1.458   0.079  0.0986 -0.0029  0.0615
  218SOL    HW1  653   1.849   1.504   0.038 -2.1119  3.7666 -0.7774
  218SOL    HW2  654   1.918   1.357   0.097  0.4170 -1.3450 -0.8458
  219SOL     OW  655   2.336   1.286   2.567  0.6692  0.0174 -0.0469
  219SOL    HW1  656   2.349   1.218   2.488 -0.4555  0.1154 -2.5735
  219SOL    HW2  657   2.348   1.239   2.659 -1.5178 -0.0299 -3.1907
  220SOL     OW  658   1.516   1.015   1.288  0.2410  0.6859  0.7611
  220SOL    HW1  659   1.604   1.053   1.322 -0.5253 -0.7222  0.1836
  220SOL    HW2  660   1.477   1.070   1.211 -4.0649 -2.3979  0.1476
  221SOL     OW  661   1.358   1.059   2.184 -0.3742 -0.6748  0.1204
  221SOL    HW1  662   1.299   1.066   2.099 -0.8424 -0.1699  0.1254
  221SOL    HW2  663   1.453   1.028   2.163 -0.1862 -1.0234  0.1525
  222SOL     OW  664   1.202   0.033   1.181 -0.2622  0.2669  0.2017
  222SOL    HW1  665   1.290   0.033   1.235  0.8422 -1.3429  1.1193
  222SOL    HW2  666   1.168   0.129   1.164  0.4604 -0.0527  2.1941
  223SOL     OW  667   2.784   0.860   2.042 -0.5864 -0.3283 -0.5137
  223SOL    HW1  668   2.804   0.868   2.142 -3.1029  0.6722 -2.1894
  223SOL    HW2  669   2.858   0.906   1.986 -1.0468 -0.4587 -0.0040
  224SOL     OW  670   1.539   1.006   2.747  0.4086  0.1392 -0.0845
  224SOL    HW1  671   1.569   0.936   2.674  1.9639 -0.9964  0.2926
  224SOL    HW2  672   1.495   1.091   2.703 -1.1472  3.7982  0.8574
  225SOL     OW  673   2.939   2.791   2.899 -0.1811  0.2618  0.1363
  225SOL    HW1  674   2.905   2.709   2.841 -0.8323 -1.7794  2.3016
  225SOL    HW2  675   3.000   2.851   2.842  0.1228 -0.0918  3.5060
  226SOL     OW  676   2.395   1.587   2.838 -0.5649 -0.0461 -0.6564
  226SOL    HW1  677   2.435   1.549   2.750 -2.4448 -1.5210  1.4600
  226SOL    HW2  678   2.349   1.516   2.896 -0.3405  0.8335  2.6128
  227SOL     OW  679   0.839   0.154   3.019  0.2518  0.3482 -0.3690
  227SOL    HW1  680   0.894   0.065   3.042 -0.0870  0.0933  0.6896
  227SOL    HW2  681   0.808   0.155   2.914 -0.2148  0.6985 -1.9677
  228SOL     OW  682   2.396   0.611   2.864 -0.4006 -0.3791 -0.4914
  228SOL    HW1  683   2.358   0.646   2.771 -0.4421  0.5081  0.6652
  228SOL    HW2  684   2.477   0.549   2.852  1.5347 -0.5919  0.0889
  229SOL     OW  685   0.614   0.492   1.900 -0.0161 -0.2851  0.8839
  229SOL    HW1  686   0.598   0.395   1.861 -2.2879 -2.1552 -2.5090
  229SOL    HW2  687   0.655   0.565   1.833  0.8504  1.0180 -3.2780
  230SOL     OW  688   1.926   1.188   2.127  0.2011 -0.3727  0.3634
  230SOL    HW1  689   2.024   1.218   2.096 -0.5815 -0.0016 -2.3790
  230SOL    HW2  690   1.845   1.251   2.107  3.3485  1.6200 -1.0625
  231SOL     OW  691   0.626   0.988   2.956  0.1362  0.2050  0.2553
  231SOL    HW1  692   0.716   1.039   2.946  3.0435 -0.1603 -0.1649
  231SOL    HW2  693   0.545   1.049   2.984 -0.9303  2.1795 -1.4118
  232SOL     OW  694   2.447   0.014   2.786 -0.1737  0.2676  0.0260
  232SOL    HW1  695   2.483  -0.066   2.840  0.3627  2.0173  1.9731
  232SOL    HW2  696   2.505   0.043   2.703 -1.2459  1.8113 -0.0869
  233SOL     OW  697   1.698   1.295   1.141  0.2073 -0.3489 -0.0346
  233SOL    HW1  698   1.755   1.309   1.050 -0.3728 -1.1318  1.0507
  233SOL    HW2  699   1.737   1.217   1.197  1.6334  0.9879 -0.6724
  234SOL     OW  700   1.590   2.587   1.846  0.1005 -0.1188  0.0938
  234SOL    HW1  701   1.577   2.678   1.893  0.3166 -0.6091  1.9181
  234SOL    HW2  702   1.525   2.519   1.894 -1.6896 -1.6289  1.3539
  235SOL     OW  703   0.049   3.009   2.844  0.3797  0.1571 -0.3605
  235SOL    HW1  704   0.121   3.078   2.869  1.1061  0.3201 -2.5004
  235SOL    HW2  705  -0.041   3.019   2.892  0.3677 -2.2622 -0.9552
  236SOL     OW  706   2.880   0.754   0.082  0.0420  0.6145 -0.3141
  236SOL    HW1  707   2.966   0.789   0.132  0.2852  2.6796  0.9841
  236SOL    HW2  708   2.909   0.675   0.015  0.6549 -0.2131 -2.6281
  237SOL     OW  709   1.468   1.707   1.008  0.5926  0.1034 -0.6154
  237SOL    HW1  710   1.561   1.666   0.986  1.0918 -2.3608 -1.5475
  237SOL    HW2  711   1.462   1.733   1.107  0.1395  0.2942 -3.5817
  238SOL     OW  712   1.782   1.279   0.856 -0.0823  0.0812  0.5837
  238SOL    HW1  713   1.877   1.296   0.821  0.5105 -3.6840  1.1780
  238SOL    HW2  714   1.700   1.334   0.815  0.6134 -0.0796  0.8603
  239SOL     OW  715   2.021   0.236   2.750  0.5423 -0.0768  1.0425
  239SOL    HW1  716   2.071   0.202   2.836  2.3089  1.5200 -2.7959
  239SOL    HW2  717   1.944   0.305   2.770  0.7570 -2.1732  0.7956
  240SOL     OW  718   0.996   0.634   0.307 -0.2209  0.7268  0.1160
  240SOL    HW1  719   1.003   0.532   0.276 -0.3530 -3.5895  1.7089
  240SOL    HW2  720   1.032   0.637   0.403  1.4271  0.4221  1.2437
  241SOL     OW  721   0.631   0.103   0.335  0.2624 -0.1643  0.6496
  241SOL    HW1  722   0.661   0.172   0.268  1.0866  0.9393  4.4458
  241SOL    HW2  723   0.619   0.009   0.282  0.9230  1.6334  1.0900
  242SOL     OW  724   0.693   2.485   1.126 -0.4192  0.0558 -0.4053
  242SOL    HW1  725   0.650   2.531   1.209  0.1129  2.5236  2.7728
  242SOL    HW2  726   0.783   2.525   1.093  0.4185 -0.9520  0.3160
  243SOL     OW  727   1.121   0.591   2.482 -0.6264 -0.3736  0.4985
  243SOL    HW1  728   1.062   0.672   2.446 -2.7697  1.9188  0.9813
  243SOL    HW2  729   1.058   0.511   2.510  2.1473 -0.8102  1.2247
  244SOL     OW  730   2.782   1.886   2.356  0.2147  0.5523  0.0596
  244SOL    HW1  731   2.819   1.849   2.266 -2.3705  0.2078  1.5037
  244SOL    HW2  732   2.687   1.854   2.374 -1.2240  2.2741  0.7018
  245SOL     OW  733   2.459   0.655   2.195 -0.2808 -0.5009  0.1477
  245SOL    HW1  734   2.511   0.742   2.231  0.4035  1.9604 -3.6797
  245SOL    HW2  735   2.519   0.577   2.199 -3.2619  0.1777 -0.6721
  246SOL     OW  736   0.228   2.932   1.658 -0.0946 -0.5092  0.3857
  246SOL    HW1  737   0.157   2.906   1.588 -2.4661 -0.1684  0.9389
  246SOL    HW2  738   0.272   3.026   1.649 -0.7795  0.0597 -0.5794
  247SOL     OW  739   2.137   0.561   3.046 -0.1810  0.0266 -0.1337
  247SOL    HW1  740   2.224   0.569   2.991  3.9016 -0.0213 -1.7990
  247SOL    HW2  741   2.118   0.647   3.098  0.0423 -1.8573  2.7139
  248SOL     OW  742   2.111   1.788   1.580 -0.0999  0.2271 -0.5468
  248SOL    HW1  743   2.182   1.745   1.640 -0.0834 -0.5501 -1.0199
  248SOL    HW2  744   2.017   1.788   1.627 -0.9125 -1.6919  2.6586
  249SOL     OW  745   1.964   1.907   1.939  0.3146  0.1907 -0.0814
  249SOL    HW1  746   1.936   1.848   1.861  0.0540 -1.4888  0.5132
  249SOL    HW2  747   2.046   1.965   1.918  0.7253 -0.1178 -1.0641
  250SOL     OW  748   1.111   0.757   1.909 -0.0794 -0.1843  0.1024
  250SOL    HW1  749   1.173   0.685   1.948  0.3182  2.1847 -1.7229
  250SOL    HW2  750   1.086   0.739   1.812 -0.3771 -2.4466  1.8723
  251SOL     OW  751   3.082   1.571   2.537  0.4804  0.1111 -0.1275
  251SOL    HW1  752   3.080   1.677   2.542  0.0677  2.4268  3.5437
  251SOL    HW2  753   2.986   1.526   2.536 -2.2850 -1.4105  1.9336
  252SOL     OW  754   1.579   0.910   1.544  0.1969 -0.2743  0.5074
  252SOL    HW1  755   1.554   0.959   1.454 -2.5952  0.1792 -3.2762
  252SOL    HW2  756   1.585   0.976   1.622  1.6264 -0.5273 -0.1323
  253SOL     OW  757   0.870   1.527   0.418 -0.0934 -0.4790  0.7240
  253SOL    HW1  758   0.920   1.436   0.410  0.3513 -0.0195  1.3341
  253SOL    HW2  759   0.780   1.530   0.365 -5.5765  1.3345 -2.1851
  254SOL     OW  760   2.089   2.120   1.577  0.2482  0.2232  0.4758
  254SOL    HW1  761   2.055   2.078   1.488  2.3432  0.9427 -2.2251
  254SOL    HW2  762   2.019   2.107   1.652 -0.4630  1.6957 -0.1296
  255SOL     OW  763   0.101   1.175   2.941  0.2837 -0.2654 -0.0459
  255SOL    HW1  764   0.148   1.267   2.918  0.4565  1.1752  0.0880
  255SOL    HW2  765   0.165   1.094   2.951 -0.5456  2.3492  0.2544
  256SOL     OW  766   2.764   1.374   1.767 -0.4935 -0.0215 -0.8667
  256SOL    HW1  767   2.687   1.421   1.821 -1.7242  0.6042 -0.6212
  256SOL    HW2  768   2.747   1.272   1.755 -1.3770 -0.9831 -0.2417
  257SOL     OW  769   0.860   0.149   1.778 -0.3029  0.3060 -0.1846
  257SOL    HW1  770   0.919   0.235   1.752 -1.4659  0.1147 -2.4562
  257SOL    HW2  771   0.911   0.056   1.758  1.7613 -1.1158  1.0960
  258SOL     OW  772   2.937   1.301   0.432 -0.8489 -0.1795  0.1092
  258SOL    HW1  773   2.886   1.389   0.433  3.3540 -0.0595  1.9558
  258SOL    HW2  774   3.004   1.297   0.515  1.5287  0.8384  2.5449
  259SOL     OW  775   0.493   2.944   3.030 -0.9337  0.0374  0.4543
  259SOL    HW1  776   0.420   2.888   3.077  1.3293 -1.0898 -0.6313
  259SOL    HW2  777   0.512   2.911   2.932  1.6435 -1.6596 -1.9934
  260SOL     OW  778   2.711   0.826   2.733  0.5085 -0.1398  0.8113
  260SOL    HW1  779   2.618   0.840   2.691 -1.8878  1.1967  0.3297
  260SOL    HW2  780   2.760   0.918   2.736 -0.1100  3.0423  0.7147
  261SOL     OW  781   2.730   1.352   1.335 -0.1702 -0.8585 -0.8141
  261SOL    HW1  782   2.653   1.314   1.277  2.5333  0.9782 -0.1558
  261SOL    HW2  783   2.795   1.276   1.362  0.4352 -0.1876 -0.7850
  262SOL     OW  784   1.453   2.991   1.993 -0.1424  0.0206  0.3278
  262SOL    HW1  785   1.471   3.076   1.939 -0.1680  0.7752 -1.5118
  262SOL    HW2  786   1.365   2.944   1.963  0.2544 -0.1609  0.3949
  263SOL     OW  787   0.850   0.715   2.344 -0.3717  0.0276  0.3961
  263SOL    HW1  788   0.812   0.629   2.292 -1.2929 -0.7702 -1.4358
  263SOL    HW2  789   0.887   0.774   2.264  0.7651  1.8735  1.3159
  264SOL     OW  790   2.227   0.806   0.305 -0.4486  0.0184 -0.2986
  264SOL    HW1  791   2.139   0.814   0.357  2.9169  2.9628 -0.9304
  264SOL    HW2  792   2.300   0.862   0.358 -1.8997  0.4833 -2.5055
  265SOL     OW  793   0.911   2.275   2.655 -0.1878 -0.4038  0.2030
  265SOL    HW1  794   0.949   2.323   2.736 -2.7578 -0.1546  2.2858
  265SOL    HW2  795   0.886   2.180   2.679 -0.9701  1.8455 -1.7139
  266SOL     OW  796   1.349   1.739   3.078 -0.5066 -0.0353  0.5273
  266SOL    HW1  797   1.326   1.813   3.146 -0.1276 -0.8512  0.8330
  266SOL    HW2  798   1.450   1.746   3.062 -0.2285  0.4168  1.1738
  267SOL     OW  799   0.981   3.062   2.368 -0.3399 -0.2105 -0.1755
  267SOL    HW1  800   0.995   3.021   2.271  0.5007 -0.0925 -0.6680
  267SOL    HW2  801   0.940   3.158   2.361 -2.6943 -0.5692  0.3180
  268SOL     OW  802   0.679   1.135   1.075  0.4297 -0.1025 -0.6246
  268SOL    HW1  803   0.662   1.191   1.164 -0.0499  1.6284  0.5212
  268SOL    HW2  804   0.693   1.197   0.995  1.1206 -1.6290  2.4707
  269SOL     OW  805   2.404   2.467   1.542 -0.7617  0.1418 -0.1143
  269SOL    HW1  806   2.506   2.462   1.534 -0.2847 -0.3462 -0.9561
  269SOL    HW2  807   2.364   2.484   1.637  1.0731 -1.0183 -0.4286
  270SOL     OW  808   0.132   3.052   1.905 -0.0190 -0.4288 -0.1333
  270SOL    HW1  809   0.189   3.027   1.822  1.4261 -0.5084  1.3897
  270SOL    HW2  810   0.065   2.976   1.922  1.1961 -1.5486 -0.7315
  271SOL     OW  811   0.411   1.420   1.154  0.1238 -0.3430 -0.3624
  271SOL    HW1  812   0.398   1.435   1.056  1.3476 -0.7156  1.6508
  271SOL    HW2  813   0.328   1.417   1.213  0.0611  0.4502 -0.7037
  272SOL     OW  814   1.970   2.884   1.910  0.5361  0.4771 -0.5601
  272SOL    HW1  815   1.945   2.818   1.834 -0.2103  1.7906 -1.2100
  272SOL    HW2  816   2.024   2.957   1.868 -0.0863 -3.4148  1.7554
  273SOL     OW  817   1.439   1.447   2.815  0.4835  0.5708 -0.3528
  273SOL    HW1  818   1.345   1.496   2.813  1.3103  0.2630 -1.2542
  273SOL    HW2  819   1.492   1.464   2.901  0.2599 -2.3324 -0.6921
  274SOL     OW  820   1.237   0.516   2.004  0.5360 -0.2797 -0.5765
  274SOL    HW1  821   1.207   0.420   1.977 -0.2265  2.0084 -0.2382
  274SOL    HW2  822   1.270   0.531   2.102  1.7931 -0.7079  2.5649
  275SOL     OW  823   0.645   2.081   1.870 -0.1485 -0.0028 -0.0618
  275SOL    HW1  824   0.614   2.169   1.906  1.2664 -1.5518 -0.3815
  275SOL    HW2  825   0.578   2.000   1.874  1.5466 -3.2648  1.4673
  276SOL     OW  826   2.149   0.924   2.805 -0.1207 -0.0686 -0.1733
  276SOL    HW1  827   2.063   0.952   2.755 -1.4600 -0.5283 -2.2670
  276SOL    HW2  828   2.127   0.856   2.877  0.8728  1.7353 -2.1372
  277SOL     OW  829   0.002   0.871   0.276  0.2573 -0.5890  0.2354
  277SOL    HW1  830   0.098   0.885   0.245 -0.2177  0.2701  0.3440
  277SOL    HW2  831  -0.012   0.799   0.349 -3.1669  0.8245  1.0902
  278SOL     OW  832   0.246   0.281   3.066  0.1763  0.1834  0.3075
  278SOL    HW1  833   0.327   0.219   3.076  2.0544 -0.0266  1.2165
  278SOL    HW2  834   0.283   0.376   3.065 -0.8025 -1.0713 -0.8519
  279SOL     OW  835   0.141   0.090   0.892  0.0690  0.3221  1.0292
  279SOL    HW1  836   0.168   0.060   0.989  5.5094  0.6481  0.5140
  279SOL    HW2  837   0.209   0.065   0.815 -1.8865  2.4649 -0.8428
  280SOL     OW  838   1.579   2.898   2.547 -0.7244  0.6732 -0.3615
  280SOL    HW1  839   1.659   2.964   2.571 -1.3352  3.1664  0.1671
  280SOL    HW2  840   1.487   2.943   2.570 -3.4965 -0.9381  0.4470
  281SOL     OW  841   0.607   0.938   2.261  0.5714 -0.5090  0.1508
  281SOL    HW1  842   0.588   0.845   2.213  0.3607 -0.0780  0.0754
  281SOL    HW2  843   0.547   0.951   2.346  1.4857 -2.0953 -0.3083
  282SOL     OW  844   1.759   2.413   0.505  0.0637  0.5627  0.3033
  282SOL    HW1  845   1.731   2.327   0.454 -1.6180  0.6683 -2.6036
  282SOL    HW2  846   1.695   2.489   0.475 -1.7132  1.6474 -1.8201
  283SOL     OW  847   1.133   0.922   0.845  0.0023 -0.0051 -0.0189
  283SOL    HW1  848   1.171   0.849   0.909  0.5256 -2.5335  1.6780
  283SOL    HW2  849   1.062   0.985   0.886 -0.2791  0.4238  0.5994
  284SOL     OW  850   2.351   2.766   2.338 -0.0509 -0.5342  0.6504
  284SOL    HW1  851   2.436   2.812   2.297  1.4442  1.2586 -2.5478
  284SOL    HW2  852   2.331   2.790   2.433  2.1574  0.0665 -2.3750
  285SOL     OW  853   1.361   3.056   2.547 -0.0796 -0.4057  0.2960
  285SOL    HW1  854   1.378   3.081   2.445  0.8332 -0.1713 -3.5622
  285SOL    HW2  855   1.272   3.085   2.585  3.1962  1.0513  0.9519
  286SOL     OW  856   0.459   0.413   0.767  0.0551 -0.2600 -0.0459
  286SOL    HW1  857   0.404   0.368   0.845  3.1437 -0.7110 -0.7118
  286SOL    HW2  858   0.463   0.363   0.676 -0.4108  1.8445  1.2271
  287SOL     OW  859   0.125   1.327   2.539 -0.3930  0.1362 -0.1619
  287SOL    HW1  860   0.065   1.267   2.597 -0.7950 -0.6794 -0.4982
  287SOL    HW2  861   0.075   1.413   2.516  3.6223 -0.5147  2.8331
  288SOL     OW  862   1.554   2.671   1.603  0.3252  0.0742 -0.0967
  288SOL    HW1  863   1.590   2.634   1.688 -1.2958  0.3874 -0.2637
  288SOL    HW2  864   1.600   2.628   1.516  3.0885 -1.6131 -1.1214
  289SOL     OW  865   0.605   2.727   0.816 -0.2321  0.7575 -0.5756
  289SOL    HW1  866   0.664   2.786   0.755 -1.7154 -0.2285  1.4072
  289SOL    HW2  867   0.585   2.771   0.910 -2.7107  1.9019  1.0460
  290SOL     OW  868   2.823   1.076   1.710 -0.0699  0.2616  0.1432
  290SOL    HW1  869   2.733   1.053   1.756 -1.3247  1.5677 -0.2453
  290SOL    HW2  870   2.901   1.046   1.769  0.3056 -1.7320  0.9744
  291SOL     OW  871   1.954   0.079   0.061  0.3394  0.0896  0.1442
  291SOL    HW1  872   1.987   0.069   0.163 -1.3367  0.7677  2.8708
  291SOL    HW2  873   2.017   0.122  -0.009  0.4003  2.0008 -0.3796
  292SOL     OW  874   2.977   1.216   3.083  0.1015 -0.5375  0.0039
  292SOL    HW1  875   2.910   1.268   3.020  0.6137 -2.7046 -0.4330
  292SOL    HW2  876   3.063   1.187   3.030 -2.1158  1.1034 -0.6814
  293SOL     OW  877   0.550   2.118   0.158  0.4853  0.1643 -0.3060
  293SOL    HW1  878   0.536   2.189   0.239 -2.6412  2.4559 -1.2390
  293SOL    HW2  879   0.624   2.052   0.178  1.4711 -0.6066  3.0173
  294SOL     OW  880   1.751   2.241   1.762  0.2785  0.3557 -0.3051
  294SOL    HW1  881   1.762   2.312   1.836  1.0200  0.2586 -0.3377
  294SOL    HW2  882   1.751   2.270   1.661 -0.7002  0.6298  1.4756
  295SOL     OW  883   1.036   1.038   0.516 -0.7946  0.5031 -0.2146
  295SOL    HW1  884   1.132   1.042   0.546 -2.8134 -2.0608 -2.3702
  295SOL    HW2  885   0.969   1.028   0.594 -0.0317  0.6814  3.6171
  296SOL     OW  886   1.270   2.098   2.523  0.1949  0.6446  0.1275
  296SOL    HW1  887   1.234   2.120   2.430 -2.9591  0.5397  0.2226
  296SOL    HW2  888   1.271   1.997   2.543 -0.5265  3.1264 -1.2390
  297SOL     OW  889   1.459   0.602   1.393  0.3059 -0.7118  0.0861
  297SOL    HW1  890   1.421   0.510   1.414 -0.7377  0.9062  1.2174
  297SOL    HW2  891   1.559   0.621   1.422  1.3022 -0.4601 -1.1664
  298SOL     OW  892   0.505   1.349   2.951 -0.8762  0.6543  0.3149
  298SOL    HW1  893   0.489   1.275   3.027  2.5929  1.8253  1.3149
  298SOL    HW2  894   0.570   1.324   2.873  2.4575  1.1970 -0.1688
  299SOL     OW  895   0.498   0.261   1.363  0.5965 -0.4586  0.5642
  299SOL    HW1  896   0.536   0.353   1.335 -1.4066 -2.1764  2.0579
  299SOL    HW2  897   0.557   0.223   1.439 -2.2854 -3.1195  1.7966
  300SOL     OW  898   1.215   1.832   2.856 -0.3185  0.3147 -0.0458
  300SOL    HW1  899   1.177   1.739   2.848  1.4312 -2.3349 -1.8375
  300SOL    HW2  900   1.288   1.830   2.929  3.4695 -0.4277 -3.5491
  301SOL     OW  901   0.478   0.265   0.519  0.1100  0.2427  0.3501
  301SOL    HW1  902   0.382   0.231   0.534  1.0518 -2.8792 -1.6537
  301SOL    HW2  903   0.516   0.231   0.428 -1.6388 -1.9689  0.5077
  302SOL     OW  904   1.220   2.407   2.292  0.2068 -0.6405  0.4087
  302SOL    HW1  905   1.162   2.420   2.381 -1.3453  0.6224  0.6732
  302SOL    HW2  906   1.220   2.310   2.262 -1.2432 -0.9966  1.3772
  303SOL     OW  907   0.973   2.341   0.832 -0.0878 -0.1564  0.2600
  303SOL    HW1  908   1.035   2.378   0.757 -1.7336  1.1909 -2.4690
  303SOL    HW2  909   0.990   2.393   0.923 -0.8479 -0.4130  1.2095
  304SOL     OW  910   0.153   2.039   0.633 -0.1333 -0.2673  0.3467
  304SOL    HW1  911   0.178   1.988   0.549  3.2375  0.8792  2.1388
  304SOL    HW2  912   0.068   2.096   0.621  0.9862  1.3376 -0.4577
  305SOL     OW  913   1.619   0.935   0.575  0.7183 -0.3776 -0.1802
  305SOL    HW1  914   1.557   0.887   0.504  0.6047 -0.5589 -0.7267
  305SOL    HW2  915   1.661   0.861   0.634  1.2101 -1.1739  1.0874
  306SOL     OW  916   0.434   1.874   1.914  0.1839  0.3353  0.4389
  306SOL    HW1  917   0.504   1.807   1.878  0.7300 -1.6509  0.1476
  306SOL    HW2  918   0.424   1.869   2.020  0.2728 -0.2472  3.5411
  307SOL     OW  919   3.067   0.904   2.524  0.3704  0.6603  0.0815
  307SOL    HW1  920   3.074   0.990   2.580  0.7703 -2.1627  0.0903
  307SOL    HW2  921   3.004   0.841   2.579 -0.4267  0.8000 -1.6793
  308SOL     OW  922   1.546   2.677   2.858  0.2158 -0.1633 -0.2528
  308SOL    HW1  923   1.546   2.614   2.774 -1.3001 -1.4850 -1.5538
  308SOL    HW2  924   1.513   2.627   2.940  1.0582  2.2419 -3.3707
  309SOL     OW  925   1.224   0.069   1.767 -0.1942 -0.0028 -0.4946
  309SOL    HW1  926   1.325   0.057   1.777 -1.7187 -1.5016  2.5618
  309SOL    HW2  927   1.193   0.102   1.674 -0.6337 -0.8307  1.0063
  310SOL     OW  928   1.501   2.557   0.677  0.2895  0.0692 -0.7252
  310SOL    HW1  929   1.480   2.598   0.768 -1.0174 -2.9480  0.5586
  310SOL    HW2  930   1.579   2.604   0.632 -0.2379  0.6549  1.5290
  311SOL     OW  931   1.171   0.941   1.580 -0.5037  0.0324 -0.1095
  311SOL    HW1  932   1.240   0.877   1.621  1.5508 -0.0353  3.2193
  311SOL    HW2  933   1.217   1.017   1.525 -1.6498 -0.0660 -0.5226
  312SOL     OW  934   1.624   0.666   0.974  0.3448  0.2662 -0.1689
  312SOL    HW1  935   1.571   0.753   0.969  0.0353 -1.0658 -0.0593
  312SOL    HW2  936   1.566   0.584   0.973  1.5547  0.8894  1.8246
  313SOL     OW  937   1.597   1.397   0.694 -0.0201 -0.2885 -0.1245
  313SOL    HW1  938   1.518   1.443   0.740 -1.2335  1.9364  0.3063
  313SOL    HW2  939   1.557   1.317   0.636  0.0640 -0.9961 -0.6367
  314SOL     OW  940   2.980   0.026   3.053 -0.7262 -0.2961 -0.7046
  314SOL    HW1  941   2.990   0.080   3.140 -2.1998 -0.8185 -0.7134
  314SOL    HW2  942   2.900  -0.039   3.055  0.5861  1.4922 -0.5843
  315SOL     OW  943   1.210   0.196   2.801  0.2269  0.0552  0.1749
  315SOL    HW1  944   1.188   0.107   2.749 -3.8828 -2.4942  0.1955
  315SOL    HW2  945   1.243   0.179   2.896 -1.4603 -0.3272 -1.7811
  316SOL     OW  946   1.708   2.086   0.877 -0.0057  0.0147 -0.8347
  316SOL    HW1  947   1.637   2.065   0.954 -0.8669 -1.2238 -0.3872
  316SOL    HW2  948   1.713   2.189   0.853 -0.4836 -1.7622 -2.1307
  317SOL     OW  949   1.130   0.696   2.883 -0.2714 -0.2669  0.4342
  317SOL    HW1  950   1.055   0.741   2.945  0.7116 -0.1463 -0.2274
  317SOL    HW2  951   1.105   0.606   2.837  1.9102 -1.3608 -0.1660
  318SOL     OW  952   1.321   3.057   2.249  0.0996 -0.0066  0.4497
  318SOL    HW1  953   1.324   3.163   2.251 -0.6700  3.5894 -1.1522
  318SOL    HW2  954   1.363   3.023   2.157 -0.2966 -1.8632 -0.5483
  319SOL     OW  955   0.649   2.452   2.945  0.3157  0.2164  0.2688
  319SOL    HW1  956   0.586   2.404   3.015 -0.7240 -0.7282 -1.4042
  319SOL    HW2  957   0.750   2.448   2.968  1.6530 -2.3080  1.3986
  320SOL     OW  958   1.696   2.201   0.348  0.6078  0.2188  0.9066
  320SOL    HW1  959   1.792   2.169   0.384  0.4806 -1.9440  1.6026
  320SOL    HW2  960   1.615   2.156   0.389 -1.4914 -0.0524  0.5052
  321SOL     OW  961   1.673   2.677   0.488 -0.0047  0.4267 -0.3039
  321SOL    HW1  962   1.606   2.684   0.412  0.1639 -1.5847  2.5297
  321SOL    HW2  963   1.763   2.716   0.461 -0.4432 -0.9135  0.7871
  322SOL     OW  964   2.543   1.130   2.363  0.4479 -0.0698  1.3552
  322SOL    HW1  965   2.641   1.143   2.336 -0.1590  0.3439 -3.3658
  322SOL    HW2  966   2.518   1.031   2.370 -0.5651  0.5470  1.3032
  323SOL     OW  967   1.124   2.640   0.836  1.1045  0.0983  0.3077
  323SOL    HW1  968   1.125   2.599   0.740  0.3811  0.5875  1.5367
  323SOL    HW2  969   1.101   2.743   0.835  1.0461 -0.1355  0.5331
  324SOL     OW  970   0.253   2.539   2.522 -0.2196  0.0468  0.3040
  324SOL    HW1  971   0.224   2.483   2.605  1.0084  0.0478  0.1398
  324SOL    HW2  972   0.200   2.629   2.526  1.2132 -2.1165  2.6337
  325SOL     OW  973   1.240   3.031   0.469  0.3593 -0.1637  0.2203
  325SOL    HW1  974   1.252   3.057   0.368 -0.6997  1.6583  0.9097
  325SOL    HW2  975   1.274   3.111   0.525 -1.3343  0.4612 -1.0621
  326SOL     OW  976   2.435   0.779   3.079 -0.0604 -0.0940  0.4140
  326SOL    HW1  977   2.410   0.729   2.991 -2.1715 -0.6116  1.7432
  326SOL    HW2  978   2.487   0.716   3.143  1.2088 -0.8722 -1.6685
  327SOL     OW  979   2.858   0.356   0.580 -0.0920  0.3243  0.7657
  327SOL    HW1  980   2.801   0.375   0.491 -0.9100  0.2925 -0.3972
  327SOL    HW2  981   2.825   0.279   0.637  1.1601  1.1532  1.7642
  328SOL     OW  982   2.530   0.588   0.387  0.1119 -0.2885  0.2303
  328SOL    HW1  983   2.510   0.692   0.405  2.4573  2.0705 -1.4501
  328SOL    HW2  984   2.514   0.518   0.462  1.6094 -2.2511 -1.7249
  329SOL     OW  985   2.973   2.988   2.133  0.0116 -0.1797  0.4392
  329SOL    HW1  986   3.023   2.927   2.203  0.4441 -1.5132 -0.1626
  329SOL    HW2  987   3.016   3.084   2.128  2.2991 -2.4456 -3.8906
  330SOL     OW  988   0.584   0.146   1.849 -0.3200  0.0474  0.2290
  330SOL    HW1  989   0.686   0.165   1.835 -0.0641 -0.5596  1.0318
  330SOL    HW2  990   0.562   0.088   1.934  3.3288 -0.7942 -0.0096
  331SOL     OW  991   2.960   1.925   1.159 -0.1049  0.4471  0.8274
  331SOL    HW1  992   3.002   2.004   1.109  1.2128  1.2748  3.0362
  331SOL    HW2  993   2.879   1.957   1.215 -0.2054 -1.2245 -0.9184
  332SOL     OW  994   0.451   1.138   0.003 -0.0323 -0.0932  0.1493
  332SOL    HW1  995   0.372   1.091  -0.049 -0.1779  0.9524 -2.7625
  332SOL    HW2  996   0.416   1.170   0.096  0.1720 -0.4325 -0.0597
  333SOL     OW  997   2.882   1.066   0.279  0.5735  0.1594 -0.1490
  333SOL    HW1  998   2.914   1.142   0.344 -2.0334  0.4212 -0.2191
  333SOL    HW2  999   2.958   0.996   0.260  3.7894  0.2947  0.8516
  334SOL     OW 1000   1.699   1.250   1.834  0.2613  0.0513 -0.4402
  334SOL    HW1 1001   1.783   1.200   1.803  0.2263 -0.5486 -0.3718
  334SOL    HW2 1002   1.720   1.311   1.921 -1.5321 -1.4942  2.8067
  335SOL     OW 1003   1.943   2.765   2.608  0.0378  0.2750 -0.0740
  335SOL    HW1 1004   1.870   2.719   2.662  1.8243  0.8205 -0.1522
  335SOL    HW2 1005   2.001   2.826   2.663 -1.0234 -0.1079 -1.0633
  336SOL     OW 1006   0.257   0.094   2.832  0.4108  0.1905 -0.6223
  336SOL    HW1 1007   0.323   0.051   2.892  0.1713  0.1440 -0.3125
  336SOL    HW2 1008   0.240   0.192   2.856 -2.0309  0.4515  1.2720
  337SOL     OW 1009   0.932   2.782   2.814  0.1687 -0.1007 -0.1279
  337SOL    HW1 1010   0.904   2.742   2.906  0.5092 -2.0637  0.8952
  337SOL    HW2 1011   1.030   2.746   2.795  1.5029  1.0697 -0.5531
  338SOL     OW 1012   0.029   1.026   0.656 -0.1989  0.1754 -0.0376
  338SOL    HW1 1013  -0.069   1.002   0.667  2.5990  0.2547 -2.3315
  338SOL    HW2 1014   0.048   1.125   0.675  2.6426 -0.3923 -2.5132
  339SOL     OW 1015   1.713   1.357   2.084 -0.4588 -0.1376 -0.2050
  339SOL    HW1 1016   1.616   1.343   2.119  1.5289  0.9169  1.2244
  339SOL    HW2 1017   1.758   1.449   2.114  0.3725  0.2082  1.4896
  340SOL     OW 1018   2.345   0.706   1.203 -0.3072  0.2683 -0.2834
  340SOL    HW1 1019   2.254   0.740   1.175 -1.6983 -0.1475  0.1615
  340SOL    HW2 1020   2.390   0.646   1.132  0.5557 -0.0190  1.7602
  341SOL     OW 1021   1.958   2.095   0.347 -0.5241 -0.2161  0.2223
  341SOL    HW1 1022   1.965   2.147   0.257 -1.2851 -0.8209  0.6219
  341SOL    HW2 1023   2.050   2.062   0.380 -1.3836 -1.8280  0.8644
  342SOL     OW 1024   2.216   2.089   2.724  0.5294  0.0082 -0.2739
  342SOL    HW1 1025   2.281   2.019   2.758  0.9059  1.0440 -0.4551
  342SOL    HW2 1026   2.114   2.064   2.738 -0.0086 -1.8975 -1.1038
  343SOL     OW 1027   0.414   0.861   2.774 -0.0303  0.3698  0.3574
  343SOL    HW1 1028   0.424   0.886   2.674 -0.7300 -2.1152  1.0508
  343SOL    HW2 1029   0.496   0.814   2.803 -0.6139  4.6369  1.2581
  344SOL     OW 1030   1.957   1.387   0.391  0.0871 -0.0102 -0.6970
  344SOL    HW1 1031   1.944   1.320   0.312  1.5395 -0.4286 -1.6923
  344SOL    HW2 1032   1.875   1.439   0.424 -0.8157 -0.9192  0.2011
  345SOL     OW 1033   1.414   2.283   2.861 -0.0461  0.3109  0.3216
  345SOL    HW1 1034   1.322   2.243   2.832  0.3484  2.2199  1.4511
  345SOL    HW2 1035   1.499   2.228   2.829 -0.8922  0.5373 -0.9958
  346SOL     OW 1036   2.355   0.917   1.397  0.3530  0.0450 -0.2416
  346SOL    HW1 1037   2.309   1.009   1.423  1.6270  0.7338 -1.7678
  346SOL    HW2 1038   2.340   0.883   1.299  1.3605  0.4606 -0.8108
  347SOL     OW 1039   0.721   2.782   1.452  0.4180  0.0539  0.1225
  347SOL    HW1 1040   0.693   2.716   1.526 -0.7918  0.5656  0.0688
  347SOL    HW2 1041   0.679   2.874   1.462 -0.8082 -3.0335 -0.8104
  348SOL     OW 1042   0.159   0.658   2.839  0.4945  0.2364  0.2439
  348SOL    HW1 1043   0.053   0.650   2.820  0.0679 -2.6855 -0.2151
  348SOL    HW2 1044   0.204   0.741   2.806 -3.4005 -3.0498  2.5866
  349SOL     OW 1045   1.829   0.417   2.800  0.4960  0.4107 -0.6516
  349SOL    HW1 1046   1.818   0.498   2.733 -1.9576  1.7333  1.1976
  349SOL    HW2 1047   1.823   0.457   2.896 -0.3534  0.0501 -0.4554
  350SOL     OW 1048   1.557   0.440   0.375  0.7517 -0.6451  0.0539
  350SOL    HW1 1049   1.637   0.439   0.445  1.0479 -1.6418 -1.2658
  350SOL    HW2 1050   1.536   0.531   0.324  2.4026 -0.2228 -0.7583
  351SOL     OW 1051   0.982   0.850   2.118  0.2422  0.2309  0.1196
  351SOL    HW1 1052   0.960   0.949   2.109  0.0490  0.4383  2.6744
  351SOL    HW2 1053   1.016   0.811   2.026  1.3960 -2.1031  1.1547
  352SOL     OW 1054   2.046   1.288   0.665  0.4152  0.1983 -0.5725
  352SOL    HW1 1055   2.034   1.335   0.573 -1.2513  1.3116 -2.6225
  352SOL    HW2 1056   2.148   1.254   0.684  1.8697  0.5168 -0.5935
  353SOL     OW 1057   2.187   2.893   1.076 -0.2120  0.1429 -0.5176
  353SOL    HW1 1058   2.253   2.846   1.137 -2.3090  0.9433  1.7293
  353SOL    HW2 1059   2.098   2.840   1.075 -0.3635 -0.9347 -0.9556
  354SOL     OW 1060   0.237   1.389   2.841  0.4603  0.0057 -0.2719
  354SOL    HW1 1061   0.211   1.475   2.786 -2.3395  0.6472  0.0589
  354SOL    HW2 1062   0.339   1.387   2.876 -0.7241 -0.0782  2.0478
  355SOL     OW 1063   0.498   1.485   0.499  0.0641 -0.3379  0.0947
  355SOL    HW1 1064   0.491   1.583   0.530 -1.3389 -0.6301  1.8883
  355SOL    HW2 1065   0.552   1.426   0.567  0.0624  0.7805  1.1787
  356SOL     OW 1066   0.904   0.258   2.076 -1.0904 -0.1181 -0.1879
  356SOL    HW1 1067   1.005   0.263   2.063 -1.6572 -0.9245 -2.9501
  356SOL    HW2 1068   0.847   0.215   1.998 -1.1694 -1.5442  0.8886
  357SOL     OW 1069   0.987   1.268   0.398 -0.1914 -0.1360 -0.1396
  357SOL    HW1 1070   0.951   1.232   0.308 -2.6749 -2.7165  1.6750
  357SOL    HW2 1071   1.008   1.193   0.466  1.3367 -0.9370 -0.9434
  358SOL     OW 1072   1.707   1.507   0.470 -0.0698  0.1752  0.3674
  358SOL    HW1 1073   1.673   1.483   0.565 -1.6993  0.4008 -0.1910
  358SOL    HW2 1074   1.646   1.478   0.393  0.4084  0.8658 -0.7612
  359SOL     OW 1075   1.590   2.743   0.091  0.3305 -0.1326  0.3619
  359SOL    HW1 1076   1.525   2.673   0.052 -2.8373 -1.8934  2.2954
  359SOL    HW2 1077   1.549   2.838   0.084  1.3213 -2.2696  2.0856
  360SOL     OW 1078   0.877   0.605   0.569  0.5574 -0.4700  0.4154
  360SOL    HW1 1079   0.783   0.629   0.611  0.9968  1.2441 -3.9200
  360SOL    HW2 1080   0.899   0.504   0.575  0.6526  0.7744  1.8163
  361SOL     OW 1081   1.196   1.370   0.714 -0.0715 -0.1905  0.3724
  361SOL    HW1 1082   1.244   1.447   0.755  1.5291 -0.8546  0.5369
  361SOL    HW2 1083   1.091   1.381   0.711 -0.9534 -0.9065  0.7518
  362SOL     OW 1084   1.335   1.848   0.804  0.1257  0.6172  0.2945
  362SOL    HW1 1085   1.368   1.791   0.888  1.2389 -0.4113 -2.1052
  362SOL    HW2 1086   1.416   1.876   0.744  0.4875  1.5901 -0.6973
  363SOL     OW 1087   1.215   1.298   2.018  0.1055  0.2849  0.4439
  363SOL    HW1 1088   1.287   1.323   2.088  0.0313  3.7492 -1.2283
  363SOL    HW2 1089   1.224   1.357   1.930 -1.7039 -1.0426 -2.2644
  364SOL     OW 1090   0.501   2.312   1.951 -0.0236 -0.1862  0.2207
  364SOL    HW1 1091   0.396   2.326   1.948 -2.2480 -1.2970  0.0010
  364SOL    HW2 1092   0.549   2.354   1.867 -1.7715 -0.3665  0.7233
  365SOL     OW 1093   1.016   1.857   1.429 -0.7206  0.0237  0.4504
  365SOL    HW1 1094   0.917   1.891   1.412  0.4466 -0.4179 -1.6581
  365SOL    HW2 1095   1.040   1.776   1.372  1.2342 -0.6615  3.1264
  366SOL     OW 1096   2.760   2.064   0.478 -0.4190  0.1484 -0.1710
  366SOL    HW1 1097   2.667   2.018   0.483 -1.1682 -2.0469  0.6728
  366SOL    HW2 1098   2.827   2.011   0.416 -0.9912 -0.2469  1.7378
  367SOL     OW 1099   0.909   1.134   0.183  0.3302  0.0682  0.0492
  367SOL    HW1 1100   0.951   1.049   0.227  2.3585 -0.5986 -1.1940
  367SOL    HW2 1101   0.978   1.176   0.117 -0.1240 -0.5417 -0.7053
  368SOL     OW 1102   1.482   0.572   0.696 -0.4405  0.0868 -0.2553
  368SOL    HW1 1103   1.441   0.571   0.597 -0.8811 -2.4330 -2.9957
  368SOL    HW2 1104   1.568   0.631   0.698 -0.7049 -1.8222  2.3760
  369SOL     OW 1105   0.203   1.720   0.048 -0.1402 -0.1756 -0.2081
  369SOL    HW1 1106   0.244   1.792   0.113  1.0603 -1.6063  0.2509
  369SOL    HW2 1107   0.117   1.679   0.081 -0.3350  0.4736  0.2761
  370SOL     OW 1108   0.443   2.080   1.040 -0.1318 -0.1717 -0.2133
  370SOL    HW1 1109   0.469   2.174   0.999  0.0217  0.4899  0.9574
  370SOL    HW2 1110   0.359   2.040   0.995 -0.4112 -1.5206 -1.4395
  371SOL     OW 1111   2.876   2.186   2.701  0.5083 -0.2593 -0.5863
  371SOL    HW1 1112   2.835   2.160   2.792 -0.6683  1.6137  2.0964
  371SOL    HW2 1113   2.971   2.220   2.705 -1.0648 -1.9979  0.6972
  372SOL     OW 1114   1.084   1.990   1.104  0.4151  0.1339  0.6081
  372SOL    HW1 1115   1.024   2.045   1.034 -1.1462  0.4943 -3.4813
  372SOL    HW2 1116   1.179   2.030   1.124  1.0923  0.9917  2.0145
  373SOL     OW 1117   1.990   2.033   0.861  0.4396  0.6262 -0.5332
  373SOL    HW1 1118   2.062   2.017   0.933 -1.4744 -0.3174  0.6647
  373SOL    HW2 1119   1.895   2.041   0.898  0.1442  1.2841 -1.5735
  374SOL     OW 1120   1.762   0.474   0.576 -0.0467  0.1670 -0.1495
  374SOL    HW1 1121   1.795   0.412   0.654 -3.0156 -1.4766  1.0811
  374SOL    HW2 1122   1.835   0.490   0.507 -5.3982 -0.4354  3.3026
  375SOL     OW 1123   2.390   2.178   1.114  0.1169  0.1297 -0.3975
  375SOL    HW1 1124   2.463   2.159   1.042 -0.2052 -0.6864  0.8692
  375SOL    HW2 1125   2.428   2.153   1.205  0.0245 -0.0829 -0.1679
  376SOL     OW 1126   3.020   0.590   1.444  0.1422  0.0191  0.5627
  376SOL    HW1 1127   3.041   0.667   1.512 -0.2784 -0.9071  2.4092
  376SOL    HW2 1128   2.919   0.562   1.450 -0.3417  0.6408 -1.9576
  377SOL     OW 1129   2.247   2.868   0.345  0.3297  0.1138  0.3772
  377SOL    HW1 1130   2.261   2.973   0.346  1.2732  0.3405  1.3575
  377SOL    HW2 1131   2.336   2.827   0.379  0.1602  0.3384 -4.7431
  378SOL     OW 1132   1.820   1.797   2.677  0.4580 -0.0876 -0.2361
  378SOL    HW1 1133   1.766   1.770   2.597  2.6342  1.9217  0.9217
  378SOL    HW2 1134   1.879   1.720   2.717  0.8475  2.6252 -2.7698
  379SOL     OW 1135   0.884   0.128   2.742 -0.0808 -0.1372  0.4207
  379SOL    HW1 1136   0.842   0.039   2.714 -1.4850 -2.1995  1.6561
  379SOL    HW2 1137   0.859   0.210   2.679 -2.9881  1.4398  0.9181
  380SOL     OW 1138   1.506   1.182   0.559  0.1114  0.3045  0.3673
  380SOL    HW1 1139   1.410   1.154   0.570  4.6477  0.0090 -0.3382
  380SOL    HW2 1140   1.568   1.096   0.559  0.4863  1.5660 -0.8896
  381SOL     OW 1141   1.337   1.146   1.475  0.1914  0.3807 -0.7237
  381SOL    HW1 1142   1.390   1.214   1.414  0.4562 -0.1792 -2.5639
  381SOL    HW2 1143   1.383   1.133   1.568  1.1361 -0.2376 -2.8463
  382SOL     OW 1144   1.810   0.843   0.202 -0.5005  0.7374 -0.0423
  382SOL    HW1 1145   1.860   0.804   0.118  2.2941 -2.5874 -0.2031
  382SOL    HW2 1146   1.855   0.814   0.294  1.9420  2.2843  0.4700
  383SOL     OW 1147   2.632   1.023   1.494  0.3859  0.6424 -0.1002
  383SOL    HW1 1148   2.576   1.002   1.409 -0.2986  3.2853  2.5155
  383SOL    HW2 1149   2.734   1.001   1.481  2.7766 -0.5575 -1.5532
  384SOL     OW 1150   0.928   2.271   0.129  0.2714  0.1877  0.2961
  384SOL    HW1 1151   0.873   2.353   0.161  0.4957  1.6915  2.0277
  384SOL    HW2 1152   0.879   2.184   0.161  1.9977  0.8624  0.4532
  385SOL     OW 1153   3.000   2.022   1.766 -0.0221  0.3570 -0.2389
  385SOL    HW1 1154   3.060   2.090   1.713  1.1455 -1.7767 -2.9866
  385SOL    HW2 1155   3.020   1.923   1.745  3.4195  2.9936 -0.9895
  386SOL     OW 1156   0.455   1.142   0.464 -0.0065 -0.1159 -0.2135
  386SOL    HW1 1157   0.445   1.042   0.452  2.2335  3.3191 -2.5805
  386SOL    HW2 1158   0.433   1.191   0.373 -0.0205  1.8020 -0.9549
  387SOL     OW 1159   0.999   0.355   1.674  0.0990  0.1530 -0.5166
  387SOL    HW1 1160   1.060   0.442   1.678 -0.6004 -1.1604 -0.6550
  387SOL    HW2 1161   0.962   0.345   1.583  1.6245  0.1041  1.2210
  388SOL     OW 1162   1.220   2.636   1.783 -0.1276  0.4499 -0.2745
  388SOL    HW1 1163   1.236   2.616   1.679 -1.7596  1.1368 -1.8422
  388SOL    HW2 1164   1.280   2.572   1.832 -1.2332 -1.0846 -1.3720
  389SOL     OW 1165   0.198   3.062   1.131  0.2109 -0.5712 -0.2679
  389SOL    HW1 1166   0.112   3.076   1.190 -2.1738 -0.1943  1.0006
  389SOL    HW2 1167   0.217   2.968   1.093 -1.0562  0.5669 -3.0242
  390SOL     OW 1168   1.049   0.931   1.229  0.0463  0.7385  0.6250
  390SOL    HW1 1169   1.132   0.894   1.281 -0.1699 -1.1740 -0.2177
  390SOL    HW2 1170   0.984   0.973   1.295 -0.3788 -0.9369  1.4019
  391SOL     OW 1171   2.034   1.168   1.003  0.5513  0.1669 -0.4996
  391SOL    HW1 1172   1.959   1.109   1.053 -0.0270 -2.8395 -0.4515
  391SOL    HW2 1173   2.094   1.100   0.961 -0.8624  1.1019  1.9429
  392SOL     OW 1174   0.914   2.647   3.053 -0.5398 -0.1521  0.9070
  392SOL    HW1 1175   0.868   2.596   3.123 -0.2287  0.5858 -0.6128
  392SOL    HW2 1176   0.983   2.713   3.089 -1.7161  1.2113  0.9730
  393SOL     OW 1177   0.422   0.491   2.092  0.5862  0.1576 -0.5669
  393SOL    HW1 1178   0.346   0.434   2.051  1.3164 -2.4053  0.6416
  393SOL    HW2 1179   0.499   0.484   2.022  2.1673 -0.3754  0.7576
  394SOL     OW 1180   2.974   1.812   2.773  0.4674 -0.6937 -0.6444
  394SOL    HW1 1181   3.069   1.831   2.815  0.6671  2.3206  1.7061
  394SOL    HW2 1182   2.955   1.857   2.683  0.5233 -0.5062  1.8373
  395SOL     OW 1183   1.574   1.913   0.680 -0.6716  0.7004  0.0069
  395SOL    HW1 1184   1.644   1.854   0.625 -0.2523 -0.3890  1.4051
  395SOL    HW2 1185   1.624   1.974   0.748  4.0447 -2.4506 -1.4577
  396SOL     OW 1186   2.768   1.992   1.344  0.2333 -0.6585  0.0376
  396SOL    HW1 1187   2.788   2.011   1.445  1.0281 -0.1865  0.2536
  396SOL    HW2 1188   2.669   1.982   1.327  2.7292 -0.8394 -1.0808
  397SOL     OW 1189   1.025   2.100   0.630  0.3551  0.2222 -0.0707
  397SOL    HW1 1190   0.947   2.074   0.566 -2.5116 -2.0425  0.5232
  397SOL    HW2 1191   1.000   2.159   0.708 -0.7135 -2.1001 -2.4788
  398SOL     OW 1192   2.247   0.058   1.025 -0.3975 -0.6145 -0.7830
  398SOL    HW1 1193   2.229  -0.043   1.048  0.6610  2.7585 -0.6239
  398SOL    HW2 1194   2.162   0.114   1.048 -2.4344 -0.6447 -0.5478
  399SOL     OW 1195   2.858   2.575   2.743 -0.1728 -0.2991  0.6192
  399SOL    HW1 1196   2.832   2.533   2.657 -0.2394  1.1055  0.8519
  399SOL    HW2 1197   2.851   2.506   2.822 -1.1313 -2.1157  0.5501
  400SOL     OW 1198   0.764   1.594   1.265 -0.4897 -0.3277  0.0740
  400SOL    HW1 1199   0.727   1.630   1.357 -0.8118  0.4679  1.0885
  400SOL    HW2 1200   0.779   1.677   1.203 -1.0282 -1.0492  2.0888
  401SOL     OW 1201   1.839   0.165   1.295  0.3869  0.2683  0.2731
  401SOL    HW1 1202   1.899   0.209   1.367 -0.3555  1.6226 -1.6933
  401SOL    HW2 1203   1.739   0.197   1.309  0.7953 -1.9245  1.4908
  402SOL     OW 1204   1.339   0.163   3.074 -0.1718 -0.4391  0.0144
  402SOL    HW1 1205   1.437   0.160   3.049  0.3457 -0.3806  2.6308
  402SOL    HW2 1206   1.311   0.260   3.102  0.5977  0.9593  3.4975
  403SOL     OW 1207   2.300   1.848   0.915 -0.0521  0.1191  0.2016
  403SOL    HW1 1208   2.403   1.843   0.945  2.1255  1.0677 -2.0856
  403SOL    HW2 1209   2.250   1.926   0.960 -0.4342 -0.6449 -1.6969
  404SOL     OW 1210   0.186   2.494   2.863  0.4776 -0.4187  0.1580
  404SOL    HW1 1211   0.281   2.449   2.831  1.1537 -0.5987  1.2855
  404SOL    HW2 1212   0.194   2.598   2.882  2.3230 -0.0345  1.0235
  405SOL     OW 1213   0.246   2.511   0.575 -0.4705 -0.1427  0.8905
  405SOL    HW1 1214   0.187   2.514   0.487  1.0046  0.5387 -1.1291
  405SOL    HW2 1215   0.306   2.596   0.584  0.3028  2.1851 -2.6489
  406SOL     OW 1216   0.023   1.499   3.014  0.6213 -0.3934 -0.1326
  406SOL    HW1 1217   0.121   1.473   2.992  1.4636  1.5738  1.4815
  406SOL    HW2 1218  -0.003   1.495   3.112  0.3567  1.0858  3.1192
  407SOL     OW 1219   1.539   0.924   0.894  0.4793 -0.0616 -0.0712
  407SOL    HW1 1220   1.592   0.960   0.810 -1.0757  1.2718  0.1771
  407SOL    HW2 1221   1.492   0.998   0.947  0.7980  0.5456 -2.2886
  408SOL     OW 1222   1.587   2.408   0.997  0.1261 -0.3661  0.5559
  408SOL    HW1 1223   1.649   2.393   0.918  1.3334  0.8367 -1.7872
  408SOL    HW2 1224   1.592   2.501   1.044 -0.2213 -3.9877 -0.6751
  409SOL     OW 1225   0.561   0.823   0.765 -0.6515 -0.3073  0.1116
  409SOL    HW1 1226   0.515   0.851   0.676 -2.9210 -0.0264 -0.5964
  409SOL    HW2 1227   0.596   0.726   0.762 -0.8720  2.4640 -0.0791
  410SOL     OW 1228   1.251   2.001   1.440  0.2129  0.3380 -0.8407
  410SOL    HW1 1229   1.295   2.016   1.532 -1.9408 -2.4497 -0.8684
  410SOL    HW2 1230   1.154   1.953   1.436 -2.9639 -2.2745  1.6200
  411SOL     OW 1231   2.430   1.787   3.059  0.3169  0.7785  0.0100
  411SOL    HW1 1232   2.407   1.881   3.022  0.7747 -0.9764  0.9431
  411SOL    HW2 1233   2.532   1.763   3.045 -0.8810 -0.3662 -0.8579
  412SOL     OW 1234   1.459   2.472   2.220  0.0377  0.3135  0.2105
  412SOL    HW1 1235   1.502   2.552   2.276 -0.3584  0.6013 -0.9179
  412SOL    HW2 1236   1.374   2.437   2.268  0.4483 -1.5846 -3.3355
  413SOL     OW 1237   3.086   0.284   2.957  0.3574 -0.1291 -0.0831
  413SOL    HW1 1238   3.047   0.188   2.972 -1.0756  1.0250 -0.8580
  413SOL    HW2 1239   3.179   0.287   3.001  2.7174 -0.0555 -2.1536
  414SOL     OW 1240   1.784   1.447   1.392 -0.0368  0.7774  0.0526
  414SOL    HW1 1241   1.721   1.500   1.455  1.1865  1.3289 -1.2501
  414SOL    HW2 1242   1.741   1.422   1.298  1.1056  0.3283 -1.6036
  415SOL     OW 1243   0.362   2.286   0.618 -0.9979  0.2582  0.3615
  415SOL    HW1 1244   0.315   2.380   0.624  0.8964  2.1435 -0.1028
  415SOL    HW2 1245   0.294   2.212   0.588  0.9913  0.0979 -0.5665
  416SOL     OW 1246   0.363   1.050   1.050 -0.7303 -0.3777  0.2436
  416SOL    HW1 1247   0.349   1.002   0.959 -1.1478 -1.0683  3.6824
  416SOL    HW2 1248   0.463   1.087   1.052  0.8209 -0.9472  1.3453
  417SOL     OW 1249   2.114   2.367   1.890 -0.0173  0.2779 -0.0927
  417SOL    HW1 1250   2.148   2.268   1.895 -1.3444  0.8567 -0.4716
  417SOL    HW2 1251   2.044   2.384   1.964  0.8757 -1.4285 -2.7078
  418SOL     OW 1252   1.108   0.499   1.270 -0.3757 -0.2246 -0.3360
  418SOL    HW1 1253   1.011   0.505   1.242  0.8652 -0.1413 -1.9039
  418SOL    HW2 1254   1.168   0.422   1.225  0.4262  2.6275 -1.2287
  419SOL     OW 1255   1.053   0.341   3.038 -0.1620 -0.8843 -0.0785
  419SOL    HW1 1256   1.044   0.384   2.943  0.8788  2.2991 -0.3112
  419SOL    HW2 1257   0.999   0.253   3.046  0.2370 -3.8483  0.7407
  420SOL     OW 1258   0.203   2.256   0.342  0.0111  0.0100  0.4099
  420SOL    HW1 1259   0.159   2.180   0.287 -0.4185  1.7434 -0.5208
  420SOL    HW2 1260   0.147   2.273   0.427  0.1630 -0.8812  1.7372
  421SOL     OW 1261   0.314   3.093   0.698  0.0814  0.1838 -0.4394
  421SOL    HW1 1262   0.270   3.001   0.693  0.6730 -0.5496  1.2333
  421SOL    HW2 1263   0.413   3.091   0.698 -1.8022 -2.4085 -0.0736
  422SOL     OW 1264   0.977   2.516   1.034  0.4628  0.3852 -0.2268
  422SOL    HW1 1265   1.028   2.568   0.961  2.4894  1.3588  0.2174
  422SOL    HW2 1266   0.976   2.548   1.134 -1.9734 -0.6276  0.5639
  423SOL     OW 1267   0.050   0.660   1.220  0.4158  0.5282  0.2259
  423SOL    HW1 1268  -0.018   0.627   1.293 -0.1353 -1.0294  3.0608
  423SOL    HW2 1269   0.055   0.761   1.203 -2.0456 -1.5505  1.7912
  424SOL     OW 1270   0.983   2.221   2.069  0.2387  0.1201  0.1103
  424SOL    HW1 1271   0.988   2.324   2.045  0.7692 -0.5782  0.0055
  424SOL    HW2 1272   0.955   2.200   2.165 -0.2237  0.8540 -1.0800
  425SOL     OW 1273   1.968   1.448   1.007 -0.4257 -0.0658  0.1093
  425SOL    HW1 1274   2.010   1.351   1.000  2.0475  1.6338  0.3563
  425SOL    HW2 1275   2.039   1.519   0.973  1.9816 -1.1865 -1.4481
  426SOL     OW 1276   1.513   1.562   1.438 -0.1538 -0.1690  0.0895
  426SOL    HW1 1277   1.468   1.634   1.380  4.8315 -0.5757 -2.0575
  426SOL    HW2 1278   1.482   1.567   1.538  1.8345  1.6450 -0.0109
  427SOL     OW 1279   1.939   2.405   2.082  0.3420 -0.5386 -0.2432
  427SOL    HW1 1280   1.971   2.360   2.172  1.9603 -0.8019  1.9857
  427SOL    HW2 1281   1.908   2.507   2.098 -0.7164  1.4271 -0.2587
  428SOL     OW 1282   0.860   2.930   0.140  0.2231 -0.3925 -0.2346
  428SOL    HW1 1283   0.900   3.025   0.167 -1.8819 -1.2607  0.9885
  428SOL    HW2 1284   0.933   2.859   0.121 -1.1639 -0.1077  2.8531
  429SOL     OW 1285   1.292   0.065   0.233  0.0273 -0.1687 -0.1001
  429SOL    HW1 1286   1.349   0.119   0.298  1.5006 -0.0863  0.9554
  429SOL    HW2 1287   1.300   0.103   0.137  0.4001 -0.7608  1.4806
  430SOL     OW 1288   2.769   1.541   0.349 -1.3054 -0.2134  0.7670
  430SOL    HW1 1289   2.788   1.587   0.257 -0.5030 -1.8321 -2.1252
  430SOL    HW2 1290   2.783   1.603   0.432  1.9622  0.7208 -1.7782
  431SOL     OW 1291   2.125   1.632   0.889 -0.0395  0.0843  0.0919
  431SOL    HW1 1292   2.209   1.693   0.884 -1.2547  1.3074 -0.1328
  431SOL    HW2 1293   2.042   1.693   0.877  0.7127  0.5208 -1.6533
  432SOL     OW 1294   2.915   2.256   1.248 -0.2026  0.7866  0.5631
  432SOL    HW1 1295   2.887   2.163   1.243  0.3451  1.2703 -1.8984
  432SOL    HW2 1296   2.923   2.302   1.339  0.3268  0.0842 -1.3384
  433SOL     OW 1297   1.869   0.376   0.805 -0.2832  0.6615  0.2372
  433SOL    HW1 1298   1.814   0.371   0.890  0.0310 -2.1174 -0.6441
  433SOL    HW2 1299   1.914   0.286   0.780 -0.9768  1.1327  1.2613
  434SOL     OW 1300   1.547   0.275   0.744 -0.3004 -0.4076 -0.5483
  434SOL    HW1 1301   1.531   0.360   0.696  2.8700 -2.9406 -0.5337
  434SOL    HW2 1302   1.578   0.293   0.845  0.2895 -0.4298  0.4187
  435SOL     OW 1303   1.447   1.386   2.150  0.0561  0.5950 -0.1353
  435SOL    HW1 1304   1.382   1.404   2.235  0.9291 -0.8827  0.8162
  435SOL    HW2 1305   1.462   1.470   2.093 -0.3962 -1.6763 -1.8258
  436SOL     OW 1306   1.614   2.669   2.411  0.1622  0.5220 -0.6072
  436SOL    HW1 1307   1.608   2.765   2.453  0.3381  1.5518  1.3852
  436SOL    HW2 1308   1.706   2.621   2.437 -0.5207 -1.1552  3.7398
  437SOL     OW 1309   1.089   2.901   0.874  0.3129 -0.2062 -0.8138
  437SOL    HW1 1310   1.032   2.980   0.837  0.4134  0.8238  0.9381
  437SOL    HW2 1311   1.075   2.873   0.975  3.5670 -2.8695  1.2942
  438SOL     OW 1312   1.032   2.605   1.299 -0.2250  0.4196  0.5513
  438SOL    HW1 1313   1.094   2.652   1.371  2.3175 -0.1900  0.6203
  438SOL    HW2 1314   0.998   2.513   1.341 -0.4229 -3.0086  3.6004
  439SOL     OW 1315   0.744   1.779   1.066 -0.6042 -0.3417  0.5080
  439SOL    HW1 1316   0.762   1.878   1.046  2.3326 -0.6746  0.9152
  439SOL    HW2 1317   0.645   1.759   1.070 -0.6764  1.8640  1.2942
  440SOL     OW 1318   1.032   2.467   1.970 -0.2414 -0.4504 -0.0754
  440SOL    HW1 1319   0.981   2.529   1.901 -1.0920 -1.0485  0.5463
  440SOL    HW2 1320   1.134   2.479   1.965 -0.4584  1.8445 -0.6127
  441SOL     OW 1321   0.424   2.787   1.375  0.7012  0.4769  0.0309
  441SOL    HW1 1322   0.464   2.693   1.349 -1.9305 -0.0890  0.8588
  441SOL    HW2 1323   0.373   2.838   1.307 -1.7738 -1.4869  1.1621
  442SOL     OW 1324   2.263   0.671   2.608  0.6981 -0.3088  0.2972
  442SOL    HW1 1325   2.251   0.570   2.589  2.4398 -0.1999  1.0867
  442SOL    HW2 1326   2.171   0.724   2.617 -1.3970  0.9348  2.0453
  443SOL     OW 1327   1.228   2.673   2.202 -0.4418  0.6468  0.3483
  443SOL    HW1 1328   1.200   2.574   2.201  1.1410 -0.6179 -0.9846
  443SOL    HW2 1329   1.201   2.725   2.294  0.0107  0.0618  0.9264
  444SOL     OW 1330   1.065   1.235   1.504  0.6135  0.4280 -0.1915
  444SOL    HW1 1331   1.154   1.215   1.464  0.3116 -0.9970  1.6001
  444SOL    HW2 1332   1.048   1.333   1.530  0.1306  0.6566  1.6633
  445SOL     OW 1333   3.071   2.408   1.894 -0.2181  0.2006 -0.3840
  445SOL    HW1 1334   3.012   2.434   1.814 -1.3864  2.4955 -1.2222
  445SOL    HW2 1335   3.016   2.355   1.963  1.1791 -0.3950 -2.7864
  446SOL     OW 1336   0.195   1.913   2.389  0.0574 -0.3446  0.3325
  446SOL    HW1 1337   0.139   1.993   2.398  0.9303 -3.7745  3.0013
  446SOL    HW2 1338   0.166   1.856   2.306 -1.9800 -0.2471 -1.5609
  447SOL     OW 1339   1.243   1.661   1.932 -0.1466 -0.2810  0.3253
  447SOL    HW1 1340   1.151   1.706   1.947  2.3861  1.6399  0.4188
  447SOL    HW2 1341   1.320   1.723   1.965 -1.0263  0.3852 -1.9567
  448SOL     OW 1342   0.118   1.399   2.030 -0.6246  0.2394  0.1657
  448SOL    HW1 1343   0.150   1.488   1.993  0.3232  0.0221 -1.4536
  448SOL    HW2 1344   0.069   1.408   2.122 -0.0456  0.0147 -1.3572
  449SOL     OW 1345   1.757   2.971   0.877 -0.6461 -0.3538  0.5358
  449SOL    HW1 1346   1.753   2.972   0.978  0.2792 -1.5370  0.1910
  449SOL    HW2 1347   1.828   2.901   0.842  0.0072 -0.9490 -0.2701
  450SOL     OW 1348   2.296   1.478   0.744 -0.1073  0.2676 -0.1402
  450SOL    HW1 1349   2.229   1.498   0.823 -0.9028 -0.3462  1.3409
  450SOL    HW2 1350   2.266   1.506   0.649  1.8018 -0.1347  2.9811
  451SOL     OW 1351   1.386   3.074   1.472 -1.1536  0.5179 -0.3286
  451SOL    HW1 1352   1.294   3.119   1.499  2.8570  1.0620  0.5398
  451SOL    HW2 1353   1.408   3.006   1.548  0.2934  0.8697  1.1129
  452SOL     OW 1354   2.670   2.295   2.242 -0.2358 -0.0188  0.3109
  452SOL    HW1 1355   2.630   2.390   2.268  1.8933  1.2436  1.5097
  452SOL    HW2 1356   2.707   2.248   2.323 -0.9968  0.5021  0.5345
  453SOL     OW 1357   2.455   2.654   3.092 -0.1557  0.4818 -0.1438
  453SOL    HW1 1358   2.363   2.701   3.096  1.7368 -0.4404 -0.7349
  453SOL    HW2 1359   2.479   2.602   3.004  1.9782 -3.4257  0.1165
  454SOL     OW 1360   0.952   1.116   2.066 -0.1430  0.5792 -0.0407
  454SOL    HW1 1361   0.929   1.086   1.970 -1.1766  1.5849  0.7379
  454SOL    HW2 1362   1.011   1.199   2.060 -2.3003 -0.4062 -2.6654
  455SOL     OW 1363   0.649   2.693   2.786 -0.1766 -0.3148  0.3244
  455SOL    HW1 1364   0.731   2.742   2.761  0.1242  0.5159  0.5769
  455SOL    HW2 1365   0.655   2.614   2.852  0.1276 -1.6928 -0.2823
  456SOL     OW 1366   0.386   1.898   0.221 -0.0881 -0.1442 -0.0134
  456SOL    HW1 1367   0.474   1.849   0.251 -1.5482 -1.5981 -2.7399
  456SOL    HW2 1368   0.409   1.991   0.182 -2.7253 -0.7702  0.6531
  457SOL     OW 1369   0.394   2.728   0.598 -0.3341 -0.6245  0.2945
  457SOL    HW1 1370   0.403   2.781   0.509 -0.0547  1.3395  0.0172
  457SOL    HW2 1371   0.478   2.730   0.662  1.7591 -1.9800  2.7959
  458SOL     OW 1372   2.826   0.038   1.150  0.8466  0.3713  0.1694
  458SOL    HW1 1373   2.893   0.118   1.150  0.0400 -0.0242  0.3259
  458SOL    HW2 1374   2.861  -0.047   1.108 -0.9325  0.7541 -1.0606
  459SOL     OW 1375   2.150   2.601   0.790 -0.4670  0.6617 -0.1072
  459SOL    HW1 1376   2.228   2.662   0.819 -3.0403 -1.0258  0.1054
  459SOL    HW2 1377   2.180   2.509   0.760 -0.5166  2.3485 -1.2623
  460SOL     OW 1378   1.189   2.122   2.793  0.0647  0.7014  0.4885
  460SOL    HW1 1379   1.231   2.136   2.700  0.7750 -1.7472  2.9608
  460SOL    HW2 1380   1.214   2.030   2.833  0.2102  0.5473 -1.8603
  461SOL     OW 1381   0.504   2.159   2.685  0.2485  0.2051 -0.4328
  461SOL    HW1 1382   0.456   2.091   2.620  0.4004 -2.1646 -1.0205
  461SOL    HW2 1383   0.528   2.108   2.774 -2.0048 -0.8432 -1.5691
  462SOL     OW 1384   0.991   1.089   1.788 -0.7077  0.1323  0.8206
  462SOL    HW1 1385   1.048   1.084   1.701 -3.3961  0.5834 -1.3297
  462SOL    HW2 1386   0.906   1.143   1.765 -0.0141  0.5555  1.5160
  463SOL     OW 1387   0.462   0.862   0.494 -0.3960  0.0749  0.3067
  463SOL    HW1 1388   0.503   0.769   0.469  1.1537 -1.5436  1.3760
  463SOL    HW2 1389   0.361   0.857   0.504  1.9295  0.9542  0.6392
  464SOL     OW 1390   0.568   2.303   2.224 -0.0202 -0.5736  0.0477
  464SOL    HW1 1391   0.517   2.368   2.286  4.1171 -0.4882 -0.5231
  464SOL    HW2 1392   0.553   2.320   2.125 -0.1887 -2.2711  1.9051
  465SOL     OW 1393   0.242   0.924   0.815 -0.8477 -0.0080 -0.2426
  465SOL    HW1 1394   0.162   0.938   0.754  2.5643  0.7386  0.7675
  465SOL    HW2 1395   0.272   0.828   0.816 -0.8974  0.5024 -1.9016
  466SOL     OW 1396   1.404   1.144   1.033 -0.2979 -0.2822 -0.5867
  466SOL    HW1 1397   1.424   1.243   1.017 -0.8037 -1.6325 -2.4002
  466SOL    HW2 1398   1.303   1.134   1.048 -0.1465  2.6923  0.3280
  467SOL     OW 1399   0.623   0.425   2.455  0.2446  0.4174  0.0018
  467SOL    HW1 1400   0.560   0.504   2.433 -0.8021 -1.3300 -1.9245
  467SOL    HW2 1401   0.601   0.381   2.542 -0.2193 -0.0106 -0.7549
  468SOL     OW 1402   0.430   2.253   1.638  0.2931  0.1733 -0.2318
  468SOL    HW1 1403   0.511   2.312   1.657 -1.7064 -0.7613  3.3812
  468SOL    HW2 1404   0.425   2.215   1.542  1.4326 -0.7653  1.1485
  469SOL     OW 1405   1.475   1.343   1.287  0.5580  0.6258 -0.5028
  469SOL    HW1 1406   1.560   1.327   1.234 -3.4868 -0.4216 -1.1319
  469SOL    HW2 1407   1.481   1.423   1.360  0.0957 -1.2037  2.6638
  470SOL     OW 1408   3.008   1.885   0.733 -0.0234  0.0414  0.3917
  470SOL    HW1 1409   3.081   1.925   0.675  0.3044  1.2056 -1.1096
  470SOL    HW2 1410   3.043   1.843   0.824  1.6794 -0.4593  2.0475
  471SOL     OW 1411   2.584   1.344   2.163  0.0790  0.0737 -0.0253
  471SOL    HW1 1412   2.530   1.315   2.248 -0.4225 -0.0999  0.9496
  471SOL    HW2 1413   2.671   1.400   2.186 -2.0437  0.4269 -1.6115
  472SOL     OW 1414   1.171   2.383   0.027 -0.0435  0.1917  0.3940
  472SOL    HW1 1415   1.233   2.355   0.105 -1.1147 -2.8628 -1.9656
  472SOL    HW2 1416   1.071   2.358   0.048 -0.8977 -0.0907 -2.5318
  473SOL     OW 1417   1.050   1.475   1.064  0.1277  0.3948  0.1721
  473SOL    HW1 1418   0.981   1.511   0.998  2.3555 -0.9682  0.1930
  473SOL    HW2 1419   1.052   1.370   1.066  2.3065  0.6148 -0.2519
  474SOL     OW 1420   0.644   1.292   0.606 -0.3779 -0.0818 -0.2479
  474SOL    HW1 1421   0.564   1.245   0.561  2.6422  0.6995 -1.0746
  474SOL    HW2 1422   0.721   1.222   0.620 -1.0368  0.2306  0.7207
  475SOL     OW 1423   2.826   0.028   0.841 -0.1809 -0.4260 -0.2381
  475SOL    HW1 1424   2.879   0.117   0.842 -2.3128 -0.8464  0.9424
  475SOL    HW2 1425   2.739   0.037   0.901  0.9724  2.6695 -1.1429
  476SOL     OW 1426   0.994   2.981   1.766 -0.4907  0.6524  0.1286
  476SOL    HW1 1427   1.094   3.001   1.780 -1.3579 -0.4170  0.5790
  476SOL    HW2 1428   0.970   2.969   1.668  0.2850  1.1640 -0.3230
  477SOL     OW 1429   1.474   0.321   2.423  0.0970  0.0801 -0.0702
  477SOL    HW1 1430   1.454   0.358   2.515  0.1741 -0.3077 -1.8815
  477SOL    HW2 1431   1.549   0.247   2.421 -0.1044  0.1820  0.4576
  478SOL     OW 1432   2.218   1.830   0.205 -0.0010 -0.4432 -0.3765
  478SOL    HW1 1433   2.147   1.767   0.256  0.3255  0.6949  0.4098
  478SOL    HW2 1434   2.280   1.768   0.154  1.0180 -1.6859 -1.3809
  479SOL     OW 1435   1.252   0.961   2.854  0.0857  0.1131 -0.8837
  479SOL    HW1 1436   1.320   0.971   2.776  0.1614  2.3995 -3.5368
  479SOL    HW2 1437   1.190   0.877   2.841 -1.0560  0.1277 -1.3898
  480SOL     OW 1438   2.626   2.357   0.381  0.2556  0.4599 -0.1978
  480SOL    HW1 1439   2.614   2.263   0.427 -1.2123 -1.8598 -1.4660
  480SOL    HW2 1440   2.534   2.399   0.351 -1.1582 -0.0895 -0.9745
  481SOL     OW 1441   0.926   1.181   0.866 -0.0236  0.3492  0.1252
  481SOL    HW1 1442   0.934   1.271   0.808  0.6626  2.0621 -0.0190
  481SOL    HW2 1443   0.997   1.171   0.942 -2.0300 -0.8241  1.6508
  482SOL     OW 1444   1.567   0.295   1.988  0.5518 -0.2473  0.3372
  482SOL    HW1 1445   1.546   0.399   1.966  2.0380  0.7978 -2.4356
  482SOL    HW2 1446   1.648   0.277   2.044 -1.2333 -3.1751 -2.0989
  483SOL     OW 1447   0.151   2.279   1.212  0.1482 -0.3321  0.0588
  483SOL    HW1 1448   0.058   2.315   1.233 -0.7452  0.1457  0.2629
  483SOL    HW2 1449   0.196   2.335   1.140 -2.5206  1.6489  0.3096
  484SOL     OW 1450   1.761   1.130   1.362 -0.3575 -0.0076  0.0354
  484SOL    HW1 1451   1.817   1.055   1.407 -0.4076 -0.0200  0.6078
  484SOL    HW2 1452   1.776   1.224   1.409  1.8762 -1.2700  0.5160
  485SOL     OW 1453   0.743   0.837   1.763 -0.0380  0.7027 -0.5598
  485SOL    HW1 1454   0.711   0.888   1.681  1.4014 -0.6309  0.8141
  485SOL    HW2 1455   0.844   0.825   1.759  1.0952  0.5375  1.0446
  486SOL     OW 1456   0.818   1.845   2.486 -0.3203 -0.2873  0.3619
  486SOL    HW1 1457   0.868   1.847   2.574 -0.7086  2.1283 -2.2856
  486SOL    HW2 1458   0.756   1.928   2.465  2.2327  0.9898 -1.2981
  487SOL     OW 1459   1.757   1.632   0.946 -0.4401  0.8256  0.4959
  487SOL    HW1 1460   1.814   1.550   0.976 -0.9825  3.4744 -1.1714
  487SOL    HW2 1461   1.796   1.685   0.866 -0.1208  1.7485 -1.2277
  488SOL     OW 1462   2.937   0.876   2.260 -0.1533 -0.3390 -0.9895
  488SOL    HW1 1463   2.961   0.775   2.247  2.5206 -0.3808  1.4450
  488SOL    HW2 1464   2.940   0.900   2.360 -0.7665  1.0179 -1.6026
  489SOL     OW 1465   2.851   0.344   1.273 -0.2464 -0.2384  0.2501
  489SOL    HW1 1466   2.861   0.340   1.377  1.1602 -2.0248 -0.6627
  489SOL    HW2 1467   2.937   0.312   1.223 -0.8995 -0.9144  0.0621
  490SOL     OW 1468   1.415   2.955   2.822  0.1419 -0.2893  0.0417
  490SOL    HW1 1469   1.429   2.852   2.827 -0.3117  0.1972 -3.0386
  490SOL    HW2 1470   1.390   2.995   2.728 -1.7742 -0.3512 -1.2977
  491SOL     OW 1471   1.684   1.521   2.645 -0.5756 -0.1453  0.1149
  491SOL    HW1 1472   1.624   1.471   2.717  0.0878 -0.1816 -3.7369
  491SOL    HW2 1473   1.786   1.534   2.679 -1.3805 -1.4674  1.0800
  492SOL     OW 1474   0.547   2.090   0.609  0.5146 -0.8754  0.6689
  492SOL    HW1 1475   0.593   2.063   0.696 -0.0108  1.4055 -1.9508
  492SOL    HW2 1476   0.490   2.176   0.621 -0.9795  1.9951 -0.3180
  493SOL     OW 1477   0.438   1.395   2.073 -0.1187 -0.1138 -0.5094
  493SOL    HW1 1478   0.351   1.439   2.035  1.7044  0.2196  0.7213
  493SOL    HW2 1479   0.427   1.293   2.083 -0.6423  0.1021 -0.2265
  494SOL     OW 1480   2.715   2.645   0.077  0.1400  0.7317 -0.6051
  494SOL    HW1 1481   2.724   2.607   0.171 -2.3569  1.0207 -1.6669
  494SOL    HW2 1482   2.614   2.645   0.051  0.1858  2.5923 -0.0750
  495SOL     OW 1483   2.574   2.734   2.645  0.6782 -0.0975 -0.1256
  495SOL    HW1 1484   2.552   2.636   2.613 -2.8408 -2.9196 -1.1476
  495SOL    HW2 1485   2.654   2.778   2.588  1.9794  1.5559  1.2622
  496SOL     OW 1486   2.053   2.273   0.760  0.2893  0.0826 -0.3236
  496SOL    HW1 1487   2.039   2.311   0.858  0.7447 -0.3862  1.9483
  496SOL    HW2 1488   2.055   2.171   0.761  0.0372  0.9103  0.6650
  497SOL     OW 1489   0.194   2.997   2.358 -0.2895 -0.0696 -0.9677
  497SOL    HW1 1490   0.167   3.061   2.438 -0.5423  0.4924  1.3550
  497SOL    HW2 1491   0.237   3.046   2.277 -0.3776  1.0603  0.9869
  498SOL     OW 1492   1.214   1.331   1.254 -0.0338 -0.0073 -0.4524
  498SOL    HW1 1493   1.321   1.334   1.242  1.9126 -0.9692 -1.9127
  498SOL    HW2 1494   1.181   1.420   1.298 -1.6795  0.3908  1.3874
  499SOL     OW 1495   0.620   1.776   0.304  0.0098 -0.3157  0.8706
  499SOL    HW1 1496   0.642   1.690   0.252 -0.3732 -2.2351 -2.4613
  499SOL    HW2 1497   0.699   1.830   0.331 -1.3449 -1.5630  0.9629
  500SOL     OW 1498   1.385   2.878   1.673 -0.5197 -0.0388 -0.0080
  500SOL    HW1 1499   1.311   2.839   1.728  1.9259  3.7346 -0.6912
  500SOL    HW2 1500   1.446   2.804   1.630 -0.0343  2.8901 -4.9187
  501SOL     OW 1501   0.793   1.138   2.285 -0.0114 -0.7011 -0.7688
  501SOL    HW1 1502   0.717   1.066   2.288  1.6426  4.3552 -1.6117
  501SOL    HW2 1503   0.836   1.145   2.195  1.5246  0.5346 -0.5429
  502SOL     OW 1504   2.569   0.932   1.742  0.4059  0.1002 -0.5087
  502SOL    HW1 1505   2.582   0.954   1.640 -0.1582 -1.7211 -2.0901
  502SOL    HW2 1506   2.559   0.830   1.767  1.1967 -2.0839 -0.1501
  503SOL     OW 1507   1.339   0.158   0.599  0.5167 -0.4904  0.1554
  503SOL    HW1 1508   1.286   0.247   0.614  0.8604  1.9308  0.2949
  503SOL    HW2 1509   1.437   0.163   0.630  1.8788 -1.6484  2.3435
  504SOL     OW 1510   2.989   2.342   1.489 -0.2597 -0.2870 -0.4480
  504SOL    HW1 1511   2.948   2.415   1.549  0.3654 -1.6029 -0.8756
  504SOL    HW2 1512   3.069   2.296   1.537  1.8408  1.3907 -0.1018
  505SOL     OW 1513   2.271   1.183   1.417  0.0635  0.2771 -0.0504
  505SOL    HW1 1514   2.258   1.213   1.319  0.2062  0.9970 -1.9164
  505SOL    HW2 1515   2.356   1.235   1.458  3.9857  2.1279 -2.2505
  506SOL     OW 1516   1.946   0.202   1.825  0.2638 -0.0544  0.1678
  506SOL    HW1 1517   2.024   0.146   1.866 -1.2320 -1.1005  0.5357
  506SOL    HW2 1518   1.958   0.301   1.858  0.0028  1.1157  0.4555
  507SOL     OW 1519   0.598   0.695   2.146 -0.4069 -0.2607 -0.1831
  507SOL    HW1 1520   0.518   0.649   2.098  2.3674  1.2005 -1.8790
  507SOL    HW2 1521   0.686   0.630   2.149 -0.4801 -1.7508 -1.5488
  508SOL     OW 1522   0.313   1.665   0.748  0.2207  0.2810 -0.4781
  508SOL    HW1 1523   0.382   1.727   0.700 -0.6561  2.5615 -1.7890
  508SOL    HW2 1524   0.284   1.706   0.837  0.8999  2.3016 -0.3546
  509SOL     OW 1525   1.281   1.182   2.420  0.4674 -0.0668 -0.0762
  509SOL    HW1 1526   1.320   1.155   2.329  0.0147  1.8911 -4.4393
  509SOL    HW2 1527   1.183   1.149   2.443  2.2485  0.9609  0.7680
  510SOL     OW 1528   1.270   2.120   2.215  0.2177  0.0082  0.2952
  510SOL    HW1 1529   1.289   2.117   2.111 -1.9966 -2.2276  0.4620
  510SOL    HW2 1530   1.212   2.035   2.246  0.4668  2.9202 -1.7720
  511SOL     OW 1531   3.007   2.687   1.275  0.2015 -0.6202  0.1596
  511SOL    HW1 1532   2.955   2.670   1.186  1.6842  0.3080  0.9847
  511SOL    HW2 1533   2.935   2.686   1.355 -1.1053  0.7773  3.4843
  512SOL     OW 1534   2.432   0.435   1.371  0.0049 -0.0451 -0.0552
  512SOL    HW1 1535   2.331   0.427   1.353 -2.0473  0.9569  0.8609
  512SOL    HW2 1536   2.486   0.379   1.299  2.2664 -0.0993 -0.2731
  513SOL     OW 1537   2.609   2.110   0.929 -0.4069 -0.3171 -0.1939
  513SOL    HW1 1538   2.575   2.185   0.864  0.9300 -0.2682 -0.8163
  513SOL    HW2 1539   2.700   2.071   0.895 -3.2709 -0.4758  1.7414
  514SOL     OW 1540   0.669   2.770   0.439  0.1385  0.2204  0.3720
  514SOL    HW1 1541   0.699   2.841   0.374 -1.0347 -0.7788  2.3458
  514SOL    HW2 1542   0.720   2.776   0.529  1.2540  1.5360  0.0338
  515SOL     OW 1543   1.915   1.324   2.399  0.3023 -0.3354 -0.0225
  515SOL    HW1 1544   1.940   1.293   2.303  0.0348 -0.9974 -1.0624
  515SOL    HW2 1545   1.815   1.303   2.430 -0.3971  1.9572 -1.2132
  516SOL     OW 1546   0.288   0.290   1.878  0.0390 -0.1844  0.1914
  516SOL    HW1 1547   0.386   0.271   1.880 -2.2343 -0.7535  0.0346
  516SOL    HW2 1548   0.240   0.254   1.791 -0.6076 -0.3253 -2.6213
  517SOL     OW 1549   0.487   0.126   1.122 -0.0040 -0.0264 -0.2978
  517SOL    HW1 1550   0.490   0.184   1.213  0.7852  0.7332  2.0517
  517SOL    HW2 1551   0.463   0.029   1.152 -1.9510 -2.8114 -0.9753
  518SOL     OW 1552   2.156   0.001   1.828  0.1178 -0.3744  0.2124
  518SOL    HW1 1553   2.223   0.079   1.844  2.7480  0.5797  1.9254
  518SOL    HW2 1554   2.173  -0.036   1.735 -4.5322 -2.1314  1.2866
  519SOL     OW 1555   2.318   2.112   2.470  0.7891 -0.6416  0.2077
  519SOL    HW1 1556   2.269   2.102   2.562 -1.7484  0.7884  0.0854
  519SOL    HW2 1557   2.318   2.211   2.438 -1.4434  3.3032  0.2152
  520SOL     OW 1558   1.832   2.687   1.736 -0.1860 -0.1790  0.1403
  520SOL    HW1 1559   1.771   2.626   1.796  1.7663  3.0532 -1.5684
  520SOL    HW2 1560   1.911   2.637   1.688  0.3316  1.1942 -1.5496
  521SOL     OW 1561   0.558   3.079   2.059 -0.0515 -0.1756 -0.3278
  521SOL    HW1 1562   0.454   3.085   2.058  0.3569 -0.5549  2.2506
  521SOL    HW2 1563   0.596   3.060   2.152  0.2039  0.3810  1.3855
  522SOL     OW 1564   0.168   1.835   1.571 -0.3442 -0.2538  0.3352
  522SOL    HW1 1565   0.231   1.895   1.635  0.1685 -1.5442  1.0670
  522SOL    HW2 1566   0.136   1.882   1.484  0.4742 -2.2412  1.0020
  523SOL     OW 1567   2.175   2.959   1.582  0.1636  0.7170  0.2284
  523SOL    HW1 1568   2.247   2.887   1.564 -0.5298  0.5163  2.0945
  523SOL    HW2 1569   2.083   2.912   1.556  2.1312 -3.6022 -0.7810
  524SOL     OW 1570   0.200   2.778   2.838  0.1268 -0.0662 -0.1808
  524SOL    HW1 1571   0.146   2.872   2.848  0.6045  1.4515 -1.0442
  524SOL    HW2 1572   0.298   2.793   2.812 -0.2199 -0.6060  0.8874
  525SOL     OW 1573   2.209   2.031   0.393  0.8454  0.0593 -0.0899
  525SOL    HW1 1574   2.207   2.002   0.491 -0.9632 -2.6199 -1.7090
  525SOL    HW2 1575   2.267   1.962   0.335  0.0801 -1.5465  2.0882
  526SOL     OW 1576   0.458   1.493   1.756  0.6494 -0.7643 -0.2598
  526SOL    HW1 1577   0.534   1.537   1.805 -0.3719 -0.5102 -0.4737
  526SOL    HW2 1578   0.466   1.393   1.780 -3.4979  2.0446  0.9006
  527SOL     OW 1579   1.098   2.889   1.152 -0.2573  0.1180 -0.3396
  527SOL    HW1 1580   1.148   2.826   1.213 -0.8234 -2.9749 -0.7008
  527SOL    HW2 1581   1.130   2.988   1.148 -1.1116 -0.6425 -2.1763
  528SOL     OW 1582   1.363   2.344   0.534 -0.3624 -0.2421 -0.2625
  528SOL    HW1 1583   1.403   2.251   0.545 -2.1424  2.4181 -1.5980
  528SOL    HW2 1584   1.416   2.421   0.588  0.9568  2.2314 -1.0719
  529SOL     OW 1585   1.921   1.780   0.755 -0.0237 -0.3511 -0.8104
  529SOL    HW1 1586   1.866   1.785   0.666 -1.5738  0.2455  0.6425
  529SOL    HW2 1587   1.925   1.874   0.801  0.7249  0.8158  0.4120
  530SOL     OW 1588   0.395   2.554   0.171  0.6221  1.0066 -0.3556
  530SOL    HW1 1589   0.365   2.596   0.263  0.1809  0.5089  0.0594
  530SOL    HW2 1590   0.420   2.457   0.185  0.6901  0.8574  0.9901
  531SOL     OW 1591   1.866   0.979   1.098  0.3298  0.7052 -0.3483
  531SOL    HW1 1592   1.861   0.918   1.012  1.9210 -1.4068 -2.1219
  531SOL    HW2 1593   1.784   0.966   1.164 -0.5435 -0.7437  0.0484
  532SOL     OW 1594   0.347   1.173   0.725  0.6790 -0.2134 -0.4056
  532SOL    HW1 1595   0.413   1.151   0.645  0.3353 -1.4283 -0.2078
  532SOL    HW2 1596   0.297   1.092   0.768  0.5820  1.6388  2.6122
  533SOL     OW 1597   1.751   0.004   2.582 -0.7894  0.2386 -0.1014
  533SOL    HW1 1598   1.850  -0.014   2.593  0.7138 -0.5415  0.9668
  533SOL    HW2 1599   1.711   0.082   2.634  0.2408 -1.7088  0.9032
  534SOL     OW 1600   0.260   0.211   1.482  0.6270  0.0180 -0.1370
  534SOL    HW1 1601   0.344   0.236   1.423  0.3070 -2.7351  0.2923
  534SOL    HW2 1602   0.213   0.301   1.517  1.1241  0.8561  0.1286
  535SOL     OW 1603   1.871   0.358   0.220  0.9331  0.5649  0.6503
  535SOL    HW1 1604   1.899   0.417   0.294 -1.0132 -2.1524 -2.1143
  535SOL    HW2 1605   1.810   0.285   0.249  0.7498  2.7647  1.1004
  536SOL     OW 1606   1.370   2.605   0.927 -0.3020 -0.1346 -0.3014
  536SOL    HW1 1607   1.396   2.511   0.958  1.3365  3.8833  2.1440
  536SOL    HW2 1608   1.273   2.617   0.891 -1.5481 -1.6783  0.4182
  537SOL     OW 1609   0.866   0.213   2.335 -0.2188 -0.3479  0.1478
  537SOL    HW1 1610   0.889   0.218   2.230 -2.4168  1.4129 -0.8978
  537SOL    HW2 1611   0.764   0.212   2.355 -1.5019  1.2247 -0.6034
  538SOL     OW 1612   1.663   2.319   1.496  0.3484 -0.4459  0.4543
  538SOL    HW1 1613   1.650   2.225   1.458 -1.0556  1.5421 -0.4760
  538SOL    HW2 1614   1.753   2.353   1.458 -1.1537  0.1704  0.7771
  539SOL     OW 1615   0.213   1.621   2.680  0.6413  0.6440  0.3463
  539SOL    HW1 1616   0.124   1.584   2.629 -1.1030  2.5626 -0.9006
  539SOL    HW2 1617   0.226   1.722   2.665 -0.6693  0.0314 -1.3236
  540SOL     OW 1618   2.749   1.679   1.962 -0.1337  0.6502  0.2548
  540SOL    HW1 1619   2.674   1.609   1.965 -0.7055  3.1238  0.9291
  540SOL    HW2 1620   2.707   1.774   1.967 -0.4283 -1.8394  0.0734
  541SOL     OW 1621   0.473   2.331   0.000  0.2664  0.5410 -0.9847
  541SOL    HW1 1622   0.501   2.257   0.066  2.3867  3.5620 -1.6953
  541SOL    HW2 1623   0.371   2.308  -0.032 -1.9606  0.7598 -1.1120
  542SOL     OW 1624   2.240   2.580   0.441  0.2881  0.4688 -0.2593
  542SOL    HW1 1625   2.210   2.672   0.403  0.7190 -1.2954 -1.4482
  542SOL    HW2 1626   2.161   2.530   0.487 -2.3668  1.4331 -0.2833
  543SOL     OW 1627   0.997   1.739   1.700 -0.0317 -0.1728 -0.4085
  543SOL    HW1 1628   0.982   1.785   1.792 -0.4369 -1.4859 -1.7306
  543SOL    HW2 1629   0.934   1.776   1.626 -1.4698  0.8398 -0.3708
  544SOL     OW 1630   0.954   0.372   0.210  0.3953 -0.4493 -0.1481
  544SOL    HW1 1631   0.941   0.272   0.228  3.7303 -0.2225  0.7399
  544SOL    HW2 1632   0.944   0.396   0.113 -1.2872 -0.3580  1.0864
  545SOL     OW 1633   1.109   1.704   0.682  0.0901 -0.1242  0.6743
  545SOL    HW1 1634   1.187   1.765   0.722 -1.1132  2.3637  1.0030
  545SOL    HW2 1635   1.112   1.687   0.579 -0.9036  1.0847  0.1197
  546SOL     OW 1636   2.599   1.563   3.030  0.0623 -0.2736  0.2371
  546SOL    HW1 1637   2.533   1.596   2.953  1.4157  0.8927  0.4106
  546SOL    HW2 1638   2.556   1.505   3.098  1.0186 -1.7111  1.6935
  547SOL     OW 1639   0.560   0.036   2.735  0.4860  0.2813 -0.6697
  547SOL    HW1 1640   0.634  -0.011   2.681  0.6053 -0.7964 -2.5526
  547SOL    HW2 1641   0.481  -0.028   2.772 -3.0208  2.0574  3.5838
  548SOL     OW 1642   2.034   0.823   3.065 -0.2131  0.2663  0.0667
  548SOL    HW1 1643   1.947   0.783   3.024  0.4816  0.1477 -1.5794
  548SOL    HW2 1644   2.036   0.927   3.056  1.7511  3.0828  0.3683
  549SOL     OW 1645   0.690   0.581   0.192  0.3777  0.4945  0.0014
  549SOL    HW1 1646   0.633   0.651   0.135 -2.2181  0.2266 -0.7190
  549SOL    HW2 1647   0.779   0.622   0.222 -1.3200 -0.0112  1.0974
  550SOL     OW 1648   2.495   2.852   2.870 -0.1111 -0.6578  0.4632
  550SOL    HW1 1649   2.510   2.808   2.961 -1.9261  1.9621 -0.9779
  550SOL    HW2 1650   2.516   2.797   2.781 -3.3599 -0.0016 -0.7542
  551SOL     OW 1651   0.293   0.890   0.217  0.0710 -0.0823 -0.2040
  551SOL    HW1 1652   0.393   0.894   0.193 -0.0329 -0.8755 -2.8576
  551SOL    HW2 1653   0.280   0.899   0.321  0.0077 -3.3001 -0.3947
  552SOL     OW 1654   0.752   2.915   1.870 -0.8274  0.0140  0.0230
  552SOL    HW1 1655   0.703   2.954   1.954  1.9972 -4.2365  0.2821
  552SOL    HW2 1656   0.832   2.979   1.840  1.9502 -1.2355 -1.1499
  553SOL     OW 1657   0.041   2.510   0.388 -0.5262 -0.1592  0.4541
  553SOL    HW1 1658  -0.013   2.420   0.397  0.9548 -0.6303  0.2392
  553SOL    HW2 1659  -0.027   2.589   0.397 -0.1146  1.6415 -0.5763
  554SOL     OW 1660   2.195   0.337   0.579 -0.2853  0.2536 -0.0243
  554SOL    HW1 1661   2.234   0.319   0.488 -1.8592 -1.1631 -0.5197
  554SOL    HW2 1662   2.206   0.256   0.642 -0.2555  1.6940  0.2099
  555SOL     OW 1663   0.423   2.901   2.500  0.2846 -0.2037  0.2316
  555SOL    HW1 1664   0.336   2.929   2.457  2.1209  1.4820 -1.0894
  555SOL    HW2 1665   0.476   2.849   2.428  1.9015  0.5996  0.5092
  556SOL     OW 1666   0.875   2.396   1.611 -0.9929  0.1754 -0.4720
  556SOL    HW1 1667   0.909   2.475   1.668 -1.0861 -0.6891  2.4710
  556SOL    HW2 1668   0.934   2.384   1.525  1.5718  1.3651  0.3832
  557SOL     OW 1669   0.101   2.085   0.148  0.2147 -0.1302  0.2408
  557SOL    HW1 1670   0.047   2.016   0.090 -1.6562 -2.3284  2.6614
  557SOL    HW2 1671   0.143   2.155   0.088  0.0811 -0.3723 -0.4313
  558SOL     OW 1672   2.942   2.322   0.324  0.0664  0.4512 -0.4373
  558SOL    HW1 1673   2.844   2.327   0.357  0.5765  2.0774  0.1124
  558SOL    HW2 1674   2.952   2.308   0.221  1.9343  2.1373 -1.2229
  559SOL     OW 1675   0.390   2.301   1.341 -0.3598 -0.2495 -0.1004
  559SOL    HW1 1676   0.294   2.286   1.304  1.6731  1.1837  0.7527
  559SOL    HW2 1677   0.453   2.220   1.321  1.8459 -0.7833 -1.2626
  560SOL     OW 1678   2.085   1.107   3.065 -0.4091 -0.1360  0.4972
  560SOL    HW1 1679   2.026   1.138   3.146 -1.6773  0.1975 -0.8863
  560SOL    HW2 1680   2.185   1.128   3.071  0.0694  2.0345 -0.3884
  561SOL     OW 1681   3.003   1.904   0.037 -0.4043 -0.4867  0.1930
  561SOL    HW1 1682   2.949   1.817   0.049 -0.3942 -2.6356  0.7667
  561SOL    HW2 1683   2.941   1.971  -0.011  1.7715 -0.0160  0.9823
  562SOL     OW 1684   0.952   2.191   2.345 -0.1597  0.5888 -0.7976
  562SOL    HW1 1685   0.853   2.171   2.372  2.8852  0.7730 -2.0642
  562SOL    HW2 1686   1.010   2.206   2.428  1.5480  1.0319  1.8196
  563SOL     OW 1687   0.702   2.468   2.581  0.2320  0.2987 -0.2854
  563SOL    HW1 1688   0.754   2.393   2.632  3.8381  0.2545  0.7631
  563SOL    HW2 1689   0.678   2.549   2.648 -0.6134  2.4004 -1.9782
  564SOL     OW 1690   2.754   1.306   2.912 -0.1620 -0.4310 -0.5837
  564SOL    HW1 1691   2.660   1.312   2.954 -0.8298 -1.6439  2.5019
  564SOL    HW2 1692   2.801   1.396   2.890 -2.0875  0.4367  0.7491
  565SOL     OW 1693   2.547   1.987   2.574 -0.1406  0.2240 -0.1560
  565SOL    HW1 1694   2.463   2.041   2.543 -0.1225  1.6573  0.1850
  565SOL    HW2 1695   2.600   2.033   2.652 -0.5918 -0.1928  0.7022
  566SOL     OW 1696   1.995   2.860   1.387 -0.5792 -0.4034  0.7717
  566SOL    HW1 1697   1.934   2.785   1.351  0.8453  3.5213  0.2519
  566SOL    HW2 1698   2.085   2.858   1.341 -1.3010 -2.1803  0.1394
  567SOL     OW 1699   2.492   0.099   2.281 -0.2329 -0.5377 -0.6173
  567SOL    HW1 1700   2.439   0.178   2.317  4.5853 -0.2012  0.5773
  567SOL    HW2 1701   2.461   0.068   2.183 -1.1092 -0.8995 -2.1195
  568SOL     OW 1702   1.529   1.770   0.233  0.1760 -0.4798 -0.3636
  568SOL    HW1 1703   1.478   1.862   0.212  2.0716  0.1264 -1.6751
  568SOL    HW2 1704   1.613   1.782   0.290 -0.0371  1.5677 -0.8160
  569SOL     OW 1705   0.283   0.630   0.866 -0.0738  0.1218  0.4064
  569SOL    HW1 1706   0.339   0.566   0.806  1.3500 -1.0863 -1.2271
  569SOL    HW2 1707   0.187   0.591   0.878 -3.7823  1.4002  0.5945
  570SOL     OW 1708   0.677   0.742   2.836 -0.4488  0.0341  0.0940
  570SOL    HW1 1709   0.724   0.761   2.742  1.9164 -1.1483  0.2022
  570SOL    HW2 1710   0.670   0.832   2.890 -1.3672  0.9506  1.2483
  571SOL     OW 1711   0.832   3.049   1.090 -0.5205  0.5063 -0.4626
  571SOL    HW1 1712   0.892   3.072   1.009 -0.7761 -3.2975  1.0288
  571SOL    HW2 1713   0.847   2.956   1.131 -0.6421  0.2862  0.7833
  572SOL     OW 1714   1.601   2.620   1.186  0.3053 -0.0129  0.7065
  572SOL    HW1 1715   1.513   2.591   1.227 -0.0807 -0.6799  0.4267
  572SOL    HW2 1716   1.593   2.711   1.145 -0.1008 -2.2894 -1.0139
  573SOL     OW 1717   2.915   0.439   2.036  0.6803 -0.0394 -0.4975
  573SOL    HW1 1718   2.875   0.347   2.044  0.0528  2.2647  0.3571
  573SOL    HW2 1719   2.845   0.508   1.999  1.2354  0.6421  0.3142
  574SOL     OW 1720   0.207   1.759   0.976 -0.2760  0.0452  0.1868
  574SOL    HW1 1721   0.190   1.854   0.939 -3.4828 -1.7182 -0.8087
  574SOL    HW2 1722   0.151   1.737   1.061 -0.1152 -4.1722  0.7301
  575SOL     OW 1723   0.885   2.128   0.996  0.5121 -0.3535  0.4864
  575SOL    HW1 1724   0.846   2.165   1.083  2.3407 -1.1133  0.3627
  575SOL    HW2 1725   0.917   2.199   0.928  0.7974 -2.3242  0.1982
  576SOL     OW 1726   2.936   2.944   1.660 -0.2186  0.6454 -0.3664
  576SOL    HW1 1727   2.833   2.926   1.643  0.3276 -2.6004 -1.3922
  576SOL    HW2 1728   2.954   3.047   1.658  2.2618  0.0582 -0.5331
  577SOL     OW 1729   2.541   1.218   3.075 -0.0878 -0.2354  0.2700
  577SOL    HW1 1730   2.556   1.125   3.031 -0.8466 -0.0920 -0.8420
  577SOL    HW2 1731   2.590   1.231   3.171  1.0682  1.4063  1.9060
  578SOL     OW 1732   1.340   2.687   2.582  0.0397  0.4608 -0.6165
  578SOL    HW1 1733   1.267   2.740   2.534 -3.4675 -0.8574  2.2451
  578SOL    HW2 1734   1.435   2.698   2.545 -1.0154  2.4365 -0.1676
  579SOL     OW 1735   0.109   2.498   0.104 -0.7374 -0.5861 -0.5392
  579SOL    HW1 1736   0.081   2.503   0.207  0.3031 -0.1397  0.3336
  579SOL    HW2 1737   0.212   2.499   0.100 -2.3235  3.2965  0.3235
  580SOL     OW 1738   1.028   2.615   0.392 -0.1214  0.4951  0.0915
  580SOL    HW1 1739   1.111   2.642   0.338 -1.8275  0.5588  0.4841
  580SOL    HW2 1740   0.960   2.563   0.330 -0.3379  0.1801 -2.0318
  581SOL     OW 1741   1.249   2.587   1.525  0.3878 -0.1008 -0.0038
  581SOL    HW1 1742   1.295   2.494   1.518  2.4521  0.7781  1.1862
  581SOL    HW2 1743   1.307   2.655   1.469  1.8044 -0.0292  0.7210
  582SOL     OW 1744   1.509   0.096   1.817  0.0765 -0.0109  0.3502
  582SOL    HW1 1745   1.523   0.176   1.881 -0.7300 -0.0176  1.7790
  582SOL    HW2 1746   1.593   0.067   1.756  1.4553 -1.4526 -1.1328
  583SOL     OW 1747   2.505   2.987   0.522  0.5820  0.2541 -0.6138
  583SOL    HW1 1748   2.525   2.904   0.463 -0.1589  2.9719 -1.8054
  583SOL    HW2 1749   2.441   2.976   0.610 -1.8900  0.5992  1.1754
  584SOL     OW 1750   1.613   0.978   2.091 -0.0883 -0.2112  0.0939
  584SOL    HW1 1751   1.655   1.069   2.080 -0.3485 -2.4700 -3.1162
  584SOL    HW2 1752   1.671   0.913   2.153  0.0464  0.3544 -0.2232
  585SOL     OW 1753   2.088   2.686   2.954 -0.3539 -0.2308 -0.0353
  585SOL    HW1 1754   2.148   2.608   2.916  1.8896  0.9952  0.7677
  585SOL    HW2 1755   1.997   2.698   2.913  0.9706  1.9619 -0.0623
  586SOL     OW 1756   2.730   0.237   1.560  0.3816 -0.0248  0.4492
  586SOL    HW1 1757   2.730   0.330   1.605 -1.3619 -0.2472 -0.2317
  586SOL    HW2 1758   2.643   0.183   1.583  1.9154  3.3130 -0.6708
  587SOL     OW 1759   1.934   1.554   2.743 -0.5076 -0.6237  0.2632
  587SOL    HW1 1760   1.979   1.482   2.680 -0.8438  0.5576  0.8825
  587SOL    HW2 1761   1.987   1.560   2.834  1.0476  0.5928  0.4137
  588SOL     OW 1762   0.480   2.752   2.258  0.3046  0.1734  0.2292
  588SOL    HW1 1763   0.394   2.769   2.203  3.4412  2.6966  1.0986
  588SOL    HW2 1764   0.476   2.655   2.298 -2.4411  0.7719  0.2151
  589SOL     OW 1765   2.105   1.444   2.566  0.1133 -0.4597  0.0201
  589SOL    HW1 1766   2.027   1.395   2.511  0.5593 -0.2630 -1.6050
  589SOL    HW2 1767   2.188   1.385   2.574  0.6234  1.5880  1.5935
  590SOL     OW 1768   2.324   1.657   2.047  0.1328 -0.7123 -0.5682
  590SOL    HW1 1769   2.408   1.608   2.008  1.3935  0.1060  1.9300
  590SOL    HW2 1770   2.344   1.693   2.141 -2.1586 -1.0630 -0.6091
  591SOL     OW 1771   1.336   2.394   0.260 -0.4398 -0.3521  0.2586
  591SOL    HW1 1772   1.436   2.406   0.236 -0.8324 -0.8926  0.1476
  591SOL    HW2 1773   1.319   2.369   0.360 -2.3867 -0.5057 -0.3313
  592SOL     OW 1774   1.755   2.334   0.776 -0.1451 -0.4476 -0.7038
  592SOL    HW1 1775   1.724   2.381   0.690  0.3649 -1.2844  1.6332
  592SOL    HW2 1776   1.855   2.300   0.770  0.8258 -2.9803  0.3891
  593SOL     OW 1777   0.655   0.283   0.114  0.7410  0.4470  0.0910
  593SOL    HW1 1778   0.738   0.240   0.074 -2.0133  1.1372  1.2204
  593SOL    HW2 1779   0.647   0.387   0.110 -3.0251  0.8741 -1.6922
  594SOL     OW 1780   0.965   1.822   2.713  0.2435 -0.4521 -0.0261
  594SOL    HW1 1781   1.065   1.836   2.729 -1.7425 -0.2192 -0.8780
  594SOL    HW2 1782   0.907   1.902   2.750 -0.5285 -0.2821 -0.6312
  595SOL     OW 1783   1.508   0.062   1.017  0.2806  0.4740 -0.2049
  595SOL    HW1 1784   1.607   0.026   1.012  0.5393 -2.2306  2.6241
  595SOL    HW2 1785   1.440   0.010   0.958  2.2286 -0.1136  0.4751
  596SOL     OW 1786   3.072   1.486   2.236 -0.4110 -0.0944  0.1160
  596SOL    HW1 1787   2.970   1.478   2.241  3.3311  0.5704 -0.7273
  596SOL    HW2 1788   3.102   1.550   2.313  0.8006 -0.1808  2.2345
  597SOL     OW 1789   2.048   2.587   1.617 -0.3538 -0.5367 -0.4853
  597SOL    HW1 1790   2.044   2.516   1.538  0.1239 -2.5543 -2.2508
  597SOL    HW2 1791   2.139   2.581   1.665  3.0288  1.3852 -1.7887
  598SOL     OW 1792   2.460   2.957   1.333  0.2960  0.2562  0.0723
  598SOL    HW1 1793   2.555   2.986   1.364  2.1220 -0.4239 -0.7425
  598SOL    HW2 1794   2.460   2.914   1.238  0.1507  0.7169 -2.9536
  599SOL     OW 1795   2.927   0.426   2.490  0.2151  0.0660  0.2638
  599SOL    HW1 1796   2.977   0.515   2.462 -0.8027 -0.6019 -0.0037
  599SOL    HW2 1797   2.837   0.412   2.445 -0.5638 -0.4724  2.9001
  600SOL     OW 1798   2.804   1.116   2.716 -0.2453  0.5316 -0.1449
  600SOL    HW1 1799   2.731   1.135   2.650  0.9036  0.0884  1.1705
  600SOL    HW2 1800   2.794   1.176   2.797 -1.5959 -1.1159  0.5897
  601SOL     OW 1801   2.988   1.251   1.929 -0.3251 -0.3659 -0.6290
  601SOL    HW1 1802   2.917   1.307   1.873  0.9893  3.6008 -1.3142
  601SOL    HW2 1803   3.071   1.306   1.949 -1.0709  0.2656  0.4175
  602SOL     OW 1804   1.413   1.697   2.368  0.2875  0.1441 -0.2275
  602SOL    HW1 1805   1.371   1.603   2.352 -0.8380 -1.0423 -1.4761
  602SOL    HW2 1806   1.521   1.689   2.381  0.0246  0.8912  0.8821
  603SOL     OW 1807   0.625   1.238   2.735  0.3826 -0.2959 -0.4630
  603SOL    HW1 1808   0.547   1.254   2.669 -1.8750 -2.5293  0.1453
  603SOL    HW2 1809   0.694   1.165   2.703  1.2838 -0.5731 -0.3223
  604SOL     OW 1810   2.421   1.011   0.158  0.1433  0.3866  0.0089
  604SOL    HW1 1811   2.461   1.099   0.112  3.0266 -0.9616 -0.6805
  604SOL    HW2 1812   2.419   0.921   0.103 -2.2292 -1.1963  0.1330
  605SOL     OW 1813   2.608   1.165   1.900 -0.9869 -0.2546 -0.5176
  605SOL    HW1 1814   2.594   1.061   1.881  1.3400  1.5227 -1.8199
  605SOL    HW2 1815   2.644   1.186   1.997 -1.2606  1.4286  0.8014
  606SOL     OW 1816   1.527   2.481   2.663 -0.8294  0.0421  0.4372
  606SOL    HW1 1817   1.449   2.533   2.629 -1.0291 -1.3861  0.3475
  606SOL    HW2 1818   1.523   2.376   2.646  1.5385 -0.4772  1.2978
  607SOL     OW 1819   1.394   1.643   0.432  0.0128  0.1663  0.4672
  607SOL    HW1 1820   1.336   1.715   0.485 -1.7628  1.0937  0.8465
  607SOL    HW2 1821   1.451   1.681   0.353 -2.3591 -1.3536  0.0903
  608SOL     OW 1822   1.452   2.833   0.388 -0.0246  0.5337  0.1454
  608SOL    HW1 1823   1.533   2.895   0.380 -0.7639  1.0317 -1.0074
  608SOL    HW2 1824   1.374   2.879   0.438 -0.8560  0.3133 -1.6671
  609SOL     OW 1825   1.317   1.405   0.265 -0.0125 -0.1086  0.0435
  609SOL    HW1 1826   1.339   1.482   0.332  0.5887  2.2648  2.1570
  609SOL    HW2 1827   1.273   1.439   0.174  0.9940 -0.7298 -1.7327
  610SOL     OW 1828   3.015   1.146   2.205 -0.2008  0.1569  0.5707
  610SOL    HW1 1829   3.011   1.040   2.206  0.7305 -2.2319 -0.6722
  610SOL    HW2 1830   2.971   1.191   2.122 -0.4220 -0.4502  1.0153
  611SOL     OW 1831   2.604   0.299   1.143  0.4912  0.1202 -0.4006
  611SOL    HW1 1832   2.550   0.219   1.183 -2.3976  1.2706 -1.1873
  611SOL    HW2 1833   2.692   0.309   1.197 -0.5643 -0.3964  0.0392
  612SOL     OW 1834   0.764   2.219   1.243 -0.1329 -0.2396 -0.3227
  612SOL    HW1 1835   0.681   2.167   1.282  1.7177  1.3925  1.6764
  612SOL    HW2 1836   0.732   2.312   1.212  0.2620 -0.6089  1.1000
  613SOL     OW 1837   0.826   1.435   2.414 -0.2432  0.1278 -0.3241
  613SOL    HW1 1838   0.856   1.453   2.316 -0.2188 -0.0622  0.2581
  613SOL    HW2 1839   0.723   1.419   2.418 -0.3553  1.8140 -0.6972
  614SOL     OW 1840   1.618   1.649   1.938 -0.2477  0.1499  0.1306
  614SOL    HW1 1841   1.542   1.703   1.982 -1.4493 -0.8950  1.4025
  614SOL    HW2 1842   1.701   1.634   2.002  1.0401 -0.6740 -0.3154
  615SOL     OW 1843   0.801   1.300   1.694  0.1375  0.2257  0.1657
  615SOL    HW1 1844   0.728   1.252   1.643  0.0025 -1.4470  1.4721
  615SOL    HW2 1845   0.857   1.367   1.645 -0.9115 -1.2375  3.4864
  616SOL     OW 1846   1.053   1.616   2.345 -0.1703  0.5188 -0.1834
  616SOL    HW1 1847   0.993   1.583   2.272  2.0695  0.4212  0.0485
  616SOL    HW2 1848   1.074   1.714   2.344 -1.5049 -0.5007  1.0993
  617SOL     OW 1849   2.938   1.538   1.601  0.5181  0.3821 -0.1014
  617SOL    HW1 1850   2.885   1.456   1.631  3.4074 -0.2235 -0.8957
  617SOL    HW2 1851   2.972   1.531   1.502 -0.2576 -1.0630 -2.9505
  618SOL     OW 1852   1.951   2.029   1.325 -0.3362 -0.8242  0.6551
  618SOL    HW1 1853   1.948   2.091   1.240  0.5026 -1.1985  0.0461
  618SOL    HW2 1854   1.917   1.930   1.310 -0.4600  1.0125  1.8483
  619SOL     OW 1855   1.760   0.457   2.350  0.0341 -0.5904 -0.4737
  619SOL    HW1 1856   1.676   0.508   2.310 -0.0497  1.6309 -2.4737
  619SOL    HW2 1857   1.751   0.357   2.381  0.0158 -1.9374  0.1647
  620SOL     OW 1858   2.342   2.962   0.714 -0.5150  0.0222 -0.4910
  620SOL    HW1 1859   2.271   3.029   0.736  2.9610 -2.0435 -1.1496
  620SOL    HW2 1860   2.340   2.875   0.769 -1.4735 -0.8426  0.2196
  621SOL     OW 1861   2.133   1.781   1.307  0.1934 -0.0689  0.4247
  621SOL    HW1 1862   2.132   1.800   1.408  0.0866  0.4190  0.7927
  621SOL    HW2 1863   2.074   1.692   1.284  2.5978 -3.5848 -0.2966
  622SOL     OW 1864   2.258   0.882   1.774  0.0439 -0.1253  0.0538
  622SOL    HW1 1865   2.354   0.895   1.734 -0.2943  0.3185  0.3599
  622SOL    HW2 1866   2.261   0.818   1.853 -2.3736  0.5826  1.0331
  623SOL     OW 1867   1.324   0.798   2.581 -0.4740  0.2320  0.4624
  623SOL    HW1 1868   1.294   0.711   2.627  3.6551  1.7304  1.9584
  623SOL    HW2 1869   1.261   0.828   2.504  0.5280  1.7130  0.4298
  624SOL     OW 1870   0.519   0.717   3.087  0.0041  0.1295 -0.4263
  624SOL    HW1 1871   0.573   0.697   3.000  1.1828 -0.8772  0.0752
  624SOL    HW2 1872   0.569   0.770   3.159 -5.4427 -1.4065 -0.5073
  625SOL     OW 1873   2.816   1.730   1.022 -0.0208 -0.7611  0.0800
  625SOL    HW1 1874   2.719   1.766   1.005 -0.9740 -0.4782 -0.9667
  625SOL    HW2 1875   2.877   1.800   1.075 -0.7734 -1.8342  1.6062
  626SOL     OW 1876   0.593   2.700   1.727 -0.0612  0.7748  0.5639
  626SOL    HW1 1877   0.642   2.774   1.777 -1.4556  1.5568 -2.5307
  626SOL    HW2 1878   0.489   2.709   1.722  1.2421  0.2133  1.0755
  627SOL     OW 1879   0.686   0.956   1.531  0.5707  0.4381 -0.2732
  627SOL    HW1 1880   0.659   0.902   1.450  0.3545  0.4112 -0.4730
  627SOL    HW2 1881   0.771   1.012   1.509 -0.9489  1.2674  1.9362
  628SOL     OW 1882   2.497   0.125   0.666 -0.7376 -0.3117  0.3237
  628SOL    HW1 1883   2.534   0.042   0.613  3.1525  0.0514 -2.0140
  628SOL    HW2 1884   2.396   0.124   0.670  1.4800 -1.4557  2.2601
  629SOL     OW 1885   1.987   0.907   2.023  0.1826  0.1671 -0.6562
  629SOL    HW1 1886   2.012   0.956   1.935  3.3606 -1.1642 -0.6526
  629SOL    HW2 1887   1.966   0.971   2.101  1.1436 -1.0560 -1.7811
  630SOL     OW 1888   2.951   2.304   0.807 -0.3880  0.0114 -0.0364
  630SOL    HW1 1889   2.875   2.360   0.853  0.9041 -0.7499 -1.2931
  630SOL    HW2 1890   2.924   2.205   0.786 -2.8762 -0.0022  2.0949
  631SOL     OW 1891   3.058   0.194   2.148 -0.2155  0.2012 -0.4018
  631SOL    HW1 1892   3.110   0.192   2.238 -1.0922 -1.2554  2.2467
  631SOL    HW2 1893   3.077   0.277   2.093 -1.1008 -1.9132 -0.1402
  632SOL     OW 1894   2.433   2.577   0.645 -0.1323 -0.5465 -0.0050
  632SOL    HW1 1895   2.406   2.649   0.717  0.4622  0.1721  2.2075
  632SOL    HW2 1896   2.364   2.570   0.560 -4.3689 -1.2134 -1.0688
  633SOL     OW 1897   1.422   1.224   2.651 -0.3833 -0.2824  0.2203
  633SOL    HW1 1898   1.431   1.309   2.713  0.0696 -1.6683 -1.0213
  633SOL    HW2 1899   1.367   1.230   2.559  0.5519 -1.4987 -1.9266
  634SOL     OW 1900   0.667   2.021   0.849  0.4629  0.5530 -0.4487
  634SOL    HW1 1901   0.592   2.006   0.918  0.5323  0.5792  0.6301
  634SOL    HW2 1902   0.756   2.047   0.893 -0.3303  2.7481  0.5209
  635SOL     OW 1903   2.994   2.338   0.045 -0.2364  0.2226 -0.4787
  635SOL    HW1 1904   2.926   2.387  -0.014  1.0128 -1.6638  1.0939
  635SOL    HW2 1905   3.082   2.390   0.059 -1.0063  0.8674  0.1619
  636SOL     OW 1906   2.337   2.757   1.941 -0.2614  0.0242  0.7002
  636SOL    HW1 1907   2.343   2.854   1.974  2.0515 -1.7276  1.0095
  636SOL    HW2 1908   2.262   2.707   1.999 -1.7470 -0.0021  2.7484
  637SOL     OW 1909   2.722   0.615   1.968 -0.2325  0.3653  0.2678
  637SOL    HW1 1910   2.650   0.624   1.900 -0.8487  1.1155  1.7383
  637SOL    HW2 1911   2.750   0.714   1.996 -2.4640 -1.2273  1.5743
  638SOL     OW 1912   2.406   1.815   1.306  0.4562 -0.0957 -0.5753
  638SOL    HW1 1913   2.303   1.788   1.305 -1.4074  1.7031  4.4660
  638SOL    HW2 1914   2.464   1.762   1.378  0.6070  3.3537 -1.3700
  639SOL     OW 1915   1.304   2.098   1.697  0.3896 -0.0527  0.5720
  639SOL    HW1 1916   1.313   2.201   1.678 -1.0045  0.1042 -0.4573
  639SOL    HW2 1917   1.207   2.072   1.737 -0.8856 -1.6957  2.5482
  640SOL     OW 1918   0.222   1.183   1.555 -0.4935  0.0330  0.0605
  640SOL    HW1 1919   0.204   1.213   1.657  0.8184 -3.0937  2.5432
  640SOL    HW2 1920   0.307   1.118   1.552  2.5129 -0.7036 -0.4305
  641SOL     OW 1921   1.995   0.261   1.492  0.3709 -0.5553  0.7922
  641SOL    HW1 1922   1.936   0.223   1.568  0.8227 -1.7661  0.3520
  641SOL    HW2 1923   2.096   0.247   1.510 -2.0859 -2.5305 -1.7093
  642SOL     OW 1924   2.019   3.100   0.329  0.2298 -0.5651  0.1414
  642SOL    HW1 1925   2.110   3.139   0.363 -0.4583 -0.2502  0.8430
  642SOL    HW2 1926   1.979   3.037   0.399  0.1367  0.2615  0.2732
  643SOL     OW 1927   2.933   1.786   2.135  0.2651 -0.2196  0.4303
  643SOL    HW1 1928   2.914   1.736   2.047 -0.9338  0.2707 -0.0056
  643SOL    HW2 1929   2.946   1.889   2.110  0.6722  1.0851 -1.1422
  644SOL     OW 1930   2.210   2.411   1.199 -0.7564 -0.8719  0.0927
  644SOL    HW1 1931   2.279   2.345   1.157  1.4007  3.1928 -0.3717
  644SOL    HW2 1932   2.210   2.397   1.303  1.7544 -0.4280  0.6173
  645SOL     OW 1933   0.604   0.854   1.295  0.5720 -0.1632  0.0397
  645SOL    HW1 1934   0.510   0.826   1.259 -2.1688 -4.8192  1.7422
  645SOL    HW2 1935   0.647   0.917   1.226  0.4918 -1.3816 -1.2699
  646SOL     OW 1936   1.413   1.818   2.065 -0.1576  0.4245  0.6789
  646SOL    HW1 1937   1.454   1.909   2.041 -1.8907  1.0799 -0.1568
  646SOL    HW2 1938   1.359   1.815   2.154 -0.8927 -0.6683  1.1256
  647SOL     OW 1939   0.782   1.028   0.666  0.1989  0.1682  0.2376
  647SOL    HW1 1940   0.837   1.077   0.745 -0.3392 -0.7997 -1.1541
  647SOL    HW2 1941   0.695   0.980   0.697  1.5555 -0.8505 -1.3351
  648SOL     OW 1942   0.146   0.256   0.264 -0.6252 -0.1144  0.0476
  648SOL    HW1 1943   0.199   0.224   0.180 -0.0368  2.9689  2.3963
  648SOL    HW2 1944   0.115   0.355   0.252  0.6168  1.5090  1.1449
  649SOL     OW 1945   3.016   0.239   0.859  0.5744  0.2488 -0.0990
  649SOL    HW1 1946   3.101   0.187   0.884  1.1518  0.8540 -2.7244
  649SOL    HW2 1947   3.029   0.339   0.843 -0.0711  0.5193  0.4868
  650SOL     OW 1948   2.738   0.660   1.503  0.4357  0.4890  0.3761
  650SOL    HW1 1949   2.636   0.677   1.509  1.2586 -0.5192 -1.3869
  650SOL    HW2 1950   2.795   0.743   1.474  0.1235  2.1363 -0.4698
  651SOL     OW 1951   0.927   1.513   1.563 -0.2284 -0.3230 -0.7696
  651SOL    HW1 1952   0.984   1.561   1.632 -0.3856 -0.0763 -2.3280
  651SOL    HW2 1953   0.951   1.550   1.467  1.3492  1.8653 -0.1864
  652SOL     OW 1954   2.357   2.372   2.409  0.6259  0.4756 -0.1450
  652SOL    HW1 1955   2.260   2.406   2.399  1.9702  0.4965 -0.3706
  652SOL    HW2 1956   2.427   2.440   2.373 -0.4922  0.5904  0.9611
  653SOL     OW 1957   2.660   1.218   0.228 -0.0311 -0.1861  0.0852
  653SOL    HW1 1958   2.700   1.308   0.263 -0.6226  1.9487  1.3047
  653SOL    HW2 1959   2.735   1.145   0.236  0.1979 -1.4931  0.8269
  654SOL     OW 1960   1.264   2.249   1.289 -0.3703  0.2842 -0.5569
  654SOL    HW1 1961   1.268   2.160   1.341 -0.1707 -1.6311  0.6149
  654SOL    HW2 1962   1.304   2.235   1.192  1.6892 -0.8050  0.4851
  655SOL     OW 1963   0.144   0.928   1.851 -0.2273  0.2075  0.0705
  655SOL    HW1 1964   0.203   0.879   1.784 -0.0490 -0.9971 -0.8545
  655SOL    HW2 1965   0.176   1.028   1.860  0.7227 -0.8841  2.1412
  656SOL     OW 1966   2.549   2.437   2.607  0.8036 -0.1760 -0.4646
  656SOL    HW1 1967   2.639   2.425   2.564 -0.3034  0.2857  0.0920
  656SOL    HW2 1968   2.478   2.366   2.578 -1.4555  0.7148 -1.2352
  657SOL     OW 1969   2.983   0.983   1.925 -0.1956  0.0736  0.1985
  657SOL    HW1 1970   2.977   1.089   1.942 -0.1364  2.3612 -1.3772
  657SOL    HW2 1971   3.079   0.945   1.899 -1.5253 -0.0200  1.7652
  658SOL     OW 1972   1.700   0.178   2.374 -0.1714  0.1945 -0.5065
  658SOL    HW1 1973   1.716   0.103   2.445  0.0758 -1.9665  0.0766
  658SOL    HW2 1974   1.754   0.161   2.287  0.1604  2.3948  1.8276
  659SOL     OW 1975   1.386   0.635   2.828  0.0018 -0.0548  0.3609
  659SOL    HW1 1976   1.450   0.708   2.852 -1.1044  2.1258  0.7758
  659SOL    HW2 1977   1.293   0.644   2.876  1.3459 -0.2508  0.3307
  660SOL     OW 1978   1.402   0.338   1.454  1.1708  0.6526 -0.0759
  660SOL    HW1 1979   1.410   0.362   1.553 -2.3352  0.8680 -1.2271
  660SOL    HW2 1980   1.470   0.275   1.410  2.0727  0.9927 -1.5109
  661SOL     OW 1981   2.328   1.207   0.674 -0.1922 -0.3688 -0.3743
  661SOL    HW1 1982   2.369   1.193   0.577  0.8380  2.5085 -0.4535
  661SOL    HW2 1983   2.336   1.304   0.710  1.1417  1.2527  0.6126
  662SOL     OW 1984   1.372   0.394   1.717  0.0606 -0.3111 -0.2992
  662SOL    HW1 1985   1.315   0.321   1.762 -1.3854  0.6961 -0.0522
  662SOL    HW2 1986   1.352   0.483   1.759  0.6648 -0.8665  0.3252
  663SOL     OW 1987   0.874   1.562   2.134 -0.4267 -0.3934  0.4582
  663SOL    HW1 1988   0.797   1.600   2.201 -0.1608 -1.8999 -2.0023
  663SOL    HW2 1989   0.827   1.518   2.054  0.8527  0.4723  0.3661
  664SOL     OW 1990   1.624   2.079   1.382 -0.6988 -0.3524 -0.3762
  664SOL    HW1 1991   1.574   2.044   1.464 -0.1735  1.1810 -1.7137
  664SOL    HW2 1992   1.716   2.028   1.367  2.6386 -0.1050  0.5316
  665SOL     OW 1993   2.252   0.711   1.981 -0.7491 -0.2649  0.2753
  665SOL    HW1 1994   2.159   0.670   1.995  1.8562  1.2635  1.1600
  665SOL    HW2 1995   2.310   0.696   2.065 -0.2795  1.1143  0.0235
  666SOL     OW 1996   0.491   2.322   0.315 -0.2888  0.3885  0.2829
  666SOL    HW1 1997   0.534   2.387   0.381 -1.7811  0.8042 -2.7739
  666SOL    HW2 1998   0.394   2.290   0.333 -0.1095 -1.4373  1.3732
  667SOL     OW 1999   2.034   0.192   1.098  0.9658 -0.5300  0.3313
  667SOL    HW1 2000   2.022   0.294   1.100  1.0015  0.9160  0.7278
  667SOL    HW2 2001   1.971   0.150   1.168  0.6916  0.9889  0.5112
  668SOL     OW 2002   2.050   0.468   1.160  0.0458 -0.0283 -0.2235
  668SOL    HW1 2003   2.125   0.477   1.088  2.7572 -0.2584 -3.2245
  668SOL    HW2 2004   2.086   0.493   1.253  1.2068 -0.2141 -1.5625
  669SOL     OW 2005   3.087   2.128   0.998 -0.5188 -0.3673 -0.0876
  669SOL    HW1 2006   3.047   2.200   0.933 -1.7345  0.6933 -1.0007
  669SOL    HW2 2007   3.126   2.173   1.088  1.8266  0.0771  1.1942
  670SOL     OW 2008   2.885   2.320   2.085  0.1729  0.2275 -0.4626
  670SOL    HW1 2009   2.805   2.282   2.148 -0.4654  2.2994 -0.0979
  670SOL    HW2 2010   2.873   2.422   2.069 -1.8036  1.7569 -0.0725
  671SOL     OW 2011   1.749   1.798   1.450 -0.5150 -0.4043 -0.0422
  671SOL    HW1 2012   1.749   1.765   1.349 -1.1978 -1.3329  0.1204
  671SOL    HW2 2013   1.653   1.828   1.475  0.4623 -2.1059  1.0842
  672SOL     OW 2014   0.431   0.623   2.381 -0.1248 -0.3270  0.0881
  672SOL    HW1 2015   0.453   0.622   2.279 -1.0809  0.0325 -1.2731
  672SOL    HW2 2016   0.362   0.695   2.410  1.1073 -2.7924  0.2444
  673SOL     OW 2017   0.156   1.204   1.156 -0.1316  0.2169 -0.1298
  673SOL    HW1 2018   0.172   1.273   1.232 -1.5983  0.0581  0.3051
  673SOL    HW2 2019   0.244   1.155   1.121  1.4984  1.6956 -0.6503
  674SOL     OW 2020   1.677   3.002   0.320  0.3181  0.4862 -0.1466
  674SOL    HW1 2021   1.619   3.083   0.327  1.4510 -0.6727  2.1593
  674SOL    HW2 2022   1.751   3.014   0.247 -1.8583 -0.3529 -0.6437
  675SOL     OW 2023   1.735   0.807   2.265  0.2485 -0.0159  0.5641
  675SOL    HW1 2024   1.836   0.799   2.276 -0.9086  1.2298 -0.6942
  675SOL    HW2 2025   1.688   0.716   2.251 -1.1423 -0.7716  0.9018
  676SOL     OW 2026   2.544   1.486   1.930  0.2402  0.2002  0.3664
  676SOL    HW1 2027   2.475   1.465   1.847 -0.3367 -1.3962 -2.3809
  676SOL    HW2 2028   2.541   1.421   2.010  0.3171  1.0065 -2.5192
  677SOL     OW 2029   1.907   0.688   0.932 -0.6724 -0.5807 -0.1309
  677SOL    HW1 2030   1.810   0.668   0.954 -2.0753 -1.3948  0.6157
  677SOL    HW2 2031   1.979   0.632   0.981  0.0647 -3.2448  1.4595
  678SOL     OW 2032   0.070   0.740   1.616  0.0483 -0.4331  0.2469
  678SOL    HW1 2033   0.172   0.754   1.641  0.5430 -0.2005  0.7610
  678SOL    HW2 2034   0.014   0.711   1.699 -0.5003 -0.0102  0.0670
  679SOL     OW 2035   2.515   1.214   1.220  0.1447  0.8466  0.2538
  679SOL    HW1 2036   2.425   1.258   1.195  2.2758 -2.0833 -0.9084
  679SOL    HW2 2037   2.519   1.115   1.192 -0.5870  1.0866 -0.2186
  680SOL     OW 2038   2.814   0.476   1.704 -0.2445  0.6034  0.0772
  680SOL    HW1 2039   2.778   0.542   1.633 -0.7443  2.2624 -2.9673
  680SOL    HW2 2040   2.883   0.515   1.774 -0.2783 -1.0694  1.1079
  681SOL     OW 2041   2.976   0.121   1.599  0.0075  0.1550 -0.3362
  681SOL    HW1 2042   3.027   0.117   1.511  1.5690 -2.0601 -0.0200
  681SOL    HW2 2043   2.876   0.152   1.596 -4.3449  1.1914 -0.5687
  682SOL     OW 2044   0.751   0.068   1.333  0.4443 -0.1022 -0.6815
  682SOL    HW1 2045   0.695  -0.004   1.376  1.5328  0.4855  0.0284
  682SOL    HW2 2046   0.773   0.049   1.235  1.8693  1.3818 -1.7143
  683SOL     OW 2047   1.387   0.224   2.185 -0.5001  0.3332  0.2412
  683SOL    HW1 2048   1.426   0.291   2.252  0.5429  2.3051 -0.3305
  683SOL    HW2 2049   1.458   0.213   2.113  1.1481 -0.2809  0.7804
  684SOL     OW 2050   1.479   2.060   0.468  0.4475  0.2381 -0.0660
  684SOL    HW1 2051   1.495   2.007   0.558  1.6764 -0.6530  1.4305
  684SOL    HW2 2052   1.390   2.024   0.429  2.8010 -0.0928 -0.0290
  685SOL     OW 2053   2.185   2.094   1.926 -0.6627 -0.5912 -0.4836
  685SOL    HW1 2054   2.266   2.083   1.864 -0.8366 -2.5216 -0.2972
  685SOL    HW2 2055   2.213   2.089   2.031 -1.1303 -0.9806  2.7992
  686SOL     OW 2056   1.495   1.850   2.769  0.4301  0.3503 -0.3231
  686SOL    HW1 2057   1.534   1.782   2.839  0.3102  0.0235 -0.2074
  686SOL    HW2 2058   1.421   1.802   2.712  1.0543 -1.2329  0.0302
  687SOL     OW 2059   1.355   2.477   1.962 -0.1224  0.0152 -0.3891
  687SOL    HW1 2060   1.337   2.375   1.968  3.8683  1.0017  1.2884
  687SOL    HW2 2061   1.364   2.526   2.053 -1.0002  1.5751  0.0212
  688SOL     OW 2062   2.007   1.513   1.780 -0.1587 -0.3641  0.2593
  688SOL    HW1 2063   2.103   1.550   1.769 -1.1799  0.3927  1.5302
  688SOL    HW2 2064   1.983   1.474   1.687  2.1993  0.4679 -3.0277
  689SOL     OW 2065   2.392   1.065   2.800 -0.1884 -0.0598 -0.0319
  689SOL    HW1 2066   2.304   1.022   2.840  1.0229  1.3442  2.6750
  689SOL    HW2 2067   2.485   1.028   2.834  0.7596  1.2784 -0.3616
  690SOL     OW 2068   2.227   2.822   0.065  0.6590  0.0960  0.2089
  690SOL    HW1 2069   2.163   2.773   0.009  1.2584  1.0657 -0.9364
  690SOL    HW2 2070   2.190   2.855   0.158 -0.7568  1.7047  1.8677
  691SOL     OW 2071   2.627   0.408   2.126 -0.1982 -0.0041  0.4775
  691SOL    HW1 2072   2.684   0.326   2.126 -2.0815  0.4456  0.8951
  691SOL    HW2 2073   2.666   0.491   2.078 -3.0344 -1.0383  0.7659
  692SOL     OW 2074   2.693   1.249   0.745 -0.0481  0.6092 -0.0787
  692SOL    HW1 2075   2.621   1.257   0.674  2.6964  2.1565  0.3161
  692SOL    HW2 2076   2.768   1.324   0.742  1.1369  0.6745  0.4313
  693SOL     OW 2077   2.821   2.916   0.645  0.3510 -0.1301  0.3675
  693SOL    HW1 2078   2.831   2.991   0.715 -0.6741 -1.2043  0.1852
  693SOL    HW2 2079   2.806   2.963   0.554  1.5101 -2.1510 -0.7111
  694SOL     OW 2080   2.406   2.232   0.079  0.0959 -0.6817  0.3566
  694SOL    HW1 2081   2.378   2.326   0.116  0.9110 -1.6539 -0.1517
  694SOL    HW2 2082   2.335   2.161   0.094  0.6459  0.9262 -1.7638
  695SOL     OW 2083   0.559   2.999   1.489 -0.6892 -0.2090 -0.2136
  695SOL    HW1 2084   0.504   2.919   1.447  0.3272 -1.5522  0.1882
  695SOL    HW2 2085   0.520   3.038   1.576  1.1106 -1.1063 -0.6346
  696SOL     OW 2086   2.825   2.070   0.733  0.4720 -0.0503 -1.0956
  696SOL    HW1 2087   2.897   1.994   0.743 -0.4905 -1.1091  0.4674
  696SOL    HW2 2088   2.790   2.071   0.636 -0.9722 -0.0669  1.3323
  697SOL     OW 2089   1.591   1.990   1.849 -0.2648 -0.0410  0.5165
  697SOL    HW1 2090   1.656   1.917   1.867 -1.2620  0.8106 -1.3586
  697SOL    HW2 2091   1.634   2.073   1.806  1.3632 -1.3483 -2.3769
  698SOL     OW 2092   2.932   0.395   2.766  0.4191  0.0214  0.1835
  698SOL    HW1 2093   2.956   0.386   2.665 -0.9461 -2.7323  2.7340
  698SOL    HW2 2094   2.974   0.322   2.828  3.2743 -0.7724 -1.3497
  699SOL     OW 2095   1.558   0.063   2.913  0.1190  0.0878 -0.2371
  699SOL    HW1 2096   1.511  -0.028   2.881 -1.9420  1.0355 -0.1519
  699SOL    HW2 2097   1.598   0.121   2.836 -0.2754  2.1651 -0.1398
  700SOL     OW 2098   0.989   2.333   1.345 -0.2182 -0.6503 -0.5458
  700SOL    HW1 2099   1.076   2.279   1.320  1.4602  0.2457  0.7120
  700SOL    HW2 2100   0.902   2.285   1.319 -0.3737  0.9902 -4.0809
  701SOL     OW 2101   1.902   2.927   3.071 -0.6275 -0.4145  0.0674
  701SOL    HW1 2102   1.927   2.881   3.161 -0.1615  2.9317 -0.8960
  701SOL    HW2 2103   1.883   3.029   3.084 -1.8290 -1.1431 -0.3842
  702SOL     OW 2104   2.088   1.334   1.959 -0.0175 -0.6042  0.3173
  702SOL    HW1 2105   2.169   1.281   1.917 -1.5771  2.2953 -2.2152
  702SOL    HW2 2106   2.044   1.399   1.892 -0.3159  0.4153  0.9080
  703SOL     OW 2107   1.941   0.919   1.452  0.1342 -0.1238 -0.2651
  703SOL    HW1 2108   1.920   0.827   1.496  0.9441  0.0108 -0.8713
  703SOL    HW2 2109   2.018   0.966   1.510 -1.0757 -2.3211  0.8715
  704SOL     OW 2110   0.302   2.031   1.699 -0.0839  0.2557 -0.1925
  704SOL    HW1 2111   0.334   1.991   1.788 -2.5123 -0.3592  0.4979
  704SOL    HW2 2112   0.362   2.116   1.666  0.6310  2.6341  1.6513
  705SOL     OW 2113   2.522   1.551   0.870  0.1021  0.2271  0.4142
  705SOL    HW1 2114   2.437   1.518   0.816  0.3581  2.3763  1.6014
  705SOL    HW2 2115   2.591   1.476   0.878 -1.5693 -0.7480 -0.4510
  706SOL     OW 2116   0.669   1.705   1.896 -0.7558 -0.6536 -0.1033
  706SOL    HW1 2117   0.686   1.611   1.938 -2.2218  1.8746  0.1314
  706SOL    HW2 2118   0.717   1.780   1.953 -2.2997  0.4498  0.9950
  707SOL     OW 2119   2.287   1.169   1.870  0.1750 -0.0320  0.0081
  707SOL    HW1 2120   2.377   1.194   1.917 -0.8712 -0.1435 -1.1058
  707SOL    HW2 2121   2.270   1.068   1.855  2.2828 -0.6375 -2.0095
  708SOL     OW 2122   3.015   0.557   3.056  0.3999  0.3196 -0.1200
  708SOL    HW1 2123   3.071   0.585   2.973  1.4446 -1.6106  2.1690
  708SOL    HW2 2124   2.997   0.457   3.054  0.4026  1.9755  2.0709
  709SOL     OW 2125   1.851   1.838   0.287  0.1038 -0.2309  0.6754
  709SOL    HW1 2126   1.887   1.939   0.297 -0.0063  0.8043  0.5334
  709SOL    HW2 2127   1.816   1.821   0.189  0.6334 -1.4466 -1.3657
  710SOL     OW 2128   1.679   1.613   2.375 -0.3356 -0.0851  0.0519
  710SOL    HW1 2129   1.761   1.603   2.313 -1.2704  0.6176  0.7539
  710SOL    HW2 2130   1.684   1.577   2.472  1.2716  0.3811  0.8688
  711SOL     OW 2131   2.586   2.940   1.059 -0.4601 -0.3421 -0.4797
  711SOL    HW1 2132   2.570   3.041   1.037 -1.2949 -2.4510 -2.7379
  711SOL    HW2 2133   2.685   2.925   1.088 -2.9905  0.5329  0.1290
  712SOL     OW 2134   1.376   2.187   1.962 -0.0553  0.2205 -0.5844
  712SOL    HW1 2135   1.473   2.217   1.967  1.0123 -1.1005  2.7121
  712SOL    HW2 2136   1.366   2.116   1.889  1.0979 -2.0998  0.5297
  713SOL     OW 2137   2.808   1.444   2.517  0.3247 -0.5588  0.1768
  713SOL    HW1 2138   2.813   1.358   2.462 -0.9261 -0.2212  1.7386
  713SOL    HW2 2139   2.732   1.446   2.587  1.6038 -1.7092  0.9613
  714SOL     OW 2140   2.669   0.456   2.388  0.0310  0.3242 -0.2777
  714SOL    HW1 2141   2.593   0.440   2.451 -1.3212  0.2702 -2.0836
  714SOL    HW2 2142   2.654   0.433   2.288  1.4728  0.7219 -1.0883
  715SOL     OW 2143   1.554   2.013   1.108  0.0937  0.0033  0.2373
  715SOL    HW1 2144   1.468   2.053   1.071  0.2387  1.3374 -1.8761
  715SOL    HW2 2145   1.561   2.028   1.212  0.0282  0.3643 -0.9001
  716SOL     OW 2146   1.179   0.155   1.507 -0.3293 -0.0908 -0.2223
  716SOL    HW1 2147   1.081   0.173   1.458 -4.4209  0.8089 -4.2409
  716SOL    HW2 2148   1.237   0.238   1.485  1.0756 -0.1710  1.3603
  717SOL     OW 2149   1.176   0.573   1.540 -0.1514 -0.1957 -0.2142
  717SOL    HW1 2150   1.275   0.607   1.562  2.6903 -0.5055 -0.3392
  717SOL    HW2 2151   1.180   0.512   1.453  0.9706 -0.1826  0.8980
  718SOL     OW 2152   0.692   0.880   0.996 -0.1247  0.3193  0.0700
  718SOL    HW1 2153   0.649   0.860   0.902 -1.7277  2.3710  0.7563
  718SOL    HW2 2154   0.710   0.985   1.009  2.8730  2.6441  0.7143
  719SOL     OW 2155   0.653   1.691   2.346 -0.3876  0.3090  0.2744
  719SOL    HW1 2156   0.716   1.741   2.411 -1.7126 -2.1905  0.0081
  719SOL    HW2 2157   0.569   1.669   2.396 -2.0662  0.1465  0.2214
  720SOL     OW 2158   2.179   1.115   0.285 -0.4271  0.2548  0.5522
  720SOL    HW1 2159   2.222   1.031   0.241  2.5812 -2.1459  1.3862
  720SOL    HW2 2160   2.145   1.097   0.384 -1.4458  0.1887  3.0990
  721SOL     OW 2161   2.296   3.016   2.063  0.1084 -0.1181 -0.2167
  721SOL    HW1 2162   2.213   3.031   2.005  0.1852  0.1441  1.5093
  721SOL    HW2 2163   2.266   3.003   2.158 -1.4379 -2.1980 -0.2353
  722SOL     OW 2164   2.273   1.589   0.510 -0.0386 -0.2078  0.0236
  722SOL    HW1 2165   2.351   1.567   0.448 -0.3742  1.8494  0.7442
  722SOL    HW2 2166   2.196   1.635   0.460 -0.5404 -2.5515  2.8969
  723SOL     OW 2167   2.615   2.722   1.893 -0.7347  0.6766  0.0134
  723SOL    HW1 2168   2.648   2.778   1.973 -0.8681  0.6608 -1.6098
  723SOL    HW2 2169   2.521   2.680   1.906 -1.1065  0.6599  0.1537
  724SOL     OW 2170   0.494   2.494   2.401  0.3669 -0.1592  0.0957
  724SOL    HW1 2171   0.417   2.512   2.466  0.6050 -0.7718 -1.6194
  724SOL    HW2 2172   0.571   2.448   2.456 -0.1965 -2.4015 -0.4406
  725SOL     OW 2173   2.340   2.749   1.477 -0.1821  0.4371 -0.2069
  725SOL    HW1 2174   2.402   2.815   1.438 -0.6863  0.0697  2.2330
  725SOL    HW2 2175   2.381   2.660   1.502 -0.3073  1.4422 -0.1522
  726SOL     OW 2176   2.518   2.344   0.726  0.2443  0.6348 -0.0557
  726SOL    HW1 2177   2.475   2.434   0.710 -0.2216 -1.2886  2.4345
  726SOL    HW2 2178   2.477   2.268   0.661 -1.0995 -0.1418 -2.2020
  727SOL     OW 2179   0.163   3.054   0.071 -0.5833  0.0596 -0.2775
  727SOL    HW1 2180   0.197   2.960   0.060 -0.1628 -0.7976 -1.3868
  727SOL    HW2 2181   0.083   3.075   0.007  1.0326  1.8804 -1.0879
  728SOL     OW 2182   2.918   0.655   0.921  0.5186  0.0861  0.4251
  728SOL    HW1 2183   2.851   0.651   0.841 -0.7550 -2.9257  0.8040
  728SOL    HW2 2184   2.865   0.641   1.011 -0.2115 -1.8625 -1.2844
  729SOL     OW 2185   3.070   2.540   0.713  0.0189  0.4336 -0.2144
  729SOL    HW1 2186   3.028   2.461   0.763 -2.3052  1.3403 -0.6928
  729SOL    HW2 2187   3.168   2.529   0.677 -3.3291  0.6230  0.4488
  730SOL     OW 2188   2.620   0.693   0.860  0.2971  0.3270 -0.1012
  730SOL    HW1 2189   2.612   0.798   0.872  1.5015 -0.2064 -0.3513
  730SOL    HW2 2190   2.657   0.663   0.766  0.7816 -0.3095  0.7514
  731SOL     OW 2191   0.011   2.132   2.412 -0.3546 -0.4851 -0.1596
  731SOL    HW1 2192   0.065   2.217   2.433 -1.2106 -1.1259  1.5949
  731SOL    HW2 2193  -0.091   2.143   2.433 -0.2474  1.7090 -0.6547
  732SOL     OW 2194   1.224   2.824   1.977  0.1902 -0.0638 -0.1868
  732SOL    HW1 2195   1.251   2.797   2.073  3.9621  0.8251 -1.7519
  732SOL    HW2 2196   1.215   2.750   1.907 -1.5030  0.8789  0.3019
  733SOL     OW 2197   3.004   0.620   2.229  0.2528 -0.1541  0.0822
  733SOL    HW1 2198   3.095   0.609   2.269 -2.9000  1.0750 -0.8459
  733SOL    HW2 2199   2.966   0.541   2.173 -1.0841 -0.8342 -0.8076
  734SOL     OW 2200   1.404   0.377   2.710  0.4707  0.0669 -0.1004
  734SOL    HW1 2201   1.400   0.481   2.732 -0.3369  1.1589 -0.2963
  734SOL    HW2 2202   1.315   0.326   2.732 -1.6838  1.8135 -1.0319
  735SOL     OW 2203   2.892   2.637   2.309 -0.1928  0.1040 -0.0226
  735SOL    HW1 2204   2.855   2.609   2.216 -2.9339 -1.0105  2.2971
  735SOL    HW2 2205   2.991   2.676   2.302 -2.5961  0.9551 -0.0109
  736SOL     OW 2206   0.894   0.374   2.576 -0.8152 -0.4497 -0.4577
  736SOL    HW1 2207   0.816   0.442   2.575 -1.9863 -2.0086  3.8945
  736SOL    HW2 2208   0.901   0.337   2.479 -0.0157  1.2673 -2.6923
  737SOL     OW 2209   2.644   0.441   2.821 -0.3180 -0.2002  0.7809
  737SOL    HW1 2210   2.625   0.378   2.905 -2.8505 -0.3959  0.4345
  737SOL    HW2 2211   2.743   0.434   2.792  0.5115  0.5492  0.6402
  738SOL     OW 2212   1.680   1.247   2.896 -0.4419  0.0348  0.2464
  738SOL    HW1 2213   1.780   1.233   2.883 -0.0669 -0.1001 -0.5852
  738SOL    HW2 2214   1.631   1.175   2.845 -1.0098  1.2337  0.1965
  739SOL     OW 2215   1.757   0.730   0.681 -0.4377 -0.2049  0.6299
  739SOL    HW1 2216   1.799   0.718   0.778  1.0738  1.6534 -0.5432
  739SOL    HW2 2217   1.761   0.638   0.627  1.8605  0.8988 -1.1914
  740SOL     OW 2218   1.985   1.943   2.379 -0.1934  0.0715  0.0538
  740SOL    HW1 2219   2.038   1.868   2.423  1.1607 -2.5165 -0.7186
  740SOL    HW2 2220   1.958   1.925   2.279  3.2528 -1.6209 -0.5343
  741SOL     OW 2221   2.571   0.147   2.536 -0.7689 -0.3799  0.9629
  741SOL    HW1 2222   2.679   0.143   2.551  1.3848 -1.3425 -0.6545
  741SOL    HW2 2223   2.553   0.130   2.436 -0.3279 -3.0846  1.4297
  742SOL     OW 2224   2.189   1.384   0.175  0.1494 -0.0190  0.2223
  742SOL    HW1 2225   2.102   1.440   0.160  1.3796  2.5289 -1.1712
  742SOL    HW2 2226   2.181   1.300   0.238  5.3152 -0.3761  0.9245
  743SOL     OW 2227   1.776   0.607   2.599  0.7996  0.1096 -0.0581
  743SOL    HW1 2228   1.782   0.549   2.512 -0.2245  1.4364 -1.8387
  743SOL    HW2 2229   1.716   0.689   2.588 -4.8794  2.2907 -1.3603
  744SOL     OW 2230   2.656   2.027   0.091 -0.5791  0.6081  0.0411
  744SOL    HW1 2231   2.584   2.097   0.117  0.7749  1.2534  0.5665
  744SOL    HW2 2232   2.647   1.936   0.151 -1.5094 -1.3949  2.1665
  745SOL     OW 2233   2.169   2.638   2.164  0.2900  0.2121  0.0336
  745SOL    HW1 2234   2.068   2.641   2.166  1.0339  1.2986  1.0448
  745SOL    HW2 2235   2.216   2.681   2.244 -2.6381  2.5651  0.5636
  746SOL     OW 2236   3.095   2.638   1.709 -0.3960 -0.3936 -0.4046
  746SOL    HW1 2237   3.167   2.560   1.722  2.4978 -1.0949 -0.8300
  746SOL    HW2 2238   3.100   2.704   1.789 -1.3348  0.7090 -0.9802
  747SOL     OW 2239   3.071   1.742   1.731  0.3603 -0.3389  0.6580
  747SOL    HW1 2240   3.008   1.667   1.693 -0.6075  3.1593  0.2296
  747SOL    HW2 2241   3.144   1.758   1.661  0.9247  0.8151 -0.4043
  748SOL     OW 2242   1.811   2.712   2.895  0.3838  0.3907  0.1563
  748SOL    HW1 2243   1.819   2.807   2.937  0.2867 -1.1346  0.2194
  748SOL    HW2 2244   1.709   2.688   2.874  0.3784 -2.2713 -1.1705
  749SOL     OW 2245   1.352   3.015   0.861  0.0133 -0.2212 -0.0858
  749SOL    HW1 2246   1.262   2.959   0.870  1.0062 -0.8196 -0.1092
  749SOL    HW2 2247   1.408   2.992   0.779  1.7070 -0.5153 -3.1859
  750SOL     OW 2248   2.316   0.203   1.844 -0.0308 -0.5640  0.3916
  750SOL    HW1 2249   2.313   0.265   1.758  0.3976 -0.9111  2.0417
  750SOL    HW2 2250   2.326   0.265   1.927  2.3581  1.5844 -1.8400
  751SOL     OW 2251   0.818   2.023   2.822  0.8061  0.5807 -0.5996
  751SOL    HW1 2252   0.882   2.025   2.902 -0.8073 -2.6783  1.6694
  751SOL    HW2 2253   0.725   2.057   2.856 -1.3852 -0.3203  0.5321
  752SOL     OW 2254   1.330   0.799   1.265  0.1191  0.1278 -0.2124
  752SOL    HW1 2255   1.398   0.873   1.284  1.0273 -1.0146 -0.9369
  752SOL    HW2 2256   1.354   0.705   1.304 -2.8500 -0.8147 -0.3384
  753SOL     OW 2257   0.941   2.625   1.762 -0.0295  0.2292 -1.1051
  753SOL    HW1 2258   1.041   2.643   1.753  1.1422  1.4204 -1.0865
  753SOL    HW2 2259   0.883   2.708   1.779 -0.0604 -0.9367 -2.7238
  754SOL     OW 2260   1.154   1.172   3.001 -0.0879  0.3975 -0.0381
  754SOL    HW1 2261   1.212   1.108   2.933  1.4056 -0.7517  0.3115
  754SOL    HW2 2262   1.198   1.268   3.012  0.4738  3.1432 -0.8295
  755SOL     OW 2263   1.994   0.506   2.226 -0.3364 -0.3675  0.1739
  755SOL    HW1 2264   2.054   0.430   2.259  0.8526  0.0039 -0.2788
  755SOL    HW2 2265   1.895   0.487   2.264  0.3003  0.9948  2.6270
  756SOL     OW 2266   2.584   0.981   2.966  0.1807 -0.2304 -0.2251
  756SOL    HW1 2267   2.680   0.968   2.998 -0.7997  0.1714  0.3586
  756SOL    HW2 2268   2.534   0.894   2.997  1.8147 -1.7520 -1.2944
  757SOL     OW 2269   0.092   0.482   1.996  0.0991  0.4579 -0.1523
  757SOL    HW1 2270   0.158   0.408   1.948  3.2308 -1.2767 -1.5135
  757SOL    HW2 2271  -0.005   0.445   2.007 -0.5735  0.5137  0.3887
  758SOL     OW 2272   2.251   0.135   1.471 -0.2925 -0.0035  0.1752
  758SOL    HW1 2273   2.225   0.035   1.492  0.8243  0.6875  1.0037
  758SOL    HW2 2274   2.301   0.148   1.379  0.6162  0.8235 -0.1044
  759SOL     OW 2275   1.666   0.118   0.050  0.1138  0.0262  0.1010
  759SOL    HW1 2276   1.623   0.082  -0.035  0.9388  0.6473  1.3519
  759SOL    HW2 2277   1.771   0.124   0.045  1.7706 -2.8454 -0.7351
  760SOL     OW 2278   2.618   2.068   2.824  0.0110  0.3650 -0.1550
  760SOL    HW1 2279   2.642   1.985   2.882 -0.5273 -0.7494  0.9474
  760SOL    HW2 2280   2.599   2.154   2.877  2.7857 -0.2684 -1.1376
  761SOL     OW 2281   1.868   1.766   1.707  0.2668  0.0612 -0.1860
  761SOL    HW1 2282   1.833   1.683   1.749 -0.3559  0.3816 -3.0767
  761SOL    HW2 2283   1.831   1.772   1.611  3.4107 -1.8203  1.3033
  762SOL     OW 2284   0.492   2.347   0.961  0.0631 -0.0750 -0.0544
  762SOL    HW1 2285   0.508   2.376   0.862  0.7276  0.6516 -1.9561
  762SOL    HW2 2286   0.566   2.391   1.022  0.0261 -1.3752 -1.0858
  763SOL     OW 2287   2.085   1.583   2.975  0.1880 -0.4330 -0.0218
  763SOL    HW1 2288   2.170   1.532   2.965 -2.4200  1.0542 -1.7401
  763SOL    HW2 2289   2.021   1.549   3.047  1.8591  1.0349  0.2125
  764SOL     OW 2290   0.665   0.595   0.775 -0.4843  0.2437  0.5709
  764SOL    HW1 2291   0.585   0.526   0.776  1.1125  2.0859  2.0454
  764SOL    HW2 2292   0.746   0.562   0.832  0.2676  0.6448  2.1262
  765SOL     OW 2293   0.746   0.228   0.796 -0.1209 -0.0104 -0.1697
  765SOL    HW1 2294   0.800   0.290   0.730 -1.7267  0.8001  0.7654
  765SOL    HW2 2295   0.731   0.264   0.893  0.9619  1.3103  4.0703
  766SOL     OW 2296   2.860   2.127   3.020 -0.1359 -0.2427  0.8088
  766SOL    HW1 2297   2.768   2.105   3.061  1.3000 -1.0430 -1.1201
  766SOL    HW2 2298   2.917   2.203   3.066  0.0845 -1.2974  1.0949
  767SOL     OW 2299   2.793   1.670   0.593  0.1285 -0.1266 -0.0240
  767SOL    HW1 2300   2.696   1.683   0.611 -0.2181  0.0601  2.0630
  767SOL    HW2 2301   2.850   1.735   0.646 -1.9977 -2.1021  1.4056
  768SOL     OW 2302   0.965   0.099   0.213 -1.1455  0.3015  0.2893
  768SOL    HW1 2303   0.940   0.083   0.311  0.5859  0.0253 -1.7590
  768SOL    HW2 2304   1.056   0.057   0.186  1.7571 -0.8697  1.3284
  769SOL     OW 2305   1.123   1.897   2.313  0.0737  0.3640 -0.3790
  769SOL    HW1 2306   1.020   1.917   2.318 -0.6977  1.2301  0.7290
  769SOL    HW2 2307   1.165   1.860   2.398 -1.9324  0.2240 -1.6916
  770SOL     OW 2308   0.191   1.204   2.291  0.0165  0.2076 -0.5609
  770SOL    HW1 2309   0.166   1.250   2.382 -0.5939 -1.3463  2.5341
  770SOL    HW2 2310   0.106   1.182   2.236 -0.6706  0.8270  1.5465
  771SOL     OW 2311   3.035   2.862   1.894 -0.3012  0.4578 -0.2458
  771SOL    HW1 2312   2.991   2.887   1.802 -0.5482  1.3557 -0.4500
  771SOL    HW2 2313   3.002   2.929   1.968 -3.1290 -0.8244 -1.8738
  772SOL     OW 2314   2.227   0.142   2.924 -0.2247 -0.1366 -0.2705
  772SOL    HW1 2315   2.280   0.106   2.842 -2.0738 -0.7387 -0.2348
  772SOL    HW2 2316   2.289   0.200   2.989 -0.6464  0.2675  0.4822
  773SOL     OW 2317   0.672   2.127   2.406  0.5022  0.3419  0.2016
  773SOL    HW1 2318   0.611   2.178   2.334 -1.0274  1.3308  3.0922
  773SOL    HW2 2319   0.670   2.162   2.502  0.5608 -0.2211 -2.3858
  774SOL     OW 2320   2.065   0.008   2.595 -0.1082 -0.4190 -0.2548
  774SOL    HW1 2321   2.068   0.102   2.630  2.8093 -0.0192 -1.7174
  774SOL    HW2 2322   2.089  -0.058   2.677  1.6506 -1.7020  0.2009
  775SOL     OW 2323   2.561   2.940   2.297 -0.7758 -0.1658 -0.2565
  775SOL    HW1 2324   2.534   3.042   2.292  0.0926 -1.1650 -0.5340
  775SOL    HW2 2325   2.638   2.922   2.368 -0.1110  0.5812  1.5725
  776SOL     OW 2326   0.021   1.253   0.236  0.5413 -0.2792  0.5763
  776SOL    HW1 2327  -0.038   1.224   0.153  1.9401 -0.1806 -1.6722
  776SOL    HW2 2328  -0.040   1.286   0.315  1.6790 -0.6702 -0.8119
  777SOL     OW 2329   0.379   2.844   0.346 -0.1166 -0.8361  0.2997
  777SOL    HW1 2330   0.286   2.875   0.317  0.3953 -0.2494  0.6666
  777SOL    HW2 2331   0.458   2.873   0.295 -0.4759  0.1240  2.4276
  778SOL     OW 2332   1.350   1.983   0.164 -0.1276 -0.2419 -0.0252
  778SOL    HW1 2333   1.268   2.005   0.221 -1.2875  1.1834 -0.0379
  778SOL    HW2 2334   1.393   2.074   0.126  1.8112 -0.6411 -1.3357
  779SOL     OW 2335   0.192   0.869   0.520 -0.1633 -0.4754 -0.2793
  779SOL    HW1 2336   0.154   0.777   0.491 -0.5764  0.5178  2.8246
  779SOL    HW2 2337   0.124   0.933   0.574 -0.9450  0.8429 -0.4370
  780SOL     OW 2338   0.093   0.266   2.387 -0.2695 -0.5389 -0.2191
  780SOL    HW1 2339   0.034   0.353   2.401 -2.1897 -0.9850 -0.4790
  780SOL    HW2 2340   0.191   0.288   2.364 -2.1042  1.2563 -0.7834
  781SOL     OW 2341   0.659   1.655   1.514  0.1192  0.1568 -0.4941
  781SOL    HW1 2342   0.713   1.587   1.570 -0.0091 -0.1277 -0.3650
  781SOL    HW2 2343   0.566   1.622   1.488  2.4727  0.3325 -0.3427
  782SOL     OW 2344   2.577   0.086   0.948 -0.3299 -0.6059  0.5909
  782SOL    HW1 2345   2.547   0.093   0.852  1.1541 -0.9834  1.6240
  782SOL    HW2 2346   2.595   0.176   1.002 -0.3553 -2.0483 -2.4237
  783SOL     OW 2347   2.794   0.705   2.486  0.2314 -0.2524  0.1642
  783SOL    HW1 2348   2.753   0.748   2.576  0.2943  1.5845  1.1662
  783SOL    HW2 2349   2.762   0.604   2.470  0.1245  0.6342 -0.0388
  784SOL     OW 2350   1.448   2.214   0.044 -0.2448  0.3701  0.3102
  784SOL    HW1 2351   1.512   2.276   0.088  0.8308 -0.0007 -1.7533
  784SOL    HW2 2352   1.437   2.235  -0.060 -0.0840 -1.1183 -0.5823
  785SOL     OW 2353   2.114   0.323   0.068  0.1496  0.5693  0.3052
  785SOL    HW1 2354   2.021   0.311   0.122 -1.7758  2.3136  0.1904
  785SOL    HW2 2355   2.118   0.413   0.011  1.0480 -1.0968 -0.7996
  786SOL     OW 2356   2.050   2.190   2.296 -0.3469  0.5216 -0.4980
  786SOL    HW1 2357   2.047   2.089   2.333 -0.5711  1.2755  3.9194
  786SOL    HW2 2358   2.097   2.191   2.206  0.2197  2.3421 -2.3481
  787SOL     OW 2359   1.332   0.480   0.967 -0.1218  0.6764  0.4815
  787SOL    HW1 2360   1.279   0.569   0.999 -1.6724  0.9033  0.6866
  787SOL    HW2 2361   1.372   0.493   0.875  1.3607 -1.4634  0.6540
  788SOL     OW 2362   1.271   0.423   0.093 -0.5274  0.6739  0.3645
  788SOL    HW1 2363   1.191   0.397   0.034  1.8480  3.7799 -0.8655
  788SOL    HW2 2364   1.259   0.516   0.140 -3.0884 -3.4904 -0.1994
  789SOL     OW 2365   2.553   0.073   1.951 -0.7259  0.1518 -0.2598
  789SOL    HW1 2366   2.469   0.126   1.923 -0.3312  2.7193  0.2127
  789SOL    HW2 2367   2.542  -0.022   1.915  1.5929  4.2266  3.5110
  790SOL     OW 2368   2.640   2.794   0.814  0.5166 -0.6621  0.3180
  790SOL    HW1 2369   2.710   2.827   0.745 -0.6674  0.8030  0.1882
  790SOL    HW2 2370   2.649   2.835   0.911  0.6945  0.5682  3.4612
  791SOL     OW 2371   1.923   1.198   0.180  0.5674 -0.1438  0.2652
  791SOL    HW1 2372   1.826   1.181   0.208  0.8057  0.1626 -0.5987
  791SOL    HW2 2373   1.994   1.131   0.216  0.4524  1.3048 -2.5997
  792SOL     OW 2374   0.453   1.795   2.193  0.0529  0.4643 -0.0298
  792SOL    HW1 2375   0.550   1.770   2.210 -1.1194  0.6826  0.0972
  792SOL    HW2 2376   0.386   1.763   2.267  0.4030 -0.2157 -0.2218
  793SOL     OW 2377   2.095   1.543   2.134 -0.0717 -0.1828 -0.2981
  793SOL    HW1 2378   2.155   1.613   2.078 -0.9262  2.6672 -0.2279
  793SOL    HW2 2379   2.094   1.447   2.089  0.9105  1.2399 -1.1932
  794SOL     OW 2380   0.520   1.400   2.348  0.0110 -0.5166  0.2468
  794SOL    HW1 2381   0.497   1.406   2.244  0.0404 -1.7775 -1.5734
  794SOL    HW2 2382   0.489   1.490   2.397 -1.9674  1.1606  0.3365
  795SOL     OW 2383   2.501   2.248   1.848 -0.1559  0.0774 -0.1585
  795SOL    HW1 2384   2.498   2.203   1.943  0.2542 -1.8571  0.2521
  795SOL    HW2 2385   2.434   2.206   1.779 -0.8689 -0.7634  0.3676
  796SOL     OW 2386   3.079   1.126   2.688 -0.6279  0.1456  0.3039
  796SOL    HW1 2387   2.979   1.112   2.709  2.2622 -0.8384  0.4698
  796SOL    HW2 2388   3.131   1.136   2.779 -2.5506 -0.8994  0.6468
  797SOL     OW 2389   0.750   0.644   1.395  0.5763  0.2138  0.4834
  797SOL    HW1 2390   0.837   0.686   1.437  0.1140 -0.5371 -0.1354
  797SOL    HW2 2391   0.685   0.718   1.360  0.7231 -1.1085 -0.7971
  798SOL     OW 2392   1.268   0.308   1.169  0.2088 -0.1992  0.1710
  798SOL    HW1 2393   1.334   0.281   1.242  0.9012 -1.8373 -0.5861
  798SOL    HW2 2394   1.314   0.372   1.092 -0.0645 -0.6785  0.8611
  799SOL     OW 2395   1.961   2.726   1.046  0.1609  0.2873 -0.2445
  799SOL    HW1 2396   1.928   2.670   1.126 -0.5664 -1.5644  1.3446
  799SOL    HW2 2397   1.916   2.696   0.954  0.3402 -0.5084 -0.6254
  800SOL     OW 2398   3.034   0.643   1.838 -0.4048  0.1412  0.2269
  800SOL    HW1 2399   3.022   0.728   1.899 -1.0560  0.8367 -0.1719
  800SOL    HW2 2400   3.103   0.575   1.885  1.3624 -1.5221 -0.5713
  801SOL     OW 2401   1.988   2.234   0.093 -0.1966 -0.0171 -0.5161
  801SOL    HW1 2402   1.913   2.234   0.023  1.5787  1.7060  0.4836
  801SOL    HW2 2403   2.065   2.167   0.063  0.2986  1.1795 -1.5173
  802SOL     OW 2404   0.707   0.828   2.553  0.2843 -0.0011 -0.7582
  802SOL    HW1 2405   0.766   0.781   2.482 -1.8086 -0.1322  0.1292
  802SOL    HW2 2406   0.611   0.855   2.518 -3.5663 -1.3800 -0.5978
  803SOL     OW 2407   0.941   0.057   0.852  0.3266  0.4448 -0.1164
  803SOL    HW1 2408   1.042   0.086   0.867  0.6079 -1.2010  2.3056
  803SOL    HW2 2409   0.881   0.141   0.826 -1.2326 -1.0921 -0.0114
  804SOL     OW 2410   0.273   0.045   2.131 -0.0344 -0.0935 -0.0446
  804SOL    HW1 2411   0.299   0.133   2.173 -0.1186 -0.2145  0.7773
  804SOL    HW2 2412   0.219   0.062   2.045 -0.1466  2.9492  0.1768
  805SOL     OW 2413   2.390   0.266   0.359 -0.2596  0.0222  0.1877
  805SOL    HW1 2414   2.458   0.325   0.411  0.0311  0.4652  2.2253
  805SOL    HW2 2415   2.421   0.242   0.262  2.1074 -1.2943 -0.3032
  806SOL     OW 2416   0.629   2.439   1.702  0.2469 -0.0343  0.4346
  806SOL    HW1 2417   0.606   2.540   1.719  0.4922  0.4035  0.4949
  806SOL    HW2 2418   0.728   2.423   1.673 -0.5842 -0.4429 -0.8617
  807SOL     OW 2419   2.469   0.892   0.396  0.1002 -0.5228 -0.1596
  807SOL    HW1 2420   2.563   0.917   0.434 -0.5111  0.6617 -1.5362
  807SOL    HW2 2421   2.458   0.942   0.305 -1.9632 -0.2628 -1.2625
  808SOL     OW 2422   0.559   2.045   2.934 -0.5586  0.2139 -0.4243
  808SOL    HW1 2423   0.553   2.105   3.019  1.0282 -0.4709 -0.1434
  808SOL    HW2 2424   0.574   1.944   2.959  1.2221  2.0736 -1.6941
  809SOL     OW 2425   2.703   1.953   1.936 -0.1287  0.1645 -0.0283
  809SOL    HW1 2426   2.803   1.980   1.943  0.6988  0.2667 -2.3379
  809SOL    HW2 2427   2.665   1.960   1.842  0.9342 -0.4381  0.8973
  810SOL     OW 2428   2.100   1.045   0.532 -0.2279  0.4528 -0.3796
  810SOL    HW1 2429   2.119   0.963   0.595  2.3444  1.4242  0.4821
  810SOL    HW2 2430   2.046   1.122   0.579  0.0556  1.9814  1.3061
  811SOL     OW 2431   1.351   2.504   1.250 -0.3162 -0.1992 -0.1382
  811SOL    HW1 2432   1.340   2.410   1.288 -3.0027  0.9584 -0.4093
  811SOL    HW2 2433   1.264   2.563   1.255 -0.9216  1.9782 -0.4562
  812SOL     OW 2434   1.420   0.816   1.927 -0.0332  0.2729  0.6531
  812SOL    HW1 2435   1.514   0.852   1.963  1.5644 -4.2410  2.5988
  812SOL    HW2 2436   1.334   0.880   1.931 -3.1977 -0.0218  0.1067
  813SOL     OW 2437   1.746   2.063   2.492 -0.6368 -0.4011  0.3643
  813SOL    HW1 2438   1.824   2.002   2.463  0.6378  1.2630  1.9997
  813SOL    HW2 2439   1.685   2.079   2.415 -0.8678  0.3272  1.3302
  814SOL     OW 2440   2.917   1.523   2.855  0.3434  0.3463 -0.1058
  814SOL    HW1 2441   3.007   1.512   2.912  1.5916 -1.3483 -1.1035
  814SOL    HW2 2442   2.918   1.611   2.800 -0.3270  0.1387 -0.5695
  815SOL     OW 2443   2.162   2.918   2.797 -0.3494  0.4333  0.0887
  815SOL    HW1 2444   2.139   2.863   2.881 -1.5812  1.4450 -0.8479
  815SOL    HW2 2445   2.268   2.920   2.782  0.5927  0.1939 -2.8434
  816SOL     OW 2446   1.642   0.324   1.649  0.2856 -0.0842 -0.4916
  816SOL    HW1 2447   1.672   0.228   1.659 -0.4529  1.9266 -1.8357
  816SOL    HW2 2448   1.553   0.348   1.698 -1.8320 -1.5019  0.8098
  817SOL     OW 2449   0.410   1.233   2.556  0.0853  0.0910  0.1593
  817SOL    HW1 2450   0.309   1.260   2.564 -0.8510 -0.1326  2.3288
  817SOL    HW2 2451   0.451   1.288   2.472 -1.0767  0.6260 -0.3904
  818SOL     OW 2452   1.926   0.822   0.472 -0.3358  0.2272 -0.3715
  818SOL    HW1 2453   1.949   0.921   0.482 -0.0316  0.0949 -0.4586
  818SOL    HW2 2454   1.855   0.798   0.548 -1.3683 -0.7071 -0.4309
  819SOL     OW 2455   2.750   2.966   3.005  0.0001  0.5964  0.3147
  819SOL    HW1 2456   2.820   2.899   2.960  1.1553 -0.5386 -1.3945
  819SOL    HW2 2457   2.654   2.955   2.966 -2.1948  1.6561 -2.3072
  820SOL     OW 2458   1.271   1.102   0.670 -0.2111  0.0554  0.6748
  820SOL    HW1 2459   1.250   1.202   0.681  0.5070  0.4637  0.0188
  820SOL    HW2 2460   1.224   1.035   0.744 -1.9143 -4.2003  3.5991
  821SOL     OW 2461   3.080   1.335   0.659 -0.2508 -0.4072  0.1629
  821SOL    HW1 2462   3.051   1.382   0.745 -0.9896 -1.3177 -0.9971
  821SOL    HW2 2463   3.157   1.392   0.609  0.8467  6.1767  1.8133
  822SOL     OW 2464   2.543   1.748   2.471  0.2815 -0.4929 -0.5063
  822SOL    HW1 2465   2.554   1.840   2.523 -0.1196  1.7278  0.2102
  822SOL    HW2 2466   2.465   1.750   2.404 -1.2607 -0.6051  2.4531
  823SOL     OW 2467   2.095   0.875   1.196 -0.1827  0.6286  0.1597
  823SOL    HW1 2468   2.090   0.879   1.302  1.3469  1.5801  2.4999
  823SOL    HW2 2469   2.008   0.914   1.153 -0.3446 -0.8897 -0.1371
  824SOL     OW 2470   0.196   2.072   2.788  0.4959  0.2151  0.0922
  824SOL    HW1 2471   0.147   1.994   2.840 -1.4530 -4.4722 -1.8337
  824SOL    HW2 2472   0.264   2.040   2.720  1.4316  0.6652  0.7522
  825SOL     OW 2473   1.282   1.082   0.260  0.2975 -0.1478 -0.5804
  825SOL    HW1 2474   1.278   1.189   0.251  1.7173 -0.9352 -0.6480
  825SOL    HW2 2475   1.230   1.044   0.343 -1.0666 -0.0211  0.3850
  826SOL     OW 2476   1.896   0.699   1.623  0.0878  0.1160  0.0326
  826SOL    HW1 2477   1.963   0.633   1.665 -2.1336  0.3810  1.3585
  826SOL    HW2 2478   1.815   0.653   1.577 -0.3751  0.8363  3.8263
  827SOL     OW 2479   0.662   1.299   0.277 -0.1972 -1.0912 -0.3004
  827SOL    HW1 2480   0.736   1.229   0.251  1.6628 -1.6250 -2.4313
  827SOL    HW2 2481   0.649   1.301   0.378 -0.4322  1.9097 -0.7154
  828SOL     OW 2482   2.508   0.076   1.593  0.3024  0.3689 -0.0314
  828SOL    HW1 2483   2.415   0.105   1.561 -0.4181 -1.1505 -0.1456
  828SOL    HW2 2484   2.495  -0.011   1.650  1.0723  0.0794  0.1636
  829SOL     OW 2485   2.796   2.454   2.998 -0.4590  0.6103  0.4240
  829SOL    HW1 2486   2.709   2.397   2.990  0.9340 -1.1482  1.5828
  829SOL    HW2 2487   2.785   2.536   3.059 -2.8194  0.6308 -0.1194
  830SOL     OW 2488   2.852   0.934   2.995 -0.1455 -0.0312  0.2288
  830SOL    HW1 2489   2.898   1.024   3.013  1.5133  1.8263 -0.4519
  830SOL    HW2 2490   2.867   0.864   3.071  1.5589 -3.0447  1.5437
  831SOL     OW 2491   0.103   0.634   0.431 -0.2728  0.4258 -0.3116
  831SOL    HW1 2492   0.095   0.574   0.514 -1.3045 -1.6892 -1.6126
  831SOL    HW2 2493   0.122   0.583   0.344 -0.8857 -1.6798 -1.0276
  832SOL     OW 2494   1.771   0.746   3.026  0.1830  0.0624 -0.4213
  832SOL    HW1 2495   1.675   0.784   3.009 -0.5286  0.5561 -0.6515
  832SOL    HW2 2496   1.778   0.639   3.024  0.2556 -0.5152 -1.1675
  833SOL     OW 2497   2.422   2.179   0.533  0.3234 -0.0356  0.2266
  833SOL    HW1 2498   2.322   2.188   0.516 -1.5490  3.0086  0.5701
  833SOL    HW2 2499   2.456   2.084   0.519 -0.4457 -0.0897  0.9294
  834SOL     OW 2500   0.207   0.217   0.538  0.1072  0.1659  0.1148
  834SOL    HW1 2501   0.211   0.133   0.601  0.5974  0.5785  1.2287
  834SOL    HW2 2502   0.214   0.198   0.440 -0.0427  1.4840  4.4655
  835SOL     OW 2503   2.399   1.552   1.142  0.2638 -0.2175 -0.5339
  835SOL    HW1 2504   2.416   1.636   1.203 -2.0458 -0.6538  0.7473
  835SOL    HW2 2505   2.453   1.546   1.057 -2.3086 -1.9883  0.1950
  836SOL     OW 2506   1.600   0.820   2.523 -0.0917  0.1362  0.1674
  836SOL    HW1 2507   1.501   0.794   2.529  1.4834 -2.2894  3.4059
  836SOL    HW2 2508   1.647   0.809   2.432 -1.7129 -0.4809 -0.0359
  837SOL     OW 2509   1.728   0.124   0.580 -0.4119 -0.3551 -0.5411
  837SOL    HW1 2510   1.674   0.172   0.651  1.5477  2.3719 -1.6024
  837SOL    HW2 2511   1.690   0.137   0.483 -2.7008 -1.6121 -2.4801
  838SOL     OW 2512   1.152   1.554   2.804  0.4491 -0.0521  0.4210
  838SOL    HW1 2513   1.142   1.525   2.903  0.9046  0.6273  0.7813
  838SOL    HW2 2514   1.121   1.477   2.739  1.0354  0.6987 -0.9437
  839SOL     OW 2515   1.654   0.336   0.986  0.5331 -0.2356 -0.0843
  839SOL    HW1 2516   1.663   0.393   1.071 -0.0222  1.4653  0.5402
  839SOL    HW2 2517   1.591   0.255   0.998 -0.7180  0.0722  1.3154
  840SOL     OW 2518   2.500   2.942   1.765  0.5398 -0.3865  0.0952
  840SOL    HW1 2519   2.402   2.908   1.757 -0.1794 -0.2117  1.0082
  840SOL    HW2 2520   2.562   2.867   1.786  1.2271  0.0174 -0.9553
  841SOL     OW 2521   1.511   0.844   2.968 -0.6608 -0.0196 -0.3537
  841SOL    HW1 2522   1.451   0.866   3.050 -0.9604 -1.2008  1.0531
  841SOL    HW2 2523   1.525   0.916   2.898  2.0728  0.6613  5.0150
  842SOL     OW 2524   0.827   1.551   0.931 -0.2934  0.5701  0.5887
  842SOL    HW1 2525   0.809   1.642   0.982  2.1294  1.7664 -0.0237
  842SOL    HW2 2526   0.757   1.477   0.953  1.0603  1.9433  1.8788
  843SOL     OW 2527   0.041   0.045   1.383  0.3723  0.0881  0.4950
  843SOL    HW1 2528   0.126   0.089   1.431 -0.4033  3.2582 -1.0491
  843SOL    HW2 2529   0.028  -0.057   1.395 -1.4941 -1.5910  2.1671
  844SOL     OW 2530   0.813   2.489   0.237  0.1812  0.0601  0.7963
  844SOL    HW1 2531   0.755   2.458   0.320  0.3965 -4.3431  0.4129
  844SOL    HW2 2532   0.753   2.564   0.192 -0.0500 -0.8492  1.3918
  845SOL     OW 2533   1.620   2.923   1.377  0.0160 -0.1859 -0.2991
  845SOL    HW1 2534   1.697   2.961   1.437 -1.0652  1.8345  0.7691
  845SOL    HW2 2535   1.558   2.858   1.426 -2.1786 -0.4279 -0.1603
  846SOL     OW 2536   1.552   2.892   0.698  0.0733  0.1686 -0.4113
  846SOL    HW1 2537   1.584   2.861   0.605 -0.7447 -0.4124  1.9087
  846SOL    HW2 2538   1.626   2.938   0.759 -2.5670 -0.2346  1.6135
  847SOL     OW 2539   2.051   1.661   0.338  0.5647 -0.5984 -0.2600
  847SOL    HW1 2540   2.031   1.559   0.342  2.2859  2.9249  1.5857
  847SOL    HW2 2541   1.974   1.709   0.283 -1.9539 -1.2110 -2.6895
  848SOL     OW 2542   2.461   0.886   2.591 -0.1032  0.0393 -0.7001
  848SOL    HW1 2543   2.416   0.959   2.650 -2.8386 -0.7508 -1.0442
  848SOL    HW2 2544   2.399   0.800   2.587 -1.0383 -0.7727  2.2887
  849SOL     OW 2545   2.612   0.861   2.350 -0.1218 -0.3024  0.4598
  849SOL    HW1 2546   2.694   0.799   2.369  0.2674 -1.2876 -0.7871
  849SOL    HW2 2547   2.546   0.863   2.430  0.6373  1.0716 -1.6455
  850SOL     OW 2548   1.530   0.159   1.288  0.0130  0.0617  0.7991
  850SOL    HW1 2549   1.538   0.122   1.192  0.3820 -5.2695  0.6527
  850SOL    HW2 2550   1.518   0.078   1.350 -2.4056 -2.8526 -0.1073
  851SOL     OW 2551   0.479   1.798   0.565 -0.3621 -0.0378  0.9408
  851SOL    HW1 2552   0.544   1.876   0.587 -0.8041  1.8077  1.8329
  851SOL    HW2 2553   0.455   1.790   0.466  1.4023 -1.6058  1.0565
  852SOL     OW 2554   0.797   2.124   1.642  0.0826  0.0447 -0.2957
  852SOL    HW1 2555   0.813   2.226   1.624 -0.9452 -0.3356  2.1638
  852SOL    HW2 2556   0.735   2.095   1.718  1.6294 -0.1962 -3.5150
  853SOL     OW 2557   2.523   1.511   2.597 -0.3524 -0.6521 -0.1318
  853SOL    HW1 2558   2.447   1.454   2.560 -2.3328 -0.1146 -0.1298
  853SOL    HW2 2559   2.525   1.605   2.547  2.7204  3.3709  0.8384
  854SOL     OW 2560   2.368   1.411   1.718  0.2210 -0.0336  0.2469
  854SOL    HW1 2561   2.427   1.368   1.645 -1.6573 -0.4587  0.7767
  854SOL    HW2 2562   2.283   1.353   1.740 -1.9073  0.2813 -0.2227
  855SOL     OW 2563   2.014   2.421   1.001 -0.0627  0.2055 -0.9094
  855SOL    HW1 2564   2.000   2.500   0.939 -0.6518 -1.1686 -1.3412
  855SOL    HW2 2565   2.079   2.429   1.077  1.9902 -1.6948 -0.6329
  856SOL     OW 2566   1.322   1.478   0.960  0.1205  0.5928  0.1921
  856SOL    HW1 2567   1.361   1.571   0.977 -0.5182 -0.0628  0.5093
  856SOL    HW2 2568   1.225   1.468   0.996 -1.9055  0.7120  0.9284
  857SOL     OW 2569   3.043   2.709   0.941  0.6419 -0.5031 -0.3279
  857SOL    HW1 2570   3.023   2.661   0.851 -0.3386 -2.3608  3.0670
  857SOL    HW2 2571   3.140   2.739   0.947  3.6362  1.3706 -1.5534
  858SOL     OW 2572   2.322   2.105   1.694 -0.1076  0.0168 -0.4357
  858SOL    HW1 2573   2.224   2.108   1.659 -0.3298  2.5181  1.4121
  858SOL    HW2 2574   2.373   2.017   1.662  0.6297 -1.5722 -1.1113
  859SOL     OW 2575   2.480   0.514   1.031 -0.2525 -0.1367 -0.2329
  859SOL    HW1 2576   2.537   0.564   0.964 -1.5892 -0.8534  1.0479
  859SOL    HW2 2577   2.533   0.433   1.069  0.3972  0.4902  0.5589
  860SOL     OW 2578   1.975   2.786   0.423  0.1817  0.0822  0.3974
  860SOL    HW1 2579   1.930   2.773   0.325 -3.2218  0.0599 -3.8005
  860SOL    HW2 2580   2.067   2.825   0.408 -0.6239 -0.6184  0.5717
  861SOL     OW 2581   1.007   2.424   2.873 -0.1226  0.3002  0.5119
  861SOL    HW1 2582   1.023   2.528   2.859  1.2583 -0.0666 -0.4091
  861SOL    HW2 2583   1.054   2.385   2.958  0.2862  0.2489 -0.2082
  862SOL     OW 2584   2.852   2.540   1.619 -0.0196  0.5415 -0.2841
  862SOL    HW1 2585   2.940   2.582   1.659 -0.4508 -1.4319  2.1217
  862SOL    HW2 2586   2.790   2.609   1.568  0.0573  1.3159  0.9509
  863SOL     OW 2587   1.849   2.731   0.174 -0.2469  0.1751 -0.5714
  863SOL    HW1 2588   1.876   2.635   0.206 -0.2465  0.1541  0.5304
  863SOL    HW2 2589   1.753   2.740   0.135  1.6944  0.0878 -0.5818
  864SOL     OW 2590   1.953   1.217   2.847 -0.5278 -0.1921  0.2909
  864SOL    HW1 2591   1.952   1.172   2.753  0.8503 -0.4576 -2.0213
  864SOL    HW2 2592   2.032   1.190   2.909  1.2139  0.8176 -0.4226
  865SOL     OW 2593   2.176   1.884   0.663  0.1109 -0.4711 -0.0468
  865SOL    HW1 2594   2.220   1.873   0.755 -1.5173 -1.4282 -0.4290
  865SOL    HW2 2595   2.077   1.851   0.660 -1.3385  2.3512 -1.6131
  866SOL     OW 2596   2.862   2.899   0.979  0.2515  0.0329  0.0075
  866SOL    HW1 2597   2.867   2.968   0.905 -0.6539 -1.0847 -0.0109
  866SOL    HW2 2598   2.933   2.823   0.972  1.8099 -0.6644 -1.2271
  867SOL     OW 2599   0.398   1.431   0.880 -0.7258  0.3995  0.5497
  867SOL    HW1 2600   0.376   1.334   0.839 -0.4125  1.3300 -1.3858
  867SOL    HW2 2601   0.370   1.509   0.825 -0.0762  1.0498  0.0509
  868SOL     OW 2602   0.777   1.896   2.059  0.5620  0.1749 -0.8339
  868SOL    HW1 2603   0.740   1.895   2.154 -2.1978 -0.4250 -1.3887
  868SOL    HW2 2604   0.747   1.980   1.998  0.0045  1.4591 -0.8469
  869SOL     OW 2605   2.529   1.923   1.668  0.0548 -0.4388 -0.0311
  869SOL    HW1 2606   2.605   1.987   1.647 -0.0316 -0.8541 -0.0688
  869SOL    HW2 2607   2.572   1.829   1.675 -2.8677  1.4272 -0.9328
  870SOL     OW 2608   2.262   2.691   1.225 -0.1709 -0.2062  0.8980
  870SOL    HW1 2609   2.241   2.592   1.200  1.8132 -0.2409  1.5370
  870SOL    HW2 2610   2.299   2.706   1.313 -2.2573 -0.0917 -2.7457
  871SOL     OW 2611   3.064   2.237   0.565 -0.6508 -0.1436 -0.2651
  871SOL    HW1 2612   3.016   2.292   0.637 -0.8779 -1.3087 -2.3887
  871SOL    HW2 2613   3.018   2.246   0.475 -1.2341 -0.3132  1.2021
  872SOL     OW 2614   2.100   0.531   1.708  0.3613  0.5059 -0.0598
  872SOL    HW1 2615   2.078   0.540   1.810 -2.2584 -1.2944 -0.6442
  872SOL    HW2 2616   2.179   0.464   1.690 -0.7194 -3.1865 -0.8924
  873SOL     OW 2617   1.720   2.124   3.071 -0.3170 -0.3465  0.0406
  873SOL    HW1 2618   1.639   2.160   3.128 -1.5407 -0.1251  1.4801
  873SOL    HW2 2619   1.702   2.125   2.967  1.0026 -2.7917 -1.9342
  874SOL     OW 2620   0.673   2.446   0.737 -0.0530 -0.0622  0.3455
  874SOL    HW1 2621   0.681   2.539   0.779 -1.8442 -0.0907 -2.8215
  874SOL    HW2 2622   0.766   2.399   0.737  3.5732  1.2271  1.0433
  875SOL     OW 2623   2.314   1.481   1.406  0.0800 -0.6478 -0.1671
  875SOL    HW1 2624   2.398   1.523   1.437 -0.1168  0.6250  0.6086
  875SOL    HW2 2625   2.294   1.500   1.304 -0.5066  0.0829 -1.9122
  876SOL     OW 2626   0.051   2.300   2.697 -0.1792 -0.4601  0.3368
  876SOL    HW1 2627   0.086   2.203   2.718 -2.4268 -0.6107  0.9466
  876SOL    HW2 2628   0.087   2.376   2.752  0.4554 -1.3191 -0.6333
  877SOL     OW 2629   2.949   2.683   0.513 -0.2708 -0.1456  0.5686
  877SOL    HW1 2630   2.903   2.773   0.543 -3.7919 -0.8634  1.9399
  877SOL    HW2 2631   2.986   2.631   0.597  0.9471 -0.2312  3.5066
  878SOL     OW 2632   2.783   1.516   2.227  0.0301 -0.5995 -0.1321
  878SOL    HW1 2633   2.790   1.595   2.157  2.5948  1.3781 -0.1476
  878SOL    HW2 2634   2.769   1.550   2.323  0.4743 -1.8185 -0.5615
  879SOL     OW 2635   2.420   0.108   1.214  0.4115  0.3772  0.1376
  879SOL    HW1 2636   2.419   0.020   1.270  0.4763  0.7866  1.8251
  879SOL    HW2 2637   2.370   0.097   1.121 -0.2362 -0.9798 -0.9866
  880SOL     OW 2638   0.786   0.494   2.209  0.0952 -0.4427 -0.0436
  880SOL    HW1 2639   0.723   0.461   2.285 -0.1757  0.7371  0.3693
  880SOL    HW2 2640   0.857   0.423   2.176 -0.1155 -3.4078  2.0632
  881SOL     OW 2641   0.902   0.057   0.480 -0.3218 -0.5030  0.0398
  881SOL    HW1 2642   0.953  -0.025   0.520  0.3129 -0.0717 -0.5288
  881SOL    HW2 2643   0.806   0.058   0.508  0.5019  1.7751  0.2930
  882SOL     OW 2644   2.706   1.691   1.684 -0.3703 -0.1753 -0.6024
  882SOL    HW1 2645   2.796   1.661   1.634 -0.4357 -2.2510  0.6708
  882SOL    HW2 2646   2.716   1.673   1.782  0.6912 -2.3782 -2.6485
  883SOL     OW 2647   0.876   0.518   0.925  0.2120 -0.1542 -0.6727
  883SOL    HW1 2648   0.905   0.599   0.980 -1.4512 -2.0787  0.0627
  883SOL    HW2 2649   0.893   0.428   0.971 -0.3851 -1.1128  0.0310
  884SOL     OW 2650   1.145   1.712   1.179  0.5604  0.1864  0.2185
  884SOL    HW1 2651   1.098   1.642   1.123 -0.6768 -1.1501  0.2757
  884SOL    HW2 2652   1.100   1.810   1.166 -2.3234 -0.5597 -1.1571
  885SOL     OW 2653   2.337   1.772   2.299  0.4709  0.1468  0.8206
  885SOL    HW1 2654   2.246   1.740   2.345 -0.3020 -0.2967 -0.5106
  885SOL    HW2 2655   2.309   1.860   2.252  2.1176 -0.0773 -0.8148
  886SOL     OW 2656   2.592   0.344   1.802 -0.2455 -0.5017 -0.4461
  886SOL    HW1 2657   2.599   0.268   1.867  1.2656 -0.4149 -2.7932
  886SOL    HW2 2658   2.667   0.416   1.822  0.7565  0.3351  2.3355
  887SOL     OW 2659   0.100   1.968   1.335 -0.2323 -0.3974 -0.0479
  887SOL    HW1 2660   0.073   1.877   1.292 -1.7465 -0.7071 -1.2254
  887SOL    HW2 2661   0.147   2.036   1.273  2.6848 -0.1406  1.5835
  888SOL     OW 2662   0.533   1.228   1.538 -0.1117 -0.1587 -0.6526
  888SOL    HW1 2663   0.542   1.281   1.454 -1.3997  0.1658  0.6977
  888SOL    HW2 2664   0.536   1.123   1.522  3.9100  0.0663  0.5660
  889SOL     OW 2665   0.810   2.515   2.152 -0.2471  0.0247  0.0922
  889SOL    HW1 2666   0.755   2.442   2.189  1.1373  0.0169  1.8849
  889SOL    HW2 2667   0.866   2.486   2.071 -1.0764  1.2574 -0.8613
  890SOL     OW 2668   2.423   2.478   0.234  0.0201 -0.3516  0.1143
  890SOL    HW1 2669   2.454   2.561   0.178  2.7183  1.3788  2.9955
  890SOL    HW2 2670   2.356   2.514   0.304 -0.1719 -0.7316  1.2154
  891SOL     OW 2671   2.506   1.708   0.636  0.5178  0.3309  0.6104
  891SOL    HW1 2672   2.524   1.652   0.725 -3.7362 -1.7946  1.7006
  891SOL    HW2 2673   2.404   1.699   0.608 -0.9715 -2.0020  1.3192
  892SOL     OW 2674   0.353   0.264   2.323  0.3190 -0.2569 -0.4890
  892SOL    HW1 2675   0.405   0.353   2.311 -0.2735  0.5295 -0.5909
  892SOL    HW2 2676   0.408   0.195   2.372 -0.4729  1.9522  1.4835
  893SOL     OW 2677   1.636   0.244   2.715  0.2121  0.2164 -0.4369
  893SOL    HW1 2678   1.715   0.301   2.751  1.2202  1.8610 -0.7883
  893SOL    HW2 2679   1.537   0.287   2.719 -2.1772 -0.6448  0.5238
  894SOL     OW 2680   2.175   2.055   0.041 -0.1895 -0.4651 -0.2571
  894SOL    HW1 2681   2.124   2.000  -0.031 -0.0251 -1.7641  2.5385
  894SOL    HW2 2682   2.205   1.994   0.116  0.3249  2.7641 -1.2779
  895SOL     OW 2683   2.839   1.455   0.914 -0.2833  0.0347  0.0304
  895SOL    HW1 2684   2.918   1.393   0.940  1.4190 -1.6089  1.3925
  895SOL    HW2 2685   2.859   1.553   0.942 -0.9002 -2.0184  0.0011
  896SOL     OW 2686   1.725   1.810   1.162 -0.7208 -0.0059 -0.2141
  896SOL    HW1 2687   1.742   1.739   1.086 -1.7971 -0.4983 -2.4412
  896SOL    HW2 2688   1.678   1.898   1.130 -0.1603  0.6008  0.7458
  897SOL     OW 2689   0.313   0.557   3.035 -0.0437 -0.2177  0.2073
  897SOL    HW1 2690   0.254   0.602   2.963  2.0649 -1.7868  0.7629
  897SOL    HW2 2691   0.389   0.623   3.061  0.6617  1.5892 -0.5482
  898SOL     OW 2692   0.589   2.870   1.058 -0.4391 -0.1777  0.4595
  898SOL    HW1 2693   0.613   2.959   1.017  0.5003 -0.1523  0.1311
  898SOL    HW2 2694   0.671   2.825   1.095  0.8764  0.5540  0.7073
  899SOL     OW 2695   2.846   0.901   1.350 -0.3674  0.0141 -0.1875
  899SOL    HW1 2696   2.813   0.842   1.271  0.5145 -0.3095 -2.3452
  899SOL    HW2 2697   2.919   0.972   1.325  1.0781  2.9811 -0.0659
  900SOL     OW 2698   1.000   2.519   2.448 -0.4510  0.2363  0.6401
  900SOL    HW1 2699   0.932   2.528   2.375 -2.2887 -0.1713 -2.4007
  900SOL    HW2 2700   0.977   2.448   2.524 -1.5740 -1.9244 -0.5393
  901SOL     OW 2701   1.897   2.384   1.365 -0.1870 -0.0803 -0.1591
  901SOL    HW1 2702   1.855   2.313   1.298  0.2271  0.6293 -0.1851
  901SOL    HW2 2703   1.996   2.363   1.395  1.2014 -0.0574  0.5214
  902SOL     OW 2704   2.566   1.649   1.456 -0.3043 -0.0152  0.0504
  902SOL    HW1 2705   2.620   1.664   1.544 -1.0122  2.7234  0.7560
  902SOL    HW2 2706   2.632   1.646   1.374  0.0789 -0.8827  0.9739
  903SOL     OW 2707   0.249   2.446   1.970 -0.1469  0.4008 -0.2437
  903SOL    HW1 2708   0.145   2.435   1.955 -2.8293 -2.1535  2.3521
  903SOL    HW2 2709   0.291   2.533   1.929 -0.4754  1.8623 -1.1201
  904SOL     OW 2710   1.993   0.792   2.586 -0.0421  0.1185  0.5271
  904SOL    HW1 2711   1.923   0.722   2.618  1.2328  1.0110 -1.3154
  904SOL    HW2 2712   2.020   0.783   2.486 -0.2686 -1.5021  0.4679
  905SOL     OW 2713   2.835   0.121   2.540  0.3307  0.2626  0.3819
  905SOL    HW1 2714   2.907   0.048   2.553  1.8408 -1.8493 -0.6185
  905SOL    HW2 2715   2.877   0.218   2.540 -1.1099  3.0405  0.4684
  906SOL     OW 2716   0.169   1.707   1.926  0.7197  0.3045 -0.2537
  906SOL    HW1 2717   0.090   1.703   1.853  0.0582  0.0383  1.6640
  906SOL    HW2 2718   0.238   1.784   1.899  0.3681  1.8228  2.4409
  907SOL     OW 2719   0.232   2.435   0.998  0.3958  0.1858  0.2840
  907SOL    HW1 2720   0.322   2.390   0.973  1.3127  0.3790 -0.2685
  907SOL    HW2 2721   0.196   2.497   0.925  1.4053 -0.6313  0.0237
  908SOL     OW 2722   2.810   3.037   0.392  0.2670  0.0937  0.1029
  908SOL    HW1 2723   2.728   3.080   0.338 -1.9618 -0.9446  0.8287
  908SOL    HW2 2724   2.853   2.953   0.345 -0.8108 -2.3277 -2.8715
  909SOL     OW 2725   0.844   1.057   2.651 -0.3681  0.0426  0.0818
  909SOL    HW1 2726   0.797   0.967   2.631  0.2487  1.7275  2.9739
  909SOL    HW2 2727   0.913   1.081   2.576 -1.2112 -0.6655  0.1761
  910SOL     OW 2728   1.805   1.890   2.168  0.0218 -0.0778  0.4379
  910SOL    HW1 2729   1.855   1.896   2.080 -0.8307  1.2528  0.4449
  910SOL    HW2 2730   1.718   1.941   2.169 -1.2940 -0.2080  0.3173
  911SOL     OW 2731   1.821   2.923   1.576  0.1703  0.2542  0.2859
  911SOL    HW1 2732   1.897   2.904   1.502 -1.3684  1.0278 -0.4361
  911SOL    HW2 2733   1.789   2.838   1.629  1.5458 -1.8305  2.7586
  912SOL     OW 2734   2.848   1.003   0.720  0.1197 -0.2064  0.5391
  912SOL    HW1 2735   2.855   0.941   0.802  0.2568  0.9005 -1.1223
  912SOL    HW2 2736   2.832   1.104   0.746  0.1052 -0.0217  4.0534
  913SOL     OW 2737   2.529   1.283   1.536  0.1595  0.0474  0.6783
  913SOL    HW1 2738   2.555   1.177   1.530 -0.4806 -2.5183 -2.2127
  913SOL    HW2 2739   2.585   1.327   1.460 -2.4653 -0.0179 -2.2052
  914SOL     OW 2740   2.778   0.593   1.174 -0.3107 -0.3581  0.3585
  914SOL    HW1 2741   2.808   0.502   1.200 -0.7934  1.9675  0.1041
  914SOL    HW2 2742   2.681   0.606   1.200  2.4473  1.1246 -2.0983
  915SOL     OW 2743   1.198   0.709   1.027  0.1285 -0.6481 -0.0869
  915SOL    HW1 2744   1.247   0.744   1.115 -1.1650  2.9362  0.4119
  915SOL    HW2 2745   1.096   0.732   1.036 -2.5022  3.1591  1.3699
  916SOL     OW 2746   0.614   0.029   0.644 -0.3378  0.3439 -0.2014
  916SOL    HW1 2747   0.656   0.100   0.712 -2.5275 -2.3136  2.0284
  916SOL    HW2 2748   0.614   0.055   0.544  0.9505 -2.5702 -1.9631
  917SOL     OW 2749   2.843   2.588   2.022 -0.1039  0.3556  0.3294
  917SOL    HW1 2750   2.745   2.603   1.993 -0.1232 -0.4659  2.6733
  917SOL    HW2 2751   2.912   2.633   1.956 -0.7536 -1.9569 -2.7039
  918SOL     OW 2752   1.015   2.104   3.028  0.1356 -0.3869  0.4807
  918SOL    HW1 2753   0.992   2.177   3.097 -0.1125 -2.4200  1.0263
  918SOL    HW2 2754   1.068   2.144   2.950 -0.9048 -1.5761 -1.0883
  919SOL     OW 2755   0.811   1.666   2.860  0.0002 -0.9587  0.0060
  919SOL    HW1 2756   0.867   1.730   2.798 -0.9847 -0.6520 -2.2957
  919SOL    HW2 2757   0.774   1.582   2.808 -0.6929 -1.6402 -1.1005
  920SOL     OW 2758   1.256   1.807   2.547 -0.0540  0.0328 -0.2469
  920SOL    HW1 2759   1.337   1.774   2.488 -0.6707 -1.0876 -1.8540
  920SOL    HW2 2760   1.225   1.720   2.595  1.9767 -1.3057 -0.6075
  921SOL     OW 2761   1.110   0.012   2.627 -0.2483  0.0687  0.2303
  921SOL    HW1 2762   1.068  -0.022   2.542  0.4122  1.4572  1.8367
  921SOL    HW2 2763   1.036   0.059   2.689 -2.4153  1.3640 -0.0893
  922SOL     OW 2764   2.236   2.390   2.781  0.3091 -0.2176  0.9076
  922SOL    HW1 2765   2.227   2.283   2.765 -3.0098 -3.2178 -1.7738
  922SOL    HW2 2766   2.176   2.437   2.706 -0.0835  0.0282 -1.1833
  923SOL     OW 2767   1.262   2.666   0.273 -0.1444  0.7398 -0.0756
  923SOL    HW1 2768   1.337   2.737   0.307  1.6388  0.6480  0.8809
  923SOL    HW2 2769   1.292   2.565   0.292  1.8478 -1.7606 -1.4686
  924SOL     OW 2770   2.853   1.686   0.092 -0.3449 -0.1417  0.4155
  924SOL    HW1 2771   2.803   1.707   0.002 -0.0773  0.0636 -1.3280
  924SOL    HW2 2772   2.897   1.591   0.089 -0.8530 -0.2475  0.1690
  925SOL     OW 2773   0.020   2.879   1.464 -0.5883  0.0763 -0.1616
  925SOL    HW1 2774  -0.052   2.903   1.538 -1.5007  0.1470  2.2081
  925SOL    HW2 2775   0.014   2.785   1.420 -2.4241  1.2025 -0.8819
  926SOL     OW 2776   1.321   2.806   1.339 -0.5766 -0.4487  0.0668
  926SOL    HW1 2777   1.353   2.797   1.237 -1.3282  0.2131 -0.8085
  926SOL    HW2 2778   1.339   2.901   1.385 -2.0708  1.2059  0.1240
  927SOL     OW 2779   0.315   2.681   1.761 -0.2379 -0.5760  0.0635
  927SOL    HW1 2780   0.265   2.598   1.717 -0.6154 -0.5929 -1.9136
  927SOL    HW2 2781   0.284   2.774   1.722 -1.3836  1.2436  1.0426
  928SOL     OW 2782   1.591   2.084   2.221 -0.0716 -0.1052 -0.0655
  928SOL    HW1 2783   1.642   2.169   2.192 -1.8542 -0.5275 -1.2013
  928SOL    HW2 2784   1.491   2.112   2.224 -2.5286  2.2776 -0.3227
  929SOL     OW 2785   2.467   2.513   2.852  0.0038  0.0874  0.0279
  929SOL    HW1 2786   2.375   2.483   2.815  0.4690  0.1560 -2.9115
  929SOL    HW2 2787   2.543   2.497   2.788 -0.0066 -0.1424  2.4501
  930SOL     OW 2788   2.166   2.016   1.092  0.8646  0.4891  0.1034
  930SOL    HW1 2789   2.155   1.974   1.187 -2.0494  0.7505 -4.5082
  930SOL    HW2 2790   2.237   2.097   1.090  2.7208 -0.6271 -0.2167
  931SOL     OW 2791   0.537   1.716   2.677  0.3015 -0.7599  0.1254
  931SOL    HW1 2792   0.533   1.754   2.772 -2.1643  1.6084  0.1823
  931SOL    HW2 2793   0.601   1.631   2.670 -1.3406 -2.5642 -1.5998
  932SOL     OW 2794   0.470   0.125   3.074 -0.2754  0.0280 -0.3661
  932SOL    HW1 2795   0.540   0.178   3.120 -1.8992 -1.1312  0.5128
  932SOL    HW2 2796   0.491   0.023   3.078  1.6127  1.1576  1.1716
  933SOL     OW 2797   0.947   0.819   3.046  0.3821 -0.0783  0.2043
  933SOL    HW1 2798   0.875   0.799   3.116  2.6768 -0.9730 -0.2043
  933SOL    HW2 2799   0.928   0.908   2.991 -0.0497  0.1220 -1.3954
  934SOL     OW 2800   0.778   2.966   2.665  0.0886  0.7014  0.5296
  934SOL    HW1 2801   0.756   2.903   2.584 -0.9210 -1.7058  0.0354
  934SOL    HW2 2802   0.862   2.923   2.716 -0.2336 -0.3523 -0.9850
  935SOL     OW 2803   0.027   0.522   0.842  0.7381 -0.0139  0.1795
  935SOL    HW1 2804   0.011   0.504   0.739  0.4398  0.7908 -2.9106
  935SOL    HW2 2805  -0.041   0.588   0.878  1.4857  0.8059 -1.2211
  936SOL     OW 2806   1.107   2.797   0.100 -0.0312 -0.9846  0.0061
  936SOL    HW1 2807   1.165   2.869   0.055 -0.5780 -2.2426 -0.4543
  936SOL    HW2 2808   1.166   2.735   0.165  2.6882 -1.1836 -2.9010
  937SOL     OW 2809   1.834   2.651   2.099 -0.0708 -0.2668  0.3091
  937SOL    HW1 2810   1.732   2.649   2.101  0.3634  1.0288 -1.3357
  937SOL    HW2 2811   1.869   2.733   2.047 -0.8472  1.5534 -0.6657
  938SOL     OW 2812   2.766   2.066   1.603 -0.3121  0.4142 -0.7904
  938SOL    HW1 2813   2.725   2.160   1.606 -0.1478  0.2775 -1.4516
  938SOL    HW2 2814   2.850   2.055   1.663 -0.9608 -1.0348 -0.5519
  939SOL     OW 2815   2.825   1.190   2.412  0.5279  0.2593  0.0449
  939SOL    HW1 2816   2.891   1.173   2.328 -1.6023  0.3272 -0.9354
  939SOL    HW2 2817   2.865   1.156   2.503 -2.5319 -0.4201  1.4479
  940SOL     OW 2818   1.071   0.441   2.782  0.2256  0.1423 -0.0802
  940SOL    HW1 2819   1.122   0.351   2.795 -1.0363 -0.5775 -2.3145
  940SOL    HW2 2820   1.003   0.422   2.703 -0.7809 -2.0123 -0.9007
  941SOL     OW 2821   0.027   2.785   2.287  0.5091  0.1488 -0.4183
  941SOL    HW1 2822   0.078   2.703   2.247  1.2304  0.2265 -1.2005
  941SOL    HW2 2823   0.091   2.866   2.318  0.1064 -1.2571  0.8658
  942SOL     OW 2824   0.117   0.044   2.572 -0.5784 -0.3157  0.2735
  942SOL    HW1 2825   0.178   0.060   2.651  1.0695 -0.5075 -1.4678
  942SOL    HW2 2826   0.114   0.124   2.511 -0.0823 -1.4260  0.6262
  943SOL     OW 2827   2.101   1.661   2.383 -0.1701 -0.5247 -0.2286
  943SOL    HW1 2828   2.090   1.622   2.290 -1.1047 -1.8517  2.6740
  943SOL    HW2 2829   2.099   1.598   2.462 -1.5675  3.9254 -1.8482
  944SOL     OW 2830   2.161   2.360   1.465 -0.1033 -0.2236 -0.3295
  944SOL    HW1 2831   2.252   2.393   1.509  3.6302 -0.9701  2.0957
  944SOL    HW2 2832   2.137   2.270   1.511  1.3280 -1.3973  1.6487
  945SOL     OW 2833   0.680   1.561   0.160  0.4060 -1.0493  0.1136
  945SOL    HW1 2834   0.607   1.585   0.091  1.0090  0.8834  3.7436
  945SOL    HW2 2835   0.666   1.462   0.193 -0.4221 -1.3295  0.1806
  946SOL     OW 2836   0.447   0.946   2.498  0.3368 -0.0541 -0.4890
  946SOL    HW1 2837   0.350   0.927   2.468 -0.8081 -1.3560  2.3189
  946SOL    HW2 2838   0.452   1.045   2.528 -0.1433  0.8870  1.5681
  947SOL     OW 2839   1.503   0.484   3.047  0.2002  0.1887 -0.4192
  947SOL    HW1 2840   1.478   0.540   2.968 -1.2867  0.1284  0.6431
  947SOL    HW2 2841   1.415   0.455   3.101  0.6939  1.6545 -1.5533
  948SOL     OW 2842   1.840   3.003   2.110 -0.4513 -0.1267  0.5383
  948SOL    HW1 2843   1.875   2.948   2.029 -0.1575 -1.1292 -0.5345
  948SOL    HW2 2844   1.861   2.954   2.201  0.1682 -0.3363 -2.1619
  949SOL     OW 2845   0.649   2.483   0.468  0.1130 -0.1370 -0.3766
  949SOL    HW1 2846   0.629   2.586   0.465 -3.2195 -2.1315 -0.3556
  949SOL    HW2 2847   0.652   2.436   0.559 -0.4789 -0.4770 -1.9559
  950SOL     OW 2848   0.234   2.216   3.028  0.0968 -0.1961 -0.2394
  950SOL    HW1 2849   0.180   2.303   3.003  2.0246  2.0849  0.4999
  950SOL    HW2 2850   0.243   2.147   2.950 -1.7430  1.1160  1.0356
  951SOL     OW 2851   1.176   2.645   2.819  0.8642  0.3557 -0.2815
  951SOL    HW1 2852   1.212   2.582   2.893  1.3484  3.3171 -1.6785
  951SOL    HW2 2853   1.233   2.639   2.735  0.5275  1.6201  0.3068
  952SOL     OW 2854   0.048   1.655   0.392  0.3927 -0.2682 -0.1473
  952SOL    HW1 2855   0.080   1.754   0.382 -0.4526 -0.6980 -1.9504
  952SOL    HW2 2856   0.092   1.597   0.458 -0.0222 -2.1778 -4.9913
  953SOL     OW 2857   2.556   1.755   0.221 -0.2491  0.0433 -0.1658
  953SOL    HW1 2858   2.551   1.649   0.232  0.6460  0.5841 -3.0641
  953SOL    HW2 2859   2.520   1.777   0.126 -0.7070  0.0924 -1.4664
  954SOL     OW 2860   2.222   0.538   0.928  0.0613 -0.2405 -0.2636
  954SOL    HW1 2861   2.193   0.576   0.835 -0.5407  1.4803 -0.5099
  954SOL    HW2 2862   2.326   0.526   0.940  2.3575 -0.7721 -2.8734
  955SOL     OW 2863   0.143   2.577   1.381 -0.1771  0.1444 -0.2172
  955SOL    HW1 2864   0.063   2.598   1.319  0.6173  0.6314  0.4823
  955SOL    HW2 2865   0.230   2.623   1.345  2.2232  2.5455  0.3263
  956SOL     OW 2866   2.806   2.440   2.485 -0.1050 -0.2132 -0.4559
  956SOL    HW1 2867   2.871   2.360   2.498  0.8790 -1.0720  1.7254
  956SOL    HW2 2868   2.849   2.515   2.420  0.0307  2.0787  2.0989
  957SOL     OW 2869   1.616   2.106   2.796  0.8645 -0.8602  0.0586
  957SOL    HW1 2870   1.574   2.008   2.797 -2.6572 -2.1536  0.6544
  957SOL    HW2 2871   1.686   2.107   2.722 -2.1197 -3.3281  0.7434
  958SOL     OW 2872   2.563   2.280   2.963  0.2954  0.3045 -0.2345
  958SOL    HW1 2873   2.519   2.346   2.897 -2.0966 -0.9248 -0.3487
  958SOL    HW2 2874   2.502   2.257   3.047 -1.2730 -0.4390 -2.8423
  959SOL     OW 2875   0.315   2.778   0.034  0.4440  0.2721  0.0803
  959SOL    HW1 2876   0.219   2.769  -0.001  1.2467 -0.7853  1.8357
  959SOL    HW2 2877   0.353   2.685   0.065  1.0406 -0.9070 -0.7443
  960SOL     OW 2878   1.964   0.480   1.962 -0.4485 -0.0730 -0.3677
  960SOL    HW1 2879   1.912   0.564   1.930 -0.0133 -2.0562 -1.3688
  960SOL    HW2 2880   1.989   0.481   2.064 -1.6861  1.1773  2.9771
  961SOL     OW 2881   2.553   1.857   1.055  0.0134  0.0238 -0.2430
  961SOL    HW1 2882   2.578   1.951   1.020  0.2213 -0.8395  1.3178
  961SOL    HW2 2883   2.497   1.852   1.145 -0.4882 -3.4561  0.9374
  962SOL     OW 2884   1.302   0.925   0.033  0.3380  0.3752 -0.1209
  962SOL    HW1 2885   1.256   0.914  -0.058 -1.0036  0.3773 -0.9464
  962SOL    HW2 2886   1.279   1.008   0.086  1.7028 -1.7392  1.4041
  963SOL     OW 2887   2.294   2.532   1.779 -0.3053  0.0321  0.6112
  963SOL    HW1 2888   2.226   2.462   1.824  3.3634  0.1134 -1.6607
  963SOL    HW2 2889   2.312   2.615   1.839 -0.4179  0.0991 -0.6410
  964SOL     OW 2890   2.370   0.398   1.650  0.0466  0.5911  0.0730
  964SOL    HW1 2891   2.460   0.383   1.700  0.5094 -1.5542 -0.8199
  964SOL    HW2 2892   2.385   0.408   1.543  0.5917  0.6916 -1.0773
  965SOL     OW 2893   2.600   2.990   0.151 -0.0900  0.1379 -0.1839
  965SOL    HW1 2894   2.668   2.974   0.073  0.2050  0.9261 -1.2943
  965SOL    HW2 2895   2.511   3.032   0.110 -1.2661 -1.1878  0.5273
  966SOL     OW 2896   2.562   2.549   2.338 -0.2651 -0.2639 -0.6131
  966SOL    HW1 2897   2.653   2.556   2.388 -1.0029 -3.7805 -0.6773
  966SOL    HW2 2898   2.516   2.642   2.334 -0.3490  0.3297  3.1411
  967SOL     OW 2899   2.780   2.834   2.449  0.3273 -0.5052  0.6034
  967SOL    HW1 2900   2.827   2.752   2.403 -1.1293 -1.3225 -0.8196
  967SOL    HW2 2901   2.850   2.891   2.504  0.9042 -2.1812  2.2879
  968SOL     OW 2902   1.936   1.069   2.589 -0.3260 -0.1174  0.0255
  968SOL    HW1 2903   1.853   1.101   2.544  3.7654 -1.3355  2.0907
  968SOL    HW2 2904   1.966   0.971   2.573  1.3607  1.2135  1.1279
  969SOL     OW 2905   2.762   2.493   1.132  0.4690 -0.3205 -0.4625
  969SOL    HW1 2906   2.735   2.488   1.032  0.1602 -2.2626 -0.7079
  969SOL    HW2 2907   2.805   2.403   1.165  2.7591  0.2278  0.5590
  970SOL     OW 2908   1.040   2.102   1.809 -0.5785 -0.4222  0.2545
  970SOL    HW1 2909   0.962   2.104   1.740  0.7156  2.1242 -1.0704
  970SOL    HW2 2910   1.007   2.134   1.904  0.4015  1.0186  1.0632
  971SOL     OW 2911   2.985   2.045   2.045 -0.0097  0.1454 -0.0462
  971SOL    HW1 2912   2.957   2.141   2.084  0.2528  2.2209  0.7025
  971SOL    HW2 2913   2.993   2.046   1.936  0.4072 -2.8752 -1.7615
  972SOL     OW 2914   1.984   2.493   0.237 -0.4087  0.7226  0.3958
  972SOL    HW1 2915   1.963   2.408   0.186  0.8547 -0.4023  0.2848
  972SOL    HW2 2916   2.029   2.467   0.328  0.5641 -1.6332 -2.8777
  973SOL     OW 2917   1.252   1.044   1.910  0.8279 -0.2518  0.3111
  973SOL    HW1 2918   1.169   0.988   1.894  0.6317  1.1090 -0.3636
  973SOL    HW2 2919   1.225   1.143   1.934  0.9053 -0.9981 -0.1852
  974SOL     OW 2920   1.575   0.577   1.944  0.4639 -0.1047  0.5074
  974SOL    HW1 2921   1.668   0.602   1.905  1.5315  1.3470  0.2572
  974SOL    HW2 2922   1.498   0.640   1.927 -1.1602 -0.5384  0.9584
  975SOL     OW 2923   2.372   3.031   3.091 -0.1488 -0.5871  0.2258
  975SOL    HW1 2924   2.336   2.938   3.120 -1.1036  0.0660  1.7824
  975SOL    HW2 2925   2.331   3.067   3.003  1.8212  2.1048  1.2417
  976SOL     OW 2926   1.897   2.819   2.337  0.0001  0.3756 -0.2648
  976SOL    HW1 2927   1.801   2.782   2.335 -0.0161  3.8299 -2.8953
  976SOL    HW2 2928   1.948   2.779   2.419 -0.5513 -0.8142  2.9718
  977SOL     OW 2929   0.492   0.693   1.064 -0.1225  0.2239  0.1997
  977SOL    HW1 2930   0.435   0.660   0.985 -0.0846 -1.6946 -4.0808
  977SOL    HW2 2931   0.564   0.766   1.042  2.2899  2.1126 -0.4312
   3.10000   3.10000   3.10000
