1000 SPC/Fw water molecules t=   0.04000 step= 40
 2931
    1SOL     OW    1   2.516   0.407   2.574  0.0017  0.0588 -0.0808
    1SOL    HW1    2   2.534   0.307   2.596 -0.2191 -3.0912  0.3399
    1SOL    HW2    3   2.566   0.469   2.642 -2.1020  1.3135  0.9310
    2SOL     OW    4   2.737   2.997   1.425 -0.3666 -0.5412  0.6733
    2SOL    HW1    5   2.816   3.054   1.387 -3.5068 -1.5838 -1.0148
    2SOL    HW2    6   2.693   3.041   1.509 -2.2795  1.4116  0.8289
    3SOL     OW    7   2.723   2.633   0.442 -0.6370  0.0101 -0.4682
    3SOL    HW1    8   2.701   2.534   0.455  0.4169 -0.0525  0.3927
    3SOL    HW2    9   2.794   2.657   0.510  1.7861 -0.8489 -0.8245
    4SOL     OW   10   1.313   1.442   2.330 -0.0798 -0.0500  0.2336
    4SOL    HW1   11   1.215   1.471   2.329  2.8990 -0.3206 -1.7741
    4SOL    HW2   12   1.323   1.350   2.380 -1.4291  1.5140  1.2967
    5SOL     OW   13   1.180   1.491   3.032  0.3438 -0.3116  0.5388
    5SOL    HW1   14   1.218   1.583   3.056 -1.6603 -0.7484 -0.2335
    5SOL    HW2   15   1.085   1.482   3.068  2.0624 -1.2020 -0.9660
    6SOL     OW   16   0.158   1.909   2.943 -0.3946 -0.7023  0.2508
    6SOL    HW1   17   0.195   1.930   3.036  0.2759  2.5575 -2.2652
    6SOL    HW2   18   0.097   1.823   2.937  2.0999 -0.1557  0.1077
    7SOL     OW   19   2.597   0.840   1.202  0.0564 -0.4829 -0.5323
    7SOL    HW1   20   2.638   0.756   1.247 -0.3204  0.8565  0.3606
    7SOL    HW2   21   2.597   0.848   1.100 -2.2114  3.2625  0.1408
    8SOL     OW   22   0.447   0.683   1.586 -0.0209 -0.2129 -0.7267
    8SOL    HW1   23   0.521   0.607   1.588 -0.7789 -2.1551  0.5976
    8SOL    HW2   24   0.370   0.673   1.521  2.0772  3.0070  0.4253
    9SOL     OW   25   1.149   0.900   2.264 -0.1815  0.0240 -0.0511
    9SOL    HW1   26   1.216   0.964   2.219 -0.7689 -2.4009  3.3377
    9SOL    HW2   27   1.054   0.897   2.211  0.0101  1.8684 -2.6616
   10SOL     OW   28   0.622   1.367   1.331  0.3451  0.0543 -0.2181
   10SOL    HW1   29   0.526   1.374   1.284  0.4238  0.7000  1.2628
   10SOL    HW2   30   0.685   1.437   1.291 -1.1320  1.1076 -0.9693
   11SOL     OW   31   2.328   2.547   0.904 -0.6589  0.0931  0.2169
   11SOL    HW1   32   2.344   2.598   0.991  0.4865  3.4341 -2.9105
   11SOL    HW2   33   2.406   2.478   0.881 -0.2017 -2.0761 -0.7416
   12SOL     OW   34   1.433   0.915   0.478 -0.3777 -0.1450  0.5260
   12SOL    HW1   35   1.434   0.944   0.380  1.3754  1.2759 -0.3781
   12SOL    HW2   36   1.394   0.819   0.491 -1.2615 -1.1307  2.3736
   13SOL     OW   37   2.438   0.684   1.792  0.5575  0.0103 -0.7540
   13SOL    HW1   38   2.372   0.676   1.874  0.8363 -2.5195  1.1261
   13SOL    HW2   39   2.413   0.625   1.714 -0.9707  1.8110 -1.9136
   14SOL     OW   40   1.788   0.028   0.537 -0.3355 -0.1927 -0.0676
   14SOL    HW1   41   1.695   0.072   0.525  1.8745  1.5170  1.5234
   14SOL    HW2   42   1.824   0.035   0.635  2.2663  0.3103 -1.0268
   15SOL     OW   43   1.975   2.053   2.801 -0.4642  0.2977  0.2284
   15SOL    HW1   44   1.914   2.137   2.795 -0.0712 -1.0384  0.0794
   15SOL    HW2   45   1.944   1.973   2.743  0.7723 -2.3758 -0.0741
   16SOL     OW   46   1.563   1.648   0.000  0.2818 -0.0010  0.4769
   16SOL    HW1   47   1.612   1.567  -0.036  2.4574  3.7482  1.4269
   16SOL    HW2   48   1.567   1.655   0.103 -0.9254  0.7792  0.0914
   17SOL     OW   49   0.066   0.483   0.140  0.7925 -0.8426  0.8678
   17SOL    HW1   50   0.156   0.507   0.091  2.9359  0.8135 -1.9360
   17SOL    HW2   51  -0.008   0.444   0.078 -2.8657 -1.6097  0.2961
   18SOL     OW   52   1.082   2.880   2.142  0.1399  0.3257  0.4741
   18SOL    HW1   53   1.007   2.854   2.074  0.3564 -2.3747 -2.2746
   18SOL    HW2   54   1.179   2.880   2.100  0.4159  1.2311  1.7767
   19SOL     OW   55   0.594   1.031   1.948 -0.4155 -0.7587  0.8282
   19SOL    HW1   56   0.528   1.038   2.028  0.2641 -3.0073  2.5071
   19SOL    HW2   57   0.671   0.969   1.974  1.9342 -1.0704 -2.9596
   20SOL     OW   58   0.253   2.724   0.854  0.7159 -0.1280  0.2963
   20SOL    HW1   59   0.166   2.773   0.829  0.3447  0.1855  0.9181
   20SOL    HW2   60   0.316   2.732   0.773  0.2720  0.3147 -1.6824
   21SOL     OW   61   2.825   0.232   2.126  0.3289 -0.6635  0.8184
   21SOL    HW1   62   2.902   0.166   2.108 -1.4234 -0.7410  0.5495
   21SOL    HW2   63   2.774   0.198   2.206  0.2536 -0.3305 -2.6541
   22SOL     OW   64   2.355   0.174   0.081 -0.0337  0.4663 -0.2644
   22SOL    HW1   65   2.347   0.067   0.073  0.6197 -3.2463  1.4655
   22SOL    HW2   66   2.260   0.216   0.066 -1.6992  0.7357  3.3941
   23SOL     OW   67   2.746   0.652   0.711  0.3276  0.6473 -0.6601
   23SOL    HW1   68   2.754   0.564   0.652 -1.1093 -2.0008 -2.2731
   23SOL    HW2   69   2.764   0.734   0.647  3.2812 -0.7733 -1.8817
   24SOL     OW   70   0.144   1.870   0.424  0.0361  0.0282  0.8900
   24SOL    HW1   71   0.044   1.898   0.398  0.3674 -2.8781 -0.6420
   24SOL    HW2   72   0.212   1.895   0.352 -1.8268 -2.4708  1.0119
   25SOL     OW   73   2.271   0.520   0.198 -0.0511 -0.6565 -0.2879
   25SOL    HW1   74   2.351   0.464   0.226 -3.5556  3.2686 -0.8700
   25SOL    HW2   75   2.261   0.528   0.098 -0.0391 -0.5182  4.0894
   26SOL     OW   76   2.525   2.156   2.069  0.6368  0.0508 -0.5067
   26SOL    HW1   77   2.585   2.220   2.125  0.8288  1.0063  1.0228
   26SOL    HW2   78   2.586   2.100   2.005  1.3014 -0.3069 -0.5025
   27SOL     OW   79   0.665   2.996   0.140  0.2221 -0.7549 -0.0592
   27SOL    HW1   80   0.744   3.063   0.118 -0.5111  2.3964 -3.7412
   27SOL    HW2   81   0.595   3.000   0.066 -0.6600  1.3269  1.3873
   28SOL     OW   82   1.459   0.227   0.188 -0.3445  0.2372  0.4533
   28SOL    HW1   83   1.565   0.211   0.174  2.4655  0.8173  0.9504
   28SOL    HW2   84   1.453   0.326   0.214  1.6232 -2.5481  1.2814
   29SOL     OW   85   2.018   0.575   0.315  0.1096 -0.1851 -0.1746
   29SOL    HW1   86   2.013   0.650   0.388  1.0317  2.6315  0.2596
   29SOL    HW2   87   2.109   0.567   0.273 -1.9479  0.8848 -2.9559
   30SOL     OW   88   0.197   2.048   0.903 -0.4356  0.5448  0.0198
   30SOL    HW1   89   0.163   2.032   0.807 -2.3313 -1.0378  0.4651
   30SOL    HW2   90   0.111   2.055   0.959  1.5496  1.1756 -1.5901
   31SOL     OW   91   2.107   0.017   2.335 -0.4765  0.7114 -0.4003
   31SOL    HW1   92   2.119  -0.002   2.434 -3.2410  0.3423 -0.8357
   31SOL    HW2   93   2.035  -0.044   2.295  0.6904  0.3132 -0.0751
   32SOL     OW   94   3.006   0.107   0.252 -0.4037  0.4911 -0.6705
   32SOL    HW1   95   2.930   0.041   0.275  1.3102 -0.1643  1.7857
   32SOL    HW2   96   3.094   0.068   0.207  2.7132  1.2509 -1.9378
   33SOL     OW   97   0.965   0.320   0.451  0.0083 -0.1977 -0.2659
   33SOL    HW1   98   0.913   0.230   0.446  1.1638  2.7086 -2.0351
   33SOL    HW2   99   1.020   0.340   0.536  1.5160  0.3072  1.3378
   34SOL     OW  100   0.373   2.896   1.037  0.0194 -0.5919  0.0055
   34SOL    HW1  101   0.319   2.816   0.995 -0.5242  1.3989 -1.3616
   34SOL    HW2  102   0.475   2.890   1.027 -0.5725  0.1023  0.3284
   35SOL     OW  103   0.048   3.091   1.789 -0.3806  0.0625  0.6698
   35SOL    HW1  104   0.090   3.010   1.744  2.6601 -1.6336  1.8215
   35SOL    HW2  105  -0.010   3.150   1.719 -4.0423 -1.0455 -1.9224
   36SOL     OW  106   1.898   1.155   1.778 -0.2800  0.1779  0.3411
   36SOL    HW1  107   1.990   1.132   1.729 -0.8507 -3.9087 -2.7767
   36SOL    HW2  108   1.873   1.259   1.780 -0.5997  4.7600  1.8939
   37SOL     OW  109   1.128   0.330   1.010 -0.1688 -0.2355 -0.0215
   37SOL    HW1  110   1.094   0.419   1.041 -0.8423 -1.9520  2.4057
   37SOL    HW2  111   1.213   0.291   1.057  0.9975  0.6013 -1.1855
   38SOL     OW  112   1.162   2.693   2.341 -0.5701  0.4326  0.3858
   38SOL    HW1  113   1.092   2.630   2.377  3.4892  3.2732 -1.7654
   38SOL    HW2  114   1.122   2.766   2.275  1.9363  2.2577 -0.1337
   39SOL     OW  115   2.426   1.507   0.011 -0.0957  0.4406 -1.3031
   39SOL    HW1  116   2.451   1.408  -0.006  2.0690 -2.8156 -0.5901
   39SOL    HW2  117   2.353   1.519   0.082 -0.2390 -0.0153  0.8134
   40SOL     OW  118   2.032   2.502   2.612  1.4537 -0.1864 -0.3194
   40SOL    HW1  119   1.973   2.575   2.655 -2.5120  0.5148  0.7199
   40SOL    HW2  120   1.978   2.430   2.555 -0.9109 -4.4362 -3.4430
   41SOL     OW  121   2.959   0.719   2.723 -0.6310 -0.0326  0.9963
   41SOL    HW1  122   2.881   0.780   2.707  0.0173 -1.0798  3.0511
   41SOL    HW2  123   2.930   0.625   2.749 -1.9355  2.3510 -2.5884
   42SOL     OW  124   1.698   1.737   0.591  0.2386  0.5161 -0.1246
   42SOL    HW1  125   1.665   1.643   0.557 -2.1105 -0.2666 -2.4465
   42SOL    HW2  126   1.759   1.788   0.525 -0.4098  0.4162  0.5179
   43SOL     OW  127   0.456   1.748   1.207  0.5630  0.1613 -0.2054
   43SOL    HW1  128   0.431   1.686   1.287  0.6397  0.1837 -0.9066
   43SOL    HW2  129   0.381   1.746   1.135 -0.4131 -2.4755  1.0600
   44SOL     OW  130   1.752   2.465   0.016  0.5482 -0.4501  0.3088
   44SOL    HW1  131   1.776   2.544  -0.050  0.7041 -1.3674 -0.3871
   44SOL    HW2  132   1.805   2.473   0.102 -4.2259 -5.7757  0.4456
   45SOL     OW  133   0.359   1.893   2.557  1.1677 -0.1766 -0.0691
   45SOL    HW1  134   0.308   1.919   2.471 -3.0065  0.0284 -1.6455
   45SOL    HW2  135   0.367   1.789   2.572  0.4277 -1.9973 -0.4954
   46SOL     OW  136   1.195   0.688   0.156 -0.6300 -0.0828  0.6253
   46SOL    HW1  137   1.229   0.762   0.090  0.8649 -0.5635  1.0935
   46SOL    HW2  138   1.120   0.720   0.224 -0.4909 -3.1900  4.0439
   47SOL     OW  139   0.230   2.419   1.575 -0.3003  0.4082  0.1930
   47SOL    HW1  140   0.314   2.358   1.553  3.7293 -1.8365 -1.5121
   47SOL    HW2  141   0.213   2.487   1.503  0.0078 -2.3395  0.7938
   48SOL     OW  142   2.654   0.553   0.106 -0.5627  0.3441 -0.3023
   48SOL    HW1  143   2.600   0.583   0.194  2.0806 -3.2211 -0.1553
   48SOL    HW2  144   2.734   0.619   0.100 -0.3533 -0.0216  1.9140
   49SOL     OW  145   0.364   0.865   1.761 -0.6798 -0.7129  0.0195
   49SOL    HW1  146   0.429   0.907   1.831  2.0836  1.7359  1.2102
   49SOL    HW2  147   0.408   0.788   1.707  0.5869  0.0303 -2.0572
   50SOL     OW  148   1.700   1.068   0.274  0.8365  0.5614  0.1823
   50SOL    HW1  149   1.714   0.965   0.278  1.9092  0.7861 -0.6744
   50SOL    HW2  150   1.657   1.097   0.362 -3.4355 -0.6180  1.4256
   51SOL     OW  151   2.992   1.899   0.330 -0.1687 -0.5019  0.5209
   51SOL    HW1  152   2.986   1.925   0.229  0.3103  2.0704 -1.4706
   51SOL    HW2  153   2.986   1.797   0.346 -1.5227 -1.1028 -0.0433
   52SOL     OW  154   0.806   1.890   0.487  0.2466  0.5762 -0.8246
   52SOL    HW1  155   0.760   1.968   0.535 -2.8479 -2.6303 -1.5886
   52SOL    HW2  156   0.853   1.823   0.550 -0.2688 -2.5378  1.9689
   53SOL     OW  157   3.099   0.396   1.528  0.1656 -0.5737 -0.0223
   53SOL    HW1  158   3.029   0.374   1.597  0.1681  0.8226  1.8396
   53SOL    HW2  159   3.091   0.494   1.498  1.3714 -2.7675  0.4973
   54SOL     OW  160   1.766   0.472   3.007 -0.0486  0.4298 -0.1375
   54SOL    HW1  161   1.817   0.438   3.096  2.9593 -0.2270  0.8335
   54SOL    HW2  162   1.671   0.431   2.995 -1.2843 -0.5134 -2.4695
   55SOL     OW  163   0.688   2.905   0.647  0.2960  0.1886  0.3640
   55SOL    HW1  164   0.646   3.002   0.636  0.3205 -0.7144 -1.2718
   55SOL    HW2  165   0.787   2.914   0.649 -0.2170  4.2011  0.0733
   56SOL     OW  166   0.472   1.544   3.094  0.5888  0.3815 -0.4413
   56SOL    HW1  167   0.378   1.586   3.104  1.3886  0.9833  0.5312
   56SOL    HW2  168   0.468   1.438   3.103  0.1675 -3.1699 -0.1230
   57SOL     OW  169   1.742   2.383   2.674  0.6109  0.1570  0.3886
   57SOL    HW1  170   1.789   2.345   2.587  2.6806 -2.0597  0.0253
   57SOL    HW2  171   1.649   2.414   2.646  0.5540 -1.5157 -2.1471
   58SOL     OW  172   0.653   0.479   1.102 -0.2770  0.3276 -0.0190
   58SOL    HW1  173   0.590   0.550   1.062 -1.1820 -1.3637  1.9712
   58SOL    HW2  174   0.597   0.393   1.097 -1.7087 -1.4017 -0.4426
   59SOL     OW  175   0.478   2.391   2.703 -0.3408 -0.1075 -0.6044
   59SOL    HW1  176   0.480   2.288   2.725  2.0434 -3.8234  0.0085
   59SOL    HW2  177   0.537   2.444   2.769 -0.2342  3.5179  1.8493
   60SOL     OW  178   2.321   2.160   2.259 -0.1076  0.1707 -0.3453
   60SOL    HW1  179   2.400   2.181   2.195  0.6294  1.1329 -2.2040
   60SOL    HW2  180   2.337   2.198   2.354 -3.1749  0.8969  1.4300
   61SOL     OW  181   1.339   0.654   0.439 -0.0125  0.2837 -0.3269
   61SOL    HW1  182   1.260   0.633   0.503  2.6516 -2.1511  2.1831
   61SOL    HW2  183   1.312   0.639   0.338 -1.9103  0.5332 -1.7799
   62SOL     OW  184   2.730   1.879   3.068  0.0301  0.1031  0.6620
   62SOL    HW1  185   2.707   1.779   3.072  0.2135 -0.0787 -1.5969
   62SOL    HW2  186   2.667   1.928   3.004  0.3820 -1.6299 -0.3411
   63SOL     OW  187   0.575   0.818   0.131 -0.5554 -0.0754  0.3043
   63SOL    HW1  188   0.529   0.908   0.116  0.4629 -0.5445 -0.5224
   63SOL    HW2  189   0.600   0.797   0.229 -0.1467 -1.4890  0.9364
   64SOL     OW  190   0.068   0.561   2.486 -0.1077 -0.1260  0.5738
   64SOL    HW1  191   0.126   0.609   2.555 -0.1762 -1.5418  0.7454
   64SOL    HW2  192   0.046   0.609   2.394  1.0044  1.4848 -3.0852
   65SOL     OW  193   0.176   1.491   0.614 -0.2625  0.1870 -0.1514
   65SOL    HW1  194   0.194   1.562   0.688 -0.6873 -1.1061 -0.5485
   65SOL    HW2  195   0.253   1.487   0.544  1.0140  0.3828 -0.4871
   66SOL     OW  196   2.462   0.330   0.626  0.5628  0.0363  0.0905
   66SOL    HW1  197   2.382   0.396   0.612  1.5589  2.2834  1.1594
   66SOL    HW2  198   2.435   0.246   0.676  0.5251  3.5184 -0.5337
   67SOL     OW  199   0.471   2.561   1.300 -0.0341  0.7623 -0.1282
   67SOL    HW1  200   0.567   2.587   1.331 -3.8935 -1.6203  0.2400
   67SOL    HW2  201   0.458   2.457   1.300 -0.4298  0.8348 -0.4045
   68SOL     OW  202   0.988   1.101   2.398 -0.0660 -0.2122  0.6232
   68SOL    HW1  203   1.054   1.048   2.338 -1.6703  3.1409 -1.8380
   68SOL    HW2  204   0.924   1.158   2.338  2.4264 -1.4393 -1.5673
   69SOL     OW  205   0.776   2.720   2.178  0.5966  0.1782  0.1366
   69SOL    HW1  206   0.801   2.620   2.198 -0.3054  1.5932 -1.7644
   69SOL    HW2  207   0.674   2.743   2.201 -2.9217 -1.3550  1.6602
   70SOL     OW  208   0.549   0.227   2.697  0.6592 -0.1497 -0.0874
   70SOL    HW1  209   0.533   0.263   2.792  2.1200  0.9583  0.8580
   70SOL    HW2  210   0.560   0.123   2.697 -0.6746  0.2606  2.2689
   71SOL     OW  211   1.107   1.773   0.355  0.5774  0.0407  0.2601
   71SOL    HW1  212   1.068   1.680   0.377 -1.1418  3.7920 -1.1623
   71SOL    HW2  213   1.083   1.801   0.258  0.0969  2.0919  1.0361
   72SOL     OW  214   1.782   0.117   2.075 -0.3959 -1.0991  0.0144
   72SOL    HW1  215   1.828   0.152   1.987 -1.7261 -1.0722  0.2729
   72SOL    HW2  216   1.818   0.028   2.102 -1.1272  0.0988  1.2504
   73SOL     OW  217   2.852   2.201   2.497  0.1493  0.0174 -0.0509
   73SOL    HW1  218   2.819   2.125   2.430 -0.8273  0.2259 -1.0762
   73SOL    HW2  219   2.893   2.164   2.583  1.2184  1.3635 -1.3224
   74SOL     OW  220   2.706   2.964   2.107 -0.1740  0.0069 -0.2017
   74SOL    HW1  221   2.636   2.925   2.173 -0.0040  0.9632 -1.2772
   74SOL    HW2  222   2.800   2.976   2.152  4.2002 -0.0611 -3.9637
   75SOL     OW  223   0.917   0.767   0.954 -0.2781  0.0049 -0.2083
   75SOL    HW1  224   0.822   0.809   0.947  4.0060 -1.5311 -1.8500
   75SOL    HW2  225   0.958   0.780   1.048 -0.6803  1.2199  0.8292
   76SOL     OW  226   1.751   1.250   2.558 -0.3348 -0.3535  0.6209
   76SOL    HW1  227   1.651   1.238   2.542  0.6293  0.1574  2.0745
   76SOL    HW2  228   1.767   1.325   2.624 -1.1903 -1.8464 -0.5325
   77SOL     OW  229   2.989   1.003   1.020  0.1341 -0.0597 -0.4761
   77SOL    HW1  230   2.956   0.910   0.991 -2.1592  1.2858  0.2440
   77SOL    HW2  231   3.060   1.001   1.093  0.1269  1.7631 -2.8450
   78SOL     OW  232   1.987   1.394   1.439 -0.3304  0.2871 -0.1206
   78SOL    HW1  233   2.037   1.389   1.349  3.1092 -0.3602  3.2038
   78SOL    HW2  234   1.883   1.392   1.434 -1.1012 -2.1694  0.8297
   79SOL     OW  235   0.634   1.286   0.831 -0.5848 -0.3149  0.3029
   79SOL    HW1  236   0.534   1.272   0.806  1.9743  2.7974  0.1221
   79SOL    HW2  237   0.691   1.212   0.790 -2.2874 -0.5671 -1.1951
   80SOL     OW  238   0.659   0.504   1.610 -0.3645 -0.1700 -0.5334
   80SOL    HW1  239   0.733   0.556   1.561  2.3400  1.4540  2.7847
   80SOL    HW2  240   0.647   0.409   1.580 -0.1255  0.3337 -0.2357
   81SOL     OW  241   1.113   1.458   2.601  0.2437 -0.0594 -0.1048
   81SOL    HW1  242   1.073   1.416   2.686  0.1989 -0.6490  0.3131
   81SOL    HW2  243   1.046   1.492   2.529 -0.5561 -2.5646  1.2626
   82SOL     OW  244   0.897   3.007   1.532 -0.0031  0.3399 -0.1605
   82SOL    HW1  245   0.974   2.993   1.469  0.7367 -1.5887  1.5601
   82SOL    HW2  246   0.821   2.943   1.514 -0.2238  1.9618  1.2919
   83SOL     OW  247   2.726   2.424   0.802  0.4982 -0.2655  0.5115
   83SOL    HW1  248   2.636   2.375   0.787  3.1861  2.4341 -1.5389
   83SOL    HW2  249   2.747   2.502   0.733 -1.6502  0.2540 -1.6117
   84SOL     OW  250   0.658   0.013   2.412 -0.2792 -0.0854 -0.0695
   84SOL    HW1  251   0.584  -0.015   2.478  0.1549  0.9283  0.9537
   84SOL    HW2  252   0.744  -0.050   2.412 -0.3344  2.3221  0.5210
   85SOL     OW  253   0.341   1.644   1.465 -0.0192  0.0114  0.1898
   85SOL    HW1  254   0.294   1.729   1.495  3.8076 -2.6710 -0.6782
   85SOL    HW2  255   0.387   1.589   1.542 -0.7417  1.9648  0.7347
   86SOL     OW  256   0.349   0.985   1.482  0.2895  0.7825  0.2881
   86SOL    HW1  257   0.339   0.918   1.401 -1.9719 -0.7102  0.0807
   86SOL    HW2  258   0.407   0.954   1.561  2.4053  0.4890 -0.3007
   87SOL     OW  259   1.542   0.556   0.199  0.5081  0.1495 -0.0324
   87SOL    HW1  260   1.585   0.645   0.227 -1.1575 -0.2039 -1.0462
   87SOL    HW2  261   1.535   0.548   0.095  0.3293  1.6788  1.6354
   88SOL     OW  262   1.618   1.340   0.207  0.0935 -0.6215  0.3548
   88SOL    HW1  263   1.636   1.240   0.211  0.7594 -0.4299 -2.5830
   88SOL    HW2  264   1.515   1.361   0.209 -0.5126 -3.0098  0.6323
   89SOL     OW  265   2.997   0.432   0.594  0.1348 -0.8610 -0.0221
   89SOL    HW1  266   3.048   0.341   0.608 -1.0353  3.2525 -2.1269
   89SOL    HW2  267   2.894   0.417   0.592  0.2401  0.3778 -1.3769
   90SOL     OW  268   0.847   1.636   3.082  0.5727 -0.3211 -0.0638
   90SOL    HW1  269   0.784   1.634   3.163 -0.6509 -1.4424 -0.4488
   90SOL    HW2  270   0.808   1.580   3.004 -0.3584  1.5483 -1.0651
   91SOL     OW  271   1.254   1.353   1.808 -0.5146  0.6731  0.5126
   91SOL    HW1  272   1.277   1.454   1.823 -0.1501  0.3224  0.4550
   91SOL    HW2  273   1.337   1.291   1.788  2.1768 -0.3964 -0.7995
   92SOL     OW  274   0.075   1.099   1.213  0.3571 -0.1883 -0.5435
   92SOL    HW1  275   0.166   1.095   1.157 -1.4201  1.0746 -1.9795
   92SOL    HW2  276   0.077   1.041   1.303  1.1218 -1.7987  0.3944
   93SOL     OW  277   0.115   2.820   3.051  0.3565  0.4834 -0.5323
   93SOL    HW1  278   0.016   2.816   3.022 -1.1287 -0.9950 -0.9788
   93SOL    HW2  279   0.144   2.758   3.127  0.8357 -1.1783 -1.0169
   94SOL     OW  280   1.505   1.263   1.681 -0.0969  0.0957 -0.3912
   94SOL    HW1  281   1.549   1.196   1.747 -0.5064  1.7951  1.4003
   94SOL    HW2  282   1.535   1.362   1.691  3.0105 -2.6228 -0.4781
   95SOL     OW  283   1.420   2.493   2.926 -0.5214  0.4097 -0.8919
   95SOL    HW1  284   1.374   2.493   3.018 -2.5606 -2.9038 -0.8534
   95SOL    HW2  285   1.468   2.402   2.905  0.5139 -2.2139 -1.3691
   96SOL     OW  286   0.527   2.037   1.240 -0.0853 -0.1243  0.1626
   96SOL    HW1  287   0.521   2.066   1.139  0.0677 -0.9721 -0.9375
   96SOL    HW2  288   0.488   1.941   1.258 -1.8130 -0.7066 -2.2431
   97SOL     OW  289   0.317   1.447   2.455 -0.7643 -0.3505 -0.2217
   97SOL    HW1  290   0.222   1.407   2.480  0.2451 -1.3639  1.2330
   97SOL    HW2  291   0.361   1.485   2.545 -0.0503 -0.7716  1.7061
   98SOL     OW  292   2.122   1.655   1.240 -0.4076 -0.0313  0.4496
   98SOL    HW1  293   2.107   1.564   1.190  0.2760  2.7123  2.3569
   98SOL    HW2  294   2.168   1.643   1.330  3.6559 -1.9892 -1.4413
   99SOL     OW  295   2.528   2.188   1.383 -0.2259 -0.6243 -0.6917
   99SOL    HW1  296   2.480   2.110   1.435  0.3059 -0.0452  1.9936
   99SOL    HW2  297   2.591   2.246   1.443  2.2239 -2.1046 -0.5104
  100SOL     OW  298   2.277   0.383   2.067 -0.1719  0.5808  0.0628
  100SOL    HW1  299   2.207   0.356   2.138  1.8176  1.0402  0.0911
  100SOL    HW2  300   2.374   0.388   2.112  2.6803 -2.0779  0.2016
  101SOL     OW  301   0.403   1.417   0.229  0.4009  0.2504  0.3234
  101SOL    HW1  302   0.415   1.432   0.328 -0.3043 -3.0444 -1.6249
  101SOL    HW2  303   0.378   1.504   0.175  0.0142  0.1038 -0.1444
  102SOL     OW  304   2.238   1.126   0.875 -0.2017 -0.7576  0.1157
  102SOL    HW1  305   2.185   1.047   0.836  0.9984 -0.7230  1.9086
  102SOL    HW2  306   2.267   1.198   0.803  0.7704 -2.0916 -2.4510
  103SOL     OW  307   2.282   0.090   0.398 -0.0265 -0.3077 -0.4650
  103SOL    HW1  308   2.350   0.171   0.379  1.0091 -1.5877  1.6949
  103SOL    HW2  309   2.323   0.019   0.459 -1.6207  3.9279  1.4178
  104SOL     OW  310   0.097   1.857   2.159 -0.2037 -0.2732 -0.7112
  104SOL    HW1  311   0.118   1.787   2.093 -0.2255  3.8963  1.7623
  104SOL    HW2  312   0.000   1.891   2.148 -0.4446  1.7494  3.2764
  105SOL     OW  313   1.068   1.970   0.813  0.4977 -0.2529  0.3128
  105SOL    HW1  314   1.021   2.031   0.740  2.3196  1.3372  0.3850
  105SOL    HW2  315   1.105   1.880   0.775 -1.5853 -0.3629 -1.1678
  106SOL     OW  316   2.073   0.506   1.351 -0.3249 -0.4092 -0.2354
  106SOL    HW1  317   2.003   0.443   1.393 -2.2650 -0.6001 -0.0155
  106SOL    HW2  318   2.077   0.596   1.402 -0.0701  1.5754 -0.4510
  107SOL     OW  319   1.850   3.004   1.130  0.0228 -0.0438  0.2227
  107SOL    HW1  320   1.893   3.084   1.176  0.4081 -0.3897 -0.7949
  107SOL    HW2  321   1.811   2.932   1.193  1.3076  0.5953  0.5560
  108SOL     OW  322   0.740   2.649   1.312  0.6385 -0.6204  0.1909
  108SOL    HW1  323   0.716   2.706   1.394 -0.7805 -0.9311 -2.9495
  108SOL    HW2  324   0.842   2.621   1.309  2.2404 -0.7659  2.0351
  109SOL     OW  325   2.024   0.165   0.677 -0.1859 -0.2991  0.3620
  109SOL    HW1  326   2.006   0.061   0.684  0.4453 -0.8682  1.1046
  109SOL    HW2  327   1.983   0.220   0.756  1.7129 -2.9283  0.1768
  110SOL     OW  328   0.505   2.695   2.804 -0.0939 -0.4443 -0.4092
  110SOL    HW1  329   0.515   2.713   2.698 -0.3560  0.9632 -0.7390
  110SOL    HW2  330   0.589   2.663   2.845 -1.4570  1.2873 -0.8991
  111SOL     OW  331   1.280   0.530   2.351 -0.1205  0.1946 -0.0815
  111SOL    HW1  332   1.217   0.600   2.390 -1.3633 -1.5294  4.3394
  111SOL    HW2  333   1.324   0.468   2.419 -0.3036  0.1982 -0.9172
  112SOL     OW  334   1.721   0.520   1.422 -0.6453 -0.6398  0.3094
  112SOL    HW1  335   1.739   0.503   1.322 -1.7562  1.6671  1.0822
  112SOL    HW2  336   1.708   0.436   1.479 -1.0718  3.4533  2.1053
  113SOL     OW  337   2.271   1.671   1.774  0.2531 -0.4737 -0.3745
  113SOL    HW1  338   2.351   1.610   1.763  0.3105 -2.9767  1.6417
  113SOL    HW2  339   2.272   1.723   1.868 -0.7468  1.5060 -2.7265
  114SOL     OW  340   0.424   0.575   1.303 -0.0462  0.0299 -0.1643
  114SOL    HW1  341   0.352   0.642   1.275 -2.5663 -0.2184 -0.1048
  114SOL    HW2  342   0.453   0.514   1.227 -1.6961 -1.6659  0.9589
  115SOL     OW  343   2.708   1.582   1.273 -0.2622 -0.1991  0.1707
  115SOL    HW1  344   2.734   1.486   1.299  0.3558 -0.7728 -1.3586
  115SOL    HW2  345   2.769   1.621   1.197  2.4143 -1.3816 -0.1088
  116SOL     OW  346   1.813   1.068   0.758  0.3575 -0.3069  0.0188
  116SOL    HW1  347   1.754   0.996   0.713  0.0023  2.0802  0.8962
  116SOL    HW2  348   1.791   1.168   0.729 -0.3797 -0.9023  0.4106
  117SOL     OW  349   1.081   0.417   0.704  0.1892  0.1415 -0.4798
  117SOL    HW1  350   1.055   0.423   0.804 -0.5657  1.3263 -2.5269
  117SOL    HW2  351   1.098   0.508   0.659 -0.8251 -0.5955 -0.5476
  118SOL     OW  352   1.101   1.051   0.975 -0.7667 -0.3477  0.6063
  118SOL    HW1  353   1.068   0.978   1.039  1.8351  1.0829  1.3307
  118SOL    HW2  354   1.104   1.136   1.031 -1.0910  0.7477  0.3354
  119SOL     OW  355   1.851   1.624   1.984 -0.0226  0.1163 -0.4121
  119SOL    HW1  356   1.803   1.705   2.034 -2.8493  2.4097  1.1262
  119SOL    HW2  357   1.947   1.613   2.014 -4.1427  0.1884  1.0238
  120SOL     OW  358   2.980   2.774   0.226 -0.8721  0.4311  0.3633
  120SOL    HW1  359   2.912   2.745   0.156  2.2582 -4.0785 -0.3459
  120SOL    HW2  360   3.022   2.700   0.284  0.6355  0.9227 -1.1614
  121SOL     OW  361   2.105   0.699   2.242  0.1808  0.4798 -0.5316
  121SOL    HW1  362   2.174   0.693   2.171 -2.5935  1.0323  0.9232
  121SOL    HW2  363   2.023   0.634   2.225 -0.1519 -3.7234  1.1945
  122SOL     OW  364   2.705   2.552   1.326 -0.2398 -0.4852  0.1556
  122SOL    HW1  365   2.700   2.568   1.217 -0.8291 -1.3459 -2.8248
  122SOL    HW2  366   2.627   2.499   1.354  1.9744  0.4248  1.1462
  123SOL     OW  367   1.728   0.009   1.693 -0.1009  0.6140 -0.0610
  123SOL    HW1  368   1.732  -0.067   1.624  3.3656 -0.1122 -0.2939
  123SOL    HW2  369   1.789   0.092   1.668  1.7672  3.9395  2.1120
  124SOL     OW  370   0.167   0.476   0.942  0.3590  0.4224  0.4936
  124SOL    HW1  371   0.149   0.518   1.035  4.4357  0.4743  4.1037
  124SOL    HW2  372   0.090   0.495   0.877  1.8242 -3.1196 -2.2381
  125SOL     OW  373   0.888   1.693   0.693 -0.4130  0.1825 -0.1897
  125SOL    HW1  374   0.990   1.711   0.671 -0.4540  0.1266 -1.0468
  125SOL    HW2  375   0.876   1.618   0.757 -0.6180  1.7788 -2.4675
  126SOL     OW  376   1.887   2.368   2.411  0.3755  0.3522 -0.0225
  126SOL    HW1  377   1.949   2.309   2.350  1.6589 -0.3521  2.0555
  126SOL    HW2  378   1.786   2.359   2.382 -1.6480  1.7378 -2.1496
  127SOL     OW  379   1.024   0.960   0.163 -0.7002  0.2473  0.9280
  127SOL    HW1  380   1.105   0.991   0.217 -1.2217 -0.6643 -0.6734
  127SOL    HW2  381   0.970   0.883   0.214 -1.5849 -0.1716 -0.2099
  128SOL     OW  382   0.969   0.199   1.437  0.5965 -0.3090  0.0432
  128SOL    HW1  383   0.931   0.277   1.377 -2.4610  2.0795 -0.0813
  128SOL    HW2  384   0.896   0.131   1.475 -1.9349 -1.8876  1.1697
  129SOL     OW  385   1.762   0.726   1.816 -0.3168 -0.3717 -0.1787
  129SOL    HW1  386   1.755   0.752   1.719  2.0319  1.5097  5.2921
  129SOL    HW2  387   1.789   0.812   1.870  1.4285  0.1173 -2.4321
  130SOL     OW  388   1.246   2.097   0.988  0.3225 -0.1619  0.3884
  130SOL    HW1  389   1.183   2.059   0.911 -1.8368 -0.5525 -0.1963
  130SOL    HW2  390   1.325   2.148   0.955  0.5063 -0.0542  0.7950
  131SOL     OW  391   3.023   1.516   1.312  0.4316 -0.5434  1.1303
  131SOL    HW1  392   2.970   1.427   1.302  0.6686 -0.2390 -1.6804
  131SOL    HW2  393   3.128   1.499   1.311 -0.4874  1.0866  0.1957
  132SOL     OW  394   1.930   2.476   0.523 -1.0587  0.1244 -0.9736
  132SOL    HW1  395   1.828   2.491   0.537 -1.1745  1.2746  1.3042
  132SOL    HW2  396   1.976   2.452   0.611  0.2089 -0.6210 -1.6466
  133SOL     OW  397   1.805   2.277   2.909 -0.4616  0.7317  0.5648
  133SOL    HW1  398   1.778   2.336   2.990 -1.4211  0.9837 -0.8696
  133SOL    HW2  399   1.786   2.314   2.814  1.4238 -0.5715 -1.7747
  134SOL     OW  400   2.637   2.336   1.607 -0.1471 -0.3216 -0.1575
  134SOL    HW1  401   2.599   2.289   1.691 -0.9000  3.4475 -2.2776
  134SOL    HW2  402   2.703   2.414   1.633  0.1312 -0.9938  1.5343
  135SOL     OW  403   0.778   1.503   2.543 -0.0742 -0.3406  0.1474
  135SOL    HW1  404   0.758   1.404   2.544 -1.0129  2.8041 -0.2133
  135SOL    HW2  405   0.840   1.529   2.454  1.4746  0.7628 -1.7297
  136SOL     OW  406   1.144   2.054   0.453 -0.0903  0.6855 -0.0965
  136SOL    HW1  407   1.056   2.089   0.497 -0.7606 -1.1826  2.3095
  136SOL    HW2  408   1.128   1.957   0.421  1.6160  0.7887  2.4842
  137SOL     OW  409   0.391   1.031   2.128 -0.3111 -0.0066 -0.4117
  137SOL    HW1  410   0.299   1.056   2.166  3.4373  1.6124  0.4768
  137SOL    HW2  411   0.412   0.929   2.147 -0.6344 -1.5893  2.5877
  138SOL     OW  412   2.423   1.468   0.368  0.5925 -0.2358 -0.3394
  138SOL    HW1  413   2.333   1.469   0.319 -1.5183  1.1053 -0.0980
  138SOL    HW2  414   2.468   1.375   0.393 -1.2569 -2.4055  1.3175
  139SOL     OW  415   1.750   2.499   1.191 -0.3704  0.2296  0.2958
  139SOL    HW1  416   1.652   2.514   1.167  1.8240  0.7528  1.8221
  139SOL    HW2  417   1.760   2.443   1.276  1.8992 -1.0169  1.8413
  140SOL     OW  418   2.987   2.987   2.475  0.1852  0.4670  0.5352
  140SOL    HW1  419   3.042   2.909   2.518 -1.1657  0.6573  0.8848
  140SOL    HW2  420   3.046   3.066   2.452 -3.7962 -0.0457  0.8887
  141SOL     OW  421   1.140   1.507   1.592  0.3142  0.8896  0.2456
  141SOL    HW1  422   1.142   1.592   1.651  0.7404 -0.6298 -2.7782
  141SOL    HW2  423   1.200   1.434   1.632 -1.4641  2.4230 -0.6711
  142SOL     OW  424   1.526   0.600   2.240  0.7623 -0.3175  0.4200
  142SOL    HW1  425   1.546   0.568   2.140 -2.1131  0.4916 -3.9216
  142SOL    HW2  426   1.432   0.588   2.281  1.6322  0.4083  1.3734
  143SOL     OW  427   2.771   0.844   0.508  0.3781  0.0570  0.2176
  143SOL    HW1  428   2.810   0.881   0.422 -0.3024 -1.8203  1.1917
  143SOL    HW2  429   2.781   0.907   0.589  1.1281  0.1278  1.0438
  144SOL     OW  430   2.987   1.247   1.355  0.1621 -0.4682  0.1951
  144SOL    HW1  431   3.029   1.254   1.448 -3.6846 -0.4134 -1.3482
  144SOL    HW2  432   3.044   1.197   1.283 -2.5552  0.4885  2.1522
  145SOL     OW  433   0.995   1.862   0.078  0.0877  0.0364  0.3186
  145SOL    HW1  434   1.029   1.936   0.014 -1.9445  0.0183  1.7141
  145SOL    HW2  435   0.950   1.781   0.031  2.1016  2.6828  0.1918
  146SOL     OW  436   2.517   0.632   1.512  0.7731 -0.2492 -0.2000
  146SOL    HW1  437   2.467   0.574   1.443 -2.0638 -0.0762  0.0189
  146SOL    HW2  438   2.461   0.717   1.528  2.3651  0.1269  0.5925
  147SOL     OW  439   1.096   2.608   0.646 -0.6263  0.3966 -0.5367
  147SOL    HW1  440   1.060   2.648   0.560  1.2421  0.0823  0.5869
  147SOL    HW2  441   1.182   2.547   0.635 -0.0534 -3.5546 -0.2179
  148SOL     OW  442   1.656   1.416   3.023 -0.1236  0.5681 -0.4192
  148SOL    HW1  443   1.681   1.334   2.959  1.5350 -0.4068  0.6727
  148SOL    HW2  444   1.628   1.391   3.116 -1.6710  2.3554 -2.5285
  149SOL     OW  445   0.607   1.413   1.953  0.3042 -0.4882 -0.5524
  149SOL    HW1  446   0.516   1.404   2.007  0.1267 -0.8985  0.4728
  149SOL    HW2  447   0.655   1.322   1.937  2.3388 -0.0379 -1.1377
  150SOL     OW  448   2.988   1.279   0.909 -0.4053  0.3331  0.7506
  150SOL    HW1  449   3.068   1.334   0.946 -2.1434 -1.3979  0.6332
  150SOL    HW2  450   2.983   1.178   0.938  0.6106 -1.1218 -0.4857
  151SOL     OW  451   0.182   0.792   2.090  0.1693 -0.6098 -0.1988
  151SOL    HW1  452   0.147   0.876   2.035 -0.4161  0.0347 -0.8027
  151SOL    HW2  453   0.246   0.729   2.037 -0.7558 -0.2755  3.2569
  152SOL     OW  454   1.407   1.753   1.257  0.5331  0.4076 -0.0475
  152SOL    HW1  455   1.407   1.833   1.321 -0.1183  2.0565  0.5992
  152SOL    HW2  456   1.316   1.752   1.205 -0.9755 -0.2348 -0.0388
  153SOL     OW  457   0.051   1.509   0.174 -0.2821  0.0245  0.1973
  153SOL    HW1  458   0.062   1.409   0.167 -0.9588  1.4646  2.5510
  153SOL    HW2  459   0.034   1.541   0.276  2.2202  1.5459  3.3103
  154SOL     OW  460   2.417   1.964   2.826 -0.3620  0.5628  0.1381
  154SOL    HW1  461   2.390   1.862   2.828 -0.2194 -3.6220  2.2422
  154SOL    HW2  462   2.483   1.981   2.746  1.4958  1.6043 -1.4066
  155SOL     OW  463   2.535   1.236   0.463  0.0112 -0.4647 -1.1674
  155SOL    HW1  464   2.584   1.243   0.373 -3.3446  0.7661 -0.9337
  155SOL    HW2  465   2.530   1.139   0.504  0.2930  0.6188  0.9162
  156SOL     OW  466   2.486   0.995   0.896  0.4851 -0.0065  0.0283
  156SOL    HW1  467   2.388   1.038   0.906 -2.6864  0.8173  0.7446
  156SOL    HW2  468   2.548   1.055   0.847  1.0501 -1.5252 -0.5035
  157SOL     OW  469   1.359   2.967   3.094  0.3466  0.2062  0.1168
  157SOL    HW1  470   1.433   2.910   3.051 -0.1666 -0.3970  0.5604
  157SOL    HW2  471   1.370   3.069   3.061  0.9905  1.4589  0.9559
  158SOL     OW  472   1.066   1.898   2.022  0.4663 -0.5364  0.1598
  158SOL    HW1  473   1.116   1.876   2.113  0.3433  0.0897  1.1169
  158SOL    HW2  474   0.963   1.920   2.033 -0.9245 -1.0337 -2.9569
  159SOL     OW  475   0.875   0.460   1.292  0.1243 -0.2128  0.6885
  159SOL    HW1  476   0.847   0.534   1.359 -0.4802 -0.2447  1.1068
  159SOL    HW2  477   0.804   0.453   1.215  0.4460 -1.6439 -1.3447
  160SOL     OW  478   1.456   2.336   1.654  0.1799  0.3932 -0.0459
  160SOL    HW1  479   1.520   2.405   1.616 -2.1118 -1.3307  0.4371
  160SOL    HW2  480   1.504   2.250   1.687  1.7933 -0.0223 -1.0309
  161SOL     OW  481   0.089   2.933   0.363  0.1678 -0.0606  0.2801
  161SOL    HW1  482  -0.010   2.908   0.381  2.3903  1.0751 -0.2333
  161SOL    HW2  483   0.107   2.974   0.272  0.2987 -0.1990  1.0206
  162SOL     OW  484   2.616   1.894   0.523  0.2404  0.2687  0.3079
  162SOL    HW1  485   2.569   1.838   0.448 -0.0011 -0.2000 -1.3277
  162SOL    HW2  486   2.633   1.833   0.607  0.0160 -1.3296 -2.3504
  163SOL     OW  487   1.955   2.769   0.748  0.2755  0.0191 -0.0378
  163SOL    HW1  488   1.930   2.778   0.648  0.6590 -1.5016  1.7025
  163SOL    HW2  489   2.016   2.686   0.767 -1.0141 -0.4239  2.8148
  164SOL     OW  490   0.053   0.230   1.201 -0.2511  0.2941  0.0724
  164SOL    HW1  491   0.099   0.146   1.165 -1.3718  2.3434 -0.2908
  164SOL    HW2  492   0.092   0.261   1.292  0.0045 -0.2894 -0.9340
  165SOL     OW  493   1.021   1.427   0.644  0.1207 -0.5983  0.2433
  165SOL    HW1  494   0.977   1.444   0.733 -0.8890  0.5625 -1.6512
  165SOL    HW2  495   0.988   1.481   0.560 -1.2837 -0.4547  0.2116
  166SOL     OW  496   1.385   1.022   1.806 -0.3962 -0.0774 -0.3457
  166SOL    HW1  497   1.292   0.993   1.831  0.8721  0.9224  0.4415
  166SOL    HW2  498   1.453   1.060   1.880  1.2924  0.5445 -0.9765
  167SOL     OW  499   0.931   1.837   1.597 -0.1312 -0.1718  0.0361
  167SOL    HW1  500   0.900   1.938   1.614 -0.3525  0.9440  3.5656
  167SOL    HW2  501   0.847   1.779   1.588  0.7711  0.0966  0.3403
  168SOL     OW  502   1.545   2.343   0.189 -0.3370  0.5105 -0.5211
  168SOL    HW1  503   1.608   2.396   0.126 -0.6870 -1.0788 -2.2908
  168SOL    HW2  504   1.588   2.308   0.278  0.1803  2.1934  0.7487
  169SOL     OW  505   0.170   2.556   2.155 -0.2557 -0.1225  0.0935
  169SOL    HW1  506   0.219   2.473   2.119  0.7455  0.8055  1.2657
  169SOL    HW2  507   0.135   2.537   2.253 -0.3627  0.6831  1.4617
  170SOL     OW  508   1.254   0.332   1.930  0.6515 -0.3296  0.2133
  170SOL    HW1  509   1.275   0.269   2.013 -1.2817  1.5204  0.9905
  170SOL    HW2  510   1.198   0.291   1.853 -0.7695 -1.8775 -1.5185
  171SOL     OW  511   0.234   0.823   2.415  0.2401  0.1607  0.2313
  171SOL    HW1  512   0.137   0.838   2.449  0.0841 -2.2254  1.6973
  171SOL    HW2  513   0.248   0.788   2.321  2.1354  1.9632  4.9948
  172SOL     OW  514   0.890   1.122   2.896  0.2352  0.1719  0.4112
  172SOL    HW1  515   0.972   1.178   2.927  1.3665 -1.4405  2.2283
  172SOL    HW2  516   0.899   1.055   2.817 -1.7294 -1.8648 -0.9442
  173SOL     OW  517   0.692   2.724   0.149 -0.4495 -0.1865  0.4143
  173SOL    HW1  518   0.693   2.826   0.125  2.5617  1.0150  1.2333
  173SOL    HW2  519   0.601   2.678   0.137 -1.8961  1.9139 -0.5618
  174SOL     OW  520   1.278   2.751   1.059  0.4138  0.2347 -0.0384
  174SOL    HW1  521   1.283   2.823   0.981  0.4086  2.1603  1.0710
  174SOL    HW2  522   1.270   2.654   1.021  1.6833 -0.7153 -0.3273
  175SOL     OW  523   0.369   0.031   1.690 -0.2408  0.1682 -0.1139
  175SOL    HW1  524   0.437   0.094   1.739 -0.7888 -0.7445 -1.2641
  175SOL    HW2  525   0.292   0.087   1.652 -1.8291 -1.4499  1.8752
  176SOL     OW  526   2.619   0.324   3.014  0.6364  0.7095 -0.2162
  176SOL    HW1  527   2.619   0.410   3.068 -3.2538 -0.9775 -1.6657
  176SOL    HW2  528   2.624   0.242   3.071 -1.4935 -0.8128 -1.4324
  177SOL     OW  529   0.386   0.304   0.870 -0.3459  0.2204 -0.2484
  177SOL    HW1  530   0.445   0.286   0.953 -2.3184  0.6886  0.0623
  177SOL    HW2  531   0.313   0.373   0.900  0.3741 -1.3206  0.8634
  178SOL     OW  532   3.085   2.692   2.599 -0.4550 -0.0978 -0.4939
  178SOL    HW1  533   3.012   2.643   2.656  3.5351 -2.7218  3.3873
  178SOL    HW2  534   3.172   2.699   2.650 -0.9371 -2.3435 -0.0091
  179SOL     OW  535   0.011   1.769   1.178  0.1098  0.1507 -0.1529
  179SOL    HW1  536  -0.076   1.818   1.148 -2.3089 -0.3843  1.4966
  179SOL    HW2  537   0.001   1.689   1.235 -0.1104  2.1390  0.1915
  180SOL     OW  538   0.158   1.266   1.811  0.0912 -0.0976  0.4819
  180SOL    HW1  539   0.257   1.244   1.811 -1.1146 -2.2554 -1.0440
  180SOL    HW2  540   0.141   1.351   1.878 -3.0076  1.3125  2.5118
  181SOL     OW  541   3.011   1.830   2.525 -0.5544 -0.3552 -0.0636
  181SOL    HW1  542   3.113   1.867   2.547  4.5995  4.5359  3.1525
  181SOL    HW2  543   2.960   1.884   2.457  0.3318 -0.7716  1.9274
  182SOL     OW  544   2.327   1.237   1.256  0.5651  0.2697  0.5095
  182SOL    HW1  545   2.238   1.211   1.206 -0.9236  1.6582 -0.3190
  182SOL    HW2  546   2.370   1.329   1.228 -0.3511  2.0533 -2.1402
  183SOL     OW  547   1.520   2.272   2.501 -0.0907 -0.1366  0.1920
  183SOL    HW1  548   1.435   2.212   2.514 -0.2446  0.7545  2.0241
  183SOL    HW2  549   1.603   2.213   2.493 -1.1678 -0.9974 -1.9827
  184SOL     OW  550   2.073   0.936   0.746 -0.4514 -0.1678 -0.7198
  184SOL    HW1  551   1.979   0.987   0.749 -0.1989 -1.4082  2.0192
  184SOL    HW2  552   2.071   0.834   0.763  2.4499 -0.3196  1.0723
  185SOL     OW  553   1.638   2.751   2.168  0.1591  0.0780  0.0169
  185SOL    HW1  554   1.600   2.843   2.129  1.1730  3.5823  1.1405
  185SOL    HW2  555   1.631   2.752   2.269  2.1187 -1.0417 -0.4223
  186SOL     OW  556   0.079   2.200   1.662 -0.2720  0.3037  0.4314
  186SOL    HW1  557   0.097   2.287   1.611  1.2150 -0.6820  2.5127
  186SOL    HW2  558   0.172   2.156   1.683  0.5174 -1.2629 -0.4785
  187SOL     OW  559   1.423   0.682   1.715 -0.1378 -0.5076  0.4465
  187SOL    HW1  560   1.486   0.750   1.668  1.1134  0.2230  0.8553
  187SOL    HW2  561   1.379   0.728   1.799  1.5645  0.3099 -0.9244
  188SOL     OW  562   2.758   2.752   1.541 -0.3635  0.5685 -0.4698
  188SOL    HW1  563   2.755   2.841   1.488  1.1711 -1.6337 -1.3980
  188SOL    HW2  564   2.751   2.670   1.478  2.0176 -0.4185  2.1702
  189SOL     OW  565   0.734   0.975   1.483 -0.0270 -0.1660 -0.0665
  189SOL    HW1  566   0.808   1.045   1.457 -2.6623  1.1769  1.7300
  189SOL    HW2  567   0.694   0.921   1.405  0.3563 -0.1943  0.4417
  190SOL     OW  568   1.489   1.756   1.664 -0.2004 -0.3769  0.0304
  190SOL    HW1  569   1.421   1.817   1.615 -1.3984 -0.9664 -0.7799
  190SOL    HW2  570   1.564   1.805   1.720  0.6502  2.2908  1.6665
  191SOL     OW  571   1.019   0.831   1.541 -0.4287 -0.3691 -0.2206
  191SOL    HW1  572   1.071   0.766   1.607 -2.7758 -0.3145 -2.0151
  191SOL    HW2  573   1.085   0.893   1.486  1.9421 -1.5479  3.1438
  192SOL     OW  574   1.896   2.189   1.236  0.2750  0.4910 -0.3565
  192SOL    HW1  575   1.806   2.185   1.181 -2.7257 -1.4220  0.1683
  192SOL    HW2  576   1.952   2.260   1.192 -0.0539  2.7365  2.1761
  193SOL     OW  577   0.503   0.567   0.332  0.0541  0.1770 -0.3031
  193SOL    HW1  578   0.513   0.488   0.405  1.4387 -2.1162  2.2392
  193SOL    HW2  579   0.526   0.536   0.236  0.9116 -0.9208 -2.1846
  194SOL     OW  580   0.293   0.848   1.246 -0.2264 -0.9706  0.2188
  194SOL    HW1  581   0.214   0.802   1.195 -0.1577 -1.0587 -0.5102
  194SOL    HW2  582   0.321   0.931   1.190 -1.1794 -1.5599 -0.7227
  195SOL     OW  583   0.950   2.934   0.520 -0.7506  0.2563 -0.3351
  195SOL    HW1  584   0.937   2.840   0.477  2.4316 -2.2637 -0.7581
  195SOL    HW2  585   1.043   2.972   0.510 -0.2961  1.6180  0.4135
  196SOL     OW  586   0.186   1.449   1.341  0.3686 -0.0141  0.6575
  196SOL    HW1  587   0.244   1.527   1.384 -0.7071 -0.8804  2.8064
  196SOL    HW2  588   0.192   1.371   1.408 -1.7916  0.6438 -0.9761
  197SOL     OW  589   0.789   2.002   0.237  0.2171  0.1249 -0.3250
  197SOL    HW1  590   0.813   1.957   0.330  1.8682 -0.1827 -1.4474
  197SOL    HW2  591   0.828   1.943   0.162 -1.1188 -0.7059 -0.5462
  198SOL     OW  592   0.287   1.161   0.217  0.1708  0.6112 -0.0667
  198SOL    HW1  593   0.183   1.162   0.212 -0.9329 -0.4066  1.3294
  198SOL    HW2  594   0.327   1.258   0.220  0.2371 -0.1974  0.3971
  199SOL     OW  595   2.255   0.425   2.459  0.1157 -0.0165  0.1312
  199SOL    HW1  596   2.214   0.362   2.531  2.4572 -1.1711  0.9839
  199SOL    HW2  597   2.359   0.416   2.467  3.2376  2.8400  1.0613
  200SOL     OW  598   0.045   2.898   0.821  0.4304 -0.2069  0.0441
  200SOL    HW1  599  -0.042   2.906   0.758 -4.2296 -0.1675 -2.3291
  200SOL    HW2  600   0.073   2.997   0.841 -0.5278  1.0080 -0.1278
  201SOL     OW  601   1.105   0.662   0.567 -0.0620  0.0387 -0.6715
  201SOL    HW1  602   1.105   0.755   0.613 -1.4401  1.7932  0.5940
  201SOL    HW2  603   1.017   0.644   0.514  3.3126  1.4127  0.7324
  202SOL     OW  604   0.437   1.208   1.794  0.6565  0.5203 -0.5545
  202SOL    HW1  605   0.499   1.225   1.715 -2.5606 -0.2856  0.4333
  202SOL    HW2  606   0.479   1.142   1.867 -2.3045 -0.9544 -0.2669
  203SOL     OW  607   0.588   0.237   1.529 -0.3419 -0.4126 -0.4482
  203SOL    HW1  608   0.597   0.207   1.431 -0.0708  1.0217  2.3805
  203SOL    HW2  609   0.610   0.164   1.601 -0.5985 -2.1535 -2.3189
  204SOL     OW  610   2.112   1.887   2.996 -0.5896 -0.6258 -0.5632
  204SOL    HW1  611   2.117   1.787   2.972 -1.7632  2.4422  0.7218
  204SOL    HW2  612   2.060   1.942   2.926 -0.9502  2.0590  1.2693
  205SOL     OW  613   1.883   1.849   0.162  0.4395 -0.0956 -0.4048
  205SOL    HW1  614   1.971   1.832   0.114 -3.0472  0.3311  0.2486
  205SOL    HW2  615   1.823   1.914   0.102  0.1839 -0.8976 -1.6364
  206SOL     OW  616   2.518   2.823   0.349  0.4834  0.4310 -0.1051
  206SOL    HW1  617   2.576   2.749   0.391 -0.5694 -0.5886  0.4444
  206SOL    HW2  618   2.568   2.897   0.292  1.8462  1.7853  0.9181
  207SOL     OW  619   0.529   1.715   2.897 -0.4759 -0.1573  0.3781
  207SOL    HW1  620   0.620   1.701   2.845  1.3307 -0.5395  2.4437
  207SOL    HW2  621   0.513   1.644   2.972 -1.3589  0.1051 -3.1636
  208SOL     OW  622   1.034   1.442   1.347  0.1424  0.1185 -0.4773
  208SOL    HW1  623   0.939   1.484   1.325 -1.5026 -0.8220  0.9115
  208SOL    HW2  624   1.064   1.451   1.448  0.7577  2.7091  0.4269
  209SOL     OW  625   0.148   0.888   3.097 -0.0418 -0.1253 -0.2260
  209SOL    HW1  626   0.197   0.845   3.013  2.3654 -1.6356 -2.5993
  209SOL    HW2  627   0.202   0.876   3.187 -0.5988  0.8553 -1.7541
  210SOL     OW  628   1.727   0.408   1.169  0.2928 -0.4871  0.0901
  210SOL    HW1  629   1.684   0.502   1.140 -2.1502  3.8048  0.9688
  210SOL    HW2  630   1.826   0.402   1.152 -0.9452 -0.6173  0.9178
  211SOL     OW  631   2.120   1.043   1.643  0.8021 -0.1347  0.3934
  211SOL    HW1  632   2.151   0.971   1.704  0.4544  1.5990  0.6888
  211SOL    HW2  633   2.203   1.090   1.601 -0.8296  0.4517 -0.9287
  212SOL     OW  634   0.026   1.008   1.476  0.1364  0.1752 -0.4351
  212SOL    HW1  635   0.088   1.096   1.483  1.6165  1.0545  0.2778
  212SOL    HW2  636   0.060   0.929   1.530 -0.7248  0.8811  2.6081
  213SOL     OW  637   2.783   0.304   0.309 -0.2506 -0.9484 -0.0703
  213SOL    HW1  638   2.846   0.237   0.270 -0.1484  0.0052  0.0320
  213SOL    HW2  639   2.792   0.399   0.261 -1.1496  1.6249 -1.2447
  214SOL     OW  640   2.109   0.316   2.270 -0.2094 -0.3870 -0.4238
  214SOL    HW1  641   2.171   0.360   2.346  1.7128  0.8841  0.1102
  214SOL    HW2  642   2.071   0.224   2.295  1.7065  0.8084 -0.1611
  215SOL     OW  643   1.713   2.285   2.052 -0.4601 -0.3845 -0.2891
  215SOL    HW1  644   1.813   2.296   2.036 -0.6697  2.2793  0.8330
  215SOL    HW2  645   1.676   2.352   2.124  0.4665  1.9245  0.0448
  216SOL     OW  646   2.252   0.518   0.640 -0.3917 -0.4448  0.0304
  216SOL    HW1  647   2.186   0.454   0.588 -1.8335  2.8299  0.0480
  216SOL    HW2  648   2.279   0.604   0.591  1.9847  2.1541 -1.8841
  217SOL     OW  649   0.794   2.782   2.431  0.2466 -0.0039 -0.6041
  217SOL    HW1  650   0.752   2.701   2.477  0.5390 -0.8188  0.3180
  217SOL    HW2  651   0.803   2.763   2.332 -1.6069  1.0194 -1.7956
  218SOL     OW  652   1.941   1.441   3.063 -0.2089 -0.1393  0.0395
  218SOL    HW1  653   1.843   1.458   3.031 -0.3884 -4.3813  2.0523
  218SOL    HW2  654   1.945   1.350   3.117 -2.3236  0.9993  1.7943
  219SOL     OW  655   2.372   1.295   2.599 -0.1619 -0.1375 -0.1427
  219SOL    HW1  656   2.361   1.232   2.523  3.1414 -0.4685  2.5533
  219SOL    HW2  657   2.345   1.244   2.692  0.1152 -2.0363  1.4757
  220SOL     OW  658   1.495   1.010   1.297 -0.5382  0.0711 -0.4292
  220SOL    HW1  659   1.562   0.999   1.377 -0.5204 -4.8886  1.6099
  220SOL    HW2  660   1.460   1.108   1.281 -0.1446  4.8571  1.5592
  221SOL     OW  661   1.294   1.107   2.188 -0.3279  0.1547 -0.6889
  221SOL    HW1  662   1.228   1.161   2.123  0.8565  1.8645  0.3184
  221SOL    HW2  663   1.386   1.085   2.143 -0.9440 -2.2012  0.2059
  222SOL     OW  664   1.341   0.158   1.107 -0.2081  0.0679 -0.0464
  222SOL    HW1  665   1.399   0.084   1.067 -2.8130  0.6437  1.2538
  222SOL    HW2  666   1.367   0.167   1.207 -1.4547  1.1872  1.3701
  223SOL     OW  667   2.905   0.766   2.003 -0.1033  0.8463  0.0546
  223SOL    HW1  668   2.882   0.788   2.101 -3.0567  1.5571 -2.0929
  223SOL    HW2  669   2.934   0.855   1.959  0.4525 -1.8347 -0.5944
  224SOL     OW  670   1.552   1.056   2.803  0.0310 -0.2638  0.2710
  224SOL    HW1  671   1.577   0.988   2.731 -0.0428  2.3703  3.5469
  224SOL    HW2  672   1.510   1.146   2.755 -0.8652  2.2656  0.1980
  225SOL     OW  673   2.957   2.828   2.930 -0.0119 -0.0744  0.6144
  225SOL    HW1  674   2.926   2.748   2.865 -0.3304  2.0175 -0.4070
  225SOL    HW2  675   2.984   2.914   2.878  1.3846 -1.1430  0.0157
  226SOL     OW  676   2.461   1.663   2.869 -0.0936 -0.3958 -0.2929
  226SOL    HW1  677   2.504   1.615   2.786  0.1808 -0.6670 -1.1029
  226SOL    HW2  678   2.453   1.590   2.948 -0.8962 -1.7773  2.6208
  227SOL     OW  679   0.783   0.159   2.948 -0.4707 -0.5541 -0.1542
  227SOL    HW1  680   0.837   0.098   3.014  0.8719  0.5846 -0.9852
  227SOL    HW2  681   0.821   0.148   2.851  1.8006 -0.0653 -2.4500
  228SOL     OW  682   2.343   0.545   2.765  0.3412 -0.1610  0.1996
  228SOL    HW1  683   2.292   0.622   2.713  0.5282 -0.7236 -0.5859
  228SOL    HW2  684   2.372   0.470   2.701  0.5885  1.5338 -0.1105
  229SOL     OW  685   0.585   0.478   1.891  0.1861  0.1871 -0.1375
  229SOL    HW1  686   0.618   0.509   1.793  2.6371 -0.6162 -5.4610
  229SOL    HW2  687   0.665   0.468   1.953  3.0877  2.0608  2.9248
  230SOL     OW  688   1.938   1.247   2.112  0.2646 -0.5581 -0.0755
  230SOL    HW1  689   2.009   1.282   2.041 -1.9871 -0.1288 -1.1043
  230SOL    HW2  690   1.845   1.282   2.083 -2.3074  1.2310  1.0258
  231SOL     OW  691   0.602   1.114   2.936  0.0556 -0.1891  0.2582
  231SOL    HW1  692   0.690   1.160   2.968 -0.3607 -2.0563  0.0089
  231SOL    HW2  693   0.543   1.090   3.023  1.5805 -0.2179  1.5321
  232SOL     OW  694   2.511   0.036   2.710  0.5351 -0.7774  0.3476
  232SOL    HW1  695   2.551  -0.059   2.722  0.3309 -1.9064 -1.7624
  232SOL    HW2  696   2.501   0.063   2.610 -0.5656 -1.8544  2.1290
  233SOL     OW  697   1.739   1.293   1.085 -0.2530 -0.1214 -0.0680
  233SOL    HW1  698   1.694   1.274   0.995  3.8975 -0.4771 -2.4156
  233SOL    HW2  699   1.805   1.223   1.108 -0.6406  1.9057 -1.9300
  234SOL     OW  700   1.658   2.594   1.941 -0.2167 -0.2080 -0.5901
  234SOL    HW1  701   1.645   2.641   2.032 -1.2816 -0.3758 -1.2578
  234SOL    HW2  702   1.601   2.510   1.938 -1.8896  0.3489 -2.0583
  235SOL     OW  703   3.076   3.062   2.833  0.6272 -0.3794 -0.4186
  235SOL    HW1  704   3.158   3.085   2.775  2.2752 -0.8160  2.9481
  235SOL    HW2  705   3.034   3.150   2.872 -0.3180  0.2437  1.9678
  236SOL     OW  706   2.876   0.688   0.037 -0.0535 -0.5095 -0.2735
  236SOL    HW1  707   2.939   0.753   0.090  1.1869  0.1827 -1.9857
  236SOL    HW2  708   2.930   0.614  -0.015 -1.3001 -0.6875  2.2135
  237SOL     OW  709   1.490   1.599   1.053 -0.1731  0.5681 -0.3271
  237SOL    HW1  710   1.596   1.602   1.059  1.5438  0.5874 -0.0962
  237SOL    HW2  711   1.444   1.664   1.124 -1.2328  0.2867 -1.1030
  238SOL     OW  712   1.746   1.354   0.747  0.6421  0.4321 -0.1463
  238SOL    HW1  713   1.807   1.367   0.671 -0.3828  2.1104  1.0566
  238SOL    HW2  714   1.688   1.436   0.763  0.4326 -0.4084 -0.1457
  239SOL     OW  715   2.145   0.290   2.661 -0.1865 -0.1600  0.1812
  239SOL    HW1  716   2.218   0.277   2.731  1.8770 -0.2891 -0.1485
  239SOL    HW2  717   2.073   0.363   2.686 -0.8468  0.1355  0.0279
  240SOL     OW  718   0.886   0.737   0.226 -0.1957  0.2932  0.2589
  240SOL    HW1  719   0.871   0.672   0.144 -1.2468 -1.6188  1.0207
  240SOL    HW2  720   0.849   0.697   0.310 -0.7857 -2.1387 -1.4009
  241SOL     OW  721   0.573   0.019   0.357  0.2515 -0.1545 -0.3152
  241SOL    HW1  722   0.594  -0.021   0.268  0.0489 -1.4883  1.8230
  241SOL    HW2  723   0.488  -0.029   0.406 -0.7774 -1.9867  3.8395
  242SOL     OW  724   0.689   2.437   1.125 -0.2332  0.1436  0.5702
  242SOL    HW1  725   0.670   2.506   1.197  0.9090  0.0901 -0.8061
  242SOL    HW2  726   0.759   2.475   1.058 -1.0949  0.2855  2.5989
  243SOL     OW  727   1.081   0.654   2.510  0.6756 -0.1013 -0.0621
  243SOL    HW1  728   1.032   0.707   2.432 -1.8669 -1.6758  0.0569
  243SOL    HW2  729   1.031   0.568   2.537  2.6870 -1.2460  0.2103
  244SOL     OW  730   2.829   1.992   2.333  0.2853  0.2894 -0.5425
  244SOL    HW1  731   2.884   1.980   2.245 -0.5451  1.7641  2.4854
  244SOL    HW2  732   2.742   1.938   2.328  1.7020  0.0596 -2.0128
  245SOL     OW  733   2.466   0.719   2.196 -0.2125 -0.0803 -0.3433
  245SOL    HW1  734   2.462   0.783   2.277 -1.6432 -0.8166  1.2423
  245SOL    HW2  735   2.562   0.699   2.170  0.2206 -0.2151  1.7142
  246SOL     OW  736   0.329   2.866   1.774 -0.3986 -0.4886  0.1269
  246SOL    HW1  737   0.246   2.845   1.720 -0.5445  1.2720 -1.1031
  246SOL    HW2  738   0.349   2.970   1.761  0.7807  1.4479 -2.0369
  247SOL     OW  739   2.192   0.512   2.997  0.1922 -0.3382 -0.0979
  247SOL    HW1  740   2.252   0.477   2.920  0.9616 -1.0860 -1.6402
  247SOL    HW2  741   2.132   0.591   2.970 -1.6435 -3.6257  0.1806
  248SOL     OW  742   2.178   1.849   1.553 -0.3738  0.2823  0.9579
  248SOL    HW1  743   2.236   1.793   1.619  0.4950  1.1883  2.4194
  248SOL    HW2  744   2.083   1.865   1.586 -0.3260  1.8371  3.0097
  249SOL     OW  745   1.990   1.990   1.914  0.2213 -0.7728 -0.0830
  249SOL    HW1  746   1.983   1.913   1.840  0.9948 -0.9406  1.0092
  249SOL    HW2  747   2.083   2.036   1.920 -0.6525 -2.6014 -1.3102
  250SOL     OW  748   1.041   0.637   1.902 -0.9751  0.1893 -0.0567
  250SOL    HW1  749   1.028   0.574   1.986  0.7923  2.2244 -1.4863
  250SOL    HW2  750   1.116   0.613   1.832  1.8965  0.2647  0.0179
  251SOL     OW  751   3.042   1.532   2.611 -0.6385 -0.2301 -0.2463
  251SOL    HW1  752   3.048   1.629   2.571 -0.3518  2.7919  1.7232
  251SOL    HW2  753   2.948   1.490   2.585  0.1407 -2.5682 -1.7468
  252SOL     OW  754   1.542   0.897   1.600  0.0566  0.1563  0.7107
  252SOL    HW1  755   1.621   0.958   1.574 -2.0123  3.0117  1.1875
  252SOL    HW2  756   1.473   0.946   1.661  1.1954 -1.9236  0.5735
  253SOL     OW  757   1.006   1.534   0.367 -0.7532 -0.4420 -0.7526
  253SOL    HW1  758   1.096   1.494   0.331  3.1213 -1.5019  1.7602
  253SOL    HW2  759   0.922   1.487   0.343  5.2855  1.3535  0.1109
  254SOL     OW  760   2.011   2.079   1.594 -0.1748  0.7846  0.0602
  254SOL    HW1  761   1.962   2.029   1.518 -0.2364  0.3037  0.5350
  254SOL    HW2  762   1.947   2.098   1.674 -2.4406 -0.9038  2.7235
  255SOL     OW  763   0.102   1.166   2.978  0.1520  0.1515 -0.0978
  255SOL    HW1  764   0.180   1.236   2.978  3.3548  0.5447  0.5856
  255SOL    HW2  765   0.113   1.100   3.056  1.8805  2.0840 -2.8490
  256SOL     OW  766   2.732   1.315   1.819 -1.0008 -0.2034 -0.2945
  256SOL    HW1  767   2.696   1.318   1.722 -1.5559  0.4362 -0.9547
  256SOL    HW2  768   2.685   1.245   1.878 -2.3490 -1.7851  1.9481
  257SOL     OW  769   0.830   0.191   1.858  0.2590  0.3511  0.0233
  257SOL    HW1  770   0.906   0.256   1.834  0.3971  0.1508  0.4128
  257SOL    HW2  771   0.855   0.090   1.848  1.3768 -0.5768  2.6762
  258SOL     OW  772   2.956   1.263   0.412  0.0367  0.2554  0.0339
  258SOL    HW1  773   2.894   1.337   0.382 -2.6575 -1.8479  0.5224
  258SOL    HW2  774   3.014   1.293   0.492  0.2635  1.4476  0.0142
  259SOL     OW  775   0.483   2.919   2.978  0.8951 -0.6108  0.0916
  259SOL    HW1  776   0.452   2.880   3.068 -0.5007 -0.6262 -2.2022
  259SOL    HW2  777   0.492   2.842   2.913 -3.7099 -1.9835  4.3291
  260SOL     OW  778   2.663   0.756   2.690 -0.0304 -0.0736  0.2216
  260SOL    HW1  779   2.579   0.816   2.684 -1.7898 -3.4896 -1.6547
  260SOL    HW2  780   2.656   0.676   2.753 -2.9422  0.6468  0.2015
  261SOL     OW  781   2.705   1.301   1.345 -0.0032  0.2228 -0.1048
  261SOL    HW1  782   2.645   1.231   1.296 -0.8784  0.0423 -0.6001
  261SOL    HW2  783   2.795   1.261   1.375  0.1748 -0.6325  0.0973
  262SOL     OW  784   1.494   2.954   2.058  0.1852  0.2790 -0.3032
  262SOL    HW1  785   1.518   3.023   1.989 -2.2326 -0.2725  0.8457
  262SOL    HW2  786   1.422   2.888   2.016 -1.5553 -1.3269  1.4796
  263SOL     OW  787   0.833   0.717   2.331  0.5112  0.5226  0.6770
  263SOL    HW1  788   0.781   0.634   2.298  1.4516  2.0780 -1.0292
  263SOL    HW2  789   0.870   0.771   2.252 -0.7486 -0.1371  2.2927
  264SOL     OW  790   2.311   0.739   0.474  0.6889  0.9759 -0.1797
  264SOL    HW1  791   2.221   0.758   0.428 -2.7017  2.3774 -0.0499
  264SOL    HW2  792   2.366   0.824   0.486  0.9259 -0.6287  2.1594
  265SOL     OW  793   0.914   2.286   2.704 -0.0462  0.1466 -0.3264
  265SOL    HW1  794   0.973   2.345   2.769  0.7025  1.7054  0.3561
  265SOL    HW2  795   0.870   2.211   2.760  0.6047  4.2336  0.3347
  266SOL     OW  796   1.292   1.735   0.014 -0.2898  0.1844  0.1720
  266SOL    HW1  797   1.255   1.799   0.086  0.3789  0.6478  0.0341
  266SOL    HW2  798   1.396   1.723   0.021 -2.3676  1.0123  0.9355
  267SOL     OW  799   1.109   0.028   2.312 -0.2826  0.1875  0.6230
  267SOL    HW1  800   1.088  -0.071   2.290  0.1073 -0.3575  1.1414
  267SOL    HW2  801   1.200   0.060   2.276 -1.1953 -2.2740 -0.5349
  268SOL     OW  802   0.673   1.145   1.097 -0.4279  0.1075 -0.0743
  268SOL    HW1  803   0.703   1.168   1.194 -0.1787  2.3153  2.3792
  268SOL    HW2  804   0.675   1.215   1.023  1.1745 -0.3937  0.7898
  269SOL     OW  805   2.391   2.555   1.561  0.6103  0.3677  0.2644
  269SOL    HW1  806   2.450   2.473   1.550  0.0281 -1.0154  2.5263
  269SOL    HW2  807   2.342   2.559   1.654 -1.3490 -0.4177  1.4134
  270SOL     OW  808   0.304   2.795   2.074 -0.1877 -0.5911  0.1687
  270SOL    HW1  809   0.337   2.818   1.979 -0.5584 -2.3426 -1.4610
  270SOL    HW2  810   0.253   2.706   2.080  1.9197 -1.3686  1.7492
  271SOL     OW  811   0.383   1.379   1.141  0.6441 -0.2383 -0.4051
  271SOL    HW1  812   0.375   1.386   1.041 -0.9333 -0.1304  3.9760
  271SOL    HW2  813   0.295   1.381   1.194  0.5784  0.1612 -1.7353
  272SOL     OW  814   1.979   2.812   1.897  0.0858  0.0095 -0.4561
  272SOL    HW1  815   1.899   2.772   1.845 -0.7297  0.8600 -1.3247
  272SOL    HW2  816   2.048   2.862   1.840 -1.7734 -1.3117  1.9430
  273SOL     OW  817   1.418   1.449   2.888  0.1167 -0.5928 -0.0626
  273SOL    HW1  818   1.502   1.454   2.948 -1.3925 -0.1158  1.9412
  273SOL    HW2  819   1.328   1.443   2.937  1.9341 -0.9329 -0.6564
  274SOL     OW  820   1.093   0.471   2.122  0.0962 -0.0304 -0.7258
  274SOL    HW1  821   1.133   0.409   2.052  2.0780  0.6897 -0.3195
  274SOL    HW2  822   1.155   0.479   2.210  3.1544  1.6707  2.0333
  275SOL     OW  823   0.679   2.085   1.882 -0.1619 -0.0869  0.3238
  275SOL    HW1  824   0.681   2.168   1.940 -0.4773 -2.8314  0.0537
  275SOL    HW2  825   0.592   2.034   1.899  0.4056  0.9946  0.2192
  276SOL     OW  826   2.134   0.907   2.731  0.8072 -0.0410  0.2316
  276SOL    HW1  827   2.056   0.960   2.691 -1.9731 -2.4217  0.5298
  276SOL    HW2  828   2.104   0.869   2.827 -0.1057 -1.1444  1.1670
  277SOL     OW  829   3.075   0.863   0.214  0.0741 -0.2508  0.1407
  277SOL    HW1  830   3.124   0.889   0.130 -2.5593  2.2700 -1.2263
  277SOL    HW2  831   3.127   0.802   0.271 -2.7175 -2.3888  2.0407
  278SOL     OW  832   0.272   0.280   2.883 -0.5126  0.1034  0.8867
  278SOL    HW1  833   0.374   0.263   2.906  1.0661  1.7916  4.5394
  278SOL    HW2  834   0.236   0.357   2.940 -0.1296 -1.3343 -1.9057
  279SOL     OW  835   0.123   0.058   0.897  0.2133  0.0976 -0.0957
  279SOL    HW1  836   0.169   0.031   0.988 -2.6425  2.6983  0.1215
  279SOL    HW2  837   0.193   0.065   0.815  2.2474  4.1811 -2.0828
  280SOL     OW  838   1.629   2.969   2.489  0.4873 -0.6161  0.2043
  280SOL    HW1  839   1.690   3.008   2.561  2.3211 -2.9006 -3.0959
  280SOL    HW2  840   1.527   2.980   2.501 -1.0526  2.9599 -1.0734
  281SOL     OW  841   0.652   1.043   2.347  0.4135  0.1496 -0.4043
  281SOL    HW1  842   0.588   0.985   2.291  1.0242 -0.8975  0.4304
  281SOL    HW2  843   0.725   0.988   2.391 -0.3732  1.1223 -0.1268
  282SOL     OW  844   1.661   2.508   0.563  0.2190 -0.4399 -0.2406
  282SOL    HW1  845   1.635   2.428   0.504  2.8469 -1.5403  1.7780
  282SOL    HW2  846   1.661   2.601   0.520 -0.9053  0.9217  1.6936
  283SOL     OW  847   1.136   0.874   0.723 -1.0369 -0.1295  0.1963
  283SOL    HW1  848   1.160   0.823   0.805  0.3277  1.4494  0.8468
  283SOL    HW2  849   1.047   0.927   0.729  3.1706  1.4980  1.2129
  284SOL     OW  850   2.211   2.817   2.427  0.1743 -0.2587  0.5394
  284SOL    HW1  851   2.226   2.870   2.511 -0.6917 -3.0267 -1.2790
  284SOL    HW2  852   2.212   2.869   2.333  0.0820  1.2385  0.3843
  285SOL     OW  853   1.377   3.054   2.539  0.2743  0.1311  0.3554
  285SOL    HW1  854   1.392   3.061   2.433  1.5397 -1.4832 -3.5012
  285SOL    HW2  855   1.306   3.121   2.562  0.5800 -1.1918 -0.9040
  286SOL     OW  856   0.428   0.428   0.634  0.1366  0.0530 -0.2668
  286SOL    HW1  857   0.412   0.379   0.728  1.0764  1.8052 -1.3503
  286SOL    HW2  858   0.403   0.372   0.547  0.7164  5.5917 -1.1445
  287SOL     OW  859   0.081   1.307   2.541 -0.3430 -0.0958 -0.1225
  287SOL    HW1  860   0.073   1.218   2.596 -0.7207 -0.1177 -1.3684
  287SOL    HW2  861   0.004   1.375   2.564  3.6598 -1.3279 -0.6060
  288SOL     OW  862   1.587   2.591   1.471  0.3611 -0.2418  0.0945
  288SOL    HW1  863   1.689   2.567   1.506  1.1530 -1.7510  0.7817
  288SOL    HW2  864   1.575   2.580   1.370  0.4859 -1.2407 -2.2208
  289SOL     OW  865   0.624   2.711   0.846  0.0461  0.3090 -0.3719
  289SOL    HW1  866   0.641   2.792   0.788 -3.0078 -0.0191  2.5049
  289SOL    HW2  867   0.640   2.727   0.949  1.4182  1.3530  0.3221
  290SOL     OW  868   3.001   1.288   1.660 -0.4946 -0.0665 -0.3183
  290SOL    HW1  869   2.905   1.276   1.691 -2.4601  0.5164  0.9077
  290SOL    HW2  870   3.072   1.238   1.717 -0.1383  3.3024  1.3156
  291SOL     OW  871   1.991   0.043   0.108  0.0056 -0.1124 -0.6039
  291SOL    HW1  872   2.025   0.022   0.205  0.1813  0.9785  0.8789
  291SOL    HW2  873   2.017   0.142   0.084 -1.0318  0.2202 -1.7047
  292SOL     OW  874   2.942   1.174   3.076  0.3260  0.5355 -0.1243
  292SOL    HW1  875   2.881   1.251   3.037 -0.4326  1.3558 -0.4330
  292SOL    HW2  876   3.019   1.152   3.008  0.7666 -0.4939 -0.5153
  293SOL     OW  877   0.537   2.123   0.162 -0.0576 -0.6107 -0.8245
  293SOL    HW1  878   0.505   2.158   0.257  1.3055  0.8596 -1.8432
  293SOL    HW2  879   0.639   2.098   0.167 -0.2933  0.3413  1.6627
  294SOL     OW  880   1.609   2.112   1.825  0.1379 -1.0587  0.5423
  294SOL    HW1  881   1.590   2.180   1.908  0.8974  1.1531  0.5655
  294SOL    HW2  882   1.687   2.147   1.766 -0.7843  0.5276  1.3791
  295SOL     OW  883   0.981   1.173   0.423  0.1754  0.0427 -0.3560
  295SOL    HW1  884   1.064   1.149   0.476 -0.2758  0.2845  0.2462
  295SOL    HW2  885   0.891   1.135   0.451 -0.9021 -0.5895  1.3583
  296SOL     OW  886   1.282   2.106   2.517 -0.0433  0.2421  0.1611
  296SOL    HW1  887   1.232   2.169   2.455  0.2535  1.0260 -1.7077
  296SOL    HW2  888   1.320   2.014   2.477  2.0981 -3.3422 -2.9838
  297SOL     OW  889   1.496   0.708   1.387  0.0477  0.2121 -0.4573
  297SOL    HW1  890   1.551   0.630   1.431  2.2580 -0.2374 -0.9791
  297SOL    HW2  891   1.486   0.790   1.447  0.7831  0.1237 -1.9052
  298SOL     OW  892   0.569   1.364   2.832 -0.3844 -0.8476  0.1337
  298SOL    HW1  893   0.572   1.273   2.883  1.1703 -2.0335  0.3115
  298SOL    HW2  894   0.605   1.352   2.737 -2.7894  1.3795  0.6811
  299SOL     OW  895   0.356   0.381   1.512  0.0621 -0.2736  0.0526
  299SOL    HW1  896   0.372   0.458   1.443 -0.9776 -0.3963 -1.1920
  299SOL    HW2  897   0.443   0.342   1.550  0.6559  1.7713 -0.1545
  300SOL     OW  898   1.263   1.825   2.857  0.9755 -0.2640 -0.0557
  300SOL    HW1  899   1.309   1.753   2.802  1.2129  0.8977 -0.3887
  300SOL    HW2  900   1.256   1.794   2.957 -1.9023 -1.1277 -1.4193
  301SOL     OW  901   0.422   0.249   0.431  0.3077  1.0029  0.6305
  301SOL    HW1  902   0.321   0.238   0.412  1.0952  0.0205  1.2167
  301SOL    HW2  903   0.472   0.171   0.389  1.6166  2.3012 -1.4579
  302SOL     OW  904   1.157   2.308   2.375  0.7498  0.0037 -0.5010
  302SOL    HW1  905   1.091   2.377   2.426 -0.9431 -0.2756  3.5811
  302SOL    HW2  906   1.114   2.252   2.304  2.6628  2.4344  1.0639
  303SOL     OW  907   0.926   2.406   0.773  0.0132  0.0122 -0.2768
  303SOL    HW1  908   0.988   2.471   0.725  0.0478 -2.1302 -0.5298
  303SOL    HW2  909   0.908   2.438   0.871 -0.5483  2.6706 -0.9469
  304SOL     OW  910   0.080   1.991   0.671  0.1804 -0.0826  0.0568
  304SOL    HW1  911   0.105   1.919   0.608  1.0746 -1.9952  3.7553
  304SOL    HW2  912   0.041   2.074   0.616 -2.1304  2.2117  0.9807
  305SOL     OW  913   1.614   0.872   0.682 -0.4926  0.3371 -0.2438
  305SOL    HW1  914   1.521   0.873   0.635 -0.9013 -1.0085  4.1597
  305SOL    HW2  915   1.682   0.814   0.631 -2.2430  1.8601 -0.9587
  306SOL     OW  916   0.425   1.952   1.931 -0.3442 -0.5503 -0.1546
  306SOL    HW1  917   0.468   1.865   1.902 -2.2575  1.7475  1.0645
  306SOL    HW2  918   0.424   1.968   2.033  1.6055 -1.3234 -0.0741
  307SOL     OW  919   0.006   0.863   2.546 -0.3852  0.5288 -0.2571
  307SOL    HW1  920   0.018   0.952   2.602  0.5309  0.4446  0.9028
  307SOL    HW2  921  -0.049   0.786   2.599  3.2773 -2.7400  3.3584
  308SOL     OW  922   1.568   2.702   2.787 -0.4680 -0.3992  0.4202
  308SOL    HW1  923   1.537   2.701   2.691  3.1617 -1.2425  0.0055
  308SOL    HW2  924   1.547   2.605   2.832 -0.6284 -3.6208  0.3498
  309SOL     OW  925   1.258   0.019   1.813  0.5427 -0.3754  0.5113
  309SOL    HW1  926   1.359   0.025   1.836  4.0459  0.3576  1.5840
  309SOL    HW2  927   1.255   0.060   1.717 -1.2346 -0.0054 -0.3571
  310SOL     OW  928   1.434   2.634   0.728  0.0548  0.2492 -0.7987
  310SOL    HW1  929   1.356   2.706   0.726 -4.0454 -1.4195 -0.6438
  310SOL    HW2  930   1.523   2.671   0.683  2.2150  3.3646  0.2691
  311SOL     OW  931   1.223   1.008   1.454 -0.0484 -0.8222 -0.2142
  311SOL    HW1  932   1.300   0.949   1.478  1.1669  2.7114  2.4514
  311SOL    HW2  933   1.239   1.109   1.483  1.3920 -1.5586 -0.2268
  312SOL     OW  934   1.637   0.645   1.033 -0.1489 -0.0944 -0.6024
  312SOL    HW1  935   1.622   0.747   1.039 -2.4824 -0.2485  1.6596
  312SOL    HW2  936   1.569   0.598   0.971 -0.4870 -0.0056 -2.7300
  313SOL     OW  937   1.598   1.448   0.483 -0.3364 -0.2311 -0.2041
  313SOL    HW1  938   1.516   1.483   0.535  2.0254  1.2187  0.6186
  313SOL    HW2  939   1.571   1.386   0.407  0.7083 -2.3918  0.0509
  314SOL     OW  940   2.949   0.081   3.079 -0.9883 -0.4010 -0.0870
  314SOL    HW1  941   2.960   0.109   3.178  0.3559  0.0496 -0.1177
  314SOL    HW2  942   2.866   0.015   3.065  0.2318 -3.7011 -0.9509
  315SOL     OW  943   1.287   0.247   2.747 -0.3186 -0.5987 -0.2728
  315SOL    HW1  944   1.248   0.176   2.679  2.0217 -2.8215  1.4987
  315SOL    HW2  945   1.288   0.210   2.843 -1.6716  1.4962 -0.9048
  316SOL     OW  946   1.684   2.086   0.919  0.9024  0.6100 -0.5315
  316SOL    HW1  947   1.644   2.075   1.017 -1.1615 -0.5682  4.4086
  316SOL    HW2  948   1.706   2.179   0.895  1.4995 -2.0742 -0.8795
  317SOL     OW  949   1.164   0.685   2.804 -0.2039  0.3397  0.1422
  317SOL    HW1  950   1.095   0.749   2.843  1.8341 -0.7700 -1.1145
  317SOL    HW2  951   1.117   0.591   2.788 -0.0459  0.9220  0.0984
  318SOL     OW  952   1.398   3.096   2.270  0.2623  1.0047 -0.6863
  318SOL    HW1  953   1.393   3.188   2.231 -0.6142 -1.8553 -0.0780
  318SOL    HW2  954   1.446   3.027   2.207  3.5778  1.2685 -1.3790
  319SOL     OW  955   0.658   2.400   2.925 -0.1691  0.1333  0.1157
  319SOL    HW1  956   0.581   2.387   2.993  1.4727  2.5494  0.4025
  319SOL    HW2  957   0.719   2.319   2.937 -1.1339 -1.3171 -1.8818
  320SOL     OW  958   1.581   2.264   0.453  0.1542  0.1976 -0.1337
  320SOL    HW1  959   1.672   2.214   0.478  0.6076 -1.8366 -1.5007
  320SOL    HW2  960   1.496   2.211   0.481 -0.5766  1.3442 -2.3061
  321SOL     OW  961   1.625   2.783   0.499  0.3010 -0.2012  0.5240
  321SOL    HW1  962   1.552   2.827   0.437  0.9294  1.4749 -1.4120
  321SOL    HW2  963   1.726   2.806   0.479  1.6029  1.7775 -0.4415
  322SOL     OW  964   2.662   1.132   2.279  0.5406 -0.8176 -0.5336
  322SOL    HW1  965   2.733   1.179   2.343  1.2934  1.7961  0.0078
  322SOL    HW2  966   2.614   1.056   2.331 -1.0148 -3.5694 -0.1242
  323SOL     OW  967   1.001   2.747   0.864  0.2001 -0.3976 -0.0623
  323SOL    HW1  968   1.010   2.710   0.771 -1.5085 -1.5227  1.5051
  323SOL    HW2  969   0.994   2.852   0.870 -0.2614  1.9370  3.1063
  324SOL     OW  970   0.083   2.507   2.414 -0.5153 -0.0478  0.5700
  324SOL    HW1  971   0.089   2.403   2.441  1.2321 -3.1555 -0.6336
  324SOL    HW2  972   0.041   2.564   2.492 -0.7607 -1.0321  2.2865
  325SOL     OW  973   1.200   3.056   0.486 -0.0607  0.4516 -0.3968
  325SOL    HW1  974   1.219   3.117   0.406  2.1860 -3.6490  2.5857
  325SOL    HW2  975   1.207   3.105   0.580  2.7001  0.5173 -1.0097
  326SOL     OW  976   2.309   0.826   0.087 -0.2234 -0.3904 -0.2133
  326SOL    HW1  977   2.270   0.777   0.002  0.6759  0.2651 -1.3705
  326SOL    HW2  978   2.345   0.762   0.159  0.2608 -1.2641 -1.3047
  327SOL     OW  979   2.694   0.433   0.537 -0.4308  0.2412  0.1444
  327SOL    HW1  980   2.734   0.374   0.461 -0.6777 -0.9453  0.1692
  327SOL    HW2  981   2.607   0.393   0.579  1.5504  0.0432  0.9796
  328SOL     OW  982   2.553   0.615   0.354 -0.2946  0.1928 -0.4034
  328SOL    HW1  983   2.482   0.684   0.386  1.0776 -2.1917  3.6266
  328SOL    HW2  984   2.560   0.541   0.426 -2.0786  1.8646 -0.2049
  329SOL     OW  985   3.011   2.942   2.132  0.0607  0.3468  0.0283
  329SOL    HW1  986   3.084   2.902   2.198 -2.2324 -2.6942 -0.2467
  329SOL    HW2  987   3.023   3.045   2.111 -3.1626 -2.7188  0.0362
  330SOL     OW  988   0.486   0.219   1.879  0.1597  0.4811 -0.4215
  330SOL    HW1  989   0.507   0.320   1.880 -0.5003 -0.0708 -3.7426
  330SOL    HW2  990   0.559   0.167   1.928  1.0835  1.1587 -2.2441
  331SOL     OW  991   2.869   1.931   1.084 -0.2391  0.3989  0.4818
  331SOL    HW1  992   2.944   2.003   1.066  0.9617  0.6033  0.3105
  331SOL    HW2  993   2.827   1.943   1.176  2.6419 -2.6611 -3.1063
  332SOL     OW  994   0.407   1.028   0.030  0.4033  0.3091  0.0476
  332SOL    HW1  995   0.336   1.018  -0.046  1.8487  1.3953  1.8181
  332SOL    HW2  996   0.360   1.065   0.113 -1.4307  0.4980 -3.3111
  333SOL     OW  997   2.864   1.028   0.318 -0.6198  0.0204  0.0586
  333SOL    HW1  998   2.896   1.118   0.365  1.1383  1.9478 -0.7066
  333SOL    HW2  999   2.948   0.970   0.293  2.5189 -2.1385 -1.5159
  334SOL     OW 1000   1.634   1.149   1.887 -0.0296 -0.0572 -0.3089
  334SOL    HW1 1001   1.730   1.118   1.861  3.1931 -1.9985  3.7612
  334SOL    HW2 1002   1.644   1.234   1.952  2.1489  1.4295  1.3079
  335SOL     OW 1003   1.921   2.808   2.619  0.9685 -0.1224 -0.1962
  335SOL    HW1 1004   2.001   2.809   2.684  1.2540  0.1349  3.2651
  335SOL    HW2 1005   1.871   2.899   2.627 -2.2806 -0.3243 -0.4702
  336SOL     OW 1006   0.209   0.068   2.704 -0.5004 -0.1574 -0.6813
  336SOL    HW1 1007   0.296   0.019   2.694  0.5142  0.6453  1.3376
  336SOL    HW2 1008   0.228   0.149   2.767 -0.5037 -0.4537  1.6222
  337SOL     OW 1009   1.013   2.805   2.827 -0.3926  0.3328 -0.2959
  337SOL    HW1 1010   0.973   2.788   2.924  0.2045 -0.6287  0.6945
  337SOL    HW2 1011   1.110   2.759   2.821 -1.4546 -1.5853 -0.0553
  338SOL     OW 1012   0.014   1.027   0.629 -0.1009 -0.2856 -0.6926
  338SOL    HW1 1013  -0.084   0.992   0.645 -2.4201 -0.4334 -1.2985
  338SOL    HW2 1014   0.008   1.129   0.628  1.2551  2.1931 -1.7873
  339SOL     OW 1015   1.704   1.392   2.043  0.3929  0.3321  0.6421
  339SOL    HW1 1016   1.605   1.417   2.059 -0.6630  0.5513 -0.7063
  339SOL    HW2 1017   1.767   1.473   2.040 -1.6571  0.3771  0.1944
  340SOL     OW 1018   2.282   0.794   1.281  0.3387  0.0188  0.3111
  340SOL    HW1 1019   2.197   0.834   1.230  0.0769  0.4571 -1.1355
  340SOL    HW2 1020   2.329   0.723   1.224 -1.5068 -0.7010 -0.4274
  341SOL     OW 1021   1.858   2.165   0.463  0.8674 -0.2546  0.5183
  341SOL    HW1 1022   1.856   2.186   0.358 -0.6714 -0.4617  2.0731
  341SOL    HW2 1023   1.948   2.187   0.505  0.3001 -2.7666 -2.6461
  342SOL     OW 1024   2.242   2.181   2.788  0.3026  0.6514  0.5471
  342SOL    HW1 1025   2.312   2.110   2.808 -4.1425  1.4135  3.1557
  342SOL    HW2 1026   2.147   2.142   2.813 -2.9238  0.3185  0.7756
  343SOL     OW 1027   0.310   0.887   2.861 -0.1215 -0.1713  0.5133
  343SOL    HW1 1028   0.305   0.950   2.775 -1.5573  1.1506 -1.2507
  343SOL    HW2 1029   0.403   0.849   2.877  0.8970  0.0060 -0.3616
  344SOL     OW 1030   1.904   1.461   0.290 -0.6178  0.1878  0.2761
  344SOL    HW1 1031   1.832   1.387   0.275 -0.3628  1.3596 -1.1319
  344SOL    HW2 1032   1.865   1.556   0.291 -0.7033 -3.2411  1.4900
  345SOL     OW 1033   1.469   2.215   2.872 -0.5257 -0.2798 -0.6134
  345SOL    HW1 1034   1.371   2.196   2.847  0.9558  0.3720 -1.7187
  345SOL    HW2 1035   1.542   2.158   2.824  0.8863 -0.0847  1.2971
  346SOL     OW 1036   2.388   0.881   1.521  0.6662  0.2347 -0.4796
  346SOL    HW1 1037   2.346   0.969   1.549  1.9515  0.8144  0.1424
  346SOL    HW2 1038   2.351   0.848   1.425  1.4171 -0.1904 -1.4747
  347SOL     OW 1039   0.678   2.830   1.536 -0.4386 -0.8815 -0.6474
  347SOL    HW1 1040   0.644   2.784   1.622 -0.8248 -0.7172 -1.5008
  347SOL    HW2 1041   0.614   2.912   1.514  0.5716  0.4097  1.9259
  348SOL     OW 1042   0.121   0.701   2.822 -0.6654 -0.3455 -0.2067
  348SOL    HW1 1043   0.030   0.733   2.786 -1.2719 -1.2809 -4.1516
  348SOL    HW2 1044   0.190   0.778   2.824  0.9080  1.1183  0.5148
  349SOL     OW 1045   1.935   0.470   2.727 -0.4789 -0.2483  0.4428
  349SOL    HW1 1046   1.869   0.529   2.668  1.7581  2.1586  0.2594
  349SOL    HW2 1047   1.920   0.487   2.827  2.0732  1.5947  0.5424
  350SOL     OW 1048   1.687   0.375   0.345 -0.1735  0.0402 -0.0289
  350SOL    HW1 1049   1.723   0.410   0.435 -3.2298 -1.7571 -1.1234
  350SOL    HW2 1050   1.608   0.433   0.302 -0.6287  2.1126  3.2960
  351SOL     OW 1051   0.911   0.903   2.115  0.6902  0.6096 -0.3228
  351SOL    HW1 1052   0.889   0.995   2.086 -0.7118 -3.2880  0.1156
  351SOL    HW2 1053   0.873   0.829   2.052  1.2948  0.8265  0.8470
  352SOL     OW 1054   1.969   1.371   0.554  0.1211 -0.1341  0.6957
  352SOL    HW1 1055   1.954   1.414   0.458  1.7210 -0.5895 -0.6410
  352SOL    HW2 1056   2.046   1.422   0.602 -0.0749 -2.0497 -2.9815
  353SOL     OW 1057   2.132   2.802   1.192  0.6012  0.2644  0.4005
  353SOL    HW1 1058   2.225   2.766   1.185 -0.3827  1.5878 -3.2320
  353SOL    HW2 1059   2.062   2.743   1.141 -0.0342 -0.6606 -2.5468
  354SOL     OW 1060   0.294   1.370   2.930  0.4001  0.1575 -0.1971
  354SOL    HW1 1061   0.222   1.421   2.876 -2.9531 -0.8642 -0.5344
  354SOL    HW2 1062   0.386   1.374   2.880 -0.1512 -0.2445 -2.4431
  355SOL     OW 1063   0.456   1.491   0.496  0.1565  0.2838  0.8621
  355SOL    HW1 1064   0.513   1.578   0.468  0.2228  0.6161  2.9545
  355SOL    HW2 1065   0.522   1.409   0.510 -1.3230 -1.0272  2.9007
  356SOL     OW 1066   0.783   0.396   2.076  0.6453  0.0320 -0.1274
  356SOL    HW1 1067   0.880   0.408   2.106 -1.1393 -2.4025 -0.5719
  356SOL    HW2 1068   0.765   0.308   2.024 -0.3739  2.4979 -1.1754
  357SOL     OW 1069   1.069   1.317   0.176 -0.4767  0.0964  0.0224
  357SOL    HW1 1070   1.060   1.269   0.086  3.2003  2.6824 -0.4760
  357SOL    HW2 1071   1.003   1.289   0.251  0.3512 -0.8019  1.7109
  358SOL     OW 1072   1.608   1.641   0.273  0.3941  0.1254 -0.1625
  358SOL    HW1 1073   1.600   1.555   0.332  0.0300 -0.4062  1.2617
  358SOL    HW2 1074   1.541   1.717   0.308 -1.1975 -0.6054  1.9438
  359SOL     OW 1075   1.569   2.711   0.120  0.0149 -0.0262  0.0045
  359SOL    HW1 1076   1.580   2.634   0.054  0.6196  3.6465  1.4196
  359SOL    HW2 1077   1.484   2.702   0.181 -0.7867  0.1093 -0.2105
  360SOL     OW 1078   0.841   0.577   0.447  0.4527  0.1090  0.5170
  360SOL    HW1 1079   0.759   0.572   0.508  4.4480  1.4476 -1.9662
  360SOL    HW2 1080   0.888   0.487   0.434  1.1838  0.1558 -1.8196
  361SOL     OW 1081   1.280   1.373   0.633  0.0753 -0.1213 -0.1746
  361SOL    HW1 1082   1.316   1.375   0.728 -1.6829 -0.1790  0.3693
  361SOL    HW2 1083   1.174   1.378   0.635  0.1321 -0.7105  2.4882
  362SOL     OW 1084   1.382   1.738   0.793  0.2404 -0.2287 -0.3729
  362SOL    HW1 1085   1.398   1.665   0.863  0.0047 -1.7376  0.6773
  362SOL    HW2 1086   1.447   1.820   0.800  0.1769  2.3939 -1.8023
  363SOL     OW 1087   1.122   1.277   2.052 -0.1296  0.2904 -0.2632
  363SOL    HW1 1088   1.103   1.375   2.085  1.4262  0.7486  0.8583
  363SOL    HW2 1089   1.170   1.276   1.958 -1.4894  0.7740 -2.7498
  364SOL     OW 1090   0.575   2.381   1.989  0.2359 -0.6193  0.5296
  364SOL    HW1 1091   0.473   2.358   1.990  0.5474 -0.5002  1.3195
  364SOL    HW2 1092   0.607   2.380   1.891 -0.5932  0.6356  1.8209
  365SOL     OW 1093   1.142   1.761   1.443  0.1140  0.4020  0.2039
  365SOL    HW1 1094   1.050   1.783   1.487 -0.8882 -0.7097 -0.6285
  365SOL    HW2 1095   1.165   1.662   1.440  0.0023 -1.6097  0.6665
  366SOL     OW 1096   2.831   2.076   0.489 -0.0581 -0.2200 -0.2582
  366SOL    HW1 1097   2.749   2.012   0.488  2.0575 -2.7596  1.4589
  366SOL    HW2 1098   2.914   2.026   0.455 -1.9364  0.1046  3.1264
  367SOL     OW 1099   0.832   1.173   0.079 -0.2691 -0.1182 -0.1864
  367SOL    HW1 1100   0.887   1.112   0.143  2.0329 -0.9217  2.3161
  367SOL    HW2 1101   0.852   1.151  -0.023  0.2235  2.8260 -3.6404
  368SOL     OW 1102   1.500   0.498   0.599 -0.0156 -0.2220  0.3020
  368SOL    HW1 1103   1.434   0.553   0.532  0.1630 -0.2850 -2.1644
  368SOL    HW2 1104   1.596   0.496   0.561  1.3387  0.2054 -1.4321
  369SOL     OW 1105   0.273   1.670   0.124  0.4282 -0.0353 -0.8782
  369SOL    HW1 1106   0.287   1.764   0.175  1.6716  4.2316  1.2020
  369SOL    HW2 1107   0.200   1.604   0.159  2.6609 -1.9803  1.4012
  370SOL     OW 1108   0.459   2.120   0.980 -0.0804 -0.0960  0.0078
  370SOL    HW1 1109   0.468   2.218   0.947  2.6401  1.1525  2.4084
  370SOL    HW2 1110   0.364   2.082   0.958  0.0847 -0.3323 -0.7752
  371SOL     OW 1111   2.976   2.167   2.787  0.1029  0.6475 -0.1377
  371SOL    HW1 1112   2.952   2.199   2.885  0.3732  2.8595  1.2301
  371SOL    HW2 1113   3.054   2.221   2.748 -2.1700 -3.2287  1.8755
  372SOL     OW 1114   0.862   1.926   1.009  0.3198 -0.2130  0.0816
  372SOL    HW1 1115   0.886   2.001   1.077 -2.0700 -2.8858  2.2609
  372SOL    HW2 1116   0.926   1.918   0.927  2.1515  0.7499 -0.8386
  373SOL     OW 1117   1.928   1.928   0.916  0.2174 -0.1448  0.3928
  373SOL    HW1 1118   2.001   1.976   0.974  0.3240  0.6014 -1.1483
  373SOL    HW2 1119   1.845   1.986   0.900  0.0293 -1.8501 -3.2155
  374SOL     OW 1120   1.810   0.443   0.575  0.5009  0.1921  0.2467
  374SOL    HW1 1121   1.816   0.410   0.671 -0.0451  1.5109  1.5603
  374SOL    HW2 1122   1.897   0.412   0.523 -2.1917  1.6149 -2.7391
  375SOL     OW 1123   2.463   2.322   1.151  0.1630 -0.1199 -0.8592
  375SOL    HW1 1124   2.521   2.277   1.077 -0.3004 -0.7497 -1.4327
  375SOL    HW2 1125   2.484   2.273   1.237  0.0520 -1.3569 -2.6214
  376SOL     OW 1126   3.032   0.660   1.478  0.3411 -0.4452 -0.4718
  376SOL    HW1 1127   3.087   0.703   1.559  0.6477  2.0994  1.5383
  376SOL    HW2 1128   2.940   0.700   1.465  1.5362  0.8452  0.1316
  377SOL     OW 1129   2.166   2.806   0.318 -0.2108 -0.5208  0.3089
  377SOL    HW1 1130   2.117   2.890   0.347  2.5404  1.3671  1.0131
  377SOL    HW2 1131   2.271   2.810   0.332  2.5252 -0.7185 -1.6349
  378SOL     OW 1132   1.872   1.821   2.681  0.2965  0.1856 -0.2982
  378SOL    HW1 1133   1.953   1.756   2.681 -0.9036 -2.2041 -0.7420
  378SOL    HW2 1134   1.783   1.784   2.718 -2.2458  0.6667 -1.5752
  379SOL     OW 1135   0.874   0.109   2.679  0.3647 -0.7380  0.3408
  379SOL    HW1 1136   0.874   0.013   2.640 -0.3620 -0.1310  0.4982
  379SOL    HW2 1137   0.817   0.173   2.619 -0.3713 -1.0763  0.9809
  380SOL     OW 1138   1.589   1.128   0.515 -0.1541 -0.1291  0.6449
  380SOL    HW1 1139   1.525   1.044   0.526 -3.2996  0.0486 -0.8765
  380SOL    HW2 1140   1.598   1.192   0.593 -0.6644  0.3334  0.2954
  381SOL     OW 1141   1.304   1.273   1.505 -0.1074 -0.0618  0.3931
  381SOL    HW1 1142   1.302   1.329   1.422 -0.4730 -0.3647  0.0400
  381SOL    HW2 1143   1.395   1.273   1.560  1.9468  0.0511  0.5745
  382SOL     OW 1144   1.726   0.797   0.246 -0.0638 -0.0645  0.6804
  382SOL    HW1 1145   1.732   0.802   0.139  0.6747  1.9520 -0.3103
  382SOL    HW2 1146   1.818   0.780   0.281 -1.5933 -2.4573  0.7694
  383SOL     OW 1147   2.645   1.008   1.526  0.6014  0.1438 -0.1869
  383SOL    HW1 1148   2.558   0.955   1.491 -2.4353 -4.0591  2.0592
  383SOL    HW2 1149   2.724   0.996   1.470 -0.0052 -2.8953  2.4802
  384SOL     OW 1150   1.019   2.304   0.123 -0.2529 -0.0968 -0.1039
  384SOL    HW1 1151   0.940   2.358   0.156 -1.9023 -0.6808 -2.7851
  384SOL    HW2 1152   1.059   2.237   0.198  0.2620  1.4026  0.4367
  385SOL     OW 1153   2.965   2.047   1.681  0.8989  0.7144  0.2077
  385SOL    HW1 1154   3.043   2.118   1.676 -2.2765  0.2477  0.4040
  385SOL    HW2 1155   2.998   1.942   1.684  2.8628 -1.8983  0.5877
  386SOL     OW 1156   0.410   1.060   0.434  0.3665 -0.4835  0.5125
  386SOL    HW1 1157   0.416   0.959   0.446  0.7562  1.7824 -1.1028
  386SOL    HW2 1158   0.351   1.080   0.346  1.6863 -1.3377  0.1780
  387SOL     OW 1159   1.024   0.352   1.698 -0.2277  0.4832 -0.1182
  387SOL    HW1 1160   1.068   0.449   1.697 -0.8292 -0.9665  1.6935
  387SOL    HW2 1161   1.003   0.315   1.607 -0.7199  0.4155 -0.9735
  388SOL     OW 1162   1.257   2.557   1.766  0.2877 -0.1172 -0.4225
  388SOL    HW1 1163   1.271   2.532   1.663  0.6753  1.9963 -1.8435
  388SOL    HW2 1164   1.330   2.511   1.821  1.8383  3.0342  0.1365
  389SOL     OW 1165   0.231   0.006   1.134  0.3335 -0.3014 -0.5300
  389SOL    HW1 1166   0.196   0.008   1.234  1.1830 -0.0905 -0.4893
  389SOL    HW2 1167   0.305  -0.065   1.121 -2.5096  0.5849  0.3578
  390SOL     OW 1168   1.072   0.856   1.181 -0.2096  0.2969 -0.6674
  390SOL    HW1 1169   1.174   0.824   1.193  1.8850 -1.1162  0.6721
  390SOL    HW2 1170   1.023   0.864   1.268  2.6427 -0.2586 -1.2475
  391SOL     OW 1171   2.085   1.137   1.101 -0.5602 -0.4544 -0.4637
  391SOL    HW1 1172   2.051   1.045   1.128  1.9371 -0.3144 -1.2277
  391SOL    HW2 1173   2.167   1.136   1.038 -2.6826  1.6245  0.5139
  392SOL     OW 1174   0.926   2.718   3.067 -0.3205 -0.1649  0.6647
  392SOL    HW1 1175   0.835   2.708   3.119 -2.0929 -1.8318 -0.8065
  392SOL    HW2 1176   0.996   2.777   3.119  1.5385 -1.0320  0.2862
  393SOL     OW 1177   0.356   0.592   1.991  0.4348 -0.1862  0.2081
  393SOL    HW1 1178   0.279   0.527   1.968 -0.6780  1.6469 -1.1247
  393SOL    HW2 1179   0.450   0.548   1.979  0.9520 -1.2257  1.5216
  394SOL     OW 1180   2.815   1.826   2.748  0.3268 -0.3356 -0.2047
  394SOL    HW1 1181   2.890   1.830   2.679 -2.1600  1.6984 -0.8495
  394SOL    HW2 1182   2.784   1.924   2.761 -0.5861 -4.0565  0.4945
  395SOL     OW 1183   1.544   1.953   0.715  0.1032  0.3285 -0.3012
  395SOL    HW1 1184   1.575   1.871   0.660  0.1069 -3.6790  1.6130
  395SOL    HW2 1185   1.614   1.996   0.775  3.5223 -0.9913  0.8207
  396SOL     OW 1186   2.733   1.953   1.321 -0.3466  0.1608  0.2041
  396SOL    HW1 1187   2.716   2.022   1.399  3.0880  1.4523  0.0705
  396SOL    HW2 1188   2.679   1.866   1.333 -0.4916  1.9306  0.1099
  397SOL     OW 1189   0.948   2.155   0.635  0.5306  0.1046 -0.0457
  397SOL    HW1 1190   0.852   2.144   0.595 -1.5443 -3.9137 -1.8967
  397SOL    HW2 1191   0.959   2.244   0.688 -2.2104  0.6131  1.2436
  398SOL     OW 1192   2.226   3.075   1.134  0.1820 -0.1586 -0.9369
  398SOL    HW1 1193   2.184   2.982   1.135  0.7377  2.2548 -1.0982
  398SOL    HW2 1194   2.159   3.153   1.104 -2.7067  2.8385  0.1732
  399SOL     OW 1195   2.891   2.597   2.789 -0.1503 -0.5803 -0.7880
  399SOL    HW1 1196   2.844   2.579   2.703  1.7503  3.2708  0.0773
  399SOL    HW2 1197   2.854   2.549   2.871  0.7933 -1.2766 -3.0308
  400SOL     OW 1198   0.813   1.570   1.302  0.0123 -0.4768  0.1655
  400SOL    HW1 1199   0.798   1.631   1.387  0.6698 -0.3531  1.3770
  400SOL    HW2 1200   0.806   1.616   1.209 -1.7476 -1.5727  0.9263
  401SOL     OW 1201   1.867   0.156   1.273 -0.1263  0.1080  0.1204
  401SOL    HW1 1202   1.931   0.197   1.345  2.1557 -1.1413  0.7771
  401SOL    HW2 1203   1.771   0.135   1.309 -3.2878  2.5783 -0.1965
  402SOL     OW 1204   1.380   0.142   3.020 -1.0678 -0.2776 -0.2261
  402SOL    HW1 1205   1.483   0.127   2.985 -0.6595  3.6566  3.4240
  402SOL    HW2 1206   1.378   0.197   3.108  0.7333 -2.9654 -0.1670
  403SOL     OW 1207   2.263   1.858   0.948  0.1101  0.2332  0.4261
  403SOL    HW1 1208   2.361   1.860   0.989  1.4869  1.3469  0.8284
  403SOL    HW2 1209   2.200   1.927   0.989 -0.2431 -0.9991 -2.5830
  404SOL     OW 1210   0.215   2.491   2.767  0.0410 -0.5727 -0.1988
  404SOL    HW1 1211   0.319   2.472   2.769  1.0456 -0.2332  1.7309
  404SOL    HW2 1212   0.189   2.589   2.783  1.0335 -0.2756  0.1556
  405SOL     OW 1213   0.182   2.539   0.559 -0.0923 -0.8616  0.1261
  405SOL    HW1 1214   0.229   2.450   0.583  0.4025 -1.4332  0.9838
  405SOL    HW2 1215   0.250   2.621   0.559  1.3388  0.7017  0.7687
  406SOL     OW 1216   0.040   1.639   3.018 -0.0254  0.0560  0.2270
  406SOL    HW1 1217   0.104   1.598   2.954 -1.4302  0.3444  2.7849
  406SOL    HW2 1218   0.078   1.629   3.117 -0.7165 -1.3157  1.0723
  407SOL     OW 1219   1.541   0.912   0.931  0.6322  0.6199 -0.0834
  407SOL    HW1 1220   1.578   0.894   0.834  3.0095  1.6485  0.2141
  407SOL    HW2 1221   1.471   0.988   0.940 -2.1996 -1.4191  3.3970
  408SOL     OW 1222   1.466   2.319   0.911  0.1736 -0.0079 -0.1597
  408SOL    HW1 1223   1.556   2.304   0.859  0.9190  1.5141  2.5655
  408SOL    HW2 1224   1.471   2.410   0.962  0.1492 -1.2925  1.0762
  409SOL     OW 1225   0.609   0.847   0.692 -0.0407  0.4213 -0.1850
  409SOL    HW1 1226   0.538   0.869   0.619  0.8808  3.4575 -3.3266
  409SOL    HW2 1227   0.631   0.746   0.690 -0.6894 -2.9210  0.2885
  410SOL     OW 1228   1.348   1.917   1.471  0.0312  0.9938  0.3182
  410SOL    HW1 1229   1.312   2.011   1.479  2.1184  2.4451 -2.0171
  410SOL    HW2 1230   1.265   1.851   1.473 -1.9060 -1.7830 -1.6182
  411SOL     OW 1231   2.372   1.865   0.063  0.2411 -0.2859  0.1222
  411SOL    HW1 1232   2.272   1.860   0.021 -0.7964  1.5157 -0.4123
  411SOL    HW2 1233   2.441   1.883  -0.011  0.4529  0.2464 -0.0423
  412SOL     OW 1234   1.628   2.443   2.252 -0.2988 -0.0447  0.3716
  412SOL    HW1 1235   1.640   2.543   2.226  1.0808  2.3541  1.1377
  412SOL    HW2 1236   1.529   2.430   2.285 -1.9863 -2.2607  1.1509
  413SOL     OW 1237   3.073   0.243   2.900  0.1323  0.8823 -0.8924
  413SOL    HW1 1238   3.026   0.192   2.977 -2.5507 -1.0119 -0.9899
  413SOL    HW2 1239   3.171   0.225   2.902  0.0274  0.8983  0.9635
  414SOL     OW 1240   1.710   1.362   1.389 -0.0753  0.0763 -0.2766
  414SOL    HW1 1241   1.633   1.396   1.438  0.9063 -2.5241 -3.0036
  414SOL    HW2 1242   1.694   1.359   1.283 -0.4798  2.2148 -0.9736
  415SOL     OW 1243   0.214   2.266   0.669 -0.3321  0.3537 -0.2232
  415SOL    HW1 1244   0.233   2.222   0.758 -3.5080 -0.4123 -4.3008
  415SOL    HW2 1245   0.114   2.247   0.645  3.0263 -1.3773 -1.1120
  416SOL     OW 1246   0.317   1.080   1.089 -0.0475 -0.0944 -0.2731
  416SOL    HW1 1247   0.271   1.057   0.996 -0.7270 -0.1313  1.3104
  416SOL    HW2 1248   0.395   1.147   1.080  2.9393 -0.6351  0.3354
  417SOL     OW 1249   2.206   2.331   1.849 -0.1513  0.3532  0.8942
  417SOL    HW1 1250   2.280   2.258   1.859  1.6001  0.3966 -0.2876
  417SOL    HW2 1251   2.125   2.315   1.910 -2.6110  0.4411 -0.5199
  418SOL     OW 1252   1.147   0.563   1.348 -0.7238 -0.0580  0.2437
  418SOL    HW1 1253   1.071   0.499   1.326 -0.0501 -4.0937 -1.1560
  418SOL    HW2 1254   1.231   0.556   1.278  3.7310 -0.5310 -2.8333
  419SOL     OW 1255   0.957   0.388   2.989  0.0881  0.2555  0.0775
  419SOL    HW1 1256   1.003   0.386   2.895 -0.3526  0.2876 -0.0404
  419SOL    HW2 1257   0.880   0.319   2.993  1.2594 -1.3819  0.0815
  420SOL     OW 1258   0.197   2.222   0.325 -0.3554  0.2794  0.5805
  420SOL    HW1 1259   0.150   2.188   0.241  2.4983  5.9000  2.2817
  420SOL    HW2 1260   0.146   2.234   0.415  1.2943  1.2480  2.6072
  421SOL     OW 1261   0.297   0.055   0.707  0.5530  0.1014  0.3484
  421SOL    HW1 1262   0.334   0.013   0.620 -0.5724  0.6300 -2.2507
  421SOL    HW2 1263   0.362   0.125   0.750 -0.5575  1.7070  2.7637
  422SOL     OW 1264   0.917   2.534   1.014  0.0346 -0.5297  0.8642
  422SOL    HW1 1265   0.940   2.622   0.961  3.7968  2.8338  1.4513
  422SOL    HW2 1266   0.964   2.528   1.104 -0.4751 -1.3759  1.3135
  423SOL     OW 1267   0.057   0.665   1.219  0.1408  0.7407  0.1358
  423SOL    HW1 1268   0.033   0.694   1.312  2.4209  2.4204 -0.1742
  423SOL    HW2 1269  -0.027   0.635   1.163 -2.8188  1.5329  0.9862
  424SOL     OW 1270   1.011   2.163   2.215 -0.4787 -0.4486  0.1454
  424SOL    HW1 1271   0.981   2.242   2.152 -0.0523  0.1684  0.4948
  424SOL    HW2 1272   0.945   2.136   2.288 -0.4363  0.6694 -1.1480
  425SOL     OW 1273   2.075   1.413   1.128 -0.3193 -0.5454  0.1487
  425SOL    HW1 1274   2.035   1.315   1.112  0.7145 -1.3341 -1.6868
  425SOL    HW2 1275   2.088   1.458   1.037 -2.6098  1.0026 -0.0796
  426SOL     OW 1276   1.459   1.547   1.437  0.5856 -0.2347 -0.1507
  426SOL    HW1 1277   1.438   1.630   1.374  0.4354 -0.9129  0.7569
  426SOL    HW2 1278   1.472   1.578   1.533  0.7595 -0.5985 -0.8769
  427SOL     OW 1279   1.988   2.333   2.019  0.1411 -0.0409 -0.4260
  427SOL    HW1 1280   2.022   2.275   2.101  2.2404 -4.2480  2.5614
  427SOL    HW2 1281   1.979   2.436   2.044  0.2350  1.3732 -0.4683
  428SOL     OW 1282   0.915   0.018   0.056  0.2598 -0.0055 -0.0857
  428SOL    HW1 1283   0.948   0.109   0.098 -0.6969 -1.5042 -0.1306
  428SOL    HW2 1284   0.983  -0.054   0.073 -1.4916 -0.1725 -0.6686
  429SOL     OW 1285   1.241   0.067   0.233  0.3638  0.2315 -0.3835
  429SOL    HW1 1286   1.311   0.139   0.232 -2.6354 -1.1196  0.4123
  429SOL    HW2 1287   1.241   0.009   0.144 -4.9561 -0.3404  1.3327
  430SOL     OW 1288   2.783   1.464   0.287  0.1051  0.5854  0.4401
  430SOL    HW1 1289   2.733   1.510   0.212 -2.5106  0.6774 -0.2998
  430SOL    HW2 1290   2.812   1.532   0.366  0.3501  1.0067  3.6629
  431SOL     OW 1291   2.123   1.598   0.924 -0.2673  0.0772 -0.0827
  431SOL    HW1 1292   2.193   1.668   0.961 -2.2080  2.3269 -1.5642
  431SOL    HW2 1293   2.028   1.637   0.934 -0.9889  1.4131 -0.1687
  432SOL     OW 1294   2.939   2.168   1.270 -0.0497  0.4714 -0.3851
  432SOL    HW1 1295   2.879   2.088   1.296 -0.3372  2.3089 -0.1393
  432SOL    HW2 1296   2.913   2.252   1.327 -2.1140 -2.1190  1.8646
  433SOL     OW 1297   1.851   0.330   0.832  0.3865 -1.7655 -0.2793
  433SOL    HW1 1298   1.766   0.283   0.865 -3.0029 -0.4979 -2.8708
  433SOL    HW2 1299   1.903   0.385   0.908  2.6391  0.4852  0.2578
  434SOL     OW 1300   1.467   0.220   0.733 -0.0587  0.0589 -0.5767
  434SOL    HW1 1301   1.469   0.303   0.679  1.1161 -1.3185  1.3254
  434SOL    HW2 1302   1.519   0.229   0.825  1.4207  0.4941  0.6482
  435SOL     OW 1303   1.442   1.386   2.077 -0.0385  0.2362 -0.3684
  435SOL    HW1 1304   1.411   1.399   2.177 -0.9212  0.9693 -0.8546
  435SOL    HW2 1305   1.395   1.458   2.014 -1.2941  1.8235  0.2964
  436SOL     OW 1306   1.672   2.695   2.445 -0.1809 -0.5074  0.7277
  436SOL    HW1 1307   1.681   2.782   2.499  0.5444  0.6061 -1.6982
  436SOL    HW2 1308   1.611   2.629   2.492  1.0280 -2.2656 -1.4032
  437SOL     OW 1309   1.031   3.024   0.872 -0.3656 -0.1852  0.1275
  437SOL    HW1 1310   0.968   3.096   0.829 -1.7428 -2.1971 -0.5413
  437SOL    HW2 1311   1.077   3.054   0.959  0.4515 -2.9431 -1.8523
  438SOL     OW 1312   0.998   2.569   1.266 -0.1331  0.0026  0.3410
  438SOL    HW1 1313   1.076   2.635   1.273  0.3568 -0.9435  0.9306
  438SOL    HW2 1314   1.006   2.475   1.313 -2.4376 -2.6519  0.6082
  439SOL     OW 1315   0.721   1.686   1.066 -0.5062 -0.1554 -0.2388
  439SOL    HW1 1316   0.758   1.779   1.032 -0.2520  0.7665 -1.3815
  439SOL    HW2 1317   0.623   1.694   1.092  0.0711 -0.5237 -0.1096
  440SOL     OW 1318   0.945   2.330   2.002  0.4058  0.0042 -0.5948
  440SOL    HW1 1319   0.953   2.398   1.924  0.1765 -0.1939 -1.6882
  440SOL    HW2 1320   0.966   2.232   1.974  2.5131  0.9883  1.0277
  441SOL     OW 1321   0.361   2.806   1.316  0.0221  0.5181  0.2022
  441SOL    HW1 1322   0.391   2.708   1.322 -0.0216  0.1739  1.6746
  441SOL    HW2 1323   0.372   2.841   1.218  2.1729  1.8719  1.5569
  442SOL     OW 1324   2.223   0.682   2.564 -0.0727 -0.0088  0.2744
  442SOL    HW1 1325   2.220   0.591   2.511  1.4126 -1.5284  1.5957
  442SOL    HW2 1326   2.139   0.741   2.561  0.3600 -0.2306 -0.6237
  443SOL     OW 1327   1.331   2.489   2.247 -0.1835  0.0710 -0.3161
  443SOL    HW1 1328   1.283   2.413   2.299 -2.2122 -1.0536 -1.8510
  443SOL    HW2 1329   1.284   2.581   2.260 -3.8163  0.1972 -0.4652
  444SOL     OW 1330   0.945   1.138   1.429  0.3983  1.2647  0.2726
  444SOL    HW1 1331   1.043   1.115   1.434  1.2366  0.1119 -0.1568
  444SOL    HW2 1332   0.935   1.239   1.423 -1.3686 -0.1863  1.8386
  445SOL     OW 1333   0.159   2.104   2.019  0.0230  0.1110  0.5161
  445SOL    HW1 1334   0.181   2.013   2.061 -0.4551  1.1285 -2.4846
  445SOL    HW2 1335   0.088   2.153   2.081 -2.1033  0.4756  1.3715
  446SOL     OW 1336   0.136   1.998   2.383 -0.5543  0.3662 -0.0008
  446SOL    HW1 1337   0.094   2.089   2.373 -0.4396 -3.3880  0.1872
  446SOL    HW2 1338   0.138   1.949   2.291 -2.7299  1.3088  1.1029
  447SOL     OW 1339   1.323   1.594   1.902 -0.5577  1.0917  0.9721
  447SOL    HW1 1340   1.247   1.651   1.859 -0.9765  0.5162  1.9102
  447SOL    HW2 1341   1.402   1.657   1.936 -1.4798  2.0516 -2.7939
  448SOL     OW 1342   0.147   1.471   2.026  0.2998 -0.1077 -0.1242
  448SOL    HW1 1343   0.155   1.571   1.988  1.7510  1.9551  0.5018
  448SOL    HW2 1344   0.065   1.460   2.087 -0.6370  0.0828 -3.3875
  449SOL     OW 1345   1.869   3.032   0.836  0.1547  0.3384  0.1863
  449SOL    HW1 1346   1.867   3.039   0.934 -1.3470  1.4897 -0.0941
  449SOL    HW2 1347   1.886   2.933   0.808  2.8932 -0.7094 -2.4564
  450SOL     OW 1348   2.162   1.505   0.678  0.4257  0.1826  0.3525
  450SOL    HW1 1349   2.132   1.535   0.773 -0.7505  2.2936  0.0760
  450SOL    HW2 1350   2.242   1.560   0.646  2.1641  1.1368 -1.4913
  451SOL     OW 1351   1.399   2.982   1.486  0.0573  0.3628 -1.0561
  451SOL    HW1 1352   1.347   3.060   1.520  0.5658 -0.9501 -0.2289
  451SOL    HW2 1353   1.406   2.909   1.561 -1.1082  0.3428  3.0008
  452SOL     OW 1354   2.677   2.310   2.263 -0.8375  0.7880  0.5163
  452SOL    HW1 1355   2.602   2.382   2.257  1.4492 -0.2658 -1.2747
  452SOL    HW2 1356   2.687   2.269   2.357 -0.4369  1.2565 -0.2725
  453SOL     OW 1357   2.489   2.683   0.010  0.5144  0.0005 -0.0333
  453SOL    HW1 1358   2.401   2.742   0.034 -0.6512 -1.3818  1.3331
  453SOL    HW2 1359   2.469   2.611  -0.068 -1.3215 -2.0999  2.1643
  454SOL     OW 1360   0.879   1.163   2.020  0.6573 -0.2352  0.2352
  454SOL    HW1 1361   0.822   1.171   1.934 -1.1519 -1.7215  1.2928
  454SOL    HW2 1362   0.967   1.224   2.013 -1.2325  0.8363  0.8590
  455SOL     OW 1363   0.789   2.609   2.787 -0.1970 -0.3221  0.5011
  455SOL    HW1 1364   0.891   2.620   2.798 -2.1075  2.2876  0.8885
  455SOL    HW2 1365   0.761   2.523   2.827 -0.0677  1.5349 -1.4620
  456SOL     OW 1366   0.301   1.930   0.197  0.2298 -0.2472  0.4542
  456SOL    HW1 1367   0.396   1.955   0.170  0.8805  0.1161  0.7465
  456SOL    HW2 1368   0.238   2.011   0.171  0.2897  0.4831 -0.5808
  457SOL     OW 1369   0.413   2.695   0.635  0.0476 -0.6974  0.1729
  457SOL    HW1 1370   0.469   2.743   0.563 -2.4988  0.1841 -0.5803
  457SOL    HW2 1371   0.467   2.629   0.697 -0.1324  0.2973  2.1448
  458SOL     OW 1372   2.969   0.011   1.292 -0.2809 -0.1930 -0.6088
  458SOL    HW1 1373   2.992   0.103   1.250 -2.0373 -0.4327 -0.8342
  458SOL    HW2 1374   2.986  -0.064   1.225  1.1266  1.5997 -1.3379
  459SOL     OW 1375   2.114   2.532   0.744  0.0488 -0.6035 -0.1604
  459SOL    HW1 1376   2.188   2.497   0.805 -2.1880 -1.9750  0.9730
  459SOL    HW2 1377   2.152   2.568   0.654  0.2748  3.6266 -3.1326
  460SOL     OW 1378   1.219   2.083   2.800 -0.1341 -0.3466 -0.0234
  460SOL    HW1 1379   1.259   2.095   2.702  1.2235  1.0845 -1.5267
  460SOL    HW2 1380   1.230   1.986   2.837  2.7870  0.8675 -0.2314
  461SOL     OW 1381   0.471   2.112   2.733  0.0811 -0.0717  0.7484
  461SOL    HW1 1382   0.367   2.094   2.731 -2.0811  0.9036  1.5150
  461SOL    HW2 1383   0.519   2.033   2.776  1.2568  0.6855  2.3331
  462SOL     OW 1384   0.975   1.039   1.727 -0.0744 -0.5082 -0.2920
  462SOL    HW1 1385   0.969   0.970   1.650 -1.0316 -2.4538  0.5622
  462SOL    HW2 1386   0.905   1.116   1.720 -0.8835  1.6377 -0.9628
  463SOL     OW 1387   0.418   0.782   0.500  0.3260 -0.6091 -0.0165
  463SOL    HW1 1388   0.460   0.698   0.450  0.9772  0.1785  0.5368
  463SOL    HW2 1389   0.330   0.758   0.549 -0.2491  1.9113 -1.0743
  464SOL     OW 1390   0.542   2.340   2.288 -0.5168  0.0973 -0.1355
  464SOL    HW1 1391   0.466   2.380   2.342 -0.1369 -1.5113  0.4716
  464SOL    HW2 1392   0.537   2.356   2.187  0.7207 -0.3590  0.3289
  465SOL     OW 1393   0.239   0.964   0.813  0.1625  0.8029 -0.0141
  465SOL    HW1 1394   0.151   0.998   0.770 -0.2153  0.1987  1.3791
  465SOL    HW2 1395   0.260   0.861   0.793 -1.6867  2.1114 -0.3216
  466SOL     OW 1396   1.359   1.146   0.848 -0.2975  0.3735 -0.0186
  466SOL    HW1 1397   1.357   1.249   0.868  0.7419  0.5281 -1.0457
  466SOL    HW2 1398   1.276   1.093   0.881 -0.9203  1.3900  2.8209
  467SOL     OW 1399   0.608   0.448   2.550  1.0937 -0.0025  0.7360
  467SOL    HW1 1400   0.564   0.540   2.552 -0.0630 -2.0401  1.0917
  467SOL    HW2 1401   0.548   0.370   2.583 -3.2948  0.7594  2.4393
  468SOL     OW 1402   0.483   2.269   1.605 -0.1641 -0.1522 -0.3183
  468SOL    HW1 1403   0.579   2.301   1.628  0.2314 -1.9825 -0.4328
  468SOL    HW2 1404   0.459   2.284   1.505 -0.3993 -0.5265 -0.3272
  469SOL     OW 1405   1.439   1.347   1.212 -0.7217 -0.4287  0.6279
  469SOL    HW1 1406   1.527   1.329   1.164 -1.5529  0.5432  0.3334
  469SOL    HW2 1407   1.436   1.444   1.246  1.8147  0.9166  0.1588
  470SOL     OW 1408   2.969   1.844   0.800  0.4892  0.0413 -0.1995
  470SOL    HW1 1409   3.040   1.912   0.759  0.5760  1.8363  0.2663
  470SOL    HW2 1410   2.973   1.837   0.903 -1.4460  0.5492  1.0104
  471SOL     OW 1411   2.689   1.391   2.172 -0.0120 -0.0768  0.4335
  471SOL    HW1 1412   2.667   1.290   2.187  0.7231  0.1732 -1.8830
  471SOL    HW2 1413   2.719   1.444   2.260  3.3229  2.1162  0.4228
  472SOL     OW 1414   1.290   2.393   0.058  0.2883 -0.3532  0.6904
  472SOL    HW1 1415   1.367   2.335   0.099  0.8046  1.7623 -0.4022
  472SOL    HW2 1416   1.201   2.392   0.109  0.7012  0.2992 -0.1067
  473SOL     OW 1417   1.070   1.493   0.960  0.2170  0.0776 -0.1248
  473SOL    HW1 1418   0.969   1.499   0.938 -0.0797  1.7479  0.7203
  473SOL    HW2 1419   1.092   1.415   1.027 -0.6753 -0.2255  0.1474
  474SOL     OW 1420   0.632   1.272   0.429  0.3944 -0.1988  0.5690
  474SOL    HW1 1421   0.571   1.227   0.357  1.1225  2.9049 -2.3246
  474SOL    HW2 1422   0.662   1.211   0.504 -1.4733 -0.4467  1.7913
  475SOL     OW 1423   2.894   0.012   0.874  0.0328  0.4015 -0.9454
  475SOL    HW1 1424   2.935   0.103   0.910  1.0826  2.0256 -1.9463
  475SOL    HW2 1425   2.790   0.020   0.862 -1.6599  2.8963  5.2695
  476SOL     OW 1426   0.973   3.069   1.818  0.1759 -0.4297 -0.1797
  476SOL    HW1 1427   1.066   3.090   1.855  0.3632  1.5455 -0.4098
  476SOL    HW2 1428   0.983   3.015   1.733  0.5523  0.3429 -1.0731
  477SOL     OW 1429   1.466   0.309   2.454 -0.4359  0.4446  0.0392
  477SOL    HW1 1430   1.488   0.315   2.556 -0.2404 -1.1971  1.2530
  477SOL    HW2 1431   1.533   0.249   2.396  1.0518 -0.3642 -0.8214
  478SOL     OW 1432   2.263   1.948   0.348 -0.3468 -0.2837  0.0423
  478SOL    HW1 1433   2.213   1.875   0.409  0.9159 -4.4352  0.5070
  478SOL    HW2 1434   2.331   1.903   0.290 -0.9889  3.1834  0.7053
  479SOL     OW 1435   1.288   1.026   2.883 -0.2250 -0.6227 -0.3908
  479SOL    HW1 1436   1.395   1.023   2.865 -0.6169  1.6781  1.3974
  479SOL    HW2 1437   1.232   0.954   2.835  1.3127  1.0013 -0.0197
  480SOL     OW 1438   2.636   2.255   0.432  0.2002  0.4404  0.0565
  480SOL    HW1 1439   2.721   2.207   0.467 -0.4449  2.6174 -1.8335
  480SOL    HW2 1440   2.542   2.224   0.473 -0.3229  0.8509  1.2055
  481SOL     OW 1441   0.944   1.109   0.735  0.1592 -0.0815  0.2947
  481SOL    HW1 1442   1.004   1.184   0.687  2.5993  4.3498 -1.7476
  481SOL    HW2 1443   0.988   1.076   0.823  0.1020  0.8858  1.0588
  482SOL     OW 1444   1.571   0.279   2.019 -0.4014  0.1940  0.6202
  482SOL    HW1 1445   1.567   0.377   1.984 -1.7560  2.2213  1.8647
  482SOL    HW2 1446   1.666   0.255   2.055 -0.2653 -1.4002 -0.1975
  483SOL     OW 1447   0.172   2.367   1.198  0.1690  0.1645 -0.0469
  483SOL    HW1 1448   0.155   2.459   1.251 -1.9520  3.7685 -1.0451
  483SOL    HW2 1449   0.197   2.386   1.102 -2.8078  1.3729  0.3017
  484SOL     OW 1450   1.731   1.045   1.446  0.2577 -0.4496  0.2032
  484SOL    HW1 1451   1.819   0.995   1.439 -0.3896 -0.8079  0.1735
  484SOL    HW2 1452   1.749   1.146   1.445 -0.9819  1.5534  0.7278
  485SOL     OW 1453   0.787   0.741   1.926 -0.5296  0.3432  0.3011
  485SOL    HW1 1454   0.744   0.789   1.844  0.0980  1.6335  0.2457
  485SOL    HW2 1455   0.872   0.683   1.901  1.2801 -0.0300 -1.7327
  486SOL     OW 1456   0.915   1.849   2.480  0.0212  0.5230  0.2899
  486SOL    HW1 1457   0.944   1.817   2.572 -1.3241  2.5207 -2.7190
  486SOL    HW2 1458   0.875   1.949   2.479 -0.1849  0.6234 -0.1425
  487SOL     OW 1459   1.755   1.564   1.031 -0.1481  0.4178 -0.6106
  487SOL    HW1 1460   1.763   1.463   1.061 -1.2472 -0.1190  1.0140
  487SOL    HW2 1461   1.797   1.593   0.941 -0.2756  1.3950  0.6433
  488SOL     OW 1462   2.887   0.848   2.280  0.9663 -0.5259 -0.7492
  488SOL    HW1 1463   2.983   0.806   2.275  1.2636 -3.0756 -0.9803
  488SOL    HW2 1464   2.824   0.793   2.339  0.5585  1.3428 -0.5446
  489SOL     OW 1465   2.857   0.319   1.289 -0.8287  0.1615  0.2431
  489SOL    HW1 1466   2.857   0.315   1.394 -1.3955 -0.6946  0.0003
  489SOL    HW2 1467   2.954   0.301   1.248  0.6109  1.6207 -2.0043
  490SOL     OW 1468   1.520   3.012   2.787 -0.7534  0.1225  0.0371
  490SOL    HW1 1469   1.536   2.912   2.803  1.3820  1.4523 -0.1417
  490SOL    HW2 1470   1.447   3.033   2.716 -0.2628  0.7062  1.0676
  491SOL     OW 1471   1.787   1.512   2.749  0.1822 -0.6420  0.6080
  491SOL    HW1 1472   1.759   1.429   2.807  1.6387  0.2603 -1.1178
  491SOL    HW2 1473   1.891   1.528   2.743 -2.4687 -2.8326  1.2700
  492SOL     OW 1474   0.683   2.145   0.597 -0.0993 -0.3944  0.6388
  492SOL    HW1 1475   0.682   2.191   0.689  0.4573 -4.2594 -2.5121
  492SOL    HW2 1476   0.603   2.163   0.530 -1.6555 -0.9757 -1.5231
  493SOL     OW 1477   0.387   1.340   2.098 -0.1884 -0.0945 -0.0224
  493SOL    HW1 1478   0.300   1.397   2.091 -0.5661 -0.9051  0.4143
  493SOL    HW2 1479   0.369   1.240   2.121 -1.8103 -1.5467 -0.0509
  494SOL     OW 1480   2.714   2.652   0.158 -0.6807  0.0423  0.4169
  494SOL    HW1 1481   2.712   2.642   0.262  2.2068  0.3421 -2.0610
  494SOL    HW2 1482   2.620   2.671   0.114  1.8584  0.8873  1.4297
  495SOL     OW 1483   2.543   2.808   2.670 -0.0265  0.3850 -0.9140
  495SOL    HW1 1484   2.526   2.702   2.680  3.4062 -2.2788 -0.8129
  495SOL    HW2 1485   2.625   2.825   2.606  0.8811 -2.2885  2.6787
  496SOL     OW 1486   1.992   2.243   0.848 -0.4494  0.5032  0.0906
  496SOL    HW1 1487   2.053   2.167   0.822  1.3778  0.7068 -0.7940
  496SOL    HW2 1488   2.037   2.321   0.897  0.4292  0.6123 -2.3672
  497SOL     OW 1489   0.357   2.970   2.344  0.2149 -0.2299  0.0285
  497SOL    HW1 1490   0.261   3.008   2.377 -2.0367  0.1840 -1.1152
  497SOL    HW2 1491   0.386   3.017   2.254  0.6595  0.0694 -2.4333
  498SOL     OW 1492   1.158   1.284   1.149  0.7218  0.4137  0.4550
  498SOL    HW1 1493   1.260   1.275   1.173  2.8993 -0.7015 -1.4116
  498SOL    HW2 1494   1.098   1.339   1.214 -0.1017  0.4318  2.7044
  499SOL     OW 1495   0.626   1.693   0.453  0.0144  0.6067 -0.5347
  499SOL    HW1 1496   0.635   1.674   0.353 -0.4572  0.6290  0.8069
  499SOL    HW2 1497   0.702   1.759   0.483 -0.4319  2.3971 -1.0158
  500SOL     OW 1498   1.462   2.786   1.662 -0.2939 -0.2850  0.1906
  500SOL    HW1 1499   1.488   2.760   1.761  2.8310 -2.2294  2.5466
  500SOL    HW2 1500   1.510   2.726   1.594  0.6052 -1.0258  0.5613
  501SOL     OW 1501   0.800   1.251   2.268 -0.4298  0.0306  0.9241
  501SOL    HW1 1502   0.734   1.176   2.303 -1.3062 -0.0086  0.9774
  501SOL    HW2 1503   0.818   1.236   2.165 -1.1037 -2.2953 -1.8244
  502SOL     OW 1504   2.532   0.940   1.785 -0.0687 -1.2193  0.2130
  502SOL    HW1 1505   2.568   0.988   1.700  3.1315  1.1689 -0.8992
  502SOL    HW2 1506   2.491   0.850   1.768 -1.4842  3.2224 -2.2481
  503SOL     OW 1507   1.201   0.134   0.690  0.5156  0.0916  0.4406
  503SOL    HW1 1508   1.162   0.195   0.760  1.3243 -0.6612  1.8890
  503SOL    HW2 1509   1.305   0.145   0.694 -0.5064 -2.1801 -1.6132
  504SOL     OW 1510   2.952   2.385   1.506 -0.1679 -0.0232  0.5818
  504SOL    HW1 1511   2.926   2.443   1.594  0.3130  0.8080  3.1152
  504SOL    HW2 1512   2.966   2.286   1.524 -2.8408  0.3957 -1.2924
  505SOL     OW 1513   2.331   1.162   1.510 -0.1617  0.1377 -0.3616
  505SOL    HW1 1514   2.322   1.178   1.408 -1.8809 -2.6722  1.1912
  505SOL    HW2 1515   2.374   1.244   1.552 -2.1637 -2.2643  0.0220
  506SOL     OW 1516   1.931   0.246   1.897  0.1108 -0.0414 -0.5384
  506SOL    HW1 1517   2.018   0.204   1.867  0.1505  2.1972 -0.2051
  506SOL    HW2 1518   1.930   0.349   1.898 -0.1710  3.3350  0.8939
  507SOL     OW 1519   0.492   0.765   2.161 -0.5255 -0.0077 -0.7407
  507SOL    HW1 1520   0.440   0.736   2.074 -0.4981  1.6137 -0.3384
  507SOL    HW2 1521   0.532   0.683   2.211 -0.2029 -1.7084  2.4865
  508SOL     OW 1522   0.320   1.633   0.798  0.1066  0.5002 -0.5843
  508SOL    HW1 1523   0.404   1.664   0.744 -0.7043 -1.4325 -0.6128
  508SOL    HW2 1524   0.313   1.688   0.881  0.9592 -3.7422 -1.0426
  509SOL     OW 1525   1.274   1.182   2.445 -0.1632  0.1582  0.4657
  509SOL    HW1 1526   1.291   1.132   2.356 -1.8592 -1.6593  3.2803
  509SOL    HW2 1527   1.206   1.136   2.504  1.6322 -1.1235 -1.2055
  510SOL     OW 1528   1.416   2.045   2.183  0.4390  0.1487  0.7650
  510SOL    HW1 1529   1.369   2.086   2.105  1.6306 -2.1055  0.1547
  510SOL    HW2 1530   1.378   1.950   2.214 -2.3407 -0.1776  0.6734
  511SOL     OW 1531   3.000   2.646   1.380  0.0908  0.2402 -0.5116
  511SOL    HW1 1532   2.937   2.679   1.306 -0.2972  0.5686 -0.7672
  511SOL    HW2 1533   2.971   2.553   1.410 -0.8024  0.4262  0.7348
  512SOL     OW 1534   2.381   0.433   1.369 -0.3089 -0.0676  0.0843
  512SOL    HW1 1535   2.288   0.457   1.326  1.0510 -0.5402 -1.7109
  512SOL    HW2 1536   2.435   0.359   1.320 -1.5253  0.7787 -2.2460
  513SOL     OW 1537   2.578   2.150   0.945 -0.3269 -0.3899 -0.5344
  513SOL    HW1 1538   2.538   2.215   0.869 -0.4830  1.2281 -2.9111
  513SOL    HW2 1539   2.655   2.090   0.912 -1.6961 -2.5177  0.6568
  514SOL     OW 1540   0.564   2.796   0.439 -0.0981 -0.0709 -0.0793
  514SOL    HW1 1541   0.595   2.826   0.342 -1.4054 -1.6687 -0.6790
  514SOL    HW2 1542   0.614   2.841   0.518 -1.8970  0.9691  2.5941
  515SOL     OW 1543   1.947   1.349   2.404  0.6116 -0.0249  0.3186
  515SOL    HW1 1544   1.965   1.296   2.315 -1.7564 -1.1750 -1.5069
  515SOL    HW2 1545   1.858   1.315   2.452  0.1997  0.7605  1.9540
  516SOL     OW 1546   0.231   0.148   1.929  0.4448  0.2362  0.3910
  516SOL    HW1 1547   0.322   0.174   1.887  0.0606 -0.6936  0.9095
  516SOL    HW2 1548   0.170   0.100   1.860  0.9381 -2.5922 -1.4609
  517SOL     OW 1549   0.492   0.252   1.112  0.9461  0.2843 -0.2002
  517SOL    HW1 1550   0.542   0.191   1.181 -0.1967 -2.5411  0.6335
  517SOL    HW2 1551   0.400   0.213   1.082 -1.9843 -1.2585  0.4427
  518SOL     OW 1552   2.230   3.034   1.877 -0.4576 -0.6267  0.3002
  518SOL    HW1 1553   2.250   3.137   1.878  1.1097 -1.5066  2.2096
  518SOL    HW2 1554   2.227   3.005   1.775  1.0657  0.2585 -2.1283
  519SOL     OW 1555   2.381   2.237   2.532 -0.1491 -0.1212 -0.0877
  519SOL    HW1 1556   2.301   2.210   2.594  0.3794 -2.1399  2.3870
  519SOL    HW2 1557   2.417   2.333   2.555 -1.2302  0.3593 -0.7571
  520SOL     OW 1558   1.775   2.634   1.706 -0.5728 -0.0407 -0.2241
  520SOL    HW1 1559   1.724   2.617   1.796  2.0739  1.3712 -1.6542
  520SOL    HW2 1560   1.856   2.570   1.687  1.3971 -1.6461  0.6394
  521SOL     OW 1561   0.632   0.086   2.153  0.4981 -0.2010 -0.3719
  521SOL    HW1 1562   0.553   0.032   2.104  1.7638  0.0952 -1.4621
  521SOL    HW2 1563   0.633   0.053   2.253  0.5558 -1.1737  0.9058
  522SOL     OW 1564   0.208   1.908   1.541  0.7052  0.4581 -0.2222
  522SOL    HW1 1565   0.259   1.960   1.620  2.2644 -2.1818  3.4012
  522SOL    HW2 1566   0.172   1.973   1.468  0.8693  1.0952 -0.0463
  523SOL     OW 1567   2.212   2.984   1.580  0.2749 -1.0291 -0.3462
  523SOL    HW1 1568   2.287   2.923   1.559 -1.7501  3.4253  1.4431
  523SOL    HW2 1569   2.119   2.945   1.549 -1.1234  0.9484  1.2968
  524SOL     OW 1570   0.202   2.756   2.814  0.0302  0.4367  0.3495
  524SOL    HW1 1571   0.152   2.809   2.894 -1.4729  3.1638  0.3440
  524SOL    HW2 1572   0.300   2.745   2.824 -0.6151  0.7680  0.3544
  525SOL     OW 1573   2.136   2.136   0.496 -0.4752 -0.5126 -0.2364
  525SOL    HW1 1574   2.127   2.073   0.583  1.7204 -0.2730  1.6488
  525SOL    HW2 1575   2.180   2.088   0.416 -0.9812  3.0690  1.5745
  526SOL     OW 1576   0.412   1.490   1.675 -0.3114  0.5696  0.3259
  526SOL    HW1 1577   0.416   1.563   1.745 -1.0320 -0.6714 -0.0232
  526SOL    HW2 1578   0.399   1.392   1.716 -0.3072 -2.3568 -0.5183
  527SOL     OW 1579   1.147   3.068   1.117 -0.1025 -0.4159 -0.2079
  527SOL    HW1 1580   1.207   2.986   1.131  2.7565  2.7708 -3.8019
  527SOL    HW2 1581   1.205   3.156   1.119  2.1116 -1.0267  0.6391
  528SOL     OW 1582   1.303   2.428   0.626 -0.3075 -0.3611 -0.5038
  528SOL    HW1 1583   1.330   2.331   0.620 -2.1324  3.6450 -2.6064
  528SOL    HW2 1584   1.369   2.490   0.681  0.5155  0.6991  3.9513
  529SOL     OW 1585   1.871   1.695   0.813 -0.7803  0.0380  0.1064
  529SOL    HW1 1586   1.829   1.695   0.717  1.8170  3.5694  0.4674
  529SOL    HW2 1587   1.887   1.794   0.852 -0.9303  0.1971  2.0053
  530SOL     OW 1588   0.471   2.548   0.137 -0.4380 -0.1316 -0.2970
  530SOL    HW1 1589   0.498   2.544   0.239  1.4869 -0.0125  0.6260
  530SOL    HW2 1590   0.464   2.455   0.090  0.3167  1.1119  1.3053
  531SOL     OW 1591   1.802   0.970   1.036  0.3422  0.5538  0.0178
  531SOL    HW1 1592   1.825   1.004   0.941  2.8470  2.4365  1.3249
  531SOL    HW2 1593   1.701   0.958   1.053  1.6005 -0.9054  0.6010
  532SOL     OW 1594   0.397   1.158   0.690  0.5084  1.1438 -0.0052
  532SOL    HW1 1595   0.402   1.141   0.589 -0.0842 -2.1817  3.0379
  532SOL    HW2 1596   0.349   1.078   0.740  0.6997 -0.2276  0.7019
  533SOL     OW 1597   1.815   3.085   2.659 -0.5746  0.3846 -0.2835
  533SOL    HW1 1598   1.918   3.084   2.644  1.6445 -3.2667  0.0489
  533SOL    HW2 1599   1.784   3.181   2.678 -0.8257 -0.3952  1.4949
  534SOL     OW 1600   0.178   0.183   1.561 -0.1244 -0.3351 -0.4327
  534SOL    HW1 1601   0.243   0.261   1.537  1.3609  2.1877  0.2523
  534SOL    HW2 1602   0.080   0.217   1.572 -3.1991  1.2834  2.9541
  535SOL     OW 1603   1.892   0.391   0.172 -0.1148 -0.2386  0.1002
  535SOL    HW1 1604   1.957   0.438   0.240  0.7752 -0.2143  0.6243
  535SOL    HW2 1605   1.805   0.386   0.220  5.6705 -1.2710 -3.7292
  536SOL     OW 1606   1.223   2.487   0.918  0.1376 -0.0179  0.0129
  536SOL    HW1 1607   1.303   2.426   0.881 -0.1605 -2.7110 -1.2959
  536SOL    HW2 1608   1.175   2.535   0.842  0.3365 -0.2782  0.5660
  537SOL     OW 1609   0.907   0.211   2.310 -0.2171  0.4195  0.0836
  537SOL    HW1 1610   0.822   0.160   2.275 -1.6400  1.7194  1.4431
  537SOL    HW2 1611   0.990   0.148   2.313 -2.4508  1.8161 -2.6483
  538SOL     OW 1612   1.741   2.210   1.612  0.0781  0.3424 -0.0371
  538SOL    HW1 1613   1.677   2.157   1.547 -1.0533 -0.6588 -0.1677
  538SOL    HW2 1614   1.802   2.271   1.558  0.0835 -0.0332  4.7992
  539SOL     OW 1615   0.167   1.555   2.780 -0.0798 -0.2835  0.4268
  539SOL    HW1 1616   0.076   1.544   2.725 -3.4497 -0.6193 -2.8975
  539SOL    HW2 1617   0.236   1.606   2.723  1.4179  0.7884  0.2507
  540SOL     OW 1618   2.677   1.789   2.134 -0.9807  0.0196 -0.0738
  540SOL    HW1 1619   2.641   1.702   2.090  1.0697 -2.5526  1.4779
  540SOL    HW2 1620   2.694   1.859   2.056  1.5701  2.0926  0.8937
  541SOL     OW 1621   0.434   2.315   0.021 -0.5657 -0.2104 -0.4860
  541SOL    HW1 1622   0.473   2.253   0.097 -0.0428  0.7891  1.1750
  541SOL    HW2 1623   0.354   2.273  -0.039 -3.4812 -2.8630 -1.1965
  542SOL     OW 1624   2.176   2.583   0.478 -0.0490  0.0295 -0.1162
  542SOL    HW1 1625   2.164   2.671   0.424  1.8290 -0.4443 -0.9742
  542SOL    HW2 1626   2.086   2.529   0.472 -2.8717 -1.1189 -2.1927
  543SOL     OW 1627   1.108   1.727   1.775  0.1213  1.0360 -0.3516
  543SOL    HW1 1628   1.091   1.784   1.860 -0.3751 -1.1663 -0.3123
  543SOL    HW2 1629   1.036   1.739   1.702 -2.2526  1.1061 -2.1429
  544SOL     OW 1630   0.839   0.487   0.108 -0.0660 -0.2269  0.0058
  544SOL    HW1 1631   0.868   0.410   0.169 -1.4413 -1.9969  0.5045
  544SOL    HW2 1632   0.891   0.478   0.018  0.9171 -1.2188  1.0571
  545SOL     OW 1633   1.141   1.719   0.626 -0.0559 -0.3002  0.3862
  545SOL    HW1 1634   1.236   1.723   0.667  0.3035  2.6428  1.5743
  545SOL    HW2 1635   1.139   1.744   0.523  0.5561  0.6854 -1.9341
  546SOL     OW 1636   2.692   1.606   0.030  0.6569 -0.0824  0.1575
  546SOL    HW1 1637   2.763   1.573  -0.043  5.0841 -4.6438 -0.0183
  546SOL    HW2 1638   2.589   1.590   0.019  0.4146  1.2977 -3.0185
  547SOL     OW 1639   0.468   3.049   2.722  0.1562  0.5935 -0.2929
  547SOL    HW1 1640   0.496   2.973   2.657 -0.0691 -0.1083  1.7356
  547SOL    HW2 1641   0.471   3.018   2.818  2.1412 -1.7640  0.9045
  548SOL     OW 1642   2.069   0.771   2.969 -0.4891 -0.2036  0.3094
  548SOL    HW1 1643   1.977   0.742   3.009  4.7631  1.2594 -0.2225
  548SOL    HW2 1644   2.090   0.862   3.018  0.4020  0.2342 -0.1668
  549SOL     OW 1645   0.577   0.460   0.074 -0.0824 -0.2441  0.8429
  549SOL    HW1 1646   0.523   0.535   0.025 -2.1119 -0.5937 -1.6251
  549SOL    HW2 1647   0.679   0.489   0.088  2.4141  0.1714  1.8893
  550SOL     OW 1648   2.520   2.902   2.923  0.0090 -0.0478 -0.7557
  550SOL    HW1 1649   2.509   2.839   3.004 -1.5972  0.4778 -1.8326
  550SOL    HW2 1650   2.556   2.847   2.840 -0.5909  0.7827 -2.3775
  551SOL     OW 1651   0.272   0.824   0.228 -0.1605  0.2366  0.0455
  551SOL    HW1 1652   0.353   0.770   0.202  0.8498  0.6773  0.2732
  551SOL    HW2 1653   0.249   0.816   0.331 -0.2990  1.9501 -0.4241
  552SOL     OW 1654   0.857   2.826   1.906  0.0424 -0.0332  0.5455
  552SOL    HW1 1655   0.827   2.817   2.006  2.0869  1.4432 -0.9736
  552SOL    HW2 1656   0.865   2.926   1.872 -2.6535  1.8876 -0.1952
  553SOL     OW 1657   3.094   2.558   0.357 -0.3501 -0.1271  0.3580
  553SOL    HW1 1658   3.054   2.467   0.331  2.2992  1.7699 -2.1869
  553SOL    HW2 1659   3.181   2.545   0.415  0.4217 -0.1705 -0.4522
  554SOL     OW 1660   2.108   0.352   0.496 -0.1494  0.4676 -0.4198
  554SOL    HW1 1661   2.162   0.320   0.416  3.1269  1.4331  3.3653
  554SOL    HW2 1662   2.076   0.269   0.555  0.1605 -3.7846 -0.9072
  555SOL     OW 1663   0.525   2.861   2.536  0.3247 -0.2530 -0.6853
  555SOL    HW1 1664   0.458   2.898   2.461 -0.7069 -0.8310 -1.2972
  555SOL    HW2 1665   0.595   2.795   2.506 -0.9985  2.1939 -0.2891
  556SOL     OW 1666   0.982   2.363   1.628 -0.0623  0.6381  0.6322
  556SOL    HW1 1667   1.023   2.444   1.678 -0.2680 -1.5396 -0.0680
  556SOL    HW2 1668   1.013   2.355   1.527 -2.3312  0.2651 -1.2233
  557SOL     OW 1669   0.120   2.121   0.082  0.2909  0.3213  0.5371
  557SOL    HW1 1670   0.030   2.062   0.084  1.5831 -2.5859  1.9606
  557SOL    HW2 1671   0.147   2.167  -0.006  0.4299  1.6449  0.8990
  558SOL     OW 1672   2.997   2.310   0.278  0.1052 -0.0372 -0.2092
  558SOL    HW1 1673   2.914   2.242   0.273 -0.2131 -1.7080  2.4243
  558SOL    HW2 1674   3.014   2.363   0.189  0.2975 -0.3028 -1.3374
  559SOL     OW 1675   0.429   2.267   1.349 -0.8928  0.3451 -0.5779
  559SOL    HW1 1676   0.331   2.272   1.313 -0.5349 -0.4190  0.4705
  559SOL    HW2 1677   0.478   2.181   1.319  0.4751  1.8507  0.8637
  560SOL     OW 1678   2.085   1.056   3.016 -0.5125  0.2729 -0.4334
  560SOL    HW1 1679   2.070   1.112   2.928 -2.0142  2.1181  1.5769
  560SOL    HW2 1680   2.030   1.096   3.096 -0.9422  1.1720  0.3740
  561SOL     OW 1681   3.007   1.961   0.066 -0.2581 -0.4997  0.5410
  561SOL    HW1 1682   2.968   1.867   0.072 -0.9756 -0.5537 -0.7074
  561SOL    HW2 1683   2.944   2.026   0.014  0.1335 -0.0088  0.4393
  562SOL     OW 1684   0.852   2.114   2.467 -0.3155  0.2480  0.1578
  562SOL    HW1 1685   0.746   2.104   2.473  0.5380  0.3623 -3.0291
  562SOL    HW2 1686   0.903   2.174   2.541  2.1583  2.5326  2.4259
  563SOL     OW 1687   0.678   2.571   2.550 -0.9737 -0.0809  0.1945
  563SOL    HW1 1688   0.629   2.479   2.552 -1.8516 -1.2956 -0.8011
  563SOL    HW2 1689   0.723   2.582   2.645  2.0654 -0.0363 -0.2838
  564SOL     OW 1690   2.762   1.337   2.938 -0.0694 -0.1648  0.0442
  564SOL    HW1 1691   2.669   1.357   2.982  2.4364 -2.0067 -0.3898
  564SOL    HW2 1692   2.801   1.421   2.891  1.4617 -0.9479  2.1186
  565SOL     OW 1693   2.562   2.036   2.583 -0.5087  0.0147 -0.3982
  565SOL    HW1 1694   2.493   2.108   2.573 -0.0349 -1.8446  1.0863
  565SOL    HW2 1695   2.633   2.056   2.658  2.5020 -2.4411 -3.5988
  566SOL     OW 1696   2.033   2.815   1.459  0.2635  0.3911 -0.1664
  566SOL    HW1 1697   2.048   2.722   1.498 -0.1935  0.2260  2.7035
  566SOL    HW2 1698   2.070   2.818   1.359  1.8162 -0.8837 -2.4768
  567SOL     OW 1699   2.392   0.082   2.216 -0.2397  0.4937 -0.0865
  567SOL    HW1 1700   2.439   0.055   2.129  3.3736  3.1099 -0.2370
  567SOL    HW2 1701   2.289   0.066   2.213 -0.7093 -0.9530  0.7088
  568SOL     OW 1702   1.401   1.802   0.454  0.6352 -0.1495  1.1490
  568SOL    HW1 1703   1.379   1.887   0.396 -0.4313  2.8756 -1.2261
  568SOL    HW2 1704   1.402   1.824   0.552  2.1047  0.6470 -1.9781
  569SOL     OW 1705   0.288   0.692   0.761  0.2903  0.1437 -0.1268
  569SOL    HW1 1706   0.332   0.622   0.689 -3.6014 -3.8093 -1.1188
  569SOL    HW2 1707   0.184   0.680   0.759  2.6973  0.2389 -2.4201
  570SOL     OW 1708   0.586   0.879   2.808  0.3770  0.0450  0.1260
  570SOL    HW1 1709   0.648   0.885   2.722  0.4979 -1.5885 -1.3534
  570SOL    HW2 1710   0.604   0.959   2.871 -1.6504 -1.0351 -0.8266
  571SOL     OW 1711   0.858   3.076   1.190 -0.2195 -0.1462  0.1332
  571SOL    HW1 1712   0.830   3.143   1.116  1.0921  0.4370  0.0435
  571SOL    HW2 1713   0.961   3.067   1.193 -1.6092 -0.7384  0.2858
  572SOL     OW 1714   1.484   2.567   1.179 -0.2510  0.2455 -0.0761
  572SOL    HW1 1715   1.412   2.490   1.185  1.7890  2.8515 -1.1663
  572SOL    HW2 1716   1.442   2.652   1.140  2.9168 -1.2324  0.0313
  573SOL     OW 1717   2.937   0.482   2.070  0.0916  0.0485 -0.1524
  573SOL    HW1 1718   2.911   0.387   2.106 -0.9240  0.5609 -2.2821
  573SOL    HW2 1719   2.852   0.543   2.049 -0.7725  5.0705 -0.6637
  574SOL     OW 1720   0.257   1.773   1.027 -0.4793 -0.6485 -0.2935
  574SOL    HW1 1721   0.239   1.861   0.976 -1.7905 -2.3657  2.6468
  574SOL    HW2 1722   0.186   1.762   1.102  2.4016  0.4593  1.5893
  575SOL     OW 1723   0.973   2.187   1.028 -0.2731  0.2509  0.2119
  575SOL    HW1 1724   0.984   2.260   1.101  0.8715 -0.7887 -0.0635
  575SOL    HW2 1725   1.040   2.190   0.949 -0.9424  0.0835 -2.9337
  576SOL     OW 1726   2.864   2.902   1.745  0.4253  0.4097  0.5169
  576SOL    HW1 1727   2.824   2.840   1.669 -0.7301 -0.1543 -3.4631
  576SOL    HW2 1728   2.791   2.952   1.796  0.6844  3.0733 -1.6927
  577SOL     OW 1729   2.531   1.254   3.060 -0.2245  0.0420  0.3654
  577SOL    HW1 1730   2.505   1.161   3.021  0.3934 -1.0657 -0.9256
  577SOL    HW2 1731   2.598   1.239   3.134 -2.4559  1.6567 -1.9890
  578SOL     OW 1732   1.309   2.777   2.555  0.9069 -0.2951  0.7979
  578SOL    HW1 1733   1.243   2.756   2.476 -2.4488 -0.4973 -0.0421
  578SOL    HW2 1734   1.346   2.871   2.550  0.2267 -0.1748  0.8789
  579SOL     OW 1735   0.143   2.581   0.108 -0.5080 -0.1095  0.2261
  579SOL    HW1 1736   0.101   2.563   0.205 -0.1599  0.1966  2.5076
  579SOL    HW2 1737   0.238   2.548   0.101 -1.1858 -0.9181  1.6234
  580SOL     OW 1738   0.926   2.674   0.390 -0.2878  0.1498  0.1131
  580SOL    HW1 1739   1.026   2.695   0.358  0.3099 -0.9592 -2.8861
  580SOL    HW2 1740   0.888   2.602   0.330  0.0922  2.8636  1.1075
  581SOL     OW 1741   1.224   2.483   1.452 -0.4466  0.5515 -0.3407
  581SOL    HW1 1742   1.266   2.421   1.380 -0.7758 -3.1474 -1.8310
  581SOL    HW2 1743   1.227   2.585   1.429 -0.4038  1.3050  1.2282
  582SOL     OW 1744   1.518   0.062   1.866 -0.3194 -0.1708 -0.3995
  582SOL    HW1 1745   1.548   0.148   1.915  1.1929  2.1732  2.1834
  582SOL    HW2 1746   1.602   0.026   1.818 -2.0799 -1.1990  0.6381
  583SOL     OW 1747   2.355   2.955   0.544  0.7091 -0.5111  0.3988
  583SOL    HW1 1748   2.415   2.896   0.486  1.9127  1.2948  0.2086
  583SOL    HW2 1749   2.318   2.907   0.626 -0.7811  0.8511  0.1215
  584SOL     OW 1750   1.527   0.963   2.069  0.3808  0.1334 -0.1953
  584SOL    HW1 1751   1.588   1.009   1.996 -0.7582  0.0291  1.7710
  584SOL    HW2 1752   1.585   0.921   2.146 -0.5293 -0.8232 -2.7233
  585SOL     OW 1753   2.087   2.730   2.850 -0.3055 -0.9508 -0.1558
  585SOL    HW1 1754   2.147   2.647   2.870  1.3486  3.5803 -0.7039
  585SOL    HW2 1755   2.004   2.731   2.907  3.5546  0.4541  0.1902
  586SOL     OW 1756   2.804   0.272   1.554  0.1783  0.1429  0.3641
  586SOL    HW1 1757   2.774   0.365   1.596  3.7292  2.2965  0.5310
  586SOL    HW2 1758   2.722   0.205   1.544  0.7826 -0.6026 -0.1905
  587SOL     OW 1759   2.046   1.607   2.715 -0.0941  0.1960  0.3257
  587SOL    HW1 1760   2.098   1.576   2.628 -4.0594  1.3713 -2.9544
  587SOL    HW2 1761   2.106   1.617   2.796 -1.0683 -1.3966  3.4847
  588SOL     OW 1762   0.506   2.707   2.241 -0.2415 -0.3732  0.0965
  588SOL    HW1 1763   0.427   2.749   2.182  0.0029 -0.0857  1.8915
  588SOL    HW2 1764   0.473   2.639   2.311  0.6344  1.2008  0.1625
  589SOL     OW 1765   2.166   1.464   2.518  0.0585  0.3298 -0.0633
  589SOL    HW1 1766   2.096   1.406   2.464 -2.0728  1.8692 -1.0661
  589SOL    HW2 1767   2.242   1.409   2.558  0.9200  2.3761 -1.3970
  590SOL     OW 1768   2.326   1.760   2.026  0.2143  0.4764  0.5480
  590SOL    HW1 1769   2.403   1.694   2.008 -2.1204 -0.6763 -1.1132
  590SOL    HW2 1770   2.327   1.793   2.122  2.1207 -2.3342 -1.4550
  591SOL     OW 1771   1.327   2.452   0.340 -0.4439  0.7548 -0.0139
  591SOL    HW1 1772   1.402   2.409   0.278 -1.4595  1.5297  0.8713
  591SOL    HW2 1773   1.339   2.438   0.440 -0.4859 -2.9426 -1.9189
  592SOL     OW 1774   1.717   2.334   0.774 -0.9540 -0.3723 -0.0092
  592SOL    HW1 1775   1.696   2.395   0.696  0.0995 -2.2883  1.8770
  592SOL    HW2 1776   1.821   2.323   0.791 -0.3207  0.5503  0.5780
  593SOL     OW 1777   0.540   0.263   2.991 -0.6290  0.1088 -0.3723
  593SOL    HW1 1778   0.629   0.222   2.960  0.8461  1.2982  3.2435
  593SOL    HW2 1779   0.561   0.334   3.063  1.4669  2.7587 -0.3140
  594SOL     OW 1780   0.946   1.873   2.750 -0.5328 -0.0838 -0.5860
  594SOL    HW1 1781   1.048   1.859   2.744 -2.5075 -0.9790  1.4378
  594SOL    HW2 1782   0.928   1.949   2.817  1.5997  0.1459 -0.5521
  595SOL     OW 1783   1.543   3.069   1.043  0.0608 -0.2802 -0.2598
  595SOL    HW1 1784   1.623   3.006   1.068  0.8453  0.2518 -0.9192
  595SOL    HW2 1785   1.531   3.070   0.942  0.0909  0.0767  0.6206
  596SOL     OW 1786   3.070   1.487   2.231  0.1218 -0.0123  0.3469
  596SOL    HW1 1787   2.979   1.549   2.236 -2.1335  4.0190 -2.9909
  596SOL    HW2 1788   3.127   1.485   2.316  3.0139 -2.2377 -1.2336
  597SOL     OW 1789   2.071   2.566   1.613 -1.0118  0.3872 -0.6204
  597SOL    HW1 1790   2.110   2.472   1.602  1.2039 -2.5945 -1.7328
  597SOL    HW2 1791   2.098   2.603   1.705 -0.8903  2.2254  0.4592
  598SOL     OW 1792   2.598   2.853   1.245  0.8216  0.0186 -0.3225
  598SOL    HW1 1793   2.658   2.901   1.315  0.0896  2.5927 -3.4015
  598SOL    HW2 1794   2.643   2.856   1.153 -1.0587 -1.1302  1.4037
  599SOL     OW 1795   2.932   0.364   2.433  0.1025 -0.2634 -0.3081
  599SOL    HW1 1796   3.034   0.372   2.429  0.2314 -0.2534 -0.4222
  599SOL    HW2 1797   2.875   0.414   2.361  0.2899 -0.6154 -0.5011
  600SOL     OW 1798   2.790   1.102   2.751 -0.2271 -0.5454  0.4010
  600SOL    HW1 1799   2.808   1.030   2.824 -2.9304 -1.7474 -1.5590
  600SOL    HW2 1800   2.725   1.174   2.786 -1.8795  0.6178  2.3840
  601SOL     OW 1801   2.961   1.289   2.040 -0.2523  0.4813  0.1147
  601SOL    HW1 1802   2.882   1.325   1.984  3.3397 -0.1023  1.6191
  601SOL    HW2 1803   3.012   1.353   2.101  0.2667 -2.0490 -0.6470
  602SOL     OW 1804   1.541   1.635   2.285  0.5695  0.9220 -0.0679
  602SOL    HW1 1805   1.467   1.561   2.292  3.2531 -2.8079 -0.3620
  602SOL    HW2 1806   1.637   1.598   2.314 -0.8087 -1.6963  1.6885
  603SOL     OW 1807   0.724   1.241   2.597 -0.1439 -0.0354  0.0252
  603SOL    HW1 1808   0.632   1.221   2.552 -0.8785  0.1598 -0.8868
  603SOL    HW2 1809   0.784   1.153   2.611  1.3656 -4.6792 -0.6083
  604SOL     OW 1810   2.397   1.052   0.212  0.1018 -0.1121 -0.2755
  604SOL    HW1 1811   2.485   1.061   0.155  0.3996 -0.1262  0.4735
  604SOL    HW2 1812   2.331   0.986   0.167  2.7847 -1.4074  2.4273
  605SOL     OW 1813   2.585   1.108   1.995  0.4120  0.0669 -0.2067
  605SOL    HW1 1814   2.572   1.033   1.922 -2.6936 -2.4021  0.4327
  605SOL    HW2 1815   2.612   1.073   2.087  1.9591 -1.4017 -2.2988
  606SOL     OW 1816   1.474   2.538   2.552 -0.3601  0.0263 -0.1592
  606SOL    HW1 1817   1.394   2.590   2.526  0.1654  0.6157 -0.1246
  606SOL    HW2 1818   1.465   2.435   2.539  0.7811 -0.4542  2.5738
  607SOL     OW 1819   1.308   1.540   0.417 -0.1948  0.6618  0.7305
  607SOL    HW1 1820   1.292   1.498   0.514  0.6805 -3.6223  0.9150
  607SOL    HW2 1821   1.298   1.641   0.423  1.3758  0.2388  2.9032
  608SOL     OW 1822   1.386   2.867   0.378 -0.1731 -0.0740  0.3694
  608SOL    HW1 1823   1.449   2.921   0.320  2.0552 -2.2210 -0.1479
  608SOL    HW2 1824   1.322   2.924   0.435 -1.3108  1.2711 -2.3089
  609SOL     OW 1825   1.351   1.352   0.217 -0.5681 -0.5750 -0.6715
  609SOL    HW1 1826   1.339   1.407   0.303 -0.0352  0.0203  0.3106
  609SOL    HW2 1827   1.256   1.348   0.171 -1.5782 -1.2312 -1.6905
  610SOL     OW 1828   2.990   1.134   2.261  0.2842 -0.3131 -0.0116
  610SOL    HW1 1829   2.950   1.039   2.270  2.3457 -1.8423 -0.1957
  610SOL    HW2 1830   2.980   1.180   2.170 -2.7986  2.4343  2.1611
  611SOL     OW 1831   2.596   0.305   1.210 -0.1891  0.2975  0.7479
  611SOL    HW1 1832   2.573   0.214   1.168  1.0522 -1.8430  1.1455
  611SOL    HW2 1833   2.691   0.302   1.249 -0.0125  0.0290 -2.3583
  612SOL     OW 1834   0.736   2.205   1.272  0.4330 -0.9514 -0.1378
  612SOL    HW1 1835   0.661   2.136   1.276 -1.1523  1.4530 -0.3485
  612SOL    HW2 1836   0.717   2.275   1.195 -0.6314  1.6772 -2.4867
  613SOL     OW 1837   0.965   1.486   2.344  0.0949 -1.0539  0.2690
  613SOL    HW1 1838   0.993   1.526   2.247 -0.4052 -2.0911 -1.9249
  613SOL    HW2 1839   0.931   1.388   2.328 -0.7273 -0.5422 -1.0280
  614SOL     OW 1840   1.604   1.531   1.733  0.0179  0.0963  0.0975
  614SOL    HW1 1841   1.578   1.621   1.682 -0.1913  1.3082 -0.2131
  614SOL    HW2 1842   1.664   1.553   1.815  0.4458  3.0207 -0.9449
  615SOL     OW 1843   0.788   1.240   1.754  0.1970  0.4635 -0.0763
  615SOL    HW1 1844   0.715   1.235   1.673 -3.8885 -0.6597 -4.0204
  615SOL    HW2 1845   0.833   1.331   1.760  0.8167  0.6822 -0.3136
  616SOL     OW 1846   1.076   1.559   2.087 -0.0155  0.0350  0.0792
  616SOL    HW1 1847   1.047   1.565   1.990  0.5709  0.1645  2.7179
  616SOL    HW2 1848   1.108   1.651   2.125  0.6932  3.1323 -2.0542
  617SOL     OW 1849   3.000   1.551   1.586 -0.5284 -0.6749 -0.2798
  617SOL    HW1 1850   3.023   1.462   1.635  0.7937 -0.7229 -0.2249
  617SOL    HW2 1851   2.983   1.533   1.484 -1.4140  0.2634  0.1078
  618SOL     OW 1852   1.872   1.952   1.404 -0.1802  0.1564 -0.1413
  618SOL    HW1 1853   1.887   2.022   1.323 -0.7966  1.8706 -2.9055
  618SOL    HW2 1854   1.872   1.854   1.370 -0.1846  2.6723 -0.8965
  619SOL     OW 1855   1.714   0.429   2.342  0.0256 -0.4269  0.1187
  619SOL    HW1 1856   1.621   0.458   2.327  1.6657 -1.8891 -1.4436
  619SOL    HW2 1857   1.724   0.325   2.346 -0.9697 -0.4305 -2.0709
  620SOL     OW 1858   2.249   2.817   0.775 -0.0640 -0.0035  0.0231
  620SOL    HW1 1859   2.158   2.842   0.818 -0.7695  0.4375  0.6261
  620SOL    HW2 1860   2.297   2.743   0.824 -0.2195  1.8242 -1.5684
  621SOL     OW 1861   2.199   1.911   1.280 -0.2058  0.2801  0.3741
  621SOL    HW1 1862   2.193   1.897   1.384  0.9050 -2.8982  0.7215
  621SOL    HW2 1863   2.161   1.825   1.235 -1.9331  1.3533 -1.0816
  622SOL     OW 1864   2.229   0.915   1.872 -0.3868  1.0294 -0.3665
  622SOL    HW1 1865   2.332   0.902   1.876  2.0172 -0.6167  1.2931
  622SOL    HW2 1866   2.178   0.836   1.908  2.5643  2.1017 -0.5797
  623SOL     OW 1867   1.275   0.843   2.533 -0.1708 -0.2466 -0.1952
  623SOL    HW1 1868   1.200   0.784   2.576 -2.3098 -0.9618  0.7277
  623SOL    HW2 1869   1.245   0.881   2.446  1.2862 -0.0558 -2.4560
  624SOL     OW 1870   0.493   0.672   3.023 -0.7453 -0.7377 -0.4570
  624SOL    HW1 1871   0.557   0.704   2.946  0.8455  0.7161 -0.3064
  624SOL    HW2 1872   0.517   0.728   3.108 -0.6311 -1.0403 -0.7462
  625SOL     OW 1873   2.724   1.694   0.992  0.2319  0.5873  0.2645
  625SOL    HW1 1874   2.626   1.703   1.028  1.1788 -2.5099  1.3389
  625SOL    HW2 1875   2.783   1.776   1.016  0.3530 -1.4687  1.7222
  626SOL     OW 1876   0.648   2.659   1.779  0.0296 -0.7444 -0.6350
  626SOL    HW1 1877   0.707   2.689   1.859 -0.3465 -1.3682 -2.0384
  626SOL    HW2 1878   0.560   2.614   1.806  2.8627  1.8125 -0.8095
  627SOL     OW 1879   0.654   0.831   1.698  0.1454 -0.4000  1.2941
  627SOL    HW1 1880   0.593   0.762   1.649  1.6705 -1.0311 -0.2272
  627SOL    HW2 1881   0.693   0.907   1.631  0.6087  4.1372  2.4393
  628SOL     OW 1882   2.388   0.042   0.744 -0.5183  0.8845  0.2828
  628SOL    HW1 1883   2.375  -0.003   0.647 -1.1894 -0.9516 -1.9055
  628SOL    HW2 1884   2.320   0.004   0.808 -0.0529 -1.8408  1.4926
  629SOL     OW 1885   1.851   0.949   1.952  0.4622 -0.5118  0.4546
  629SOL    HW1 1886   1.893   1.014   1.887 -1.0278 -0.8267  0.1048
  629SOL    HW2 1887   1.868   0.967   2.051 -3.0229 -1.3791  0.3647
  630SOL     OW 1888   2.914   2.206   0.787 -0.2990 -0.0433 -0.1087
  630SOL    HW1 1889   2.847   2.283   0.791 -0.3104 -0.4623  2.8382
  630SOL    HW2 1890   2.869   2.111   0.793  0.3314 -2.0304 -0.2061
  631SOL     OW 1891   3.060   0.096   2.043 -0.7106  0.2048 -0.5464
  631SOL    HW1 1892   3.149   0.134   2.083 -3.4501  0.3428  3.4467
  631SOL    HW2 1893   3.082   0.036   1.956  0.8321 -2.0582 -2.0837
  632SOL     OW 1894   2.478   2.581   0.630  0.8021 -0.0777 -0.4943
  632SOL    HW1 1895   2.533   2.665   0.652  0.4336 -1.4870  0.9961
  632SOL    HW2 1896   2.374   2.600   0.612 -1.8930 -0.2707 -1.1890
  633SOL     OW 1897   1.440   1.241   2.655  0.6412  0.2161  0.9758
  633SOL    HW1 1898   1.416   1.323   2.708 -2.2721 -2.0399  1.4942
  633SOL    HW2 1899   1.387   1.233   2.563  0.0625  2.1346 -0.6712
  634SOL     OW 1900   0.717   2.189   0.865  0.0430 -0.4297 -0.2383
  634SOL    HW1 1901   0.646   2.136   0.916 -0.0210 -0.9066 -1.7241
  634SOL    HW2 1902   0.804   2.193   0.921  0.0801  1.9814  1.0085
  635SOL     OW 1903   3.018   2.437   0.018  0.3951 -0.4287 -0.6758
  635SOL    HW1 1904   2.940   2.487  -0.029  0.8892  1.3520  0.5068
  635SOL    HW2 1905   3.107   2.492   0.029 -0.5309 -0.8473 -0.2537
  636SOL     OW 1906   2.374   2.679   2.082  0.3929 -0.2782 -0.5197
  636SOL    HW1 1907   2.313   2.766   2.083 -1.4120 -2.3311  4.1378
  636SOL    HW2 1908   2.321   2.597   2.122 -0.6230 -0.2508 -0.3683
  637SOL     OW 1909   2.667   0.615   1.948  0.3209  0.0477  0.0799
  637SOL    HW1 1910   2.591   0.649   1.884 -0.7704 -2.6539  0.7029
  637SOL    HW2 1911   2.758   0.665   1.933 -2.2553 -1.8975  0.3713
  638SOL     OW 1912   2.460   1.855   1.335 -0.0229 -0.6700  0.5745
  638SOL    HW1 1913   2.371   1.897   1.302  0.0895 -0.1935  2.5534
  638SOL    HW2 1914   2.442   1.770   1.390  3.8062  0.5654  0.6878
  639SOL     OW 1915   1.257   2.185   1.541  0.4059 -0.2044  0.4361
  639SOL    HW1 1916   1.329   2.245   1.590 -2.2997 -1.3610 -0.4500
  639SOL    HW2 1917   1.168   2.236   1.543 -0.0220  2.4195  0.6233
  640SOL     OW 1918   0.199   1.248   1.524 -0.5216  0.4385 -0.2295
  640SOL    HW1 1919   0.173   1.272   1.624 -1.7119 -0.6330  2.7924
  640SOL    HW2 1920   0.275   1.180   1.508  0.1467  0.4401 -3.4729
  641SOL     OW 1921   1.963   0.288   1.489  0.0621 -0.5581  0.1258
  641SOL    HW1 1922   1.873   0.292   1.541  3.1802  1.1774  0.8605
  641SOL    HW2 1923   2.043   0.337   1.541  1.2655  1.2355  1.7298
  642SOL     OW 1924   2.034   3.072   0.410 -0.0426  0.0121 -0.5415
  642SOL    HW1 1925   2.125   3.120   0.426 -1.9962 -1.9684  0.6636
  642SOL    HW2 1926   1.951   3.131   0.430  2.4663 -2.3962  1.2489
  643SOL     OW 1927   2.940   1.930   2.092 -0.1846 -0.1177  0.2790
  643SOL    HW1 1928   2.867   1.865   2.064 -1.3788 -0.5634  1.2519
  643SOL    HW2 1929   2.934   2.018   2.038 -2.0553  1.9191  0.6242
  644SOL     OW 1930   2.274   2.454   1.298  0.2300 -0.9811 -0.0674
  644SOL    HW1 1931   2.354   2.408   1.248  0.3259  2.3872  0.9173
  644SOL    HW2 1932   2.261   2.433   1.400 -2.2573  2.5903  0.4763
  645SOL     OW 1933   0.638   0.783   1.277  0.3361  0.0448 -0.0516
  645SOL    HW1 1934   0.547   0.753   1.313 -0.2572  2.5510 -1.3044
  645SOL    HW2 1935   0.651   0.796   1.175  3.1190 -0.0098 -1.8156
  646SOL     OW 1936   1.506   1.737   2.012  0.2047  0.0427  0.2914
  646SOL    HW1 1937   1.581   1.797   1.969 -0.7336 -1.5037  0.5243
  646SOL    HW2 1938   1.537   1.711   2.109  0.6244  0.5875 -0.7688
  647SOL     OW 1939   0.750   1.063   0.562 -0.3269  0.5322  0.1515
  647SOL    HW1 1940   0.815   1.086   0.643 -1.9392 -0.1089  2.0343
  647SOL    HW2 1941   0.716   0.966   0.566 -0.4132  1.0958 -0.8460
  648SOL     OW 1942   0.132   0.240   0.371  0.0436 -0.4211 -0.0028
  648SOL    HW1 1943   0.044   0.204   0.330  0.2500 -2.9567  0.2935
  648SOL    HW2 1944   0.152   0.338   0.350  2.6420  1.6942  0.3478
  649SOL     OW 1945   3.017   0.262   0.961 -0.0248 -0.1905 -0.4526
  649SOL    HW1 1946   3.078   0.298   0.885  1.0336  0.5528  0.3895
  649SOL    HW2 1947   3.064   0.269   1.050 -1.1643 -0.6921  0.4133
  650SOL     OW 1948   2.761   0.693   1.428 -0.6990  0.3649  0.2535
  650SOL    HW1 1949   2.662   0.680   1.466  0.6157  3.3565 -0.0422
  650SOL    HW2 1950   2.788   0.794   1.402  0.6679 -0.7141  0.4997
  651SOL     OW 1951   0.878   1.517   1.691 -0.2097  0.3512 -0.0207
  651SOL    HW1 1952   0.871   1.559   1.786  0.2851  0.4928 -0.9510
  651SOL    HW2 1953   0.975   1.492   1.662  0.8957  0.5596 -1.0900
  652SOL     OW 1954   2.273   2.571   2.502  0.2452  0.2930  0.5284
  652SOL    HW1 1955   2.183   2.550   2.553 -1.9957  1.0725  2.2004
  652SOL    HW2 1956   2.273   2.668   2.470  0.9261 -2.0387 -2.9321
  653SOL     OW 1957   2.681   1.218   0.202  0.2601  0.1382 -0.7261
  653SOL    HW1 1958   2.726   1.310   0.233 -1.9941  0.9544  1.1107
  653SOL    HW2 1959   2.743   1.140   0.220  1.5011  3.5540  0.2251
  654SOL     OW 1960   1.178   2.055   1.259  0.6722  0.1026 -0.0981
  654SOL    HW1 1961   1.127   1.967   1.270  1.4677 -0.5177 -0.9592
  654SOL    HW2 1962   1.192   2.083   1.161 -2.0296 -1.4270  2.9168
  655SOL     OW 1963   0.143   0.992   1.877  0.2747 -0.1567  0.4252
  655SOL    HW1 1964   0.225   0.949   1.831 -0.7386  0.7374  0.2737
  655SOL    HW2 1965   0.135   1.094   1.861  1.4253 -1.9319 -0.7239
  656SOL     OW 1966   2.526   2.533   2.638  1.2085 -0.0583 -0.3719
  656SOL    HW1 1967   2.607   2.525   2.576 -0.1941  0.2629  0.3053
  656SOL    HW2 1968   2.440   2.565   2.589 -0.7257 -0.6498 -0.0706
  657SOL     OW 1969   2.983   1.021   1.940  0.6333 -0.6170  0.4435
  657SOL    HW1 1970   2.961   1.116   1.980  1.5271  0.0443  0.8561
  657SOL    HW2 1971   3.080   1.007   1.916 -1.3662 -3.3584 -0.4608
  658SOL     OW 1972   1.681   0.144   2.352  0.1425  0.9218 -0.0509
  658SOL    HW1 1973   1.689   0.064   2.411 -1.1887 -1.2255  0.8374
  658SOL    HW2 1974   1.712   0.124   2.254  1.2912  0.8898 -2.7698
  659SOL     OW 1975   1.440   0.675   2.779 -0.1291  0.2624  0.6980
  659SOL    HW1 1976   1.489   0.748   2.723 -0.5329  0.9374  1.7412
  659SOL    HW2 1977   1.333   0.691   2.781 -3.0926  2.8115  1.8137
  660SOL     OW 1978   1.433   0.306   1.418 -0.1249 -0.2365 -0.1459
  660SOL    HW1 1979   1.426   0.348   1.513 -0.3582 -3.4580 -1.0121
  660SOL    HW2 1980   1.486   0.214   1.415  0.1223 -1.4728  0.1854
  661SOL     OW 1981   2.345   1.296   0.688  1.0908 -0.2566 -0.7750
  661SOL    HW1 1982   2.375   1.306   0.588 -1.0505 -0.5899  3.2500
  661SOL    HW2 1983   2.275   1.374   0.704 -0.1862 -0.2041 -0.2021
  662SOL     OW 1984   1.463   0.383   1.684  0.4142  0.0669 -0.6049
  662SOL    HW1 1985   1.419   0.353   1.775 -0.6317 -0.6408  1.0913
  662SOL    HW2 1986   1.494   0.478   1.683  3.0495 -1.9205  1.4846
  663SOL     OW 1987   0.780   1.637   1.925 -0.1105 -0.3240  0.4584
  663SOL    HW1 1988   0.770   1.731   1.972  0.2986 -0.3478 -1.6909
  663SOL    HW2 1989   0.704   1.571   1.943  2.8445  2.4638 -0.9296
  664SOL     OW 1990   1.608   2.051   1.458  0.4320  0.6212  0.1198
  664SOL    HW1 1991   1.517   1.995   1.461  0.6830  0.3897 -0.3892
  664SOL    HW2 1992   1.697   1.994   1.452  2.2025  0.9303  0.7190
  665SOL     OW 1993   2.282   0.668   2.017 -0.2503  0.2595  0.6292
  665SOL    HW1 1994   2.258   0.565   2.026  0.7499  2.1663  1.5771
  665SOL    HW2 1995   2.361   0.696   2.082  0.5576  0.6421  2.3687
  666SOL     OW 1996   0.457   2.236   0.393 -0.7014  0.1774 -0.1318
  666SOL    HW1 1997   0.484   2.334   0.400 -1.8282 -1.6615 -0.1285
  666SOL    HW2 1998   0.355   2.222   0.374 -1.6612  2.1870  0.5759
  667SOL     OW 1999   2.053   0.175   1.077 -0.4155  0.4107  0.4006
  667SOL    HW1 2000   2.073   0.274   1.058 -0.7867  1.5333 -1.2590
  667SOL    HW2 2001   1.971   0.169   1.141 -1.1087 -2.6794 -0.1541
  668SOL     OW 2002   2.000   0.461   1.073 -0.5056  0.7895  0.2703
  668SOL    HW1 2003   2.083   0.477   1.006  1.8445  2.8744  1.1274
  668SOL    HW2 2004   2.020   0.504   1.162 -1.1107  0.8783 -2.5543
  669SOL     OW 2005   3.070   2.133   1.029  0.4215 -0.2143 -0.1309
  669SOL    HW1 2006   3.025   2.185   0.953  1.4971 -0.8513 -1.1482
  669SOL    HW2 2007   3.049   2.178   1.124 -2.2434  0.6077 -0.1028
  670SOL     OW 2008   2.912   2.393   2.174  0.7633  0.0623  0.2988
  670SOL    HW1 2009   2.823   2.364   2.220 -2.0763  3.3384  2.5510
  670SOL    HW2 2010   2.893   2.474   2.109 -1.3824  2.1701 -1.6947
  671SOL     OW 2011   1.819   1.652   1.527 -0.0001 -0.0309  0.0491
  671SOL    HW1 2012   1.847   1.690   1.433  2.2170  0.4920 -1.0477
  671SOL    HW2 2013   1.774   1.555   1.527 -4.1849 -1.4860  0.2784
  672SOL     OW 2014   0.460   0.730   2.549  0.2062  0.1435  0.6422
  672SOL    HW1 2015   0.388   0.748   2.482  3.1938 -1.5098  1.5558
  672SOL    HW2 2016   0.447   0.784   2.639  0.7034  1.0772 -2.1964
  673SOL     OW 2017   0.079   1.439   1.002 -0.1423 -0.4715  0.5653
  673SOL    HW1 2018   0.115   1.419   1.099 -0.9457 -0.1542  0.3601
  673SOL    HW2 2019   0.139   1.499   0.940  1.7985 -0.7205 -2.9645
  674SOL     OW 2020   1.549   3.038   0.218  0.3069 -0.3201  0.6227
  674SOL    HW1 2021   1.607   3.120   0.197  0.0886 -1.1102 -0.4445
  674SOL    HW2 2022   1.520   2.987   0.132  0.5071  1.1990 -2.8884
  675SOL     OW 2023   1.649   0.837   2.304 -0.1915  0.5300  0.1789
  675SOL    HW1 2024   1.744   0.824   2.338 -0.5004 -0.8615 -3.0786
  675SOL    HW2 2025   1.604   0.746   2.280 -1.6253 -1.8480 -1.6413
  676SOL     OW 2026   2.530   1.571   1.999  0.6994 -0.1866  0.3032
  676SOL    HW1 2027   2.467   1.530   1.923 -2.1760  2.2696 -1.7522
  676SOL    HW2 2028   2.591   1.503   2.045 -1.8418  1.1726 -0.2972
  677SOL     OW 2029   1.910   0.679   0.897 -1.1325  0.5546 -0.4356
  677SOL    HW1 2030   1.819   0.661   0.944 -2.9949  0.3851  0.5777
  677SOL    HW2 2031   1.993   0.650   0.950  0.1816  0.2185 -0.1180
  678SOL     OW 2032   0.114   0.797   1.641 -0.0295  0.6303  0.1518
  678SOL    HW1 2033   0.213   0.800   1.675  0.8646 -1.2231 -1.0972
  678SOL    HW2 2034   0.049   0.775   1.717 -1.0483  2.6812 -1.1942
  679SOL     OW 2035   2.570   1.102   1.219 -0.3571 -0.2104 -0.0493
  679SOL    HW1 2036   2.471   1.141   1.230  1.5502 -0.5642 -0.4311
  679SOL    HW2 2037   2.575   0.997   1.209  0.8475 -1.4839 -2.6496
  680SOL     OW 2038   2.839   0.518   1.668 -0.5136 -0.1247 -0.0792
  680SOL    HW1 2039   2.806   0.574   1.589  0.1036  0.0089  0.6816
  680SOL    HW2 2040   2.926   0.558   1.711 -0.8534  0.8099  1.4124
  681SOL     OW 2041   3.007   0.126   1.576  0.2186 -0.1379 -0.1050
  681SOL    HW1 2042   3.006   0.063   1.491 -2.2254 -3.9446 -1.3390
  681SOL    HW2 2043   2.925   0.189   1.567 -1.4465 -0.8682  0.6985
  682SOL     OW 2044   0.620   0.098   1.305 -0.8370  0.3574 -0.1883
  682SOL    HW1 2045   0.569   0.035   1.371  1.4056  2.4949 -0.2821
  682SOL    HW2 2046   0.698   0.049   1.256 -1.9550 -0.7238 -0.4301
  683SOL     OW 2047   1.358   0.254   2.185  0.4966 -0.3208  0.0034
  683SOL    HW1 2048   1.362   0.309   2.272  1.5628 -0.6565  0.2380
  683SOL    HW2 2049   1.429   0.274   2.114 -4.3577 -1.7511  0.3928
  684SOL     OW 2050   1.376   2.162   0.579  0.4102  0.5359 -0.4639
  684SOL    HW1 2051   1.439   2.104   0.642 -0.7409 -0.7918  3.8927
  684SOL    HW2 2052   1.297   2.109   0.536 -0.4832 -1.2569  0.8134
  685SOL     OW 2053   2.265   2.075   1.982  0.1423  0.6442 -0.2121
  685SOL    HW1 2054   2.274   1.973   1.972  1.6164 -0.8850 -0.2924
  685SOL    HW2 2055   2.288   2.117   2.074 -1.1893 -0.8712  1.3782
  686SOL     OW 2056   1.559   1.835   2.898 -0.7691  0.0968 -0.0762
  686SOL    HW1 2057   1.577   1.759   2.966 -3.9064  1.1372  0.8580
  686SOL    HW2 2058   1.456   1.846   2.875 -0.8001  0.2506 -0.1116
  687SOL     OW 2059   1.413   2.429   1.989 -0.6208 -0.3714 -0.6329
  687SOL    HW1 2060   1.378   2.331   1.962  2.6335 -3.1262  1.1369
  687SOL    HW2 2061   1.388   2.441   2.087  1.6388 -1.4196 -0.5052
  688SOL     OW 2062   2.050   1.500   1.709  0.1817  0.6150  0.2242
  688SOL    HW1 2063   2.142   1.547   1.709 -0.8515 -0.9135 -0.9797
  688SOL    HW2 2064   2.018   1.461   1.619 -0.8824  0.4836  0.9167
  689SOL     OW 2065   2.300   1.103   2.803  0.3827  0.5304 -0.0298
  689SOL    HW1 2066   2.238   1.018   2.789  1.1996 -1.3367  1.2780
  689SOL    HW2 2067   2.372   1.085   2.875  0.5683 -0.7573  1.7433
  690SOL     OW 2068   2.229   2.789   0.014  0.8057 -0.2579  0.1285
  690SOL    HW1 2069   2.170   2.764  -0.073 -4.8322  2.9843 -0.1516
  690SOL    HW2 2070   2.174   2.781   0.099 -0.6822 -2.8367 -1.3144
  691SOL     OW 2071   2.577   0.405   2.093  0.4947  0.2697  0.1639
  691SOL    HW1 2072   2.594   0.310   2.053 -0.6766  2.5993  0.7075
  691SOL    HW2 2073   2.620   0.480   2.031  1.4093 -0.0091  2.1064
  692SOL     OW 2074   2.661   1.235   0.712 -0.1473  0.1799  0.5730
  692SOL    HW1 2075   2.618   1.259   0.620  0.1134  1.1869  1.0908
  692SOL    HW2 2076   2.723   1.311   0.748 -0.6212 -2.6363 -1.1452
  693SOL     OW 2077   2.908   2.915   0.674 -0.2842 -0.3233 -0.4581
  693SOL    HW1 2078   2.892   2.993   0.738 -0.7219 -0.4748 -0.2056
  693SOL    HW2 2079   2.904   2.946   0.576  0.9407  0.4117  0.7731
  694SOL     OW 2080   2.388   2.270   0.108  0.2337  0.0999  0.0899
  694SOL    HW1 2081   2.385   2.343   0.185  0.3688  1.1590  1.1929
  694SOL    HW2 2082   2.305   2.222   0.082  3.4454 -0.7824  2.7903
  695SOL     OW 2083   0.495   3.015   1.481  0.6742 -0.2637 -0.7405
  695SOL    HW1 2084   0.441   2.950   1.418 -1.7036  3.3233  0.3909
  695SOL    HW2 2085   0.432   3.047   1.559 -0.7739 -3.7089 -0.1518
  696SOL     OW 2086   2.734   1.990   0.762  0.4264 -0.2424 -0.3065
  696SOL    HW1 2087   2.803   1.913   0.755 -1.0942  0.6984 -0.0030
  696SOL    HW2 2088   2.659   1.975   0.696  2.4339  0.9805  2.4032
  697SOL     OW 2089   1.683   1.858   1.844  0.8357  0.3075  0.2504
  697SOL    HW1 2090   1.774   1.829   1.877 -1.3385 -1.2996  1.1656
  697SOL    HW2 2091   1.665   1.965   1.844  2.4363  2.2501  0.8578
  698SOL     OW 2092   2.924   0.400   2.714 -0.7938 -0.2278 -0.2782
  698SOL    HW1 2093   2.916   0.397   2.608 -0.2549 -0.7963 -1.6637
  698SOL    HW2 2094   2.990   0.331   2.750 -1.2547 -0.4130 -0.6847
  699SOL     OW 2095   1.635   0.125   2.916  0.6591 -0.3386  0.0198
  699SOL    HW1 2096   1.641   0.028   2.874 -0.6491 -0.5796  1.2932
  699SOL    HW2 2097   1.682   0.192   2.853 -0.0246 -0.4733  0.1623
  700SOL     OW 2098   0.979   2.279   1.356  0.1524 -0.0113  0.2466
  700SOL    HW1 2099   1.068   2.218   1.348  3.7619 -1.1640  1.9045
  700SOL    HW2 2100   0.886   2.245   1.325 -0.9328 -0.4669 -0.1403
  701SOL     OW 2101   1.864   2.905   0.014  0.2777 -0.3477  0.0012
  701SOL    HW1 2102   1.867   2.849   0.099  0.7258  1.9861  1.8387
  701SOL    HW2 2103   1.892   3.004   0.038  1.0413 -1.0203  3.9180
  702SOL     OW 2104   2.113   1.367   1.940 -0.2448  0.2653  0.4888
  702SOL    HW1 2105   2.185   1.299   1.911 -0.9062  1.9268  1.2482
  702SOL    HW2 2106   2.082   1.425   1.860 -1.8633 -3.0982  0.5704
  703SOL     OW 2107   1.975   0.926   1.442  0.3265  0.3936 -0.2190
  703SOL    HW1 2108   1.953   0.828   1.474 -1.1533  1.5707 -0.4091
  703SOL    HW2 2109   2.030   0.980   1.512  1.2794 -1.6169  1.3722
  704SOL     OW 2110   0.337   2.068   1.708  0.0292 -0.1711  0.0714
  704SOL    HW1 2111   0.371   2.029   1.797  1.5625  1.0001  0.5968
  704SOL    HW2 2112   0.393   2.152   1.674 -1.2031 -1.1599 -0.9750
  705SOL     OW 2113   2.480   1.410   0.925 -0.3966  0.0440  0.5524
  705SOL    HW1 2114   2.436   1.351   0.851  0.8445 -1.3055  0.4355
  705SOL    HW2 2115   2.580   1.429   0.906 -0.0523  0.8038  0.0082
  706SOL     OW 2116   0.530   1.725   1.799  0.3357 -0.1975 -0.2774
  706SOL    HW1 2117   0.534   1.791   1.712  0.6631  0.9750 -2.3689
  706SOL    HW2 2118   0.615   1.669   1.808 -0.5481 -0.8274 -0.1396
  707SOL     OW 2119   2.317   1.180   1.868 -0.0397 -0.2186  0.0222
  707SOL    HW1 2120   2.368   1.180   1.958 -0.1119  1.3852  0.1974
  707SOL    HW2 2121   2.289   1.086   1.845  1.3168  1.8837  1.3795
  708SOL     OW 2122   3.031   0.545   2.972 -0.1257  0.0411  0.2896
  708SOL    HW1 2123   3.099   0.609   2.921  0.3809 -0.2974  4.1272
  708SOL    HW2 2124   2.990   0.472   2.914  2.8827  1.5172  2.9777
  709SOL     OW 2125   1.836   1.898   0.431  0.2794  0.8744  0.4664
  709SOL    HW1 2126   1.817   1.999   0.454  2.3132  2.5848  0.5044
  709SOL    HW2 2127   1.853   1.883   0.331  1.2684 -0.2777  0.2812
  710SOL     OW 2128   1.751   1.554   2.424 -0.3908 -0.0711  0.0665
  710SOL    HW1 2129   1.842   1.527   2.376  0.6350 -2.4158 -0.5627
  710SOL    HW2 2130   1.755   1.567   2.522 -1.4608 -2.1232 -1.1922
  711SOL     OW 2131   2.722   2.843   0.986 -0.1367  0.1004 -0.1880
  711SOL    HW1 2132   2.699   2.928   0.933 -0.5436 -2.7769  0.9904
  711SOL    HW2 2133   2.825   2.835   1.001 -2.1728 -0.1626 -0.2956
  712SOL     OW 2134   1.329   2.192   1.920  0.7124 -0.4054  0.1273
  712SOL    HW1 2135   1.363   2.138   1.844 -0.5934  3.1159  0.6499
  712SOL    HW2 2136   1.225   2.201   1.911  0.7176  1.8186  0.9506
  713SOL     OW 2137   2.792   1.468   2.544  0.2710 -0.8136 -0.3116
  713SOL    HW1 2138   2.795   1.369   2.520 -3.5838 -2.1222  2.5964
  713SOL    HW2 2139   2.708   1.488   2.603  1.5164  1.6261  2.3314
  714SOL     OW 2140   2.673   0.421   2.348 -0.5871  0.2324  0.0877
  714SOL    HW1 2141   2.604   0.380   2.408  0.4127 -3.7193  0.2304
  714SOL    HW2 2142   2.632   0.423   2.249 -1.1544  0.0264 -3.7095
  715SOL     OW 2143   1.603   2.184   1.181  0.9925  0.0068 -0.5810
  715SOL    HW1 2144   1.521   2.244   1.181  0.2916 -3.8029  1.5853
  715SOL    HW2 2145   1.615   2.145   1.278  0.6355 -0.0380  1.8857
  716SOL     OW 2146   1.244   0.127   1.521  0.5112 -0.0308  0.4459
  716SOL    HW1 2147   1.146   0.147   1.509  3.3299 -0.2687 -0.1331
  716SOL    HW2 2148   1.304   0.195   1.480 -0.8244 -2.0789  0.9395
  717SOL     OW 2149   1.165   0.597   1.620  0.1853 -0.1988  0.1386
  717SOL    HW1 2150   1.269   0.585   1.644  0.7361  0.3241 -0.9366
  717SOL    HW2 2151   1.152   0.584   1.517 -0.8694 -0.3797 -0.3981
  718SOL     OW 2152   0.677   0.895   0.968 -0.6383 -0.4739  0.0385
  718SOL    HW1 2153   0.660   0.905   0.867  1.2992  0.4735 -0.0068
  718SOL    HW2 2154   0.654   0.986   1.014 -2.2681  0.4357 -1.7830
  719SOL     OW 2155   0.737   1.743   2.281 -0.1548 -0.4647 -0.1513
  719SOL    HW1 2156   0.795   1.779   2.363 -0.3397 -1.0967  0.4991
  719SOL    HW2 2157   0.668   1.678   2.312  1.5148 -1.1044 -3.1002
  720SOL     OW 2158   2.188   1.215   0.270 -0.4839 -0.4632  0.3368
  720SOL    HW1 2159   2.262   1.150   0.240 -2.3722  0.6784  0.5673
  720SOL    HW2 2160   2.152   1.196   0.367  0.6434 -0.4052 -1.6509
  721SOL     OW 2161   2.235   2.916   2.109 -0.3123  0.3367  0.2992
  721SOL    HW1 2162   2.247   2.990   2.033 -1.6071 -0.9569 -0.4988
  721SOL    HW2 2163   2.138   2.917   2.141  2.4322  2.6754 -1.9895
  722SOL     OW 2164   2.338   1.701   0.573  0.0021 -0.5374 -0.2840
  722SOL    HW1 2165   2.407   1.688   0.497 -0.9339  0.3883 -0.4528
  722SOL    HW2 2166   2.248   1.737   0.538 -2.6274 -0.5168 -1.0180
  723SOL     OW 2167   2.598   2.754   1.950  0.4225  0.1296  0.0952
  723SOL    HW1 2168   2.646   2.834   1.998  2.3776  2.7982 -2.4156
  723SOL    HW2 2169   2.516   2.723   2.005  0.2297  0.1290 -1.7807
  724SOL     OW 2170   0.372   2.514   2.436  0.4506  0.4140 -0.9762
  724SOL    HW1 2171   0.272   2.505   2.417  2.9590 -0.5696 -0.6983
  724SOL    HW2 2172   0.399   2.492   2.536  0.5951 -1.6560  1.2787
  725SOL     OW 2173   2.428   2.812   1.506  0.6777  0.0883 -0.3467
  725SOL    HW1 2174   2.506   2.832   1.431  1.3005  1.3211 -3.7771
  725SOL    HW2 2175   2.402   2.711   1.514 -1.9799  2.2995 -2.5777
  726SOL     OW 2176   2.473   2.327   0.745 -0.0130 -0.1257 -0.6442
  726SOL    HW1 2177   2.463   2.411   0.686  1.7638  0.2580  0.1426
  726SOL    HW2 2178   2.462   2.238   0.692  2.1871  2.5559 -0.2953
  727SOL     OW 2179   0.115   3.084   0.131 -0.0430  0.3355  0.0101
  727SOL    HW1 2180   0.208   3.112   0.102  2.8071 -2.2837  2.0284
  727SOL    HW2 2181   0.058   3.047   0.050 -0.6224 -0.6848 -1.9011
  728SOL     OW 2182   2.942   0.736   0.927  0.2465  0.0636  0.4762
  728SOL    HW1 2183   2.864   0.699   0.870  1.8242  1.6097 -0.4389
  728SOL    HW2 2184   2.952   0.685   1.017  2.2207  1.5188 -0.8215
  729SOL     OW 2185   0.010   2.518   0.781 -0.0328  0.5852  0.0709
  729SOL    HW1 2186   0.051   2.470   0.860  0.9122  0.1040  0.5900
  729SOL    HW2 2187   0.076   2.524   0.702  0.5219  1.4769 -1.9061
  730SOL     OW 2188   2.585   0.737   0.928 -0.4744 -0.3634 -0.0233
  730SOL    HW1 2189   2.541   0.832   0.915 -1.8995 -0.2154 -0.4888
  730SOL    HW2 2190   2.618   0.696   0.838 -0.9787  0.4837 -0.1399
  731SOL     OW 2191   3.091   2.235   2.322  0.1145 -0.1377  0.5693
  731SOL    HW1 2192   3.054   2.232   2.421 -0.7897  3.0033  1.7038
  731SOL    HW2 2193   3.038   2.304   2.263 -0.2886 -1.4678  1.4807
  732SOL     OW 2194   1.341   2.737   1.977 -0.3340  0.1114  0.0183
  732SOL    HW1 2195   1.407   2.669   2.021  0.5436  1.0174 -1.0599
  732SOL    HW2 2196   1.275   2.700   1.908 -0.2739  1.6565  1.0474
  733SOL     OW 2197   3.094   0.652   2.230  0.1724 -0.2314 -0.0210
  733SOL    HW1 2198   3.167   0.702   2.176 -1.1094  0.0826 -0.1091
  733SOL    HW2 2199   3.033   0.592   2.171  2.1819  1.1494 -0.9983
  734SOL     OW 2200   1.517   0.411   2.722 -0.3027 -0.4564 -0.0153
  734SOL    HW1 2201   1.506   0.513   2.739  1.3792  0.9541 -3.1491
  734SOL    HW2 2202   1.426   0.361   2.729  0.7281 -3.1111 -0.9242
  735SOL     OW 2203   2.874   2.680   2.315 -0.0494 -0.0934  0.6900
  735SOL    HW1 2204   2.858   2.656   2.216 -0.5728 -2.1405  1.3288
  735SOL    HW2 2205   2.977   2.697   2.332  3.5822  2.3692 -0.0247
  736SOL     OW 2206   0.878   0.414   2.520  0.0240 -0.1287  0.0357
  736SOL    HW1 2207   0.778   0.438   2.546 -1.0499 -0.0683 -1.5787
  736SOL    HW2 2208   0.891   0.352   2.439  1.0405  1.4749  1.1791
  737SOL     OW 2209   2.683   0.480   2.793  0.3171 -0.0862  0.1583
  737SOL    HW1 2210   2.636   0.410   2.862 -2.9094 -1.3164  0.6250
  737SOL    HW2 2211   2.776   0.445   2.763  2.1971  2.1333 -1.3263
  738SOL     OW 2212   1.767   1.240   2.858  0.1036 -0.0687  0.1400
  738SOL    HW1 2213   1.865   1.228   2.836 -2.8447  1.2146 -2.7735
  738SOL    HW2 2214   1.708   1.155   2.842 -1.5707  1.0409 -1.0175
  739SOL     OW 2215   1.841   0.735   0.622  0.4044 -0.0618  0.1494
  739SOL    HW1 2216   1.870   0.728   0.718 -0.3231 -2.7956 -2.1278
  739SOL    HW2 2217   1.812   0.638   0.580 -3.3689 -1.5413 -0.7923
  740SOL     OW 2218   1.985   1.910   2.356 -0.1538  0.1133  0.1377
  740SOL    HW1 2219   2.052   1.837   2.365 -2.3760  3.3230 -1.7251
  740SOL    HW2 2220   1.929   1.888   2.267  1.6060 -0.0510 -1.1659
  741SOL     OW 2221   2.546   0.118   2.455  0.2679 -0.3837  0.1956
  741SOL    HW1 2222   2.646   0.100   2.421  0.0363  1.1476 -0.6388
  741SOL    HW2 2223   2.473   0.109   2.380 -0.1476  1.3908 -0.6595
  742SOL     OW 2224   2.202   1.462   0.189 -0.1451 -0.1291 -0.0770
  742SOL    HW1 2225   2.110   1.495   0.170  1.7891  1.4888 -2.0017
  742SOL    HW2 2226   2.197   1.361   0.220 -1.6629 -0.6164  2.8064
  743SOL     OW 2227   1.760   0.647   2.550  0.3482 -0.2000  0.2710
  743SOL    HW1 2228   1.727   0.584   2.473 -1.6623  1.6688 -2.1393
  743SOL    HW2 2229   1.687   0.690   2.611  0.3809 -1.7855  1.9034
  744SOL     OW 2230   2.724   2.136   0.184 -1.3894 -0.2510 -0.1663
  744SOL    HW1 2231   2.698   2.194   0.270  0.1544 -0.3464  1.2732
  744SOL    HW2 2232   2.703   2.035   0.186 -0.8037 -3.1634 -0.0187
  745SOL     OW 2233   2.227   2.511   2.219 -0.0506 -0.0162 -0.0424
  745SOL    HW1 2234   2.143   2.522   2.156 -0.0855 -0.1322 -3.9434
  745SOL    HW2 2235   2.213   2.536   2.318 -0.4929 -0.5326 -1.4868
  746SOL     OW 2236   3.079   2.540   1.796  0.1348  0.1334 -0.0601
  746SOL    HW1 2237   3.164   2.486   1.767  0.2381 -0.9096 -0.8305
  746SOL    HW2 2238   3.098   2.633   1.837 -1.5676  1.0961 -3.4451
  747SOL     OW 2239   3.087   1.806   1.668 -0.0284 -0.0628 -0.1111
  747SOL    HW1 2240   3.037   1.725   1.625 -1.9340 -3.5422  0.3118
  747SOL    HW2 2241   3.182   1.808   1.620  1.4434 -3.4572  1.0579
  748SOL     OW 2242   1.822   2.674   2.949  0.4258 -0.0140 -0.1096
  748SOL    HW1 2243   1.824   2.761   3.014 -4.3358  1.4576  0.2087
  748SOL    HW2 2244   1.756   2.696   2.869 -2.0975  2.6801 -1.8380
  749SOL     OW 2245   1.283   2.877   0.816 -0.2192  0.5954  0.0023
  749SOL    HW1 2246   1.183   2.924   0.809 -1.8048 -0.8051 -1.7170
  749SOL    HW2 2247   1.356   2.938   0.783 -2.1300 -1.3199  1.5467
  750SOL     OW 2248   2.262   0.215   1.846  0.8618  0.7331 -0.3994
  750SOL    HW1 2249   2.285   0.275   1.769  0.5928  0.9732  2.9572
  750SOL    HW2 2250   2.273   0.273   1.930 -0.1026  0.0926  1.1959
  751SOL     OW 2251   0.826   2.106   2.906 -0.1857  0.5502  0.3167
  751SOL    HW1 2252   0.884   2.136   2.983  0.2724 -0.4105 -0.0272
  751SOL    HW2 2253   0.740   2.051   2.937 -2.1248  2.1714  0.4321
  752SOL     OW 2254   1.331   0.768   1.148  0.8006  0.2461 -0.2036
  752SOL    HW1 2255   1.380   0.853   1.178 -1.1134  0.5130 -2.5360
  752SOL    HW2 2256   1.375   0.682   1.191  2.4959  0.5427 -1.7013
  753SOL     OW 2257   1.003   2.540   1.841  0.3188  0.7180 -0.6928
  753SOL    HW1 2258   1.103   2.557   1.834 -4.7812  0.6094 -0.1278
  753SOL    HW2 2259   0.949   2.622   1.863  1.7077 -4.1426 -2.3835
  754SOL     OW 2260   1.139   1.231   3.004 -0.0542 -0.8102 -0.2069
  754SOL    HW1 2261   1.199   1.177   2.935  1.0671 -1.3494 -0.5358
  754SOL    HW2 2262   1.156   1.335   3.004  0.2414  0.6389 -0.2798
  755SOL     OW 2263   1.932   0.493   2.188  0.4900 -0.1638 -0.0536
  755SOL    HW1 2264   2.011   0.438   2.225  0.4415 -0.1580  0.1447
  755SOL    HW2 2265   1.833   0.462   2.225 -3.9745 -2.8947  1.6762
  756SOL     OW 2266   2.502   0.982   2.983  0.1321 -0.0320 -0.6029
  756SOL    HW1 2267   2.597   0.950   2.957  0.0685 -2.3460  1.1367
  756SOL    HW2 2268   2.454   0.901   3.031  0.4134 -2.1276 -0.7167
  757SOL     OW 2269   0.131   0.416   1.959 -0.3368 -0.1485  0.2300
  757SOL    HW1 2270   0.143   0.323   1.908 -0.2648 -1.0118 -1.8429
  757SOL    HW2 2271   0.062   0.428   2.029  2.9185  1.2386 -0.2101
  758SOL     OW 2272   2.332   0.081   1.408 -0.7002 -0.0637 -0.0354
  758SOL    HW1 2273   2.269   0.034   1.477 -0.2583  1.4545 -0.3553
  758SOL    HW2 2274   2.320   0.046   1.313  2.6848 -0.4098  1.1442
  759SOL     OW 2275   1.725   0.120   0.094  0.3699  0.0510 -0.1529
  759SOL    HW1 2276   1.702   0.125  -0.007 -1.2317  0.0744 -0.5977
  759SOL    HW2 2277   1.823   0.088   0.100  2.7151 -0.2048 -0.1924
  760SOL     OW 2278   2.710   2.110   2.809 -0.0705 -0.4915  0.4761
  760SOL    HW1 2279   2.649   2.148   2.883  1.3639  0.5702  0.8127
  760SOL    HW2 2280   2.813   2.133   2.819  3.0339 -1.7421  1.4999
  761SOL     OW 2281   1.954   1.782   1.753 -0.3094 -0.3095 -1.0350
  761SOL    HW1 2282   1.995   1.689   1.775  1.3867  1.6098  1.7894
  761SOL    HW2 2283   1.871   1.778   1.691 -0.1663  0.9534  0.1605
  762SOL     OW 2284   0.497   2.385   0.927  0.5744  0.0693  0.0659
  762SOL    HW1 2285   0.539   2.418   0.837  1.6777 -0.2305  1.2356
  762SOL    HW2 2286   0.559   2.398   1.010 -2.2264  0.5072 -0.8480
  763SOL     OW 2287   2.133   1.611   2.979 -0.1209  0.0848  0.6267
  763SOL    HW1 2288   2.224   1.578   3.004 -1.5629  1.9315 -0.0656
  763SOL    HW2 2289   2.056   1.539   3.000 -2.0851 -1.9518  2.4244
  764SOL     OW 2290   0.661   0.569   0.652  0.2010 -0.2346 -0.7766
  764SOL    HW1 2291   0.559   0.531   0.657 -3.9927  0.5437 -0.6704
  764SOL    HW2 2292   0.718   0.548   0.736 -0.5696  0.0410  2.0629
  765SOL     OW 2293   0.822   0.257   0.736  0.3313  0.8871  0.2989
  765SOL    HW1 2294   0.843   0.184   0.659  1.6182  0.3906 -3.4129
  765SOL    HW2 2295   0.859   0.344   0.713 -0.1457 -1.1732  2.3374
  766SOL     OW 2296   2.900   2.208   3.057 -0.0700  0.2991 -0.1332
  766SOL    HW1 2297   2.824   2.191   3.123 -1.6702 -1.4466 -0.0190
  766SOL    HW2 2298   2.956   2.297   3.073  0.4916 -0.3246  1.6100
  767SOL     OW 2299   2.846   1.625   0.506 -0.0059 -0.1427  0.4813
  767SOL    HW1 2300   2.758   1.624   0.558  0.5256 -1.7691  0.9266
  767SOL    HW2 2301   2.925   1.649   0.565 -0.1465  1.1903 -0.7486
  768SOL     OW 2302   1.024   0.227   0.196 -0.0163 -0.2338 -0.5387
  768SOL    HW1 2303   1.011   0.277   0.286  0.4444  1.9210 -1.4586
  768SOL    HW2 2304   1.104   0.162   0.202  1.1766 -1.5873  0.6543
  769SOL     OW 2305   1.139   1.793   2.280 -0.0142  0.2488  0.0378
  769SOL    HW1 2306   1.047   1.788   2.336 -2.9927  0.7207 -1.2680
  769SOL    HW2 2307   1.224   1.800   2.335 -2.5429 -0.4816 -1.9981
  770SOL     OW 2308   0.188   1.155   2.285  0.6897 -0.0831  0.0606
  770SOL    HW1 2309   0.222   1.233   2.340 -3.8729  0.2677 -0.8286
  770SOL    HW2 2310   0.084   1.149   2.284 -1.7442 -0.7239  0.0568
  771SOL     OW 2311   3.075   2.811   1.893  0.2858 -0.3019  0.3474
  771SOL    HW1 2312   2.997   2.842   1.829 -2.1349 -0.8431 -0.8160
  771SOL    HW2 2313   3.065   2.856   1.984 -1.8817  1.0826 -0.4719
  772SOL     OW 2314   2.342   0.207   2.841  0.3251  0.1106 -0.3381
  772SOL    HW1 2315   2.412   0.141   2.801  1.7734 -1.7705 -0.0515
  772SOL    HW2 2316   2.360   0.240   2.942 -0.8939 -0.5343  1.8848
  773SOL     OW 2317   0.577   2.078   2.443 -0.1197  0.6590 -0.7049
  773SOL    HW1 2318   0.571   2.158   2.382 -2.8840 -3.7103  0.0692
  773SOL    HW2 2319   0.518   2.091   2.530  2.2276 -0.7613  0.0237
  774SOL     OW 2320   2.102   0.009   2.641  0.5048  0.0075  0.2327
  774SOL    HW1 2321   2.128   0.106   2.661 -1.1512 -0.7748 -0.9831
  774SOL    HW2 2322   2.165  -0.058   2.692 -2.5919 -1.5075  1.8247
  775SOL     OW 2323   2.527   2.865   2.295  0.0530  0.2059 -0.5265
  775SOL    HW1 2324   2.424   2.872   2.268 -1.2014  1.1847  1.4533
  775SOL    HW2 2325   2.548   2.887   2.390  3.2303 -0.9603 -3.6381
  776SOL     OW 2326   0.010   1.228   0.186  0.3095 -0.4093  0.1148
  776SOL    HW1 2327  -0.056   1.221   0.104 -1.6785  0.0104 -2.0348
  776SOL    HW2 2328  -0.052   1.225   0.272 -1.1203 -0.8239 -0.2192
  777SOL     OW 2329   0.387   3.005   0.499 -0.0148 -0.1350  0.0114
  777SOL    HW1 2330   0.286   2.993   0.484 -1.4470  1.7515 -1.3819
  777SOL    HW2 2331   0.434   2.916   0.480  1.4758 -1.2618  2.5173
  778SOL     OW 2332   1.330   1.998   0.263  0.5522  0.2430  0.3200
  778SOL    HW1 2333   1.266   2.053   0.324  3.0353  1.3831  0.2509
  778SOL    HW2 2334   1.370   2.042   0.179 -0.8448  0.1346 -0.6306
  779SOL     OW 2335   0.138   0.789   0.498 -0.1405  0.3421 -0.2378
  779SOL    HW1 2336   0.080   0.717   0.459  1.4029  2.1327  2.3576
  779SOL    HW2 2337   0.083   0.866   0.547  0.0730  1.2475 -2.0381
  780SOL     OW 2338   0.130   0.338   2.344 -0.0152  0.3305 -0.1329
  780SOL    HW1 2339   0.116   0.419   2.411 -1.9225  1.5705  0.4134
  780SOL    HW2 2340   0.231   0.326   2.316  1.1940  1.2339 -0.2112
  781SOL     OW 2341   0.700   1.662   1.532 -0.0355 -0.1848  0.3987
  781SOL    HW1 2342   0.745   1.585   1.584 -2.4609 -0.6423 -0.1261
  781SOL    HW2 2343   0.598   1.657   1.519 -0.6165  1.0012  0.2932
  782SOL     OW 2344   2.614   3.096   0.888 -0.5049 -0.0187  0.1489
  782SOL    HW1 2345   2.543   3.132   0.821  0.5922  0.5235  0.0129
  782SOL    HW2 2346   2.579   3.112   0.982 -0.1693  1.3323 -2.2359
  783SOL     OW 2347   2.718   0.700   2.414 -0.0390  0.2305 -0.3682
  783SOL    HW1 2348   2.698   0.719   2.514 -1.7194 -0.2911 -1.0624
  783SOL    HW2 2349   2.722   0.596   2.403  0.0068 -0.0272  1.3301
  784SOL     OW 2350   1.430   2.135   0.047  0.2923 -0.4765  0.3317
  784SOL    HW1 2351   1.509   2.190   0.088 -1.9394 -0.9324 -1.7762
  784SOL    HW2 2352   1.436   2.139  -0.058 -0.9828 -1.6408 -1.3053
  785SOL     OW 2353   2.102   0.294   0.036  0.0636  0.3778 -0.4385
  785SOL    HW1 2354   2.046   0.343   0.109 -3.4257 -3.6459  0.7504
  785SOL    HW2 2355   2.138   0.356  -0.036 -0.5696 -0.6181  1.6360
  786SOL     OW 2356   2.046   2.183   2.281 -0.1435  0.3513  0.2586
  786SOL    HW1 2357   2.015   2.088   2.319  2.2418 -0.5099 -1.0493
  786SOL    HW2 2358   2.145   2.186   2.269 -1.9126  2.6075  2.7246
  787SOL     OW 2359   1.417   0.523   0.885  0.3062  0.2588  0.4318
  787SOL    HW1 2360   1.330   0.580   0.887 -1.1692  0.5086  0.3552
  787SOL    HW2 2361   1.449   0.516   0.790  1.0435 -1.8149  2.4462
  788SOL     OW 2362   1.229   0.436   0.001 -0.0094 -0.1107 -0.1754
  788SOL    HW1 2363   1.131   0.401  -0.008 -1.1555 -0.0198  1.5649
  788SOL    HW2 2364   1.226   0.531   0.041 -1.4373  1.1138  0.3406
  789SOL     OW 2365   2.577   0.103   1.975 -0.1321  0.1747 -0.6406
  789SOL    HW1 2366   2.531   0.034   1.924  0.7259  1.7018  2.1486
  789SOL    HW2 2367   2.658   0.067   2.024 -1.2481  0.7688  1.3389
  790SOL     OW 2368   2.595   2.821   0.710  0.1926  0.1367  0.2642
  790SOL    HW1 2369   2.684   2.843   0.654  3.2737  0.1086 -1.3599
  790SOL    HW2 2370   2.609   2.799   0.806  0.0827  0.2581 -0.3529
  791SOL     OW 2371   1.934   1.187   0.139 -0.6309  0.1643 -0.6145
  791SOL    HW1 2372   1.867   1.126   0.193 -1.3608 -1.7955 -2.4989
  791SOL    HW2 2373   2.014   1.231   0.195  4.4162  0.6633 -2.8123
  792SOL     OW 2374   0.464   1.894   2.223 -0.3985 -0.8587 -0.2208
  792SOL    HW1 2375   0.528   1.925   2.297 -1.8331 -0.2418  0.2257
  792SOL    HW2 2376   0.456   1.793   2.223 -1.7234  0.3885 -2.5928
  793SOL     OW 2377   2.109   1.611   2.078 -0.3556  0.2491  0.2428
  793SOL    HW1 2378   2.185   1.680   2.044  0.6606  4.0260 -0.4974
  793SOL    HW2 2379   2.123   1.517   2.036  0.5373 -0.9391 -1.8769
  794SOL     OW 2380   0.442   1.591   2.245  0.3930 -0.5074  0.1434
  794SOL    HW1 2381   0.458   1.542   2.158 -0.0390 -1.7022  0.2495
  794SOL    HW2 2382   0.406   1.540   2.330  1.6080  1.1924  1.5549
  795SOL     OW 2383   2.471   2.231   1.796 -0.1235 -0.0138 -0.0457
  795SOL    HW1 2384   2.462   2.199   1.896 -1.2997  2.1586  1.7779
  795SOL    HW2 2385   2.427   2.162   1.723  0.7670 -3.3148 -1.3844
  796SOL     OW 2386   3.089   1.085   2.727 -0.0503 -0.6761 -0.6185
  796SOL    HW1 2387   2.985   1.096   2.733  1.4026 -0.6911  1.3904
  796SOL    HW2 2388   3.144   1.108   2.817  1.3236 -0.9445 -0.8773
  797SOL     OW 2389   0.806   0.675   1.461  0.1018 -0.3640  0.5848
  797SOL    HW1 2390   0.883   0.737   1.492  0.0154 -2.6939 -2.0335
  797SOL    HW2 2391   0.737   0.719   1.396  2.1539 -0.8967 -0.1377
  798SOL     OW 2392   1.373   0.484   1.177 -0.0538 -0.2477  0.1841
  798SOL    HW1 2393   1.442   0.421   1.218  1.0798 -0.2717  0.3491
  798SOL    HW2 2394   1.391   0.506   1.076 -0.8848  0.2359 -1.5520
  799SOL     OW 2395   1.942   2.640   1.064 -0.0662 -0.1235  0.1008
  799SOL    HW1 2396   1.870   2.579   1.105  1.4427 -0.0669 -3.0460
  799SOL    HW2 2397   1.908   2.686   0.976 -1.4526 -0.3610 -0.8663
  800SOL     OW 2398   3.056   0.627   1.829  0.2685 -0.1288 -0.1185
  800SOL    HW1 2399   2.997   0.677   1.899  0.9485 -0.9076 -0.5381
  800SOL    HW2 2400   3.088   0.535   1.859  3.2438  1.9187 -2.7130
  801SOL     OW 2401   1.890   2.188   0.188  0.5932  0.1454  0.3388
  801SOL    HW1 2402   1.824   2.142   0.119 -1.8464 -0.4682  0.7118
  801SOL    HW2 2403   1.987   2.158   0.165 -1.2577  1.2603 -0.9474
  802SOL     OW 2404   0.742   0.829   2.556  0.3787 -0.0840  0.0408
  802SOL    HW1 2405   0.798   0.768   2.494 -1.8887 -0.9041  1.4243
  802SOL    HW2 2406   0.640   0.800   2.556 -1.5517 -2.6938 -0.7005
  803SOL     OW 2407   0.887   0.166   0.972  0.3516  0.2430 -0.3996
  803SOL    HW1 2408   0.974   0.205   1.007 -0.4808 -1.0142 -0.9107
  803SOL    HW2 2409   0.853   0.212   0.886  2.3082  0.1073  0.5247
  804SOL     OW 2410   0.385   3.073   2.071  0.4172 -0.2390 -0.1201
  804SOL    HW1 2411   0.315   3.135   2.025 -0.0608 -1.6924  2.8129
  804SOL    HW2 2412   0.355   2.974   2.075  0.8020  1.8036  2.0568
  805SOL     OW 2413   2.441   0.298   0.300  0.6543  0.2719 -0.1394
  805SOL    HW1 2414   2.540   0.304   0.322 -1.1150  2.6322  2.6263
  805SOL    HW2 2415   2.418   0.260   0.204 -2.6879  3.3243  2.9111
  806SOL     OW 2416   0.706   2.407   1.671 -0.0629  0.6511  0.0717
  806SOL    HW1 2417   0.687   2.504   1.698  0.0708  2.0249 -0.6029
  806SOL    HW2 2418   0.806   2.386   1.658  1.6443  0.5676  1.4426
  807SOL     OW 2419   2.488   0.932   0.437 -0.3517  0.2634 -0.0866
  807SOL    HW1 2420   2.588   0.901   0.456  0.0179 -2.1360 -3.5166
  807SOL    HW2 2421   2.482   0.972   0.343  3.5607 -0.7770  1.2090
  808SOL     OW 2422   0.602   1.978   3.006 -0.7281  0.1338 -0.5792
  808SOL    HW1 2423   0.554   2.005   3.097 -1.0240 -0.3140  3.0723
  808SOL    HW2 2424   0.588   1.877   2.983 -1.0601  0.2657 -1.0279
  809SOL     OW 2425   2.695   2.000   1.916 -0.3311  0.0074  0.0801
  809SOL    HW1 2426   2.766   2.075   1.912 -0.8976 -0.2246 -0.2167
  809SOL    HW2 2427   2.664   1.961   1.825  1.7385 -1.8737  0.2684
  810SOL     OW 2428   2.102   1.137   0.527  0.0800  0.4418  0.5462
  810SOL    HW1 2429   2.142   1.084   0.611 -3.5527  0.0572 -0.2934
  810SOL    HW2 2430   2.050   1.219   0.551  2.9369 -2.9985 -1.5439
  811SOL     OW 2431   1.338   2.314   1.215 -0.1360  0.5176  0.1321
  811SOL    HW1 2432   1.319   2.242   1.286 -1.8733  0.3218 -2.0389
  811SOL    HW2 2433   1.336   2.282   1.116 -2.5627  1.7074  0.8164
  812SOL     OW 2434   1.357   0.756   1.985  0.0554 -0.0399  0.0501
  812SOL    HW1 2435   1.420   0.833   2.019  0.2127 -0.7044  1.1076
  812SOL    HW2 2436   1.267   0.804   1.971  1.1514  1.5731 -1.4506
  813SOL     OW 2437   1.698   2.022   2.466 -0.5113  0.1485  0.0778
  813SOL    HW1 2438   1.787   1.968   2.484  2.7580 -0.1951  2.2619
  813SOL    HW2 2439   1.694   2.051   2.363  1.1692 -0.4051  2.6988
  814SOL     OW 2440   2.865   1.583   2.917 -0.0535 -0.6403 -0.6111
  814SOL    HW1 2441   2.966   1.601   2.940  1.6095 -0.6009  2.0851
  814SOL    HW2 2442   2.827   1.664   2.865 -1.3684 -1.2293  2.0090
  815SOL     OW 2443   2.279   2.889   2.679 -0.1070  0.0882  0.1600
  815SOL    HW1 2444   2.233   2.824   2.745  1.9221  1.9091  0.6510
  815SOL    HW2 2445   2.379   2.863   2.667  0.5873 -0.7023  1.3526
  816SOL     OW 2446   1.746   0.331   1.640 -0.2143 -0.1923  0.2251
  816SOL    HW1 2447   1.643   0.329   1.649  0.8004 -1.7237  2.5690
  816SOL    HW2 2448   1.796   0.356   1.732  0.2846  2.4414  2.5316
  817SOL     OW 2449   0.473   1.204   2.470  0.0118  0.5419  0.2696
  817SOL    HW1 2450   0.443   1.296   2.436  1.1189 -1.9146 -0.1878
  817SOL    HW2 2451   0.500   1.142   2.391 -0.9998  0.9821 -2.0019
  818SOL     OW 2452   2.020   0.825   0.441 -0.4081  0.4442 -0.1806
  818SOL    HW1 2453   2.061   0.917   0.461 -0.6814  1.6020  1.4306
  818SOL    HW2 2454   1.945   0.792   0.512 -0.3417 -1.8001  0.8284
  819SOL     OW 2455   2.757   2.970   3.055 -0.2681 -0.1797  0.0445
  819SOL    HW1 2456   2.839   2.914   3.016  0.2041 -0.8750 -1.4522
  819SOL    HW2 2457   2.687   2.985   2.980  3.0272  2.3007  0.7285
  820SOL     OW 2458   1.190   1.094   0.557  0.1546  0.2482 -0.0715
  820SOL    HW1 2459   1.253   1.153   0.611 -0.9975 -1.4703 -1.5931
  820SOL    HW2 2460   1.188   0.995   0.594 -1.2727 -1.0284 -3.5518
  821SOL     OW 2461   3.073   1.299   0.649 -0.3333 -0.5096  0.2225
  821SOL    HW1 2462   3.040   1.293   0.742  0.0976 -3.0056 -2.1592
  821SOL    HW2 2463   3.148   1.373   0.639  1.0693 -3.7497  0.3879
  822SOL     OW 2464   2.565   1.773   2.478  0.1164  0.1026 -0.2527
  822SOL    HW1 2465   2.588   1.858   2.531 -2.3760  1.0433 -0.4357
  822SOL    HW2 2466   2.523   1.803   2.388  2.5635 -1.5076  0.2899
  823SOL     OW 2467   2.015   0.887   1.183  0.5914  0.6791 -0.1342
  823SOL    HW1 2468   1.996   0.897   1.285 -0.1370 -0.1671 -1.0454
  823SOL    HW2 2469   1.929   0.902   1.121  0.0769  0.5820 -0.4624
  824SOL     OW 2470   0.195   2.059   2.729 -0.0646 -0.1650 -0.2808
  824SOL    HW1 2471   0.174   2.002   2.811 -0.9361 -1.7866 -2.6976
  824SOL    HW2 2472   0.238   1.998   2.661 -3.5257 -0.6905  0.0614
  825SOL     OW 2473   1.254   1.073   0.277 -0.5976 -0.7258 -0.7420
  825SOL    HW1 2474   1.226   1.055   0.375  1.8923 -1.4515  0.1545
  825SOL    HW2 2475   1.309   1.158   0.278 -0.6631 -3.0262  2.7672
  826SOL     OW 2476   1.909   0.684   1.551  0.0819  0.1398  0.0751
  826SOL    HW1 2477   1.993   0.640   1.601  2.4016 -1.6552 -0.3031
  826SOL    HW2 2478   1.838   0.613   1.517 -0.0994 -1.7136 -0.7028
  827SOL     OW 2479   0.786   1.401   0.244 -0.2879  0.2669  0.2425
  827SOL    HW1 2480   0.821   1.334   0.168  0.1516 -2.0983 -0.0184
  827SOL    HW2 2481   0.718   1.354   0.306  1.4432  0.3722 -0.7457
  828SOL     OW 2482   2.578   0.055   1.598  0.0764  0.0160  0.0763
  828SOL    HW1 2483   2.496   0.092   1.546  2.1895  1.0459 -3.7029
  828SOL    HW2 2484   2.556  -0.032   1.654  1.8330 -1.0155  2.1094
  829SOL     OW 2485   2.742   2.498   3.010  0.1354 -0.3727  0.5622
  829SOL    HW1 2486   2.672   2.420   3.018  2.0516 -1.2258 -3.0891
  829SOL    HW2 2487   2.706   2.584   3.056 -0.0985  0.1615  1.0259
  830SOL     OW 2488   2.780   0.924   2.983 -0.0965  0.2353 -0.2162
  830SOL    HW1 2489   2.818   1.003   3.043  0.8200  0.4492  2.0757
  830SOL    HW2 2490   2.825   0.834   3.011 -1.3193 -2.1600  1.4500
  831SOL     OW 2491   3.098   0.595   0.389 -0.4751 -0.5064 -0.2536
  831SOL    HW1 2492   3.040   0.534   0.456 -1.5346  1.2678  1.4652
  831SOL    HW2 2493   3.125   0.546   0.304 -1.1580 -1.6654  2.5467
  832SOL     OW 2494   1.804   0.750   3.063  0.3019  0.0664 -0.3423
  832SOL    HW1 2495   1.723   0.815   3.054 -0.1874  0.4220 -1.8599
  832SOL    HW2 2496   1.779   0.654   3.024 -1.4176  0.6383  1.1695
  833SOL     OW 2497   2.419   2.126   0.574  0.7693  0.0629 -0.7285
  833SOL    HW1 2498   2.318   2.116   0.570  0.5332 -1.6197  0.2118
  833SOL    HW2 2499   2.470   2.040   0.561 -1.8817 -0.6605 -0.0863
  834SOL     OW 2500   0.050   0.224   0.693  0.6998  0.2241 -0.6427
  834SOL    HW1 2501   0.025   0.143   0.756 -2.9018 -1.9367  0.5250
  834SOL    HW2 2502   0.124   0.194   0.629 -0.1603  2.1032 -0.3841
  835SOL     OW 2503   2.452   1.469   1.185 -0.7057 -0.6779 -0.6622
  835SOL    HW1 2504   2.544   1.522   1.202 -1.0402  0.7036  3.7059
  835SOL    HW2 2505   2.444   1.439   1.088  0.0062  1.4606  1.3127
  836SOL     OW 2506   1.545   0.865   2.590 -0.2442  0.0067  0.1858
  836SOL    HW1 2507   1.442   0.861   2.561 -1.1434 -1.4670  0.5587
  836SOL    HW2 2508   1.606   0.873   2.505 -1.1767 -1.0711 -1.7062
  837SOL     OW 2509   1.519   0.071   0.470  0.2844 -0.6075  0.8001
  837SOL    HW1 2510   1.519   0.172   0.445  1.1509 -1.6939  1.7867
  837SOL    HW2 2511   1.506   0.002   0.395 -0.8058  0.3163 -0.1224
  838SOL     OW 2512   1.334   1.619   2.674 -0.6417 -0.8842  0.0837
  838SOL    HW1 2513   1.390   1.568   2.743  0.5728  0.6195  0.3619
  838SOL    HW2 2514   1.262   1.562   2.624 -2.2853  2.7721  0.0587
  839SOL     OW 2515   1.610   0.249   0.976 -0.3363 -0.0237  0.4428
  839SOL    HW1 2516   1.653   0.309   1.051  0.3649  2.2049  1.5806
  839SOL    HW2 2517   1.569   0.165   1.011 -0.8545  2.2861  0.3954
  840SOL     OW 2518   2.564   2.906   1.718 -0.0298 -0.0658 -0.0110
  840SOL    HW1 2519   2.501   2.859   1.648 -0.2325 -2.1408  3.8958
  840SOL    HW2 2520   2.566   2.853   1.802 -3.5031  4.2699 -1.7844
  841SOL     OW 2521   1.579   0.919   3.047  0.0594  0.5160 -0.4865
  841SOL    HW1 2522   1.484   0.895   3.076 -3.0947 -0.6008 -2.5620
  841SOL    HW2 2523   1.584   0.985   2.968 -0.1589  0.0516  1.4242
  842SOL     OW 2524   0.804   1.501   0.882  0.3478  0.5810  0.0129
  842SOL    HW1 2525   0.767   1.565   0.956  1.1965  0.6665 -0.6049
  842SOL    HW2 2526   0.740   1.424   0.853  3.1392  2.4661 -3.1827
  843SOL     OW 2527   0.137   3.064   1.401  0.4943  0.0294  0.1460
  843SOL    HW1 2528   0.148   3.138   1.474  1.6974  1.9373  0.3540
  843SOL    HW2 2529   0.085   2.982   1.441 -2.4410 -0.8974 -2.0217
  844SOL     OW 2530   0.792   2.455   0.240  0.4140  0.0370  0.2866
  844SOL    HW1 2531   0.733   2.419   0.319 -1.7906  1.1665 -0.1208
  844SOL    HW2 2532   0.751   2.536   0.190  0.1239 -1.0042 -1.6379
  845SOL     OW 2533   1.650   2.833   1.276 -0.2164 -0.2169 -0.1259
  845SOL    HW1 2534   1.671   2.742   1.233 -1.9827  2.0406  1.8267
  845SOL    HW2 2535   1.681   2.837   1.371  0.2189 -3.1234 -3.7061
  846SOL     OW 2536   1.515   3.026   0.755  0.5215 -0.4331 -0.4146
  846SOL    HW1 2537   1.535   3.128   0.742 -3.5917  1.4059 -1.2260
  846SOL    HW2 2538   1.569   2.968   0.692  0.7533 -1.9463  0.8748
  847SOL     OW 2539   2.088   1.774   0.449  0.3411  0.6703 -0.1442
  847SOL    HW1 2540   2.061   1.671   0.472 -3.2364 -3.7560  2.7453
  847SOL    HW2 2541   2.003   1.834   0.445 -0.7488  2.3421 -2.6116
  848SOL     OW 2542   2.430   0.881   2.637  0.3530  0.2878  0.3335
  848SOL    HW1 2543   2.389   0.972   2.666  0.0802  1.9696 -1.8529
  848SOL    HW2 2544   2.353   0.811   2.612  0.2736 -2.5665 -0.6075
  849SOL     OW 2545   2.527   0.904   2.377 -0.7078 -0.5843  0.2096
  849SOL    HW1 2546   2.608   0.837   2.364 -0.3209 -0.6676 -1.9265
  849SOL    HW2 2547   2.487   0.911   2.469  1.0646 -0.6839  0.6100
  850SOL     OW 2548   1.567   0.034   1.350 -0.2011  0.1990 -0.1723
  850SOL    HW1 2549   1.587  -0.002   1.259 -0.6664  2.9529 -1.2428
  850SOL    HW2 2550   1.521  -0.029   1.416  2.7012  2.5227  1.3565
  851SOL     OW 2551   0.586   1.708   0.722  0.3888  0.0454 -0.8335
  851SOL    HW1 2552   0.675   1.714   0.769 -2.9350 -0.1327 -0.8869
  851SOL    HW2 2553   0.597   1.695   0.622  0.3685  1.9843  3.4893
  852SOL     OW 2554   0.837   2.087   1.655  0.1552 -0.0551 -0.2070
  852SOL    HW1 2555   0.875   2.175   1.612  2.8863  1.6684  2.4456
  852SOL    HW2 2556   0.772   2.108   1.733  0.4295  2.0787  0.1218
  853SOL     OW 2557   2.537   1.532   2.634  0.1710 -0.2480 -0.1916
  853SOL    HW1 2558   2.474   1.456   2.598  1.5764  0.2197 -0.1776
  853SOL    HW2 2559   2.539   1.619   2.573 -1.5582 -0.5334 -1.2350
  854SOL     OW 2560   2.413   1.411   1.775 -0.1903 -0.1815  0.4042
  854SOL    HW1 2561   2.493   1.404   1.709 -0.8486  1.2482 -0.2959
  854SOL    HW2 2562   2.375   1.314   1.803 -0.0140  0.8191 -0.1008
  855SOL     OW 2563   2.061   2.382   1.128 -0.3473  0.0052 -0.2253
  855SOL    HW1 2564   2.029   2.462   1.070  2.2714  0.7565 -0.2195
  855SOL    HW2 2565   2.132   2.411   1.196 -1.0362 -2.3617 -0.4398
  856SOL     OW 2566   1.340   1.415   0.912 -0.6694  0.4513  0.1379
  856SOL    HW1 2567   1.393   1.469   0.988 -0.0310  0.8931  3.8273
  856SOL    HW2 2568   1.246   1.457   0.898 -0.4764 -0.7233  0.5783
  857SOL     OW 2569   0.031   2.715   1.067 -0.4249  0.2443  0.9127
  857SOL    HW1 2570   0.042   2.760   0.972 -0.7291  0.0968 -1.7652
  857SOL    HW2 2571   0.092   2.635   1.075 -2.8772  1.6928  0.7843
  858SOL     OW 2572   2.388   2.045   1.631 -0.1254 -0.1514 -0.7848
  858SOL    HW1 2573   2.296   2.011   1.606  3.3188  1.0612  3.0525
  858SOL    HW2 2574   2.461   1.974   1.641  0.9669  1.7458 -1.3093
  859SOL     OW 2575   2.431   0.567   1.095  0.4554 -0.2898 -0.0760
  859SOL    HW1 2576   2.485   0.637   1.041  1.4289  0.0110 -2.1590
  859SOL    HW2 2577   2.484   0.483   1.122  3.3950 -0.9767  1.9699
  860SOL     OW 2578   1.882   2.825   0.478  0.1255 -0.1284  0.7737
  860SOL    HW1 2579   1.887   2.793   0.376 -0.7775  2.3117 -0.8669
  860SOL    HW2 2580   1.899   2.923   0.493 -1.9624 -2.2360 -0.2746
  861SOL     OW 2581   1.046   2.491   2.882 -0.3696  0.3656 -0.1792
  861SOL    HW1 2582   1.137   2.522   2.849 -1.5638 -0.6756 -0.2709
  861SOL    HW2 2583   1.024   2.503   2.981 -1.6277  0.0265 -2.5443
  862SOL     OW 2584   2.824   2.539   1.697  0.8458  0.1662 -0.4875
  862SOL    HW1 2585   2.906   2.538   1.756 -0.7339  0.0263 -0.9495
  862SOL    HW2 2586   2.791   2.637   1.675 -4.8129 -0.0252 -2.1633
  863SOL     OW 2587   1.828   2.731   0.229  0.0414  0.0275 -0.2830
  863SOL    HW1 2588   1.876   2.635   0.221  1.0083  2.5889  1.6665
  863SOL    HW2 2589   1.731   2.729   0.196  0.7978 -0.6330  0.8004
  864SOL     OW 2590   2.053   1.212   2.782 -0.4275  0.0602  0.5939
  864SOL    HW1 2591   2.021   1.165   2.693  0.8657 -0.3742  3.1173
  864SOL    HW2 2592   2.157   1.203   2.801  0.7837  1.4637 -1.0585
  865SOL     OW 2593   2.099   1.974   0.710  0.1737 -0.3272 -0.0514
  865SOL    HW1 2594   2.179   1.910   0.737  2.2746 -0.1634  0.7597
  865SOL    HW2 2595   2.013   1.940   0.758 -0.2424  0.3271 -0.5657
  866SOL     OW 2596   2.958   2.937   1.085 -0.0488  0.5235 -0.2791
  866SOL    HW1 2597   2.958   2.993   1.002 -1.7310 -0.2549  3.5323
  866SOL    HW2 2598   3.033   2.862   1.085  1.6961 -0.4551 -0.1923
  867SOL     OW 2599   0.328   1.365   0.884 -0.6569  0.1693  0.0610
  867SOL    HW1 2600   0.332   1.303   0.797  1.7960 -0.8680 -0.4133
  867SOL    HW2 2601   0.358   1.463   0.864  0.2391  1.0309  1.7341
  868SOL     OW 2602   0.796   1.902   2.065 -0.4288 -0.1926 -0.1216
  868SOL    HW1 2603   0.784   1.873   2.163 -0.3224  0.4014 -0.3614
  868SOL    HW2 2604   0.718   1.960   2.020  1.4473 -0.8075  2.0388
  869SOL     OW 2605   2.624   1.893   1.662  0.0199  0.3370 -0.6243
  869SOL    HW1 2606   2.650   1.963   1.594 -0.1109 -0.2796  0.3497
  869SOL    HW2 2607   2.628   1.792   1.625 -2.0121 -3.7175  1.4554
  870SOL     OW 2608   2.379   2.682   1.145 -0.0198  0.4080 -0.3998
  870SOL    HW1 2609   2.372   2.597   1.203  1.4180  3.3855  1.2394
  870SOL    HW2 2610   2.463   2.747   1.161  0.1787  0.9009 -0.6658
  871SOL     OW 2611   3.070   2.260   0.555  0.5965  0.4898 -0.1406
  871SOL    HW1 2612   3.025   2.312   0.634 -2.8357 -1.6726  0.4584
  871SOL    HW2 2613   3.034   2.281   0.458 -0.6903  1.4174 -1.3750
  872SOL     OW 2614   2.076   0.497   1.700  0.0672 -0.7657  1.0233
  872SOL    HW1 2615   2.023   0.502   1.786 -0.3618  0.1352 -2.2465
  872SOL    HW2 2616   2.171   0.457   1.706  1.7632 -0.8441 -2.1837
  873SOL     OW 2617   1.713   2.065   3.081 -0.5762  0.6220 -0.5942
  873SOL    HW1 2618   1.643   2.004   3.035 -1.7173  1.5390 -1.0051
  873SOL    HW2 2619   1.764   2.124   3.014 -0.3933  2.0875  2.1964
  874SOL     OW 2620   0.659   2.494   0.701  0.2741  0.3159  0.0606
  874SOL    HW1 2621   0.649   2.574   0.762 -0.3630 -1.7435  1.0063
  874SOL    HW2 2622   0.748   2.436   0.722  0.5465 -1.6827 -1.7004
  875SOL     OW 2623   2.354   1.620   1.401 -0.9577  1.2409 -0.0253
  875SOL    HW1 2624   2.449   1.628   1.445 -0.0354  1.0154 -1.6100
  875SOL    HW2 2625   2.353   1.559   1.312 -3.2498 -0.3129 -2.0242
  876SOL     OW 2626   0.075   2.299   2.653 -0.1591 -0.0177 -0.4132
  876SOL    HW1 2627   0.135   2.208   2.656 -0.4351 -2.4812  1.3620
  876SOL    HW2 2628   0.129   2.378   2.698  2.8369  0.9531 -1.1391
  877SOL     OW 2629   2.874   2.617   0.680 -0.5729  0.0435  0.1757
  877SOL    HW1 2630   2.882   2.721   0.696  2.6691  2.2649 -3.3935
  877SOL    HW2 2631   2.946   2.557   0.725  1.5435 -3.3147 -0.6158
  878SOL     OW 2632   2.840   1.614   2.304  0.2361 -0.2280  0.0865
  878SOL    HW1 2633   2.797   1.706   2.283 -1.8011 -1.6421 -0.0096
  878SOL    HW2 2634   2.819   1.584   2.402 -0.8558  3.6620  0.3459
  879SOL     OW 2635   2.500   0.010   1.128 -0.9079  0.2355  0.3904
  879SOL    HW1 2636   2.548  -0.024   1.214  0.4435 -1.5190 -1.0267
  879SOL    HW2 2637   2.401  -0.021   1.121  1.5858  0.1909  1.2277
  880SOL     OW 2638   0.636   0.539   2.270 -0.5266 -0.2181 -0.2228
  880SOL    HW1 2639   0.602   0.484   2.349  0.4844 -1.0046 -2.1252
  880SOL    HW2 2640   0.686   0.481   2.201  2.1491  4.1356  0.4670
  881SOL     OW 2641   0.817   0.096   0.478 -0.1818 -0.4483 -1.1318
  881SOL    HW1 2642   0.860   0.002   0.489 -1.5531 -0.1581  1.3248
  881SOL    HW2 2643   0.729   0.086   0.426  2.6100 -5.0502 -1.0316
  882SOL     OW 2644   2.746   1.626   1.735 -0.8496 -0.2113 -0.7614
  882SOL    HW1 2645   2.829   1.591   1.682  2.8289  1.0819 -0.2173
  882SOL    HW2 2646   2.711   1.564   1.809  2.1727  2.7985 -1.3586
  883SOL     OW 2647   0.825   0.508   0.854 -0.6461 -0.3028 -0.1241
  883SOL    HW1 2648   0.864   0.598   0.878 -0.0057 -1.1522 -1.7916
  883SOL    HW2 2649   0.774   0.465   0.934  0.6521 -3.8977  0.3007
  884SOL     OW 2650   1.193   1.730   1.083 -0.1940 -0.5676  0.5143
  884SOL    HW1 2651   1.154   1.642   1.082  1.6337  2.3905  0.4517
  884SOL    HW2 2652   1.216   1.764   0.986  2.1648  0.2718 -0.3561
  885SOL     OW 2653   2.339   1.870   2.285 -0.9425  0.3602 -0.2541
  885SOL    HW1 2654   2.280   1.804   2.342 -0.0384 -1.3146  0.8416
  885SOL    HW2 2655   2.324   1.971   2.299  2.8751  1.5553  0.2879
  886SOL     OW 2656   2.596   0.377   1.776  0.3194 -0.1532  0.5904
  886SOL    HW1 2657   2.609   0.280   1.819  0.0984 -3.7102  2.1318
  886SOL    HW2 2658   2.667   0.448   1.795  1.5301 -1.9245 -0.8325
  887SOL     OW 2659   0.120   2.052   1.348  0.3375  0.0218 -0.5024
  887SOL    HW1 2660   0.026   2.016   1.336  1.0589 -0.9747 -1.1433
  887SOL    HW2 2661   0.138   2.141   1.298 -1.9037  2.9583 -1.0574
  888SOL     OW 2662   0.599   1.229   1.565 -0.5620  0.9323 -0.0559
  888SOL    HW1 2663   0.610   1.297   1.489 -3.2695  0.5944  0.2590
  888SOL    HW2 2664   0.614   1.128   1.530  1.7856 -3.7447  0.9371
  889SOL     OW 2665   0.820   2.442   2.213  0.1974 -0.1225  0.5137
  889SOL    HW1 2666   0.756   2.376   2.254  0.4558  1.1669 -1.4926
  889SOL    HW2 2667   0.863   2.405   2.124 -0.8631  0.3378 -0.2359
  890SOL     OW 2668   2.397   2.472   0.317  0.0251 -0.1445 -0.7309
  890SOL    HW1 2669   2.495   2.507   0.309  2.2780  1.5997 -1.0075
  890SOL    HW2 2670   2.323   2.532   0.354 -1.3079 -1.2599 -2.3882
  891SOL     OW 2671   2.610   1.720   0.726  0.4816 -0.2901 -0.6966
  891SOL    HW1 2672   2.672   1.694   0.807 -3.8269  4.0367 -0.2602
  891SOL    HW2 2673   2.511   1.692   0.742  1.1992 -0.2072  0.2210
  892SOL     OW 2674   0.365   0.292   2.246 -0.2973  0.6843  0.1167
  892SOL    HW1 2675   0.462   0.317   2.264  2.0806  1.0157 -0.2941
  892SOL    HW2 2676   0.342   0.287   2.143 -1.3623 -0.6588 -0.7092
  893SOL     OW 2677   1.755   0.251   2.677  0.1956  0.2990  0.0352
  893SOL    HW1 2678   1.822   0.325   2.665 -3.5371  1.5054 -1.3296
  893SOL    HW2 2679   1.660   0.281   2.680  0.5530 -0.7838  0.0254
  894SOL     OW 2680   2.132   2.091   0.114 -0.1361 -0.4060 -0.2696
  894SOL    HW1 2681   2.146   2.051   0.021  0.4420 -1.8178 -1.7046
  894SOL    HW2 2682   2.185   2.040   0.190  1.6154 -1.5152  1.1272
  895SOL     OW 2683   2.770   1.455   0.854  0.2824 -0.3207  0.1007
  895SOL    HW1 2684   2.864   1.409   0.863  0.1730 -1.9328  1.2568
  895SOL    HW2 2685   2.769   1.545   0.897 -1.0593 -2.5621 -1.3191
  896SOL     OW 2686   1.839   1.712   1.267  0.2797  0.7822  0.0451
  896SOL    HW1 2687   1.938   1.710   1.237  0.8448  0.1880 -0.1997
  896SOL    HW2 2688   1.774   1.661   1.201 -1.5991  0.9504  1.8233
  897SOL     OW 2689   0.252   0.542   2.994 -0.4971  0.3526  0.0784
  897SOL    HW1 2690   0.217   0.594   2.912 -0.5653  1.3531 -0.5075
  897SOL    HW2 2691   0.336   0.589   3.027  0.0532  2.0177  0.3173
  898SOL     OW 2692   0.668   2.842   1.108 -0.0378 -0.2270 -0.2239
  898SOL    HW1 2693   0.741   2.915   1.102 -0.6522  2.8350  1.0405
  898SOL    HW2 2694   0.684   2.767   1.182  1.0973 -2.0698 -2.4318
  899SOL     OW 2695   2.878   0.939   1.371  0.1780  0.2629 -0.2828
  899SOL    HW1 2696   2.860   0.988   1.281  2.7287 -1.7655 -3.3603
  899SOL    HW2 2697   2.961   0.970   1.424 -0.1464  1.0830 -3.5970
  900SOL     OW 2698   0.959   2.513   2.452  0.0795 -0.1985  0.6050
  900SOL    HW1 2699   0.902   2.488   2.365 -1.6753  1.1073 -0.3002
  900SOL    HW2 2700   0.917   2.473   2.538  2.3471 -0.0823  1.0445
  901SOL     OW 2701   1.885   2.367   1.430  0.0587 -0.0651 -0.7334
  901SOL    HW1 2702   1.884   2.295   1.353  0.4983  1.9627  0.2118
  901SOL    HW2 2703   1.980   2.394   1.455 -0.0848 -2.8357  1.5167
  902SOL     OW 2704   2.596   1.663   1.506 -0.3954 -0.4923  0.1872
  902SOL    HW1 2705   2.636   1.601   1.580 -0.5832 -0.0169  0.1863
  902SOL    HW2 2706   2.643   1.651   1.416 -2.1900  0.2273  2.0055
  903SOL     OW 2707   0.293   2.356   2.002  0.3960  0.1817 -0.3188
  903SOL    HW1 2708   0.232   2.278   1.971 -0.8980 -0.0505  0.3286
  903SOL    HW2 2709   0.303   2.429   1.928  0.8904  2.6787 -1.6604
  904SOL     OW 2710   1.979   0.810   2.453  0.1551  0.4230 -0.0520
  904SOL    HW1 2711   1.895   0.756   2.487  0.9745  2.3949  0.9821
  904SOL    HW2 2712   2.026   0.775   2.369 -1.8517  0.6534  0.6795
  905SOL     OW 2713   2.814   0.121   2.402  0.1779 -0.0757 -0.0276
  905SOL    HW1 2714   2.855   0.042   2.453 -3.5684  0.9307  1.1424
  905SOL    HW2 2715   2.871   0.210   2.417 -0.9052  0.6750 -2.0171
  906SOL     OW 2716   0.151   1.737   1.905 -0.2743  0.3883  0.2374
  906SOL    HW1 2717   0.069   1.754   1.840 -0.6344  1.5993  0.4885
  906SOL    HW2 2718   0.236   1.789   1.871 -0.6684 -3.2580 -1.1432
  907SOL     OW 2719   0.242   2.496   0.979 -0.3619  0.2815 -0.2915
  907SOL    HW1 2720   0.342   2.465   0.982  0.8879 -0.5946  1.4700
  907SOL    HW2 2721   0.239   2.593   0.936 -1.8660  1.8124  0.5683
  908SOL     OW 2722   2.871   2.956   0.396 -0.4112  0.2985 -0.0094
  908SOL    HW1 2723   2.770   2.964   0.377  2.1405  1.4852  0.8422
  908SOL    HW2 2724   2.921   2.891   0.329  1.1680 -2.0516  0.4948
  909SOL     OW 2725   0.901   1.031   2.626  0.0434 -0.0995  0.0949
  909SOL    HW1 2726   0.838   0.950   2.614  0.7650  0.1377  0.0506
  909SOL    HW2 2727   0.931   1.067   2.530 -0.0260  0.0511 -2.9515
  910SOL     OW 2728   1.841   1.871   2.117 -0.8089  0.0093  0.5446
  910SOL    HW1 2729   1.905   1.919   2.053 -3.0881  2.6981  2.0770
  910SOL    HW2 2730   1.772   1.936   2.158  0.0485  1.2045 -1.7100
  911SOL     OW 2731   1.758   2.858   1.554 -0.6575  0.5236 -0.1587
  911SOL    HW1 2732   1.857   2.876   1.531 -0.7696  0.0313  1.1301
  911SOL    HW2 2733   1.747   2.785   1.626  0.1172  1.4074 -0.5557
  912SOL     OW 2734   2.833   0.985   0.712  0.3165 -0.5422  0.1644
  912SOL    HW1 2735   2.853   0.936   0.800  0.5872  1.2649 -0.1583
  912SOL    HW2 2736   2.777   1.072   0.720  2.0409  0.9287 -2.7484
  913SOL     OW 2737   2.592   1.287   1.600 -0.0131 -0.2857 -0.1563
  913SOL    HW1 2738   2.575   1.188   1.617  1.6932 -2.5905  1.2570
  913SOL    HW2 2739   2.637   1.299   1.506 -0.1671  1.2486 -0.4753
  914SOL     OW 2740   2.889   0.567   1.159 -0.2623  0.2049  0.3442
  914SOL    HW1 2741   2.882   0.465   1.174 -3.5191  0.2129  2.1661
  914SOL    HW2 2742   2.822   0.619   1.216 -1.6407  0.7125 -0.1489
  915SOL     OW 2743   1.208   0.688   0.911 -0.0987  0.7898 -0.4577
  915SOL    HW1 2744   1.258   0.714   1.003 -0.1777  0.2891  1.9976
  915SOL    HW2 2745   1.106   0.698   0.913  0.3901  1.8720  0.1744
  916SOL     OW 2746   0.597   0.090   0.671 -0.1156 -0.0874  0.2051
  916SOL    HW1 2747   0.637   0.156   0.741  0.2538 -1.0701 -2.9187
  916SOL    HW2 2748   0.596   0.131   0.579  1.6650 -3.7867  2.0172
  917SOL     OW 2749   2.844   2.627   2.036 -0.1243 -0.2255 -0.2127
  917SOL    HW1 2750   2.750   2.648   1.990 -2.8157 -0.9421  1.4073
  917SOL    HW2 2751   2.921   2.682   1.989  3.0455  0.6289  0.1628
  918SOL     OW 2752   1.079   2.090   3.045  0.0009  0.2745  0.4901
  918SOL    HW1 2753   1.071   2.170   3.114  0.7480  1.9608 -1.1703
  918SOL    HW2 2754   1.139   2.112   2.964  1.8963 -2.7535 -0.8326
  919SOL     OW 2755   0.762   1.668   2.782  0.1373 -0.8562  0.2419
  919SOL    HW1 2756   0.836   1.741   2.804  0.4799  1.7878  1.5826
  919SOL    HW2 2757   0.784   1.613   2.694  1.9914  0.4875 -2.9859
  920SOL     OW 2758   1.348   1.815   2.477 -0.2133  0.2032  0.2849
  920SOL    HW1 2759   1.419   1.774   2.414 -2.5306  1.4647 -0.5955
  920SOL    HW2 2760   1.339   1.760   2.562  1.1683  1.3260 -2.4944
  921SOL     OW 2761   1.122   0.130   2.564  0.2411 -0.3822  0.1839
  921SOL    HW1 2762   1.094   0.088   2.478  1.6498 -0.0007 -0.1739
  921SOL    HW2 2763   1.042   0.136   2.636 -1.3664 -0.7564  0.0721
  922SOL     OW 2764   2.175   2.464   2.839 -0.0546  0.3738 -1.0249
  922SOL    HW1 2765   2.188   2.361   2.859 -1.0713 -0.1285  0.7441
  922SOL    HW2 2766   2.127   2.485   2.749  2.6353 -0.0614  1.2822
  923SOL     OW 2767   1.173   2.707   0.277  0.3341 -0.1197 -0.2745
  923SOL    HW1 2768   1.243   2.784   0.303  0.9836  0.1366  3.3263
  923SOL    HW2 2769   1.218   2.614   0.300  0.9495 -1.6141  1.9014
  924SOL     OW 2770   2.938   1.687   0.141  0.5880  0.3971  0.0821
  924SOL    HW1 2771   2.844   1.664   0.111  3.7123 -1.5911  0.3342
  924SOL    HW2 2772   3.010   1.611   0.131 -2.2033  1.7403  0.4384
  925SOL     OW 2773   3.104   2.893   1.581  0.5222 -0.0581 -0.1538
  925SOL    HW1 2774   3.029   2.936   1.634  3.8299  2.8034 -2.9686
  925SOL    HW2 2775   3.080   2.797   1.538 -1.8719 -0.1582  1.2557
  926SOL     OW 2776   1.254   2.744   1.327  0.3270  0.5848  0.0763
  926SOL    HW1 2777   1.237   2.752   1.222 -2.3999  2.3759 -1.8383
  926SOL    HW2 2778   1.335   2.800   1.361  2.6518 -0.1522  2.7819
  927SOL     OW 2779   0.365   2.582   1.784 -0.3444  0.3247 -0.1457
  927SOL    HW1 2780   0.331   2.531   1.702 -0.6875  0.8660  1.0791
  927SOL    HW2 2781   0.368   2.684   1.765  0.1792  0.4752  1.3425
  928SOL     OW 2782   1.674   2.069   2.209 -0.0411 -0.2683  0.8027
  928SOL    HW1 2783   1.703   2.159   2.162  2.2379  1.2581 -2.3508
  928SOL    HW2 2784   1.573   2.056   2.189  0.2375  0.8298 -1.0443
  929SOL     OW 2785   2.434   2.512   2.909  0.2917 -0.3491 -0.4426
  929SOL    HW1 2786   2.331   2.486   2.903 -1.7163  1.2650 -4.1007
  929SOL    HW2 2787   2.483   2.493   2.821 -2.6775  3.1270  3.1670
  930SOL     OW 2788   2.125   2.079   1.070 -0.4673  0.4705  0.5334
  930SOL    HW1 2789   2.161   2.021   1.151  0.3123  1.3168 -0.2000
  930SOL    HW2 2790   2.117   2.179   1.099  0.9850  2.3853  1.2945
  931SOL     OW 2791   0.473   1.597   2.634 -0.0684 -0.1124 -0.2366
  931SOL    HW1 2792   0.488   1.651   2.723 -2.1958  1.8016  1.7542
  931SOL    HW2 2793   0.569   1.574   2.597  2.3811  1.3682 -0.1425
  932SOL     OW 2794   0.357   0.026   3.087 -0.5327  0.5534  0.0539
  932SOL    HW1 2795   0.400   0.118   3.065  2.5387  1.3464  0.7964
  932SOL    HW2 2796   0.396  -0.051   3.021  0.7353 -3.1014  0.5087
  933SOL     OW 2797   0.999   0.836   2.992  0.4765 -0.3068  0.4564
  933SOL    HW1 2798   0.990   0.911   3.068  0.1432  3.3156 -1.6915
  933SOL    HW2 2799   0.958   0.747   3.020 -0.8167  1.0883 -0.4788
  934SOL     OW 2800   0.882   2.956   2.614  0.4125  0.7145  0.8334
  934SOL    HW1 2801   0.860   2.891   2.537  0.4961 -0.6142 -0.6590
  934SOL    HW2 2802   0.932   2.905   2.684 -0.7053  3.3911 -2.3124
  935SOL     OW 2803   0.011   0.631   0.754 -0.7592 -0.3334  0.4901
  935SOL    HW1 2804  -0.033   0.546   0.703 -1.1064  0.2371  0.4163
  935SOL    HW2 2805  -0.050   0.670   0.825  1.0781 -3.3446 -0.8352
  936SOL     OW 2806   1.112   2.882   0.089  0.0731 -0.2068  0.0438
  936SOL    HW1 2807   1.208   2.894   0.049  0.5957 -0.5683  0.8559
  936SOL    HW2 2808   1.110   2.806   0.160 -1.1471  0.5206  0.6459
  937SOL     OW 2809   1.995   2.605   2.091 -0.6752 -0.0350 -0.2136
  937SOL    HW1 2810   1.951   2.634   2.186 -3.0265 -0.6365  0.3234
  937SOL    HW2 2811   1.976   2.672   2.017  0.4519 -1.0168  0.3099
  938SOL     OW 2812   2.756   2.120   1.535 -0.7438  0.2196 -0.1167
  938SOL    HW1 2813   2.707   2.207   1.576 -0.2189 -1.2701  3.1816
  938SOL    HW2 2814   2.837   2.090   1.597 -2.2257  2.2438 -0.5008
  939SOL     OW 2815   2.835   1.206   2.485  0.1155 -0.4264  0.3170
  939SOL    HW1 2816   2.911   1.171   2.421 -0.3206  2.6427 -2.0679
  939SOL    HW2 2817   2.836   1.160   2.579 -2.2853 -0.3787 -1.3095
  940SOL     OW 2818   1.058   0.428   2.741 -0.2274  0.3082  0.4003
  940SOL    HW1 2819   1.131   0.358   2.724  0.1927  1.6279 -0.4133
  940SOL    HW2 2820   0.985   0.423   2.663 -1.0631  0.7399 -1.9610
  941SOL     OW 2821   0.084   2.814   2.283 -0.0340  0.1177 -0.1661
  941SOL    HW1 2822   0.087   2.716   2.242  2.1208 -0.6921 -2.8269
  941SOL    HW2 2823   0.170   2.843   2.335 -0.5246 -0.4936  0.7035
  942SOL     OW 2824   0.137   0.045   2.431 -0.3752  0.4350  0.3808
  942SOL    HW1 2825   0.150   0.052   2.534  1.3570 -1.2755 -1.0720
  942SOL    HW2 2826   0.160   0.131   2.380 -2.9435 -1.7642  0.4279
  943SOL     OW 2827   2.131   1.690   2.359  0.0045  0.1777 -0.7175
  943SOL    HW1 2828   2.096   1.668   2.266  0.6279  1.3326  0.1208
  943SOL    HW2 2829   2.139   1.602   2.418  2.7892 -1.6462  3.3425
  944SOL     OW 2830   2.193   2.305   1.569  0.3786 -0.4110  0.0275
  944SOL    HW1 2831   2.236   2.314   1.662  0.1316  1.5016  1.7564
  944SOL    HW2 2832   2.143   2.217   1.550  0.4144  1.7612 -0.4418
  945SOL     OW 2833   0.659   1.648   0.173  0.3856  0.5559  0.3877
  945SOL    HW1 2834   0.594   1.624   0.095  2.3553  0.2677  0.4991
  945SOL    HW2 2835   0.708   1.565   0.215  0.0555 -0.3274  1.9628
  946SOL     OW 2836   0.374   0.992   2.583 -0.2883 -0.0028 -0.0682
  946SOL    HW1 2837   0.303   0.956   2.519  0.8241  0.9061  0.9950
  946SOL    HW2 2838   0.411   1.085   2.550  0.4134 -1.5848  3.6306
  947SOL     OW 2839   1.473   0.539   3.031 -0.4207 -0.0395 -0.0822
  947SOL    HW1 2840   1.465   0.605   2.948 -1.4650  0.6138 -1.6863
  947SOL    HW2 2841   1.380   0.498   3.060 -0.3434 -0.3534  2.1175
  948SOL     OW 2842   1.952   2.939   2.148  0.5656 -0.2138  0.6853
  948SOL    HW1 2843   1.948   2.891   2.053 -0.8056  0.3425 -3.3708
  948SOL    HW2 2844   1.916   2.881   2.226  1.4281  0.4062  1.3234
  949SOL     OW 2845   0.581   2.507   0.440 -0.3720 -0.5798  0.1702
  949SOL    HW1 2846   0.568   2.613   0.444  0.4791 -0.0983  2.3595
  949SOL    HW2 2847   0.620   2.475   0.529  3.3026 -0.1766 -4.3730
  950SOL     OW 2848   0.227   2.235   2.957 -0.0545  0.5768 -0.1198
  950SOL    HW1 2849   0.228   2.330   2.921  1.3930 -1.0210  2.2621
  950SOL    HW2 2850   0.168   2.168   2.905 -3.4255 -1.5257 -3.1241
  951SOL     OW 2851   1.259   2.678   2.796  0.1127 -0.2481 -0.1090
  951SOL    HW1 2852   1.331   2.614   2.848  0.1131 -0.2292  1.4962
  951SOL    HW2 2853   1.296   2.720   2.711  1.4684  1.1872  2.2797
  952SOL     OW 2854   0.027   1.640   0.406  0.0322  0.1514 -0.2843
  952SOL    HW1 2855   0.087   1.723   0.395  2.7204 -0.8307  4.0955
  952SOL    HW2 2856   0.067   1.577   0.472 -1.2192  2.0394 -0.4743
  953SOL     OW 2857   2.474   1.726   0.312  0.2422 -0.0260 -0.1662
  953SOL    HW1 2858   2.447   1.623   0.331  0.1315 -2.1555  0.9709
  953SOL    HW2 2859   2.465   1.751   0.215  0.3336 -1.6398 -0.8081
  954SOL     OW 2860   2.213   0.514   0.922 -0.2718 -0.1414  0.3468
  954SOL    HW1 2861   2.240   0.499   0.824 -2.3932  1.0258 -1.4226
  954SOL    HW2 2862   2.289   0.530   0.993  0.8707  2.2193  2.1599
  955SOL     OW 2863   0.166   2.619   1.382  1.0033 -0.3651  0.0291
  955SOL    HW1 2864   0.062   2.630   1.380  0.2657  0.4712 -1.6509
  955SOL    HW2 2865   0.216   2.701   1.351 -1.7231  0.7243  1.4298
  956SOL     OW 2866   2.796   2.489   2.540 -0.2840  0.7324  0.3998
  956SOL    HW1 2867   2.816   2.386   2.531  0.2074  1.8051 -1.3743
  956SOL    HW2 2868   2.840   2.544   2.466  0.3426 -1.3451 -0.5085
  957SOL     OW 2869   1.640   2.047   2.742 -0.3036  0.2638 -0.6246
  957SOL    HW1 2870   1.643   1.968   2.807  1.3321  0.2416  0.5000
  957SOL    HW2 2871   1.680   2.022   2.650 -2.4125  3.6470  1.0789
  958SOL     OW 2872   2.603   2.253   3.028  0.0245  0.4919  0.2115
  958SOL    HW1 2873   2.503   2.270   3.032  0.4009  2.6223  0.8885
  958SOL    HW2 2874   2.637   2.210   3.122  0.9103  0.9928  1.4178
  959SOL     OW 2875   0.381   2.812   0.119  0.1192  0.0268  0.3292
  959SOL    HW1 2876   0.290   2.838   0.153  2.6832 -1.7026  0.9709
  959SOL    HW2 2877   0.398   2.707   0.126 -1.0287 -0.8867  0.8165
  960SOL     OW 2878   1.918   0.525   1.914 -0.4196 -0.1923  0.2430
  960SOL    HW1 2879   1.860   0.604   1.890  2.4170 -0.0170 -1.1142
  960SOL    HW2 2880   1.930   0.517   2.020  0.8714  1.0068  2.1166
  961SOL     OW 2881   2.505   1.896   1.064 -0.2534 -0.2440  0.0638
  961SOL    HW1 2882   2.536   1.988   1.022 -1.0023 -0.1927 -1.7712
  961SOL    HW2 2883   2.500   1.895   1.167  2.1388  3.5790  0.2700
  962SOL     OW 2884   1.331   0.915   0.040 -0.0380  0.0342 -0.2752
  962SOL    HW1 2885   1.285   0.955  -0.048  0.1878 -1.3228 -1.5457
  962SOL    HW2 2886   1.298   0.967   0.123 -0.9482  1.0683  2.8734
  963SOL     OW 2887   2.291   2.581   1.819  0.9193 -0.2675  0.3320
  963SOL    HW1 2888   2.270   2.478   1.835 -1.0081 -0.4829  0.5995
  963SOL    HW2 2889   2.341   2.620   1.900  0.6216  0.7250  0.8202
  964SOL     OW 2890   2.341   0.399   1.665  0.4549  0.3026  0.3830
  964SOL    HW1 2891   2.433   0.392   1.703  0.6686 -1.4656  1.6967
  964SOL    HW2 2892   2.345   0.393   1.564  0.3186  0.8860  1.2026
  965SOL     OW 2893   2.642   3.010   0.223 -0.6925 -0.8919 -0.2620
  965SOL    HW1 2894   2.687   2.993   0.132  0.3111  0.0981  1.0201
  965SOL    HW2 2895   2.558   3.068   0.221  0.0431 -0.1861  0.8031
  966SOL     OW 2896   2.495   2.491   2.244 -0.3802 -0.4612 -0.1517
  966SOL    HW1 2897   2.514   2.580   2.193  0.3177 -0.3944 -0.4186
  966SOL    HW2 2898   2.396   2.473   2.253  1.9992  0.2302 -1.0521
  967SOL     OW 2899   2.738   2.844   2.498 -0.0176 -1.0715 -0.4057
  967SOL    HW1 2900   2.763   2.798   2.406 -0.7635 -0.5174 -2.6698
  967SOL    HW2 2901   2.819   2.901   2.537  0.8381 -1.7577  0.2609
  968SOL     OW 2902   1.958   1.069   2.586  0.9304  0.0270  0.3839
  968SOL    HW1 2903   1.869   1.119   2.560 -0.8121 -0.9206 -3.0168
  968SOL    HW2 2904   1.984   0.994   2.519 -2.0243 -1.8693 -1.7023
  969SOL     OW 2905   2.704   2.582   1.057  1.1793 -0.2957 -0.0593
  969SOL    HW1 2906   2.696   2.680   1.019 -2.4876 -1.8070 -0.4976
  969SOL    HW2 2907   2.718   2.517   0.980  1.3398  0.6136 -0.3446
  970SOL     OW 2908   1.075   2.107   1.870 -0.0712 -0.1902 -0.2615
  970SOL    HW1 2909   1.087   2.015   1.917  1.4598  0.5451  0.4156
  970SOL    HW2 2910   1.017   2.099   1.783  0.6867 -0.5905 -2.9054
  971SOL     OW 2911   2.922   2.184   1.961 -0.1606  0.2255 -0.4709
  971SOL    HW1 2912   2.916   2.275   2.010  2.0889  0.3376 -0.0509
  971SOL    HW2 2913   3.013   2.174   1.913 -2.4835 -0.5624 -0.8688
  972SOL     OW 2914   1.878   2.449   0.259  0.2702  0.1187  0.0581
  972SOL    HW1 2915   1.878   2.343   0.231 -1.4838 -4.0731 -0.7775
  972SOL    HW2 2916   1.905   2.453   0.357  0.7672 -0.4522 -2.7299
  973SOL     OW 2917   1.136   0.890   1.889  0.1153  0.5984 -0.0265
  973SOL    HW1 2918   1.083   0.806   1.912  3.1713 -0.7724 -2.5009
  973SOL    HW2 2919   1.075   0.961   1.840  1.3410  1.7733 -1.1513
  974SOL     OW 2920   1.572   0.542   1.973  0.5649  0.1199  0.1452
  974SOL    HW1 2921   1.635   0.588   1.904  0.0661  1.0723 -0.9334
  974SOL    HW2 2922   1.485   0.599   1.979  0.3493  0.0167 -1.6140
  975SOL     OW 2923   2.370   3.011   0.037 -0.4422  0.1185 -0.1027
  975SOL    HW1 2924   2.306   2.932   0.022 -0.9661  0.4217  1.5271
  975SOL    HW2 2925   2.426   3.034  -0.046 -2.2233  0.3271  2.7122
  976SOL     OW 2926   1.922   2.738   2.320 -0.1889 -0.4225 -0.2135
  976SOL    HW1 2927   1.833   2.702   2.358 -1.8263  0.4503 -2.5579
  976SOL    HW2 2928   1.996   2.750   2.390  0.2650  2.2302  0.8574
  977SOL     OW 2929   0.495   0.676   0.971 -0.3234  0.4580  0.4086
  977SOL    HW1 2930   0.422   0.687   0.897 -0.5297  0.0783 -1.7477
  977SOL    HW2 2931   0.564   0.759   0.972  1.1059  2.6790  0.3732
   3.10000   3.10000   3.10000
