1000 SPC/Fw water molecules t=   1.99000 step= 1990
 2931
    1SOL     OW    1   2.507   0.268   2.694 -0.5607 -0.5081 -0.6145
    1SOL    HW1    2   2.544   0.175   2.671 -0.0493  3.4876 -2.2825
    1SOL    HW2    3   2.560   0.323   2.769 -1.3464  1.2547 -2.5640
    2SOL     OW    4   2.799   2.762   1.267 -0.2832 -0.6166  0.2151
    2SOL    HW1    5   2.871   2.828   1.238 -0.1941  0.7657  0.2255
    2SOL    HW2    6   2.802   2.751   1.369  0.4070 -0.5941  1.6832
    3SOL     OW    7   2.792   2.443   0.472  0.5693  0.4197  0.0005
    3SOL    HW1    8   2.696   2.422   0.441 -0.5919 -4.0235 -0.5831
    3SOL    HW2    9   2.803   2.523   0.539  0.0410 -0.3781  3.0640
    4SOL     OW   10   1.193   1.546   2.387  0.1755  0.1595 -0.2934
    4SOL    HW1   11   1.149   1.590   2.298 -0.7537  0.6543  0.4713
    4SOL    HW2   12   1.180   1.440   2.401  1.9825 -1.0766 -1.6106
    5SOL     OW   13   1.161   1.590   2.910  0.4534  0.2197 -0.0409
    5SOL    HW1   14   1.186   1.690   2.939 -0.3694 -0.5616  0.7940
    5SOL    HW2   15   1.066   1.578   2.861  0.0689  0.1095  0.5389
    6SOL     OW   16   0.161   1.879   0.011 -0.7310  0.6112 -0.5295
    6SOL    HW1   17   0.079   1.899   0.063 -2.0898 -0.5180 -0.1566
    6SOL    HW2   18   0.217   1.808   0.059  0.5772  0.7519  2.3649
    7SOL     OW   19   2.563   0.855   1.065 -0.1768 -0.2940  0.4024
    7SOL    HW1   20   2.471   0.829   1.087  1.5333 -0.7136  1.9373
    7SOL    HW2   21   2.614   0.782   1.012  1.3965  1.9032 -1.7175
    8SOL     OW   22   0.470   0.737   1.480  0.0456  0.1349  0.0458
    8SOL    HW1   23   0.566   0.746   1.516  0.1455  2.5981  1.5141
    8SOL    HW2   24   0.464   0.749   1.376 -1.2926  2.0428  0.4814
    9SOL     OW   25   1.123   0.848   2.313 -0.0834  0.4412  0.1119
    9SOL    HW1   26   1.145   0.900   2.226 -0.4139  5.1236 -3.1816
    9SOL    HW2   27   1.131   0.746   2.304  1.2653 -0.3909  3.0624
   10SOL     OW   28   0.596   1.516   1.236  0.3162  0.0943 -0.0706
   10SOL    HW1   29   0.498   1.507   1.196 -1.0503 -3.4037  0.7774
   10SOL    HW2   30   0.629   1.610   1.260 -0.8550 -1.5701 -2.8048
   11SOL     OW   31   2.344   2.821   0.944  0.4177  0.2569  0.1133
   11SOL    HW1   32   2.274   2.824   1.021  1.9453 -0.2066 -1.1651
   11SOL    HW2   33   2.441   2.854   0.977  2.1489  3.3290  3.1348
   12SOL     OW   34   1.432   0.825   0.550  0.1948  0.1589  0.1013
   12SOL    HW1   35   1.335   0.851   0.523 -0.1349 -0.9889  0.0245
   12SOL    HW2   36   1.468   0.769   0.468 -0.4706 -0.7300  0.4750
   13SOL     OW   37   2.442   0.693   1.815 -0.1758  0.5031  0.2882
   13SOL    HW1   38   2.355   0.688   1.865 -0.1035  1.3364 -1.1377
   13SOL    HW2   39   2.440   0.651   1.721  2.3661 -1.8607 -1.9653
   14SOL     OW   40   1.973   3.033   0.685  0.2226 -0.3974  0.1013
   14SOL    HW1   41   1.884   3.080   0.689 -1.2375  0.5785  1.6938
   14SOL    HW2   42   1.994   2.986   0.773  0.5557 -0.7038 -3.7260
   15SOL     OW   43   1.856   2.075   2.637  0.1298 -0.0152 -0.2990
   15SOL    HW1   44   1.810   2.063   2.729  1.5982 -1.0922  0.2460
   15SOL    HW2   45   1.874   1.993   2.585  2.1126  1.5918  0.0343
   16SOL     OW   46   1.540   1.716   2.974  0.3389 -0.4665 -0.0848
   16SOL    HW1   47   1.535   1.627   3.024  1.6000  0.3540  2.1207
   16SOL    HW2   48   1.611   1.785   3.008  0.4546 -2.5051 -0.3891
   17SOL     OW   49   0.057   0.467   0.176 -0.1969 -0.2580  0.0420
   17SOL    HW1   50   0.156   0.485   0.150  1.1084  4.1813  0.9893
   17SOL    HW2   51  -0.015   0.512   0.116 -0.0053  3.1294  0.7610
   18SOL     OW   52   0.888   2.837   2.232  0.2453 -0.2113 -0.2018
   18SOL    HW1   53   0.819   2.765   2.264  0.0739  1.3437 -0.7701
   18SOL    HW2   54   0.946   2.799   2.157  0.5170  0.2972  0.7592
   19SOL     OW   55   0.532   0.908   1.918 -0.4330 -1.0584 -0.0627
   19SOL    HW1   56   0.565   0.849   1.995 -0.7865 -0.8831  1.0518
   19SOL    HW2   57   0.600   0.974   1.875  1.8596  0.5012  0.4562
   20SOL     OW   58   0.243   2.735   0.760 -0.1878 -0.2475 -0.4936
   20SOL    HW1   59   0.165   2.786   0.722  3.5853 -0.5981  0.6193
   20SOL    HW2   60   0.310   2.703   0.681  0.6181  2.4285 -2.1536
   21SOL     OW   61   2.838   0.297   1.989  0.4104  0.3606  0.6281
   21SOL    HW1   62   2.752   0.239   1.968 -0.8493 -0.9985 -3.4648
   21SOL    HW2   63   2.905   0.247   2.049 -0.3976 -0.6368  2.2455
   22SOL     OW   64   2.416   0.229   0.064 -0.0447  0.0544  0.3893
   22SOL    HW1   65   2.447   0.146   0.005 -0.7685 -2.6137 -3.2436
   22SOL    HW2   66   2.328   0.279   0.029  0.0485 -0.8752 -0.9014
   23SOL     OW   67   2.831   0.508   0.674  0.0034 -0.4920  0.7365
   23SOL    HW1   68   2.893   0.425   0.644  3.1625 -1.3142 -0.8681
   23SOL    HW2   69   2.855   0.599   0.623 -1.5090  2.5516 -1.5277
   24SOL     OW   70   0.235   1.867   0.421 -0.8002 -0.7841  0.0957
   24SOL    HW1   71   0.207   1.969   0.407 -1.4796  0.1882 -1.5375
   24SOL    HW2   72   0.327   1.840   0.384 -0.8382  0.1367  0.9014
   25SOL     OW   73   2.272   0.570   0.283 -0.4567 -0.3205  0.7096
   25SOL    HW1   74   2.257   0.561   0.181 -2.5562  1.6113 -0.2652
   25SOL    HW2   75   2.345   0.505   0.320  2.0077 -0.6846  1.3396
   26SOL     OW   76   2.445   2.175   2.148  0.0946  0.4145 -0.0607
   26SOL    HW1   77   2.514   2.249   2.178  2.0339  1.7781  0.7542
   26SOL    HW2   78   2.484   2.102   2.088  2.7288 -0.8984  0.6401
   27SOL     OW   79   0.637   3.038   0.121  0.4973 -0.0138 -0.2494
   27SOL    HW1   80   0.734   3.074   0.093 -0.9621  0.1362 -0.9078
   27SOL    HW2   81   0.570   3.000   0.053  0.5444  0.2257  3.1322
   28SOL     OW   82   1.578   0.179   0.333 -0.2237  0.2922 -0.1450
   28SOL    HW1   83   1.633   0.147   0.244  0.7597  0.3056 -0.6592
   28SOL    HW2   84   1.639   0.240   0.389  0.1221 -1.3180 -1.7224
   29SOL     OW   85   2.003   0.544   0.327  0.1787 -0.2310  0.4803
   29SOL    HW1   86   1.968   0.631   0.376  0.5718  0.3018 -0.2483
   29SOL    HW2   87   2.099   0.551   0.290 -3.1464  2.4023  0.1365
   30SOL     OW   88   0.178   2.071   0.922  0.2969 -0.5577  0.6014
   30SOL    HW1   89   0.166   2.034   0.826 -1.0364 -1.4537  0.5576
   30SOL    HW2   90   0.142   2.168   0.938 -2.7692  0.0561  0.8976
   31SOL     OW   91   2.096   0.092   2.379 -0.0429 -0.3058  0.1601
   31SOL    HW1   92   2.039   0.062   2.457  3.4672 -1.2323 -0.2183
   31SOL    HW2   93   2.079   0.042   2.291 -1.1775  0.1782  0.2107
   32SOL     OW   94  -0.001   3.076   0.230 -0.1786  0.0553  0.1757
   32SOL    HW1   95  -0.048   2.988   0.244 -0.3754 -0.5908  0.8956
   32SOL    HW2   96   0.090   3.065   0.178  1.5521 -0.1261  2.1349
   33SOL     OW   97   0.871   0.226   0.670  0.0420 -0.0858  0.2622
   33SOL    HW1   98   0.881   0.169   0.585  0.3115 -0.7214 -0.9298
   33SOL    HW2   99   0.955   0.284   0.685 -0.1291 -1.0734  0.6822
   34SOL     OW  100   0.374   2.660   0.996  0.6141 -0.0616  0.1403
   34SOL    HW1  101   0.321   2.675   0.910  0.7584 -0.5016  0.7543
   34SOL    HW2  102   0.464   2.710   1.001 -0.8608 -0.1072  4.5211
   35SOL     OW  103   0.130   0.218   1.931  0.2506 -0.0310  0.5217
   35SOL    HW1  104   0.146   0.113   1.933  1.3264 -1.5311 -3.6141
   35SOL    HW2  105   0.078   0.240   1.845  3.8039 -1.5340 -0.7486
   36SOL     OW  106   1.790   1.282   1.482 -0.9085  0.8086 -0.3942
   36SOL    HW1  107   1.883   1.242   1.506 -0.2981  0.5228 -0.3525
   36SOL    HW2  108   1.791   1.340   1.393  0.7326  2.8539  1.3544
   37SOL     OW  109   1.178   0.215   0.982  0.4417 -0.4621 -0.4386
   37SOL    HW1  110   1.185   0.319   0.990 -1.1788 -1.6114  2.0545
   37SOL    HW2  111   1.244   0.173   0.913  3.3478 -1.3769 -0.4443
   38SOL     OW  112   1.127   2.797   2.474 -0.2023 -0.1983  0.1354
   38SOL    HW1  113   1.035   2.748   2.473 -2.5245  1.0206  1.1395
   38SOL    HW2  114   1.122   2.888   2.422  0.7445  1.0122  2.3542
   39SOL     OW  115   2.497   1.440   3.070 -0.4779  0.2418  0.6391
   39SOL    HW1  116   2.519   1.345   3.040  0.4564  0.4996  1.7154
   39SOL    HW2  117   2.419   1.436   3.138 -0.1883  2.2362  3.4902
   40SOL     OW  118   2.027   2.519   2.597 -0.2461  0.5662  0.6396
   40SOL    HW1  119   1.978   2.610   2.600 -1.1555 -3.6022  1.9005
   40SOL    HW2  120   1.967   2.449   2.554 -2.5683  1.8533 -0.6100
   41SOL     OW  121   3.014   0.708   2.810 -0.5801 -0.2676 -0.0650
   41SOL    HW1  122   3.007   0.801   2.858 -1.6532  1.0241 -1.5904
   41SOL    HW2  123   2.922   0.675   2.776  0.8180  1.7450  0.2904
   42SOL     OW  124   1.791   1.732   0.442  0.3083  0.4740 -0.6534
   42SOL    HW1  125   1.726   1.653   0.433  0.7643  1.0058 -1.3173
   42SOL    HW2  126   1.806   1.786   0.355  0.3123  1.6944  1.0433
   43SOL     OW  127   0.438   1.844   1.143 -0.0160  0.9815  0.1327
   43SOL    HW1  128   0.374   1.923   1.132  2.3908 -0.4711  4.1914
   43SOL    HW2  129   0.392   1.780   1.212  0.1182  1.1455 -0.3424
   44SOL     OW  130   1.734   2.398   2.972  0.5740 -0.0927 -0.2070
   44SOL    HW1  131   1.641   2.433   2.999  1.0689  1.3417  2.1940
   44SOL    HW2  132   1.767   2.433   2.883 -1.4969 -0.3911  0.8616
   45SOL     OW  133   0.353   1.939   2.651 -0.2174 -0.5454  0.1045
   45SOL    HW1  134   0.299   1.952   2.565  0.8381  1.4545 -2.4598
   45SOL    HW2  135   0.424   1.864   2.638  0.8986  1.8264  2.3652
   46SOL     OW  136   1.277   0.755   0.236 -0.2714  0.2249  0.9515
   46SOL    HW1  137   1.308   0.826   0.166  1.6631 -0.8791 -1.4907
   46SOL    HW2  138   1.226   0.676   0.188 -2.1779 -3.1139 -0.3531
   47SOL     OW  139   0.178   2.350   1.618  0.0856 -0.6296 -0.0917
   47SOL    HW1  140   0.132   2.263   1.655 -0.4767 -0.5233  1.5430
   47SOL    HW2  141   0.186   2.356   1.515 -0.2253  1.0027  1.7781
   48SOL     OW  142   2.669   0.659   0.199  0.3784 -0.8423  0.2264
   48SOL    HW1  143   2.670   0.635   0.300  1.5334 -0.3349  0.0231
   48SOL    HW2  144   2.751   0.714   0.169  0.0421 -0.5083  0.8936
   49SOL     OW  145   0.353   0.838   1.723  0.5840 -0.2181  0.4411
   49SOL    HW1  146   0.431   0.872   1.783 -1.2023  0.7392 -0.0564
   49SOL    HW2  147   0.392   0.777   1.649  0.9694  0.7244 -0.5722
   50SOL     OW  148   1.698   1.081   0.372  0.3910  0.4061  0.2723
   50SOL    HW1  149   1.721   0.983   0.335 -1.0289 -0.2069  2.1808
   50SOL    HW2  150   1.624   1.076   0.447 -2.1234  0.0394 -0.9491
   51SOL     OW  151   2.892   1.734   0.360 -0.3744  0.5924 -0.0540
   51SOL    HW1  152   2.881   1.721   0.260 -2.8731 -0.4713  0.7426
   51SOL    HW2  153   2.994   1.720   0.386  2.3278  1.4150  0.0158
   52SOL     OW  154   0.798   2.142   0.573 -0.3882 -0.7449  0.2186
   52SOL    HW1  155   0.717   2.151   0.509 -0.7232 -1.9728  1.8626
   52SOL    HW2  156   0.810   2.047   0.619 -0.6667 -0.1067  0.6823
   53SOL     OW  157   0.308   0.516   1.535 -0.3689 -0.2705  0.8226
   53SOL    HW1  158   0.375   0.584   1.491  1.7457  1.3616  1.7744
   53SOL    HW2  159   0.209   0.531   1.502  0.3428  1.2792 -3.0494
   54SOL     OW  160   1.773   0.441   3.087 -0.3093  0.2611  0.2511
   54SOL    HW1  161   1.840   0.383   3.141  0.9205 -0.6563  0.0275
   54SOL    HW2  162   1.681   0.463   3.136 -0.6611  1.5751  0.1163
   55SOL     OW  163   0.705   2.880   0.585 -0.3783 -0.2413 -0.9578
   55SOL    HW1  164   0.658   2.969   0.595 -2.2578 -2.9475 -0.2805
   55SOL    HW2  165   0.805   2.876   0.598 -1.3643  0.3395  1.8261
   56SOL     OW  166   0.541   1.611   3.071  0.3545 -0.7424  0.2606
   56SOL    HW1  167   0.447   1.656   3.097  0.1850  2.1191  2.0878
   56SOL    HW2  168   0.537   1.516   3.028  2.9388  0.6131 -2.3027
   57SOL     OW  169   1.687   2.472   2.372 -0.0286  0.2120 -0.0307
   57SOL    HW1  170   1.758   2.397   2.383 -2.5343 -0.3516 -0.3566
   57SOL    HW2  171   1.607   2.453   2.438 -0.3684  1.9947  0.1986
   58SOL     OW  172   0.667   0.174   1.051 -0.4302  0.3322 -0.2825
   58SOL    HW1  173   0.573   0.177   1.094 -1.1209  3.2890 -1.1664
   58SOL    HW2  174   0.707   0.076   1.037  0.7055  1.9109 -1.1179
   59SOL     OW  175   0.461   2.396   2.583  0.3716  0.2068  0.2245
   59SOL    HW1  176   0.446   2.296   2.607  1.1740 -1.8262 -0.8492
   59SOL    HW2  177   0.558   2.426   2.607  0.1374 -1.8017 -0.9762
   60SOL     OW  178   2.330   2.077   2.387 -0.0143  0.2675 -0.0351
   60SOL    HW1  179   2.390   2.104   2.305 -0.4149  4.7123 -0.0662
   60SOL    HW2  180   2.355   2.128   2.478 -2.6335  2.9526  2.8548
   61SOL     OW  181   1.164   0.665   0.504 -0.6759  0.4492 -0.0393
   61SOL    HW1  182   1.060   0.678   0.507 -1.8366  0.2076 -2.7318
   61SOL    HW2  183   1.208   0.696   0.416 -1.1926 -1.8430  1.5314
   62SOL     OW  184   2.746   1.716   2.691 -0.5117 -0.0098  0.0417
   62SOL    HW1  185   2.677   1.643   2.682  0.7882 -0.5283  3.2625
   62SOL    HW2  186   2.833   1.692   2.747  2.7928  1.6560 -0.3959
   63SOL     OW  187   0.491   0.807   0.173 -0.2802  0.2650  0.0941
   63SOL    HW1  188   0.548   0.883   0.129 -2.4684 -1.1659  1.7184
   63SOL    HW2  189   0.518   0.797   0.268  1.1375  1.7799 -0.0190
   64SOL     OW  190   3.069   0.606   2.387 -0.0156  0.1901  0.0498
   64SOL    HW1  191   2.987   0.601   2.454 -1.0088  1.6716  1.7496
   64SOL    HW2  192   3.045   0.656   2.300 -1.8016  1.6499 -1.2581
   65SOL     OW  193   0.130   1.429   0.641  0.4064 -0.3576 -0.2574
   65SOL    HW1  194   0.101   1.486   0.720  2.1869 -2.0693  0.3488
   65SOL    HW2  195   0.216   1.459   0.598 -0.3871 -1.5220  2.1511
   66SOL     OW  196   2.607   0.301   0.523  0.1267 -0.5551  0.5181
   66SOL    HW1  197   2.704   0.280   0.529  1.2844 -0.9315  1.6641
   66SOL    HW2  198   2.546   0.241   0.579 -0.9787 -1.2246  0.8280
   67SOL     OW  199   0.591   2.488   1.524 -0.1175 -0.0738 -0.3193
   67SOL    HW1  200   0.683   2.440   1.549  2.4753 -1.1125 -0.9549
   67SOL    HW2  201   0.523   2.417   1.498  2.0625  1.1495  2.3271
   68SOL     OW  202   0.908   0.959   2.523  0.0781 -0.6118 -0.1291
   68SOL    HW1  203   1.001   0.931   2.485 -0.9455 -0.8997  0.4871
   68SOL    HW2  204   0.853   1.000   2.442 -0.0284  0.7571 -1.0549
   69SOL     OW  205   0.690   2.609   2.322 -0.2374  0.4029  0.2535
   69SOL    HW1  206   0.729   2.527   2.266 -0.5675 -1.5251 -1.6933
   69SOL    HW2  207   0.592   2.630   2.287  1.3763  2.9739  1.0064
   70SOL     OW  208   0.521   0.125   2.584 -0.3166 -0.5031 -0.1566
   70SOL    HW1  209   0.444   0.113   2.656 -1.0704 -3.1149  0.1289
   70SOL    HW2  210   0.601   0.064   2.600 -1.2381  0.6844  2.0133
   71SOL     OW  211   1.068   1.807   0.304 -0.5637  0.0797 -0.2784
   71SOL    HW1  212   0.986   1.811   0.366 -0.9720 -0.3037 -2.3410
   71SOL    HW2  213   1.039   1.821   0.206 -0.5044 -0.8575 -0.3971
   72SOL     OW  214   1.814   0.197   2.115  0.0120 -0.3933 -0.7112
   72SOL    HW1  215   1.872   0.282   2.101 -2.7346 -1.1417  3.1114
   72SOL    HW2  216   1.831   0.117   2.046  1.0760 -0.8116 -0.4072
   73SOL     OW  217   2.815   2.181   2.432  0.3547 -0.0877  0.0011
   73SOL    HW1  218   2.807   2.085   2.400  2.3528  0.9416 -0.2978
   73SOL    HW2  219   2.856   2.174   2.529  2.0198  0.5424  0.7421
   74SOL     OW  220   2.677   3.018   2.092 -0.5906  0.0879 -0.7138
   74SOL    HW1  221   2.588   3.025   2.141  0.2065 -0.6232  1.1380
   74SOL    HW2  222   2.758   3.049   2.146  2.0706  1.5802 -1.0690
   75SOL     OW  223   0.900   0.819   1.079 -0.3381  0.6257 -0.2931
   75SOL    HW1  224   0.801   0.844   1.084  1.5077  2.6103  0.9332
   75SOL    HW2  225   0.961   0.852   1.163  0.6172  3.0234  0.9869
   76SOL     OW  226   1.803   1.266   2.576  0.4553  0.0765 -0.2294
   76SOL    HW1  227   1.727   1.221   2.629  2.8456 -0.9621 -2.7097
   76SOL    HW2  228   1.822   1.358   2.615 -0.4265 -3.3433 -0.7252
   77SOL     OW  229   2.907   0.927   1.040  0.2276  0.3259  0.5121
   77SOL    HW1  230   2.851   0.837   1.041 -0.4861 -0.8806 -1.9252
   77SOL    HW2  231   2.989   0.924   1.105 -0.7822 -0.7057  0.9246
   78SOL     OW  232   1.947   1.449   1.295 -0.2217 -0.3820 -0.2879
   78SOL    HW1  233   2.041   1.430   1.255  0.2213 -0.6002 -1.8596
   78SOL    HW2  234   1.878   1.498   1.233 -0.0694  0.4341  2.7855
   79SOL     OW  235   0.628   1.507   0.824 -0.0905 -0.6397 -0.0988
   79SOL    HW1  236   0.535   1.475   0.856  0.5913 -1.6525 -0.2889
   79SOL    HW2  237   0.684   1.423   0.793 -0.2253  2.7290 -2.1159
   80SOL     OW  238   0.717   0.493   1.548 -0.1272  0.5766 -0.9157
   80SOL    HW1  239   0.719   0.531   1.453  2.1351  0.2344 -1.1055
   80SOL    HW2  240   0.694   0.391   1.565  1.6030  0.1271  1.1743
   81SOL     OW  241   1.074   1.303   2.405  0.3304 -0.0808 -0.3279
   81SOL    HW1  242   0.981   1.313   2.441  1.5262 -0.5847  1.8321
   81SOL    HW2  243   1.082   1.227   2.339 -1.5057 -0.2818 -1.2830
   82SOL     OW  244   0.961   2.946   1.675  0.2657 -0.7205 -0.4056
   82SOL    HW1  245   0.985   2.870   1.605 -1.5703  1.3855 -1.6034
   82SOL    HW2  246   0.951   3.039   1.626  0.4837  2.7832 -1.5765
   83SOL     OW  247   2.591   2.356   0.956 -0.8456 -0.1177  0.1104
   83SOL    HW1  248   2.513   2.301   0.924  0.8191  2.2878  0.8306
   83SOL    HW2  249   2.590   2.458   0.927 -0.6860  0.9317  0.5071
   84SOL     OW  250   0.792   3.067   2.331 -0.0371 -0.6657 -0.0399
   84SOL    HW1  251   0.785   3.044   2.437  0.6356  0.0988 -0.0086
   84SOL    HW2  252   0.835   2.987   2.275  2.9102 -1.0798 -0.5718
   85SOL     OW  253   0.243   1.707   1.359  0.1848  0.5285  0.6255
   85SOL    HW1  254   0.205   1.783   1.413  2.4319 -1.1730 -0.9304
   85SOL    HW2  255   0.308   1.656   1.416 -1.7931 -0.7315  0.9679
   86SOL     OW  256   0.498   1.083   1.403  0.7278  0.2518  0.5089
   86SOL    HW1  257   0.437   1.043   1.328 -2.1361  2.8346 -1.1006
   86SOL    HW2  258   0.564   1.013   1.433 -1.2471 -3.3495  1.0020
   87SOL     OW  259   1.558   0.674   0.340 -0.8569  0.1021 -0.0904
   87SOL    HW1  260   1.642   0.716   0.299  1.8553 -3.1559  0.5900
   87SOL    HW2  261   1.471   0.682   0.283 -1.4520  1.1262 -0.9474
   88SOL     OW  262   1.520   1.327   0.297 -0.2728 -0.4460  0.0959
   88SOL    HW1  263   1.574   1.239   0.317  2.1146 -4.2620  2.2587
   88SOL    HW2  264   1.423   1.313   0.289  0.9193  0.4466  2.1065
   89SOL     OW  265   3.052   0.366   0.633 -0.0773 -0.1796 -0.0427
   89SOL    HW1  266   3.138   0.326   0.675 -0.1374  2.1233 -0.1998
   89SOL    HW2  267   2.995   0.299   0.583 -1.4700  0.8136  1.3204
   90SOL     OW  268   0.730   1.599   0.189 -0.3041  0.4951  0.2812
   90SOL    HW1  269   0.825   1.568   0.155 -0.5908 -1.6276  0.6696
   90SOL    HW2  270   0.662   1.613   0.112 -0.0551 -0.8124 -0.1359
   91SOL     OW  271   1.286   1.514   1.668 -0.2784 -0.0533 -0.5264
   91SOL    HW1  272   1.261   1.539   1.768 -0.0922 -0.3760  0.1240
   91SOL    HW2  273   1.379   1.461   1.656 -0.4899 -1.0768  1.5370
   92SOL     OW  274   0.058   0.898   1.156 -0.4139 -0.9422  0.2961
   92SOL    HW1  275   0.117   0.972   1.112  0.1945 -3.4898  0.4053
   92SOL    HW2  276   0.073   0.897   1.263 -1.7110 -2.9394 -2.3257
   93SOL     OW  277   3.030   2.681   0.035 -0.1128 -0.0788  0.0989
   93SOL    HW1  278   3.011   2.655  -0.068 -0.7808  0.9529 -1.4697
   93SOL    HW2  279   3.081   2.603   0.085  1.1990  1.1078  0.0245
   94SOL     OW  280   1.537   1.473   1.587  0.2171  0.4051 -0.8955
   94SOL    HW1  281   1.596   1.393   1.623 -0.7525 -0.1779  1.3644
   94SOL    HW2  282   1.592   1.563   1.567 -0.4246  2.3503  1.8779
   95SOL     OW  283   1.454   2.473   2.909  0.4865  0.0048 -0.4236
   95SOL    HW1  284   1.360   2.471   2.955  0.2598  1.2076  1.5355
   95SOL    HW2  285   1.454   2.405   2.833 -1.4814  0.6694  2.9931
   96SOL     OW  286   0.599   2.138   1.266  0.0198  0.1657  0.2012
   96SOL    HW1  287   0.547   2.101   1.187  1.9456 -0.5577 -0.1528
   96SOL    HW2  288   0.626   2.066   1.338  2.3100  0.4204 -0.6308
   97SOL     OW  289   0.311   1.628   2.424  0.0133  0.5556  0.5177
   97SOL    HW1  290   0.252   1.714   2.424  1.1323  0.7009 -1.1905
   97SOL    HW2  291   0.282   1.562   2.503  0.3829  2.8154  1.6721
   98SOL     OW  292   2.283   1.689   1.176  0.0550  0.0234 -0.0982
   98SOL    HW1  293   2.246   1.592   1.189  0.7747  0.7661  0.1217
   98SOL    HW2  294   2.381   1.700   1.165 -1.7505  0.4208  1.6723
   99SOL     OW  295   2.578   2.112   1.268 -0.3167 -0.4199  0.0691
   99SOL    HW1  296   2.637   2.164   1.339  1.1556  0.6519  1.1326
   99SOL    HW2  297   2.522   2.034   1.318  0.8369  1.2639  1.1133
  100SOL     OW  298   2.336   0.416   2.156  0.3107  0.7076  0.0471
  100SOL    HW1  299   2.278   0.375   2.231 -3.4688  1.6091  0.7927
  100SOL    HW2  300   2.436   0.432   2.180 -0.1797 -1.5851  1.4489
  101SOL     OW  301   0.384   1.465   0.496 -0.0900 -0.2579  1.4242
  101SOL    HW1  302   0.393   1.531   0.574 -2.2276  2.7931 -0.2552
  101SOL    HW2  303   0.463   1.448   0.433 -1.5779 -0.2212  0.6658
  102SOL     OW  304   2.316   1.069   0.847 -0.7082  0.0290  0.2790
  102SOL    HW1  305   2.256   0.987   0.829  2.5766  3.4141 -0.3971
  102SOL    HW2  306   2.369   1.102   0.763  3.1121 -0.4817 -1.2936
  103SOL     OW  307   2.269   0.061   0.350 -0.0910 -0.3215  0.7617
  103SOL    HW1  308   2.311   0.153   0.330 -0.7040 -0.8387  3.4328
  103SOL    HW2  309   2.318   0.011   0.435  0.3582 -2.6275 -1.1233
  104SOL     OW  310   0.055   1.855   2.158  0.0584  0.7831 -0.3145
  104SOL    HW1  311   0.081   1.839   2.061 -0.0814  0.1005 -1.8640
  104SOL    HW2  312  -0.045   1.866   2.176  3.8631  0.2483 -0.8734
  105SOL     OW  313   1.205   2.123   0.807 -0.9114  0.7189  0.1899
  105SOL    HW1  314   1.110   2.107   0.765  1.1394 -0.5979 -2.2326
  105SOL    HW2  315   1.287   2.094   0.748  2.3274  0.9299  2.6781
  106SOL     OW  316   2.133   0.415   1.479 -0.0404  0.2324  0.2318
  106SOL    HW1  317   2.043   0.367   1.452 -0.3718  1.4204 -0.5183
  106SOL    HW2  318   2.132   0.453   1.575 -1.8220 -1.5285 -1.7457
  107SOL     OW  319   1.933   2.937   1.215  0.5729 -0.7103 -0.2555
  107SOL    HW1  320   1.859   2.991   1.263  0.1537 -3.1187  2.9013
  107SOL    HW2  321   1.896   2.848   1.187  0.3308  1.9738  2.3840
  108SOL     OW  322   0.895   2.775   1.099  0.0483 -0.1611  0.4743
  108SOL    HW1  323   0.916   2.694   1.035 -1.3663  0.2904  0.2788
  108SOL    HW2  324   0.963   2.791   1.172 -1.2168 -0.6094  0.0389
  109SOL     OW  325   2.173   0.079   0.775  0.5316  0.3863  0.5657
  109SOL    HW1  326   2.088   0.037   0.727  0.8982 -2.3440  0.9620
  109SOL    HW2  327   2.154   0.115   0.869  0.3261  2.3720 -0.6874
  110SOL     OW  328   0.476   2.791   2.805 -0.4396 -0.6118 -0.0249
  110SOL    HW1  329   0.465   2.792   2.701  0.1003 -2.2348  1.2358
  110SOL    HW2  330   0.510   2.701   2.841 -0.3723 -1.0822 -0.4317
  111SOL     OW  331   1.337   0.565   2.332 -0.1123 -1.1329 -0.3941
  111SOL    HW1  332   1.239   0.580   2.363 -1.9646 -2.4665 -0.1916
  111SOL    HW2  333   1.373   0.470   2.349  0.1740  1.1879  1.3692
  112SOL     OW  334   1.759   0.552   1.487 -0.2013 -0.1977 -0.1869
  112SOL    HW1  335   1.757   0.618   1.398 -0.8679  2.1768 -3.8968
  112SOL    HW2  336   1.663   0.536   1.519  0.8215 -3.6686 -1.1344
  113SOL     OW  337   2.309   1.717   1.769  0.2214  0.5451 -0.2471
  113SOL    HW1  338   2.349   1.628   1.734  1.7662 -2.4421  0.1647
  113SOL    HW2  339   2.311   1.722   1.871  1.0731 -1.0696 -2.4508
  114SOL     OW  340   0.338   0.432   1.173  0.1847 -1.0776  0.0244
  114SOL    HW1  341   0.276   0.515   1.203  0.2283  1.3531 -0.1498
  114SOL    HW2  342   0.388   0.447   1.084 -3.7331  1.0860  0.7527
  115SOL     OW  343   2.717   1.561   1.229 -0.4923 -0.1711 -0.6467
  115SOL    HW1  344   2.702   1.459   1.242 -0.9814 -2.3693  0.0739
  115SOL    HW2  345   2.820   1.581   1.228  0.8773  0.1198  2.3396
  116SOL     OW  346   1.898   0.927   0.696  0.5382  0.0377  0.4046
  116SOL    HW1  347   1.802   0.883   0.690 -2.9643 -0.9935 -2.0404
  116SOL    HW2  348   1.893   1.030   0.712  2.8025  1.6155 -1.1027
  117SOL     OW  349   1.129   0.379   0.561 -0.1155  0.1141 -0.1582
  117SOL    HW1  350   1.129   0.481   0.572 -0.3838  1.8302  3.3602
  117SOL    HW2  351   1.104   0.339   0.468  1.1972 -2.0512 -0.1266
  118SOL     OW  352   1.103   1.226   1.131 -0.2076  0.0999 -0.0831
  118SOL    HW1  353   1.077   1.190   1.224  0.2654 -0.4548  2.9854
  118SOL    HW2  354   1.171   1.305   1.135 -2.5402  0.7583 -0.9862
  119SOL     OW  355   1.888   1.609   2.224 -0.4074 -0.5926  0.1685
  119SOL    HW1  356   1.838   1.691   2.186  0.0421 -0.8109 -0.7286
  119SOL    HW2  357   1.961   1.570   2.157  0.7245 -0.4324  2.4318
  120SOL     OW  358   2.970   2.824   0.280  0.7283  0.1822 -0.2786
  120SOL    HW1  359   2.995   2.786   0.190  3.0496 -1.8484 -0.3637
  120SOL    HW2  360   2.869   2.826   0.304 -0.8095  0.1209 -0.5172
  121SOL     OW  361   1.996   0.837   2.318  0.2278  0.1062 -0.0864
  121SOL    HW1  362   2.062   0.910   2.274 -0.2660  0.3944  1.1425
  121SOL    HW2  363   2.023   0.736   2.300 -1.6196 -1.8418 -0.0083
  122SOL     OW  364   2.565   2.484   1.402 -0.3260  0.1276 -0.0528
  122SOL    HW1  365   2.629   2.486   1.318  3.3902  1.1604  0.0161
  122SOL    HW2  366   2.578   2.399   1.457 -1.6350  1.8909  0.6011
  123SOL     OW  367   1.663   0.166   1.672  0.3086 -0.6526  0.1435
  123SOL    HW1  368   1.689   0.078   1.624  1.4912  2.0067 -0.0869
  123SOL    HW2  369   1.741   0.215   1.714 -1.0244  2.4673 -1.2352
  124SOL     OW  370   3.015   0.427   1.158  0.0467 -0.0150 -0.1244
  124SOL    HW1  371   2.925   0.462   1.187  0.9644 -4.0736 -0.8938
  124SOL    HW2  372   3.070   0.477   1.084 -0.6435 -0.8788 -0.3427
  125SOL     OW  373   0.902   1.936   0.722 -0.3927 -0.4771 -0.3233
  125SOL    HW1  374   0.992   1.897   0.761 -0.3270 -0.6193 -1.5651
  125SOL    HW2  375   0.839   1.982   0.792  3.2770 -0.0096  0.7758
  126SOL     OW  376   1.888   2.308   2.468  0.2156 -0.1782  0.3520
  126SOL    HW1  377   1.969   2.285   2.405  1.0445 -1.2649  1.9510
  126SOL    HW2  378   1.881   2.246   2.546  2.6471  3.1983  1.4013
  127SOL     OW  379   0.970   0.958   0.182 -0.6361 -0.0926  0.1782
  127SOL    HW1  380   0.942   0.996   0.276  0.7395 -1.2733 -0.0143
  127SOL    HW2  381   0.969   0.854   0.183  0.1108 -2.2145  0.5920
  128SOL     OW  382   0.884   0.199   1.419  0.1534  0.2122  0.7873
  128SOL    HW1  383   0.864   0.275   1.349  0.9434 -0.1741 -1.2491
  128SOL    HW2  384   0.829   0.110   1.390 -0.6020 -1.8384  0.3891
  129SOL     OW  385   1.897   0.687   1.929 -0.0018  0.2272  0.1780
  129SOL    HW1  386   1.890   0.676   1.826 -1.9444  2.6870  1.6882
  129SOL    HW2  387   1.943   0.783   1.952 -1.3258  0.8153  0.3767
  130SOL     OW  388   1.392   2.249   1.003  0.1799  0.5644  0.4101
  130SOL    HW1  389   1.321   2.223   0.931  1.4048 -0.3772 -0.6426
  130SOL    HW2  390   1.465   2.306   0.966 -0.2301  0.3879  0.6501
  131SOL     OW  391   2.999   1.385   1.395 -0.4702  0.8455 -0.1884
  131SOL    HW1  392   2.969   1.287   1.398  2.2510  1.5652  1.8700
  131SOL    HW2  393   3.109   1.393   1.387  2.1663 -2.8212 -0.1527
  132SOL     OW  394   2.014   2.426   0.571 -0.3634  0.3643 -0.3768
  132SOL    HW1  395   1.914   2.440   0.557  2.5797 -1.0757 -0.2482
  132SOL    HW2  396   2.030   2.340   0.628 -5.0277  0.1574  2.0165
  133SOL     OW  397   1.711   2.458   2.700 -0.7682  0.3210 -0.2094
  133SOL    HW1  398   1.627   2.422   2.653  0.5805  0.7579  0.3447
  133SOL    HW2  399   1.733   2.554   2.665  1.9033 -1.7798 -0.6643
  134SOL     OW  400   2.593   2.412   1.701  0.1381 -0.2182  0.3236
  134SOL    HW1  401   2.524   2.368   1.763  1.6497 -1.7654 -0.1931
  134SOL    HW2  402   2.631   2.493   1.749 -1.4462 -0.9912  0.4195
  135SOL     OW  403   0.780   1.356   2.674 -0.3086 -0.1930 -0.2318
  135SOL    HW1  404   0.721   1.278   2.702 -1.3744 -2.8648  0.6730
  135SOL    HW2  405   0.767   1.397   2.577 -0.9240  0.0298 -1.0763
  136SOL     OW  406   1.234   2.033   0.388  0.4365  0.0310 -0.3185
  136SOL    HW1  407   1.166   2.107   0.414  2.9269 -1.6039  0.6122
  136SOL    HW2  408   1.194   1.938   0.385 -0.3058  1.3568 -0.2450
  137SOL     OW  409   0.474   1.173   2.285  0.2867  0.3524  0.0892
  137SOL    HW1  410   0.369   1.190   2.272 -1.4255  0.9207 -0.3753
  137SOL    HW2  411   0.513   1.085   2.241  0.5910  0.1350  1.0737
  138SOL     OW  412   2.424   1.529   0.284  0.3499  0.4220 -0.4967
  138SOL    HW1  413   2.358   1.468   0.240  3.2646 -0.0294  1.6385
  138SOL    HW2  414   2.497   1.471   0.331 -0.2358 -1.6936  1.4816
  139SOL     OW  415   1.889   2.695   1.524 -0.0291  0.2703 -0.3365
  139SOL    HW1  416   1.792   2.724   1.504  1.6331  2.3822 -0.4454
  139SOL    HW2  417   1.921   2.622   1.452 -0.9645  0.5452 -1.0780
  140SOL     OW  418   3.089   2.977   2.643  0.2149 -0.1482 -0.5225
  140SOL    HW1  419   3.108   2.883   2.613  0.1661  1.4723  1.1367
  140SOL    HW2  420   3.158   3.048   2.610 -1.5480 -3.3051  1.2492
  141SOL     OW  421   1.236   1.621   1.415  0.3610  0.6385  0.8942
  141SOL    HW1  422   1.159   1.628   1.347 -1.2907  0.5169 -0.1698
  141SOL    HW2  423   1.202   1.602   1.510  1.3210 -0.5709 -1.3381
  142SOL     OW  424   1.594   0.636   2.289  0.7515 -0.3545  0.6972
  142SOL    HW1  425   1.614   0.625   2.186 -0.7264 -0.1291  1.1725
  142SOL    HW2  426   1.491   0.622   2.316 -0.4220 -0.1212  0.9592
  143SOL     OW  427   2.822   0.771   0.570  0.1420  0.2362 -0.9083
  143SOL    HW1  428   2.850   0.807   0.478  0.8674  1.5797  1.7252
  143SOL    HW2  429   2.843   0.837   0.650 -2.5165  0.7118  1.4397
  144SOL     OW  430   2.921   1.110   1.396 -0.2557 -0.5091 -0.4550
  144SOL    HW1  431   2.874   1.098   1.489 -1.7756  0.5098 -0.5292
  144SOL    HW2  432   3.003   1.046   1.382  1.1916  2.8321  1.8807
  145SOL     OW  433   0.962   1.911   0.061  0.2412  0.4377 -0.1987
  145SOL    HW1  434   0.992   1.963  -0.022 -0.1172 -0.1089  0.5006
  145SOL    HW2  435   0.876   1.854   0.045  0.8596  1.3673  1.3589
  146SOL     OW  436   2.444   0.625   1.553  0.0418 -0.2225  0.3019
  146SOL    HW1  437   2.418   0.523   1.525 -3.2766 -0.9169  3.5532
  146SOL    HW2  438   2.366   0.684   1.534 -0.8369 -1.3851 -2.4813
  147SOL     OW  439   1.050   2.500   0.481  0.2915 -0.0764 -0.6840
  147SOL    HW1  440   1.017   2.569   0.413 -1.1541 -0.1160  0.4050
  147SOL    HW2  441   1.151   2.470   0.462  0.5409  1.4625 -0.5688
  148SOL     OW  442   1.545   1.356   0.026  0.5736 -0.8591  0.4177
  148SOL    HW1  443   1.578   1.259   0.019 -2.0385 -0.3364 -0.3904
  148SOL    HW2  444   1.524   1.384   0.126 -1.8827  0.0048  1.7826
  149SOL     OW  445   0.727   1.500   1.947 -0.2464 -0.7092 -0.6146
  149SOL    HW1  446   0.644   1.464   2.000 -2.3234  0.2884 -0.4590
  149SOL    HW2  447   0.727   1.458   1.853  0.2492  1.9695  0.0013
  150SOL     OW  448   3.005   1.198   0.997  0.3193 -0.3517 -0.2723
  150SOL    HW1  449   3.097   1.199   1.048 -1.7375  1.4239 -3.2766
  150SOL    HW2  450   2.950   1.110   1.008 -0.7999 -1.8944 -0.9818
  151SOL     OW  451   0.169   0.864   2.130  0.2070  0.8085  0.4871
  151SOL    HW1  452   0.187   0.957   2.087 -0.5931  1.2615  0.6324
  151SOL    HW2  453   0.216   0.779   2.088 -0.8669 -0.1592  1.7557
  152SOL     OW  454   1.402   1.882   1.076 -0.2608  0.0235 -0.8267
  152SOL    HW1  455   1.464   1.963   1.093  1.4543  0.2823  1.3196
  152SOL    HW2  456   1.301   1.895   1.096 -0.4284  1.3117  0.4534
  153SOL     OW  457   0.097   1.532   0.253  0.4436  0.0462  0.4238
  153SOL    HW1  458   0.073   1.435   0.261  3.1176  1.2848  0.2113
  153SOL    HW2  459   0.098   1.573   0.347 -0.1044  1.4794  0.1040
  154SOL     OW  460   2.268   1.864   2.787  0.1493 -0.6580  0.2074
  154SOL    HW1  461   2.287   1.772   2.835 -2.2540  1.0500 -1.0720
  154SOL    HW2  462   2.349   1.898   2.727 -0.3005 -0.4270  0.5119
  155SOL     OW  463   2.598   1.327   0.373 -0.0116  0.2097  0.0893
  155SOL    HW1  464   2.659   1.382   0.436 -2.1344 -1.4751  0.1000
  155SOL    HW2  465   2.655   1.249   0.332 -0.5688 -1.3961  1.3302
  156SOL     OW  466   2.503   0.808   0.754  0.3096  0.2123 -0.1967
  156SOL    HW1  467   2.402   0.831   0.784 -3.3974  1.2833  0.9570
  156SOL    HW2  468   2.539   0.869   0.677 -0.5444  0.2342 -1.9793
  157SOL     OW  469   1.204   0.014   3.008 -0.2270  0.0357 -0.1806
  157SOL    HW1  470   1.283  -0.010   2.948  0.2036  2.2514  0.1870
  157SOL    HW2  471   1.227   0.101   3.058  0.6719  0.7396  0.8644
  158SOL     OW  472   1.037   1.828   1.881  0.0876 -0.0256  0.1182
  158SOL    HW1  473   1.073   1.922   1.855 -0.6918 -4.2168 -0.6395
  158SOL    HW2  474   0.963   1.830   1.947  0.5611 -0.9568  0.2214
  159SOL     OW  475   0.827   0.373   1.205  0.1918  0.5727  0.4237
  159SOL    HW1  476   0.774   0.461   1.213 -1.4380 -0.9527 -0.7951
  159SOL    HW2  477   0.800   0.311   1.126 -2.4852 -0.1741 -1.2225
  160SOL     OW  478   1.373   2.472   1.460  0.2938  0.3010  0.1569
  160SOL    HW1  479   1.329   2.408   1.526 -3.5068  0.6983 -0.8633
  160SOL    HW2  480   1.464   2.438   1.429 -0.3580 -0.5600  1.4220
  161SOL     OW  481   0.087   2.678   0.404  0.1777  0.5409 -0.1754
  161SOL    HW1  482   0.039   2.581   0.407 -0.1364 -1.4763  0.9302
  161SOL    HW2  483   0.017   2.754   0.383 -1.2667  0.5677 -1.9093
  162SOL     OW  484   2.573   1.961   0.474  0.6541  0.3123 -0.0399
  162SOL    HW1  485   2.619   1.977   0.384 -1.6472 -0.1657  1.3642
  162SOL    HW2  486   2.524   1.871   0.471 -1.7831  4.3558 -2.5084
  163SOL     OW  487   1.893   2.679   0.775 -0.2904 -0.9238 -0.5213
  163SOL    HW1  488   1.870   2.686   0.676  2.5161  0.4495 -1.5584
  163SOL    HW2  489   1.985   2.633   0.797  3.1090  3.3529  0.9788
  164SOL     OW  490   3.025   0.181   1.273  0.5782  0.4324  0.1514
  164SOL    HW1  491   3.044   0.275   1.230  0.8842  0.8195  0.3270
  164SOL    HW2  492   3.106   0.160   1.335  0.3401  3.9195 -1.9067
  165SOL     OW  493   1.056   1.342   0.652 -0.6499 -0.4696  0.1193
  165SOL    HW1  494   1.062   1.399   0.741 -1.0113  2.7231 -2.0931
  165SOL    HW2  495   1.037   1.403   0.570  0.3509 -0.0821  0.1062
  166SOL     OW  496   1.548   0.967   1.738 -0.2994  0.3338 -0.8158
  166SOL    HW1  497   1.457   0.996   1.776  0.1384 -1.0895 -0.5577
  166SOL    HW2  498   1.609   1.054   1.736  0.9669  1.8841 -0.6642
  167SOL     OW  499   0.645   2.016   1.522  0.0049 -0.4868  0.2058
  167SOL    HW1  500   0.719   2.022   1.596  0.9085 -1.0940 -0.3593
  167SOL    HW2  501   0.573   1.949   1.546  0.3270 -2.2162 -1.8085
  168SOL     OW  502   1.658   2.348   0.155 -0.3429  0.6411  0.4378
  168SOL    HW1  503   1.748   2.351   0.101  2.0836  0.0541 -2.9385
  168SOL    HW2  504   1.669   2.308   0.249  1.3468 -0.5685  0.6927
  169SOL     OW  505   3.039   2.625   2.152 -0.5145 -0.1812 -0.2357
  169SOL    HW1  506   3.063   2.612   2.052  2.7606  1.3259  0.4534
  169SOL    HW2  507   3.099   2.565   2.209  1.5615 -1.1708 -1.4951
  170SOL     OW  508   1.143   0.134   2.111 -0.7025 -0.4923 -0.5161
  170SOL    HW1  509   1.238   0.163   2.147 -2.4894 -1.0797  1.9410
  170SOL    HW2  510   1.143   0.117   2.010  4.8677  2.6517  1.1902
  171SOL     OW  511   0.166   0.871   2.428  0.1425 -0.5631 -0.7003
  171SOL    HW1  512   0.073   0.882   2.470  0.8117  0.2923 -2.1324
  171SOL    HW2  513   0.170   0.887   2.323  1.6377 -1.1330 -1.3581
  172SOL     OW  514   1.041   1.044   2.839  0.4569  1.2662  0.3692
  172SOL    HW1  515   0.989   1.078   2.924 -2.0797  0.6650 -3.1353
  172SOL    HW2  516   0.988   1.054   2.751  1.0591 -0.0402  0.0821
  173SOL     OW  517   0.311   2.561   3.061 -0.1727  0.3430  0.0316
  173SOL    HW1  518   0.330   2.505   2.975 -1.4885 -1.2533  1.0286
  173SOL    HW2  519   0.359   2.530   3.148 -2.3485  3.5542  2.8698
  174SOL     OW  520   1.487   2.904   0.991  0.2209 -0.3653  0.4735
  174SOL    HW1  521   1.576   2.919   0.939 -0.4292 -1.0830  1.9504
  174SOL    HW2  522   1.445   2.809   0.976 -3.8459 -1.3295 -0.3452
  175SOL     OW  523   0.398   0.034   1.745 -0.4081 -0.1719  0.4879
  175SOL    HW1  524   0.489   0.024   1.796  1.4913  0.9731  1.4372
  175SOL    HW2  525   0.395   0.122   1.691  0.7184  0.2397  0.3388
  176SOL     OW  526   2.528   0.486   0.034  0.0557  0.9521  0.0017
  176SOL    HW1  527   2.573   0.544   0.110 -1.1773  1.2284  3.2306
  176SOL    HW2  528   2.527   0.384   0.064 -0.4807 -0.7136  0.1666
  177SOL     OW  529   0.335   0.090   0.777  0.2652 -0.2764 -0.2231
  177SOL    HW1  530   0.285   0.023   0.843  1.6771 -0.8091 -0.3788
  177SOL    HW2  531   0.441   0.093   0.795  0.8912 -0.4245 -0.2843
  178SOL     OW  532   0.017   2.702   2.612  0.3527 -0.7013 -0.1187
  178SOL    HW1  533  -0.003   2.600   2.612  0.1695 -1.2569 -1.3265
  178SOL    HW2  534   0.092   2.732   2.680 -2.2044 -0.0107 -0.9043
  179SOL     OW  535   2.987   1.618   1.232 -0.2249  0.2175  0.3181
  179SOL    HW1  536   3.061   1.612   1.163  0.2247 -0.1249 -1.0463
  179SOL    HW2  537   2.983   1.530   1.290 -0.6300 -0.5960  2.3836
  180SOL     OW  538   0.224   1.348   1.731 -0.1403  0.0575 -0.2126
  180SOL    HW1  539   0.298   1.305   1.793 -1.6317  0.2097  1.1421
  180SOL    HW2  540   0.160   1.404   1.783  0.6806 -1.2882  2.2716
  181SOL     OW  541   3.058   1.748   2.428 -0.3094  0.0854 -0.1364
  181SOL    HW1  542   3.140   1.812   2.433  2.3123  3.1740 -4.0144
  181SOL    HW2  543   2.973   1.798   2.397 -0.0355  2.1612  0.3346
  182SOL     OW  544   2.217   1.415   1.207  0.1876  0.1531 -0.5051
  182SOL    HW1  545   2.233   1.345   1.281  1.4526 -1.3108  1.9912
  182SOL    HW2  546   2.237   1.383   1.112 -3.2076 -0.6026  2.6224
  183SOL     OW  547   1.397   2.199   2.489 -0.2265 -0.1639 -0.3084
  183SOL    HW1  548   1.332   2.121   2.489 -0.5193 -1.1382 -0.1914
  183SOL    HW2  549   1.490   2.167   2.455  0.1629 -1.4938  0.6954
  184SOL     OW  550   2.220   0.809   0.778 -0.7152 -0.1129 -0.7679
  184SOL    HW1  551   2.137   0.853   0.731 -0.7883  1.3167  0.5404
  184SOL    HW2  552   2.229   0.706   0.763 -0.9977  1.3683  1.4341
  185SOL     OW  553   1.591   2.778   2.018 -0.2269  0.5112  0.2443
  185SOL    HW1  554   1.503   2.836   2.008  0.1933  0.2701 -0.4516
  185SOL    HW2  555   1.622   2.766   2.116  0.3098 -1.0261 -1.2780
  186SOL     OW  556   3.089   2.122   1.783  0.1531  0.0325 -0.5858
  186SOL    HW1  557   3.110   2.221   1.817 -0.3614 -1.1576  0.4208
  186SOL    HW2  558   3.164   2.049   1.800 -2.6180 -1.3793  2.3355
  187SOL     OW  559   1.347   0.622   1.661 -0.1706 -0.3160 -0.3193
  187SOL    HW1  560   1.427   0.677   1.621  1.4655  1.1164 -3.1084
  187SOL    HW2  561   1.375   0.580   1.751  1.3700 -0.8040 -2.2809
  188SOL     OW  562   2.713   2.684   1.526  0.5276 -0.2710 -1.4385
  188SOL    HW1  563   2.683   2.777   1.560 -0.4640  2.0788  0.0249
  188SOL    HW2  564   2.635   2.626   1.490  0.3851 -0.2686  2.1638
  189SOL     OW  565   0.859   1.112   1.444  0.2672 -0.6350  0.0293
  189SOL    HW1  566   0.890   1.180   1.511 -0.2771 -2.3642  0.9779
  189SOL    HW2  567   0.823   1.155   1.358 -1.4102 -2.9213  1.2526
  190SOL     OW  568   1.379   1.879   1.509  0.0559 -0.3371 -0.1842
  190SOL    HW1  569   1.333   1.791   1.485  1.0112  1.8753  2.3756
  190SOL    HW2  570   1.377   1.910   1.608 -0.3994 -1.1263  1.7829
  191SOL     OW  571   0.918   0.722   1.493  0.1290 -0.3511 -0.8182
  191SOL    HW1  572   0.927   0.662   1.577 -0.3758  1.0849 -0.6840
  191SOL    HW2  573   1.005   0.740   1.432  0.5532 -1.5302 -3.8422
  192SOL     OW  574   1.835   2.410   1.118 -0.3625 -0.0407 -0.2864
  192SOL    HW1  575   1.743   2.414   1.072  1.0989 -1.5800  2.0683
  192SOL    HW2  576   1.906   2.390   1.048  3.6057  0.6822  3.4468
  193SOL     OW  577   0.500   0.493   0.402  0.5429 -0.2991  0.1783
  193SOL    HW1  578   0.421   0.426   0.413  0.3587  1.0434  0.2238
  193SOL    HW2  579   0.557   0.486   0.317  0.3129 -0.4803 -1.0342
  194SOL     OW  580   0.440   0.724   1.189 -0.0830  0.0540 -0.2658
  194SOL    HW1  581   0.341   0.695   1.207  1.6497 -1.8320 -0.5797
  194SOL    HW2  582   0.479   0.663   1.110  0.3981  0.2766 -2.1126
  195SOL     OW  583   0.998   2.920   0.504 -0.5915  0.0932  0.6474
  195SOL    HW1  584   1.005   2.847   0.430  0.4035 -0.7927  0.1201
  195SOL    HW2  585   1.089   2.963   0.527 -0.2255  1.5293 -1.1259
  196SOL     OW  586   0.167   1.362   1.376 -0.2566 -0.0803  0.7270
  196SOL    HW1  587   0.185   1.445   1.435  0.9706 -0.6957  1.8298
  196SOL    HW2  588   0.198   1.276   1.421 -2.5918  0.0821  2.0097
  197SOL     OW  589   0.784   1.963   0.274 -0.1674 -0.0111 -0.3943
  197SOL    HW1  590   0.793   1.902   0.363  0.6225 -0.7413  1.8896
  197SOL    HW2  591   0.872   1.974   0.221 -0.3835  2.5005  1.6604
  198SOL     OW  592   0.302   1.227   0.343 -0.0138 -0.0312  0.0680
  198SOL    HW1  593   0.199   1.219   0.332 -0.1553 -1.9446 -1.2127
  198SOL    HW2  594   0.336   1.310   0.393 -1.3758  1.0042 -2.4493
  199SOL     OW  595   2.322   0.431   2.630  0.4675  0.5880 -0.0431
  199SOL    HW1  596   2.241   0.404   2.684  1.8933 -1.3698  1.1666
  199SOL    HW2  597   2.405   0.373   2.658  1.1324  2.0105 -2.5459
  200SOL     OW  598   0.004   2.916   0.727 -0.0381 -0.7278 -0.1520
  200SOL    HW1  599   0.034   3.012   0.695  1.1716  0.2486 -3.7671
  200SOL    HW2  600  -0.088   2.890   0.681  0.9035 -2.4820  0.3204
  201SOL     OW  601   0.873   0.671   0.475 -0.4811 -0.3942 -0.2267
  201SOL    HW1  602   0.846   0.741   0.554 -2.0642 -0.7315  1.5530
  201SOL    HW2  603   0.821   0.586   0.492  1.4696 -1.0473 -1.1861
  202SOL     OW  604   0.422   1.242   1.883 -0.5920 -0.5439 -0.3844
  202SOL    HW1  605   0.497   1.184   1.841 -1.5823  0.2032 -1.0245
  202SOL    HW2  606   0.455   1.313   1.951  0.9530 -1.6360  0.1340
  203SOL     OW  607   0.634   0.216   1.612  0.3438  0.1493  0.3629
  203SOL    HW1  608   0.697   0.183   1.535  2.4451 -0.8112 -0.5273
  203SOL    HW2  609   0.679   0.218   1.704  0.4163  0.6156  1.0410
  204SOL     OW  610   2.027   1.812   2.962  0.0487 -0.2392 -0.8526
  204SOL    HW1  611   2.010   1.710   2.974 -0.0436  1.7981  2.1684
  204SOL    HW2  612   2.103   1.839   2.896  0.8482  2.3355  0.1457
  205SOL     OW  613   1.763   1.880   3.031 -0.3938 -0.2352 -0.2335
  205SOL    HW1  614   1.865   1.864   3.010 -0.8085 -1.4005  0.0339
  205SOL    HW2  615   1.730   1.973   2.998  0.3839  1.8928 -1.1952
  206SOL     OW  616   2.402   2.740   0.317  0.3739 -0.4346  0.0953
  206SOL    HW1  617   2.356   2.687   0.392  0.7199 -0.1168  1.0047
  206SOL    HW2  618   2.461   2.684   0.258  0.9437 -0.5192 -0.4963
  207SOL     OW  619   0.696   1.765   2.913  0.1590 -0.0145  0.4127
  207SOL    HW1  620   0.762   1.690   2.887 -0.4856 -1.1879 -2.5679
  207SOL    HW2  621   0.626   1.740   2.988  0.2156 -0.2790  1.0408
  208SOL     OW  622   1.026   1.582   1.233  0.0980 -0.1673 -0.0915
  208SOL    HW1  623   0.970   1.627   1.158  1.0137 -2.0254  1.1491
  208SOL    HW2  624   0.967   1.558   1.310  0.6001 -0.5826 -1.4700
  209SOL     OW  625   0.262   0.975   0.012  0.2416 -0.2960  0.2090
  209SOL    HW1  626   0.289   0.916  -0.067 -0.8289  0.9747  1.7053
  209SOL    HW2  627   0.257   0.915   0.101  0.8006  0.2818 -0.0807
  210SOL     OW  628   1.767   0.687   1.246 -0.2011  0.6579  0.0801
  210SOL    HW1  629   1.753   0.787   1.255 -2.7087  1.8620 -0.3644
  210SOL    HW2  630   1.860   0.661   1.211 -0.0944  2.5654  0.4315
  211SOL     OW  631   2.053   1.148   1.537 -0.2432 -0.0076 -0.5694
  211SOL    HW1  632   2.084   1.104   1.629  1.5619  1.5603 -0.8036
  211SOL    HW2  633   2.136   1.198   1.502  3.3149 -0.5601  1.1054
  212SOL     OW  634   0.080   0.942   1.431 -0.6347 -0.5635  0.1973
  212SOL    HW1  635   0.126   1.031   1.466  0.6388 -0.2227  0.5479
  212SOL    HW2  636   0.062   0.872   1.506  1.3521 -0.5485 -0.6444
  213SOL     OW  637   2.823   0.058   0.346 -0.5269 -0.5041 -0.0085
  213SOL    HW1  638   2.915   0.055   0.310 -0.7834  0.8461  1.5439
  213SOL    HW2  639   2.761  -0.003   0.288 -1.3242  0.6587  0.1245
  214SOL     OW  640   2.204   0.333   2.389  0.0260 -0.1858  0.5863
  214SOL    HW1  641   2.254   0.368   2.470  0.0688  0.6713 -1.6856
  214SOL    HW2  642   2.165   0.233   2.386  0.3551  1.0398 -2.1054
  215SOL     OW  643   1.712   2.296   2.062  0.3629 -0.2239 -0.3436
  215SOL    HW1  644   1.803   2.343   2.089  1.6278 -0.3361 -0.7022
  215SOL    HW2  645   1.629   2.356   2.085  1.8105  1.6586  1.4929
  216SOL     OW  646   2.314   0.528   0.772  0.4304  0.2801 -0.0507
  216SOL    HW1  647   2.264   0.463   0.706 -1.3016 -0.2763  0.0777
  216SOL    HW2  648   2.415   0.515   0.771 -3.4596  2.1250 -1.1472
  217SOL     OW  649   0.888   2.688   2.542  0.1578  0.2039 -0.5093
  217SOL    HW1  650   0.890   2.650   2.641  0.3199 -3.8273  3.7246
  217SOL    HW2  651   0.809   2.660   2.487  1.8834  1.0508  0.5908
  218SOL     OW  652   1.836   1.398   0.030 -0.5291  0.1508  0.5805
  218SOL    HW1  653   1.738   1.380   0.003 -1.5825 -1.0523 -0.4453
  218SOL    HW2  654   1.873   1.339   0.104 -0.5687 -0.5489  0.0687
  219SOL     OW  655   2.415   1.260   2.534 -0.2097 -0.0179  0.3968
  219SOL    HW1  656   2.488   1.206   2.484  2.5126 -0.2304  1.0712
  219SOL    HW2  657   2.411   1.226   2.631 -0.1782 -2.7518 -1.9474
  220SOL     OW  658   1.436   1.028   1.408  0.2388 -0.4472 -0.3847
  220SOL    HW1  659   1.540   1.021   1.413 -0.0990  1.9557 -3.8538
  220SOL    HW2  660   1.402   1.035   1.309 -0.4084 -0.4776  1.9721
  221SOL     OW  661   1.233   1.009   2.101  0.1137  0.1475 -0.5293
  221SOL    HW1  662   1.261   1.021   2.001  1.4130 -0.0917  0.1232
  221SOL    HW2  663   1.305   1.035   2.164 -0.8894  0.3025  0.1978
  222SOL     OW  664   1.143   0.065   1.195 -0.3028 -0.0824  0.2958
  222SOL    HW1  665   1.148   0.114   1.287  1.3274 -0.1227  0.3225
  222SOL    HW2  666   1.170   0.116   1.111  1.2715 -3.2058  0.8600
  223SOL     OW  667   2.692   0.957   2.151  0.1135  0.4502 -0.0127
  223SOL    HW1  668   2.628   0.957   2.231  0.7401 -0.7026 -0.2718
  223SOL    HW2  669   2.788   0.977   2.177 -0.8076 -0.3765 -1.1082
  224SOL     OW  670   1.575   0.975   2.808  0.9420 -0.2837 -0.1370
  224SOL    HW1  671   1.557   0.911   2.724  0.9471 -0.3469 -0.6303
  224SOL    HW2  672   1.588   1.077   2.791  0.1835  3.1414  1.3217
  225SOL     OW  673   2.954   2.661   2.884  0.0524 -0.6072  0.0715
  225SOL    HW1  674   2.891   2.673   2.803 -1.5007  2.0925  1.2008
  225SOL    HW2  675   3.045   2.706   2.864  1.7753  2.9798 -2.4743
  226SOL     OW  676   2.381   1.580   2.853 -0.6764  0.0299  0.3529
  226SOL    HW1  677   2.429   1.572   2.763 -1.5323  1.5372 -0.5506
  226SOL    HW2  678   2.424   1.544   2.938 -2.4255 -0.2257 -1.5514
  227SOL     OW  679   0.888   0.288   3.035 -0.4733 -0.4359  0.2801
  227SOL    HW1  680   0.893   0.389   3.024 -2.7511 -2.5657 -1.7309
  227SOL    HW2  681   0.843   0.251   2.951  2.0404 -2.1948  3.1304
  228SOL     OW  682   2.391   0.663   2.922  0.2218 -0.8700  0.3130
  228SOL    HW1  683   2.407   0.712   2.831  1.4859 -0.3818  0.4661
  228SOL    HW2  684   2.450   0.579   2.931 -1.9456  0.0082  0.0890
  229SOL     OW  685   0.755   0.681   1.728 -0.1405  0.2017 -0.3350
  229SOL    HW1  686   0.829   0.672   1.799  0.2622  1.2034  2.7502
  229SOL    HW2  687   0.754   0.609   1.657 -3.0198  1.3692  2.0505
  230SOL     OW  688   1.917   1.208   1.939 -0.2459  0.0032 -0.1647
  230SOL    HW1  689   1.994   1.260   1.899  0.2865 -0.2049 -0.8540
  230SOL    HW2  690   1.856   1.261   2.009 -1.7914 -0.5184  1.5353
  231SOL     OW  691   0.678   0.986   0.046  0.4042  0.3609  0.4287
  231SOL    HW1  692   0.760   0.996   0.114 -0.0927 -0.8405  0.7209
  231SOL    HW2  693   0.625   1.069   0.033  0.8725 -2.7562  0.0527
  232SOL     OW  694   2.411   2.974   2.794  0.3163  0.7385 -0.0174
  232SOL    HW1  695   2.489   2.914   2.832  0.3308 -0.6059  1.4954
  232SOL    HW2  696   2.445   3.030   2.714 -1.7185 -0.7237 -2.8395
  233SOL     OW  697   1.809   1.095   1.151 -0.0695 -0.1241 -0.6070
  233SOL    HW1  698   1.860   1.176   1.109  0.0585 -0.7695  0.8753
  233SOL    HW2  699   1.876   1.014   1.156 -0.3180 -0.7825  0.2649
  234SOL     OW  700   1.647   2.537   1.824 -0.1132 -0.2964  0.1469
  234SOL    HW1  701   1.623   2.602   1.901  2.9885 -1.6424 -3.3971
  234SOL    HW2  702   1.605   2.444   1.834  0.6773 -0.9264  0.5792
  235SOL     OW  703   0.094   3.014   2.902 -0.2888  0.1193  0.3411
  235SOL    HW1  704   0.057   3.022   2.805  0.9677  1.3569  1.7657
  235SOL    HW2  705   0.030   3.057   2.974 -0.8191  2.5297 -1.8917
  236SOL     OW  706   2.894   0.758   0.054 -0.0874 -0.3792  0.0141
  236SOL    HW1  707   2.964   0.783   0.127 -1.7227  3.6693  1.5416
  236SOL    HW2  708   2.938   0.677  -0.000 -0.3087 -0.8663  0.3637
  237SOL     OW  709   1.499   1.687   0.907  0.0558  0.2509  0.1961
  237SOL    HW1  710   1.597   1.668   0.902 -0.9498 -1.2407 -0.1468
  237SOL    HW2  711   1.471   1.745   0.991 -1.8078 -1.3306  1.2168
  238SOL     OW  712   1.915   1.223   0.732  0.4157 -0.4100  0.2740
  238SOL    HW1  713   1.938   1.229   0.836  0.1678 -1.7036 -1.5855
  238SOL    HW2  714   1.818   1.247   0.711  0.5720 -0.2963  1.7498
  239SOL     OW  715   2.099   0.355   2.784  0.3768 -0.0707 -0.7394
  239SOL    HW1  716   2.132   0.324   2.879 -0.8988  0.1252 -0.5709
  239SOL    HW2  717   2.012   0.412   2.784 -0.3158  2.7020 -1.2418
  240SOL     OW  718   0.888   0.675   0.197  0.2262 -0.1779 -0.5239
  240SOL    HW1  719   0.978   0.627   0.172 -2.1504 -0.8062 -2.0893
  240SOL    HW2  720   0.869   0.674   0.300 -1.9646  1.0025 -0.3649
  241SOL     OW  721   0.554   0.126   0.337  0.0085 -0.2390  0.1513
  241SOL    HW1  722   0.639   0.186   0.327 -0.7119 -3.0850 -0.7233
  241SOL    HW2  723   0.552   0.053   0.264 -1.6465 -0.4872 -0.0921
  242SOL     OW  724   0.616   2.611   1.280  0.2778  0.0264 -0.5760
  242SOL    HW1  725   0.609   2.556   1.365  2.3477  0.4425  0.7655
  242SOL    HW2  726   0.690   2.684   1.290 -0.2951 -2.0671  0.5620
  243SOL     OW  727   1.085   0.583   2.414  0.9954 -0.2211  0.0162
  243SOL    HW1  728   1.004   0.615   2.365  0.6933 -1.7106 -0.5364
  243SOL    HW2  729   1.060   0.537   2.508 -0.6967 -1.6767  1.5080
  244SOL     OW  730   2.811   1.864   2.363  0.0614 -0.3545  0.1105
  244SOL    HW1  731   2.829   1.882   2.263  2.8246 -0.8249 -1.6326
  244SOL    HW2  732   2.723   1.808   2.375  0.9871 -1.6834 -0.4650
  245SOL     OW  733   2.139   1.034   2.227  0.7045  0.0206  0.1914
  245SOL    HW1  734   2.235   0.990   2.247  1.2247  0.1028  1.0133
  245SOL    HW2  735   2.113   1.113   2.290 -0.2457  1.1492 -1.4572
  246SOL     OW  736   0.256   2.895   1.818 -0.0802 -0.2702 -0.9357
  246SOL    HW1  737   0.208   2.842   1.738  0.1665 -1.0233  0.5657
  246SOL    HW2  738   0.299   2.983   1.787 -3.9004  0.2724 -1.2299
  247SOL     OW  739   2.188   0.610   0.020 -0.0206  0.0979  0.4782
  247SOL    HW1  740   2.277   0.645  -0.026 -0.4490 -1.4463 -0.3735
  247SOL    HW2  741   2.114   0.686   0.028 -1.8778  1.1533  1.4976
  248SOL     OW  742   2.153   1.887   1.587 -0.0626 -0.6981 -0.1120
  248SOL    HW1  743   2.212   1.804   1.621  0.2366 -0.2888  0.3984
  248SOL    HW2  744   2.123   1.949   1.666  0.1776  1.0293  3.8400
  249SOL     OW  745   1.870   1.843   1.907 -0.2795 -0.1187 -0.4034
  249SOL    HW1  746   1.861   1.764   1.836 -0.3216 -0.5302 -0.3854
  249SOL    HW2  747   1.968   1.872   1.925  0.2742 -0.6213 -0.5712
  250SOL     OW  748   1.072   0.650   1.862 -0.2415 -0.6315  0.0264
  250SOL    HW1  749   1.124   0.622   1.947 -1.0297  4.3056  1.7328
  250SOL    HW2  750   1.089   0.592   1.778 -3.2574  1.8350  0.8234
  251SOL     OW  751   3.034   1.498   2.549 -0.1407 -0.5729 -0.2298
  251SOL    HW1  752   3.032   1.583   2.491 -0.0560  0.0663 -0.3011
  251SOL    HW2  753   2.975   1.423   2.512 -0.8419  0.9908 -1.8763
  252SOL     OW  754   1.543   0.772   1.564  0.1627  0.6038 -0.4812
  252SOL    HW1  755   1.579   0.816   1.478 -1.0966  2.8880  1.2783
  252SOL    HW2  756   1.548   0.848   1.640  1.2359  0.8993  0.5565
  253SOL     OW  757   0.992   1.473   0.404 -0.4952  0.2158  0.1185
  253SOL    HW1  758   0.997   1.475   0.304  2.2721 -0.5683  3.1302
  253SOL    HW2  759   0.901   1.498   0.443 -0.2571 -0.7328 -0.7657
  254SOL     OW  760   2.065   2.199   1.629 -0.2594  0.8140 -0.3060
  254SOL    HW1  761   1.997   2.147   1.575 -0.7224  1.2153  1.2681
  254SOL    HW2  762   2.028   2.284   1.671  1.5335 -0.5029  0.3721
  255SOL     OW  763   0.092   1.152   2.972 -0.1795 -0.2388 -0.3555
  255SOL    HW1  764   0.140   1.228   2.925  2.7798 -2.5079 -0.1148
  255SOL    HW2  765   0.154   1.098   3.042  2.6820 -3.3051  2.3072
  256SOL     OW  766   2.762   1.428   1.787 -0.7567 -0.1223  0.0608
  256SOL    HW1  767   2.707   1.476   1.856  1.7049 -4.1789 -2.1263
  256SOL    HW2  768   2.711   1.356   1.733 -2.0281 -0.3434 -2.4774
  257SOL     OW  769   0.832   0.179   1.858  0.4540  1.1394 -0.5866
  257SOL    HW1  770   0.878   0.222   1.780 -3.3920 -0.7062  1.6325
  257SOL    HW2  771   0.871   0.082   1.884 -1.8818 -5.4752 -2.6567
  258SOL     OW  772   2.991   1.155   0.541 -0.3609 -0.3153  0.1032
  258SOL    HW1  773   2.899   1.193   0.551  3.0039  0.3074 -3.0154
  258SOL    HW2  774   3.057   1.161   0.622  0.5635 -1.9684 -0.4494
  259SOL     OW  775   0.470   2.959   3.047  0.0855 -0.6193 -0.7277
  259SOL    HW1  776   0.391   2.901   3.094 -0.2760  1.4628  0.5146
  259SOL    HW2  777   0.499   2.917   2.961 -1.5487  0.4672  1.6130
  260SOL     OW  778   2.701   0.656   2.787  0.2504  0.0004 -0.5336
  260SOL    HW1  779   2.610   0.672   2.740  1.8466  1.5635  0.0649
  260SOL    HW2  780   2.697   0.560   2.825 -0.4214  1.6947 -1.5560
  261SOL     OW  781   2.719   1.291   1.268 -0.6106  0.1202 -0.1830
  261SOL    HW1  782   2.654   1.262   1.192 -1.3711 -0.3769 -1.9511
  261SOL    HW2  783   2.792   1.223   1.293  1.4426  0.2294 -0.9344
  262SOL     OW  784   1.384   2.959   1.982 -0.4939 -0.0359 -0.2192
  262SOL    HW1  785   1.398   3.051   1.936 -0.6951 -0.5308  2.0566
  262SOL    HW2  786   1.288   2.925   1.991  0.8134 -1.2058 -1.7628
  263SOL     OW  787   0.844   0.671   2.270  0.0272 -0.5524 -0.0014
  263SOL    HW1  788   0.782   0.604   2.228  1.9554  2.5786  2.9484
  263SOL    HW2  789   0.873   0.741   2.204 -0.6068 -1.5200 -0.8873
  264SOL     OW  790   2.291   0.789   0.456  0.3968 -0.7701 -0.2247
  264SOL    HW1  791   2.292   0.699   0.398  0.6945 -1.0257 -0.5040
  264SOL    HW2  792   2.387   0.832   0.459 -0.7239 -0.8583 -0.8529
  265SOL     OW  793   0.880   2.287   2.653 -0.0750 -0.6003 -0.4950
  265SOL    HW1  794   0.870   2.291   2.755 -0.0188 -0.9982  2.0713
  265SOL    HW2  795   0.806   2.235   2.602  1.7603  0.0716 -0.6817
  266SOL     OW  796   1.285   1.810   2.998  0.1594 -0.2795 -0.1651
  266SOL    HW1  797   1.259   1.854   3.087 -0.6752  1.1586 -1.8423
  266SOL    HW2  798   1.377   1.766   2.993  2.3955  1.2758 -0.9834
  267SOL     OW  799   1.125   3.007   2.295  0.6266 -0.4139 -0.4606
  267SOL    HW1  800   1.111   2.923   2.235 -2.3291 -0.7071  3.5723
  267SOL    HW2  801   1.172   3.094   2.256 -1.2774  0.8687  1.0791
  268SOL     OW  802   0.767   1.291   1.240  0.0415  0.2230 -0.3910
  268SOL    HW1  803   0.717   1.383   1.236  0.3606 -2.9155  0.4405
  268SOL    HW2  804   0.859   1.294   1.200  0.1998  0.4648  0.1081
  269SOL     OW  805   2.266   2.514   1.610 -0.7038  0.0581 -0.2022
  269SOL    HW1  806   2.360   2.521   1.649  1.7781  0.8200  0.7034
  269SOL    HW2  807   2.200   2.514   1.690  0.2178 -1.0331  1.2208
  270SOL     OW  808   0.127   3.032   2.005 -0.1199 -0.4929 -0.0251
  270SOL    HW1  809   0.170   2.975   1.926  1.2172 -4.3764  0.2399
  270SOL    HW2  810   0.063   2.973   2.057 -1.0481  3.3891 -1.2927
  271SOL     OW  811   0.348   1.452   1.121 -0.5721  0.8299 -0.2741
  271SOL    HW1  812   0.341   1.411   1.023  0.6645 -0.0138  0.6557
  271SOL    HW2  813   0.258   1.458   1.164  1.4134  0.8713 -0.6128
  272SOL     OW  814   1.878   0.003   1.923  0.2772 -0.2315  0.4890
  272SOL    HW1  815   1.806  -0.055   1.877  1.9083  1.3087  1.3295
  272SOL    HW2  816   1.952   0.026   1.854 -0.3042  1.1152  1.0571
  273SOL     OW  817   1.466   1.436   2.875  0.0324 -0.4323 -0.2497
  273SOL    HW1  818   1.387   1.487   2.832  1.2081  2.0475  3.0302
  273SOL    HW2  819   1.467   1.432   2.979 -0.9473 -1.1031  1.1856
  274SOL     OW  820   1.185   0.540   2.114  0.1006 -0.1595 -0.3188
  274SOL    HW1  821   1.099   0.502   2.165 -0.5705 -1.1990  1.7248
  274SOL    HW2  822   1.253   0.566   2.186 -0.4311  0.1416 -0.7920
  275SOL     OW  823   0.666   2.161   1.955  0.0947  0.4455 -0.1625
  275SOL    HW1  824   0.589   2.092   1.933  1.9366 -0.3915  2.0551
  275SOL    HW2  825   0.639   2.259   1.965  0.0680 -0.8704 -0.8407
  276SOL     OW  826   2.209   0.927   2.834 -0.7527  0.3718 -0.3462
  276SOL    HW1  827   2.119   0.969   2.808 -1.3685  2.9789  0.4014
  276SOL    HW2  828   2.205   0.836   2.889  0.0957  0.5807  1.4453
  277SOL     OW  829   3.077   0.789   0.242 -0.2620  0.2321  0.4682
  277SOL    HW1  830   3.176   0.816   0.216  0.2314 -1.5578 -3.4119
  277SOL    HW2  831   3.072   0.711   0.312 -0.6966 -0.6468  1.9448
  278SOL     OW  832   0.330   0.243   0.009  0.0675 -0.3211 -0.3853
  278SOL    HW1  833   0.407   0.213  -0.050 -0.0976 -0.7929 -1.0168
  278SOL    HW2  834   0.318   0.348   0.008  0.3030  0.4237 -1.6889
  279SOL     OW  835   0.225   2.994   0.936 -0.5714  0.2642 -0.1024
  279SOL    HW1  836   0.262   3.003   1.035 -1.1405 -0.6779  2.0644
  279SOL    HW2  837   0.192   2.899   0.916 -2.8425 -0.0273 -2.7023
  280SOL     OW  838   1.578   2.900   2.440  0.1275  0.1935  0.0773
  280SOL    HW1  839   1.632   2.965   2.500 -0.5272  1.3753  3.0959
  280SOL    HW2  840   1.528   2.950   2.357 -0.8057 -0.1808 -2.8123
  281SOL     OW  841   0.624   0.945   2.309  0.2756  0.0763 -0.5232
  281SOL    HW1  842   0.584   0.864   2.253 -0.7382  2.9873  0.6887
  281SOL    HW2  843   0.603   0.925   2.408  0.4901  1.9585 -0.3888
  282SOL     OW  844   1.716   2.437   0.548 -0.3633 -0.2572 -0.2300
  282SOL    HW1  845   1.727   2.349   0.490  3.1193 -1.2071 -2.0416
  282SOL    HW2  846   1.689   2.524   0.502 -0.2181 -1.7498  1.0646
  283SOL     OW  847   1.124   0.905   0.791 -0.3279 -0.2151  0.1513
  283SOL    HW1  848   1.163   0.841   0.866 -0.3232 -1.2112 -0.5234
  283SOL    HW2  849   1.101   0.997   0.832  1.4928  0.3244 -0.1248
  284SOL     OW  850   2.215   2.866   2.477  0.5210  0.3520  0.4917
  284SOL    HW1  851   2.308   2.861   2.431  0.8724  0.3780  0.9503
  284SOL    HW2  852   2.218   2.907   2.572  0.8262  2.4432 -1.2736
  285SOL     OW  853   1.329   3.082   2.521  0.6093  0.0630  0.0879
  285SOL    HW1  854   1.386   3.050   2.443 -1.9549  0.7675 -3.0395
  285SOL    HW2  855   1.246   3.144   2.492 -3.9761  2.1868  1.1771
  286SOL     OW  856   0.226   0.321   0.653  0.0653 -0.0065 -0.1252
  286SOL    HW1  857   0.275   0.245   0.711  2.2295  1.7229 -0.2254
  286SOL    HW2  858   0.237   0.293   0.550 -1.5407 -2.3496 -4.9619
  287SOL     OW  859   0.114   1.286   2.555  0.5116 -0.3012  0.1791
  287SOL    HW1  860   0.043   1.215   2.580  1.3447 -2.0526 -0.2073
  287SOL    HW2  861   0.081   1.385   2.571 -0.1659  3.5755  0.3490
  288SOL     OW  862   1.541   2.703   1.651  0.4178 -0.0824 -0.5945
  288SOL    HW1  863   1.592   2.638   1.712  0.1098  0.0628 -0.5615
  288SOL    HW2  864   1.568   2.696   1.550 -1.2815  0.1031  0.3886
  289SOL     OW  865   0.585   2.725   0.769  0.0197 -0.2568 -0.2335
  289SOL    HW1  866   0.635   2.762   0.685 -2.0413  2.5916 -0.7801
  289SOL    HW2  867   0.554   2.794   0.836  1.0069 -1.8095  0.5420
  290SOL     OW  868   2.808   1.061   1.637 -0.1845 -0.7317 -0.2721
  290SOL    HW1  869   2.744   1.001   1.687 -0.1938  1.8138  0.4009
  290SOL    HW2  870   2.901   1.073   1.685  2.0762  0.4757  0.0368
  291SOL     OW  871   1.920   0.020   0.027 -0.2003  0.5979  0.0298
  291SOL    HW1  872   1.944   0.020   0.129  4.7976 -2.0323  0.3591
  291SOL    HW2  873   2.010   0.029  -0.029  0.3078  0.3954 -0.5298
  292SOL     OW  874   2.938   1.214   0.019  0.0582 -1.0788  0.4005
  292SOL    HW1  875   2.886   1.255  -0.061  1.3318 -0.1344 -1.7775
  292SOL    HW2  876   3.037   1.212  -0.004 -1.1799 -4.0900 -2.0501
  293SOL     OW  877   0.546   2.056   0.197  0.2806  0.8624 -0.4755
  293SOL    HW1  878   0.509   2.138   0.245 -1.2566 -2.0444 -0.6545
  293SOL    HW2  879   0.643   2.039   0.228 -1.9244  3.2667 -0.4268
  294SOL     OW  880   1.918   2.388   1.794  0.5204 -0.1731 -0.6187
  294SOL    HW1  881   1.954   2.430   1.881  0.7418 -1.2040  0.4389
  294SOL    HW2  882   1.832   2.438   1.760  0.2063 -0.0840  0.5042
  295SOL     OW  883   0.949   1.030   0.451  0.2673 -0.3368  0.1659
  295SOL    HW1  884   1.051   1.036   0.475 -1.7538 -0.9325  2.6302
  295SOL    HW2  885   0.904   0.974   0.526  1.1155  1.4159  1.3245
  296SOL     OW  886   1.097   2.151   2.682  0.0865  0.3559  0.0233
  296SOL    HW1  887   1.037   2.231   2.658 -0.8819 -1.0266 -1.0534
  296SOL    HW2  888   1.131   2.107   2.592  0.8325 -1.3280 -1.2546
  297SOL     OW  889   1.330   0.624   1.239  0.0335 -0.2876 -0.0594
  297SOL    HW1  890   1.359   0.554   1.309 -0.5182  0.3477 -0.5315
  297SOL    HW2  891   1.383   0.617   1.149 -0.3420 -2.0356 -2.3160
  298SOL     OW  892   0.522   1.340   2.971  0.2658  0.4813 -0.1545
  298SOL    HW1  893   0.503   1.273   3.047  1.8088 -2.4120  0.5369
  298SOL    HW2  894   0.578   1.301   2.891  1.6052  2.9555  1.5851
  299SOL     OW  895   0.424   0.170   1.208 -0.2133 -0.3181 -0.1556
  299SOL    HW1  896   0.382   0.263   1.197 -0.3237 -0.7530 -0.7203
  299SOL    HW2  897   0.439   0.150   1.308  0.4062  0.3768  3.4487
  300SOL     OW  898   1.184   1.719   2.605 -1.1742 -0.4646 -0.2654
  300SOL    HW1  899   1.179   1.645   2.534 -0.1697 -1.2815  2.7555
  300SOL    HW2  900   1.257   1.703   2.681 -0.5235 -3.2467  0.0375
  301SOL     OW  901   0.328   0.285   0.382  0.4435 -0.2438  0.4182
  301SOL    HW1  902   0.234   0.246   0.359 -2.2091  1.0795 -1.5907
  301SOL    HW2  903   0.405   0.220   0.349  2.5081  0.0994 -0.0363
  302SOL     OW  904   1.265   2.400   2.323  0.9141 -0.2348  0.0153
  302SOL    HW1  905   1.163   2.402   2.350 -1.1360  0.1542  1.8938
  302SOL    HW2  906   1.316   2.327   2.378  2.1591  1.9194 -0.2354
  303SOL     OW  907   0.900   2.491   0.705  0.5767  1.1139 -0.0132
  303SOL    HW1  908   0.945   2.475   0.615 -0.9549 -1.6765 -0.3729
  303SOL    HW2  909   0.961   2.546   0.770  0.4669 -0.4995  0.6827
  304SOL     OW  910   0.110   1.917   0.692  0.3007  0.1678 -0.3965
  304SOL    HW1  911   0.175   1.899   0.615 -3.2283  0.7629  0.9491
  304SOL    HW2  912   0.013   1.912   0.652  0.0483 -2.3028 -0.1581
  305SOL     OW  913   1.642   0.790   0.701  0.1912  0.3029 -0.0882
  305SOL    HW1  914   1.549   0.801   0.659 -0.3060 -3.0719 -0.4153
  305SOL    HW2  915   1.680   0.696   0.688  2.1157  1.1539  0.7822
  306SOL     OW  916   0.480   1.941   1.962  1.0468  0.0001 -0.0118
  306SOL    HW1  917   0.518   1.850   1.931 -0.5007 -2.5609 -3.2298
  306SOL    HW2  918   0.448   1.944   2.063  2.2579 -0.7105  1.6057
  307SOL     OW  919   3.019   0.892   2.582 -0.5665  0.0171  0.0709
  307SOL    HW1  920   3.030   0.976   2.642  1.9840  0.5852  0.9040
  307SOL    HW2  921   3.019   0.803   2.641  2.4772 -3.0725  0.1617
  308SOL     OW  922   1.494   2.728   2.805  0.2175 -0.5551  0.3389
  308SOL    HW1  923   1.447   2.708   2.712  1.3988 -0.5757  0.0834
  308SOL    HW2  924   1.498   2.647   2.869  0.4083  0.2037 -1.3747
  309SOL     OW  925   1.179   0.214   1.851  0.0286  0.4244  0.6784
  309SOL    HW1  926   1.274   0.182   1.818  0.5934  0.9011 -2.8130
  309SOL    HW2  927   1.120   0.252   1.774 -0.9180  1.3578 -0.6515
  310SOL     OW  928   1.418   2.597   0.662  0.1453  0.1699  0.1203
  310SOL    HW1  929   1.432   2.567   0.757  0.2509  1.2602 -0.4606
  310SOL    HW2  930   1.504   2.637   0.619  1.3639 -0.1786 -0.1173
  311SOL     OW  931   1.088   0.886   1.690 -0.0267 -0.0539  0.0095
  311SOL    HW1  932   1.058   0.797   1.734 -0.8204 -1.3344  1.2412
  311SOL    HW2  933   1.148   0.871   1.608 -0.5389 -1.8379 -0.4777
  312SOL     OW  934   1.494   0.603   1.008  0.2106 -0.2740  0.4664
  312SOL    HW1  935   1.539   0.693   1.007 -0.9437 -0.9676  0.6293
  312SOL    HW2  936   1.437   0.589   0.927  2.5856  0.0132  1.4520
  313SOL     OW  937   1.642   1.294   0.711 -0.0153 -0.5679 -0.1809
  313SOL    HW1  938   1.565   1.334   0.774 -0.2508  4.2172  0.6568
  313SOL    HW2  939   1.613   1.207   0.657 -0.1996 -4.5884  1.5118
  314SOL     OW  940   3.001   0.036   3.071  0.8127  0.8518  0.0947
  314SOL    HW1  941   3.016   0.054   3.167 -0.2149 -1.8512 -1.1527
  314SOL    HW2  942   2.916  -0.023   3.044 -0.7587 -1.1340 -3.2116
  315SOL     OW  943   1.110   0.231   2.742  0.3024  0.4708 -0.1776
  315SOL    HW1  944   1.101   0.170   2.657  1.1946 -1.1899 -1.2295
  315SOL    HW2  945   1.091   0.173   2.823  0.9749  0.1517 -0.6560
  316SOL     OW  946   1.756   2.086   0.874 -0.5523 -0.1396 -0.0932
  316SOL    HW1  947   1.737   2.090   0.979 -1.9164 -0.0846  0.3809
  316SOL    HW2  948   1.786   2.173   0.829 -1.5692 -1.2838  1.2926
  317SOL     OW  949   1.181   0.696   2.747 -0.3488  0.3254  0.2694
  317SOL    HW1  950   1.121   0.750   2.814 -0.9167  3.2906  1.6599
  317SOL    HW2  951   1.121   0.633   2.687  0.1702 -0.1007 -1.4503
  318SOL     OW  952   1.463   3.046   2.244  0.3299  0.8326 -0.4743
  318SOL    HW1  953   1.468   3.147   2.223  0.0406 -1.0915 -0.1487
  318SOL    HW2  954   1.429   2.990   2.167  1.0991  3.1112 -0.4789
  319SOL     OW  955   0.652   2.345   3.079  0.1067 -0.6383  0.0567
  319SOL    HW1  956   0.587   2.268   3.108 -0.7023 -0.1948  3.3494
  319SOL    HW2  957   0.731   2.304   3.027  0.1926  1.0457 -0.2248
  320SOL     OW  958   1.705   2.212   0.399  0.0239  0.4306  0.0810
  320SOL    HW1  959   1.780   2.146   0.370  0.6399  0.1757 -1.8397
  320SOL    HW2  960   1.616   2.170   0.428  1.6493 -0.6709 -1.8774
  321SOL     OW  961   1.637   2.721   0.517  0.4163  0.1919  0.0773
  321SOL    HW1  962   1.570   2.782   0.464 -0.2244  2.3372  1.4182
  321SOL    HW2  963   1.730   2.760   0.513 -1.4096  0.3195 -1.3700
  322SOL     OW  964   2.554   1.045   2.382 -0.3416  0.7838  0.2286
  322SOL    HW1  965   2.637   1.013   2.445  2.1339  1.2007  0.8652
  322SOL    HW2  966   2.489   0.968   2.367  2.7257  0.7932  1.0870
  323SOL     OW  967   1.197   2.716   0.823  0.3198 -0.4656 -0.1820
  323SOL    HW1  968   1.227   2.702   0.724  0.9575 -0.8453  2.2824
  323SOL    HW2  969   1.172   2.814   0.851  1.8252 -1.5153  4.4696
  324SOL     OW  970   0.095   2.549   2.367  0.4267  0.9658 -0.4948
  324SOL    HW1  971   0.044   2.510   2.450 -2.1897  0.7976 -1.7860
  324SOL    HW2  972   0.163   2.619   2.390  0.8570  0.4546 -2.2440
  325SOL     OW  973   1.267   3.064   0.421  0.1285  0.1046 -0.0867
  325SOL    HW1  974   1.214   3.083   0.334  3.0969 -0.5824 -0.2749
  325SOL    HW2  975   1.267   3.148   0.488  1.0983  0.0062 -2.0072
  326SOL     OW  976   2.521   0.796   0.031  0.4558 -0.3342 -0.1561
  326SOL    HW1  977   2.473   0.732  -0.040 -2.5664 -0.8457  1.6259
  326SOL    HW2  978   2.586   0.741   0.091 -0.5835  1.9130  0.4323
  327SOL     OW  979   2.854   0.185   0.584 -0.2376 -0.2245  0.2653
  327SOL    HW1  980   2.834   0.116   0.511 -0.2760  3.3889  1.0870
  327SOL    HW2  981   2.882   0.142   0.672 -2.6700  1.0041 -0.9408
  328SOL     OW  982   2.648   0.561   0.459 -0.8608 -0.3081  0.1207
  328SOL    HW1  983   2.682   0.627   0.530 -0.5795 -1.3373  0.8838
  328SOL    HW2  984   2.641   0.464   0.500  2.5058  0.5846  0.8275
  329SOL     OW  985   2.928   3.074   2.173 -0.6357  0.4746 -0.7953
  329SOL    HW1  986   2.995   2.993   2.183  0.0484 -1.1365  2.1176
  329SOL    HW2  987   2.976   3.167   2.174 -0.0315 -0.9729 -0.0608
  330SOL     OW  988   0.608   0.302   1.998 -0.1528 -0.9986  0.1082
  330SOL    HW1  989   0.671   0.271   1.928 -1.5136  0.5933 -0.8148
  330SOL    HW2  990   0.601   0.229   2.069 -0.6906  0.1863  0.1861
  331SOL     OW  991   3.092   1.924   1.112  0.2036 -0.4884 -0.2971
  331SOL    HW1  992   3.099   1.960   1.016  1.8852 -1.1503  0.9969
  331SOL    HW2  993   2.999   1.936   1.161 -0.7022  1.1302  0.6495
  332SOL     OW  994   0.422   1.187   0.076 -0.4092  0.1082  0.0049
  332SOL    HW1  995   0.366   1.099   0.069 -1.3272  2.9657 -1.3959
  332SOL    HW2  996   0.403   1.240   0.166  0.2541  0.1659  2.8937
  333SOL     OW  997   2.895   0.962   0.370 -0.0292  0.1502  0.0742
  333SOL    HW1  998   2.938   1.019   0.439  2.1199 -0.3906 -0.1555
  333SOL    HW2  999   2.966   0.908   0.318 -2.4227  1.9096  0.2809
  334SOL     OW 1000   1.697   1.180   1.722  0.2011 -0.0241  0.5113
  334SOL    HW1 1001   1.721   1.221   1.630 -1.5298  3.2095  3.4910
  334SOL    HW2 1002   1.770   1.209   1.791  0.5398 -0.5525 -2.1000
  335SOL     OW 1003   1.912   2.774   2.599 -0.4033  0.1404 -0.3275
  335SOL    HW1 1004   1.849   2.757   2.684  0.1095  0.8315 -0.0307
  335SOL    HW2 1005   1.983   2.846   2.612  0.5755  0.2771 -0.7331
  336SOL     OW 1006   0.330   0.091   2.783  0.6571 -0.2187  0.6612
  336SOL    HW1 1007   0.412   0.126   2.838  3.0750  0.0175 -1.2070
  336SOL    HW2 1008   0.261   0.048   2.843  2.3424  2.3407 -2.2415
  337SOL     OW 1009   0.791   2.800   3.054 -0.0691  0.0173  0.1815
  337SOL    HW1 1010   0.832   2.714   3.103 -1.7905  0.1311  1.0677
  337SOL    HW2 1011   0.757   2.858   3.129 -0.0433 -0.1176  1.6470
  338SOL     OW 1012   0.074   0.922   0.718  0.1857 -0.0472  0.2248
  338SOL    HW1 1013  -0.027   0.898   0.744 -0.5388 -1.5390  3.2027
  338SOL    HW2 1014   0.097   1.025   0.737  1.0304 -0.8490  0.9166
  339SOL     OW 1015   1.775   1.350   2.130  0.7359 -0.4230 -0.3855
  339SOL    HW1 1016   1.672   1.344   2.119 -1.4078  0.8735  2.1017
  339SOL    HW2 1017   1.808   1.448   2.130  0.7215  2.1214  1.6711
  340SOL     OW 1018   2.310   0.766   1.204 -0.3383 -0.3303  0.3519
  340SOL    HW1 1019   2.226   0.818   1.168 -0.2633 -3.8285 -0.2070
  340SOL    HW2 1020   2.317   0.668   1.165  0.4501 -2.9810 -2.6279
  341SOL     OW 1021   1.930   2.068   0.315 -0.2799 -0.0352  0.1254
  341SOL    HW1 1022   1.992   2.096   0.237  0.6443  0.4903 -0.3252
  341SOL    HW2 1023   1.986   2.045   0.399 -0.2160  1.3023  2.4581
  342SOL     OW 1024   2.089   2.129   2.761 -0.3145 -0.5958 -0.2167
  342SOL    HW1 1025   2.140   2.036   2.768  1.1947 -0.4144 -0.7503
  342SOL    HW2 1026   1.996   2.121   2.713  1.0079 -3.1074  1.0699
  343SOL     OW 1027   0.371   0.852   2.883  0.1537  0.5005 -0.1442
  343SOL    HW1 1028   0.348   0.902   2.792  0.5827  2.4838 -2.6551
  343SOL    HW2 1029   0.468   0.802   2.888 -1.1631 -3.1450 -0.1850
  344SOL     OW 1030   1.914   1.420   0.409  0.1707  0.2689  0.0398
  344SOL    HW1 1031   1.903   1.338   0.349  0.6482  2.6463  0.3715
  344SOL    HW2 1032   1.818   1.454   0.434 -1.1860 -0.0917  0.4818
  345SOL     OW 1033   1.372   2.213   2.798  0.1157  0.3752 -0.4422
  345SOL    HW1 1034   1.268   2.203   2.787 -1.2600 -1.7733  1.2969
  345SOL    HW2 1035   1.439   2.159   2.736 -1.0153  1.2615  0.8662
  346SOL     OW 1036   2.276   0.831   1.474 -0.2698  0.0954 -0.1091
  346SOL    HW1 1037   2.171   0.851   1.470 -0.8267  0.6765  0.9148
  346SOL    HW2 1038   2.309   0.813   1.375  2.6937  1.0756 -1.6479
  347SOL     OW 1039   0.728   2.800   1.759  0.2271 -0.0344  0.8831
  347SOL    HW1 1040   0.802   2.869   1.730  0.5655  1.8920  1.4439
  347SOL    HW2 1041   0.643   2.829   1.710 -1.8671  0.1288 -1.2603
  348SOL     OW 1042   0.170   0.617   2.859 -0.3346 -0.2478 -0.1401
  348SOL    HW1 1043   0.087   0.676   2.833 -0.6286 -0.1310 -0.9615
  348SOL    HW2 1044   0.257   0.650   2.815 -0.1044  1.4466  1.6364
  349SOL     OW 1045   1.854   0.463   2.815  0.3896  0.4939 -0.0641
  349SOL    HW1 1046   1.799   0.539   2.768  0.7231 -2.3466  0.0511
  349SOL    HW2 1047   1.819   0.450   2.914  1.0383 -1.4696 -0.5456
  350SOL     OW 1048   1.754   0.369   0.426 -0.5448  0.4103  0.3472
  350SOL    HW1 1049   1.838   0.333   0.473  1.3987  1.5281 -3.5142
  350SOL    HW2 1050   1.795   0.427   0.349  5.0357 -0.3428 -2.0088
  351SOL     OW 1051   0.953   0.820   2.032  0.5537  0.4929 -0.2259
  351SOL    HW1 1052   0.948   0.925   2.006 -0.6306  0.1865  0.2087
  351SOL    HW2 1053   0.982   0.755   1.958 -0.0217  2.6452  0.3608
  352SOL     OW 1054   2.072   1.497   0.631 -0.0260  0.2120  0.5486
  352SOL    HW1 1055   1.993   1.493   0.563 -1.1576  0.7385 -0.4295
  352SOL    HW2 1056   2.054   1.473   0.728  0.0756 -0.0427 -0.5984
  353SOL     OW 1057   2.169   2.771   1.136 -0.6689  0.7500  0.2599
  353SOL    HW1 1058   2.204   2.682   1.182  1.8999  0.5616  0.8744
  353SOL    HW2 1059   2.097   2.824   1.190  1.6926  3.5185  0.0841
  354SOL     OW 1060   0.243   1.392   2.880 -0.1015 -0.2994 -0.1273
  354SOL    HW1 1061   0.226   1.438   2.789  2.5479  0.5958  1.8633
  354SOL    HW2 1062   0.340   1.393   2.912  0.1548  0.0347 -1.2391
  355SOL     OW 1063   0.740   1.538   0.560  0.0861 -0.5276  0.2177
  355SOL    HW1 1064   0.699   1.567   0.646 -1.3962 -0.8490 -3.1604
  355SOL    HW2 1065   0.677   1.532   0.480  0.3535 -1.1635  1.1198
  356SOL     OW 1066   0.949   0.321   2.079 -0.4599 -0.2536 -0.5980
  356SOL    HW1 1067   1.034   0.264   2.095 -0.4820  0.8516 -0.0646
  356SOL    HW2 1068   0.897   0.286   2.000  0.3025  1.1162 -1.6135
  357SOL     OW 1069   1.011   1.532   0.102 -0.2097  0.1499 -0.3131
  357SOL    HW1 1070   1.024   1.468   0.025 -2.5309  2.5829  0.5190
  357SOL    HW2 1071   1.097   1.569   0.147 -0.3501 -1.4580 -0.6230
  358SOL     OW 1072   1.654   1.487   0.480 -0.3459 -0.2030 -0.3916
  358SOL    HW1 1073   1.659   1.452   0.577 -2.0605  0.5204 -1.2712
  358SOL    HW2 1074   1.583   1.440   0.419 -0.7173  0.7529  0.1879
  359SOL     OW 1075   1.667   2.618   0.182 -0.0034  0.3868 -0.2473
  359SOL    HW1 1076   1.623   2.526   0.181 -1.2414  0.6553  1.3097
  359SOL    HW2 1077   1.601   2.697   0.186 -0.8048  0.7696  0.1303
  360SOL     OW 1078   0.728   0.441   0.560  0.5079 -0.9429  0.0477
  360SOL    HW1 1079   0.640   0.454   0.509 -0.5917 -0.0925  0.3812
  360SOL    HW2 1080   0.762   0.350   0.578  2.3993 -1.8152 -0.0501
  361SOL     OW 1081   1.327   1.318   0.575 -0.1756 -0.4622  0.5076
  361SOL    HW1 1082   1.359   1.361   0.668 -1.5766 -1.5553 -0.8128
  361SOL    HW2 1083   1.230   1.346   0.553  1.8262  0.0990  1.3816
  362SOL     OW 1084   1.386   1.853   0.727 -0.1821 -0.1198 -0.2967
  362SOL    HW1 1085   1.422   1.790   0.802 -0.5831  0.2463  0.6844
  362SOL    HW2 1086   1.453   1.885   0.656 -1.2544 -0.3984 -2.0913
  363SOL     OW 1087   1.310   1.287   1.979  0.6769 -0.1270  0.4089
  363SOL    HW1 1088   1.400   1.286   2.030  0.8719  0.4290 -0.6408
  363SOL    HW2 1089   1.264   1.378   1.986 -0.4974  0.1398  2.3376
  364SOL     OW 1090   0.531   2.406   2.019  0.3258  0.4610 -0.5172
  364SOL    HW1 1091   0.433   2.430   2.012  2.7301 -0.6258 -1.3165
  364SOL    HW2 1092   0.586   2.490   2.044 -0.2624  0.0031  1.2469
  365SOL     OW 1093   0.914   2.018   1.372 -0.0892  0.6872 -0.1420
  365SOL    HW1 1094   0.829   2.060   1.410  0.8845  0.3108  0.2871
  365SOL    HW2 1095   0.937   2.061   1.279  2.4851 -0.0751 -0.8343
  366SOL     OW 1096   2.717   1.890   0.216  0.0494  1.0180 -0.4438
  366SOL    HW1 1097   2.619   1.859   0.204 -0.5752 -0.3326  0.7052
  366SOL    HW2 1098   2.771   1.842   0.289 -1.2878  3.2958  0.1997
  367SOL     OW 1099   0.944   1.142   3.073 -0.5693  0.2775 -0.3478
  367SOL    HW1 1100   0.958   1.071   3.149  0.9498 -1.9692  0.5117
  367SOL    HW2 1101   0.978   1.235   3.107  2.3591 -1.6124  1.6213
  368SOL     OW 1102   1.483   0.462   0.546  0.2261 -0.2271 -0.0868
  368SOL    HW1 1103   1.405   0.451   0.481  3.4735  3.0973  3.9849
  368SOL    HW2 1104   1.560   0.510   0.496 -1.7289 -0.1044  2.2427
  369SOL     OW 1105   0.293   1.659   0.108  0.2199  0.3347 -0.5982
  369SOL    HW1 1106   0.356   1.709   0.167 -1.8120 -0.9738 -2.0523
  369SOL    HW2 1107   0.248   1.582   0.162  0.8646 -0.3469 -2.5467
  370SOL     OW 1108   0.453   2.119   1.000 -0.9849  0.2928 -0.4716
  370SOL    HW1 1109   0.478   2.221   1.001  0.4566 -0.0815 -2.4496
  370SOL    HW2 1110   0.367   2.097   0.952  0.4156 -1.9014  0.9596
  371SOL     OW 1111   2.926   2.166   2.682 -0.2767 -0.1001 -0.2749
  371SOL    HW1 1112   3.015   2.109   2.701 -0.0036 -1.7229  0.0863
  371SOL    HW2 1113   2.924   2.255   2.735 -0.2469  0.8837  2.6351
  372SOL     OW 1114   0.985   2.126   1.119  0.1227  0.1334  0.1766
  372SOL    HW1 1115   0.944   2.163   1.029  1.0779  0.3198 -2.4209
  372SOL    HW2 1116   1.069   2.176   1.145 -2.0544 -1.8073  0.7676
  373SOL     OW 1117   1.906   1.828   0.959 -0.0552 -0.7601 -0.1563
  373SOL    HW1 1118   1.964   1.895   1.018  1.4383 -1.1973  2.8600
  373SOL    HW2 1119   1.874   1.859   0.868  1.3493 -1.4969 -0.0891
  374SOL     OW 1120   1.974   0.260   0.573  0.0328 -0.4350  0.5056
  374SOL    HW1 1121   1.950   0.238   0.674 -0.3265  0.2285 -1.1691
  374SOL    HW2 1122   2.074   0.281   0.565 -0.1427 -0.7670  1.2974
  375SOL     OW 1123   2.394   2.068   1.079 -0.1283 -0.0649 -0.0897
  375SOL    HW1 1124   2.420   2.052   0.978 -2.1058  0.9637  0.7358
  375SOL    HW2 1125   2.474   2.078   1.143 -1.1918  0.6961 -2.1563
  376SOL     OW 1126   0.035   0.563   1.477  0.4861 -0.2859  0.3049
  376SOL    HW1 1127   0.019   0.612   1.568 -1.1164  0.6088  1.0872
  376SOL    HW2 1128  -0.026   0.483   1.449  2.0063 -0.7475 -1.1279
  377SOL     OW 1129   2.306   2.957   0.168 -0.1788  0.2383 -0.2686
  377SOL    HW1 1130   2.265   3.043   0.214  0.7856  2.4079  1.0182
  377SOL    HW2 1131   2.340   2.891   0.239 -2.8700  0.6143  0.4315
  378SOL     OW 1132   1.904   1.863   2.468 -0.1258 -0.5122  0.4400
  378SOL    HW1 1133   1.996   1.818   2.462  0.3011  1.3983 -0.8853
  378SOL    HW2 1134   1.827   1.792   2.472 -0.8133 -2.2928 -1.8952
  379SOL     OW 1135   0.769   0.157   2.790 -0.3868  0.3818  0.3406
  379SOL    HW1 1136   0.798   0.061   2.748 -1.8188  2.3903  1.8435
  379SOL    HW2 1137   0.765   0.235   2.719  1.6100 -0.3817  1.7746
  380SOL     OW 1138   1.508   1.107   0.573 -0.2156  0.1063 -0.0941
  380SOL    HW1 1139   1.451   1.195   0.577 -0.6037  1.7371 -0.1675
  380SOL    HW2 1140   1.445   1.026   0.586  2.9849  0.4315  2.1545
  381SOL     OW 1141   1.282   1.312   1.419  0.4788  0.1585 -0.0383
  381SOL    HW1 1142   1.361   1.251   1.417 -3.2188 -0.6884  1.4371
  381SOL    HW2 1143   1.306   1.408   1.449 -0.6734  1.4852 -1.0793
  382SOL     OW 1144   1.798   0.843   0.275 -0.1327 -0.4248  0.3874
  382SOL    HW1 1145   1.826   0.819   0.177 -2.9176  2.6433  0.1223
  382SOL    HW2 1146   1.877   0.832   0.342  0.9879  2.8313  0.3867
  383SOL     OW 1147   2.525   0.968   1.493 -0.4581  0.5786  0.3500
  383SOL    HW1 1148   2.434   0.931   1.467  2.2443 -1.6327  1.1178
  383SOL    HW2 1149   2.597   0.944   1.425 -0.6896  0.8688 -1.7799
  384SOL     OW 1150   0.961   2.225   0.215  0.2912 -0.3536  0.0836
  384SOL    HW1 1151   0.899   2.306   0.215  0.7390 -2.8048 -1.4008
  384SOL    HW2 1152   0.972   2.196   0.314  2.3195 -1.6769  1.1346
  385SOL     OW 1153   2.879   2.003   1.620 -0.3052 -0.7719  0.4148
  385SOL    HW1 1154   2.972   2.021   1.664  0.5771 -0.3688  1.3480
  385SOL    HW2 1155   2.837   1.920   1.660  2.0921  1.0929 -0.7546
  386SOL     OW 1156   0.489   1.037   0.381 -0.1398 -0.3543 -0.8105
  386SOL    HW1 1157   0.456   0.944   0.395  0.5275  2.5521 -0.1618
  386SOL    HW2 1158   0.408   1.103   0.375 -0.5396  2.2955  2.3655
  387SOL     OW 1159   0.954   0.307   1.650  0.5733  0.4066 -0.1657
  387SOL    HW1 1160   0.982   0.405   1.655  1.5586 -0.7766 -1.2697
  387SOL    HW2 1161   0.934   0.272   1.553 -0.2017  1.6549 -1.9677
  388SOL     OW 1162   1.295   2.723   1.826  0.7703 -0.1002 -0.2636
  388SOL    HW1 1163   1.361   2.709   1.747  0.1300 -1.8026 -0.4026
  388SOL    HW2 1164   1.307   2.652   1.901  0.9301 -0.2810  0.2362
  389SOL     OW 1165   0.098   2.899   1.367 -0.5059  0.1963 -0.2197
  389SOL    HW1 1166   0.041   2.934   1.288 -0.2649  2.1963 -1.2978
  389SOL    HW2 1167   0.147   2.814   1.336  2.8479  1.3741 -0.9652
  390SOL     OW 1168   1.034   0.915   1.302  0.2494  0.0757 -0.7903
  390SOL    HW1 1169   1.118   0.890   1.358  0.3810 -1.4470  0.0444
  390SOL    HW2 1170   0.967   0.976   1.357 -3.8327 -0.6827  0.0834
  391SOL     OW 1171   2.200   1.095   1.097  0.7875 -0.6762 -0.0756
  391SOL    HW1 1172   2.138   1.019   1.131 -1.1183  1.1155  0.7723
  391SOL    HW2 1173   2.247   1.084   1.004  2.6576  0.4685  0.1038
  392SOL     OW 1174   0.961   2.587   0.013  0.4597  0.2439 -0.4748
  392SOL    HW1 1175   1.048   2.546  -0.022  0.6532  0.6309  0.7620
  392SOL    HW2 1176   0.904   2.525   0.075  1.7759  1.3497 -1.0096
  393SOL     OW 1177   0.314   0.642   2.004  0.0001 -0.8534  0.2040
  393SOL    HW1 1178   0.319   0.538   2.006 -0.7148  0.4045 -0.7647
  393SOL    HW2 1179   0.339   0.679   1.912 -1.5639  0.3086 -1.6025
  394SOL     OW 1180   0.005   1.961   2.647 -0.3345  0.2658 -0.2100
  394SOL    HW1 1181   0.068   1.933   2.725 -1.7978  1.5876  4.0246
  394SOL    HW2 1182  -0.037   1.876   2.612  1.6016  0.8215 -0.1467
  395SOL     OW 1183   1.633   1.954   0.617  0.5140 -0.3638  0.2939
  395SOL    HW1 1184   1.683   1.880   0.571 -0.0274 -0.8193  0.0294
  395SOL    HW2 1185   1.666   1.981   0.712 -1.2416  0.0252 -0.7605
  396SOL     OW 1186   2.928   1.931   1.356  0.3707  0.0089 -0.6233
  396SOL    HW1 1187   2.957   1.835   1.357 -0.0934  0.4597 -0.6508
  396SOL    HW2 1188   2.892   1.969   1.447  1.6977  3.0276  0.0550
  397SOL     OW 1189   1.046   2.214   0.482 -0.1007  0.1492 -0.2008
  397SOL    HW1 1190   0.953   2.177   0.518 -1.5087 -0.5505 -0.3725
  397SOL    HW2 1191   1.053   2.314   0.503 -1.2509 -0.5228 -1.9444
  398SOL     OW 1192   2.155   3.097   1.165  0.3384 -0.1843  0.0498
  398SOL    HW1 1193   2.063   3.051   1.174 -0.6538  1.5044 -0.7262
  398SOL    HW2 1194   2.148   3.195   1.135 -2.2226 -2.4064  0.9555
  399SOL     OW 1195   0.012   2.411   2.612  0.2401  0.3569  0.1986
  399SOL    HW1 1196  -0.054   2.334   2.611  4.6813 -0.8875 -0.6710
  399SOL    HW2 1197   0.093   2.390   2.674  0.5591  0.3146  1.0641
  400SOL     OW 1198   0.725   1.712   1.384 -0.0776  0.5249  0.0283
  400SOL    HW1 1199   0.692   1.750   1.471 -1.1083  0.4340 -0.5785
  400SOL    HW2 1200   0.782   1.779   1.333  0.4862  0.1488 -0.5327
  401SOL     OW 1201   1.862   0.347   1.142  0.2156 -0.0597 -0.1136
  401SOL    HW1 1202   1.884   0.351   1.244  2.2403  2.6057  0.6227
  401SOL    HW2 1203   1.758   0.361   1.116 -1.5956  0.9597 -1.1139
  402SOL     OW 1204   1.359   0.282   3.084 -0.0244  0.4469 -0.0444
  402SOL    HW1 1205   1.404   0.209   3.028 -1.2720  2.7697  1.1907
  402SOL    HW2 1206   1.294   0.342   3.031  2.2523 -0.5221 -0.0811
  403SOL     OW 1207   2.235   1.909   0.839  0.3078  0.0517  0.1822
  403SOL    HW1 1208   2.317   1.977   0.817 -0.2580  1.7116  1.9371
  403SOL    HW2 1209   2.190   1.930   0.932 -0.5441 -1.3146  0.4446
  404SOL     OW 1210   0.301   2.527   2.752  0.0598  0.3080  0.0295
  404SOL    HW1 1211   0.374   2.488   2.694  0.3400  2.0489  0.2999
  404SOL    HW2 1212   0.277   2.625   2.732 -1.5466  1.4502  1.8109
  405SOL     OW 1213   0.176   2.415   0.649  0.1599  0.3429 -0.3550
  405SOL    HW1 1214   0.148   2.339   0.581  0.4003  0.9625  1.8997
  405SOL    HW2 1215   0.237   2.493   0.605 -1.5923  0.5171  2.4153
  406SOL     OW 1216   0.071   1.555   3.039  0.3191 -0.3340 -0.0461
  406SOL    HW1 1217   0.139   1.492   2.996 -1.8912 -0.6371  1.3800
  406SOL    HW2 1218   0.096   1.579   3.137 -0.8430  3.0299 -2.6450
  407SOL     OW 1219   1.627   0.877   0.964  0.2803  0.0253  0.7819
  407SOL    HW1 1220   1.618   0.843   0.864  0.1515  0.1479  0.3129
  407SOL    HW2 1221   1.556   0.953   0.989 -2.2049  1.0588  0.6095
  408SOL     OW 1222   1.614   2.448   0.967  0.1123 -0.0052 -0.2887
  408SOL    HW1 1223   1.638   2.411   0.877 -0.6962  1.0235  0.1501
  408SOL    HW2 1224   1.540   2.521   0.957 -2.0466 -0.5753 -0.3989
  409SOL     OW 1225   0.592   0.822   0.692 -0.1411  0.3583  0.3470
  409SOL    HW1 1226   0.548   0.807   0.601  0.7339  0.8665  0.5065
  409SOL    HW2 1227   0.626   0.738   0.741  1.5897  0.6130  1.4953
  410SOL     OW 1228   1.201   2.066   1.437 -0.1022  0.3808 -0.0490
  410SOL    HW1 1229   1.278   2.000   1.464 -1.9037  1.3541  1.2910
  410SOL    HW2 1230   1.114   2.019   1.410 -1.9319 -1.4310 -0.2936
  411SOL     OW 1231   2.553   1.792   2.939  0.2128 -0.1473 -0.4969
  411SOL    HW1 1232   2.613   1.860   2.887 -0.9389 -2.8724 -0.9553
  411SOL    HW2 1233   2.498   1.736   2.872 -1.3479 -0.4957  0.8201
  412SOL     OW 1234   1.503   2.462   2.190 -0.4596  0.3037  0.6106
  412SOL    HW1 1235   1.580   2.491   2.252  1.4989 -0.8206  0.5299
  412SOL    HW2 1236   1.416   2.436   2.239  0.5438 -0.7446 -0.6708
  413SOL     OW 1237   0.010   0.286   2.999 -0.5618  0.0317 -0.5328
  413SOL    HW1 1238  -0.036   0.189   3.007 -2.2777 -2.5528 -1.9857
  413SOL    HW2 1239   0.110   0.289   3.027 -0.8907 -1.4935  0.9383
  414SOL     OW 1240   1.749   1.538   1.111  0.2147  0.4463  0.4235
  414SOL    HW1 1241   1.674   1.587   1.155 -0.0910 -1.6779 -1.2219
  414SOL    HW2 1242   1.758   1.564   1.013  0.3422  1.7799 -2.4401
  415SOL     OW 1243   0.367   2.193   0.641  0.0103  0.1432 -0.3431
  415SOL    HW1 1244   0.374   2.294   0.657 -1.9616 -1.0183 -2.0201
  415SOL    HW2 1245   0.268   2.170   0.634  5.0160  1.0251 -0.6418
  416SOL     OW 1246   0.345   1.081   1.056  0.2780 -0.4928 -0.1472
  416SOL    HW1 1247   0.341   1.000   0.991 -0.7377  0.2873  2.4526
  416SOL    HW2 1248   0.440   1.123   1.058 -1.7787  0.5184 -1.8010
  417SOL     OW 1249   2.304   2.435   2.156 -0.4105  0.2459  0.0113
  417SOL    HW1 1250   2.260   2.339   2.149  1.5057  0.5036  0.8825
  417SOL    HW2 1251   2.269   2.481   2.249  0.5336  1.2785  0.0037
  418SOL     OW 1252   1.063   0.497   1.326  0.7096 -0.5407 -0.5727
  418SOL    HW1 1253   0.996   0.446   1.265  1.1567 -3.3272  4.6223
  418SOL    HW2 1254   1.135   0.548   1.272 -0.1047  1.2726 -0.5872
  419SOL     OW 1255   0.907   0.572   2.984  0.4802  0.4756  0.5115
  419SOL    HW1 1256   0.816   0.579   2.933 -0.1154 -1.0831 -1.0081
  419SOL    HW2 1257   0.938   0.667   2.999 -0.3887 -0.6296 -3.2675
  420SOL     OW 1258   0.086   2.177   0.510 -0.0404 -0.4953 -0.1645
  420SOL    HW1 1259   0.107   2.158   0.405 -0.8400  0.7063  0.8013
  420SOL    HW2 1260   0.024   2.105   0.554  1.2971  0.2388 -0.9146
  421SOL     OW 1261   0.365   2.953   0.558  0.1063 -0.8020  0.0084
  421SOL    HW1 1262   0.345   2.922   0.654  0.6371 -0.2939  0.4659
  421SOL    HW2 1263   0.449   3.014   0.552 -1.7416 -1.7238  0.5158
  422SOL     OW 1264   1.021   2.545   0.960  0.5017  0.0667  0.2658
  422SOL    HW1 1265   1.081   2.605   0.895 -0.0058  0.0512 -1.0974
  422SOL    HW2 1266   1.073   2.509   1.042 -0.5198 -0.8235 -0.1992
  423SOL     OW 1267   0.171   0.644   1.227  0.2117 -0.2166 -0.5774
  423SOL    HW1 1268   0.106   0.602   1.300  1.6390 -0.7386  1.8223
  423SOL    HW2 1269   0.121   0.709   1.167  0.7497 -0.6807  1.1959
  424SOL     OW 1270   1.129   2.172   2.063 -0.0802 -0.2817  0.1311
  424SOL    HW1 1271   1.093   2.267   2.038  0.3962  0.5019 -0.2612
  424SOL    HW2 1272   1.089   2.148   2.157 -2.0478  3.4759  0.1146
  425SOL     OW 1273   1.997   1.261   0.983  0.7455  0.6048 -0.2191
  425SOL    HW1 1274   2.086   1.227   1.016 -0.8476 -1.0923 -0.7469
  425SOL    HW2 1275   1.991   1.360   1.002  0.2343 -1.1927  0.0582
  426SOL     OW 1276   1.468   1.653   1.239 -0.1471  0.0184 -0.1820
  426SOL    HW1 1277   1.469   1.751   1.219 -2.3786 -0.9826  0.3981
  426SOL    HW2 1278   1.413   1.633   1.324  0.4612  0.7266 -1.1807
  427SOL     OW 1279   1.966   2.428   2.096  0.1834 -0.1498 -0.0318
  427SOL    HW1 1280   2.036   2.384   2.155  1.5981 -1.7431  1.8318
  427SOL    HW2 1281   1.965   2.530   2.115 -2.2085  0.4354  0.6277
  428SOL     OW 1282   0.880   3.095   0.036  0.2747 -0.3649  0.1386
  428SOL    HW1 1283   0.917   3.160  -0.035 -1.0242 -1.9008  2.0258
  428SOL    HW2 1284   0.959   3.043   0.078  2.4740  2.1864  1.0588
  429SOL     OW 1285   1.308   0.194   0.232  0.5633  0.2134  0.1225
  429SOL    HW1 1286   1.391   0.182   0.296 -1.0804  0.4593  1.5363
  429SOL    HW2 1287   1.322   0.239   0.142 -0.9815  1.2875 -0.1890
  430SOL     OW 1288   2.938   1.434   0.303 -0.2317 -0.2507 -0.2081
  430SOL    HW1 1289   2.966   1.508   0.243  0.2062 -0.4954  2.1903
  430SOL    HW2 1290   2.928   1.482   0.397 -1.6879 -0.7669  3.7586
  431SOL     OW 1291   2.080   1.540   0.910  0.0424 -0.0509  0.6213
  431SOL    HW1 1292   2.181   1.568   0.904  0.4870 -0.6176  0.2707
  431SOL    HW2 1293   2.016   1.617   0.938 -1.6364 -0.1078 -1.0141
  432SOL     OW 1294   2.938   2.174   1.197  0.1178 -0.0732  0.0422
  432SOL    HW1 1295   2.918   2.087   1.243  0.5115  1.0508 -1.6918
  432SOL    HW2 1296   2.951   2.252   1.264 -1.8406 -1.8938  0.2081
  433SOL     OW 1297   1.878   0.231   0.835  0.3910 -0.3010 -0.0333
  433SOL    HW1 1298   1.807   0.295   0.869 -1.3452 -0.1728  1.2919
  433SOL    HW2 1299   1.956   0.205   0.904  4.0976 -3.0051 -1.1406
  434SOL     OW 1300   1.564   0.267   0.724 -0.0505  0.0631 -0.2564
  434SOL    HW1 1301   1.561   0.348   0.659 -0.9101 -1.5322  0.2573
  434SOL    HW2 1302   1.611   0.279   0.819  0.6264 -2.2260  0.2787
  435SOL     OW 1303   1.499   1.476   2.108  0.4386  0.1209 -0.3313
  435SOL    HW1 1304   1.510   1.503   2.205  0.2713  1.2414  0.2172
  435SOL    HW2 1305   1.517   1.552   2.045  0.2085 -2.9114  1.4645
  436SOL     OW 1306   1.719   2.720   2.273 -0.1274  0.0061  0.1207
  436SOL    HW1 1307   1.646   2.782   2.322  0.3595  2.2762  0.8379
  436SOL    HW2 1308   1.730   2.631   2.322 -1.7644 -0.2174  0.0261
  437SOL     OW 1309   1.143   3.005   0.898 -0.0781  0.9467 -0.2306
  437SOL    HW1 1310   1.051   3.045   0.876 -0.7617  1.0525  0.1206
  437SOL    HW2 1311   1.154   2.970   0.997  0.3330 -0.4747 -1.7264
  438SOL     OW 1312   1.032   2.705   1.534  0.2538  0.0394  0.2263
  438SOL    HW1 1313   1.130   2.700   1.490  0.0386  2.8186  0.6161
  438SOL    HW2 1314   0.971   2.631   1.493  1.4802  1.8551  1.4899
  439SOL     OW 1315   0.702   1.865   1.121 -0.0579 -0.6580  0.2212
  439SOL    HW1 1316   0.702   1.968   1.115  1.4276  0.0540  0.3362
  439SOL    HW2 1317   0.607   1.828   1.126  1.1492  0.4041  1.9424
  440SOL     OW 1318   1.026   2.436   1.979  0.3548 -0.8287 -0.1332
  440SOL    HW1 1319   0.970   2.475   1.902  0.9813  2.1278  1.3454
  440SOL    HW2 1320   1.129   2.452   1.959  0.2570 -0.0017  4.4499
  441SOL     OW 1321   0.418   2.696   1.501  0.1079 -0.2547 -0.6590
  441SOL    HW1 1322   0.483   2.622   1.538  0.7510 -1.8796  1.0891
  441SOL    HW2 1323   0.409   2.695   1.399  2.7939  2.3384 -2.9594
  442SOL     OW 1324   2.236   0.698   2.530 -0.3676  0.2853  0.0524
  442SOL    HW1 1325   2.256   0.604   2.568 -1.8213  0.4526  1.5430
  442SOL    HW2 1326   2.142   0.730   2.557  0.8367 -4.6735  0.3298
  443SOL     OW 1327   1.205   2.671   2.247 -0.1519  0.2379  0.4460
  443SOL    HW1 1328   1.166   2.712   2.334  0.3198 -1.0957  1.2151
  443SOL    HW2 1329   1.234   2.570   2.261 -0.0039 -2.5483  1.8908
  444SOL     OW 1330   1.020   1.305   1.559 -0.1126 -0.6004  0.6181
  444SOL    HW1 1331   1.113   1.271   1.526 -0.6958 -0.2152 -3.7072
  444SOL    HW2 1332   0.999   1.401   1.526  2.3475 -0.0118  2.0641
  445SOL     OW 1333   3.082   2.376   1.907 -0.0361  0.0329 -0.6836
  445SOL    HW1 1334   3.103   2.464   1.856 -0.1582  0.4141 -1.0554
  445SOL    HW2 1335   2.979   2.373   1.931 -2.1382 -0.4609  1.2192
  446SOL     OW 1336   0.178   1.914   2.401  0.1213 -0.4103 -0.4431
  446SOL    HW1 1337   0.180   2.007   2.450  1.9861  2.6428 -1.3382
  446SOL    HW2 1338   0.119   1.911   2.313 -0.0318  0.6169 -2.6754
  447SOL     OW 1339   1.221   1.601   1.921 -0.3415 -0.2581 -0.6574
  447SOL    HW1 1340   1.152   1.675   1.899  2.4216  0.5742 -0.3413
  447SOL    HW2 1341   1.320   1.626   1.912  1.3753  0.0165 -2.9608
  448SOL     OW 1342   0.164   1.565   1.923  0.4626 -0.2067 -0.0985
  448SOL    HW1 1343   0.135   1.660   1.925  2.8532 -2.4620 -3.3651
  448SOL    HW2 1344   0.243   1.538   1.983  0.7851 -0.5191  1.7076
  449SOL     OW 1345   1.995   2.883   0.918  0.0140 -0.6376  0.5486
  449SOL    HW1 1346   2.039   2.853   1.006 -0.1603 -1.2262 -3.2319
  449SOL    HW2 1347   1.944   2.803   0.870 -1.4225  0.2015  0.5564
  450SOL     OW 1348   2.286   1.343   0.940  0.4761  0.1833 -0.1807
  450SOL    HW1 1349   2.303   1.241   0.925  2.0695  0.2090  2.8917
  450SOL    HW2 1350   2.210   1.376   0.881  0.7483  3.4808 -0.2785
  451SOL     OW 1351   1.404   0.003   1.424 -0.6889 -0.4689 -0.3041
  451SOL    HW1 1352   1.304   0.020   1.412 -0.1773  2.5080  1.4216
  451SOL    HW2 1353   1.426  -0.041   1.516 -1.7591 -2.3191 -0.2605
  452SOL     OW 1354   2.669   2.367   2.232 -0.2621 -0.1260 -0.4945
  452SOL    HW1 1355   2.612   2.445   2.246  2.1010 -2.9934 -0.1147
  452SOL    HW2 1356   2.723   2.337   2.318 -1.1557 -0.3124 -2.1709
  453SOL     OW 1357   2.486   2.633   3.059  0.5978 -0.3187 -0.2203
  453SOL    HW1 1358   2.393   2.685   3.068 -1.9968  0.5766  0.2298
  453SOL    HW2 1359   2.478   2.547   3.003 -0.1381  0.0236  1.4520
  454SOL     OW 1360   1.002   1.150   2.039  0.3807  0.9314 -0.1684
  454SOL    HW1 1361   0.998   1.180   1.937  1.0333 -1.2389 -1.2569
  454SOL    HW2 1362   1.087   1.090   2.049  2.2107 -1.1425  0.9737
  455SOL     OW 1363   0.643   2.564   2.908  0.1719 -0.4568  0.1611
  455SOL    HW1 1364   0.697   2.636   2.959  1.1197 -2.0623  0.5670
  455SOL    HW2 1365   0.625   2.484   2.969 -1.4078  2.8361 -1.1138
  456SOL     OW 1366   0.482   1.785   0.267  0.3846 -0.1615  0.1063
  456SOL    HW1 1367   0.550   1.733   0.325  0.5306  3.0231 -2.3625
  456SOL    HW2 1368   0.507   1.885   0.240 -2.6510  3.5483  1.5667
  457SOL     OW 1369   0.385   2.586   0.568  0.3798 -0.1793 -0.1690
  457SOL    HW1 1370   0.406   2.641   0.484  0.0334 -0.6569 -0.0977
  457SOL    HW2 1371   0.465   2.580   0.635 -0.6311  1.1010  0.1916
  458SOL     OW 1372   2.990   2.966   1.197 -0.1172 -0.0240  0.2137
  458SOL    HW1 1373   2.974   3.066   1.178  0.2420 -0.1559  0.9386
  458SOL    HW2 1374   2.961   2.915   1.115  1.9129  1.6623  1.0947
  459SOL     OW 1375   2.171   2.602   0.858 -0.1541 -0.4563  0.4208
  459SOL    HW1 1376   2.209   2.668   0.923  0.2547 -0.3626  0.4936
  459SOL    HW2 1377   2.241   2.574   0.783 -2.6663 -0.8976 -2.4229
  460SOL     OW 1378   1.078   1.965   2.894 -0.3722  0.0580 -0.1709
  460SOL    HW1 1379   1.096   2.031   2.814 -2.3281  0.5381 -2.3787
  460SOL    HW2 1380   1.161   1.901   2.914 -1.2759 -0.5179 -2.1976
  461SOL     OW 1381   0.525   2.134   2.672 -0.2214  0.7858  0.1787
  461SOL    HW1 1382   0.434   2.078   2.672 -1.4159  1.0377  1.0205
  461SOL    HW2 1383   0.581   2.104   2.751  1.2156 -2.9724 -2.1214
  462SOL     OW 1384   0.952   1.152   1.773  0.5377 -0.2216 -0.0097
  462SOL    HW1 1385   0.971   1.050   1.735 -0.5624 -2.4941 -0.8331
  462SOL    HW2 1386   0.948   1.228   1.702  0.9478  0.2669  1.2175
  463SOL     OW 1387   0.443   0.769   0.456 -0.6051  0.4038  0.1175
  463SOL    HW1 1388   0.477   0.675   0.435 -1.3283  1.1804  0.3696
  463SOL    HW2 1389   0.340   0.765   0.484  0.8391 -1.0020  1.5500
  464SOL     OW 1390   0.527   2.242   2.245 -0.2335 -0.0053 -0.0298
  464SOL    HW1 1391   0.437   2.292   2.260 -0.0858  0.1722 -0.1001
  464SOL    HW2 1392   0.574   2.280   2.161 -1.3870 -1.1090  0.2339
  465SOL     OW 1393   0.324   0.879   0.881  0.0028 -0.4284 -0.2457
  465SOL    HW1 1394   0.235   0.858   0.836 -0.3890 -0.2671 -0.3464
  465SOL    HW2 1395   0.398   0.826   0.834 -1.3859  1.5548 -1.4163
  466SOL     OW 1396   1.386   1.097   1.158  0.0117 -0.3403  0.2460
  466SOL    HW1 1397   1.448   1.180   1.145 -0.2461 -0.1024  0.5705
  466SOL    HW2 1398   1.294   1.096   1.112 -0.3879  1.1565 -0.8458
  467SOL     OW 1399   0.517   0.347   2.429  0.7904 -0.7557  0.3112
  467SOL    HW1 1400   0.501   0.428   2.491 -1.1553  2.1753 -0.9327
  467SOL    HW2 1401   0.520   0.264   2.490  1.6890  1.3461  0.1743
  468SOL     OW 1402   0.472   2.270   1.731 -0.4991  0.4390 -0.3313
  468SOL    HW1 1403   0.449   2.346   1.795 -0.5127 -0.3690 -1.0207
  468SOL    HW2 1404   0.452   2.289   1.635 -0.4577 -1.0724  0.1006
  469SOL     OW 1405   1.595   1.287   1.124  0.7406 -0.3895  0.1237
  469SOL    HW1 1406   1.667   1.214   1.128 -2.0857 -0.6961 -1.2891
  469SOL    HW2 1407   1.636   1.381   1.114 -0.4029 -0.1518 -0.0818
  470SOL     OW 1408   3.005   1.604   0.748 -0.3604 -0.3590 -0.7690
  470SOL    HW1 1409   3.099   1.617   0.793  3.0094 -0.3329  0.9938
  470SOL    HW2 1410   2.948   1.688   0.762  1.4672  1.7831 -2.7739
  471SOL     OW 1411   2.573   1.293   2.192 -0.3180 -0.2470  0.0188
  471SOL    HW1 1412   2.566   1.209   2.249 -1.1099  1.0372  0.0085
  471SOL    HW2 1413   2.597   1.375   2.251 -0.9045 -3.4630 -0.7924
  472SOL     OW 1414   1.221   2.442   3.033  0.5564 -0.4925 -0.6915
  472SOL    HW1 1415   1.255   2.469   3.126  0.7722  1.8371 -1.8181
  472SOL    HW2 1416   1.177   2.345   3.037 -2.8116  0.8883 -1.0695
  473SOL     OW 1417   1.088   1.499   0.885  0.5916 -0.2312 -0.0761
  473SOL    HW1 1418   1.004   1.540   0.934  0.2800 -1.2025 -0.0125
  473SOL    HW2 1419   1.173   1.495   0.943  1.9829  1.4446  0.4953
  474SOL     OW 1420   0.736   1.251   0.762 -0.0026  0.1580 -0.0125
  474SOL    HW1 1421   0.710   1.238   0.656 -2.5436  0.0161 -0.9845
  474SOL    HW2 1422   0.829   1.209   0.786  0.3747 -2.1310 -2.7147
  475SOL     OW 1423   2.864   0.013   0.807 -0.1239 -0.4631 -1.2005
  475SOL    HW1 1424   2.947   0.003   0.868  0.5174  0.9071 -1.3022
  475SOL    HW2 1425   2.786   0.052   0.855  2.2339  0.4668 -0.9623
  476SOL     OW 1426   0.935   3.051   1.919 -0.5052 -0.3469 -0.3550
  476SOL    HW1 1427   1.019   3.056   1.977 -0.8446  0.4177 -0.5895
  476SOL    HW2 1428   0.951   3.000   1.830 -0.3264  3.5281  0.1174
  477SOL     OW 1429   1.474   0.347   2.431 -0.2038 -1.1553  0.4061
  477SOL    HW1 1430   1.436   0.335   2.526 -1.1627  2.2557 -1.2553
  477SOL    HW2 1431   1.574   0.325   2.422  0.9248  1.7031  5.1034
  478SOL     OW 1432   2.187   1.831   0.233 -0.5502 -0.7985 -1.1281
  478SOL    HW1 1433   2.109   1.766   0.212  1.9577 -0.7364 -1.1984
  478SOL    HW2 1434   2.283   1.798   0.201  1.1989 -0.8628 -0.6003
  479SOL     OW 1435   1.296   1.137   2.928  0.0784  0.1339  0.1804
  479SOL    HW1 1436   1.381   1.168   2.873 -0.5229 -2.6086  0.5056
  479SOL    HW2 1437   1.215   1.120   2.867  1.4680  3.9584 -2.1395
  480SOL     OW 1438   2.506   2.349   0.459  0.4558  0.2771  0.0465
  480SOL    HW1 1439   2.465   2.265   0.505  1.1349 -2.1939  2.2418
  480SOL    HW2 1440   2.455   2.377   0.373 -1.8115 -1.8947  3.8136
  481SOL     OW 1441   1.056   1.158   0.866 -0.2870 -0.0907  0.5017
  481SOL    HW1 1442   1.055   1.237   0.798  0.0383 -0.0879 -1.6243
  481SOL    HW2 1443   1.053   1.180   0.966 -1.3897 -0.8313  2.2414
  482SOL     OW 1444   1.567   0.274   2.007 -0.6422 -0.0391  0.0097
  482SOL    HW1 1445   1.568   0.379   1.982 -0.6835  0.1958 -0.9666
  482SOL    HW2 1446   1.661   0.239   2.039 -1.6985 -0.1405 -0.6662
  483SOL     OW 1447   0.182   2.352   1.340  0.6634 -0.5021 -0.2144
  483SOL    HW1 1448   0.085   2.362   1.363  0.6252  0.8438 -2.2308
  483SOL    HW2 1449   0.200   2.393   1.245  1.1737  2.4321 -2.0369
  484SOL     OW 1450   1.719   0.949   1.393  0.3220 -0.4121  0.0440
  484SOL    HW1 1451   1.796   0.943   1.466 -0.1999  0.3340 -0.3651
  484SOL    HW2 1452   1.749   1.009   1.313  3.3237 -0.0036  2.6055
  485SOL     OW 1453   0.675   1.120   1.777  0.0448  0.5390 -0.4498
  485SOL    HW1 1454   0.671   1.066   1.690 -0.0555 -2.6562  1.7191
  485SOL    HW2 1455   0.770   1.157   1.799 -1.0760  2.4928  0.3552
  486SOL     OW 1456   0.845   1.952   2.443 -0.6622  0.4901 -0.3500
  486SOL    HW1 1457   0.874   1.906   2.538  1.4273  0.2604  0.7758
  486SOL    HW2 1458   0.776   2.034   2.459 -1.0306  1.5711 -0.9603
  487SOL     OW 1459   1.753   1.593   0.823 -0.8040  0.5103 -0.4010
  487SOL    HW1 1460   1.744   1.502   0.773  1.3323  0.1855  0.2178
  487SOL    HW2 1461   1.816   1.662   0.768  0.6020  0.6417 -1.2050
  488SOL     OW 1462   2.976   0.981   2.208 -0.8237  0.1451 -0.0307
  488SOL    HW1 1463   2.972   0.876   2.217  2.9916 -0.9724 -0.7399
  488SOL    HW2 1464   3.069   1.012   2.198 -0.6494  0.3088 -0.0856
  489SOL     OW 1465   2.777   0.225   1.374 -0.0111  0.3936  0.2919
  489SOL    HW1 1466   2.788   0.225   1.476  1.5550  1.1439  0.7410
  489SOL    HW2 1467   2.864   0.205   1.325 -1.4744  0.1349 -0.8009
  490SOL     OW 1468   1.361   3.014   2.804 -0.6517  0.4580  0.4591
  490SOL    HW1 1469   1.435   2.939   2.797  3.0219 -0.5978 -2.8103
  490SOL    HW2 1470   1.335   3.045   2.710 -2.3375  0.4506 -2.0919
  491SOL     OW 1471   1.861   1.507   2.695 -0.3845 -1.0904  0.5931
  491SOL    HW1 1472   1.853   1.488   2.800  1.7567  0.2743  1.5177
  491SOL    HW2 1473   1.961   1.526   2.681 -0.9151  1.5008  0.6939
  492SOL     OW 1474   0.493   1.946   0.682 -0.0809  0.4936 -0.5705
  492SOL    HW1 1475   0.573   1.956   0.751  0.1650  2.1003  1.7455
  492SOL    HW2 1476   0.459   2.039   0.648 -0.4694 -3.5442 -0.0890
  493SOL     OW 1477   0.516   1.426   2.109  0.1696 -0.1002 -0.8201
  493SOL    HW1 1478   0.427   1.473   2.135  1.1567  0.7120  0.0362
  493SOL    HW2 1479   0.528   1.335   2.155  1.6891  0.7819  0.4494
  494SOL     OW 1480   2.599   2.553   0.199  0.2789  0.0005  0.3693
  494SOL    HW1 1481   2.688   2.512   0.227 -3.0012  1.3221 -1.9850
  494SOL    HW2 1482   2.592   2.580   0.098 -1.4768 -0.0434  0.1769
  495SOL     OW 1483   2.733   2.702   2.689 -0.2227  0.3657  0.0122
  495SOL    HW1 1484   2.719   2.602   2.651  1.6299 -2.5079 -1.6531
  495SOL    HW2 1485   2.734   2.772   2.614 -0.6309 -0.1022  1.2902
  496SOL     OW 1486   2.084   2.193   0.698 -0.5761 -0.6549 -0.1382
  496SOL    HW1 1487   2.155   2.230   0.764  2.6256 -0.5877  1.9931
  496SOL    HW2 1488   2.083   2.094   0.701  0.3740  3.6632 -0.9753
  497SOL     OW 1489   0.243   2.957   2.378 -0.0216 -0.2905 -0.3303
  497SOL    HW1 1490   0.226   3.038   2.445 -0.8569  1.5190  0.1448
  497SOL    HW2 1491   0.290   3.001   2.294  1.7570  3.7982 -0.3485
  498SOL     OW 1492   1.257   1.496   1.108 -0.0294 -0.2848 -0.1951
  498SOL    HW1 1493   1.350   1.518   1.149 -1.7189 -0.5663 -0.3250
  498SOL    HW2 1494   1.185   1.540   1.162  0.8367 -0.4722  0.4872
  499SOL     OW 1495   0.851   1.816   0.495  0.4168 -0.4505  0.4668
  499SOL    HW1 1496   0.812   1.722   0.509  1.5272 -1.1560  3.9394
  499SOL    HW2 1497   0.886   1.853   0.589  1.8861  2.5508  3.7045
  500SOL     OW 1498   1.438   2.969   1.666 -0.1477  0.4365  0.3533
  500SOL    HW1 1499   1.368   2.953   1.736  0.5900 -1.5105  0.2029
  500SOL    HW2 1500   1.490   2.877   1.651  0.6166 -0.1291 -0.2210
  501SOL     OW 1501   0.856   1.115   2.266  0.4190 -0.3417  0.2151
  501SOL    HW1 1502   0.791   1.042   2.269  0.7185 -0.6390  1.5853
  501SOL    HW2 1503   0.893   1.134   2.168 -1.8831 -1.2432 -0.4291
  502SOL     OW 1504   2.574   0.925   1.769  0.1104 -0.7493  0.6297
  502SOL    HW1 1505   2.542   0.949   1.670  0.8226  3.3175 -1.4046
  502SOL    HW2 1506   2.538   0.835   1.801  0.6247 -2.4998 -0.1930
  503SOL     OW 1507   1.324   0.203   0.572  0.6459  0.4080  0.0559
  503SOL    HW1 1508   1.261   0.287   0.574  1.2884  1.2396 -1.3141
  503SOL    HW2 1509   1.404   0.218   0.641 -1.1792  1.5068  2.1000
  504SOL     OW 1510   2.958   2.319   1.425 -0.0302  0.4329  0.4829
  504SOL    HW1 1511   2.953   2.406   1.485  2.7777  3.5035  0.6303
  504SOL    HW2 1512   2.884   2.254   1.449  0.3634  0.4067 -0.0937
  505SOL     OW 1513   2.290   1.279   1.436  0.2111 -0.1374 -0.3733
  505SOL    HW1 1514   2.261   1.368   1.483  0.4060  1.7285 -0.2459
  505SOL    HW2 1515   2.392   1.257   1.449 -1.2168 -0.2253 -0.1868
  506SOL     OW 1516   1.885   0.334   1.757  0.3647 -0.1501  0.4339
  506SOL    HW1 1517   1.974   0.289   1.733  1.7800  0.5096  1.0575
  506SOL    HW2 1518   1.875   0.347   1.855 -0.0572 -2.4776  0.4562
  507SOL     OW 1519   0.526   0.729   2.166  0.2154 -0.4535  0.1622
  507SOL    HW1 1520   0.440   0.712   2.108  1.5624 -1.4216  0.3543
  507SOL    HW2 1521   0.580   0.640   2.164 -1.0292 -2.2968 -1.3825
  508SOL     OW 1522   0.158   1.653   0.837  0.4161  1.0330  0.2304
  508SOL    HW1 1523   0.227   1.707   0.784 -1.0385  0.7374 -1.4519
  508SOL    HW2 1524   0.161   1.659   0.940  2.2928 -1.4425 -3.4713
  509SOL     OW 1525   1.376   1.133   2.536 -0.2233 -0.2948 -0.5092
  509SOL    HW1 1526   1.308   1.210   2.513  1.8654 -3.4296 -3.3232
  509SOL    HW2 1527   1.337   1.044   2.560  2.3974 -1.5437 -1.0027
  510SOL     OW 1528   1.352   1.999   2.019  0.4440 -0.1022 -0.1033
  510SOL    HW1 1529   1.270   2.058   2.039 -0.6737  2.3881  1.7962
  510SOL    HW2 1530   1.341   1.910   2.068 -1.3801  1.5907 -2.7657
  511SOL     OW 1531   3.072   2.603   1.279  0.6942 -0.8773 -0.6111
  511SOL    HW1 1532   3.036   2.575   1.188 -1.2152 -0.9725 -1.9203
  511SOL    HW2 1533   2.999   2.628   1.349  0.0047 -1.4836  0.5861
  512SOL     OW 1534   2.409   0.361   1.441 -0.5426 -0.2282 -0.3529
  512SOL    HW1 1535   2.310   0.362   1.412  1.7152  0.6562  0.1589
  512SOL    HW2 1536   2.461   0.280   1.400  3.1306  0.8445 -4.0096
  513SOL     OW 1537   2.452   2.037   0.807 -0.2695 -0.0589 -0.2986
  513SOL    HW1 1538   2.418   2.127   0.763  0.9671  0.9735 -0.8911
  513SOL    HW2 1539   2.553   2.019   0.786 -0.2234  1.6201  0.9808
  514SOL     OW 1540   0.728   2.803   0.332  0.0534  0.0637 -0.2348
  514SOL    HW1 1541   0.672   2.851   0.257 -3.8196 -1.1841 -2.3644
  514SOL    HW2 1542   0.725   2.858   0.421 -0.4568  1.1471 -0.7623
  515SOL     OW 1543   1.970   1.251   2.341  0.3364  0.1105 -0.3541
  515SOL    HW1 1544   1.893   1.285   2.276 -1.5981 -1.4548  1.0263
  515SOL    HW2 1545   1.919   1.226   2.435 -1.9470 -1.3220  2.5556
  516SOL     OW 1546   0.354   0.382   1.982  0.3709 -0.2897 -0.4284
  516SOL    HW1 1547   0.450   0.357   1.951  2.2846  0.6406  3.8223
  516SOL    HW2 1548   0.277   0.333   1.933  2.5783  2.8821 -0.4808
  517SOL     OW 1549   0.352   3.001   1.204  0.1530  0.1743  0.1202
  517SOL    HW1 1550   0.364   3.103   1.227  1.7319  1.9202 -0.1390
  517SOL    HW2 1551   0.292   2.951   1.276  0.0535  4.1267  1.6116
  518SOL     OW 1552   2.112   0.146   1.750 -0.0433 -0.3900  1.1564
  518SOL    HW1 1553   2.182   0.181   1.818 -1.6366  0.7350  0.2186
  518SOL    HW2 1554   2.151   0.082   1.681  0.8399  1.8379 -0.9845
  519SOL     OW 1555   2.385   2.236   2.631  0.2931  0.0908 -0.3193
  519SOL    HW1 1556   2.315   2.239   2.705  0.7259 -0.2671  3.1710
  519SOL    HW2 1557   2.408   2.329   2.587  2.2713  0.6662 -1.1422
  520SOL     OW 1558   1.746   2.884   1.802  0.4265 -0.1436  0.2873
  520SOL    HW1 1559   1.671   2.864   1.870 -0.0176  1.9171 -0.5497
  520SOL    HW2 1560   1.821   2.817   1.821  0.1267  1.7287 -0.5643
  521SOL     OW 1561   0.607   0.061   2.151 -0.1407 -0.2552  0.1164
  521SOL    HW1 1562   0.512   0.021   2.156  0.8092 -1.1444 -1.6314
  521SOL    HW2 1563   0.668   0.032   2.227 -1.3367  0.4454  0.4701
  522SOL     OW 1564   0.172   1.940   1.530 -0.4998  0.3216  0.0373
  522SOL    HW1 1565   0.247   1.958   1.596 -1.9480  2.6008 -1.9394
  522SOL    HW2 1566   0.203   1.959   1.433 -0.9397 -0.6907 -0.1336
  523SOL     OW 1567   2.282   3.009   1.669  0.6599 -0.3989  0.5768
  523SOL    HW1 1568   2.324   2.918   1.648 -0.2428  0.0172  2.4937
  523SOL    HW2 1569   2.176   3.008   1.671 -1.1156 -2.8673 -2.8201
  524SOL     OW 1570   0.189   2.795   2.790  0.1632  0.6405  0.2020
  524SOL    HW1 1571   0.162   2.875   2.843 -1.7288 -3.7022 -0.6145
  524SOL    HW2 1572   0.289   2.790   2.795 -0.1176  1.2208 -2.5078
  525SOL     OW 1573   2.104   1.919   0.470  0.2947  0.2905  0.4947
  525SOL    HW1 1574   2.144   1.851   0.538  3.8246  4.1092 -0.7847
  525SOL    HW2 1575   2.124   1.894   0.372 -2.1318  0.3444 -1.4649
  526SOL     OW 1576   0.379   1.528   1.555 -0.2991  0.1402  0.6657
  526SOL    HW1 1577   0.323   1.483   1.630  0.4064 -0.7084  1.7846
  526SOL    HW2 1578   0.463   1.468   1.530  0.9631 -1.6051  1.4631
  527SOL     OW 1579   1.150   2.889   1.140  0.0921  0.0537 -0.2457
  527SOL    HW1 1580   1.233   2.841   1.171 -0.9711  0.1179  1.4840
  527SOL    HW2 1581   1.151   2.991   1.173  1.6953 -0.8380 -0.1595
  528SOL     OW 1582   1.304   2.409   0.492  0.4328 -0.1432  0.3814
  528SOL    HW1 1583   1.351   2.319   0.520  1.7016  0.0067  0.3927
  528SOL    HW2 1584   1.352   2.488   0.537 -2.1350  2.8849 -0.3028
  529SOL     OW 1585   1.917   1.747   0.671  0.1479  0.1593 -0.5860
  529SOL    HW1 1586   1.869   1.741   0.579 -0.4437 -0.7009 -1.0077
  529SOL    HW2 1587   2.016   1.782   0.664  1.3460  1.1587 -1.9216
  530SOL     OW 1588   0.340   2.502   0.246 -0.0233 -0.0308  0.4571
  530SOL    HW1 1589   0.344   2.608   0.275  1.6910  0.0210 -0.4986
  530SOL    HW2 1590   0.420   2.440   0.273  2.1031 -0.2081  2.5166
  531SOL     OW 1591   1.889   0.810   0.942 -0.6053  0.2530  0.2420
  531SOL    HW1 1592   1.917   0.827   0.842  3.7787 -1.3029 -0.6505
  531SOL    HW2 1593   1.794   0.840   0.967  1.8905  1.0898 -1.0309
  532SOL     OW 1594   0.451   1.086   0.740 -0.1627 -0.2278  0.0741
  532SOL    HW1 1595   0.466   1.041   0.649 -0.0379  3.5779 -0.7783
  532SOL    HW2 1596   0.423   1.024   0.819 -0.6243  1.5308  0.9649
  533SOL     OW 1597   1.742   0.042   2.582  0.5075  0.5001  0.1681
  533SOL    HW1 1598   1.838   0.001   2.600 -0.1552  0.8930 -0.0032
  533SOL    HW2 1599   1.718   0.120   2.642  0.3103 -0.4725  0.4739
  534SOL     OW 1600   0.386   0.251   1.478  0.5263  0.5736  0.0051
  534SOL    HW1 1601   0.474   0.251   1.532 -1.2637 -0.6818 -1.2393
  534SOL    HW2 1602   0.353   0.345   1.442 -1.1665 -0.7898 -0.7975
  535SOL     OW 1603   1.998   0.302   0.169  0.1824 -0.0687 -0.2607
  535SOL    HW1 1604   2.005   0.389   0.225  0.7996  0.6209  3.6624
  535SOL    HW2 1605   1.987   0.222   0.231  0.1368  2.0274  0.3051
  536SOL     OW 1606   1.392   2.623   0.978  0.3766  0.7070 -0.1731
  536SOL    HW1 1607   1.347   2.577   1.062 -3.3017 -0.7244  4.2002
  536SOL    HW2 1608   1.314   2.642   0.911 -1.2731  1.8739  0.4340
  537SOL     OW 1609   0.910   0.256   2.335  0.0851  0.1937  1.1358
  537SOL    HW1 1610   0.927   0.312   2.247 -0.7269 -2.1132 -0.7845
  537SOL    HW2 1611   0.877   0.160   2.309  0.7587  2.5621  0.0075
  538SOL     OW 1612   1.627   2.354   1.406 -0.2261  0.1564 -0.1324
  538SOL    HW1 1613   1.606   2.262   1.446  1.6975  0.9154 -1.1336
  538SOL    HW2 1614   1.698   2.350   1.335 -2.4218 -0.5101  0.0641
  539SOL     OW 1615   0.165   1.573   2.659 -0.2495 -0.1796  0.4863
  539SOL    HW1 1616   0.068   1.548   2.632 -2.6410 -0.0675  0.1676
  539SOL    HW2 1617   0.171   1.664   2.712  1.4009  0.8419 -1.8105
  540SOL     OW 1618   2.679   1.767   1.958 -0.2828  0.0370  0.4475
  540SOL    HW1 1619   2.623   1.680   1.968  1.3328  1.1883 -0.1258
  540SOL    HW2 1620   2.633   1.855   1.980  0.4248 -4.4048 -3.7813
  541SOL     OW 1621   0.458   2.134   3.058 -0.4327  0.3067  0.6810
  541SOL    HW1 1622   0.483   2.092   3.155  0.5620 -0.9411 -1.0957
  541SOL    HW2 1623   0.355   2.132   3.035 -0.0321 -0.0043  1.5308
  542SOL     OW 1624   2.236   2.595   0.495 -0.6746  0.3478  0.2419
  542SOL    HW1 1625   2.218   2.679   0.555 -3.4719 -0.6740 -0.9501
  542SOL    HW2 1626   2.146   2.539   0.492 -0.1656  0.2827  2.0908
  543SOL     OW 1627   0.968   1.787   1.580 -0.8756  0.0880 -0.5844
  543SOL    HW1 1628   0.972   1.805   1.680  0.8146 -0.1312  0.8915
  543SOL    HW2 1629   0.961   1.875   1.529 -0.6912  0.9613  3.5019
  544SOL     OW 1630   1.133   0.543   0.122 -0.2015 -0.0893 -0.3935
  544SOL    HW1 1631   1.103   0.467   0.180  1.4530  2.3575 -3.2033
  544SOL    HW2 1632   1.156   0.508   0.028 -0.0218  0.0704 -0.9670
  545SOL     OW 1633   1.124   1.772   0.817 -0.6147  0.0119 -0.0062
  545SOL    HW1 1634   1.216   1.813   0.789 -0.0817 -0.2292 -1.0397
  545SOL    HW2 1635   1.126   1.673   0.820 -3.6743  1.5657  1.0312
  546SOL     OW 1636   2.716   1.576   3.023  0.2967 -0.2634  0.1285
  546SOL    HW1 1637   2.680   1.674   3.017 -0.5768  0.6835 -3.4457
  546SOL    HW2 1638   2.635   1.511   3.050 -0.0645  3.0257  3.1689
  547SOL     OW 1639   0.747   3.019   2.598  0.1447 -0.0330  0.4004
  547SOL    HW1 1640   0.773   2.979   2.685 -0.1476  1.4197 -4.3864
  547SOL    HW2 1641   0.673   2.964   2.547 -1.7827 -3.6555 -3.0631
  548SOL     OW 1642   2.009   0.813   0.015 -0.0799 -0.0287  0.7215
  548SOL    HW1 1643   1.907   0.786  -0.007 -1.7688 -0.0793  0.4528
  548SOL    HW2 1644   2.043   0.903  -0.027  0.6557 -0.3051  1.8724
  549SOL     OW 1645   0.694   0.473   0.178  0.5835 -0.5349 -0.2666
  549SOL    HW1 1646   0.645   0.479   0.090  2.0449 -1.8049  0.6494
  549SOL    HW2 1647   0.764   0.543   0.191  0.8819 -2.0898  0.3143
  550SOL     OW 1648   2.597   2.812   2.905 -0.5690  0.1572 -0.4938
  550SOL    HW1 1649   2.551   2.749   2.977  0.3043 -0.5746  3.1291
  550SOL    HW2 1650   2.636   2.761   2.825 -1.0926 -0.2676  0.5727
  551SOL     OW 1651   0.238   0.852   0.250 -0.3345 -0.1157  0.6158
  551SOL    HW1 1652   0.337   0.847   0.209  1.5946 -0.4012 -0.0869
  551SOL    HW2 1653   0.233   0.855   0.357  3.9706 -0.6360 -0.6637
  552SOL     OW 1654   0.606   3.061   1.894 -0.2003  0.2550 -0.1817
  552SOL    HW1 1655   0.601   3.084   1.995 -1.3036 -0.1154 -1.6410
  552SOL    HW2 1656   0.707   3.052   1.858  1.7255  1.4289 -1.7582
  553SOL     OW 1657   3.053   2.410   0.402 -0.5857  0.7996  0.7861
  553SOL    HW1 1658   3.089   2.314   0.413 -1.4524 -0.4447  0.8242
  553SOL    HW2 1659   2.949   2.415   0.433 -0.4105 -0.1656 -2.0401
  554SOL     OW 1660   2.246   0.323   0.594  0.0990 -0.2123 -0.0322
  554SOL    HW1 1661   2.320   0.303   0.525 -0.5724  1.0988  1.3053
  554SOL    HW2 1662   2.221   0.241   0.653  1.7848 -1.3877 -1.6544
  555SOL     OW 1663   0.468   2.810   2.549 -0.2774  0.3123  0.6928
  555SOL    HW1 1664   0.416   2.878   2.494  0.5267 -2.1662  1.9761
  555SOL    HW2 1665   0.514   2.741   2.490  3.3455 -0.4313  0.1311
  556SOL     OW 1666   0.816   2.359   1.599 -0.2041  0.1900  0.3563
  556SOL    HW1 1667   0.833   2.412   1.684 -2.5702  0.0302 -2.0752
  556SOL    HW2 1668   0.861   2.404   1.514  1.7181 -0.4069 -0.7776
  557SOL     OW 1669   0.093   2.172   0.233 -0.4385 -0.3914 -0.7416
  557SOL    HW1 1670   0.028   2.106   0.181 -0.2055 -1.1867  0.9529
  557SOL    HW2 1671   0.106   2.262   0.175 -3.9066 -1.3735  0.8758
  558SOL     OW 1672   2.831   2.131   0.382  0.3396 -0.7800  0.0598
  558SOL    HW1 1673   2.791   2.195   0.456 -4.2522  0.0364  3.2779
  558SOL    HW2 1674   2.790   2.136   0.288  1.8002 -0.5459 -1.9493
  559SOL     OW 1675   0.427   2.299   1.428 -0.0242  0.8939 -0.0887
  559SOL    HW1 1676   0.323   2.314   1.407 -0.1473 -1.2732 -1.9051
  559SOL    HW2 1677   0.472   2.232   1.368 -0.7422  1.2261 -1.1444
  560SOL     OW 1678   2.165   1.077   0.045 -0.0103  0.6838  0.0018
  560SOL    HW1 1679   2.222   1.106   0.127 -3.8308  1.4633  0.8895
  560SOL    HW2 1680   2.221   1.041  -0.034 -2.2406  0.4092  2.1844
  561SOL     OW 1681   3.022   1.977   0.122  0.0643 -0.2367 -0.4237
  561SOL    HW1 1682   2.966   2.027   0.191  0.7496  1.3146  3.2254
  561SOL    HW2 1683   2.969   1.966   0.034 -0.4211 -0.3330 -1.1590
  562SOL     OW 1684   1.007   2.119   2.304 -0.1773  0.3643  0.2060
  562SOL    HW1 1685   0.996   2.215   2.332  0.8517  0.3026 -0.5077
  562SOL    HW2 1686   0.925   2.058   2.334 -0.9772 -1.9665  3.1166
  563SOL     OW 1687   0.705   2.488   2.652  0.3477  0.3302  0.6473
  563SOL    HW1 1688   0.793   2.437   2.634  1.7562 -0.5440 -0.7430
  563SOL    HW2 1689   0.694   2.534   2.743  0.1474  0.6820 -0.5403
  564SOL     OW 1690   2.872   1.376   2.896 -0.1598 -0.1443  0.0465
  564SOL    HW1 1691   2.816   1.457   2.940 -0.7402  1.1256  2.5949
  564SOL    HW2 1692   2.948   1.407   2.838  0.6474 -0.9389 -1.3816
  565SOL     OW 1693   2.493   1.979   2.648 -0.5967  0.9318  0.0226
  565SOL    HW1 1694   2.432   2.059   2.651  1.2449  0.7555 -0.5133
  565SOL    HW2 1695   2.590   1.993   2.682 -0.5787 -1.4750  0.9777
  566SOL     OW 1696   2.038   2.921   1.558  0.4509 -0.1969  0.6540
  566SOL    HW1 1697   1.970   2.847   1.574  3.9461  1.5345  0.2234
  566SOL    HW2 1698   2.093   2.897   1.477 -0.9940 -0.5785  3.1106
  567SOL     OW 1699   2.388   0.039   2.316  0.5974  0.0886  0.6319
  567SOL    HW1 1700   2.327   0.106   2.363 -0.2912 -1.2133 -1.0369
  567SOL    HW2 1701   2.353   0.018   2.219 -1.6238  0.3383 -1.3622
  568SOL     OW 1702   1.493   1.764   0.174  0.3446  0.4857 -0.0917
  568SOL    HW1 1703   1.433   1.847   0.156 -0.1997  2.5021 -2.6282
  568SOL    HW2 1704   1.585   1.799   0.209  2.0441  1.6905 -0.3522
  569SOL     OW 1705   0.217   0.542   0.835  0.6591  0.2325 -0.3203
  569SOL    HW1 1706   0.222   0.458   0.771  1.6834 -0.8870  1.7708
  569SOL    HW2 1707   0.118   0.557   0.862  0.6348 -0.0012  2.7291
  570SOL     OW 1708   0.650   0.788   2.895  0.1018 -0.6693 -0.7005
  570SOL    HW1 1709   0.671   0.831   2.804  0.7766 -0.8473  1.8893
  570SOL    HW2 1710   0.674   0.852   2.973 -0.7545  0.7248  0.4743
  571SOL     OW 1711   0.798   3.023   1.118  0.1626 -0.5792  0.1702
  571SOL    HW1 1712   0.875   3.088   1.096 -0.2393  0.0855  1.8953
  571SOL    HW2 1713   0.829   2.926   1.094 -0.8882 -1.3700  0.9367
  572SOL     OW 1714   1.653   2.735   1.373 -0.5913  0.2075 -0.9530
  572SOL    HW1 1715   1.746   2.705   1.331 -0.6983 -1.1122  2.5800
  572SOL    HW2 1716   1.588   2.780   1.304 -1.3055 -0.1574 -3.8014
  573SOL     OW 1717   3.047   0.487   1.948 -0.2433  0.6080  0.4577
  573SOL    HW1 1718   2.974   0.418   1.967 -0.8814  1.3365  0.7414
  573SOL    HW2 1719   3.117   0.456   1.882 -2.3088  0.3953  4.8415
  574SOL     OW 1720   0.141   1.695   1.120  0.4789  0.5176 -0.4626
  574SOL    HW1 1721   0.208   1.705   1.198  1.6728 -0.4556 -1.0384
  574SOL    HW2 1722   0.085   1.782   1.098  1.2135  0.6319 -1.8395
  575SOL     OW 1723   0.836   2.296   0.937 -0.0293 -0.9244  0.0277
  575SOL    HW1 1724   0.829   2.344   1.029  0.9015  2.0475  2.6560
  575SOL    HW2 1725   0.858   2.370   0.866 -1.7380  0.7421  1.2442
  576SOL     OW 1726   2.929   3.056   1.670  0.1806  0.3978  0.1166
  576SOL    HW1 1727   2.838   3.038   1.622 -3.4984  1.1197 -0.3578
  576SOL    HW2 1728   2.965   3.148   1.659 -1.1929 -2.1948  0.0784
  577SOL     OW 1729   2.632   1.181   3.053  0.0750 -0.8353 -0.0890
  577SOL    HW1 1730   2.668   1.102   2.998 -2.2460  0.4075 -0.6534
  577SOL    HW2 1731   2.684   1.194   3.143 -1.7620  1.6352  0.4788
  578SOL     OW 1732   1.399   2.746   2.565  0.4993  0.1144 -0.3441
  578SOL    HW1 1733   1.306   2.765   2.519  0.8465  0.2288 -0.8908
  578SOL    HW2 1734   1.473   2.807   2.523  2.3716 -0.0978  0.7415
  579SOL     OW 1735   0.063   2.457   0.141  0.1205 -0.3834  0.1883
  579SOL    HW1 1736   0.036   2.482   0.237 -0.0493 -0.5070  1.3417
  579SOL    HW2 1737   0.160   2.480   0.129 -2.1472  2.6611 -1.7800
  580SOL     OW 1738   0.988   2.726   0.323  0.5608 -0.1880 -0.9346
  580SOL    HW1 1739   1.051   2.725   0.241  0.2935  0.7737 -0.6192
  580SOL    HW2 1740   0.889   2.755   0.302  0.5494  2.5452 -0.1988
  581SOL     OW 1741   1.259   2.704   1.392 -0.3870 -0.4188 -0.0186
  581SOL    HW1 1742   1.313   2.624   1.437  1.0178 -1.3161  2.6716
  581SOL    HW2 1743   1.325   2.773   1.354 -0.3985 -0.3913 -0.1096
  582SOL     OW 1744   1.435   0.128   1.839  0.6358  0.1075 -0.0190
  582SOL    HW1 1745   1.492   0.172   1.919  0.5073  1.8947  1.2892
  582SOL    HW2 1746   1.501   0.097   1.764  3.0892 -0.9456 -0.4826
  583SOL     OW 1747   2.498   2.981   0.528 -0.2643 -0.5216  0.7121
  583SOL    HW1 1748   2.567   2.949   0.460 -0.1027 -0.6757  1.9946
  583SOL    HW2 1749   2.429   2.905   0.548  2.4288 -1.1049 -0.3178
  584SOL     OW 1750   1.452   1.023   2.272 -0.5289 -0.3618  0.4438
  584SOL    HW1 1751   1.425   1.046   2.371 -0.6985  2.0842 -1.8277
  584SOL    HW2 1752   1.548   0.988   2.254 -1.8502 -0.1017 -0.9701
  585SOL     OW 1753   2.053   2.651   2.869  0.0092 -0.2109  0.2605
  585SOL    HW1 1754   2.104   2.567   2.892 -2.8079  0.7597  1.6192
  585SOL    HW2 1755   1.956   2.617   2.848  1.9237  0.4008  1.5717
  586SOL     OW 1756   2.883   0.385   1.628  0.4033 -0.5068  0.7330
  586SOL    HW1 1757   2.852   0.477   1.664 -0.6133  3.7036  1.9426
  586SOL    HW2 1758   2.821   0.310   1.660  3.1403 -0.0043 -3.4116
  587SOL     OW 1759   2.129   1.487   2.721 -0.2987  0.2763 -0.0773
  587SOL    HW1 1760   2.130   1.424   2.639  1.1006  2.2691 -1.4063
  587SOL    HW2 1761   2.221   1.493   2.760  1.6523  0.5514  0.1476
  588SOL     OW 1762   0.419   2.663   2.186 -0.3088 -0.3082 -0.4218
  588SOL    HW1 1763   0.427   2.750   2.129 -0.8096  2.2101 -0.6119
  588SOL    HW2 1764   0.353   2.598   2.136  2.3635  1.7172 -0.4655
  589SOL     OW 1765   2.167   1.384   2.471  0.3893  0.2900 -0.0610
  589SOL    HW1 1766   2.103   1.337   2.407  1.5750 -0.5649  1.2950
  589SOL    HW2 1767   2.265   1.351   2.464  1.2658 -3.1924 -1.6201
  590SOL     OW 1768   2.308   1.697   2.048 -0.0602  0.2863 -0.0810
  590SOL    HW1 1769   2.391   1.636   2.033 -0.8330 -1.1654  0.6470
  590SOL    HW2 1770   2.307   1.741   2.145 -3.1266  3.4304 -3.2907
  591SOL     OW 1771   1.293   2.435   0.211  0.6924  0.0298  0.1244
  591SOL    HW1 1772   1.310   2.349   0.162 -0.0747  0.9757  2.8611
  591SOL    HW2 1773   1.292   2.415   0.316  0.0076  0.6455  2.8565
  592SOL     OW 1774   1.790   2.338   0.782  0.0741  0.3584  0.0756
  592SOL    HW1 1775   1.766   2.387   0.696  1.2722 -0.7324  2.9385
  592SOL    HW2 1776   1.877   2.368   0.831  0.1773 -0.9262  1.6521
  593SOL     OW 1777   0.789   0.213   0.221  0.0116 -0.7034 -0.0670
  593SOL    HW1 1778   0.816   0.154   0.139 -0.5053 -1.5193  0.3123
  593SOL    HW2 1779   0.760   0.309   0.195  1.1874 -0.4188 -0.3522
  594SOL     OW 1780   0.950   1.822   2.707 -0.1526  0.2270  0.2279
  594SOL    HW1 1781   1.038   1.777   2.669 -1.5647  3.0146 -0.7666
  594SOL    HW2 1782   0.971   1.894   2.776 -0.7402 -0.4281 -3.1584
  595SOL     OW 1783   1.547   0.078   1.034 -0.5462 -0.4109  0.0062
  595SOL    HW1 1784   1.621   0.009   1.062 -1.2710  1.1432  3.6643
  595SOL    HW2 1785   1.481   0.045   0.958 -0.1976 -0.0328 -1.1111
  596SOL     OW 1786   0.250   1.502   2.187  0.6599  0.1989 -0.4221
  596SOL    HW1 1787   0.153   1.510   2.160 -3.0952  1.8536  0.9689
  596SOL    HW2 1788   0.272   1.545   2.282  1.3759 -1.6428  0.9285
  597SOL     OW 1789   1.942   2.710   1.805 -0.6295  0.3765 -0.4623
  597SOL    HW1 1790   1.937   2.709   1.703  1.0869  1.6310  1.6911
  597SOL    HW2 1791   2.016   2.639   1.839 -0.6407 -0.2220  1.2017
  598SOL     OW 1792   2.507   2.776   1.263 -0.3514  0.2003  0.2962
  598SOL    HW1 1793   2.610   2.776   1.244 -0.9744 -0.4602 -1.0288
  598SOL    HW2 1794   2.466   2.681   1.262  0.4056  1.3421 -0.8363
  599SOL     OW 1795   2.896   0.297   2.524  0.0916 -0.2400  0.7025
  599SOL    HW1 1796   2.994   0.295   2.484 -1.4128 -1.6541 -0.3211
  599SOL    HW2 1797   2.827   0.368   2.489  1.5395  0.7203 -1.2175
  600SOL     OW 1798   2.725   1.208   2.734 -0.1835  0.0723 -0.2983
  600SOL    HW1 1799   2.623   1.229   2.729 -0.5387 -0.7481  1.6393
  600SOL    HW2 1800   2.774   1.278   2.792  1.4513  0.4637 -0.2970
  601SOL     OW 1801   3.026   1.373   1.867  0.1283 -0.2051 -0.4910
  601SOL    HW1 1802   2.943   1.413   1.815 -0.9776  0.2637  1.8078
  601SOL    HW2 1803   3.083   1.451   1.903 -1.7348  0.3753  0.9560
  602SOL     OW 1804   1.462   1.578   2.350 -0.5665  0.1264 -0.3570
  602SOL    HW1 1805   1.376   1.546   2.399 -0.8328  1.0369 -0.7177
  602SOL    HW2 1806   1.530   1.623   2.418  0.8401 -1.6142  3.6686
  603SOL     OW 1807   0.591   1.155   2.758  0.2348  0.0718 -0.4694
  603SOL    HW1 1808   0.520   1.192   2.688 -0.4579 -0.8454  0.5569
  603SOL    HW2 1809   0.610   1.057   2.731 -0.7261 -1.3920  1.0670
  604SOL     OW 1810   2.537   0.977   0.232 -0.0643 -0.3160 -0.2988
  604SOL    HW1 1811   2.628   1.026   0.219  3.3177 -1.0124  0.2917
  604SOL    HW2 1812   2.507   0.915   0.153 -1.1896 -2.2620 -0.9422
  605SOL     OW 1813   2.555   1.171   1.911 -0.2164 -0.1528 -0.0496
  605SOL    HW1 1814   2.571   1.078   1.867  0.6663  1.0291  1.4221
  605SOL    HW2 1815   2.584   1.171   2.009 -0.5475  1.6302 -1.7196
  606SOL     OW 1816   1.476   2.468   2.555  0.4854  0.4386  0.3147
  606SOL    HW1 1817   1.423   2.555   2.551  0.6980 -0.9439  0.2336
  606SOL    HW2 1818   1.424   2.374   2.549  1.2613 -0.3794 -0.4277
  607SOL     OW 1819   1.259   1.613   0.254 -0.5367  0.4022 -0.3593
  607SOL    HW1 1820   1.198   1.691   0.288  0.1222 -2.8170 -1.9493
  607SOL    HW2 1821   1.345   1.654   0.216 -3.2486 -0.5816  4.0035
  608SOL     OW 1822   1.449   2.878   0.356  0.0681  0.3378 -0.1941
  608SOL    HW1 1823   1.480   2.897   0.259  1.3896 -0.0463 -0.1177
  608SOL    HW2 1824   1.388   2.949   0.397  0.4301 -0.1423 -2.3378
  609SOL     OW 1825   1.239   1.329   0.217 -0.1000  0.9401  0.4787
  609SOL    HW1 1826   1.228   1.415   0.266  0.1058 -2.2567  0.1946
  609SOL    HW2 1827   1.207   1.340   0.118  0.9042  0.7975  1.2535
  610SOL     OW 1828   3.060   1.216   2.095 -0.2765  0.1025 -0.2160
  610SOL    HW1 1829   2.987   1.142   2.119  0.5541  0.1429  4.2827
  610SOL    HW2 1830   3.023   1.281   2.020  0.4749  2.5177 -3.1720
  611SOL     OW 1831   2.587   0.198   1.174 -0.2789 -0.0103 -0.1288
  611SOL    HW1 1832   2.536   0.116   1.211  1.3350  2.5144  0.9905
  611SOL    HW2 1833   2.676   0.213   1.224  0.0260 -2.3100 -1.2219
  612SOL     OW 1834   0.762   2.406   1.174  0.3454  0.2034 -0.2750
  612SOL    HW1 1835   0.690   2.333   1.201 -1.1049 -0.4310  0.2575
  612SOL    HW2 1836   0.726   2.502   1.192 -2.1542  0.2152  0.7739
  613SOL     OW 1837   0.773   1.353   2.397 -0.2056  0.5107 -0.1950
  613SOL    HW1 1838   0.798   1.435   2.337 -1.0475 -0.9953 -0.6331
  613SOL    HW2 1839   0.787   1.261   2.347 -1.7700 -0.0270  0.5736
  614SOL     OW 1840   1.510   1.696   1.920 -0.4661  0.2569 -1.1103
  614SOL    HW1 1841   1.491   1.779   1.858  1.2785 -1.4964 -0.7786
  614SOL    HW2 1842   1.594   1.711   1.981  2.9428  0.0825  2.2311
  615SOL     OW 1843   0.735   1.424   1.692  0.6726 -0.4774  0.0233
  615SOL    HW1 1844   0.648   1.381   1.650 -3.1240 -2.2462 -0.2191
  615SOL    HW2 1845   0.803   1.443   1.617 -2.9860  2.3706 -0.4629
  616SOL     OW 1846   1.091   1.653   2.172 -0.6463  0.0372 -0.3587
  616SOL    HW1 1847   0.988   1.650   2.194  0.3565 -1.4180 -0.2052
  616SOL    HW2 1848   1.118   1.620   2.076 -2.2131  1.8090  2.1455
  617SOL     OW 1849   2.939   1.556   1.594  0.0364 -0.5821 -0.2188
  617SOL    HW1 1850   2.866   1.515   1.658  2.4501 -1.0175  1.7187
  617SOL    HW2 1851   2.972   1.492   1.519  1.0333 -1.4276  1.0740
  618SOL     OW 1852   1.868   2.024   1.525 -0.2727 -0.1926 -0.2011
  618SOL    HW1 1853   1.884   1.970   1.437 -1.9779 -1.2702 -1.3233
  618SOL    HW2 1854   1.858   1.968   1.608  1.5774  2.3684 -2.4852
  619SOL     OW 1855   1.792   0.517   2.430 -0.0021 -0.0205  0.4595
  619SOL    HW1 1856   1.716   0.563   2.379 -3.4585 -1.6098  2.7019
  619SOL    HW2 1857   1.786   0.416   2.414 -0.4037 -1.1154 -0.3371
  620SOL     OW 1858   2.243   2.853   0.681  0.4104  0.5848 -0.8081
  620SOL    HW1 1859   2.161   2.913   0.690 -0.1322  3.7893 -0.7658
  620SOL    HW2 1860   2.288   2.845   0.777  1.6145 -0.9880  0.9168
  621SOL     OW 1861   2.121   1.914   1.333 -0.1096 -0.7517 -0.5827
  621SOL    HW1 1862   2.128   1.900   1.441  1.0118 -2.9519 -1.7454
  621SOL    HW2 1863   2.157   1.835   1.281 -1.3461  0.3330  2.3425
  622SOL     OW 1864   2.181   0.926   1.743 -0.0578  0.2853 -0.1964
  622SOL    HW1 1865   2.172   0.856   1.663  0.4413 -0.1537  0.7752
  622SOL    HW2 1866   2.115   0.920   1.823 -1.6196 -2.0477 -2.1274
  623SOL     OW 1867   1.263   0.857   2.544 -0.2976 -0.8068  0.1664
  623SOL    HW1 1868   1.211   0.805   2.615 -3.1922  2.1082  0.7626
  623SOL    HW2 1869   1.230   0.851   2.446  1.0416  1.2157 -1.4157
  624SOL     OW 1870   0.522   0.609   3.065 -0.1565 -0.9542 -0.1176
  624SOL    HW1 1871   0.579   0.643   2.988  0.9809  0.0631 -1.3329
  624SOL    HW2 1872   0.496   0.678   3.133 -1.8566 -0.2489  0.2634
  625SOL     OW 1873   2.827   1.801   0.823  0.4681  0.1656  0.5049
  625SOL    HW1 1874   2.816   1.848   0.914 -1.8480  0.3297  1.5538
  625SOL    HW2 1875   2.738   1.752   0.793 -0.6543  1.0288  3.3503
  626SOL     OW 1876   0.450   2.841   1.986  0.2324  0.1665 -0.6386
  626SOL    HW1 1877   0.496   2.931   1.956 -1.9201  1.8528 -3.3778
  626SOL    HW2 1878   0.366   2.822   1.923 -0.8758  2.0129  0.2836
  627SOL     OW 1879   0.694   0.929   1.593 -0.4567 -1.0255  0.3812
  627SOL    HW1 1880   0.717   0.841   1.646 -0.4156  0.1887  0.0141
  627SOL    HW2 1881   0.779   0.971   1.549  2.6766 -0.9869 -3.2560
  628SOL     OW 1882   2.433   0.109   0.645 -0.1477 -0.2469  0.1173
  628SOL    HW1 1883   2.467   0.019   0.604  1.5138  0.5760 -3.2465
  628SOL    HW2 1884   2.352   0.105   0.710 -0.9902 -0.0527 -1.3405
  629SOL     OW 1885   2.020   0.941   1.961 -0.0885  0.0219  0.2574
  629SOL    HW1 1886   2.072   0.963   2.043 -3.6735 -0.8735  0.2317
  629SOL    HW2 1887   1.961   1.022   1.930 -1.1453  0.4217  0.3037
  630SOL     OW 1888   2.830   2.243   0.820 -0.5881 -0.7014  0.4877
  630SOL    HW1 1889   2.755   2.286   0.869 -2.0029 -0.1102 -0.3234
  630SOL    HW2 1890   2.804   2.159   0.770 -0.0728  2.8807  0.9460
  631SOL     OW 1891   3.049   0.230   2.168 -0.0892  0.6576  0.0768
  631SOL    HW1 1892   3.084   0.263   2.261 -2.1593  0.6715 -0.3291
  631SOL    HW2 1893   3.116   0.243   2.092 -0.4441 -2.7403  3.6450
  632SOL     OW 1894   2.418   2.541   0.695 -0.2241  0.6374 -0.2860
  632SOL    HW1 1895   2.501   2.575   0.751 -0.7474 -1.9716 -2.8876
  632SOL    HW2 1896   2.422   2.563   0.592  1.0128  1.4704 -3.3423
  633SOL     OW 1897   1.583   1.252   2.718  0.0694  0.0892  0.1435
  633SOL    HW1 1898   1.540   1.330   2.779 -0.4771  1.2913 -1.3969
  633SOL    HW2 1899   1.524   1.226   2.634  0.2139  0.9305  0.2544
  634SOL     OW 1900   0.718   2.055   0.885  0.0104 -0.3710  0.2249
  634SOL    HW1 1901   0.619   2.069   0.916  2.5936 -0.3141 -1.0977
  634SOL    HW2 1902   0.771   2.149   0.889  1.2431  2.0790  0.1810
  635SOL     OW 1903   3.045   2.262   3.057 -0.3067  0.6147 -0.0987
  635SOL    HW1 1904   3.005   2.308   2.975  1.0016 -2.2375  0.6164
  635SOL    HW2 1905   3.078   2.332   3.125 -3.4662  1.4915 -1.9798
  636SOL     OW 1906   2.322   2.815   1.966  0.1163 -0.3474  0.1839
  636SOL    HW1 1907   2.344   2.917   1.967 -0.9002  1.5054 -0.3128
  636SOL    HW2 1908   2.285   2.781   2.059 -0.8792 -2.2131 -2.6971
  637SOL     OW 1909   2.538   0.725   2.085 -0.5884  0.2765 -0.1706
  637SOL    HW1 1910   2.531   0.706   1.982 -1.0345 -0.9070 -1.4293
  637SOL    HW2 1911   2.604   0.799   2.108 -0.5017 -0.8972  2.3119
  638SOL     OW 1912   2.419   1.897   1.367  0.1292  0.2390  0.1004
  638SOL    HW1 1913   2.324   1.936   1.363 -0.1630  1.8655  0.6493
  638SOL    HW2 1914   2.452   1.848   1.276  0.5630 -3.8099 -3.1086
  639SOL     OW 1915   1.257   2.230   1.634 -0.1439 -0.2371  0.3848
  639SOL    HW1 1916   1.248   2.175   1.549 -1.2704  0.1519  2.3340
  639SOL    HW2 1917   1.178   2.208   1.696  0.0212 -0.1278 -0.7008
  640SOL     OW 1918   0.228   1.131   1.536  0.0376  0.1479 -0.1245
  640SOL    HW1 1919   0.229   1.209   1.603 -0.8867 -0.2086 -1.5456
  640SOL    HW2 1920   0.321   1.087   1.521 -0.9422  1.1171 -0.3369
  641SOL     OW 1921   1.870   0.307   1.417  0.0323 -0.1916 -0.3277
  641SOL    HW1 1922   1.818   0.393   1.442 -0.5562 -1.0635 -0.3535
  641SOL    HW2 1923   1.826   0.215   1.452 -1.4927 -0.5486  2.4181
  642SOL     OW 1924   1.994   0.080   0.333  0.1878 -0.2036  0.1299
  642SOL    HW1 1925   2.089   0.040   0.333  1.5728 -0.8939  1.1199
  642SOL    HW2 1926   1.974   0.141   0.419 -0.8084  0.4771  0.5679
  643SOL     OW 1927   2.895   1.891   2.078  0.6899  0.3316 -0.6837
  643SOL    HW1 1928   2.823   1.837   2.023  1.5451 -0.1826 -0.8613
  643SOL    HW2 1929   2.897   1.986   2.037 -1.3230  1.0499  1.9345
  644SOL     OW 1930   2.204   2.292   1.139  0.4150  0.6945  0.1894
  644SOL    HW1 1931   2.282   2.236   1.107 -0.2544  1.9616 -2.3655
  644SOL    HW2 1932   2.189   2.273   1.237 -0.1828  0.3671 -0.6315
  645SOL     OW 1933   0.626   0.918   1.151 -0.1848  0.4145  0.3637
  645SOL    HW1 1934   0.543   0.858   1.160 -1.3791  2.9264 -2.9088
  645SOL    HW2 1935   0.611   0.983   1.072 -1.1118  2.0800  0.5384
  646SOL     OW 1936   1.447   1.922   1.794  0.2301  0.1858 -0.3728
  646SOL    HW1 1937   1.518   1.991   1.776  0.1124 -3.3413 -0.8973
  646SOL    HW2 1938   1.399   1.955   1.878 -2.1005 -1.4608 -1.1474
  647SOL     OW 1939   0.872   0.882   0.657  0.0700  0.7218 -0.3193
  647SOL    HW1 1940   0.957   0.897   0.717 -0.8937  1.9166 -2.2412
  647SOL    HW2 1941   0.792   0.857   0.720 -0.0227  0.9383  2.1753
  648SOL     OW 1942   0.067   0.219   0.332 -0.0227 -0.2014 -0.1962
  648SOL    HW1 1943   0.035   0.129   0.297  0.6278  2.3953 -0.0203
  648SOL    HW2 1944   0.027   0.300   0.276  1.6683  1.5360 -2.8809
  649SOL     OW 1945   3.071   0.050   0.968 -0.4225 -0.0507 -0.2557
  649SOL    HW1 1946   3.148  -0.012   0.948 -2.6865  0.2151 -1.5841
  649SOL    HW2 1947   3.093   0.146   0.992 -3.5635  1.2207 -2.0318
  650SOL     OW 1948   2.682   0.702   1.463  0.0825 -0.2082  0.0211
  650SOL    HW1 1949   2.591   0.691   1.504  0.6869  1.7748  0.0284
  650SOL    HW2 1950   2.688   0.781   1.396  0.1297  0.6954  0.8050
  651SOL     OW 1951   0.900   1.531   1.486 -0.1803 -0.2329  0.5505
  651SOL    HW1 1952   0.937   1.628   1.512  0.8551 -1.7286  3.1562
  651SOL    HW2 1953   0.819   1.540   1.424 -2.3924  0.4845 -0.1985
  652SOL     OW 1954   2.198   2.547   2.374  0.0738 -0.2038  0.3841
  652SOL    HW1 1955   2.139   2.551   2.456 -0.0276  1.4093  0.9542
  652SOL    HW2 1956   2.211   2.635   2.325 -1.1962 -4.5436  1.4791
  653SOL     OW 1957   2.773   1.147   0.209  0.6073  0.5920 -0.0923
  653SOL    HW1 1958   2.839   1.203   0.141 -0.6642  1.7244  0.3119
  653SOL    HW2 1959   2.819   1.080   0.266 -1.1257  2.7126 -1.4423
  654SOL     OW 1960   1.222   2.238   1.217  0.1647  0.2093 -1.0485
  654SOL    HW1 1961   1.241   2.174   1.296  0.3315 -1.3793 -2.2291
  654SOL    HW2 1962   1.296   2.221   1.146 -0.8982  0.4534 -0.4497
  655SOL     OW 1963   0.205   1.036   1.909 -0.2909 -0.0224 -0.4242
  655SOL    HW1 1964   0.251   0.983   1.832  0.1308  2.8065 -0.3897
  655SOL    HW2 1965   0.254   1.120   1.926 -0.2890 -2.0902 -0.7223
  656SOL     OW 1966   2.442   2.479   2.534  0.2330  0.2159 -0.1028
  656SOL    HW1 1967   2.521   2.533   2.506 -0.9296  0.9757  1.0396
  656SOL    HW2 1968   2.359   2.517   2.487 -1.8300 -2.8002 -0.5092
  657SOL     OW 1969   3.041   1.083   1.810  0.1804  0.0836 -0.4555
  657SOL    HW1 1970   3.021   1.186   1.825 -0.3257 -1.4078  1.0869
  657SOL    HW2 1971   3.138   1.061   1.836 -0.5655 -0.5789 -3.9767
  658SOL     OW 1972   1.731   0.230   2.383 -0.2088 -0.4517 -0.3735
  658SOL    HW1 1973   1.749   0.141   2.445 -1.3748 -1.8416 -1.9757
  658SOL    HW2 1974   1.768   0.211   2.292  0.3799  1.3929 -0.1888
  659SOL     OW 1975   1.439   0.607   2.814  0.1160 -0.6039  0.2002
  659SOL    HW1 1976   1.524   0.645   2.767  0.3272 -0.2907 -0.6507
  659SOL    HW2 1977   1.356   0.665   2.786  0.2808 -2.1359 -2.2886
  660SOL     OW 1978   1.388   0.384   1.407  0.6796  0.0947 -0.0199
  660SOL    HW1 1979   1.422   0.430   1.487 -0.7918 -1.0158 -2.3853
  660SOL    HW2 1980   1.452   0.315   1.364  1.2185 -1.5742  0.9324
  661SOL     OW 1981   2.437   1.122   0.608  0.1622  0.6688 -0.4766
  661SOL    HW1 1982   2.483   1.043   0.556  0.2442 -1.0546  0.7747
  661SOL    HW2 1983   2.355   1.169   0.559 -1.0363  0.4593 -0.5780
  662SOL     OW 1984   1.335   0.455   1.894  0.6883 -0.1327  0.3489
  662SOL    HW1 1985   1.284   0.366   1.867 -0.3400 -0.4371  2.4738
  662SOL    HW2 1986   1.304   0.485   1.994 -0.5251 -1.6572 -0.3337
  663SOL     OW 1987   0.820   1.577   2.198  0.3439  0.0625 -0.3338
  663SOL    HW1 1988   0.782   1.666   2.220 -0.1608 -1.0895  1.8999
  663SOL    HW2 1989   0.791   1.535   2.107 -0.2681 -0.1781  3.0959
  664SOL     OW 1990   1.599   2.074   1.433 -0.1583 -0.4223  0.3021
  664SOL    HW1 1991   1.539   2.003   1.477  1.5313  0.4057  0.6809
  664SOL    HW2 1992   1.703   2.064   1.460  2.3754 -1.8373 -0.2972
  665SOL     OW 1993   2.176   0.637   1.994 -0.0749 -0.0727 -0.3256
  665SOL    HW1 1994   2.211   0.604   2.087  0.1589  1.4831 -0.5141
  665SOL    HW2 1995   2.073   0.647   1.998  1.0567 -0.5526 -1.7786
  666SOL     OW 1996   0.560   2.265   0.412 -0.4752  0.6292 -0.5070
  666SOL    HW1 1997   0.585   2.353   0.460  1.6985 -0.2535 -1.3899
  666SOL    HW2 1998   0.475   2.220   0.455 -3.2141 -1.2980 -0.7421
  667SOL     OW 1999   2.102   0.234   1.043 -0.0679  0.7283  0.4027
  667SOL    HW1 2000   2.163   0.317   1.060 -0.3717  3.9178  2.4316
  667SOL    HW2 2001   2.007   0.261   1.078  2.1345  0.9031 -1.2069
  668SOL     OW 2002   2.051   0.552   1.254  0.5859 -0.4119  0.1063
  668SOL    HW1 2003   2.133   0.536   1.190  2.7709  0.8926 -1.4913
  668SOL    HW2 2004   2.066   0.499   1.340  2.7078 -1.2578 -2.2270
  669SOL     OW 2005   3.090   2.270   0.964  0.9484 -0.5705 -0.4921
  669SOL    HW1 2006   3.006   2.262   0.909  1.2843 -1.8304  2.4930
  669SOL    HW2 2007   3.081   2.234   1.057  0.5614 -0.4664  0.7785
  670SOL     OW 2008   2.825   2.403   1.999  0.4891  0.3104 -0.1585
  670SOL    HW1 2009   2.776   2.387   2.090 -0.1591 -1.4737 -0.0012
  670SOL    HW2 2010   2.796   2.492   1.951 -2.0008 -0.6426  1.3490
  671SOL     OW 2011   1.639   1.747   1.458 -0.2124 -0.1051  0.4283
  671SOL    HW1 2012   1.645   1.739   1.356 -0.3128  0.7472  0.2760
  671SOL    HW2 2013   1.561   1.809   1.484  2.1860 -3.7453  0.5824
  672SOL     OW 2014   0.420   0.722   2.451 -0.0781  0.8068 -0.2354
  672SOL    HW1 2015   0.417   0.733   2.350  0.1495  1.8080  0.7883
  672SOL    HW2 2016   0.349   0.777   2.493 -0.1657  0.8885  1.2177
  673SOL     OW 2017   0.136   1.207   1.138 -0.3230 -0.4647 -0.1339
  673SOL    HW1 2018   0.150   1.291   1.201 -0.4655  1.6483  2.1105
  673SOL    HW2 2019   0.226   1.157   1.115  0.0510 -1.8361  2.3369
  674SOL     OW 2020   1.606   2.950   0.110 -0.2944  0.2510  0.0115
  674SOL    HW1 2021   1.614   3.055   0.110  1.8748 -1.2370  0.1880
  674SOL    HW2 2022   1.679   2.900   0.054  0.5128 -1.3503 -0.7746
  675SOL     OW 2023   1.696   0.892   2.322 -0.9307  0.6742 -0.0253
  675SOL    HW1 2024   1.799   0.895   2.306 -0.3701  1.9340 -1.2506
  675SOL    HW2 2025   1.658   0.795   2.297 -0.9420 -0.8397 -0.3643
  676SOL     OW 2026   2.529   1.514   1.961 -0.1096  0.1382  0.1239
  676SOL    HW1 2027   2.496   1.519   1.860  2.6593  1.8484 -3.1345
  676SOL    HW2 2028   2.524   1.418   1.999  0.9989  0.1517 -1.4104
  677SOL     OW 2029   1.923   0.526   0.949  0.1377  0.0423 -0.3338
  677SOL    HW1 2030   1.932   0.625   0.981 -3.0824 -0.4669 -1.3915
  677SOL    HW2 2031   1.889   0.458   1.027 -1.9244 -4.3425  0.8211
  678SOL     OW 2032   0.085   0.737   1.723  0.0885  0.3660 -0.1105
  678SOL    HW1 2033   0.182   0.771   1.719 -0.4099  3.0124  0.7702
  678SOL    HW2 2034   0.021   0.789   1.783 -1.5122 -0.5696  0.5307
  679SOL     OW 2035   2.518   1.130   1.138  0.3578  0.7245  0.0366
  679SOL    HW1 2036   2.425   1.174   1.116  0.0863 -1.7985 -0.7113
  679SOL    HW2 2037   2.542   1.048   1.082  0.6017  0.4291  1.3443
  680SOL     OW 2038   2.803   0.648   1.707 -0.6577 -0.1575 -0.0633
  680SOL    HW1 2039   2.747   0.673   1.624  0.3165 -0.3331  1.2209
  680SOL    HW2 2040   2.857   0.727   1.750 -2.1839  3.0592 -0.8867
  681SOL     OW 2041   3.092   0.184   1.673 -0.0535 -0.1188 -0.0802
  681SOL    HW1 2042   3.149   0.159   1.590  0.0301 -0.9886  2.2225
  681SOL    HW2 2043   3.031   0.264   1.659  0.2361  0.9437 -1.2271
  682SOL     OW 2044   0.743   3.070   1.395  0.3300  0.2971  0.3062
  682SOL    HW1 2045   0.674   3.016   1.451 -1.1842 -0.6414  4.9425
  682SOL    HW2 2046   0.758   3.033   1.299 -0.0203  0.0867 -1.8367
  683SOL     OW 2047   1.386   0.222   2.217 -0.0878 -0.4345 -0.0069
  683SOL    HW1 2048   1.406   0.262   2.315  1.5897  0.8047  2.5401
  683SOL    HW2 2049   1.411   0.290   2.140 -0.0611 -1.6553 -1.0768
  684SOL     OW 2050   1.465   2.124   0.478 -0.1694  0.0670  0.2073
  684SOL    HW1 2051   1.517   2.056   0.538  2.4912  1.3229 -0.1201
  684SOL    HW2 2052   1.374   2.088   0.440  1.3658 -0.4966 -2.1063
  685SOL     OW 2053   2.123   1.949   1.977 -0.6160 -0.3037 -0.3927
  685SOL    HW1 2054   2.180   2.014   1.918  0.1824  0.1161  1.7055
  685SOL    HW2 2055   2.177   1.867   2.004  0.8339  1.2602 -0.2721
  686SOL     OW 2056   1.499   1.730   2.719  0.0056 -0.3322 -0.3397
  686SOL    HW1 2057   1.592   1.709   2.678 -1.2347  4.1311 -0.0553
  686SOL    HW2 2058   1.494   1.720   2.821 -0.4475  0.7541 -2.5696
  687SOL     OW 2059   1.358   2.490   1.951 -0.2436 -0.2458  0.4106
  687SOL    HW1 2060   1.392   2.413   1.888 -2.1803  1.7906  1.3736
  687SOL    HW2 2061   1.400   2.498   2.048  2.1151  1.8364  0.1182
  688SOL     OW 2062   2.030   1.510   1.557 -0.3429  0.4010  0.9066
  688SOL    HW1 2063   2.114   1.564   1.532 -0.7884  0.2506  0.1816
  688SOL    HW2 2064   1.999   1.461   1.471  0.9895 -0.5397  0.5832
  689SOL     OW 2065   2.450   1.071   2.788 -0.5314 -0.0964  0.0798
  689SOL    HW1 2066   2.353   1.034   2.807  2.9055 -0.7923 -1.3427
  689SOL    HW2 2067   2.516   1.021   2.845 -1.8475  2.1313 -2.1761
  690SOL     OW 2068   2.245   2.764   3.059  0.5532 -0.6437  0.5175
  690SOL    HW1 2069   2.153   2.745   3.005  1.2864  0.1713 -4.3691
  690SOL    HW2 2070   2.237   2.825   3.141  2.4779 -1.2425  0.9933
  691SOL     OW 2071   2.608   0.488   2.183 -0.0872 -0.3084  0.1990
  691SOL    HW1 2072   2.660   0.439   2.107  0.6798 -0.3521 -0.7862
  691SOL    HW2 2073   2.574   0.580   2.150 -1.1782 -0.2301 -0.4256
  692SOL     OW 2074   2.712   1.136   0.695 -0.0571 -0.2699 -0.0261
  692SOL    HW1 2075   2.617   1.137   0.650  2.8835 -3.8056  1.4946
  692SOL    HW2 2076   2.745   1.232   0.721  2.3014  1.4010 -3.8695
  693SOL     OW 2077   2.830   2.933   0.612  0.1643 -0.0567 -0.0500
  693SOL    HW1 2078   2.833   3.019   0.673  1.7993  2.6907 -1.0386
  693SOL    HW2 2079   2.800   2.952   0.517  2.2972  0.4863  1.4553
  694SOL     OW 2080   2.407   2.204   0.089  0.0225 -0.1693  0.3260
  694SOL    HW1 2081   2.371   2.288   0.146 -3.5684  2.2941  3.0827
  694SOL    HW2 2082   2.328   2.144   0.061  0.4470  1.7052  1.6203
  695SOL     OW 2083   0.553   2.955   1.558  0.0238  0.4206  0.9266
  695SOL    HW1 2084   0.494   2.887   1.505  0.4169 -0.7462  0.5539
  695SOL    HW2 2085   0.502   3.018   1.617 -0.3097 -1.4538 -1.0919
  696SOL     OW 2086   2.738   2.021   0.691 -0.1566  0.6101 -0.4513
  696SOL    HW1 2087   2.781   1.937   0.741  3.9336  1.4928  1.8929
  696SOL    HW2 2088   2.685   1.990   0.607  1.0364  1.5815 -0.7431
  697SOL     OW 2089   1.710   2.092   1.803  0.3623  0.4053  1.1683
  697SOL    HW1 2090   1.747   2.005   1.842  1.0201  0.2456  1.7121
  697SOL    HW2 2091   1.780   2.169   1.804  1.6550 -1.9113 -0.3844
  698SOL     OW 2092   2.909   0.360   2.813  0.1638 -0.2935 -0.6876
  698SOL    HW1 2093   2.915   0.321   2.717 -0.1877  0.3346  1.2401
  698SOL    HW2 2094   2.987   0.340   2.883 -1.6473 -0.8066  2.9713
  699SOL     OW 2095   1.508   0.091   2.939 -0.3166 -0.3749  0.1018
  699SOL    HW1 2096   1.460   0.018   2.884  2.2015  1.3361 -2.1358
  699SOL    HW2 2097   1.565   0.156   2.878 -0.3842 -1.1578 -0.6618
  700SOL     OW 2098   0.954   2.461   1.362 -0.4185 -0.0779 -0.1858
  700SOL    HW1 2099   1.044   2.451   1.316 -3.6205 -1.4207 -1.1283
  700SOL    HW2 2100   0.876   2.425   1.303 -0.8690  2.0047 -3.4875
  701SOL     OW 2101   1.832   2.860   3.062 -0.0191 -0.5080  0.2377
  701SOL    HW1 2102   1.871   2.807   3.141  1.1311 -0.8598 -2.4189
  701SOL    HW2 2103   1.847   2.963   3.067  0.6098  0.1124  0.5184
  702SOL     OW 2104   2.111   1.371   1.811  0.0022 -0.0325 -0.3402
  702SOL    HW1 2105   2.193   1.309   1.782 -2.8206  0.1531  1.3944
  702SOL    HW2 2106   2.076   1.435   1.733 -2.4370  1.8370 -1.3463
  703SOL     OW 2107   2.000   0.879   1.456 -0.2988 -0.2876 -0.2758
  703SOL    HW1 2108   1.979   0.814   1.536 -1.8108  1.1690 -1.0551
  703SOL    HW2 2109   2.012   0.982   1.479  0.2648  1.1510  1.7393
  704SOL     OW 2110   0.344   2.036   1.727 -0.0806 -0.0859 -0.0222
  704SOL    HW1 2111   0.389   1.994   1.804 -0.8963  0.1178 -0.6306
  704SOL    HW2 2112   0.389   2.128   1.707  0.2144  0.9360 -1.9859
  705SOL     OW 2113   2.508   1.469   0.882 -0.0261  0.8803  0.1394
  705SOL    HW1 2114   2.417   1.421   0.891  1.0952 -1.1093 -1.1055
  705SOL    HW2 2115   2.589   1.405   0.885  0.6203 -1.9326  0.6420
  706SOL     OW 2116   0.642   1.740   1.864 -0.2556  0.6830 -0.2141
  706SOL    HW1 2117   0.685   1.646   1.883  0.2414 -0.2124  0.5323
  706SOL    HW2 2118   0.702   1.817   1.893 -1.5170 -0.0410 -2.3990
  707SOL     OW 2119   2.314   1.182   1.762 -1.0099 -0.3816  0.5507
  707SOL    HW1 2120   2.385   1.182   1.837 -2.0301 -0.2422 -1.4110
  707SOL    HW2 2121   2.280   1.088   1.740 -2.3392  0.5152  3.1432
  708SOL     OW 2122   3.017   0.545   3.039  0.2486  0.2107 -0.3758
  708SOL    HW1 2123   3.038   0.595   2.950  1.3352  4.2084 -1.5809
  708SOL    HW2 2124   3.042   0.442   3.021 -1.4113 -2.2883  0.0265
  709SOL     OW 2125   1.742   1.882   0.206 -0.2260  0.1950  0.6106
  709SOL    HW1 2126   1.789   1.960   0.248  1.8638 -2.5396  3.3213
  709SOL    HW2 2127   1.758   1.881   0.102 -2.0549  2.3972 -0.2776
  710SOL     OW 2128   1.732   1.633   2.471 -0.5237 -0.1458 -0.7080
  710SOL    HW1 2129   1.781   1.588   2.386 -0.8409 -1.4376  1.1068
  710SOL    HW2 2130   1.787   1.606   2.557  1.4343 -0.2284 -1.6719
  711SOL     OW 2131   2.668   2.885   0.941  0.8640  0.6902 -0.0508
  711SOL    HW1 2132   2.635   2.981   0.919 -0.6046 -0.9308  0.2157
  711SOL    HW2 2133   2.771   2.882   0.964  0.0271  4.1531 -0.3770
  712SOL     OW 2134   1.479   2.285   1.837 -0.2681 -0.0943  0.2872
  712SOL    HW1 2135   1.568   2.232   1.853  0.0066  0.0839  1.5393
  712SOL    HW2 2136   1.404   2.224   1.803  3.0828 -0.1263  0.3320
  713SOL     OW 2137   2.880   1.278   2.454 -0.0290  0.1851 -0.7039
  713SOL    HW1 2138   2.891   1.200   2.390  2.4029  3.6593 -0.5687
  713SOL    HW2 2139   2.844   1.247   2.547  2.1298 -1.7097 -1.8503
  714SOL     OW 2140   2.667   0.437   2.445  0.2039 -0.6288  0.2708
  714SOL    HW1 2141   2.599   0.390   2.509 -0.3697  0.8011  1.3108
  714SOL    HW2 2142   2.637   0.444   2.345 -1.8003 -0.1132 -0.5613
  715SOL     OW 2143   1.604   2.086   1.154 -0.4073 -0.2380  0.3655
  715SOL    HW1 2144   1.551   2.166   1.119  0.8092  0.5703 -0.7567
  715SOL    HW2 2145   1.602   2.078   1.256 -1.0063 -4.8452 -2.0660
  716SOL     OW 2146   1.175   0.173   1.451  0.1981  0.5567 -0.4022
  716SOL    HW1 2147   1.071   0.172   1.473 -0.3023  0.8521  2.0430
  716SOL    HW2 2148   1.229   0.262   1.472  0.1587  3.0133  1.4044
  717SOL     OW 2149   1.096   0.535   1.599  0.1487  0.0166 -0.0216
  717SOL    HW1 2150   1.190   0.578   1.613  0.6714  0.5458  0.8467
  717SOL    HW2 2151   1.076   0.517   1.499 -0.3987  0.0683  2.3915
  718SOL     OW 2152   0.607   1.183   1.021 -0.0297  0.3285  0.1049
  718SOL    HW1 2153   0.657   1.198   0.931 -0.2560 -1.6058 -0.9410
  718SOL    HW2 2154   0.659   1.207   1.108  1.4087  0.2917  0.7898
  719SOL     OW 2155   0.709   1.809   2.249  0.1651  0.0471  0.5167
  719SOL    HW1 2156   0.772   1.833   2.324 -1.6245  0.8750  0.2203
  719SOL    HW2 2157   0.613   1.849   2.275  0.0419  0.6125 -0.9276
  720SOL     OW 2158   2.296   1.166   0.274 -0.2345  0.7245  0.3443
  720SOL    HW1 2159   2.398   1.144   0.281  2.6057  0.6359 -0.8981
  720SOL    HW2 2160   2.249   1.201   0.361 -3.3945 -1.4154  2.4201
  721SOL     OW 2161   2.302   3.088   2.054  0.0567  0.6833  0.0018
  721SOL    HW1 2162   2.300   3.159   1.977 -0.2008 -0.1347 -0.2536
  721SOL    HW2 2163   2.202   3.056   2.076 -2.2267  0.8537 -1.4727
  722SOL     OW 2164   2.441   1.713   0.502 -0.0597 -0.2681 -0.4447
  722SOL    HW1 2165   2.442   1.654   0.417 -1.0272  3.0107  1.2554
  722SOL    HW2 2166   2.347   1.717   0.547  0.4516 -1.2884 -1.2088
  723SOL     OW 2167   2.590   2.845   1.876 -0.3794 -0.4934 -0.3389
  723SOL    HW1 2168   2.639   2.898   1.953 -0.8592 -1.2393 -0.3484
  723SOL    HW2 2169   2.489   2.835   1.889 -0.3458  2.3470  0.8067
  724SOL     OW 2170   0.304   2.386   2.333  0.0954  0.0084 -0.7794
  724SOL    HW1 2171   0.222   2.456   2.339 -0.4182  3.4148 -0.6428
  724SOL    HW2 2172   0.368   2.395   2.417 -0.9039 -1.0495 -1.3306
  725SOL     OW 2173   2.360   2.794   1.494 -0.1007  0.0660  0.5766
  725SOL    HW1 2174   2.416   2.785   1.407 -2.4169 -0.3803  3.3594
  725SOL    HW2 2175   2.329   2.705   1.524  6.4113  1.3689 -1.8578
  726SOL     OW 2176   2.381   2.270   0.697 -0.0017 -0.5123 -0.1224
  726SOL    HW1 2177   2.407   2.374   0.696 -1.3150  1.4745 -1.4787
  726SOL    HW2 2178   2.322   2.243   0.618 -3.4920 -1.4063 -0.3280
  727SOL     OW 2179   0.237   3.097   0.118  0.3069 -0.0220  0.0154
  727SOL    HW1 2180   0.269   3.013   0.066 -4.8176 -0.5350 -2.7273
  727SOL    HW2 2181   0.279   3.183   0.077  0.4114  0.1079 -0.6614
  728SOL     OW 2182   2.800   0.671   1.037 -0.1274  0.2270 -0.2334
  728SOL    HW1 2183   2.734   0.638   0.957  0.9541 -0.1792 -3.1869
  728SOL    HW2 2184   2.792   0.623   1.128  0.6635 -1.1935 -0.1666
  729SOL     OW 2185   2.998   2.475   0.739  0.8344  0.8320  0.4221
  729SOL    HW1 2186   2.957   2.383   0.770  1.9666 -0.6158  1.2170
  729SOL    HW2 2187   3.093   2.460   0.701 -2.5417  0.9296  1.9339
  730SOL     OW 2188   2.627   0.583   0.860  0.2634 -0.1981  0.0930
  730SOL    HW1 2189   2.572   0.662   0.812  0.6486 -0.1302 -0.9983
  730SOL    HW2 2190   2.693   0.542   0.793 -2.7967 -0.4322 -1.6756
  731SOL     OW 2191   0.204   2.158   2.495  0.1356  0.0460  0.5699
  731SOL    HW1 2192   0.174   2.179   2.598 -3.3824  0.1372  1.6609
  731SOL    HW2 2193   0.207   2.240   2.433 -1.4032 -2.3041 -1.6511
  732SOL     OW 2194   1.123   2.815   2.019  0.0985 -0.9877  0.0211
  732SOL    HW1 2195   1.149   2.757   2.102 -1.8276 -1.0911  2.3786
  732SOL    HW2 2196   1.163   2.780   1.929  4.2510  1.5013 -0.2683
  733SOL     OW 2197   3.033   0.714   2.123  0.4612 -0.1465  0.0864
  733SOL    HW1 2198   3.120   0.770   2.118 -0.4915  1.1906  2.4887
  733SOL    HW2 2199   3.041   0.621   2.081  0.7803 -0.5583  2.2449
  734SOL     OW 2200   1.384   0.351   2.697 -0.0051 -0.2622  0.1042
  734SOL    HW1 2201   1.397   0.440   2.750  0.4487 -0.9737  2.8012
  734SOL    HW2 2202   1.290   0.306   2.701  4.1928  0.5642  0.4064
  735SOL     OW 2203   2.818   2.676   2.304  0.0658  0.0789 -0.1791
  735SOL    HW1 2204   2.738   2.695   2.243  3.3076  1.3904  0.2774
  735SOL    HW2 2205   2.903   2.666   2.246 -1.3278 -0.5704 -0.6481
  736SOL     OW 2206   0.782   0.348   2.568 -0.7043 -0.4758 -0.0037
  736SOL    HW1 2207   0.724   0.431   2.553  0.1731  3.0604 -0.2107
  736SOL    HW2 2208   0.816   0.312   2.475 -0.5566  2.2223 -1.0707
  737SOL     OW 2209   2.650   0.410   2.891  0.2182 -0.2451 -0.6121
  737SOL    HW1 2210   2.630   0.437   2.987  0.8728  3.7776 -1.4684
  737SOL    HW2 2211   2.746   0.381   2.876 -0.6858 -0.1426 -0.5492
  738SOL     OW 2212   1.665   1.101   0.030 -0.0107 -0.3702 -0.5062
  738SOL    HW1 2213   1.763   1.104  -0.008 -0.7369  1.1799  3.9917
  738SOL    HW2 2214   1.624   1.008   0.041 -1.5476  3.2310 -0.8887
  739SOL     OW 2215   1.819   0.567   0.690 -0.2572  0.0333 -0.1150
  739SOL    HW1 2216   1.827   0.552   0.793  0.0581  1.4775  2.0279
  739SOL    HW2 2217   1.879   0.496   0.639 -0.1786  1.9672 -2.1004
  740SOL     OW 2218   1.941   2.065   2.161  0.7772  0.2557 -0.1251
  740SOL    HW1 2219   1.990   2.001   2.091  0.7098 -1.0114 -0.7203
  740SOL    HW2 2220   1.840   2.048   2.168 -0.1048 -0.7763  2.5457
  741SOL     OW 2221   2.562   0.019   2.558 -0.0239  0.1902  0.0782
  741SOL    HW1 2222   2.666   0.021   2.577  1.4777 -1.8240  0.1108
  741SOL    HW2 2223   2.540   0.045   2.459 -0.7620  2.3311  2.7906
  742SOL     OW 2224   2.255   1.397   0.121 -0.1433 -0.4677  0.4521
  742SOL    HW1 2225   2.163   1.444   0.120 -0.9090  1.1501  1.7320
  742SOL    HW2 2226   2.243   1.308   0.167  1.7498  0.7702  1.0281
  743SOL     OW 2227   1.725   0.645   2.649 -0.1556 -0.1347 -0.3548
  743SOL    HW1 2228   1.761   0.584   2.576  1.5542  0.0268  1.6368
  743SOL    HW2 2229   1.646   0.702   2.607  1.7090 -2.1420  0.9782
  744SOL     OW 2230   2.671   2.144   0.169 -1.0889  0.1086  0.0431
  744SOL    HW1 2231   2.579   2.181   0.149  4.3200  0.7795  0.3510
  744SOL    HW2 2232   2.680   2.040   0.174 -0.2057  1.8904 -1.5428
  745SOL     OW 2233   2.188   2.763   2.198 -0.4252  0.4257 -0.2646
  745SOL    HW1 2234   2.091   2.745   2.164  2.0992  1.4588  5.3620
  745SOL    HW2 2235   2.195   2.854   2.248  0.5305  2.5752 -0.1687
  746SOL     OW 2236   0.004   2.635   1.813 -0.1898  0.0637  0.6470
  746SOL    HW1 2237   0.098   2.635   1.775  0.0836 -1.5437  1.7024
  746SOL    HW2 2238  -0.031   2.727   1.843 -0.4430  2.3537  0.3858
  747SOL     OW 2239   3.084   1.780   1.663  0.2323  0.5332 -0.3798
  747SOL    HW1 2240   3.017   1.710   1.628  1.4099 -0.5572 -1.3026
  747SOL    HW2 2241   3.120   1.853   1.594  1.0919  2.4909  1.1532
  748SOL     OW 2242   1.779   2.754   2.825 -0.6561 -0.0421 -0.0304
  748SOL    HW1 2243   1.825   2.786   2.914  0.8174 -1.1289  0.1999
  748SOL    HW2 2244   1.678   2.758   2.823  0.7685  3.7299  0.5497
  749SOL     OW 2245   1.341   0.070   0.821  0.0473  0.1688 -0.4497
  749SOL    HW1 2246   1.272   0.000   0.856 -2.0234  0.7359 -2.5524
  749SOL    HW2 2247   1.337   0.083   0.720  0.0701  0.0377  2.4974
  750SOL     OW 2248   2.325   0.226   1.933  0.2522 -0.3266  0.6752
  750SOL    HW1 2249   2.369   0.280   1.851  2.0333 -0.4620  1.3391
  750SOL    HW2 2250   2.312   0.287   2.014  3.1206  0.5500  0.5856
  751SOL     OW 2251   0.871   2.229   2.911  0.0604  0.1110 -0.1893
  751SOL    HW1 2252   0.956   2.224   2.975  3.0896  0.0078  0.0883
  751SOL    HW2 2253   0.809   2.145   2.917  1.5126 -0.9708  0.3410
  752SOL     OW 2254   1.250   0.838   1.472 -0.6845 -0.2961 -0.0451
  752SOL    HW1 2255   1.314   0.919   1.464 -2.8474  1.7791  2.0356
  752SOL    HW2 2256   1.308   0.759   1.506  2.9999  2.7548  0.5097
  753SOL     OW 2257   0.912   2.565   1.765  0.1095 -0.1969  0.0030
  753SOL    HW1 2258   0.952   2.633   1.699  1.1571  0.2579  1.7927
  753SOL    HW2 2259   0.832   2.608   1.817 -1.2333 -0.3085 -0.0254
  754SOL     OW 2260   1.146   1.344   3.052  0.5367 -0.0833  0.2336
  754SOL    HW1 2261   1.189   1.251   3.048  1.2647  2.2145  0.8601
  754SOL    HW2 2262   1.149   1.395   2.957  1.4981  1.0228 -2.2155
  755SOL     OW 2263   2.040   0.550   2.321  0.1085  0.3178  0.0953
  755SOL    HW1 2264   2.118   0.485   2.346 -1.2465 -1.0742 -0.0577
  755SOL    HW2 2265   1.953   0.531   2.377  0.1317  1.8146 -1.9882
  756SOL     OW 2266   2.644   0.926   2.924  0.5318 -0.9274  0.1713
  756SOL    HW1 2267   2.714   0.859   2.892  2.6122 -0.9179  0.7971
  756SOL    HW2 2268   2.602   0.897   3.016 -0.8573  0.1629  1.5500
  757SOL     OW 2269   0.142   0.464   1.755  0.0354  0.6384 -0.1779
  757SOL    HW1 2270   0.119   0.566   1.759  2.9523 -2.5531 -0.2909
  757SOL    HW2 2271   0.228   0.452   1.694  3.6586  0.7419  0.3336
  758SOL     OW 2272   2.478   0.031   1.493 -0.3998 -0.8072 -0.5275
  758SOL    HW1 2273   2.394   0.057   1.548 -1.5491 -0.1543 -1.8470
  758SOL    HW2 2274   2.459   0.005   1.394  0.9935 -1.4357  1.1011
  759SOL     OW 2275   1.679   0.135   0.090 -0.3581 -0.4648 -0.0860
  759SOL    HW1 2276   1.605   0.140   0.018  0.2032 -0.3499 -0.1794
  759SOL    HW2 2277   1.778   0.126   0.055 -1.7330 -0.4747  0.4715
  760SOL     OW 2278   2.739   1.984   2.756 -0.1455  0.2024 -0.2262
  760SOL    HW1 2279   2.736   1.883   2.722 -1.5652 -0.5259  0.3091
  760SOL    HW2 2280   2.825   2.037   2.736  1.3132 -0.4466  0.2333
  761SOL     OW 2281   1.836   1.684   1.667  0.0531  0.2191  0.2775
  761SOL    HW1 2282   1.902   1.609   1.634 -0.6624 -4.8180 -0.9255
  761SOL    HW2 2283   1.754   1.698   1.601 -0.5346 -0.0811  0.4385
  762SOL     OW 2284   0.497   2.399   1.021  0.0665 -0.3491 -0.3696
  762SOL    HW1 2285   0.516   2.386   0.922  0.6852 -0.3756  2.9814
  762SOL    HW2 2286   0.457   2.493   1.049 -2.6619  0.9517 -0.4309
  763SOL     OW 2287   2.003   1.548   2.973  0.2206 -0.6616  0.1995
  763SOL    HW1 2288   2.041   1.531   2.876  1.2229  2.0898 -1.1550
  763SOL    HW2 2289   1.931   1.478   3.013 -1.3151  0.0595  0.4583
  764SOL     OW 2290   0.696   0.590   0.818  0.1888 -0.6632 -0.1179
  764SOL    HW1 2291   0.684   0.513   0.753 -4.7033  1.9477 -1.3846
  764SOL    HW2 2292   0.781   0.582   0.875 -0.4375 -0.3183 -0.9490
  765SOL     OW 2293   0.619   0.175   0.792 -0.0506 -0.8090  0.5463
  765SOL    HW1 2294   0.706   0.215   0.745  3.1603 -2.8497 -1.1010
  765SOL    HW2 2295   0.630   0.184   0.895 -2.1944  1.0387 -1.8557
  766SOL     OW 2296   2.902   2.016   2.986 -0.5413  0.2911  0.9322
  766SOL    HW1 2297   2.819   2.019   2.927 -0.0712  1.9720  0.1178
  766SOL    HW2 2298   2.923   2.111   3.030 -0.1661 -1.6325  4.6868
  767SOL     OW 2299   2.772   1.530   0.509  0.5173 -0.5154  0.0888
  767SOL    HW1 2300   2.750   1.559   0.609  0.9980 -0.9753  2.1422
  767SOL    HW2 2301   2.815   1.607   0.454  0.0705  0.2180 -0.1887
  768SOL     OW 2302   1.064   0.327   0.294  0.9966  0.9805  0.4893
  768SOL    HW1 2303   0.977   0.277   0.268  1.1318 -1.6916 -1.5655
  768SOL    HW2 2304   1.144   0.274   0.261  2.1628  2.8252  1.3178
  769SOL     OW 2305   1.327   1.770   2.183 -0.5371 -0.3693  0.3362
  769SOL    HW1 2306   1.380   1.695   2.226  1.2881 -0.4808 -1.8393
  769SOL    HW2 2307   1.224   1.744   2.168 -2.0366 -0.2949  2.0489
  770SOL     OW 2308   0.188   1.187   2.277 -0.1463  0.4402  0.1783
  770SOL    HW1 2309   0.162   1.215   2.374 -0.4024 -0.5985  0.2701
  770SOL    HW2 2310   0.133   1.230   2.207 -0.0555 -0.6654  2.5031
  771SOL     OW 2311   2.955   2.868   1.883 -0.4328 -0.1690  0.7029
  771SOL    HW1 2312   2.941   2.935   1.802  0.2981  1.7719 -0.5511
  771SOL    HW2 2313   2.920   2.903   1.974  0.9262  0.7756 -2.0721
  772SOL     OW 2314   2.165   0.020   3.013  0.1996 -0.3038 -0.3385
  772SOL    HW1 2315   2.252  -0.000   3.076  2.8452  1.1507  2.5559
  772SOL    HW2 2316   2.180   0.111   2.960  1.0821 -0.9237 -0.3501
  773SOL     OW 2317   0.698   2.162   2.467  0.5454  0.1787  0.9288
  773SOL    HW1 2318   0.642   2.176   2.379 -0.3087  2.1579 -1.8109
  773SOL    HW2 2319   0.624   2.154   2.544 -1.7801 -0.2749  1.2784
  774SOL     OW 2320   2.013   0.031   2.639  0.4464  0.5311 -0.3743
  774SOL    HW1 2321   2.061   0.118   2.646 -0.1862  1.1435  0.8194
  774SOL    HW2 2322   2.052  -0.038   2.712  2.6517  0.3661  1.3342
  775SOL     OW 2323   2.474   2.883   2.341  0.1331 -0.3573  0.6894
  775SOL    HW1 2324   2.424   2.971   2.326 -1.0923 -4.0445  0.0223
  775SOL    HW2 2325   2.567   2.893   2.381 -1.9536 -0.3202  1.1120
  776SOL     OW 2326   0.012   1.232   0.300 -0.1583  0.2893  0.7323
  776SOL    HW1 2327  -0.070   1.288   0.273 -0.0467  3.2292  3.4671
  776SOL    HW2 2328   0.001   1.187   0.395  1.1382 -0.5428  1.2187
  777SOL     OW 2329   0.346   2.771   0.350 -0.3726  0.9264 -0.0168
  777SOL    HW1 2330   0.251   2.744   0.373  0.0436 -0.0807  0.1971
  777SOL    HW2 2331   0.376   2.850   0.403  2.6731  0.2767  0.6514
  778SOL     OW 2332   1.289   1.992   0.118  0.3435 -0.2515 -0.4920
  778SOL    HW1 2333   1.242   2.025   0.208 -0.8571 -0.2087 -3.2867
  778SOL    HW2 2334   1.352   2.064   0.079 -0.0463  0.7090  0.0448
  779SOL     OW 2335   0.185   0.779   0.517  0.0663 -0.5808 -0.1245
  779SOL    HW1 2336   0.111   0.706   0.507 -1.8869  3.6166 -1.4413
  779SOL    HW2 2337   0.161   0.850   0.591  2.1263 -1.5509  2.0364
  780SOL     OW 2338   0.055   0.312   2.400 -0.0347 -0.0607  0.4186
  780SOL    HW1 2339   0.049   0.416   2.414 -0.3685  1.5420  1.5139
  780SOL    HW2 2340   0.136   0.289   2.338  3.6292  2.6418 -2.3303
  781SOL     OW 2341   0.518   1.778   1.629  0.1484 -0.2591  0.4694
  781SOL    HW1 2342   0.571   1.776   1.719 -0.4144 -1.6836  0.3818
  781SOL    HW2 2343   0.467   1.689   1.623 -0.6674 -2.7874 -2.8134
  782SOL     OW 2344   2.624   0.070   0.933 -0.3102 -0.5709  0.3100
  782SOL    HW1 2345   2.553   0.117   0.873  3.9904 -0.6188  1.3645
  782SOL    HW2 2346   2.633   0.121   1.027 -1.2424  0.6272 -1.0684
  783SOL     OW 2347   2.832   0.620   2.531  0.2532  0.1649 -0.2530
  783SOL    HW1 2348   2.786   0.627   2.622 -1.5489  1.1528  0.7596
  783SOL    HW2 2349   2.778   0.562   2.462  0.2571  2.6897 -0.8253
  784SOL     OW 2350   1.434   2.218   0.070 -0.4214  0.0209 -0.3648
  784SOL    HW1 2351   1.508   2.273   0.122  0.4461 -0.2240 -0.4237
  784SOL    HW2 2352   1.463   2.207  -0.025  1.7442 -0.8719 -0.9692
  785SOL     OW 2353   2.175   0.327   3.064 -0.2164  0.1973  0.0199
  785SOL    HW1 2354   2.104   0.277   3.125 -0.6326 -0.9718 -1.3653
  785SOL    HW2 2355   2.172   0.432   3.068 -1.8483 -1.1701 -0.1158
  786SOL     OW 2356   2.109   2.256   2.258 -1.0293 -0.5157  0.6085
  786SOL    HW1 2357   2.037   2.187   2.218 -0.1720 -0.7745 -0.6271
  786SOL    HW2 2358   2.170   2.207   2.325  1.7275  2.2704  1.0737
  787SOL     OW 2359   1.351   0.538   0.760 -0.2941 -0.6094 -0.3010
  787SOL    HW1 2360   1.294   0.599   0.706  2.9070 -1.8745 -1.4764
  787SOL    HW2 2361   1.413   0.500   0.682  1.2522  0.8459 -0.9640
  788SOL     OW 2362   1.182   0.478   2.955 -0.6588  0.1847  0.0122
  788SOL    HW1 2363   1.079   0.481   2.934 -2.2445  0.7541 -0.6003
  788SOL    HW2 2364   1.227   0.565   2.929 -1.3254  1.2435 -0.8162
  789SOL     OW 2365   2.609   0.141   1.946 -0.4779  0.3261 -0.0119
  789SOL    HW1 2366   2.515   0.176   1.983  0.2535  0.9926  1.2740
  789SOL    HW2 2367   2.642   0.060   1.995 -1.0806  0.5864  1.2277
  790SOL     OW 2368   2.616   2.618   0.850 -0.2623 -0.0046  0.2755
  790SOL    HW1 2369   2.683   2.632   0.767 -0.4322 -0.9290 -2.1550
  790SOL    HW2 2370   2.622   2.693   0.921  0.9092 -3.6675  0.5684
  791SOL     OW 2371   1.898   1.204   0.203  0.0548  0.2889  0.1818
  791SOL    HW1 2372   1.816   1.152   0.243 -1.2221  0.8010  1.5186
  791SOL    HW2 2373   1.975   1.144   0.167 -2.4906 -0.1264  0.4175
  792SOL     OW 2374   0.438   1.958   2.284 -0.5346  0.1654  0.1095
  792SOL    HW1 2375   0.453   2.058   2.260 -1.7112 -1.8224 -2.0954
  792SOL    HW2 2376   0.341   1.938   2.308 -1.3340 -1.7843 -0.3051
  793SOL     OW 2377   2.072   1.567   2.003  0.0165 -0.3286 -0.4190
  793SOL    HW1 2378   2.158   1.622   2.016 -1.3821 -0.7240  0.8678
  793SOL    HW2 2379   2.076   1.497   1.931  1.7966  3.1576  1.3182
  794SOL     OW 2380   0.566   1.533   2.486  0.2823  0.0063  0.2163
  794SOL    HW1 2381   0.596   1.450   2.429 -0.4688 -1.6604  0.1863
  794SOL    HW2 2382   0.473   1.573   2.456  0.0740 -1.6742 -3.0674
  795SOL     OW 2383   2.385   2.330   1.855  0.5524 -0.0625  0.2477
  795SOL    HW1 2384   2.375   2.359   1.950  0.0669 -0.7541 -0.6634
  795SOL    HW2 2385   2.345   2.232   1.851 -1.7740  2.1091  1.3107
  796SOL     OW 2386   3.020   1.137   2.729  0.1314 -0.1053 -0.2343
  796SOL    HW1 2387   2.918   1.140   2.743  0.9369 -0.1182  0.6984
  796SOL    HW2 2388   3.068   1.123   2.818  0.7871  1.2399  0.5877
  797SOL     OW 2389   0.746   0.642   1.292  0.8289 -0.1857 -0.4313
  797SOL    HW1 2390   0.791   0.688   1.369 -0.3390 -1.4795  0.1319
  797SOL    HW2 2391   0.700   0.695   1.221  4.4024 -1.4376  1.6744
  798SOL     OW 2392   1.182   0.485   0.972 -0.2286 -0.1695  0.0037
  798SOL    HW1 2393   1.201   0.556   1.046 -1.1322 -0.3452  1.6722
  798SOL    HW2 2394   1.229   0.495   0.879 -2.2652 -0.0068  1.2580
  799SOL     OW 2395   1.829   2.706   1.122  0.7882 -0.2080  0.4516
  799SOL    HW1 2396   1.820   2.607   1.140 -0.8419  3.7464  0.8905
  799SOL    HW2 2397   1.804   2.737   1.029 -1.3759  0.4395  3.6691
  800SOL     OW 2398   2.952   0.832   1.877  0.2326  0.2750 -0.2085
  800SOL    HW1 2399   2.972   0.934   1.876  0.2812  2.9359  0.6095
  800SOL    HW2 2400   2.963   0.779   1.965 -1.0591 -1.6867 -0.0314
  801SOL     OW 2401   1.993   2.310   0.051  0.0231  0.2328 -0.6093
  801SOL    HW1 2402   1.932   2.331  -0.034 -1.4949 -0.3067  0.3035
  801SOL    HW2 2403   2.059   2.237   0.029 -0.8974  1.3624 -1.1643
  802SOL     OW 2404   0.682   0.645   2.481 -0.1206  0.4761 -0.1884
  802SOL    HW1 2405   0.748   0.656   2.402  0.3895  0.4705  1.7794
  802SOL    HW2 2406   0.583   0.655   2.447 -0.1205  0.2712  1.7642
  803SOL     OW 2407   0.945   0.091   0.906 -0.1982 -0.1118 -0.5797
  803SOL    HW1 2408   1.026   0.151   0.932 -1.6531 -1.7909  2.5648
  803SOL    HW2 2409   0.894   0.112   0.818 -3.2112 -2.3823  1.4294
  804SOL     OW 2410   0.327   0.022   2.148  0.0894  0.2163  0.0600
  804SOL    HW1 2411   0.308   0.113   2.191 -1.8023 -0.7339  1.8205
  804SOL    HW2 2412   0.255  -0.014   2.082  1.0954 -2.0291  0.3593
  805SOL     OW 2413   2.410   0.293   0.329  0.4782  0.5071  0.1508
  805SOL    HW1 2414   2.497   0.281   0.378  0.9556 -3.3608 -0.4908
  805SOL    HW2 2415   2.420   0.257   0.230 -3.1683  1.7728 -2.5720
  806SOL     OW 2416   0.703   2.636   1.974  0.4267 -0.2824 -0.4326
  806SOL    HW1 2417   0.643   2.675   2.050  1.5983  0.0347 -1.0701
  806SOL    HW2 2418   0.689   2.688   1.886 -0.1825  1.4305 -1.5911
  807SOL     OW 2419   2.580   0.930   0.512  0.0287 -0.7701 -0.6508
  807SOL    HW1 2420   2.657   0.873   0.539 -0.8631  2.4059 -0.2992
  807SOL    HW2 2421   2.571   0.950   0.410 -0.6270 -1.8875 -0.4316
  808SOL     OW 2422   0.655   2.040   2.898  0.1259 -0.4195 -0.0712
  808SOL    HW1 2423   0.596   2.072   2.978 -0.2260  1.3051 -2.1798
  808SOL    HW2 2424   0.672   1.937   2.895 -0.9212  0.0213 -2.6518
  809SOL     OW 2425   2.593   2.023   1.914  0.2306 -0.0775  0.0900
  809SOL    HW1 2426   2.688   2.061   1.912 -0.6810 -0.5279  2.1465
  809SOL    HW2 2427   2.531   2.039   1.833  2.9275 -0.0064 -2.6672
  810SOL     OW 2428   2.194   1.255   0.531  0.4193 -0.0548  0.4158
  810SOL    HW1 2429   2.119   1.201   0.480  0.8475  0.9988 -2.3860
  810SOL    HW2 2430   2.173   1.354   0.558 -1.5817  1.0938  2.2383
  811SOL     OW 2431   1.210   2.509   1.192 -0.5631  0.6111 -0.1586
  811SOL    HW1 2432   1.220   2.404   1.217  0.3169 -3.0705  4.2898
  811SOL    HW2 2433   1.231   2.579   1.268 -0.2558  3.1027 -1.8731
  812SOL     OW 2434   1.421   0.760   1.970 -0.3130 -0.3337 -0.9629
  812SOL    HW1 2435   1.328   0.796   1.999  1.8657  0.6516  1.7369
  812SOL    HW2 2436   1.473   0.825   1.905  0.5002  5.4835  0.3592
  813SOL     OW 2437   1.648   2.096   2.432  0.0945  0.7233  0.1626
  813SOL    HW1 2438   1.748   2.108   2.462  0.5425 -3.4414 -1.7794
  813SOL    HW2 2439   1.637   2.052   2.338  0.0026  0.8700  0.9048
  814SOL     OW 2440   3.001   1.739   2.850  0.2352  0.7272 -0.6142
  814SOL    HW1 2441   3.075   1.677   2.889 -1.2927  0.6352  2.2269
  814SOL    HW2 2442   2.996   1.828   2.899 -0.1705  0.0376  0.8788
  815SOL     OW 2443   2.122   2.917   2.772  0.2205 -0.0828 -0.3653
  815SOL    HW1 2444   2.104   2.826   2.819  0.2330  1.4335  0.8174
  815SOL    HW2 2445   2.218   2.945   2.784 -2.4179 -0.3799  0.2913
  816SOL     OW 2446   1.568   0.437   1.679  0.4889 -0.8186 -0.2042
  816SOL    HW1 2447   1.629   0.355   1.654  2.1152 -3.4451  2.4727
  816SOL    HW2 2448   1.515   0.424   1.765  1.3906  1.1127 -0.7090
  817SOL     OW 2449   0.400   1.206   2.541 -0.0869 -0.3621  0.3314
  817SOL    HW1 2450   0.308   1.246   2.567 -0.3295 -0.0297 -1.9094
  817SOL    HW2 2451   0.410   1.209   2.437 -1.1252  0.6059  2.0198
  818SOL     OW 2452   2.011   0.787   0.476 -0.0873  0.5201  0.0572
  818SOL    HW1 2453   2.115   0.782   0.479 -0.9048 -0.9672  0.4025
  818SOL    HW2 2454   1.964   0.834   0.557 -0.7250 -2.7256 -1.1613
  819SOL     OW 2455   2.828   2.902   3.032  0.1306  0.5509  0.2293
  819SOL    HW1 2456   2.881   2.807   3.043  2.6918 -1.4569  1.5300
  819SOL    HW2 2457   2.738   2.880   2.982 -1.4392 -0.9552  3.1087
  820SOL     OW 2458   1.201   1.014   0.545 -0.3400 -0.1127  0.5022
  820SOL    HW1 2459   1.212   1.117   0.560 -1.9179 -3.6420 -1.4403
  820SOL    HW2 2460   1.188   0.964   0.636 -1.2166  1.2083 -3.3236
  821SOL     OW 2461   0.042   1.177   0.774 -0.1703 -0.5113  0.2763
  821SOL    HW1 2462  -0.007   1.194   0.869  0.6813 -0.6731  0.5252
  821SOL    HW2 2463   0.083   1.267   0.738  1.4656  0.0735 -0.3092
  822SOL     OW 2464   2.553   1.760   2.425  0.0882 -0.0040 -0.4217
  822SOL    HW1 2465   2.540   1.827   2.502 -0.9750 -0.6305 -0.5586
  822SOL    HW2 2466   2.482   1.764   2.354  3.1507 -0.1261 -0.2297
  823SOL     OW 2467   2.059   0.880   1.157  0.8094 -0.1999  0.0020
  823SOL    HW1 2468   2.023   0.840   1.245  0.1222 -0.3294  0.5087
  823SOL    HW2 2469   2.014   0.844   1.072  3.7803  2.7255  3.1375
  824SOL     OW 2470   0.190   1.816   2.806 -0.4462  0.0718  0.0053
  824SOL    HW1 2471   0.210   1.818   2.907 -1.0026 -1.0707  0.3463
  824SOL    HW2 2472   0.271   1.851   2.751  0.0204 -3.0489 -1.3669
  825SOL     OW 2473   1.289   1.047   0.227  0.4163  0.3970  0.3860
  825SOL    HW1 2474   1.261   1.147   0.203 -1.9566  1.4391 -0.3664
  825SOL    HW2 2475   1.258   1.011   0.317  1.7943 -0.6577 -1.3968
  826SOL     OW 2476   1.953   0.666   1.653  0.1813  0.0624  0.5806
  826SOL    HW1 2477   2.029   0.604   1.687 -2.7515  0.6797  2.8313
  826SOL    HW2 2478   1.869   0.617   1.606 -0.4608 -0.6141  4.0813
  827SOL     OW 2479   0.704   1.207   0.489  0.1115  0.0107 -0.0463
  827SOL    HW1 2480   0.802   1.167   0.483 -1.5796  0.4774  0.5904
  827SOL    HW2 2481   0.632   1.150   0.440  0.7461 -0.7429  2.4941
  828SOL     OW 2482   2.660   0.171   1.653 -0.4568  0.5643  0.2248
  828SOL    HW1 2483   2.629   0.102   1.582 -0.8892  0.6222 -2.0902
  828SOL    HW2 2484   2.607   0.166   1.742 -0.2433 -0.3006  1.6664
  829SOL     OW 2485   2.887   2.387   2.854  0.4605 -0.1136 -0.2905
  829SOL    HW1 2486   2.797   2.338   2.879 -0.5696  1.5000 -0.0187
  829SOL    HW2 2487   2.886   2.485   2.878 -0.4069 -1.3786  0.8703
  830SOL     OW 2488   3.006   0.939   2.943  0.1230  0.1876  0.3488
  830SOL    HW1 2489   3.082   1.002   2.964  0.0027 -1.0874  1.8610
  830SOL    HW2 2490   2.964   0.890   3.022 -0.3387 -0.2144  1.4018
  831SOL     OW 2491   0.002   0.596   0.423  0.5268  0.5248 -0.9096
  831SOL    HW1 2492  -0.026   0.556   0.514  0.3799 -0.2818 -1.6403
  831SOL    HW2 2493   0.029   0.519   0.358  2.8374  0.1843 -0.7614
  832SOL     OW 2494   1.759   0.744   0.008 -0.0498 -0.0565 -0.0871
  832SOL    HW1 2495   1.668   0.790  -0.015 -2.4703 -1.4795 -1.4799
  832SOL    HW2 2496   1.767   0.637  -0.008  0.3199 -0.1423  0.3785
  833SOL     OW 2497   2.317   2.101   0.478 -0.0354  0.4232 -0.0076
  833SOL    HW1 2498   2.228   2.053   0.500 -1.4232 -1.2349  0.4590
  833SOL    HW2 2499   2.397   2.036   0.475 -2.2341 -1.5833 -1.5952
  834SOL     OW 2500   0.046   0.033   0.581  0.6960  0.5557 -0.2652
  834SOL    HW1 2501   0.135  -0.021   0.569  3.1281 -1.7682 -2.8047
  834SOL    HW2 2502   0.053   0.121   0.530  0.9089  0.7056 -0.1215
  835SOL     OW 2503   2.553   1.772   1.139 -0.2766  0.5526  1.0196
  835SOL    HW1 2504   2.617   1.701   1.172  0.3497  1.8460  0.7615
  835SOL    HW2 2505   2.579   1.811   1.046  2.3092  0.6982 -0.9795
  836SOL     OW 2506   1.554   0.815   2.552  0.1975 -0.0646 -0.4111
  836SOL    HW1 2507   1.449   0.817   2.553  0.2933 -1.0664 -2.3973
  836SOL    HW2 2508   1.593   0.859   2.467 -2.9406 -1.6664 -4.3316
  837SOL     OW 2509   1.642  -0.002   0.673 -0.0720  0.1190  0.2563
  837SOL    HW1 2510   1.607   0.097   0.675  0.0766  0.4254 -0.5030
  837SOL    HW2 2511   1.598  -0.056   0.593  0.2392 -2.7527  0.9482
  838SOL     OW 2512   1.152   1.346   2.688  0.0086 -1.1523  0.4080
  838SOL    HW1 2513   1.114   1.440   2.717 -2.4138 -0.4601 -0.6730
  838SOL    HW2 2514   1.097   1.311   2.606 -0.3138 -1.3773 -3.0616
  839SOL     OW 2515   1.639   0.358   0.971  0.4399 -0.5516 -0.2744
  839SOL    HW1 2516   1.572   0.426   1.011  0.2742 -0.0438  2.4170
  839SOL    HW2 2517   1.602   0.261   0.996 -1.0236  0.7382  0.4911
  840SOL     OW 2518   2.645   2.948   1.606 -0.1418  0.5399 -0.1386
  840SOL    HW1 2519   2.563   2.997   1.562 -0.6558 -0.2446 -0.1164
  840SOL    HW2 2520   2.625   2.918   1.704 -0.3000  0.2539 -0.2987
  841SOL     OW 2521   1.511   0.866   3.058 -0.4598  0.5428 -0.3095
  841SOL    HW1 2522   1.410   0.885   3.088  1.8826  1.9424  1.2624
  841SOL    HW2 2523   1.547   0.905   2.968  0.5861 -0.8948  1.5502
  842SOL     OW 2524   0.820   1.617   1.006 -0.0239  0.4486 -0.5648
  842SOL    HW1 2525   0.807   1.714   1.031  1.6623  2.1970 -2.6466
  842SOL    HW2 2526   0.752   1.588   0.931 -2.5991  0.1105 -0.7140
  843SOL     OW 2527   0.137   0.104   1.443 -0.1224  0.2873  0.2110
  843SOL    HW1 2528   0.230   0.144   1.472  0.8717  1.7712  0.9918
  843SOL    HW2 2529   0.142   0.002   1.420 -0.6495  0.4490  0.1661
  844SOL     OW 2530   0.796   2.446   0.193  0.2413 -0.2404 -0.5588
  844SOL    HW1 2531   0.745   2.476   0.277  1.8481 -2.0442 -0.9352
  844SOL    HW2 2532   0.734   2.428   0.110  1.6476  1.0935 -2.6135
  845SOL     OW 2533   1.750   0.015   1.322 -0.0297  0.5610  0.6571
  845SOL    HW1 2534   1.730  -0.034   1.414 -0.3481 -1.3525  1.3601
  845SOL    HW2 2535   1.675   0.073   1.287  0.4308 -2.0886  1.5994
  846SOL     OW 2536   1.738   2.970   0.917  0.0857 -0.1372  0.4700
  846SOL    HW1 2537   1.725   3.009   0.823 -0.9100  0.8999  4.1423
  846SOL    HW2 2538   1.836   2.977   0.948  1.1969  1.1243 -1.4007
  847SOL     OW 2539   2.036   1.589   0.192 -0.6411  0.2576 -0.1316
  847SOL    HW1 2540   2.010   1.530   0.276 -1.0014 -1.5577  1.7240
  847SOL    HW2 2541   1.964   1.589   0.119  1.3887  0.8510  2.3589
  848SOL     OW 2542   2.461   0.795   2.686  0.6844  0.0027  0.1622
  848SOL    HW1 2543   2.499   0.889   2.711  2.7554  1.8301  1.1996
  848SOL    HW2 2544   2.380   0.798   2.622 -3.6529  0.5553 -0.9825
  849SOL     OW 2545   2.357   0.857   2.332  0.0328 -0.0614 -0.1924
  849SOL    HW1 2546   2.388   0.811   2.246 -0.1567  0.6701  2.5195
  849SOL    HW2 2547   2.326   0.789   2.405 -0.5809 -0.6566  1.9842
  850SOL     OW 2548   1.544   0.191   1.285  0.1975 -0.2513  0.0190
  850SOL    HW1 2549   1.552   0.158   1.186  0.6856  0.2718  1.8807
  850SOL    HW2 2550   1.483   0.122   1.341 -2.3922  0.1851  1.9266
  851SOL     OW 2551   0.387   1.676   0.671 -0.3987 -0.2378  0.8316
  851SOL    HW1 2552   0.403   1.778   0.662  1.7710  0.6969 -2.3235
  851SOL    HW2 2553   0.417   1.640   0.760 -1.2368  1.3177  0.9217
  852SOL     OW 2554   0.824   2.116   1.731 -0.7337 -0.5232 -0.5636
  852SOL    HW1 2555   0.804   2.187   1.661 -0.3163  0.9132 -1.4994
  852SOL    HW2 2556   0.771   2.127   1.816  1.6415 -1.6948 -4.6945
  853SOL     OW 2557   2.494   1.529   2.611 -0.3158  0.0963  0.0416
  853SOL    HW1 2558   2.451   1.437   2.612 -1.1192 -1.6881 -1.4982
  853SOL    HW2 2559   2.538   1.541   2.517  1.4713  0.8064 -0.5321
  854SOL     OW 2560   2.439   1.441   1.709  0.2776 -0.4656  0.1183
  854SOL    HW1 2561   2.488   1.430   1.617 -0.7323  1.5078 -2.0154
  854SOL    HW2 2562   2.414   1.350   1.746  0.5564 -0.1694  1.1305
  855SOL     OW 2563   2.041   2.387   0.943 -0.2296 -0.0630 -0.2352
  855SOL    HW1 2564   2.083   2.474   0.916  1.9018 -4.2458 -0.3945
  855SOL    HW2 2565   2.100   2.342   1.016 -0.4383  3.2584 -1.2776
  856SOL     OW 2566   1.435   1.420   0.846 -0.4288  0.0142  0.9030
  856SOL    HW1 2567   1.440   1.522   0.843  0.4646 -2.3754  1.9378
  856SOL    HW2 2568   1.387   1.381   0.931 -3.1615 -0.3442 -1.1718
  857SOL     OW 2569   2.956   2.546   1.034  0.6172  0.8310 -0.2679
  857SOL    HW1 2570   2.859   2.537   1.078 -0.8292  0.0267 -1.6788
  857SOL    HW2 2571   2.959   2.512   0.936  0.9978 -0.9650  1.4274
  858SOL     OW 2572   2.252   2.080   1.802 -0.1776 -0.1306  0.5497
  858SOL    HW1 2573   2.192   2.136   1.739 -1.0415  0.5533  0.6061
  858SOL    HW2 2574   2.346   2.051   1.757  3.1227 -1.9752 -0.7679
  859SOL     OW 2575   2.518   0.435   1.064  0.2640 -0.8571  0.8802
  859SOL    HW1 2576   2.578   0.479   0.990 -1.2668  1.2341 -0.7390
  859SOL    HW2 2577   2.555   0.354   1.112 -0.4334  1.6783  0.9640
  860SOL     OW 2578   1.896   2.789   0.504 -0.4016  0.2682 -0.3940
  860SOL    HW1 2579   1.897   2.782   0.402  0.1431 -3.6079  1.3027
  860SOL    HW2 2580   1.951   2.870   0.533  0.5786 -0.5549  0.2018
  861SOL     OW 2581   0.938   2.650   2.823 -0.5874  0.6026 -0.9291
  861SOL    HW1 2582   1.022   2.695   2.790 -0.9283  0.7823 -0.4464
  861SOL    HW2 2583   0.937   2.603   2.915  1.0387  1.8853 -1.6215
  862SOL     OW 2584   2.924   2.522   1.630 -0.3821  0.2550  0.4230
  862SOL    HW1 2585   2.998   2.576   1.673  1.8645 -1.0673 -1.7238
  862SOL    HW2 2586   2.843   2.577   1.599  0.7100  0.7334  2.0015
  863SOL     OW 2587   1.927   2.703   0.179  0.2354  1.5333 -0.5441
  863SOL    HW1 2588   1.998   2.626   0.196  1.1196 -2.3355 -0.8668
  863SOL    HW2 2589   1.833   2.658   0.177  2.0383 -0.4724  4.5467
  864SOL     OW 2590   1.904   1.086   3.016 -0.5666 -0.0323 -0.0377
  864SOL    HW1 2591   1.920   1.111   2.918  2.8788  0.6145  1.5912
  864SOL    HW2 2592   1.990   1.074   3.071 -0.0604 -0.0543 -0.8225
  865SOL     OW 2593   2.200   1.736   0.635 -0.1443  0.2353  0.5878
  865SOL    HW1 2594   2.218   1.770   0.734  1.8482  0.5618  1.7735
  865SOL    HW2 2595   2.150   1.645   0.619 -3.9480 -2.4118 -4.5509
  866SOL     OW 2596   2.975   2.822   0.963 -0.1519  0.1581 -0.1808
  866SOL    HW1 2597   3.025   2.829   0.871 -0.8428 -0.6952  0.9721
  866SOL    HW2 2598   2.971   2.722   0.993 -1.0579  0.5126 -1.9686
  867SOL     OW 2599   0.378   1.362   0.836  0.4778 -0.6276 -0.2916
  867SOL    HW1 2600   0.415   1.264   0.830 -0.1520  0.8859 -0.0013
  867SOL    HW2 2601   0.290   1.375   0.776 -1.3376  0.9588 -2.6991
  868SOL     OW 2602   0.805   1.933   1.989 -0.0703  0.0168  0.0310
  868SOL    HW1 2603   0.799   1.901   2.085  1.0156  3.7961 -3.8377
  868SOL    HW2 2604   0.764   2.025   1.983  0.2492 -1.2422 -2.7513
  869SOL     OW 2605   2.465   1.986   1.651 -0.3034  0.0317 -0.0707
  869SOL    HW1 2606   2.537   1.913   1.650 -4.9568  1.8185 -1.2381
  869SOL    HW2 2607   2.435   2.002   1.553 -0.9187 -1.6702  2.0900
  870SOL     OW 2608   2.330   2.551   1.246 -0.3187 -0.3548 -0.5830
  870SOL    HW1 2609   2.269   2.473   1.214  3.2401  0.6813  1.1389
  870SOL    HW2 2610   2.396   2.519   1.318 -1.7810  0.2386 -0.6360
  871SOL     OW 2611   2.985   1.976   0.517 -0.5833 -0.1542 -0.4518
  871SOL    HW1 2612   2.934   2.056   0.470  2.3874  1.7538  0.2032
  871SOL    HW2 2613   2.965   1.884   0.472  2.1304 -2.2869  0.2492
  872SOL     OW 2614   2.205   0.506   1.739 -0.1194 -0.4779  0.5909
  872SOL    HW1 2615   2.198   0.544   1.835 -0.5752 -0.4103  3.0505
  872SOL    HW2 2616   2.293   0.454   1.735 -3.5011  0.8954  0.9321
  873SOL     OW 2617   1.728   2.115   2.899  0.0875 -0.0583  0.1028
  873SOL    HW1 2618   1.741   2.216   2.921  0.8377  3.2696 -0.2378
  873SOL    HW2 2619   1.657   2.090   2.825 -1.3756 -2.9792 -0.8780
  874SOL     OW 2620   0.611   2.458   0.712 -0.7216 -0.0331 -0.1046
  874SOL    HW1 2621   0.622   2.552   0.756  2.3537 -1.9113 -1.1754
  874SOL    HW2 2622   0.700   2.411   0.692 -0.3149  0.4672 -0.6574
  875SOL     OW 2623   2.281   1.649   1.469  0.0463  0.7804 -0.2793
  875SOL    HW1 2624   2.369   1.651   1.519 -2.0788  0.1543  0.2098
  875SOL    HW2 2625   2.289   1.714   1.388  1.2588 -1.0121 -0.5682
  876SOL     OW 2626   0.193   2.285   2.767  0.3009 -0.0404 -0.3774
  876SOL    HW1 2627   0.216   2.217   2.845  0.7634 -2.5689 -0.2809
  876SOL    HW2 2628   0.251   2.372   2.766 -2.0818  3.7240 -4.3460
  877SOL     OW 2629   2.821   2.655   0.633 -0.3924 -0.0585 -0.4209
  877SOL    HW1 2630   2.832   2.761   0.638  1.5730  2.9441 -0.4567
  877SOL    HW2 2631   2.903   2.597   0.662  0.2711  1.3055 -1.1226
  878SOL     OW 2632   2.649   1.488   2.380 -0.6840  0.3776 -0.3600
  878SOL    HW1 2633   2.660   1.590   2.403  0.1054  0.0203  1.8800
  878SOL    HW2 2634   2.730   1.419   2.399 -1.0075 -1.1597  2.6055
  879SOL     OW 2635   2.422   3.042   1.211 -0.7574  0.3704  0.1208
  879SOL    HW1 2636   2.446   2.940   1.234 -0.2135  1.2107  1.2423
  879SOL    HW2 2637   2.322   3.049   1.191  1.6529 -0.0496  0.2383
  880SOL     OW 2638   0.652   0.485   2.198  0.3811 -0.1439 -0.2671
  880SOL    HW1 2639   0.631   0.429   2.281  2.5624 -0.9916 -0.2900
  880SOL    HW2 2640   0.667   0.425   2.111  3.2783 -0.7628 -1.5438
  881SOL     OW 2641   0.918   0.089   0.443 -0.1355 -0.0288 -0.3931
  881SOL    HW1 2642   0.955  -0.005   0.429 -1.1942 -0.6308  0.4157
  881SOL    HW2 2643   0.890   0.137   0.356  2.8777 -0.1002  1.3316
  882SOL     OW 2644   2.757   1.767   1.701  0.0453  0.1843  0.1707
  882SOL    HW1 2645   2.807   1.680   1.677 -0.6056  2.0300 -0.3127
  882SOL    HW2 2646   2.729   1.779   1.804  1.0056 -0.2762  1.6852
  883SOL     OW 2647   0.917   0.570   0.972 -0.1565 -0.2771  0.1366
  883SOL    HW1 2648   0.910   0.671   1.004  0.0614  1.1574 -2.2953
  883SOL    HW2 2649   1.016   0.535   0.973  0.4354  1.0813 -1.1588
  884SOL     OW 2650   1.120   1.898   1.066  0.1439 -0.5831  0.1882
  884SOL    HW1 2651   1.111   1.872   0.966  1.4484  0.7258  1.0620
  884SOL    HW2 2652   1.068   1.985   1.092 -1.3208  0.6973  1.7585
  885SOL     OW 2653   2.309   1.808   2.289 -0.3323  0.3238  0.5540
  885SOL    HW1 2654   2.224   1.761   2.326  1.3741 -0.1173 -1.8969
  885SOL    HW2 2655   2.327   1.901   2.334 -0.1161 -0.9206 -1.2790
  886SOL     OW 2656   2.657   0.465   1.838 -0.1817 -0.1867  0.3908
  886SOL    HW1 2657   2.731   0.406   1.884  1.0128 -0.0772 -0.4146
  886SOL    HW2 2658   2.694   0.555   1.790  0.0358  5.2676 -0.4629
  887SOL     OW 2659   0.222   2.047   1.266  0.0187 -0.0284 -0.1214
  887SOL    HW1 2660   0.149   2.031   1.194 -1.4919  2.1184 -0.5906
  887SOL    HW2 2661   0.215   2.139   1.309 -0.8788  0.7508  1.1433
  888SOL     OW 2662   0.566   1.343   1.451 -0.3479  0.0581 -0.0901
  888SOL    HW1 2663   0.579   1.412   1.377  0.3541  1.3474 -0.9451
  888SOL    HW2 2664   0.541   1.245   1.420 -1.0376  0.7555  1.5438
  889SOL     OW 2665   0.818   2.396   2.175 -0.4672 -0.1272  0.0708
  889SOL    HW1 2666   0.829   2.294   2.158  0.4997 -2.5361  1.4305
  889SOL    HW2 2667   0.888   2.444   2.116  0.7581  1.9357 -0.3532
  890SOL     OW 2668   2.338   2.442   0.229  0.2565 -0.0004 -0.0909
  890SOL    HW1 2669   2.408   2.508   0.190 -2.7923  0.2251 -0.6034
  890SOL    HW2 2670   2.237   2.470   0.227 -0.6843 -1.6578 -0.9602
  891SOL     OW 2671   2.621   1.681   0.713 -0.1049 -0.2675  0.0688
  891SOL    HW1 2672   2.602   1.609   0.785 -0.2651 -0.1850 -1.5181
  891SOL    HW2 2673   2.542   1.699   0.646 -0.4267  0.5511  1.8713
  892SOL     OW 2674   0.289   0.286   2.250 -0.3041  0.1299  0.1848
  892SOL    HW1 2675   0.270   0.344   2.160  1.3262 -0.4152  0.9513
  892SOL    HW2 2676   0.368   0.321   2.311 -0.8793 -1.5987 -0.8078
  893SOL     OW 2677   1.662   0.251   2.756  0.2203 -0.4398  0.1838
  893SOL    HW1 2678   1.730   0.327   2.774  2.0759  2.6438  1.7200
  893SOL    HW2 2679   1.575   0.290   2.718  1.8839  0.9698 -0.5387
  894SOL     OW 2680   2.183   2.043   0.036 -0.0432  0.1828 -0.1262
  894SOL    HW1 2681   2.125   1.972  -0.010 -1.3937  1.3221  0.8326
  894SOL    HW2 2682   2.241   2.005   0.113 -0.3345  1.7109  0.9068
  895SOL     OW 2683   2.774   1.378   0.868  0.0058 -0.0035  0.7055
  895SOL    HW1 2684   2.837   1.331   0.932 -0.6338 -0.8917  0.2500
  895SOL    HW2 2685   2.820   1.467   0.832 -0.5142  0.8342  0.9309
  896SOL     OW 2686   1.754   1.858   1.175  0.4179  0.5237  0.4925
  896SOL    HW1 2687   1.804   1.833   1.087  0.1483  0.8601  0.2111
  896SOL    HW2 2688   1.709   1.952   1.177 -1.0821 -0.4157  0.3956
  897SOL     OW 2689   0.279   0.494   3.092 -0.8207 -0.0604  0.8465
  897SOL    HW1 2690   0.220   0.549   3.031 -1.1415  1.4003  2.7317
  897SOL    HW2 2691   0.374   0.528   3.097 -3.6564 -2.9195  0.1442
  898SOL     OW 2692   0.533   2.894   1.005 -0.1409 -0.7280  0.3902
  898SOL    HW1 2693   0.455   2.919   1.069  0.1993  1.2065 -1.5425
  898SOL    HW2 2694   0.614   2.956   1.022 -1.3553 -0.3591  1.5299
  899SOL     OW 2695   2.723   0.913   1.303  0.2743 -0.3635  0.1028
  899SOL    HW1 2696   2.696   0.898   1.202  1.7071 -2.0852  1.7854
  899SOL    HW2 2697   2.810   0.977   1.317  2.0868 -0.2530  4.4302
  900SOL     OW 2698   0.998   2.372   2.400 -0.5537  0.0695  0.8780
  900SOL    HW1 2699   0.925   2.405   2.333 -3.0759 -2.7745 -0.4383
  900SOL    HW2 2700   0.968   2.358   2.499  3.0493  1.3863  0.9361
  901SOL     OW 2701   1.982   2.490   1.339 -0.2078  0.3505  0.2947
  901SOL    HW1 2702   1.933   2.440   1.258 -1.7485  0.3390  1.4540
  901SOL    HW2 2703   2.053   2.431   1.381  0.6949 -2.2080 -2.0006
  902SOL     OW 2704   2.577   1.661   1.504  0.1716 -0.2697 -0.2061
  902SOL    HW1 2705   2.648   1.709   1.560 -2.8185 -2.6576  3.7126
  902SOL    HW2 2706   2.614   1.604   1.425 -3.5053 -2.6497  2.7349
  903SOL     OW 2707   0.284   2.489   1.952 -0.0732  0.3659 -0.1677
  903SOL    HW1 2708   0.225   2.400   1.954 -2.6369 -3.1413  0.3416
  903SOL    HW2 2709   0.292   2.528   1.853  1.4394 -0.3763  1.6987
  904SOL     OW 2710   1.989   0.802   2.608 -0.2175 -0.0768 -0.0712
  904SOL    HW1 2711   1.896   0.761   2.607  2.6285  1.8444  1.1315
  904SOL    HW2 2712   2.016   0.842   2.521  1.7431 -1.7790 -1.8554
  905SOL     OW 2713   2.841   0.046   2.594 -0.0618 -0.6462  0.1200
  905SOL    HW1 2714   2.921  -0.009   2.626 -2.1831  0.3573 -0.3662
  905SOL    HW2 2715   2.855   0.143   2.569  0.1299  0.7206  2.5643
  906SOL     OW 2716   0.113   1.841   1.892  0.0692  0.1307 -0.6582
  906SOL    HW1 2717   0.046   1.806   1.820 -3.7129 -0.8892  0.5344
  906SOL    HW2 2718   0.196   1.878   1.849  2.3754 -5.5746  1.0308
  907SOL     OW 2719   0.173   2.420   1.085 -0.1141  0.8363  0.5705
  907SOL    HW1 2720   0.223   2.489   1.027  0.1392 -2.5411  1.2781
  907SOL    HW2 2721   0.083   2.396   1.040  1.0729 -2.2290 -1.0492
  908SOL     OW 2722   2.687   2.803   0.336 -0.0071  0.4687 -0.5025
  908SOL    HW1 2723   2.659   2.863   0.257  2.6643 -0.0236  0.0730
  908SOL    HW2 2724   2.672   2.702   0.314  1.5490  3.4333 -0.9616
  909SOL     OW 2725   0.667   0.885   2.643  0.5010 -0.3204  0.0036
  909SOL    HW1 2726   0.637   0.799   2.602  1.2840 -0.0035  2.2517
  909SOL    HW2 2727   0.767   0.912   2.618 -0.3815 -1.3274 -2.6458
  910SOL     OW 2728   1.690   1.782   2.107 -0.6683  0.4666 -0.1745
  910SOL    HW1 2729   1.765   1.811   2.042 -0.8145 -0.8950 -0.1680
  910SOL    HW2 2730   1.648   1.867   2.144 -0.4599  2.5505 -2.3271
  911SOL     OW 2731   1.783   3.027   1.582 -0.4085  0.3417 -0.0593
  911SOL    HW1 2732   1.885   3.008   1.568  1.9276  0.5221  1.0498
  911SOL    HW2 2733   1.745   2.971   1.655 -1.2944  0.3524 -1.3952
  912SOL     OW 2734   2.902   0.940   0.758  0.1997 -0.2798  0.3012
  912SOL    HW1 2735   2.924   0.945   0.861 -0.4441 -2.3511  1.5604
  912SOL    HW2 2736   2.832   1.013   0.737 -0.0012  0.5233  2.5361
  913SOL     OW 2737   2.597   1.283   1.518  0.0526  0.0035 -0.7168
  913SOL    HW1 2738   2.626   1.180   1.519  3.3122 -0.3455 -2.1743
  913SOL    HW2 2739   2.636   1.320   1.428 -0.8803 -0.7681 -0.0222
  914SOL     OW 2740   2.754   0.500   1.274  0.2930  0.1591  0.1666
  914SOL    HW1 2741   2.724   0.411   1.325 -3.5656  1.2628  1.0050
  914SOL    HW2 2742   2.715   0.583   1.324 -5.1905 -0.4638 -1.1564
  915SOL     OW 2743   1.207   0.787   1.038  0.2114 -0.1240  0.1692
  915SOL    HW1 2744   1.250   0.745   1.121 -1.5910 -0.4872 -2.1782
  915SOL    HW2 2745   1.107   0.823   1.058 -0.9897  1.2271  0.3092
  916SOL     OW 2746   0.570   0.016   0.560 -0.3429 -0.0173  0.2390
  916SOL    HW1 2747   0.589   0.071   0.647  1.1276  1.1083 -0.1089
  916SOL    HW2 2748   0.568   0.079   0.476 -1.5402 -0.6589  0.8168
  917SOL     OW 2749   2.757   2.626   1.872  0.7550  0.7696 -0.1364
  917SOL    HW1 2750   2.692   2.710   1.880 -5.0148  0.7650  0.8915
  917SOL    HW2 2751   2.858   2.647   1.871 -2.6133 -0.7635 -1.2374
  918SOL     OW 2752   1.098   2.199   3.060  0.5206  0.7032  0.3601
  918SOL    HW1 2753   1.059   2.194   3.154  1.1148 -1.5837 -0.6497
  918SOL    HW2 2754   1.178   2.141   3.038 -0.3065 -1.0944 -1.8154
  919SOL     OW 2755   0.908   1.556   2.817  0.0531  0.4067  1.2512
  919SOL    HW1 2756   0.904   1.644   2.761  0.0062 -0.1327  0.7081
  919SOL    HW2 2757   0.842   1.486   2.779 -0.4901  1.1068  0.7509
  920SOL     OW 2758   1.199   1.989   2.472 -0.0723 -0.1936  0.3874
  920SOL    HW1 2759   1.124   2.002   2.402 -0.0821 -3.2928  1.5802
  920SOL    HW2 2760   1.186   1.911   2.535 -1.8179  2.4053  0.2673
  921SOL     OW 2761   1.080   0.092   2.491  0.1173  0.0872 -0.6633
  921SOL    HW1 2762   1.082   0.030   2.410 -1.2323 -1.1581 -2.0343
  921SOL    HW2 2763   1.016   0.177   2.475  1.0683  0.2486  1.7400
  922SOL     OW 2764   2.166   2.392   2.812  0.5099 -0.1057  0.0842
  922SOL    HW1 2765   2.129   2.298   2.811 -0.9425  1.2725 -0.8495
  922SOL    HW2 2766   2.139   2.445   2.727  0.3352  0.6164 -1.2883
  923SOL     OW 2767   1.247   2.712   0.204  0.1264  0.4595  0.0600
  923SOL    HW1 2768   1.327   2.773   0.237  1.8647  1.3715  1.8340
  923SOL    HW2 2769   1.276   2.612   0.177  0.9859 -0.3712 -0.0524
  924SOL     OW 2770   2.945   1.628   0.093  0.3078  0.1313  0.4253
  924SOL    HW1 2771   2.852   1.607   0.054 -0.6170  1.0568  1.7382
  924SOL    HW2 2772   3.022   1.596   0.029 -0.3355  2.1788 -0.9654
  925SOL     OW 2773   0.051   2.864   1.640  0.1011  0.1568 -0.3808
  925SOL    HW1 2774  -0.002   2.947   1.670 -1.7626 -0.1258 -0.3451
  925SOL    HW2 2775   0.076   2.861   1.543  0.0168 -0.7750  4.0105
  926SOL     OW 2776   1.449   2.885   1.265  0.9492 -0.1584  0.0661
  926SOL    HW1 2777   1.458   2.898   1.165 -0.1472  2.7536 -0.4763
  926SOL    HW2 2778   1.451   2.975   1.317  0.3497 -1.7444  0.3083
  927SOL     OW 2779   0.241   2.592   1.694  0.3157  0.4470 -0.2443
  927SOL    HW1 2780   0.204   2.500   1.657 -0.5497  0.7386  2.3219
  927SOL    HW2 2781   0.296   2.644   1.623  0.5142  0.8588 -1.3353
  928SOL     OW 2782   1.623   2.046   2.132 -0.1089  0.1481  0.2528
  928SOL    HW1 2783   1.657   2.144   2.116  2.3054  2.5071  2.4866
  928SOL    HW2 2784   1.526   2.042   2.101  1.8966  1.0085 -0.2249
  929SOL     OW 2785   2.443   2.414   2.885 -0.3591  0.5253  0.3648
  929SOL    HW1 2786   2.339   2.403   2.880 -0.4299  0.6101 -2.2147
  929SOL    HW2 2787   2.494   2.399   2.795  0.6373  1.6432 -0.3121
  930SOL     OW 2788   2.093   2.011   1.091 -0.8930  0.3764 -0.3327
  930SOL    HW1 2789   2.079   1.982   1.188 -1.0245 -0.2476  0.5684
  930SOL    HW2 2790   2.188   2.043   1.065  0.6326  0.5489  2.2965
  931SOL     OW 2791   0.558   1.760   2.678  0.1410 -0.1247 -0.0924
  931SOL    HW1 2792   0.601   1.778   2.772  0.2340  1.6150  2.4521
  931SOL    HW2 2793   0.567   1.665   2.652  0.0386 -0.1489 -2.4620
  932SOL     OW 2794   0.544   0.132   2.929  0.4215  0.4472 -0.0528
  932SOL    HW1 2795   0.636   0.151   2.885 -0.3569 -0.5630 -0.4202
  932SOL    HW2 2796   0.537   0.031   2.953 -0.2802 -1.0309 -0.6157
  933SOL     OW 2797   1.044   0.799   2.964  0.0252  0.0115 -0.4664
  933SOL    HW1 2798   1.113   0.811   3.040 -0.1812 -3.2263 -1.9786
  933SOL    HW2 2799   1.024   0.887   2.914 -1.4394 -1.1571  1.3164
  934SOL     OW 2800   0.867   2.954   2.842 -0.8029 -0.0859  0.4374
  934SOL    HW1 2801   0.970   2.932   2.823  0.6061  2.6490  0.2177
  934SOL    HW2 2802   0.822   2.899   2.915  3.6031 -0.0729 -3.6405
  935SOL     OW 2803   3.035   0.537   0.861 -0.0222  0.2316  0.8324
  935SOL    HW1 2804   3.023   0.499   0.767 -2.1218  1.8225  1.5411
  935SOL    HW2 2805   2.948   0.584   0.882  1.5488 -0.9137 -0.7633
  936SOL     OW 2806   1.109   2.969   0.138 -0.3950 -0.6831 -0.5224
  936SOL    HW1 2807   1.144   3.018   0.051  1.9415 -1.1662 -1.2435
  936SOL    HW2 2808   1.153   2.877   0.142 -0.4769  1.3878  0.7120
  937SOL     OW 2809   1.931   2.714   2.106 -0.1862  0.0968 -0.2445
  937SOL    HW1 2810   1.851   2.711   2.169 -1.2299  0.7086 -0.8009
  937SOL    HW2 2811   1.911   2.714   2.002 -3.8375 -0.3696 -1.7485
  938SOL     OW 2812   2.707   2.196   1.513 -0.3853  0.3589  0.2187
  938SOL    HW1 2813   2.656   2.244   1.588 -2.1760  1.2542 -0.5241
  938SOL    HW2 2814   2.770   2.118   1.551 -0.9352  0.2332 -0.3167
  939SOL     OW 2815   2.759   1.006   2.558  0.0218  0.4465  0.6171
  939SOL    HW1 2816   2.831   0.934   2.576  2.0054 -1.4920  0.8637
  939SOL    HW2 2817   2.752   1.084   2.627 -3.2922 -2.6792 -1.1346
  940SOL     OW 2818   1.015   0.477   2.651 -0.1418  0.3260  0.4142
  940SOL    HW1 2819   1.054   0.398   2.711 -1.2632 -0.8860  0.4456
  940SOL    HW2 2820   0.918   0.457   2.617  1.0088 -0.3229  1.6479
  941SOL     OW 2821   0.029   2.870   2.220  0.2589  0.0881  0.5535
  941SOL    HW1 2822  -0.016   2.781   2.183  0.6147  0.2490 -0.3117
  941SOL    HW2 2823   0.107   2.860   2.290  0.4232  0.2643  2.8717
  942SOL     OW 2824   0.160   0.074   2.561  0.1532 -0.2781  0.3387
  942SOL    HW1 2825   0.225   0.089   2.641 -1.0319  1.4400 -1.3407
  942SOL    HW2 2826   0.115   0.160   2.527  3.1776 -1.5647  2.5150
  943SOL     OW 2827   2.122   1.645   2.391  0.1791 -0.5762 -0.4620
  943SOL    HW1 2828   2.189   1.572   2.422 -0.4978  0.2641  2.7316
  943SOL    HW2 2829   2.055   1.625   2.317 -2.1942  3.3549 -0.7925
  944SOL     OW 2830   2.187   2.332   1.423 -0.0948  1.0008  0.3099
  944SOL    HW1 2831   2.220   2.418   1.467  0.0801 -1.0926 -1.5618
  944SOL    HW2 2832   2.162   2.261   1.500  1.5140 -1.2949  1.4328
  945SOL     OW 2833   0.580   1.402   0.329 -0.6602 -0.3826 -0.2619
  945SOL    HW1 2834   0.610   1.469   0.255 -1.0965  0.6113  1.3390
  945SOL    HW2 2835   0.665   1.350   0.367  0.6206  1.6088 -2.5554
  946SOL     OW 2836   0.315   0.965   2.644  0.0819 -0.1228 -0.0091
  946SOL    HW1 2837   0.252   0.935   2.566 -1.8396 -1.8573  0.7802
  946SOL    HW2 2838   0.361   1.059   2.622  1.1142  0.3882  1.1796
  947SOL     OW 2839   1.543   0.454   0.118  0.2425  0.0026 -0.7770
  947SOL    HW1 2840   1.562   0.403   0.209  2.3162  0.9762 -0.1734
  947SOL    HW2 2841   1.460   0.424   0.065  1.3546 -0.8552  1.4433
  948SOL     OW 2842   2.061   3.032   2.126  0.6276 -0.6186  0.0279
  948SOL    HW1 2843   1.992   3.032   2.050 -0.5731  1.3074  0.7884
  948SOL    HW2 2844   2.024   2.991   2.218 -0.1079  0.9096  3.8454
  949SOL     OW 2845   0.688   2.539   0.428 -0.1706 -0.2355  0.1935
  949SOL    HW1 2846   0.700   2.634   0.387  0.5850 -0.0025  1.1067
  949SOL    HW2 2847   0.724   2.524   0.522 -0.2115  1.3779 -1.7776
  950SOL     OW 2848   0.185   2.128   3.002 -1.1730  0.1311  0.3546
  950SOL    HW1 2849   0.087   2.161   3.023  0.9446  1.1092  0.5862
  950SOL    HW2 2850   0.209   2.035   3.042  0.7235 -1.7713 -2.7820
  951SOL     OW 2851   1.114   2.882   2.789 -0.0021  0.2718 -1.1316
  951SOL    HW1 2852   1.133   2.878   2.685  0.6364  3.1850  1.2767
  951SOL    HW2 2853   1.201   2.915   2.839  1.4206 -1.0564  0.1843
  952SOL     OW 2854   0.036   1.681   0.494 -0.3336  0.0683  0.5066
  952SOL    HW1 2855   0.120   1.734   0.493 -3.0982 -2.3805 -0.8451
  952SOL    HW2 2856   0.015   1.618   0.580  3.1949 -1.2969  0.4648
  953SOL     OW 2857   2.462   1.769   0.129  0.5192 -0.3346 -0.6737
  953SOL    HW1 2858   2.450   1.669   0.153  1.2931  3.1131 -0.7818
  953SOL    HW2 2859   2.485   1.795   0.032  2.5569 -0.3100  0.3564
  954SOL     OW 2860   2.239   0.492   1.063  0.4865  0.0452  0.4122
  954SOL    HW1 2861   2.215   0.518   0.961 -0.4198 -0.7443  0.6552
  954SOL    HW2 2862   2.336   0.465   1.069 -1.8647 -0.1320  2.5401
  955SOL     OW 2863   0.235   2.672   1.225  0.8159 -0.0470  0.2792
  955SOL    HW1 2864   0.152   2.613   1.251  2.6159 -0.6767  1.3335
  955SOL    HW2 2865   0.264   2.664   1.126 -1.2055  0.0954 -1.2950
  956SOL     OW 2866   2.781   2.479   2.512  0.3813 -0.3754  0.5119
  956SOL    HW1 2867   2.819   2.389   2.491 -0.5155  2.0901 -1.0556
  956SOL    HW2 2868   2.811   2.554   2.447 -0.9807  1.5659  2.1464
  957SOL     OW 2869   1.548   2.031   2.699 -0.0539  0.7061  0.3113
  957SOL    HW1 2870   1.518   1.939   2.733  0.2548  4.7077  3.2615
  957SOL    HW2 2871   1.558   2.037   2.593 -2.0548  1.3246  0.5420
  958SOL     OW 2872   2.661   2.258   2.979  0.4467 -0.2281  0.4226
  958SOL    HW1 2873   2.566   2.297   2.955  1.8925 -1.3747  0.1055
  958SOL    HW2 2874   2.670   2.209   3.072  0.3805 -4.3573 -1.2346
  959SOL     OW 2875   0.257   2.820   0.043  0.1186  0.4366  0.1399
  959SOL    HW1 2876   0.209   2.817   0.136  0.0804 -1.0859  1.6771
  959SOL    HW2 2877   0.277   2.723   0.006 -1.5502 -2.4225  0.0914
  960SOL     OW 2878   1.927   0.451   2.083  0.2597  0.1080  0.9951
  960SOL    HW1 2879   1.890   0.531   2.026 -0.1039  0.5902  0.3954
  960SOL    HW2 2880   1.978   0.477   2.168 -1.4424 -2.0729 -1.3810
  961SOL     OW 2881   2.774   2.010   1.058  0.6860  0.5588  0.5767
  961SOL    HW1 2882   2.849   2.081   1.058 -0.4810 -0.2143  0.2785
  961SOL    HW2 2883   2.698   2.034   1.124 -3.1363 -1.8546 -1.5437
  962SOL     OW 2884   1.260   0.929   3.091 -0.0011 -0.9044  0.2760
  962SOL    HW1 2885   1.282   1.004   3.017  0.1400  0.4298  0.3306
  962SOL    HW2 2886   1.268   0.965   3.190  0.9916  0.1703  0.9318
  963SOL     OW 2887   2.171   2.582   1.895  0.4901  0.0939 -0.5046
  963SOL    HW1 2888   2.218   2.518   1.963 -1.0663 -1.2694 -3.2087
  963SOL    HW2 2889   2.205   2.681   1.905 -0.4437 -0.3293  0.5090
  964SOL     OW 2890   2.451   0.363   1.728  0.1474  0.0158  0.0992
  964SOL    HW1 2891   2.526   0.414   1.777  0.8760 -1.3381  0.9220
  964SOL    HW2 2892   2.476   0.326   1.635  4.2945  1.2434 -0.3782
  965SOL     OW 2893   2.695   3.008   0.142  0.3613  0.0599  0.0609
  965SOL    HW1 2894   2.768   2.964   0.086  3.7074  1.0578 -0.9609
  965SOL    HW2 2895   2.622   3.046   0.084  0.7198 -0.2065  3.8573
  966SOL     OW 2896   2.518   2.596   2.235  0.0165 -0.5849  0.7149
  966SOL    HW1 2897   2.446   2.541   2.179 -0.9869 -0.1304 -2.0867
  966SOL    HW2 2898   2.477   2.682   2.277 -0.1527 -0.4875 -2.8548
  967SOL     OW 2899   2.727   2.880   2.486  0.2315  0.8325  0.0035
  967SOL    HW1 2900   2.764   2.811   2.417  0.0951  1.5002 -1.0436
  967SOL    HW2 2901   2.792   2.963   2.491  1.4365 -0.9162  0.4341
  968SOL     OW 2902   1.956   1.067   2.736 -0.0120  0.3265  0.5394
  968SOL    HW1 2903   1.881   1.135   2.714 -1.8633  1.6623  1.1544
  968SOL    HW2 2904   1.933   0.979   2.691 -4.1318  1.2102  0.1081
  969SOL     OW 2905   2.727   2.390   1.193 -0.5892  0.3327  0.3982
  969SOL    HW1 2906   2.668   2.365   1.110  0.4786 -0.4442 -0.3546
  969SOL    HW2 2907   2.784   2.309   1.218  3.4161  0.6212 -1.5285
  970SOL     OW 2908   1.088   2.073   1.815 -0.4206 -0.2750  0.4618
  970SOL    HW1 2909   1.003   2.100   1.769 -0.2140 -0.2052 -0.5007
  970SOL    HW2 2910   1.088   2.112   1.912 -3.9766  0.0399  2.1327
  971SOL     OW 2911   2.844   2.144   1.920  0.3315  0.0392  0.0214
  971SOL    HW1 2912   2.829   2.243   1.942  2.1921 -2.6199 -0.2392
  971SOL    HW2 2913   2.935   2.141   1.870 -2.5211 -1.2746 -1.0409
  972SOL     OW 2914   2.054   2.478   0.264  0.0152 -0.3995 -0.2709
  972SOL    HW1 2915   2.008   2.413   0.200  3.7179  1.8142  0.6522
  972SOL    HW2 2916   2.050   2.450   0.363 -2.2611 -1.2122 -0.5486
  973SOL     OW 2917   1.294   1.054   1.835 -0.5981 -0.1292 -0.8235
  973SOL    HW1 2918   1.220   1.034   1.765 -0.3531  1.6657  0.7324
  973SOL    HW2 2919   1.302   1.155   1.856 -0.0900  2.6939  3.2387
  974SOL     OW 2920   1.623   0.585   2.023 -0.6489  0.7332 -0.2595
  974SOL    HW1 2921   1.684   0.591   1.944 -1.2279  1.1481  2.3740
  974SOL    HW2 2922   1.535   0.630   2.008  0.1942  0.5903  3.2001
  975SOL     OW 2923   2.456   3.054   3.067 -0.3715  0.4738 -0.5636
  975SOL    HW1 2924   2.420   3.001   3.148  1.5749 -1.0408  0.5031
  975SOL    HW2 2925   2.431   3.012   2.971  0.5572  0.0977 -0.3431
  976SOL     OW 2926   1.970   2.927   2.365 -0.6394  0.1242 -0.5035
  976SOL    HW1 2927   1.892   2.859   2.359  4.2488  0.4929  0.2979
  976SOL    HW2 2928   2.058   2.887   2.407 -1.0086  0.0769 -1.0014
  977SOL     OW 2929   0.459   0.533   0.957 -0.5724 -0.2651 -0.6043
  977SOL    HW1 2930   0.367   0.526   0.905 -2.1272 -0.4695 -3.5135
  977SOL    HW2 2931   0.537   0.565   0.895 -4.3289 -1.9160 -1.5927
   3.10000   3.10000   3.10000
