1000 SPC/Fw water molecules t=   1.05000 step= 1050
 2931
    1SOL     OW    1   2.572   0.344   2.655 -0.6052  0.0603  0.4352
    1SOL    HW1    2   2.600   0.246   2.630  1.8463  0.0371 -3.7121
    1SOL    HW2    3   2.614   0.375   2.744  2.5810  0.8203  0.3144
    2SOL     OW    4   2.704   3.042   1.417  0.2111 -0.2479 -0.0744
    2SOL    HW1    5   2.782   3.048   1.350  1.5111 -0.3200 -2.3686
    2SOL    HW2    6   2.665   3.132   1.449 -1.1291 -0.4506 -1.3039
    3SOL     OW    7   2.631   2.627   0.435 -0.7390 -0.3853  0.0168
    3SOL    HW1    8   2.621   2.521   0.424 -0.2127 -2.9468  1.9824
    3SOL    HW2    9   2.714   2.655   0.495 -2.2886  1.7147  1.9939
    4SOL     OW   10   1.228   1.550   2.309  0.0917  0.3393  0.1799
    4SOL    HW1   11   1.162   1.573   2.232 -1.5832 -2.4929 -0.2835
    4SOL    HW2   12   1.206   1.459   2.350  0.0398 -1.0287  2.8349
    5SOL     OW   13   1.153   1.519   3.061 -0.4523  0.8855 -0.4587
    5SOL    HW1   14   1.211   1.603   3.074  1.9229 -1.9617  1.5216
    5SOL    HW2   15   1.075   1.515   3.133 -0.5432  0.2176 -0.3920
    6SOL     OW   16   0.163   1.737   2.987 -0.0670 -0.2795  0.1138
    6SOL    HW1   17   0.093   1.766   3.063 -3.5929 -0.0899  2.2531
    6SOL    HW2   18   0.248   1.697   3.032  0.6144 -0.4576 -3.2261
    7SOL     OW   19   2.592   0.899   1.084 -0.1035 -0.0046 -0.2724
    7SOL    HW1   20   2.504   0.849   1.116 -1.1217 -1.8681 -0.9230
    7SOL    HW2   21   2.591   0.910   0.978 -0.0399  1.7064 -0.7197
    8SOL     OW   22   0.404   0.646   1.521  0.2172 -0.5326 -0.3638
    8SOL    HW1   23   0.497   0.603   1.542 -1.0485 -2.8328 -1.5486
    8SOL    HW2   24   0.368   0.621   1.423 -0.0898 -1.4947 -0.4784
    9SOL     OW   25   1.189   0.897   2.422  0.1241  1.0757  0.1295
    9SOL    HW1   26   1.231   0.937   2.334  0.5759  0.1786 -2.3733
    9SOL    HW2   27   1.162   0.793   2.422  1.3729 -2.3905  0.1805
   10SOL     OW   28   0.679   1.370   1.304 -0.0376  0.3402  0.0187
   10SOL    HW1   29   0.579   1.379   1.290  0.6525 -0.6659  2.0299
   10SOL    HW2   30   0.734   1.462   1.295  0.7493 -2.4608  0.4103
   11SOL     OW   31   2.302   2.790   0.870 -0.4912 -0.3995  1.0393
   11SOL    HW1   32   2.246   2.818   0.952  1.9726 -0.1573  0.5259
   11SOL    HW2   33   2.389   2.754   0.898 -2.0941 -0.6071 -2.6236
   12SOL     OW   34   1.517   0.899   0.348  0.3114 -0.4696  0.4495
   12SOL    HW1   35   1.422   0.937   0.366 -0.0958 -1.2861  0.2146
   12SOL    HW2   36   1.512   0.822   0.276  1.1476 -2.6533  0.0122
   13SOL     OW   37   2.483   0.719   1.776 -0.4187 -0.3619  0.2404
   13SOL    HW1   38   2.396   0.709   1.834 -0.5813  1.2925 -0.8016
   13SOL    HW2   39   2.486   0.656   1.691 -2.0046  0.2060  2.6930
   14SOL     OW   40   1.863   0.105   0.675 -0.5754 -0.1551  0.0417
   14SOL    HW1   41   1.774   0.114   0.619 -0.6611  0.7597  0.4895
   14SOL    HW2   42   1.865   0.012   0.719  0.0401 -0.9051 -1.6065
   15SOL     OW   43   1.955   2.101   2.721 -0.0461 -0.1733 -0.0116
   15SOL    HW1   44   1.870   2.158   2.726 -0.2807 -0.2587  0.2228
   15SOL    HW2   45   1.939   2.013   2.668  0.3025  0.5019  0.6687
   16SOL     OW   46   1.624   1.695   2.978  0.2225 -0.1273  0.3656
   16SOL    HW1   47   1.619   1.607   3.032 -0.1182  0.4612  1.1416
   16SOL    HW2   48   1.703   1.750   3.008  0.1235 -1.8672 -0.9057
   17SOL     OW   49   0.107   0.466   0.160 -0.3308 -0.2584  0.0729
   17SOL    HW1   50   0.202   0.506   0.134 -2.9787 -3.7264 -0.7043
   17SOL    HW2   51   0.031   0.494   0.097 -0.5718  0.3663  0.8328
   18SOL     OW   52   0.947   2.928   2.159 -0.2369  0.6721  0.0956
   18SOL    HW1   53   0.856   2.887   2.144  2.4756 -0.6949  1.7718
   18SOL    HW2   54   1.011   2.900   2.079 -0.2359  2.3751 -3.0340
   19SOL     OW   55   0.548   0.824   1.888 -0.0636 -0.4029 -0.0752
   19SOL    HW1   56   0.567   0.761   1.970  1.5986  1.7913  1.7958
   19SOL    HW2   57   0.624   0.874   1.844 -2.5585 -1.2307  0.7296
   20SOL     OW   58   0.183   2.771   0.858  0.0115  0.7123  0.3999
   20SOL    HW1   59   0.108   2.844   0.855  2.6453  1.5731  0.3055
   20SOL    HW2   60   0.181   2.710   0.774 -1.5275  0.3953  2.5035
   21SOL     OW   61   2.711   0.268   2.027 -0.6576 -0.0802 -0.4123
   21SOL    HW1   62   2.640   0.199   2.012 -0.1879  1.1134 -1.5068
   21SOL    HW2   63   2.798   0.227   2.068  1.0432 -0.7940 -1.4237
   22SOL     OW   64   2.346   0.259   0.143 -0.3632 -0.1909 -0.1686
   22SOL    HW1   65   2.344   0.163   0.100 -3.3584  2.6097  1.0723
   22SOL    HW2   66   2.264   0.318   0.116 -0.9895  1.6645  2.3152
   23SOL     OW   67   2.788   0.577   0.603  0.1768  0.0887 -0.2898
   23SOL    HW1   68   2.804   0.475   0.597 -3.3700  0.8747  0.5012
   23SOL    HW2   69   2.736   0.608   0.520  1.9101 -0.5704  2.5613
   24SOL     OW   70   0.202   1.942   0.397  0.2006  0.5573  0.1327
   24SOL    HW1   71   0.135   1.978   0.325  3.7150 -0.4438  4.4950
   24SOL    HW2   72   0.295   1.914   0.357 -0.7639  1.8084 -0.3466
   25SOL     OW   73   2.237   0.612   0.238 -0.0500  0.2389  0.3343
   25SOL    HW1   74   2.251   0.604   0.134  0.6965 -0.5701  2.5920
   25SOL    HW2   75   2.264   0.528   0.290 -1.3714 -1.3528 -0.8363
   26SOL     OW   76   2.493   2.151   2.066 -0.2090  0.2976 -0.0098
   26SOL    HW1   77   2.570   2.213   2.081 -1.9841 -1.3146 -0.4674
   26SOL    HW2   78   2.517   2.081   1.998  2.2424  2.3359  0.6439
   27SOL     OW   79   0.595   2.914   0.206  0.4265  0.2055 -0.0480
   27SOL    HW1   80   0.697   2.940   0.191 -1.1918  0.3659 -0.9221
   27SOL    HW2   81   0.533   2.931   0.123  1.7501 -2.7795 -2.7968
   28SOL     OW   82   1.571   0.196   0.284  0.3632 -0.4363 -0.1129
   28SOL    HW1   83   1.654   0.167   0.224  2.4375  0.4696  1.8176
   28SOL    HW2   84   1.580   0.295   0.315  1.1289 -1.0673 -0.2920
   29SOL     OW   85   1.982   0.609   0.351  0.7015 -0.3951 -0.3114
   29SOL    HW1   86   1.952   0.699   0.393 -4.1651 -0.8482 -1.5906
   29SOL    HW2   87   2.085   0.602   0.323 -0.5558  0.5155 -1.9678
   30SOL     OW   88   0.161   1.967   0.930 -0.1658  0.9629  0.2514
   30SOL    HW1   89   0.131   1.930   0.837 -0.6553 -0.3712  0.3013
   30SOL    HW2   90   0.094   2.040   0.958 -0.3511 -1.3298 -0.9453
   31SOL     OW   91   2.137   3.086   2.364  0.1522  0.4805 -0.0621
   31SOL    HW1   92   2.180   3.021   2.430  2.1547 -2.1617 -0.3199
   31SOL    HW2   93   2.043   3.055   2.334 -0.2311 -0.5749  1.1280
   32SOL     OW   94   2.976   0.024   0.248 -0.3311  0.3913 -0.1650
   32SOL    HW1   95   2.953  -0.078   0.221  0.4828 -0.8461  3.0936
   32SOL    HW2   96   3.062   0.068   0.220 -1.7655  2.2490  0.3473
   33SOL     OW   97   0.904   0.323   0.583 -0.1217 -0.0191 -0.0376
   33SOL    HW1   98   0.874   0.237   0.531 -0.8829 -0.9265  0.5340
   33SOL    HW2   99   1.007   0.339   0.575  2.1140 -0.5342  1.5549
   34SOL     OW  100   0.331   2.751   1.084  0.0316 -0.4676 -0.1533
   34SOL    HW1  101   0.306   2.720   0.989 -2.4035  0.5726  0.4324
   34SOL    HW2  102   0.427   2.785   1.103  2.4121  1.1772 -0.5571
   35SOL     OW  103   0.019   0.096   1.892 -0.5997  0.4815  0.0327
   35SOL    HW1  104   0.052  -0.002   1.909  0.7832  0.5512  1.9311
   35SOL    HW2  105  -0.034   0.112   1.803 -0.5155 -0.5834 -2.6948
   36SOL     OW  106   1.928   1.315   1.666 -0.0992 -0.3388 -0.9180
   36SOL    HW1  107   1.985   1.233   1.653 -2.4981  0.8801 -0.5343
   36SOL    HW2  108   1.950   1.381   1.588 -0.3748  2.5182 -0.1302
   37SOL     OW  109   1.186   0.206   0.983  0.0555 -0.4796 -0.1185
   37SOL    HW1  110   1.248   0.286   1.022 -0.3661  0.7421 -0.5576
   37SOL    HW2  111   1.236   0.113   0.970  0.0023 -1.0674  0.7505
   38SOL     OW  112   1.136   2.847   2.460  0.6360 -0.4189 -0.7438
   38SOL    HW1  113   1.081   2.764   2.420  1.6738 -2.4405  2.1480
   38SOL    HW2  114   1.098   2.937   2.433  0.1162 -2.6363  0.2561
   39SOL     OW  115   2.311   1.460   3.057  0.2978 -0.2496  0.0381
   39SOL    HW1  116   2.359   1.371   3.068 -2.7906 -0.5459 -0.4372
   39SOL    HW2  117   2.262   1.488   3.143 -1.6517  0.1346 -2.0594
   40SOL     OW  118   2.006   2.428   2.555 -0.3590 -0.2425 -0.2387
   40SOL    HW1  119   1.975   2.527   2.579  0.0699 -0.1865  0.8004
   40SOL    HW2  120   1.953   2.394   2.473 -0.4378  0.3151  1.0684
   41SOL     OW  121   3.031   0.683   2.800  0.0896 -0.3683 -0.0438
   41SOL    HW1  122   2.961   0.763   2.797  0.2688 -1.9580  1.7079
   41SOL    HW2  123   2.988   0.592   2.764 -1.6303  0.5155 -1.0977
   42SOL     OW  124   1.779   1.791   0.506 -0.1755  0.1022 -0.5077
   42SOL    HW1  125   1.722   1.701   0.512 -1.4005 -1.1248 -1.4028
   42SOL    HW2  126   1.800   1.823   0.408 -0.0872 -0.8911 -3.5416
   43SOL     OW  127   0.434   1.681   1.133  0.1770  0.3119 -0.1372
   43SOL    HW1  128   0.431   1.576   1.162 -0.2171 -1.0208 -1.7242
   43SOL    HW2  129   0.351   1.703   1.082  0.7900  1.6098  1.9987
   44SOL     OW  130   1.743   2.416   3.007 -0.3148 -0.6915 -0.1698
   44SOL    HW1  131   1.674   2.489   3.009 -0.2345 -2.5613  1.1698
   44SOL    HW2  132   1.757   2.372   2.916 -2.1677  0.9783  1.3249
   45SOL     OW  133   0.372   1.884   2.623 -0.0365  0.1753  0.5348
   45SOL    HW1  134   0.342   1.868   2.523  0.1548  2.5708 -2.2895
   45SOL    HW2  135   0.453   1.820   2.646 -1.4047 -1.4457  0.1320
   46SOL     OW  136   1.232   0.613   0.145  0.2831 -0.1026  0.0094
   46SOL    HW1  137   1.278   0.696   0.104  0.7642 -0.8854 -2.1790
   46SOL    HW2  138   1.132   0.616   0.135  3.1929 -0.2658  0.5087
   47SOL     OW  139   0.208   2.546   1.544  0.4202  0.0791 -0.7653
   47SOL    HW1  140   0.228   2.453   1.574  1.5530  1.7048  0.4672
   47SOL    HW2  141   0.204   2.552   1.441 -1.9162  1.0941  1.2232
   48SOL     OW  142   2.641   0.632   0.141  0.0358 -0.0585 -0.6009
   48SOL    HW1  143   2.628   0.597   0.241  1.1845 -2.2572  0.1581
   48SOL    HW2  144   2.733   0.676   0.125 -3.0940  1.1965 -1.7516
   49SOL     OW  145   0.323   0.752   1.765 -0.1387 -0.2325 -0.2390
   49SOL    HW1  146   0.411   0.786   1.810 -2.0283  0.8185  0.2988
   49SOL    HW2  147   0.342   0.714   1.670 -0.7462 -1.1941 -0.1150
   50SOL     OW  148   1.671   1.123   0.338  0.1233  0.1328  0.2761
   50SOL    HW1  149   1.638   1.027   0.321 -0.6913  3.4148 -0.1516
   50SOL    HW2  150   1.655   1.140   0.437  0.1746 -1.3040 -2.6282
   51SOL     OW  151   2.916   1.767   0.244  0.5003 -0.6417  0.1788
   51SOL    HW1  152   2.875   1.688   0.195  1.8152 -2.8532  1.1840
   51SOL    HW2  153   3.000   1.731   0.295 -1.4719  0.6784 -1.0076
   52SOL     OW  154   0.802   2.071   0.549 -0.1215  0.4800  0.7769
   52SOL    HW1  155   0.737   2.121   0.606  3.0404  1.5679  1.8256
   52SOL    HW2  156   0.834   1.983   0.598 -0.2702  0.0095 -1.9342
   53SOL     OW  157   0.191   0.436   1.590  0.6576  0.3819 -0.2807
   53SOL    HW1  158   0.268   0.503   1.609 -1.2079  1.6780  0.0957
   53SOL    HW2  159   0.104   0.475   1.552  0.1603 -0.9134  2.0676
   54SOL     OW  160   1.810   0.527   3.077  0.0891 -0.1950 -0.5127
   54SOL    HW1  161   1.862   0.497   3.163  0.6376  2.2180 -3.0975
   54SOL    HW2  162   1.714   0.480   3.059 -2.4915  2.4664  0.1560
   55SOL     OW  163   0.755   2.904   0.689  0.3337 -0.3562  0.0226
   55SOL    HW1  164   0.683   2.982   0.687  2.4774 -1.6350  0.1530
   55SOL    HW2  165   0.853   2.938   0.681 -1.9134  1.0785  3.0982
   56SOL     OW  166   0.596   1.564   0.019  0.3557 -0.2486 -0.2775
   56SOL    HW1  167   0.503   1.594   0.056  0.6646 -0.9115 -2.6083
   56SOL    HW2  168   0.585   1.482  -0.039  2.3739  2.3646 -1.7055
   57SOL     OW  169   1.756   2.527   2.376  0.1582 -0.0910 -0.8689
   57SOL    HW1  170   1.784   2.424   2.367  1.7615  1.0204  0.2851
   57SOL    HW2  171   1.681   2.534   2.442 -0.9393  0.2123 -2.3903
   58SOL     OW  172   0.706   0.257   1.070  0.7898 -0.7645 -0.1226
   58SOL    HW1  173   0.604   0.262   1.088 -3.2606 -0.5645  2.3288
   58SOL    HW2  174   0.744   0.170   1.028 -0.6691 -1.5615 -2.1462
   59SOL     OW  175   0.398   2.328   2.726 -0.3568 -0.8118 -0.1404
   59SOL    HW1  176   0.432   2.236   2.687 -0.0912 -0.0084 -1.8322
   59SOL    HW2  177   0.448   2.358   2.812 -0.6316  0.4078  3.4275
   60SOL     OW  178   2.317   2.067   2.261  0.3849  0.1817  0.1326
   60SOL    HW1  179   2.375   2.121   2.198 -0.4773 -0.6793  2.7198
   60SOL    HW2  180   2.329   2.108   2.353  0.1282  0.0842  0.1838
   61SOL     OW  181   1.321   0.647   0.441 -0.4741 -0.5156 -0.1492
   61SOL    HW1  182   1.222   0.656   0.466  0.4483 -2.0683  0.2708
   61SOL    HW2  183   1.336   0.622   0.338  2.5795  0.9291  0.1415
   62SOL     OW  184   2.707   1.825   2.932  0.2571 -0.6050 -0.2041
   62SOL    HW1  185   2.659   1.804   2.844 -0.6936 -1.2748 -0.3364
   62SOL    HW2  186   2.792   1.772   2.953 -0.6385  2.1268  0.1113
   63SOL     OW  187   0.515   0.807   0.189  0.0515 -0.0674 -0.6189
   63SOL    HW1  188   0.550   0.892   0.134  0.6591  1.6983  0.9332
   63SOL    HW2  189   0.503   0.830   0.292  0.8322 -0.9277 -0.4190
   64SOL     OW  190   0.079   0.429   2.470  0.1284  0.0318 -0.2945
   64SOL    HW1  191   0.082   0.485   2.550 -1.8800 -1.1391 -0.0917
   64SOL    HW2  192   0.067   0.488   2.389 -2.3959  0.2569  1.6913
   65SOL     OW  193   0.153   1.519   0.601  0.2844 -0.0778 -0.0690
   65SOL    HW1  194   0.181   1.570   0.685  4.8959 -0.7632  0.5906
   65SOL    HW2  195   0.235   1.476   0.555  1.0691 -1.6573 -1.8728
   66SOL     OW  196   2.541   0.355   0.586 -0.0080 -0.5192  0.0008
   66SOL    HW1  197   2.639   0.331   0.612  1.2623  0.0457 -1.1928
   66SOL    HW2  198   2.473   0.320   0.658 -3.7011  2.6726  0.9065
   67SOL     OW  199   0.563   2.508   1.446  0.3875 -0.7604  0.4732
   67SOL    HW1  200   0.659   2.478   1.471 -0.1565  0.3914  1.1924
   67SOL    HW2  201   0.491   2.432   1.444  0.0004 -2.3123 -2.6202
   68SOL     OW  202   1.001   1.102   2.498 -0.5738 -0.2651 -0.0679
   68SOL    HW1  203   1.086   1.052   2.472 -2.5381  0.0955 -0.2586
   68SOL    HW2  204   0.935   1.103   2.421  1.3838 -0.4877  2.8536
   69SOL     OW  205   0.719   2.764   2.151 -0.7305  0.5357  0.5223
   69SOL    HW1  206   0.752   2.671   2.124 -0.4835 -2.6215 -0.3798
   69SOL    HW2  207   0.617   2.763   2.170  0.2876 -0.4163  0.8053
   70SOL     OW  208   0.477   0.235   2.639 -0.2837 -0.3016 -0.7027
   70SOL    HW1  209   0.373   0.225   2.658 -1.1090 -0.3558  2.0997
   70SOL    HW2  210   0.525   0.147   2.659  2.3572  0.8183 -0.5892
   71SOL     OW  211   1.125   1.773   0.436  0.2447  0.0633 -0.5824
   71SOL    HW1  212   1.101   1.684   0.489  3.3961  0.1164  0.4123
   71SOL    HW2  213   1.065   1.797   0.360 -1.7086  0.9393 -0.3408
   72SOL     OW  214   1.824   0.201   2.143  0.2407 -0.6396  0.1310
   72SOL    HW1  215   1.875   0.289   2.142  0.6877  0.5222  0.6064
   72SOL    HW2  216   1.882   0.115   2.129 -1.6251  4.3896  1.0284
   73SOL     OW  217   2.816   2.167   2.402  0.2339 -0.4536 -0.3028
   73SOL    HW1  218   2.839   2.072   2.371 -1.5035 -0.2472 -0.2316
   73SOL    HW2  219   2.853   2.185   2.499  0.5141 -3.6639  4.1337
   74SOL     OW  220   2.684   2.847   2.148  0.2972 -0.1574  0.1572
   74SOL    HW1  221   2.656   2.856   2.247 -2.6499  0.3641  1.8732
   74SOL    HW2  222   2.759   2.910   2.126 -2.6505 -2.4451  2.8479
   75SOL     OW  223   0.934   0.853   1.096 -0.2035 -0.3058 -0.0267
   75SOL    HW1  224   0.839   0.889   1.062 -0.1337  1.7053  1.8428
   75SOL    HW2  225   0.938   0.876   1.199 -0.2385  0.0248  1.8258
   76SOL     OW  226   1.724   1.204   2.513  0.1443  0.2149  0.1646
   76SOL    HW1  227   1.624   1.194   2.478 -1.7694  1.8321 -1.1168
   76SOL    HW2  228   1.735   1.297   2.561 -0.9015  0.2601 -0.7540
   77SOL     OW  229   2.934   0.938   0.997 -0.1027  0.3616  0.1899
   77SOL    HW1  230   2.907   0.838   0.980  2.4900 -0.8237  1.8145
   77SOL    HW2  231   2.993   0.947   1.084 -0.6416  2.0590  3.2302
   78SOL     OW  232   1.999   1.461   1.465 -0.2818 -0.2325  0.3668
   78SOL    HW1  233   2.104   1.479   1.460  2.4676 -0.7893 -0.0655
   78SOL    HW2  234   1.953   1.485   1.376 -0.1564  1.5823 -0.4990
   79SOL     OW  235   0.607   1.394   0.809  0.2055  0.6364 -0.0791
   79SOL    HW1  236   0.506   1.397   0.828  4.4470 -1.1491  0.5166
   79SOL    HW2  237   0.627   1.350   0.717  1.3515  0.7533  0.5580
   80SOL     OW  238   0.631   0.505   1.565  0.4423  0.0225 -0.0186
   80SOL    HW1  239   0.703   0.555   1.513 -0.2725  0.9312  0.7535
   80SOL    HW2  240   0.623   0.405   1.531  0.0198 -0.7042 -0.2674
   81SOL     OW  241   1.039   1.338   2.625  0.0360 -0.4731 -0.3997
   81SOL    HW1  242   1.019   1.238   2.613  2.8654 -1.5190  1.9837
   81SOL    HW2  243   0.965   1.391   2.577 -0.4301  0.6217  2.1094
   82SOL     OW  244   0.971   3.010   1.551 -0.1163  0.1990  0.5255
   82SOL    HW1  245   0.869   3.022   1.559 -1.4149  0.4504 -0.4042
   82SOL    HW2  246   0.994   2.949   1.469 -0.4143  0.3467  0.3795
   83SOL     OW  247   2.656   2.401   0.844  0.2096  0.2996  0.9388
   83SOL    HW1  248   2.595   2.328   0.804 -2.0221 -1.2052 -1.4230
   83SOL    HW2  249   2.611   2.494   0.845 -0.9758 -1.9732 -2.1051
   84SOL     OW  250   0.635   3.048   2.345 -0.0031 -0.1870  0.9341
   84SOL    HW1  251   0.587   3.070   2.431  2.5636 -1.5857  3.4812
   84SOL    HW2  252   0.700   2.971   2.353 -1.4016  1.3656  1.4508
   85SOL     OW  253   0.276   1.602   1.436  0.1213  0.6515 -0.1880
   85SOL    HW1  254   0.284   1.703   1.442  1.7092 -1.2932 -0.2217
   85SOL    HW2  255   0.314   1.567   1.526  0.7001  2.4411 -1.7205
   86SOL     OW  256   0.447   1.002   1.538  0.5232  0.6234 -0.0985
   86SOL    HW1  257   0.426   0.957   1.445  0.3055 -0.1693 -0.7268
   86SOL    HW2  258   0.551   0.995   1.556  2.0853 -0.4561 -0.8430
   87SOL     OW  259   1.566   0.652   0.212 -0.1680 -0.4075  0.3974
   87SOL    HW1  260   1.647   0.725   0.207  2.1725  0.7168  0.9696
   87SOL    HW2  261   1.570   0.581   0.136  1.5537  1.4306  0.2975
   88SOL     OW  262   1.557   1.360   0.271 -0.7325 -0.3508  0.0301
   88SOL    HW1  263   1.600   1.264   0.286 -0.4827  0.2888 -0.3803
   88SOL    HW2  264   1.453   1.356   0.252 -1.3039  1.3735 -1.8775
   89SOL     OW  265   3.075   0.457   0.591  0.0200  0.2227 -0.1510
   89SOL    HW1  266   3.152   0.391   0.583  0.9524 -0.5844 -1.0118
   89SOL    HW2  267   2.980   0.410   0.593 -2.4774 -3.4102  0.0994
   90SOL     OW  268   0.911   1.567   0.075 -0.0976 -0.4028 -0.5716
   90SOL    HW1  269   0.854   1.538   0.155  0.9392 -0.4626 -0.3281
   90SOL    HW2  270   0.860   1.565  -0.017 -0.0064 -0.2879 -1.8199
   91SOL     OW  271   1.222   1.468   1.812 -0.0241  0.3105 -0.2884
   91SOL    HW1  272   1.209   1.551   1.871  0.1175  1.3525 -1.4763
   91SOL    HW2  273   1.313   1.422   1.819 -1.0000  3.3408 -2.4277
   92SOL     OW  274   3.070   0.930   1.234  0.4227 -0.0228 -0.0661
   92SOL    HW1  275   3.103   1.020   1.196 -0.6227  0.4516 -1.5201
   92SOL    HW2  276   3.068   0.927   1.339  0.0607 -0.0640  0.8321
   93SOL     OW  277   0.019   2.747   0.010 -0.4237  0.0666  0.4384
   93SOL    HW1  278  -0.052   2.753  -0.064  0.2734  0.4189  0.7650
   93SOL    HW2  279   0.045   2.650   0.028 -0.1039  1.6789  1.0774
   94SOL     OW  280   1.519   1.461   1.790  0.2151  0.2866  0.8172
   94SOL    HW1  281   1.585   1.381   1.785 -1.3053  0.2893 -2.7780
   94SOL    HW2  282   1.550   1.530   1.857 -1.9714  0.4888  2.5270
   95SOL     OW  283   1.421   2.514   3.015 -0.1069  0.0295  0.2446
   95SOL    HW1  284   1.325   2.531   3.051  2.2530 -0.7133 -3.9686
   95SOL    HW2  285   1.432   2.416   2.983  1.1342  0.1682 -1.0600
   96SOL     OW  286   0.563   2.095   1.282  0.4144 -0.0441  1.1047
   96SOL    HW1  287   0.532   2.035   1.203  0.0242  1.3872  0.2032
   96SOL    HW2  288   0.631   2.053   1.346 -0.5055  0.0060  1.6923
   97SOL     OW  289   0.386   1.633   2.441 -0.5651 -0.5549  0.2798
   97SOL    HW1  290   0.321   1.609   2.366 -1.6949 -1.1595 -2.2641
   97SOL    HW2  291   0.349   1.620   2.539 -4.8085 -0.5208  0.5312
   98SOL     OW  292   2.041   1.649   1.168  0.9682 -0.0919 -0.0931
   98SOL    HW1  293   1.969   1.584   1.217 -0.4484 -1.4170  0.0093
   98SOL    HW2  294   2.126   1.600   1.128  0.0486 -0.7068 -1.7827
   99SOL     OW  295   2.518   2.039   1.292  0.0878  0.4296 -0.4086
   99SOL    HW1  296   2.543   2.046   1.393  0.0327 -0.5422 -0.7341
   99SOL    HW2  297   2.514   1.941   1.255  0.6785  1.2301 -2.6434
  100SOL     OW  298   2.347   0.364   2.083 -0.5482  0.5998 -0.2706
  100SOL    HW1  299   2.273   0.343   2.156  2.0943  0.9883  1.8172
  100SOL    HW2  300   2.428   0.412   2.129 -3.3848  3.0431  2.0574
  101SOL     OW  301   0.422   1.481   0.462  0.0036  0.4533  0.3117
  101SOL    HW1  302   0.444   1.577   0.495  1.0524  0.6966  1.1300
  101SOL    HW2  303   0.498   1.413   0.480 -2.0918  0.3172 -0.3697
  102SOL     OW  304   2.235   1.037   0.835  0.7961  0.2428  0.3934
  102SOL    HW1  305   2.163   0.973   0.791 -1.8553  1.0133 -0.1665
  102SOL    HW2  306   2.292   1.096   0.778 -4.2898  3.8583  0.3688
  103SOL     OW  307   2.225   0.074   0.382 -0.0896  0.2685 -0.6731
  103SOL    HW1  308   2.286   0.128   0.322  0.8786 -1.7025  1.2176
  103SOL    HW2  309   2.261   0.051   0.479 -1.5249 -2.1305  0.9509
  104SOL     OW  310   0.100   1.789   2.173 -0.2420  0.1442 -0.4173
  104SOL    HW1  311   0.153   1.766   2.085  1.6296  2.0696 -1.6435
  104SOL    HW2  312   0.005   1.819   2.144  2.3737  1.7605  1.4497
  105SOL     OW  313   1.277   2.082   0.774  0.3971  0.1946  0.1562
  105SOL    HW1  314   1.321   2.122   0.690  1.7580  0.6560  1.1531
  105SOL    HW2  315   1.280   1.978   0.776 -2.5346 -0.4425  1.4361
  106SOL     OW  316   2.121   0.408   1.402  0.1490 -0.6571  0.2317
  106SOL    HW1  317   2.080   0.314   1.397 -1.9936 -0.0986  1.1022
  106SOL    HW2  318   2.124   0.445   1.499 -0.5284  0.0275  0.1153
  107SOL     OW  319   1.877   2.960   1.235  0.7914  0.3330  0.3050
  107SOL    HW1  320   1.872   3.056   1.279  0.3552 -1.7749  0.9182
  107SOL    HW2  321   1.783   2.914   1.240  1.0703  0.2755  0.9375
  108SOL     OW  322   0.777   2.786   1.275  0.8619  0.1389  0.2931
  108SOL    HW1  323   0.791   2.711   1.340 -0.1918  0.0969  0.7183
  108SOL    HW2  324   0.862   2.835   1.249 -0.1064  0.1069  0.0048
  109SOL     OW  325   2.133   0.094   0.803 -0.1110  0.2210 -0.6512
  109SOL    HW1  326   2.042   0.138   0.787  1.3108  0.6057 -1.1823
  109SOL    HW2  327   2.130   0.037   0.889 -0.3919 -0.5073 -2.6024
  110SOL     OW  328   0.439   2.840   2.768 -0.0151 -0.1600  0.0435
  110SOL    HW1  329   0.426   2.806   2.674  0.8142  0.0215  3.4867
  110SOL    HW2  330   0.508   2.783   2.825 -0.3635 -0.8903  1.6211
  111SOL     OW  331   1.298   0.492   2.324  0.9936 -0.4225 -0.1669
  111SOL    HW1  332   1.224   0.556   2.368 -2.3601 -0.3058  0.1292
  111SOL    HW2  333   1.344   0.433   2.396 -1.2327  0.7183  0.1664
  112SOL     OW  334   1.709   0.503   1.442  0.3764 -0.0881  0.5587
  112SOL    HW1  335   1.690   0.481   1.344  1.0876  3.1173  2.6948
  112SOL    HW2  336   1.655   0.435   1.502  1.6063  0.5911 -1.8867
  113SOL     OW  337   2.328   1.660   1.767  0.3562 -0.6499 -0.0917
  113SOL    HW1  338   2.388   1.578   1.764  3.0000 -0.0852  0.6383
  113SOL    HW2  339   2.326   1.705   1.862  3.5901  1.1733  1.4215
  114SOL     OW  340   0.349   0.539   1.259  0.2345 -0.1238 -0.8189
  114SOL    HW1  341   0.386   0.598   1.187 -0.8022 -0.2181  1.2296
  114SOL    HW2  342   0.248   0.557   1.253 -0.5044 -0.1135 -1.7350
  115SOL     OW  343   2.707   1.627   1.205  0.5138 -0.3252 -0.2597
  115SOL    HW1  344   2.698   1.526   1.222 -1.3334 -0.0104 -0.8662
  115SOL    HW2  345   2.794   1.646   1.141  0.1171  1.4677  0.6973
  116SOL     OW  346   1.797   1.023   0.599  0.0170 -0.6394 -0.5875
  116SOL    HW1  347   1.738   0.940   0.584 -2.8272 -2.1117  0.2492
  116SOL    HW2  348   1.762   1.091   0.668 -2.0547 -1.2339 -0.2312
  117SOL     OW  349   1.191   0.343   0.572 -0.0996  0.8249 -0.0934
  117SOL    HW1  350   1.253   0.421   0.591 -3.6042 -2.2302 -2.2664
  117SOL    HW2  351   1.206   0.292   0.486 -2.2301 -2.1665  0.2215
  118SOL     OW  352   1.140   1.135   1.131 -0.4852  1.1620 -0.5797
  118SOL    HW1  353   1.140   1.057   1.195  0.3735  0.1671  0.9281
  118SOL    HW2  354   1.162   1.229   1.181  0.9090  1.9413  1.5334
  119SOL     OW  355   1.814   1.579   2.170 -0.2031 -0.4013 -0.2318
  119SOL    HW1  356   1.787   1.679   2.159 -0.6779  0.0567  2.3811
  119SOL    HW2  357   1.910   1.560   2.131  0.2764  2.1480  1.3912
  120SOL     OW  358   2.930   2.868   0.190 -0.4062  0.0403  0.7493
  120SOL    HW1  359   3.001   2.827   0.130 -0.7696 -0.3621  0.8355
  120SOL    HW2  360   2.846   2.804   0.179 -0.1781 -1.4695 -0.6951
  121SOL     OW  361   1.952   0.754   2.221 -0.5356  0.0282  0.1805
  121SOL    HW1  362   1.999   0.797   2.139  0.3201 -0.5950  1.0307
  121SOL    HW2  363   1.950   0.653   2.219 -1.3321  0.0318  0.8007
  122SOL     OW  364   2.624   2.586   1.322  0.5966 -0.6833  0.0156
  122SOL    HW1  365   2.684   2.527   1.259  3.1008 -0.1022 -1.1069
  122SOL    HW2  366   2.530   2.556   1.349  1.8855  0.1948  0.9294
  123SOL     OW  367   1.726   0.041   1.702  0.1602 -0.3276  0.1119
  123SOL    HW1  368   1.753  -0.057   1.661  1.9904 -1.8514  0.1783
  123SOL    HW2  369   1.804   0.086   1.751 -0.8735 -1.4205  1.1331
  124SOL     OW  370   0.053   0.420   1.091  0.1264 -0.1984 -0.6900
  124SOL    HW1  371   0.083   0.510   1.125  0.2111 -0.9446 -1.4874
  124SOL    HW2  372   0.070   0.421   0.985 -1.9212  2.3729  0.2793
  125SOL     OW  373   0.860   1.844   0.705  0.1301  0.3445  0.4607
  125SOL    HW1  374   0.953   1.808   0.719 -1.1600  2.3730  0.6789
  125SOL    HW2  375   0.814   1.868   0.796 -0.7164  0.9815 -0.0685
  126SOL     OW  376   1.824   2.261   2.397 -0.2402  0.2364  0.8588
  126SOL    HW1  377   1.867   2.209   2.320  2.2983 -2.2943  0.7116
  126SOL    HW2  378   1.753   2.204   2.448 -0.1691 -3.1966 -0.5915
  127SOL     OW  379   0.966   0.916   0.199 -0.8211  0.2284 -0.9785
  127SOL    HW1  380   0.990   0.970   0.284 -0.2090 -0.6005  0.7427
  127SOL    HW2  381   0.927   0.821   0.216 -0.9448  1.1762 -1.7571
  128SOL     OW  382   0.931   0.198   1.388 -0.0966  0.2986  0.1405
  128SOL    HW1  383   0.922   0.274   1.321 -1.8057 -1.9543  2.6515
  128SOL    HW2  384   0.876   0.120   1.345 -1.8046 -1.8646 -0.5118
  129SOL     OW  385   1.844   0.659   1.819  0.0609  0.1379  0.4293
  129SOL    HW1  386   1.863   0.670   1.716 -0.6590  2.1626 -0.3591
  129SOL    HW2  387   1.889   0.725   1.877  0.5547 -1.1668  0.4330
  130SOL     OW  388   1.372   2.145   1.032  0.2305  0.0183 -0.0242
  130SOL    HW1  389   1.322   2.146   0.944  0.1002 -2.8472 -1.3463
  130SOL    HW2  390   1.467   2.182   1.017  0.2689 -3.8791  1.7165
  131SOL     OW  391   3.004   1.416   1.365 -0.4323 -0.6545  0.2664
  131SOL    HW1  392   2.954   1.339   1.415 -4.1805  3.1716 -0.9189
  131SOL    HW2  393   3.105   1.417   1.391 -1.8505 -1.7338  1.5856
  132SOL     OW  394   2.038   2.429   0.480  0.0220 -0.0336 -0.1479
  132SOL    HW1  395   1.950   2.481   0.510  1.6061 -0.8472 -1.9662
  132SOL    HW2  396   2.050   2.346   0.533 -2.4033 -1.5297 -2.1257
  133SOL     OW  397   1.798   2.347   2.741 -0.1254  0.2182 -0.3188
  133SOL    HW1  398   1.734   2.383   2.674 -1.2504 -1.4234  2.9603
  133SOL    HW2  399   1.891   2.376   2.712 -2.8703  2.5278 -3.2409
  134SOL     OW  400   2.661   2.307   1.590 -0.0623 -0.0241  0.4357
  134SOL    HW1  401   2.567   2.323   1.631 -0.9779  1.3195 -1.5851
  134SOL    HW2  402   2.717   2.395   1.588  1.3932 -1.7365 -0.6612
  135SOL     OW  403   0.720   1.479   2.670  0.3768 -0.3750  0.1867
  135SOL    HW1  404   0.706   1.380   2.711  0.3792 -1.0044 -0.1570
  135SOL    HW2  405   0.763   1.474   2.576  0.8218 -0.6529  1.8792
  136SOL     OW  406   1.209   2.043   0.439 -0.3136  0.0617  0.7750
  136SOL    HW1  407   1.140   2.117   0.465 -1.3766 -0.9700  1.6286
  136SOL    HW2  408   1.178   1.952   0.474 -0.2806 -2.0187 -0.6612
  137SOL     OW  409   0.435   1.212   2.207  0.2921  0.0781  0.4263
  137SOL    HW1  410   0.336   1.184   2.221 -2.1850 -2.4488  0.3268
  137SOL    HW2  411   0.499   1.128   2.230  1.0439 -3.5887  0.9263
  138SOL     OW  412   2.511   1.471   0.284  0.1452  0.7493  0.0463
  138SOL    HW1  413   2.409   1.449   0.256 -2.1741  1.6691  1.7364
  138SOL    HW2  414   2.543   1.399   0.353 -2.4487 -0.5820  1.2016
  139SOL     OW  415   1.884   2.616   1.348  0.3207  0.1220  0.4075
  139SOL    HW1  416   1.787   2.646   1.338  0.9688  0.8001  0.0113
  139SOL    HW2  417   1.903   2.514   1.338 -0.3340  2.3916 -0.4106
  140SOL     OW  418   3.005   2.972   2.507 -0.2970  0.1655 -0.0982
  140SOL    HW1  419   3.068   2.889   2.519 -0.0655 -0.5195 -2.3770
  140SOL    HW2  420   3.062   3.056   2.492  0.4759  2.5412  0.7889
  141SOL     OW  421   1.333   1.687   1.588 -0.4044  0.0700  0.1121
  141SOL    HW1  422   1.237   1.720   1.567 -0.5045 -1.0808 -1.4628
  141SOL    HW2  423   1.333   1.628   1.674  0.3984  2.2403  1.9838
  142SOL     OW  424   1.548   0.602   2.248 -0.7220 -0.3732 -0.2142
  142SOL    HW1  425   1.590   0.597   2.153 -0.3637  0.5016 -0.4486
  142SOL    HW2  426   1.449   0.582   2.248 -3.6624  0.9620  2.8240
  143SOL     OW  427   2.749   0.913   0.487 -0.2706 -0.2373  0.5943
  143SOL    HW1  428   2.797   0.956   0.399  1.2713  0.2393 -1.3759
  143SOL    HW2  429   2.802   0.931   0.576  2.7879 -1.8421 -0.3950
  144SOL     OW  430   2.899   1.205   1.492 -0.2732  0.5439 -0.0909
  144SOL    HW1  431   2.852   1.180   1.579  1.9484  1.3446 -1.6704
  144SOL    HW2  432   2.984   1.152   1.474 -1.7592  1.8039 -0.8397
  145SOL     OW  433   1.020   1.813   0.147  0.7462  0.4880 -0.6072
  145SOL    HW1  434   1.107   1.841   0.098  0.9454 -1.5085 -0.5015
  145SOL    HW2  435   0.995   1.717   0.116  0.1212  1.7138  1.1909
  146SOL     OW  436   2.453   0.655   1.486 -0.4800  0.1865  0.0204
  146SOL    HW1  437   2.435   0.565   1.442 -0.9995 -2.9068  0.4434
  146SOL    HW2  438   2.405   0.737   1.446  0.8240  2.3525 -1.8912
  147SOL     OW  439   1.095   2.503   0.595 -0.1082  0.9583 -0.2034
  147SOL    HW1  440   1.032   2.571   0.550 -0.9760  5.4391  1.3961
  147SOL    HW2  441   1.177   2.481   0.536  0.2814 -2.2360  0.7581
  148SOL     OW  442   1.616   1.470   0.026 -0.5374  0.0219  0.2670
  148SOL    HW1  443   1.596   1.399  -0.043  1.6314  1.7349 -0.4419
  148SOL    HW2  444   1.580   1.441   0.119  1.2201 -1.4031  0.6180
  149SOL     OW  445   0.666   1.447   1.962 -0.3941  0.4562  0.0430
  149SOL    HW1  446   0.565   1.427   1.967  1.3111 -1.0799  1.9211
  149SOL    HW2  447   0.715   1.404   1.880 -2.9670  0.8923 -1.0632
  150SOL     OW  448   3.052   1.247   0.943  0.4620 -0.2957 -0.0538
  150SOL    HW1  449   3.134   1.232   1.011 -1.4879 -1.0374  2.5436
  150SOL    HW2  450   2.974   1.174   0.951 -2.2702  2.0880  1.8563
  151SOL     OW  451   0.123   0.708   2.081  0.2243 -0.7426  0.1308
  151SOL    HW1  452   0.114   0.799   2.031  1.1071  0.4613  3.1150
  151SOL    HW2  453   0.202   0.653   2.043  0.7062  1.5222 -0.5586
  152SOL     OW  454   1.468   1.784   1.205  0.1614  0.5806 -0.1795
  152SOL    HW1  455   1.520   1.873   1.208 -1.0776 -0.9364 -1.5746
  152SOL    HW2  456   1.367   1.799   1.196 -2.1555  1.5182 -3.1732
  153SOL     OW  457   0.120   1.596   0.198  0.3252 -0.3053  0.6565
  153SOL    HW1  458   0.100   1.496   0.210  0.2917  2.4582 -0.5061
  153SOL    HW2  459   0.075   1.659   0.265 -1.9643 -0.9937 -0.9494
  154SOL     OW  460   2.373   1.870   2.836 -0.1494 -0.0329  0.7650
  154SOL    HW1  461   2.407   1.776   2.861 -0.0662 -0.7651  0.9581
  154SOL    HW2  462   2.428   1.910   2.763 -1.6154 -1.6245 -0.2454
  155SOL     OW  463   2.498   1.197   0.370  0.5130 -0.5370  0.6761
  155SOL    HW1  464   2.578   1.187   0.305  2.1105  1.4627  0.4723
  155SOL    HW2  465   2.421   1.141   0.331  0.9981 -0.9188  1.2821
  156SOL     OW  466   2.490   0.900   0.802 -0.6978 -1.1093 -0.3207
  156SOL    HW1  467   2.396   0.911   0.848 -1.3189 -0.6568 -0.2567
  156SOL    HW2  468   2.502   0.976   0.732  2.3957  1.2998  0.2086
  157SOL     OW  469   1.215   2.997   2.968 -0.1918  0.9835 -0.2563
  157SOL    HW1  470   1.288   2.932   2.933  1.9086  0.1744  1.5475
  157SOL    HW2  471   1.247   3.093   2.978 -2.7615 -1.9648 -0.8144
  158SOL     OW  472   0.989   1.852   1.886  0.1987 -0.1488  0.2664
  158SOL    HW1  473   0.994   1.957   1.899  0.2442 -0.2502 -1.2862
  158SOL    HW2  474   0.900   1.808   1.915  0.0781  1.0052  0.7495
  159SOL     OW  475   0.899   0.401   1.206 -0.3485  0.3958 -0.1876
  159SOL    HW1  476   0.850   0.474   1.262  1.0737 -0.2964  1.2333
  159SOL    HW2  477   0.832   0.356   1.147 -0.9190  3.2009 -0.2304
  160SOL     OW  478   1.360   2.412   1.601 -0.3709 -0.1968  0.1573
  160SOL    HW1  479   1.320   2.329   1.649  2.0609  0.6320 -1.3161
  160SOL    HW2  480   1.466   2.412   1.610 -0.9578  1.5703 -0.0806
  161SOL     OW  481   0.011   2.961   0.437  0.1239 -0.7603  1.1709
  161SOL    HW1  482  -0.036   2.875   0.397 -4.0984 -0.0422 -0.1256
  161SOL    HW2  483  -0.036   3.042   0.395 -2.7259 -0.1991  1.3017
  162SOL     OW  484   2.596   1.870   0.517  0.2383  0.3097 -0.6432
  162SOL    HW1  485   2.565   1.831   0.425  0.0834 -1.8858 -1.7294
  162SOL    HW2  486   2.589   1.810   0.603  2.6918 -1.7404  0.1111
  163SOL     OW  487   1.927   2.754   0.724 -0.1960 -0.3356  0.3216
  163SOL    HW1  488   1.918   2.760   0.622  1.8363  1.1922  1.5006
  163SOL    HW2  489   2.000   2.683   0.746  1.7962  0.6964  0.1459
  164SOL     OW  490   3.043   0.232   1.241 -0.0197 -0.3775  0.0032
  164SOL    HW1  491   3.098   0.309   1.188 -1.0954 -1.3245  2.0787
  164SOL    HW2  492   3.090   0.204   1.332 -1.2778  1.0028 -1.9523
  165SOL     OW  493   0.957   1.366   0.743  0.1097  0.2892  0.4218
  165SOL    HW1  494   0.902   1.414   0.814 -2.1986 -3.8548  0.2910
  165SOL    HW2  495   0.982   1.439   0.670  2.4580  0.8618  2.3973
  166SOL     OW  496   1.573   1.026   1.771  0.4636 -0.7672  0.5279
  166SOL    HW1  497   1.490   1.045   1.826  0.5812  0.4660  1.2105
  166SOL    HW2  498   1.631   1.111   1.779  0.0914 -0.8116  0.2506
  167SOL     OW  499   0.749   2.005   1.463 -0.0485 -0.3499  0.0739
  167SOL    HW1  500   0.789   2.055   1.543 -2.2036 -0.5240 -2.2580
  167SOL    HW2  501   0.706   1.915   1.496 -0.5080  3.1715  2.0376
  168SOL     OW  502   1.612   2.352   0.157 -0.1421 -0.4166  0.0207
  168SOL    HW1  503   1.683   2.374   0.089  2.5289  0.5087  3.2379
  168SOL    HW2  504   1.656   2.349   0.248 -0.6540  0.3972  0.8521
  169SOL     OW  505   0.187   2.580   2.224 -0.7430  0.3250  0.0488
  169SOL    HW1  506   0.220   2.537   2.136  0.9982 -0.9800 -0.8269
  169SOL    HW2  507   0.194   2.511   2.298  2.5893 -0.9061 -1.7302
  170SOL     OW  508   1.091   0.234   2.017  0.3617 -0.1562  0.0139
  170SOL    HW1  509   1.143   0.188   2.087 -0.0298 -1.3813 -0.4139
  170SOL    HW2  510   1.117   0.204   1.923  0.2099  3.5229 -0.8654
  171SOL     OW  511   0.175   0.810   2.353 -0.3201  0.3339  0.2091
  171SOL    HW1  512   0.098   0.858   2.399 -1.1309  0.7417  3.1398
  171SOL    HW2  513   0.154   0.775   2.256  2.3020 -0.9249 -1.0697
  172SOL     OW  514   0.951   0.990   2.868  0.2092 -0.2543  0.4265
  172SOL    HW1  515   0.940   1.070   2.936  0.0493 -0.8754 -0.3809
  172SOL    HW2  516   0.881   0.997   2.792 -3.0118 -2.3225  1.6433
  173SOL     OW  517   0.585   2.594   0.128 -0.7406 -0.9075 -0.1423
  173SOL    HW1  518   0.581   2.689   0.088 -0.2881  0.2034 -1.2320
  173SOL    HW2  519   0.501   2.558   0.183 -4.2328 -0.8908  1.4907
  174SOL     OW  520   1.539   2.794   1.044  0.2018  0.2445 -0.0295
  174SOL    HW1  521   1.556   2.851   0.965  0.6953 -2.4729  0.1108
  174SOL    HW2  522   1.500   2.699   1.012 -1.3622 -1.0362 -1.7502
  175SOL     OW  523   0.486   3.046   1.717 -0.1300  0.4587  0.3532
  175SOL    HW1  524   0.573   3.028   1.771 -2.6216 -1.3911 -0.8382
  175SOL    HW2  525   0.468   3.145   1.693  0.4998 -0.2559  0.0337
  176SOL     OW  526   2.563   0.398   0.016 -0.0219  0.4091 -0.2263
  176SOL    HW1  527   2.579   0.480   0.074  0.7853  1.7758  3.1536
  176SOL    HW2  528   2.494   0.329   0.058  1.6273 -2.9139 -1.2583
  177SOL     OW  529   0.297   0.357   0.927 -0.2783  0.0873 -0.1940
  177SOL    HW1  530   0.256   0.263   0.930 -0.4234 -0.9691  1.7167
  177SOL    HW2  531   0.301   0.395   1.021  1.7329 -0.7838 -0.1624
  178SOL     OW  532   0.067   2.749   2.565  0.2516  0.0462 -0.1696
  178SOL    HW1  533   0.011   2.659   2.573  0.4394 -2.7716 -2.3528
  178SOL    HW2  534   0.134   2.761   2.646 -0.7009 -1.2486 -0.5050
  179SOL     OW  535   3.051   1.584   1.142 -0.8411  0.0255  0.3552
  179SOL    HW1  536   3.047   1.521   1.061  2.4146 -0.4916 -1.4931
  179SOL    HW2  537   3.038   1.535   1.228 -2.6164  2.3520 -2.5739
  180SOL     OW  538   0.195   1.267   1.829 -0.4890  0.2897 -0.8235
  180SOL    HW1  539   0.276   1.209   1.868  3.3869 -1.8323 -0.1510
  180SOL    HW2  540   0.183   1.358   1.872  1.1526  0.6212 -1.2428
  181SOL     OW  541   3.096   1.887   2.467  0.7647  0.1062 -0.1213
  181SOL    HW1  542   3.165   1.963   2.442  0.7530 -1.4810  0.1442
  181SOL    HW2  543   3.002   1.910   2.436 -0.1602 -1.9509  0.9757
  182SOL     OW  544   2.328   1.240   1.174  0.0287 -0.5572  0.4884
  182SOL    HW1  545   2.254   1.166   1.149  0.6567  2.8590 -0.3675
  182SOL    HW2  546   2.296   1.339   1.157 -0.2448 -0.2803 -0.0706
  183SOL     OW  547   1.446   2.257   2.551  0.0099 -0.2806 -0.6299
  183SOL    HW1  548   1.358   2.208   2.574 -1.6805  0.7051  1.3365
  183SOL    HW2  549   1.527   2.188   2.567 -1.8323  0.0865 -2.0652
  184SOL     OW  550   2.031   0.918   0.685  0.3799  0.0694 -0.4133
  184SOL    HW1  551   1.954   0.943   0.625 -0.6088  2.6078 -3.1610
  184SOL    HW2  552   2.010   0.831   0.734 -3.2939 -0.3814 -1.0782
  185SOL     OW  553   1.608   2.779   1.958 -0.6187 -0.3696 -0.1648
  185SOL    HW1  554   1.532   2.851   1.953 -2.1289  0.7889  1.9501
  185SOL    HW2  555   1.637   2.756   2.058  1.1250 -1.4674 -1.0464
  186SOL     OW  556   0.148   2.255   1.650  0.2147 -0.0162  0.6926
  186SOL    HW1  557   0.124   2.311   1.732  2.3920  2.3449 -1.9050
  186SOL    HW2  558   0.221   2.185   1.666  2.7116 -0.9012 -1.1638
  187SOL     OW  559   1.355   0.679   1.654  0.1794 -0.1723 -0.2686
  187SOL    HW1  560   1.430   0.742   1.614  3.6073 -0.5416  0.9424
  187SOL    HW2  561   1.393   0.605   1.718  2.4071  0.7696  1.9446
  188SOL     OW  562   2.792   2.757   1.447  0.6787  0.1800  0.1454
  188SOL    HW1  563   2.758   2.854   1.467  1.8275 -1.5797  0.4749
  188SOL    HW2  564   2.723   2.693   1.400 -1.2223 -0.1993  0.3104
  189SOL     OW  565   0.937   1.192   1.459 -0.3926  0.0157  0.3202
  189SOL    HW1  566   1.000   1.241   1.522 -3.2806  0.7764 -0.0092
  189SOL    HW2  567   0.865   1.252   1.426  1.2763 -0.5738  0.6878
  190SOL     OW  568   1.437   1.952   1.630  0.0321  0.0453 -0.3362
  190SOL    HW1  569   1.413   1.852   1.618 -0.7911  0.5927 -1.0735
  190SOL    HW2  570   1.486   1.955   1.723  3.6547 -1.2326  1.1521
  191SOL     OW  571   0.925   0.725   1.528  0.0900  0.7000 -0.6553
  191SOL    HW1  572   0.988   0.643   1.542 -2.4129  0.0229 -0.1027
  191SOL    HW2  573   0.970   0.808   1.484 -0.9813  2.5354  0.6500
  192SOL     OW  574   1.858   2.317   1.073 -0.1462 -0.0875  0.0183
  192SOL    HW1  575   1.771   2.359   1.039  2.7487  0.2093  2.4451
  192SOL    HW2  576   1.941   2.328   1.011  0.6153 -0.5931  1.5255
  193SOL     OW  577   0.531   0.569   0.441  0.0108 -0.2551 -0.2355
  193SOL    HW1  578   0.467   0.499   0.494 -0.7638 -1.6361 -1.8914
  193SOL    HW2  579   0.564   0.528   0.351 -1.1416 -1.9541 -1.5913
  194SOL     OW  580   0.364   0.879   1.293  0.5680 -0.3837 -0.2284
  194SOL    HW1  581   0.281   0.828   1.331 -1.3221 -2.2618  0.5799
  194SOL    HW2  582   0.361   0.897   1.190 -1.7380  1.3562 -0.4210
  195SOL     OW  583   1.031   2.935   0.510 -0.3995  0.1540  0.0806
  195SOL    HW1  584   0.991   2.847   0.474  1.3524  1.0155 -1.3084
  195SOL    HW2  585   1.129   2.966   0.492 -0.4954  0.4298  0.5593
  196SOL     OW  586   0.188   1.362   1.393  0.3322 -0.7282 -0.0881
  196SOL    HW1  587   0.216   1.462   1.414  0.6927 -1.5452 -1.4137
  196SOL    HW2  588   0.186   1.302   1.477  1.7322  1.2301 -0.5213
  197SOL     OW  589   0.837   2.049   0.250 -0.2825 -0.2143 -0.4144
  197SOL    HW1  590   0.856   2.054   0.349  0.6134 -1.5993 -1.8198
  197SOL    HW2  591   0.876   1.960   0.209 -1.1943 -2.3273  2.0264
  198SOL     OW  592   0.279   1.256   0.318  0.1328 -0.1604  0.5199
  198SOL    HW1  593   0.181   1.232   0.286 -0.8606 -0.1847  2.3330
  198SOL    HW2  594   0.289   1.358   0.342 -1.9900  3.6428  2.4992
  199SOL     OW  595   2.328   0.379   2.516  0.0870  0.0483  0.4241
  199SOL    HW1  596   2.248   0.343   2.576  1.6006  1.0485  1.1577
  199SOL    HW2  597   2.415   0.357   2.560 -2.5419 -0.1725 -0.7714
  200SOL     OW  598   3.096   2.942   0.738 -0.3051  0.0267  0.1489
  200SOL    HW1  599   3.007   2.966   0.689 -1.5157 -3.4669  3.1760
  200SOL    HW2  600   3.183   2.951   0.683 -0.1615  0.7855  0.6698
  201SOL     OW  601   1.052   0.717   0.550  0.0342 -0.5266 -0.3210
  201SOL    HW1  602   1.061   0.780   0.627 -0.8315  1.3573  2.1878
  201SOL    HW2  603   0.984   0.647   0.568 -1.2891  2.8665  1.5068
  202SOL     OW  604   0.397   1.108   1.938 -0.0448  0.4134  0.5918
  202SOL    HW1  605   0.457   1.044   1.884 -0.3323  1.4064  3.9737
  202SOL    HW2  606   0.436   1.124   2.035  3.6249  0.8760 -2.2740
  203SOL     OW  607   0.642   0.207   1.469 -0.6697 -0.1501 -0.0176
  203SOL    HW1  608   0.680   0.142   1.396 -2.6729 -1.6560  0.6730
  203SOL    HW2  609   0.703   0.209   1.555  0.8726 -1.0156 -1.3038
  204SOL     OW  610   2.117   1.799   2.895 -0.0817 -0.8376 -0.0012
  204SOL    HW1  611   2.101   1.702   2.904  0.0761 -0.2709  0.7768
  204SOL    HW2  612   2.200   1.825   2.837 -2.0618  1.5323  0.1546
  205SOL     OW  613   1.858   1.838   3.022  0.0846 -0.1725 -0.0410
  205SOL    HW1  614   1.938   1.811   2.963 -0.3186 -2.1090  0.2525
  205SOL    HW2  615   1.823   1.935   3.001 -0.2053  2.4132  0.9893
  206SOL     OW  616   2.454   2.810   0.342 -0.8087  0.3791 -0.0916
  206SOL    HW1  617   2.515   2.735   0.379 -1.7412 -0.4213 -0.4221
  206SOL    HW2  618   2.505   2.874   0.284 -1.8786 -1.5471  1.0916
  207SOL     OW  619   0.700   1.818   2.976  0.0778 -0.2031 -0.6685
  207SOL    HW1  620   0.769   1.784   2.905 -1.1319  1.0570  0.2623
  207SOL    HW2  621   0.687   1.754   3.057  0.5618  0.3553 -0.8145
  208SOL     OW  622   1.147   1.569   1.393  0.1711  0.2155  0.0692
  208SOL    HW1  623   1.091   1.655   1.396  3.5960  1.7017  0.7444
  208SOL    HW2  624   1.223   1.565   1.467  1.0946 -1.7802 -2.1591
  209SOL     OW  625   0.251   0.939   3.045 -0.0584 -0.0141 -0.0163
  209SOL    HW1  626   0.246   0.848   2.990  1.6135 -2.2775 -0.6660
  209SOL    HW2  627   0.258   0.922   3.150  0.1096  0.6184  1.9863
  210SOL     OW  628   1.727   0.472   1.164 -0.3721 -0.3644 -0.4882
  210SOL    HW1  629   1.679   0.563   1.160  1.5177 -1.4371  0.2889
  210SOL    HW2  630   1.827   0.481   1.165 -0.6259  0.7684  0.4678
  211SOL     OW  631   2.111   1.050   1.595  0.1538  0.0745  0.2618
  211SOL    HW1  632   2.160   1.005   1.674  0.6835 -2.1320 -0.4298
  211SOL    HW2  633   2.183   1.095   1.530  2.0131 -0.4828 -2.1839
  212SOL     OW  634   0.007   0.980   1.504  0.3977 -0.2947  0.0649
  212SOL    HW1  635   0.076   1.045   1.550 -1.6373 -0.3137  1.1326
  212SOL    HW2  636  -0.015   0.894   1.559  2.3149 -1.3794 -1.6752
  213SOL     OW  637   2.810   0.181   0.412 -0.0854 -0.6711 -0.5726
  213SOL    HW1  638   2.859   0.112   0.353  3.0764 -2.5594  0.8078
  213SOL    HW2  639   2.762   0.259   0.354 -3.6391  0.8392  1.4766
  214SOL     OW  640   2.158   0.272   2.312  0.4238  0.9092  0.4640
  214SOL    HW1  641   2.210   0.315   2.390  0.0505 -1.1811  1.7531
  214SOL    HW2  642   2.135   0.175   2.334 -1.2668  0.0081  2.5424
  215SOL     OW  643   1.578   2.302   2.092  0.4317  0.2444 -0.4159
  215SOL    HW1  644   1.679   2.335   2.092  2.7433  1.6493  0.9810
  215SOL    HW2  645   1.516   2.374   2.129  0.9434  0.6165 -1.1092
  216SOL     OW  646   2.180   0.618   0.685  0.5321 -0.1485 -0.1741
  216SOL    HW1  647   2.176   0.515   0.659 -1.4599  1.5684 -0.9037
  216SOL    HW2  648   2.188   0.685   0.610  2.8086 -1.7487  2.6858
  217SOL     OW  649   0.750   2.780   2.426 -0.0713  0.3351 -0.1713
  217SOL    HW1  650   0.688   2.702   2.457 -1.2279  1.3541  2.2509
  217SOL    HW2  651   0.761   2.786   2.325  0.7530  0.5543 -1.5754
  218SOL     OW  652   1.901   1.407   0.027 -0.1615  0.2284  0.2347
  218SOL    HW1  653   1.817   1.459   0.004  3.7424 -0.8969 -1.5379
  218SOL    HW2  654   1.903   1.365   0.124 -0.1053  0.5357 -1.7056
  219SOL     OW  655   2.434   1.315   2.496 -0.1634  0.5609  0.0420
  219SOL    HW1  656   2.473   1.267   2.413 -1.2333 -0.3428  0.1455
  219SOL    HW2  657   2.438   1.256   2.581 -1.1347 -1.3016  0.5051
  220SOL     OW  658   1.467   1.057   1.297  0.0156  0.4046  0.4593
  220SOL    HW1  659   1.561   1.030   1.335  0.2131  2.2572  1.0400
  220SOL    HW2  660   1.462   1.087   1.197 -0.5241  0.2974  1.8916
  221SOL     OW  661   1.287   0.991   2.164  0.0235  0.1242  0.2133
  221SOL    HW1  662   1.270   0.964   2.065  2.9823 -2.2706 -1.6258
  221SOL    HW2  663   1.384   1.019   2.180 -0.2822  0.0771 -0.6012
  222SOL     OW  664   1.110   0.063   1.204  0.4645  0.7246  0.0100
  222SOL    HW1  665   1.157   0.091   1.290 -2.7635  0.9843 -0.0766
  222SOL    HW2  666   1.132   0.127   1.123 -1.2593 -1.3931  2.0135
  223SOL     OW  667   2.731   0.962   2.162 -0.0253 -0.1265  0.5729
  223SOL    HW1  668   2.672   1.027   2.222 -0.7090  1.6727 -0.3771
  223SOL    HW2  669   2.831   0.956   2.185 -1.1728  0.5900  1.2048
  224SOL     OW  670   1.506   1.078   2.733  0.3250 -0.1090 -0.5754
  224SOL    HW1  671   1.570   1.009   2.710 -1.8271 -1.6645  0.6831
  224SOL    HW2  672   1.481   1.138   2.649  0.9268 -0.4434 -0.4674
  225SOL     OW  673   2.936   2.798   2.891  0.2482 -0.2225  0.0039
  225SOL    HW1  674   2.849   2.746   2.873 -1.8600  0.8501 -0.6645
  225SOL    HW2  675   3.010   2.783   2.815  3.6309 -0.2113 -0.3974
  226SOL     OW  676   2.464   1.618   2.885 -0.5585  0.6371 -0.3050
  226SOL    HW1  677   2.450   1.587   2.782 -1.3795 -0.8644 -2.9057
  226SOL    HW2  678   2.393   1.574   2.945  2.7102  1.9372 -2.4421
  227SOL     OW  679   0.869   0.126   0.053  0.0795  0.4135 -0.2596
  227SOL    HW1  680   0.928   0.211   0.029 -3.0168  1.2211 -1.7703
  227SOL    HW2  681   0.785   0.123  -0.011 -0.1107  1.7827  1.1925
  228SOL     OW  682   2.429   0.607   2.835 -0.1616 -0.3058  0.3050
  228SOL    HW1  683   2.456   0.665   2.750  2.7717 -0.3752 -1.9611
  228SOL    HW2  684   2.494   0.522   2.849  0.2496  0.4591  2.5905
  229SOL     OW  685   0.560   0.462   1.854  0.4644 -0.0769 -0.7328
  229SOL    HW1  686   0.540   0.363   1.866  1.2383  3.6697 -2.1235
  229SOL    HW2  687   0.591   0.496   1.763 -2.6837 -1.9084 -1.2983
  230SOL     OW  688   1.898   1.145   2.094  0.9527  0.0170  0.0958
  230SOL    HW1  689   1.973   1.205   2.052  0.1243  2.5689 -0.4986
  230SOL    HW2  690   1.807   1.199   2.098  0.8797 -1.6066 -2.5208
  231SOL     OW  691   0.629   1.016   0.055 -0.0917 -0.2365  0.3298
  231SOL    HW1  692   0.724   1.056   0.054 -1.1306  3.0656  1.9042
  231SOL    HW2  693   0.550   1.087   0.075 -2.7288 -0.7439 -0.3822
  232SOL     OW  694   2.415   3.082   2.838  0.2533 -0.5278  0.7846
  232SOL    HW1  695   2.463   2.993   2.863  0.0263  0.0384 -0.5431
  232SOL    HW2  696   2.461   3.118   2.750  0.5540 -2.5478  0.0827
  233SOL     OW  697   1.674   1.234   1.116 -0.3015 -0.1668  0.2127
  233SOL    HW1  698   1.719   1.183   1.041 -1.2236 -2.4526 -0.2823
  233SOL    HW2  699   1.679   1.186   1.205 -0.4861  0.6112 -1.4601
  234SOL     OW  700   1.555   2.526   1.871  0.0791 -0.3238  0.2678
  234SOL    HW1  701   1.546   2.625   1.912 -1.3703  0.2635 -0.2082
  234SOL    HW2  702   1.624   2.474   1.925  0.8781  0.1246 -0.4858
  235SOL     OW  703   0.029   3.043   2.812 -0.1796  0.5249 -0.1099
  235SOL    HW1  704   0.001   3.040   2.715  1.6284 -0.4947 -0.8316
  235SOL    HW2  705  -0.040   3.076   2.885  0.7263  1.6042  0.3532
  236SOL     OW  706   2.868   0.733   0.093  0.1026 -0.2393 -0.3049
  236SOL    HW1  707   2.947   0.785   0.135  0.7738  0.5689  0.6602
  236SOL    HW2  708   2.903   0.653   0.034  0.9578 -0.8242  1.6981
  237SOL     OW  709   1.563   1.660   0.968  0.5874 -0.1392 -0.5847
  237SOL    HW1  710   1.664   1.676   0.964 -1.5085 -0.6986 -0.3805
  237SOL    HW2  711   1.516   1.706   1.049 -2.6827  0.4610  0.2769
  238SOL     OW  712   1.788   1.273   0.843  0.1484  0.0398  0.1522
  238SOL    HW1  713   1.862   1.334   0.886 -0.0230 -1.5906 -0.5100
  238SOL    HW2  714   1.713   1.327   0.803 -0.7476 -2.1567  3.6380
  239SOL     OW  715   2.099   0.309   2.689 -0.0067  0.3650  0.3251
  239SOL    HW1  716   2.136   0.284   2.782  1.0930  0.4058  0.8710
  239SOL    HW2  717   2.000   0.342   2.689  0.6360  0.5806  0.0546
  240SOL     OW  718   0.937   0.661   0.277 -0.0841  0.2051  0.0054
  240SOL    HW1  719   0.970   0.564   0.264  0.5854  1.2191  0.0282
  240SOL    HW2  720   0.918   0.685   0.374  0.1413  3.2486 -0.5453
  241SOL     OW  721   0.591   0.013   0.387  0.3200 -0.1505 -0.1007
  241SOL    HW1  722   0.611   0.101   0.324  0.0934  2.9365 -1.2900
  241SOL    HW2  723   0.577  -0.075   0.334 -1.7975  0.2044  1.1274
  242SOL     OW  724   0.603   2.516   1.157 -0.1832  0.2560  0.0876
  242SOL    HW1  725   0.573   2.515   1.255 -1.6786 -1.2813 -0.7391
  242SOL    HW2  726   0.648   2.603   1.127 -0.2431 -1.3233 -2.1980
  243SOL     OW  727   1.093   0.640   2.488 -0.7012 -0.5064  0.7313
  243SOL    HW1  728   1.007   0.682   2.453  1.0783 -1.6515  0.7970
  243SOL    HW2  729   1.065   0.580   2.571  0.7819 -0.2010  2.4201
  244SOL     OW  730   2.851   1.905   2.340 -0.0073  0.4227  0.6859
  244SOL    HW1  731   2.846   1.909   2.235  0.0751  3.1853 -4.1742
  244SOL    HW2  732   2.769   1.853   2.378  0.9487 -1.6401  1.3478
  245SOL     OW  733   2.309   0.803   2.164 -0.0599  0.6157 -0.1602
  245SOL    HW1  734   2.395   0.841   2.202 -0.0185  1.4543  0.6800
  245SOL    HW2  735   2.263   0.751   2.235  2.8744  2.3784 -2.2338
  246SOL     OW  736   0.234   2.913   1.743  0.0393  0.2031  0.0754
  246SOL    HW1  737   0.175   2.929   1.662  1.0935  2.4791 -0.5997
  246SOL    HW2  738   0.322   2.970   1.741  1.2903  2.2874 -1.3542
  247SOL     OW  739   2.244   0.624   3.043 -0.8482  0.3562 -0.4975
  247SOL    HW1  740   2.276   0.589   2.949 -0.0700 -0.6342 -0.4736
  247SOL    HW2  741   2.159   0.686   3.050  1.3852  0.7781  2.6608
  248SOL     OW  742   2.154   1.823   1.587 -0.0974 -0.1127  0.4519
  248SOL    HW1  743   2.237   1.786   1.645 -0.5343  0.0722  2.8551
  248SOL    HW2  744   2.067   1.833   1.639  1.6674 -1.0697  0.1856
  249SOL     OW  745   1.854   1.943   1.918 -0.0824 -0.4314 -0.1641
  249SOL    HW1  746   1.858   1.872   1.840 -1.3510 -1.5394  1.3575
  249SOL    HW2  747   1.945   1.959   1.963  1.3845  3.4214 -1.1387
  250SOL     OW  748   1.103   0.686   1.885 -0.1948 -0.1603  0.0082
  250SOL    HW1  749   1.119   0.605   1.947 -0.9512  0.5960  0.4616
  250SOL    HW2  750   1.042   0.665   1.807 -0.6132 -0.1686 -1.0414
  251SOL     OW  751   0.060   1.605   2.489  0.0270  0.4264  0.1090
  251SOL    HW1  752   0.044   1.707   2.465  0.2527  3.6799  2.9635
  251SOL    HW2  753  -0.023   1.562   2.538 -2.5958  1.6436  0.0954
  252SOL     OW  754   1.583   0.849   1.570  0.6295 -0.3172 -0.3328
  252SOL    HW1  755   1.678   0.806   1.560  1.9122 -1.6309 -0.3348
  252SOL    HW2  756   1.579   0.922   1.653  2.4122  2.3214  1.8027
  253SOL     OW  757   0.995   1.536   0.510  0.4937  0.3840  0.0846
  253SOL    HW1  758   0.998   1.456   0.435  2.3953 -0.2110 -0.2943
  253SOL    HW2  759   0.902   1.567   0.525  2.3131 -1.8054 -1.6388
  254SOL     OW  760   2.054   2.154   1.630 -0.2460 -0.8655 -0.7220
  254SOL    HW1  761   2.007   2.075   1.580 -0.6572 -0.9531 -1.9944
  254SOL    HW2  762   1.995   2.203   1.700 -0.7052  0.4835 -0.2335
  255SOL     OW  763   0.116   1.120   2.892 -0.4787 -0.4512  0.6429
  255SOL    HW1  764   0.172   1.215   2.882  0.8780 -0.6385  0.6400
  255SOL    HW2  765   0.187   1.049   2.929  1.6607  1.6647  0.1328
  256SOL     OW  766   2.779   1.405   1.781  0.4763  0.5117 -0.1812
  256SOL    HW1  767   2.675   1.411   1.782 -1.2076  1.1981  1.5438
  256SOL    HW2  768   2.814   1.307   1.763  1.3949 -0.7659 -0.0659
  257SOL     OW  769   0.762   0.151   1.764 -0.0511 -0.4403 -0.1226
  257SOL    HW1  770   0.834   0.220   1.730 -3.4359 -0.1731  0.0582
  257SOL    HW2  771   0.805   0.060   1.778 -1.4858  0.3952  1.1772
  258SOL     OW  772   3.016   1.236   0.431  0.3336  0.4064 -0.2564
  258SOL    HW1  773   2.930   1.294   0.414 -0.1703  1.1682 -1.9422
  258SOL    HW2  774   3.041   1.244   0.530  0.9046 -2.4906 -0.9444
  259SOL     OW  775   0.457   2.929   3.051  0.2801  0.0486 -0.2982
  259SOL    HW1  776   0.380   2.883   3.104  0.2847  0.6636  0.1038
  259SOL    HW2  777   0.471   2.888   2.960  1.3218  1.7800  4.7157
  260SOL     OW  778   2.749   0.808   2.804  0.7755 -1.1164 -0.2044
  260SOL    HW1  779   2.669   0.793   2.738  0.8366 -3.6181  0.2999
  260SOL    HW2  780   2.734   0.799   2.907 -0.7106 -3.7338  1.9552
  261SOL     OW  781   2.738   1.370   1.256 -0.3961  0.1345 -0.1134
  261SOL    HW1  782   2.712   1.295   1.189 -1.7717  0.4746  1.4953
  261SOL    HW2  783   2.836   1.369   1.280 -4.2071  0.8873  1.0732
  262SOL     OW  784   1.390   2.971   1.985 -0.4294 -0.4348 -0.8697
  262SOL    HW1  785   1.407   3.049   1.921 -0.9694  1.5435  2.0427
  262SOL    HW2  786   1.310   2.915   1.953 -3.0667 -0.4632  2.4506
  263SOL     OW  787   0.848   0.698   2.361  0.2500  0.1637 -0.2397
  263SOL    HW1  788   0.793   0.612   2.337 -2.3398 -1.9209  0.4457
  263SOL    HW2  789   0.912   0.740   2.289  0.7946  1.7404 -1.5267
  264SOL     OW  790   2.194   0.832   0.466 -0.1922 -0.1126 -0.0583
  264SOL    HW1  791   2.262   0.771   0.419 -0.2090 -0.1210  0.7691
  264SOL    HW2  792   2.219   0.923   0.508 -0.1981  1.0381  1.9899
  265SOL     OW  793   0.955   2.422   2.591  0.1425  0.7747 -0.0550
  265SOL    HW1  794   0.999   2.469   2.677  0.2687 -0.2373 -1.3967
  265SOL    HW2  795   0.914   2.326   2.612 -1.9407 -0.4235  0.2978
  266SOL     OW  796   1.296   1.752   0.012 -0.2938  0.3851 -0.6261
  266SOL    HW1  797   1.325   1.826   0.079  2.0020  1.4853  2.3584
  266SOL    HW2  798   1.379   1.718  -0.041  1.3695 -0.6632  0.1745
  267SOL     OW  799   1.016   0.001   2.337 -0.2987  0.8105 -0.4201
  267SOL    HW1  800   1.009  -0.069   2.263  0.6106  1.1160  0.8092
  267SOL    HW2  801   0.939   0.071   2.332  0.6766 -0.5000  0.1085
  268SOL     OW  802   0.608   1.180   1.029  0.2861 -0.1722  0.2001
  268SOL    HW1  803   0.610   1.222   1.118 -0.7543 -4.3798  1.6083
  268SOL    HW2  804   0.585   1.251   0.953 -0.7533  0.1349 -0.4745
  269SOL     OW  805   2.335   2.559   1.603 -0.2357  0.4125  0.4164
  269SOL    HW1  806   2.393   2.474   1.594 -0.8396 -1.4228 -2.3256
  269SOL    HW2  807   2.291   2.566   1.697 -4.6187 -1.2252  0.9252
  270SOL     OW  808   0.177   2.923   2.008 -0.0365  0.3294  0.0265
  270SOL    HW1  809   0.221   2.898   1.915  2.6946 -0.7412 -0.4711
  270SOL    HW2  810   0.105   2.853   2.039 -0.6300 -1.0672 -0.6568
  271SOL     OW  811   0.410   1.418   1.191  0.0943  0.1919  0.3828
  271SOL    HW1  812   0.380   1.390   1.094 -0.2948  1.4847 -2.8168
  271SOL    HW2  813   0.330   1.408   1.257 -2.4975  0.8627 -1.2524
  272SOL     OW  814   1.992   2.888   1.942 -0.1318  0.3999 -0.3121
  272SOL    HW1  815   1.933   2.852   1.871  3.0803 -1.4052  1.2171
  272SOL    HW2  816   2.067   2.947   1.896  2.3316  0.4077 -3.7379
  273SOL     OW  817   1.492   1.414   2.720 -0.4817  0.2072  0.3631
  273SOL    HW1  818   1.391   1.427   2.733  1.1700 -0.4341  0.1458
  273SOL    HW2  819   1.532   1.353   2.794 -1.1743  1.0855 -0.7296
  274SOL     OW  820   1.180   0.488   2.073 -0.1763  0.1121 -0.1394
  274SOL    HW1  821   1.128   0.403   2.045  1.1366 -2.1272  2.5792
  274SOL    HW2  822   1.224   0.481   2.167 -1.1766 -0.0988 -1.4367
  275SOL     OW  823   0.619   2.079   1.887 -0.2329  0.3214 -0.1927
  275SOL    HW1  824   0.561   2.153   1.934  0.7299 -2.1806 -0.9232
  275SOL    HW2  825   0.571   2.007   1.832  1.2720  1.2960 -0.8934
  276SOL     OW  826   2.196   0.991   2.729 -0.1201  0.5000 -0.3994
  276SOL    HW1  827   2.113   1.032   2.686  0.1436  3.7284 -0.4642
  276SOL    HW2  828   2.178   0.931   2.814 -0.8716  1.5083 -0.0331
  277SOL     OW  829   3.088   0.848   0.225  0.0118 -0.9763  0.0248
  277SOL    HW1  830   3.179   0.895   0.220  0.6384 -0.5441 -1.8676
  277SOL    HW2  831   3.095   0.759   0.276  0.1720 -2.9552 -1.5690
  278SOL     OW  832   0.258   0.285   3.041  0.0206  0.3965 -0.6129
  278SOL    HW1  833   0.341   0.229   3.018 -1.4589  1.6639 -0.7527
  278SOL    HW2  834   0.280   0.362   3.105 -3.2178  3.4728 -0.4481
  279SOL     OW  835   0.183   0.080   0.868 -0.7639  0.6801  0.0192
  279SOL    HW1  836   0.160   0.019   0.947  2.7780  2.6015  0.4065
  279SOL    HW2  837   0.179   0.034   0.775 -0.5346 -2.0817  0.2852
  280SOL     OW  838   1.603   2.915   2.402  0.0333 -0.7703 -0.2566
  280SOL    HW1  839   1.647   2.950   2.489  3.1601 -0.3711 -1.0826
  280SOL    HW2  840   1.535   2.980   2.361  0.2349 -0.1790 -2.9863
  281SOL     OW  841   0.551   0.962   2.231  0.0994 -0.6788  0.1561
  281SOL    HW1  842   0.568   0.875   2.182 -1.0850  0.0171  1.9650
  281SOL    HW2  843   0.497   0.941   2.319 -1.3614  0.4666  1.4806
  282SOL     OW  844   1.776   2.500   0.514  0.1921  0.1666  0.0525
  282SOL    HW1  845   1.729   2.411   0.486 -0.0066 -0.4652  1.0633
  282SOL    HW2  846   1.708   2.577   0.535 -0.8071  0.8458 -0.3193
  283SOL     OW  847   1.198   0.932   0.840  0.7291 -0.1549 -0.1274
  283SOL    HW1  848   1.245   0.880   0.919  4.5237  0.8992  1.4310
  283SOL    HW2  849   1.097   0.961   0.850 -2.4088 -0.0093  1.2319
  284SOL     OW  850   2.278   2.795   2.535 -0.3417  0.2035 -0.0525
  284SOL    HW1  851   2.375   2.806   2.510 -2.9482  2.7026 -4.1704
  284SOL    HW2  852   2.261   2.813   2.640  0.0845  0.4376  3.0816
  285SOL     OW  853   1.333   3.029   2.570  0.5559 -0.2166 -0.0520
  285SOL    HW1  854   1.346   3.029   2.469 -1.3335  1.1793  0.5065
  285SOL    HW2  855   1.232   3.035   2.603 -3.9964  0.4207  0.9609
  286SOL     OW  856   0.453   0.429   0.722 -0.3732 -0.7297 -0.1760
  286SOL    HW1  857   0.415   0.393   0.811 -1.1400  1.4822  0.0250
  286SOL    HW2  858   0.441   0.366   0.642  1.6344  2.0250  1.7874
  287SOL     OW  859   0.099   1.294   2.499 -0.4625 -0.3453  0.1342
  287SOL    HW1  860   0.046   1.227   2.547  5.2021 -1.4873  1.9020
  287SOL    HW2  861   0.083   1.397   2.520  2.1255  4.1224  0.4893
  288SOL     OW  862   1.615   2.644   1.630 -0.2382  0.5972  0.6258
  288SOL    HW1  863   1.589   2.562   1.688  2.1285 -1.1586 -2.8064
  288SOL    HW2  864   1.641   2.618   1.530 -0.5594 -1.2011 -4.6773
  289SOL     OW  865   0.631   2.723   0.900 -0.1973  0.0508 -0.4093
  289SOL    HW1  866   0.696   2.771   0.835 -0.1278  1.4734 -0.9130
  289SOL    HW2  867   0.618   2.782   0.986 -0.6907 -1.2690 -0.7197
  290SOL     OW  868   2.819   1.111   1.747  0.2046  0.5748  1.0399
  290SOL    HW1  869   2.725   1.060   1.749 -1.1173 -2.6300  0.8932
  290SOL    HW2  870   2.891   1.064   1.803 -0.5062 -2.0913  0.9381
  291SOL     OW  871   1.998   0.022   0.022 -0.1093 -0.6310 -0.4773
  291SOL    HW1  872   2.007   0.051   0.125  1.9320 -0.5482  1.3699
  291SOL    HW2  873   2.064   0.066  -0.050  0.1225 -1.2361  0.9380
  292SOL     OW  874   2.992   1.174   3.095  0.0492  0.5904  0.5548
  292SOL    HW1  875   2.932   1.227   3.030  0.5775  2.9061 -1.0716
  292SOL    HW2  876   3.075   1.136   3.046  2.8278 -0.6648  0.2997
  293SOL     OW  877   0.541   2.135   0.227 -0.2754 -0.5776  0.4785
  293SOL    HW1  878   0.485   2.170   0.306  1.3551 -0.6805  4.4882
  293SOL    HW2  879   0.634   2.093   0.261  1.5394  1.5746  1.1964
  294SOL     OW  880   1.832   2.284   1.772 -0.1694  0.3654  0.0545
  294SOL    HW1  881   1.839   2.318   1.871 -0.0190 -0.7305 -1.4810
  294SOL    HW2  882   1.789   2.342   1.697 -0.5758  1.4629 -1.3364
  295SOL     OW  883   0.981   1.080   0.419 -0.3425  0.5410 -0.4782
  295SOL    HW1  884   1.077   1.050   0.465  0.8990 -1.2580  2.1168
  295SOL    HW2  885   0.901   1.062   0.482 -0.4989 -0.5012 -0.5262
  296SOL     OW  886   1.159   2.128   2.585  0.0773  0.1615  0.4535
  296SOL    HW1  887   1.058   2.136   2.595  1.0766 -2.7124  0.5332
  296SOL    HW2  888   1.190   2.054   2.512 -1.8910  1.3325 -2.4022
  297SOL     OW  889   1.402   0.619   1.355 -0.3060  0.1838  0.2828
  297SOL    HW1  890   1.412   0.544   1.427  0.7211  2.5970 -0.6823
  297SOL    HW2  891   1.490   0.662   1.317  1.0649  0.5654 -3.9823
  298SOL     OW  892   0.512   1.323   2.996 -0.2111  0.6084 -0.5640
  298SOL    HW1  893   0.476   1.252   3.063 -1.0867 -3.8364  0.4056
  298SOL    HW2  894   0.546   1.286   2.903  1.4989  3.0969  2.9457
  299SOL     OW  895   0.465   0.293   1.227  0.1047  0.0263 -0.5528
  299SOL    HW1  896   0.430   0.391   1.257 -2.6159  2.5892 -0.8247
  299SOL    HW2  897   0.520   0.249   1.305 -3.1181  0.1480 -0.2991
  300SOL     OW  898   1.247   1.764   2.704  0.5767 -0.9686 -0.4843
  300SOL    HW1  899   1.229   1.660   2.693 -0.6020  0.4637  0.3001
  300SOL    HW2  900   1.348   1.793   2.703  2.5674 -0.2345 -0.9222
  301SOL     OW  901   0.411   0.284   0.480 -0.6443  0.2832  0.2604
  301SOL    HW1  902   0.314   0.248   0.468 -0.0907 -2.1014 -2.1627
  301SOL    HW2  903   0.481   0.208   0.469 -0.7066 -1.9721 -1.7802
  302SOL     OW  904   1.274   2.414   2.366  0.0318 -0.7409  0.5013
  302SOL    HW1  905   1.191   2.474   2.351 -1.0799  1.2096 -1.2838
  302SOL    HW2  906   1.256   2.320   2.407  0.0179  2.4874  1.5477
  303SOL     OW  907   0.944   2.394   0.801  0.2360 -0.1024 -0.0031
  303SOL    HW1  908   1.004   2.425   0.723 -0.4868 -0.8363  0.8679
  303SOL    HW2  909   0.964   2.444   0.891  1.4231 -0.9615  2.5289
  304SOL     OW  910   0.072   1.944   0.658  0.5436  0.1482  0.3729
  304SOL    HW1  911   0.152   1.932   0.589  2.3474 -1.8274 -0.2487
  304SOL    HW2  912   0.002   2.018   0.636  0.4856  1.3135  0.6126
  305SOL     OW  913   1.572   0.842   0.622  0.3375 -0.5436  0.6809
  305SOL    HW1  914   1.570   0.845   0.519  1.8450 -2.8308  0.9828
  305SOL    HW2  915   1.623   0.760   0.662  0.4405  1.9647 -0.4832
  306SOL     OW  916   0.399   1.864   1.896  0.4243  0.7497 -0.7250
  306SOL    HW1  917   0.487   1.805   1.885  0.4578 -2.5797  1.5088
  306SOL    HW2  918   0.393   1.903   1.995  0.4362  1.5286  0.3670
  307SOL     OW  919   3.037   0.896   2.492  0.3197 -0.0788  0.3535
  307SOL    HW1  920   3.032   0.964   2.571  0.0865 -0.1994  1.4085
  307SOL    HW2  921   2.970   0.819   2.509  1.5131 -0.0197  0.6208
  308SOL     OW  922   1.545   2.675   2.811 -0.0183 -0.2651 -0.4111
  308SOL    HW1  923   1.531   2.622   2.725 -2.3250  1.1162 -2.5292
  308SOL    HW2  924   1.499   2.623   2.891  1.5080 -2.0252  1.1462
  309SOL     OW  925   1.294   0.199   1.752  0.2378 -0.0305  0.6469
  309SOL    HW1  926   1.366   0.136   1.789  0.2232 -0.5871 -1.3223
  309SOL    HW2  927   1.234   0.146   1.685 -0.5159 -0.6054 -1.5341
  310SOL     OW  928   1.520   2.570   0.696  0.6048  0.3690 -0.1088
  310SOL    HW1  929   1.504   2.587   0.799  1.0156  0.2801 -0.1638
  310SOL    HW2  930   1.562   2.654   0.650 -0.0002  4.1797  0.2404
  311SOL     OW  931   1.169   0.929   1.669 -0.1570 -0.4066  0.1354
  311SOL    HW1  932   1.130   0.836   1.693 -0.5358  0.3674  0.9938
  311SOL    HW2  933   1.244   0.924   1.595 -0.2291 -1.1037  1.6586
  312SOL     OW  934   1.619   0.723   1.133 -1.0641  0.4482  0.1647
  312SOL    HW1  935   1.662   0.816   1.122 -1.0731  2.2729 -1.4502
  312SOL    HW2  936   1.547   0.703   1.054 -1.7429 -2.0732 -3.6402
  313SOL     OW  937   1.569   1.394   0.707 -0.1731  0.7928 -0.1123
  313SOL    HW1  938   1.497   1.460   0.736  2.5615 -2.0284 -0.4419
  313SOL    HW2  939   1.530   1.304   0.662  2.0440 -2.9815  1.4495
  314SOL     OW  940   2.947   0.034   3.009  0.4958  0.5078  0.4375
  314SOL    HW1  941   2.967   0.065   3.102  1.2679  1.5728 -1.2543
  314SOL    HW2  942   2.868  -0.032   3.016  2.6329  0.1338 -0.2668
  315SOL     OW  943   1.147   0.213   2.808 -0.5632  0.3925  0.8175
  315SOL    HW1  944   1.081   0.162   2.746  0.0960  0.5031  0.4618
  315SOL    HW2  945   1.208   0.150   2.871  1.5823 -0.9469  0.3892
  316SOL     OW  946   1.763   2.050   0.930  0.2547  0.4154  1.1125
  316SOL    HW1  947   1.728   2.092   1.017  0.7539  0.4016 -2.8356
  316SOL    HW2  948   1.765   2.119   0.853  0.5138  1.9516  0.3170
  317SOL     OW  949   1.175   0.675   2.838  0.5804  0.4138 -1.2832
  317SOL    HW1  950   1.143   0.721   2.923  0.5167 -0.2125 -1.0294
  317SOL    HW2  951   1.103   0.609   2.795  2.6136  1.9589 -0.0826
  318SOL     OW  952   1.384   3.034   2.292  0.4292  0.1601 -0.5728
  318SOL    HW1  953   1.372   3.139   2.277 -2.0359  0.5337 -2.5766
  318SOL    HW2  954   1.373   2.989   2.198 -0.7762  0.0706 -2.0519
  319SOL     OW  955   0.597   2.416   2.947 -0.3269  0.0010 -0.1424
  319SOL    HW1  956   0.540   2.393   3.033 -1.9494  0.6553  1.7314
  319SOL    HW2  957   0.665   2.345   2.928 -0.8104 -0.2850 -1.2970
  320SOL     OW  958   1.665   2.256   0.418 -0.2638  0.1211 -0.6056
  320SOL    HW1  959   1.749   2.211   0.383  1.6359 -1.0433 -2.5860
  320SOL    HW2  960   1.591   2.188   0.453  2.5834 -0.6391  0.2777
  321SOL     OW  961   1.654   2.786   0.562  0.1997 -0.5678  0.4212
  321SOL    HW1  962   1.585   2.814   0.495  2.3085  0.1037  3.8928
  321SOL    HW2  963   1.746   2.812   0.526 -0.3735  0.7615  1.1783
  322SOL     OW  964   2.576   1.138   2.332 -0.0441  0.0847  0.3308
  322SOL    HW1  965   2.634   1.184   2.409  1.8958  0.4695 -0.8070
  322SOL    HW2  966   2.542   1.040   2.359 -1.8508 -1.1370  0.7653
  323SOL     OW  967   1.197   2.693   0.856  0.3468 -0.0227  0.6204
  323SOL    HW1  968   1.172   2.656   0.766 -0.5582 -1.4112  1.7387
  323SOL    HW2  969   1.154   2.786   0.871  0.1029 -0.0409  0.2549
  324SOL     OW  970   0.266   2.420   2.485  0.1383 -0.1267 -0.0911
  324SOL    HW1  971   0.295   2.370   2.569 -1.6411 -0.7076  1.9173
  324SOL    HW2  972   0.230   2.513   2.500 -1.2208 -1.7491 -0.1743
  325SOL     OW  973   1.266   3.048   0.451  0.0442  0.0803 -0.1523
  325SOL    HW1  974   1.270   3.087   0.357  1.6007 -0.4360 -1.9315
  325SOL    HW2  975   1.294   3.113   0.524 -0.1578  0.7651 -0.6837
  326SOL     OW  976   2.461   0.789   0.009 -0.3067 -0.0737  0.1769
  326SOL    HW1  977   2.385   0.726  -0.014  0.1606 -1.0017 -1.1883
  326SOL    HW2  978   2.533   0.732   0.057 -2.0013  1.1875  4.5081
  327SOL     OW  979   2.833   0.311   0.624 -0.1200 -0.1025  0.0841
  327SOL    HW1  980   2.815   0.263   0.535  0.0811 -0.0286  1.6813
  327SOL    HW2  981   2.829   0.253   0.710 -2.7662 -0.7782 -4.7833
  328SOL     OW  982   2.607   0.555   0.395 -0.4301  0.2280  0.2207
  328SOL    HW1  983   2.553   0.641   0.410  0.0639 -1.1568 -1.2447
  328SOL    HW2  984   2.601   0.482   0.469 -2.2601  1.1794 -1.4414
  329SOL     OW  985   2.964   2.966   2.151  0.1163 -0.2194  0.6603
  329SOL    HW1  986   3.040   2.910   2.196 -2.1531 -0.3943  0.0215
  329SOL    HW2  987   2.963   3.068   2.175  1.0651 -0.2609 -1.0547
  330SOL     OW  988   0.518   0.202   1.903  0.2689  0.6115  0.1677
  330SOL    HW1  989   0.615   0.167   1.870 -0.9285 -2.0099 -3.1214
  330SOL    HW2  990   0.510   0.220   2.006 -2.1348  1.0171  1.0622
  331SOL     OW  991   2.976   1.948   1.105  0.1206  0.3209 -0.8030
  331SOL    HW1  992   2.976   2.030   1.039  0.7715  0.7871 -1.3760
  331SOL    HW2  993   2.918   1.963   1.187  0.6556 -3.0764 -0.3936
  332SOL     OW  994   0.398   1.159   0.078  0.3813 -0.1337 -0.3327
  332SOL    HW1  995   0.329   1.111   0.021 -0.9229  4.3753  2.6579
  332SOL    HW2  996   0.352   1.187   0.167  3.1256  2.9662  2.2231
  333SOL     OW  997   2.889   1.034   0.290  0.1552  0.5590 -1.0261
  333SOL    HW1  998   2.938   1.088   0.365  3.7203  1.6529  0.1157
  333SOL    HW2  999   2.954   0.985   0.230  0.6038  0.4242 -1.5884
  334SOL     OW 1000   1.702   1.260   1.821  0.8154  0.5978  0.0084
  334SOL    HW1 1001   1.789   1.288   1.769 -1.4003 -1.1145 -1.2149
  334SOL    HW2 1002   1.708   1.289   1.922  0.4318  0.7893 -1.6431
  335SOL     OW 1003   1.990   2.704   2.590 -0.0395 -0.0589 -0.1081
  335SOL    HW1 1004   1.924   2.721   2.673  3.3054 -0.6556  4.9620
  335SOL    HW2 1005   2.072   2.770   2.592  2.4494 -0.5722  2.5143
  336SOL     OW 1006   0.228   0.103   2.723 -0.3035 -0.4816 -0.4143
  336SOL    HW1 1007   0.294   0.122   2.800 -1.1697 -1.6527 -1.6997
  336SOL    HW2 1008   0.160   0.030   2.755  2.0049 -3.1082  0.7548
  337SOL     OW 1009   0.980   2.886   2.856  0.5498  0.1154 -0.1436
  337SOL    HW1 1010   0.965   2.799   2.905 -0.0731  0.5059 -0.6541
  337SOL    HW2 1011   1.043   2.944   2.913  3.5653 -2.0086 -1.6104
  338SOL     OW 1012   0.047   1.012   0.642 -0.4225  0.2818  0.3105
  338SOL    HW1 1013  -0.045   0.974   0.666  2.1754 -0.8840 -0.1854
  338SOL    HW2 1014   0.062   1.111   0.666  1.4478 -0.5991 -0.7736
  339SOL     OW 1015   1.697   1.349   2.103  0.6764 -0.4491 -0.1033
  339SOL    HW1 1016   1.596   1.330   2.135 -1.5647  3.3458 -0.9367
  339SOL    HW2 1017   1.745   1.437   2.142 -1.2579 -0.4691 -0.7290
  340SOL     OW 1018   2.313   0.809   1.121 -0.7459 -0.0279  0.4227
  340SOL    HW1 1019   2.213   0.811   1.097  0.1263  0.6593  0.9429
  340SOL    HW2 1020   2.359   0.723   1.084  1.5514 -2.7182  0.9380
  341SOL     OW 1021   1.896   2.098   0.283  0.4806 -0.2066  0.0394
  341SOL    HW1 1022   1.923   2.161   0.204 -0.8195  0.0639  0.2759
  341SOL    HW2 1023   1.969   2.093   0.362  0.7596  1.0641 -0.2035
  342SOL     OW 1024   2.241   2.113   2.797 -0.8923 -0.1631  0.0635
  342SOL    HW1 1025   2.286   2.029   2.836 -0.8225  0.0395 -1.1756
  342SOL    HW2 1026   2.143   2.097   2.773 -2.2393 -1.5757  3.4007
  343SOL     OW 1027   0.360   0.829   2.750  0.4132  0.1436 -0.0002
  343SOL    HW1 1028   0.378   0.828   2.648  1.9854 -0.0877 -2.4045
  343SOL    HW2 1029   0.453   0.842   2.801 -1.1669  0.4059  2.3400
  344SOL     OW 1030   1.935   1.448   0.428  0.3893  0.4138  0.0918
  344SOL    HW1 1031   1.930   1.363   0.366 -1.4936 -0.0018  1.0193
  344SOL    HW2 1032   1.844   1.497   0.449  0.6034  1.1065 -0.6791
  345SOL     OW 1033   1.397   2.238   2.924  0.0423  0.1554  0.0530
  345SOL    HW1 1034   1.300   2.225   2.890 -0.8347  1.7603 -3.2094
  345SOL    HW2 1035   1.470   2.189   2.868  2.4323  2.9283 -0.0652
  346SOL     OW 1036   2.347   0.892   1.395 -0.2105  0.1884  0.5415
  346SOL    HW1 1037   2.323   0.991   1.421 -1.1195  0.8895 -2.4301
  346SOL    HW2 1038   2.297   0.858   1.313  2.4805  0.7846  1.8914
  347SOL     OW 1039   0.736   2.737   1.590 -0.0809 -0.2992  0.4867
  347SOL    HW1 1040   0.692   2.725   1.681 -2.0890  0.8889 -0.1856
  347SOL    HW2 1041   0.694   2.824   1.545  2.2397  0.9407 -0.0260
  348SOL     OW 1042   0.187   0.703   2.912 -0.9249  0.1360  0.2358
  348SOL    HW1 1043   0.095   0.671   2.895 -0.4500  0.7243  0.2388
  348SOL    HW2 1044   0.231   0.751   2.831 -0.1757 -0.6710 -1.3258
  349SOL     OW 1045   1.852   0.468   2.805  0.1888  0.2685 -0.0931
  349SOL    HW1 1046   1.864   0.552   2.747 -1.1219  0.9926  0.7952
  349SOL    HW2 1047   1.849   0.496   2.902 -0.6760 -3.5908 -2.3497
  350SOL     OW 1048   1.663   0.428   0.389 -0.1954  0.2646  0.1065
  350SOL    HW1 1049   1.752   0.428   0.446  1.3566 -1.2665 -2.0655
  350SOL    HW2 1050   1.638   0.519   0.341 -0.1074 -0.3562 -0.2772
  351SOL     OW 1051   0.982   0.795   2.152 -0.3273  0.0943 -0.2172
  351SOL    HW1 1052   1.041   0.876   2.172  0.5431 -3.1710  2.3544
  351SOL    HW2 1053   0.993   0.757   2.056 -1.5619 -1.7771 -1.3799
  352SOL     OW 1054   2.008   1.299   0.655  0.9676  0.2698 -0.5487
  352SOL    HW1 1055   1.978   1.360   0.575  1.2592  0.0522  2.3110
  352SOL    HW2 1056   1.920   1.255   0.691 -1.2596  0.6489 -0.1439
  353SOL     OW 1057   2.160   2.775   1.087  0.4248 -0.0718 -0.2739
  353SOL    HW1 1058   2.234   2.739   1.152 -0.7481  1.0982 -1.7323
  353SOL    HW2 1059   2.083   2.704   1.086  2.0983  1.4602 -0.9170
  354SOL     OW 1060   0.255   1.357   2.897  0.0392 -0.1257 -0.1202
  354SOL    HW1 1061   0.241   1.440   2.830  0.5975 -0.4876 -2.0592
  354SOL    HW2 1062   0.350   1.348   2.943  2.6796  1.3590  1.4045
  355SOL     OW 1063   0.708   1.591   0.595 -0.3789  0.0621  0.4314
  355SOL    HW1 1064   0.676   1.559   0.688  1.2123  0.4029 -1.3535
  355SOL    HW2 1065   0.709   1.514   0.522 -1.0891  1.6918 -1.7311
  356SOL     OW 1066   0.821   0.340   2.052 -0.3498  0.0162 -0.3096
  356SOL    HW1 1067   0.921   0.297   2.048 -1.4988  2.4542  0.2859
  356SOL    HW2 1068   0.793   0.390   1.962 -1.6058  0.0254 -1.7038
  357SOL     OW 1069   1.007   1.353   0.345  0.2986 -0.1377 -0.0241
  357SOL    HW1 1070   1.103   1.365   0.301  0.1623 -0.9316 -3.0760
  357SOL    HW2 1071   0.971   1.254   0.346 -1.5055 -1.3268 -1.7400
  358SOL     OW 1072   1.687   1.530   0.491  0.1954  0.8195 -0.0951
  358SOL    HW1 1073   1.640   1.500   0.578 -0.5807  3.1732  1.9918
  358SOL    HW2 1074   1.658   1.472   0.414 -0.9104 -0.2361 -1.1969
  359SOL     OW 1075   1.571   2.638   0.204  0.2969  0.4590 -0.0797
  359SOL    HW1 1076   1.530   2.551   0.178  0.4611  0.5861  1.3736
  359SOL    HW2 1077   1.517   2.692   0.279  0.0954 -0.5590  0.7630
  360SOL     OW 1078   0.796   0.581   0.535 -0.5176  0.2959 -0.2823
  360SOL    HW1 1079   0.700   0.577   0.507 -0.7197  0.0998 -0.6978
  360SOL    HW2 1080   0.830   0.490   0.565 -0.3159  1.3657 -2.1609
  361SOL     OW 1081   1.225   1.297   0.685  0.5881 -0.2861 -0.3809
  361SOL    HW1 1082   1.288   1.359   0.733  0.8778  0.7232 -1.4245
  361SOL    HW2 1083   1.127   1.319   0.704  0.9696  1.4240  0.5678
  362SOL     OW 1084   1.408   1.837   0.830 -0.2756 -0.1162  0.1180
  362SOL    HW1 1085   1.449   1.762   0.887 -1.2989 -0.9058 -0.7855
  362SOL    HW2 1086   1.477   1.864   0.758 -1.1155  0.1600  0.8843
  363SOL     OW 1087   1.218   1.297   2.042 -0.1471  0.6699  0.1051
  363SOL    HW1 1088   1.290   1.342   2.099 -1.7002  0.9758 -0.7049
  363SOL    HW2 1089   1.174   1.366   1.982  3.0362  1.8098  2.0518
  364SOL     OW 1090   0.512   2.342   1.993  0.6070 -0.0993 -0.4149
  364SOL    HW1 1091   0.420   2.374   2.023  1.1612 -1.7885 -1.4325
  364SOL    HW2 1092   0.540   2.374   1.899  2.6367  0.7164 -0.6122
  365SOL     OW 1093   1.001   1.955   1.357 -0.1816  0.5318 -0.8026
  365SOL    HW1 1094   0.907   1.998   1.365 -0.0888  0.4170  0.4544
  365SOL    HW2 1095   1.024   1.942   1.257 -1.4731 -2.5215  1.2545
  366SOL     OW 1096   2.837   1.986   0.394 -0.0850 -0.6246  0.4141
  366SOL    HW1 1097   2.740   1.982   0.422  2.9003  1.1263 -1.8902
  366SOL    HW2 1098   2.865   1.910   0.331 -2.3239  0.1010 -1.0872
  367SOL     OW 1099   0.877   1.100   0.040 -0.0337  0.0367 -0.6836
  367SOL    HW1 1100   0.901   1.016   0.098  1.5608 -0.1767 -0.9932
  367SOL    HW2 1101   0.960   1.161   0.019  1.1482  1.7052 -1.2064
  368SOL     OW 1102   1.449   0.583   0.690 -0.5082  0.0311 -0.3672
  368SOL    HW1 1103   1.387   0.635   0.625 -1.1203  1.0499 -0.1289
  368SOL    HW2 1104   1.553   0.576   0.682  0.9664 -0.5354 -0.0660
  369SOL     OW 1105   0.359   1.690   0.066  0.0795 -0.1763  0.3580
  369SOL    HW1 1106   0.411   1.742   0.144  0.5128 -0.6358  2.7552
  369SOL    HW2 1107   0.264   1.664   0.105  0.4215  1.8565 -0.1416
  370SOL     OW 1108   0.440   2.054   0.992 -0.8618 -0.1107  0.3147
  370SOL    HW1 1109   0.438   2.156   0.975 -3.1798 -1.0761  0.9265
  370SOL    HW2 1110   0.346   2.012   0.999  3.1812 -0.0552  1.8137
  371SOL     OW 1111   2.938   2.212   2.638 -0.4635 -0.0398 -0.2987
  371SOL    HW1 1112   2.874   2.167   2.702  2.8609  2.2956  0.2208
  371SOL    HW2 1113   3.033   2.225   2.675  0.6294 -0.5696 -1.2349
  372SOL     OW 1114   1.078   2.013   1.058 -0.8667  0.1224 -0.2591
  372SOL    HW1 1115   0.999   2.059   1.005 -2.5111 -0.6619  0.5855
  372SOL    HW2 1116   1.162   2.075   1.074 -0.9320 -0.0448  0.9629
  373SOL     OW 1117   2.005   1.964   0.839 -0.0441 -0.3500 -0.5261
  373SOL    HW1 1118   2.080   1.967   0.913 -1.7258  1.9104  2.9500
  373SOL    HW2 1119   1.914   1.994   0.882 -0.3050 -0.6565  2.4131
  374SOL     OW 1120   1.876   0.390   0.573  0.0884  0.3618  0.4801
  374SOL    HW1 1121   1.853   0.330   0.651 -1.2671  0.2687 -2.3463
  374SOL    HW2 1122   1.984   0.403   0.550 -0.2881  1.2158 -0.9004
  375SOL     OW 1123   2.366   2.158   1.093  0.2668 -0.8239  0.0840
  375SOL    HW1 1124   2.425   2.133   1.013  0.9669 -2.6057  2.5283
  375SOL    HW2 1125   2.413   2.132   1.182 -0.2896  2.2582 -0.6289
  376SOL     OW 1126   3.096   0.573   1.489  0.0741 -0.1234 -0.1034
  376SOL    HW1 1127   3.103   0.647   1.566  1.4048  0.1570  0.3152
  376SOL    HW2 1128   3.007   0.519   1.490 -2.5708  0.0888  1.5478
  377SOL     OW 1129   2.204   2.911   0.296  0.0296  0.2973 -0.2980
  377SOL    HW1 1130   2.204   3.002   0.341  2.0515  0.4969 -0.6633
  377SOL    HW2 1131   2.289   2.854   0.324  0.3251 -3.4077 -1.4022
  378SOL     OW 1132   1.834   1.855   2.626 -0.5051  0.1917  0.4698
  378SOL    HW1 1133   1.835   1.792   2.706 -1.1931 -2.8482 -1.4327
  378SOL    HW2 1134   1.858   1.818   2.531 -0.7619  1.1144 -2.1892
  379SOL     OW 1135   0.702   0.118   2.878 -0.2075 -0.4670 -0.6771
  379SOL    HW1 1136   0.693   0.049   2.808 -0.4130  1.4627  1.2343
  379SOL    HW2 1137   0.758   0.197   2.842  0.7545  1.8005  1.6447
  380SOL     OW 1138   1.504   1.145   0.606 -0.1033  0.0348  0.2813
  380SOL    HW1 1139   1.401   1.154   0.593  0.0969  0.6115 -1.2002
  380SOL    HW2 1140   1.523   1.050   0.634 -0.0644 -0.4605  1.7983
  381SOL     OW 1141   1.367   1.166   1.525 -0.3181 -0.0083 -0.4728
  381SOL    HW1 1142   1.393   1.117   1.438  1.5177  0.2917 -0.4052
  381SOL    HW2 1143   1.431   1.139   1.599 -2.3090 -0.3585 -1.4064
  382SOL     OW 1144   1.773   0.853   0.183  0.2788  0.5573 -0.0888
  382SOL    HW1 1145   1.815   0.841   0.089 -0.4921  0.1541  1.8955
  382SOL    HW2 1146   1.836   0.900   0.254  1.0305  0.1680 -0.8527
  383SOL     OW 1147   2.603   1.007   1.467  0.0168  0.6922 -0.1102
  383SOL    HW1 1148   2.506   0.999   1.420 -3.2147  0.3991 -2.3459
  383SOL    HW2 1149   2.679   0.964   1.415  1.9987 -0.7130  2.4948
  384SOL     OW 1150   0.951   2.290   0.137  1.1877  0.0547 -0.3554
  384SOL    HW1 1151   0.929   2.363   0.209 -2.4423 -0.2594 -1.0565
  384SOL    HW2 1152   0.914   2.193   0.162  0.6305  0.1825 -1.7823
  385SOL     OW 1153   3.043   2.046   1.648 -0.2289 -0.0363  0.0331
  385SOL    HW1 1154   3.116   2.112   1.640 -0.1620  0.8242 -2.4190
  385SOL    HW2 1155   3.077   1.949   1.624  2.3028 -0.1865 -3.3827
  386SOL     OW 1156   0.500   1.123   0.391 -0.6257 -0.3802  0.6273
  386SOL    HW1 1157   0.506   1.028   0.433 -0.5711 -2.2709 -0.9814
  386SOL    HW2 1158   0.408   1.153   0.358  1.6365 -0.5323 -0.0158
  387SOL     OW 1159   0.949   0.307   1.627  0.5983 -0.5150  0.5434
  387SOL    HW1 1160   1.002   0.392   1.645 -2.4252 -0.3659 -0.2802
  387SOL    HW2 1161   0.939   0.278   1.527  0.9748 -1.6025 -1.1973
  388SOL     OW 1162   1.194   2.657   1.734  0.3191  0.9147 -0.0525
  388SOL    HW1 1163   1.219   2.648   1.633 -2.9191  0.6778 -2.0100
  388SOL    HW2 1164   1.217   2.579   1.799 -0.7143 -0.8233 -0.7914
  389SOL     OW 1165   0.170   2.965   1.094  0.5507 -0.1284  0.3420
  389SOL    HW1 1166   0.075   2.936   1.067 -0.0589  2.6530 -0.6749
  389SOL    HW2 1167   0.244   2.888   1.093  3.8565 -1.9595  0.3806
  390SOL     OW 1168   1.023   0.946   1.354 -0.3390 -0.2079 -0.0136
  390SOL    HW1 1169   1.126   0.925   1.360  0.1447 -1.2138 -0.5203
  390SOL    HW2 1170   1.002   1.046   1.391  0.4498  0.1034  2.0109
  391SOL     OW 1171   2.113   1.088   1.073  0.9271 -0.3790 -0.1082
  391SOL    HW1 1172   2.055   1.013   1.102 -1.4911  1.3378  0.1453
  391SOL    HW2 1173   2.172   1.059   0.989  2.4324 -1.0244 -0.2639
  392SOL     OW 1174   0.874   2.733   3.077 -0.4030  0.8146  0.3556
  392SOL    HW1 1175   0.810   2.692   3.150 -0.7076 -3.2915  1.8628
  392SOL    HW2 1176   0.952   2.779   3.120 -0.0220  1.2087 -0.1575
  393SOL     OW 1177   0.320   0.517   1.982 -0.0260  0.5787  0.8112
  393SOL    HW1 1178   0.254   0.454   1.940  0.2735  1.0220  0.7441
  393SOL    HW2 1179   0.418   0.517   1.940 -1.6400 -2.3377 -0.6657
  394SOL     OW 1180   3.048   1.823   2.807  0.4013 -0.8650  0.4389
  394SOL    HW1 1181   3.115   1.806   2.883 -1.5087 -0.9113 -0.7126
  394SOL    HW2 1182   3.084   1.897   2.743  0.4593  2.0868  0.9543
  395SOL     OW 1183   1.614   1.917   0.686  0.1088  0.3812  0.0240
  395SOL    HW1 1184   1.684   1.899   0.610 -1.3520 -1.0462 -0.2341
  395SOL    HW2 1185   1.661   1.921   0.779 -0.1898  0.0398 -0.0179
  396SOL     OW 1186   2.815   1.893   1.325  0.2764 -0.8257 -0.6299
  396SOL    HW1 1187   2.795   1.802   1.354  2.2819  0.7713  1.1708
  396SOL    HW2 1188   2.784   1.961   1.397  1.0991 -2.2416 -3.1039
  397SOL     OW 1189   1.033   2.246   0.511  0.2078 -0.0264  0.0654
  397SOL    HW1 1190   0.949   2.201   0.541  0.5842  3.9991 -0.5908
  397SOL    HW2 1191   1.036   2.352   0.522  2.7022  0.5199 -1.9161
  398SOL     OW 1192   2.112   3.059   1.045 -0.0738  0.0495 -0.3628
  398SOL    HW1 1193   2.107   2.963   1.074  0.1314 -0.7040 -0.1258
  398SOL    HW2 1194   2.056   3.121   1.108  3.3628 -2.2727 -1.4555
  399SOL     OW 1195   2.992   2.528   2.569  0.4155  0.2037 -0.5703
  399SOL    HW1 1196   2.895   2.506   2.534  2.2861  2.0874  2.4793
  399SOL    HW2 1197   3.041   2.437   2.596  1.6046 -3.5964 -3.5438
  400SOL     OW 1198   0.774   1.628   1.322 -0.1779  0.3351  0.5763
  400SOL    HW1 1199   0.783   1.699   1.391  0.5853 -2.9325 -0.2256
  400SOL    HW2 1200   0.789   1.666   1.224  1.8458  0.0599 -1.6644
  401SOL     OW 1201   1.802   0.078   1.384  0.3578 -0.0670  0.0794
  401SOL    HW1 1202   1.851   0.142   1.449 -2.9086 -2.8329  2.0904
  401SOL    HW2 1203   1.702   0.104   1.382 -0.0065 -1.1839  0.1749
  402SOL     OW 1204   1.314   0.140   3.028  0.0280 -0.6097 -0.0263
  402SOL    HW1 1205   1.419   0.130   3.004 -0.7448 -2.3770  0.1584
  402SOL    HW2 1206   1.294   0.243   3.037 -0.6900  0.5287 -0.2906
  403SOL     OW 1207   2.310   1.799   0.883  0.1619 -0.1210  0.2185
  403SOL    HW1 1208   2.410   1.786   0.897 -1.2049  1.2807  1.1992
  403SOL    HW2 1209   2.262   1.864   0.949  2.6363 -1.5394  0.6790
  404SOL     OW 1210   0.180   2.485   2.817  0.1175  0.2415  0.0924
  404SOL    HW1 1211   0.276   2.445   2.801  0.8138 -1.5560 -2.9984
  404SOL    HW2 1212   0.173   2.582   2.853 -2.3763 -1.6468 -0.6743
  405SOL     OW 1213   0.164   2.398   0.645 -0.2728 -0.2696 -0.0438
  405SOL    HW1 1214   0.142   2.366   0.547 -1.7324  1.0039 -1.1196
  405SOL    HW2 1215   0.228   2.481   0.645 -0.2161 -2.9798  2.5618
  406SOL     OW 1216   0.006   1.480   3.006 -0.5167  0.4738  0.2032
  406SOL    HW1 1217   0.058   1.410   2.947  1.8465 -2.2133 -0.3817
  406SOL    HW2 1218   0.069   1.537   3.067 -1.6234 -2.4435 -1.0231
  407SOL     OW 1219   1.591   0.957   0.912 -0.4562  0.5271 -0.4729
  407SOL    HW1 1220   1.545   0.903   0.838 -1.7985 -0.1111  0.0739
  407SOL    HW2 1221   1.532   1.031   0.945  1.9748 -2.5259  0.5303
  408SOL     OW 1222   1.595   2.326   0.935  0.0611 -0.1570 -0.5099
  408SOL    HW1 1223   1.662   2.313   0.859 -0.3841  1.5020  2.8871
  408SOL    HW2 1224   1.531   2.409   0.919 -2.1873  1.4425 -1.0443
  409SOL     OW 1225   0.681   0.835   0.701 -0.0007  0.1026 -0.6284
  409SOL    HW1 1226   0.609   0.864   0.634  0.4981  0.2306  2.0461
  409SOL    HW2 1227   0.657   0.745   0.754 -2.6196 -1.5543  0.5170
  410SOL     OW 1228   1.243   2.050   1.439  0.3152 -0.1409  0.3373
  410SOL    HW1 1229   1.304   1.974   1.489  0.8163 -0.7269 -0.7731
  410SOL    HW2 1230   1.146   2.017   1.417 -2.8027 -0.2994  1.6328
  411SOL     OW 1231   2.504   1.849   0.025 -0.0450  0.3926 -0.0550
  411SOL    HW1 1232   2.436   1.917  -0.013 -1.5240 -1.6993  0.0815
  411SOL    HW2 1233   2.581   1.828  -0.041  0.7654  0.7830 -0.6491
  412SOL     OW 1234   1.460   2.555   2.189 -0.0734  0.0872 -0.1151
  412SOL    HW1 1235   1.495   2.640   2.234 -2.1442 -0.3288 -1.4415
  412SOL    HW2 1236   1.416   2.492   2.259 -0.2141  0.2043 -0.2935
  413SOL     OW 1237   3.081   0.290   2.956 -0.1282 -0.6772  0.2283
  413SOL    HW1 1238   3.025   0.207   2.985  1.4588 -1.5312  2.2818
  413SOL    HW2 1239   3.185   0.291   2.981 -1.3247  1.1896  0.5859
  414SOL     OW 1240   1.829   1.451   1.233  0.0931  0.2153 -0.2909
  414SOL    HW1 1241   1.745   1.510   1.267 -0.6080  1.0611  0.8183
  414SOL    HW2 1242   1.806   1.384   1.156 -0.2944  2.2917  2.3533
  415SOL     OW 1243   0.301   2.182   0.741  0.4115  0.0006 -0.1850
  415SOL    HW1 1244   0.240   2.247   0.688  0.1908  0.8780  3.0459
  415SOL    HW2 1245   0.251   2.104   0.783 -0.9310 -0.8365  2.6511
  416SOL     OW 1246   0.341   1.027   1.040 -0.0882 -0.5802 -0.4718
  416SOL    HW1 1247   0.328   1.000   0.939 -2.8882  0.7438 -0.5720
  416SOL    HW2 1248   0.416   1.092   1.052 -1.1254 -2.4682  0.3087
  417SOL     OW 1249   2.151   2.285   1.924  0.2772 -0.1762  0.1889
  417SOL    HW1 1250   2.150   2.201   1.982  0.0233  1.2370 -0.2608
  417SOL    HW2 1251   2.065   2.294   1.864  0.0849 -1.9620 -0.8506
  418SOL     OW 1252   1.132   0.506   1.332 -0.2130  0.0133 -0.0666
  418SOL    HW1 1253   1.066   0.487   1.256  2.6223  1.0943  1.8324
  418SOL    HW2 1254   1.231   0.536   1.301 -0.4023  1.2821 -0.3889
  419SOL     OW 1255   0.945   0.386   3.027 -0.5570  0.6554 -0.6264
  419SOL    HW1 1256   0.975   0.388   2.927  1.2312 -2.4537 -2.4509
  419SOL    HW2 1257   0.865   0.447   3.042  0.5146  0.9727  1.4707
  420SOL     OW 1258   0.099   2.263   0.422 -0.1649  0.1334  0.6530
  420SOL    HW1 1259   0.077   2.274   0.322  0.9674  0.3584  0.0835
  420SOL    HW2 1260   0.022   2.218   0.476 -2.5494  1.6494  1.1957
  421SOL     OW 1261   0.343   2.938   0.703  0.6662  0.0763 -0.1882
  421SOL    HW1 1262   0.287   2.872   0.754  0.4235  0.9517  1.2635
  421SOL    HW2 1263   0.406   2.994   0.760 -1.1248 -0.1470  0.2639
  422SOL     OW 1264   1.014   2.541   1.022  0.2971 -0.5231 -0.4102
  422SOL    HW1 1265   1.090   2.600   0.980 -0.5557  0.0331 -1.8619
  422SOL    HW2 1266   1.012   2.562   1.125  2.6365 -0.6847  2.4069
  423SOL     OW 1267   0.113   0.668   1.263 -0.8671  0.2477 -0.1081
  423SOL    HW1 1268   0.059   0.642   1.350  2.4954 -1.1594 -1.1153
  423SOL    HW2 1269   0.072   0.755   1.211 -2.0758  0.9985  1.8798
  424SOL     OW 1270   1.029   2.228   2.061 -0.0094 -0.1204  0.1222
  424SOL    HW1 1271   1.021   2.318   2.010 -1.6440 -0.6267 -0.6572
  424SOL    HW2 1272   1.019   2.232   2.163 -2.2205 -1.8933 -0.9562
  425SOL     OW 1273   1.995   1.413   0.974  0.0788 -0.8338  0.0247
  425SOL    HW1 1274   2.027   1.378   1.066 -2.7707  1.0868 -1.4325
  425SOL    HW2 1275   2.072   1.443   0.910 -1.6957 -1.2618 -0.3679
  426SOL     OW 1276   1.553   1.584   1.375  0.0259  0.2347 -0.0026
  426SOL    HW1 1277   1.520   1.663   1.312  1.9473 -2.0850 -1.0418
  426SOL    HW2 1278   1.504   1.583   1.464  1.3022  2.3876  0.2901
  427SOL     OW 1279   1.860   2.343   2.043  0.2927  0.2620 -0.0766
  427SOL    HW1 1280   1.932   2.275   2.086  1.5178  0.2232 -1.1963
  427SOL    HW2 1281   1.893   2.440   2.051 -1.4398  1.2650 -1.6510
  428SOL     OW 1282   0.843   2.995   0.189 -0.2802 -0.7137  0.1932
  428SOL    HW1 1283   0.863   3.074   0.128 -2.2093 -1.2650  1.3147
  428SOL    HW2 1284   0.930   2.940   0.196 -0.8456  0.2102 -0.2715
  429SOL     OW 1285   1.328   0.093   0.220 -0.0538 -0.4898 -0.1363
  429SOL    HW1 1286   1.420   0.129   0.252 -1.1008 -1.1203 -0.8693
  429SOL    HW2 1287   1.318   0.090   0.117  0.7073 -0.5936 -0.6551
  430SOL     OW 1288   2.811   1.420   0.383  0.3729 -0.0950 -0.4495
  430SOL    HW1 1289   2.856   1.479   0.310  1.3491 -1.3664  0.3298
  430SOL    HW2 1290   2.817   1.471   0.472  4.8006  0.6647 -0.5775
  431SOL     OW 1291   2.161   1.571   0.828 -0.2214 -0.0892  0.5976
  431SOL    HW1 1292   2.227   1.650   0.859  2.8451 -1.2606 -1.1479
  431SOL    HW2 1293   2.093   1.603   0.754  0.2005  0.1202 -1.8695
  432SOL     OW 1294   2.899   2.249   1.225  0.1695  0.0763 -0.6123
  432SOL    HW1 1295   2.820   2.192   1.255  1.4049  0.6528 -1.4987
  432SOL    HW2 1296   2.958   2.289   1.298  1.1661  0.6692 -3.4229
  433SOL     OW 1297   1.944   0.398   0.872  0.3462  0.4780 -0.1941
  433SOL    HW1 1298   1.866   0.347   0.919  0.0240 -2.4164  1.0584
  433SOL    HW2 1299   2.033   0.393   0.920 -1.0662  0.2034  0.2834
  434SOL     OW 1300   1.539   0.292   0.782 -0.0379 -0.4648 -0.1703
  434SOL    HW1 1301   1.481   0.380   0.771  0.0453  2.0868 -0.4381
  434SOL    HW2 1302   1.602   0.305   0.860  2.0097 -1.3721  1.0474
  435SOL     OW 1303   1.429   1.450   2.171  0.0409  0.4325  0.3291
  435SOL    HW1 1304   1.353   1.479   2.227 -1.2223  0.7361 -1.0669
  435SOL    HW2 1305   1.496   1.523   2.136  1.0888 -3.0477 -1.6446
  436SOL     OW 1306   1.674   2.742   2.214 -0.3733  0.5349  0.0849
  436SOL    HW1 1307   1.629   2.792   2.299 -1.0068 -0.2038  1.4238
  436SOL    HW2 1308   1.707   2.647   2.239  0.1610  0.7030 -1.4670
  437SOL     OW 1309   1.042   2.918   0.921 -0.2830  0.0108  0.2134
  437SOL    HW1 1310   1.017   2.976   0.840  5.4314 -0.3483  1.1337
  437SOL    HW2 1311   0.976   2.932   0.997  2.8134  0.2730  0.6613
  438SOL     OW 1312   1.041   2.579   1.315 -0.0457  0.0139 -0.2205
  438SOL    HW1 1313   1.105   2.615   1.388  1.7531  0.0149  0.9022
  438SOL    HW2 1314   1.020   2.477   1.328  1.3452  1.0462  0.7799
  439SOL     OW 1315   0.697   1.702   1.064 -0.6388 -0.2858  0.0784
  439SOL    HW1 1316   0.696   1.801   1.028 -0.8563  1.1519  0.7289
  439SOL    HW2 1317   0.605   1.683   1.112 -1.6744  0.6289  0.3621
  440SOL     OW 1318   0.999   2.498   1.962 -0.0267 -0.1141  0.1307
  440SOL    HW1 1319   0.967   2.540   1.868 -1.7349  2.0410 -0.7877
  440SOL    HW2 1320   1.100   2.494   1.979 -0.9293  0.6278  0.9523
  441SOL     OW 1321   0.440   2.747   1.377  0.0382 -0.3429 -0.4434
  441SOL    HW1 1322   0.517   2.683   1.406  0.9040 -3.5369 -0.7577
  441SOL    HW2 1323   0.349   2.703   1.367  2.3394  2.8926 -1.6178
  442SOL     OW 1324   2.337   0.657   2.462  0.6922 -0.1965 -0.6028
  442SOL    HW1 1325   2.333   0.552   2.469  1.6089  1.3455  2.6640
  442SOL    HW2 1326   2.254   0.705   2.503 -1.3547 -2.0088 -1.7415
  443SOL     OW 1327   1.225   2.730   2.177  0.7229 -0.1151 -0.0587
  443SOL    HW1 1328   1.286   2.757   2.255 -2.1248  2.7482 -2.6223
  443SOL    HW2 1329   1.220   2.626   2.151  0.0573 -1.7766  0.1068
  444SOL     OW 1330   1.126   1.316   1.608 -0.3714 -0.5005 -0.1429
  444SOL    HW1 1331   1.208   1.257   1.576  0.1704  1.3254  0.1960
  444SOL    HW2 1332   1.148   1.392   1.674 -0.9080 -0.2400 -1.4595
  445SOL     OW 1333   3.101   2.405   1.879  0.2163 -0.6527 -0.4284
  445SOL    HW1 1334   3.091   2.498   1.833  0.1950  2.1128  2.8721
  445SOL    HW2 1335   3.009   2.361   1.894 -3.8043 -0.3402  0.6536
  446SOL     OW 1336   0.273   1.907   2.365  0.1162 -0.3871 -0.4965
  446SOL    HW1 1337   0.232   1.999   2.395 -0.8838  3.2173 -0.6724
  446SOL    HW2 1338   0.219   1.866   2.291 -1.6431  1.3732 -0.5157
  447SOL     OW 1339   1.229   1.712   1.929 -0.5025 -0.1442 -0.1005
  447SOL    HW1 1340   1.137   1.761   1.928 -1.1102  1.4543  0.5956
  447SOL    HW2 1341   1.302   1.783   1.916 -1.0816  0.2660  0.7652
  448SOL     OW 1342   0.126   1.485   1.995 -0.6645  0.6768 -0.0726
  448SOL    HW1 1343   0.108   1.573   1.945 -2.4299  0.3217  0.7651
  448SOL    HW2 1344   0.086   1.482   2.089  2.8080  0.4746  3.5550
  449SOL     OW 1345   1.870   2.996   0.856  0.5220 -0.6774 -0.0611
  449SOL    HW1 1346   1.910   3.003   0.953 -1.4066 -2.3438 -0.2439
  449SOL    HW2 1347   1.884   2.901   0.815  1.3592  1.0400  1.6229
  450SOL     OW 1348   2.374   1.442   0.718 -0.4500 -0.4561  0.5491
  450SOL    HW1 1349   2.285   1.479   0.753 -0.9254 -1.4460 -2.1194
  450SOL    HW2 1350   2.394   1.479   0.623 -0.4942 -1.2968 -0.7408
  451SOL     OW 1351   1.380   2.990   1.444 -0.1133 -0.4466  0.3550
  451SOL    HW1 1352   1.309   3.064   1.455 -0.9106  0.4470 -0.1365
  451SOL    HW2 1353   1.379   2.927   1.529  0.9330 -0.0952  1.5942
  452SOL     OW 1354   2.702   2.300   2.171 -0.2823  0.3855 -0.1001
  452SOL    HW1 1355   2.641   2.375   2.203 -1.0497 -0.4732 -1.8255
  452SOL    HW2 1356   2.729   2.231   2.245 -0.3343  0.4398 -0.6176
  453SOL     OW 1357   2.486   2.649   0.019  0.2514 -0.3515  0.0363
  453SOL    HW1 1358   2.400   2.702   0.022  0.0681  0.5808 -0.4287
  453SOL    HW2 1359   2.489   2.573  -0.046  2.6847  2.8091 -0.0226
  454SOL     OW 1360   0.980   1.155   2.102  0.5223  0.1958  0.2451
  454SOL    HW1 1361   0.947   1.139   2.005 -0.1566  0.3958  0.2667
  454SOL    HW2 1362   1.071   1.203   2.103  1.8372 -0.9889 -1.5695
  455SOL     OW 1363   0.645   2.688   2.938  0.2264  0.1692  0.1152
  455SOL    HW1 1364   0.740   2.717   2.975 -2.6108 -2.0039  1.9253
  455SOL    HW2 1365   0.616   2.591   2.970  1.2261 -1.7074  1.4881
  456SOL     OW 1366   0.451   1.863   0.251  0.3764  0.3919  0.3893
  456SOL    HW1 1367   0.527   1.828   0.311  0.3631 -2.1817  0.2493
  456SOL    HW2 1368   0.473   1.952   0.202 -0.2910  0.0184  0.9965
  457SOL     OW 1369   0.307   2.655   0.629 -0.5606  0.3683  0.6189
  457SOL    HW1 1370   0.302   2.736   0.560 -1.2038  1.1606 -3.6187
  457SOL    HW2 1371   0.401   2.639   0.659  0.0598 -1.1989  1.9552
  458SOL     OW 1372   2.932   3.061   1.246  0.4428 -0.4355 -0.4533
  458SOL    HW1 1373   2.952   3.159   1.223 -0.4927  2.2011  1.7763
  458SOL    HW2 1374   2.942   2.992   1.169  0.0245 -0.0836 -1.7790
  459SOL     OW 1375   2.163   2.568   0.806  0.9915  0.3062 -0.5212
  459SOL    HW1 1376   2.200   2.662   0.822 -0.2087  1.5015  0.3929
  459SOL    HW2 1377   2.229   2.498   0.771  0.0730  0.5174  1.9837
  460SOL     OW 1378   1.233   2.016   2.838 -0.6440 -0.6104  0.1832
  460SOL    HW1 1379   1.206   2.028   2.739  0.8093 -2.0126  0.7807
  460SOL    HW2 1380   1.246   1.918   2.862  0.8594  1.5455 -1.6416
  461SOL     OW 1381   0.554   2.101   2.651 -0.1602 -0.5170  0.1237
  461SOL    HW1 1382   0.492   2.022   2.619  0.6566 -1.0723 -0.0249
  461SOL    HW2 1383   0.585   2.097   2.753  3.2352  0.9047  2.4491
  462SOL     OW 1384   0.957   1.155   1.822  0.3585 -0.1240  0.0695
  462SOL    HW1 1385   1.027   1.107   1.761 -1.0062  2.0919  2.6660
  462SOL    HW2 1386   0.923   1.244   1.770  0.4094 -0.9547 -0.3290
  463SOL     OW 1387   0.463   0.832   0.459 -0.0592 -0.1297 -0.1794
  463SOL    HW1 1388   0.508   0.739   0.459  0.7069  2.2034  0.4062
  463SOL    HW2 1389   0.364   0.842   0.495 -3.4393 -1.4526 -0.7552
  464SOL     OW 1390   0.620   2.294   2.237 -0.3284  0.1693 -0.0799
  464SOL    HW1 1391   0.574   2.353   2.309 -3.8411 -2.0811 -0.2730
  464SOL    HW2 1392   0.600   2.319   2.136 -1.1470 -2.1171  0.1343
  465SOL     OW 1393   0.294   0.937   0.776  0.8782 -0.9894  0.4151
  465SOL    HW1 1394   0.213   0.967   0.715 -1.9853  2.1737 -2.2954
  465SOL    HW2 1395   0.281   0.834   0.793  0.1643 -0.5029 -2.2442
  466SOL     OW 1396   1.408   1.126   1.018 -0.3376 -0.3962  0.7278
  466SOL    HW1 1397   1.411   1.226   1.017 -0.0433 -1.2212 -0.4529
  466SOL    HW2 1398   1.317   1.085   0.991 -0.7787 -1.3702 -3.0637
  467SOL     OW 1399   0.485   0.349   2.401 -0.3333  0.2122 -0.5541
  467SOL    HW1 1400   0.455   0.441   2.430 -0.6903 -0.4773  1.1380
  467SOL    HW2 1401   0.501   0.296   2.488 -0.7218  0.9290  0.8915
  468SOL     OW 1402   0.464   2.289   1.677 -0.0207 -0.0208  0.6501
  468SOL    HW1 1403   0.537   2.364   1.698 -0.6889  1.1966  0.4845
  468SOL    HW2 1404   0.457   2.265   1.577  2.2579  1.6952 -2.5879
  469SOL     OW 1405   1.473   1.415   1.178 -0.2024 -0.2514  0.1778
  469SOL    HW1 1406   1.565   1.375   1.137  2.9713  2.5397 -0.4633
  469SOL    HW2 1407   1.495   1.482   1.253 -0.4860 -3.0944  1.0670
  470SOL     OW 1408   3.020   1.686   0.714  0.0075 -0.1885  0.4678
  470SOL    HW1 1409   3.082   1.762   0.682 -0.1664 -4.1132  2.3232
  470SOL    HW2 1410   2.996   1.693   0.813 -0.1939  0.1116  0.2041
  471SOL     OW 1411   2.715   1.295   2.114  0.1398  0.9238 -0.2345
  471SOL    HW1 1412   2.653   1.246   2.179  1.8925  0.2920 -2.0403
  471SOL    HW2 1413   2.766   1.379   2.154 -1.0191  2.3930 -1.3035
  472SOL     OW 1414   1.168   2.469  -0.002 -0.5225  0.0598 -0.3421
  472SOL    HW1 1415   1.183   2.465   0.101 -0.9768  2.9444  0.2971
  472SOL    HW2 1416   1.088   2.414  -0.041  1.6123 -0.9671 -3.0085
  473SOL     OW 1417   1.098   1.551   1.015  0.9915  0.1246  0.4185
  473SOL    HW1 1418   1.002   1.516   0.991 -2.5003  1.1266  0.5775
  473SOL    HW2 1419   1.145   1.477   1.067 -1.4525 -0.1476 -2.6307
  474SOL     OW 1420   0.681   1.296   0.551  0.2486 -0.0085 -0.8416
  474SOL    HW1 1421   0.688   1.266   0.452  2.7581  2.2676 -0.0827
  474SOL    HW2 1422   0.742   1.237   0.611 -1.2908  0.1904 -1.9382
  475SOL     OW 1423   2.839   0.082   0.790 -0.2951  0.5957  0.3421
  475SOL    HW1 1424   2.919   0.129   0.838 -1.6504 -2.1753 -1.1052
  475SOL    HW2 1425   2.751   0.121   0.825  2.5189  0.1599 -0.3504
  476SOL     OW 1426   0.986   3.033   1.813 -0.3946 -0.5111 -0.2737
  476SOL    HW1 1427   1.053   2.987   1.881 -1.6405  0.9908  3.0126
  476SOL    HW2 1428   1.008   3.011   1.711  2.2976 -1.7280  0.6615
  477SOL     OW 1429   1.456   0.325   2.487  0.0261  0.0225 -0.3962
  477SOL    HW1 1430   1.465   0.349   2.588  2.2357 -1.0608  1.1373
  477SOL    HW2 1431   1.542   0.293   2.450 -0.4339  1.5027  2.9832
  478SOL     OW 1432   2.200   1.838   0.213 -0.2350 -0.1158  0.3305
  478SOL    HW1 1433   2.141   1.762   0.260 -0.3389  0.8463  1.3842
  478SOL    HW2 1434   2.298   1.828   0.235 -2.8065  0.8935 -2.5474
  479SOL     OW 1435   1.274   1.050   2.927 -0.0830  0.2725 -0.4162
  479SOL    HW1 1436   1.344   1.085   2.864 -1.4902  1.6899  5.0083
  479SOL    HW2 1437   1.204   0.988   2.877  0.5184  0.3322 -0.0664
  480SOL     OW 1438   2.569   2.360   0.403 -0.1289 -0.2375  0.1993
  480SOL    HW1 1439   2.538   2.265   0.428 -3.7468 -0.1931 -0.8180
  480SOL    HW2 1440   2.517   2.389   0.319 -0.5308 -1.1686  0.7391
  481SOL     OW 1441   0.990   1.126   0.872  0.0420  0.0431 -0.0490
  481SOL    HW1 1442   0.970   1.223   0.838  0.5891 -1.4370  1.2767
  481SOL    HW2 1443   1.007   1.123   0.975  2.3401 -1.2814 -1.4093
  482SOL     OW 1444   1.560   0.269   2.045 -0.4094  0.0273  0.1318
  482SOL    HW1 1445   1.575   0.358   2.005 -1.1265 -1.2131 -0.9747
  482SOL    HW2 1446   1.634   0.244   2.116  0.0043  2.9665  2.5962
  483SOL     OW 1447   0.108   2.335   1.282 -0.3037 -0.0221  0.5350
  483SOL    HW1 1448   0.044   2.340   1.363 -0.2871  3.3658  1.6858
  483SOL    HW2 1449   0.129   2.428   1.240 -0.1864 -0.8559 -1.7743
  484SOL     OW 1450   1.742   1.075   1.351 -0.0049 -0.5552  0.2459
  484SOL    HW1 1451   1.802   0.991   1.374  0.7593  1.3830 -0.5090
  484SOL    HW2 1452   1.761   1.154   1.417  0.3988 -2.0510  1.6373
  485SOL     OW 1453   0.710   1.042   1.822 -0.2192  0.3847  0.0769
  485SOL    HW1 1454   0.671   1.031   1.726 -4.4533 -1.3728 -0.0362
  485SOL    HW2 1455   0.803   1.081   1.819 -0.9997 -3.2070  0.1733
  486SOL     OW 1456   0.834   1.933   2.475  0.0790 -0.0706 -0.1349
  486SOL    HW1 1457   0.872   1.912   2.572 -2.1749  3.0526 -0.9800
  486SOL    HW2 1458   0.799   2.029   2.464  0.2977 -0.8019  2.9753
  487SOL     OW 1459   1.836   1.666   0.952  0.4779  0.0023  0.2192
  487SOL    HW1 1460   1.879   1.576   0.990  3.3231 -1.4579 -1.5077
  487SOL    HW2 1461   1.894   1.701   0.877  0.3958 -2.9783 -1.8389
  488SOL     OW 1462   2.984   0.860   2.236 -0.3749 -0.0280  0.1016
  488SOL    HW1 1463   2.959   0.761   2.256  0.4070 -0.1733  0.7960
  488SOL    HW2 1464   3.026   0.906   2.319  0.7892 -0.4523  0.3866
  489SOL     OW 1465   2.774   0.246   1.280  0.0070 -0.6853  0.2429
  489SOL    HW1 1466   2.785   0.270   1.378 -0.0491 -0.5110 -1.5479
  489SOL    HW2 1467   2.867   0.228   1.234 -1.8225 -0.5696  3.6205
  490SOL     OW 1468   1.493   2.976   2.779 -0.6947  0.1752  0.3605
  490SOL    HW1 1469   1.503   2.872   2.790  1.6054  0.0200  0.2781
  490SOL    HW2 1470   1.444   3.006   2.694 -1.2297 -1.2812  2.8149
  491SOL     OW 1471   1.762   1.451   2.623  0.5166 -0.4749 -0.2059
  491SOL    HW1 1472   1.706   1.427   2.709  0.8493 -0.6750  0.7050
  491SOL    HW2 1473   1.860   1.477   2.640  0.7446  0.0175  0.3266
  492SOL     OW 1474   0.520   2.022   0.677 -0.1208 -0.9137 -0.1980
  492SOL    HW1 1475   0.556   1.996   0.773 -1.2447 -1.5925  2.5194
  492SOL    HW2 1476   0.443   2.090   0.691  0.7343 -3.2390 -1.0573
  493SOL     OW 1477   0.385   1.409   2.030  0.1240 -0.2659 -0.0256
  493SOL    HW1 1478   0.286   1.432   2.032 -1.8865  0.8653  0.1017
  493SOL    HW2 1479   0.409   1.330   2.091 -1.2691  1.3569  0.8475
  494SOL     OW 1480   2.732   2.680   0.152  0.1758 -0.0371 -0.2534
  494SOL    HW1 1481   2.739   2.613   0.230 -2.4500  0.1436 -0.9419
  494SOL    HW2 1482   2.647   2.665   0.103  1.6491  3.4970 -1.5317
  495SOL     OW 1483   2.721   2.695   2.746  0.6961  0.3646  0.0560
  495SOL    HW1 1484   2.653   2.620   2.709  0.6699  0.4616  1.1710
  495SOL    HW2 1485   2.773   2.746   2.666  2.2395  0.2536 -1.1242
  496SOL     OW 1486   2.089   2.259   0.703 -0.3779  0.5131  0.4316
  496SOL    HW1 1487   2.123   2.269   0.800  2.9299 -4.0374  0.8610
  496SOL    HW2 1488   2.065   2.161   0.687  0.5856  2.6161 -0.7411
  497SOL     OW 1489   0.260   2.982   2.415  0.2044 -0.5101  0.5642
  497SOL    HW1 1490   0.197   3.055   2.444 -0.8641 -1.3107 -2.1604
  497SOL    HW2 1491   0.302   3.013   2.325 -1.2165  0.9138  0.4355
  498SOL     OW 1492   1.202   1.366   1.227  0.9213  0.7902 -0.0581
  498SOL    HW1 1493   1.305   1.364   1.209  1.2676 -0.9661  1.6895
  498SOL    HW2 1494   1.177   1.437   1.302  1.9744 -0.3567  3.1078
  499SOL     OW 1495   0.683   1.831   0.433  0.0119  0.4530 -0.0060
  499SOL    HW1 1496   0.717   1.747   0.477  0.5072 -0.3964 -1.9605
  499SOL    HW2 1497   0.707   1.917   0.488 -0.0492  0.9681 -0.6984
  500SOL     OW 1498   1.403   2.836   1.675  0.2481 -0.1210  0.6540
  500SOL    HW1 1499   1.316   2.799   1.727  0.2568  3.8606 -1.3334
  500SOL    HW2 1500   1.490   2.777   1.665 -0.4205 -2.4699  1.4639
  501SOL     OW 1501   0.796   1.140   2.311  0.5988 -0.1235  0.0279
  501SOL    HW1 1502   0.720   1.073   2.298 -1.4868  0.0348  0.3641
  501SOL    HW2 1503   0.852   1.161   2.224 -1.4223 -2.7795  2.0703
  502SOL     OW 1504   2.580   0.977   1.741  0.0087 -0.4281  0.0844
  502SOL    HW1 1505   2.603   0.987   1.638 -0.1920 -0.1356 -2.3901
  502SOL    HW2 1506   2.535   0.886   1.757 -0.3420  2.0084 -0.5540
  503SOL     OW 1507   1.325   0.106   0.691 -0.2927 -0.2676 -0.4289
  503SOL    HW1 1508   1.253   0.173   0.664  1.9040 -0.2225  0.8097
  503SOL    HW2 1509   1.416   0.151   0.723  0.4718 -0.7222 -2.9737
  504SOL     OW 1510   3.000   2.317   1.462  0.1613 -0.2716 -0.3273
  504SOL    HW1 1511   2.957   2.393   1.512 -0.2887 -3.2359 -0.7387
  504SOL    HW2 1512   3.059   2.266   1.529  2.2088  2.2802  2.2679
  505SOL     OW 1513   2.315   1.170   1.430 -0.2276 -0.4687  0.4089
  505SOL    HW1 1514   2.306   1.191   1.322  0.2805 -4.2622  0.4853
  505SOL    HW2 1515   2.384   1.232   1.473 -0.9751 -1.1835 -1.1579
  506SOL     OW 1516   1.979   0.157   1.829  0.2925 -0.2837  0.0379
  506SOL    HW1 1517   2.039   0.067   1.842 -1.1367 -0.9542  2.3541
  506SOL    HW2 1518   2.025   0.241   1.877 -0.6785 -0.9096  1.2254
  507SOL     OW 1519   0.535   0.681   2.144  0.1107 -0.0697  0.2577
  507SOL    HW1 1520   0.456   0.636   2.093  3.8114  0.1414  1.0042
  507SOL    HW2 1521   0.605   0.615   2.167 -1.1416  1.5979 -2.3525
  508SOL     OW 1522   0.291   1.636   0.798 -0.0550  0.1769  0.2102
  508SOL    HW1 1523   0.350   1.686   0.732  0.7070 -0.3007  0.2364
  508SOL    HW2 1524   0.276   1.693   0.882 -1.1071  2.6278 -0.3125
  509SOL     OW 1525   1.217   1.273   2.355  0.6481 -0.2920 -0.2485
  509SOL    HW1 1526   1.242   1.235   2.262 -1.1082  3.6781  1.7086
  509SOL    HW2 1527   1.128   1.231   2.406 -3.3495 -2.4401  0.9821
  510SOL     OW 1528   1.269   2.021   2.170  0.1832 -0.6494 -0.9399
  510SOL    HW1 1529   1.256   2.105   2.110  0.3290 -3.2849  0.7261
  510SOL    HW2 1530   1.180   1.971   2.193 -0.2215 -1.1764  0.9422
  511SOL     OW 1531   3.056   2.756   1.325  0.1829  0.5782  0.1936
  511SOL    HW1 1532   3.033   2.728   1.225 -2.1624 -0.9476 -2.4530
  511SOL    HW2 1533   2.970   2.759   1.385 -0.4345  0.4829  3.8610
  512SOL     OW 1534   2.401   0.391   1.381  0.8090  0.6945  0.4540
  512SOL    HW1 1535   2.297   0.385   1.372 -0.1715  0.0225  0.5137
  512SOL    HW2 1536   2.455   0.369   1.291 -0.1837 -2.2196 -5.3048
  513SOL     OW 1537   2.568   2.048   0.865 -0.4098 -0.6857 -0.4065
  513SOL    HW1 1538   2.527   2.128   0.809 -0.2724  0.0803  2.0016
  513SOL    HW2 1539   2.626   1.987   0.813 -1.1560 -2.3676  0.3402
  514SOL     OW 1540   0.616   2.743   0.425 -0.2214  0.0417  0.4272
  514SOL    HW1 1541   0.620   2.786   0.330  0.1993 -0.2283 -0.6476
  514SOL    HW2 1542   0.659   2.806   0.492  1.5718 -2.4987 -0.1794
  515SOL     OW 1543   1.984   1.201   2.359 -0.0276 -0.7838 -0.4531
  515SOL    HW1 1544   1.932   1.168   2.277  1.1126 -2.7233 -1.7500
  515SOL    HW2 1545   1.909   1.252   2.413 -0.9658  1.9133  1.6081
  516SOL     OW 1546   0.225   0.281   1.864  0.2117  0.3647 -0.3753
  516SOL    HW1 1547   0.324   0.242   1.876  0.9588  1.4383  0.7091
  516SOL    HW2 1548   0.156   0.205   1.876 -0.5630 -1.5742  1.8629
  517SOL     OW 1549   0.420   0.007   1.140  0.2626  0.0703  0.6817
  517SOL    HW1 1550   0.405   0.111   1.153  2.1291  0.9265  0.2120
  517SOL    HW2 1551   0.328  -0.040   1.124  1.5721 -1.0579 -0.1310
  518SOL     OW 1552   2.176   3.069   1.830 -0.2122  0.0570  0.0759
  518SOL    HW1 1553   2.242   3.145   1.856 -0.9137 -1.5960 -0.6404
  518SOL    HW2 1554   2.194   3.036   1.730  1.3648  2.3453 -0.0737
  519SOL     OW 1555   2.327   2.154   2.532  0.2494  0.2920  0.5393
  519SOL    HW1 1556   2.311   2.130   2.630 -1.0682  0.4461 -0.2806
  519SOL    HW2 1557   2.345   2.255   2.513 -5.2617 -0.7317  0.4162
  520SOL     OW 1558   1.828   2.773   1.787  0.4689  0.2086  0.6366
  520SOL    HW1 1559   1.736   2.759   1.833 -0.6755 -0.3585 -0.6591
  520SOL    HW2 1560   1.872   2.680   1.763 -0.7914  1.2707  1.0027
  521SOL     OW 1561   0.568   3.074   2.077  0.1185  0.0180 -0.5840
  521SOL    HW1 1562   0.464   3.059   2.064 -1.2629  2.5173 -0.2327
  521SOL    HW2 1563   0.604   3.056   2.171 -2.4109 -0.4065 -0.7688
  522SOL     OW 1564   0.238   1.871   1.473 -0.5007  0.0221 -0.2122
  522SOL    HW1 1565   0.282   1.936   1.539 -0.6905 -0.3265 -0.1201
  522SOL    HW2 1566   0.196   1.927   1.395  0.2559  1.3076  0.2555
  523SOL     OW 1567   2.246   2.974   1.574  0.4246  0.3643 -0.1005
  523SOL    HW1 1568   2.332   2.920   1.556 -1.5935  0.8115  1.5736
  523SOL    HW2 1569   2.176   2.938   1.514  3.5755  1.4325  1.5226
  524SOL     OW 1570   0.189   2.799   2.801  0.1228  0.0059  0.5265
  524SOL    HW1 1571   0.140   2.860   2.864  2.0434 -0.1588 -1.3980
  524SOL    HW2 1572   0.293   2.816   2.802 -2.3985 -1.1483 -2.3065
  525SOL     OW 1573   2.165   2.045   0.415 -0.1647  0.1914  0.4181
  525SOL    HW1 1574   2.180   1.983   0.500 -0.5585 -2.9190 -1.2078
  525SOL    HW2 1575   2.172   1.983   0.333 -1.5447 -0.2309 -0.2123
  526SOL     OW 1576   0.448   1.545   1.655  0.1130  0.6720  0.2539
  526SOL    HW1 1577   0.481   1.573   1.745 -1.3116 -0.9204 -1.2915
  526SOL    HW2 1578   0.489   1.454   1.629 -0.2022  0.0246 -2.5400
  527SOL     OW 1579   1.038   2.898   1.231 -0.2199  0.2262 -0.2081
  527SOL    HW1 1580   1.124   2.844   1.204  0.3538 -1.3194  0.0170
  527SOL    HW2 1581   1.054   3.001   1.237 -0.5048  1.9364  1.4698
  528SOL     OW 1582   1.364   2.416   0.517 -0.5386  0.4470 -0.0582
  528SOL    HW1 1583   1.383   2.314   0.516 -0.5298 -0.7787 -2.0992
  528SOL    HW2 1584   1.426   2.463   0.582 -0.4729 -0.5362 -0.8388
  529SOL     OW 1585   1.973   1.747   0.702  0.0862  0.2576 -0.3149
  529SOL    HW1 1586   1.882   1.740   0.650  0.4251 -0.9147 -4.6800
  529SOL    HW2 1587   1.983   1.829   0.760  0.8654 -1.7890 -0.0110
  530SOL     OW 1588   0.337   2.601   0.263 -0.0450  0.2401 -0.2762
  530SOL    HW1 1589   0.321   2.660   0.344  1.1972  0.1275  0.4579
  530SOL    HW2 1590   0.333   2.502   0.294  3.2656  2.9285 -0.2822
  531SOL     OW 1591   1.846   0.980   0.972  0.4250 -0.4709 -0.8829
  531SOL    HW1 1592   1.897   1.043   0.907  0.9956 -0.9201 -1.0185
  531SOL    HW2 1593   1.745   0.964   0.948 -2.8737 -1.0773  0.8745
  532SOL     OW 1594   0.373   1.194   0.717  0.5210  0.2198  0.2571
  532SOL    HW1 1595   0.438   1.204   0.637 -0.8655  1.5754  0.1529
  532SOL    HW2 1596   0.348   1.100   0.747 -1.2277  4.0886 -1.6723
  533SOL     OW 1597   1.732   0.023   2.585 -0.2249  0.2441  0.2209
  533SOL    HW1 1598   1.831  -0.009   2.598  3.0199  0.5494 -1.0232
  533SOL    HW2 1599   1.702   0.077   2.670 -1.3442  1.5796  2.5205
  534SOL     OW 1600   0.360   0.186   1.623  0.3623  0.1461  0.2398
  534SOL    HW1 1601   0.440   0.239   1.590  0.4681 -2.4324  3.4433
  534SOL    HW2 1602   0.284   0.246   1.653  3.7153  0.3433 -2.0884
  535SOL     OW 1603   1.926   0.391   0.190  0.5071 -0.6176 -0.5373
  535SOL    HW1 1604   1.927   0.458   0.271  0.7636 -1.0097  0.8274
  535SOL    HW2 1605   1.915   0.295   0.221  0.1025 -3.2269  0.4878
  536SOL     OW 1606   1.425   2.538   0.961 -0.7409 -0.1567 -0.5001
  536SOL    HW1 1607   1.410   2.511   1.060  0.2865  3.4609  2.1879
  536SOL    HW2 1608   1.349   2.594   0.927  0.7422 -0.0819  0.5681
  537SOL     OW 1609   0.821   0.193   2.340  0.5080  0.5636  0.5113
  537SOL    HW1 1610   0.838   0.264   2.265 -1.8219 -2.3939 -1.9997
  537SOL    HW2 1611   0.734   0.135   2.333  2.9542 -2.8742  2.8258
  538SOL     OW 1612   1.686   2.354   1.520 -0.3027 -0.2100 -0.0671
  538SOL    HW1 1613   1.638   2.262   1.509 -1.4103 -0.1667  3.9093
  538SOL    HW2 1614   1.737   2.393   1.438  1.0393  0.5712 -1.1821
  539SOL     OW 1615   0.211   1.583   2.727  0.1902  0.7331  0.2471
  539SOL    HW1 1616   0.151   1.603   2.643 -1.2524  0.4457  1.7749
  539SOL    HW2 1617   0.219   1.663   2.790  0.4131 -0.4320 -0.7844
  540SOL     OW 1618   2.715   1.660   1.954 -0.1788 -0.0650 -0.4712
  540SOL    HW1 1619   2.761   1.622   2.037  0.2030 -0.1928 -2.5897
  540SOL    HW2 1620   2.614   1.686   1.958 -1.3761  0.5524 -4.0835
  541SOL     OW 1621   0.452   2.260   0.003 -0.0494 -0.4597 -0.2602
  541SOL    HW1 1622   0.466   2.218   0.101  3.3381 -1.5164  1.7649
  541SOL    HW2 1623   0.358   2.243  -0.037 -0.2005  1.3515 -2.0383
  542SOL     OW 1624   2.282   2.561   0.425 -0.3501  0.1090  0.1843
  542SOL    HW1 1625   2.268   2.664   0.413  1.3025  1.0910  2.8332
  542SOL    HW2 1626   2.196   2.509   0.458 -2.6037  2.9589  2.3900
  543SOL     OW 1627   1.061   1.823   1.605 -0.1082  0.4529 -0.9229
  543SOL    HW1 1628   1.045   1.879   1.692  0.2947  0.4244 -0.4739
  543SOL    HW2 1629   1.023   1.866   1.520 -0.4831  1.7305 -2.9682
  544SOL     OW 1630   1.016   0.404   0.196  0.0116 -0.9551 -0.4641
  544SOL    HW1 1631   1.020   0.308   0.238  0.0659 -1.5878  3.8298
  544SOL    HW2 1632   1.013   0.388   0.094 -1.6084 -1.8387 -1.3503
  545SOL     OW 1633   1.123   1.794   0.792  0.1966 -1.0199 -0.1088
  545SOL    HW1 1634   1.224   1.776   0.779 -1.9354 -0.7984  0.3272
  545SOL    HW2 1635   1.080   1.746   0.871  0.9702  0.9208 -0.6137
  546SOL     OW 1636   2.669   1.492   0.005  0.1951 -0.1850 -0.5488
  546SOL    HW1 1637   2.633   1.535  -0.084  2.2112  1.3065 -2.0346
  546SOL    HW2 1638   2.605   1.490   0.086  3.5830 -0.2772 -1.5721
  547SOL     OW 1639   0.587   3.072   2.675  0.6850 -0.5813 -0.2349
  547SOL    HW1 1640   0.680   3.030   2.658 -2.5754  0.9626 -0.1254
  547SOL    HW2 1641   0.518   3.003   2.695  1.9979  0.7814 -1.4169
  548SOL     OW 1642   2.089   0.859   2.992  0.4660  0.6896  0.1566
  548SOL    HW1 1643   1.991   0.832   2.966 -3.8666 -1.0347  1.9456
  548SOL    HW2 1644   2.094   0.959   3.027  0.7632  1.0505  0.9475
  549SOL     OW 1645   0.696   0.516   0.210 -0.1924 -0.1751 -0.1577
  549SOL    HW1 1646   0.660   0.566   0.130  0.0843  0.4863  0.5482
  549SOL    HW2 1647   0.789   0.560   0.230 -4.0644 -1.1145  0.5909
  550SOL     OW 1648   2.506   2.827   2.888  0.3297  0.2416 -0.2323
  550SOL    HW1 1649   2.482   2.773   2.975 -0.7011 -1.7526 -0.3862
  550SOL    HW2 1650   2.567   2.765   2.831  3.9147 -0.2223 -1.3911
  551SOL     OW 1651   0.277   0.918   0.223  0.0552 -0.5491  0.1414
  551SOL    HW1 1652   0.363   0.862   0.198 -0.5981  0.1132 -1.8303
  551SOL    HW2 1653   0.233   0.884   0.312 -1.6724  0.2048  0.8593
  552SOL     OW 1654   0.698   2.973   1.854  0.4159  0.0476  0.8219
  552SOL    HW1 1655   0.670   3.017   1.948 -0.8737 -1.1229  0.5579
  552SOL    HW2 1656   0.799   2.961   1.844 -3.0601  2.1046  0.6092
  553SOL     OW 1657   2.986   2.528   0.337 -0.1880  0.0898  0.6042
  553SOL    HW1 1658   2.959   2.424   0.341 -1.5290 -0.5005 -0.9936
  553SOL    HW2 1659   2.933   2.588   0.403  0.8477 -0.8286 -2.1874
  554SOL     OW 1660   2.151   0.366   0.596  0.2986  0.5138 -0.3876
  554SOL    HW1 1661   2.228   0.358   0.526  2.6748 -0.5986 -0.6838
  554SOL    HW2 1662   2.120   0.272   0.627  2.4211  0.0428  0.0372
  555SOL     OW 1663   0.369   2.762   2.523 -0.2346 -0.4933 -0.2631
  555SOL    HW1 1664   0.308   2.843   2.484  0.1016  0.0102  0.5282
  555SOL    HW2 1665   0.439   2.738   2.453 -0.6659  2.0455 -1.0629
  556SOL     OW 1666   0.815   2.393   1.508  0.2335  0.5483 -0.5735
  556SOL    HW1 1667   0.860   2.471   1.564 -0.4444 -0.2372  1.7951
  556SOL    HW2 1668   0.870   2.353   1.433 -1.9035 -0.2127 -1.1611
  557SOL     OW 1669   0.068   2.053   0.188 -0.3834  0.0308 -0.0251
  557SOL    HW1 1670   0.018   1.993   0.119 -2.6023 -1.0359  1.6093
  557SOL    HW2 1671   0.135   2.116   0.141  0.4231  0.5553  0.7920
  558SOL     OW 1672   2.889   2.277   0.292 -0.7852  0.0931  0.2248
  558SOL    HW1 1673   2.799   2.292   0.341 -0.6020 -1.9179  0.0494
  558SOL    HW2 1674   2.906   2.176   0.276 -1.6355 -1.0780  2.1698
  559SOL     OW 1675   0.388   2.297   1.394 -0.1881 -0.5485 -0.4294
  559SOL    HW1 1676   0.289   2.310   1.359 -1.9325  4.0623  1.6007
  559SOL    HW2 1677   0.444   2.222   1.351 -0.9661  2.0246  0.7468
  560SOL     OW 1678   2.092   1.138   3.063  0.0593 -0.5604 -0.2904
  560SOL    HW1 1679   2.070   1.154   3.161 -0.3794  1.2813 -0.8540
  560SOL    HW2 1680   2.132   1.222   3.022 -0.3394 -0.3056 -0.6793
  561SOL     OW 1681   3.055   1.861   0.030  1.0040  0.1648 -0.2621
  561SOL    HW1 1682   3.007   1.793   0.097 -0.9780 -0.7218 -1.2631
  561SOL    HW2 1683   2.993   1.946   0.008 -0.2200  0.9455  0.9148
  562SOL     OW 1684   0.987   2.257   2.326  0.4352 -0.1613 -0.4502
  562SOL    HW1 1685   0.906   2.216   2.382 -4.0968 -1.5902  1.4733
  562SOL    HW2 1686   1.047   2.322   2.368 -1.6243  0.9591 -0.1116
  563SOL     OW 1687   0.705   2.582   2.612  0.2040  0.2067 -0.0195
  563SOL    HW1 1688   0.792   2.530   2.591 -1.4219 -1.1576 -0.7907
  563SOL    HW2 1689   0.704   2.613   2.708  1.4029 -1.6490  1.2758
  564SOL     OW 1690   2.838   1.317   2.911  0.7201  0.5410 -0.2112
  564SOL    HW1 1691   2.774   1.355   2.980  1.4190 -1.7849  0.5983
  564SOL    HW2 1692   2.885   1.390   2.853  2.1132  0.1045 -2.4466
  565SOL     OW 1693   2.537   1.965   2.641  0.1302  0.8199 -0.1101
  565SOL    HW1 1694   2.478   2.033   2.587 -1.7103 -1.8762  0.6919
  565SOL    HW2 1695   2.607   2.003   2.709 -0.7709  1.0116 -0.1549
  566SOL     OW 1696   2.073   2.820   1.380 -0.0879  0.3821  0.1396
  566SOL    HW1 1697   2.022   2.730   1.379  0.2932 -1.1931  0.6136
  566SOL    HW2 1698   2.041   2.884   1.307  1.6049 -2.5584  0.9681
  567SOL     OW 1699   2.450   0.024   2.361 -0.6517 -0.9296  0.2186
  567SOL    HW1 1700   2.358   0.068   2.359  0.2824 -4.3463 -1.1258
  567SOL    HW2 1701   2.490   0.015   2.264 -1.7682  1.4025 -2.2794
  568SOL     OW 1702   1.507   1.779   0.267  0.0033 -0.3508 -0.5899
  568SOL    HW1 1703   1.440   1.853   0.234 -1.2151 -0.8775  0.8886
  568SOL    HW2 1704   1.592   1.772   0.210  0.2828 -0.8234  0.1273
  569SOL     OW 1705   0.265   0.671   0.801  0.2165 -0.4947  0.6221
  569SOL    HW1 1706   0.351   0.616   0.789  3.4171 -1.0102  0.4189
  569SOL    HW2 1707   0.181   0.613   0.822 -1.5804  1.0069  2.7544
  570SOL     OW 1708   0.600   0.891   2.915 -0.0203 -0.2110  0.4266
  570SOL    HW1 1709   0.662   0.934   2.838  1.6913  2.3496 -1.4170
  570SOL    HW2 1710   0.601   0.952   3.002  3.3737 -0.1996  1.4460
  571SOL     OW 1711   0.779   0.007   1.004  0.2828  0.8742  0.2330
  571SOL    HW1 1712   0.845   0.002   0.924  0.8141  0.0182  2.1083
  571SOL    HW2 1713   0.686  -0.025   0.989  1.1063  3.2259 -0.1624
  572SOL     OW 1714   1.615   2.590   1.318  0.0570 -0.9450 -0.1100
  572SOL    HW1 1715   1.534   2.543   1.276  0.7834  0.4971 -0.7384
  572SOL    HW2 1716   1.599   2.693   1.324  0.8407  2.5566  2.9857
  573SOL     OW 1717   2.866   0.511   2.019  0.1837  0.8044 -0.3461
  573SOL    HW1 1718   2.792   0.441   2.013  0.2152  2.0789  1.5214
  573SOL    HW2 1719   2.890   0.560   1.925  0.8411  1.4500 -3.6691
  574SOL     OW 1720   0.156   1.737   1.050  0.0791  0.3329  0.5794
  574SOL    HW1 1721   0.136   1.838   1.028 -1.2213 -0.6056  2.7700
  574SOL    HW2 1722   0.079   1.693   1.100  1.3041  1.3504 -1.5793
  575SOL     OW 1723   0.870   2.155   0.926 -0.2096 -0.0663 -0.5339
  575SOL    HW1 1724   0.828   2.212   1.002  1.9873  0.0952 -0.6343
  575SOL    HW2 1725   0.901   2.221   0.855  0.3479 -1.2504 -1.0149
  576SOL     OW 1726   2.929   3.032   1.726 -0.4118 -0.2716 -0.1767
  576SOL    HW1 1727   2.826   3.037   1.727 -0.1554 -0.7067  0.2630
  576SOL    HW2 1728   2.968   3.129   1.722 -3.1270  1.8709  1.1009
  577SOL     OW 1729   2.473   1.249   0.013 -0.4633  0.3169 -0.0383
  577SOL    HW1 1730   2.495   1.177  -0.058  1.9830  0.2290 -0.0983
  577SOL    HW2 1731   2.551   1.264   0.076  0.6972 -2.3350 -1.2237
  578SOL     OW 1732   1.387   2.746   2.430  0.0787 -0.4824 -0.2027
  578SOL    HW1 1733   1.287   2.775   2.449 -2.2013  0.6591 -0.3747
  578SOL    HW2 1734   1.456   2.821   2.421  1.7900 -1.2661 -1.2692
  579SOL     OW 1735   0.085   2.510   0.142 -0.1624 -0.3648  0.1195
  579SOL    HW1 1736  -0.001   2.522   0.199 -1.7904 -1.5073 -1.6142
  579SOL    HW2 1737   0.167   2.546   0.194 -1.5630  1.1654  1.0214
  580SOL     OW 1738   0.976   2.695   0.404  0.1960 -0.0329 -0.3728
  580SOL    HW1 1739   1.071   2.700   0.351  2.1015  0.2636 -2.2159
  580SOL    HW2 1740   0.904   2.638   0.361  1.9129  0.0878  1.2958
  581SOL     OW 1741   1.250   2.650   1.462 -0.9719  0.0541 -0.3278
  581SOL    HW1 1742   1.300   2.565   1.491  1.9399  1.9431 -0.0247
  581SOL    HW2 1743   1.308   2.698   1.391  2.1780  0.7771 -1.6579
  582SOL     OW 1744   1.512   0.079   1.856  0.1979 -0.2260 -0.2633
  582SOL    HW1 1745   1.537   0.152   1.926 -2.1015  1.0387 -1.6369
  582SOL    HW2 1746   1.594   0.057   1.794 -1.4807  0.8275 -1.8899
  583SOL     OW 1747   2.469   3.061   0.560 -0.5195 -0.3082 -0.0795
  583SOL    HW1 1748   2.516   3.005   0.482  1.9125 -0.4760 -0.3852
  583SOL    HW2 1749   2.386   3.016   0.603  0.2110  1.1051  4.7936
  584SOL     OW 1750   1.569   0.966   2.132 -0.3561  1.3465  0.0974
  584SOL    HW1 1751   1.631   0.949   2.052 -1.3571  2.5381  0.3414
  584SOL    HW2 1752   1.608   0.937   2.222 -2.0530 -0.9802  3.0357
  585SOL     OW 1753   2.124   2.676   2.919  0.4009  0.0720  0.4870
  585SOL    HW1 1754   2.123   2.588   2.866  0.8975 -1.7837 -0.5004
  585SOL    HW2 1755   2.028   2.706   2.948  2.4285  0.0669  0.5856
  586SOL     OW 1756   2.828   0.377   1.570 -0.3323 -0.0795  0.9785
  586SOL    HW1 1757   2.805   0.465   1.620  0.2321 -0.7714 -1.4045
  586SOL    HW2 1758   2.757   0.307   1.582  3.1596 -0.1729  1.4192
  587SOL     OW 1759   2.032   1.553   2.640  0.9488  0.2392 -0.6327
  587SOL    HW1 1760   2.083   1.478   2.580 -1.1677 -0.1516 -1.1125
  587SOL    HW2 1761   2.038   1.547   2.745  1.0736  0.2860 -1.1873
  588SOL     OW 1762   0.464   2.688   2.267  0.3689 -0.1522 -0.2223
  588SOL    HW1 1763   0.363   2.666   2.254  0.9612  0.0354 -0.9946
  588SOL    HW2 1764   0.517   2.600   2.282  0.8423 -0.7185 -1.3114
  589SOL     OW 1765   2.159   1.357   2.500  0.5474 -0.3025 -0.4399
  589SOL    HW1 1766   2.108   1.297   2.433 -1.7624  0.5157  0.3934
  589SOL    HW2 1767   2.264   1.347   2.502  0.3837 -3.1905  2.6628
  590SOL     OW 1768   2.350   1.672   2.061  0.0284 -0.1410  0.0417
  590SOL    HW1 1769   2.406   1.582   2.051 -0.7723 -1.2131 -1.0830
  590SOL    HW2 1770   2.372   1.725   2.150 -1.6643  3.7683 -2.8659
  591SOL     OW 1771   1.303   2.388   0.267  0.4352 -0.5121 -0.3700
  591SOL    HW1 1772   1.318   2.294   0.219 -1.0965 -1.7560  1.3277
  591SOL    HW2 1773   1.303   2.383   0.369  1.7877  0.8704 -2.1342
  592SOL     OW 1774   1.785   2.271   0.748 -0.5131 -0.0070  0.2292
  592SOL    HW1 1775   1.747   2.306   0.658  1.2942 -1.5291  0.1125
  592SOL    HW2 1776   1.886   2.289   0.758  0.9764  0.4806  1.3963
  593SOL     OW 1777   0.701   0.237   0.240  0.0317  0.3093 -0.0937
  593SOL    HW1 1778   0.777   0.188   0.187 -1.4833 -1.9795 -2.6875
  593SOL    HW2 1779   0.705   0.339   0.245  1.1738  1.9195 -0.2442
  594SOL     OW 1780   0.979   1.883   2.678  0.0146 -0.2995 -0.6478
  594SOL    HW1 1781   1.075   1.850   2.688  2.9538 -1.6913 -0.8451
  594SOL    HW2 1782   0.963   1.968   2.735 -0.4614 -1.9348  1.3472
  595SOL     OW 1783   1.545   0.023   1.084 -0.1505 -0.6499 -0.2529
  595SOL    HW1 1784   1.588  -0.051   1.028  0.5653 -0.3635  0.1911
  595SOL    HW2 1785   1.440   0.022   1.071 -1.9695 -1.1215  0.5889
  596SOL     OW 1786   3.096   1.438   2.244  1.0376  0.2586 -0.1402
  596SOL    HW1 1787   3.072   1.341   2.271 -0.6158  0.0379 -1.5800
  596SOL    HW2 1788   3.148   1.478   2.322  0.0303 -0.1975  0.0524
  597SOL     OW 1789   1.980   2.547   1.703 -1.1749  0.0238  0.5593
  597SOL    HW1 1790   2.000   2.542   1.600  4.2243 -0.5692  0.4230
  597SOL    HW2 1791   2.064   2.558   1.765 -1.5469 -0.5276 -1.7302
  598SOL     OW 1792   2.536   2.947   1.201  0.4489  0.0748 -0.3667
  598SOL    HW1 1793   2.602   2.985   1.274  2.8671 -0.3651 -2.3584
  598SOL    HW2 1794   2.581   2.952   1.107  0.8501  1.1174 -1.1090
  599SOL     OW 1795   2.912   0.321   2.495 -0.6942 -0.2798  0.0938
  599SOL    HW1 1796   3.010   0.335   2.464  0.9611 -0.6295  1.1467
  599SOL    HW2 1797   2.845   0.402   2.487  0.8626  2.0570 -0.2593
  600SOL     OW 1798   2.826   1.060   2.751  0.5671  0.3377 -0.4627
  600SOL    HW1 1799   2.791   0.973   2.795  0.4703  0.7443  1.2527
  600SOL    HW2 1800   2.820   1.139   2.821  3.4523  1.5768 -0.9809
  601SOL     OW 1801   2.976   1.330   1.972 -0.1437  0.1802  0.4061
  601SOL    HW1 1802   2.884   1.376   1.959  1.3719  2.4649 -1.7215
  601SOL    HW2 1803   3.056   1.388   1.934  1.3804  0.5402 -4.0268
  602SOL     OW 1804   1.468   1.723   2.331 -1.0057  0.1013 -0.3921
  602SOL    HW1 1805   1.385   1.661   2.321 -1.2879  1.2022 -0.6954
  602SOL    HW2 1806   1.550   1.681   2.372 -2.6814  0.7310 -1.0921
  603SOL     OW 1807   0.585   1.228   2.752 -0.1789  0.3857  0.5484
  603SOL    HW1 1808   0.507   1.212   2.683  0.2783 -0.5812  1.5437
  603SOL    HW2 1809   0.657   1.152   2.738  2.1158  0.6979  1.0513
  604SOL     OW 1810   2.375   0.998   0.164 -0.2476 -0.6019  0.2196
  604SOL    HW1 1811   2.369   1.083   0.102 -1.7149  1.3786 -3.9576
  604SOL    HW2 1812   2.397   0.910   0.111 -0.2080 -0.6751 -0.5842
  605SOL     OW 1813   2.546   1.151   1.958  0.1499  0.4004  0.1676
  605SOL    HW1 1814   2.567   1.054   1.925  0.0229 -0.9707  1.3018
  605SOL    HW2 1815   2.623   1.204   1.990 -2.7494 -0.6691 -0.6806
  606SOL     OW 1816   1.529   2.530   2.538  0.1788  0.2494  0.4643
  606SOL    HW1 1817   1.460   2.603   2.507  1.4478 -0.3328  1.1564
  606SOL    HW2 1818   1.493   2.432   2.555 -2.0153 -0.3167 -0.1374
  607SOL     OW 1819   1.310   1.578   0.340 -0.3125  0.3437  0.4451
  607SOL    HW1 1820   1.249   1.639   0.396  1.9854  1.3939  1.3240
  607SOL    HW2 1821   1.407   1.622   0.319  0.3491  1.1045 -0.6147
  608SOL     OW 1822   1.404   2.839   0.370 -0.1896 -0.3229  0.5865
  608SOL    HW1 1823   1.465   2.885   0.296 -0.5499 -1.5110 -0.8399
  608SOL    HW2 1824   1.335   2.905   0.413 -1.0052 -0.5324  2.6849
  609SOL     OW 1825   1.269   1.349   0.198  0.1029 -0.1232  0.9974
  609SOL    HW1 1826   1.286   1.445   0.246  1.4468 -3.1805 -2.4470
  609SOL    HW2 1827   1.218   1.354   0.109 -0.3972  0.7940  1.1476
  610SOL     OW 1828   2.976   1.169   2.242 -0.3614 -0.0594  0.3089
  610SOL    HW1 1829   2.989   1.067   2.228  1.7818  0.8508  0.4568
  610SOL    HW2 1830   2.930   1.215   2.158 -1.9831 -1.4425  0.4700
  611SOL     OW 1831   2.522   0.288   1.163 -0.3025 -0.2114  0.7440
  611SOL    HW1 1832   2.464   0.204   1.136  1.2037 -0.6460 -0.4974
  611SOL    HW2 1833   2.607   0.263   1.216  0.0013 -0.1404 -1.0967
  612SOL     OW 1834   0.763   2.273   1.167  0.1427 -0.0037  0.4970
  612SOL    HW1 1835   0.687   2.210   1.194 -1.6034 -2.6615 -4.3383
  612SOL    HW2 1836   0.724   2.369   1.174 -0.6692 -1.7879  0.9194
  613SOL     OW 1837   0.852   1.399   2.444  0.1978  0.2839  0.2831
  613SOL    HW1 1838   0.860   1.471   2.368 -2.1607 -0.2773  1.7733
  613SOL    HW2 1839   0.825   1.306   2.401  1.8470 -0.4356  0.2852
  614SOL     OW 1840   1.564   1.662   1.961  0.0920  0.4351 -0.5216
  614SOL    HW1 1841   1.500   1.742   1.939 -2.5424 -0.4226 -1.2354
  614SOL    HW2 1842   1.623   1.684   2.044  1.4357 -0.3653  1.5865
  615SOL     OW 1843   0.800   1.351   1.719  0.0186 -0.4092 -1.0480
  615SOL    HW1 1844   0.723   1.301   1.665  2.5854 -1.7765  1.9469
  615SOL    HW2 1845   0.832   1.445   1.687 -2.3270  0.3113  0.3768
  616SOL     OW 1846   1.008   1.599   2.155  0.0043 -0.0747 -0.0668
  616SOL    HW1 1847   0.907   1.568   2.168 -3.0581 -0.8090  1.3547
  616SOL    HW2 1848   1.022   1.668   2.080  1.6552 -0.2864 -2.7317
  617SOL     OW 1849   2.967   1.544   1.629  0.3981  0.3202 -0.6700
  617SOL    HW1 1850   2.890   1.512   1.695 -1.0231 -1.0378  1.2629
  617SOL    HW2 1851   2.964   1.504   1.537 -1.3941 -0.1975  2.4459
  618SOL     OW 1852   1.914   1.982   1.494 -0.4694  0.5898  0.5307
  618SOL    HW1 1853   1.971   1.988   1.407  1.8777  1.2872  0.1087
  618SOL    HW2 1854   1.861   1.889   1.495  1.3589 -1.2916 -1.2706
  619SOL     OW 1855   1.745   0.495   2.399  0.6403  0.0980 -0.4184
  619SOL    HW1 1856   1.661   0.546   2.368 -0.1404 -2.1048  1.8940
  619SOL    HW2 1857   1.727   0.394   2.413 -1.3411  1.7191  2.4394
  620SOL     OW 1858   2.230   2.980   0.658 -0.2352  0.1879 -0.1243
  620SOL    HW1 1859   2.169   3.051   0.713 -0.7942  0.8787  1.0683
  620SOL    HW2 1860   2.254   2.904   0.717  1.4164  1.9345  0.9811
  621SOL     OW 1861   2.159   1.873   1.324 -0.2806  0.0313  0.1622
  621SOL    HW1 1862   2.173   1.854   1.431  1.8326 -0.4566 -0.0003
  621SOL    HW2 1863   2.106   1.802   1.270 -2.5112  1.3596 -2.0675
  622SOL     OW 1864   2.236   0.921   1.806  0.2022 -0.3405 -0.1336
  622SOL    HW1 1865   2.312   0.929   1.734  0.0859 -0.0500 -1.0574
  622SOL    HW2 1866   2.236   0.836   1.869  0.3216  1.0321  0.8131
  623SOL     OW 1867   1.341   0.818   2.654  0.3660 -0.5245  0.2972
  623SOL    HW1 1868   1.280   0.763   2.716  0.5103  1.0833 -0.1174
  623SOL    HW2 1869   1.280   0.869   2.589  0.4509 -0.8001  0.2331
  624SOL     OW 1870   0.591   0.631   3.091  0.1643 -0.1191  0.4232
  624SOL    HW1 1871   0.621   0.680   3.008 -0.6171  0.3351  2.4903
  624SOL    HW2 1872   0.556   0.695   3.169  0.5464  1.0931  3.0869
  625SOL     OW 1873   2.876   1.742   0.970  0.3736  0.9494  0.2976
  625SOL    HW1 1874   2.787   1.766   1.015  0.2432 -1.1191 -1.1131
  625SOL    HW2 1875   2.956   1.781   1.024  0.9528  1.1664  1.9185
  626SOL     OW 1876   0.607   2.712   1.835  0.4045 -0.0604  0.5950
  626SOL    HW1 1877   0.639   2.800   1.879 -2.2931  2.1192 -0.4725
  626SOL    HW2 1878   0.506   2.709   1.812 -0.0636 -1.4100 -2.1646
  627SOL     OW 1879   0.720   1.008   1.530 -0.3910 -0.5629 -0.3174
  627SOL    HW1 1880   0.695   0.952   1.447  4.3385  0.5615 -1.4283
  627SOL    HW2 1881   0.806   1.065   1.517  0.8117 -0.0759 -1.4513
  628SOL     OW 1882   2.387   0.182   0.730  0.0344  0.2096 -0.1373
  628SOL    HW1 1883   2.441   0.114   0.674  1.1995  2.6774  0.4151
  628SOL    HW2 1884   2.286   0.157   0.764 -0.6366 -1.4897  0.7496
  629SOL     OW 1885   1.978   0.894   1.972 -0.3909  0.1939  0.2076
  629SOL    HW1 1886   2.005   0.915   1.876 -0.1269  1.4494 -0.1372
  629SOL    HW2 1887   1.946   0.973   2.033 -0.3042  0.2356  1.8112
  630SOL     OW 1888   2.854   2.203   0.854 -0.1125  0.3629  0.1286
  630SOL    HW1 1889   2.776   2.271   0.868 -0.7344  0.3296  2.6855
  630SOL    HW2 1890   2.813   2.108   0.826 -1.0538 -1.8557 -0.7083
  631SOL     OW 1891   2.948   0.158   2.120  0.1502 -0.3136 -0.2777
  631SOL    HW1 1892   3.029   0.201   2.163 -2.4155 -3.3415 -2.4506
  631SOL    HW2 1893   2.964   0.133   2.021 -1.1929 -1.1447 -1.5264
  632SOL     OW 1894   2.439   2.516   0.643  0.3672  0.4197  0.3826
  632SOL    HW1 1895   2.484   2.606   0.673 -1.2689  0.1369 -0.6579
  632SOL    HW2 1896   2.400   2.516   0.548  0.8459 -1.9685  3.3890
  633SOL     OW 1897   1.420   1.245   2.520  0.4716  0.4037 -0.2813
  633SOL    HW1 1898   1.448   1.324   2.582 -0.1390 -0.0876 -1.4766
  633SOL    HW2 1899   1.345   1.262   2.448  2.3531 -0.2727 -0.0564
  634SOL     OW 1900   0.683   1.944   0.934  0.2078 -0.1719  0.1765
  634SOL    HW1 1901   0.591   1.991   0.953  0.9975  1.5083  0.5583
  634SOL    HW2 1902   0.757   2.015   0.931  0.0231 -0.2657  0.4861
  635SOL     OW 1903   3.068   2.318   3.076  0.5296  0.2011 -0.3556
  635SOL    HW1 1904   3.008   2.367   3.005  0.7752  0.3448  0.5795
  635SOL    HW2 1905   3.113   2.384   3.142 -2.0822 -1.4236 -1.0252
  636SOL     OW 1906   2.264   2.722   2.094  0.1139 -0.1863  0.6182
  636SOL    HW1 1907   2.259   2.825   2.126  2.4349 -0.2597  0.6265
  636SOL    HW2 1908   2.203   2.665   2.150  1.5178 -0.8610 -0.6019
  637SOL     OW 1909   2.637   0.717   2.038 -0.5456  0.1352 -0.4676
  637SOL    HW1 1910   2.591   0.719   1.944  1.6716  0.1588  1.2939
  637SOL    HW2 1911   2.668   0.810   2.064  0.2236 -1.1361 -0.8439
  638SOL     OW 1912   2.404   1.775   1.234 -0.5912  0.5988 -0.1863
  638SOL    HW1 1913   2.312   1.823   1.256  0.7961  0.4515  0.7579
  638SOL    HW2 1914   2.456   1.745   1.317  0.3344  1.7929  0.4439
  639SOL     OW 1915   1.288   2.182   1.723  0.1892  0.1474 -0.0498
  639SOL    HW1 1916   1.354   2.111   1.681  0.4095  1.2477 -0.4204
  639SOL    HW2 1917   1.189   2.147   1.713 -0.7356  0.7839 -0.3976
  640SOL     OW 1918   0.198   1.150   1.581  0.0181  0.3705 -0.2276
  640SOL    HW1 1919   0.191   1.197   1.678  0.6002  1.0804  0.8172
  640SOL    HW2 1920   0.291   1.101   1.574 -0.4027 -2.1256  0.2118
  641SOL     OW 1921   2.030   0.163   1.527 -0.4654 -0.2175 -0.4932
  641SOL    HW1 1922   2.016   0.179   1.627  0.4318 -1.6780 -0.7519
  641SOL    HW2 1923   2.108   0.102   1.498  2.8231  1.7345 -1.3763
  642SOL     OW 1924   1.961   0.115   0.295 -0.5077  0.7024 -0.1365
  642SOL    HW1 1925   2.043   0.108   0.359  0.4116 -2.0612  3.1791
  642SOL    HW2 1926   1.875   0.078   0.336 -1.2562 -0.3880 -0.3521
  643SOL     OW 1927   2.914   1.870   2.057 -0.1996  0.1381 -0.2897
  643SOL    HW1 1928   2.861   1.798   2.004  0.8838 -2.0104 -0.1470
  643SOL    HW2 1929   2.903   1.961   2.009 -4.2014  1.2277 -0.1363
  644SOL     OW 1930   2.280   2.392   1.212 -0.2202 -0.3095  0.4777
  644SOL    HW1 1931   2.332   2.331   1.151 -0.9209  1.6364 -0.2571
  644SOL    HW2 1932   2.232   2.354   1.293 -0.7300  1.6432 -2.4246
  645SOL     OW 1933   0.638   0.849   1.249  0.0585 -0.0103  0.7438
  645SOL    HW1 1934   0.550   0.802   1.257 -0.4098  2.4763  0.9231
  645SOL    HW2 1935   0.670   0.856   1.150 -0.3912  3.6611  1.4492
  646SOL     OW 1936   1.406   1.920   1.950 -0.2110  0.4810 -0.6878
  646SOL    HW1 1937   1.453   2.001   1.902 -1.2156  0.0117 -0.0046
  646SOL    HW2 1938   1.356   1.949   2.038 -1.0472  0.7461 -0.6328
  647SOL     OW 1939   0.802   1.075   0.678  0.4255 -0.1622 -0.2630
  647SOL    HW1 1940   0.866   1.093   0.757 -3.4557 -2.5904  0.6611
  647SOL    HW2 1941   0.775   0.973   0.675 -0.8824  2.5781  1.9854
  648SOL     OW 1942   0.105   0.183   0.223  0.4615  0.1139 -0.0872
  648SOL    HW1 1943   0.116   0.119   0.139 -2.3403 -2.6811 -0.1016
  648SOL    HW2 1944   0.114   0.281   0.202 -1.5934 -3.1937 -0.9403
  649SOL     OW 1945   3.031   0.231   0.889  0.5491 -0.5412 -0.0487
  649SOL    HW1 1946   3.113   0.175   0.921  1.0590  2.3780  0.2666
  649SOL    HW2 1947   3.035   0.333   0.906  0.6980 -0.7436 -2.6324
  650SOL     OW 1948   2.744   0.676   1.425 -0.4111 -0.3014 -0.1404
  650SOL    HW1 1949   2.644   0.657   1.432  0.1464  2.2048 -0.3364
  650SOL    HW2 1950   2.772   0.757   1.363 -1.1733 -1.1087 -1.4124
  651SOL     OW 1951   0.921   1.561   1.595  0.1365  0.2130 -0.3246
  651SOL    HW1 1952   0.976   1.644   1.627 -0.3393 -2.5798  0.3740
  651SOL    HW2 1953   0.969   1.512   1.521  4.4981  2.0665  1.1464
  652SOL     OW 1954   2.317   2.452   2.496 -0.1526  0.1377  0.3248
  652SOL    HW1 1955   2.248   2.448   2.574  0.1357  2.8762  2.2842
  652SOL    HW2 1956   2.285   2.512   2.419 -1.0992  0.5098 -1.8713
  653SOL     OW 1957   2.699   1.221   0.178 -0.2681 -0.8944 -0.5001
  653SOL    HW1 1958   2.738   1.291   0.243 -2.2118 -5.1973  2.4099
  653SOL    HW2 1959   2.769   1.145   0.158  0.0803  0.9322  1.2641
  654SOL     OW 1960   1.286   2.243   1.265  0.4258  0.3523 -0.3872
  654SOL    HW1 1961   1.288   2.170   1.340 -1.2602  0.2721  1.1451
  654SOL    HW2 1962   1.323   2.206   1.179 -0.1598 -2.1464  1.2171
  655SOL     OW 1963   0.161   0.944   1.904  0.4554  0.1612 -1.3321
  655SOL    HW1 1964   0.205   0.876   1.841 -0.1130  0.7716 -2.4612
  655SOL    HW2 1965   0.225   1.023   1.924 -1.4575  1.5664  2.3040
  656SOL     OW 1966   2.545   2.495   2.630 -0.1615 -0.0082 -0.6686
  656SOL    HW1 1967   2.627   2.477   2.565  0.1808 -2.1132 -1.0085
  656SOL    HW2 1968   2.456   2.522   2.586 -4.3004  0.9936 -1.2078
  657SOL     OW 1969   3.007   1.048   1.940  0.0326  0.0800  0.1198
  657SOL    HW1 1970   3.004   1.153   1.949  2.3042  0.0383 -2.1670
  657SOL    HW2 1971   3.104   1.017   1.928  1.5695 -0.1612 -0.3172
  658SOL     OW 1972   1.706   0.224   2.402  0.6399 -0.1233  0.0713
  658SOL    HW1 1973   1.705   0.161   2.483 -0.4776  0.5924  0.8393
  658SOL    HW2 1974   1.743   0.176   2.320  1.2922  0.0009  2.1866
  659SOL     OW 1975   1.454   0.633   2.937  0.6118  0.2737  0.4367
  659SOL    HW1 1976   1.511   0.717   2.919 -0.0158 -0.0442  1.1649
  659SOL    HW2 1977   1.357   0.643   2.908 -1.1101 -1.4880  2.6221
  660SOL     OW 1978   1.404   0.360   1.446 -0.5428  0.4511  0.1024
  660SOL    HW1 1979   1.447   0.366   1.539 -0.3360 -0.6141  4.5478
  660SOL    HW2 1980   1.434   0.274   1.396  2.3016  1.9627  0.3077
  661SOL     OW 1981   2.481   1.195   0.668  0.0327 -0.0185 -0.5015
  661SOL    HW1 1982   2.495   1.197   0.567  3.7193  2.5267  0.4199
  661SOL    HW2 1983   2.439   1.286   0.702  0.5813 -2.4315  0.3311
  662SOL     OW 1984   1.386   0.462   1.806 -0.0637  0.0851  0.5285
  662SOL    HW1 1985   1.340   0.371   1.788  0.6242 -1.2287 -0.0648
  662SOL    HW2 1986   1.347   0.504   1.891 -2.6015  0.5313 -0.3384
  663SOL     OW 1987   0.759   1.536   2.224  0.3838  0.2722 -0.7361
  663SOL    HW1 1988   0.719   1.634   2.233 -0.1968  0.1746 -0.8688
  663SOL    HW2 1989   0.707   1.485   2.143  0.7444  1.0665  3.2952
  664SOL     OW 1990   1.628   2.088   1.454  0.2097 -0.0063  0.7230
  664SOL    HW1 1991   1.567   2.063   1.533  1.5405  2.6051  0.0103
  664SOL    HW2 1992   1.725   2.070   1.474 -0.7855  0.5064 -0.4877
  665SOL     OW 1993   2.272   0.657   1.937  0.3654  0.1000  0.2954
  665SOL    HW1 1994   2.263   0.553   1.954 -0.5191 -2.1288  0.7959
  665SOL    HW2 1995   2.262   0.708   2.026 -3.5290  1.2133  0.0689
  666SOL     OW 1996   0.365   2.357   0.362 -0.3278 -0.1160  0.6171
  666SOL    HW1 1997   0.425   2.401   0.437  2.4210  2.1082  0.4546
  666SOL    HW2 1998   0.277   2.321   0.397  1.8624 -2.7505  1.4800
  667SOL     OW 1999   1.989   0.150   1.168 -0.0121 -0.8512 -0.1529
  667SOL    HW1 2000   1.991   0.252   1.142  1.5322 -0.0983  0.4502
  667SOL    HW2 2001   1.921   0.143   1.243 -0.3267 -0.3317 -1.9564
  668SOL     OW 2002   2.017   0.504   1.168 -0.2235  0.3144  0.2911
  668SOL    HW1 2003   2.085   0.521   1.086  0.1562 -1.4935  0.3861
  668SOL    HW2 2004   2.065   0.495   1.262  2.9562  1.3356  2.3091
  669SOL     OW 2005   3.091   2.191   1.013 -1.1041  0.1531  0.1387
  669SOL    HW1 2006   3.023   2.192   0.932  2.7971  1.8980  2.2741
  669SOL    HW2 2007   3.044   2.201   1.104  1.3168  2.0065 -1.6976
  670SOL     OW 2008   2.843   2.325   1.945  0.3316 -0.1068 -0.2624
  670SOL    HW1 2009   2.794   2.302   2.033 -1.0089  0.0542 -1.4314
  670SOL    HW2 2010   2.847   2.432   1.934 -1.1148 -1.3616 -0.9071
  671SOL     OW 2011   1.760   1.739   1.487  0.3507  0.5046 -0.0087
  671SOL    HW1 2012   1.810   1.717   1.401 -2.2434 -2.4014 -0.9063
  671SOL    HW2 2013   1.672   1.687   1.488  3.0228  2.7206  1.3190
  672SOL     OW 2014   0.391   0.620   2.388 -0.1367  0.0990 -0.5505
  672SOL    HW1 2015   0.451   0.674   2.326 -0.8802 -1.8424  1.0444
  672SOL    HW2 2016   0.309   0.677   2.423  0.4958  0.4813  0.8475
  673SOL     OW 2017   0.110   1.164   1.143 -0.0870 -0.0534  0.4284
  673SOL    HW1 2018   0.122   1.234   1.223  1.5268  3.1229  0.9560
  673SOL    HW2 2019   0.202   1.128   1.112 -0.3469  3.5072  0.5674
  674SOL     OW 2020   1.622   2.940   0.233 -0.3912 -0.4219 -0.2360
  674SOL    HW1 2021   1.657   3.019   0.179  0.4246 -0.5979  4.1748
  674SOL    HW2 2022   1.646   2.853   0.181  0.9240 -1.0544 -0.4979
  675SOL     OW 2023   1.705   0.823   2.321 -0.3330 -0.4222 -0.4540
  675SOL    HW1 2024   1.801   0.805   2.286  1.4428  1.6424  0.7745
  675SOL    HW2 2025   1.640   0.748   2.309  0.1191  3.5708 -1.0150
  676SOL     OW 2026   2.484   1.445   2.004 -0.1010  0.0021  0.0154
  676SOL    HW1 2027   2.464   1.412   1.910  0.7338 -2.8516  2.0914
  676SOL    HW2 2028   2.562   1.384   2.046 -0.3238 -2.1503  1.2889
  677SOL     OW 2029   1.942   0.708   0.860  0.2085  0.4232  0.6775
  677SOL    HW1 2030   1.947   0.739   0.962  0.0171 -1.0636 -0.7090
  677SOL    HW2 2031   1.994   0.618   0.843  2.8823  2.2173 -0.1468
  678SOL     OW 2032   0.007   0.767   1.680  0.1488  0.3993  0.4897
  678SOL    HW1 2033   0.105   0.749   1.698  0.5585 -0.8652 -0.8146
  678SOL    HW2 2034  -0.047   0.766   1.773 -0.5984  0.3339  1.3160
  679SOL     OW 2035   2.605   1.187   1.089  0.3703  0.4043  0.3363
  679SOL    HW1 2036   2.506   1.204   1.115 -0.7855 -2.1578  1.3108
  679SOL    HW2 2037   2.615   1.085   1.077 -0.3042  1.5723 -0.0220
  680SOL     OW 2038   2.791   0.629   1.720 -0.2367 -0.1414 -0.0967
  680SOL    HW1 2039   2.776   0.651   1.620  0.0330  2.6110  1.1076
  680SOL    HW2 2040   2.847   0.699   1.772  1.1925  0.3478  0.6094
  681SOL     OW 2041   3.022   0.195   1.658  0.1362 -0.0060  0.2541
  681SOL    HW1 2042   3.106   0.186   1.590  1.2839 -0.6058 -1.0840
  681SOL    HW2 2043   2.957   0.271   1.648  2.3142  1.7117 -2.4541
  682SOL     OW 2044   0.738   0.022   1.303 -0.8775  0.6177 -0.5777
  682SOL    HW1 2045   0.691  -0.057   1.342  1.4126 -0.3736  0.3103
  682SOL    HW2 2046   0.751   0.013   1.205 -1.5781  1.9166 -0.4974
  683SOL     OW 2047   1.342   0.182   2.204 -0.0035 -0.3428 -0.0590
  683SOL    HW1 2048   1.350   0.237   2.291 -1.2919  2.3008 -0.4319
  683SOL    HW2 2049   1.429   0.199   2.147  0.0254  0.3673  2.4145
  684SOL     OW 2050   1.453   2.118   0.540  0.5701 -0.0191  0.4890
  684SOL    HW1 2051   1.517   2.042   0.565  0.2071  0.6269 -0.7999
  684SOL    HW2 2052   1.371   2.084   0.489 -0.7860  0.4906  1.4789
  685SOL     OW 2053   2.144   1.984   1.981  0.3512 -0.1158 -0.0854
  685SOL    HW1 2054   2.210   1.983   1.900 -0.3703  1.9292  2.8120
  685SOL    HW2 2055   2.186   1.946   2.063  2.4299  1.2301 -1.8076
  686SOL     OW 2056   1.508   1.798   2.747 -0.4706  0.1620  0.3819
  686SOL    HW1 2057   1.545   1.777   2.843  1.0173 -2.2121 -0.9694
  686SOL    HW2 2058   1.552   1.726   2.687  1.5657  1.9887 -1.0590
  687SOL     OW 2059   1.256   2.490   1.992  0.0211  0.0769  0.0656
  687SOL    HW1 2060   1.301   2.393   1.999  3.1926 -1.3102 -1.1283
  687SOL    HW2 2061   1.316   2.571   2.000 -0.2008 -1.2215 -1.7144
  688SOL     OW 2062   2.074   1.583   1.748  0.3835  0.5716 -0.0901
  688SOL    HW1 2063   2.165   1.635   1.743  2.0490  2.2344  2.2974
  688SOL    HW2 2064   2.067   1.514   1.672 -0.5968  0.2157  1.4879
  689SOL     OW 2065   2.453   1.064   2.663  0.5689  0.2000 -0.4390
  689SOL    HW1 2066   2.356   1.027   2.672  0.8259 -3.1113  1.3644
  689SOL    HW2 2067   2.490   1.064   2.758 -1.9166 -1.5106 -2.6232
  690SOL     OW 2068   2.251   2.806   0.030 -0.4093  0.0394  0.4606
  690SOL    HW1 2069   2.205   2.739  -0.034  2.0559  0.5506 -0.2020
  690SOL    HW2 2070   2.181   2.850   0.090  0.5527  2.3780  1.9587
  691SOL     OW 2071   2.588   0.487   2.217  0.1106 -0.1599 -0.8262
  691SOL    HW1 2072   2.637   0.406   2.181  0.2620  2.7382  1.8747
  691SOL    HW2 2073   2.608   0.573   2.167 -0.5899 -0.0772 -0.8283
  692SOL     OW 2074   2.766   1.227   0.710  0.0004 -0.0515 -0.1501
  692SOL    HW1 2075   2.665   1.203   0.695 -1.1517 -0.2902  1.2489
  692SOL    HW2 2076   2.781   1.311   0.765  1.7492 -0.4493 -1.0016
  693SOL     OW 2077   2.795   2.945   0.656 -0.3534  0.2686  0.1497
  693SOL    HW1 2078   2.790   3.028   0.721  0.0236  0.8127  2.0975
  693SOL    HW2 2079   2.757   2.957   0.559 -2.9766  1.4099  1.2810
  694SOL     OW 2080   2.369   2.197   0.076  0.3567  0.2640 -0.0438
  694SOL    HW1 2081   2.348   2.282   0.126  2.2590  0.7359  0.5793
  694SOL    HW2 2082   2.284   2.144   0.050 -0.8528 -0.7679  0.7855
  695SOL     OW 2083   0.590   2.940   1.475 -0.0241 -0.2282  0.5543
  695SOL    HW1 2084   0.527   2.876   1.430 -1.0698  3.1388 -0.6619
  695SOL    HW2 2085   0.547   2.992   1.552  2.0410 -0.3710  0.9095
  696SOL     OW 2086   2.830   1.946   0.783  0.4176 -0.4948  0.1926
  696SOL    HW1 2087   2.824   1.864   0.847  1.2176 -0.8216 -3.3753
  696SOL    HW2 2088   2.871   1.916   0.692  1.3567  0.9749 -0.7797
  697SOL     OW 2089   1.619   2.067   1.813  0.3451  0.4982  0.0674
  697SOL    HW1 2090   1.689   2.010   1.875  0.4388  1.4714  0.0691
  697SOL    HW2 2091   1.652   2.159   1.788 -0.0300 -0.4296 -1.5056
  698SOL     OW 2092   2.936   0.435   2.759  0.2596 -0.1699  0.4966
  698SOL    HW1 2093   2.937   0.395   2.661 -0.7688 -1.8671 -0.0294
  698SOL    HW2 2094   2.997   0.376   2.817 -0.0119 -0.3623 -3.2488
  699SOL     OW 2095   1.567   0.093   2.921 -0.0457  0.3138 -0.1875
  699SOL    HW1 2096   1.527   0.014   2.872 -1.1194 -1.6144  0.7306
  699SOL    HW2 2097   1.608   0.172   2.866 -0.7058  1.1867  0.5613
  700SOL     OW 2098   1.011   2.295   1.316  0.4885 -0.0929 -0.0555
  700SOL    HW1 2099   1.107   2.272   1.292 -1.0682 -0.3000 -0.3935
  700SOL    HW2 2100   0.938   2.261   1.248  1.5351  1.1147 -1.5414
  701SOL     OW 2101   1.946   2.841   3.078  0.1136  0.4025  0.3564
  701SOL    HW1 2102   1.912   2.792   3.166 -0.6690  0.8081  0.2752
  701SOL    HW2 2103   1.954   2.945   3.081 -3.2359 -0.3916  0.5992
  702SOL     OW 2104   2.050   1.347   1.928 -0.7592 -0.0121 -0.3935
  702SOL    HW1 2105   2.141   1.296   1.914  0.9788 -1.1937 -3.2098
  702SOL    HW2 2106   2.020   1.395   1.841  0.8886 -1.1936  0.7390
  703SOL     OW 2107   1.956   0.890   1.425 -0.2885 -0.3088 -0.0921
  703SOL    HW1 2108   1.937   0.796   1.469  2.5554  1.5013  0.6964
  703SOL    HW2 2109   2.010   0.952   1.493  1.9811  2.1940 -1.4676
  704SOL     OW 2110   0.340   2.046   1.670  0.3129 -0.4019  0.3616
  704SOL    HW1 2111   0.346   1.985   1.759  3.5898  0.9616  4.0433
  704SOL    HW2 2112   0.402   2.127   1.681 -1.8904 -0.1970  2.2612
  705SOL     OW 2113   2.478   1.425   0.969  0.1331 -0.8584  0.1750
  705SOL    HW1 2114   2.463   1.438   0.869  1.0013 -0.6712  1.3630
  705SOL    HW2 2115   2.565   1.367   0.990  0.6049 -0.9757 -1.4379
  706SOL     OW 2116   0.672   1.672   1.827 -0.0793  0.2670  0.1277
  706SOL    HW1 2117   0.679   1.579   1.869  1.2729  0.5115 -1.0403
  706SOL    HW2 2118   0.695   1.746   1.896  1.1013  2.4814 -1.3892
  707SOL     OW 2119   2.282   1.193   1.877 -0.1662 -0.5934 -0.4180
  707SOL    HW1 2120   2.379   1.205   1.921 -0.4231  1.4691  0.0620
  707SOL    HW2 2121   2.254   1.095   1.872  1.6310  1.0773  2.1092
  708SOL     OW 2122   3.004   0.534   3.054 -0.7830  0.5806  0.0800
  708SOL    HW1 2123   3.009   0.592   2.970 -2.3306  0.3458 -2.6133
  708SOL    HW2 2124   3.043   0.443   3.049 -0.9737  2.4064 -3.9203
  709SOL     OW 2125   1.801   1.846   0.198 -0.6981 -0.0952 -0.1494
  709SOL    HW1 2126   1.833   1.941   0.235  1.1584  1.1840 -0.3908
  709SOL    HW2 2127   1.850   1.830   0.107 -0.1491 -0.6752  1.6717
  710SOL     OW 2128   1.712   1.625   2.419 -0.1299  0.1357 -0.4493
  710SOL    HW1 2129   1.742   1.579   2.327  2.2004 -1.9800  1.1573
  710SOL    HW2 2130   1.724   1.558   2.499  0.6324 -0.5426 -3.5350
  711SOL     OW 2131   2.684   2.986   0.968 -0.0757 -0.4312  0.4983
  711SOL    HW1 2132   2.660   3.084   0.941 -0.1554  1.8811  1.1853
  711SOL    HW2 2133   2.784   2.960   0.966  0.2535 -0.7307  0.5532
  712SOL     OW 2134   1.349   2.213   1.978  0.0907  0.4999 -0.1937
  712SOL    HW1 2135   1.451   2.238   1.994 -0.2763  1.0990 -0.3744
  712SOL    HW2 2136   1.322   2.217   1.875 -0.8569  2.8143 -0.9485
  713SOL     OW 2137   2.948   1.439   2.572  0.1879 -0.2245  0.2677
  713SOL    HW1 2138   2.869   1.379   2.540 -2.2945 -0.6031  1.5372
  713SOL    HW2 2139   2.926   1.490   2.659 -2.2660  2.0956  0.4020
  714SOL     OW 2140   2.685   0.520   2.462  0.0743  0.3424 -0.9332
  714SOL    HW1 2141   2.637   0.475   2.545  0.5296  0.4092 -0.9920
  714SOL    HW2 2142   2.644   0.489   2.371 -0.5816  3.5478  0.3509
  715SOL     OW 2143   1.603   2.038   1.194 -0.3632  0.2261  0.1329
  715SOL    HW1 2144   1.529   2.098   1.151  2.1228  1.3004  0.7359
  715SOL    HW2 2145   1.614   2.055   1.298 -0.6228 -1.2624  1.6157
  716SOL     OW 2146   1.214   0.123   1.457 -0.6276  0.8109 -0.0351
  716SOL    HW1 2147   1.126   0.107   1.509 -0.4309 -1.4140 -0.4067
  716SOL    HW2 2148   1.229   0.227   1.445  0.2831  0.9452 -0.2579
  717SOL     OW 2149   1.124   0.547   1.591 -0.1735  0.5086 -0.0445
  717SOL    HW1 2150   1.206   0.604   1.622 -1.6842  1.2218  2.7946
  717SOL    HW2 2151   1.135   0.516   1.489 -2.0437 -2.6036  0.6829
  718SOL     OW 2152   0.710   0.923   0.987  0.5448 -0.2723 -0.6894
  718SOL    HW1 2153   0.702   0.865   0.899  1.5281 -1.8759 -2.5338
  718SOL    HW2 2154   0.685   1.027   0.984  0.1799  0.8209 -1.9701
  719SOL     OW 2155   0.669   1.781   2.307  0.5048  0.3584 -0.0897
  719SOL    HW1 2156   0.744   1.834   2.356  2.7805  0.4904 -0.9762
  719SOL    HW2 2157   0.596   1.765   2.377  1.0518 -0.1886 -2.1761
  720SOL     OW 2158   2.192   1.166   0.282  0.0307 -0.1052 -1.0141
  720SOL    HW1 2159   2.250   1.092   0.234  1.4605  2.5998 -1.3994
  720SOL    HW2 2160   2.184   1.148   0.389  0.6296 -1.0985  0.5770
  721SOL     OW 2161   2.263   2.994   2.137  0.1864  0.2101  0.0727
  721SOL    HW1 2162   2.268   3.009   2.035  2.4777  1.5972 -0.3722
  721SOL    HW2 2163   2.190   3.037   2.190  0.6082 -0.1327 -0.8124
  722SOL     OW 2164   2.388   1.604   0.490 -0.2089  0.4328  0.1764
  722SOL    HW1 2165   2.432   1.555   0.410 -0.9994  1.9753 -1.9506
  722SOL    HW2 2166   2.390   1.702   0.481 -0.8424 -0.8044  3.3755
  723SOL     OW 2167   2.516   2.727   1.985 -0.0012  0.0962  0.0337
  723SOL    HW1 2168   2.586   2.767   2.054 -2.2574  2.1430  1.3174
  723SOL    HW2 2169   2.422   2.719   2.025  0.7146 -0.2033 -1.7575
  724SOL     OW 2170   0.538   2.472   2.427  0.1103 -0.3380  0.1374
  724SOL    HW1 2171   0.446   2.443   2.461  3.1462  0.9995 -1.1975
  724SOL    HW2 2172   0.603   2.498   2.501  1.1060 -3.0828 -3.2902
  725SOL     OW 2173   2.438   2.801   1.492 -0.5299  0.3662  0.2457
  725SOL    HW1 2174   2.484   2.782   1.400 -1.9917  1.3696  0.1769
  725SOL    HW2 2175   2.402   2.716   1.537 -2.4029 -2.2151 -1.4184
  726SOL     OW 2176   2.468   2.240   0.705 -0.7136 -0.4604 -0.1843
  726SOL    HW1 2177   2.438   2.342   0.684 -2.1320  3.9478  2.0523
  726SOL    HW2 2178   2.442   2.179   0.627 -0.0987  1.6686  1.0304
  727SOL     OW 2179   0.141   3.083   0.031 -0.2844  0.1635  0.3703
  727SOL    HW1 2180   0.189   2.997   0.065  0.5819  0.2228 -1.2024
  727SOL    HW2 2181   0.146   3.084  -0.073 -0.2386 -0.9041 -2.1770
  728SOL     OW 2182   2.883   0.682   0.975 -0.9122  0.1817 -0.0025
  728SOL    HW1 2183   2.797   0.652   0.927  2.2288 -0.1577  0.8019
  728SOL    HW2 2184   2.904   0.645   1.068  0.0478 -0.4490 -0.6619
  729SOL     OW 2185   3.028   2.473   0.755 -0.2288  0.2444  0.4193
  729SOL    HW1 2186   2.984   2.445   0.838  3.4714 -1.5181 -1.7642
  729SOL    HW2 2187   3.113   2.426   0.728  0.0174 -2.2779 -1.7919
  730SOL     OW 2188   2.633   0.666   0.827  0.0140  0.1759  0.4053
  730SOL    HW1 2189   2.570   0.741   0.796  1.9395 -2.0880 -2.1677
  730SOL    HW2 2190   2.712   0.657   0.754 -2.7339  1.0769 -1.8907
  731SOL     OW 2191   0.130   2.149   2.449  0.1878  1.3312 -0.2736
  731SOL    HW1 2192   0.091   2.185   2.539  1.7982 -1.8505  0.1717
  731SOL    HW2 2193   0.143   2.218   2.373 -2.0793  0.8711 -2.2822
  732SOL     OW 2194   1.142   2.840   1.947  0.5253  0.1913 -0.0987
  732SOL    HW1 2195   1.164   2.802   2.040 -2.3400  1.2080  0.4727
  732SOL    HW2 2196   1.127   2.769   1.879 -1.1137  1.1507  1.1767
  733SOL     OW 2197   3.036   0.575   2.244 -0.2728 -0.2978  0.0632
  733SOL    HW1 2198   3.121   0.625   2.207 -0.1414  0.0388  1.2741
  733SOL    HW2 2199   2.966   0.558   2.177  3.1407 -1.5685  0.6585
  734SOL     OW 2200   1.412   0.355   2.767  0.5344 -0.1849 -0.1275
  734SOL    HW1 2201   1.407   0.451   2.794 -0.0081 -1.5406 -1.0694
  734SOL    HW2 2202   1.320   0.304   2.771  0.4399 -0.6834  1.0176
  735SOL     OW 2203   2.886   2.630   2.254 -0.1500  0.0685 -0.5839
  735SOL    HW1 2204   2.889   2.620   2.154 -0.4876  0.1929  1.5683
  735SOL    HW2 2205   2.951   2.708   2.278 -0.1078  0.5765 -0.3062
  736SOL     OW 2206   0.762   0.290   2.672 -0.4779 -0.2073  0.4128
  736SOL    HW1 2207   0.653   0.286   2.692 -1.2369 -0.9523 -0.7761
  736SOL    HW2 2208   0.780   0.272   2.571  0.6328  0.2118  1.2515
  737SOL     OW 2209   2.685   0.441   2.873  0.1497 -1.1899 -0.0599
  737SOL    HW1 2210   2.659   0.418   2.972 -2.9696 -0.0026  0.0359
  737SOL    HW2 2211   2.781   0.477   2.854 -0.2081 -0.5770  0.2583
  738SOL     OW 2212   1.636   1.279   2.905  0.2436 -0.3183  0.0700
  738SOL    HW1 2213   1.739   1.258   2.901  0.6555  1.1384  1.1842
  738SOL    HW2 2214   1.576   1.190   2.902  0.0445 -1.6254 -1.4580
  739SOL     OW 2215   1.742   0.610   0.693  0.1375 -0.1857 -0.0438
  739SOL    HW1 2216   1.807   0.647   0.760  2.2508 -1.0804 -1.7321
  739SOL    HW2 2217   1.784   0.533   0.639 -1.7549 -1.3891 -0.1036
  740SOL     OW 2218   1.997   1.918   2.217  0.6705  0.2910  0.2831
  740SOL    HW1 2219   2.035   1.861   2.294  0.4312  1.4194 -0.5206
  740SOL    HW2 2220   1.893   1.919   2.223 -2.8367  0.0754  0.8700
  741SOL     OW 2221   2.534   0.043   2.609  0.4667  0.3303  0.2765
  741SOL    HW1 2222   2.638   0.059   2.595  0.9774  2.1841 -1.3738
  741SOL    HW2 2223   2.495   0.029   2.511 -0.9285 -0.9748  1.8411
  742SOL     OW 2224   2.232   1.431   0.253 -0.2747  0.1595  0.3041
  742SOL    HW1 2225   2.141   1.476   0.250  3.0892  2.5779 -1.5406
  742SOL    HW2 2226   2.232   1.329   0.281  0.7138  0.0177 -0.2204
  743SOL     OW 2227   1.851   0.678   2.625 -0.1044 -0.0974  0.6079
  743SOL    HW1 2228   1.809   0.602   2.565 -3.7840 -1.0954 -1.1274
  743SOL    HW2 2229   1.780   0.750   2.639  0.4568 -2.0681  0.5135
  744SOL     OW 2230   2.610   2.085   0.124 -0.0126 -0.2089 -0.6914
  744SOL    HW1 2231   2.512   2.126   0.109  3.9167 -2.0252  1.3252
  744SOL    HW2 2232   2.611   1.985   0.095  1.0494 -0.5482 -0.3381
  745SOL     OW 2233   2.182   2.618   2.343  0.0912  0.4504 -0.4130
  745SOL    HW1 2234   2.089   2.601   2.382  1.3813 -0.5789  4.1113
  745SOL    HW2 2235   2.237   2.695   2.389 -0.1426  3.8784 -2.2036
  746SOL     OW 2236   3.090   2.636   1.716 -0.9550  0.5391  0.2896
  746SOL    HW1 2237   3.171   2.623   1.647  2.0729  0.2664  1.0727
  746SOL    HW2 2238   3.082   2.736   1.749 -0.5641  1.9290 -0.7860
  747SOL     OW 2239   0.008   1.788   1.636 -0.6066  0.3830 -0.4813
  747SOL    HW1 2240  -0.028   1.688   1.640 -1.9401 -3.4937  0.6797
  747SOL    HW2 2241   0.080   1.798   1.560 -0.4488 -0.1904  2.1693
  748SOL     OW 2242   1.835   2.737   2.827  0.3605 -0.0544 -0.1279
  748SOL    HW1 2243   1.876   2.792   2.907 -3.5802 -1.6813 -1.0645
  748SOL    HW2 2244   1.732   2.733   2.818  3.2680  1.9570 -1.0107
  749SOL     OW 2245   1.280   3.063   0.961 -0.2706  0.2620 -0.1138
  749SOL    HW1 2246   1.192   3.010   0.938 -2.2285 -1.1195  0.8743
  749SOL    HW2 2247   1.353   3.047   0.888 -1.8974  1.9344  0.5119
  750SOL     OW 2248   2.334   0.183   1.870  0.9357  0.1091 -0.4535
  750SOL    HW1 2249   2.352   0.256   1.798  2.1384  1.2105 -1.3703
  750SOL    HW2 2250   2.335   0.229   1.966 -0.2171  0.6886  1.0354
  751SOL     OW 2251   0.901   2.151   2.740  0.2392  0.7941 -0.2038
  751SOL    HW1 2252   0.960   2.184   2.817 -0.8424 -1.4875 -0.0648
  751SOL    HW2 2253   0.799   2.158   2.764 -0.0276  0.0900 -0.7288
  752SOL     OW 2254   1.291   0.873   1.377 -0.5988 -0.4117  0.2441
  752SOL    HW1 2255   1.363   0.935   1.346 -0.4892 -1.3768  1.1949
  752SOL    HW2 2256   1.326   0.780   1.394  1.9921  1.7140  2.0653
  753SOL     OW 2257   0.932   2.575   1.702  0.5982  0.3887  0.6196
  753SOL    HW1 2258   1.020   2.613   1.666 -1.0729 -1.8750 -0.3250
  753SOL    HW2 2259   0.847   2.631   1.670 -1.3417 -1.7366 -0.6758
  754SOL     OW 2260   1.111   1.242   3.062  0.2098  0.5504  0.5905
  754SOL    HW1 2261   1.191   1.196   3.008  0.9011  0.8707  2.9326
  754SOL    HW2 2262   1.109   1.345   3.041  0.1982 -1.1802 -0.2716
  755SOL     OW 2263   1.973   0.445   2.230 -0.2746 -0.2387  0.5346
  755SOL    HW1 2264   2.047   0.393   2.280 -1.3881  3.5895  0.3543
  755SOL    HW2 2265   1.890   0.466   2.292 -1.6656 -0.6831 -2.8691
  756SOL     OW 2266   2.543   1.027   2.956  0.0482 -0.4514  0.1907
  756SOL    HW1 2267   2.641   1.010   2.988  0.5113  0.6636  1.4960
  756SOL    HW2 2268   2.489   0.947   2.970  0.8158  1.7319 -0.2618
  757SOL     OW 2269   3.087   0.450   1.786 -0.8688 -0.4489 -0.4700
  757SOL    HW1 2270   3.164   0.429   1.719  3.1119 -1.8621  1.5731
  757SOL    HW2 2271   3.091   0.382   1.864 -0.2764 -0.8877 -2.4256
  758SOL     OW 2272   2.386   0.092   1.437 -0.0347 -0.4534 -0.6409
  758SOL    HW1 2273   2.326   0.030   1.499  2.8541  0.4324  1.9455
  758SOL    HW2 2274   2.384   0.070   1.336  2.8033  1.8503  0.5261
  759SOL     OW 2275   1.726   0.085   0.074  0.0581  0.2146  0.1684
  759SOL    HW1 2276   1.664   0.099  -0.010 -1.3615 -0.5430  1.3214
  759SOL    HW2 2277   1.825   0.069   0.043  1.5168  2.2957 -0.3774
  760SOL     OW 2278   2.728   2.067   2.820  0.2235 -0.0674  0.2685
  760SOL    HW1 2279   2.747   1.979   2.870  0.7206  1.0569 -0.5188
  760SOL    HW2 2280   2.697   2.145   2.885 -0.8390 -0.2327  0.4117
  761SOL     OW 2281   1.890   1.781   1.715 -0.1635  0.7292 -0.1593
  761SOL    HW1 2282   1.950   1.708   1.754 -1.8535  1.5033  0.8779
  761SOL    HW2 2283   1.833   1.749   1.639 -0.0812  0.1026 -0.9398
  762SOL     OW 2284   0.467   2.327   0.974 -0.1732 -0.5735 -0.5700
  762SOL    HW1 2285   0.522   2.353   0.889 -1.1929 -2.4195 -1.3275
  762SOL    HW2 2286   0.481   2.405   1.047  1.4484 -0.0353  2.2742
  763SOL     OW 2287   2.067   1.510   2.911  0.1854  0.3561 -0.0157
  763SOL    HW1 2288   2.167   1.504   2.944  3.5232 -0.6386  1.1916
  763SOL    HW2 2289   1.995   1.477   2.982 -2.5451  2.4186  2.2151
  764SOL     OW 2290   0.619   0.625   0.841 -0.1143 -0.2936  0.0486
  764SOL    HW1 2291   0.584   0.537   0.796 -2.6390  0.5066  0.7552
  764SOL    HW2 2292   0.709   0.603   0.891 -1.5548 -1.6069 -1.9384
  765SOL     OW 2293   0.712   0.253   0.774 -0.3284 -0.2789  0.7254
  765SOL    HW1 2294   0.798   0.301   0.733 -0.2357  1.2155  0.5295
  765SOL    HW2 2295   0.695   0.263   0.874  1.6064 -1.1755 -2.6594
  766SOL     OW 2296   2.909   2.081   0.011  0.5501 -0.0584 -0.0650
  766SOL    HW1 2297   2.804   2.085   0.014  1.3408 -0.3417 -1.8116
  766SOL    HW2 2298   2.952   2.169  -0.009 -1.5993 -1.4716  0.2370
  767SOL     OW 2299   2.794   1.566   0.606 -0.0799 -0.3587 -0.5245
  767SOL    HW1 2300   2.710   1.602   0.651  1.3897 -1.5297  1.6218
  767SOL    HW2 2301   2.875   1.613   0.656  1.5176  1.5395  1.6140
  768SOL     OW 2302   1.082   0.176   0.309 -0.4179  1.0104  0.6170
  768SOL    HW1 2303   1.060   0.101   0.382  1.6473 -0.0369 -0.6467
  768SOL    HW2 2304   1.173   0.157   0.265  0.7591  0.1809 -0.6615
  769SOL     OW 2305   0.985   1.902   2.219  0.2362 -0.2738  0.0929
  769SOL    HW1 2306   0.926   1.960   2.276  2.1633  0.8477  1.2422
  769SOL    HW2 2307   1.046   1.842   2.277 -2.2912  2.0595  2.5979
  770SOL     OW 2308   0.181   1.125   2.275 -0.2095  0.1649 -0.6097
  770SOL    HW1 2309   0.167   1.166   2.369 -1.0580  1.9310 -1.6113
  770SOL    HW2 2310   0.095   1.136   2.212 -1.0670  0.1126 -1.4257
  771SOL     OW 2311   3.012   2.854   1.902 -0.2971 -0.3164 -0.2831
  771SOL    HW1 2312   2.983   2.909   1.819  0.0961 -2.9198 -1.7250
  771SOL    HW2 2313   2.983   2.902   1.987  0.1804  0.4263  0.0613
  772SOL     OW 2314   2.207   0.205   2.924 -0.0183 -0.6538  0.2858
  772SOL    HW1 2315   2.301   0.153   2.915 -1.1111  0.4793  2.6892
  772SOL    HW2 2316   2.202   0.269   3.007  1.9202 -1.0961 -0.3549
  773SOL     OW 2317   0.760   2.193   2.466 -0.8884 -0.1840  0.8626
  773SOL    HW1 2318   0.718   2.218   2.374  1.5583  1.8058  3.1588
  773SOL    HW2 2319   0.681   2.174   2.538 -1.7000 -0.5554 -1.5556
  774SOL     OW 2320   2.026   0.008   2.638 -0.4649  0.4469 -0.2719
  774SOL    HW1 2321   2.063   0.107   2.619  1.8320 -1.9091  1.4417
  774SOL    HW2 2322   2.079  -0.045   2.707 -1.1995  0.1580  0.2894
  775SOL     OW 2323   2.536   2.839   2.424 -0.5534 -0.1371 -0.0914
  775SOL    HW1 2324   2.487   2.933   2.426  2.8507  2.0686  3.5527
  775SOL    HW2 2325   2.640   2.853   2.444 -0.2183 -0.0728  0.7172
  776SOL     OW 2326   0.018   1.306   0.190  0.2790 -0.4110  0.3436
  776SOL    HW1 2327  -0.047   1.277   0.119  1.8192 -0.4333  1.6246
  776SOL    HW2 2328  -0.024   1.285   0.285 -0.2197 -4.0544 -1.3418
  777SOL     OW 2329   0.291   2.862   0.409 -0.2717  0.0446  0.2236
  777SOL    HW1 2330   0.200   2.909   0.433 -2.4094  2.3230 -2.3596
  777SOL    HW2 2331   0.373   2.923   0.437  0.0448  0.7290 -0.2166
  778SOL     OW 2332   1.301   1.967   0.187  0.0525 -0.4884 -0.3111
  778SOL    HW1 2333   1.254   1.978   0.281 -0.4583 -1.2504 -2.6159
  778SOL    HW2 2334   1.336   2.056   0.148 -2.5035 -1.4498 -2.6501
  779SOL     OW 2335   0.189   0.848   0.478  0.0233 -0.0103  0.2842
  779SOL    HW1 2336   0.133   0.761   0.461 -0.6411 -0.2464  0.1916
  779SOL    HW2 2337   0.134   0.917   0.533  2.4627 -0.7156  1.3136
  780SOL     OW 2338   0.090   0.235   2.219  0.1994  0.5175  0.1141
  780SOL    HW1 2339   0.097   0.336   2.235 -1.2334  2.8121  1.0833
  780SOL    HW2 2340   0.142   0.201   2.139  0.3596  0.8636 -0.6617
  781SOL     OW 2341   0.630   1.757   1.571 -0.2243 -0.2223 -0.3610
  781SOL    HW1 2342   0.661   1.734   1.663 -2.9837 -0.3888 -2.8271
  781SOL    HW2 2343   0.568   1.683   1.531 -0.1923  0.5828  2.0430
  782SOL     OW 2344   2.620   0.188   0.890  0.6342 -0.2559 -0.1679
  782SOL    HW1 2345   2.522   0.201   0.858  3.3599  0.5257 -0.4105
  782SOL    HW2 2346   2.633   0.235   0.981 -1.1302 -1.1499  1.8071
  783SOL     OW 2347   2.845   0.705   2.558 -0.2104 -0.5175 -0.2556
  783SOL    HW1 2348   2.808   0.725   2.651  0.9965 -1.1020 -2.7393
  783SOL    HW2 2349   2.793   0.635   2.507 -1.1815  4.2843 -2.4065
  784SOL     OW 2350   1.426   2.185   0.090 -0.4024  0.6071  0.1267
  784SOL    HW1 2351   1.501   2.252   0.130  0.2649  0.8309  1.2797
  784SOL    HW2 2352   1.406   2.206  -0.013  0.6324  1.7773  0.5291
  785SOL     OW 2353   2.126   0.385   0.018  0.0211  0.4408 -0.5526
  785SOL    HW1 2354   2.048   0.390   0.085  1.2256 -0.0465 -0.9280
  785SOL    HW2 2355   2.152   0.473  -0.038  1.7658  1.3797 -1.0704
  786SOL     OW 2356   2.040   2.191   2.220 -0.3041 -0.0291  0.5925
  786SOL    HW1 2357   2.019   2.092   2.183 -1.0183  0.0407 -2.7207
  786SOL    HW2 2358   2.126   2.193   2.275 -2.7319  2.9415 -0.8170
  787SOL     OW 2359   1.430   0.637   0.957  0.4778  0.2054 -0.4308
  787SOL    HW1 2360   1.343   0.691   0.986 -0.9648 -0.6512  0.0418
  787SOL    HW2 2361   1.432   0.617   0.852  1.9721 -0.4526  0.0399
  788SOL     OW 2362   1.252   0.399   3.086 -0.0173 -0.3034 -0.5546
  788SOL    HW1 2363   1.162   0.397   3.037  1.7934  1.9227  2.8347
  788SOL    HW2 2364   1.243   0.477   3.157 -1.2972 -0.6727 -0.3045
  789SOL     OW 2365   2.588   0.047   1.799  0.0015 -0.2498  0.0532
  789SOL    HW1 2366   2.509   0.095   1.833  3.1833 -1.4122 -4.8305
  789SOL    HW2 2367   2.575  -0.060   1.799  0.9349 -2.1989  1.4491
  790SOL     OW 2368   2.571   2.713   0.815 -0.3567 -0.2877 -0.4238
  790SOL    HW1 2369   2.617   2.779   0.743 -0.6173  2.1758  1.2471
  790SOL    HW2 2370   2.610   2.717   0.912 -1.1085 -3.0864  2.9201
  791SOL     OW 2371   1.915   1.246   0.250  0.2018 -0.2023  0.3177
  791SOL    HW1 2372   1.842   1.177   0.267  0.4054  3.3494  1.4956
  791SOL    HW2 2373   2.006   1.196   0.262 -0.1340 -1.7747  1.9323
  792SOL     OW 2374   0.440   1.996   2.138 -0.1743  0.0387 -0.0117
  792SOL    HW1 2375   0.537   2.037   2.141  0.2494 -1.5846 -1.0475
  792SOL    HW2 2376   0.398   1.953   2.223 -1.0132 -0.8229  2.1819
  793SOL     OW 2377   2.099   1.586   2.113  0.0830  0.3539 -0.5250
  793SOL    HW1 2378   2.187   1.626   2.081 -4.0299 -0.8912  0.0124
  793SOL    HW2 2379   2.090   1.486   2.087  0.0264  0.4976 -0.9459
  794SOL     OW 2380   0.424   1.348   2.448  0.1459  0.5210  0.3700
  794SOL    HW1 2381   0.418   1.311   2.351  1.5978 -0.3361 -0.1298
  794SOL    HW2 2382   0.476   1.437   2.448 -1.6270  2.0245 -0.4995
  795SOL     OW 2383   2.388   2.301   1.687  0.3187  0.2851  0.0786
  795SOL    HW1 2384   2.339   2.349   1.765  0.8456  3.1874  1.8978
  795SOL    HW2 2385   2.359   2.202   1.682 -0.3328  0.0696 -1.1261
  796SOL     OW 2386   3.071   1.093   2.668 -0.5058 -0.5372  0.2541
  796SOL    HW1 2387   2.971   1.096   2.693  0.4273  2.0916  0.8794
  796SOL    HW2 2388   3.127   1.101   2.753 -1.5507  1.3246 -1.6575
  797SOL     OW 2389   0.758   0.626   1.347 -0.4705  0.0702 -0.2662
  797SOL    HW1 2390   0.821   0.667   1.418 -0.6144 -0.7715 -0.5529
  797SOL    HW2 2391   0.710   0.701   1.298 -1.9731 -1.5466  0.6765
  798SOL     OW 2392   1.339   0.409   1.122 -0.0861  0.3734  0.1541
  798SOL    HW1 2393   1.382   0.412   1.218 -0.2244  0.8995 -2.9336
  798SOL    HW2 2394   1.389   0.471   1.059  0.6166  1.1649  0.6898
  799SOL     OW 2395   1.929   2.609   1.054  0.6081 -0.0483  0.4546
  799SOL    HW1 2396   1.876   2.620   1.142 -2.3594 -4.9797 -2.4620
  799SOL    HW2 2397   1.864   2.620   0.973 -3.0264  0.3865  0.2269
  800SOL     OW 2398   2.969   0.761   1.929 -0.1519 -0.0039 -0.6600
  800SOL    HW1 2399   2.935   0.855   1.964  0.9148  2.0759 -1.0697
  800SOL    HW2 2400   2.999   0.693   2.002 -0.1582  2.6811  1.0155
  801SOL     OW 2401   1.971   2.203   0.041  0.1963 -0.1423 -0.5906
  801SOL    HW1 2402   1.881   2.180  -0.012 -1.9044  0.9179  1.5798
  801SOL    HW2 2403   2.056   2.153   0.017  0.1893 -1.3093 -0.4159
  802SOL     OW 2404   0.604   0.815   2.590 -0.3794  0.1971 -0.0703
  802SOL    HW1 2405   0.603   0.715   2.617 -0.8763 -0.8661  0.9357
  802SOL    HW2 2406   0.554   0.839   2.504  1.2567 -0.4949  1.6148
  803SOL     OW 2407   0.959   0.065   0.801 -0.1172  0.6172  0.2790
  803SOL    HW1 2408   1.014   0.124   0.863  0.3595 -0.5948  0.1990
  803SOL    HW2 2409   0.924   0.115   0.718 -1.6908 -1.5912  0.9865
  804SOL     OW 2410   0.310   3.085   2.179  0.2355  0.1128 -0.3699
  804SOL    HW1 2411   0.336   3.181   2.153 -0.0257 -1.1401  0.3881
  804SOL    HW2 2412   0.255   3.027   2.111  0.3986  1.2825  1.7174
  805SOL     OW 2413   2.348   0.409   0.389 -0.0668  0.5656 -0.0347
  805SOL    HW1 2414   2.427   0.427   0.452  0.3110  0.8860 -0.9678
  805SOL    HW2 2415   2.372   0.332   0.329  0.7004  1.7353 -1.4947
  806SOL     OW 2416   0.653   2.451   1.768  0.1324 -0.8204  0.2604
  806SOL    HW1 2417   0.626   2.548   1.789  0.9271 -2.7323 -0.8165
  806SOL    HW2 2418   0.755   2.434   1.755  0.0516 -0.2628 -1.4306
  807SOL     OW 2419   2.501   0.817   0.373  0.4882  0.2452  0.3398
  807SOL    HW1 2420   2.579   0.863   0.429  1.7291  0.9098  3.7520
  807SOL    HW2 2421   2.466   0.869   0.291 -1.3992 -2.6992  0.1500
  808SOL     OW 2422   0.650   2.114   2.911 -0.2077  0.1438  0.6057
  808SOL    HW1 2423   0.580   2.153   2.977 -1.4547  0.6743  0.6513
  808SOL    HW2 2424   0.683   2.018   2.938 -0.1104 -2.2553 -0.3595
  809SOL     OW 2425   2.593   1.961   1.892 -0.2566  0.0306  0.1336
  809SOL    HW1 2426   2.692   1.998   1.869 -0.8764  1.3235 -0.3647
  809SOL    HW2 2427   2.523   1.965   1.816  1.6443  0.2308  0.1649
  810SOL     OW 2428   2.167   1.129   0.541  0.4971 -0.0804 -0.0266
  810SOL    HW1 2429   2.147   1.047   0.604 -0.9705 -1.6568  3.5264
  810SOL    HW2 2430   2.124   1.216   0.580  1.7000  3.2290 -0.5364
  811SOL     OW 2431   1.347   2.512   1.223  0.5762  0.2565 -0.0646
  811SOL    HW1 2432   1.343   2.417   1.260  2.4766  2.2489  0.7094
  811SOL    HW2 2433   1.256   2.555   1.220 -0.7953 -0.9448 -2.4822
  812SOL     OW 2434   1.427   0.756   1.960 -0.0064 -0.0260  0.2710
  812SOL    HW1 2435   1.451   0.854   1.974  0.3169 -2.5836  1.0754
  812SOL    HW2 2436   1.340   0.734   1.907  0.2225 -2.0779  0.0357
  813SOL     OW 2437   1.645   2.064   2.523  0.2889  0.7601 -0.4780
  813SOL    HW1 2438   1.692   1.973   2.545  0.1656 -2.7318  0.2630
  813SOL    HW2 2439   1.586   2.060   2.436  0.0802  0.4865 -0.5815
  814SOL     OW 2440   2.943   1.587   2.807  0.3409  0.7137  0.2521
  814SOL    HW1 2441   2.984   1.540   2.887 -1.7323 -1.0680  2.2293
  814SOL    HW2 2442   2.976   1.685   2.799 -0.1024  0.7718  1.4477
  815SOL     OW 2443   2.193   2.924   2.792  0.1868  0.4286  0.0941
  815SOL    HW1 2444   2.183   2.833   2.842  0.3607 -0.0078 -1.5530
  815SOL    HW2 2445   2.281   2.972   2.811  1.1266  3.5932  0.0974
  816SOL     OW 2446   1.612   0.319   1.646 -0.4676  0.2728  0.1546
  816SOL    HW1 2447   1.644   0.222   1.664  2.0110 -0.3457  3.4754
  816SOL    HW2 2448   1.557   0.354   1.724  1.9729 -1.0713  0.0018
  817SOL     OW 2449   0.341   1.155   2.617  0.2878  0.2137  0.0213
  817SOL    HW1 2450   0.268   1.176   2.683  0.4070 -2.9412  2.1200
  817SOL    HW2 2451   0.348   1.224   2.541  0.9446  0.5721 -0.7645
  818SOL     OW 2452   1.938   0.974   0.352 -0.0251 -0.7991  0.9617
  818SOL    HW1 2453   2.032   0.930   0.376 -0.9659  0.7348  1.0161
  818SOL    HW2 2454   1.896   1.020   0.434  0.5313  0.6822  1.4034
  819SOL     OW 2455   2.745   2.949   2.991  0.1571 -0.2977  0.6223
  819SOL    HW1 2456   2.827   2.883   2.978 -0.4614 -0.3843 -0.7377
  819SOL    HW2 2457   2.656   2.909   2.949  1.5276  0.1886 -0.8041
  820SOL     OW 2458   1.218   1.046   0.586  0.2254  0.0658 -0.2326
  820SOL    HW1 2459   1.196   1.140   0.625  0.6529  0.1174 -0.7171
  820SOL    HW2 2460   1.222   0.979   0.660 -0.5132  2.0797  0.2519
  821SOL     OW 2461   0.014   1.284   0.678  0.0034  0.0899  0.3683
  821SOL    HW1 2462  -0.029   1.260   0.777 -1.8868  0.4803  1.0581
  821SOL    HW2 2463   0.028   1.389   0.672  0.5284 -0.7077 -1.6893
  822SOL     OW 2464   2.583   1.793   2.437 -0.0771 -0.2007  0.2146
  822SOL    HW1 2465   2.574   1.873   2.503 -0.4352  0.6362 -0.9073
  822SOL    HW2 2466   2.506   1.785   2.368 -1.7422 -0.2028  0.5894
  823SOL     OW 2467   2.012   0.819   1.101 -0.3041 -0.8306 -0.3770
  823SOL    HW1 2468   1.986   0.809   1.198  2.9010  0.8998 -2.8465
  823SOL    HW2 2469   1.949   0.890   1.049 -0.5406  1.0260  0.7322
  824SOL     OW 2470   0.228   1.988   2.853 -0.8910  0.5643 -0.6416
  824SOL    HW1 2471   0.210   1.903   2.907 -0.2128 -0.2260  0.9336
  824SOL    HW2 2472   0.292   1.961   2.774 -1.4502 -3.1535 -0.6939
  825SOL     OW 2473   1.289   1.056   0.300  0.0298 -0.6560  0.0889
  825SOL    HW1 2474   1.268   1.148   0.253  1.8531  0.7249 -2.0524
  825SOL    HW2 2475   1.269   1.055   0.399 -2.6063  0.8326 -3.1222
  826SOL     OW 2476   1.927   0.651   1.559  0.8632  0.2491 -0.2418
  826SOL    HW1 2477   2.007   0.594   1.594 -0.2149 -2.6470 -1.5698
  826SOL    HW2 2478   1.856   0.589   1.512  0.1581 -0.5969  0.7295
  827SOL     OW 2479   0.721   1.222   0.286  0.7894  0.1984  0.4218
  827SOL    HW1 2480   0.772   1.182   0.201  1.4452 -1.8905 -0.8770
  827SOL    HW2 2481   0.628   1.171   0.304 -1.4356 -2.8884 -0.4196
  828SOL     OW 2482   2.635   0.180   1.572 -0.0555 -0.6309 -0.4501
  828SOL    HW1 2483   2.540   0.185   1.522 -1.5690  0.8892  0.3219
  828SOL    HW2 2484   2.623   0.130   1.662 -3.0126 -2.5009 -1.5393
  829SOL     OW 2485   2.864   2.442   2.948  0.5107  0.1130 -0.5823
  829SOL    HW1 2486   2.773   2.394   2.957  0.6971  0.1237 -0.0591
  829SOL    HW2 2487   2.851   2.542   2.930  2.5504 -1.5571 -0.2738
  830SOL     OW 2488   2.815   0.963   3.049  0.0259  0.0400 -0.2904
  830SOL    HW1 2489   2.854   1.051   3.088  0.4366 -0.4993  1.4955
  830SOL    HW2 2490   2.816   0.885   3.117 -0.9922  2.3392  2.0959
  831SOL     OW 2491   0.045   0.632   0.379  1.2425  0.0106 -0.1660
  831SOL    HW1 2492   0.016   0.580   0.464  2.6415 -2.9827  0.1977
  831SOL    HW2 2493   0.070   0.567   0.303  1.7239  0.0558  1.5203
  832SOL     OW 2494   1.833   0.789   3.023 -0.1941 -0.1399 -0.1570
  832SOL    HW1 2495   1.744   0.832   2.985  2.1703  0.9973 -0.6972
  832SOL    HW2 2496   1.827   0.687   3.051 -1.0336 -0.8088 -0.1658
  833SOL     OW 2497   2.461   2.103   0.455  0.6517  0.1381 -0.6445
  833SOL    HW1 2498   2.375   2.066   0.413  1.2052  1.1069  0.6748
  833SOL    HW2 2499   2.514   2.020   0.493  1.2798 -3.8696 -2.3103
  834SOL     OW 2500   0.106   0.233   0.493 -0.0107 -0.6111  0.0447
  834SOL    HW1 2501   0.016   0.207   0.528 -0.4717 -0.7901  0.3775
  834SOL    HW2 2502   0.119   0.210   0.392  1.9474  1.7097  1.9885
  835SOL     OW 2503   2.331   1.527   1.161  0.7757 -0.6315  0.0128
  835SOL    HW1 2504   2.362   1.620   1.187 -3.3528 -0.2106  0.5796
  835SOL    HW2 2505   2.397   1.486   1.091 -2.6786  1.4545 -0.3234
  836SOL     OW 2506   1.626   0.846   2.610 -0.2021  0.1123  0.3185
  836SOL    HW1 2507   1.523   0.841   2.620 -2.3018  0.7592  0.0486
  836SOL    HW2 2508   1.660   0.868   2.515 -0.7863  3.6087 -1.3232
  837SOL     OW 2509   1.602   0.106   0.574 -0.2876  0.4798 -0.0491
  837SOL    HW1 2510   1.568   0.191   0.627  0.1488  1.2791 -0.1793
  837SOL    HW2 2511   1.576   0.105   0.474 -0.8804 -0.6751  1.4494
  838SOL     OW 2512   1.218   1.468   2.750 -0.2372 -0.5975  0.1471
  838SOL    HW1 2513   1.173   1.499   2.838  0.1479  0.6486  0.6383
  838SOL    HW2 2514   1.158   1.398   2.701  0.5570  0.7189 -2.9249
  839SOL     OW 2515   1.720   0.275   0.992 -0.8834  0.1728 -0.8714
  839SOL    HW1 2516   1.695   0.353   1.059 -1.0080 -1.6907  0.7024
  839SOL    HW2 2517   1.676   0.188   1.027  0.1871 -0.5657  1.4146
  840SOL     OW 2518   2.554   2.884   1.749 -0.7209 -0.8431  0.3470
  840SOL    HW1 2519   2.516   2.853   1.658 -3.0492 -3.0404 -1.5161
  840SOL    HW2 2520   2.534   2.815   1.827 -0.5896 -0.9321  2.2276
  841SOL     OW 2521   1.579   0.893   2.948  0.3223  0.3602  0.3229
  841SOL    HW1 2522   1.528   0.911   3.039 -0.1665  2.0129  1.4964
  841SOL    HW2 2523   1.562   0.963   2.870 -2.7367  0.0845 -3.1267
  842SOL     OW 2524   0.824   1.510   0.916 -0.5469 -0.0792 -0.0390
  842SOL    HW1 2525   0.787   1.571   0.988  3.0986 -0.2254 -0.2312
  842SOL    HW2 2526   0.750   1.459   0.865  1.7938  0.8688  0.9510
  843SOL     OW 2527   0.107   0.133   1.481  0.5313  0.3079  0.7293
  843SOL    HW1 2528   0.209   0.149   1.500  2.0723  2.1759 -0.6706
  843SOL    HW2 2529   0.084   0.033   1.492 -0.5136  1.0641 -1.5760
  844SOL     OW 2530   0.793   2.515   0.308 -0.3735 -0.2448  0.0496
  844SOL    HW1 2531   0.753   2.456   0.385  1.8626 -1.3773  3.0702
  844SOL    HW2 2532   0.728   2.543   0.229 -1.8882  1.5898 -0.9936
  845SOL     OW 2533   1.627   2.873   1.378  0.5032 -0.1746  0.2520
  845SOL    HW1 2534   1.702   2.911   1.440  0.7114 -0.5586 -2.8508
  845SOL    HW2 2535   1.537   2.922   1.393 -0.1619 -2.0240  0.2970
  846SOL     OW 2536   1.572   2.971   0.836  0.9868  0.2208  0.0742
  846SOL    HW1 2537   1.550   2.952   0.737 -0.1652  0.5181  0.5281
  846SOL    HW2 2538   1.662   3.019   0.857  2.2780  2.5356  0.6537
  847SOL     OW 2539   2.028   1.644   0.258  0.2314  0.1104 -0.6539
  847SOL    HW1 2540   2.001   1.588   0.342  1.0565  1.7820  0.0826
  847SOL    HW2 2541   1.948   1.655   0.200  1.8154  1.6514  3.4700
  848SOL     OW 2542   2.505   0.774   2.644 -0.3768  0.5010  0.2357
  848SOL    HW1 2543   2.494   0.871   2.606  0.2761 -0.6777  1.5683
  848SOL    HW2 2544   2.458   0.709   2.571  1.1439 -2.1079 -2.8289
  849SOL     OW 2545   2.539   0.842   2.327 -0.7207  0.1534 -0.3653
  849SOL    HW1 2546   2.623   0.815   2.278 -1.5261 -0.8160 -0.4098
  849SOL    HW2 2547   2.491   0.764   2.378 -2.3789 -0.5293 -0.6419
  850SOL     OW 2548   1.516   0.126   1.343 -0.4305 -0.4998 -0.2677
  850SOL    HW1 2549   1.532   0.083   1.250  2.4000  2.2050  1.7014
  850SOL    HW2 2550   1.470   0.056   1.400  1.6381 -1.7255 -1.1179
  851SOL     OW 2551   0.476   1.748   0.620 -0.0952 -0.3348  0.2259
  851SOL    HW1 2552   0.465   1.847   0.598 -0.3037  1.3512  2.4162
  851SOL    HW2 2553   0.577   1.722   0.622  1.0915 -0.7255  0.8539
  852SOL     OW 2554   0.791   2.171   1.679  0.5465 -0.3835  0.4040
  852SOL    HW1 2555   0.775   2.245   1.615 -2.4151 -4.7011  0.9329
  852SOL    HW2 2556   0.715   2.162   1.750  1.2161  2.2597  1.6764
  853SOL     OW 2557   2.496   1.563   2.605 -0.4587  0.0865  0.2980
  853SOL    HW1 2558   2.465   1.481   2.544 -0.2813  0.0633  1.4305
  853SOL    HW2 2559   2.530   1.640   2.546  2.6201  0.3177  1.2144
  854SOL     OW 2560   2.517   1.359   1.732  0.2742 -0.3206  0.5863
  854SOL    HW1 2561   2.550   1.353   1.631  1.1769 -1.4948  0.6455
  854SOL    HW2 2562   2.497   1.263   1.766  2.3279 -1.7033  2.0252
  855SOL     OW 2563   2.108   2.353   0.956 -0.4422 -0.3363  0.0065
  855SOL    HW1 2564   2.096   2.451   0.916  2.7031  0.8489 -1.3959
  855SOL    HW2 2565   2.157   2.351   1.048  2.8536 -3.2304  1.0960
  856SOL     OW 2566   1.365   1.495   0.850 -0.7327 -0.6961  0.0568
  856SOL    HW1 2567   1.439   1.542   0.908 -0.4908  3.7154  1.4594
  856SOL    HW2 2568   1.273   1.501   0.886  1.1761 -0.4758 -1.2679
  857SOL     OW 2569   2.977   2.654   1.034 -0.6119  0.7126 -0.5066
  857SOL    HW1 2570   2.906   2.574   1.041 -3.2222 -0.5570 -0.5821
  857SOL    HW2 2571   3.064   2.623   0.995  0.3535 -0.6679  3.8177
  858SOL     OW 2572   2.284   2.036   1.722 -0.1697  0.4024 -0.5190
  858SOL    HW1 2573   2.190   2.055   1.683  1.8220  3.7149  0.9250
  858SOL    HW2 2574   2.349   1.994   1.657  0.6181 -1.7225  1.3811
  859SOL     OW 2575   2.464   0.548   1.029 -0.4728  0.1431 -0.3583
  859SOL    HW1 2576   2.526   0.568   0.951 -1.9799  1.7176  0.1897
  859SOL    HW2 2577   2.484   0.457   1.072 -1.5741 -1.5198  1.1287
  860SOL     OW 2578   1.929   2.822   0.433  0.0624  0.4036  0.8197
  860SOL    HW1 2579   1.885   2.782   0.349  1.4202  0.2845 -0.0024
  860SOL    HW2 2580   2.018   2.879   0.408 -0.4639 -1.3218 -2.7021
  861SOL     OW 2581   1.065   2.538   2.835  0.2949  0.3242  0.3835
  861SOL    HW1 2582   1.131   2.592   2.779 -0.0890  1.1053 -0.5259
  861SOL    HW2 2583   1.098   2.519   2.929 -0.8913  1.0986  1.1753
  862SOL     OW 2584   2.849   2.535   1.600 -0.2175 -0.0318 -0.3664
  862SOL    HW1 2585   2.911   2.560   1.678 -2.3108 -0.0984 -0.7924
  862SOL    HW2 2586   2.838   2.621   1.539  2.6871  3.1586  1.5943
  863SOL     OW 2587   1.832   2.698   0.183 -0.0496 -0.6579 -0.4015
  863SOL    HW1 2588   1.905   2.629   0.206  0.5196  3.7322 -0.7518
  863SOL    HW2 2589   1.737   2.652   0.175 -0.6571 -1.6789  1.3401
  864SOL     OW 2590   1.883   1.176   2.860 -0.7796 -0.2066  0.4784
  864SOL    HW1 2591   1.899   1.112   2.781  1.8578  2.9752 -1.2177
  864SOL    HW2 2592   1.938   1.156   2.943 -0.3660 -0.3652 -1.6306
  865SOL     OW 2593   2.216   1.838   0.599 -0.6789 -0.2505  0.5010
  865SOL    HW1 2594   2.267   1.830   0.687 -2.2581 -0.3576  0.3605
  865SOL    HW2 2595   2.125   1.794   0.609 -0.3363 -1.1373 -1.9909
  866SOL     OW 2596   2.979   2.919   0.994 -0.6455 -0.6230 -0.7500
  866SOL    HW1 2597   3.014   2.934   0.893  3.7888 -2.6557 -1.2932
  866SOL    HW2 2598   2.961   2.820   1.012  0.3522  0.1200 -1.8939
  867SOL     OW 2599   0.363   1.371   0.908 -0.2976  0.2480  0.2844
  867SOL    HW1 2600   0.368   1.286   0.849 -2.0009 -1.6449 -0.0609
  867SOL    HW2 2601   0.341   1.457   0.851 -3.0240 -2.0241  0.6225
  868SOL     OW 2602   0.719   1.868   2.024  0.1833  0.3296  0.0532
  868SOL    HW1 2603   0.702   1.853   2.126  1.8934  1.6537  0.5271
  868SOL    HW2 2604   0.704   1.964   1.991 -0.0679  1.1225  0.0893
  869SOL     OW 2605   2.533   1.945   1.595 -0.0612  0.1190 -0.1344
  869SOL    HW1 2606   2.621   1.998   1.575  0.8246 -2.5852 -4.0247
  869SOL    HW2 2607   2.559   1.849   1.619 -0.7946 -0.5517  2.9679
  870SOL     OW 2608   2.317   2.656   1.281 -0.1059  0.4067 -0.0651
  870SOL    HW1 2609   2.301   2.554   1.266 -0.2567  0.6761  0.4704
  870SOL    HW2 2610   2.235   2.716   1.313  1.6797 -1.1752  0.3692
  871SOL     OW 2611   2.988   2.138   0.558 -0.8095 -0.6295 -0.4974
  871SOL    HW1 2612   2.918   2.194   0.609 -0.1590 -0.9818  2.2515
  871SOL    HW2 2613   2.950   2.082   0.478  0.4428 -2.4386  1.8375
  872SOL     OW 2614   2.120   0.472   1.681  0.3214 -0.1035 -0.5964
  872SOL    HW1 2615   2.062   0.470   1.769 -2.8478 -0.1788 -0.2834
  872SOL    HW2 2616   2.218   0.430   1.688  1.8782  1.1363  1.2773
  873SOL     OW 2617   1.718   2.094   3.047  0.3242 -0.7042 -0.0481
  873SOL    HW1 2618   1.658   2.118   3.125  1.1036  1.5077 -0.7957
  873SOL    HW2 2619   1.678   2.113   2.954  1.9844 -0.1056  0.9521
  874SOL     OW 2620   0.672   2.444   0.800 -0.1404  0.5856  0.3679
  874SOL    HW1 2621   0.664   2.539   0.847  1.4473  1.8056  0.9887
  874SOL    HW2 2622   0.770   2.419   0.791 -3.7507 -0.4153  0.6274
  875SOL     OW 2623   2.264   1.547   1.436 -0.1004 -0.8053  0.3375
  875SOL    HW1 2624   2.357   1.544   1.487 -1.8709  0.7870 -0.7913
  875SOL    HW2 2625   2.279   1.539   1.334 -0.2799 -1.5451 -0.3986
  876SOL     OW 2626   0.074   2.256   2.744  0.3538  0.0976 -0.2241
  876SOL    HW1 2627   0.103   2.172   2.787 -1.1465  0.8526  0.8892
  876SOL    HW2 2628   0.092   2.338   2.805 -0.4889  2.1888  2.4662
  877SOL     OW 2629   2.888   2.702   0.567 -0.1040  0.2797 -0.5177
  877SOL    HW1 2630   2.873   2.797   0.603  1.0555  0.6646  1.6100
  877SOL    HW2 2631   2.933   2.640   0.640  1.2086 -1.8021 -1.2645
  878SOL     OW 2632   2.813   1.532   2.185 -0.5521  0.2226 -0.2891
  878SOL    HW1 2633   2.915   1.534   2.190 -0.5418  1.3673 -0.0575
  878SOL    HW2 2634   2.773   1.601   2.251  0.0927  0.1033  1.5402
  879SOL     OW 2635   2.364   0.069   1.152  0.2121 -0.2279 -0.0182
  879SOL    HW1 2636   2.415  -0.023   1.167 -0.4990 -0.5079 -0.6157
  879SOL    HW2 2637   2.266   0.063   1.116  0.4542  1.2850  0.8131
  880SOL     OW 2638   0.695   0.493   2.241 -0.9776 -0.0030 -0.3223
  880SOL    HW1 2639   0.629   0.425   2.284 -0.4270  0.5798 -0.8448
  880SOL    HW2 2640   0.743   0.460   2.155 -1.1153  1.6638  1.1500
  881SOL     OW 2641   0.892   0.064   0.471  0.5509 -0.3741 -0.0296
  881SOL    HW1 2642   0.953  -0.018   0.484  2.9558  0.8360  2.9023
  881SOL    HW2 2643   0.811   0.041   0.419  0.7210  2.1383  1.8032
  882SOL     OW 2644   2.720   1.717   1.658 -0.0734 -0.2474 -0.0117
  882SOL    HW1 2645   2.813   1.722   1.621  0.7218 -2.1783 -0.2990
  882SOL    HW2 2646   2.723   1.692   1.757  2.0800  0.4898 -2.7313
  883SOL     OW 2647   0.877   0.606   0.981  0.2058  0.6518  0.0321
  883SOL    HW1 2648   0.917   0.701   1.013 -1.1162  0.3339 -0.8503
  883SOL    HW2 2649   0.913   0.527   1.036 -0.4074  0.0512 -0.4223
  884SOL     OW 2650   1.181   1.786   1.166 -0.5236 -0.3550 -0.5243
  884SOL    HW1 2651   1.135   1.701   1.120  0.1766  0.0856  0.5218
  884SOL    HW2 2652   1.165   1.872   1.109  1.3981  3.1124  0.5370
  885SOL     OW 2653   2.364   1.810   2.292 -0.3234  0.4592  0.2095
  885SOL    HW1 2654   2.293   1.776   2.357  1.9155 -2.6610 -1.7442
  885SOL    HW2 2655   2.355   1.909   2.254  0.1904 -0.7447 -0.3255
  886SOL     OW 2656   2.591   0.410   1.794 -0.4420 -0.1653  0.2716
  886SOL    HW1 2657   2.638   0.343   1.858 -0.4847  0.9284  1.3450
  886SOL    HW2 2658   2.640   0.503   1.788  0.8991  0.8183  2.1472
  887SOL     OW 2659   0.103   2.033   1.280 -0.0871 -0.3572 -0.7986
  887SOL    HW1 2660   0.035   1.980   1.225  2.1833 -0.5784  0.2636
  887SOL    HW2 2661   0.106   2.138   1.266 -0.2622 -0.8548  0.4258
  888SOL     OW 2662   0.579   1.290   1.545  0.1239  1.0449  0.6977
  888SOL    HW1 2663   0.626   1.320   1.455  0.6027  0.0692 -0.9152
  888SOL    HW2 2664   0.514   1.214   1.533  0.8223 -0.6727 -0.2193
  889SOL     OW 2665   0.797   2.507   2.157  0.0547  0.5598  0.2805
  889SOL    HW1 2666   0.774   2.414   2.192  0.2709  1.0550  1.2650
  889SOL    HW2 2667   0.872   2.507   2.085  3.9397  4.9128 -0.1821
  890SOL     OW 2668   2.415   2.455   0.208 -0.4298  0.0010 -0.0897
  890SOL    HW1 2669   2.431   2.537   0.145  1.2136 -1.9365 -1.6550
  890SOL    HW2 2670   2.351   2.482   0.290  0.3205  2.1935  0.2924
  891SOL     OW 2671   2.597   1.682   0.758  0.2652 -0.0171  0.6389
  891SOL    HW1 2672   2.600   1.719   0.854 -0.7624 -2.1888  2.8893
  891SOL    HW2 2673   2.541   1.596   0.763  1.1903 -0.5763  1.8204
  892SOL     OW 2674   0.377   0.256   2.147 -0.1267 -0.8050 -0.3110
  892SOL    HW1 2675   0.376   0.331   2.079  0.4891 -1.1062 -0.2861
  892SOL    HW2 2676   0.415   0.282   2.240  1.0027 -2.8951  1.1157
  893SOL     OW 2677   1.676   0.267   2.745 -0.2746 -0.4964  0.0280
  893SOL    HW1 2678   1.752   0.340   2.753 -1.0475 -0.2078 -1.8100
  893SOL    HW2 2679   1.583   0.309   2.732 -0.7440 -0.1730 -1.4303
  894SOL     OW 2680   2.173   1.996   3.083  0.7325  0.0591  0.6515
  894SOL    HW1 2681   2.174   1.930   3.009  0.3904  0.5175  2.0039
  894SOL    HW2 2682   2.169   1.943   3.177  0.0020 -2.9245  1.5967
  895SOL     OW 2683   2.835   1.422   0.930  0.5164 -0.2186 -0.1521
  895SOL    HW1 2684   2.913   1.350   0.923 -2.1983 -0.5265 -2.0663
  895SOL    HW2 2685   2.854   1.507   0.872 -1.0763  2.5370 -1.6982
  896SOL     OW 2686   1.808   1.826   1.208  0.1952  0.5354 -0.1025
  896SOL    HW1 2687   1.864   1.789   1.129  1.9380  2.3358  1.5628
  896SOL    HW2 2688   1.747   1.909   1.186 -0.3829 -1.2043  0.7714
  897SOL     OW 2689   0.321   0.590   0.046 -0.2363  0.0796 -0.3080
  897SOL    HW1 2690   0.259   0.635  -0.022 -2.3475 -0.6960  0.3165
  897SOL    HW2 2691   0.423   0.586   0.029 -0.6706 -1.3056  2.9308
  898SOL     OW 2692   0.579   2.892   1.109 -0.4233 -0.0354 -0.0343
  898SOL    HW1 2693   0.529   2.979   1.137  1.8416  0.0722  0.0450
  898SOL    HW2 2694   0.650   2.862   1.178  1.5252 -0.9164 -0.4303
  899SOL     OW 2695   2.784   0.896   1.272 -0.3478 -0.1057  0.4026
  899SOL    HW1 2696   2.714   0.890   1.194 -0.4889  0.0892 -0.1320
  899SOL    HW2 2697   2.879   0.928   1.248  0.0842 -2.9707 -2.4010
  900SOL     OW 2698   1.045   2.575   2.377 -0.2264  0.1407 -0.3264
  900SOL    HW1 2699   0.978   2.566   2.301  2.9319  1.8829  0.2941
  900SOL    HW2 2700   1.032   2.501   2.451  1.4436 -2.2158 -0.6377
  901SOL     OW 2701   1.911   2.352   1.335 -0.1180  0.2609  0.2666
  901SOL    HW1 2702   1.896   2.343   1.235 -1.2833  0.8547  2.4504
  901SOL    HW2 2703   2.006   2.325   1.363 -2.8490 -1.8114 -0.6335
  902SOL     OW 2704   2.551   1.651   1.447 -0.9292  0.1308  0.3528
  902SOL    HW1 2705   2.611   1.655   1.536  0.1488  2.0884  1.1509
  902SOL    HW2 2706   2.604   1.616   1.364  1.7866 -0.8347  0.2930
  903SOL     OW 2707   0.271   2.485   1.983 -0.3603 -0.2783  0.4437
  903SOL    HW1 2708   0.180   2.436   1.968 -0.0741  0.2135 -2.2613
  903SOL    HW2 2709   0.316   2.532   1.897  1.5563  1.4964 -0.3040
  904SOL     OW 2710   2.076   0.780   2.499  0.0573 -0.5338 -0.4355
  904SOL    HW1 2711   2.000   0.729   2.548 -2.9738 -1.3860 -1.4457
  904SOL    HW2 2712   2.046   0.810   2.403  1.0759 -0.8777  0.6772
  905SOL     OW 2713   2.788   0.070   2.568 -0.1764 -0.2740  0.1373
  905SOL    HW1 2714   2.867   0.001   2.564 -0.0124 -0.8210  0.8418
  905SOL    HW2 2715   2.821   0.160   2.525  2.8836  0.5435 -0.1836
  906SOL     OW 2716   0.155   1.746   1.891 -0.1452  0.1833 -0.5721
  906SOL    HW1 2717   0.088   1.775   1.816 -1.4430 -0.2048  0.3561
  906SOL    HW2 2718   0.258   1.771   1.879  2.2478  0.5500  1.2218
  907SOL     OW 2719   0.161   2.428   1.002 -0.5012 -0.1958 -0.2463
  907SOL    HW1 2720   0.229   2.406   0.930 -1.0637 -1.5333 -1.0536
  907SOL    HW2 2721   0.105   2.349   1.032 -1.3762 -2.1083 -0.6641
  908SOL     OW 2722   2.704   2.970   0.370 -0.1179 -0.4605 -0.0170
  908SOL    HW1 2723   2.666   3.009   0.281 -1.0915 -3.1553 -1.9037
  908SOL    HW2 2724   2.791   2.916   0.355 -1.9112  1.4449  0.4499
  909SOL     OW 2725   0.761   1.029   2.647 -0.0333  0.1829  0.2801
  909SOL    HW1 2726   0.702   0.957   2.603 -1.1692  0.1285 -0.2600
  909SOL    HW2 2727   0.835   1.058   2.585 -0.8436  1.2602  0.3314
  910SOL     OW 2728   1.709   1.851   2.150  0.5835 -0.3339  0.0384
  910SOL    HW1 2729   1.749   1.896   2.066 -0.5493  1.5134 -2.0746
  910SOL    HW2 2730   1.637   1.902   2.203  1.4549 -0.6128 -1.3312
  911SOL     OW 2731   1.824   2.914   1.551  0.2067  0.2996 -0.5343
  911SOL    HW1 2732   1.898   2.887   1.482  2.0676  0.4052  0.5791
  911SOL    HW2 2733   1.804   2.841   1.622  0.2947  2.5451 -0.9697
  912SOL     OW 2734   2.892   0.973   0.718  0.4915  0.2245 -0.1190
  912SOL    HW1 2735   2.912   0.957   0.821 -0.3923 -0.1787  0.6235
  912SOL    HW2 2736   2.832   1.057   0.712  1.1248  0.4732  3.9282
  913SOL     OW 2737   2.571   1.297   1.467 -0.4621 -0.0081  0.2982
  913SOL    HW1 2738   2.600   1.197   1.482  0.2458 -0.4003 -1.6931
  913SOL    HW2 2739   2.620   1.335   1.378 -0.1083  0.5685 -0.0691
  914SOL     OW 2740   2.911   0.562   1.215  0.4009 -0.1982  0.1807
  914SOL    HW1 2741   2.959   0.474   1.225  1.2396  2.6729 -0.6145
  914SOL    HW2 2742   2.841   0.580   1.290 -2.9024  2.5787 -2.0815
  915SOL     OW 2743   1.227   0.767   1.077  0.4799  0.0125 -0.3488
  915SOL    HW1 2744   1.278   0.763   1.171  1.2047 -3.5919  3.1346
  915SOL    HW2 2745   1.134   0.819   1.077  0.9606  1.2372 -1.7516
  916SOL     OW 2746   0.599   0.029   0.676 -0.1380  0.1155  0.1998
  916SOL    HW1 2747   0.626   0.126   0.710 -1.2933  1.4229 -1.1758
  916SOL    HW2 2748   0.609   0.015   0.573  1.5391 -0.2773  1.6925
  917SOL     OW 2749   2.841   2.618   1.944  0.1534  0.2347  0.1272
  917SOL    HW1 2750   2.741   2.648   1.955  1.7832 -0.0338  1.1964
  917SOL    HW2 2751   2.903   2.695   1.910  1.4449 -2.1289 -2.4063
  918SOL     OW 2752   1.043   2.199   2.975 -0.3708  0.2961 -0.3037
  918SOL    HW1 2753   1.018   2.206   3.072  0.1205  0.2034 -1.4569
  918SOL    HW2 2754   1.100   2.118   2.954  0.9502  2.6642 -3.4249
  919SOL     OW 2755   0.850   1.675   2.799  0.1042 -0.0892  0.2780
  919SOL    HW1 2756   0.913   1.742   2.749 -0.2488  0.2861 -1.1641
  919SOL    HW2 2757   0.794   1.616   2.730  0.3520 -0.0081 -2.4309
  920SOL     OW 2758   1.232   1.880   2.437  0.2824 -0.5193  0.2866
  920SOL    HW1 2759   1.311   1.851   2.383  0.6682 -0.3819  0.8518
  920SOL    HW2 2760   1.208   1.806   2.506 -0.0874 -0.0220  1.8995
  921SOL     OW 2761   1.036   0.017   2.617  0.5270  0.0027 -0.3435
  921SOL    HW1 2762   1.024   0.035   2.512 -2.3079 -0.7022 -2.3936
  921SOL    HW2 2763   0.975  -0.059   2.648  0.9248 -0.8150  3.2865
  922SOL     OW 2764   2.147   2.391   2.775  0.1320  0.2134  0.4208
  922SOL    HW1 2765   2.183   2.294   2.794 -0.0857  0.9196  0.2149
  922SOL    HW2 2766   2.091   2.398   2.680  2.0058  0.4201 -0.6928
  923SOL     OW 2767   1.229   2.669   0.260 -0.4732  0.3128  0.2639
  923SOL    HW1 2768   1.302   2.730   0.304 -1.6447 -0.4664 -1.0127
  923SOL    HW2 2769   1.255   2.567   0.260 -1.8612  1.4181  0.3826
  924SOL     OW 2770   2.909   1.512   0.125  0.0086  0.3843 -0.3533
  924SOL    HW1 2771   2.817   1.524   0.072  0.3087  2.2512 -0.0836
  924SOL    HW2 2772   2.983   1.469   0.067 -2.6689  0.5371 -1.0376
  925SOL     OW 2773   0.043   2.937   1.536  0.1013  0.3890 -0.5738
  925SOL    HW1 2774  -0.042   2.926   1.594 -2.3143 -1.6565 -1.2839
  925SOL    HW2 2775   0.021   2.935   1.432 -1.3330 -4.6020 -0.0834
  926SOL     OW 2776   1.313   2.831   1.213  0.3414 -0.0100 -0.0211
  926SOL    HW1 2777   1.376   2.837   1.129  1.2435 -1.6706  1.3843
  926SOL    HW2 2778   1.331   2.900   1.288  0.0796 -1.8984  0.2955
  927SOL     OW 2779   0.350   2.667   1.747  0.2069  0.1364 -0.0056
  927SOL    HW1 2780   0.339   2.612   1.659 -1.5853 -2.8814 -0.1173
  927SOL    HW2 2781   0.298   2.759   1.737  0.6633 -0.6123 -1.1693
  928SOL     OW 2782   1.542   2.074   2.257 -0.2090 -0.2945 -0.2655
  928SOL    HW1 2783   1.566   2.160   2.205  2.9530  1.0431 -1.8597
  928SOL    HW2 2784   1.446   2.053   2.242  2.2785  0.1995  0.4474
  929SOL     OW 2785   2.443   2.471   2.889  0.9383 -0.6583  0.5386
  929SOL    HW1 2786   2.341   2.441   2.890 -2.4494  1.4465  3.5634
  929SOL    HW2 2787   2.484   2.484   2.795 -0.0295  0.1473  0.8289
  930SOL     OW 2788   2.189   1.966   1.063  0.1755 -0.2510 -0.8012
  930SOL    HW1 2789   2.154   1.935   1.157 -1.8500  0.6408  1.0629
  930SOL    HW2 2790   2.253   2.045   1.072 -1.3105 -0.0717 -0.1975
  931SOL     OW 2791   0.556   1.715   2.701 -0.1683  0.1642 -0.1299
  931SOL    HW1 2792   0.581   1.759   2.796  1.3583  0.8775 -0.0943
  931SOL    HW2 2793   0.587   1.613   2.680  0.8415 -3.0683  2.9691
  932SOL     OW 2794   0.435   0.102   2.960 -0.0481 -0.1338  0.2823
  932SOL    HW1 2795   0.529   0.134   2.936 -1.2986 -1.8634  3.8678
  932SOL    HW2 2796   0.431   0.002   2.975  1.0101 -3.1731 -1.6360
  933SOL     OW 2797   1.036   0.772   3.045 -0.0017 -0.0395  0.3632
  933SOL    HW1 2798   1.040   0.821   3.137  0.6811  3.3878 -1.2228
  933SOL    HW2 2799   0.995   0.831   2.970  2.3365 -3.4220 -0.4337
  934SOL     OW 2800   0.813   2.924   2.650  0.6741 -0.4199  0.3427
  934SOL    HW1 2801   0.803   2.840   2.584  1.1930  0.6807 -0.6835
  934SOL    HW2 2802   0.866   2.896   2.739  1.9101  0.9909  2.0196
  935SOL     OW 2803   0.006   0.559   0.850  0.8337 -0.1746 -0.0349
  935SOL    HW1 2804  -0.025   0.537   0.753 -0.9270 -3.1285  1.7179
  935SOL    HW2 2805  -0.062   0.622   0.904 -1.0761  1.8539  2.1374
  936SOL     OW 2806   1.106   2.852   0.085 -0.1581  0.2445 -0.0101
  936SOL    HW1 2807   1.169   2.916   0.024  3.0421  2.0589 -1.4094
  936SOL    HW2 2808   1.166   2.780   0.134 -0.3126  2.6754  2.1085
  937SOL     OW 2809   1.960   2.633   2.090 -0.0280  0.1522  0.5836
  937SOL    HW1 2810   1.915   2.718   2.126 -1.2008 -1.2859 -1.9256
  937SOL    HW2 2811   2.007   2.644   2.004 -0.0514 -1.0858 -0.5988
  938SOL     OW 2812   2.780   2.069   1.542 -0.4415 -0.1712  0.0176
  938SOL    HW1 2813   2.747   2.162   1.571  2.0207 -1.7617 -1.2480
  938SOL    HW2 2814   2.879   2.048   1.560  0.3792 -1.8762 -1.5073
  939SOL     OW 2815   2.793   1.211   2.504 -0.4203  0.2621 -0.6690
  939SOL    HW1 2816   2.890   1.216   2.466  0.8933 -0.8372  0.8990
  939SOL    HW2 2817   2.784   1.120   2.563 -0.0157 -1.1675 -0.4760
  940SOL     OW 2818   1.027   0.455   2.731 -0.3412  0.8226  0.3615
  940SOL    HW1 2819   1.088   0.375   2.745 -1.0253 -1.8776  1.1838
  940SOL    HW2 2820   0.938   0.415   2.701 -0.9400  0.2137 -2.5408
  941SOL     OW 2821   0.058   2.815   2.269  0.3300  0.5162  0.2578
  941SOL    HW1 2822   0.109   2.721   2.243 -0.9029  2.0944  2.4831
  941SOL    HW2 2823   0.098   2.853   2.355 -1.3998 -1.5376 -0.7783
  942SOL     OW 2824   0.075   0.070   2.471 -0.8011 -0.2890  0.0024
  942SOL    HW1 2825   0.139   0.104   2.547  1.4091  2.0867  0.4964
  942SOL    HW2 2826   0.084   0.127   2.386 -0.5035  0.1956 -2.3699
  943SOL     OW 2827   2.124   1.726   2.403  0.0542 -0.0054 -0.0176
  943SOL    HW1 2828   2.102   1.664   2.325  0.3236  0.0267  0.0826
  943SOL    HW2 2829   2.103   1.683   2.496 -2.0964 -0.3326  3.6655
  944SOL     OW 2830   2.182   2.354   1.470 -0.1952  0.2443 -0.1882
  944SOL    HW1 2831   2.229   2.427   1.528  1.8531  1.8018 -1.1224
  944SOL    HW2 2832   2.165   2.275   1.535  1.0112 -0.5233 -0.7274
  945SOL     OW 2833   0.712   1.493   0.275  0.1184 -0.3114  0.5948
  945SOL    HW1 2834   0.677   1.527   0.184  1.9973  0.6376 -2.2794
  945SOL    HW2 2835   0.724   1.390   0.272  2.4216 -1.6886  1.6645
  946SOL     OW 2836   0.401   0.939   2.452 -0.0025 -0.4921  0.4696
  946SOL    HW1 2837   0.316   0.916   2.388 -1.2947 -0.0879 -1.6212
  946SOL    HW2 2838   0.380   1.020   2.515 -0.1070 -1.5300  2.2047
  947SOL     OW 2839   1.545   0.455   0.005  0.5921  0.4563  0.1636
  947SOL    HW1 2840   1.512   0.525  -0.066 -2.8001 -1.0722  3.1508
  947SOL    HW2 2841   1.462   0.401   0.033 -1.8188 -2.3422  1.4747
  948SOL     OW 2842   1.943   3.052   2.146  0.6483  0.1381 -0.3066
  948SOL    HW1 2843   1.984   3.004   2.064 -2.8898  0.9094  1.6934
  948SOL    HW2 2844   1.904   2.976   2.206 -0.8944  1.0516  1.4032
  949SOL     OW 2845   0.550   2.486   0.534  0.5055  0.1226  0.2277
  949SOL    HW1 2846   0.575   2.581   0.500  0.2270 -2.6073 -2.0405
  949SOL    HW2 2847   0.601   2.471   0.620 -1.6120  1.1751 -1.5947
  950SOL     OW 2848   0.217   2.193   3.030  0.2721 -0.3544  0.3421
  950SOL    HW1 2849   0.122   2.224   3.052  0.8956 -0.3194  0.1109
  950SOL    HW2 2850   0.218   2.121   2.952 -0.8013 -2.4646 -0.8034
  951SOL     OW 2851   1.238   2.726   2.739 -0.7456  0.5084 -0.2212
  951SOL    HW1 2852   1.315   2.767   2.679 -2.1238  1.4725  0.8125
  951SOL    HW2 2853   1.152   2.779   2.726 -0.9909  1.6091  0.9434
  952SOL     OW 2854   0.010   1.720   0.421  0.3160 -0.4977  0.6569
  952SOL    HW1 2855   0.054   1.807   0.415 -2.4292 -0.8877  0.4648
  952SOL    HW2 2856   0.037   1.652   0.496 -0.9851 -2.4452  2.0886
  953SOL     OW 2857   2.474   1.756   0.271 -0.2790  0.4260  0.2861
  953SOL    HW1 2858   2.505   1.656   0.269 -0.9269 -1.1293 -0.0512
  953SOL    HW2 2859   2.483   1.798   0.172 -0.4357 -1.3270  0.6354
  954SOL     OW 2860   2.197   0.553   0.965 -0.8690 -0.1003 -0.0931
  954SOL    HW1 2861   2.192   0.585   0.867  0.2340  0.3159 -1.8574
  954SOL    HW2 2862   2.297   0.548   0.998  1.0286 -1.4563  0.3128
  955SOL     OW 2863   0.188   2.622   1.280  0.1699 -0.0114  0.4162
  955SOL    HW1 2864   0.106   2.684   1.310 -1.0221 -0.9458  0.3951
  955SOL    HW2 2865   0.232   2.657   1.198  2.3060  1.4690  2.0512
  956SOL     OW 2866   2.755   2.433   2.444 -0.5053  0.0144 -0.1638
  956SOL    HW1 2867   2.777   2.338   2.408 -1.2019  2.9235  1.0432
  956SOL    HW2 2868   2.794   2.502   2.376 -2.0397  2.6323 -0.6234
  957SOL     OW 2869   1.588   2.074   2.792 -0.0770 -0.2163 -0.4493
  957SOL    HW1 2870   1.542   1.979   2.800  0.9242 -1.9473  2.6473
  957SOL    HW2 2871   1.635   2.081   2.698 -1.7160  0.0182 -1.6649
  958SOL     OW 2872   2.640   2.299   3.001 -0.1603  0.2007 -0.3940
  958SOL    HW1 2873   2.564   2.359   2.970  1.2141  0.7269 -0.1385
  958SOL    HW2 2874   2.623   2.246   3.088 -0.7176  3.0461 -1.7481
  959SOL     OW 2875   0.261   2.802   0.083 -0.3703 -0.6769  0.1406
  959SOL    HW1 2876   0.163   2.769   0.069 -1.4836 -0.9167  0.7141
  959SOL    HW2 2877   0.312   2.745   0.155  0.1698  0.8037 -0.6697
  960SOL     OW 2878   2.000   0.454   1.959 -0.5748 -0.4529 -0.3214
  960SOL    HW1 2879   1.924   0.504   1.913 -0.8919  0.1386  0.5630
  960SOL    HW2 2880   2.001   0.466   2.064 -2.1886 -0.5782 -2.8858
  961SOL     OW 2881   2.578   1.812   0.975  0.0329  0.4125  0.4062
  961SOL    HW1 2882   2.559   1.920   0.973 -1.5214  1.7650  0.4945
  961SOL    HW2 2883   2.551   1.763   1.065 -1.1589 -2.7905 -1.0290
  962SOL     OW 2884   1.320   0.881   0.083 -0.8414  0.1597 -0.2385
  962SOL    HW1 2885   1.322   0.928  -0.007  3.8739  0.9909 -1.6277
  962SOL    HW2 2886   1.310   0.942   0.168 -0.8591 -2.3795  2.3652
  963SOL     OW 2887   2.204   2.561   1.861  0.4311 -0.3584  0.0351
  963SOL    HW1 2888   2.184   2.475   1.909  2.7183  1.7843  1.1308
  963SOL    HW2 2889   2.227   2.643   1.923  0.4842 -1.7336 -2.6276
  964SOL     OW 2890   2.370   0.360   1.649  0.0473  0.2869 -0.6806
  964SOL    HW1 2891   2.463   0.382   1.690 -1.4618  4.2676 -1.8185
  964SOL    HW2 2892   2.372   0.350   1.547 -1.7287  0.2311  0.6541
  965SOL     OW 2893   2.634   3.060   0.118 -0.0373  0.0279  0.0596
  965SOL    HW1 2894   2.680   3.006   0.036  2.7125 -0.8351  1.0458
  965SOL    HW2 2895   2.543   3.099   0.094 -2.1273  0.1765  3.8767
  966SOL     OW 2896   2.524   2.491   2.209 -0.1651 -0.5058 -0.0728
  966SOL    HW1 2897   2.478   2.544   2.287 -2.9278  0.5686 -0.5823
  966SOL    HW2 2898   2.482   2.510   2.117 -1.8860 -1.2309  0.0106
  967SOL     OW 2899   2.797   2.794   2.500  0.3927 -0.3498  0.2256
  967SOL    HW1 2900   2.821   2.703   2.454 -0.1437 -1.6565  2.2770
  967SOL    HW2 2901   2.874   2.865   2.493  0.6885  2.5852 -1.6738
  968SOL     OW 2902   1.931   0.987   2.617  0.6542  0.3366 -0.1021
  968SOL    HW1 2903   1.883   1.036   2.539 -0.7584 -0.9704  1.1224
  968SOL    HW2 2904   1.992   0.921   2.575  1.9757  1.9551  0.7918
  969SOL     OW 2905   2.802   2.463   1.068 -0.8096 -0.3447 -0.4587
  969SOL    HW1 2906   2.724   2.436   1.001 -0.1179  0.8517 -0.3272
  969SOL    HW2 2907   2.844   2.381   1.113 -0.7397 -0.2018 -0.2904
  970SOL     OW 2908   1.037   2.128   1.777 -0.0632  0.2751 -0.3610
  970SOL    HW1 2909   0.942   2.148   1.737 -0.5271 -1.5081 -2.8463
  970SOL    HW2 2910   1.053   2.160   1.875  1.6277 -1.2531 -0.3627
  971SOL     OW 2911   2.869   2.069   1.865 -0.4019  0.0549  0.1197
  971SOL    HW1 2912   2.856   2.175   1.883  1.0849 -0.7154  2.2333
  971SOL    HW2 2913   2.920   2.058   1.772  0.6457 -1.6304 -3.4204
  972SOL     OW 2914   1.992   2.471   0.207 -0.3421 -0.1603 -0.4597
  972SOL    HW1 2915   2.006   2.401   0.135  0.2477  0.0435  2.4632
  972SOL    HW2 2916   2.002   2.427   0.300 -4.0122 -3.7108 -1.1318
  973SOL     OW 2917   1.300   1.065   1.880 -0.3934  0.2572 -0.2525
  973SOL    HW1 2918   1.264   1.026   1.787  0.6666 -1.2242  0.6473
  973SOL    HW2 2919   1.246   1.146   1.915  1.0400 -0.2736  1.0610
  974SOL     OW 2920   1.610   0.555   1.995  0.5521 -0.0273  0.4801
  974SOL    HW1 2921   1.695   0.571   1.934 -1.5452  0.7375 -0.9657
  974SOL    HW2 2922   1.532   0.628   1.973  0.4574 -2.3163 -3.1058
  975SOL     OW 2923   2.359   0.012   0.067 -0.4857 -0.3556 -0.3563
  975SOL    HW1 2924   2.316  -0.051   0.139  0.1590  1.0435 -1.1762
  975SOL    HW2 2925   2.352  -0.032  -0.025  0.3606 -0.3313  0.2504
  976SOL     OW 2926   1.909   2.844   2.331  0.3326 -0.3692 -0.5341
  976SOL    HW1 2927   1.807   2.842   2.302 -1.7727  1.7464 -1.1454
  976SOL    HW2 2928   1.931   2.787   2.414 -1.8619  1.6689  0.2227
  977SOL     OW 2929   0.458   0.688   1.061 -0.3431  0.1687  1.0390
  977SOL    HW1 2930   0.381   0.740   1.013 -2.3458  0.5120  0.9428
  977SOL    HW2 2931   0.531   0.648   0.993  1.0508 -1.0487 -1.5909
   3.10000   3.10000   3.10000
