1000 SPC/Fw water molecules t=   1.25000 step= 1250
 2931
    1SOL     OW    1   2.547   0.344   2.607  0.4553 -0.2091  0.0564
    1SOL    HW1    2   2.547   0.242   2.612 -1.1223  2.5488 -0.2921
    1SOL    HW2    3   2.593   0.388   2.689 -2.0874  0.3355  2.6781
    2SOL     OW    4   2.766   2.984   1.376 -0.4359  0.2743 -0.2740
    2SOL    HW1    5   2.833   3.012   1.298  2.3384 -1.1706  1.3507
    2SOL    HW2    6   2.735   3.067   1.432  2.6291 -0.6206  0.0711
    3SOL     OW    7   2.622   2.587   0.434 -0.5773 -0.6202 -0.0968
    3SOL    HW1    8   2.601   2.485   0.418 -0.1906 -2.1777 -0.8760
    3SOL    HW2    9   2.674   2.609   0.519 -0.7111 -0.2045 -0.2530
    4SOL     OW   10   1.255   1.524   2.379 -0.1713 -0.1908  0.3694
    4SOL    HW1   11   1.187   1.550   2.305  0.6377  0.0673  3.4893
    4SOL    HW2   12   1.272   1.419   2.381 -0.4532 -0.3453 -0.3028
    5SOL     OW   13   1.178   1.580   2.972  0.1487  0.0000 -1.1453
    5SOL    HW1   14   1.244   1.659   2.992  1.5934  0.4204 -2.8735
    5SOL    HW2   15   1.080   1.608   2.971  2.0544 -1.0806  0.9444
    6SOL     OW   16   0.266   1.821   3.030  0.8262 -0.0605  0.7191
    6SOL    HW1   17   0.169   1.796   3.051  2.6023  3.2541 -0.5128
    6SOL    HW2   18   0.328   1.802   3.105  0.1363  2.8861 -0.9358
    7SOL     OW   19   2.529   0.837   1.068 -0.0826 -0.3764  0.0884
    7SOL    HW1   20   2.433   0.820   1.107 -1.1023 -0.7656 -0.2081
    7SOL    HW2   21   2.544   0.787   0.980 -1.9400  1.6585 -1.8571
    8SOL     OW   22   0.425   0.604   1.457 -0.8084  0.1920  0.4426
    8SOL    HW1   23   0.510   0.563   1.497  1.1442  0.1264  1.6717
    8SOL    HW2   24   0.403   0.575   1.360 -0.0400  0.4420  0.4886
    9SOL     OW   25   1.170   0.839   2.413  0.1441 -0.3155  0.2330
    9SOL    HW1   26   1.180   0.882   2.319 -2.2293  1.5906  2.0086
    9SOL    HW2   27   1.117   0.748   2.422  0.6653  1.7930 -0.2597
   10SOL     OW   28   0.655   1.366   1.303  0.2818  0.1947  0.2613
   10SOL    HW1   29   0.562   1.381   1.257 -1.4081  2.3221 -3.5951
   10SOL    HW2   30   0.725   1.445   1.290 -0.0116 -0.3598  0.0985
   11SOL     OW   31   2.310   2.814   0.821 -0.0038  0.6512 -0.1638
   11SOL    HW1   32   2.283   2.836   0.923 -0.3772  0.4258 -1.6730
   11SOL    HW2   33   2.412   2.795   0.811  2.0730 -1.4248 -1.7949
   12SOL     OW   34   1.482   0.814   0.439  0.4405 -0.2103  0.0511
   12SOL    HW1   35   1.427   0.854   0.364  3.0521 -0.6605 -0.3100
   12SOL    HW2   36   1.545   0.739   0.405 -1.1649 -1.0556  1.3649
   13SOL     OW   37   2.425   0.740   1.752 -0.1886  0.1957 -0.0379
   13SOL    HW1   38   2.357   0.680   1.806  0.3433 -2.4892  1.2670
   13SOL    HW2   39   2.454   0.709   1.659 -2.5546 -1.6422 -0.4488
   14SOL     OW   40   1.888   0.064   0.676  0.7133  0.1380 -0.5460
   14SOL    HW1   41   1.797   0.077   0.627 -0.4295 -0.5607  1.4587
   14SOL    HW2   42   1.887  -0.022   0.732  0.4342 -0.5638 -2.0768
   15SOL     OW   43   1.887   2.099   2.687  0.3362  0.0675 -0.5708
   15SOL    HW1   44   1.829   2.182   2.717  0.5937  0.2152  1.0111
   15SOL    HW2   45   1.846   2.009   2.715  2.4717 -0.0675 -0.6356
   16SOL     OW   46   1.585   1.698   3.001  0.1440  0.2623  0.1577
   16SOL    HW1   47   1.590   1.602   3.045 -0.1105 -0.2135 -2.7084
   16SOL    HW2   48   1.683   1.743   3.009  2.7906 -0.3745 -1.1606
   17SOL     OW   49   0.111   0.463   0.164  0.6725 -0.3305  0.5386
   17SOL    HW1   50   0.183   0.516   0.109  2.3193  0.4187 -0.7330
   17SOL    HW2   51   0.013   0.497   0.139 -2.6715  0.2071  0.4651
   18SOL     OW   52   0.936   2.951   2.160 -0.0717 -0.4535 -0.0574
   18SOL    HW1   53   0.849   2.892   2.157 -2.3759 -1.9284  0.2436
   18SOL    HW2   54   0.961   2.977   2.060 -0.2183  1.1021  0.4655
   19SOL     OW   55   0.490   0.840   1.893  0.2862 -0.2306 -0.0362
   19SOL    HW1   56   0.523   0.818   1.990  1.6336  1.9308  0.2367
   19SOL    HW2   57   0.549   0.912   1.847  2.0286  1.8497  0.5091
   20SOL     OW   58   0.204   2.823   0.858  0.1296 -0.1667 -0.2911
   20SOL    HW1   59   0.144   2.898   0.815  2.9670  3.5077  0.7074
   20SOL    HW2   60   0.227   2.746   0.788  1.8127 -0.2581 -2.6794
   21SOL     OW   61   2.742   0.253   1.960 -0.3706 -0.0856 -0.1171
   21SOL    HW1   62   2.701   0.175   1.902 -1.2221  0.3435 -2.9064
   21SOL    HW2   63   2.822   0.215   2.018  0.1425  0.2859 -3.3969
   22SOL     OW   64   2.330   0.195   0.145  0.2387 -0.2998 -0.0776
   22SOL    HW1   65   2.352   0.107   0.092 -0.4663 -2.6324 -3.5057
   22SOL    HW2   66   2.293   0.271   0.076  1.1693  3.1408 -1.3763
   23SOL     OW   67   2.817   0.574   0.678  0.2505 -0.5456  0.0392
   23SOL    HW1   68   2.793   0.491   0.619 -0.6514 -0.8079 -2.6944
   23SOL    HW2   69   2.821   0.660   0.619 -0.5976  1.3482 -0.5875
   24SOL     OW   70   0.238   1.919   0.459  0.4112 -0.5419  0.4033
   24SOL    HW1   71   0.198   1.996   0.403  2.3866  3.5902  0.4139
   24SOL    HW2   72   0.342   1.902   0.439  2.4003  1.1109  2.4576
   25SOL     OW   73   2.217   0.627   0.197 -0.0869  0.2310 -0.6164
   25SOL    HW1   74   2.225   0.624   0.096  2.5726  1.1018  0.4196
   25SOL    HW2   75   2.259   0.543   0.247  1.8051 -0.4116 -0.5822
   26SOL     OW   76   2.468   2.148   2.051 -0.8028 -0.0257  0.8799
   26SOL    HW1   77   2.551   2.211   2.068  1.1486  0.9926 -0.8843
   26SOL    HW2   78   2.482   2.088   1.964  2.0571 -1.9928  0.1558
   27SOL     OW   79   0.655   2.908   0.288 -0.2095  0.0810  0.1698
   27SOL    HW1   80   0.744   2.949   0.259  0.3996  0.7342 -1.2640
   27SOL    HW2   81   0.602   2.877   0.205  1.4165  0.9605 -0.4731
   28SOL     OW   82   1.569   0.140   0.307 -0.4072 -0.5426  0.4258
   28SOL    HW1   83   1.634   0.106   0.234 -1.8949 -0.3906  0.5989
   28SOL    HW2   84   1.587   0.237   0.333  1.6193 -1.4195 -0.0577
   29SOL     OW   85   1.963   0.563   0.288 -0.5697  0.0587 -0.0769
   29SOL    HW1   86   1.898   0.611   0.350 -1.7047 -0.5814  1.2643
   29SOL    HW2   87   2.031   0.633   0.259  1.9486  0.1274  2.4201
   30SOL     OW   88   0.194   2.080   0.897 -0.4467 -0.1121 -0.4712
   30SOL    HW1   89   0.134   2.006   0.857  0.0869  0.4910  0.0747
   30SOL    HW2   90   0.134   2.156   0.931  1.4349 -0.3537  0.1483
   31SOL     OW   91   2.116   0.090   2.390  0.2794  0.0858  0.2650
   31SOL    HW1   92   2.076   0.057   2.480  1.7380  3.0539 -0.2078
   31SOL    HW2   93   2.064   0.055   2.309 -0.6684 -0.4303  2.8046
   32SOL     OW   94   2.949   0.042   0.243 -0.7043  0.1494  0.2985
   32SOL    HW1   95   2.924  -0.054   0.274 -1.6555  1.4608 -0.6584
   32SOL    HW2   96   3.045   0.079   0.270  2.5775  2.1387  1.9914
   33SOL     OW   97   0.876   0.315   0.612 -0.0965 -0.4187 -0.1360
   33SOL    HW1   98   0.879   0.222   0.571  1.8442 -0.5478 -0.8520
   33SOL    HW2   99   0.971   0.359   0.628  0.6765  2.7347 -1.3385
   34SOL     OW  100   0.336   2.713   1.113 -0.0362  0.2227  0.1917
   34SOL    HW1  101   0.287   2.769   1.040 -2.0027  0.2914  0.9136
   34SOL    HW2  102   0.429   2.752   1.143  1.5062 -0.9301 -1.2043
   35SOL     OW  103   0.009   0.129   1.879 -0.3904 -0.3813 -0.4206
   35SOL    HW1  104   0.067   0.048   1.905  0.2431  0.2425  0.0754
   35SOL    HW2  105  -0.044   0.122   1.786 -0.5442  1.5949 -0.2602
   36SOL     OW  106   1.862   1.231   1.563  0.4796  0.2090 -0.1680
   36SOL    HW1  107   1.938   1.163   1.572 -4.5779 -3.2848 -1.4897
   36SOL    HW2  108   1.891   1.314   1.504 -0.4569  1.5244  0.7097
   37SOL     OW  109   1.198   0.235   0.948  0.0744 -0.1637  0.1117
   37SOL    HW1  110   1.249   0.318   0.979  0.5212  0.0019  0.6136
   37SOL    HW2  111   1.257   0.151   0.932  0.9425 -2.1690  2.5162
   38SOL     OW  112   1.161   2.848   2.369  0.2234  0.2299 -0.7613
   38SOL    HW1  113   1.104   2.765   2.377  0.4452  2.7638  1.3427
   38SOL    HW2  114   1.102   2.919   2.319 -2.4490  3.1124 -1.2036
   39SOL     OW  115   2.328   1.372   3.027  0.6062 -0.5432 -0.1803
   39SOL    HW1  116   2.389   1.284   3.031  0.3934 -2.0714 -0.4223
   39SOL    HW2  117   2.300   1.401   3.127 -0.2470 -1.0890  0.5848
   40SOL     OW  118   1.980   2.469   2.626  0.0754  0.1348 -0.6006
   40SOL    HW1  119   1.985   2.572   2.604  1.8201 -1.8127 -1.8215
   40SOL    HW2  120   1.957   2.414   2.541 -0.6165 -1.4481 -0.6880
   41SOL     OW  121   3.022   0.645   2.815  0.4605  0.1140  0.0134
   41SOL    HW1  122   2.929   0.685   2.799 -0.8330  0.7229  1.5490
   41SOL    HW2  123   3.039   0.555   2.764 -1.3548 -2.2834 -1.5124
   42SOL     OW  124   1.734   1.800   0.494  0.2664 -0.2940  0.6669
   42SOL    HW1  125   1.686   1.711   0.494 -0.4664  3.0063 -0.8095
   42SOL    HW2  126   1.757   1.829   0.395  0.9244 -0.2663  0.0920
   43SOL     OW  127   0.448   1.669   1.194  0.4148 -0.8050  0.3456
   43SOL    HW1  128   0.418   1.576   1.161  1.1425  1.8932  2.3894
   43SOL    HW2  129   0.405   1.688   1.287  0.2287  0.6432  2.3864
   44SOL     OW  130   1.695   2.353   3.010  0.2567  0.6291  0.0505
   44SOL    HW1  131   1.607   2.410   3.027 -3.3937 -0.2983  0.3321
   44SOL    HW2  132   1.726   2.366   2.909  1.3176 -0.1615 -0.3612
   45SOL     OW  133   0.344   1.895   2.579  0.2261  0.3047 -0.2937
   45SOL    HW1  134   0.318   1.874   2.480 -0.0342  1.1944  0.2471
   45SOL    HW2  135   0.420   1.829   2.612  0.5210  0.8635  0.5190
   46SOL     OW  136   1.269   0.641   0.141  0.3840  0.3485 -0.0314
   46SOL    HW1  137   1.274   0.740   0.108  0.7471 -1.5222 -1.8123
   46SOL    HW2  138   1.174   0.608   0.167 -0.5415  0.2912  1.1104
   47SOL     OW  139   0.199   2.498   1.589 -0.3727 -0.3682 -0.4529
   47SOL    HW1  140   0.187   2.396   1.604  1.2244 -0.7643  2.3023
   47SOL    HW2  141   0.197   2.522   1.490 -1.3643  1.2896  1.6373
   48SOL     OW  142   2.634   0.610   0.140  0.4576 -0.1583 -0.1028
   48SOL    HW1  143   2.629   0.610   0.248 -0.9560  1.5507  2.1429
   48SOL    HW2  144   2.720   0.656   0.104  2.0033  0.9531 -1.7351
   49SOL     OW  145   0.316   0.759   1.657  0.1736  0.3890  0.8070
   49SOL    HW1  146   0.379   0.751   1.739 -1.4167  0.8333  1.5293
   49SOL    HW2  147   0.350   0.717   1.566 -0.7163  0.6430 -2.0546
   50SOL     OW  148   1.696   1.113   0.319  0.0550  0.2024 -0.3200
   50SOL    HW1  149   1.738   1.020   0.281  1.8608 -1.6039  2.3275
   50SOL    HW2  150   1.646   1.100   0.413  1.0567  2.6294  0.9153
   51SOL     OW  151   2.994   1.732   0.253  0.2951 -0.1326 -0.4281
   51SOL    HW1  152   2.916   1.665   0.232 -1.5447 -1.3937  2.4141
   51SOL    HW2  153   3.069   1.682   0.302  0.3695  1.5695  0.6498
   52SOL     OW  154   0.807   2.147   0.622 -0.0690  0.0396 -0.0186
   52SOL    HW1  155   0.821   2.219   0.699  0.7913  3.2788  0.9783
   52SOL    HW2  156   0.854   2.058   0.643 -0.4336  1.5519  0.0520
   53SOL     OW  157   0.184   0.458   1.580  0.2895 -0.2561 -0.6230
   53SOL    HW1  158   0.251   0.534   1.551 -0.4664 -0.9270  0.9515
   53SOL    HW2  159   0.081   0.479   1.559 -1.0446  0.7739  4.4583
   54SOL     OW  160   1.803   0.500   3.046  0.5185 -0.0398  0.4437
   54SOL    HW1  161   1.862   0.442   3.107  1.1623 -1.6150  1.7560
   54SOL    HW2  162   1.701   0.504   3.070 -1.8090 -0.7519 -0.8052
   55SOL     OW  163   0.766   2.873   0.703 -0.0800  0.0694  0.6455
   55SOL    HW1  164   0.749   2.970   0.722  0.6381  0.2673  0.6118
   55SOL    HW2  165   0.857   2.854   0.659  0.1542  3.3830  0.4745
   56SOL     OW  166   0.571   1.601   0.032 -0.4488  0.8479  0.0217
   56SOL    HW1  167   0.497   1.658   0.078  0.6015  1.7536  1.0864
   56SOL    HW2  168   0.533   1.513  -0.009  0.0748 -1.2808 -0.5005
   57SOL     OW  169   1.746   2.516   2.375  0.5493 -0.1265  0.3913
   57SOL    HW1  170   1.812   2.436   2.359 -2.7725  1.3947  0.5423
   57SOL    HW2  171   1.667   2.485   2.443 -1.4148 -0.3568  1.1334
   58SOL     OW  172   0.666   0.250   1.115 -0.1667 -0.7250  0.6051
   58SOL    HW1  173   0.592   0.275   1.184 -0.0181 -3.8737 -0.9662
   58SOL    HW2  174   0.680   0.150   1.111 -1.9077  0.1997 -0.5708
   59SOL     OW  175   0.394   2.366   2.734  0.9573  0.4142  0.2243
   59SOL    HW1  176   0.403   2.279   2.682 -2.5249 -0.8394  1.1198
   59SOL    HW2  177   0.470   2.375   2.810 -1.6141  0.4467  3.4175
   60SOL     OW  178   2.325   2.105   2.321  0.1606  0.0368  0.0336
   60SOL    HW1  179   2.398   2.112   2.245  3.3498  0.0869  0.9712
   60SOL    HW2  180   2.351   2.160   2.410 -0.4473  1.6403  2.2948
   61SOL     OW  181   1.248   0.595   0.422 -0.3739  0.1855 -0.0281
   61SOL    HW1  182   1.143   0.606   0.426 -5.7443 -0.4754  2.0030
   61SOL    HW2  183   1.282   0.619   0.327 -1.5051  1.1947 -0.3502
   62SOL     OW  184   2.728   1.725   2.872 -0.4957 -0.6426 -0.6406
   62SOL    HW1  185   2.710   1.790   2.793 -1.2385  1.8776  1.7037
   62SOL    HW2  186   2.828   1.696   2.877  0.3246 -2.0786  0.8041
   63SOL     OW  187   0.577   0.866   0.213  0.2020  0.7813  0.1280
   63SOL    HW1  188   0.602   0.951   0.158  1.1223  0.6740 -0.2765
   63SOL    HW2  189   0.629   0.866   0.302  0.7610  0.3167  1.0653
   64SOL     OW  190   3.055   0.541   2.453 -0.7618  0.4238 -0.5588
   64SOL    HW1  191   2.963   0.589   2.481 -2.9783  3.1622 -3.3691
   64SOL    HW2  192   3.092   0.576   2.363 -3.1521  2.1240 -1.0259
   65SOL     OW  193   0.225   1.479   0.672 -0.1600 -0.9635  0.0077
   65SOL    HW1  194   0.241   1.539   0.755  3.5560 -0.2787  0.6568
   65SOL    HW2  195   0.311   1.464   0.619 -1.2298 -0.6549  4.0003
   66SOL     OW  196   2.511   0.387   0.545 -0.1339  0.1096 -0.7474
   66SOL    HW1  197   2.599   0.348   0.523 -1.8834  2.1020 -0.8640
   66SOL    HW2  198   2.454   0.316   0.596  0.0034 -0.1058  0.7893
   67SOL     OW  199   0.617   2.465   1.417  0.0142  0.2519 -0.0699
   67SOL    HW1  200   0.696   2.444   1.479  1.0113 -0.0567  0.3840
   67SOL    HW2  201   0.557   2.382   1.401 -1.3728  2.0583  0.0711
   68SOL     OW  202   0.979   1.015   2.529  0.3195 -0.3732  0.2174
   68SOL    HW1  203   1.051   0.937   2.505  3.2945  0.7017 -1.0207
   68SOL    HW2  204   0.927   1.044   2.438 -2.0056 -0.7713 -1.1751
   69SOL     OW  205   0.732   2.771   2.211  0.6460 -0.0498  0.2716
   69SOL    HW1  206   0.767   2.670   2.211 -1.6961 -0.6259 -1.5887
   69SOL    HW2  207   0.631   2.775   2.210  3.6885 -0.5341  2.4658
   70SOL     OW  208   0.456   0.124   2.566 -0.1375 -0.2821 -0.6561
   70SOL    HW1  209   0.374   0.102   2.623  3.1805  0.5777  1.3785
   70SOL    HW2  210   0.534   0.062   2.590  1.8347 -0.2986 -0.2440
   71SOL     OW  211   1.125   1.793   0.365  0.8048 -0.3804 -0.3068
   71SOL    HW1  212   1.079   1.722   0.422  2.6918  0.6265 -1.2033
   71SOL    HW2  213   1.084   1.803   0.267 -1.3312  2.5545 -2.7699
   72SOL     OW  214   1.826   0.169   2.171 -0.6617 -0.2747 -0.1150
   72SOL    HW1  215   1.879   0.254   2.207  1.5994  1.6603 -0.4478
   72SOL    HW2  216   1.878   0.091   2.136  0.8048  1.4952 -0.6842
   73SOL     OW  217   2.806   2.153   2.358 -0.1845 -0.5822  0.1490
   73SOL    HW1  218   2.815   2.051   2.356  2.2831 -1.4332 -0.1705
   73SOL    HW2  219   2.876   2.194   2.426  1.1374 -0.0567  0.4007
   74SOL     OW  220   2.633   2.863   2.191  0.1396 -0.0174 -0.0522
   74SOL    HW1  221   2.600   2.841   2.290  1.1725  2.1756  0.4346
   74SOL    HW2  222   2.720   2.914   2.192  1.9232  1.0224  1.1211
   75SOL     OW  223   0.973   0.852   1.067 -0.8479  0.4176  0.2435
   75SOL    HW1  224   0.894   0.896   1.018  1.7719 -1.7694 -0.2720
   75SOL    HW2  225   0.972   0.884   1.167  1.7177  0.0789 -1.5474
   76SOL     OW  226   1.798   1.217   2.465  0.5044 -0.1808 -0.1708
   76SOL    HW1  227   1.694   1.212   2.482 -1.1394  0.5039  1.8739
   76SOL    HW2  228   1.824   1.315   2.486  1.5915  2.1866 -2.1540
   77SOL     OW  229   2.947   0.921   1.030  0.0187 -0.6849  0.3149
   77SOL    HW1  230   2.941   0.822   1.000 -1.1489  0.3335  0.9982
   77SOL    HW2  231   3.030   0.942   1.090 -0.1096  1.3534 -0.1727
   78SOL     OW  232   1.988   1.437   1.443  0.1639 -0.7683  0.0443
   78SOL    HW1  233   2.091   1.425   1.437 -0.7500 -0.0030 -0.6237
   78SOL    HW2  234   1.954   1.484   1.357  1.0118 -1.9947 -1.1625
   79SOL     OW  235   0.621   1.428   0.794 -0.2573 -0.1853  0.3416
   79SOL    HW1  236   0.523   1.417   0.817 -0.2728  3.3230 -0.3727
   79SOL    HW2  237   0.642   1.359   0.719  0.8470  0.6763  0.7581
   80SOL     OW  238   0.659   0.463   1.539  0.2794  0.1976 -0.4040
   80SOL    HW1  239   0.710   0.532   1.487  0.6421  0.5106  0.5210
   80SOL    HW2  240   0.684   0.368   1.513 -0.7318  1.4435  0.2916
   81SOL     OW  241   1.001   1.299   2.607 -0.2986  0.4465 -0.0165
   81SOL    HW1  242   0.999   1.198   2.599  0.8776  1.5823  1.7073
   81SOL    HW2  243   0.927   1.343   2.552  0.5669  0.2948 -0.1851
   82SOL     OW  244   0.936   2.940   1.494  1.0622 -1.1781  0.3015
   82SOL    HW1  245   0.846   2.959   1.449  0.5385 -2.7257  0.6299
   82SOL    HW2  246   1.014   2.940   1.431 -0.4438 -0.7722  0.2796
   83SOL     OW  247   2.587   2.374   0.859  0.0706 -0.0504  0.1206
   83SOL    HW1  248   2.556   2.374   0.957  0.0510 -1.8109 -2.2864
   83SOL    HW2  249   2.515   2.346   0.795 -0.1548 -1.0448 -0.0580
   84SOL     OW  250   0.731   3.089   2.392 -0.2771  0.6592 -0.1197
   84SOL    HW1  251   0.680   3.045   2.474  0.6106 -1.6294 -0.4368
   84SOL    HW2  252   0.805   3.033   2.355 -0.5089  0.5349  0.7792
   85SOL     OW  253   0.253   1.617   1.456 -0.0341 -0.6345 -0.2555
   85SOL    HW1  254   0.235   1.721   1.445 -1.9240  3.4411 -0.4420
   85SOL    HW2  255   0.312   1.603   1.542  2.1540  0.4575 -0.4385
   86SOL     OW  256   0.456   1.085   1.484 -0.1831 -0.5003  0.2990
   86SOL    HW1  257   0.400   1.013   1.433 -1.4426  1.4959  2.7744
   86SOL    HW2  258   0.554   1.058   1.493 -2.5615  0.5306 -0.2706
   87SOL     OW  259   1.656   0.677   0.284 -0.0733  0.6894  0.0250
   87SOL    HW1  260   1.715   0.759   0.259 -2.0902 -1.6419  0.6833
   87SOL    HW2  261   1.617   0.626   0.206  3.3711 -1.0242  1.4274
   88SOL     OW  262   1.565   1.343   0.268 -0.9416 -0.1842  0.1290
   88SOL    HW1  263   1.615   1.252   0.264 -1.2555 -1.3196 -1.3996
   88SOL    HW2  264   1.465   1.339   0.290 -2.2910  0.9403 -0.4849
   89SOL     OW  265   3.090   0.373   0.606 -0.3859 -0.8896  0.0545
   89SOL    HW1  266   3.144   0.287   0.581 -0.7105 -0.4706 -0.4420
   89SOL    HW2  267   2.991   0.363   0.575  3.9341 -1.5950  1.3248
   90SOL     OW  268   0.848   1.562   0.098 -0.0868 -0.0471  0.4074
   90SOL    HW1  269   0.884   1.480   0.047  1.1359 -0.6347 -1.6190
   90SOL    HW2  270   0.749   1.581   0.077  0.4072  1.3259  2.0109
   91SOL     OW  271   1.211   1.452   1.774 -0.1928 -0.2144 -0.3649
   91SOL    HW1  272   1.185   1.535   1.834 -2.6367  3.5588 -1.8626
   91SOL    HW2  273   1.314   1.449   1.766 -0.6301 -0.5276 -2.1936
   92SOL     OW  274   0.015   0.948   1.249 -0.0223 -0.0103 -0.1059
   92SOL    HW1  275   0.053   1.037   1.211 -0.3994 -1.0590 -1.8473
   92SOL    HW2  276   0.003   0.944   1.354  2.1708 -1.1340 -0.7001
   93SOL     OW  277   3.058   2.706   0.056  0.6240 -0.5416 -0.2281
   93SOL    HW1  278   3.021   2.702  -0.042 -0.2809  0.0217  1.4851
   93SOL    HW2  279   3.104   2.616   0.087 -1.0639 -0.1355  3.3854
   94SOL     OW  280   1.491   1.450   1.785  0.4389 -0.2040 -0.0533
   94SOL    HW1  281   1.556   1.371   1.808 -1.5119 -1.6458 -0.4717
   94SOL    HW2  282   1.532   1.545   1.791 -0.0029  1.3820 -1.8757
   95SOL     OW  283   1.452   2.507   2.969 -0.8607  0.0211  0.2081
   95SOL    HW1  284   1.367   2.546   3.007 -1.3557  2.3010 -0.6997
   95SOL    HW2  285   1.431   2.429   2.898 -1.9671 -1.1106 -0.6198
   96SOL     OW  286   0.561   2.099   1.315  0.0971 -0.2963 -0.0634
   96SOL    HW1  287   0.510   2.052   1.240  1.0936 -0.9715  1.0031
   96SOL    HW2  288   0.634   2.044   1.364  1.1245  0.5549  1.8437
   97SOL     OW  289   0.308   1.597   2.462 -0.3302  0.2992  0.0651
   97SOL    HW1  290   0.283   1.661   2.383 -1.1297 -0.2887 -0.0996
   97SOL    HW2  291   0.274   1.623   2.555  0.1290 -2.5510  0.6166
   98SOL     OW  292   2.129   1.595   1.217  0.7672 -0.0526 -0.4089
   98SOL    HW1  293   2.037   1.557   1.194  0.5130 -0.6832  0.8022
   98SOL    HW2  294   2.208   1.567   1.161  0.7711  0.1427  1.1573
   99SOL     OW  295   2.574   2.077   1.283  0.2869  0.2069 -0.3374
   99SOL    HW1  296   2.593   2.103   1.380 -3.0298  3.3242  2.4737
   99SOL    HW2  297   2.527   1.984   1.276 -0.7401  1.0346 -1.7627
  100SOL     OW  298   2.282   0.408   2.084  0.1449  0.0371  0.3075
  100SOL    HW1  299   2.221   0.403   2.165  2.5930  2.9710  2.6876
  100SOL    HW2  300   2.380   0.419   2.111  1.2591 -1.4383 -1.6089
  101SOL     OW  301   0.418   1.513   0.456 -0.7329  0.3155  0.5767
  101SOL    HW1  302   0.444   1.574   0.539 -0.4090  0.6158 -0.0011
  101SOL    HW2  303   0.501   1.484   0.402 -2.5938 -0.8991  1.4174
  102SOL     OW  304   2.286   1.076   0.838 -0.1423 -0.3491  0.2025
  102SOL    HW1  305   2.212   1.012   0.794  0.9704 -1.3220  1.4066
  102SOL    HW2  306   2.384   1.068   0.797  2.2845 -1.7216 -1.3553
  103SOL     OW  307   2.212   0.124   0.387 -0.0325  0.4222  0.0448
  103SOL    HW1  308   2.252   0.145   0.292 -0.9784  0.9280 -2.5315
  103SOL    HW2  309   2.282   0.086   0.454 -2.7089 -1.7135 -0.8246
  104SOL     OW  310   0.053   1.903   2.102 -0.0867  0.3559 -0.1740
  104SOL    HW1  311   0.081   1.863   2.007  1.6482 -1.5152 -0.9982
  104SOL    HW2  312  -0.050   1.910   2.108  1.1099 -0.0453  0.3395
  105SOL     OW  313   1.254   2.121   0.814 -0.3500 -0.2187  0.3451
  105SOL    HW1  314   1.207   2.169   0.739 -1.3740 -1.0328  0.5024
  105SOL    HW2  315   1.279   2.027   0.783 -0.4184  1.2754  1.2504
  106SOL     OW  316   2.098   0.354   1.446 -0.6774  0.0550 -0.0473
  106SOL    HW1  317   2.076   0.256   1.475 -2.2488  0.9602 -2.1082
  106SOL    HW2  318   2.094   0.424   1.525  0.4413 -0.5027 -1.6051
  107SOL     OW  319   1.934   2.946   1.196  0.6664  0.0508 -0.6878
  107SOL    HW1  320   1.896   3.031   1.243 -2.4837  1.5700  0.8460
  107SOL    HW2  321   1.865   2.868   1.189  1.6296 -1.6762 -1.6144
  108SOL     OW  322   0.857   2.814   1.215  0.2190  0.5173 -0.6553
  108SOL    HW1  323   0.866   2.737   1.287  0.2288 -0.8917 -1.6195
  108SOL    HW2  324   0.949   2.860   1.198 -0.7979  0.5699 -2.5825
  109SOL     OW  325   2.132   0.144   0.760  0.1977 -0.0473  0.3426
  109SOL    HW1  326   2.044   0.116   0.710  0.5620 -0.0347 -1.6728
  109SOL    HW2  327   2.130   0.116   0.861 -2.0019 -0.1837  1.3395
  110SOL     OW  328   0.452   2.798   2.766  0.6901 -0.1036 -0.1785
  110SOL    HW1  329   0.445   2.787   2.666  0.9645  1.1576 -0.7986
  110SOL    HW2  330   0.508   2.719   2.812 -0.1295 -1.3039 -2.1129
  111SOL     OW  331   1.270   0.475   2.322  0.2793  0.2806  0.4769
  111SOL    HW1  332   1.192   0.521   2.376  0.4075  0.8624 -0.4459
  111SOL    HW2  333   1.334   0.428   2.384 -0.9004  0.2151  0.8987
  112SOL     OW  334   1.763   0.454   1.480 -0.0781 -0.0819 -0.2324
  112SOL    HW1  335   1.724   0.459   1.382 -0.8551 -0.4815 -3.0197
  112SOL    HW2  336   1.689   0.420   1.548  1.7191 -2.3118  1.0934
  113SOL     OW  337   2.357   1.671   1.724  0.3702  0.9984  0.2854
  113SOL    HW1  338   2.430   1.600   1.735 -1.6308  1.5513 -0.3205
  113SOL    HW2  339   2.372   1.753   1.781  2.4968  0.1831 -2.1178
  114SOL     OW  340   0.323   0.544   1.217 -0.2424 -0.6936  0.0055
  114SOL    HW1  341   0.359   0.593   1.132  0.0320 -0.0309 -0.8550
  114SOL    HW2  342   0.217   0.569   1.232 -0.8756 -0.1249 -1.9058
  115SOL     OW  343   2.803   1.578   1.287  0.6106 -0.3248 -0.3221
  115SOL    HW1  344   2.783   1.479   1.298  0.6972 -2.7863  0.0498
  115SOL    HW2  345   2.891   1.595   1.236 -0.8150  0.7108  0.8085
  116SOL     OW  346   1.847   1.001   0.644  0.4993 -0.4994  0.2932
  116SOL    HW1  347   1.755   0.952   0.640  2.9358  1.7647  2.0357
  116SOL    HW2  348   1.842   1.104   0.631 -1.9541 -3.7150  1.0325
  117SOL     OW  349   1.173   0.364   0.562  0.3800  0.2345 -0.4609
  117SOL    HW1  350   1.234   0.439   0.541  0.0708 -1.2146 -0.7997
  117SOL    HW2  351   1.131   0.319   0.473 -0.7164  0.6146 -1.2790
  118SOL     OW  352   1.062   1.206   1.097  0.2936  0.1430 -0.4122
  118SOL    HW1  353   1.030   1.152   1.175 -0.5372  2.0596 -0.5945
  118SOL    HW2  354   1.078   1.302   1.124 -3.0773 -1.2637 -0.6843
  119SOL     OW  355   1.838   1.598   2.197  0.2663  0.2589  0.3329
  119SOL    HW1  356   1.794   1.681   2.157 -0.4513 -1.2363 -0.4179
  119SOL    HW2  357   1.927   1.572   2.149  0.5717 -1.3748 -0.9548
  120SOL     OW  358   2.895   2.826   0.230 -0.0142 -0.4990  0.4015
  120SOL    HW1  359   2.952   2.780   0.157  1.8181 -0.4029 -0.8473
  120SOL    HW2  360   2.800   2.782   0.236 -0.8364 -1.4861  2.4177
  121SOL     OW  361   1.874   0.719   2.171 -0.5669 -0.3170 -0.3863
  121SOL    HW1  362   1.914   0.757   2.081  1.6497  3.0457  0.4925
  121SOL    HW2  363   1.885   0.615   2.173  3.0167 -1.3254 -1.7377
  122SOL     OW  364   2.650   2.556   1.346 -0.0441  0.0674  0.2671
  122SOL    HW1  365   2.638   2.563   1.243  1.6466 -1.9089 -0.1973
  122SOL    HW2  366   2.591   2.486   1.398 -1.2256 -0.2578  4.5320
  123SOL     OW  367   1.724   0.114   1.710  0.1993  0.5613  0.2164
  123SOL    HW1  368   1.724   0.032   1.653  1.1671  4.8369  0.0625
  123SOL    HW2  369   1.815   0.130   1.751  2.4794  0.2944  0.2623
  124SOL     OW  370   3.091   0.448   1.081 -0.4885  0.6304 -0.1334
  124SOL    HW1  371   3.005   0.496   1.111 -3.0369  0.2728  1.2105
  124SOL    HW2  372   3.125   0.487   0.994  0.0428 -0.5190  0.9288
  125SOL     OW  373   0.910   1.928   0.766 -0.2282 -0.2568  0.3518
  125SOL    HW1  374   0.988   1.858   0.764  2.6741 -1.8245  1.2454
  125SOL    HW2  375   0.835   1.901   0.832  0.1453  0.4312 -1.9329
  126SOL     OW  376   1.891   2.291   2.404  0.7585  0.3588  0.2161
  126SOL    HW1  377   1.976   2.273   2.342  0.7445 -1.1100 -1.5830
  126SOL    HW2  378   1.837   2.202   2.410  2.8005 -1.5860 -1.1681
  127SOL     OW  379   0.906   0.952   0.197 -0.1519  0.3030  0.0573
  127SOL    HW1  380   0.945   0.990   0.289  1.1296  0.5886 -0.8754
  127SOL    HW2  381   0.909   0.848   0.187 -1.3277  0.9400  0.9341
  128SOL     OW  382   0.947   0.256   1.422  0.9342  0.0355  0.2552
  128SOL    HW1  383   0.925   0.342   1.364  1.4561  2.7219 -1.1596
  128SOL    HW2  384   0.872   0.180   1.394  0.9729 -2.5911  1.5248
  129SOL     OW  385   1.854   0.690   1.843  0.2737 -0.0373  0.2334
  129SOL    HW1  386   1.885   0.664   1.747 -1.0342  0.5951  3.8145
  129SOL    HW2  387   1.892   0.783   1.874  0.1028 -0.1595 -0.6492
  130SOL     OW  388   1.438   2.193   1.019 -0.1128  0.7343  0.0662
  130SOL    HW1  389   1.376   2.149   0.943 -2.0172  0.5900 -1.2388
  130SOL    HW2  390   1.501   2.270   0.986  1.8077 -0.4174 -0.9779
  131SOL     OW  391   3.011   1.348   1.358  0.0303 -0.1395 -0.3909
  131SOL    HW1  392   2.983   1.275   1.425 -0.8127 -1.8395  0.6730
  131SOL    HW2  393   3.112   1.343   1.345  1.1879  2.5737  0.0874
  132SOL     OW  394   2.041   2.390   0.477 -0.1230 -0.5155  0.4498
  132SOL    HW1  395   1.951   2.440   0.473  2.7120  0.3014  0.5646
  132SOL    HW2  396   2.035   2.304   0.542 -1.7818 -2.2091  1.3550
  133SOL     OW  397   1.753   2.353   2.740 -0.0784 -0.5805  0.9241
  133SOL    HW1  398   1.657   2.379   2.698  0.5832  2.9806 -1.6675
  133SOL    HW2  399   1.836   2.411   2.710  1.8667 -2.2369  1.2967
  134SOL     OW  400   2.672   2.319   1.600  0.0757  0.8357 -0.0561
  134SOL    HW1  401   2.594   2.369   1.644 -0.8279 -0.4616 -1.5431
  134SOL    HW2  402   2.756   2.378   1.586  1.0603 -1.5742 -0.8748
  135SOL     OW  403   0.716   1.469   2.646 -0.5403 -0.2983 -0.3915
  135SOL    HW1  404   0.643   1.406   2.682  0.1515  1.5451  1.6094
  135SOL    HW2  405   0.748   1.454   2.547  1.1993  0.1947 -1.8266
  136SOL     OW  406   1.251   2.032   0.502 -0.3260  0.1208 -0.1841
  136SOL    HW1  407   1.182   2.109   0.483 -1.5324 -2.0460  0.8591
  136SOL    HW2  408   1.209   1.942   0.467 -0.3381 -2.0460  1.0439
  137SOL     OW  409   0.433   1.214   2.256  0.2253  0.3679  0.2423
  137SOL    HW1  410   0.338   1.170   2.264 -0.8949 -0.7820  0.4579
  137SOL    HW2  411   0.506   1.140   2.261 -4.0567  0.8001 -1.8666
  138SOL     OW  412   2.491   1.504   0.282 -0.3068  0.7449  0.2471
  138SOL    HW1  413   2.426   1.429   0.267  0.0707  0.7610 -0.2665
  138SOL    HW2  414   2.586   1.472   0.294 -2.0357 -0.6229  1.7579
  139SOL     OW  415   1.888   2.628   1.496 -0.0285  0.2975  0.0297
  139SOL    HW1  416   1.797   2.671   1.462 -1.8728 -0.5749 -0.0232
  139SOL    HW2  417   1.894   2.527   1.465  0.5651 -2.4112  2.4117
  140SOL     OW  418   3.025   2.981   2.564  0.2830  0.1938  0.4003
  140SOL    HW1  419   3.054   2.881   2.558  0.9600  3.1791  1.7462
  140SOL    HW2  420   3.096   3.049   2.523 -1.1001  1.1695  2.3080
  141SOL     OW  421   1.308   1.667   1.593 -0.1338 -0.6368 -0.8279
  141SOL    HW1  422   1.235   1.742   1.591  0.4238 -0.1870  0.2906
  141SOL    HW2  423   1.266   1.575   1.621 -0.6395 -0.2253  0.0427
  142SOL     OW  424   1.530   0.586   2.270  0.0556  0.2841  0.0587
  142SOL    HW1  425   1.543   0.593   2.170  2.8657  0.4766  1.5875
  142SOL    HW2  426   1.432   0.572   2.302  0.1266 -0.3339  1.4042
  143SOL     OW  427   2.788   0.886   0.519 -0.1242 -0.6211  0.5591
  143SOL    HW1  428   2.827   0.911   0.425 -0.9980 -1.1380  4.1240
  143SOL    HW2  429   2.837   0.921   0.602 -1.3505 -1.6182  1.4769
  144SOL     OW  430   2.877   1.150   1.520  0.0213  0.1549 -0.2656
  144SOL    HW1  431   2.858   1.165   1.621  0.5377  2.4216 -0.6097
  144SOL    HW2  432   2.949   1.072   1.507 -0.1451 -1.2198 -1.5035
  145SOL     OW  433   0.984   1.821   0.117 -0.6598  0.6013  0.0635
  145SOL    HW1  434   1.025   1.852   0.025  0.7730 -3.9780 -0.7395
  145SOL    HW2  435   0.931   1.731   0.108 -1.6095  0.8671  2.9824
  146SOL     OW  436   2.445   0.679   1.477 -0.1839  0.1982 -0.2358
  146SOL    HW1  437   2.408   0.599   1.420  2.9679  0.3588  0.4098
  146SOL    HW2  438   2.397   0.770   1.455  0.5725 -1.5352  0.7130
  147SOL     OW  439   1.074   2.506   0.589  0.4030 -0.8641 -0.0602
  147SOL    HW1  440   1.039   2.562   0.506 -0.0521 -2.4577 -0.0301
  147SOL    HW2  441   1.177   2.495   0.585 -1.2962 -0.7285  1.6765
  148SOL     OW  442   1.633   1.430   3.097  0.2699  0.1079 -0.0514
  148SOL    HW1  443   1.622   1.359   3.023  0.4657  0.5769  0.4912
  148SOL    HW2  444   1.626   1.393   3.194  0.2139  0.7978 -0.5851
  149SOL     OW  445   0.636   1.494   1.969  0.7165  1.1426  0.3204
  149SOL    HW1  446   0.546   1.453   2.002 -0.3865  0.8974  0.2862
  149SOL    HW2  447   0.686   1.428   1.904 -0.0383 -0.5545 -1.3011
  150SOL     OW  448   3.009   1.225   0.991 -0.0120 -0.1865 -0.2998
  150SOL    HW1  449   3.092   1.231   1.054 -0.5104 -0.6952 -2.1587
  150SOL    HW2  450   2.959   1.137   0.988  1.5957  1.5677 -0.8580
  151SOL     OW  451   0.191   0.778   2.072  0.0271  0.7705  0.0488
  151SOL    HW1  452   0.210   0.862   2.009  0.9854  0.8739 -0.7514
  151SOL    HW2  453   0.271   0.710   2.081  0.2530 -1.1800  1.2856
  152SOL     OW  454   1.445   1.804   1.181 -0.6965 -0.3010  0.3677
  152SOL    HW1  455   1.483   1.898   1.187 -0.6967 -1.1694 -2.0546
  152SOL    HW2  456   1.345   1.805   1.144  0.1175 -0.5680 -0.1022
  153SOL     OW  457   0.178   1.498   0.218  0.3667 -0.1626 -0.7199
  153SOL    HW1  458   0.136   1.402   0.225 -0.1115 -0.6623 -1.4218
  153SOL    HW2  459   0.147   1.563   0.294  0.1989  0.3853  2.6178
  154SOL     OW  460   2.341   1.902   2.816 -0.5063  0.2079 -0.2286
  154SOL    HW1  461   2.338   1.797   2.829 -1.8612  2.5161 -2.2797
  154SOL    HW2  462   2.412   1.924   2.743  0.3843 -0.3287 -2.0154
  155SOL     OW  463   2.529   1.228   0.388  0.0815  1.0148 -0.6170
  155SOL    HW1  464   2.609   1.221   0.321 -2.1704 -0.4287 -0.8079
  155SOL    HW2  465   2.440   1.201   0.348  0.9211 -0.1299 -0.3658
  156SOL     OW  466   2.482   0.824   0.754 -0.1379 -0.1353  0.2112
  156SOL    HW1  467   2.384   0.805   0.777 -0.8708  2.1997 -3.1308
  156SOL    HW2  468   2.488   0.874   0.663  0.2728 -0.7635  1.2624
  157SOL     OW  469   1.239   3.011   2.974 -0.2058 -0.1585 -0.1947
  157SOL    HW1  470   1.328   2.959   2.937  2.3633  0.6025  0.9989
  157SOL    HW2  471   1.264   3.101   3.017 -3.1961  0.3209  1.7546
  158SOL     OW  472   0.978   1.882   1.830  0.5712  0.0266 -0.2028
  158SOL    HW1  473   1.018   1.976   1.806 -1.8854  0.0978 -1.1671
  158SOL    HW2  474   0.898   1.885   1.897  1.1897  0.3665  0.4711
  159SOL     OW  475   0.850   0.433   1.217 -0.0834  0.0935  0.1060
  159SOL    HW1  476   0.793   0.520   1.244  2.8761  1.1965  1.1532
  159SOL    HW2  477   0.787   0.358   1.183 -1.1868 -1.0987  0.8315
  160SOL     OW  478   1.374   2.460   1.539  0.7275 -0.3931 -0.3135
  160SOL    HW1  479   1.324   2.386   1.597 -1.6736  1.2423  2.0310
  160SOL    HW2  480   1.476   2.437   1.550  0.0817  0.3460 -0.0382
  161SOL     OW  481   3.059   2.777   0.450  0.1749 -0.4210 -0.1463
  161SOL    HW1  482   2.990   2.732   0.506  1.2086 -3.3163  0.2522
  161SOL    HW2  483   3.025   2.792   0.355 -4.0301 -0.1313 -0.5417
  162SOL     OW  484   2.565   1.821   0.473  0.0382 -0.3346 -0.0733
  162SOL    HW1  485   2.534   1.802   0.373 -1.6522 -0.8774  1.2016
  162SOL    HW2  486   2.563   1.739   0.537 -0.5477  1.9533 -0.3399
  163SOL     OW  487   1.968   2.684   0.741 -0.1115  0.0078  0.3385
  163SOL    HW1  488   1.950   2.677   0.641  0.7665 -2.7988  0.6475
  163SOL    HW2  489   2.047   2.618   0.768  0.7788  0.7464  0.4057
  164SOL     OW  490   3.073   0.263   1.267 -0.4942 -0.1402  0.0063
  164SOL    HW1  491   3.097   0.339   1.197  0.5171  0.8063 -0.5117
  164SOL    HW2  492   3.138   0.240   1.344  0.8936  0.0118  2.1227
  165SOL     OW  493   1.069   1.422   0.696  0.0897  0.6805 -1.1433
  165SOL    HW1  494   1.011   1.460   0.775  0.5982 -0.4322  0.5886
  165SOL    HW2  495   1.043   1.473   0.611 -0.5469 -0.4470  1.0480
  166SOL     OW  496   1.591   1.019   1.784  0.0728 -0.0172 -0.2377
  166SOL    HW1  497   1.487   1.032   1.808  0.9881  1.5412  1.1690
  166SOL    HW2  498   1.634   1.115   1.784  0.7889 -1.3248 -1.3626
  167SOL     OW  499   0.769   1.961   1.449  0.6298 -0.1389 -0.2291
  167SOL    HW1  500   0.774   2.015   1.538 -1.2336  2.0373  2.1404
  167SOL    HW2  501   0.720   1.870   1.464  0.7675 -3.1122 -0.7350
  168SOL     OW  502   1.593   2.348   0.167 -0.5365  0.2732 -0.3613
  168SOL    HW1  503   1.650   2.321   0.083  1.8836 -0.2196 -1.2679
  168SOL    HW2  504   1.641   2.320   0.256  2.1598 -0.6758 -0.5594
  169SOL     OW  505   0.145   2.572   2.228 -0.9167  0.3877 -0.2163
  169SOL    HW1  506   0.170   2.521   2.137  0.7754 -0.4604 -1.1019
  169SOL    HW2  507   0.181   2.517   2.308  1.6009  0.2766 -1.7599
  170SOL     OW  508   1.101   0.240   2.014  0.6220 -0.5553 -0.2066
  170SOL    HW1  509   1.182   0.230   2.082 -0.5453 -2.9593  0.8557
  170SOL    HW2  510   1.126   0.230   1.916 -1.5844  3.3571  2.6662
  171SOL     OW  511   0.204   0.821   2.378 -0.0664  0.0996 -0.3040
  171SOL    HW1  512   0.119   0.809   2.437  0.6433  0.0533  0.5506
  171SOL    HW2  513   0.186   0.807   2.281  0.8925  2.3061  2.4347
  172SOL     OW  514   0.979   0.992   2.918 -0.2169  0.0579  0.2823
  172SOL    HW1  515   0.950   1.062   2.989 -1.1267  1.4173  0.5925
  172SOL    HW2  516   0.910   0.980   2.839 -1.1761 -0.8256 -1.6026
  173SOL     OW  517   0.517   2.460   0.132 -0.3868 -0.6667  0.7307
  173SOL    HW1  518   0.486   2.383   0.064  1.4864 -1.9408 -3.4137
  173SOL    HW2  519   0.435   2.510   0.181 -1.2860  0.9977  0.8843
  174SOL     OW  520   1.486   2.833   1.048 -0.5980 -0.0613  0.3971
  174SOL    HW1  521   1.561   2.874   0.986  3.8244  0.2490 -0.9383
  174SOL    HW2  522   1.446   2.749   1.000  0.8986  1.2531  0.6859
  175SOL     OW  523   0.471   3.043   1.687  0.2540  0.2486 -0.4291
  175SOL    HW1  524   0.520   3.011   1.775  0.6921 -1.7899  1.3001
  175SOL    HW2  525   0.455   3.146   1.691 -1.0350  1.6911  2.0349
  176SOL     OW  526   2.570   0.376   0.012  0.3330 -0.1099  0.3963
  176SOL    HW1  527   2.571   0.464   0.065  0.4637 -0.0674 -0.3761
  176SOL    HW2  528   2.539   0.296   0.062  1.1491  1.0154 -3.6128
  177SOL     OW  529   0.300   0.275   0.945  0.1528 -0.0764  0.1095
  177SOL    HW1  530   0.252   0.180   0.942 -2.0416 -0.4124  1.6842
  177SOL    HW2  531   0.336   0.291   1.040 -0.6703 -1.5369  1.3129
  178SOL     OW  532   0.004   2.726   2.608 -0.3019  0.0465 -0.0356
  178SOL    HW1  533  -0.004   2.630   2.567  0.6726 -0.8090 -0.3291
  178SOL    HW2  534   0.081   2.729   2.672 -0.4852 -0.8184 -1.2777
  179SOL     OW  535   3.025   1.556   1.150  0.0703  0.1809 -0.1785
  179SOL    HW1  536   3.126   1.580   1.142 -0.4067 -0.9120  4.4050
  179SOL    HW2  537   3.009   1.455   1.166 -2.4675 -1.8959 -2.1904
  180SOL     OW  538   0.193   1.330   1.801 -0.3662  0.8617 -0.1537
  180SOL    HW1  539   0.276   1.270   1.840 -2.5221 -0.4711  0.6384
  180SOL    HW2  540   0.171   1.414   1.854 -2.7911 -1.4697 -0.0272
  181SOL     OW  541   3.016   1.954   2.500 -0.3887  0.2718 -0.6695
  181SOL    HW1  542   3.094   2.011   2.466  0.6174 -1.4128  2.7822
  181SOL    HW2  543   2.939   1.935   2.428 -3.6450 -0.0658 -1.4024
  182SOL     OW  544   2.340   1.240   1.244 -0.2456  0.4444  0.4353
  182SOL    HW1  545   2.263   1.200   1.195  0.7224  1.5281  0.1772
  182SOL    HW2  546   2.351   1.343   1.245  1.4741 -0.7442 -0.1720
  183SOL     OW  547   1.430   2.245   2.533 -0.1600  0.0851 -0.4829
  183SOL    HW1  548   1.359   2.193   2.589 -1.0622  1.2718  1.0183
  183SOL    HW2  549   1.498   2.182   2.491 -0.9531  1.7882  0.3116
  184SOL     OW  550   2.098   0.914   0.716  0.7431 -0.3234 -0.3696
  184SOL    HW1  551   1.996   0.948   0.698  0.3290 -2.4902  1.0867
  184SOL    HW2  552   2.102   0.835   0.787 -0.5586 -1.6116  1.4545
  185SOL     OW  553   1.559   2.738   1.995 -0.3611 -0.0253  0.2281
  185SOL    HW1  554   1.485   2.810   1.990  0.1992 -0.5567 -1.1558
  185SOL    HW2  555   1.612   2.738   2.083 -2.6449 -0.7585  0.3002
  186SOL     OW  556   0.079   2.211   1.636 -0.2808 -0.0094  0.1932
  186SOL    HW1  557   0.075   2.272   1.719 -0.9744  0.3503 -0.5322
  186SOL    HW2  558   0.160   2.139   1.639  0.5399 -1.9675 -2.5245
  187SOL     OW  559   1.384   0.624   1.640 -0.4142  0.0182 -0.3730
  187SOL    HW1  560   1.467   0.679   1.664 -1.4784 -4.4018  2.5364
  187SOL    HW2  561   1.383   0.538   1.704  0.6218  0.2206 -1.3622
  188SOL     OW  562   2.826   2.712   1.451 -0.4337 -0.7376 -0.8696
  188SOL    HW1  563   2.790   2.807   1.450  0.8994 -3.6369 -1.8854
  188SOL    HW2  564   2.756   2.639   1.414 -2.2654  0.4809 -2.1457
  189SOL     OW  565   0.878   1.176   1.422  0.5194 -0.7293 -0.1277
  189SOL    HW1  566   0.954   1.227   1.474 -0.1019  0.0214 -0.9924
  189SOL    HW2  567   0.794   1.239   1.411  0.6318  2.9938  3.8447
  190SOL     OW  568   1.501   1.900   1.583  0.3282 -0.5575 -0.0871
  190SOL    HW1  569   1.448   1.810   1.573 -0.2296  0.7055 -0.6329
  190SOL    HW2  570   1.492   1.930   1.686 -1.2082 -1.6192 -0.8424
  191SOL     OW  571   0.932   0.787   1.496  0.1155  0.7504  0.2648
  191SOL    HW1  572   0.991   0.754   1.575 -0.1650  0.4946  1.7674
  191SOL    HW2  573   0.979   0.837   1.416  0.6768 -0.8054 -1.2611
  192SOL     OW  574   1.854   2.404   1.113  0.1678  0.6293 -0.2851
  192SOL    HW1  575   1.757   2.386   1.091 -1.3620  2.4316  0.5100
  192SOL    HW2  576   1.917   2.350   1.050 -0.0992  2.7899 -0.1715
  193SOL     OW  577   0.518   0.523   0.405 -0.1802  0.2134  0.3233
  193SOL    HW1  578   0.454   0.448   0.401 -0.4470  2.5664  0.6028
  193SOL    HW2  579   0.602   0.510   0.340  1.3457 -0.2974 -2.2076
  194SOL     OW  580   0.304   0.911   1.294 -0.2493 -0.0346  0.0384
  194SOL    HW1  581   0.267   0.817   1.278 -1.3620  1.4301  0.4470
  194SOL    HW2  582   0.344   0.953   1.208 -0.7137  1.0339 -0.8662
  195SOL     OW  583   0.985   2.894   0.514 -0.2512 -0.1114 -0.0103
  195SOL    HW1  584   0.947   2.819   0.450  2.0061 -0.5506 -2.7773
  195SOL    HW2  585   1.088   2.910   0.504 -0.4442 -2.5014 -1.8891
  196SOL     OW  586   0.200   1.369   1.345 -0.1092  0.2843 -0.1406
  196SOL    HW1  587   0.223   1.462   1.393 -1.3045  0.2934  1.5777
  196SOL    HW2  588   0.209   1.292   1.414  3.6831 -1.0016 -2.1374
  197SOL     OW  589   0.811   2.009   0.273  0.0459 -0.6369  0.3411
  197SOL    HW1  590   0.789   1.959   0.361  0.6860 -1.9281  1.1620
  197SOL    HW2  591   0.881   1.964   0.216  0.3781  0.1098  2.4022
  198SOL     OW  592   0.337   1.256   0.343 -0.3074 -0.3173  0.1280
  198SOL    HW1  593   0.254   1.262   0.286  1.5783  0.6106 -1.7634
  198SOL    HW2  594   0.365   1.346   0.383 -0.6530  0.9041 -1.4583
  199SOL     OW  595   2.289   0.441   2.591 -0.6503 -0.1780 -0.0463
  199SOL    HW1  596   2.217   0.367   2.621 -0.1229 -0.5037  1.5731
  199SOL    HW2  597   2.387   0.399   2.590  2.6752 -1.2456 -1.7414
  200SOL     OW  598   3.092   3.010   0.749  0.2251 -0.0060  0.5502
  200SOL    HW1  599   3.126   3.105   0.731 -0.3209  3.2748  2.0375
  200SOL    HW2  600   3.005   2.986   0.698 -2.2870 -1.9350  0.1133
  201SOL     OW  601   0.983   0.703   0.504 -0.2393  0.1530 -0.4670
  201SOL    HW1  602   1.013   0.742   0.599 -1.5419  0.6189  1.1997
  201SOL    HW2  603   0.897   0.645   0.517 -2.3458  0.9639  2.7854
  202SOL     OW  604   0.425   1.199   1.883  0.0569  0.1695 -0.4627
  202SOL    HW1  605   0.514   1.147   1.872  1.8536  1.3147  2.1587
  202SOL    HW2  606   0.439   1.273   1.953  0.9322 -1.7303  0.6922
  203SOL     OW  607   0.574   0.179   1.520 -0.5659  0.1895  0.5330
  203SOL    HW1  608   0.560   0.091   1.469 -1.1813 -1.7054  1.8039
  203SOL    HW2  609   0.650   0.177   1.589 -1.6323 -1.6754  2.1994
  204SOL     OW  610   2.120   1.806   2.969  0.1386 -0.1686  0.5346
  204SOL    HW1  611   2.104   1.701   2.950 -2.8862 -3.7961  0.2055
  204SOL    HW2  612   2.200   1.843   2.911 -0.5716  3.2254  0.6787
  205SOL     OW  613   1.838   1.822   3.038 -0.0144 -0.4967  0.2904
  205SOL    HW1  614   1.938   1.802   3.017  2.4314  0.7889  2.1738
  205SOL    HW2  615   1.801   1.916   3.010 -1.1982 -1.0737 -0.0149
  206SOL     OW  616   2.420   2.815   0.371  0.4416  0.0112  0.1234
  206SOL    HW1  617   2.435   2.719   0.412 -2.1713  1.1867 -0.1551
  206SOL    HW2  618   2.494   2.835   0.301 -0.0474 -1.7768  0.9342
  207SOL     OW  619   0.681   1.786   2.943 -0.0807 -0.5578 -0.2574
  207SOL    HW1  620   0.750   1.737   2.880 -1.5415 -3.3829 -1.4543
  207SOL    HW2  621   0.662   1.730   3.032  1.1967  0.1494  0.9707
  208SOL     OW  622   1.164   1.660   1.347 -0.2802  0.2130 -0.1855
  208SOL    HW1  623   1.147   1.716   1.260  1.1142  0.2578 -1.2068
  208SOL    HW2  624   1.157   1.720   1.431 -1.7096 -0.2473 -0.6719
  209SOL     OW  625   0.252   0.980   3.087 -0.2683 -0.1136  0.1708
  209SOL    HW1  626   0.244   0.909   3.012 -1.7235  1.7035  3.0399
  209SOL    HW2  627   0.257   0.932   3.177 -1.1150  0.2586 -1.4972
  210SOL     OW  628   1.708   0.493   1.224 -0.1217  0.0011  0.1085
  210SOL    HW1  629   1.655   0.572   1.182  2.8729  0.8728  1.0295
  210SOL    HW2  630   1.813   0.504   1.204  2.7328  4.0022 -0.3263
  211SOL     OW  631   2.043   1.037   1.582 -0.4817  0.8726 -0.1332
  211SOL    HW1  632   2.080   0.966   1.648  1.1966  2.0710 -0.5243
  211SOL    HW2  633   2.117   1.096   1.547 -5.3710  0.0383 -0.9034
  212SOL     OW  634   0.021   0.981   1.531 -0.3055  0.5615 -0.3964
  212SOL    HW1  635   0.096   1.053   1.546  1.9285  0.1731 -0.1161
  212SOL    HW2  636   0.032   0.891   1.585 -2.4189  0.1206  0.6099
  213SOL     OW  637   2.712   0.168   0.336  0.3701  0.1540 -0.8496
  213SOL    HW1  638   2.807   0.139   0.305  2.3275 -0.6160 -1.4232
  213SOL    HW2  639   2.644   0.114   0.292  0.3953  2.6048  1.0124
  214SOL     OW  640   2.190   0.385   2.335 -0.3775  0.7934 -0.1311
  214SOL    HW1  641   2.210   0.425   2.426  0.5303 -1.3290 -0.2279
  214SOL    HW2  642   2.178   0.281   2.344 -0.5558  1.3882  0.6347
  215SOL     OW  643   1.636   2.282   2.106  0.2613  0.3372 -0.1044
  215SOL    HW1  644   1.732   2.323   2.099 -0.4930  0.7991  3.1650
  215SOL    HW2  645   1.562   2.352   2.126  0.0611 -1.1210  2.1891
  216SOL     OW  646   2.223   0.598   0.716 -0.4451 -0.4633  0.3523
  216SOL    HW1  647   2.224   0.501   0.676  0.7890  0.8154 -1.2250
  216SOL    HW2  648   2.217   0.675   0.643 -1.2657 -0.5043 -3.1385
  217SOL     OW  649   0.815   2.814   2.480  0.3099 -0.9301  0.7341
  217SOL    HW1  650   0.777   2.733   2.530 -0.6653  2.1927  0.4000
  217SOL    HW2  651   0.777   2.819   2.380  4.0187 -0.6085 -1.6044
  218SOL     OW  652   1.906   1.481   0.044 -0.3870  0.3296  0.0148
  218SOL    HW1  653   1.805   1.485   0.014 -2.6379 -0.2867 -2.2437
  218SOL    HW2  654   1.916   1.420   0.128  0.6637 -0.0546  0.8611
  219SOL     OW  655   2.439   1.282   2.514  0.3209 -0.4494  0.3785
  219SOL    HW1  656   2.493   1.266   2.428  1.3231  2.2068  2.5668
  219SOL    HW2  657   2.456   1.210   2.587  1.3918  1.5707  0.0770
  220SOL     OW  658   1.443   1.000   1.336 -0.3617 -0.0478  0.4603
  220SOL    HW1  659   1.547   0.998   1.354  1.5360 -2.9954 -0.2045
  220SOL    HW2  660   1.413   1.072   1.267  0.4728  2.7864  0.0692
  221SOL     OW  661   1.277   0.979   2.189 -0.2442 -0.5048  0.4322
  221SOL    HW1  662   1.237   1.010   2.096  2.9505 -2.6364 -1.1007
  221SOL    HW2  663   1.373   1.009   2.202 -1.3243  0.7302 -1.1721
  222SOL     OW  664   1.129   0.130   1.191 -0.1301  0.7407 -0.3344
  222SOL    HW1  665   1.102   0.194   1.270  0.2790 -0.3854  1.8735
  222SOL    HW2  666   1.133   0.182   1.103 -2.5366 -0.3953 -0.5171
  223SOL     OW  667   2.705   0.930   2.148 -0.1581 -0.4569  0.0171
  223SOL    HW1  668   2.665   0.999   2.216  0.2100 -0.3853 -1.3848
  223SOL    HW2  669   2.790   0.884   2.183  0.4710  1.8289  0.3160
  224SOL     OW  670   1.463   1.094   2.725 -0.4755  0.1106 -0.3935
  224SOL    HW1  671   1.515   1.004   2.709  0.9893 -2.6248  2.0157
  224SOL    HW2  672   1.474   1.161   2.647  0.6801 -0.4413  5.0877
  225SOL     OW  673   2.968   2.724   2.876  0.4215  0.0685 -0.3333
  225SOL    HW1  674   2.918   2.704   2.789 -0.1174  1.0564 -0.7404
  225SOL    HW2  675   3.059   2.763   2.863 -2.5190  1.1764  0.9080
  226SOL     OW  676   2.358   1.625   2.862 -0.6159 -0.5850 -0.4820
  226SOL    HW1  677   2.424   1.586   2.788  3.0919 -1.0623  2.0068
  226SOL    HW2  678   2.326   1.548   2.918 -2.6268 -0.9787  1.3272
  227SOL     OW  679   0.843   0.207   3.075  0.2057 -0.1135  0.6889
  227SOL    HW1  680   0.869   0.306   3.067  1.2056  0.9874 -1.1669
  227SOL    HW2  681   0.788   0.178   2.991 -2.9645  0.1617 -0.1883
  228SOL     OW  682   2.434   0.589   2.845 -0.5270 -0.2464  0.0795
  228SOL    HW1  683   2.446   0.670   2.782  0.2428  0.7266 -0.5464
  228SOL    HW2  684   2.497   0.517   2.823 -0.4898  2.4651 -2.0313
  229SOL     OW  685   0.570   0.437   1.819 -0.3781  0.2957  0.2354
  229SOL    HW1  686   0.589   0.346   1.857  1.9954  1.0907 -0.6225
  229SOL    HW2  687   0.608   0.450   1.720 -0.4005 -1.9897 -1.0623
  230SOL     OW  688   1.894   1.173   2.037 -0.6202 -0.1381  0.0200
  230SOL    HW1  689   1.969   1.226   1.983 -0.0291 -0.9898 -1.1744
  230SOL    HW2  690   1.823   1.236   2.081 -2.0944  0.7767 -1.6478
  231SOL     OW  691   0.632   1.064   0.022  0.1035  0.1082 -0.1347
  231SOL    HW1  692   0.704   1.119  -0.027  2.6570  2.8914  1.5586
  231SOL    HW2  693   0.541   1.115   0.039  3.7164 -0.1511 -1.5332
  232SOL     OW  694   2.430   3.043   2.847  0.0665 -0.4238 -0.6554
  232SOL    HW1  695   2.487   2.954   2.840  1.3944 -1.6879 -1.5765
  232SOL    HW2  696   2.487   3.120   2.802  1.8288  0.4729 -0.6028
  233SOL     OW  697   1.779   1.256   1.201 -0.2477  0.0044  0.6695
  233SOL    HW1  698   1.856   1.236   1.133  0.4901  0.6042  4.4191
  233SOL    HW2  699   1.762   1.175   1.263  0.2262  1.0326  0.7087
  234SOL     OW  700   1.591   2.506   1.854 -0.0134  1.0817  0.2960
  234SOL    HW1  701   1.591   2.581   1.926 -1.5746 -2.1285 -0.9773
  234SOL    HW2  702   1.504   2.451   1.858  0.4992 -0.1956 -0.0706
  235SOL     OW  703   0.025   3.041   2.824  0.2139 -0.0904  0.5857
  235SOL    HW1  704  -0.011   3.014   2.726 -1.4220  1.5665 -4.1817
  235SOL    HW2  705  -0.050   3.043   2.898 -0.8923  1.5305  0.0048
  236SOL     OW  706   2.869   0.738   0.063 -0.4060 -0.2356  0.2975
  236SOL    HW1  707   2.931   0.749   0.150  1.1870 -2.0073  3.5453
  236SOL    HW2  708   2.901   0.659   0.002 -0.1864  2.4109 -0.6946
  237SOL     OW  709   1.527   1.629   0.957 -0.1218  0.1632 -0.1741
  237SOL    HW1  710   1.628   1.608   0.959  0.0502 -1.0601  1.6738
  237SOL    HW2  711   1.496   1.707   1.024 -2.4614 -0.9316  0.0994
  238SOL     OW  712   1.866   1.276   0.766  0.4902 -0.4860 -0.0454
  238SOL    HW1  713   1.901   1.301   0.860 -0.2135 -1.1593 -0.8933
  238SOL    HW2  714   1.773   1.318   0.743 -3.1506 -1.1055 -3.8696
  239SOL     OW  715   2.097   0.301   2.740 -0.1855  0.3373 -0.0801
  239SOL    HW1  716   2.154   0.303   2.829  2.2630 -0.6907  1.1965
  239SOL    HW2  717   2.000   0.334   2.745  0.6334 -0.1815  0.4315
  240SOL     OW  718   0.930   0.671   0.244 -0.2551  0.0082 -0.0191
  240SOL    HW1  719   0.975   0.574   0.225 -0.4578 -3.7935 -0.3730
  240SOL    HW2  720   0.942   0.708   0.345  1.6429  1.0540  2.6507
  241SOL     OW  721   0.598   0.092   0.404  0.0874  0.5105 -0.2649
  241SOL    HW1  722   0.614   0.162   0.328  0.3418 -0.9906  1.0768
  241SOL    HW2  723   0.586  -0.001   0.368 -2.7955  1.6818 -0.4730
  242SOL     OW  724   0.607   2.523   1.134  0.4003  0.6046  0.4588
  242SOL    HW1  725   0.614   2.515   1.237  1.8139  1.0464 -1.4114
  242SOL    HW2  726   0.600   2.624   1.110 -0.1704  0.4673  0.7548
  243SOL     OW  727   1.059   0.611   2.473 -0.2043 -0.7298 -0.5681
  243SOL    HW1  728   0.982   0.621   2.403  0.2750  0.9393 -2.5892
  243SOL    HW2  729   1.026   0.566   2.563 -0.3632  1.0578  2.4698
  244SOL     OW  730   2.805   1.879   2.348 -0.5258  0.6163 -0.3999
  244SOL    HW1  731   2.829   1.884   2.245  1.9924 -1.0979  1.8486
  244SOL    HW2  732   2.707   1.853   2.367  2.7704 -0.2694 -1.3315
  245SOL     OW  733   2.214   0.900   2.175  0.1083  0.0476  0.4964
  245SOL    HW1  734   2.306   0.912   2.224 -3.4779  0.7595  2.1544
  245SOL    HW2  735   2.137   0.958   2.213  1.2104  2.0685  1.5394
  246SOL     OW  736   0.205   2.907   1.693 -0.3099 -0.4247  0.1521
  246SOL    HW1  737   0.133   2.897   1.618  1.6662 -1.1404 -0.2278
  246SOL    HW2  738   0.294   2.949   1.660 -4.6608  0.9171  1.5701
  247SOL     OW  739   2.223   0.647   2.981  0.1907 -0.0036  0.2050
  247SOL    HW1  740   2.302   0.604   2.928 -0.3193  1.0495  1.8908
  247SOL    HW2  741   2.175   0.726   2.939  0.9267 -1.2846  0.7797
  248SOL     OW  742   2.178   1.826   1.559  0.3489 -0.2467 -0.4481
  248SOL    HW1  743   2.256   1.796   1.619 -2.0210  2.3405 -0.9897
  248SOL    HW2  744   2.084   1.818   1.603 -2.1192  0.0621  2.3444
  249SOL     OW  745   1.927   1.905   1.898  0.6213 -0.6889 -0.3380
  249SOL    HW1  746   1.918   1.844   1.813  1.3731 -1.6070 -0.9348
  249SOL    HW2  747   2.020   1.954   1.907  2.7101 -0.2020  0.1956
  250SOL     OW  748   1.080   0.697   1.895  0.0872  0.6460 -0.2666
  250SOL    HW1  749   1.093   0.619   1.961  0.1558  2.9647 -1.3418
  250SOL    HW2  750   1.085   0.666   1.796 -1.9431  2.2072 -0.4957
  251SOL     OW  751   3.085   1.667   2.516 -0.1176  0.3165 -0.1691
  251SOL    HW1  752   3.051   1.768   2.514 -2.4356  0.1759  2.3200
  251SOL    HW2  753   3.002   1.607   2.534  0.8888  0.0619 -1.4524
  252SOL     OW  754   1.624   0.759   1.676  0.0939 -0.5627  0.3165
  252SOL    HW1  755   1.720   0.728   1.684  0.5977 -0.0832  3.3085
  252SOL    HW2  756   1.612   0.842   1.734  0.4574 -0.8594 -2.0590
  253SOL     OW  757   0.995   1.572   0.458 -0.1453  0.3394 -0.1318
  253SOL    HW1  758   0.995   1.485   0.398 -0.9834  1.5446  1.6371
  253SOL    HW2  759   0.899   1.596   0.497 -3.1397  1.4696  0.0981
  254SOL     OW  760   2.040   2.181   1.649 -0.2406  0.1167 -0.0813
  254SOL    HW1  761   2.013   2.100   1.592 -0.9528  0.3338 -0.1496
  254SOL    HW2  762   1.960   2.224   1.702 -0.2768 -0.2324 -0.7647
  255SOL     OW  763   0.141   1.178   2.918  0.2173  0.5483 -0.3399
  255SOL    HW1  764   0.205   1.255   2.893 -1.9596 -0.5647  1.8498
  255SOL    HW2  765   0.192   1.108   2.974  0.2344 -0.3957  0.5425
  256SOL     OW  766   2.880   1.421   1.803 -0.0716 -0.3485  0.1309
  256SOL    HW1  767   2.783   1.461   1.813  0.8295  1.6629  0.1467
  256SOL    HW2  768   2.883   1.320   1.789  0.3228  1.8723  1.1514
  257SOL     OW  769   0.782   0.171   1.738  0.5888  0.2946  0.2372
  257SOL    HW1  770   0.823   0.263   1.733 -4.2616 -1.1189 -2.1569
  257SOL    HW2  771   0.850   0.093   1.732  1.9115  0.4922 -1.5035
  258SOL     OW  772   2.997   1.230   0.471 -0.0692  0.3274  0.3919
  258SOL    HW1  773   2.930   1.302   0.502 -2.1449 -2.0075 -1.8024
  258SOL    HW2  774   3.069   1.209   0.543 -0.3261 -2.5903  1.8504
  259SOL     OW  775   0.438   2.909   3.056 -0.5118  0.0659 -0.1082
  259SOL    HW1  776   0.375   2.847   3.120 -0.3326 -0.9483  1.3226
  259SOL    HW2  777   0.448   2.873   2.961  1.2703 -1.1081 -0.8768
  260SOL     OW  778   2.729   0.664   2.780 -0.0423 -0.1129 -0.5476
  260SOL    HW1  779   2.662   0.740   2.805 -1.2314 -2.1293  0.0285
  260SOL    HW2  780   2.722   0.572   2.834  1.6316 -0.8265 -2.8554
  261SOL     OW  781   2.722   1.315   1.329  0.3035 -1.0913  0.3786
  261SOL    HW1  782   2.670   1.279   1.249  0.7101  0.8346  1.7396
  261SOL    HW2  783   2.786   1.244   1.370  2.4470  0.1546  2.7385
  262SOL     OW  784   1.401   2.948   1.926 -0.2883  0.0430 -0.2619
  262SOL    HW1  785   1.445   3.037   1.892  4.3846 -1.3598 -2.4329
  262SOL    HW2  786   1.299   2.944   1.920 -0.4133 -0.9322  1.4003
  263SOL     OW  787   0.869   0.670   2.285 -0.2314 -0.1980 -0.1380
  263SOL    HW1  788   0.815   0.587   2.244 -1.7518  1.1910  1.4680
  263SOL    HW2  789   0.917   0.737   2.218 -1.4282 -0.5063 -0.9974
  264SOL     OW  790   2.235   0.798   0.407  0.2706 -0.1602 -0.3242
  264SOL    HW1  791   2.222   0.745   0.315 -1.6486  0.7514 -2.5188
  264SOL    HW2  792   2.335   0.830   0.426  1.6026  2.7821 -4.2888
  265SOL     OW  793   0.917   2.458   2.652  0.0952 -0.4012 -0.2981
  265SOL    HW1  794   0.982   2.516   2.701 -0.4565 -0.2111  0.4182
  265SOL    HW2  795   0.929   2.356   2.677 -0.2836 -3.0538  1.3349
  266SOL     OW  796   1.334   1.813   3.037 -0.1373 -0.7679  0.1253
  266SOL    HW1  797   1.335   1.884   3.115  0.8920  0.1923  0.8318
  266SOL    HW2  798   1.433   1.782   3.026  0.2627  0.4776  0.8968
  267SOL     OW  799   1.026   0.060   2.327  0.3970  0.8020 -0.3668
  267SOL    HW1  800   0.998   0.000   2.242 -1.8916  0.4720 -2.6468
  267SOL    HW2  801   0.950   0.119   2.366 -0.1799 -2.4985  1.6654
  268SOL     OW  802   0.652   1.203   1.078  0.9219  0.9573  0.2152
  268SOL    HW1  803   0.652   1.226   1.184  2.1009  3.7061  1.9887
  268SOL    HW2  804   0.708   1.268   1.028 -0.2414 -1.7417  1.8087
  269SOL     OW  805   2.321   2.529   1.621  0.3801 -0.4885  0.1758
  269SOL    HW1  806   2.386   2.472   1.678  3.1794  0.8766  0.6977
  269SOL    HW2  807   2.239   2.566   1.676 -1.0197  4.0172 -1.0033
  270SOL     OW  808   0.157   2.959   1.958  0.0761  0.1546 -0.0192
  270SOL    HW1  809   0.172   2.939   1.858 -0.0417 -0.6669  0.6783
  270SOL    HW2  810   0.085   2.900   2.001 -1.9712  2.8333 -1.2491
  271SOL     OW  811   0.428   1.386   1.163 -0.1831  0.0990 -0.5787
  271SOL    HW1  812   0.403   1.368   1.063  1.2027  1.4202 -0.5428
  271SOL    HW2  813   0.349   1.372   1.226  1.8586  2.3147 -2.6545
  272SOL     OW  814   2.031   2.953   1.933  0.3678  0.6070 -0.1668
  272SOL    HW1  815   1.939   2.909   1.902 -3.2502  1.5483  2.5376
  272SOL    HW2  816   2.062   3.017   1.856 -0.7910 -3.2958  1.0963
  273SOL     OW  817   1.498   1.450   2.747  0.2486 -0.5540  0.0588
  273SOL    HW1  818   1.396   1.432   2.757 -0.7038  1.2118  0.0339
  273SOL    HW2  819   1.550   1.401   2.824 -0.1038 -0.3536  1.1295
  274SOL     OW  820   1.183   0.508   2.059  0.2732 -0.0911 -0.3727
  274SOL    HW1  821   1.137   0.416   2.037 -1.8265 -1.0716  2.3893
  274SOL    HW2  822   1.211   0.508   2.161 -2.8621 -0.9043  1.3632
  275SOL     OW  823   0.645   2.137   1.878  0.5308 -0.1516  0.0693
  275SOL    HW1  824   0.586   2.200   1.938  0.7261  1.3809  1.3540
  275SOL    HW2  825   0.585   2.064   1.829 -0.8823 -0.2229 -1.1447
  276SOL     OW  826   2.208   1.110   2.771 -0.3748  0.5832  0.2930
  276SOL    HW1  827   2.127   1.150   2.715 -1.7127 -0.9264 -1.1245
  276SOL    HW2  828   2.178   1.045   2.843  0.4007  0.3698 -2.0969
  277SOL     OW  829   3.092   0.755   0.244  0.4002  0.3275 -0.1018
  277SOL    HW1  830   3.188   0.776   0.213 -1.9274 -0.4022  0.2746
  277SOL    HW2  831   3.089   0.701   0.332  0.8290 -0.1898 -1.5796
  278SOL     OW  832   0.220   0.296   2.924  0.1184 -0.4895 -0.2605
  278SOL    HW1  833   0.292   0.228   2.906 -1.1460  0.8260  0.2176
  278SOL    HW2  834   0.248   0.373   2.990 -2.7064 -0.0213  2.1972
  279SOL     OW  835   0.228   0.027   0.896  0.1473  0.1814  0.1817
  279SOL    HW1  836   0.218  -0.048   0.963 -0.6898 -0.7732  0.7263
  279SOL    HW2  837   0.285  -0.000   0.811 -2.8397 -0.3586 -1.0829
  280SOL     OW  838   1.612   2.947   2.387  0.1973  0.4847 -0.0115
  280SOL    HW1  839   1.687   2.985   2.445  0.6952 -4.5235 -0.6502
  280SOL    HW2  840   1.548   3.020   2.340 -1.6679  1.6235  1.0818
  281SOL     OW  841   0.593   0.979   2.269 -0.1036  0.2822 -0.2127
  281SOL    HW1  842   0.591   0.905   2.199  1.9897  0.3595  1.4964
  281SOL    HW2  843   0.546   0.950   2.359 -1.4422  1.7286 -0.9724
  282SOL     OW  844   1.779   2.486   0.494  0.1931 -0.0618  0.1453
  282SOL    HW1  845   1.712   2.410   0.468 -2.5013 -0.3308 -1.4016
  282SOL    HW2  846   1.746   2.580   0.468  1.5251  0.2208 -2.0489
  283SOL     OW  847   1.221   0.939   0.779 -0.0813  0.1930 -0.2663
  283SOL    HW1  848   1.248   0.880   0.860 -1.3463 -0.3463 -1.2735
  283SOL    HW2  849   1.159   1.021   0.798  0.1612 -0.2740 -1.2134
  284SOL     OW  850   2.238   2.827   2.510  0.0269 -0.1789  0.9229
  284SOL    HW1  851   2.333   2.787   2.498  0.8139 -0.4387 -2.2046
  284SOL    HW2  852   2.229   2.874   2.602  2.0185 -1.5041 -3.2016
  285SOL     OW  853   1.366   3.058   2.576  0.1246  0.4132 -0.1191
  285SOL    HW1  854   1.388   3.086   2.480  1.2574  0.0982 -1.3860
  285SOL    HW2  855   1.287   3.109   2.620  4.1941 -0.8465  0.5167
  286SOL     OW  856   0.430   0.426   0.762 -0.2761  0.0344  0.0537
  286SOL    HW1  857   0.363   0.378   0.833 -0.1015 -1.9703  3.2844
  286SOL    HW2  858   0.425   0.391   0.666 -0.4110 -0.0667 -1.4319
  287SOL     OW  859   0.072   1.265   2.502  0.0244  0.5366  0.1452
  287SOL    HW1  860   0.077   1.170   2.550  0.5128 -3.0824  2.1916
  287SOL    HW2  861   0.077   1.347   2.565 -1.9223  1.1849 -2.9377
  288SOL     OW  862   1.599   2.688   1.617  0.1394  0.2420  0.4706
  288SOL    HW1  863   1.613   2.619   1.687  0.6784  0.3042  1.1206
  288SOL    HW2  864   1.571   2.651   1.524 -1.8201  1.8743  3.4617
  289SOL     OW  865   0.582   2.720   0.851 -0.3228 -0.5766  0.1547
  289SOL    HW1  866   0.662   2.761   0.798 -1.5945  1.5257 -3.2365
  289SOL    HW2  867   0.577   2.759   0.945 -0.4966 -0.7586 -1.9227
  290SOL     OW  868   2.845   1.155   1.792  0.1054  0.1519 -0.5128
  290SOL    HW1  869   2.766   1.091   1.810  3.2071  0.5305 -1.0834
  290SOL    HW2  870   2.937   1.110   1.810 -1.0125 -2.2149  1.5538
  291SOL     OW  871   1.986   3.084   0.032  0.4809  0.2289  0.0351
  291SOL    HW1  872   1.998   3.123   0.130 -0.0908 -1.5865 -1.1677
  291SOL    HW2  873   2.039   3.126  -0.045 -1.9772  2.2052  2.6753
  292SOL     OW  874   3.020   1.225   3.079 -0.0200  0.0999 -0.0542
  292SOL    HW1  875   2.936   1.237   3.023  2.3016 -0.6425  3.0587
  292SOL    HW2  876   3.107   1.222   3.021 -2.1318 -0.4698  1.0671
  293SOL     OW  877   0.535   2.174   0.282 -0.1112  0.3152  0.3266
  293SOL    HW1  878   0.481   2.239   0.343  1.2644  3.2937  1.2305
  293SOL    HW2  879   0.632   2.193   0.287 -0.2145 -0.7511 -0.8992
  294SOL     OW  880   1.831   2.298   1.770  0.1804  0.0253 -0.0813
  294SOL    HW1  881   1.863   2.320   1.864  2.6292 -0.7828  0.7637
  294SOL    HW2  882   1.760   2.367   1.727 -2.2494  0.9180 -2.0094
  295SOL     OW  883   0.980   1.066   0.440  0.1242 -0.0025 -0.1153
  295SOL    HW1  884   1.078   1.057   0.473 -2.0716 -0.7634 -1.7999
  295SOL    HW2  885   0.915   1.031   0.507  0.3270 -0.5016 -0.0924
  296SOL     OW  886   1.227   2.108   2.675  0.1476 -0.0964  0.6724
  296SOL    HW1  887   1.132   2.143   2.693 -2.2106  0.6494 -1.0467
  296SOL    HW2  888   1.221   2.049   2.590 -2.2967 -0.0704  1.4033
  297SOL     OW  889   1.362   0.592   1.318  0.6616 -0.2933  0.0623
  297SOL    HW1  890   1.396   0.524   1.387 -1.3836 -1.0725  0.0949
  297SOL    HW2  891   1.436   0.642   1.263 -0.4010 -0.5455 -0.0107
  298SOL     OW  892   0.528   1.362   3.002  0.3428 -0.7202 -0.5682
  298SOL    HW1  893   0.478   1.291   3.068  0.0820 -1.8469  1.9250
  298SOL    HW2  894   0.592   1.319   2.934  1.1053  1.7805  1.2461
  299SOL     OW  895   0.465   0.296   1.276 -0.3050  0.2453 -0.0741
  299SOL    HW1  896   0.404   0.384   1.273 -0.8824 -0.2134  1.3908
  299SOL    HW2  897   0.479   0.266   1.372  1.5533  2.4008  1.0470
  300SOL     OW  898   1.261   1.708   2.603 -0.2901  0.3198 -0.8337
  300SOL    HW1  899   1.259   1.647   2.522 -1.1265 -1.3420  1.3663
  300SOL    HW2  900   1.346   1.692   2.666  0.8117 -0.3171  1.6744
  301SOL     OW  901   0.397   0.259   0.498  0.8605 -0.1502  0.4456
  301SOL    HW1  902   0.305   0.222   0.492  1.6230  0.3348 -2.1334
  301SOL    HW2  903   0.477   0.196   0.502  0.1320  0.7900  0.3532
  302SOL     OW  904   1.252   2.429   2.321  0.1957 -0.0089 -0.5646
  302SOL    HW1  905   1.152   2.461   2.336 -1.5372  0.2144 -1.7951
  302SOL    HW2  906   1.287   2.378   2.402 -0.6624  2.5756  1.8714
  303SOL     OW  907   0.924   2.434   0.807 -0.3353 -0.4401  0.5083
  303SOL    HW1  908   0.972   2.465   0.721 -0.2297  0.7052  0.9382
  303SOL    HW2  909   0.982   2.464   0.896  1.8527  1.8044  0.5556
  304SOL     OW  910   0.087   1.923   0.700  0.1454 -0.2530  0.0300
  304SOL    HW1  911   0.167   1.916   0.632 -1.2378 -0.3446 -0.4719
  304SOL    HW2  912   0.017   1.992   0.681 -1.0320 -1.4060  0.6071
  305SOL     OW  913   1.592   0.879   0.660  0.4065  0.6483  0.1078
  305SOL    HW1  914   1.530   0.846   0.577 -1.7904 -3.0842 -3.1446
  305SOL    HW2  915   1.638   0.793   0.691 -1.6108 -1.3524  0.3997
  306SOL     OW  916   0.440   1.908   1.886  0.4522  0.7029  0.5190
  306SOL    HW1  917   0.506   1.840   1.853  0.0278  1.4568 -0.0885
  306SOL    HW2  918   0.462   1.945   1.979  2.4163  1.9389  0.3029
  307SOL     OW  919   3.018   0.872   2.515 -0.6689 -0.4699 -0.0485
  307SOL    HW1  920   3.057   0.931   2.594  0.0480 -0.3229  0.7942
  307SOL    HW2  921   2.941   0.809   2.545 -0.9527 -0.4900 -0.6415
  308SOL     OW  922   1.602   2.661   2.773 -0.1069 -0.0312  0.2188
  308SOL    HW1  923   1.592   2.598   2.690 -0.7169 -0.6665 -0.9515
  308SOL    HW2  924   1.550   2.619   2.850  0.4111 -1.2402 -2.1521
  309SOL     OW  925   1.227   0.179   1.785 -0.7738 -0.2706  0.0282
  309SOL    HW1  926   1.324   0.141   1.805  0.8094 -1.2793  2.1291
  309SOL    HW2  927   1.208   0.176   1.680  0.8016  0.0706 -0.4375
  310SOL     OW  928   1.530   2.547   0.672 -0.5912 -0.3907  0.2107
  310SOL    HW1  929   1.486   2.550   0.761 -0.7968  0.4842 -2.5313
  310SOL    HW2  930   1.592   2.634   0.661  3.2481  0.9362 -1.3654
  311SOL     OW  931   1.129   0.930   1.748  0.4897  0.2482  0.2647
  311SOL    HW1  932   1.096   0.846   1.802 -2.1962 -1.3878 -0.4492
  311SOL    HW2  933   1.191   0.906   1.668  0.4647 -1.4028 -0.3735
  312SOL     OW  934   1.545   0.691   1.101  0.0006 -0.8763  0.4884
  312SOL    HW1  935   1.551   0.793   1.100  0.1043 -0.9091 -2.1610
  312SOL    HW2  936   1.519   0.661   1.008 -0.7021 -1.3857  2.8327
  313SOL     OW  937   1.625   1.372   0.714 -0.4717 -0.5741  0.1011
  313SOL    HW1  938   1.569   1.401   0.799 -1.7101  1.2870  2.7966
  313SOL    HW2  939   1.588   1.282   0.667  1.5239 -2.5659  1.9749
  314SOL     OW  940   2.990   3.088   3.059  0.1204 -0.1299  0.5352
  314SOL    HW1  941   3.018   3.112   3.156  2.1276  0.2330  0.1175
  314SOL    HW2  942   2.896   3.049   3.062  0.4354  0.2782 -1.1511
  315SOL     OW  943   1.172   0.261   2.785  0.7718  0.0633 -0.1529
  315SOL    HW1  944   1.135   0.193   2.716 -1.3398  1.0754 -0.7268
  315SOL    HW2  945   1.192   0.220   2.879  1.3872 -1.0950 -1.2582
  316SOL     OW  946   1.715   2.087   0.909  0.4751  0.0627 -0.6254
  316SOL    HW1  947   1.657   2.082   0.991  0.3746  1.6257  1.2017
  316SOL    HW2  948   1.712   2.180   0.859  0.1360  0.1419 -0.3683
  317SOL     OW  949   1.194   0.641   2.789 -0.5798  0.1769 -0.5187
  317SOL    HW1  950   1.149   0.700   2.869 -1.8867  3.6983  1.1396
  317SOL    HW2  951   1.134   0.579   2.738 -0.4162 -1.2739  2.4387
  318SOL     OW  952   1.436   3.087   2.235  0.0016 -0.0406 -0.1599
  318SOL    HW1  953   1.413   3.182   2.200 -0.8064 -0.2314 -0.6970
  318SOL    HW2  954   1.395   3.013   2.179 -0.3928  1.0239 -0.6495
  319SOL     OW  955   0.600   2.337   2.920  0.5457 -0.6200 -0.4735
  319SOL    HW1  956   0.578   2.310   3.014 -0.3193  1.0808 -3.7488
  319SOL    HW2  957   0.641   2.262   2.868 -0.6955  1.3412 -2.2440
  320SOL     OW  958   1.712   2.231   0.412 -0.5884  0.0028  0.2467
  320SOL    HW1  959   1.807   2.198   0.386 -1.7756 -0.8747 -0.8035
  320SOL    HW2  960   1.669   2.187   0.488  2.2844 -0.1786 -1.6516
  321SOL     OW  961   1.675   2.754   0.568 -0.0204  0.1353  0.4586
  321SOL    HW1  962   1.594   2.783   0.510 -0.4626  1.8603  1.2715
  321SOL    HW2  963   1.763   2.807   0.539 -1.2741 -2.1165 -1.8753
  322SOL     OW  964   2.600   1.122   2.348 -0.3333  0.2204 -0.4003
  322SOL    HW1  965   2.684   1.115   2.406  0.7486 -2.5811 -1.2125
  322SOL    HW2  966   2.546   1.037   2.348  0.7408  2.5878 -0.8247
  323SOL     OW  967   1.153   2.681   0.836 -0.0406 -0.5514 -0.4803
  323SOL    HW1  968   1.118   2.642   0.742 -0.9492 -1.7405 -3.0554
  323SOL    HW2  969   1.130   2.786   0.851  3.6050 -0.8598  0.7628
  324SOL     OW  970   0.267   2.500   2.465 -0.1728  0.3291 -0.1850
  324SOL    HW1  971   0.233   2.456   2.552 -0.1340  0.0634 -3.2988
  324SOL    HW2  972   0.304   2.597   2.480 -1.9628  0.6986 -0.3672
  325SOL     OW  973   1.271   2.998   0.503  0.1772 -0.3074 -0.3012
  325SOL    HW1  974   1.269   3.029   0.401 -0.7058 -0.3657  0.5359
  325SOL    HW2  975   1.243   3.073   0.571  1.3491 -0.1261 -0.4772
  326SOL     OW  976   2.442   0.789   0.001  0.2071 -0.1671  0.0711
  326SOL    HW1  977   2.372   0.722  -0.041 -1.0146  1.1565 -0.1785
  326SOL    HW2  978   2.522   0.734   0.047 -1.2387  0.5709 -1.2104
  327SOL     OW  979   2.814   0.306   0.558 -0.3097 -0.0642  0.0022
  327SOL    HW1  980   2.792   0.262   0.466  0.5079 -3.9504 -1.2516
  327SOL    HW2  981   2.826   0.231   0.627 -0.4948 -1.0857 -1.4197
  328SOL     OW  982   2.607   0.617   0.419 -0.2237 -0.8051 -0.0412
  328SOL    HW1  983   2.583   0.711   0.457  4.9322  1.2387  0.5416
  328SOL    HW2  984   2.564   0.541   0.475  0.9336  2.1508  4.1038
  329SOL     OW  985   2.915   2.949   2.137 -0.3182 -0.2503 -0.3679
  329SOL    HW1  986   3.005   2.908   2.171 -0.0890 -2.0615  2.3667
  329SOL    HW2  987   2.917   3.054   2.123  1.6190 -0.1683 -4.6488
  330SOL     OW  988   0.587   0.193   1.914 -0.0846 -0.5999  0.3488
  330SOL    HW1  989   0.655   0.159   1.846  1.7773  3.0173 -0.7308
  330SOL    HW2  990   0.565   0.139   1.998  0.6206 -1.1541  0.7056
  331SOL     OW  991   3.015   1.942   1.081 -0.0053 -0.3367 -0.4167
  331SOL    HW1  992   2.992   1.903   0.990  0.0483  1.5478  0.2412
  331SOL    HW2  993   2.949   1.920   1.157 -0.0048  0.4214  1.8368
  332SOL     OW  994   0.388   1.194   0.071 -0.1548  0.0556 -0.0773
  332SOL    HW1  995   0.317   1.125   0.037 -2.1991 -0.9549  0.7801
  332SOL    HW2  996   0.372   1.219   0.172 -3.0894 -3.3586 -0.2858
  333SOL     OW  997   2.922   0.986   0.300  0.4095  0.2751  0.3540
  333SOL    HW1  998   2.970   1.061   0.349 -0.4217 -2.0129 -2.0654
  333SOL    HW2  999   2.982   0.911   0.255 -1.2285  1.5927  0.5393
  334SOL     OW 1000   1.691   1.274   1.804  0.0125  0.4199  0.0307
  334SOL    HW1 1001   1.739   1.267   1.711  1.0291 -1.5250 -1.3107
  334SOL    HW2 1002   1.761   1.269   1.882  2.4353 -0.1326  2.4704
  335SOL     OW 1003   1.985   2.735   2.577  0.2926  0.4921  0.1781
  335SOL    HW1 1004   1.947   2.753   2.670  0.7662 -1.6395 -1.2277
  335SOL    HW2 1005   2.080   2.772   2.567 -1.5858  2.1451  2.5171
  336SOL     OW 1006   0.256   0.041   2.719  0.2362 -0.5484 -0.0738
  336SOL    HW1 1007   0.326   0.015   2.791  1.5859  0.5994  0.6862
  336SOL    HW2 1008   0.160   0.024   2.762  0.4281  0.6410  2.2787
  337SOL     OW 1009   0.983   2.924   2.927  0.5356  0.5311  0.8720
  337SOL    HW1 1010   0.943   2.873   3.011 -0.1595 -1.0679  1.0226
  337SOL    HW2 1011   1.076   2.968   2.949 -2.9511 -1.1694  1.6726
  338SOL     OW 1012   0.070   0.988   0.698 -0.3650  0.1373  0.2285
  338SOL    HW1 1013  -0.028   0.962   0.716 -0.5199 -1.4731  0.4407
  338SOL    HW2 1014   0.081   1.093   0.686  0.0301  0.7762 -1.8117
  339SOL     OW 1015   1.712   1.340   2.140  0.2348  0.4433  0.4427
  339SOL    HW1 1016   1.616   1.365   2.120  0.4771 -1.0562  3.6907
  339SOL    HW2 1017   1.771   1.404   2.190  1.3248  0.6823 -2.9401
  340SOL     OW 1018   2.296   0.751   1.165 -0.0375 -0.1474  0.0642
  340SOL    HW1 1019   2.197   0.768   1.143  0.2846  2.2907  0.3810
  340SOL    HW2 1020   2.326   0.659   1.126 -2.6813  2.3097 -1.0268
  341SOL     OW 1021   1.946   2.114   0.319  0.1269  0.0975  0.3613
  341SOL    HW1 1022   1.956   2.151   0.223  0.0878  2.0670 -0.1901
  341SOL    HW2 1023   2.033   2.086   0.361 -0.8621 -0.8229 -1.1503
  342SOL     OW 1024   2.149   2.134   2.785 -0.2247 -0.1761 -0.2439
  342SOL    HW1 1025   2.188   2.041   2.801 -0.4260  1.0672  0.0285
  342SOL    HW2 1026   2.057   2.130   2.735  0.7583 -1.4276 -0.5643
  343SOL     OW 1027   0.398   0.796   2.780  0.0294 -0.0858 -0.2602
  343SOL    HW1 1028   0.433   0.835   2.688  0.3084 -1.1363  0.4107
  343SOL    HW2 1029   0.476   0.789   2.846  0.3282 -0.5720 -0.1990
  344SOL     OW 1030   1.917   1.496   0.427 -0.5028 -0.0930 -0.4590
  344SOL    HW1 1031   1.929   1.423   0.352 -3.1036 -0.1184 -1.9048
  344SOL    HW2 1032   1.820   1.521   0.449  0.1894  0.6999  0.0699
  345SOL     OW 1033   1.376   2.255   2.859  0.2977 -0.2545 -0.2261
  345SOL    HW1 1034   1.295   2.239   2.796 -1.0951  2.9969  1.5994
  345SOL    HW2 1035   1.452   2.185   2.851  1.2419 -1.8675  1.5990
  346SOL     OW 1036   2.336   0.915   1.392  0.0916  0.4688  0.5387
  346SOL    HW1 1037   2.270   0.990   1.428 -1.3104  1.5073 -1.6958
  346SOL    HW2 1038   2.316   0.885   1.293 -0.5267  0.4653 -1.2280
  347SOL     OW 1039   0.743   2.733   1.636  0.3472 -0.3276 -0.1057
  347SOL    HW1 1040   0.670   2.725   1.712 -0.5380  0.3525  2.4427
  347SOL    HW2 1041   0.744   2.827   1.597 -1.3560 -1.3150  1.2201
  348SOL     OW 1042   0.169   0.764   2.925  0.6730  0.6113 -0.3310
  348SOL    HW1 1043   0.083   0.733   2.875 -0.3074  0.3053  1.1925
  348SOL    HW2 1044   0.249   0.792   2.861 -0.3551 -2.1787  2.2521
  349SOL     OW 1045   1.857   0.420   2.771 -0.4387  0.1463  0.0023
  349SOL    HW1 1046   1.870   0.497   2.699 -0.2260 -0.6240 -0.9102
  349SOL    HW2 1047   1.867   0.457   2.867 -0.5661 -1.8903  2.2166
  350SOL     OW 1048   1.649   0.404   0.381  0.1132 -0.0917 -0.4760
  350SOL    HW1 1049   1.731   0.396   0.442  1.4898  0.6234 -0.8532
  350SOL    HW2 1050   1.652   0.490   0.329 -2.1638 -1.3275  1.7294
  351SOL     OW 1051   0.964   0.850   2.086 -0.0586  0.3705 -0.3501
  351SOL    HW1 1052   0.987   0.948   2.108 -0.2054  2.9331 -0.8030
  351SOL    HW2 1053   1.017   0.815   2.002 -1.2532 -2.2849  0.2925
  352SOL     OW 1054   2.068   1.355   0.597 -0.0517  0.5936 -0.8593
  352SOL    HW1 1055   2.011   1.405   0.529  1.9428  0.6139 -0.1162
  352SOL    HW2 1056   2.004   1.330   0.678  3.9642  0.3924  1.4908
  353SOL     OW 1057   2.186   2.805   1.081 -0.2468  0.4173 -0.4244
  353SOL    HW1 1058   2.234   2.742   1.146  1.2588  1.5762 -0.6261
  353SOL    HW2 1059   2.095   2.763   1.063  0.7747  0.2813 -1.1339
  354SOL     OW 1060   0.279   1.406   2.841 -0.1172  0.6999  0.1322
  354SOL    HW1 1061   0.262   1.491   2.787  0.6306 -1.1194  1.8674
  354SOL    HW2 1062   0.374   1.398   2.885  0.3185 -0.5221 -1.7195
  355SOL     OW 1063   0.738   1.597   0.595  0.3095 -0.3085 -0.1526
  355SOL    HW1 1064   0.698   1.556   0.680  0.2161 -0.3422 -0.1538
  355SOL    HW2 1065   0.709   1.540   0.513  1.5931  2.5834 -1.4354
  356SOL     OW 1066   0.849   0.328   2.050 -0.0125  0.2691  0.1407
  356SOL    HW1 1067   0.946   0.295   2.040  3.5486  0.7159 -0.2583
  356SOL    HW2 1068   0.779   0.279   1.988 -1.5781 -2.7177 -1.2159
  357SOL     OW 1069   0.989   1.330   0.374  1.0760 -0.4241  0.2043
  357SOL    HW1 1070   1.087   1.315   0.348 -1.5060  1.8509 -2.9234
  357SOL    HW2 1071   0.936   1.245   0.398 -0.1486  0.1295 -2.9241
  358SOL     OW 1072   1.629   1.542   0.492  0.1711 -0.0303  0.1111
  358SOL    HW1 1073   1.625   1.479   0.575  0.6960  0.0023 -4.4156
  358SOL    HW2 1074   1.593   1.498   0.407  2.8905  1.6439  0.9446
  359SOL     OW 1075   1.611   2.627   0.243  0.3969  0.1424  0.4453
  359SOL    HW1 1076   1.592   2.530   0.207  1.0074 -0.6971 -0.0649
  359SOL    HW2 1077   1.547   2.664   0.311 -0.2919 -0.3372 -4.2141
  360SOL     OW 1078   0.763   0.548   0.545  0.4565 -0.3789 -0.0348
  360SOL    HW1 1079   0.665   0.554   0.499 -2.8233  1.3333  1.0597
  360SOL    HW2 1080   0.799   0.449   0.550  1.3362  1.9856 -0.8314
  361SOL     OW 1081   1.298   1.278   0.659  0.2327 -0.6317 -0.2609
  361SOL    HW1 1082   1.369   1.337   0.714  1.4696  1.5434 -0.5184
  361SOL    HW2 1083   1.202   1.322   0.671  0.8980 -0.0341  0.1035
  362SOL     OW 1084   1.382   1.755   0.757  0.1517 -0.1440 -0.3530
  362SOL    HW1 1085   1.456   1.707   0.814  0.9476 -0.6843 -1.6923
  362SOL    HW2 1086   1.411   1.778   0.660 -1.6232 -0.5453 -1.7665
  363SOL     OW 1087   1.250   1.335   2.079 -0.3700 -0.4022 -0.0654
  363SOL    HW1 1088   1.340   1.387   2.083  0.8174  3.0282 -1.5166
  363SOL    HW2 1089   1.172   1.397   2.054 -1.4226 -0.0588 -0.1130
  364SOL     OW 1090   0.522   2.363   2.014 -0.3489 -0.1714  0.5378
  364SOL    HW1 1091   0.427   2.399   2.026 -0.2626  1.6536  1.7053
  364SOL    HW2 1092   0.571   2.392   1.925  0.7691  0.2013  0.5898
  365SOL     OW 1093   1.030   1.965   1.332  0.1221 -0.2443  0.3115
  365SOL    HW1 1094   0.934   1.984   1.370  1.0525  2.8713  0.1115
  365SOL    HW2 1095   1.029   1.958   1.230 -0.4465  0.8984  0.3915
  366SOL     OW 1096   2.843   1.945   0.365 -0.0827  0.1581 -0.0815
  366SOL    HW1 1097   2.782   1.898   0.431  1.5284 -0.5943  1.9632
  366SOL    HW2 1098   2.896   1.876   0.300  0.6966 -1.5399 -1.2991
  367SOL     OW 1099   0.965   1.185   0.016  0.4827  0.3177  0.2272
  367SOL    HW1 1100   0.942   1.139   0.105  2.5619  2.6103  0.2811
  367SOL    HW2 1101   1.065   1.222   0.014  0.6245 -0.9224  1.7212
  368SOL     OW 1102   1.418   0.546   0.629  0.1655 -0.5895  0.0891
  368SOL    HW1 1103   1.336   0.576   0.565  0.0145 -0.9706 -0.5367
  368SOL    HW2 1104   1.515   0.575   0.594 -2.4563  2.0717 -0.1569
  369SOL     OW 1105   0.369   1.747   0.161  0.1858  0.6458  0.3911
  369SOL    HW1 1106   0.414   1.804   0.236 -0.1121  0.7366 -0.3516
  369SOL    HW2 1107   0.312   1.674   0.203 -0.7507 -0.0654  0.3391
  370SOL     OW 1108   0.435   2.059   1.057  0.4575  0.0651 -0.2015
  370SOL    HW1 1109   0.452   2.164   1.048 -1.5925  2.9661 -3.1146
  370SOL    HW2 1110   0.347   2.032   1.015  1.5475  0.7848 -1.0835
  371SOL     OW 1111   2.885   2.205   2.609 -0.6251 -0.0057 -0.2110
  371SOL    HW1 1112   2.816   2.132   2.644 -2.0111  0.0722  1.5505
  371SOL    HW2 1113   2.924   2.263   2.688 -0.5260 -2.5839  0.8352
  372SOL     OW 1114   1.041   2.039   1.010  0.7500  0.3009 -0.4245
  372SOL    HW1 1115   0.948   2.063   0.970  0.4042  1.0978 -1.0390
  372SOL    HW2 1116   1.116   2.094   0.966  2.2474  0.1290 -0.6099
  373SOL     OW 1117   1.952   1.921   0.911 -0.7125 -0.3496  0.8693
  373SOL    HW1 1118   2.044   1.965   0.938 -0.3018 -1.2119 -0.4902
  373SOL    HW2 1119   1.883   2.000   0.918  0.7180  0.3635 -0.6041
  374SOL     OW 1120   1.866   0.384   0.553  0.1304  0.1069 -0.2318
  374SOL    HW1 1121   1.836   0.383   0.656 -1.6421  0.9584  4.2113
  374SOL    HW2 1122   1.968   0.388   0.538  0.0554 -1.7730  0.1112
  375SOL     OW 1123   2.402   2.157   1.085 -0.2617  0.1517  0.2108
  375SOL    HW1 1124   2.441   2.126   0.993  1.0144 -0.8256 -0.2754
  375SOL    HW2 1125   2.465   2.133   1.165 -0.1072  1.7469  1.6068
  376SOL     OW 1126   3.023   0.519   1.486 -0.0386 -0.2447  0.0928
  376SOL    HW1 1127   2.997   0.581   1.560  2.1307 -1.1102 -0.0733
  376SOL    HW2 1128   2.947   0.457   1.449 -0.2503 -0.4758 -0.3295
  377SOL     OW 1129   2.171   2.908   0.310  0.2206  0.1954  0.1117
  377SOL    HW1 1130   2.148   3.004   0.339  1.8131  1.5526 -0.2527
  377SOL    HW2 1131   2.272   2.885   0.320 -2.2618 -1.6789 -0.2173
  378SOL     OW 1132   1.739   1.850   2.545  0.0350  0.2853 -0.6354
  378SOL    HW1 1133   1.798   1.922   2.492  0.1694  3.1458 -0.7622
  378SOL    HW2 1134   1.734   1.755   2.500 -0.6157 -0.5972  1.2322
  379SOL     OW 1135   0.686   0.153   2.844  0.2501  0.1943 -0.3643
  379SOL    HW1 1136   0.731   0.069   2.806 -0.0629 -1.9120  2.1444
  379SOL    HW2 1137   0.653   0.219   2.772 -1.1986 -2.3476  1.4379
  380SOL     OW 1138   1.540   1.132   0.596  0.6140  0.1829 -0.3834
  380SOL    HW1 1139   1.443   1.161   0.590  1.8025 -1.2614 -1.7811
  380SOL    HW2 1140   1.552   1.035   0.635  2.1749 -0.5986 -1.9402
  381SOL     OW 1141   1.342   1.196   1.572  0.1517  0.2318  0.0872
  381SOL    HW1 1142   1.388   1.118   1.520  0.5215  0.7000  0.9699
  381SOL    HW2 1143   1.405   1.232   1.643  0.9993 -0.2681 -0.1450
  382SOL     OW 1144   1.813   0.895   0.187  0.4249 -0.1458  0.1309
  382SOL    HW1 1145   1.839   0.865   0.091  1.9340 -2.7251  0.5431
  382SOL    HW2 1146   1.884   0.888   0.260 -0.7527  1.6226  1.0766
  383SOL     OW 1147   2.582   1.007   1.469 -0.2313 -0.1761 -0.1497
  383SOL    HW1 1148   2.489   0.975   1.443  2.1060  1.5797  0.9452
  383SOL    HW2 1149   2.652   0.975   1.406 -0.2941 -0.2042  0.8463
  384SOL     OW 1150   0.949   2.225   0.150 -0.6252 -0.1663  0.3159
  384SOL    HW1 1151   0.946   2.319   0.196  0.0841  2.4013 -0.7299
  384SOL    HW2 1152   0.886   2.156   0.193 -0.4191  0.1739  2.3882
  385SOL     OW 1153   2.966   2.009   1.656 -0.4268 -0.2854  0.0762
  385SOL    HW1 1154   3.035   2.090   1.657  2.5594  0.6958  3.3512
  385SOL    HW2 1155   3.023   1.918   1.667  1.8468  0.7486  0.8344
  386SOL     OW 1156   0.520   1.031   0.463 -0.0699  0.3804  0.2149
  386SOL    HW1 1157   0.498   0.927   0.489  1.8894 -1.4164 -0.6179
  386SOL    HW2 1158   0.438   1.081   0.427  0.7204 -0.6986  0.7434
  387SOL     OW 1159   0.941   0.402   1.682 -0.5909  0.5644  0.0805
  387SOL    HW1 1160   0.964   0.502   1.686  0.2834  1.9557  1.0545
  387SOL    HW2 1161   0.972   0.354   1.593 -0.1083 -1.2230  0.4036
  388SOL     OW 1162   1.207   2.713   1.748 -0.2474  0.0961 -0.4048
  388SOL    HW1 1163   1.236   2.702   1.647 -0.3090 -0.3072 -0.1110
  388SOL    HW2 1164   1.253   2.642   1.814 -0.2993 -0.2610 -0.2342
  389SOL     OW 1165   0.168   3.032   1.205  0.1555 -0.4180  0.5242
  389SOL    HW1 1166   0.078   3.077   1.212 -1.1999  0.3586  2.3100
  389SOL    HW2 1167   0.159   2.930   1.207  2.8952 -0.0255  0.0356
  390SOL     OW 1168   1.035   0.981   1.326 -0.2240 -0.1599 -0.2140
  390SOL    HW1 1169   1.127   0.968   1.369  1.4870 -0.7121  0.6425
  390SOL    HW2 1170   0.981   1.065   1.356 -0.9697 -1.5025 -0.4463
  391SOL     OW 1171   2.174   1.122   1.079  1.0157  0.3109 -0.0900
  391SOL    HW1 1172   2.116   1.036   1.100 -0.7251  0.1264  2.6154
  391SOL    HW2 1173   2.239   1.110   0.999 -1.9507  0.5831  1.5991
  392SOL     OW 1174   0.850   2.683   3.090  0.2859 -0.6530 -0.5287
  392SOL    HW1 1175   0.885   2.599   3.050 -1.0749  3.3745  1.2859
  392SOL    HW2 1176   0.889   2.705   3.182 -0.2918 -1.5234 -0.0515
  393SOL     OW 1177   0.389   0.573   1.971  1.0205  0.8219 -0.1903
  393SOL    HW1 1178   0.325   0.491   1.972 -0.0238 -2.0532 -1.3334
  393SOL    HW2 1179   0.467   0.553   1.908 -2.0992 -0.5191 -0.4800
  394SOL     OW 1180   2.960   1.873   2.778 -0.4605  0.4052  0.3888
  394SOL    HW1 1181   3.022   1.919   2.848 -0.3205  3.5181  1.7961
  394SOL    HW2 1182   2.958   1.924   2.685 -0.8212  0.1108  0.4195
  395SOL     OW 1183   1.615   1.985   0.667 -0.5257 -0.0577 -0.0018
  395SOL    HW1 1184   1.644   1.902   0.611  1.6173  0.5298 -1.7209
  395SOL    HW2 1185   1.673   2.003   0.753  0.7839 -0.0676  0.7061
  396SOL     OW 1186   2.817   1.863   1.280 -0.5408 -0.1133  0.0095
  396SOL    HW1 1187   2.834   1.762   1.310  1.4845 -3.4232  0.0695
  396SOL    HW2 1188   2.783   1.920   1.359  0.9108 -0.3579  0.1345
  397SOL     OW 1189   1.033   2.235   0.495  0.4260  0.4369  0.0633
  397SOL    HW1 1190   0.935   2.197   0.506 -2.9651 -0.5554 -0.7587
  397SOL    HW2 1191   1.052   2.313   0.560 -0.7868  1.6132 -2.6935
  398SOL     OW 1192   2.151   3.100   1.014  0.5546  0.2962  0.2747
  398SOL    HW1 1193   2.145   3.010   1.068 -1.3112 -3.3062  0.1607
  398SOL    HW2 1194   2.080   3.169   1.048 -1.4431 -2.2878 -1.8625
  399SOL     OW 1195   3.045   2.471   2.509  0.2893  0.0354  0.3954
  399SOL    HW1 1196   2.944   2.468   2.486 -2.5072 -2.8072 -2.2217
  399SOL    HW2 1197   3.072   2.416   2.594 -0.2865  0.7694  0.1740
  400SOL     OW 1198   0.777   1.622   1.329  0.1197  0.1531 -0.0931
  400SOL    HW1 1199   0.762   1.653   1.427  1.3215  2.2897  1.7915
  400SOL    HW2 1200   0.722   1.681   1.264  0.2030 -2.2464  0.6656
  401SOL     OW 1201   1.843   0.080   1.306  0.5098 -0.1240 -0.0558
  401SOL    HW1 1202   1.914   0.089   1.380  2.4471  0.9142 -0.4149
  401SOL    HW2 1203   1.743   0.078   1.343 -0.6682  0.4094  2.2052
  402SOL     OW 1204   1.315   0.160   3.075 -0.0611 -0.3528  0.1247
  402SOL    HW1 1205   1.403   0.130   3.034 -2.0750  0.0788  1.5889
  402SOL    HW2 1206   1.302   0.261   3.058 -0.2943 -0.1327  0.6784
  403SOL     OW 1207   2.280   1.748   0.941  0.0872  0.2444  0.7885
  403SOL    HW1 1208   2.378   1.712   0.940  0.6679  0.3348  1.9414
  403SOL    HW2 1209   2.264   1.831   0.999  0.4018 -2.9601  0.1109
  404SOL     OW 1210   0.171   2.512   2.787 -0.2328 -0.0321  0.0775
  404SOL    HW1 1211   0.265   2.469   2.774  1.1907 -0.0284  0.2235
  404SOL    HW2 1212   0.177   2.605   2.826 -1.5954  1.6823  0.6447
  405SOL     OW 1213   0.134   2.410   0.732 -0.0289  0.4040  0.3274
  405SOL    HW1 1214   0.104   2.403   0.628 -0.1258  1.5531 -1.2941
  405SOL    HW2 1215   0.217   2.472   0.744  1.0855 -1.3281  2.2184
  406SOL     OW 1216   0.085   1.525   3.050  0.5523 -0.3683  0.1584
  406SOL    HW1 1217   0.149   1.477   2.979  1.3723  1.5802  2.6711
  406SOL    HW2 1218   0.125   1.537   3.144 -0.7267  1.7621  1.9899
  407SOL     OW 1219   1.519   0.967   0.999 -0.4268 -0.1310  0.4727
  407SOL    HW1 1220   1.489   0.956   0.898  2.1241 -1.5536  2.1061
  407SOL    HW2 1221   1.466   1.043   1.047 -1.0102  0.0633  2.7232
  408SOL     OW 1222   1.612   2.397   0.960  0.0091  0.7556  0.0437
  408SOL    HW1 1223   1.658   2.373   0.870  0.6609 -0.5426 -0.7523
  408SOL    HW2 1224   1.569   2.494   0.960 -0.8575  0.9305 -2.1862
  409SOL     OW 1225   0.608   0.857   0.731 -0.2285 -0.4063 -0.0007
  409SOL    HW1 1226   0.538   0.842   0.662 -0.2843 -2.3553  1.1110
  409SOL    HW2 1227   0.623   0.766   0.781 -1.1131 -1.5793 -0.7261
  410SOL     OW 1228   1.321   2.074   1.417  0.0763  0.4687  0.1431
  410SOL    HW1 1229   1.381   2.016   1.470 -0.4387 -0.8353  2.2759
  410SOL    HW2 1230   1.228   2.028   1.393 -0.4842 -0.4357 -4.0376
  411SOL     OW 1231   2.588   1.896   3.042  0.5363  0.1717  0.0371
  411SOL    HW1 1232   2.535   1.950   2.973 -0.6880 -0.4621  0.2909
  411SOL    HW2 1233   2.652   1.830   2.995 -2.1676 -1.2133 -0.1499
  412SOL     OW 1234   1.458   2.463   2.167  0.2824 -0.4998 -0.1447
  412SOL    HW1 1235   1.523   2.531   2.214 -0.1989  1.0756  1.2066
  412SOL    HW2 1236   1.373   2.443   2.229 -0.6029 -1.5922 -1.6263
  413SOL     OW 1237   3.040   0.240   2.952 -0.4516 -0.5595 -0.3718
  413SOL    HW1 1238   3.014   0.149   2.998  1.1612 -2.9615 -1.2981
  413SOL    HW2 1239   3.143   0.252   2.947  0.4518 -4.2635 -1.1957
  414SOL     OW 1240   1.841   1.503   1.195  0.4565  0.2619 -0.3662
  414SOL    HW1 1241   1.775   1.582   1.169 -0.6543 -1.8366  1.6808
  414SOL    HW2 1242   1.803   1.406   1.202  0.3437 -0.6973 -0.5258
  415SOL     OW 1243   0.359   2.224   0.688 -0.2286  0.7608 -0.3232
  415SOL    HW1 1244   0.277   2.281   0.675  2.3172  0.4114  1.3369
  415SOL    HW2 1245   0.338   2.164   0.773 -2.1074  1.9780 -0.1904
  416SOL     OW 1246   0.379   1.023   1.065 -0.0008  0.4242 -0.1562
  416SOL    HW1 1247   0.355   0.971   0.975  0.8839  1.5634  1.6156
  416SOL    HW2 1248   0.466   1.082   1.053  0.1031  0.5869  0.6052
  417SOL     OW 1249   2.228   2.336   2.005 -0.0350 -0.2983  0.7331
  417SOL    HW1 1250   2.316   2.283   1.995  0.4877 -1.5319 -0.0107
  417SOL    HW2 1251   2.143   2.289   1.978  1.8580  0.7073 -0.2653
  418SOL     OW 1252   1.086   0.530   1.352  0.0001  0.3098  0.2883
  418SOL    HW1 1253   1.018   0.528   1.272 -3.7959  2.2070 -1.4716
  418SOL    HW2 1254   1.184   0.554   1.329 -0.0099 -0.2540 -0.6468
  419SOL     OW 1255   0.917   0.470   3.011  0.4526  0.6092 -0.1339
  419SOL    HW1 1256   0.874   0.458   2.921  0.3822  2.1201  2.2479
  419SOL    HW2 1257   0.968   0.557   3.014 -2.5742  0.6478  0.5471
  420SOL     OW 1258   0.094   2.259   0.459  0.2205 -0.0942  0.4817
  420SOL    HW1 1259   0.130   2.205   0.380 -1.1666 -1.0480  2.2855
  420SOL    HW2 1260   0.000   2.230   0.494  0.3197  0.3703  2.0242
  421SOL     OW 1261   0.358   3.020   0.658 -0.3039 -0.1400 -0.1413
  421SOL    HW1 1262   0.349   2.939   0.725  1.0733 -0.1276 -0.4200
  421SOL    HW2 1263   0.454   3.054   0.645 -2.4659 -1.9583 -2.0043
  422SOL     OW 1264   1.058   2.488   1.029 -0.1757  0.5896  0.4393
  422SOL    HW1 1265   1.106   2.564   0.976  2.4102 -2.0585  1.0810
  422SOL    HW2 1266   1.035   2.522   1.124 -0.5502 -0.4572 -0.4405
  423SOL     OW 1267   0.091   0.679   1.303  0.6492  0.3790 -0.4315
  423SOL    HW1 1268   0.031   0.620   1.363 -0.5176 -2.0655  3.4620
  423SOL    HW2 1269   0.056   0.776   1.285  1.2575  1.7474  0.9472
  424SOL     OW 1270   0.987   2.217   2.036  0.2359  0.6873 -0.2919
  424SOL    HW1 1271   1.007   2.320   2.027  0.4546  1.1088 -0.0202
  424SOL    HW2 1272   0.973   2.186   2.134 -0.7927 -2.4737  0.9302
  425SOL     OW 1273   2.023   1.330   0.981 -0.3503 -0.0693  0.3731
  425SOL    HW1 1274   2.102   1.272   1.008  0.9739  1.5429  0.4607
  425SOL    HW2 1275   2.058   1.421   0.936 -0.9430  1.6887 -0.5644
  426SOL     OW 1276   1.475   1.591   1.390  0.0098 -0.1664 -0.4229
  426SOL    HW1 1277   1.465   1.659   1.314 -0.9430 -1.2283  2.4659
  426SOL    HW2 1278   1.411   1.618   1.473  0.9263 -0.8343  3.9810
  427SOL     OW 1279   1.903   2.362   2.051  0.2107 -0.0652  0.4060
  427SOL    HW1 1280   1.964   2.309   2.111 -1.4816 -0.5823 -0.2566
  427SOL    HW2 1281   1.931   2.463   2.041  1.2730  1.9135  0.4477
  428SOL     OW 1282   0.847   3.082   0.172 -0.2874  1.0497 -0.5147
  428SOL    HW1 1283   0.830   3.149   0.095 -0.9646  1.1235  0.6665
  428SOL    HW2 1284   0.948   3.050   0.170 -1.8605  3.4627 -0.5819
  429SOL     OW 1285   1.311   0.058   0.254 -0.0983 -0.0097  0.0575
  429SOL    HW1 1286   1.410   0.083   0.276 -0.9373 -0.0326 -0.8377
  429SOL    HW2 1287   1.289   0.061   0.153  0.7841  2.2422  0.2556
  430SOL     OW 1288   2.762   1.430   0.308 -0.1802 -0.0708 -0.2159
  430SOL    HW1 1289   2.789   1.473   0.220 -0.9169 -1.3394  2.0271
  430SOL    HW2 1290   2.806   1.484   0.388  3.2297  0.2554  0.5496
  431SOL     OW 1291   2.101   1.555   0.881  0.2840 -0.1964 -0.1963
  431SOL    HW1 1292   2.192   1.597   0.901 -1.6167 -0.1025  1.5406
  431SOL    HW2 1293   2.039   1.605   0.812 -0.9833  1.2153 -0.0685
  432SOL     OW 1294   2.844   2.241   1.251  0.5615  0.0565 -0.0929
  432SOL    HW1 1295   2.761   2.194   1.288 -1.6498  2.2899 -1.1181
  432SOL    HW2 1296   2.919   2.237   1.322  1.4830 -2.8300  0.5678
  433SOL     OW 1297   1.854   0.366   0.851 -0.6089  0.1424  0.1205
  433SOL    HW1 1298   1.760   0.359   0.894  2.0835 -0.4095  0.2657
  433SOL    HW2 1299   1.909   0.285   0.862 -0.2253 -0.5573 -0.1470
  434SOL     OW 1300   1.510   0.240   0.757 -0.1634  0.3351 -0.5598
  434SOL    HW1 1301   1.465   0.321   0.717  1.2209 -3.2605  0.5872
  434SOL    HW2 1302   1.573   0.268   0.834 -1.7379 -1.4995  2.3432
  435SOL     OW 1303   1.472   1.483   2.116 -0.1139  0.0659 -1.1073
  435SOL    HW1 1304   1.458   1.564   2.184 -1.7139  2.9945  1.4106
  435SOL    HW2 1305   1.525   1.515   2.037  0.4177 -2.6438 -2.3807
  436SOL     OW 1306   1.700   2.739   2.225  0.4608 -0.1687  0.4498
  436SOL    HW1 1307   1.662   2.822   2.276 -1.9335 -2.3992  0.1277
  436SOL    HW2 1308   1.708   2.658   2.290  1.5688 -2.1511 -0.7807
  437SOL     OW 1309   1.098   2.933   0.953  0.4005  0.6462  0.7599
  437SOL    HW1 1310   1.052   3.021   0.930  2.1503 -0.2928 -1.1821
  437SOL    HW2 1311   1.099   2.919   1.056  0.2617  0.3677 -0.0680
  438SOL     OW 1312   0.996   2.598   1.306 -0.0922 -0.0609  0.1055
  438SOL    HW1 1313   1.083   2.630   1.356  1.9276  1.3115  1.4412
  438SOL    HW2 1314   0.982   2.496   1.313  3.0575  0.7743  0.8693
  439SOL     OW 1315   0.682   1.762   1.078 -0.0760  0.3844  0.0191
  439SOL    HW1 1316   0.695   1.838   1.010 -1.0308  1.1224  1.3792
  439SOL    HW2 1317   0.582   1.752   1.101  0.0711 -0.4392 -1.1368
  440SOL     OW 1318   1.005   2.505   1.973 -0.0372 -0.0711 -0.9283
  440SOL    HW1 1319   0.983   2.568   1.890 -3.3955  0.9784  0.3619
  440SOL    HW2 1320   1.107   2.487   1.980  2.4105  0.8278  0.8838
  441SOL     OW 1321   0.501   2.728   1.432  0.2834 -0.0252  0.2592
  441SOL    HW1 1322   0.575   2.652   1.450  0.5392  1.9408  0.1261
  441SOL    HW2 1323   0.405   2.689   1.438 -2.2568 -2.1380 -3.0153
  442SOL     OW 1324   2.293   0.692   2.492 -0.4570  0.2969  0.4175
  442SOL    HW1 1325   2.306   0.599   2.534 -1.8534  0.0178 -1.2090
  442SOL    HW2 1326   2.194   0.704   2.461 -2.4614  0.5736  2.3322
  443SOL     OW 1327   1.259   2.700   2.139 -0.2811  0.0625  0.1256
  443SOL    HW1 1328   1.212   2.743   2.223 -4.1320  0.3385  2.1525
  443SOL    HW2 1329   1.266   2.601   2.160  1.7701  2.6732  0.3364
  444SOL     OW 1330   1.074   1.263   1.593 -0.6218 -0.3261 -0.4648
  444SOL    HW1 1331   1.173   1.229   1.601  0.7650  0.0647  2.2674
  444SOL    HW2 1332   1.072   1.365   1.615  0.2273  2.2868  1.6301
  445SOL     OW 1333   0.030   2.361   1.853 -0.4471  0.2270  0.3153
  445SOL    HW1 1334   0.022   2.458   1.820 -1.3633 -2.9588  0.0040
  445SOL    HW2 1335  -0.053   2.331   1.910  1.0118 -0.9851  1.1040
  446SOL     OW 1336   0.249   1.906   2.302 -0.1440  0.2473  0.0447
  446SOL    HW1 1337   0.204   1.986   2.355 -3.8298 -1.4834 -0.1256
  446SOL    HW2 1338   0.174   1.868   2.237 -3.0466 -0.1831  0.8735
  447SOL     OW 1339   1.175   1.680   1.936 -0.2827  0.1336  0.1743
  447SOL    HW1 1340   1.104   1.754   1.922 -0.9870 -2.5349 -0.2570
  447SOL    HW2 1341   1.270   1.715   1.920  0.4849  1.1234  2.6699
  448SOL     OW 1342   0.163   1.536   2.034  0.7435  0.3271  0.4171
  448SOL    HW1 1343   0.169   1.617   1.972  0.5823 -2.2837 -0.9199
  448SOL    HW2 1344   0.119   1.562   2.131 -1.2569 -1.7566  2.2107
  449SOL     OW 1345   1.963   2.947   0.834  0.1729 -0.3183 -0.0435
  449SOL    HW1 1346   2.036   2.938   0.908  2.9473 -0.0686  0.5568
  449SOL    HW2 1347   1.965   2.857   0.781  1.2520 -3.1232 -0.0558
  450SOL     OW 1348   2.344   1.365   0.737  0.3557 -0.2701 -0.1722
  450SOL    HW1 1349   2.270   1.300   0.769 -0.4746 -0.9603  1.6614
  450SOL    HW2 1350   2.311   1.428   0.662 -1.1515 -0.5706  2.0409
  451SOL     OW 1351   1.318   3.051   1.441  0.0988  0.4272 -0.2241
  451SOL    HW1 1352   1.264   3.133   1.466  0.5775  0.2176  0.0231
  451SOL    HW2 1353   1.373   3.013   1.520  0.0325  0.2627 -2.4835
  452SOL     OW 1354   2.678   2.285   2.166  0.3058 -0.0926  0.2204
  452SOL    HW1 1355   2.626   2.370   2.202  1.8330  1.3247  2.3832
  452SOL    HW2 1356   2.711   2.217   2.239 -0.1080 -0.2202  0.0171
  453SOL     OW 1357   2.461   2.669   3.083 -0.5125  0.0493 -0.5620
  453SOL    HW1 1358   2.360   2.704   3.105 -2.4874  0.4617 -1.7456
  453SOL    HW2 1359   2.460   2.592   3.008  3.3599 -1.3759 -1.9901
  454SOL     OW 1360   1.034   1.112   2.068  0.2443 -0.4755 -0.4319
  454SOL    HW1 1361   0.993   1.106   1.973  0.6341 -0.2025  0.4566
  454SOL    HW2 1362   1.116   1.171   2.084 -0.0747 -1.9077  2.0385
  455SOL     OW 1363   0.628   2.604   2.886 -0.5535 -0.1336  0.4031
  455SOL    HW1 1364   0.695   2.634   2.955  0.4459 -0.5132 -0.6845
  455SOL    HW2 1365   0.603   2.502   2.901  2.8900 -1.2383 -0.4142
  456SOL     OW 1366   0.491   1.920   0.332  0.1675 -0.0555  0.2671
  456SOL    HW1 1367   0.583   1.880   0.360 -0.8008  0.2712 -0.2202
  456SOL    HW2 1368   0.498   2.018   0.305 -2.7069 -1.8217  1.4972
  457SOL     OW 1369   0.334   2.612   0.693  0.4038  0.3754  0.2256
  457SOL    HW1 1370   0.339   2.651   0.601  2.1122 -4.3076  3.1495
  457SOL    HW2 1371   0.423   2.621   0.745  0.4762  0.3696  1.0630
  458SOL     OW 1372   2.959  -0.001   1.206 -0.3415  0.2175 -0.3489
  458SOL    HW1 1373   2.981   0.098   1.237 -1.0176 -0.1452  1.4962
  458SOL    HW2 1374   2.961  -0.026   1.105 -0.4557  2.1741  2.0345
  459SOL     OW 1375   2.198   2.549   0.808 -0.3709 -0.9352  0.4587
  459SOL    HW1 1376   2.230   2.647   0.840 -1.0181  2.7015 -0.3370
  459SOL    HW2 1377   2.276   2.491   0.774  0.5016 -1.1474 -1.4567
  460SOL     OW 1378   1.130   1.973   2.893 -0.6643  0.1959  0.3103
  460SOL    HW1 1379   1.168   2.021   2.805 -1.2738  1.6987  0.5748
  460SOL    HW2 1380   1.198   1.902   2.935  2.6846 -1.0923 -0.4846
  461SOL     OW 1381   0.512   2.099   2.667 -0.4456  0.2674  0.3719
  461SOL    HW1 1382   0.443   2.031   2.634  0.7328  0.8901 -1.2135
  461SOL    HW2 1383   0.564   2.074   2.755  0.7713  1.4855 -0.4093
  462SOL     OW 1384   0.913   1.085   1.822  0.1451  1.0091  0.4238
  462SOL    HW1 1385   0.978   1.033   1.762  0.0874 -2.3085 -0.7778
  462SOL    HW2 1386   0.888   1.175   1.770  0.3288 -0.6038 -0.6504
  463SOL     OW 1387   0.465   0.784   0.501 -0.0700 -0.2037  0.3575
  463SOL    HW1 1388   0.483   0.700   0.445 -3.9358 -0.0122  0.2173
  463SOL    HW2 1389   0.362   0.805   0.520  1.8536 -0.7804  0.0000
  464SOL     OW 1390   0.578   2.261   2.255  0.0169 -0.5061  0.3721
  464SOL    HW1 1391   0.549   2.329   2.331 -1.3161  0.0622  2.9908
  464SOL    HW2 1392   0.565   2.298   2.160 -2.7977  0.0925  1.7840
  465SOL     OW 1393   0.314   0.927   0.811 -0.3245  0.4653  0.1259
  465SOL    HW1 1394   0.219   0.967   0.786 -0.2322  0.8892  0.2091
  465SOL    HW2 1395   0.312   0.828   0.804  1.2429  1.7103 -1.1581
  466SOL     OW 1396   1.363   1.141   1.093  0.2032  0.3945  0.6012
  466SOL    HW1 1397   1.430   1.222   1.089  2.4479 -0.1777  0.8301
  466SOL    HW2 1398   1.262   1.166   1.092  2.1750 -1.3019  4.2245
  467SOL     OW 1399   0.490   0.298   2.355 -0.0244 -0.3640  0.1117
  467SOL    HW1 1400   0.455   0.397   2.376 -1.7036  1.0677 -0.9118
  467SOL    HW2 1401   0.460   0.237   2.437  0.8186  0.2081  1.8441
  468SOL     OW 1402   0.472   2.306   1.680  0.2389  0.3610  0.0746
  468SOL    HW1 1403   0.554   2.357   1.704 -1.6088 -0.1697  0.7715
  468SOL    HW2 1404   0.434   2.331   1.588  1.9615  0.6952  0.7983
  469SOL     OW 1405   1.517   1.344   1.231 -0.3595 -0.3774  0.3610
  469SOL    HW1 1406   1.616   1.318   1.206 -0.4006 -2.3964  3.3902
  469SOL    HW2 1407   1.517   1.412   1.310  0.8584  3.7772  0.9407
  470SOL     OW 1408   3.023   1.667   0.795  0.1932  0.2377 -0.1750
  470SOL    HW1 1409   3.112   1.710   0.761  0.7221  0.8381 -0.5633
  470SOL    HW2 1410   2.999   1.706   0.890 -0.1409  0.2945 -0.9967
  471SOL     OW 1411   2.647   1.327   2.157  0.0260  0.4971  0.1396
  471SOL    HW1 1412   2.637   1.246   2.222 -1.1106 -0.6957  0.8146
  471SOL    HW2 1413   2.734   1.384   2.168  0.6194 -2.5831 -0.0851
  472SOL     OW 1414   1.141   2.507   3.063 -0.0531 -0.0227 -0.2007
  472SOL    HW1 1415   1.186   2.503   3.156  0.3265  0.6680  2.5702
  472SOL    HW2 1416   1.099   2.418   3.027 -0.3112 -1.6299 -0.8646
  473SOL     OW 1417   1.088   1.502   0.994 -0.8439 -0.0420 -0.3078
  473SOL    HW1 1418   0.985   1.530   1.008 -1.2798 -0.2441  0.1349
  473SOL    HW2 1419   1.137   1.487   1.080  1.7573  0.9808 -1.4454
  474SOL     OW 1420   0.707   1.247   0.597  0.1450 -0.5978  0.2958
  474SOL    HW1 1421   0.663   1.227   0.509 -0.9821 -1.1816 -0.3854
  474SOL    HW2 1422   0.763   1.167   0.633 -0.1348 -1.1633  1.5396
  475SOL     OW 1423   2.840   0.135   0.758 -0.2113  0.8637 -0.3266
  475SOL    HW1 1424   2.929   0.157   0.807  0.4051  2.4094  0.6384
  475SOL    HW2 1425   2.757   0.121   0.820 -2.5254  0.2927  1.0608
  476SOL     OW 1426   0.863   2.973   1.769 -0.4565 -0.3347  0.0753
  476SOL    HW1 1427   0.942   2.963   1.834 -1.0740 -1.4634 -0.1538
  476SOL    HW2 1428   0.895   2.966   1.673 -1.1996 -1.4984  0.9571
  477SOL     OW 1429   1.441   0.341   2.494 -0.1698 -0.0405 -0.1828
  477SOL    HW1 1430   1.438   0.364   2.597  0.5939 -1.1133  0.4868
  477SOL    HW2 1431   1.529   0.293   2.470  4.1479 -0.2019  1.2597
  478SOL     OW 1432   2.223   1.836   0.270  0.3161 -0.5683 -0.1784
  478SOL    HW1 1433   2.143   1.767   0.249  0.9189 -1.3182 -1.2001
  478SOL    HW2 1434   2.312   1.793   0.246  2.8960 -1.6973  1.9245
  479SOL     OW 1435   1.282   1.096   2.937  0.6702 -0.0516 -0.1489
  479SOL    HW1 1436   1.345   1.122   2.863  4.0644 -0.0112  0.0773
  479SOL    HW2 1437   1.190   1.075   2.903 -0.0904  2.6022  4.1387
  480SOL     OW 1438   2.513   2.312   0.380  0.1493  0.4201  0.2196
  480SOL    HW1 1439   2.490   2.208   0.390 -0.9881 -0.9288 -1.1542
  480SOL    HW2 1440   2.466   2.346   0.294  1.1854  0.8337 -0.0053
  481SOL     OW 1441   1.025   1.149   0.836 -0.2221 -0.0118  0.5566
  481SOL    HW1 1442   1.044   1.242   0.796 -1.0839 -1.4326 -1.9017
  481SOL    HW2 1443   1.038   1.156   0.940 -0.1381  2.9487  0.4687
  482SOL     OW 1444   1.601   0.293   2.043  0.7386 -0.0128  0.3662
  482SOL    HW1 1445   1.618   0.391   2.015 -0.2117  1.6830  0.1682
  482SOL    HW2 1446   1.682   0.248   2.087 -2.5154  1.6263 -0.6981
  483SOL     OW 1447   0.159   2.325   1.234  0.5274  0.1761  0.0768
  483SOL    HW1 1448   0.086   2.354   1.300 -0.4264 -2.7300 -0.1278
  483SOL    HW2 1449   0.163   2.386   1.153 -0.5196 -0.2152  1.3892
  484SOL     OW 1450   1.743   1.060   1.393 -0.7931 -0.3576 -0.5420
  484SOL    HW1 1451   1.793   0.970   1.396  0.4955 -0.5919 -1.6303
  484SOL    HW2 1452   1.761   1.126   1.471  0.0435 -2.0741  1.3224
  485SOL     OW 1453   0.641   1.052   1.832 -0.4747 -0.3950 -0.8754
  485SOL    HW1 1454   0.636   1.048   1.731 -2.5763  1.1726  2.6785
  485SOL    HW2 1455   0.739   1.060   1.860  0.5467 -0.4698  0.9572
  486SOL     OW 1456   0.889   1.916   2.462  0.6488 -0.0300  0.4295
  486SOL    HW1 1457   0.929   1.870   2.540  0.6150  3.0664 -0.1364
  486SOL    HW2 1458   0.840   2.001   2.487  0.6829 -1.5172  2.0559
  487SOL     OW 1459   1.814   1.583   0.917 -0.7387 -0.6706  0.0805
  487SOL    HW1 1460   1.877   1.555   0.991 -1.2039  2.5922  0.2888
  487SOL    HW2 1461   1.863   1.642   0.845 -0.3099  1.0739 -3.1470
  488SOL     OW 1462   2.933   0.860   2.264 -0.2283  0.3577 -0.1530
  488SOL    HW1 1463   2.962   0.778   2.210  0.0469 -0.0007 -0.3963
  488SOL    HW2 1464   2.971   0.859   2.362  0.6427 -0.0039 -0.3025
  489SOL     OW 1465   2.772   0.262   1.294  0.1432  0.1132 -0.1646
  489SOL    HW1 1466   2.770   0.187   1.366  0.6630 -2.0545  2.2897
  489SOL    HW2 1467   2.868   0.290   1.275 -0.8506 -3.0135 -0.6461
  490SOL     OW 1468   1.449   2.908   2.807 -0.3104 -0.2385 -0.0280
  490SOL    HW1 1469   1.488   2.809   2.803  0.9101 -0.5581  0.0856
  490SOL    HW2 1470   1.445   2.960   2.717  0.7613 -1.0673 -1.9710
  491SOL     OW 1471   1.823   1.469   2.601 -0.5398  0.1287  0.6571
  491SOL    HW1 1472   1.766   1.512   2.671  1.9137 -0.1242 -0.7622
  491SOL    HW2 1473   1.925   1.479   2.622 -1.6387 -0.5823  0.6186
  492SOL     OW 1474   0.518   1.987   0.651  0.2399  0.3198  0.4350
  492SOL    HW1 1475   0.573   2.020   0.735 -0.9474  0.2682 -0.2584
  492SOL    HW2 1476   0.468   2.070   0.616 -1.5727 -0.7222 -0.7355
  493SOL     OW 1477   0.395   1.403   2.058 -0.2390 -0.1372  0.2406
  493SOL    HW1 1478   0.306   1.462   2.075 -0.3359 -1.7588 -0.4276
  493SOL    HW2 1479   0.420   1.342   2.136 -0.1874  2.2640 -0.3768
  494SOL     OW 1480   2.635   2.750   0.208 -0.1827  0.2951  0.6020
  494SOL    HW1 1481   2.635   2.663   0.266  0.8262  1.0557 -1.4638
  494SOL    HW2 1482   2.584   2.736   0.115 -1.9391 -0.3539 -0.3943
  495SOL     OW 1483   2.790   2.662   2.675 -0.4675  0.1777 -0.1753
  495SOL    HW1 1484   2.727   2.584   2.655  0.1543  0.4164 -0.6921
  495SOL    HW2 1485   2.807   2.721   2.591  0.2914 -1.5031 -0.8694
  496SOL     OW 1486   2.028   2.230   0.706 -0.2573  0.0425 -0.1091
  496SOL    HW1 1487   2.047   2.247   0.807 -0.9760 -3.4462 -0.6687
  496SOL    HW2 1488   2.091   2.159   0.667  1.4765 -1.2895  0.8916
  497SOL     OW 1489   0.234   3.000   2.471 -0.0039 -0.2616 -0.1634
  497SOL    HW1 1490   0.222   3.085   2.526 -2.3791  2.0338 -2.1992
  497SOL    HW2 1491   0.262   3.021   2.375  0.4690  0.0174  0.3521
  498SOL     OW 1492   1.238   1.417   1.223 -0.2377  0.1053  0.0714
  498SOL    HW1 1493   1.334   1.383   1.235  0.6218  0.7539 -0.8057
  498SOL    HW2 1494   1.228   1.505   1.280  1.5475 -0.4204 -3.0330
  499SOL     OW 1495   0.719   1.863   0.497 -0.2224 -0.0672  0.6384
  499SOL    HW1 1496   0.742   1.776   0.548 -0.0332 -0.0266  1.0349
  499SOL    HW2 1497   0.659   1.924   0.553  3.0421  0.8004 -1.4365
  500SOL     OW 1498   1.462   2.943   1.639  0.1133  0.7266 -0.2069
  500SOL    HW1 1499   1.426   2.949   1.735  0.6086 -1.2186 -0.6265
  500SOL    HW2 1500   1.522   2.859   1.620  1.3623  0.5510  1.7943
  501SOL     OW 1501   0.852   1.107   2.288  0.2401  0.0992 -0.2387
  501SOL    HW1 1502   0.780   1.031   2.273 -1.0306 -1.8940 -0.5145
  501SOL    HW2 1503   0.908   1.124   2.205 -2.3120  0.2116 -2.1016
  502SOL     OW 1504   2.633   0.953   1.756  0.0225  0.4394  0.2249
  502SOL    HW1 1505   2.644   0.945   1.650  0.8033 -0.8139  0.7238
  502SOL    HW2 1506   2.554   0.898   1.788  0.4763 -0.9223  1.3020
  503SOL     OW 1507   1.256   0.107   0.656  0.2475  0.3205  0.3592
  503SOL    HW1 1508   1.179   0.177   0.649  0.0069  3.2355  1.3355
  503SOL    HW2 1509   1.351   0.142   0.632 -1.6743  1.5385 -2.7915
  504SOL     OW 1510   3.044   2.352   1.436 -0.0524 -0.1741 -0.7092
  504SOL    HW1 1511   3.001   2.430   1.489  0.7892  3.6423  0.8843
  504SOL    HW2 1512   3.095   2.287   1.505 -2.8611 -0.4175  1.9703
  505SOL     OW 1513   2.265   1.173   1.497 -0.0731 -0.3742 -0.1267
  505SOL    HW1 1514   2.293   1.203   1.403 -0.4446  2.1639  0.8386
  505SOL    HW2 1515   2.334   1.204   1.570  2.6611  0.3300  3.7367
  506SOL     OW 1516   1.987   0.153   1.791 -0.3260  0.0720 -0.4901
  506SOL    HW1 1517   2.078   0.110   1.799 -0.7640  0.1741 -1.3384
  506SOL    HW2 1518   1.981   0.244   1.840  1.9263  2.5445 -0.0570
  507SOL     OW 1519   0.548   0.706   2.159 -0.6024 -0.1613  0.0061
  507SOL    HW1 1520   0.490   0.664   2.085  1.4762 -3.2130  0.1095
  507SOL    HW2 1521   0.637   0.652   2.184  1.9505 -3.1730  0.6728
  508SOL     OW 1522   0.246   1.660   0.872  0.6166 -0.0249  0.0472
  508SOL    HW1 1523   0.329   1.696   0.822  0.8502  2.1850  1.3909
  508SOL    HW2 1524   0.233   1.706   0.968  1.1147  0.1648  1.1576
  509SOL     OW 1525   1.321   1.261   2.342  0.2912 -0.1801  0.8336
  509SOL    HW1 1526   1.302   1.310   2.252 -1.3001  2.2215 -2.0814
  509SOL    HW2 1527   1.340   1.158   2.341  1.8418  4.2608  0.4087
  510SOL     OW 1528   1.295   2.025   2.069  0.2069  0.1046 -0.4446
  510SOL    HW1 1529   1.292   2.127   2.059  1.6572  1.2976  0.7254
  510SOL    HW2 1530   1.205   1.987   2.115 -0.4602  0.2649 -0.5175
  511SOL     OW 1531   3.085   2.731   1.289 -0.0030 -0.6905  0.5825
  511SOL    HW1 1532   3.063   2.685   1.197  2.1356  2.4766  0.4770
  511SOL    HW2 1533   3.001   2.759   1.338 -0.3088  0.6702  0.8784
  512SOL     OW 1534   2.356   0.419   1.383  0.0575 -0.4173  0.5945
  512SOL    HW1 1535   2.256   0.399   1.396  1.8326 -1.8620  1.9220
  512SOL    HW2 1536   2.400   0.339   1.333 -2.0079 -0.3622  2.0421
  513SOL     OW 1537   2.508   2.070   0.851 -0.1478  0.2013 -0.2096
  513SOL    HW1 1538   2.455   2.128   0.783 -0.6167 -0.1872  2.1414
  513SOL    HW2 1539   2.593   2.014   0.815  1.6064 -1.9188 -0.1938
  514SOL     OW 1540   0.555   2.767   0.508 -0.4089  0.1783  0.2142
  514SOL    HW1 1541   0.588   2.814   0.420  2.2681 -2.7724 -0.2847
  514SOL    HW2 1542   0.603   2.808   0.587 -1.1010 -1.0823  0.1215
  515SOL     OW 1543   2.038   1.112   2.288 -0.4901 -0.0286 -0.6894
  515SOL    HW1 1544   2.010   1.148   2.194  5.9853 -0.1297 -0.4108
  515SOL    HW2 1545   1.960   1.124   2.356  3.8619 -0.1288  0.9691
  516SOL     OW 1546   0.277   0.298   1.912  0.4039 -0.9801 -0.3252
  516SOL    HW1 1547   0.330   0.303   1.828 -0.5198 -0.9774  3.1364
  516SOL    HW2 1548   0.181   0.265   1.897  1.9007 -1.0133  0.2006
  517SOL     OW 1549   0.436   3.076   1.170 -0.6816 -0.1786  0.2494
  517SOL    HW1 1550   0.458   3.174   1.187 -0.1568 -2.8849 -1.0605
  517SOL    HW2 1551   0.337   3.061   1.187  0.4096 -0.1822 -1.9792
  518SOL     OW 1552   2.235   0.026   1.813 -0.7171 -0.1641 -0.2774
  518SOL    HW1 1553   2.277   0.117   1.840  0.6751  2.3388  0.4163
  518SOL    HW2 1554   2.291  -0.017   1.740  0.0545 -0.1322  1.1302
  519SOL     OW 1555   2.365   2.230   2.586  0.1925 -0.1437 -0.0586
  519SOL    HW1 1556   2.279   2.202   2.641 -1.3115 -0.3317  2.3027
  519SOL    HW2 1557   2.386   2.331   2.578 -0.7193  1.4158  1.6309
  520SOL     OW 1558   1.785   2.830   1.872 -0.1858  0.6921 -0.1625
  520SOL    HW1 1559   1.686   2.814   1.904 -2.7181 -0.2761  0.2583
  520SOL    HW2 1560   1.827   2.738   1.841 -0.1032 -0.3569  0.0218
  521SOL     OW 1561   0.575   0.024   2.142 -0.2907 -0.0368  0.4316
  521SOL    HW1 1562   0.473   0.013   2.146  1.1046 -0.9946 -0.1836
  521SOL    HW2 1563   0.622   0.025   2.232  1.0738  0.4291 -0.2946
  522SOL     OW 1564   0.211   1.920   1.445  0.0943  0.1776  0.3320
  522SOL    HW1 1565   0.236   1.976   1.529  1.6959  0.8627 -0.3518
  522SOL    HW2 1566   0.188   1.983   1.365  0.4605 -1.1601 -0.8638
  523SOL     OW 1567   2.262   2.983   1.542  0.1644  0.2046 -0.1656
  523SOL    HW1 1568   2.345   2.916   1.529 -0.8965 -0.3745 -1.9778
  523SOL    HW2 1569   2.170   2.930   1.528 -2.0490 -1.4028  1.6231
  524SOL     OW 1570   0.180   2.803   2.823 -0.2945 -0.6573 -0.3443
  524SOL    HW1 1571   0.130   2.892   2.813 -2.9198 -1.8863 -0.6485
  524SOL    HW2 1572   0.280   2.818   2.807 -0.4183 -3.8329 -0.7050
  525SOL     OW 1573   2.146   2.010   0.467 -0.1891 -0.2371  0.0915
  525SOL    HW1 1574   2.160   1.973   0.564  1.3672  2.9938  0.7568
  525SOL    HW2 1575   2.137   1.928   0.407  1.8334 -2.6000  2.1021
  526SOL     OW 1576   0.410   1.554   1.679 -0.1260  0.1099  0.3573
  526SOL    HW1 1577   0.364   1.532   1.769 -1.7832 -0.5899  0.4713
  526SOL    HW2 1578   0.475   1.477   1.651 -0.9751  2.5635 -1.1440
  527SOL     OW 1579   1.101   2.947   1.228  0.2058 -0.0204 -0.1916
  527SOL    HW1 1580   1.186   2.919   1.278 -2.9279 -0.3731  1.5389
  527SOL    HW2 1581   1.092   3.051   1.216 -0.1726  0.7538  0.6926
  528SOL     OW 1582   1.341   2.420   0.530  0.0963  0.2029 -0.5093
  528SOL    HW1 1583   1.361   2.314   0.530  0.1772  0.4341  0.4764
  528SOL    HW2 1584   1.419   2.469   0.581 -0.2475  0.1020 -0.5366
  529SOL     OW 1585   1.943   1.739   0.725 -0.2223  0.5631  0.5724
  529SOL    HW1 1586   1.870   1.740   0.646  0.0816  0.4326  1.8764
  529SOL    HW2 1587   1.936   1.817   0.798  0.1669  1.0948  2.5380
  530SOL     OW 1588   0.298   2.578   0.300  0.3778 -0.8853  0.7135
  530SOL    HW1 1589   0.286   2.662   0.366 -1.9366  1.9384 -0.5689
  530SOL    HW2 1590   0.339   2.499   0.352 -0.1569  0.1015 -0.4499
  531SOL     OW 1591   1.800   1.004   0.983 -0.2910  0.0618 -0.2248
  531SOL    HW1 1592   1.831   1.046   0.897  0.4236  2.3618  0.8975
  531SOL    HW2 1593   1.698   0.983   0.990 -0.6940 -0.8069 -0.6925
  532SOL     OW 1594   0.459   1.152   0.752  0.8024 -0.7862 -0.0370
  532SOL    HW1 1595   0.538   1.142   0.680  0.2240  0.1064 -1.2218
  532SOL    HW2 1596   0.412   1.060   0.765  0.4426 -2.8112  1.6176
  533SOL     OW 1597   1.756   0.028   2.616 -0.1814  0.2943 -0.0293
  533SOL    HW1 1598   1.856   0.000   2.627 -1.1678  1.9743 -2.1804
  533SOL    HW2 1599   1.729   0.091   2.692  1.2554 -1.1523 -0.3050
  534SOL     OW 1600   0.324   0.246   1.632 -0.8242  0.2236  0.0143
  534SOL    HW1 1601   0.413   0.247   1.575  3.5885  2.6284  0.0951
  534SOL    HW2 1602   0.259   0.326   1.603 -1.7122  2.6032 -0.3794
  535SOL     OW 1603   1.967   0.338   0.124 -0.5181 -0.0962 -0.2061
  535SOL    HW1 1604   1.949   0.420   0.185 -1.0438 -1.4313 -3.1066
  535SOL    HW2 1605   1.957   0.248   0.179 -0.4893  2.5845 -0.2439
  536SOL     OW 1606   1.409   2.594   0.927  0.2194  0.5209 -0.0439
  536SOL    HW1 1607   1.405   2.564   1.030 -0.2650  1.2103  1.8325
  536SOL    HW2 1608   1.315   2.612   0.888 -0.9692 -0.8778 -0.1166
  537SOL     OW 1609   0.820   0.261   2.411  0.6637  0.0075  0.2818
  537SOL    HW1 1610   0.816   0.319   2.326 -1.4732  2.0313  1.4745
  537SOL    HW2 1611   0.771   0.167   2.409 -0.7242  0.6105 -1.8021
  538SOL     OW 1612   1.628   2.370   1.545 -0.3835 -0.1218 -0.5041
  538SOL    HW1 1613   1.596   2.272   1.537 -3.0399 -2.0728  0.7168
  538SOL    HW2 1614   1.699   2.400   1.474  1.3154 -0.7229 -1.0654
  539SOL     OW 1615   0.186   1.646   2.709 -0.7417  0.2567 -0.5797
  539SOL    HW1 1616   0.099   1.653   2.650  0.8225 -1.0194 -0.8977
  539SOL    HW2 1617   0.185   1.719   2.784  0.6043 -0.6835  0.8105
  540SOL     OW 1618   2.657   1.734   1.933  0.5210  0.2956  0.4998
  540SOL    HW1 1619   2.587   1.668   1.975 -2.6571 -1.5324  1.0959
  540SOL    HW2 1620   2.632   1.837   1.924 -0.3233  3.2231 -2.1053
  541SOL     OW 1621   0.471   2.200   0.020 -0.2353 -0.2201  0.0570
  541SOL    HW1 1622   0.483   2.184   0.124 -2.0146 -0.4135 -1.4724
  541SOL    HW2 1623   0.382   2.163  -0.023 -0.5254  1.5025 -1.0433
  542SOL     OW 1624   2.228   2.579   0.427 -0.1649 -0.2419  0.0153
  542SOL    HW1 1625   2.185   2.667   0.452  1.1946  0.6175 -2.3542
  542SOL    HW2 1626   2.170   2.494   0.435 -0.0832  1.7211  0.7259
  543SOL     OW 1627   1.103   1.845   1.571  0.2773 -0.2964 -0.0295
  543SOL    HW1 1628   1.053   1.838   1.659  2.9803  1.5549  1.8873
  543SOL    HW2 1629   1.058   1.909   1.501 -0.1618 -1.2897  1.0979
  544SOL     OW 1630   1.086   0.451   0.199  0.7285  0.1782 -0.7712
  544SOL    HW1 1631   1.073   0.363   0.258  1.5641  2.6835 -0.4275
  544SOL    HW2 1632   1.093   0.425   0.099  1.6754 -1.0027  2.1170
  545SOL     OW 1633   1.110   1.743   0.815  0.0223  0.1619 -0.3238
  545SOL    HW1 1634   1.208   1.761   0.784  0.0745  0.1152 -0.9221
  545SOL    HW2 1635   1.092   1.640   0.823 -0.0128 -3.3187 -1.2355
  546SOL     OW 1636   2.626   1.506   3.037  0.7755  1.0113 -0.0063
  546SOL    HW1 1637   2.640   1.599   2.994  1.2999  0.8510  0.4391
  546SOL    HW2 1638   2.526   1.485   3.036 -1.2210  0.6490  1.0050
  547SOL     OW 1639   0.609   3.013   2.637 -0.1884  0.0766 -0.6633
  547SOL    HW1 1640   0.713   2.999   2.664 -0.0879 -0.9192 -1.7253
  547SOL    HW2 1641   0.544   2.962   2.706 -1.1491 -1.3290  2.8170
  548SOL     OW 1642   2.069   0.913   2.967  0.1343 -0.3315  0.6321
  548SOL    HW1 1643   1.975   0.874   2.988  0.9321 -0.5716  0.0906
  548SOL    HW2 1644   2.086   1.002   3.010 -0.1063 -2.3468 -3.0920
  549SOL     OW 1645   0.704   0.517   0.178  0.1050  0.2570 -0.4881
  549SOL    HW1 1646   0.630   0.565   0.113 -2.5595  0.6340 -1.5653
  549SOL    HW2 1647   0.792   0.571   0.171 -0.1319  0.4698  1.9442
  550SOL     OW 1648   2.612   2.823   2.880  0.1878 -0.5209 -0.0202
  550SOL    HW1 1649   2.563   2.759   2.942  0.1690  1.3724 -1.7409
  550SOL    HW2 1650   2.672   2.766   2.814  1.3127 -0.2607  0.7612
  551SOL     OW 1651   0.276   0.848   0.237  0.2547 -0.1040 -0.1853
  551SOL    HW1 1652   0.379   0.846   0.230 -0.7883  0.9120 -1.7137
  551SOL    HW2 1653   0.236   0.832   0.333 -0.4753 -0.3358 -1.3339
  552SOL     OW 1654   0.626   2.973   1.906 -0.5411 -0.0644 -0.4336
  552SOL    HW1 1655   0.632   3.020   2.000  2.3628 -0.4169  1.4510
  552SOL    HW2 1656   0.707   2.983   1.842  0.9234  0.2776 -3.1134
  553SOL     OW 1657   2.939   2.496   0.368 -0.5074 -0.4035 -0.0778
  553SOL    HW1 1658   2.900   2.400   0.379 -0.0546 -1.1212  0.4641
  553SOL    HW2 1659   2.876   2.574   0.381 -2.2309  0.2952  0.1962
  554SOL     OW 1660   2.151   0.377   0.554  0.2458  0.0510 -0.0763
  554SOL    HW1 1661   2.186   0.394   0.454 -0.2470 -1.8608 -2.3355
  554SOL    HW2 1662   2.154   0.275   0.571  1.1877 -2.2064 -1.8480
  555SOL     OW 1663   0.390   2.771   2.487 -0.2456  0.6402  0.7336
  555SOL    HW1 1664   0.332   2.858   2.487  0.6004  1.6890 -1.6761
  555SOL    HW2 1665   0.415   2.745   2.388  0.0063 -1.4080 -2.9896
  556SOL     OW 1666   0.864   2.380   1.543  0.1658 -0.3768  0.3297
  556SOL    HW1 1667   0.897   2.459   1.603 -0.9763 -1.7543 -1.5620
  556SOL    HW2 1668   0.921   2.365   1.454  2.4870 -1.8161 -0.4583
  557SOL     OW 1669   0.154   2.084   0.231  0.1000 -0.4999 -0.6574
  557SOL    HW1 1670   0.080   2.017   0.212  0.6791  1.3052 -0.4695
  557SOL    HW2 1671   0.190   2.116   0.142 -1.0791  1.3396  1.3906
  558SOL     OW 1672   2.779   2.254   0.389 -0.2038 -0.4169  0.5846
  558SOL    HW1 1673   2.682   2.279   0.397  0.8705 -0.1817  2.0207
  558SOL    HW2 1674   2.798   2.182   0.319 -2.4193  1.3437 -1.2585
  559SOL     OW 1675   0.388   2.297   1.415 -0.0091  0.5989  0.3162
  559SOL    HW1 1676   0.291   2.308   1.379 -0.3595  0.1682  0.1652
  559SOL    HW2 1677   0.439   2.221   1.370  2.3729  2.1178  0.1541
  560SOL     OW 1678   2.102   1.181   3.051 -0.1319 -0.5554  0.1105
  560SOL    HW1 1679   2.128   1.190   3.151  0.5811  0.8938 -0.8503
  560SOL    HW2 1680   2.142   1.256   2.986  0.2916  0.7252  0.4008
  561SOL     OW 1681   3.077   1.849   0.015 -0.0578 -0.0393 -0.0678
  561SOL    HW1 1682   3.034   1.806   0.097 -0.1479  1.5883  0.0611
  561SOL    HW2 1683   3.024   1.934  -0.008 -1.5512 -1.0102  0.7404
  562SOL     OW 1684   0.957   2.197   2.327  0.5824 -0.3417 -0.2329
  562SOL    HW1 1685   0.989   2.251   2.408 -0.5618  0.7411 -2.3596
  562SOL    HW2 1686   0.986   2.095   2.329 -0.4346 -5.2444 -2.6051
  563SOL     OW 1687   0.688   2.592   2.611  0.3862  0.2853 -0.4072
  563SOL    HW1 1688   0.771   2.531   2.619 -0.8570  1.4442 -0.9624
  563SOL    HW2 1689   0.657   2.619   2.708  0.4967  0.7669 -0.7375
  564SOL     OW 1690   2.817   1.329   2.892 -0.0517  0.1087 -0.2592
  564SOL    HW1 1691   2.736   1.384   2.927 -0.7695  0.9462  2.6638
  564SOL    HW2 1692   2.888   1.392   2.845  0.1224 -1.4723 -0.3899
  565SOL     OW 1693   2.539   2.031   2.650  0.1977  0.4609  0.2943
  565SOL    HW1 1694   2.476   2.113   2.628 -0.6887  0.1381 -0.6617
  565SOL    HW2 1695   2.619   2.048   2.716  2.0186  2.6045  2.3615
  566SOL     OW 1696   2.068   2.833   1.426 -0.4434  0.1171  0.2657
  566SOL    HW1 1697   2.000   2.754   1.447 -1.4506  0.1892  2.5438
  566SOL    HW2 1698   2.058   2.877   1.335 -1.9683 -0.0721  0.0215
  567SOL     OW 1699   2.416   3.044   2.378  0.0364 -0.3724 -0.7182
  567SOL    HW1 1700   2.315   3.050   2.392 -1.5083  0.1043 -1.2507
  567SOL    HW2 1701   2.442   3.021   2.282 -2.8568  2.2984 -0.0376
  568SOL     OW 1702   1.536   1.747   0.208  0.0250  0.3959  0.2552
  568SOL    HW1 1703   1.449   1.798   0.190  0.2426  0.4791 -0.3620
  568SOL    HW2 1704   1.614   1.808   0.235  2.8642  0.0315 -2.2563
  569SOL     OW 1705   0.272   0.651   0.822 -0.3112 -0.7402 -0.8765
  569SOL    HW1 1706   0.324   0.562   0.797  0.8856  1.8758  1.8854
  569SOL    HW2 1707   0.175   0.658   0.796  0.9156 -1.8486  2.3903
  570SOL     OW 1708   0.650   0.825   2.937 -0.0308 -0.3864 -0.0875
  570SOL    HW1 1709   0.704   0.863   2.855 -1.0588 -2.2466 -0.6974
  570SOL    HW2 1710   0.655   0.888   3.017  1.9074  1.1794  0.6112
  571SOL     OW 1711   0.767   3.088   1.075 -0.4869  0.3959  0.2428
  571SOL    HW1 1712   0.841   3.116   1.002  0.2130  2.2738 -0.4177
  571SOL    HW2 1713   0.725   2.992   1.052 -0.6568 -2.8555  1.5493
  572SOL     OW 1714   1.637   2.652   1.339 -0.2934  0.4885 -0.4804
  572SOL    HW1 1715   1.578   2.609   1.269  0.0607 -0.3542  0.9709
  572SOL    HW2 1716   1.640   2.758   1.337  0.9015 -1.0536  0.6142
  573SOL     OW 1717   2.903   0.483   2.023  0.8890  0.1900  0.4000
  573SOL    HW1 1718   2.827   0.417   1.999 -2.9727 -0.6858  0.3357
  573SOL    HW2 1719   2.969   0.493   1.945 -0.7955  0.1717  1.4581
  574SOL     OW 1720   0.146   1.768   1.114 -0.0582 -0.8980  0.3045
  574SOL    HW1 1721   0.218   1.831   1.159  1.3297  0.6514 -1.0628
  574SOL    HW2 1722   0.054   1.818   1.101 -0.7247  2.9993 -0.8416
  575SOL     OW 1723   0.816   2.212   0.936 -0.3752  0.3741  0.1741
  575SOL    HW1 1724   0.786   2.244   1.031 -2.0372  0.2908 -2.1930
  575SOL    HW2 1725   0.878   2.289   0.894  0.9626  1.8377 -0.6324
  576SOL     OW 1726   2.851   2.999   1.673  0.4891 -0.2769  0.0674
  576SOL    HW1 1727   2.752   2.973   1.651 -2.8634 -1.1248  1.0324
  576SOL    HW2 1728   2.876   3.097   1.640 -2.5041  1.4732 -2.2326
  577SOL     OW 1729   2.528   1.180   3.099 -0.1619 -0.3794  0.2830
  577SOL    HW1 1730   2.538   1.102   3.027  3.1095 -0.3661 -1.0463
  577SOL    HW2 1731   2.621   1.185   3.147  1.9151 -0.2220 -1.4158
  578SOL     OW 1732   1.445   2.715   2.461 -0.7334  1.0692  0.0158
  578SOL    HW1 1733   1.352   2.723   2.413  0.2328 -0.4389  0.0698
  578SOL    HW2 1734   1.497   2.805   2.459  0.1348  0.3077 -0.5539
  579SOL     OW 1735   0.047   2.483   0.182 -0.1099  0.0236 -0.2593
  579SOL    HW1 1736  -0.025   2.449   0.250  0.0196 -0.1514  1.0008
  579SOL    HW2 1737   0.129   2.517   0.234 -0.6254  0.1029 -1.7831
  580SOL     OW 1738   0.975   2.670   0.347  0.8379 -0.0374 -0.8242
  580SOL    HW1 1739   1.070   2.675   0.301 -1.7516  0.3420  0.6063
  580SOL    HW2 1740   0.908   2.600   0.312 -1.4565  0.0997  0.2663
  581SOL     OW 1741   1.213   2.661   1.457 -0.4236  0.2751  0.1428
  581SOL    HW1 1742   1.287   2.590   1.480  0.2928  0.0040 -1.4442
  581SOL    HW2 1743   1.263   2.740   1.410 -0.5340 -0.3570  1.0968
  582SOL     OW 1744   1.493   0.097   1.856  0.2218  0.1337  0.1432
  582SOL    HW1 1745   1.510   0.169   1.929 -0.1830 -1.6694  1.4916
  582SOL    HW2 1746   1.573   0.101   1.789 -3.1354 -0.5317 -1.9541
  583SOL     OW 1747   2.421   3.095   0.497  0.1261 -0.5355 -0.0796
  583SOL    HW1 1748   2.511   3.056   0.470  0.6961  2.4480 -0.2621
  583SOL    HW2 1749   2.346   3.028   0.520 -1.6591 -1.6479  2.3113
  584SOL     OW 1750   1.545   1.109   2.228  0.5345 -0.1372  0.3911
  584SOL    HW1 1751   1.612   1.172   2.186  0.0809  1.6169  0.9152
  584SOL    HW2 1752   1.578   1.008   2.248 -1.8322 -2.2147  1.5445
  585SOL     OW 1753   2.127   2.696   2.923 -0.4591 -0.4041 -0.3402
  585SOL    HW1 1754   2.146   2.592   2.929  1.1386  0.4041 -0.1443
  585SOL    HW2 1755   2.040   2.712   2.872  1.2492 -1.6575 -0.3547
  586SOL     OW 1756   2.834   0.338   1.615  0.2013  0.4688 -0.3170
  586SOL    HW1 1757   2.855   0.434   1.645  2.6017 -0.0720 -3.7126
  586SOL    HW2 1758   2.729   0.324   1.629 -2.9934 -0.0033 -1.6665
  587SOL     OW 1759   2.079   1.513   2.661 -0.2074 -0.1805 -0.0932
  587SOL    HW1 1760   2.127   1.440   2.605 -1.5225  0.4194  0.4208
  587SOL    HW2 1761   2.117   1.534   2.754  1.9613 -3.0267 -0.5645
  588SOL     OW 1762   0.455   2.684   2.227 -0.0645  0.0377 -0.0362
  588SOL    HW1 1763   0.384   2.661   2.161  0.8323  1.2388 -1.1558
  588SOL    HW2 1764   0.492   2.594   2.272 -1.0872  0.0568  1.3275
  589SOL     OW 1765   2.183   1.326   2.472  0.3361 -0.1023  0.2195
  589SOL    HW1 1766   2.154   1.255   2.397 -0.1708  0.5420 -2.2641
  589SOL    HW2 1767   2.282   1.316   2.504  1.1056 -1.9160 -0.9556
  590SOL     OW 1768   2.299   1.772   2.030  0.0562  0.5143 -0.3414
  590SOL    HW1 1769   2.355   1.691   2.005 -3.9382 -0.3833 -0.9367
  590SOL    HW2 1770   2.305   1.814   2.125 -2.7463  1.0073 -0.1112
  591SOL     OW 1771   1.259   2.425   0.233  0.0117 -0.2178  0.1567
  591SOL    HW1 1772   1.284   2.350   0.168  0.0892 -0.2448  2.5296
  591SOL    HW2 1773   1.310   2.417   0.323  2.9093  0.2025  2.3076
  592SOL     OW 1774   1.777   2.310   0.733  0.0138  0.1577  0.5412
  592SOL    HW1 1775   1.761   2.385   0.665  1.4135  1.1234  0.4298
  592SOL    HW2 1776   1.874   2.268   0.723 -1.2602 -0.8386  0.9313
  593SOL     OW 1777   0.708   0.252   0.211 -0.0770  0.0668 -0.2869
  593SOL    HW1 1778   0.758   0.219   0.126  2.7989 -0.8155  2.3692
  593SOL    HW2 1779   0.686   0.358   0.216  1.0348  0.1868 -0.2074
  594SOL     OW 1780   1.026   1.821   2.687  0.1586 -0.1654 -0.3544
  594SOL    HW1 1781   1.109   1.764   2.657  0.3784 -0.3910  2.9537
  594SOL    HW2 1782   1.046   1.869   2.776  1.3924 -2.2045 -2.9036
  595SOL     OW 1783   1.539   0.068   1.013 -0.4407  1.0668 -0.4698
  595SOL    HW1 1784   1.614   0.006   0.976  1.4281  0.7888 -0.3310
  595SOL    HW2 1785   1.451   0.037   0.967  0.6996  0.3545 -1.8982
  596SOL     OW 1786   0.052   1.573   2.269 -0.1841  0.4957  0.2663
  596SOL    HW1 1787   0.084   1.473   2.281  1.4783  2.2132 -1.3303
  596SOL    HW2 1788   0.045   1.624   2.363  0.7520 -2.8973  2.2377
  597SOL     OW 1789   1.932   2.625   1.792 -0.7200  0.5217  0.4664
  597SOL    HW1 1790   1.904   2.580   1.703  0.3903  2.0656  1.9648
  597SOL    HW2 1791   2.029   2.609   1.827 -1.0219  1.9242 -0.9107
  598SOL     OW 1792   2.525   2.917   1.225 -0.2209  0.0831  0.3245
  598SOL    HW1 1793   2.598   2.924   1.298 -1.0535  0.3311  1.1704
  598SOL    HW2 1794   2.570   2.893   1.132  2.0002 -0.0390  0.0060
  599SOL     OW 1795   2.892   0.302   2.457  0.1795  0.0579 -0.4796
  599SOL    HW1 1796   2.959   0.380   2.467 -0.9776 -1.1595 -0.4849
  599SOL    HW2 1797   2.804   0.328   2.411  0.5520  0.4254  2.2299
  600SOL     OW 1798   2.809   1.097   2.736 -0.2952  0.1999 -0.0167
  600SOL    HW1 1799   2.720   1.042   2.721 -2.5224  1.3463  0.5067
  600SOL    HW2 1800   2.794   1.165   2.813  0.1271 -0.3988 -0.6424
  601SOL     OW 1801   3.059   1.322   1.998  0.4120 -0.1950 -0.3901
  601SOL    HW1 1802   2.974   1.369   1.964 -2.0792 -0.9208 -0.1311
  601SOL    HW2 1803   3.142   1.384   1.987 -1.9721  0.4649  0.3546
  602SOL     OW 1804   1.446   1.694   2.298  0.1681  0.0214  0.5225
  602SOL    HW1 1805   1.373   1.636   2.353  0.1178  0.3439  1.2899
  602SOL    HW2 1806   1.542   1.678   2.339  0.9305  1.9463  4.6888
  603SOL     OW 1807   0.612   1.207   2.808  0.0451 -0.2580 -0.3709
  603SOL    HW1 1808   0.525   1.197   2.754 -0.4639 -1.8174  1.6197
  603SOL    HW2 1809   0.682   1.147   2.759 -0.0161 -0.3420  1.0048
  604SOL     OW 1810   2.405   1.002   0.180  0.3541  0.2740  0.2501
  604SOL    HW1 1811   2.454   1.066   0.115 -0.8328 -0.8426  0.6691
  604SOL    HW2 1812   2.412   0.907   0.144  1.4478  2.1019 -1.4094
  605SOL     OW 1813   2.520   1.149   1.914  0.0003 -0.0073  0.1628
  605SOL    HW1 1814   2.570   1.095   1.837 -0.2564 -0.5460  2.3234
  605SOL    HW2 1815   2.580   1.170   1.997 -0.3061  1.6528  2.8086
  606SOL     OW 1816   1.529   2.473   2.597 -0.3344 -0.2254  0.2375
  606SOL    HW1 1817   1.482   2.556   2.558  0.3466 -2.2511 -4.1565
  606SOL    HW2 1818   1.500   2.384   2.547 -0.6628 -1.6712  0.8119
  607SOL     OW 1819   1.333   1.579   0.307 -0.0403 -0.5092 -0.0176
  607SOL    HW1 1820   1.255   1.644   0.308 -2.1716 -0.4797  0.1206
  607SOL    HW2 1821   1.419   1.620   0.272 -3.0857  0.0655 -0.3861
  608SOL     OW 1822   1.463   2.834   0.406 -0.1518  0.0897  0.0634
  608SOL    HW1 1823   1.506   2.866   0.316  0.3395 -0.3360 -0.3401
  608SOL    HW2 1824   1.406   2.904   0.456 -0.2251  0.8577  1.2418
  609SOL     OW 1825   1.270   1.326   0.268  0.0886  0.7611 -0.1915
  609SOL    HW1 1826   1.286   1.419   0.302 -2.5903 -1.2074  2.4204
  609SOL    HW2 1827   1.255   1.325   0.162  1.9824  2.8723 -2.7951
  610SOL     OW 1828   2.952   1.152   2.217  0.0459 -0.1561  0.2417
  610SOL    HW1 1829   2.958   1.048   2.231 -1.1150 -0.8564 -1.4755
  610SOL    HW2 1830   2.983   1.185   2.125  0.6743  0.5732  1.1864
  611SOL     OW 1831   2.530   0.278   1.182  0.4661 -0.0540 -0.1314
  611SOL    HW1 1832   2.495   0.179   1.166  0.4166 -0.2225  1.3024
  611SOL    HW2 1833   2.623   0.274   1.230 -0.9458 -0.8199  5.1682
  612SOL     OW 1834   0.749   2.271   1.185 -0.5430  0.7764 -0.0520
  612SOL    HW1 1835   0.675   2.198   1.221 -0.2249 -2.6721 -2.2290
  612SOL    HW2 1836   0.699   2.359   1.166 -0.5483 -1.4257 -1.0575
  613SOL     OW 1837   0.791   1.377   2.394  0.1640  0.2647  0.0040
  613SOL    HW1 1838   0.797   1.439   2.312 -0.7683 -0.0385 -0.1683
  613SOL    HW2 1839   0.805   1.282   2.362  0.5867  1.2968  0.8276
  614SOL     OW 1840   1.580   1.701   1.946  0.1025 -0.6196 -0.3377
  614SOL    HW1 1841   1.534   1.780   1.902 -0.8421 -0.9887  0.1954
  614SOL    HW2 1842   1.640   1.729   2.025  1.7955 -3.0038 -2.4231
  615SOL     OW 1843   0.783   1.341   1.728  0.2787 -0.1547  0.0666
  615SOL    HW1 1844   0.707   1.326   1.661  1.7634 -5.7559 -1.1523
  615SOL    HW2 1845   0.859   1.411   1.697  1.7761  3.3916 -1.0443
  616SOL     OW 1846   1.083   1.598   2.180  0.4388 -0.4828 -0.2148
  616SOL    HW1 1847   0.979   1.572   2.185  0.1567 -0.4459  0.6093
  616SOL    HW2 1848   1.120   1.616   2.084 -0.0183  0.9975  2.7457
  617SOL     OW 1849   2.967   1.534   1.568  0.2339 -0.2093  1.2881
  617SOL    HW1 1850   2.941   1.470   1.645 -0.3518 -1.2258 -3.2473
  617SOL    HW2 1851   2.982   1.488   1.479 -1.0577  0.7120  1.1596
  618SOL     OW 1852   1.914   2.011   1.419 -0.0734 -0.2904  0.2737
  618SOL    HW1 1853   1.963   1.989   1.331  0.3569 -0.2073 -0.5840
  618SOL    HW2 1854   1.879   1.925   1.463  0.5588 -0.7314  1.5417
  619SOL     OW 1855   1.767   0.491   2.393 -0.3308 -0.1480  0.0271
  619SOL    HW1 1856   1.690   0.544   2.349 -3.4594 -0.4866  0.9729
  619SOL    HW2 1857   1.726   0.398   2.421 -1.9887 -0.5771 -1.9527
  620SOL     OW 1858   2.191   2.954   0.607  0.2480 -0.2123 -0.0983
  620SOL    HW1 1859   2.122   3.027   0.624  0.2711 -4.3472 -0.6269
  620SOL    HW2 1860   2.225   2.912   0.699 -0.3631  0.2902  2.2547
  621SOL     OW 1861   2.132   1.855   1.293  0.6284  0.3067  0.1379
  621SOL    HW1 1862   2.149   1.857   1.395 -0.7358  0.0573 -2.3374
  621SOL    HW2 1863   2.106   1.762   1.255 -1.7523  0.8462 -1.0048
  622SOL     OW 1864   2.155   0.857   1.770 -0.7663 -0.4836 -0.7346
  622SOL    HW1 1865   2.250   0.833   1.732 -0.8496 -0.7386  0.4517
  622SOL    HW2 1866   2.122   0.791   1.846  1.0375  1.6994  0.1959
  623SOL     OW 1867   1.371   0.770   2.627 -0.3062 -0.2237 -0.4155
  623SOL    HW1 1868   1.310   0.713   2.693  0.7055 -0.6240 -0.0819
  623SOL    HW2 1869   1.308   0.806   2.550  0.3638 -0.8049 -2.7769
  624SOL     OW 1870   0.519   0.663   0.011 -0.1121  0.1589  0.2977
  624SOL    HW1 1871   0.584   0.697  -0.057 -0.2636  0.6379  1.7769
  624SOL    HW2 1872   0.518   0.716   0.100 -0.1554 -1.0118 -2.5047
  625SOL     OW 1873   2.797   1.748   0.954 -0.2380 -0.0964 -0.0951
  625SOL    HW1 1874   2.744   1.785   1.032 -1.9205  0.1003 -1.1443
  625SOL    HW2 1875   2.781   1.647   0.936  0.8699  0.0954 -0.2094
  626SOL     OW 1876   0.565   2.702   1.836 -0.4400  0.6473 -0.2017
  626SOL    HW1 1877   0.576   2.794   1.882 -1.6930  0.0122 -0.7882
  626SOL    HW2 1878   0.466   2.672   1.828  0.3967  0.6175 -0.0717
  627SOL     OW 1879   0.724   0.990   1.551 -0.4712  0.3830  0.3559
  627SOL    HW1 1880   0.750   0.895   1.524 -0.0626 -0.6915  1.5503
  627SOL    HW2 1881   0.776   1.060   1.496 -0.2564 -3.5287 -1.8444
  628SOL     OW 1882   2.401   0.179   0.690  0.0089  0.6519 -0.2737
  628SOL    HW1 1883   2.421   0.106   0.620  0.2930 -1.8424 -0.0315
  628SOL    HW2 1884   2.302   0.173   0.726  1.8360 -0.1924 -1.8175
  629SOL     OW 1885   1.952   0.897   1.993 -0.1025  0.2997 -0.6081
  629SOL    HW1 1886   2.054   0.920   2.015 -0.1916 -0.8606 -0.5937
  629SOL    HW2 1887   1.887   0.979   1.984  0.7848  0.3623  0.7439
  630SOL     OW 1888   2.803   2.224   0.774 -0.7778  0.0677  0.2810
  630SOL    HW1 1889   2.729   2.287   0.803 -1.0735 -1.4434 -0.1910
  630SOL    HW2 1890   2.761   2.128   0.764 -1.8588  2.3163 -0.7896
  631SOL     OW 1891   2.951   0.118   2.086  0.6156 -0.3670 -0.1931
  631SOL    HW1 1892   2.977   0.190   2.157 -0.8352 -0.5943  2.8774
  631SOL    HW2 1893   3.032   0.108   2.015  0.8690  0.0009  0.3254
  632SOL     OW 1894   2.434   2.497   0.632 -0.2340 -0.3728 -0.0881
  632SOL    HW1 1895   2.493   2.582   0.642 -1.6033 -0.6266 -1.1887
  632SOL    HW2 1896   2.349   2.506   0.574  0.0578 -1.5667 -1.5480
  633SOL     OW 1897   1.501   1.278   2.527  1.1196  0.1271 -0.0063
  633SOL    HW1 1898   1.488   1.350   2.601 -0.6562 -0.0172  1.2334
  633SOL    HW2 1899   1.432   1.277   2.449 -1.1484 -1.3596  0.8763
  634SOL     OW 1900   0.655   1.984   0.914 -0.2572  0.2290 -0.1184
  634SOL    HW1 1901   0.561   1.999   0.955 -1.1285  0.6471 -1.1935
  634SOL    HW2 1902   0.710   2.072   0.918  1.2399  1.1130  0.2157
  635SOL     OW 1903   0.019   2.329   3.061  0.3663 -0.2874  0.1634
  635SOL    HW1 1904  -0.045   2.349   2.978  0.9206 -0.0352 -1.5821
  635SOL    HW2 1905   0.020   2.404   3.134  1.4328  2.1545  0.8280
  636SOL     OW 1906   2.273   2.729   2.038 -0.1631  0.6030 -0.6273
  636SOL    HW1 1907   2.268   2.833   2.048  3.2306  1.0065 -1.6439
  636SOL    HW2 1908   2.269   2.682   2.133  1.0610 -1.4676  3.1725
  637SOL     OW 1909   2.595   0.703   2.052  0.1538 -0.0167  0.2069
  637SOL    HW1 1910   2.541   0.712   1.965 -0.6875 -1.8750  0.6310
  637SOL    HW2 1911   2.630   0.798   2.083 -0.6281  3.0982  0.2031
  638SOL     OW 1912   2.422   1.847   1.285  0.1931 -0.3383  0.6464
  638SOL    HW1 1913   2.319   1.842   1.285  4.0769 -1.8574 -1.9632
  638SOL    HW2 1914   2.465   1.768   1.339 -2.1622 -1.8361 -1.2112
  639SOL     OW 1915   1.302   2.202   1.652 -0.5542 -0.6406 -0.9082
  639SOL    HW1 1916   1.302   2.155   1.562 -0.0247  1.0220  0.6349
  639SOL    HW2 1917   1.212   2.186   1.700  0.7297  0.0629 -2.7524
  640SOL     OW 1918   0.203   1.181   1.562  0.5470 -0.0040  0.2358
  640SOL    HW1 1919   0.200   1.237   1.649  0.6778  0.1224 -1.6821
  640SOL    HW2 1920   0.282   1.113   1.561 -1.4752 -3.1018 -0.5348
  641SOL     OW 1921   2.043   0.082   1.506 -0.1555 -0.4994 -0.0208
  641SOL    HW1 1922   2.023   0.083   1.609  0.5196 -0.5550  0.8094
  641SOL    HW2 1923   2.120   0.020   1.477 -0.4924  2.8486 -0.3785
  642SOL     OW 1924   1.971   0.104   0.293 -0.0689  0.0112  0.0507
  642SOL    HW1 1925   2.063   0.120   0.338 -2.3168 -2.2328 -2.4054
  642SOL    HW2 1926   1.892   0.127   0.351  1.5288 -2.2532  0.9854
  643SOL     OW 1927   2.871   1.894   2.062 -0.7066  0.0872  0.2307
  643SOL    HW1 1928   2.819   1.808   2.034 -0.1395  0.9870 -0.8088
  643SOL    HW2 1929   2.847   1.974   1.994 -3.0488 -1.0600 -0.3325
  644SOL     OW 1930   2.235   2.331   1.183 -0.7837  0.0401  0.0016
  644SOL    HW1 1931   2.306   2.265   1.146  0.9560 -1.5147 -3.8126
  644SOL    HW2 1932   2.206   2.317   1.279 -2.4963  1.0845  1.3663
  645SOL     OW 1933   0.637   0.868   1.194 -0.0036 -0.5000  0.2030
  645SOL    HW1 1934   0.549   0.813   1.171  0.1739 -1.5552 -0.9515
  645SOL    HW2 1935   0.678   0.905   1.105 -0.8261  0.2478  1.3592
  646SOL     OW 1936   1.448   1.930   1.851  0.3070  0.4384 -0.2997
  646SOL    HW1 1937   1.532   1.983   1.875 -1.8824  0.1432 -1.2814
  646SOL    HW2 1938   1.369   1.957   1.914  0.2364  0.5348  2.0873
  647SOL     OW 1939   0.844   1.012   0.667  0.3859 -0.0323  0.6688
  647SOL    HW1 1940   0.908   1.033   0.747  0.9079 -1.9677  3.0006
  647SOL    HW2 1941   0.776   0.940   0.691  0.4977  1.8274  2.1981
  648SOL     OW 1942   0.125   0.182   0.246 -0.6229 -0.1986  0.1328
  648SOL    HW1 1943   0.148   0.109   0.173 -0.0801 -0.3468  0.8133
  648SOL    HW2 1944   0.114   0.275   0.203 -0.5610  2.6361 -0.6089
  649SOL     OW 1945   3.062   0.185   0.914 -0.0339 -0.4787  0.3938
  649SOL    HW1 1946   3.113   0.233   0.838 -0.3361 -2.4821 -0.5868
  649SOL    HW2 1947   3.095   0.209   1.008  2.8693 -1.5992  0.0756
  650SOL     OW 1948   2.717   0.695   1.437  0.1056  0.3768 -0.0463
  650SOL    HW1 1949   2.611   0.694   1.447 -2.5160  1.6278 -4.7323
  650SOL    HW2 1950   2.750   0.745   1.349  0.9547 -1.2343  0.1511
  651SOL     OW 1951   0.946   1.576   1.633 -0.1620 -0.0604  0.3098
  651SOL    HW1 1952   0.947   1.671   1.657 -1.4965 -1.3960  1.0346
  651SOL    HW2 1953   0.951   1.555   1.532 -1.5979  1.7640  0.0724
  652SOL     OW 1954   2.269   2.517   2.498 -0.2057  0.2562 -0.2579
  652SOL    HW1 1955   2.200   2.471   2.555  2.6936  0.7249 -1.4183
  652SOL    HW2 1956   2.232   2.593   2.433  0.6150  1.2822 -0.2771
  653SOL     OW 1957   2.734   1.177   0.207 -0.0685 -0.3975  0.5970
  653SOL    HW1 1958   2.762   1.277   0.226  1.0440  1.0900  2.2711
  653SOL    HW2 1959   2.792   1.103   0.249 -0.2888  1.6695  1.3158
  654SOL     OW 1960   1.245   2.251   1.230 -0.0461 -0.0790 -0.1709
  654SOL    HW1 1961   1.283   2.190   1.310 -1.2318 -1.4576  0.0465
  654SOL    HW2 1962   1.310   2.244   1.149 -0.5818  0.5932 -0.8555
  655SOL     OW 1963   0.213   0.938   1.855  0.1146  0.0481 -0.3174
  655SOL    HW1 1964   0.218   0.863   1.780 -1.4356 -1.6570 -2.2988
  655SOL    HW2 1965   0.300   0.995   1.865 -0.9248  1.7332  2.1333
  656SOL     OW 1966   2.529   2.500   2.600 -0.1880 -0.2751  0.2161
  656SOL    HW1 1967   2.602   2.472   2.530 -2.1395 -0.4926  1.4969
  656SOL    HW2 1968   2.433   2.535   2.560 -1.5465  2.1860  2.3624
  657SOL     OW 1969   3.087   1.063   1.901  0.2736  0.9711 -0.1317
  657SOL    HW1 1970   3.111   1.163   1.922  0.6619 -1.1516 -0.2992
  657SOL    HW2 1971   3.175   1.010   1.868  0.2754 -0.3808 -1.2093
  658SOL     OW 1972   1.685   0.228   2.406 -0.7357 -0.0499 -0.1774
  658SOL    HW1 1973   1.702   0.165   2.489 -1.4147 -0.1197 -1.1428
  658SOL    HW2 1974   1.718   0.189   2.315  2.0032 -1.6497  2.6648
  659SOL     OW 1975   1.452   0.641   2.915 -0.3378 -0.1278 -0.2980
  659SOL    HW1 1976   1.502   0.730   2.931  0.5506 -1.8255 -0.5116
  659SOL    HW2 1977   1.358   0.653   2.872  0.2699 -3.0670 -1.0237
  660SOL     OW 1978   1.437   0.350   1.448  0.1203  0.4256 -0.1756
  660SOL    HW1 1979   1.498   0.343   1.533 -0.5426  0.5481  0.2282
  660SOL    HW2 1980   1.486   0.342   1.362 -2.1377  0.2972  0.9890
  661SOL     OW 1981   2.500   1.151   0.663  0.3839  0.1420 -0.0236
  661SOL    HW1 1982   2.520   1.164   0.560 -1.0036  0.6019 -3.3757
  661SOL    HW2 1983   2.457   1.240   0.702 -0.9407  1.7095 -1.0581
  662SOL     OW 1984   1.341   0.424   1.841 -0.1201  0.3430  0.2237
  662SOL    HW1 1985   1.290   0.336   1.816 -1.2627  1.5802  0.7196
  662SOL    HW2 1986   1.315   0.459   1.935 -0.6075 -0.4274 -1.4637
  663SOL     OW 1987   0.814   1.583   2.144  0.1743  0.2443  0.3255
  663SOL    HW1 1988   0.777   1.681   2.171 -1.9000  2.1985  0.8609
  663SOL    HW2 1989   0.744   1.538   2.086  1.5576 -0.4237 -1.2324
  664SOL     OW 1990   1.645   2.099   1.454  0.5300 -0.2429 -0.3530
  664SOL    HW1 1991   1.597   2.019   1.504 -1.7680  0.7430 -0.6189
  664SOL    HW2 1992   1.748   2.086   1.447  2.0669  0.8529  1.8285
  665SOL     OW 1993   2.223   0.660   1.996 -0.3770 -0.2814  0.9128
  665SOL    HW1 1994   2.240   0.564   2.026 -0.8694  2.1143  0.9427
  665SOL    HW2 1995   2.223   0.724   2.075  1.4523  1.4242 -1.4688
  666SOL     OW 1996   0.414   2.376   0.443  0.6475  0.3169  0.0597
  666SOL    HW1 1997   0.507   2.416   0.458 -1.7440 -0.9060 -1.6114
  666SOL    HW2 1998   0.390   2.311   0.517 -1.4853  0.6595  0.7260
  667SOL     OW 1999   1.979   0.189   1.106 -0.1016 -0.1716 -0.6678
  667SOL    HW1 2000   1.977   0.292   1.131 -0.8841 -0.3042 -4.5424
  667SOL    HW2 2001   1.915   0.140   1.176 -2.1559 -1.4942 -0.6937
  668SOL     OW 2002   1.995   0.501   1.159 -0.1769  0.6242 -0.1280
  668SOL    HW1 2003   2.067   0.507   1.089 -1.9552 -0.3441  1.4485
  668SOL    HW2 2004   2.027   0.504   1.258  0.0489  3.3821  0.6435
  669SOL     OW 2005   3.015   2.277   0.981  0.2452 -0.0525 -0.2524
  669SOL    HW1 2006   2.954   2.251   0.904 -1.8004  1.3514 -1.2169
  669SOL    HW2 2007   2.968   2.246   1.066  1.4631 -1.5639  0.8388
  670SOL     OW 2008   2.877   2.341   1.989  0.6543 -0.4572  0.1248
  670SOL    HW1 2009   2.798   2.319   2.056 -2.7224 -0.3503  0.1261
  670SOL    HW2 2010   2.875   2.442   1.962  0.1545 -1.4478  0.0662
  671SOL     OW 2011   1.802   1.780   1.442  0.0007  0.3614 -0.3875
  671SOL    HW1 2012   1.790   1.768   1.335 -2.3428  0.0065 -0.9540
  671SOL    HW2 2013   1.718   1.747   1.492 -1.3633 -0.4099 -0.2652
  672SOL     OW 2014   0.403   0.582   2.388  0.5922 -0.4717  0.2504
  672SOL    HW1 2015   0.444   0.636   2.310  1.3069  0.8805 -3.1503
  672SOL    HW2 2016   0.321   0.631   2.429  0.4070 -1.2941  0.9151
  673SOL     OW 2017   0.148   1.184   1.131  0.0742  0.0600  0.3203
  673SOL    HW1 2018   0.182   1.268   1.183 -0.2880 -0.9313  1.3528
  673SOL    HW2 2019   0.226   1.127   1.097  0.1405  0.6522 -0.9073
  674SOL     OW 2020   1.594   2.908   0.176  0.0743 -0.4190 -0.6171
  674SOL    HW1 2021   1.619   2.990   0.114  0.3649  0.1439 -0.6524
  674SOL    HW2 2022   1.636   2.820   0.139 -2.7354  2.3921 -0.9728
  675SOL     OW 2023   1.666   0.855   2.277 -0.3993 -0.1213  0.1490
  675SOL    HW1 2024   1.744   0.811   2.221  1.5418  1.4130 -0.6912
  675SOL    HW2 2025   1.581   0.804   2.252 -3.0391 -1.8089  1.9966
  676SOL     OW 2026   2.496   1.554   2.021  0.1217  0.5472  0.0297
  676SOL    HW1 2027   2.503   1.491   1.941  1.7011  1.4396 -0.1786
  676SOL    HW2 2028   2.533   1.506   2.104 -1.1675  0.6647 -2.5335
  677SOL     OW 2029   1.898   0.652   0.882 -0.5018 -0.5743  0.6971
  677SOL    HW1 2030   1.939   0.697   0.967 -0.7468  0.5300  1.5821
  677SOL    HW2 2031   1.899   0.546   0.876  1.5322 -1.3467  0.7466
  678SOL     OW 2032   0.036   0.735   1.658 -0.3636 -0.4671  0.3311
  678SOL    HW1 2033   0.134   0.708   1.674 -1.0614 -1.2149  0.2127
  678SOL    HW2 2034  -0.015   0.753   1.744  0.1729 -1.4268 -3.0393
  679SOL     OW 2035   2.564   1.151   1.124 -0.5307  0.0548 -0.4073
  679SOL    HW1 2036   2.476   1.183   1.172 -1.8355 -2.9702 -1.1916
  679SOL    HW2 2037   2.556   1.049   1.115  0.3483 -0.7027 -0.7553
  680SOL     OW 2038   2.821   0.625   1.673  0.3005 -0.4175 -0.6678
  680SOL    HW1 2039   2.772   0.670   1.592  0.3073  1.2213 -0.1504
  680SOL    HW2 2040   2.859   0.700   1.736  2.2781  0.8413 -1.1024
  681SOL     OW 2041   2.992   0.130   1.616  0.4254 -0.4175  0.4830
  681SOL    HW1 2042   3.083   0.136   1.567 -2.2535  2.5399  3.5469
  681SOL    HW2 2043   2.932   0.217   1.605  0.7918  0.4947  0.0226
  682SOL     OW 2044   0.788   0.071   1.329 -0.4052 -0.2862  0.1412
  682SOL    HW1 2045   0.740   0.003   1.393  1.6745  0.0935  1.2078
  682SOL    HW2 2046   0.776   0.050   1.226 -1.4838  2.0028 -1.1558
  683SOL     OW 2047   1.344   0.249   2.158 -0.0034  0.8299 -0.1485
  683SOL    HW1 2048   1.312   0.335   2.211  2.2546  2.6138  1.0404
  683SOL    HW2 2049   1.440   0.256   2.120 -0.4856 -0.6474 -1.1983
  684SOL     OW 2050   1.457   2.178   0.559 -0.4976  0.0431 -0.5929
  684SOL    HW1 2051   1.524   2.122   0.619  0.1482  1.1715  1.5391
  684SOL    HW2 2052   1.381   2.113   0.521 -0.3428 -0.9532 -3.1238
  685SOL     OW 2053   2.211   1.996   1.908  0.0964  0.3587 -0.2579
  685SOL    HW1 2054   2.255   2.044   1.830  3.1543 -1.7958  1.8317
  685SOL    HW2 2055   2.262   1.915   1.957 -1.3976 -1.5136  0.6797
  686SOL     OW 2056   1.509   1.758   2.729 -0.2220 -0.0570 -0.9638
  686SOL    HW1 2057   1.549   1.693   2.800  1.7617 -3.4051 -1.0574
  686SOL    HW2 2058   1.575   1.775   2.652  2.5126  0.9375 -1.0588
  687SOL     OW 2059   1.281   2.510   1.926  0.5984 -0.2235 -0.2332
  687SOL    HW1 2060   1.330   2.416   1.920 -0.5459  2.9172  0.9313
  687SOL    HW2 2061   1.328   2.582   1.986 -0.2251  3.0851 -3.6364
  688SOL     OW 2062   2.097   1.528   1.729 -0.3889 -0.7152 -0.7378
  688SOL    HW1 2063   2.200   1.557   1.723 -1.2555 -1.0140  0.7222
  688SOL    HW2 2064   2.060   1.503   1.636 -1.5006 -0.2740  0.7058
  689SOL     OW 2065   2.482   1.096   2.721 -0.1688  0.1440 -0.3081
  689SOL    HW1 2066   2.379   1.120   2.747 -1.5779 -0.1138  2.9210
  689SOL    HW2 2067   2.526   1.062   2.808  2.2693 -1.5393  0.3163
  690SOL     OW 2068   2.223   2.759   0.073 -0.7212 -0.3419  0.7114
  690SOL    HW1 2069   2.154   2.745   0.000  1.3298  0.2965 -2.1376
  690SOL    HW2 2070   2.181   2.791   0.163  0.0310 -0.8668  2.1299
  691SOL     OW 2071   2.564   0.411   2.101 -0.1018 -0.6304 -0.0293
  691SOL    HW1 2072   2.624   0.344   2.050 -1.1538  1.2054 -2.6923
  691SOL    HW2 2073   2.590   0.512   2.079 -1.9192  0.3783 -2.4225
  692SOL     OW 2074   2.767   1.211   0.709 -0.4892  0.0316 -0.1401
  692SOL    HW1 2075   2.666   1.187   0.703  1.6174 -1.0359  0.3515
  692SOL    HW2 2076   2.785   1.310   0.729 -0.0396  0.4523  2.0493
  693SOL     OW 2077   2.821   2.981   0.677  0.5591  0.0924 -0.0687
  693SOL    HW1 2078   2.817   3.082   0.697 -0.4210 -0.1749 -0.5023
  693SOL    HW2 2079   2.788   2.959   0.584  1.2989  0.2458  2.4033
  694SOL     OW 2080   2.433   2.230   0.082 -0.1381 -0.1894 -0.3453
  694SOL    HW1 2081   2.382   2.318   0.093  0.1584 -0.4704  1.5231
  694SOL    HW2 2082   2.375   2.158   0.035  2.2764  2.8309 -0.7077
  695SOL     OW 2083   0.638   2.975   1.472 -0.1242  0.1037 -0.2480
  695SOL    HW1 2084   0.598   2.895   1.415  0.5941 -1.6183 -1.3931
  695SOL    HW2 2085   0.572   2.996   1.553 -0.7422  3.4959 -0.7229
  696SOL     OW 2086   2.714   1.914   0.728 -1.0788  0.0680 -0.1250
  696SOL    HW1 2087   2.755   1.836   0.780  1.6847  2.1026 -0.0164
  696SOL    HW2 2088   2.675   1.881   0.635  3.4208 -0.2417 -1.9879
  697SOL     OW 2089   1.671   2.077   1.863  0.4902 -0.1084  0.2047
  697SOL    HW1 2090   1.746   2.010   1.881 -0.8746  0.2872 -2.1556
  697SOL    HW2 2091   1.691   2.154   1.794  1.2026  1.4976 -2.3351
  698SOL     OW 2092   2.936   0.368   2.739 -0.7112 -0.3496 -0.1754
  698SOL    HW1 2093   2.931   0.313   2.652  1.5178  1.8718 -0.5463
  698SOL    HW2 2094   2.991   0.321   2.812  2.4130 -2.1241  0.8701
  699SOL     OW 2095   1.536   0.046   2.946 -0.6330  0.4642 -0.3914
  699SOL    HW1 2096   1.519  -0.053   2.907  0.5409 -0.6054 -2.9136
  699SOL    HW2 2097   1.569   0.121   2.879 -1.2666  0.2394  0.4207
  700SOL     OW 2098   0.985   2.320   1.304 -0.3710 -0.3608  0.3344
  700SOL    HW1 2099   1.082   2.305   1.262  1.9928  1.4227 -1.7277
  700SOL    HW2 2100   0.910   2.265   1.257  2.6156  0.3867 -2.2357
  701SOL     OW 2101   1.934   2.827  -0.001  0.1253 -0.2751  0.6376
  701SOL    HW1 2102   1.911   2.771   0.083 -0.1237  1.5225  0.6511
  701SOL    HW2 2103   1.956   2.926   0.019 -1.8458  0.5448  1.1998
  702SOL     OW 2104   2.090   1.339   1.914  0.0185  0.5188  0.1779
  702SOL    HW1 2105   2.150   1.254   1.899  2.7597  1.5928  0.1258
  702SOL    HW2 2106   2.085   1.394   1.832 -0.0464 -1.8892  1.9808
  703SOL     OW 2107   1.935   0.843   1.396 -0.3301 -0.7784  0.0982
  703SOL    HW1 2108   1.929   0.762   1.457 -1.0092  1.8107  0.6933
  703SOL    HW2 2109   1.977   0.926   1.443 -1.3909 -0.0419 -1.4442
  704SOL     OW 2110   0.304   2.061   1.657 -0.3596 -0.0465 -0.3821
  704SOL    HW1 2111   0.334   2.020   1.750 -2.3148 -1.2512 -2.4655
  704SOL    HW2 2112   0.367   2.143   1.641 -0.1411  1.9716  3.4988
  705SOL     OW 2113   2.523   1.395   0.946  0.2980  0.0462  0.1412
  705SOL    HW1 2114   2.451   1.381   0.875 -2.3444 -1.2023  0.6744
  705SOL    HW2 2115   2.577   1.310   0.970  0.7486  0.7668 -1.9557
  706SOL     OW 2116   0.651   1.756   1.836 -0.3694  0.1009  0.6004
  706SOL    HW1 2117   0.669   1.653   1.846  0.6454 -1.5975 -0.3634
  706SOL    HW2 2118   0.699   1.822   1.906 -0.5514  1.4631 -2.3767
  707SOL     OW 2119   2.230   1.097   1.894  0.0834  0.1139 -0.0486
  707SOL    HW1 2120   2.329   1.100   1.921 -0.7957  1.8186  1.0144
  707SOL    HW2 2121   2.200   1.017   1.837  0.4282 -4.1187 -0.1882
  708SOL     OW 2122   2.965   0.520   3.044  0.1614  0.4082  0.2965
  708SOL    HW1 2123   2.981   0.580   2.959  0.5342 -3.3822  0.1631
  708SOL    HW2 2124   2.988   0.425   3.021 -2.2118  2.4147 -1.0963
  709SOL     OW 2125   1.780   1.902   0.247  0.3882  0.0321  0.5236
  709SOL    HW1 2126   1.839   1.981   0.281 -1.4680 -0.7341 -0.5411
  709SOL    HW2 2127   1.821   1.863   0.162  0.9238  0.6562 -0.2690
  710SOL     OW 2128   1.677   1.595   2.404 -0.0430 -0.5022 -0.5341
  710SOL    HW1 2129   1.743   1.586   2.325  1.8263  1.7647 -0.2652
  710SOL    HW2 2130   1.707   1.544   2.485  1.2084 -1.2021 -0.8947
  711SOL     OW 2131   2.643   2.945   0.972  0.8937 -0.1487 -0.0028
  711SOL    HW1 2132   2.600   3.033   0.934 -0.9370 -2.4521  1.0748
  711SOL    HW2 2133   2.739   2.924   0.941  1.3807 -0.1406  1.0428
  712SOL     OW 2134   1.415   2.265   1.917  0.5228  0.0459 -0.6571
  712SOL    HW1 2135   1.512   2.249   1.947  1.2889 -1.8719 -2.5638
  712SOL    HW2 2136   1.397   2.208   1.830 -0.5481  1.8766 -2.2336
  713SOL     OW 2137   2.844   1.517   2.544 -0.6124  0.5271 -0.5837
  713SOL    HW1 2138   2.842   1.415   2.519 -3.2133 -0.7884  3.3630
  713SOL    HW2 2139   2.773   1.538   2.616 -2.3157 -0.8072 -1.2558
  714SOL     OW 2140   2.683   0.474   2.377  0.1376 -0.4626  0.8463
  714SOL    HW1 2141   2.614   0.437   2.445 -2.8314 -0.8758  0.4993
  714SOL    HW2 2142   2.655   0.453   2.280  2.9329 -0.0201 -2.3565
  715SOL     OW 2143   1.594   2.037   1.173 -0.0492  0.2918 -0.4311
  715SOL    HW1 2144   1.530   2.108   1.136 -2.9756 -0.5128  0.8962
  715SOL    HW2 2145   1.620   2.066   1.271  2.8369  0.0281  0.0531
  716SOL     OW 2146   1.204   0.208   1.516  0.0361  0.4737 -0.0666
  716SOL    HW1 2147   1.104   0.233   1.490 -0.6086  1.0396  2.3066
  716SOL    HW2 2148   1.269   0.288   1.498  0.0115  1.4891  0.7087
  717SOL     OW 2149   1.119   0.600   1.620 -0.1074 -0.0046 -0.6342
  717SOL    HW1 2150   1.219   0.594   1.646 -3.0111  0.9794  1.2522
  717SOL    HW2 2151   1.089   0.574   1.521 -0.6017  1.1739  0.2288
  718SOL     OW 2152   0.734   0.971   0.956  0.3412  0.6686 -0.4739
  718SOL    HW1 2153   0.673   0.926   0.882 -1.6140 -0.0947  3.1869
  718SOL    HW2 2154   0.703   1.069   0.986 -0.9775 -1.7927 -0.4760
  719SOL     OW 2155   0.706   1.807   2.279  0.6326 -0.4086 -0.4650
  719SOL    HW1 2156   0.766   1.820   2.364 -1.6203  1.1329 -3.4375
  719SOL    HW2 2157   0.610   1.779   2.303  2.0789 -0.6619  1.1759
  720SOL     OW 2158   2.186   1.147   0.233  0.3297 -0.2644 -0.0102
  720SOL    HW1 2159   2.261   1.095   0.185  0.7730  0.5523 -0.3672
  720SOL    HW2 2160   2.192   1.136   0.338 -0.7839  0.3306 -1.4057
  721SOL     OW 2161   2.297   3.008   2.096 -0.0862  0.6790  0.0909
  721SOL    HW1 2162   2.284   3.023   1.996  3.6977 -1.7882  0.1440
  721SOL    HW2 2163   2.243   3.078   2.155 -1.7706  2.8473  0.0418
  722SOL     OW 2164   2.374   1.609   0.588 -0.2161  0.4126 -0.6589
  722SOL    HW1 2165   2.330   1.559   0.507  0.9980 -2.8945  2.9360
  722SOL    HW2 2166   2.309   1.678   0.632 -1.6230 -1.8343  1.9388
  723SOL     OW 2167   2.553   2.690   1.997  0.3709  0.5271 -0.7115
  723SOL    HW1 2168   2.593   2.749   2.075 -1.7081  0.9217 -0.0790
  723SOL    HW2 2169   2.453   2.708   1.992 -0.4013  0.4643 -0.3037
  724SOL     OW 2170   0.538   2.471   2.420  0.0136 -0.0162 -0.6167
  724SOL    HW1 2171   0.436   2.469   2.448 -1.0790 -2.0617 -0.5880
  724SOL    HW2 2172   0.602   2.500   2.501  1.2482  2.5650  1.6205
  725SOL     OW 2173   2.445   2.761   1.539  0.7084 -0.6431  0.2313
  725SOL    HW1 2174   2.459   2.775   1.439 -1.8096  0.7727  2.5733
  725SOL    HW2 2175   2.396   2.670   1.560  0.3510  0.8632  1.1198
  726SOL     OW 2176   2.370   2.235   0.670 -0.0618  0.3777 -0.7110
  726SOL    HW1 2177   2.393   2.332   0.632  1.5856 -0.0758  0.6434
  726SOL    HW2 2178   2.352   2.170   0.597 -1.3027  0.8675 -1.1858
  727SOL     OW 2179   0.170   3.084   0.053  0.4492  0.2718  0.2199
  727SOL    HW1 2180   0.231   3.006   0.072 -0.0888 -1.7457 -0.4188
  727SOL    HW2 2181   0.120   3.074  -0.039 -0.4804  0.1829 -0.4045
  728SOL     OW 2182   2.867   0.663   0.971 -0.0844  0.3130  0.1911
  728SOL    HW1 2183   2.784   0.665   0.909 -0.4759 -1.6170  1.1640
  728SOL    HW2 2184   2.855   0.606   1.061 -2.9879 -0.7314 -1.5694
  729SOL     OW 2185   2.962   2.457   0.741 -0.4474 -0.4629 -0.3494
  729SOL    HW1 2186   2.908   2.371   0.725  3.3336 -1.6700  0.1820
  729SOL    HW2 2187   3.067   2.436   0.751 -2.5287  0.0727 -2.3036
  730SOL     OW 2188   2.601   0.623   0.865 -0.0534  0.0064  0.1976
  730SOL    HW1 2189   2.557   0.691   0.803 -0.7533  0.5602 -2.7464
  730SOL    HW2 2190   2.661   0.561   0.808  0.8498 -1.6111  0.4208
  731SOL     OW 2191   0.116   2.129   2.437 -0.2899 -0.3127  0.2392
  731SOL    HW1 2192   0.120   2.163   2.534  0.5940  0.2472  2.2812
  731SOL    HW2 2193   0.105   2.213   2.373  0.6412  0.6979 -2.4179
  732SOL     OW 2194   1.094   2.890   1.915  0.2576  0.0830  0.4811
  732SOL    HW1 2195   1.120   2.860   2.011 -1.0635 -0.2968  0.2632
  732SOL    HW2 2196   1.128   2.818   1.848  0.1227  2.0988 -2.4584
  733SOL     OW 2197   3.072   0.631   2.185  0.6764  0.3185 -0.7883
  733SOL    HW1 2198   3.140   0.692   2.129  1.5067 -2.1425  1.0369
  733SOL    HW2 2199   3.001   0.573   2.129 -2.6451 -0.7814 -2.1731
  734SOL     OW 2200   1.411   0.400   2.772 -0.1411  0.0838  0.4267
  734SOL    HW1 2201   1.431   0.486   2.828  0.5744  0.6493  2.5270
  734SOL    HW2 2202   1.315   0.364   2.779  1.5182  1.5728 -3.1060
  735SOL     OW 2203   2.928   2.591   2.259  0.1179 -0.2659  0.7104
  735SOL    HW1 2204   2.896   2.585   2.159 -0.7724 -1.8658  0.1147
  735SOL    HW2 2205   3.031   2.599   2.264 -1.9956  1.4325 -0.3879
  736SOL     OW 2206   0.705   0.356   2.641 -0.4264  1.2432 -0.6218
  736SOL    HW1 2207   0.640   0.433   2.647  0.7163  1.2713 -0.7126
  736SOL    HW2 2208   0.734   0.326   2.548 -1.0516  0.3416 -5.0363
  737SOL     OW 2209   2.651   0.402   2.846 -0.1766  0.2020 -0.1188
  737SOL    HW1 2210   2.623   0.381   2.948 -0.4398  0.2764  0.2775
  737SOL    HW2 2211   2.748   0.368   2.817  1.6249  5.5685 -0.0616
  738SOL     OW 2212   1.600   1.239   2.907  0.1051  0.3805 -0.0245
  738SOL    HW1 2213   1.696   1.206   2.919  1.7260 -2.9406 -0.4057
  738SOL    HW2 2214   1.546   1.200   2.828 -0.9480  0.5735  0.5959
  739SOL     OW 2215   1.693   0.622   0.639 -0.2386  0.5217 -0.2825
  739SOL    HW1 2216   1.749   0.636   0.726  1.8123  2.3941 -0.1053
  739SOL    HW2 2217   1.743   0.569   0.567 -1.8234  0.2522  0.2483
  740SOL     OW 2218   1.944   1.918   2.339 -0.1577 -0.1005  0.4451
  740SOL    HW1 2219   2.018   1.850   2.338 -0.0949  0.9211  1.9030
  740SOL    HW2 2220   1.868   1.891   2.267  0.2336 -2.9854  1.5351
  741SOL     OW 2221   2.532   0.078   2.625  0.4194  0.2126  0.0047
  741SOL    HW1 2222   2.637   0.083   2.615  1.2769 -0.2564 -1.0432
  741SOL    HW2 2223   2.486   0.053   2.537 -2.0513 -0.9252  4.3631
  742SOL     OW 2224   2.227   1.409   0.182  0.3471 -0.7466  0.0260
  742SOL    HW1 2225   2.167   1.484   0.216  0.0345  1.5254 -1.5772
  742SOL    HW2 2226   2.196   1.317   0.214 -0.4998 -1.0695 -2.1009
  743SOL     OW 2227   1.829   0.663   2.599 -0.6263 -0.1690 -0.0858
  743SOL    HW1 2228   1.813   0.594   2.521 -0.5543  0.4737  0.0963
  743SOL    HW2 2229   1.762   0.740   2.591 -1.0327  1.0872 -2.0997
  744SOL     OW 2230   2.696   2.128   0.077  0.0791  0.5057 -0.0221
  744SOL    HW1 2231   2.604   2.152   0.107  1.5638  2.2044 -1.0948
  744SOL    HW2 2232   2.685   2.030   0.045 -0.1197 -0.4896 -0.4852
  745SOL     OW 2233   2.160   2.662   2.295 -0.4746  0.2283 -0.0944
  745SOL    HW1 2234   2.088   2.659   2.217  0.6978  0.6862 -0.2590
  745SOL    HW2 2235   2.151   2.738   2.366  1.7064 -2.4409 -0.8159
  746SOL     OW 2236   3.081   2.626   1.754  0.4263 -0.3664  0.7680
  746SOL    HW1 2237   3.160   2.629   1.686  0.3636 -0.0553  1.1011
  746SOL    HW2 2238   3.039   2.716   1.784  0.8452 -0.5810  2.3319
  747SOL     OW 2239   0.026   1.780   1.617  0.5091 -0.3581 -0.2896
  747SOL    HW1 2240  -0.037   1.693   1.611  1.2332 -1.5359  0.1748
  747SOL    HW2 2241   0.076   1.802   1.532 -2.4384  1.1740 -1.3639
  748SOL     OW 2242   1.862   2.760   2.837  0.0842  0.2433 -0.5281
  748SOL    HW1 2243   1.883   2.806   2.927 -2.8185  1.4267  1.5433
  748SOL    HW2 2244   1.759   2.747   2.830 -1.3033  0.2965  3.1837
  749SOL     OW 2245   1.328   3.081   0.881  0.2577 -0.1280  0.4463
  749SOL    HW1 2246   1.243   3.023   0.905  0.9907  2.4169 -0.7832
  749SOL    HW2 2247   1.308   3.128   0.789  0.3323 -2.3888 -1.2893
  750SOL     OW 2248   2.385   0.233   1.878 -0.7034 -0.1203 -0.2248
  750SOL    HW1 2249   2.382   0.302   1.799 -0.5667  0.8507  0.1859
  750SOL    HW2 2250   2.371   0.281   1.966 -0.7919 -1.0128 -3.2521
  751SOL     OW 2251   0.940   2.170   2.731 -0.2731  0.0349 -0.2440
  751SOL    HW1 2252   0.935   2.141   2.830  1.5381  0.5522  0.4009
  751SOL    HW2 2253   0.858   2.144   2.676  1.2295 -1.1503  0.9072
  752SOL     OW 2254   1.234   0.871   1.503  0.0719 -0.0890  0.6511
  752SOL    HW1 2255   1.297   0.899   1.422  2.5932 -1.7869  1.0536
  752SOL    HW2 2256   1.263   0.776   1.537  0.9632 -1.1956 -1.7723
  753SOL     OW 2257   0.956   2.582   1.700 -0.1148  0.1829  0.2374
  753SOL    HW1 2258   1.038   2.641   1.672  3.2443  1.3978  1.0051
  753SOL    HW2 2259   0.860   2.624   1.686  0.0129  0.9504  2.6391
  754SOL     OW 2260   1.209   1.317   3.099  0.0505 -0.2974 -0.0155
  754SOL    HW1 2261   1.265   1.254   3.039 -1.7129 -0.8834 -0.2491
  754SOL    HW2 2262   1.210   1.412   3.061 -1.2293  1.6198  0.2596
  755SOL     OW 2263   1.947   0.428   2.212 -0.1394 -0.0372  0.2787
  755SOL    HW1 2264   2.033   0.417   2.268  1.2112 -0.6303 -0.1517
  755SOL    HW2 2265   1.875   0.470   2.276 -0.4656  0.3647 -1.4177
  756SOL     OW 2266   2.601   0.961   2.935  0.1736 -0.1834 -0.4056
  756SOL    HW1 2267   2.704   0.976   2.965 -0.1489 -3.3568 -1.4640
  756SOL    HW2 2268   2.556   0.878   2.984 -1.4506 -0.5505  4.2815
  757SOL     OW 2269   3.049   0.461   1.792 -0.1978  0.5588 -0.2631
  757SOL    HW1 2270   3.142   0.501   1.771 -0.2901  0.4964 -2.7922
  757SOL    HW2 2271   3.034   0.365   1.765 -1.6642 -1.4210  3.4967
  758SOL     OW 2272   2.389   0.109   1.423 -0.4374 -0.3269  0.3652
  758SOL    HW1 2273   2.332   0.044   1.477 -0.2820 -1.2436 -0.0160
  758SOL    HW2 2274   2.383   0.108   1.320  1.5260  2.0752 -2.1066
  759SOL     OW 2275   1.693   0.034   0.061  0.0200 -0.1429  0.5370
  759SOL    HW1 2276   1.624   0.041  -0.013 -1.7002  0.8180  2.0186
  759SOL    HW2 2277   1.779  -0.020   0.032  0.2312 -0.7219  0.3357
  760SOL     OW 2278   2.750   2.079   2.818 -0.0834 -0.0442 -0.4489
  760SOL    HW1 2279   2.830   2.014   2.834  1.0579 -2.5824  2.3016
  760SOL    HW2 2280   2.744   2.145   2.898  0.5375  1.1335 -0.7609
  761SOL     OW 2281   1.948   1.759   1.683  0.6667 -0.3925 -0.4325
  761SOL    HW1 2282   1.994   1.666   1.701  0.6325  1.3582  0.3511
  761SOL    HW2 2283   1.897   1.764   1.588  0.4298 -1.4501 -1.9766
  762SOL     OW 2284   0.466   2.337   0.972 -0.0918  0.2929  0.0320
  762SOL    HW1 2285   0.508   2.379   0.884  2.3027  0.3928  0.0664
  762SOL    HW2 2286   0.501   2.396   1.051  1.8220 -1.1311 -1.7347
  763SOL     OW 2287   2.102   1.531   2.963 -0.0113  0.3848  0.4573
  763SOL    HW1 2288   2.179   1.465   2.972 -0.5047  1.5480 -2.4867
  763SOL    HW2 2289   2.024   1.517   3.027  1.4734 -0.2344 -0.4248
  764SOL     OW 2290   0.660   0.596   0.845 -0.0837 -0.0289  0.7192
  764SOL    HW1 2291   0.619   0.505   0.816  3.7203 -0.3508 -2.3646
  764SOL    HW2 2292   0.761   0.587   0.860  0.2615  2.5498  0.2820
  765SOL     OW 2293   0.712   0.214   0.835 -0.4299 -0.3670  0.3552
  765SOL    HW1 2294   0.748   0.298   0.781 -1.9096  1.2511  0.4105
  765SOL    HW2 2295   0.675   0.230   0.930 -0.7996 -1.7857  0.4339
  766SOL     OW 2296   2.962   2.087   3.087 -0.1946 -0.0581  0.0695
  766SOL    HW1 2297   2.880   2.119   3.141  2.4144 -1.2295 -0.6026
  766SOL    HW2 2298   3.035   2.161   3.080  1.6084  0.5438  3.7721
  767SOL     OW 2299   2.858   1.566   0.542  0.3138  0.3457 -0.1474
  767SOL    HW1 2300   2.768   1.569   0.597 -1.0824 -1.6786  0.4817
  767SOL    HW2 2301   2.930   1.616   0.599 -1.9858 -3.9281  2.5289
  768SOL     OW 2302   1.083   0.226   0.352 -0.1063  0.5621  0.3524
  768SOL    HW1 2303   1.012   0.170   0.399  1.5461 -1.6277  1.3051
  768SOL    HW2 2304   1.159   0.161   0.316  1.7225 -0.0163 -2.4968
  769SOL     OW 2305   1.117   1.896   2.251  0.2879  0.0369  0.3995
  769SOL    HW1 2306   1.083   1.901   2.346  0.0637 -2.5601 -0.9911
  769SOL    HW2 2307   1.101   1.808   2.211 -1.6996  0.4424  3.6845
  770SOL     OW 2308   0.126   1.256   2.244 -0.2342  0.7004  0.3863
  770SOL    HW1 2309   0.105   1.260   2.348 -0.0542 -0.2861  1.9073
  770SOL    HW2 2310   0.044   1.242   2.186  1.8091  2.0104  2.7415
  771SOL     OW 2311   2.939   2.836   1.878 -0.0252  0.4174 -0.5393
  771SOL    HW1 2312   2.907   2.872   1.788  2.7227 -1.4627  1.4785
  771SOL    HW2 2313   2.951   2.908   1.953 -0.1728 -0.5949  1.2713
  772SOL     OW 2314   2.172   0.101   2.973  0.0102 -0.1387  0.1917
  772SOL    HW1 2315   2.264   0.077   2.940 -1.8824  0.7387 -0.7719
  772SOL    HW2 2316   2.159   0.201   3.001 -0.3034  1.2909  0.9017
  773SOL     OW 2317   0.733   2.145   2.509  0.1635 -1.0964  0.2676
  773SOL    HW1 2318   0.716   2.170   2.411  0.4662  0.3333 -1.4846
  773SOL    HW2 2319   0.647   2.146   2.568  0.3183 -0.6350 -0.1897
  774SOL     OW 2320   2.033   0.024   2.670  0.3457 -0.4070  0.0713
  774SOL    HW1 2321   2.051   0.117   2.710  0.4308 -3.4827  0.2817
  774SOL    HW2 2322   2.074  -0.061   2.724  0.6434 -0.7918  1.8678
  775SOL     OW 2323   2.530   2.803   2.486 -0.0751  0.2426  0.3376
  775SOL    HW1 2324   2.504   2.901   2.475 -1.4635 -0.1560  1.2764
  775SOL    HW2 2325   2.630   2.780   2.491 -1.4046  0.9695  2.1029
  776SOL     OW 2326   0.066   1.261   0.230 -0.3819 -0.2210  0.4760
  776SOL    HW1 2327   0.011   1.236   0.142  0.4255 -2.1239 -1.6949
  776SOL    HW2 2328  -0.004   1.262   0.310  0.8312  0.2883  0.7760
  777SOL     OW 2329   0.247   2.791   0.480 -0.1345 -1.0920  0.0269
  777SOL    HW1 2330   0.142   2.797   0.477 -0.7491 -1.0998  6.3126
  777SOL    HW2 2331   0.289   2.878   0.513  0.4545 -2.1238 -2.3896
  778SOL     OW 2332   1.364   1.966   0.158 -0.3271  0.6997  0.2409
  778SOL    HW1 2333   1.325   1.977   0.252  3.1254 -0.6121  0.4812
  778SOL    HW2 2334   1.371   2.059   0.105  2.3033  2.0999  1.3763
  779SOL     OW 2335   0.190   0.808   0.495 -0.0262 -0.6901  0.1910
  779SOL    HW1 2336   0.145   0.714   0.483 -0.2341 -2.3948  1.9804
  779SOL    HW2 2337   0.136   0.866   0.560  1.8118  1.2198 -0.5629
  780SOL     OW 2338   0.043   0.263   2.272 -0.1907  0.6160  0.7715
  780SOL    HW1 2339   0.018   0.355   2.314  0.7566  0.1395  0.6410
  780SOL    HW2 2340   0.142   0.260   2.236 -0.8346 -4.0109  1.6053
  781SOL     OW 2341   0.662   1.726   1.565  0.0308 -0.5512 -0.3347
  781SOL    HW1 2342   0.680   1.759   1.661 -1.5779 -0.5229  2.1231
  781SOL    HW2 2343   0.577   1.673   1.557 -0.7327  3.4960  0.1504
  782SOL     OW 2344   2.582   0.146   0.899  0.4670  0.1088 -0.4128
  782SOL    HW1 2345   2.503   0.162   0.837  0.2705 -0.3757 -0.9689
  782SOL    HW2 2346   2.560   0.181   0.996 -0.6538  1.0481  0.2395
  783SOL     OW 2347   2.820   0.650   2.520  0.2444 -0.1686  0.5419
  783SOL    HW1 2348   2.780   0.639   2.617  1.2631  1.2469  1.7467
  783SOL    HW2 2349   2.752   0.608   2.450 -1.5669  0.2515 -2.4793
  784SOL     OW 2350   1.378   2.224   0.048 -0.2709  0.4911 -0.0814
  784SOL    HW1 2351   1.471   2.247   0.088  1.2199 -1.0179 -0.1085
  784SOL    HW2 2352   1.368   2.243  -0.050 -1.7482  1.2138  0.3454
  785SOL     OW 2353   2.191   0.368   3.072  0.2197  0.3193 -0.2601
  785SOL    HW1 2354   2.102   0.361   3.124  2.1797  1.8134 -0.4251
  785SOL    HW2 2355   2.218   0.466   3.045  0.1848 -1.1019  2.2562
  786SOL     OW 2356   2.054   2.155   2.197 -0.0766 -0.7621  0.0591
  786SOL    HW1 2357   2.004   2.072   2.236 -1.9283 -0.7514 -1.0392
  786SOL    HW2 2358   2.135   2.132   2.138  4.1112 -0.8464 -0.3394
  787SOL     OW 2359   1.411   0.615   0.882 -0.3723 -0.0196 -0.2566
  787SOL    HW1 2360   1.325   0.665   0.906 -0.2437 -0.2319 -0.6505
  787SOL    HW2 2361   1.415   0.592   0.782 -0.5808  0.1643  1.2341
  788SOL     OW 2362   1.219   0.418   3.030  0.2187 -0.4733 -0.2055
  788SOL    HW1 2363   1.142   0.418   2.966 -2.0500  0.0548 -1.1941
  788SOL    HW2 2364   1.256   0.509   3.066 -3.2347  0.8453  1.9021
  789SOL     OW 2365   2.600   0.075   1.808  0.3527  0.0070 -0.1381
  789SOL    HW1 2366   2.515   0.128   1.836 -0.5904  1.9876  0.9043
  789SOL    HW2 2367   2.585  -0.032   1.819  1.6266  1.7139 -4.2894
  790SOL     OW 2368   2.563   2.693   0.863 -0.3583 -0.2829 -0.4749
  790SOL    HW1 2369   2.579   2.786   0.896  0.0691  1.0966 -0.4270
  790SOL    HW2 2370   2.634   2.623   0.900 -1.6113 -4.0663  2.5242
  791SOL     OW 2371   1.916   1.268   0.253  0.4602  0.1949  0.2389
  791SOL    HW1 2372   1.832   1.214   0.286  0.1198 -1.1557  0.7884
  791SOL    HW2 2373   2.001   1.206   0.268  1.8365 -1.7740 -2.2935
  792SOL     OW 2374   0.452   2.010   2.132 -0.1010  0.0540 -0.1785
  792SOL    HW1 2375   0.517   2.060   2.197  0.9501 -0.0130 -1.5632
  792SOL    HW2 2376   0.371   1.955   2.178 -1.4194 -0.2333  0.0964
  793SOL     OW 2377   2.093   1.554   2.091 -0.1333 -0.4343 -0.3374
  793SOL    HW1 2378   2.147   1.642   2.075 -0.6176 -0.1498 -0.9613
  793SOL    HW2 2379   2.111   1.482   2.012  1.6117  0.7155  0.5905
  794SOL     OW 2380   0.461   1.379   2.491  0.3044 -0.2546 -0.2200
  794SOL    HW1 2381   0.478   1.328   2.399 -1.9179 -1.5559  0.1643
  794SOL    HW2 2382   0.403   1.468   2.475  1.7044 -0.3379 -0.7797
  795SOL     OW 2383   2.474   2.367   1.789 -0.0277 -0.2955  0.3132
  795SOL    HW1 2384   2.508   2.377   1.886 -0.5463  0.1917 -2.0239
  795SOL    HW2 2385   2.433   2.276   1.773 -1.6878  1.8555  1.5993
  796SOL     OW 2386   3.091   1.083   2.700  0.7933 -0.4163 -0.5046
  796SOL    HW1 2387   2.989   1.076   2.722 -0.9427  0.5176  2.0054
  796SOL    HW2 2388   3.144   1.093   2.791 -1.1254  0.9936  3.1905
  797SOL     OW 2389   0.767   0.666   1.332  0.1542  0.3761 -0.1673
  797SOL    HW1 2390   0.837   0.693   1.406  2.9873  0.0648  1.1495
  797SOL    HW2 2391   0.719   0.749   1.290 -1.5006 -0.3429 -1.4035
  798SOL     OW 2392   1.340   0.433   1.073 -0.2000 -0.1976 -0.4086
  798SOL    HW1 2393   1.342   0.474   1.164  2.6874  0.3829 -2.9795
  798SOL    HW2 2394   1.380   0.498   1.000 -1.2759  1.6222 -0.4721
  799SOL     OW 2395   1.952   2.684   1.040  0.0157  0.6998 -0.4294
  799SOL    HW1 2396   1.938   2.604   1.099 -1.2219  0.6861  1.4367
  799SOL    HW2 2397   1.885   2.697   0.964  0.7726  1.6207  1.2633
  800SOL     OW 2398   2.918   0.829   1.855  0.3913 -0.0973  0.5162
  800SOL    HW1 2399   2.994   0.893   1.887 -0.6608  0.1803  1.2427
  800SOL    HW2 2400   2.821   0.862   1.868 -1.0575 -1.2216 -1.6439
  801SOL     OW 2401   1.974   2.163   0.048 -0.4461 -0.3921 -0.0337
  801SOL    HW1 2402   1.894   2.124  -0.003  0.5680 -0.1371  2.2321
  801SOL    HW2 2403   2.068   2.114   0.034  2.2379 -2.0155  1.0863
  802SOL     OW 2404   0.685   0.762   2.528  0.4305 -0.5161 -0.2078
  802SOL    HW1 2405   0.741   0.784   2.440  0.5654 -3.1134 -0.7058
  802SOL    HW2 2406   0.586   0.737   2.510  0.5094 -1.9507 -0.9607
  803SOL     OW 2407   0.950   0.095   0.890  0.0962  0.0904 -0.1034
  803SOL    HW1 2408   1.017   0.174   0.906  2.2918 -1.8831 -0.1591
  803SOL    HW2 2409   0.871   0.129   0.834  1.2272  1.3049  1.5884
  804SOL     OW 2410   0.302   3.043   2.200 -0.2055  0.1639 -0.1247
  804SOL    HW1 2411   0.280   3.143   2.223 -1.7092  1.3824  1.0557
  804SOL    HW2 2412   0.262   3.010   2.109 -0.8298 -1.8883 -0.2930
  805SOL     OW 2413   2.334   0.418   0.317  0.2983 -0.0175  0.7148
  805SOL    HW1 2414   2.402   0.426   0.391 -2.0704  0.6675 -1.5142
  805SOL    HW2 2415   2.358   0.344   0.244  0.0289  1.3555 -0.5080
  806SOL     OW 2416   0.697   2.454   1.803 -0.3252  0.7683 -0.5189
  806SOL    HW1 2417   0.654   2.551   1.816  1.1018  2.4469  1.0281
  806SOL    HW2 2418   0.800   2.454   1.787 -0.6872 -0.4397 -1.0185
  807SOL     OW 2419   2.519   0.908   0.438 -0.0633  0.3567 -0.2960
  807SOL    HW1 2420   2.613   0.909   0.487 -2.1577  2.3863  3.2646
  807SOL    HW2 2421   2.501   0.972   0.360 -4.0255  3.0853 -0.9467
  808SOL     OW 2422   0.666   2.054   2.924 -0.3681  0.0475 -0.5385
  808SOL    HW1 2423   0.614   2.083   3.006  1.4152 -0.5743 -2.6921
  808SOL    HW2 2424   0.688   1.950   2.926 -1.3879  0.9795  0.5814
  809SOL     OW 2425   2.564   1.988   1.851 -0.3058  0.0507 -0.5440
  809SOL    HW1 2426   2.650   2.043   1.865 -0.2278 -3.9405 -1.0329
  809SOL    HW2 2427   2.543   1.956   1.756 -0.0016  1.0821 -1.3052
  810SOL     OW 2428   2.187   1.128   0.493 -0.4337 -0.4159  0.0797
  810SOL    HW1 2429   2.180   1.038   0.535  0.1744  1.1401 -0.5794
  810SOL    HW2 2430   2.158   1.206   0.553  3.2528 -3.1470 -0.9598
  811SOL     OW 2431   1.403   2.529   1.194 -0.1886  0.2666 -0.0520
  811SOL    HW1 2432   1.351   2.450   1.238  1.8074 -1.5928  0.3114
  811SOL    HW2 2433   1.355   2.621   1.215 -0.6834  0.7811 -1.1919
  812SOL     OW 2434   1.415   0.755   1.982 -0.2492  0.5167 -0.0864
  812SOL    HW1 2435   1.319   0.723   1.987 -0.3497 -0.4005 -1.3478
  812SOL    HW2 2436   1.414   0.851   1.952  0.1725 -0.6218  1.8709
  813SOL     OW 2437   1.620   2.068   2.440 -0.0801 -0.3236 -0.4111
  813SOL    HW1 2438   1.630   1.979   2.496  1.3137  0.4880  1.0707
  813SOL    HW2 2439   1.597   2.051   2.341 -0.4591 -1.2031  0.7764
  814SOL     OW 2440   2.982   1.594   2.846  0.5799  0.4693 -0.1981
  814SOL    HW1 2441   3.059   1.572   2.918  1.0027  0.6036  1.0806
  814SOL    HW2 2442   3.013   1.658   2.771  0.1885 -0.3696  1.7190
  815SOL     OW 2443   2.186   2.913   2.765  0.1695 -0.9064 -1.2693
  815SOL    HW1 2444   2.175   2.829   2.821 -2.8767  2.4118 -2.1040
  815SOL    HW2 2445   2.253   2.981   2.809 -0.8535 -0.7468 -1.5235
  816SOL     OW 2446   1.601   0.360   1.679  0.0882 -0.4155 -0.1958
  816SOL    HW1 2447   1.665   0.281   1.695 -2.2395 -1.5696 -0.2102
  816SOL    HW2 2448   1.551   0.389   1.761  0.9250 -1.2641  1.3973
  817SOL     OW 2449   0.391   1.194   2.655  0.5100 -0.0199  0.1514
  817SOL    HW1 2450   0.312   1.237   2.708  2.2317 -1.5506  2.2060
  817SOL    HW2 2451   0.436   1.265   2.592 -0.2428 -2.5966 -0.1687
  818SOL     OW 2452   1.943   0.831   0.434 -0.1797 -0.2454  0.1916
  818SOL    HW1 2453   2.044   0.836   0.451 -0.6077 -0.2595  0.1413
  818SOL    HW2 2454   1.894   0.882   0.512  0.7527  0.2998  1.8482
  819SOL     OW 2455   2.761   2.943   0.009 -0.0819  0.3947 -0.5668
  819SOL    HW1 2456   2.799   2.888   0.091 -0.4811 -0.5590  1.0693
  819SOL    HW2 2457   2.724   2.877  -0.065 -0.0318 -0.1935 -1.6769
  820SOL     OW 2458   1.235   1.051   0.526  0.3849  0.1446 -0.1199
  820SOL    HW1 2459   1.255   1.145   0.569 -0.0655 -0.7096 -1.3694
  820SOL    HW2 2460   1.213   0.978   0.602 -4.2429 -2.2208 -1.5877
  821SOL     OW 2461   0.042   1.267   0.716  0.1250  0.0049  0.2617
  821SOL    HW1 2462  -0.020   1.277   0.798  0.0493 -0.7104 -1.9571
  821SOL    HW2 2463   0.091   1.351   0.698  3.0042 -1.6505  0.1369
  822SOL     OW 2464   2.548   1.811   2.454 -0.3744 -0.1616  0.3195
  822SOL    HW1 2465   2.553   1.892   2.518 -0.5481 -1.7666 -0.1006
  822SOL    HW2 2466   2.468   1.816   2.386  0.2952  0.9595 -0.6441
  823SOL     OW 2467   2.034   0.885   1.127 -0.3310 -0.3138  0.1239
  823SOL    HW1 2468   2.007   0.863   1.223 -3.0969 -0.1477  0.5551
  823SOL    HW2 2469   1.948   0.922   1.078  2.5440  2.0986  0.8812
  824SOL     OW 2470   0.212   1.972   2.810 -0.1172  0.5383 -0.4230
  824SOL    HW1 2471   0.237   1.903   2.888  2.7779 -2.3116  0.1155
  824SOL    HW2 2472   0.271   1.949   2.727 -0.1021 -1.5367 -1.4313
  825SOL     OW 2473   1.318   1.037   0.270 -0.0515 -0.2090 -0.5717
  825SOL    HW1 2474   1.301   1.139   0.244 -0.7770 -1.6942  0.6512
  825SOL    HW2 2475   1.302   1.023   0.372 -0.2616  0.8473  1.2732
  826SOL     OW 2476   1.922   0.642   1.589 -0.3348 -0.2989  0.0894
  826SOL    HW1 2477   2.015   0.619   1.623 -0.9561  1.1226 -0.8838
  826SOL    HW2 2478   1.874   0.560   1.545  1.1780 -0.2563 -0.7328
  827SOL     OW 2479   0.650   1.231   0.297 -0.2323  0.0320  0.0162
  827SOL    HW1 2480   0.687   1.189   0.213  0.1872 -1.5008 -0.0745
  827SOL    HW2 2481   0.612   1.161   0.360 -0.9799  0.2306  0.1572
  828SOL     OW 2482   2.645   0.106   1.516  0.3669  0.1670  0.1692
  828SOL    HW1 2483   2.555   0.132   1.479  2.0097 -1.3750  0.4631
  828SOL    HW2 2484   2.642   0.109   1.620 -0.5383  0.7167  1.1749
  829SOL     OW 2485   2.954   2.381   2.832  0.0954 -0.4768 -0.3693
  829SOL    HW1 2486   2.857   2.360   2.864  0.6433 -2.9031  1.3538
  829SOL    HW2 2487   2.960   2.480   2.808  0.0856  0.0383 -0.9158
  830SOL     OW 2488   2.856   0.997   3.046  0.7197 -0.2106  0.3367
  830SOL    HW1 2489   2.909   1.075   3.088  1.7303 -2.3120  4.1165
  830SOL    HW2 2490   2.906   0.905   3.057  3.5057 -1.9735 -1.0760
  831SOL     OW 2491   0.079   0.559   0.433 -0.7333 -0.1464 -0.0253
  831SOL    HW1 2492   0.042   0.486   0.500 -1.5902  0.5303  0.7863
  831SOL    HW2 2493   0.110   0.512   0.345 -1.9520 -3.2252  0.2997
  832SOL     OW 2494   1.830   0.785   3.029 -0.4374 -0.0999  0.3565
  832SOL    HW1 2495   1.738   0.814   2.993  1.9509  1.6959 -0.6610
  832SOL    HW2 2496   1.851   0.683   3.026  2.2927 -0.1306  0.0969
  833SOL     OW 2497   2.417   2.066   0.461 -0.3867 -0.0795  0.5295
  833SOL    HW1 2498   2.325   2.026   0.432 -0.7080 -0.9895 -1.0820
  833SOL    HW2 2499   2.490   1.985   0.464  1.2712  1.2134  0.6026
  834SOL     OW 2500   0.127   0.115   0.523  0.2858 -0.4939  0.4241
  834SOL    HW1 2501   0.206   0.049   0.553  1.3719 -2.0376  2.1124
  834SOL    HW2 2502   0.121   0.129   0.418  0.2770 -0.4905  0.7664
  835SOL     OW 2503   2.402   1.509   1.151  0.1962  0.2344 -0.2172
  835SOL    HW1 2504   2.474   1.534   1.224  1.2359 -1.7706  3.3903
  835SOL    HW2 2505   2.436   1.461   1.068 -3.3839  1.1339 -1.6772
  836SOL     OW 2506   1.629   0.872   2.580  0.1318 -0.4681 -0.1398
  836SOL    HW1 2507   1.539   0.822   2.602 -0.1671  0.4521 -1.5964
  836SOL    HW2 2508   1.645   0.879   2.477 -0.9481 -1.2219  0.3638
  837SOL     OW 2509   1.630   0.055   0.569 -0.0035 -0.4415  0.3788
  837SOL    HW1 2510   1.598   0.137   0.626  2.7409 -0.3839 -0.6104
  837SOL    HW2 2511   1.600   0.063   0.470  0.5487  0.9236 -1.3181
  838SOL     OW 2512   1.229   1.380   2.783 -0.0593 -0.2570 -0.2518
  838SOL    HW1 2513   1.202   1.455   2.853  0.6384  0.9985 -0.3981
  838SOL    HW2 2514   1.156   1.356   2.712 -1.2984 -4.0733  0.3098
  839SOL     OW 2515   1.637   0.332   0.998 -0.6691  0.2572  0.1872
  839SOL    HW1 2516   1.631   0.392   1.083 -0.6818 -2.0555  1.4712
  839SOL    HW2 2517   1.582   0.242   1.004 -2.4370 -0.2158  0.5936
  840SOL     OW 2518   2.544   2.897   1.782  0.2792  0.4378  0.3443
  840SOL    HW1 2519   2.517   2.842   1.700 -0.6891  0.7526  2.2426
  840SOL    HW2 2520   2.564   2.837   1.862  2.7192  1.0144 -2.3005
  841SOL     OW 2521   1.577   0.875   2.977 -0.2787 -0.2880 -0.3337
  841SOL    HW1 2522   1.551   0.923   3.064  1.0517 -1.6799  2.0859
  841SOL    HW2 2523   1.546   0.921   2.889  0.0675  0.6615  0.2444
  842SOL     OW 2524   0.808   1.534   1.003  0.2999  0.1501  0.2224
  842SOL    HW1 2525   0.762   1.618   1.044 -0.8088  1.6151  1.0233
  842SOL    HW2 2526   0.740   1.473   0.951 -0.2880 -1.8205 -1.2453
  843SOL     OW 2527   0.130   0.108   1.474 -0.0571 -0.1194 -0.3165
  843SOL    HW1 2528   0.209   0.136   1.534 -2.6008  1.3284 -0.2616
  843SOL    HW2 2529   0.140   0.015   1.436  1.6144  0.2530 -0.1396
  844SOL     OW 2530   0.784   2.483   0.285  0.0641  0.2248 -0.1757
  844SOL    HW1 2531   0.757   2.485   0.385 -0.0442 -1.7836  0.2940
  844SOL    HW2 2532   0.706   2.464   0.220  0.6995 -1.2188 -2.6545
  845SOL     OW 2533   1.678   2.912   1.373 -0.0379  1.1605 -0.2124
  845SOL    HW1 2534   1.735   2.916   1.457 -1.1106  0.3337  0.0039
  845SOL    HW2 2535   1.618   2.996   1.362  0.4419  0.6147 -4.1446
  846SOL     OW 2536   1.684   2.967   0.901  0.1664 -0.2187  0.1829
  846SOL    HW1 2537   1.652   2.984   0.806  0.0914 -0.7875  0.4776
  846SOL    HW2 2538   1.788   2.954   0.914 -0.9320 -1.0492  2.2861
  847SOL     OW 2539   2.034   1.646   0.234  0.5547  0.1498  0.2049
  847SOL    HW1 2540   1.988   1.617   0.322  3.8915 -2.6243 -1.2976
  847SOL    HW2 2541   1.979   1.612   0.150 -2.0343  0.0963 -1.2610
  848SOL     OW 2542   2.464   0.786   2.666 -0.1400  0.6986 -0.1467
  848SOL    HW1 2543   2.482   0.885   2.659  0.3362  1.7211  0.2349
  848SOL    HW2 2544   2.402   0.758   2.587  0.0949  1.8414  2.4868
  849SOL     OW 2545   2.459   0.866   2.303 -0.2102 -0.3683 -0.2401
  849SOL    HW1 2546   2.521   0.802   2.248 -1.1594 -0.9498 -2.7658
  849SOL    HW2 2547   2.386   0.814   2.356 -0.3127  1.2417 -2.5649
  850SOL     OW 2548   1.559   0.073   1.318  0.9212 -0.5414 -0.3602
  850SOL    HW1 2549   1.555   0.062   1.212  2.7806 -1.0014 -0.7739
  850SOL    HW2 2550   1.457   0.074   1.356 -1.3281 -1.1781 -1.7101
  851SOL     OW 2551   0.461   1.709   0.695 -0.2703  0.0577  0.2432
  851SOL    HW1 2552   0.413   1.795   0.665  1.6124  0.3761 -1.8424
  851SOL    HW2 2553   0.561   1.720   0.692 -2.4105 -0.2867  1.4727
  852SOL     OW 2554   0.803   2.128   1.655 -0.2655 -0.5765 -0.2192
  852SOL    HW1 2555   0.838   2.208   1.604 -0.4175  1.6479 -0.5971
  852SOL    HW2 2556   0.744   2.154   1.736  2.0657 -0.0622 -1.8277
  853SOL     OW 2557   2.502   1.563   2.616  0.4423 -0.1638 -0.5783
  853SOL    HW1 2558   2.480   1.476   2.572 -1.1018  2.1499  1.7898
  853SOL    HW2 2559   2.513   1.643   2.550  0.5287  1.4733 -0.5543
  854SOL     OW 2560   2.502   1.394   1.802 -0.5377  0.2126 -0.2664
  854SOL    HW1 2561   2.537   1.374   1.705 -1.3155  0.7315  0.9762
  854SOL    HW2 2562   2.493   1.304   1.857  2.6835 -0.0168  0.1848
  855SOL     OW 2563   2.069   2.330   0.973 -0.0510  0.0527 -0.2772
  855SOL    HW1 2564   2.085   2.407   0.910 -0.2250 -0.2210  0.3881
  855SOL    HW2 2565   2.134   2.323   1.054 -0.9623 -1.3434  1.3368
  856SOL     OW 2566   1.385   1.392   0.906  0.0838 -0.3475  0.3736
  856SOL    HW1 2567   1.415   1.484   0.953 -2.2659 -1.0155  2.5102
  856SOL    HW2 2568   1.295   1.360   0.941 -0.7556 -0.7339  2.1831
  857SOL     OW 2569   3.002   2.597   1.090 -0.1309  0.0120  0.4729
  857SOL    HW1 2570   2.911   2.548   1.104  2.7702  1.4795  0.4583
  857SOL    HW2 2571   3.083   2.532   1.075 -0.5044 -0.7746 -0.2221
  858SOL     OW 2572   2.311   2.163   1.698 -0.1471  0.4923 -0.0524
  858SOL    HW1 2573   2.213   2.189   1.680  0.4570  0.0560  3.1808
  858SOL    HW2 2574   2.351   2.110   1.616  1.2326 -1.4987  1.1119
  859SOL     OW 2575   2.433   0.514   1.062  0.1014 -0.5229 -0.2658
  859SOL    HW1 2576   2.495   0.572   1.005 -0.0720 -0.2553  0.5618
  859SOL    HW2 2577   2.481   0.428   1.107 -3.5537  2.2412  2.2453
  860SOL     OW 2578   1.922   2.790   0.434  0.1083 -0.4375 -0.3290
  860SOL    HW1 2579   1.895   2.739   0.344  0.5937 -2.9486 -1.1056
  860SOL    HW2 2580   2.011   2.836   0.439 -2.9213 -0.9954  2.0493
  861SOL     OW 2581   1.119   2.594   2.789  0.2333  0.4128 -0.0782
  861SOL    HW1 2582   1.148   2.682   2.736  1.0661 -1.5290  0.6111
  861SOL    HW2 2583   1.097   2.605   2.889  0.8254 -0.6708 -1.1284
  862SOL     OW 2584   2.886   2.497   1.612  0.5208 -0.1715  0.0044
  862SOL    HW1 2585   2.945   2.523   1.689  1.1196  1.4690  1.4703
  862SOL    HW2 2586   2.859   2.573   1.549  2.6719 -1.9365  0.3826
  863SOL     OW 2587   1.863   2.683   0.203 -0.4447 -0.7160  0.5138
  863SOL    HW1 2588   1.902   2.588   0.215  1.0483 -2.0290  1.4137
  863SOL    HW2 2589   1.759   2.688   0.218 -0.2430  1.4683 -1.5211
  864SOL     OW 2590   1.877   1.157   2.933 -0.5688  0.3077  0.1401
  864SOL    HW1 2591   1.911   1.142   2.833 -0.4546  3.6223  1.6943
  864SOL    HW2 2592   1.952   1.187   2.998  0.9438 -0.9909 -0.1805
  865SOL     OW 2593   2.204   1.855   0.679  0.4511 -0.4917 -0.3934
  865SOL    HW1 2594   2.259   1.827   0.765 -1.4737  0.7795  1.5750
  865SOL    HW2 2595   2.102   1.817   0.681 -1.9161 -1.3669  0.7776
  866SOL     OW 2596   2.944   2.903   0.980 -0.5044  0.2412  0.0647
  866SOL    HW1 2597   2.998   2.929   0.891 -0.4256 -1.0186 -1.0798
  866SOL    HW2 2598   2.968   2.808   1.015  0.7410 -0.6979 -0.0696
  867SOL     OW 2599   0.372   1.343   0.906  0.4344  0.2057  0.0125
  867SOL    HW1 2600   0.423   1.259   0.863  2.0960 -0.9126 -1.5104
  867SOL    HW2 2601   0.289   1.369   0.854  0.5895  0.7481  1.3230
  868SOL     OW 2602   0.773   1.915   2.031  0.0575  0.1728  0.3681
  868SOL    HW1 2603   0.754   1.892   2.132  2.1709 -0.6438 -1.7695
  868SOL    HW2 2604   0.766   2.019   2.009  0.2877  3.3575  0.2313
  869SOL     OW 2605   2.501   1.920   1.602 -0.2483  0.2185  0.2991
  869SOL    HW1 2606   2.586   1.961   1.557 -2.0810  1.7768  0.1342
  869SOL    HW2 2607   2.446   1.859   1.537  0.8655 -0.4754 -0.0572
  870SOL     OW 2608   2.275   2.604   1.257 -0.2047 -0.0114 -0.2410
  870SOL    HW1 2609   2.272   2.506   1.213  0.9965 -3.1503 -1.4843
  870SOL    HW2 2610   2.209   2.622   1.330  0.6788 -2.1279  1.2648
  871SOL     OW 2611   2.997   2.096   0.580  0.1067  0.0321 -0.5524
  871SOL    HW1 2612   2.930   2.149   0.641 -0.5193  1.0314  2.7198
  871SOL    HW2 2613   2.958   2.044   0.498  0.0976 -1.3504 -0.7066
  872SOL     OW 2614   2.136   0.476   1.692 -0.0441  0.1737  0.4597
  872SOL    HW1 2615   2.076   0.447   1.773  0.4824 -0.7193  0.2528
  872SOL    HW2 2616   2.227   0.427   1.682 -0.5714 -0.3651  0.1335
  873SOL     OW 2617   1.729   2.086   2.978 -0.3944  0.2073 -0.4170
  873SOL    HW1 2618   1.731   2.193   2.978 -1.6542  1.0738 -0.1210
  873SOL    HW2 2619   1.664   2.045   2.908  0.0223  1.3789 -0.4233
  874SOL     OW 2620   0.625   2.465   0.790 -0.2727  0.1963 -0.4020
  874SOL    HW1 2621   0.601   2.558   0.838 -2.1195 -1.0332  0.4290
  874SOL    HW2 2622   0.710   2.422   0.829  0.7055 -0.5867  0.6199
  875SOL     OW 2623   2.279   1.471   1.436 -0.4755  0.2468  0.3369
  875SOL    HW1 2624   2.374   1.502   1.462 -0.2722  1.9826 -1.5614
  875SOL    HW2 2625   2.238   1.540   1.363 -2.4107  0.7218  0.0505
  876SOL     OW 2626   0.106   2.253   2.711  0.4818  0.0205 -0.3087
  876SOL    HW1 2627   0.119   2.165   2.763  0.7075  0.2929  0.9283
  876SOL    HW2 2628   0.089   2.335   2.776  0.5257 -3.4396  1.1868
  877SOL     OW 2629   2.809   2.682   0.618 -0.2418 -0.3039  1.1013
  877SOL    HW1 2630   2.803   2.761   0.686  0.5625  1.9631  1.4698
  877SOL    HW2 2631   2.855   2.598   0.660 -4.0411  2.0131  0.0867
  878SOL     OW 2632   2.854   1.549   2.202  0.0885 -1.0497  0.2724
  878SOL    HW1 2633   2.955   1.568   2.216  1.3060 -0.5905  2.0769
  878SOL    HW2 2634   2.798   1.558   2.287  0.9590  0.7509  0.7851
  879SOL     OW 2635   2.398   0.042   1.149  0.0025 -0.4421  0.4012
  879SOL    HW1 2636   2.431  -0.051   1.176 -2.7009  0.7579 -0.5847
  879SOL    HW2 2637   2.309   0.049   1.100  0.9485 -0.1222  0.5001
  880SOL     OW 2638   0.692   0.456   2.209  0.6064  0.3060 -0.5727
  880SOL    HW1 2639   0.611   0.403   2.239  1.6336 -0.5686 -0.1872
  880SOL    HW2 2640   0.750   0.407   2.139  2.0384 -1.8381 -0.6855
  881SOL     OW 2641   0.920   0.058   0.486 -0.1787 -0.5224 -0.4356
  881SOL    HW1 2642   0.952  -0.038   0.511  0.5395  1.5400  0.4982
  881SOL    HW2 2643   0.829   0.056   0.437 -2.3447  1.3461 -1.9696
  882SOL     OW 2644   2.697   1.629   1.665 -0.4914 -0.4636 -0.2766
  882SOL    HW1 2645   2.796   1.595   1.641 -1.7971 -2.1963  1.5312
  882SOL    HW2 2646   2.688   1.660   1.763  1.1484 -0.0160  0.7169
  883SOL     OW 2647   0.927   0.588   0.938  0.4088  0.0377 -0.2488
  883SOL    HW1 2648   0.952   0.680   0.973  1.5934 -0.6626  0.9485
  883SOL    HW2 2649   0.935   0.513   1.012  0.4052 -3.0319  1.6035
  884SOL     OW 2650   1.178   1.814   1.079  0.4544  0.3179 -0.1807
  884SOL    HW1 2651   1.189   1.765   0.994 -1.8191  0.6116  0.2857
  884SOL    HW2 2652   1.128   1.905   1.069  0.4834  2.1611  2.9920
  885SOL     OW 2653   2.315   1.834   2.297 -0.3054  0.3550 -0.2653
  885SOL    HW1 2654   2.242   1.769   2.331 -3.8548  0.0870  0.8585
  885SOL    HW2 2655   2.307   1.935   2.333  0.2895  2.2467 -0.2010
  886SOL     OW 2656   2.636   0.465   1.786  0.3105  0.1032 -0.4898
  886SOL    HW1 2657   2.670   0.393   1.852 -1.2711  0.9255 -0.2784
  886SOL    HW2 2658   2.702   0.537   1.757  0.8821 -1.9128  1.2756
  887SOL     OW 2659   0.145   2.056   1.211 -0.0559  0.9113  0.2172
  887SOL    HW1 2660   0.062   2.041   1.148 -3.7736  0.8663 -1.1174
  887SOL    HW2 2661   0.187   2.151   1.202  0.3302  0.8747  0.1089
  888SOL     OW 2662   0.560   1.353   1.562  0.1833  0.0632 -0.5538
  888SOL    HW1 2663   0.582   1.346   1.462 -0.2263 -1.9453  0.7943
  888SOL    HW2 2664   0.496   1.279   1.589  0.1330  0.2662 -0.6673
  889SOL     OW 2665   0.810   2.509   2.159  0.4062 -0.6200  0.0666
  889SOL    HW1 2666   0.761   2.423   2.188 -1.7994 -0.7961  2.7793
  889SOL    HW2 2667   0.876   2.501   2.074  1.0879  1.9988 -2.9239
  890SOL     OW 2668   2.354   2.472   0.193  0.0715 -0.5540 -0.2112
  890SOL    HW1 2669   2.410   2.538   0.135  0.5673  1.4541 -0.7000
  890SOL    HW2 2670   2.291   2.522   0.261  0.2702  0.3243  0.7629
  891SOL     OW 2671   2.645   1.556   0.709  0.8808 -0.6187 -0.7523
  891SOL    HW1 2672   2.664   1.510   0.802  0.3103  1.6717  2.4658
  891SOL    HW2 2673   2.546   1.567   0.686 -0.8744 -2.2111  1.6737
  892SOL     OW 2674   0.305   0.222   2.169 -0.3756  0.1191  0.2696
  892SOL    HW1 2675   0.299   0.251   2.067  0.1546  0.8200  0.3858
  892SOL    HW2 2676   0.385   0.261   2.222 -1.0895 -2.5865  0.7292
  893SOL     OW 2677   1.638   0.231   2.771 -0.1101 -0.3365 -0.0251
  893SOL    HW1 2678   1.718   0.295   2.749  0.5393  0.0644  0.7584
  893SOL    HW2 2679   1.550   0.290   2.778 -1.7464 -0.1676  3.6024
  894SOL     OW 2680   2.269   2.014   0.023  0.3995  0.7734  0.1819
  894SOL    HW1 2681   2.242   1.933  -0.034 -0.8386 -1.3571 -1.1625
  894SOL    HW2 2682   2.247   1.994   0.122  0.3016 -1.6539 -2.5244
  895SOL     OW 2683   2.868   1.460   0.865 -0.3154  0.0157 -0.4232
  895SOL    HW1 2684   2.915   1.374   0.888 -0.7037 -0.4937  1.1969
  895SOL    HW2 2685   2.933   1.544   0.862 -1.6082  1.1309  2.0396
  896SOL     OW 2686   1.802   1.806   1.159 -0.0483 -0.6247 -0.2442
  896SOL    HW1 2687   1.883   1.816   1.097  0.0799 -0.0740  0.4391
  896SOL    HW2 2688   1.724   1.871   1.143 -2.1888 -0.9938 -1.1131
  897SOL     OW 2689   0.271   0.534   3.050 -0.1655  0.1567 -0.6093
  897SOL    HW1 2690   0.211   0.605   2.997 -2.0447  1.9261 -0.6795
  897SOL    HW2 2691   0.369   0.556   3.073  0.0962  2.7400 -0.2367
  898SOL     OW 2692   0.597   2.826   1.104  0.1549  0.0109  0.0787
  898SOL    HW1 2693   0.549   2.919   1.112  0.1933  0.1987 -1.7971
  898SOL    HW2 2694   0.683   2.822   1.169  1.7091 -0.5589  0.7933
  899SOL     OW 2695   2.724   0.899   1.225  0.1962  0.7073 -0.2203
  899SOL    HW1 2696   2.635   0.881   1.172  2.4438  0.3154 -0.6116
  899SOL    HW2 2697   2.805   0.925   1.166 -1.1871 -2.0953  1.0182
  900SOL     OW 2698   0.994   2.588   2.361 -0.7863 -0.1576 -0.0887
  900SOL    HW1 2699   0.926   2.567   2.289  1.0958  1.4725 -0.2903
  900SOL    HW2 2700   0.960   2.572   2.458 -2.2545  0.4721  0.2883
  901SOL     OW 2701   1.868   2.356   1.378  0.4571  0.1749 -0.2622
  901SOL    HW1 2702   1.849   2.370   1.276 -0.1386  2.5631 -2.6996
  901SOL    HW2 2703   1.969   2.336   1.390  1.4304 -1.4620  1.5547
  902SOL     OW 2704   2.557   1.654   1.436  0.4682  0.3258  0.1823
  902SOL    HW1 2705   2.603   1.663   1.527  1.9203 -0.0892 -0.5689
  902SOL    HW2 2706   2.632   1.645   1.366  0.7149  0.0073  0.0747
  903SOL     OW 2707   0.234   2.467   1.995 -0.2600 -0.0581  0.1716
  903SOL    HW1 2708   0.160   2.411   1.953  1.8779 -0.2028 -1.6862
  903SOL    HW2 2709   0.275   2.538   1.932 -2.1542 -0.5801  1.8398
  904SOL     OW 2710   2.042   0.699   2.402 -0.2588  0.2959 -0.9633
  904SOL    HW1 2711   1.970   0.693   2.479 -0.9781  2.7504 -0.1017
  904SOL    HW2 2712   2.004   0.721   2.310  0.9140 -0.1728  0.8739
  905SOL     OW 2713   2.813   0.075   2.597  0.0162  0.0836  0.0032
  905SOL    HW1 2714   2.875  -0.007   2.611  0.4488  1.0979  2.1940
  905SOL    HW2 2715   2.857   0.141   2.528  2.3661 -0.6579 -1.7802
  906SOL     OW 2716   0.149   1.771   1.877 -0.1536 -0.4207  0.2266
  906SOL    HW1 2717   0.086   1.794   1.796 -3.1519  0.5107  0.7717
  906SOL    HW2 2718   0.241   1.822   1.882  0.4564 -0.9419 -1.5505
  907SOL     OW 2719   0.127   2.489   1.021  0.0623 -0.1522 -0.2475
  907SOL    HW1 2720   0.192   2.552   0.977 -2.8744 -1.0021  0.6539
  907SOL    HW2 2721   0.074   2.432   0.955  2.6672  2.7296 -0.7693
  908SOL     OW 2722   2.696   2.945   0.429  0.3850  0.0382  0.6430
  908SOL    HW1 2723   2.658   3.008   0.350  2.7227 -0.7079 -2.5337
  908SOL    HW2 2724   2.739   2.860   0.393 -0.6206  0.9534  0.3906
  909SOL     OW 2725   0.783   0.968   2.702  0.2791 -0.1725 -0.6182
  909SOL    HW1 2726   0.748   0.896   2.636 -0.2047  1.6529 -1.5509
  909SOL    HW2 2727   0.863   1.018   2.661  2.8407 -2.7916  2.1843
  910SOL     OW 2728   1.763   1.844   2.119 -0.4873 -0.0013 -0.3768
  910SOL    HW1 2729   1.825   1.872   2.037 -0.9471  1.8935  0.4001
  910SOL    HW2 2730   1.678   1.906   2.133  0.6448  0.2697 -0.0917
  911SOL     OW 2731   1.825   2.944   1.607 -0.3387  0.0308  0.5166
  911SOL    HW1 2732   1.918   2.927   1.571 -0.8738  1.3785  2.0050
  911SOL    HW2 2733   1.806   2.894   1.696 -2.9086 -2.2185  1.0174
  912SOL     OW 2734   2.901   0.970   0.755 -0.1580 -0.3104  0.1667
  912SOL    HW1 2735   2.905   0.967   0.858  0.1542  0.6436 -0.6073
  912SOL    HW2 2736   2.847   1.055   0.726  1.7855  1.8486 -0.6784
  913SOL     OW 2737   2.570   1.274   1.559  0.2156  0.1553  0.0502
  913SOL    HW1 2738   2.563   1.174   1.539  0.4700 -1.3757 -0.6187
  913SOL    HW2 2739   2.638   1.320   1.493  0.4084 -1.3531  0.8928
  914SOL     OW 2740   2.804   0.514   1.195 -0.3433  0.3479 -0.2578
  914SOL    HW1 2741   2.732   0.445   1.211  1.1282 -3.0240  0.5811
  914SOL    HW2 2742   2.817   0.573   1.277  1.5064  1.2788 -3.4318
  915SOL     OW 2743   1.245   0.794   1.020  0.5115 -0.2580 -0.3161
  915SOL    HW1 2744   1.328   0.786   1.082  0.5582  0.6874 -3.0998
  915SOL    HW2 2745   1.153   0.815   1.061  1.8667  1.1100  0.0928
  916SOL     OW 2746   0.602   0.032   0.668 -0.3108  0.2461  0.1187
  916SOL    HW1 2747   0.632   0.115   0.723  0.9282 -0.8908  1.0202
  916SOL    HW2 2748   0.607   0.055   0.568  3.5579  0.4527  1.2484
  917SOL     OW 2749   2.819   2.609   1.976 -0.5064 -0.0734  0.2333
  917SOL    HW1 2750   2.722   2.642   1.976 -1.9597  0.3707 -1.4170
  917SOL    HW2 2751   2.883   2.684   1.939  2.3302  0.5734 -0.2546
  918SOL     OW 2752   1.039   2.216   3.004 -0.1560 -0.2814  0.0997
  918SOL    HW1 2753   0.992   2.224   3.096 -0.7015  3.0291 -0.0219
  918SOL    HW2 2754   1.084   2.124   2.985  0.6597 -0.1347  1.6619
  919SOL     OW 2755   0.886   1.615   2.823  0.4695 -0.2960 -0.1883
  919SOL    HW1 2756   0.939   1.656   2.747 -0.5627  0.6287 -0.0110
  919SOL    HW2 2757   0.820   1.544   2.789  0.9787  0.4097 -0.8987
  920SOL     OW 2758   1.262   1.959   2.473  0.1457  0.8088  0.0851
  920SOL    HW1 2759   1.263   1.935   2.373 -0.0874  0.1454  0.6191
  920SOL    HW2 2760   1.275   1.874   2.531 -1.6769  2.7279 -1.4828
  921SOL     OW 2761   1.109   0.052   2.603  0.0863  0.2337 -0.1729
  921SOL    HW1 2762   1.096   0.075   2.503 -0.2076 -0.1685  2.4327
  921SOL    HW2 2763   1.053  -0.026   2.631 -0.6949  1.1517  1.9988
  922SOL     OW 2764   2.143   2.415   2.895 -0.2448  0.0617  0.4256
  922SOL    HW1 2765   2.165   2.317   2.910  0.5131 -1.8387 -0.9182
  922SOL    HW2 2766   2.059   2.430   2.843 -0.0578 -1.1919 -0.7426
  923SOL     OW 2767   1.232   2.694   0.263 -0.6822 -0.2149  0.2171
  923SOL    HW1 2768   1.314   2.733   0.310  1.6175 -1.2727 -0.9406
  923SOL    HW2 2769   1.236   2.591   0.243 -1.8510 -0.1949  0.6703
  924SOL     OW 2770   2.860   1.544   0.081 -0.1858  0.6490  0.1797
  924SOL    HW1 2771   2.774   1.535   0.025  0.8707 -0.0191 -1.7121
  924SOL    HW2 2772   2.946   1.533   0.028  1.5843 -0.8717 -0.0742
  925SOL     OW 2773   3.104   2.940   1.516 -0.1592 -0.4014  0.4643
  925SOL    HW1 2774   3.014   2.973   1.562 -0.9898 -0.5716 -3.5972
  925SOL    HW2 2775   3.087   2.886   1.432  1.8811  0.7600  0.2355
  926SOL     OW 2776   1.351   2.832   1.295  0.1327 -0.0628  0.5830
  926SOL    HW1 2777   1.397   2.848   1.201  0.0140  0.3253 -1.5192
  926SOL    HW2 2778   1.365   2.912   1.362 -2.5165  2.8018  0.3955
  927SOL     OW 2779   0.302   2.657   1.784 -0.1950 -0.1063  0.3667
  927SOL    HW1 2780   0.275   2.589   1.705 -0.0330 -2.6697  0.1088
  927SOL    HW2 2781   0.274   2.752   1.755 -0.8607 -0.7518  1.1437
  928SOL     OW 2782   1.556   2.024   2.185  0.2737 -0.2537 -0.4427
  928SOL    HW1 2783   1.580   2.124   2.145  1.1893 -0.4304 -1.0507
  928SOL    HW2 2784   1.460   1.996   2.154 -0.0779 -0.0422  0.8004
  929SOL     OW 2785   2.436   2.460   2.882 -0.3291  0.3194 -0.6458
  929SOL    HW1 2786   2.332   2.447   2.891 -0.4634  0.1052  1.4379
  929SOL    HW2 2787   2.465   2.504   2.794 -1.3347  0.8979 -3.6358
  930SOL     OW 2788   2.188   1.981   1.055 -0.1672  0.2203  0.4270
  930SOL    HW1 2789   2.158   1.931   1.142  0.5236  0.2744 -1.4205
  930SOL    HW2 2790   2.269   2.046   1.064 -1.4761  0.9656  2.0896
  931SOL     OW 2791   0.535   1.706   2.698  0.5348 -0.2094  0.1468
  931SOL    HW1 2792   0.561   1.721   2.797 -1.7755 -0.7650 -2.4573
  931SOL    HW2 2793   0.568   1.619   2.652 -2.8976  2.4221  0.4901
  932SOL     OW 2794   0.438   0.047   2.921 -0.3971 -0.4747 -0.6046
  932SOL    HW1 2795   0.526   0.096   2.927  0.7588 -3.3038  0.1566
  932SOL    HW2 2796   0.436  -0.038   2.990  1.8088 -1.3848  1.2912
  933SOL     OW 2797   1.061   0.726   3.027  0.6029 -0.0062 -0.7557
  933SOL    HW1 2798   1.132   0.746   3.100  0.2141 -2.5911  0.0386
  933SOL    HW2 2799   1.004   0.810   3.003  1.3076  2.3001  1.5831
  934SOL     OW 2800   0.879   2.979   2.672  0.0685  0.3198  0.1895
  934SOL    HW1 2801   0.869   2.909   2.598 -0.6332  2.1090 -1.2740
  934SOL    HW2 2802   0.926   2.939   2.755  0.3946  1.3849 -1.0402
  935SOL     OW 2803   3.087   0.555   0.821 -0.0309  0.0610 -0.5385
  935SOL    HW1 2804   3.066   0.483   0.749 -1.2702 -1.2909 -0.4015
  935SOL    HW2 2805   3.004   0.596   0.874  2.1770 -1.1620  0.3697
  936SOL     OW 2806   1.099   2.920   0.133  0.4723 -0.2526  0.3872
  936SOL    HW1 2807   1.157   2.980   0.070 -0.2733 -0.4018 -0.2008
  936SOL    HW2 2808   1.151   2.838   0.152  1.0343 -0.1516 -0.7066
  937SOL     OW 2809   1.953   2.666   2.087 -0.9522  0.0556  0.0513
  937SOL    HW1 2810   1.869   2.700   2.133  0.0993 -1.6025 -0.5826
  937SOL    HW2 2811   1.960   2.703   1.987  2.3831 -2.5699 -0.3171
  938SOL     OW 2812   2.712   2.062   1.516 -0.2363  0.1010  0.6208
  938SOL    HW1 2813   2.677   2.156   1.545 -0.1492  1.6816  2.2334
  938SOL    HW2 2814   2.809   2.041   1.556  0.2271 -0.0480  4.1976
  939SOL     OW 2815   2.850   1.220   2.460  0.5020 -0.0170  0.0112
  939SOL    HW1 2816   2.916   1.202   2.383  1.5723  1.4314  0.2509
  939SOL    HW2 2817   2.881   1.173   2.545  1.5185  0.7477 -0.8973
  940SOL     OW 2818   0.982   0.454   2.688  0.1937  0.0982  0.0215
  940SOL    HW1 2819   1.047   0.381   2.733  1.3414 -0.3199 -0.2137
  940SOL    HW2 2820   0.892   0.399   2.673 -0.0982 -1.4078  0.5921
  941SOL     OW 2821   0.066   2.829   2.210 -0.3094 -0.1932 -0.3042
  941SOL    HW1 2822   0.095   2.733   2.195  1.1196  2.2676 -1.5653
  941SOL    HW2 2823   0.114   2.884   2.282  3.0011  1.8354  1.0812
  942SOL     OW 2824   0.062   0.124   2.514 -0.2098  0.1271  0.3933
  942SOL    HW1 2825   0.083   0.201   2.578 -2.5766 -0.1222 -1.5256
  942SOL    HW2 2826   0.036   0.161   2.419 -1.9081  0.7232  1.8103
  943SOL     OW 2827   2.136   1.650   2.354  0.3292 -0.2995  0.8745
  943SOL    HW1 2828   2.143   1.590   2.275 -0.6891  0.8784  1.5268
  943SOL    HW2 2829   2.151   1.602   2.443 -2.2699  2.1971 -0.0846
  944SOL     OW 2830   2.158   2.333   1.447  0.1009 -0.3858  0.2381
  944SOL    HW1 2831   2.224   2.404   1.487  0.3035 -0.8858 -2.2606
  944SOL    HW2 2832   2.113   2.280   1.526  1.5756 -1.6643  0.2074
  945SOL     OW 2833   0.655   1.507   0.308 -0.0246  0.2752  0.4390
  945SOL    HW1 2834   0.700   1.566   0.237 -1.7332 -3.0343  0.0948
  945SOL    HW2 2835   0.653   1.408   0.278 -1.3783  2.2355  1.2007
  946SOL     OW 2836   0.418   0.932   2.527  0.3982 -0.1098  0.6896
  946SOL    HW1 2837   0.331   0.900   2.476  1.3057  2.1494  0.9426
  946SOL    HW2 2838   0.409   1.035   2.546  2.5690  2.0037 -0.6496
  947SOL     OW 2839   1.555   0.548   0.072 -0.3230  0.6225  0.2040
  947SOL    HW1 2840   1.529   0.604  -0.005 -0.4608 -0.4829  0.7408
  947SOL    HW2 2841   1.473   0.497   0.117 -0.4401  0.5506 -0.3530
  948SOL     OW 2842   2.009   3.072   2.181  0.4423  0.1051 -0.1659
  948SOL    HW1 2843   2.012   3.022   2.091  0.4775  0.7044 -1.2275
  948SOL    HW2 2844   1.971   3.014   2.262  2.3609 -0.6178  2.6436
  949SOL     OW 2845   0.639   2.502   0.532  0.1796  0.1260 -0.2272
  949SOL    HW1 2846   0.619   2.602   0.512  2.2670  1.9603 -4.5997
  949SOL    HW2 2847   0.631   2.479   0.635  1.4044 -1.0767  3.4638
  950SOL     OW 2848   0.216   2.150   3.053  0.0689  0.1306 -0.0829
  950SOL    HW1 2849   0.148   2.227   3.041  2.9025  0.7180 -0.0422
  950SOL    HW2 2850   0.182   2.061   3.011  0.8205  0.6275  1.4417
  951SOL     OW 2851   1.182   2.833   2.661  0.0880  0.5042  0.4404
  951SOL    HW1 2852   1.163   2.903   2.586  1.1205  2.4462  0.1924
  951SOL    HW2 2853   1.287   2.821   2.676  1.2585  1.7630  0.6771
  952SOL     OW 2854   0.116   1.646   0.448 -0.2754 -0.7141 -0.2052
  952SOL    HW1 2855   0.161   1.743   0.453  1.2722  3.8998  0.0508
  952SOL    HW2 2856   0.124   1.578   0.528  0.0426 -0.1436 -1.4891
  953SOL     OW 2857   2.495   1.764   0.206 -0.2888 -0.0923 -0.5990
  953SOL    HW1 2858   2.506   1.659   0.206 -0.0721 -2.3600 -5.1707
  953SOL    HW2 2859   2.543   1.806   0.126 -2.0820  0.6339  2.4093
  954SOL     OW 2860   2.187   0.533   0.968  0.3237 -0.1309  0.3581
  954SOL    HW1 2861   2.176   0.549   0.864 -0.7288  0.8373 -0.8531
  954SOL    HW2 2862   2.285   0.513   0.996 -1.8480  0.8085  0.0850
  955SOL     OW 2863   0.235   2.637   1.348  0.2298  0.5284  0.7012
  955SOL    HW1 2864   0.138   2.676   1.337  2.1131 -0.6710  1.1307
  955SOL    HW2 2865   0.290   2.652   1.258  0.7780 -1.7116 -2.0184
  956SOL     OW 2866   2.770   2.448   2.442  0.6077 -0.1106 -0.5107
  956SOL    HW1 2867   2.757   2.350   2.428  1.0965 -0.4167  0.6930
  956SOL    HW2 2868   2.792   2.500   2.348  0.1501  1.0832 -1.1782
  957SOL     OW 2869   1.537   2.035   2.731 -0.2318 -0.2653 -0.0277
  957SOL    HW1 2870   1.495   1.943   2.747  0.6588  1.8384  2.2278
  957SOL    HW2 2871   1.560   2.048   2.635  0.7379 -0.6101  0.7815
  958SOL     OW 2872   2.688   2.340   2.958  0.6373 -0.2872 -0.1648
  958SOL    HW1 2873   2.593   2.373   2.932  0.2770 -1.4165  1.7496
  958SOL    HW2 2874   2.693   2.275   3.036  0.7149  0.2400 -1.4984
  959SOL     OW 2875   0.260   2.761   0.095  0.2660 -0.1924  0.3982
  959SOL    HW1 2876   0.155   2.761   0.085 -1.7751  1.2307  0.6457
  959SOL    HW2 2877   0.290   2.692   0.164 -1.7493 -0.6272  1.0985
  960SOL     OW 2878   1.985   0.431   1.921  0.5646 -0.1921  0.1760
  960SOL    HW1 2879   1.930   0.516   1.893 -1.8475 -0.5059  0.5357
  960SOL    HW2 2880   1.986   0.412   2.022  0.8062  1.3597 -1.9414
  961SOL     OW 2881   2.549   1.855   1.019  0.0318 -0.3707  0.0843
  961SOL    HW1 2882   2.521   1.939   0.969  1.8711 -0.4761  0.1204
  961SOL    HW2 2883   2.534   1.870   1.120  0.8753  0.7430 -0.1128
  962SOL     OW 2884   1.251   0.895   0.038 -0.3121  0.1448  0.3021
  962SOL    HW1 2885   1.265   0.954  -0.046  0.0294 -1.6215 -0.7160
  962SOL    HW2 2886   1.263   0.948   0.126  0.3236  1.1028 -0.8227
  963SOL     OW 2887   2.187   2.564   1.864  0.5407  0.3048 -0.7960
  963SOL    HW1 2888   2.193   2.465   1.903  0.3422 -1.6709  2.8366
  963SOL    HW2 2889   2.226   2.636   1.931  3.2871 -0.5534 -1.4598
  964SOL     OW 2890   2.403   0.393   1.659  0.3496  0.1866  0.1037
  964SOL    HW1 2891   2.493   0.421   1.712  1.1126 -2.6368 -0.5028
  964SOL    HW2 2892   2.409   0.390   1.553 -2.6628  0.9353 -1.0581
  965SOL     OW 2893   2.577   3.078   0.183  0.1271  0.4646  0.5392
  965SOL    HW1 2894   2.657   3.067   0.122 -1.1745  3.6232  5.0953
  965SOL    HW2 2895   2.486   3.080   0.137 -0.5041  2.9979  1.6381
  966SOL     OW 2896   2.472   2.474   2.226 -0.5227 -0.4051  0.7322
  966SOL    HW1 2897   2.396   2.489   2.293  0.5080  1.8553 -0.4575
  966SOL    HW2 2898   2.460   2.526   2.138  1.9453  1.9648 -0.5356
  967SOL     OW 2899   2.806   2.823   2.440 -0.2777  0.0189 -0.5302
  967SOL    HW1 2900   2.850   2.776   2.362 -3.2491 -3.9009  1.1203
  967SOL    HW2 2901   2.859   2.908   2.472  1.0960 -0.3492 -0.8853
  968SOL     OW 2902   1.944   1.082   2.658 -0.4185  0.3728 -0.2589
  968SOL    HW1 2903   1.912   1.126   2.569 -0.2791 -1.4804  1.9409
  968SOL    HW2 2904   1.892   0.989   2.673 -0.3278  0.5721  1.7675
  969SOL     OW 2905   2.764   2.435   1.076 -0.3486  0.3140 -0.5357
  969SOL    HW1 2906   2.768   2.410   0.977 -1.4293  2.6502 -0.7474
  969SOL    HW2 2907   2.784   2.356   1.145  0.6901 -0.8418  1.0448
  970SOL     OW 2908   1.065   2.133   1.795 -0.0938  0.0577  0.8055
  970SOL    HW1 2909   0.993   2.145   1.721  0.3780 -1.0643  0.7660
  970SOL    HW2 2910   1.040   2.168   1.889  0.4244  0.5382  2.1100
  971SOL     OW 2911   2.823   2.094   1.887  0.1529  0.4019 -0.3712
  971SOL    HW1 2912   2.861   2.187   1.912  0.3100 -2.2691  1.1073
  971SOL    HW2 2913   2.867   2.064   1.798  0.5431  0.8519  2.1507
  972SOL     OW 2914   1.947   2.414   0.206  0.2304  0.0139  0.1611
  972SOL    HW1 2915   1.955   2.337   0.136  1.6597 -1.4601 -1.7181
  972SOL    HW2 2916   1.990   2.385   0.297 -0.2397 -2.1861  1.5437
  973SOL     OW 2917   1.332   1.064   1.891 -0.5100 -0.0121  0.4096
  973SOL    HW1 2918   1.264   1.033   1.821 -1.9722 -0.5327  0.3674
  973SOL    HW2 2919   1.318   1.163   1.918 -2.3804  1.7110  2.7564
  974SOL     OW 2920   1.623   0.560   1.977 -0.0041  0.0201 -0.2752
  974SOL    HW1 2921   1.697   0.616   1.930  1.1546 -0.8187 -1.7690
  974SOL    HW2 2922   1.531   0.607   1.971 -0.5987  4.5558  0.8966
  975SOL     OW 2923   2.377   3.016   0.023  0.0446 -0.3183  0.4282
  975SOL    HW1 2924   2.336   2.926   0.051  1.5412  1.3571 -1.0228
  975SOL    HW2 2925   2.390   3.029  -0.083  0.5208  0.0774 -1.5275
  976SOL     OW 2926   1.905   2.884   2.351  0.2263  0.1933  0.5353
  976SOL    HW1 2927   1.826   2.831   2.305 -1.1040  1.0008 -0.8567
  976SOL    HW2 2928   1.940   2.846   2.437  1.7015  2.1271 -1.4455
  977SOL     OW 2929   0.455   0.692   1.006  0.0454 -0.4964 -0.1572
  977SOL    HW1 2930   0.381   0.695   0.937  0.7450  2.2152 -1.9360
  977SOL    HW2 2931   0.539   0.647   0.966 -2.8122 -0.9923 -1.6417
   3.10000   3.10000   3.10000
