1000 SPC/Fw water molecules t=   1.43000 step= 1430
 2931
    1SOL     OW    1   2.463   0.315   2.656 -0.8628  0.7949  0.1347
    1SOL    HW1    2   2.480   0.215   2.642 -0.2106 -0.1776 -0.7583
    1SOL    HW2    3   2.505   0.350   2.738 -3.2593  0.9146 -2.4818
    2SOL     OW    4   2.746   2.989   1.381 -0.0737 -0.1004  0.1906
    2SOL    HW1    5   2.847   3.006   1.364 -2.6386 -3.6390  0.9837
    2SOL    HW2    6   2.708   3.053   1.458  1.6135  3.0422 -0.5259
    3SOL     OW    7   2.643   2.563   0.397  0.1954 -0.0052 -0.4037
    3SOL    HW1    8   2.612   2.464   0.406 -1.1547 -1.6544 -1.9412
    3SOL    HW2    9   2.669   2.606   0.489  0.0714 -0.0618  0.5285
    4SOL     OW   10   1.230   1.511   2.414 -0.3953 -0.1878 -0.1279
    4SOL    HW1   11   1.157   1.512   2.336 -0.1123  0.7640  0.2338
    4SOL    HW2   12   1.248   1.416   2.448 -0.8326  1.3681  0.6254
    5SOL     OW   13   1.187   1.556   2.898  0.2807 -0.0159  0.2533
    5SOL    HW1   14   1.225   1.612   2.973 -1.3192  0.0529 -0.6220
    5SOL    HW2   15   1.095   1.594   2.865  0.6154  1.9809  0.3541
    6SOL     OW   16   0.275   1.801   3.010  0.1998 -0.7552  0.2431
    6SOL    HW1   17   0.188   1.837   3.054  4.4158  2.2014  2.6881
    6SOL    HW2   18   0.337   1.773   3.090 -0.9659  0.4413 -2.9492
    7SOL     OW   19   2.466   0.896   1.055  0.2363  0.3513 -0.1924
    7SOL    HW1   20   2.378   0.866   1.107  0.0825  0.5561  1.8480
    7SOL    HW2   21   2.469   0.866   0.954 -0.7783 -1.5532  0.7164
    8SOL     OW   22   0.333   0.687   1.515 -0.2768  0.0044  0.0067
    8SOL    HW1   23   0.428   0.654   1.497  0.7995  0.7259  0.3927
    8SOL    HW2   24   0.306   0.757   1.442 -2.6122 -0.2260 -2.0411
    9SOL     OW   25   1.160   0.833   2.392  0.5015 -0.1626 -0.9584
    9SOL    HW1   26   1.229   0.864   2.324 -0.5452 -0.9893  0.1866
    9SOL    HW2   27   1.128   0.735   2.371 -0.0105 -1.4987 -1.6411
   10SOL     OW   28   0.695   1.376   1.309  0.3330  0.0916 -0.1250
   10SOL    HW1   29   0.623   1.401   1.238  0.3590  0.0943  1.8657
   10SOL    HW2   30   0.747   1.463   1.346  1.7765  4.1248  2.8475
   11SOL     OW   31   2.301   2.825   0.836  0.2766 -0.0751  0.1191
   11SOL    HW1   32   2.269   2.819   0.937  0.1420 -0.1476  2.4205
   11SOL    HW2   33   2.404   2.819   0.829 -3.2219  0.4549  0.5837
   12SOL     OW   34   1.522   0.885   0.415  0.0436  0.5876 -0.7960
   12SOL    HW1   35   1.443   0.930   0.364  0.7968  2.3380  0.1285
   12SOL    HW2   36   1.557   0.794   0.377 -2.0159  0.0872  0.5951
   13SOL     OW   37   2.433   0.696   1.782  0.0254 -0.3426 -0.0550
   13SOL    HW1   38   2.363   0.644   1.835 -1.0745 -0.4710  3.4916
   13SOL    HW2   39   2.446   0.651   1.691 -1.8323 -1.9237 -0.0270
   14SOL     OW   40   1.952   0.006   0.624 -0.0397 -0.2470 -0.1093
   14SOL    HW1   41   1.854   0.038   0.614 -0.0631 -0.9250 -0.4939
   14SOL    HW2   42   1.973  -0.062   0.703  0.0921  0.3149 -0.6875
   15SOL     OW   43   1.877   2.072   2.668 -0.2851 -0.3874  0.1276
   15SOL    HW1   44   1.812   2.109   2.739 -1.4671 -0.7830  0.4740
   15SOL    HW2   45   1.833   1.999   2.605  0.0955 -3.6205  2.8922
   16SOL     OW   46   1.606   1.736   3.004  0.0806  0.4484  0.5450
   16SOL    HW1   47   1.608   1.630   3.021  4.9592 -1.1512 -0.2943
   16SOL    HW2   48   1.698   1.779   3.020 -0.3301  0.2834 -0.7448
   17SOL     OW   49   0.098   0.416   0.184  0.2095  0.3109  0.3290
   17SOL    HW1   50   0.180   0.469   0.144  1.6254 -0.9435 -0.8611
   17SOL    HW2   51   0.018   0.401   0.117 -0.7395  0.8927 -2.8684
   18SOL     OW   52   0.893   2.985   2.158  0.0297  0.7618 -0.0487
   18SOL    HW1   53   0.833   2.906   2.185  2.3627 -0.2722 -1.1004
   18SOL    HW2   54   0.965   2.952   2.090  2.6105 -2.2662 -1.8151
   19SOL     OW   55   0.553   0.849   1.884  0.3023  0.2144 -0.2534
   19SOL    HW1   56   0.583   0.793   1.966  0.8393 -0.5174  1.3430
   19SOL    HW2   57   0.611   0.932   1.863  0.3139 -0.2516 -0.4217
   20SOL     OW   58   0.249   2.832   0.854  0.1098 -0.0371 -0.1880
   20SOL    HW1   59   0.154   2.878   0.833 -1.2189  1.3159 -1.2090
   20SOL    HW2   60   0.257   2.742   0.808 -0.3901  0.5164  1.8737
   21SOL     OW   61   2.768   0.270   1.962 -0.0776  0.2251 -0.0902
   21SOL    HW1   62   2.715   0.197   1.909 -0.9324  1.7365  0.3276
   21SOL    HW2   63   2.830   0.231   2.039 -1.1187 -0.8162  3.4567
   22SOL     OW   64   2.366   0.192   0.117  0.3376 -0.2660  0.6089
   22SOL    HW1   65   2.377   0.091   0.087  0.8468  0.1067 -2.8202
   22SOL    HW2   66   2.303   0.254   0.057 -2.3233  0.7437 -3.3119
   23SOL     OW   67   2.834   0.560   0.683  0.0901 -0.6259  0.4799
   23SOL    HW1   68   2.853   0.469   0.637 -0.9764  1.4811 -1.4140
   23SOL    HW2   69   2.840   0.644   0.625  0.1740 -1.6942  1.0168
   24SOL     OW   70   0.220   1.854   0.447  0.3289  0.0352 -0.1986
   24SOL    HW1   71   0.192   1.930   0.380  2.1680  0.1438  2.0194
   24SOL    HW2   72   0.323   1.828   0.433  2.4123 -3.3341  2.6020
   25SOL     OW   73   2.246   0.628   0.214  0.7268 -0.2692  0.2094
   25SOL    HW1   74   2.241   0.634   0.109 -0.8268 -1.1082 -0.5430
   25SOL    HW2   75   2.315   0.563   0.254 -0.0370 -0.1051  0.8524
   26SOL     OW   76   2.449   2.134   2.126  0.4180  0.1275 -0.1046
   26SOL    HW1   77   2.528   2.189   2.170  1.9466  0.3549 -0.7120
   26SOL    HW2   78   2.484   2.069   2.054 -0.9672  1.1623 -2.4030
   27SOL     OW   79   0.598   2.952   0.196 -0.3130 -0.2823 -0.7762
   27SOL    HW1   80   0.688   3.004   0.197 -0.5734 -2.3042  0.4203
   27SOL    HW2   81   0.562   2.920   0.101 -0.5516  0.9233 -3.4361
   28SOL     OW   82   1.624   0.103   0.334  0.5799 -0.0057 -0.5122
   28SOL    HW1   83   1.647   0.050   0.249 -0.5522 -0.8300 -1.9955
   28SOL    HW2   84   1.657   0.202   0.333  0.1686 -2.7353  0.6149
   29SOL     OW   85   1.961   0.589   0.273  0.2697  0.3017  0.1614
   29SOL    HW1   86   1.914   0.620   0.361 -0.2799  1.2345 -0.3622
   29SOL    HW2   87   2.065   0.596   0.265  1.0228 -0.8667 -0.6804
   30SOL     OW   88   0.193   2.056   0.882  0.2286 -0.1004  0.2535
   30SOL    HW1   89   0.221   1.975   0.827 -0.7007  0.2352 -1.1665
   30SOL    HW2   90   0.097   2.082   0.854  1.6406 -0.8558 -1.0278
   31SOL     OW   91   2.171   0.081   2.411  0.2689  0.1191 -0.3717
   31SOL    HW1   92   2.106   0.065   2.490  0.8110 -0.0195 -0.8806
   31SOL    HW2   93   2.126   0.055   2.321  0.2045  1.0489  2.5735
   32SOL     OW   94   2.971   3.066   0.270  0.0916 -0.8685 -0.1085
   32SOL    HW1   95   2.925   2.972   0.291  1.2941 -1.3678  1.3713
   32SOL    HW2   96   2.986   3.115   0.357  1.4138 -0.4110 -2.2070
   33SOL     OW   97   0.869   0.208   0.638  0.3602 -0.4392 -0.3523
   33SOL    HW1   98   0.865   0.158   0.546 -0.4233 -0.0878  0.1829
   33SOL    HW2   99   0.950   0.269   0.643  0.9695  2.3416  0.0384
   34SOL     OW  100   0.321   2.728   1.097  0.4919 -0.0062 -0.5254
   34SOL    HW1  101   0.300   2.777   1.006  2.5531  2.8522 -0.6901
   34SOL    HW2  102   0.407   2.758   1.146  0.9469 -0.3988  0.2913
   35SOL     OW  103   3.096   0.105   1.863  0.0146 -0.5681 -0.1706
   35SOL    HW1  104   3.100   0.002   1.882 -0.9733  0.9832  1.6755
   35SOL    HW2  105   3.062   0.125   1.767 -0.0235  3.2820  0.2668
   36SOL     OW  106   1.828   1.182   1.536  0.6661  0.5485  0.2954
   36SOL    HW1  107   1.921   1.129   1.547  1.7854  1.6748 -0.1087
   36SOL    HW2  108   1.836   1.243   1.452  1.9466 -1.2049 -0.5004
   37SOL     OW  109   1.148   0.175   0.971 -0.1412 -0.0156  0.1010
   37SOL    HW1  110   1.157   0.278   0.991 -0.6376  1.8054  0.0325
   37SOL    HW2  111   1.234   0.122   0.954 -1.5011  0.0213 -2.3601
   38SOL     OW  112   1.157   2.900   2.411  0.0830  0.8060 -0.2379
   38SOL    HW1  113   1.071   2.871   2.467  1.7241 -0.3650 -2.9300
   38SOL    HW2  114   1.149   2.975   2.345 -1.2417 -0.3190 -0.1675
   39SOL     OW  115   2.436   1.388   3.043  0.4450  0.5903  0.2081
   39SOL    HW1  116   2.513   1.315   3.054 -2.7252 -2.0236  0.1597
   39SOL    HW2  117   2.358   1.372   3.112 -1.9394 -0.8667 -0.9466
   40SOL     OW  118   2.025   2.500   2.605  0.3238  0.4743  0.0985
   40SOL    HW1  119   2.004   2.598   2.580 -0.6304  0.9989 -0.1177
   40SOL    HW2  120   1.990   2.423   2.540  0.0909  0.5450  3.3712
   41SOL     OW  121   3.006   0.644   2.817  0.4298  0.3304  0.7639
   41SOL    HW1  122   2.930   0.718   2.802 -1.4191 -0.8072  0.1454
   41SOL    HW2  123   2.985   0.560   2.757  1.4500 -3.7064  0.9766
   42SOL     OW  124   1.755   1.760   0.564  0.5492 -0.3686  0.4144
   42SOL    HW1  125   1.707   1.666   0.547  2.1168  0.4406  0.0045
   42SOL    HW2  126   1.790   1.791   0.474  0.5401 -0.3876  0.7342
   43SOL     OW  127   0.507   1.652   1.254  0.3526 -0.2531 -0.0834
   43SOL    HW1  128   0.507   1.565   1.193 -0.9256  1.5805 -1.4486
   43SOL    HW2  129   0.429   1.654   1.319 -0.0832  0.6144 -5.8978
   44SOL     OW  130   1.671   2.414   2.991  0.0170 -0.3989  0.0230
   44SOL    HW1  131   1.572   2.442   3.000 -1.9392 -0.3479 -0.7295
   44SOL    HW2  132   1.718   2.425   2.899 -1.4879 -1.9018 -3.5592
   45SOL     OW  133   0.359   1.908   2.547  0.2180  0.0359  0.3171
   45SOL    HW1  134   0.297   1.914   2.462 -0.7947 -0.1511 -3.3481
   45SOL    HW2  135   0.433   1.836   2.539 -0.0405 -0.8400 -1.6833
   46SOL     OW  136   1.299   0.670   0.246 -0.0677  0.5195  0.5502
   46SOL    HW1  137   1.322   0.763   0.201 -0.0513  1.0023 -0.1564
   46SOL    HW2  138   1.205   0.636   0.219  1.8421  2.3701  1.6801
   47SOL     OW  139   0.186   2.457   1.558 -0.0130 -0.1497 -0.0630
   47SOL    HW1  140   0.115   2.389   1.582 -2.6389 -1.6716 -1.7607
   47SOL    HW2  141   0.192   2.476   1.456 -0.5937  1.1499 -0.6832
   48SOL     OW  142   2.660   0.619   0.141  0.1348  0.5286 -0.1333
   48SOL    HW1  143   2.621   0.620   0.238 -2.2114  0.8497  1.7713
   48SOL    HW2  144   2.765   0.605   0.143  1.4887 -1.2450 -0.7439
   49SOL     OW  145   0.332   0.779   1.772  0.8908  0.3580 -0.0135
   49SOL    HW1  146   0.422   0.801   1.824  0.4277  0.9812  0.6789
   49SOL    HW2  147   0.355   0.749   1.677 -2.2962 -0.1695  0.9136
   50SOL     OW  148   1.728   1.124   0.303  0.1439  0.3005  0.5340
   50SOL    HW1  149   1.751   1.026   0.274 -1.1783  0.1288  0.4466
   50SOL    HW2  150   1.683   1.129   0.399  1.0329  0.1226  0.2918
   51SOL     OW  151   3.025   1.753   0.253 -0.3298 -0.2147  0.6641
   51SOL    HW1  152   2.995   1.680   0.183  3.3690 -1.4707 -1.0084
   51SOL    HW2  153   3.074   1.711   0.338 -2.4128 -0.2586  1.2913
   52SOL     OW  154   0.796   2.140   0.654  0.2102  0.6856 -0.1963
   52SOL    HW1  155   0.697   2.122   0.655  0.5636 -0.9481  1.3234
   52SOL    HW2  156   0.848   2.079   0.724  2.0533 -2.0298 -1.7657
   53SOL     OW  157   0.196   0.428   1.549  0.7849  0.2056 -1.1833
   53SOL    HW1  158   0.242   0.521   1.565 -1.6017  0.7727 -0.3005
   53SOL    HW2  159   0.129   0.437   1.474  2.4279  1.1402  0.3320
   54SOL     OW  160   1.799   0.493   3.084 -0.2687  0.2048 -0.0247
   54SOL    HW1  161   1.848   0.412   3.127  0.4743  2.2837  0.2163
   54SOL    HW2  162   1.699   0.479   3.096 -2.1091  1.6231  1.2631
   55SOL     OW  163   0.746   2.906   0.718 -0.6173  0.1317  0.2248
   55SOL    HW1  164   0.703   2.998   0.720 -3.0851 -0.4906  0.5869
   55SOL    HW2  165   0.830   2.898   0.660 -0.1316 -0.2532 -0.3120
   56SOL     OW  166   0.589   1.613   3.068  0.1526 -0.6881  0.0085
   56SOL    HW1  167   0.516   1.635   3.136 -0.1856 -1.5118  1.2871
   56SOL    HW2  168   0.558   1.532   3.010 -1.8613  0.1245 -2.1773
   57SOL     OW  169   1.769   2.497   2.415 -0.6024  0.1396 -0.2503
   57SOL    HW1  170   1.838   2.419   2.385  0.8097 -0.2568  0.8051
   57SOL    HW2  171   1.671   2.466   2.416  0.6185 -0.2056 -0.0381
   58SOL     OW  172   0.674   0.252   1.112  0.0503 -0.5516 -0.6690
   58SOL    HW1  173   0.575   0.268   1.135  0.6813  0.3756  0.7406
   58SOL    HW2  174   0.721   0.171   1.156  0.9425  3.4022  1.2850
   59SOL     OW  175   0.445   2.412   2.731  0.0178 -0.2375  0.1146
   59SOL    HW1  176   0.473   2.310   2.725  2.2563  2.7918 -1.3733
   59SOL    HW2  177   0.529   2.474   2.711  1.5687  2.5959 -1.2567
   60SOL     OW  178   2.291   2.121   2.349 -0.5618 -0.2783  0.1243
   60SOL    HW1  179   2.369   2.122   2.278  1.7115  2.4123 -0.9191
   60SOL    HW2  180   2.318   2.165   2.438 -0.4988  1.0092  1.7769
   61SOL     OW  181   1.223   0.649   0.516 -0.2286  0.1352  0.8560
   61SOL    HW1  182   1.127   0.672   0.539 -1.4900 -0.3857 -1.0598
   61SOL    HW2  183   1.263   0.662   0.417  0.3020 -1.7133 -2.2092
   62SOL     OW  184   2.708   1.709   2.765  0.1257 -0.0815 -0.1509
   62SOL    HW1  185   2.689   1.647   2.682 -0.0011 -4.5302  1.0336
   62SOL    HW2  186   2.800   1.685   2.810 -0.7288  1.3993 -1.0177
   63SOL     OW  187   0.552   0.913   0.202 -0.3247 -0.2243 -0.0074
   63SOL    HW1  188   0.606   0.975   0.139 -0.3311  0.6489  1.0265
   63SOL    HW2  189   0.590   0.903   0.297 -0.6916  1.1345 -0.8507
   64SOL     OW  190   3.037   0.582   2.344  0.1946 -0.1914 -0.3911
   64SOL    HW1  191   2.960   0.609   2.407 -0.7776  0.4141 -0.0485
   64SOL    HW2  192   3.033   0.603   2.241 -2.1504 -1.3581 -0.7263
   65SOL     OW  193   0.203   1.441   0.708 -0.7021 -0.4886  0.1840
   65SOL    HW1  194   0.190   1.496   0.793  3.8636 -1.4391 -1.1713
   65SOL    HW2  195   0.283   1.472   0.651  0.6026  0.0097  1.0101
   66SOL     OW  196   2.529   0.393   0.520  0.3370 -0.4522  0.2153
   66SOL    HW1  197   2.629   0.397   0.489  0.4691  2.3282  2.6084
   66SOL    HW2  198   2.518   0.337   0.602  1.0984 -0.1640 -0.0996
   67SOL     OW  199   0.645   2.479   1.453  0.1377  0.1448  0.7211
   67SOL    HW1  200   0.721   2.445   1.512 -2.7803  1.2624  1.2171
   67SOL    HW2  201   0.580   2.400   1.430  0.2397 -1.5443  0.5561
   68SOL     OW  202   0.990   1.029   2.489 -0.4070 -0.0929  0.1163
   68SOL    HW1  203   1.047   0.955   2.440 -0.9078 -1.7647 -3.1733
   68SOL    HW2  204   0.896   1.044   2.440 -1.2649 -3.6136 -1.6100
   69SOL     OW  205   0.795   2.753   2.248 -0.1519 -0.2523  0.6690
   69SOL    HW1  206   0.841   2.684   2.185  0.6951 -1.6306  1.8524
   69SOL    HW2  207   0.693   2.737   2.270  0.0161 -1.8556  4.6030
   70SOL     OW  208   0.441   0.102   2.495 -0.0408 -0.1155 -0.3713
   70SOL    HW1  209   0.370   0.114   2.571 -2.2857 -0.1937  0.1193
   70SOL    HW2  210   0.522   0.039   2.506  0.7044  1.5943 -0.8636
   71SOL     OW  211   1.092   1.736   0.316  0.0739 -0.5247 -0.2048
   71SOL    HW1  212   1.035   1.692   0.398 -0.6098 -0.5149  2.5248
   71SOL    HW2  213   1.035   1.780   0.246 -0.8218 -0.8109  1.5818
   72SOL     OW  214   1.827   0.199   2.163 -0.1058  0.2840 -0.0275
   72SOL    HW1  215   1.894   0.271   2.179  1.1550  2.5857 -1.2423
   72SOL    HW2  216   1.868   0.106   2.184 -1.3055  1.0755  0.7739
   73SOL     OW  217   2.789   2.176   2.426 -0.3936  0.4886  0.6895
   73SOL    HW1  218   2.790   2.072   2.412  1.9718 -0.5814  0.1938
   73SOL    HW2  219   2.842   2.207   2.511  2.9850  1.7393 -0.0006
   74SOL     OW  220   2.712   2.873   2.169  0.6506  0.0933 -0.7262
   74SOL    HW1  221   2.664   2.865   2.261 -1.0062 -0.1847  1.9541
   74SOL    HW2  222   2.797   2.934   2.160 -1.5351 -0.0453 -2.1784
   75SOL     OW  223   0.960   0.882   1.102  0.6063  0.1017  0.5791
   75SOL    HW1  224   0.874   0.938   1.075  0.2713 -3.0297  0.0818
   75SOL    HW2  225   1.000   0.926   1.189  1.0005  1.4840 -0.9805
   76SOL     OW  226   1.857   1.278   2.482  0.2275  0.1919  0.7130
   76SOL    HW1  227   1.759   1.248   2.493 -0.2130  2.0808  3.1733
   76SOL    HW2  228   1.895   1.345   2.548  1.1877  0.3516 -1.5199
   77SOL     OW  229   2.901   0.931   1.054  0.0601  0.3420  0.3108
   77SOL    HW1  230   2.872   0.834   1.023 -0.6187  0.3345 -2.3991
   77SOL    HW2  231   2.987   0.928   1.116 -1.6254  2.3511  0.8659
   78SOL     OW  232   2.017   1.348   1.365 -0.2747 -0.6026 -0.4202
   78SOL    HW1  233   2.120   1.344   1.380 -1.6189 -1.4556 -2.2157
   78SOL    HW2  234   1.979   1.409   1.293  0.6788  0.6598  2.0989
   79SOL     OW  235   0.685   1.402   0.803  0.2293 -0.4773 -0.1738
   79SOL    HW1  236   0.588   1.370   0.817  2.8687 -1.5092  0.5681
   79SOL    HW2  237   0.724   1.343   0.732 -2.3400  2.0149 -3.7531
   80SOL     OW  238   0.598   0.519   1.529 -0.9520  0.4749  0.6813
   80SOL    HW1  239   0.649   0.577   1.463 -2.2170 -1.1814 -1.0333
   80SOL    HW2  240   0.604   0.423   1.498 -0.7443  0.0944  0.9993
   81SOL     OW  241   0.984   1.298   2.617 -0.1364 -0.5583 -0.2724
   81SOL    HW1  242   0.946   1.209   2.648 -0.9486 -0.0617  1.6952
   81SOL    HW2  243   0.950   1.328   2.528  0.7657 -3.4240 -0.5743
   82SOL     OW  244   1.007   2.862   1.525 -0.4408  0.6409 -0.2839
   82SOL    HW1  245   0.914   2.821   1.515 -0.2993  1.0326  1.1442
   82SOL    HW2  246   1.039   2.886   1.429 -2.3607 -2.8078 -1.3213
   83SOL     OW  247   2.547   2.371   0.874  0.2347 -0.3843  0.1183
   83SOL    HW1  248   2.480   2.329   0.805 -0.7471 -1.2515 -2.9895
   83SOL    HW2  249   2.573   2.466   0.859  0.5240 -1.5690  1.0609
   84SOL     OW  250   0.754   0.023   2.336  0.1548  0.4833  0.0413
   84SOL    HW1  251   0.712  -0.026   2.417 -2.0262  1.0748  1.3811
   84SOL    HW2  252   0.816  -0.040   2.279 -2.3873 -0.4057 -1.0995
   85SOL     OW  253   0.262   1.640   1.421 -0.4360  0.3358  0.0548
   85SOL    HW1  254   0.242   1.739   1.425  1.7500  1.8303  2.1481
   85SOL    HW2  255   0.317   1.604   1.504  0.5925  0.8364  3.5415
   86SOL     OW  256   0.406   1.033   1.558  0.2080 -0.5628  0.0523
   86SOL    HW1  257   0.381   0.977   1.473  0.4232  0.5033  1.5769
   86SOL    HW2  258   0.502   1.005   1.592 -3.3163 -1.9655  2.9472
   87SOL     OW  259   1.631   0.684   0.281  0.1640 -0.0802 -0.1981
   87SOL    HW1  260   1.708   0.755   0.277 -1.1854  0.1095  1.1487
   87SOL    HW2  261   1.588   0.659   0.190 -1.8296 -1.0894  6.3602
   88SOL     OW  262   1.606   1.395   0.288  0.1627  0.3003  0.0304
   88SOL    HW1  263   1.647   1.301   0.274 -0.6844 -0.1753 -0.5455
   88SOL    HW2  264   1.502   1.390   0.289 -1.1818  1.7846 -2.1864
   89SOL     OW  265   0.010   0.311   0.611  0.3956  0.5055 -0.4960
   89SOL    HW1  266   0.086   0.240   0.617 -3.5880 -0.0008 -1.1376
   89SOL    HW2  267  -0.080   0.267   0.574 -0.7381  0.5755 -1.1255
   90SOL     OW  268   0.775   1.582   0.169  0.1179  0.2215  0.1369
   90SOL    HW1  269   0.839   1.504   0.160 -0.7108  0.6875 -3.4259
   90SOL    HW2  270   0.705   1.584   0.089 -2.3921  0.2128 -0.2219
   91SOL     OW  271   1.196   1.462   1.768 -0.6304  0.3991  0.0855
   91SOL    HW1  272   1.224   1.530   1.838  0.6850 -0.5101  2.6877
   91SOL    HW2  273   1.254   1.374   1.767 -1.2480 -2.4420  0.7291
   92SOL     OW  274   0.008   0.982   1.208 -0.0257  0.4464 -0.3938
   92SOL    HW1  275   0.048   1.078   1.194  0.1185  0.1023  1.0209
   92SOL    HW2  276   0.025   0.956   1.309  1.1635 -0.6893 -1.0048
   93SOL     OW  277   3.060   2.708   0.044 -0.4089  0.0696 -0.3401
   93SOL    HW1  278   3.001   2.691  -0.041  0.6557  1.8447 -0.0133
   93SOL    HW2  279   3.085   2.616   0.089 -3.0048  1.2272 -1.4956
   94SOL     OW  280   1.494   1.403   1.739  0.4821 -0.5918  0.0227
   94SOL    HW1  281   1.579   1.348   1.765  2.5132 -0.0172  0.4042
   94SOL    HW2  282   1.501   1.499   1.775 -2.6329 -1.3545 -2.7978
   95SOL     OW  283   1.384   2.494   2.951 -0.1225  0.1157 -0.1658
   95SOL    HW1  284   1.291   2.505   3.000  1.2316 -0.4608 -0.0004
   95SOL    HW2  285   1.393   2.404   2.899  0.1906 -2.6650 -1.3509
   96SOL     OW  286   0.568   2.100   1.261  0.4337  0.1542 -0.4377
   96SOL    HW1  287   0.489   2.048   1.220 -1.3463 -0.0549  0.8021
   96SOL    HW2  288   0.627   2.045   1.324  0.2747 -0.8796  0.1188
   97SOL     OW  289   0.299   1.643   2.430 -0.0871  0.0287  0.2141
   97SOL    HW1  290   0.235   1.711   2.383 -1.1595  1.0158 -1.0995
   97SOL    HW2  291   0.272   1.639   2.531  0.9034  0.8591 -1.1884
   98SOL     OW  292   2.205   1.633   1.242  0.4947  0.3545  0.6606
   98SOL    HW1  293   2.130   1.580   1.196  0.9591  2.0863 -1.9820
   98SOL    HW2  294   2.296   1.609   1.192  0.2427  0.8944  1.0203
   99SOL     OW  295   2.568   2.148   1.322  0.2215  0.0940  0.1834
   99SOL    HW1  296   2.651   2.149   1.382 -0.6650  2.3008 -1.7372
   99SOL    HW2  297   2.540   2.048   1.304  2.0265 -2.1951 -1.8072
  100SOL     OW  298   2.311   0.406   2.103 -0.0797  0.1182  0.1364
  100SOL    HW1  299   2.272   0.411   2.198  0.4302 -1.6772 -0.3656
  100SOL    HW2  300   2.406   0.441   2.094  1.2261 -1.3892 -0.4257
  101SOL     OW  301   0.391   1.541   0.524  0.5609  0.4025 -0.1311
  101SOL    HW1  302   0.431   1.616   0.583  0.3962 -0.0631 -1.9642
  101SOL    HW2  303   0.463   1.500   0.460 -1.4864 -0.8670  4.7689
  102SOL     OW  304   2.311   1.083   0.860  0.3427  0.3845  0.6486
  102SOL    HW1  305   2.275   0.990   0.823 -1.3145 -2.7379 -0.4933
  102SOL    HW2  306   2.404   1.108   0.825 -1.2941  1.2587  0.0084
  103SOL     OW  307   2.244   0.067   0.336  0.1787 -0.0098  0.3964
  103SOL    HW1  308   2.277   0.123   0.255 -0.9745 -0.5584 -0.4731
  103SOL    HW2  309   2.320   0.045   0.402 -0.6020 -1.4939  1.3160
  104SOL     OW  310   0.042   1.831   2.102 -0.3566 -0.6473  0.5808
  104SOL    HW1  311   0.082   1.849   2.009 -0.7439 -0.1971 -0.8719
  104SOL    HW2  312  -0.066   1.836   2.095 -3.2063 -0.5753 -0.8158
  105SOL     OW  313   1.342   2.097   0.781  0.7749  0.0373  0.3365
  105SOL    HW1  314   1.335   2.144   0.692  1.6764  0.8404  0.2905
  105SOL    HW2  315   1.368   1.996   0.776  1.4933 -0.8149  1.7889
  106SOL     OW  316   2.109   0.395   1.428  0.3956 -0.5541  0.3899
  106SOL    HW1  317   2.082   0.295   1.436 -0.3331  2.2511  4.9955
  106SOL    HW2  318   2.092   0.450   1.515  0.6702 -0.2347 -0.4809
  107SOL     OW  319   1.966   2.951   1.206 -0.3448  0.0368 -0.4248
  107SOL    HW1  320   1.929   3.046   1.222  1.8398  0.2133 -0.5569
  107SOL    HW2  321   1.903   2.890   1.147 -1.6061 -1.6410  1.3558
  108SOL     OW  322   0.843   2.833   1.173 -0.6809  0.5522  0.1853
  108SOL    HW1  323   0.819   2.740   1.214 -0.9363  0.0540  0.0866
  108SOL    HW2  324   0.931   2.872   1.219 -0.7278  1.8378  1.5201
  109SOL     OW  325   2.142   0.171   0.715  0.1027 -0.2122 -0.4885
  109SOL    HW1  326   2.055   0.128   0.673 -0.6394  0.9045 -0.4402
  109SOL    HW2  327   2.150   0.153   0.818 -0.7225  1.8697  1.2094
  110SOL     OW  328   0.466   2.777   2.784 -0.0834 -0.1544  0.2339
  110SOL    HW1  329   0.440   2.772   2.683  1.3155  0.8517  2.0466
  110SOL    HW2  330   0.541   2.718   2.813  2.7085  1.1082 -1.5112
  111SOL     OW  331   1.279   0.496   2.309 -0.0805  0.0849 -0.0505
  111SOL    HW1  332   1.192   0.516   2.354  0.4473 -1.1154 -0.9220
  111SOL    HW2  333   1.343   0.449   2.377 -0.5367  1.4564 -0.2718
  112SOL     OW  334   1.773   0.389   1.511  0.1031 -0.1469 -0.6987
  112SOL    HW1  335   1.752   0.411   1.412 -0.0652 -0.3529  1.3630
  112SOL    HW2  336   1.689   0.378   1.574 -2.0669 -0.6152  1.9875
  113SOL     OW  337   2.391   1.681   1.718 -0.4133  0.2224  0.2329
  113SOL    HW1  338   2.359   1.587   1.737 -0.8707  2.2414  0.1282
  113SOL    HW2  339   2.418   1.733   1.800  0.0703 -0.2798 -1.3312
  114SOL     OW  340   0.294   0.479   1.199  0.2846  0.2576  0.3027
  114SOL    HW1  341   0.373   0.526   1.142 -0.6650 -0.1803  0.0395
  114SOL    HW2  342   0.207   0.539   1.201 -1.8299  1.1479  0.0675
  115SOL     OW  343   2.731   1.539   1.221 -0.7942 -0.4124 -0.6114
  115SOL    HW1  344   2.712   1.444   1.253  0.9419  0.6666 -0.5146
  115SOL    HW2  345   2.817   1.545   1.164  1.5208  2.5446 -0.4613
  116SOL     OW  346   1.882   0.941   0.717 -0.5618 -0.3501  0.8286
  116SOL    HW1  347   1.786   0.893   0.697 -2.3129 -2.3464 -0.0308
  116SOL    HW2  348   1.882   1.050   0.727  3.3118  2.0657  1.5211
  117SOL     OW  349   1.119   0.365   0.560 -0.1859 -0.2112  0.0654
  117SOL    HW1  350   1.166   0.458   0.567 -3.3111 -0.8527  0.1599
  117SOL    HW2  351   1.110   0.323   0.469 -1.4422 -1.2047 -1.1398
  118SOL     OW  352   1.102   1.208   1.094  0.1885  0.2542 -0.2989
  118SOL    HW1  353   1.001   1.199   1.123  0.4423 -0.6869 -1.2713
  118SOL    HW2  354   1.143   1.303   1.097  0.8798 -1.0016 -1.2029
  119SOL     OW  355   1.859   1.560   2.209 -0.2819 -0.7905  0.5004
  119SOL    HW1  356   1.800   1.634   2.165  0.2812  2.3522  1.2697
  119SOL    HW2  357   1.954   1.564   2.176 -1.8967  0.7364  1.3836
  120SOL     OW  358   2.890   2.795   0.249  0.0019  0.3200  0.1913
  120SOL    HW1  359   2.957   2.783   0.170  0.3242  0.2747 -0.9022
  120SOL    HW2  360   2.797   2.775   0.210 -0.6265 -1.1345 -0.1229
  121SOL     OW  361   1.911   0.744   2.207  0.9832  0.0748  1.0169
  121SOL    HW1  362   1.932   0.802   2.126  1.0470 -0.8783 -0.0567
  121SOL    HW2  363   1.925   0.643   2.190 -0.7859  1.2087 -1.1531
  122SOL     OW  364   2.564   2.510   1.342 -0.3377 -0.0577 -0.4312
  122SOL    HW1  365   2.620   2.536   1.254  0.1442 -1.5084  1.1564
  122SOL    HW2  366   2.619   2.453   1.409 -2.6944  0.4082  1.0536
  123SOL     OW  367   1.730   0.150   1.731 -0.2167  0.5804 -0.1186
  123SOL    HW1  368   1.745   0.067   1.674  0.0916  1.1754  0.5708
  123SOL    HW2  369   1.813   0.193   1.761 -4.0258 -1.6787  4.2189
  124SOL     OW  370   3.066   0.467   1.073  0.1897 -0.5458 -0.3878
  124SOL    HW1  371   2.995   0.532   1.107  1.2887  0.1453  0.6248
  124SOL    HW2  372   3.080   0.485   0.971 -1.1600 -0.8737 -1.1864
  125SOL     OW  373   0.881   1.900   0.791 -0.1743 -0.0701  0.7052
  125SOL    HW1  374   0.968   1.855   0.772 -2.4735 -1.3446 -0.0488
  125SOL    HW2  375   0.873   1.938   0.891  0.6908  2.1058  2.8255
  126SOL     OW  376   1.953   2.289   2.429 -0.6532  0.3888 -0.1321
  126SOL    HW1  377   1.993   2.241   2.343 -0.6138 -2.0561 -0.7666
  126SOL    HW2  378   1.911   2.224   2.503 -1.8468  0.2187  1.1950
  127SOL     OW  379   0.889   0.980   0.213 -0.2727  0.1265  0.3724
  127SOL    HW1  380   0.941   1.001   0.301  1.8887  0.3017 -0.9468
  127SOL    HW2  381   0.881   0.876   0.196  0.1167  1.9199 -0.7291
  128SOL     OW  382   0.942   0.277   1.419  0.2550 -0.0709  0.2540
  128SOL    HW1  383   0.908   0.337   1.342 -1.1297  2.6401  0.5914
  128SOL    HW2  384   0.872   0.200   1.425 -2.2309 -2.1269 -3.8350
  129SOL     OW  385   1.862   0.691   1.834 -0.1380  0.4343 -0.1965
  129SOL    HW1  386   1.888   0.660   1.735 -0.2481  0.3748  0.4712
  129SOL    HW2  387   1.892   0.788   1.855  3.3162 -4.3935 -0.9691
  130SOL     OW  388   1.381   2.259   1.000 -0.4540  0.4929 -0.5994
  130SOL    HW1  389   1.351   2.192   0.927 -1.2709 -0.0581 -1.3176
  130SOL    HW2  390   1.456   2.326   0.967 -0.5954  1.0459 -0.8795
  131SOL     OW  391   3.062   1.447   1.369  0.3528  0.1277  0.0373
  131SOL    HW1  392   2.987   1.378   1.364  0.0736 -2.8267 -2.2813
  131SOL    HW2  393   3.159   1.410   1.363  1.7668  1.5962 -1.4218
  132SOL     OW  394   2.033   2.368   0.507  0.5576 -0.2280 -0.5910
  132SOL    HW1  395   1.935   2.412   0.517  0.3553  0.2552 -0.8776
  132SOL    HW2  396   2.042   2.286   0.568  0.2995  2.2149 -0.5117
  133SOL     OW  397   1.788   2.379   2.716 -0.2166  0.9019  0.1557
  133SOL    HW1  398   1.715   2.405   2.649 -3.5242 -2.7855 -1.4130
  133SOL    HW2  399   1.873   2.428   2.691 -0.6229 -0.6703 -0.5731
  134SOL     OW  400   2.705   2.388   1.599  0.0197 -0.0527 -0.0746
  134SOL    HW1  401   2.646   2.391   1.685  2.1575  0.9293 -0.9742
  134SOL    HW2  402   2.791   2.444   1.611 -2.3581  2.1738 -1.2590
  135SOL     OW  403   0.722   1.434   2.699  0.1473 -0.1937 -0.1703
  135SOL    HW1  404   0.696   1.349   2.754  1.8524  2.8463 -0.1035
  135SOL    HW2  405   0.719   1.411   2.599  1.9096  0.8900  1.5808
  136SOL     OW  406   1.177   2.034   0.400  0.0876  0.0491 -0.4328
  136SOL    HW1  407   1.114   2.102   0.450  0.5681  1.7961  1.6551
  136SOL    HW2  408   1.152   1.936   0.410 -3.4216  1.7499 -0.7300
  137SOL     OW  409   0.406   1.232   2.242 -0.2275 -0.2384  0.3781
  137SOL    HW1  410   0.309   1.219   2.278  0.6340  1.0190 -1.0476
  137SOL    HW2  411   0.459   1.140   2.221  0.0837 -1.3153 -1.4950
  138SOL     OW  412   2.446   1.527   0.284  0.1000 -0.1172 -0.4348
  138SOL    HW1  413   2.393   1.501   0.201 -0.7831  1.4321 -1.8819
  138SOL    HW2  414   2.478   1.446   0.339 -1.1586  0.2943  0.2249
  139SOL     OW  415   1.876   2.639   1.551 -0.2379  0.4243  1.0886
  139SOL    HW1  416   1.773   2.641   1.579 -0.6659 -0.8424 -0.5143
  139SOL    HW2  417   1.894   2.563   1.480 -1.1212  0.9602  0.0482
  140SOL     OW  418   3.003   2.963   2.628 -0.4276 -0.6411 -0.1194
  140SOL    HW1  419   3.043   2.863   2.613 -0.5302 -1.4160  1.6184
  140SOL    HW2  420   3.060   3.039   2.581 -2.6479  0.0030 -0.3801
  141SOL     OW  421   1.312   1.618   1.551 -0.2657  0.2944 -0.5060
  141SOL    HW1  422   1.232   1.686   1.530 -0.1211  0.7320 -1.9977
  141SOL    HW2  423   1.289   1.551   1.628 -3.5371 -0.0563  0.0293
  142SOL     OW  424   1.498   0.639   2.238 -0.7822  0.4453 -0.2646
  142SOL    HW1  425   1.540   0.626   2.144  1.4086  0.9133  0.8911
  142SOL    HW2  426   1.410   0.589   2.249  1.1699 -0.3473 -1.3100
  143SOL     OW  427   2.770   0.787   0.545 -0.2035  0.0646  0.2351
  143SOL    HW1  428   2.823   0.842   0.474  0.1387 -0.5037 -0.1808
  143SOL    HW2  429   2.793   0.807   0.643 -1.3061 -2.3000 -4.0737
  144SOL     OW  430   2.923   1.180   1.446  0.3983  0.0589 -0.2302
  144SOL    HW1  431   2.884   1.175   1.543 -0.3931 -2.7113  0.4050
  144SOL    HW2  432   2.970   1.090   1.424 -1.1060 -2.3925 -1.1604
  145SOL     OW  433   0.897   1.859   0.102 -0.4309  0.0661  0.1176
  145SOL    HW1  434   0.883   1.883   0.002 -3.8136  0.4142  0.0806
  145SOL    HW2  435   0.857   1.767   0.125 -0.3295  2.6078 -0.9138
  146SOL     OW  436   2.460   0.665   1.504 -0.0545  0.2859  0.3013
  146SOL    HW1  437   2.423   0.571   1.485  0.4056  0.7307  0.2034
  146SOL    HW2  438   2.392   0.736   1.464 -1.9267 -0.9760  1.2451
  147SOL     OW  439   1.118   2.515   0.603 -0.1542 -0.3134  0.4104
  147SOL    HW1  440   1.057   2.569   0.538 -0.3216  1.2058  0.3505
  147SOL    HW2  441   1.215   2.503   0.562  0.4212  0.9735 -0.2251
  148SOL     OW  442   1.590   1.468   3.081  0.1359  0.0290 -0.1422
  148SOL    HW1  443   1.596   1.380   3.030  3.6513  1.3132  0.7109
  148SOL    HW2  444   1.553   1.461   3.174  0.9747  1.2011 -1.0258
  149SOL     OW  445   0.678   1.519   1.957 -0.3102  0.5082 -0.3307
  149SOL    HW1  446   0.591   1.483   1.999 -0.0409  0.1206  1.4594
  149SOL    HW2  447   0.708   1.455   1.881 -2.7008 -1.6131 -2.1026
  150SOL     OW  448   3.028   1.172   0.983  0.0383 -0.8229  0.2222
  150SOL    HW1  449   3.052   1.221   1.067 -0.9541 -0.2595 -1.7939
  150SOL    HW2  450   2.978   1.084   1.003  0.0758  3.2279  0.1431
  151SOL     OW  451   0.286   0.800   2.059 -0.7681 -0.0968  0.7788
  151SOL    HW1  452   0.304   0.865   1.979  0.8863  0.0137  0.2267
  151SOL    HW2  453   0.310   0.703   2.028 -1.1588  1.3031  2.6739
  152SOL     OW  454   1.422   1.844   1.128  0.4552  0.3452 -0.1859
  152SOL    HW1  455   1.466   1.937   1.143  0.6937 -3.4093 -1.7256
  152SOL    HW2  456   1.328   1.855   1.084  0.4596  0.2140  1.8120
  153SOL     OW  457   0.150   1.502   0.215 -0.2620  0.0849 -0.1996
  153SOL    HW1  458   0.099   1.409   0.222 -2.9594 -2.9140  0.6831
  153SOL    HW2  459   0.135   1.556   0.303 -1.9005  1.4243  0.5693
  154SOL     OW  460   2.268   1.837   2.771 -0.1511 -0.7339 -0.0178
  154SOL    HW1  461   2.286   1.735   2.770 -0.4763 -0.9963  0.5149
  154SOL    HW2  462   2.348   1.886   2.730 -0.7974 -4.8120  0.8898
  155SOL     OW  463   2.449   1.252   0.337  0.6672 -0.0388  0.3598
  155SOL    HW1  464   2.544   1.218   0.308  1.2622 -0.9153 -3.6999
  155SOL    HW2  465   2.386   1.177   0.369 -0.7174  3.5973  0.0139
  156SOL     OW  466   2.444   0.825   0.707 -0.8099  0.3965 -0.5483
  156SOL    HW1  467   2.341   0.827   0.715 -0.1906 -2.1392  0.3536
  156SOL    HW2  468   2.488   0.904   0.653  0.3321  2.0054  0.3567
  157SOL     OW  469   1.212   2.968   3.013 -0.3734  0.6706 -0.1528
  157SOL    HW1  470   1.300   2.945   2.960  1.9075  2.8587 -1.2019
  157SOL    HW2  471   1.213   3.070   3.045  0.6058 -1.1206 -1.5359
  158SOL     OW  472   1.070   1.854   1.835  0.1183  0.3566  0.3510
  158SOL    HW1  473   1.087   1.952   1.810  1.1166  0.6103 -1.0201
  158SOL    HW2  474   0.981   1.840   1.887  0.2286 -0.5797 -0.2712
  159SOL     OW  475   0.852   0.442   1.229  0.2307 -0.8799 -0.0785
  159SOL    HW1  476   0.800   0.527   1.261 -0.2526  2.4218 -0.0856
  159SOL    HW2  477   0.790   0.371   1.189  0.1661  0.2872  2.1194
  160SOL     OW  478   1.439   2.440   1.488  0.7363  0.5880 -0.5084
  160SOL    HW1  479   1.372   2.364   1.499  0.6148 -1.0994 -4.0029
  160SOL    HW2  480   1.533   2.396   1.465  1.6703 -2.5045 -1.3116
  161SOL     OW  481   3.037   2.640   0.456 -0.2143 -0.4717 -0.3445
  161SOL    HW1  482   2.999   2.545   0.449 -0.3713  1.4906  1.2130
  161SOL    HW2  483   3.005   2.715   0.393  1.9863 -0.0692 -2.7646
  162SOL     OW  484   2.592   1.850   0.462 -0.1712  0.2109  0.0334
  162SOL    HW1  485   2.607   1.851   0.359  3.6182  4.1434  1.5505
  162SOL    HW2  486   2.519   1.783   0.490  0.8982  1.4165  1.3302
  163SOL     OW  487   1.953   2.698   0.745  0.0244  0.3680 -0.1875
  163SOL    HW1  488   1.957   2.708   0.641  1.8320 -1.3489  1.9602
  163SOL    HW2  489   2.012   2.621   0.787 -0.0069  1.6423  3.0175
  164SOL     OW  490   3.046   0.216   1.204  0.9776  0.4998 -0.2316
  164SOL    HW1  491   3.063   0.307   1.161  0.8391 -1.5589 -1.4133
  164SOL    HW2  492   3.115   0.194   1.272 -2.7095 -0.6917 -0.8987
  165SOL     OW  493   1.105   1.402   0.672  0.1096 -0.1714  0.0260
  165SOL    HW1  494   1.118   1.439   0.767 -0.3417  1.5594 -0.5376
  165SOL    HW2  495   1.094   1.483   0.604  1.1910  0.6384  1.5137
  166SOL     OW  496   1.512   1.012   1.786 -0.6250 -0.3637  0.2213
  166SOL    HW1  497   1.442   1.049   1.852  3.4307  1.8630  0.9820
  166SOL    HW2  498   1.580   1.085   1.760 -1.9222 -1.4297  0.5469
  167SOL     OW  499   0.750   1.956   1.461 -1.0354  0.4472 -0.0171
  167SOL    HW1  500   0.764   2.002   1.553  1.1423 -2.0038  1.3569
  167SOL    HW2  501   0.685   1.877   1.474 -2.9193 -0.9133  0.3803
  168SOL     OW  502   1.555   2.337   0.156 -0.2500 -0.0042 -0.2796
  168SOL    HW1  503   1.604   2.393   0.081  0.9178 -0.0608  0.0173
  168SOL    HW2  504   1.622   2.303   0.228 -2.6029 -1.4218  1.3490
  169SOL     OW  505   0.073   2.560   2.187 -0.2004 -0.4939 -0.2038
  169SOL    HW1  506   0.122   2.531   2.102  0.3019  0.8466  0.7319
  169SOL    HW2  507   0.135   2.543   2.272  1.1272 -2.6562 -2.7626
  170SOL     OW  508   1.149   0.199   2.043  0.4856 -0.5158  0.1627
  170SOL    HW1  509   1.229   0.214   2.100 -1.4648  0.2171 -1.8076
  170SOL    HW2  510   1.177   0.188   1.942 -0.1746  1.2251  0.2933
  171SOL     OW  511   0.214   0.859   2.358  0.5830  0.0798 -0.5481
  171SOL    HW1  512   0.115   0.855   2.382 -1.6088  0.0834 -3.2824
  171SOL    HW2  513   0.225   0.845   2.256 -0.1730  1.1456  0.7099
  172SOL     OW  514   0.971   1.036   2.869 -0.2087  0.1802 -0.6456
  172SOL    HW1  515   0.910   1.117   2.895 -0.1881  2.5095  0.9482
  172SOL    HW2  516   0.933   0.981   2.788  0.2562  1.7353 -3.3873
  173SOL     OW  517   0.490   2.461   0.096  0.1895  0.1722 -0.3520
  173SOL    HW1  518   0.497   2.394   0.015 -2.5768  0.1949 -2.3385
  173SOL    HW2  519   0.406   2.456   0.162 -2.5408 -1.4080 -0.1199
  174SOL     OW  520   1.535   2.863   1.087  0.1860  0.3463  0.2603
  174SOL    HW1  521   1.594   2.899   1.012  0.9544 -1.1985  1.7340
  174SOL    HW2  522   1.489   2.770   1.062 -0.5671 -1.9634 -1.9687
  175SOL     OW  523   0.415   3.062   1.722 -0.7080 -0.4215  0.3265
  175SOL    HW1  524   0.490   3.051   1.791 -1.9458 -0.0949  1.0016
  175SOL    HW2  525   0.382   3.157   1.704  1.7127  1.1855  0.5822
  176SOL     OW  526   2.636   0.371   0.016  0.2988  0.1256  0.2705
  176SOL    HW1  527   2.664   0.455   0.066  1.4255 -0.9378  1.1813
  176SOL    HW2  528   2.587   0.308   0.084 -0.3625  1.5079  0.7519
  177SOL     OW  529   0.353   0.315   0.984  0.7334 -0.0933 -0.6422
  177SOL    HW1  530   0.294   0.235   0.964 -1.3134  1.3939  1.5115
  177SOL    HW2  531   0.321   0.381   1.058 -0.0363 -0.8074 -0.5658
  178SOL     OW  532   0.018   2.737   2.553 -0.1351 -0.0684 -0.3584
  178SOL    HW1  533  -0.019   2.650   2.517 -0.6591 -1.0790  2.9801
  178SOL    HW2  534   0.088   2.721   2.627 -1.2395  0.0382  0.5128
  179SOL     OW  535   2.990   1.529   1.112 -0.4729  0.1368  0.4269
  179SOL    HW1  536   3.060   1.572   1.048  0.5063 -2.4854  0.2521
  179SOL    HW2  537   3.027   1.500   1.200 -1.0713  0.4570 -1.9715
  180SOL     OW  538   0.192   1.368   1.787 -0.0104 -0.1186  0.4458
  180SOL    HW1  539   0.285   1.332   1.813  0.5627  2.2141 -2.0265
  180SOL    HW2  540   0.148   1.431   1.861  1.4915 -2.4215  0.0348
  181SOL     OW  541   2.976   1.922   2.547 -0.1100 -0.7534  0.0402
  181SOL    HW1  542   3.039   1.996   2.498  2.6492  0.9878 -1.1249
  181SOL    HW2  543   2.895   1.908   2.485  0.2624 -2.1853 -0.2592
  182SOL     OW  544   2.320   1.286   1.256 -0.7577  0.7372 -0.1727
  182SOL    HW1  545   2.245   1.250   1.196  2.9157 -0.5466  2.2724
  182SOL    HW2  546   2.341   1.383   1.238 -0.6236  0.2313 -2.3420
  183SOL     OW  547   1.393   2.313   2.458  0.3862  0.1755  0.4075
  183SOL    HW1  548   1.325   2.318   2.534 -0.9099 -1.9198  0.0025
  183SOL    HW2  549   1.430   2.217   2.448  1.6804  0.0459 -0.2714
  184SOL     OW  550   2.152   0.829   0.759 -0.2641 -0.6845 -0.0129
  184SOL    HW1  551   2.049   0.858   0.749 -3.5906 -0.0234  1.4347
  184SOL    HW2  552   2.164   0.729   0.726  2.2716 -1.9264 -0.2391
  185SOL     OW  553   1.535   2.733   2.052  0.4885  0.7614 -0.2721
  185SOL    HW1  554   1.466   2.801   2.017  1.1273  1.5820  0.3592
  185SOL    HW2  555   1.570   2.756   2.147 -1.7765 -1.9977  0.3415
  186SOL     OW  556   0.060   2.212   1.652  0.0336  0.2864  0.2381
  186SOL    HW1  557   0.044   2.233   1.757  0.8544 -1.3127  3.8922
  186SOL    HW2  558   0.141   2.148   1.641  1.8599 -1.2388 -1.0042
  187SOL     OW  559   1.349   0.633   1.673 -0.2860  0.3350 -0.1171
  187SOL    HW1  560   1.434   0.699   1.689 -1.1592 -0.6567  0.1351
  187SOL    HW2  561   1.341   0.559   1.746  0.6940  0.3518 -0.2491
  188SOL     OW  562   2.757   2.702   1.426 -0.3250  0.1366  0.4738
  188SOL    HW1  563   2.752   2.801   1.388  0.8675 -0.4232  0.2182
  188SOL    HW2  564   2.676   2.641   1.410  1.3837 -0.7446 -0.6216
  189SOL     OW  565   0.904   1.205   1.381  0.2216 -0.2863 -0.3069
  189SOL    HW1  566   0.974   1.256   1.443 -2.0304  1.2648 -0.7188
  189SOL    HW2  567   0.824   1.262   1.350  2.6147  0.0874 -4.6508
  190SOL     OW  568   1.458   1.895   1.535 -0.0783  0.1822 -0.6452
  190SOL    HW1  569   1.438   1.793   1.543 -2.9621  2.5194  0.3284
  190SOL    HW2  570   1.459   1.941   1.628 -1.0487 -1.5414 -1.5451
  191SOL     OW  571   0.907   0.815   1.509 -0.5661  0.0458 -0.4572
  191SOL    HW1  572   0.966   0.748   1.557 -2.7102  1.9283  3.0900
  191SOL    HW2  573   0.969   0.867   1.443  0.4013 -0.5860  1.5623
  192SOL     OW  574   1.843   2.476   1.101 -0.2884  0.2953 -0.1803
  192SOL    HW1  575   1.747   2.470   1.069  2.4806 -1.7500  1.3895
  192SOL    HW2  576   1.898   2.407   1.047 -1.1809 -0.7541 -0.9997
  193SOL     OW  577   0.547   0.565   0.470  0.1372  0.1294  0.9244
  193SOL    HW1  578   0.476   0.491   0.489  1.0288  1.3127 -0.0524
  193SOL    HW2  579   0.587   0.550   0.379  1.8987  0.6516 -0.5585
  194SOL     OW  580   0.355   0.905   1.334  0.4471 -0.1776 -0.0968
  194SOL    HW1  581   0.303   0.820   1.300 -0.3175 -2.7463 -0.0492
  194SOL    HW2  582   0.368   0.965   1.253 -1.9605 -3.1230 -0.4701
  195SOL     OW  583   0.984   2.895   0.528  0.2796 -0.5128 -0.1856
  195SOL    HW1  584   0.962   2.807   0.476 -1.9243 -0.3741 -1.2576
  195SOL    HW2  585   1.075   2.942   0.503  0.9470  1.2224 -1.3003
  196SOL     OW  586   0.269   1.376   1.337  0.1874  0.0963 -0.1239
  196SOL    HW1  587   0.256   1.477   1.343  0.6058 -1.0016  0.0755
  196SOL    HW2  588   0.296   1.336   1.427 -0.3982  2.4938 -0.6219
  197SOL     OW  589   0.843   2.010   0.321  0.4524 -0.1006 -0.4183
  197SOL    HW1  590   0.814   1.959   0.403 -0.4878 -0.3985 -1.8184
  197SOL    HW2  591   0.872   1.957   0.235  2.1852  1.6804 -2.0308
  198SOL     OW  592   0.292   1.251   0.349  0.2196  0.1458 -0.1200
  198SOL    HW1  593   0.204   1.253   0.298 -1.8124  0.0112  0.1578
  198SOL    HW2  594   0.325   1.334   0.400  2.2394  0.0122  1.0846
  199SOL     OW  595   2.238   0.461   2.573 -0.2968  0.0535  0.0147
  199SOL    HW1  596   2.163   0.475   2.647 -0.9128 -1.4770  2.5779
  199SOL    HW2  597   2.317   0.402   2.605 -0.9489  0.9316  0.7442
  200SOL     OW  598   3.084   2.985   0.819 -0.1177  0.2308  0.2726
  200SOL    HW1  599   3.081   3.080   0.864 -2.2980  1.4480  0.6651
  200SOL    HW2  600   3.036   2.992   0.727 -1.0711 -0.7363 -2.2354
  201SOL     OW  601   0.925   0.729   0.502  0.0649 -0.1459  0.0009
  201SOL    HW1  602   0.913   0.816   0.556 -1.6667  2.2639  2.6086
  201SOL    HW2  603   0.878   0.643   0.542 -0.9402 -1.3257 -0.4491
  202SOL     OW  604   0.436   1.250   1.823 -0.1025  0.0896 -0.5909
  202SOL    HW1  605   0.512   1.182   1.824 -1.1890  0.8191  2.7980
  202SOL    HW2  606   0.435   1.311   1.908  1.2236 -1.9061  0.8838
  203SOL     OW  607   0.636   0.218   1.557  0.5086 -0.0431 -0.1775
  203SOL    HW1  608   0.655   0.161   1.472  1.7712 -2.1545 -0.2950
  203SOL    HW2  609   0.687   0.186   1.639 -0.2247  1.6736  2.9364
  204SOL     OW  610   2.080   1.789   2.976 -0.8922  0.1455  0.1032
  204SOL    HW1  611   2.097   1.686   2.981  2.7285 -1.4195 -0.6166
  204SOL    HW2  612   2.131   1.834   2.891  0.3297  1.8682 -3.3164
  205SOL     OW  613   1.844   1.880   3.104  0.0283 -0.2179 -0.5378
  205SOL    HW1  614   1.921   1.834   3.053  1.8819 -1.8717 -0.0807
  205SOL    HW2  615   1.819   1.971   3.063  1.3177  2.2635  1.7303
  206SOL     OW  616   2.416   2.777   0.339  0.3940 -0.2489 -0.8267
  206SOL    HW1  617   2.347   2.706   0.370  1.7444 -0.6816 -0.2418
  206SOL    HW2  618   2.484   2.741   0.274 -3.6225 -1.8105  1.2127
  207SOL     OW  619   0.713   1.753   2.865  0.4824  0.6635 -0.9329
  207SOL    HW1  620   0.800   1.697   2.838  0.7910  0.8660 -1.4433
  207SOL    HW2  621   0.656   1.707   2.944  0.3827 -0.3368  0.4828
  208SOL     OW  622   1.046   1.645   1.238 -0.8105 -0.7370 -0.2398
  208SOL    HW1  623   1.085   1.739   1.217 -0.9107 -1.5710 -1.6526
  208SOL    HW2  624   0.952   1.651   1.281  1.5000  0.8924  2.4048
  209SOL     OW  625   0.227   0.989   3.083  0.7395 -0.1540  0.0506
  209SOL    HW1  626   0.201   0.913   3.014  1.1270 -0.2667 -1.1270
  209SOL    HW2  627   0.236   0.959   3.182 -1.8334  1.1019 -1.3590
  210SOL     OW  628   1.722   0.480   1.236  0.2128 -0.2902  0.0784
  210SOL    HW1  629   1.643   0.550   1.216 -0.7657  2.7497  0.8964
  210SOL    HW2  630   1.816   0.515   1.217 -1.3637  1.3962  1.3271
  211SOL     OW  631   2.048   1.019   1.566  0.0475 -0.5522  0.3093
  211SOL    HW1  632   2.093   0.971   1.642 -1.5258  1.2690 -0.9334
  211SOL    HW2  633   2.114   1.097   1.536  2.4399 -4.0731  0.2537
  212SOL     OW  634   0.028   0.971   1.478 -0.4216  0.4648 -0.0351
  212SOL    HW1  635   0.086   1.057   1.506  2.2331  0.9612 -1.2545
  212SOL    HW2  636   0.049   0.889   1.539 -1.2148 -0.3817  0.1834
  213SOL     OW  637   2.749   0.200   0.246  0.3016  0.0657 -0.0046
  213SOL    HW1  638   2.840   0.166   0.219  0.8164 -3.5550 -0.2865
  213SOL    HW2  639   2.684   0.117   0.245 -0.1728 -1.4520  1.1612
  214SOL     OW  640   2.155   0.348   2.347 -0.1837 -0.3321 -0.1801
  214SOL    HW1  641   2.197   0.397   2.433 -0.7877 -1.6859 -1.1040
  214SOL    HW2  642   2.140   0.250   2.365  2.3308  0.2134 -0.1585
  215SOL     OW  643   1.645   2.268   2.092  0.1722 -0.4060 -0.3427
  215SOL    HW1  644   1.744   2.277   2.065  0.7056  0.1012  0.7777
  215SOL    HW2  645   1.596   2.359   2.115 -0.5459 -0.8134 -0.1628
  216SOL     OW  646   2.145   0.595   0.614 -0.4067 -0.8267  0.8903
  216SOL    HW1  647   2.132   0.493   0.579 -3.0591 -3.7108 -1.6419
  216SOL    HW2  648   2.200   0.653   0.553  1.6178  1.8100  0.4777
  217SOL     OW  649   0.933   2.837   2.554  0.2656 -0.2778  0.5470
  217SOL    HW1  650   0.977   2.769   2.621 -5.0360 -0.9999  0.8942
  217SOL    HW2  651   0.874   2.792   2.484  3.0370 -1.0164 -1.4899
  218SOL     OW  652   1.885   1.466   0.025  0.3117  0.1514 -0.4866
  218SOL    HW1  653   1.790   1.480  -0.013  1.3217  0.2690 -1.6715
  218SOL    HW2  654   1.895   1.380   0.086 -1.4197 -3.1381 -0.3992
  219SOL     OW  655   2.467   1.269   2.523 -0.4422 -0.4405 -0.2944
  219SOL    HW1  656   2.527   1.232   2.449 -1.0379  0.5288  1.3406
  219SOL    HW2  657   2.483   1.229   2.614  1.4543  3.0553 -1.2333
  220SOL     OW  658   1.436   1.007   1.398 -0.1249 -0.1687 -0.0475
  220SOL    HW1  659   1.541   1.005   1.396  1.7183  0.6599 -0.5826
  220SOL    HW2  660   1.398   1.049   1.309 -0.3924 -2.0536 -1.7924
  221SOL     OW  661   1.356   0.947   2.223  0.0028  0.0714  0.8939
  221SOL    HW1  662   1.349   0.976   2.123 -2.3022  0.7368 -3.2654
  221SOL    HW2  663   1.418   1.007   2.285 -0.6483 -0.3568  0.7352
  222SOL     OW  664   1.103   0.108   1.237  0.3618 -0.3297 -0.1802
  222SOL    HW1  665   1.058   0.189   1.275  1.7245  0.3776  1.4409
  222SOL    HW2  666   1.118   0.118   1.134 -0.1437  2.0781  0.3864
  223SOL     OW  667   2.710   0.913   2.084 -0.0588  0.2058  0.1202
  223SOL    HW1  668   2.646   0.988   2.107 -0.3836  0.4719 -0.6577
  223SOL    HW2  669   2.801   0.918   2.134 -0.5645  1.3852 -2.3920
  224SOL     OW  670   1.546   1.060   2.733  0.9351  0.3887  0.4981
  224SOL    HW1  671   1.557   0.970   2.689  2.1841  4.4776 -0.0121
  224SOL    HW2  672   1.559   1.138   2.660 -0.6268 -0.1304  0.2451
  225SOL     OW  673   2.959   2.697   2.839 -0.1635  0.2258  0.1303
  225SOL    HW1  674   2.878   2.702   2.782 -1.2616 -0.3390 -1.0006
  225SOL    HW2  675   3.019   2.781   2.837 -0.1372  0.9393 -0.8160
  226SOL     OW  676   2.355   1.558   2.811 -0.3486 -0.9657  0.6127
  226SOL    HW1  677   2.425   1.548   2.739  1.0229 -1.8132  2.8729
  226SOL    HW2  678   2.384   1.529   2.903 -0.4921 -1.9016 -2.7838
  227SOL     OW  679   0.853   0.260   3.079 -0.2275  0.1829  0.0023
  227SOL    HW1  680   0.905   0.352   3.080  0.8681  1.6894 -0.6927
  227SOL    HW2  681   0.790   0.248   2.995 -0.2890 -0.4832 -1.0172
  228SOL     OW  682   2.403   0.606   2.829 -0.1576  0.3811  0.3033
  228SOL    HW1  683   2.406   0.678   2.759 -0.8785 -2.2427  1.3942
  228SOL    HW2  684   2.492   0.550   2.850 -0.4953  2.0727 -0.0318
  229SOL     OW  685   0.512   0.481   1.802 -0.2861 -0.1416 -0.1444
  229SOL    HW1  686   0.541   0.392   1.852 -2.1095  1.3907 -1.3017
  229SOL    HW2  687   0.543   0.489   1.705  2.5578  1.5988 -0.0324
  230SOL     OW  688   1.871   1.228   2.032  0.0372  0.5957 -0.2630
  230SOL    HW1  689   1.960   1.279   2.008  1.8401 -0.2951 -0.7172
  230SOL    HW2  690   1.798   1.294   2.065 -0.8548 -0.0643 -3.7511
  231SOL     OW  691   0.659   1.073   3.091  0.2263 -0.1243 -0.0314
  231SOL    HW1  692   0.731   1.136   3.125  0.0257 -2.0620 -2.4396
  231SOL    HW2  693   0.556   1.101   3.116 -5.5099  1.4542 -0.0091
  232SOL     OW  694   2.419   3.011   2.847 -0.9546 -0.1179  1.2113
  232SOL    HW1  695   2.481   2.927   2.864  1.1367 -0.2882 -0.2022
  232SOL    HW2  696   2.452   3.071   2.764 -0.4150 -0.7005 -1.9057
  233SOL     OW  697   1.749   1.239   1.195 -0.3647 -0.6551 -0.6709
  233SOL    HW1  698   1.815   1.271   1.122  0.1142  0.5970  2.4216
  233SOL    HW2  699   1.740   1.138   1.197  1.3281  0.7744 -0.5858
  234SOL     OW  700   1.653   2.579   1.826  0.0555 -0.1220  0.0467
  234SOL    HW1  701   1.632   2.619   1.920  1.6442  0.0592  1.5353
  234SOL    HW2  702   1.600   2.491   1.802  0.7382  3.5203 -2.0125
  235SOL     OW  703   3.104   2.942   2.873 -0.2297 -0.6838  0.1491
  235SOL    HW1  704   3.068   2.973   2.781  0.3778  1.0979  0.9187
  235SOL    HW2  705   3.074   3.008   2.953 -1.7104  1.6042  2.1949
  236SOL     OW  706   2.943   0.649   0.096  0.1574 -0.2735 -0.4527
  236SOL    HW1  707   3.000   0.700   0.164 -1.2135  0.9654 -1.3621
  236SOL    HW2  708   3.000   0.589   0.031  0.7299 -1.6031 -3.2603
  237SOL     OW  709   1.464   1.631   0.932 -0.6514 -0.3379 -0.5328
  237SOL    HW1  710   1.568   1.604   0.922 -0.1829  0.7671 -0.6048
  237SOL    HW2  711   1.448   1.700   1.005 -1.5205  0.2962 -0.8851
  238SOL     OW  712   1.888   1.204   0.754 -0.1937 -0.5308  0.6935
  238SOL    HW1  713   1.939   1.215   0.843  3.0455 -2.6113  2.7001
  238SOL    HW2  714   1.794   1.238   0.767  2.1850 -0.0911 -0.3658
  239SOL     OW  715   2.054   0.268   2.749  0.4090 -0.1064 -0.0864
  239SOL    HW1  716   2.080   0.225   2.837 -1.2320  0.3397  0.4262
  239SOL    HW2  717   1.977   0.338   2.769 -1.2222 -3.1855 -1.8050
  240SOL     OW  718   0.924   0.695   0.241 -0.0832 -0.0720  0.0268
  240SOL    HW1  719   0.991   0.621   0.221  0.3965 -1.7470 -1.5931
  240SOL    HW2  720   0.929   0.719   0.343 -0.5288  1.3920  2.7883
  241SOL     OW  721   0.589   0.098   0.387 -0.0992  0.0873 -0.0063
  241SOL    HW1  722   0.630   0.162   0.318 -1.5079  1.0116  2.3256
  241SOL    HW2  723   0.556   0.007   0.346 -1.4861  4.1363 -1.4206
  242SOL     OW  724   0.626   2.553   1.190  0.1832 -0.2671 -0.6704
  242SOL    HW1  725   0.623   2.534   1.293  0.0954  2.3979  0.2089
  242SOL    HW2  726   0.605   2.650   1.164 -2.3068 -0.5162  0.4770
  243SOL     OW  727   1.035   0.576   2.395  0.3867  0.7022  0.0122
  243SOL    HW1  728   0.944   0.633   2.386 -0.9412  2.4885 -0.4656
  243SOL    HW2  729   1.028   0.513   2.477  3.7755  0.4434 -0.7485
  244SOL     OW  730   2.757   1.895   2.363  0.1052  0.3551 -0.3854
  244SOL    HW1  731   2.780   1.886   2.264 -0.4036 -3.2584  1.3842
  244SOL    HW2  732   2.658   1.864   2.384  0.9840  0.3284  0.4485
  245SOL     OW  733   2.175   0.926   2.166  0.1226 -0.0582 -0.6801
  245SOL    HW1  734   2.279   0.921   2.182  1.2088 -0.7401  1.3119
  245SOL    HW2  735   2.122   0.993   2.229 -0.4472 -0.4423  0.5017
  246SOL     OW  736   0.235   2.858   1.754  0.3287 -0.5524  0.1056
  246SOL    HW1  737   0.156   2.847   1.687  0.4627  1.1285  4.4718
  246SOL    HW2  738   0.297   2.943   1.738  0.3924  1.1021  2.6375
  247SOL     OW  739   2.239   0.627   3.037 -0.0851 -0.0079 -0.3209
  247SOL    HW1  740   2.291   0.608   2.947  1.6564  0.5797 -0.2930
  247SOL    HW2  741   2.173   0.711   3.036  1.6690 -1.7168  2.4260
  248SOL     OW  742   2.197   1.854   1.603 -0.1774 -0.1546  0.6549
  248SOL    HW1  743   2.279   1.814   1.661  2.4601  0.1205  3.7447
  248SOL    HW2  744   2.107   1.803   1.607  1.9088  1.7098  0.1749
  249SOL     OW  745   1.945   1.875   1.823 -0.3118  0.2833  0.1339
  249SOL    HW1  746   1.956   1.785   1.769 -1.9532  0.7054 -2.7019
  249SOL    HW2  747   2.034   1.916   1.856  0.6527 -0.3733  1.5569
  250SOL     OW  748   1.110   0.724   1.864 -0.3434 -0.4297 -0.6893
  250SOL    HW1  749   1.148   0.648   1.928 -2.1089 -1.9670 -1.0197
  250SOL    HW2  750   1.081   0.682   1.777  0.0050 -0.8908  1.6456
  251SOL     OW  751   3.021   1.636   2.569  0.0615  0.4383 -0.2571
  251SOL    HW1  752   2.991   1.729   2.542 -1.7787  1.0179  1.0092
  251SOL    HW2  753   2.946   1.563   2.558 -2.1199  0.3427  1.1323
  252SOL     OW  754   1.599   0.772   1.681 -0.0915  0.4529 -0.9686
  252SOL    HW1  755   1.672   0.789   1.611 -1.9189  1.3812 -1.8615
  252SOL    HW2  756   1.546   0.856   1.714 -0.9908 -0.3185 -1.5628
  253SOL     OW  757   0.986   1.565   0.491 -0.2829 -0.7865  0.3716
  253SOL    HW1  758   1.004   1.501   0.407  1.1979  0.1169 -2.2756
  253SOL    HW2  759   0.895   1.553   0.538  0.6865  0.5119  0.6293
  254SOL     OW  760   2.022   2.210   1.658 -0.2143 -0.1959 -0.2217
  254SOL    HW1  761   1.985   2.133   1.602  0.1633  0.7005  0.4572
  254SOL    HW2  762   1.955   2.268   1.712 -0.7067  1.7096 -0.1937
  255SOL     OW  763   0.137   1.182   2.901 -0.0230 -0.5307  0.3793
  255SOL    HW1  764   0.188   1.276   2.892  1.3464 -0.3676 -0.1818
  255SOL    HW2  765   0.175   1.116   2.968 -1.1452  2.3482 -2.0287
  256SOL     OW  766   2.832   1.368   1.860 -0.0691 -0.3068 -0.2585
  256SOL    HW1  767   2.766   1.445   1.869  0.7799  1.0552 -0.6175
  256SOL    HW2  768   2.796   1.290   1.797 -1.6637  2.6361 -0.4369
  257SOL     OW  769   0.802   0.143   1.782  0.2351  0.0481  0.5618
  257SOL    HW1  770   0.850   0.230   1.741 -0.7648 -0.4241  0.1683
  257SOL    HW2  771   0.845   0.058   1.755 -4.0785  3.3144  1.6418
  258SOL     OW  772   2.971   1.205   0.499  0.1490 -0.4240  0.3879
  258SOL    HW1  773   2.883   1.213   0.560 -0.9368  0.6548  0.9215
  258SOL    HW2  774   3.051   1.225   0.563 -1.4174 -3.3339  1.3053
  259SOL     OW  775   0.389   2.922   3.035  0.5746 -0.2973 -0.3601
  259SOL    HW1  776   0.334   2.850   3.088 -3.0040 -0.6187  1.0500
  259SOL    HW2  777   0.434   2.876   2.952 -0.3312  0.2394 -0.3044
  260SOL     OW  778   2.756   0.741   2.762 -0.2107  0.0556 -1.0980
  260SOL    HW1  779   2.689   0.813   2.729  0.1689 -0.1050  2.0020
  260SOL    HW2  780   2.706   0.677   2.826 -0.7607  3.9999  0.5323
  261SOL     OW  781   2.710   1.293   1.304  0.2495  0.8743  0.5361
  261SOL    HW1  782   2.669   1.235   1.225 -0.1760 -1.0078  1.6335
  261SOL    HW2  783   2.784   1.235   1.346  2.4685  2.2261 -0.2750
  262SOL     OW  784   1.373   2.973   1.986  0.0323 -0.3435  1.3058
  262SOL    HW1  785   1.405   3.070   1.965  0.5965  1.1219  2.2879
  262SOL    HW2  786   1.272   2.973   2.019  0.1675  0.8107  2.1576
  263SOL     OW  787   0.811   0.691   2.280 -0.5788  0.4051 -0.1877
  263SOL    HW1  788   0.767   0.599   2.259  0.3659 -3.0731  3.0627
  263SOL    HW2  789   0.839   0.742   2.193 -2.5645  1.5652  1.4299
  264SOL     OW  790   2.280   0.792   0.438  0.6825  0.3152 -0.8982
  264SOL    HW1  791   2.249   0.744   0.350 -2.8979 -0.6091 -0.9828
  264SOL    HW2  792   2.372   0.844   0.430  1.9557  2.5839  0.1606
  265SOL     OW  793   0.956   2.406   2.610  0.2885 -0.2466 -0.0768
  265SOL    HW1  794   1.030   2.453   2.671  0.1650 -0.8627 -0.0467
  265SOL    HW2  795   0.904   2.338   2.660 -0.1117 -0.9299 -0.8424
  266SOL     OW  796   1.323   1.771   3.058 -0.5279  0.1199  0.0532
  266SOL    HW1  797   1.321   1.792   3.159  4.0356 -0.2538  0.5099
  266SOL    HW2  798   1.419   1.767   3.016 -0.8830  1.1748 -1.7041
  267SOL     OW  799   1.106   0.036   2.273  0.0736 -0.9497 -0.2660
  267SOL    HW1  800   1.020  -0.006   2.227 -1.0602 -2.4478  0.5354
  267SOL    HW2  801   1.167   0.092   2.203  1.9031 -0.4022  1.2394
  268SOL     OW  802   0.819   1.242   1.044  0.6724 -0.4237  0.4916
  268SOL    HW1  803   0.815   1.299   1.129  0.6380  1.2876  0.6902
  268SOL    HW2  804   0.803   1.294   0.950  1.0481 -2.1882  0.5088
  269SOL     OW  805   2.368   2.506   1.632 -0.0756 -0.2000  1.4831
  269SOL    HW1  806   2.430   2.439   1.676 -2.3036 -0.3510 -2.2084
  269SOL    HW2  807   2.295   2.530   1.700  1.3836  0.8217 -1.3410
  270SOL     OW  808   0.130   2.968   2.003 -0.1692  0.3998  0.3668
  270SOL    HW1  809   0.176   2.928   1.918 -0.8416  1.5512  1.4138
  270SOL    HW2  810   0.086   2.899   2.068 -0.9561 -0.0253  0.5501
  271SOL     OW  811   0.494   1.419   1.129  0.6213 -0.1162 -0.7268
  271SOL    HW1  812   0.486   1.411   1.029 -2.0977 -0.7984  1.1124
  271SOL    HW2  813   0.408   1.381   1.173  1.7255  0.6573  1.5277
  272SOL     OW  814   1.958   3.027   1.951 -0.6793  0.5676 -0.4193
  272SOL    HW1  815   1.882   2.987   1.899  0.0848  3.1064 -0.6154
  272SOL    HW2  816   2.033   3.056   1.885 -2.0206 -1.2577 -3.0310
  273SOL     OW  817   1.498   1.463   2.737  0.6739 -0.7467  0.2947
  273SOL    HW1  818   1.403   1.431   2.705 -0.5624 -0.8205  3.3537
  273SOL    HW2  819   1.495   1.488   2.837  2.1943  2.7790  1.3161
  274SOL     OW  820   1.171   0.506   2.051  0.0163  0.2932 -0.6045
  274SOL    HW1  821   1.084   0.451   2.041  1.5657  0.6777 -0.8670
  274SOL    HW2  822   1.203   0.520   2.152 -1.7286 -0.7619  0.8349
  275SOL     OW  823   0.628   2.126   1.910 -0.2757 -0.2125  0.4157
  275SOL    HW1  824   0.613   2.182   1.998 -0.7132 -3.2005  0.8675
  275SOL    HW2  825   0.537   2.084   1.874 -2.3176  0.8660  1.3368
  276SOL     OW  826   2.176   1.041   2.803  0.1931 -0.9829 -0.3067
  276SOL    HW1  827   2.102   1.046   2.730  2.3054  0.4666 -2.5444
  276SOL    HW2  828   2.169   0.954   2.862  0.1448  0.3013  0.7921
  277SOL     OW  829   3.066   0.800   0.277 -0.1976 -0.2757  0.3873
  277SOL    HW1  830   3.147   0.865   0.290 -0.5600 -0.6328  0.4683
  277SOL    HW2  831   3.075   0.712   0.334 -1.3537  1.2486  0.7671
  278SOL     OW  832   0.226   0.241   2.965 -0.0715  0.0922  0.2315
  278SOL    HW1  833   0.315   0.202   2.925  0.0097  1.0028  1.9208
  278SOL    HW2  834   0.248   0.314   3.030 -0.0156  0.6312  0.9509
  279SOL     OW  835   0.271   0.060   0.926 -0.3241  0.0678  0.0072
  279SOL    HW1  836   0.308   0.044   1.020  1.4599  3.7823 -2.8265
  279SOL    HW2  837   0.335   0.028   0.847 -0.1817 -3.3477 -0.8543
  280SOL     OW  838   1.614   2.945   2.411  0.2451 -0.5012  0.2425
  280SOL    HW1  839   1.677   3.000   2.481 -1.5429  2.1574  0.7550
  280SOL    HW2  840   1.546   3.011   2.367 -1.4734  2.5375  0.1932
  281SOL     OW  841   0.557   0.953   2.272 -0.5306 -0.3567 -0.2295
  281SOL    HW1  842   0.552   0.862   2.221  2.7640  0.9347  0.2565
  281SOL    HW2  843   0.542   0.945   2.373 -2.6704 -1.3514 -0.5836
  282SOL     OW  844   1.790   2.472   0.531 -0.2960 -0.1818  0.5918
  282SOL    HW1  845   1.742   2.398   0.478  0.1495 -0.6022  1.5735
  282SOL    HW2  846   1.749   2.570   0.517  0.9205  1.1626 -1.6241
  283SOL     OW  847   1.129   0.933   0.762 -0.2179 -0.5585  0.2264
  283SOL    HW1  848   1.161   0.882   0.848 -0.0837 -2.0305 -1.0508
  283SOL    HW2  849   1.101   1.034   0.782 -0.0834  0.0267 -1.4086
  284SOL     OW  850   2.246   2.832   2.485  0.4321  0.0904 -0.8120
  284SOL    HW1  851   2.345   2.848   2.475 -2.8074 -0.4405  1.8810
  284SOL    HW2  852   2.216   2.852   2.586  1.3973 -1.7856  1.6896
  285SOL     OW  853   1.386   0.026   2.576  0.0354  0.2256  0.3641
  285SOL    HW1  854   1.413   0.038   2.480 -0.0467 -1.4929  1.7087
  285SOL    HW2  855   1.282   0.012   2.579 -0.4711  0.1342 -3.3338
  286SOL     OW  856   0.452   0.435   0.759 -0.3067  0.3011 -0.8168
  286SOL    HW1  857   0.442   0.373   0.842  0.1779  0.1555  1.7660
  286SOL    HW2  858   0.474   0.380   0.673  0.6618  4.4862 -2.4224
  287SOL     OW  859   0.082   1.313   2.656  0.2928  0.4185  0.8678
  287SOL    HW1  860   0.003   1.245   2.649 -0.0287  0.3595 -1.1059
  287SOL    HW2  861   0.102   1.327   2.761  0.4237 -1.6411  1.9997
  288SOL     OW  862   1.547   2.738   1.634 -0.6569 -0.2306  0.1430
  288SOL    HW1  863   1.587   2.672   1.703 -0.0551  3.4210 -2.4054
  288SOL    HW2  864   1.576   2.707   1.539 -0.4160  0.1737 -0.3051
  289SOL     OW  865   0.611   2.728   0.861  0.7196  0.9186 -0.1431
  289SOL    HW1  866   0.665   2.792   0.805 -0.5530  0.1016  1.9662
  289SOL    HW2  867   0.572   2.785   0.942 -2.1388 -0.8478  0.0197
  290SOL     OW  868   2.799   1.129   1.740  0.1738 -0.0394  0.1859
  290SOL    HW1  869   2.718   1.059   1.752  0.0962 -3.2102 -0.9640
  290SOL    HW2  870   2.887   1.112   1.794 -1.1499 -0.8091 -0.2566
  291SOL     OW  871   1.948  -0.003   0.052  0.0595  0.5035  0.4251
  291SOL    HW1  872   1.948   0.066   0.128 -2.8717 -0.4538  2.1095
  291SOL    HW2  873   2.015   0.016  -0.026 -3.4980 -0.4242 -1.1715
  292SOL     OW  874   3.024   1.211   3.079 -0.2090 -0.3158 -0.3429
  292SOL    HW1  875   2.933   1.255   3.077  1.4357 -3.8510 -0.7657
  292SOL    HW2  876   3.070   1.220   2.991 -1.7607 -2.0821 -0.0353
  293SOL     OW  877   0.582   2.113   0.282 -0.5361 -0.2746  0.1618
  293SOL    HW1  878   0.534   2.176   0.349 -2.1651  0.4738  0.7371
  293SOL    HW2  879   0.683   2.091   0.302 -1.2192 -0.6361 -0.2516
  294SOL     OW  880   1.847   2.352   1.809  0.0631  0.6432 -0.8556
  294SOL    HW1  881   1.881   2.328   1.910  0.0273  1.3381 -0.0697
  294SOL    HW2  882   1.804   2.449   1.808 -0.6328  2.2572 -2.6532
  295SOL     OW  883   0.991   1.078   0.456  0.2644 -0.4025 -0.0874
  295SOL    HW1  884   1.093   1.057   0.459  3.5274  3.2481  1.0868
  295SOL    HW2  885   0.937   1.046   0.541  0.4798  0.0011 -1.3855
  296SOL     OW  886   1.166   2.131   2.736 -0.5327  0.1081 -0.2305
  296SOL    HW1  887   1.072   2.143   2.769  0.3111 -1.6408 -2.4426
  296SOL    HW2  888   1.178   2.088   2.645 -0.5870  0.3959  1.0573
  297SOL     OW  889   1.348   0.563   1.278 -0.1400 -0.1700 -0.6296
  297SOL    HW1  890   1.396   0.482   1.325 -2.1477  1.6366 -1.1988
  297SOL    HW2  891   1.414   0.636   1.251 -2.5645 -0.2883 -0.1492
  298SOL     OW  892   0.520   1.344   2.974 -0.0836 -0.2331 -0.3153
  298SOL    HW1  893   0.481   1.279   3.048 -2.3671 -0.6271 -0.1803
  298SOL    HW2  894   0.624   1.335   2.963  0.7929 -0.5638 -1.6770
  299SOL     OW  895   0.411   0.241   1.312 -0.2085 -0.8256 -0.3075
  299SOL    HW1  896   0.356   0.328   1.289  0.6201  1.0816  3.0565
  299SOL    HW2  897   0.433   0.225   1.413  1.4225 -1.8091 -3.2031
  300SOL     OW  898   1.269   1.735   2.576  0.0630  0.5932  0.2314
  300SOL    HW1  899   1.240   1.645   2.525 -2.5429 -0.2759 -0.0534
  300SOL    HW2  900   1.371   1.753   2.571  1.8539  0.2039 -3.6171
  301SOL     OW  901   0.413   0.314   0.521  0.0802  0.9490 -0.1587
  301SOL    HW1  902   0.322   0.288   0.554  1.2886  2.9419  1.6048
  301SOL    HW2  903   0.455   0.242   0.468  0.6883 -0.2040  1.5568
  302SOL     OW  904   1.265   2.472   2.259  0.2814 -0.0956 -0.6902
  302SOL    HW1  905   1.162   2.472   2.267 -0.4584  1.7836  0.9513
  302SOL    HW2  906   1.308   2.404   2.326 -2.5290 -1.1116 -0.6427
  303SOL     OW  907   0.941   2.395   0.795  0.1619 -0.2638  0.1301
  303SOL    HW1  908   1.011   2.412   0.718  2.0244  1.4656  2.8366
  303SOL    HW2  909   0.956   2.438   0.887 -0.1623  0.3858  0.5554
  304SOL     OW  910   0.089   1.889   0.678  0.0065 -0.1285 -0.0658
  304SOL    HW1  911   0.134   1.864   0.591  0.8062 -0.2698 -2.0882
  304SOL    HW2  912   0.044   1.981   0.671  5.6475 -0.9481  2.1324
  305SOL     OW  913   1.578   0.874   0.687  0.0637  0.1428  0.8261
  305SOL    HW1  914   1.543   0.876   0.593  0.6428 -2.0892 -0.8297
  305SOL    HW2  915   1.607   0.774   0.706 -3.7737 -4.0262 -1.2456
  306SOL     OW  916   0.434   1.931   1.910  0.3736 -0.1600 -0.2647
  306SOL    HW1  917   0.508   1.867   1.881  0.6763 -0.1027 -2.1087
  306SOL    HW2  918   0.432   1.950   2.010  3.4331  0.3094 -0.2654
  307SOL     OW  919   3.072   0.888   2.469  0.0803 -0.1458 -0.1489
  307SOL    HW1  920   3.088   0.954   2.549  0.4673  0.6807 -0.8790
  307SOL    HW2  921   3.019   0.802   2.493  0.2762  0.5083 -0.3164
  308SOL     OW  922   1.521   2.688   2.789 -0.9543  0.0693 -0.5544
  308SOL    HW1  923   1.489   2.656   2.699  0.3335 -2.2653 -0.1495
  308SOL    HW2  924   1.502   2.616   2.863 -0.6776  1.1417 -0.5099
  309SOL     OW  925   1.232   0.148   1.786  0.0089 -0.4744 -0.1939
  309SOL    HW1  926   1.332   0.127   1.809  0.7353  0.6246 -0.4782
  309SOL    HW2  927   1.221   0.179   1.684 -0.8608  1.2753 -0.9617
  310SOL     OW  928   1.480   2.599   0.677 -0.3293  0.1441 -0.2432
  310SOL    HW1  929   1.445   2.633   0.773 -0.8164  0.4401  1.8463
  310SOL    HW2  930   1.526   2.671   0.628  0.1219  1.8724  0.8042
  311SOL     OW  931   1.143   0.982   1.775 -0.8539 -0.2245  0.3607
  311SOL    HW1  932   1.127   0.892   1.825 -1.9595 -1.9351  0.5601
  311SOL    HW2  933   1.158   0.970   1.671 -0.8064 -1.1809 -1.4577
  312SOL     OW  934   1.532   0.673   1.089 -0.1464 -0.1732 -0.4725
  312SOL    HW1  935   1.605   0.735   1.059 -0.3508 -0.3927  0.8021
  312SOL    HW2  936   1.469   0.638   1.015 -2.1498  3.6993 -0.2819
  313SOL     OW  937   1.642   1.315   0.737 -0.0916 -0.3829 -0.0925
  313SOL    HW1  938   1.542   1.321   0.772  0.8929 -1.1219  0.5465
  313SOL    HW2  939   1.659   1.257   0.649  1.1219 -1.5740 -2.9099
  314SOL     OW  940   2.980   3.099   3.080  0.2841 -0.2122  0.0374
  314SOL    HW1  941   3.006   3.081   3.176  0.9626 -0.4049  2.0683
  314SOL    HW2  942   2.892   3.049   3.063 -0.9191  1.4380  1.9804
  315SOL     OW  943   1.162   0.218   2.760  0.3427 -0.7416  0.2727
  315SOL    HW1  944   1.172   0.155   2.679 -1.9545  0.8172  1.9026
  315SOL    HW2  945   1.109   0.174   2.836 -0.6837 -1.7081  0.1780
  316SOL     OW  946   1.694   2.090   0.892 -0.5413  0.0055 -0.4981
  316SOL    HW1  947   1.663   2.096   0.989 -1.3482 -2.0278 -3.8389
  316SOL    HW2  948   1.724   2.183   0.857  1.3804  0.8905 -0.9687
  317SOL     OW  949   1.167   0.665   2.762  0.5736  0.7941 -0.3890
  317SOL    HW1  950   1.116   0.722   2.828  0.0337  1.4190  0.5337
  317SOL    HW2  951   1.109   0.587   2.720  1.1126 -0.5781  1.2671
  318SOL     OW  952   1.405   3.082   2.247 -0.2683 -0.6736  0.2615
  318SOL    HW1  953   1.402   3.186   2.248  1.9446  1.2695  1.5441
  318SOL    HW2  954   1.431   3.039   2.156 -0.4417 -1.7695 -1.0008
  319SOL     OW  955   0.667   2.366   2.936  0.0184  0.6846  0.4831
  319SOL    HW1  956   0.635   2.296   3.007 -0.4717  0.5452 -1.6383
  319SOL    HW2  957   0.726   2.313   2.869 -2.3227  1.2797  0.4647
  320SOL     OW  958   1.702   2.247   0.386  0.4057 -0.1590 -0.4150
  320SOL    HW1  959   1.771   2.184   0.354  1.9177  0.2955 -0.9093
  320SOL    HW2  960   1.617   2.207   0.422  1.7702  1.5253 -0.4870
  321SOL     OW  961   1.679   2.784   0.536 -0.3714  0.1393 -0.3083
  321SOL    HW1  962   1.630   2.856   0.482  2.8344 -2.0459  0.9010
  321SOL    HW2  963   1.780   2.769   0.512 -0.2386 -0.4172 -1.2125
  322SOL     OW  964   2.593   1.120   2.307 -0.5538 -0.5270  0.3115
  322SOL    HW1  965   2.664   1.125   2.381 -2.2411 -1.4948 -0.7528
  322SOL    HW2  966   2.527   1.036   2.303 -1.5555 -0.3138 -1.9560
  323SOL     OW  967   1.182   2.691   0.809  0.3513 -0.2560  0.1882
  323SOL    HW1  968   1.162   2.647   0.717  0.1397  1.3585  0.6659
  323SOL    HW2  969   1.152   2.797   0.821 -3.4871  1.6876 -1.7015
  324SOL     OW  970   0.220   2.529   2.426  0.4527 -0.1605 -0.2522
  324SOL    HW1  971   0.136   2.506   2.484 -0.0003  0.0138  0.4381
  324SOL    HW2  972   0.267   2.609   2.463 -2.1000  0.1026  1.2240
  325SOL     OW  973   1.210   3.009   0.456  0.4180 -0.0197  0.0150
  325SOL    HW1  974   1.222   3.042   0.360  1.9711 -3.5026 -0.6793
  325SOL    HW2  975   1.233   3.080   0.525 -0.1934 -2.1141  0.2296
  326SOL     OW  976   2.488   0.763   3.083  0.2159  0.0130 -0.0421
  326SOL    HW1  977   2.417   0.691   3.055  3.4608 -0.7313  0.7866
  326SOL    HW2  978   2.569   0.716   3.138  1.6748 -1.4534  2.1109
  327SOL     OW  979   2.809   0.286   0.507  0.1807  0.0448 -0.0532
  327SOL    HW1  980   2.791   0.257   0.414  2.0682  0.0267  3.7011
  327SOL    HW2  981   2.784   0.215   0.576 -0.5897  0.4551 -2.7716
  328SOL     OW  982   2.571   0.655   0.414 -0.3280  0.0780 -0.4216
  328SOL    HW1  983   2.662   0.685   0.455 -2.2881  2.5605  2.7757
  328SOL    HW2  984   2.507   0.626   0.491 -1.5831  0.5120 -2.1445
  329SOL     OW  985   2.937   3.011   2.115  0.0585  0.1514  0.5795
  329SOL    HW1  986   3.010   2.951   2.159  1.7862 -0.8848 -4.3780
  329SOL    HW2  987   2.961   3.112   2.128  0.4513  2.0519  2.3832
  330SOL     OW  988   0.577   0.230   1.912 -0.4481  0.2048 -0.1877
  330SOL    HW1  989   0.669   0.217   1.868 -3.5277  0.9947 -0.0283
  330SOL    HW2  990   0.572   0.169   1.995 -0.6612  0.3202 -0.2394
  331SOL     OW  991   3.013   1.885   1.113 -0.3881 -0.0755  0.1420
  331SOL    HW1  992   2.964   1.923   1.029 -1.5858 -0.2710 -0.7002
  331SOL    HW2  993   2.942   1.840   1.170 -0.0742 -1.1079  0.0398
  332SOL     OW  994   0.418   1.177   0.063 -0.5156  0.0498  0.2250
  332SOL    HW1  995   0.359   1.095   0.030 -1.5849  1.1152  1.6966
  332SOL    HW2  996   0.382   1.226   0.150 -1.3039  1.6949 -1.1311
  333SOL     OW  997   2.891   0.986   0.357  0.0077  0.2680 -0.5523
  333SOL    HW1  998   2.942   1.047   0.429 -3.9525 -0.4277 -1.5844
  333SOL    HW2  999   2.946   0.919   0.304 -3.2749 -1.8709 -0.1570
  334SOL     OW 1000   1.716   1.219   1.770  0.5086 -0.2314 -0.7093
  334SOL    HW1 1001   1.752   1.200   1.670  2.8563 -0.7946 -1.8026
  334SOL    HW2 1002   1.782   1.209   1.849  0.2918 -2.1756  0.6603
  335SOL     OW 1003   1.942   2.773   2.615 -0.2736  0.7221 -0.0916
  335SOL    HW1 1004   1.878   2.751   2.691  0.8224  1.6977 -1.8507
  335SOL    HW2 1005   2.020   2.829   2.648 -3.0363  3.1137 -0.5556
  336SOL     OW 1006   0.259   3.095   2.720 -0.3508 -0.0268 -0.2636
  336SOL    HW1 1007   0.334   3.128   2.784 -0.9656 -1.4544  0.7133
  336SOL    HW2 1008   0.210   3.015   2.759 -0.7811 -3.5590 -1.9981
  337SOL     OW 1009   0.926   2.900   2.963  0.6541 -0.2757 -0.0925
  337SOL    HW1 1010   0.933   2.813   3.014 -0.0117  3.8012 -1.8561
  337SOL    HW2 1011   1.022   2.949   2.948 -0.7502  0.6174 -1.2980
  338SOL     OW 1012   0.024   0.950   0.660  0.0262 -0.3404 -0.0944
  338SOL    HW1 1013  -0.071   0.937   0.704  2.5443 -0.0428  2.6324
  338SOL    HW2 1014   0.052   1.049   0.670 -0.0606  0.0712 -0.4279
  339SOL     OW 1015   1.648   1.353   2.157 -0.0660 -0.1985 -0.1716
  339SOL    HW1 1016   1.576   1.408   2.110  0.5980  1.2651  2.2754
  339SOL    HW2 1017   1.626   1.366   2.254  0.2215  0.2800 -1.5414
  340SOL     OW 1018   2.244   0.803   1.156 -0.4225  0.1296 -0.4014
  340SOL    HW1 1019   2.155   0.840   1.187  0.2833 -1.4292 -1.3883
  340SOL    HW2 1020   2.234   0.723   1.087 -0.7048 -1.9945  0.9620
  341SOL     OW 1021   1.890   2.053   0.373 -0.0248 -0.5785  1.0874
  341SOL    HW1 1022   1.927   2.093   0.287 -2.5022  0.3393  3.0050
  341SOL    HW2 1023   1.967   2.031   0.440  2.1623 -0.6078 -2.0650
  342SOL     OW 1024   2.147   2.100   2.728 -0.2760  0.2754 -0.3177
  342SOL    HW1 1025   2.203   2.015   2.745 -0.7777  2.9243 -0.7535
  342SOL    HW2 1026   2.054   2.080   2.688  0.9200 -0.7623 -1.4798
  343SOL     OW 1027   0.407   0.778   2.746 -0.2335 -0.2279  0.1273
  343SOL    HW1 1028   0.420   0.833   2.657 -0.7880  1.5263 -0.5516
  343SOL    HW2 1029   0.492   0.779   2.806 -0.6488  2.6093 -1.3178
  344SOL     OW 1030   1.922   1.485   0.411  0.0956  0.0514 -0.1127
  344SOL    HW1 1031   1.903   1.418   0.334  1.2751  0.3540 -2.5677
  344SOL    HW2 1032   1.838   1.527   0.451  0.2881 -1.6501  1.0469
  345SOL     OW 1033   1.404   2.233   2.865  0.1467 -0.5453 -0.1813
  345SOL    HW1 1034   1.340   2.210   2.782 -0.2266  0.8750  0.2918
  345SOL    HW2 1035   1.490   2.178   2.860 -0.1671  1.5509 -0.7861
  346SOL     OW 1036   2.343   0.906   1.404 -0.1720  0.0993  0.1549
  346SOL    HW1 1037   2.303   1.001   1.436 -0.6383  0.9324  0.4701
  346SOL    HW2 1038   2.293   0.864   1.320 -0.0522 -0.4937  0.4251
  347SOL     OW 1039   0.708   2.739   1.655  0.4724  0.1985  0.2191
  347SOL    HW1 1040   0.640   2.740   1.731  1.3949  0.4787 -0.7874
  347SOL    HW2 1041   0.669   2.784   1.567  1.7359  1.7047 -0.1617
  348SOL     OW 1042   0.170   0.795   2.891 -0.1810 -0.1601  0.4923
  348SOL    HW1 1043   0.080   0.757   2.850  1.6322 -0.0915  1.5933
  348SOL    HW2 1044   0.249   0.790   2.820  0.4946 -0.6108  0.8921
  349SOL     OW 1045   1.854   0.449   2.811  0.1872 -0.2295  0.0728
  349SOL    HW1 1046   1.812   0.519   2.748 -1.3661  1.3541 -0.8077
  349SOL    HW2 1047   1.828   0.469   2.909  0.0382  0.1679 -0.7299
  350SOL     OW 1048   1.701   0.361   0.364 -0.1270  0.2722  0.1671
  350SOL    HW1 1049   1.763   0.375   0.442 -1.3011  1.8806 -0.5994
  350SOL    HW2 1050   1.680   0.451   0.317 -0.2468  0.1024 -2.1893
  351SOL     OW 1051   0.908   0.820   2.063 -0.5265 -0.0236  0.4306
  351SOL    HW1 1052   0.953   0.913   2.075 -1.3116 -0.9969  2.6997
  351SOL    HW2 1053   0.955   0.769   1.982 -0.0152 -0.2229 -4.7956
  352SOL     OW 1054   2.054   1.345   0.605  0.6174 -0.0853  0.5975
  352SOL    HW1 1055   1.990   1.398   0.539  0.3022  0.3573  0.3097
  352SOL    HW2 1056   1.993   1.297   0.675 -3.2100 -0.1965 -0.4459
  353SOL     OW 1057   2.187   2.801   1.103  0.2899 -0.6535  0.5179
  353SOL    HW1 1058   2.240   2.734   1.155 -1.7646 -1.7247  1.3975
  353SOL    HW2 1059   2.125   2.854   1.162  0.3935 -0.2767 -0.2578
  354SOL     OW 1060   0.248   1.434   2.864 -0.6469  0.0695 -0.1401
  354SOL    HW1 1061   0.230   1.504   2.788 -1.2961  0.0962  1.7181
  354SOL    HW2 1062   0.346   1.432   2.893 -2.6803 -1.1861  0.2716
  355SOL     OW 1063   0.728   1.577   0.583 -0.6250 -0.2982 -0.3882
  355SOL    HW1 1064   0.707   1.502   0.654  0.1366  1.3077  0.2879
  355SOL    HW2 1065   0.700   1.540   0.487 -2.5194 -1.7067 -0.0224
  356SOL     OW 1066   0.890   0.279   2.031  0.3761 -0.0127  0.1747
  356SOL    HW1 1067   0.991   0.257   2.057  1.5523 -1.2611 -0.7011
  356SOL    HW2 1068   0.871   0.248   1.935 -2.3827 -0.2445 -1.3815
  357SOL     OW 1069   1.006   1.323   0.338  0.2500  0.3621 -0.8054
  357SOL    HW1 1070   1.070   1.303   0.259 -1.3247 -1.3482  1.4319
  357SOL    HW2 1071   1.008   1.243   0.401 -0.9578 -0.4892 -4.0397
  358SOL     OW 1072   1.647   1.515   0.529  0.1475 -0.7746  0.2968
  358SOL    HW1 1073   1.616   1.464   0.613  1.3434  0.5271  0.5989
  358SOL    HW2 1074   1.616   1.484   0.434  4.3770  1.6666  0.4370
  359SOL     OW 1075   1.615   2.588   0.313 -0.3678 -0.1095 -0.1612
  359SOL    HW1 1076   1.553   2.517   0.277 -1.5298  2.3986  1.0724
  359SOL    HW2 1077   1.569   2.663   0.365  3.7795  0.6996  0.1337
  360SOL     OW 1078   0.788   0.500   0.580  0.1501 -0.3408  0.1631
  360SOL    HW1 1079   0.687   0.508   0.565  0.3602 -0.7952 -2.1541
  360SOL    HW2 1080   0.814   0.397   0.595 -2.5493 -2.0902 -0.2213
  361SOL     OW 1081   1.365   1.294   0.619  0.5992  0.2872 -0.2629
  361SOL    HW1 1082   1.365   1.272   0.720  1.7454  3.0570  1.2774
  361SOL    HW2 1083   1.286   1.362   0.597  1.3622 -0.9940 -0.4203
  362SOL     OW 1084   1.386   1.796   0.707  0.5162  0.5877 -0.0126
  362SOL    HW1 1085   1.380   1.722   0.780 -1.1751  0.3874 -1.3585
  362SOL    HW2 1086   1.483   1.827   0.690  0.0441  2.3560  2.6408
  363SOL     OW 1087   1.264   1.303   2.079  0.1515 -0.1121  0.3857
  363SOL    HW1 1088   1.336   1.375   2.061  1.4853  0.9797 -1.4253
  363SOL    HW2 1089   1.171   1.346   2.094 -1.3104  1.0568  1.5903
  364SOL     OW 1090   0.553   2.350   2.065 -0.2277  0.3139  0.3942
  364SOL    HW1 1091   0.450   2.354   2.062 -0.0347 -0.9809 -0.5232
  364SOL    HW2 1092   0.589   2.387   1.974  1.1339 -1.8098 -1.0514
  365SOL     OW 1093   1.005   1.956   1.364 -0.4796 -0.5256  0.3038
  365SOL    HW1 1094   0.907   1.954   1.398  0.3234 -2.7397 -0.6653
  365SOL    HW2 1095   1.023   2.008   1.276 -2.1500 -2.9881  1.0478
  366SOL     OW 1096   2.840   1.974   0.316 -0.5120 -0.0716 -0.0483
  366SOL    HW1 1097   2.806   1.915   0.396  2.6719  0.4707 -0.6688
  366SOL    HW2 1098   2.901   1.915   0.256  0.7385  1.2266 -1.8844
  367SOL     OW 1099   0.894   1.204   0.041 -0.2637  0.3156  0.0466
  367SOL    HW1 1100   0.881   1.105   0.080  0.0567  0.8289  0.9295
  367SOL    HW2 1101   0.989   1.230   0.005  1.6364  1.8254  1.4204
  368SOL     OW 1102   1.486   0.575   0.570 -0.1005  0.3431  0.0744
  368SOL    HW1 1103   1.390   0.610   0.559  0.0494 -2.7636  2.2147
  368SOL    HW2 1104   1.546   0.595   0.487  0.3878 -2.3881  1.2999
  369SOL     OW 1105   0.397   1.714   0.148 -0.2709 -0.3432 -0.3943
  369SOL    HW1 1106   0.438   1.764   0.230 -1.4853  1.6454  0.0869
  369SOL    HW2 1107   0.306   1.678   0.171  0.8271  0.8612  1.6448
  370SOL     OW 1108   0.383   2.160   1.061  0.1679  0.9711  0.6788
  370SOL    HW1 1109   0.399   2.261   1.054 -0.2364  1.3847 -2.0352
  370SOL    HW2 1110   0.312   2.116   0.994 -0.1611 -2.3163 -0.5021
  371SOL     OW 1111   2.890   2.245   2.658  0.0370  0.1336  0.0844
  371SOL    HW1 1112   2.807   2.190   2.688  2.1604  0.3684  3.9074
  371SOL    HW2 1113   2.924   2.318   2.727  1.2657  2.1430 -2.0989
  372SOL     OW 1114   1.083   2.140   1.134 -0.3472  0.7270  0.7250
  372SOL    HW1 1115   1.011   2.171   1.066  0.6045  1.6821 -0.2689
  372SOL    HW2 1116   1.166   2.203   1.145  1.1590 -0.6034 -1.3133
  373SOL     OW 1117   1.905   1.937   0.989 -0.2368 -0.1641  0.0722
  373SOL    HW1 1118   2.004   1.969   0.997  0.3404  0.4962 -0.7255
  373SOL    HW2 1119   1.861   2.001   0.917  1.4980  3.6022 -1.2033
  374SOL     OW 1120   1.870   0.430   0.566  0.3861  0.2681 -0.1843
  374SOL    HW1 1121   1.853   0.386   0.655 -3.7470  0.5641 -0.3457
  374SOL    HW2 1122   1.959   0.393   0.516  2.2212  1.2864 -1.7599
  375SOL     OW 1123   2.412   2.197   1.104  0.1501  0.3936 -0.4781
  375SOL    HW1 1124   2.444   2.266   1.037 -0.4642 -0.4676  0.4082
  375SOL    HW2 1125   2.468   2.205   1.190 -0.1810  1.6283  0.4402
  376SOL     OW 1126   3.094   0.598   1.417  1.0014  0.9495  0.3928
  376SOL    HW1 1127   3.096   0.622   1.518  1.1959  0.6512 -2.7557
  376SOL    HW2 1128   2.994   0.601   1.387 -2.2458  1.3632  2.1557
  377SOL     OW 1129   2.158   2.874   0.297 -0.1194 -0.3679 -0.0092
  377SOL    HW1 1130   2.148   2.966   0.342  1.4396 -1.8123  0.5648
  377SOL    HW2 1131   2.258   2.848   0.290 -1.0479 -3.0513 -0.5891
  378SOL     OW 1132   1.797   1.885   2.471  0.7561  0.4251 -0.7850
  378SOL    HW1 1133   1.858   1.910   2.389 -0.4198  1.8120  0.4309
  378SOL    HW2 1134   1.755   1.789   2.456  0.0792  0.7617  1.2571
  379SOL     OW 1135   0.744   0.186   2.820 -0.0352  0.9471  0.4706
  379SOL    HW1 1136   0.804   0.109   2.790 -0.5926  1.9234  0.7014
  379SOL    HW2 1137   0.728   0.245   2.733  0.8476 -0.9659 -1.8723
  380SOL     OW 1138   1.575   1.145   0.539  0.0369  0.3348 -0.3787
  380SOL    HW1 1139   1.500   1.211   0.566  1.5407  0.9142  1.3621
  380SOL    HW2 1140   1.540   1.055   0.502  0.1721 -3.1558  0.3818
  381SOL     OW 1141   1.335   1.230   1.596 -0.4792 -0.4477 -0.1824
  381SOL    HW1 1142   1.371   1.167   1.522  0.2071  0.5582 -2.5499
  381SOL    HW2 1143   1.407   1.290   1.640 -1.5695 -2.0219 -2.3059
  382SOL     OW 1144   1.815   0.865   0.230 -0.0507 -0.4087  0.1836
  382SOL    HW1 1145   1.844   0.846   0.133 -0.0338  3.2281 -0.5151
  382SOL    HW2 1146   1.888   0.841   0.301 -1.6348 -1.4799  0.7702
  383SOL     OW 1147   2.585   1.005   1.489 -0.1512  0.3660 -0.0992
  383SOL    HW1 1148   2.500   0.956   1.462 -1.5217  0.2557 -0.8087
  383SOL    HW2 1149   2.652   1.005   1.413 -2.8686  1.7195  1.5730
  384SOL     OW 1150   0.841   2.244   0.152  0.0311  0.2414 -0.2256
  384SOL    HW1 1151   0.835   2.344   0.176  0.9706  0.6113  0.5205
  384SOL    HW2 1152   0.855   2.184   0.236 -0.0691  0.9718 -1.3520
  385SOL     OW 1153   2.953   2.026   1.674 -0.0783  0.4832  0.2732
  385SOL    HW1 1154   3.016   2.107   1.646 -0.2611 -0.3899  1.4619
  385SOL    HW2 1155   2.997   1.929   1.668  2.4452 -0.4322 -2.5917
  386SOL     OW 1156   0.492   1.049   0.470  0.1593 -0.4245  0.1339
  386SOL    HW1 1157   0.460   0.958   0.504 -2.6445  1.0067  1.1979
  386SOL    HW2 1158   0.413   1.110   0.433  1.1493 -1.1478  0.9434
  387SOL     OW 1159   0.918   0.348   1.695  0.3303  0.1469  0.6839
  387SOL    HW1 1160   0.895   0.448   1.705  2.5616 -1.7811  0.6061
  387SOL    HW2 1161   0.934   0.329   1.593 -0.8485 -0.8517 -0.1590
  388SOL     OW 1162   1.191   2.731   1.754 -0.0851  0.0126  0.5863
  388SOL    HW1 1163   1.204   2.740   1.649  0.0622 -0.4477  1.9705
  388SOL    HW2 1164   1.268   2.673   1.797  0.2882  0.8767 -0.2052
  389SOL     OW 1165   0.143   2.943   1.354  0.2007 -0.2489  0.7833
  389SOL    HW1 1166   0.056   2.954   1.299  1.4274  0.6945  0.8697
  389SOL    HW2 1167   0.167   2.838   1.359 -1.9800 -2.7300  1.7269
  390SOL     OW 1168   1.053   0.966   1.348 -0.4836  0.1072  0.5381
  390SOL    HW1 1169   1.135   0.948   1.407 -1.0376 -1.1987  0.0727
  390SOL    HW2 1170   1.033   1.070   1.337  0.4062  1.5723  0.2396
  391SOL     OW 1171   2.175   1.132   1.093 -0.2611  0.5316  0.1945
  391SOL    HW1 1172   2.121   1.050   1.120  1.9073  3.0673  1.5581
  391SOL    HW2 1173   2.252   1.107   1.023 -0.1907  0.0079  0.4463
  392SOL     OW 1174   0.913   2.643   3.052  0.0399  0.0725  0.6209
  392SOL    HW1 1175   0.993   2.575   3.042  0.2778  1.0843 -0.1650
  392SOL    HW2 1176   0.860   2.633   3.135 -1.8890  0.0434 -0.0206
  393SOL     OW 1177   0.331   0.558   1.971 -0.4097  0.8554  0.1828
  393SOL    HW1 1178   0.271   0.479   1.980  1.1810  1.1854  2.2464
  393SOL    HW2 1179   0.411   0.548   1.898  0.5092  0.5786 -1.3465
  394SOL     OW 1180   3.012   1.935   2.819  0.6328  0.1205  0.4088
  394SOL    HW1 1181   3.105   1.948   2.856 -1.3989 -0.2161  0.2315
  394SOL    HW2 1182   3.002   1.950   2.714  0.9133  0.7015 -2.3948
  395SOL     OW 1183   1.604   1.956   0.655  0.0924  0.0343  0.0544
  395SOL    HW1 1184   1.662   1.879   0.613  0.8844 -0.8307  0.3141
  395SOL    HW2 1185   1.642   1.997   0.742 -1.3319  0.1967  2.3058
  396SOL     OW 1186   2.813   1.794   1.298  0.0882  0.0057 -0.1360
  396SOL    HW1 1187   2.779   1.698   1.305 -0.0020 -0.7075  3.8017
  396SOL    HW2 1188   2.772   1.861   1.366  1.7761 -0.3349  0.8874
  397SOL     OW 1189   1.020   2.234   0.507 -0.4206 -0.0800  0.1455
  397SOL    HW1 1190   0.922   2.207   0.530  0.9247 -1.1092  0.6286
  397SOL    HW2 1191   1.051   2.325   0.552  0.4594  0.4637  2.6682
  398SOL     OW 1192   2.151   3.096   1.022 -0.0174 -0.3748  0.3258
  398SOL    HW1 1193   2.099   3.031   1.081  0.9074 -0.0360 -0.1565
  398SOL    HW2 1194   2.095   3.185   1.010  1.1346  1.1795  1.9974
  399SOL     OW 1195   3.078   2.457   2.573 -0.4974  0.3465  0.0547
  399SOL    HW1 1196   2.984   2.421   2.556  0.2436  2.4985  0.7396
  399SOL    HW2 1197   3.136   2.386   2.628 -0.0858 -1.1807  1.8345
  400SOL     OW 1198   0.774   1.642   1.371 -0.8147  0.0228 -0.5163
  400SOL    HW1 1199   0.705   1.689   1.427  1.3849  0.9502 -2.3007
  400SOL    HW2 1200   0.761   1.663   1.270 -0.8762  0.3778 -0.7368
  401SOL     OW 1201   1.865   0.107   1.225 -0.2079  0.2378 -1.0372
  401SOL    HW1 1202   1.908   0.114   1.319  1.1564  0.0987 -0.6499
  401SOL    HW2 1203   1.766   0.130   1.235 -2.1838 -1.5539 -2.8827
  402SOL     OW 1204   1.296   0.120   3.053 -0.1574 -0.2668 -0.3406
  402SOL    HW1 1205   1.386   0.090   3.016 -1.1767 -0.0251 -0.7971
  402SOL    HW2 1206   1.285   0.220   3.040  2.6379 -1.0574 -2.6338
  403SOL     OW 1207   2.285   1.786   0.926  0.1576 -0.3006 -0.0457
  403SOL    HW1 1208   2.385   1.791   0.928 -1.6866  1.3910 -1.6482
  403SOL    HW2 1209   2.245   1.859   0.988 -0.0407 -0.7458 -1.7942
  404SOL     OW 1210   0.205   2.489   2.836  0.1619 -0.4594  0.1757
  404SOL    HW1 1211   0.297   2.479   2.793  1.7996  0.9704 -2.2229
  404SOL    HW2 1212   0.165   2.582   2.822  1.3838  0.8034  1.5548
  405SOL     OW 1213   0.090   2.479   0.703  0.0039 -0.0167  0.6132
  405SOL    HW1 1214   0.100   2.384   0.656 -4.2272 -2.2514  0.2455
  405SOL    HW2 1215   0.173   2.540   0.681 -1.8928  1.6215 -0.7823
  406SOL     OW 1216   0.060   1.534   3.057  0.0149  0.1434  0.1155
  406SOL    HW1 1217   0.118   1.499   2.975  0.4677  1.2665 -3.2232
  406SOL    HW2 1218   0.118   1.555   3.142 -1.3240  0.9896 -1.2474
  407SOL     OW 1219   1.541   0.958   0.983 -0.0922 -0.2272 -0.5485
  407SOL    HW1 1220   1.524   0.951   0.876  0.4936  2.2645 -2.7203
  407SOL    HW2 1221   1.477   1.024   1.031  1.3862 -2.8834 -2.3932
  408SOL     OW 1222   1.614   2.449   0.951 -0.2848 -0.3141 -0.3968
  408SOL    HW1 1223   1.680   2.399   0.884 -0.4321 -0.7466 -2.0215
  408SOL    HW2 1224   1.574   2.536   0.915  0.9188  1.0911 -0.3737
  409SOL     OW 1225   0.647   0.778   0.763  0.3935 -0.4221  0.1155
  409SOL    HW1 1226   0.583   0.776   0.683  1.7623 -2.4020 -0.2227
  409SOL    HW2 1227   0.660   0.690   0.809 -0.8226  0.1274 -2.2647
  410SOL     OW 1228   1.301   2.060   1.393 -0.0758  0.0342  0.1087
  410SOL    HW1 1229   1.367   1.993   1.442  0.9071  1.9127 -0.6988
  410SOL    HW2 1230   1.213   2.007   1.368 -3.6731 -4.6422  0.2987
  411SOL     OW 1231   2.653   1.839   3.018  0.0920 -0.7428  0.1941
  411SOL    HW1 1232   2.570   1.889   2.989 -1.1969 -2.5552  2.1952
  411SOL    HW2 1233   2.700   1.787   2.942 -0.1528  0.9186 -1.2619
  412SOL     OW 1234   1.527   2.499   2.155  0.6589 -0.2845 -0.1971
  412SOL    HW1 1235   1.546   2.597   2.128 -2.3391  0.9757 -0.3658
  412SOL    HW2 1236   1.426   2.486   2.184 -0.3034  1.4122  3.5960
  413SOL     OW 1237   3.058   0.213   2.943  0.8041 -0.3246 -0.2770
  413SOL    HW1 1238   3.006   0.145   3.003  0.2803  2.2747  2.9943
  413SOL    HW2 1239   3.164   0.201   2.941  2.1953  0.0954  2.0797
  414SOL     OW 1240   1.892   1.551   1.179  0.0475 -0.6104 -0.5048
  414SOL    HW1 1241   1.830   1.634   1.199  1.8451  2.9501 -0.9324
  414SOL    HW2 1242   1.846   1.476   1.132  1.6641  1.2685  0.8982
  415SOL     OW 1243   0.374   2.285   0.759  0.4619  0.8686  0.0755
  415SOL    HW1 1244   0.414   2.368   0.813 -0.6280 -0.6218 -1.7063
  415SOL    HW2 1245   0.281   2.253   0.789  2.4652  3.0943  1.8807
  416SOL     OW 1246   0.361   1.036   1.068 -0.1939 -0.4368  0.6464
  416SOL    HW1 1247   0.316   0.977   0.994  2.0911 -1.3333  3.4137
  416SOL    HW2 1248   0.457   1.065   1.044 -2.7433 -2.2121  0.4318
  417SOL     OW 1249   2.256   2.324   1.986  0.2476  0.3702  0.4962
  417SOL    HW1 1250   2.328   2.265   2.026  1.9789  0.0371 -0.1575
  417SOL    HW2 1251   2.174   2.265   1.962 -0.1158 -0.6999  0.3947
  418SOL     OW 1252   1.074   0.608   1.344  0.0404 -0.0294 -0.0955
  418SOL    HW1 1253   1.019   0.555   1.278 -0.4547  1.6892 -0.1752
  418SOL    HW2 1254   1.177   0.594   1.318  0.7962 -0.3658  4.3593
  419SOL     OW 1255   0.961   0.493   2.946 -0.5720 -0.4467 -0.4394
  419SOL    HW1 1256   0.906   0.457   2.868 -1.2777 -1.0581  1.1826
  419SOL    HW2 1257   0.967   0.592   2.968  1.4125 -1.3000  3.4340
  420SOL     OW 1258   0.087   2.257   0.531  0.0782 -0.1133  0.2536
  420SOL    HW1 1259   0.100   2.247   0.428 -0.1858  1.6245 -0.1958
  420SOL    HW2 1260   0.023   2.184   0.565 -2.6571  1.3800 -0.2903
  421SOL     OW 1261   0.336   2.977   0.625  0.1705  0.0281 -0.1493
  421SOL    HW1 1262   0.314   2.920   0.707 -0.5537 -2.2049 -2.3782
  421SOL    HW2 1263   0.432   3.021   0.629 -0.9012 -0.9622 -0.4532
  422SOL     OW 1264   1.011   2.585   1.030 -0.3265 -0.1068 -0.6973
  422SOL    HW1 1265   1.072   2.610   0.952  0.0462 -0.4511  1.2043
  422SOL    HW2 1266   1.042   2.619   1.123 -0.3953  2.0249  1.1215
  423SOL     OW 1267   0.151   0.734   1.237  0.2157  0.2523 -0.6175
  423SOL    HW1 1268   0.087   0.674   1.290  0.6897  1.7583  1.5709
  423SOL    HW2 1269   0.096   0.803   1.181  0.9650  2.8233 -3.0562
  424SOL     OW 1270   1.096   2.204   2.043  0.9150 -0.1352 -0.2675
  424SOL    HW1 1271   1.083   2.306   2.025  1.4005  1.9650  0.9963
  424SOL    HW2 1272   1.066   2.184   2.141  1.7881 -0.8761  1.2839
  425SOL     OW 1273   1.978   1.301   1.003 -0.5621 -0.2677  0.0269
  425SOL    HW1 1274   2.047   1.237   1.049 -0.5541  2.2255  0.5118
  425SOL    HW2 1275   2.026   1.387   0.973  1.6324 -0.8500  2.2866
  426SOL     OW 1276   1.504   1.591   1.374 -0.5269 -0.1042 -0.1068
  426SOL    HW1 1277   1.495   1.664   1.295 -1.5010  1.4975 -0.6378
  426SOL    HW2 1278   1.424   1.594   1.436  0.2923 -1.6322 -0.3879
  427SOL     OW 1279   1.926   2.326   2.066 -0.2874 -0.1877  0.9660
  427SOL    HW1 1280   1.970   2.257   2.132  0.9024  0.0308  2.0478
  427SOL    HW2 1281   1.947   2.422   2.087 -0.4146  1.6019  1.1188
  428SOL     OW 1282   0.840   3.053   0.149 -0.9304  0.4962 -0.2461
  428SOL    HW1 1283   0.835   3.129   0.081 -2.3091 -1.7458  1.9832
  428SOL    HW2 1284   0.929   2.998   0.147 -2.3701  2.2565 -1.8448
  429SOL     OW 1285   1.318   0.104   0.257 -0.0035  0.2541 -0.4686
  429SOL    HW1 1286   1.420   0.098   0.283 -1.4561  1.6857  2.2444
  429SOL    HW2 1287   1.300   0.092   0.155  0.8756  1.7545  0.8086
  430SOL     OW 1288   2.854   1.406   0.298 -0.1147 -0.6175 -0.0224
  430SOL    HW1 1289   2.910   1.471   0.237 -0.3818  2.2125 -0.2558
  430SOL    HW2 1290   2.851   1.442   0.391  0.5683 -1.7641 -2.7542
  431SOL     OW 1291   2.098   1.530   0.937  0.0229  0.7846  0.5982
  431SOL    HW1 1292   2.193   1.573   0.938 -0.4085 -3.1893 -0.9534
  431SOL    HW2 1293   2.023   1.594   0.909  0.7253  1.4296  0.8128
  432SOL     OW 1294   2.936   2.246   1.151  0.3587 -0.3564  0.0778
  432SOL    HW1 1295   2.884   2.157   1.151  2.5258 -1.9836 -1.5979
  432SOL    HW2 1296   2.981   2.275   1.237 -1.3638  0.1644  1.9482
  433SOL     OW 1297   1.836   0.277   0.802  0.6584 -0.7288  0.3686
  433SOL    HW1 1298   1.736   0.301   0.824 -3.0594 -1.5198 -0.5294
  433SOL    HW2 1299   1.895   0.239   0.873 -2.7630 -0.1729 -1.7538
  434SOL     OW 1300   1.548   0.322   0.694 -0.3717  0.5439 -0.1703
  434SOL    HW1 1301   1.538   0.407   0.632  1.4756  1.5311  0.4597
  434SOL    HW2 1302   1.541   0.358   0.790  0.4758  1.8355 -1.6192
  435SOL     OW 1303   1.461   1.507   2.039  0.5115 -0.0941 -0.5808
  435SOL    HW1 1304   1.475   1.559   2.124  0.8370  0.4328 -0.0854
  435SOL    HW2 1305   1.436   1.566   1.955  0.3158  2.2613 -1.5726
  436SOL     OW 1306   1.703   2.735   2.277  0.5269 -0.5685 -0.5039
  436SOL    HW1 1307   1.665   2.813   2.334 -0.5634  1.7273  0.2837
  436SOL    HW2 1308   1.730   2.652   2.335 -0.2462  0.4336 -0.1070
  437SOL     OW 1309   1.103   2.930   0.920 -0.2902  0.6379 -0.4872
  437SOL    HW1 1310   1.028   2.987   0.880  0.8675  1.0224  0.5336
  437SOL    HW2 1311   1.079   2.899   1.016 -1.3871  3.6720  0.6728
  438SOL     OW 1312   0.985   2.620   1.323  0.4310  1.0434  0.0803
  438SOL    HW1 1313   1.043   2.645   1.401 -1.8862 -2.3679 -0.1658
  438SOL    HW2 1314   0.979   2.517   1.305  0.4537 -1.6841 -0.5991
  439SOL     OW 1315   0.724   1.790   1.141 -0.0634  0.5418  0.5871
  439SOL    HW1 1316   0.724   1.870   1.076  0.8875  0.6572  0.9383
  439SOL    HW2 1317   0.630   1.762   1.170  0.6921  0.9536 -1.3983
  440SOL     OW 1318   1.049   2.518   1.941  0.8070 -0.6729 -0.0110
  440SOL    HW1 1319   0.984   2.540   1.858 -3.0278 -0.2940  0.4990
  440SOL    HW2 1320   1.144   2.548   1.913 -0.1038 -1.3851 -2.4381
  441SOL     OW 1321   0.532   2.742   1.430 -0.4639  0.2197  0.5094
  441SOL    HW1 1322   0.577   2.648   1.449  0.7622 -3.8970  0.5745
  441SOL    HW2 1323   0.436   2.741   1.466  2.5919  1.0820  0.9816
  442SOL     OW 1324   2.256   0.734   2.489  0.3259 -0.1173  0.0789
  442SOL    HW1 1325   2.268   0.634   2.520  1.6970 -0.9513 -0.1035
  442SOL    HW2 1326   2.159   0.765   2.472  0.8910  0.3281  0.9964
  443SOL     OW 1327   1.184   2.747   2.200 -0.5763  0.9748 -0.2013
  443SOL    HW1 1328   1.181   2.804   2.281  0.8995 -0.1675 -0.9438
  443SOL    HW2 1329   1.189   2.647   2.227  2.1540  1.7555  2.4619
  444SOL     OW 1330   1.077   1.298   1.566 -0.2480  0.7788 -0.0848
  444SOL    HW1 1331   1.177   1.278   1.543  0.0002  0.0039  0.9068
  444SOL    HW2 1332   1.058   1.357   1.650  1.5408  0.1072  1.9354
  445SOL     OW 1333   0.011   2.298   1.921 -0.2373  0.4485  0.0501
  445SOL    HW1 1334   0.013   2.393   1.880 -1.0829 -1.7260 -0.4928
  445SOL    HW2 1335  -0.072   2.290   1.980  0.5895 -0.9148  0.3894
  446SOL     OW 1336   0.175   1.885   2.336 -0.2584  0.0282  0.4124
  446SOL    HW1 1337   0.138   1.957   2.401 -3.3380 -0.5617 -0.6487
  446SOL    HW2 1338   0.106   1.849   2.263 -2.1316 -1.5665  1.4306
  447SOL     OW 1339   1.255   1.685   1.937  0.8199 -0.1523  0.3621
  447SOL    HW1 1340   1.194   1.740   1.871 -1.4922 -0.2328  1.3066
  447SOL    HW2 1341   1.273   1.745   2.017 -1.8352 -0.2810 -0.4427
  448SOL     OW 1342   0.178   1.562   2.034 -0.0296 -0.2544  0.0713
  448SOL    HW1 1343   0.184   1.662   1.987 -2.7552  0.8071 -2.3342
  448SOL    HW2 1344   0.158   1.576   2.135  1.3303 -1.9591  0.3746
  449SOL     OW 1345   2.021   2.948   0.810  0.2754  0.3033  0.4085
  449SOL    HW1 1346   2.104   2.960   0.866  1.0647 -2.6037 -0.6760
  449SOL    HW2 1347   1.983   2.854   0.799  2.0421  1.9588 -0.8061
  450SOL     OW 1348   2.299   1.364   0.772 -0.4638  0.0870 -0.1909
  450SOL    HW1 1349   2.286   1.273   0.815 -3.7292 -0.0488 -0.0544
  450SOL    HW2 1350   2.226   1.388   0.700 -2.3717  1.0665 -2.4153
  451SOL     OW 1351   1.418   0.041   1.469  0.5695  0.2725  0.4355
  451SOL    HW1 1352   1.346   0.113   1.485  1.8373 -1.2744  0.3239
  451SOL    HW2 1353   1.444  -0.010   1.554  0.2372 -0.6700 -0.5796
  452SOL     OW 1354   2.652   2.284   2.215 -0.0441 -0.3397 -0.0684
  452SOL    HW1 1355   2.586   2.358   2.246 -0.6515  0.8269 -0.6393
  452SOL    HW2 1356   2.711   2.243   2.288  0.6132  0.5922  0.0241
  453SOL     OW 1357   2.432   2.633   3.081  0.2436 -0.5458  0.6334
  453SOL    HW1 1358   2.343   2.689   3.079 -1.0647  2.6960 -4.2916
  453SOL    HW2 1359   2.434   2.566   2.998 -0.2239 -0.1617 -2.6847
  454SOL     OW 1360   0.984   1.108   2.106 -0.3391  0.4991 -0.2311
  454SOL    HW1 1361   0.951   1.134   2.014  0.4087 -1.4403  1.3075
  454SOL    HW2 1362   1.083   1.130   2.115 -0.4498 -0.2255 -0.7216
  455SOL     OW 1363   0.680   2.636   2.876  0.4125  0.1370 -0.3292
  455SOL    HW1 1364   0.772   2.651   2.919 -2.3529 -1.1988 -0.8227
  455SOL    HW2 1365   0.635   2.546   2.908 -0.8430  1.9548 -0.1319
  456SOL     OW 1366   0.502   1.859   0.377  0.1281 -0.3338 -0.3106
  456SOL    HW1 1367   0.563   1.841   0.454  0.5079 -1.0826 -4.0900
  456SOL    HW2 1368   0.504   1.959   0.351 -1.1558 -2.1775  3.6544
  457SOL     OW 1369   0.374   2.608   0.717 -0.0875  0.1002  0.1061
  457SOL    HW1 1370   0.387   2.619   0.613 -2.8039  0.8129 -0.1732
  457SOL    HW2 1371   0.451   2.637   0.776 -1.2659  1.3658  0.8891
  458SOL     OW 1372   2.980   3.039   1.258 -0.3441 -0.8307  0.1053
  458SOL    HW1 1373   2.989   3.138   1.230 -1.8371 -0.1218  4.5404
  458SOL    HW2 1374   2.929   2.975   1.190  1.0119 -3.0334  0.0720
  459SOL     OW 1375   2.148   2.562   0.889 -0.5003  0.1740  0.4330
  459SOL    HW1 1376   2.180   2.594   0.983  1.8668 -0.2544  1.0638
  459SOL    HW2 1377   2.227   2.527   0.827 -1.5418  1.7986 -0.4429
  460SOL     OW 1378   1.140   1.953   2.970 -0.0870  0.0678  0.5491
  460SOL    HW1 1379   1.200   2.009   2.902  2.0153  1.9176 -0.0227
  460SOL    HW2 1380   1.197   1.879   3.022 -1.3183 -0.3468  3.2115
  461SOL     OW 1381   0.495   2.142   2.669  0.1254 -0.1183 -0.5618
  461SOL    HW1 1382   0.427   2.083   2.614  0.6782 -1.5752 -1.0633
  461SOL    HW2 1383   0.531   2.088   2.754 -0.3994 -3.7225  0.3041
  462SOL     OW 1384   0.932   1.196   1.834 -0.1011  0.3749 -0.0544
  462SOL    HW1 1385   0.995   1.144   1.775 -2.3087  2.6219  2.2929
  462SOL    HW2 1386   0.885   1.282   1.792  1.1595  3.5550 -0.4516
  463SOL     OW 1387   0.450   0.802   0.554  0.1533  0.2625  0.2700
  463SOL    HW1 1388   0.517   0.724   0.524  0.5429  1.2679  1.6460
  463SOL    HW2 1389   0.346   0.782   0.545 -1.1522  0.2479  1.7868
  464SOL     OW 1390   0.601   2.242   2.312 -0.2270  0.2084  0.3060
  464SOL    HW1 1391   0.557   2.301   2.384 -1.1803  2.9319 -0.8770
  464SOL    HW2 1392   0.594   2.286   2.216  2.4261  0.6213 -2.3736
  465SOL     OW 1393   0.258   0.917   0.834 -0.6344 -0.1795 -0.2364
  465SOL    HW1 1394   0.174   0.969   0.802 -2.7154  0.5608 -0.7721
  465SOL    HW2 1395   0.242   0.813   0.819 -1.0756 -0.0201 -1.8520
  466SOL     OW 1396   1.373   1.109   1.139 -0.1922  0.5340  0.2312
  466SOL    HW1 1397   1.413   1.183   1.198  0.3075 -1.3461 -0.3996
  466SOL    HW2 1398   1.282   1.144   1.095 -1.7955  1.3964  0.9470
  467SOL     OW 1399   0.508   0.345   2.370 -0.0832  0.7279  0.4749
  467SOL    HW1 1400   0.475   0.417   2.435 -1.9031  0.8147 -0.8749
  467SOL    HW2 1401   0.487   0.249   2.404 -0.4179  1.2899  3.0515
  468SOL     OW 1402   0.416   2.308   1.668 -0.1177 -0.6798  0.0132
  468SOL    HW1 1403   0.482   2.360   1.726 -0.7460 -2.0383  1.0887
  468SOL    HW2 1404   0.410   2.336   1.569 -0.7397  0.7826 -0.0986
  469SOL     OW 1405   1.485   1.339   1.258 -0.4081 -0.0319 -0.9261
  469SOL    HW1 1406   1.574   1.302   1.217  2.9732  0.7706 -1.0574
  469SOL    HW2 1407   1.498   1.406   1.335  1.6499 -1.4784 -1.4655
  470SOL     OW 1408   3.017   1.696   0.734  0.0288 -0.1915 -0.2451
  470SOL    HW1 1409   3.106   1.753   0.739 -1.7089  0.4799 -0.1381
  470SOL    HW2 1410   2.950   1.736   0.804  2.2764 -0.3950  4.0092
  471SOL     OW 1411   2.620   1.349   2.167 -0.3525 -0.5157  0.0919
  471SOL    HW1 1412   2.593   1.270   2.230 -1.1464 -0.0493 -2.0244
  471SOL    HW2 1413   2.723   1.361   2.153  1.0696  1.9949 -0.1283
  472SOL     OW 1414   1.113   2.436   3.046  0.0324 -0.6020 -0.1335
  472SOL    HW1 1415   1.153   2.442   3.140  0.8371  0.4773 -0.0258
  472SOL    HW2 1416   1.062   2.347   3.033 -2.0036 -1.4681 -1.4061
  473SOL     OW 1417   1.069   1.500   0.921  0.9440  0.5892 -0.1704
  473SOL    HW1 1418   0.969   1.505   0.950 -0.7417 -2.2814  1.9429
  473SOL    HW2 1419   1.133   1.521   1.000 -0.8027 -0.0199 -3.2011
  474SOL     OW 1420   0.795   1.234   0.614  0.2198  0.5527  1.0671
  474SOL    HW1 1421   0.783   1.201   0.517 -1.3033  1.3892  1.8543
  474SOL    HW2 1422   0.827   1.156   0.674  0.9928 -0.5870  0.2213
  475SOL     OW 1423   2.817   0.136   0.792  0.6058 -0.1593 -0.1223
  475SOL    HW1 1424   2.902   0.154   0.845  1.6210 -2.2958  0.5434
  475SOL    HW2 1425   2.729   0.142   0.845  0.3464 -1.8631 -1.1998
  476SOL     OW 1426   0.922   2.992   1.762  0.3218 -0.1778 -0.6089
  476SOL    HW1 1427   0.997   2.970   1.827  0.0947 -0.2183 -1.5761
  476SOL    HW2 1428   0.945   2.965   1.666  0.0617 -1.0836  1.2574
  477SOL     OW 1429   1.423   0.329   2.484  0.2124 -0.1377 -0.2018
  477SOL    HW1 1430   1.427   0.336   2.587 -1.2986 -0.8668  0.1960
  477SOL    HW2 1431   1.467   0.245   2.443 -0.1752  0.4564  1.5443
  478SOL     OW 1432   2.253   1.831   0.249  0.1993  0.1400  0.2837
  478SOL    HW1 1433   2.199   1.748   0.225 -0.7977  0.2165 -0.9530
  478SOL    HW2 1434   2.356   1.820   0.251 -2.0826 -2.0561 -0.0009
  479SOL     OW 1435   1.235   1.042   2.872  0.3827 -0.2782 -0.2757
  479SOL    HW1 1436   1.262   1.048   2.774 -0.9056 -1.0714  2.3906
  479SOL    HW2 1437   1.128   1.045   2.868  0.4203 -2.9482  0.9126
  480SOL     OW 1438   2.516   2.315   0.355 -0.5500  0.3585 -0.3441
  480SOL    HW1 1439   2.466   2.240   0.401 -2.0558  1.7804 -0.9652
  480SOL    HW2 1440   2.450   2.370   0.292 -2.3205 -0.8339 -1.5134
  481SOL     OW 1441   1.065   1.179   0.830  0.4287 -0.1409 -0.3933
  481SOL    HW1 1442   1.061   1.272   0.785 -1.9136 -1.7013  1.5828
  481SOL    HW2 1443   1.077   1.178   0.932 -0.1444  1.6175 -1.6058
  482SOL     OW 1444   1.596   0.344   2.043  0.3125  0.9805  0.0481
  482SOL    HW1 1445   1.614   0.426   1.987  1.7028 -2.7198  1.5517
  482SOL    HW2 1446   1.686   0.301   2.078  1.9825 -2.9294 -1.4156
  483SOL     OW 1447   0.181   2.389   1.278 -0.8049  0.0030 -0.0558
  483SOL    HW1 1448   0.111   2.315   1.297  1.8223  0.8039  1.3840
  483SOL    HW2 1449   0.162   2.443   1.194 -0.9296 -0.8537  0.5593
  484SOL     OW 1450   1.705   0.978   1.396 -0.1535 -0.2763 -0.1156
  484SOL    HW1 1451   1.771   0.901   1.404 -0.1783 -1.0077 -3.2687
  484SOL    HW2 1452   1.729   1.056   1.459  0.4546 -0.7952  0.4829
  485SOL     OW 1453   0.677   1.081   1.782  0.3693  0.1002  0.1667
  485SOL    HW1 1454   0.696   1.086   1.678  3.1791 -3.1095 -2.2443
  485SOL    HW2 1455   0.766   1.101   1.823 -1.1369 -0.9478 -1.8589
  486SOL     OW 1456   0.934   1.960   2.480 -0.4434  0.2752 -0.1845
  486SOL    HW1 1457   0.978   1.908   2.559 -0.0920  3.6027 -0.6310
  486SOL    HW2 1458   0.846   2.010   2.498  2.1909 -0.1219 -0.1552
  487SOL     OW 1459   1.696   1.537   0.892 -0.2991 -0.6103 -0.0737
  487SOL    HW1 1460   1.701   1.438   0.854  0.5122 -3.0782 -1.3528
  487SOL    HW2 1461   1.776   1.590   0.860  0.8999  1.2351 -0.8213
  488SOL     OW 1462   2.965   0.929   2.198  0.4381  0.1783 -0.5023
  488SOL    HW1 1463   3.020   0.858   2.146  1.4679  1.5867  1.0090
  488SOL    HW2 1464   2.992   0.918   2.298  2.5107  1.1226  1.5272
  489SOL     OW 1465   2.769   0.256   1.302 -0.7194  0.2400  0.5541
  489SOL    HW1 1466   2.734   0.205   1.381 -0.3098  1.2116 -2.9528
  489SOL    HW2 1467   2.859   0.219   1.263 -1.8407 -2.7633 -1.2168
  490SOL     OW 1468   1.425   2.959   2.809 -0.4532  0.4860  0.0776
  490SOL    HW1 1469   1.479   2.875   2.776  2.1379 -2.7425  0.6567
  490SOL    HW2 1470   1.415   3.035   2.736 -1.0541  2.3456 -0.2383
  491SOL     OW 1471   1.800   1.499   2.673  0.7490  0.2796  0.3423
  491SOL    HW1 1472   1.751   1.448   2.749 -0.0456  0.8461 -2.6121
  491SOL    HW2 1473   1.901   1.489   2.669 -0.5391 -1.1987 -2.2797
  492SOL     OW 1474   0.543   2.053   0.726 -0.2537  0.1733  0.6976
  492SOL    HW1 1475   0.564   2.026   0.826 -2.8237 -2.0348  0.9019
  492SOL    HW2 1476   0.476   2.133   0.726  0.6150 -1.2433  2.8080
  493SOL     OW 1477   0.428   1.449   2.055 -0.2872  0.6653  0.1769
  493SOL    HW1 1478   0.335   1.494   2.038 -0.5648  2.0004 -1.4624
  493SOL    HW2 1479   0.436   1.391   2.143  0.6763  1.0535  0.1863
  494SOL     OW 1480   2.658   2.697   0.160  0.0660 -0.0302  0.0234
  494SOL    HW1 1481   2.661   2.634   0.246  0.7814 -0.3240  0.4647
  494SOL    HW2 1482   2.604   2.660   0.081  0.4014  0.6071  0.7063
  495SOL     OW 1483   2.725   2.637   2.715 -0.1245 -0.0359  0.5835
  495SOL    HW1 1484   2.664   2.556   2.693  2.9553 -0.3095  0.4361
  495SOL    HW2 1485   2.765   2.683   2.628 -0.6699  1.2916 -0.3486
  496SOL     OW 1486   2.019   2.171   0.722 -0.0451 -0.1647  0.3459
  496SOL    HW1 1487   2.028   2.200   0.827 -0.4029  1.1169  2.0751
  496SOL    HW2 1488   2.074   2.090   0.700 -1.2975  0.8281 -0.4311
  497SOL     OW 1489   0.198   2.985   2.402 -0.0777  0.4979  0.1390
  497SOL    HW1 1490   0.154   3.052   2.464 -0.4495 -0.0613 -2.4178
  497SOL    HW2 1491   0.239   3.024   2.315  0.7490 -1.0709  0.0342
  498SOL     OW 1492   1.222   1.444   1.143  0.3459 -0.1140 -0.2119
  498SOL    HW1 1493   1.304   1.417   1.194 -0.2060  3.1266 -1.9593
  498SOL    HW2 1494   1.183   1.532   1.186  0.4600 -0.7420  1.9156
  499SOL     OW 1495   0.769   1.854   0.547  0.6731 -0.4174 -0.2521
  499SOL    HW1 1496   0.765   1.752   0.545 -1.7821  0.7183  1.6860
  499SOL    HW2 1497   0.787   1.882   0.648 -2.5199 -1.9265 -0.1097
  500SOL     OW 1498   1.440   2.969   1.702 -0.2431  0.1704  0.1641
  500SOL    HW1 1499   1.393   2.943   1.792 -2.3814  2.0026  0.4427
  500SOL    HW2 1500   1.490   2.890   1.656 -2.3294  0.3057 -0.3464
  501SOL     OW 1501   0.784   1.119   2.295 -0.3257  0.2789  0.3357
  501SOL    HW1 1502   0.691   1.093   2.252 -0.9020 -1.1109 -3.1829
  501SOL    HW2 1503   0.866   1.101   2.232  0.0723  0.3338  0.2447
  502SOL     OW 1504   2.574   0.957   1.759 -0.3232  0.5850  0.2787
  502SOL    HW1 1505   2.573   0.980   1.657  0.0087 -1.5407 -0.3755
  502SOL    HW2 1506   2.517   0.872   1.778  1.0834  2.5339 -1.4621
  503SOL     OW 1507   1.318   0.141   0.605  0.5476  0.5569  0.0135
  503SOL    HW1 1508   1.241   0.198   0.563 -2.7402  1.3682  1.1457
  503SOL    HW2 1509   1.396   0.202   0.646  4.9484  1.4893  0.2326
  504SOL     OW 1510   3.031   2.320   1.399 -0.1141  0.5524 -0.6105
  504SOL    HW1 1511   2.980   2.404   1.421  2.4284 -3.9576  1.8195
  504SOL    HW2 1512   3.094   2.284   1.475 -0.2622  0.3081  1.4621
  505SOL     OW 1513   2.279   1.164   1.487  0.4814 -0.3359 -0.5676
  505SOL    HW1 1514   2.319   1.217   1.401 -0.3175  1.3089 -1.5743
  505SOL    HW2 1515   2.304   1.209   1.573  1.0041  0.1766  0.5011
  506SOL     OW 1516   1.987   0.217   1.747  0.1726  0.3038 -0.2488
  506SOL    HW1 1517   2.041   0.127   1.743 -1.2956  1.4342 -0.6984
  506SOL    HW2 1518   1.996   0.277   1.829  1.2646 -0.7959  0.3141
  507SOL     OW 1519   0.527   0.669   2.169 -0.4644 -0.2466  0.2217
  507SOL    HW1 1520   0.431   0.645   2.129 -2.7180  1.6767  1.1714
  507SOL    HW2 1521   0.602   0.604   2.151  1.8364 -0.4887 -1.1191
  508SOL     OW 1522   0.266   1.612   0.912  0.3148  0.3771  0.0725
  508SOL    HW1 1523   0.289   1.691   0.847 -0.6639  0.8460  0.6572
  508SOL    HW2 1524   0.248   1.638   1.012  0.8351  0.0021  2.0844
  509SOL     OW 1525   1.345   1.233   2.445 -0.6261 -0.8717  0.5065
  509SOL    HW1 1526   1.271   1.175   2.470  2.3341  2.2137  1.2898
  509SOL    HW2 1527   1.386   1.213   2.350  2.1903  1.3981 -0.2444
  510SOL     OW 1528   1.289   2.002   2.060  0.4990  0.1168 -0.4369
  510SOL    HW1 1529   1.230   2.086   2.067  0.6164 -3.0069  0.5465
  510SOL    HW2 1530   1.269   1.926   2.129 -0.0065 -1.6700  1.5742
  511SOL     OW 1531   3.051   2.654   1.318  0.1699 -0.2784  0.0610
  511SOL    HW1 1532   3.013   2.618   1.227  0.7697 -0.0225 -1.6785
  511SOL    HW2 1533   2.990   2.626   1.394  0.3521  0.1089 -3.6984
  512SOL     OW 1534   2.387   0.436   1.391  0.5947  0.0913 -0.1188
  512SOL    HW1 1535   2.294   0.394   1.376  1.8227  0.9789  1.9143
  512SOL    HW2 1536   2.467   0.398   1.334  0.7096 -2.0153  0.2155
  513SOL     OW 1537   2.467   2.025   0.842 -0.0585  0.1806 -0.9464
  513SOL    HW1 1538   2.425   2.114   0.802 -1.5414  2.2089  0.3046
  513SOL    HW2 1539   2.534   1.979   0.779  0.7794  0.4505  0.4324
  514SOL     OW 1540   0.624   2.803   0.431  0.6139 -0.2004 -0.6057
  514SOL    HW1 1541   0.614   2.856   0.344  1.7469 -0.0134  1.3349
  514SOL    HW2 1542   0.666   2.864   0.502 -0.6458  1.1816 -1.4481
  515SOL     OW 1543   2.036   1.147   2.278 -0.0884  0.5002  0.7641
  515SOL    HW1 1544   1.974   1.152   2.193  0.3423 -0.0256 -0.8532
  515SOL    HW2 1545   1.972   1.189   2.351  1.0729  2.2420  1.6484
  516SOL     OW 1546   0.283   0.261   1.954 -0.0521 -0.3186  0.1079
  516SOL    HW1 1547   0.379   0.244   1.915 -1.4958 -1.2794  1.0769
  516SOL    HW2 1548   0.209   0.224   1.895 -0.1494 -1.2569 -0.7611
  517SOL     OW 1549   0.356   3.031   1.211 -0.0822 -0.0765  0.2063
  517SOL    HW1 1550   0.369   3.127   1.248 -0.9674  0.1784  2.3025
  517SOL    HW2 1551   0.274   2.996   1.258  0.4246  2.4235  2.8436
  518SOL     OW 1552   2.138   3.077   1.759 -0.6252  0.4014  0.6773
  518SOL    HW1 1553   2.218   3.119   1.798  0.2919 -2.4496  0.0993
  518SOL    HW2 1554   2.164   3.000   1.693 -1.0937 -1.2249  0.4277
  519SOL     OW 1555   2.408   2.221   2.577  0.0978 -0.0742  0.2092
  519SOL    HW1 1556   2.310   2.226   2.609 -1.4835  0.9172 -0.3726
  519SOL    HW2 1557   2.448   2.317   2.586  2.0630  0.6488  0.2325
  520SOL     OW 1558   1.749   2.874   1.860  0.1370 -0.0835 -0.2057
  520SOL    HW1 1559   1.664   2.834   1.905  0.3428  1.5330  0.8860
  520SOL    HW2 1560   1.825   2.799   1.843  1.0466 -1.7321  1.5946
  521SOL     OW 1561   0.574   0.006   2.109  0.0395  0.8044 -0.6405
  521SOL    HW1 1562   0.474   0.010   2.134  2.1852  2.2373 -0.7277
  521SOL    HW2 1563   0.629   0.010   2.196 -2.1784 -2.9765 -1.7664
  522SOL     OW 1564   0.195   1.906   1.470 -0.3850 -0.1884  0.1490
  522SOL    HW1 1565   0.237   1.953   1.551  0.1367 -0.9751 -0.3533
  522SOL    HW2 1566   0.145   1.974   1.411 -0.9519  1.8819  0.7299
  523SOL     OW 1567   2.252   2.907   1.570 -0.2227 -0.2213  0.3468
  523SOL    HW1 1568   2.318   2.833   1.534  1.0949 -0.6374 -0.2796
  523SOL    HW2 1569   2.154   2.893   1.535  1.5249  1.4955  0.6421
  524SOL     OW 1570   0.183   2.754   2.773 -0.0234  0.0736  0.6668
  524SOL    HW1 1571   0.125   2.831   2.817  1.6041  1.0921 -0.1079
  524SOL    HW2 1572   0.279   2.776   2.797 -0.5183 -0.1172 -1.3401
  525SOL     OW 1573   2.157   1.950   0.466 -0.0618 -0.0860 -0.5351
  525SOL    HW1 1574   2.157   1.878   0.540 -4.8783 -0.9714  0.4646
  525SOL    HW2 1575   2.186   1.899   0.381  0.0670 -0.0777  0.8168
  526SOL     OW 1576   0.435   1.521   1.613  0.3844  0.3313 -0.4506
  526SOL    HW1 1577   0.351   1.516   1.670  0.7529  0.3332 -3.3377
  526SOL    HW2 1578   0.469   1.425   1.592  1.1514 -0.4384  3.3207
  527SOL     OW 1579   1.083   2.943   1.289 -0.1512 -0.8203  0.3044
  527SOL    HW1 1580   1.177   2.898   1.309  0.1829 -0.9490  0.9696
  527SOL    HW2 1581   1.093   3.038   1.256  0.4349 -3.4658 -1.1531
  528SOL     OW 1582   1.346   2.411   0.497 -0.0350  0.0210 -0.2790
  528SOL    HW1 1583   1.373   2.310   0.500  0.5418 -0.7207  1.0123
  528SOL    HW2 1584   1.410   2.474   0.552  1.5035  0.5860 -3.2876
  529SOL     OW 1585   1.899   1.697   0.811 -0.1287 -0.0701  0.1235
  529SOL    HW1 1586   1.850   1.724   0.719 -2.2737 -1.5895 -2.5142
  529SOL    HW2 1587   1.897   1.774   0.882 -3.3164 -0.8354 -0.4472
  530SOL     OW 1588   0.281   2.482   0.347 -0.0295  0.0908  0.2084
  530SOL    HW1 1589   0.254   2.565   0.399 -1.3066 -2.6536 -0.4310
  530SOL    HW2 1590   0.355   2.425   0.398  1.0241 -1.6533 -0.0233
  531SOL     OW 1591   1.812   1.021   0.995  0.5693 -0.2705 -0.1352
  531SOL    HW1 1592   1.852   1.013   0.900  0.4840  1.0184  1.2310
  531SOL    HW2 1593   1.712   0.998   1.001 -1.2501 -0.2323 -0.1964
  532SOL     OW 1594   0.503   1.063   0.800 -0.1692 -0.2942 -0.1264
  532SOL    HW1 1595   0.548   1.071   0.706 -0.0194  3.3505 -1.3171
  532SOL    HW2 1596   0.412   1.011   0.802  0.5770  0.5836 -2.5159
  533SOL     OW 1597   1.768   0.019   2.567  0.1561  0.4809 -0.0369
  533SOL    HW1 1598   1.867  -0.003   2.587 -0.9098 -3.1186  3.0649
  533SOL    HW2 1599   1.727   0.073   2.643  1.5629  0.5175 -0.5571
  534SOL     OW 1600   0.365   0.220   1.583  0.1734  0.3090 -0.6845
  534SOL    HW1 1601   0.471   0.225   1.586  2.4678  3.0957 -0.9536
  534SOL    HW2 1602   0.320   0.315   1.562 -1.3561  1.8331 -1.5534
  535SOL     OW 1603   1.951   0.342   0.150  0.1747  0.4699  0.4651
  535SOL    HW1 1604   1.950   0.439   0.192 -0.4922 -1.9573 -0.4907
  535SOL    HW2 1605   1.924   0.271   0.223 -2.0842  0.2715 -2.0313
  536SOL     OW 1606   1.397   2.657   0.956  0.5197 -0.0030  0.2698
  536SOL    HW1 1607   1.374   2.611   1.041 -3.0613  1.0930 -0.5724
  536SOL    HW2 1608   1.314   2.665   0.892  0.2989  1.8247  0.4487
  537SOL     OW 1609   0.800   0.287   2.410 -0.1098 -0.4025  0.1889
  537SOL    HW1 1610   0.809   0.349   2.331  0.5900 -1.4692  1.4449
  537SOL    HW2 1611   0.788   0.187   2.389  0.5811 -0.7588  1.7765
  538SOL     OW 1612   1.665   2.299   1.427 -0.4046 -0.2566 -0.6910
  538SOL    HW1 1613   1.692   2.203   1.399  0.2399  0.0504 -3.6204
  538SOL    HW2 1614   1.744   2.365   1.416  0.6145  1.7280 -0.0046
  539SOL     OW 1615   0.168   1.638   2.676  0.7292 -0.3683  0.3073
  539SOL    HW1 1616   0.069   1.628   2.636 -0.8361  2.3976 -1.1341
  539SOL    HW2 1617   0.184   1.734   2.710  0.6968  1.1523  0.6504
  540SOL     OW 1618   2.669   1.762   1.922 -0.0176 -0.3242 -0.1597
  540SOL    HW1 1619   2.608   1.687   1.955  2.1100 -2.0145  0.8237
  540SOL    HW2 1620   2.623   1.850   1.915  0.4570  0.6734 -0.0909
  541SOL     OW 1621   0.553   2.182   0.011  0.5906 -0.1477  0.2575
  541SOL    HW1 1622   0.578   2.167   0.113  2.3633 -0.7999  1.0327
  541SOL    HW2 1623   0.452   2.166  -0.010  1.3349  1.0794  0.0907
  542SOL     OW 1624   2.189   2.576   0.414 -0.2470  0.5925  0.3909
  542SOL    HW1 1625   2.141   2.666   0.405 -1.5545 -2.0181 -0.6307
  542SOL    HW2 1626   2.121   2.502   0.437  1.6533 -1.5116 -0.3115
  543SOL     OW 1627   1.107   1.809   1.556 -0.0440 -0.5212  0.0929
  543SOL    HW1 1628   1.089   1.833   1.653 -2.4681 -3.1665 -1.5409
  543SOL    HW2 1629   1.065   1.878   1.486  1.0802  3.0564 -1.1078
  544SOL     OW 1630   1.101   0.481   0.173 -0.0017  0.4179 -0.2849
  544SOL    HW1 1631   1.077   0.404   0.237 -0.1137 -1.4016 -2.9191
  544SOL    HW2 1632   1.163   0.443   0.101 -1.3025  0.1718  2.2815
  545SOL     OW 1633   1.118   1.764   0.778 -0.5846  0.1129  0.1168
  545SOL    HW1 1634   1.213   1.776   0.737  0.5639  0.7540 -2.2468
  545SOL    HW2 1635   1.096   1.663   0.787  1.2779 -2.4220 -1.2180
  546SOL     OW 1636   2.659   1.549   3.009  0.7804  0.4332 -0.1832
  546SOL    HW1 1637   2.634   1.643   2.974  0.0587  3.2059 -1.0905
  546SOL    HW2 1638   2.579   1.495   3.037 -0.6030  2.2888  0.8390
  547SOL     OW 1639   0.613   3.011   2.585 -0.2458 -0.1163 -0.5958
  547SOL    HW1 1640   0.705   3.016   2.639  0.8300 -1.0330  2.1472
  547SOL    HW2 1641   0.534   2.972   2.638  2.5686  1.9056 -0.5009
  548SOL     OW 1642   2.079   0.846   2.985 -0.5501 -0.3245  0.5807
  548SOL    HW1 1643   1.984   0.809   3.006  0.3982  0.4213 -1.5475
  548SOL    HW2 1644   2.084   0.946   3.020 -0.8032 -1.1900  2.3286
  549SOL     OW 1645   0.651   0.601   0.203 -0.3442 -0.1768  0.5933
  549SOL    HW1 1646   0.607   0.628   0.116  0.3212  2.0297 -2.3443
  549SOL    HW2 1647   0.750   0.642   0.219  1.7959  2.2392 -1.1481
  550SOL     OW 1648   2.606   2.799   2.909 -0.3608  0.4464 -0.2314
  550SOL    HW1 1649   2.555   2.727   2.965 -2.0433 -0.8827 -1.8407
  550SOL    HW2 1650   2.643   2.753   2.826 -2.0276 -0.3574 -0.7720
  551SOL     OW 1651   0.266   0.919   0.274 -0.1202  0.4466 -0.2452
  551SOL    HW1 1652   0.365   0.906   0.243 -1.6504  1.9461  1.0428
  551SOL    HW2 1653   0.245   0.851   0.347 -2.1533  2.0541 -0.5991
  552SOL     OW 1654   0.649   3.006   1.853  0.7446  0.0178  0.3684
  552SOL    HW1 1655   0.648   3.038   1.950  1.4120  2.7474  1.4231
  552SOL    HW2 1656   0.745   2.993   1.818 -0.4772 -0.8859 -1.9722
  553SOL     OW 1657   2.892   2.432   0.362 -0.2510  0.1769 -0.2218
  553SOL    HW1 1658   2.882   2.337   0.400  1.8808 -1.3953  3.6056
  553SOL    HW2 1659   2.804   2.473   0.336  2.9653 -0.9591 -3.1155
  554SOL     OW 1660   2.117   0.326   0.504  0.1038  0.2368 -0.7369
  554SOL    HW1 1661   2.202   0.342   0.447  3.1218  0.9323  0.7083
  554SOL    HW2 1662   2.128   0.262   0.587  0.2971  0.5908 -1.5061
  555SOL     OW 1663   0.381   2.794   2.523  0.5619  0.0551 -0.1353
  555SOL    HW1 1664   0.308   2.868   2.502 -0.2118  2.4448 -0.9289
  555SOL    HW2 1665   0.447   2.769   2.449 -0.4878 -0.1144  2.3777
  556SOL     OW 1666   0.872   2.361   1.571  0.2921  0.6299  0.4194
  556SOL    HW1 1667   0.911   2.429   1.644  0.2742  2.7717  0.6534
  556SOL    HW2 1668   0.920   2.362   1.479 -0.8084 -0.9197  1.1992
  557SOL     OW 1669   0.141   2.022   0.222 -0.1467  0.2811 -0.6160
  557SOL    HW1 1670   0.052   1.989   0.188 -0.8596  0.9992 -1.3693
  557SOL    HW2 1671   0.180   2.093   0.163 -1.3900  3.1920  0.9486
  558SOL     OW 1672   2.769   2.203   0.439  0.2282 -0.2395  0.2406
  558SOL    HW1 1673   2.682   2.241   0.401  3.1101 -1.6073 -2.0820
  558SOL    HW2 1674   2.796   2.127   0.377 -0.0995 -0.5614  0.8637
  559SOL     OW 1675   0.426   2.319   1.372 -0.1443 -0.1763 -0.3889
  559SOL    HW1 1676   0.333   2.344   1.339  2.3046 -1.4548 -0.0874
  559SOL    HW2 1677   0.471   2.247   1.312  0.3817 -0.9162  1.8574
  560SOL     OW 1678   2.112   1.118   3.077 -0.2571 -0.2863 -0.0776
  560SOL    HW1 1679   2.135   1.123   3.180 -0.2669 -1.8278 -0.1112
  560SOL    HW2 1680   2.183   1.168   3.019  0.3523  0.8188 -3.3031
  561SOL     OW 1681   0.016   1.860   3.094  0.2375  0.1880 -0.6629
  561SOL    HW1 1682  -0.012   1.800   3.174 -1.6260  1.4166 -2.5741
  561SOL    HW2 1683  -0.055   1.928   3.067  1.1652 -1.4583  2.2768
  562SOL     OW 1684   1.038   2.173   2.333  0.7608 -0.1839  0.3704
  562SOL    HW1 1685   1.014   2.268   2.377 -2.4998  2.4545  2.9877
  562SOL    HW2 1686   0.984   2.093   2.366 -2.7165 -1.1907  0.2291
  563SOL     OW 1687   0.700   2.525   2.621  0.0601 -0.0052 -0.1438
  563SOL    HW1 1688   0.783   2.470   2.595 -0.5286 -0.3846  0.7232
  563SOL    HW2 1689   0.711   2.555   2.719  1.2145 -1.0174 -0.9251
  564SOL     OW 1690   2.876   1.408   2.932  0.3808  0.6423  0.3443
  564SOL    HW1 1691   2.785   1.445   2.963  1.2483  1.4512 -0.8784
  564SOL    HW2 1692   2.942   1.483   2.897  2.0512  3.3594  1.0758
  565SOL     OW 1693   2.484   1.961   2.658  0.3327 -0.3734 -0.0675
  565SOL    HW1 1694   2.432   2.045   2.625 -0.8258  1.3030 -3.2665
  565SOL    HW2 1695   2.582   1.981   2.687  1.4077 -1.9820  2.1521
  566SOL     OW 1696   2.000   2.874   1.468  0.2558  0.2626 -0.0844
  566SOL    HW1 1697   1.958   2.784   1.490 -0.7793 -0.1893 -0.7685
  566SOL    HW2 1698   1.957   2.907   1.379 -0.2318  1.0934  0.3947
  567SOL     OW 1699   2.445   3.094   2.325  0.1529  0.2408 -0.2598
  567SOL    HW1 1700   2.358   3.132   2.365  1.5128  0.1929  1.0914
  567SOL    HW2 1701   2.450   3.087   2.220 -0.0471  0.4921 -2.0878
  568SOL     OW 1702   1.528   1.803   0.275  0.1800 -0.1836  0.5500
  568SOL    HW1 1703   1.483   1.878   0.217  0.6320 -0.8791 -0.4342
  568SOL    HW2 1704   1.631   1.809   0.273 -0.3878 -1.8362 -2.1484
  569SOL     OW 1705   0.235   0.623   0.794 -0.6989 -0.3661  0.3910
  569SOL    HW1 1706   0.308   0.562   0.759  0.9165  1.6329 -0.7163
  569SOL    HW2 1707   0.138   0.589   0.788  2.0891  1.5559  2.8174
  570SOL     OW 1708   0.652   0.873   2.878 -0.1864  0.1835 -0.4100
  570SOL    HW1 1709   0.716   0.864   2.795  1.1625  0.3588 -3.1793
  570SOL    HW2 1710   0.651   0.969   2.915 -1.1907 -0.3176 -1.3989
  571SOL     OW 1711   0.820   0.026   1.130  0.2246  0.1737  0.1342
  571SOL    HW1 1712   0.824   0.072   1.034  3.0077 -1.6389 -2.5773
  571SOL    HW2 1713   0.819  -0.081   1.123  1.2435 -1.8449 -1.8738
  572SOL     OW 1714   1.607   2.662   1.378 -0.5429 -0.0188  0.0559
  572SOL    HW1 1715   1.530   2.613   1.331  3.8060  2.5721 -1.0715
  572SOL    HW2 1716   1.652   2.734   1.319  1.0712 -1.0073  0.1919
  573SOL     OW 1717   3.006   0.493   2.031  0.5080 -0.2071  0.4681
  573SOL    HW1 1718   2.946   0.416   2.051  2.3544 -0.5081  0.3444
  573SOL    HW2 1719   3.059   0.478   1.940  2.3622 -0.2977 -2.5413
  574SOL     OW 1720   0.168   1.762   1.134  0.2088 -0.0943  0.0216
  574SOL    HW1 1721   0.240   1.823   1.180  1.4899 -0.2521  0.5208
  574SOL    HW2 1722   0.078   1.813   1.116 -1.1807 -0.2129  2.1448
  575SOL     OW 1723   0.847   2.176   0.951  0.3846  0.2019 -0.1300
  575SOL    HW1 1724   0.811   2.236   1.035 -2.4163  1.3537  0.8091
  575SOL    HW2 1725   0.860   2.229   0.866 -1.0051  1.9892  1.1297
  576SOL     OW 1726   2.894   2.994   1.686  0.2212  0.3256  0.1788
  576SOL    HW1 1727   2.791   2.983   1.703  0.1311  2.9022  1.2777
  576SOL    HW2 1728   2.929   3.093   1.661  0.0227  3.2455 -1.7629
  577SOL     OW 1729   2.652   1.229   0.014  0.5203  0.3783  0.0491
  577SOL    HW1 1730   2.657   1.155  -0.058  4.4197 -0.2549  0.5966
  577SOL    HW2 1731   2.683   1.204   0.112 -0.6750 -2.8076 -0.0981
  578SOL     OW 1732   1.401   2.808   2.486  0.7698 -0.1323  0.6765
  578SOL    HW1 1733   1.311   2.854   2.462 -0.6187  0.5525  1.6542
  578SOL    HW2 1734   1.485   2.863   2.457 -1.0615 -0.9117 -1.3163
  579SOL     OW 1735   3.098   2.471   0.179  0.2567 -0.2876  0.6932
  579SOL    HW1 1736   3.022   2.460   0.249 -0.3842 -4.6573  0.2788
  579SOL    HW2 1737   3.192   2.446   0.219  1.0052  0.5356  1.4588
  580SOL     OW 1738   0.990   2.664   0.381 -0.2198  0.2811  0.2478
  580SOL    HW1 1739   1.074   2.675   0.321 -0.1864 -2.3451  0.3680
  580SOL    HW2 1740   0.925   2.600   0.336  0.2485  3.5303  3.9393
  581SOL     OW 1741   1.261   2.660   1.442  0.5505  0.2668  0.3002
  581SOL    HW1 1742   1.329   2.589   1.476  3.1129  3.1794 -0.7160
  581SOL    HW2 1743   1.312   2.753   1.441  1.1305  1.3580  0.9048
  582SOL     OW 1744   1.496   0.107   1.904 -0.4976 -0.2722  0.3163
  582SOL    HW1 1745   1.530   0.195   1.945  0.8171 -0.4328  2.6451
  582SOL    HW2 1746   1.577   0.069   1.846  1.5811  1.6314 -0.8825
  583SOL     OW 1747   2.430   3.068   0.530 -0.2702  0.3882  0.1360
  583SOL    HW1 1748   2.502   3.011   0.479  0.8840  0.7242 -0.7329
  583SOL    HW2 1749   2.350   3.008   0.552 -1.2027  0.6032 -1.7554
  584SOL     OW 1750   1.588   1.126   2.282 -0.0733  0.7159  0.0201
  584SOL    HW1 1751   1.612   1.198   2.211 -1.7918  1.3305  4.2606
  584SOL    HW2 1752   1.635   1.035   2.269 -4.2208 -1.5947  2.1720
  585SOL     OW 1753   2.092   2.675   2.892 -0.3453  0.5142  0.1064
  585SOL    HW1 1754   2.121   2.578   2.892 -1.7968 -1.0945 -0.0109
  585SOL    HW2 1755   1.987   2.683   2.883  1.3665 -0.7275  0.7561
  586SOL     OW 1756   2.899   0.393   1.535  0.0422  0.2106 -0.0445
  586SOL    HW1 1757   2.870   0.481   1.589 -1.8830 -1.0772 -0.8721
  586SOL    HW2 1758   2.860   0.374   1.443 -0.3165 -2.3875 -1.7746
  587SOL     OW 1759   2.074   1.468   2.657  0.6081 -0.3959  0.2984
  587SOL    HW1 1760   2.117   1.395   2.593 -0.0621 -1.3653  2.3958
  587SOL    HW2 1761   2.138   1.496   2.732 -1.7208 -0.9808  0.4214
  588SOL     OW 1762   0.523   2.705   2.294  0.3634 -0.2769  0.5654
  588SOL    HW1 1763   0.500   2.711   2.195  0.3502 -1.4778  2.8087
  588SOL    HW2 1764   0.530   2.609   2.330  0.2375 -4.1423  0.5644
  589SOL     OW 1765   2.197   1.284   2.492  0.0294  0.3608  0.2984
  589SOL    HW1 1766   2.163   1.244   2.402 -2.5303 -2.3383 -0.2917
  589SOL    HW2 1767   2.304   1.279   2.500 -1.0220 -0.2511  0.0512
  590SOL     OW 1768   2.355   1.780   2.067  0.4633 -0.2817  0.7061
  590SOL    HW1 1769   2.410   1.693   2.066 -1.7668  3.4007 -2.9762
  590SOL    HW2 1770   2.330   1.809   2.164  0.2640  0.9409 -1.7522
  591SOL     OW 1771   1.225   2.418   0.222  0.0750 -0.3385  0.4416
  591SOL    HW1 1772   1.267   2.344   0.160 -0.2180 -4.0345 -0.6050
  591SOL    HW2 1773   1.247   2.408   0.318 -2.1033 -0.8298 -3.1149
  592SOL     OW 1774   1.792   2.330   0.784 -0.6053  0.0140  0.3263
  592SOL    HW1 1775   1.772   2.378   0.698 -0.7858 -2.9972  1.8154
  592SOL    HW2 1776   1.882   2.279   0.781  3.3169  1.9654  2.9706
  593SOL     OW 1777   0.721   0.265   0.222  0.6508  0.4038 -0.3814
  593SOL    HW1 1778   0.781   0.247   0.139 -0.8199 -1.6950 -0.1983
  593SOL    HW2 1779   0.692   0.364   0.228 -2.8791  0.1271  1.5431
  594SOL     OW 1780   1.057   1.834   2.713 -0.0681  0.0290 -0.2308
  594SOL    HW1 1781   1.135   1.788   2.654 -1.1054 -1.4825 -0.7817
  594SOL    HW2 1782   1.083   1.870   2.813 -0.6042 -1.5445  2.1710
  595SOL     OW 1783   1.565   0.075   0.989 -0.4109 -0.9320  0.1935
  595SOL    HW1 1784   1.652   0.028   0.963 -0.1869 -2.9840 -1.3034
  595SOL    HW2 1785   1.483   0.021   0.952 -1.7261 -1.2173 -1.7566
  596SOL     OW 1786   0.050   1.532   2.295  0.2522 -0.3679 -0.1818
  596SOL    HW1 1787   0.104   1.444   2.327  2.0183 -3.2587 -0.9674
  596SOL    HW2 1788  -0.005   1.580   2.369 -0.1923 -0.6437 -1.3818
  597SOL     OW 1789   1.947   2.673   1.807  1.1998 -0.2682  0.4191
  597SOL    HW1 1790   1.919   2.671   1.708  0.6113  1.9172  0.4733
  597SOL    HW2 1791   2.042   2.646   1.818 -0.2871 -1.3387  1.0978
  598SOL     OW 1792   2.542   2.888   1.221 -0.2616 -0.1537  0.1096
  598SOL    HW1 1793   2.600   2.937   1.298  1.7301  0.8135 -1.6877
  598SOL    HW2 1794   2.589   2.892   1.127 -1.3368  0.2503 -0.9218
  599SOL     OW 1795   2.844   0.286   2.486 -0.6758 -0.7677  0.3715
  599SOL    HW1 1796   2.918   0.286   2.417  1.0745  3.2810  3.2292
  599SOL    HW2 1797   2.757   0.330   2.463 -0.7680 -3.3364  1.4884
  600SOL     OW 1798   2.824   1.198   2.760 -0.1425  0.5016  0.0297
  600SOL    HW1 1799   2.725   1.180   2.755  0.2957 -0.1723  1.5400
  600SOL    HW2 1800   2.852   1.254   2.845 -1.0311 -2.8156  0.9903
  601SOL     OW 1801   3.074   1.351   2.010 -0.2374  0.0970 -0.3079
  601SOL    HW1 1802   2.998   1.373   1.946 -0.6108  0.0373  3.4811
  601SOL    HW2 1803   3.133   1.437   2.028  1.8994  2.3607 -0.3107
  602SOL     OW 1804   1.465   1.605   2.309  0.6713 -0.2991 -0.5602
  602SOL    HW1 1805   1.382   1.558   2.355  1.8755 -1.7190  0.7857
  602SOL    HW2 1806   1.559   1.576   2.345 -0.5608 -0.5544 -0.5898
  603SOL     OW 1807   0.665   1.143   2.729 -0.0908 -0.6756 -0.1084
  603SOL    HW1 1808   0.580   1.158   2.672  1.9513 -0.8892 -4.2352
  603SOL    HW2 1809   0.709   1.053   2.703 -0.7208 -2.7537 -0.5632
  604SOL     OW 1810   2.458   0.991   0.150  0.1485 -0.5676  0.2105
  604SOL    HW1 1811   2.506   1.059   0.085 -0.3436  0.8414 -0.7789
  604SOL    HW2 1812   2.445   0.897   0.110  3.2860 -0.4515  0.6448
  605SOL     OW 1813   2.502   1.177   1.972  0.1252 -0.5339 -0.2299
  605SOL    HW1 1814   2.581   1.150   1.907  1.6937  0.8568 -1.0743
  605SOL    HW2 1815   2.532   1.234   2.054  1.3686 -1.3690 -1.3248
  606SOL     OW 1816   1.487   2.550   2.560 -0.0388  0.1134 -0.0678
  606SOL    HW1 1817   1.452   2.646   2.527 -1.1940  1.0781 -1.3068
  606SOL    HW2 1818   1.453   2.471   2.503 -0.5650  0.4903 -1.1247
  607SOL     OW 1819   1.356   1.608   0.296 -0.9663  0.0862 -0.5071
  607SOL    HW1 1820   1.266   1.647   0.309  1.8814 -0.6442  0.0795
  607SOL    HW2 1821   1.432   1.679   0.290  0.0343 -0.0095  0.8533
  608SOL     OW 1822   1.439   2.854   0.393 -0.3926  0.2738 -0.1168
  608SOL    HW1 1823   1.465   2.876   0.293  1.1311 -0.9344 -1.6703
  608SOL    HW2 1824   1.366   2.919   0.427  0.3814  0.6317 -0.0392
  609SOL     OW 1825   1.324   1.346   0.188  0.6512  0.6472 -0.0859
  609SOL    HW1 1826   1.333   1.447   0.217 -1.0489 -1.1192 -2.2797
  609SOL    HW2 1827   1.310   1.336   0.089  0.9900 -1.7894  2.1223
  610SOL     OW 1828   3.006   1.186   2.273 -0.3520  0.2662  0.3859
  610SOL    HW1 1829   2.990   1.096   2.227  1.6807 -0.4547  1.5467
  610SOL    HW2 1830   3.006   1.264   2.205  0.2330 -1.4248  0.6719
  611SOL     OW 1831   2.499   0.267   1.172 -0.2793 -0.1540  0.0792
  611SOL    HW1 1832   2.446   0.179   1.203  2.2008 -1.9822  1.3353
  611SOL    HW2 1833   2.599   0.268   1.204 -1.8612  2.0891  0.9152
  612SOL     OW 1834   0.747   2.296   1.180  0.3513 -0.2526 -0.3149
  612SOL    HW1 1835   0.680   2.223   1.208 -2.0405  0.7129 -0.4679
  612SOL    HW2 1836   0.697   2.390   1.171  0.3737 -1.9509 -0.4818
  613SOL     OW 1837   0.857   1.391   2.375 -0.3578  0.1660  0.0136
  613SOL    HW1 1838   0.862   1.474   2.317 -1.5482 -2.5553 -0.6227
  613SOL    HW2 1839   0.827   1.311   2.319  2.0856  2.0087 -0.0844
  614SOL     OW 1840   1.551   1.651   1.826  0.1712  0.4000 -0.3684
  614SOL    HW1 1841   1.504   1.740   1.804  0.0312  0.9833  1.1361
  614SOL    HW2 1842   1.647   1.678   1.857 -0.8771  3.3838  0.7102
  615SOL     OW 1843   0.759   1.390   1.721  0.0643 -0.2279  0.2626
  615SOL    HW1 1844   0.672   1.364   1.663 -0.0755  1.1499  1.4115
  615SOL    HW2 1845   0.808   1.471   1.681  1.1951  0.5012  1.3418
  616SOL     OW 1846   1.107   1.550   2.156  0.0031 -0.0862 -0.4444
  616SOL    HW1 1847   1.006   1.567   2.174  0.1727 -3.0976 -2.0127
  616SOL    HW2 1848   1.135   1.572   2.058  2.5341 -1.0047 -0.1193
  617SOL     OW 1849   2.993   1.506   1.618  0.4765 -0.1934  0.2474
  617SOL    HW1 1850   2.961   1.433   1.685 -1.3281 -0.0114  0.9984
  617SOL    HW2 1851   3.047   1.473   1.537  0.3543  2.3551  1.4649
  618SOL     OW 1852   1.931   1.939   1.434 -0.0408  0.1460 -0.2103
  618SOL    HW1 1853   2.014   1.911   1.380  1.4195 -1.6859 -0.2556
  618SOL    HW2 1854   1.912   1.874   1.511  0.0546 -0.0374  2.5734
  619SOL     OW 1855   1.683   0.450   2.366  0.1250 -0.2875 -0.1311
  619SOL    HW1 1856   1.628   0.527   2.320  2.8492 -3.2847  0.5914
  619SOL    HW2 1857   1.630   0.371   2.406 -1.0886  1.2059  0.5861
  620SOL     OW 1858   2.194   2.937   0.575  0.6380  0.0244 -0.4170
  620SOL    HW1 1859   2.110   3.001   0.588  0.0442  1.4558 -0.6799
  620SOL    HW2 1860   2.219   2.890   0.663 -0.7114  1.9588  0.9441
  621SOL     OW 1861   2.226   1.890   1.338  0.3259 -0.1111  0.5174
  621SOL    HW1 1862   2.222   1.872   1.441  0.2390 -0.5363  0.0486
  621SOL    HW2 1863   2.204   1.802   1.285 -1.2132  3.4882  1.2856
  622SOL     OW 1864   2.184   0.871   1.761  0.9373  0.6511  0.5494
  622SOL    HW1 1865   2.272   0.820   1.752 -1.3344  1.2123 -1.3155
  622SOL    HW2 1866   2.124   0.829   1.837 -2.2076  2.0410 -0.4241
  623SOL     OW 1867   1.344   0.775   2.592  0.0818  0.3359 -0.3888
  623SOL    HW1 1868   1.275   0.748   2.670 -3.8204  1.0764  1.5633
  623SOL    HW2 1869   1.294   0.794   2.502 -2.0621 -2.7926 -1.3016
  624SOL     OW 1870   0.503   0.725   3.084  0.1619  0.1615 -0.1714
  624SOL    HW1 1871   0.523   0.746   2.990  0.9217 -2.0147  3.9606
  624SOL    HW2 1872   0.510   0.805   3.144  0.7528 -0.2073  1.1238
  625SOL     OW 1873   2.777   1.717   0.895 -0.5664 -0.5502 -0.3295
  625SOL    HW1 1874   2.712   1.749   0.968  0.2325  0.7851 -0.0734
  625SOL    HW2 1875   2.788   1.614   0.892  1.1407 -1.6759  1.1187
  626SOL     OW 1876   0.527   2.745   1.872 -0.8054  0.2268  0.9318
  626SOL    HW1 1877   0.545   2.848   1.870  1.0714 -0.5489  0.4150
  626SOL    HW2 1878   0.428   2.717   1.887  0.1433  1.3956  0.4172
  627SOL     OW 1879   0.712   1.030   1.526  0.6263  0.0989 -0.0364
  627SOL    HW1 1880   0.766   0.945   1.541  2.1434 -0.0441  0.1142
  627SOL    HW2 1881   0.763   1.100   1.465 -3.1367  2.6571 -1.7353
  628SOL     OW 1882   2.421   0.211   0.702  0.4644 -0.2465  0.1657
  628SOL    HW1 1883   2.436   0.132   0.637 -0.9924  1.8294  2.1574
  628SOL    HW2 1884   2.327   0.213   0.742 -1.1514 -1.8745 -1.4194
  629SOL     OW 1885   1.973   0.919   1.968 -0.2968  0.7280  0.3022
  629SOL    HW1 1886   2.068   0.911   2.011  2.1450 -2.5626 -0.7003
  629SOL    HW2 1887   1.918   0.996   2.007  0.3913  0.0049 -2.5270
  630SOL     OW 1888   2.743   2.166   0.776 -1.2034  0.6145 -0.1276
  630SOL    HW1 1889   2.672   2.240   0.784  1.7540 -2.1398 -1.6449
  630SOL    HW2 1890   2.717   2.070   0.741  0.2945  0.7970 -0.4531
  631SOL     OW 1891   2.999   0.206   2.103  0.0602  0.7371  0.0404
  631SOL    HW1 1892   3.051   0.253   2.179  1.4409  2.0769 -2.2527
  631SOL    HW2 1893   3.058   0.179   2.020  2.2236  2.2836 -2.3765
  632SOL     OW 1894   2.357   2.498   0.654 -0.8069 -0.2154  0.0958
  632SOL    HW1 1895   2.447   2.545   0.671  1.8264 -1.8494  1.5726
  632SOL    HW2 1896   2.295   2.542   0.584 -1.7516 -1.1680  2.5934
  633SOL     OW 1897   1.594   1.274   2.570  0.3219 -0.2208  0.5548
  633SOL    HW1 1898   1.572   1.355   2.632  3.6084  0.6387  1.5678
  633SOL    HW2 1899   1.509   1.235   2.526 -1.7682  0.7652  1.5791
  634SOL     OW 1900   0.633   2.016   0.982  0.1173  0.4771  0.4806
  634SOL    HW1 1901   0.550   2.051   1.032 -1.0502  2.3959  0.7645
  634SOL    HW2 1902   0.705   2.088   0.977 -0.0260 -2.0463 -1.3986
  635SOL     OW 1903   0.052   2.307   3.055  0.3160  0.0850  0.0150
  635SOL    HW1 1904  -0.003   2.336   2.969 -0.0743 -2.8889 -3.2651
  635SOL    HW2 1905   0.058   2.389   3.120 -0.8175  0.1798 -0.2200
  636SOL     OW 1906   2.295   2.801   1.998  0.2556 -0.0053 -0.4801
  636SOL    HW1 1907   2.260   2.903   1.989 -1.1128  2.2422 -0.5293
  636SOL    HW2 1908   2.248   2.745   2.072 -1.3654 -0.8658  1.6201
  637SOL     OW 1909   2.537   0.695   2.033 -0.1053  0.2147  0.3897
  637SOL    HW1 1910   2.496   0.701   1.937  0.6944 -0.6554  0.1111
  637SOL    HW2 1911   2.615   0.763   2.052  0.6848 -0.0020 -1.5855
  638SOL     OW 1912   2.497   1.871   1.320  0.5126 -0.3255  0.2501
  638SOL    HW1 1913   2.393   1.897   1.336  0.3434 -0.3342 -1.2061
  638SOL    HW2 1914   2.523   1.782   1.364  1.8585  3.0091 -1.7109
  639SOL     OW 1915   1.293   2.207   1.604  0.7680  0.3189  0.2262
  639SOL    HW1 1916   1.291   2.155   1.514  1.3962  1.8186  2.0584
  639SOL    HW2 1917   1.213   2.189   1.661  1.5099  1.0003 -3.0636
  640SOL     OW 1918   0.173   1.200   1.576 -0.2839  0.3746 -0.1328
  640SOL    HW1 1919   0.171   1.265   1.661 -1.6649 -0.2873  1.8344
  640SOL    HW2 1920   0.266   1.157   1.568 -1.1386 -2.2761  0.6096
  641SOL     OW 1921   1.978   0.132   1.476  0.4977  0.5993  0.3827
  641SOL    HW1 1922   1.960   0.176   1.565 -4.2730  0.6257 -0.4834
  641SOL    HW2 1923   2.021   0.040   1.489 -0.1693  3.2365  1.8340
  642SOL     OW 1924   1.963   0.128   0.320  0.3017 -0.5451 -0.0836
  642SOL    HW1 1925   2.065   0.118   0.345 -0.1069  1.5243 -2.5956
  642SOL    HW2 1926   1.906   0.125   0.404  3.6804 -0.2792 -1.6555
  643SOL     OW 1927   2.868   1.873   2.068  0.3711 -0.3810  0.3571
  643SOL    HW1 1928   2.802   1.804   2.022 -1.4540  1.1928  3.5899
  643SOL    HW2 1929   2.861   1.968   2.025 -0.9803 -2.0733 -0.8543
  644SOL     OW 1930   2.180   2.313   1.193  0.3707 -0.6909  0.1613
  644SOL    HW1 1931   2.261   2.261   1.162 -0.3497  1.5590  0.2874
  644SOL    HW2 1932   2.182   2.326   1.296 -1.8976  3.2172 -1.7318
  645SOL     OW 1933   0.590   0.781   1.160 -0.3656  0.3035  0.3814
  645SOL    HW1 1934   0.535   0.715   1.103  0.2545  2.4500 -0.0982
  645SOL    HW2 1935   0.621   0.864   1.101 -0.0468 -3.0584 -3.8026
  646SOL     OW 1936   1.515   1.943   1.809 -0.1127  0.0017  0.3956
  646SOL    HW1 1937   1.607   1.989   1.793 -0.5262 -0.2770 -0.4206
  646SOL    HW2 1938   1.471   1.970   1.896  1.9556  0.0071 -1.5553
  647SOL     OW 1939   0.879   0.957   0.674 -0.0456 -0.5288 -0.1924
  647SOL    HW1 1940   0.974   0.938   0.711  0.0003  1.8507 -0.6550
  647SOL    HW2 1941   0.796   0.916   0.723  0.8252 -1.5638 -1.2712
  648SOL     OW 1942   0.168   0.172   0.298  0.4994  0.0744  0.6103
  648SOL    HW1 1943   0.208   0.108   0.228  3.8401 -0.5650 -2.4870
  648SOL    HW2 1944   0.143   0.261   0.252  0.4655 -0.1317  1.1196
  649SOL     OW 1945   3.092   0.142   0.932  0.3943 -0.7802 -0.0723
  649SOL    HW1 1946   3.191   0.160   0.909  0.4590  1.6637  0.7714
  649SOL    HW2 1947   3.080   0.159   1.033  1.1125  0.5454 -1.1233
  650SOL     OW 1948   2.709   0.713   1.389 -0.0129 -0.1121  0.2129
  650SOL    HW1 1949   2.615   0.709   1.434  1.2029  1.4776  1.3979
  650SOL    HW2 1950   2.727   0.811   1.352  3.9080  1.3501 -4.0276
  651SOL     OW 1951   0.892   1.592   1.627  0.4636  0.1593  0.1799
  651SOL    HW1 1952   0.972   1.645   1.659 -0.5071  0.4255 -3.1316
  651SOL    HW2 1953   0.882   1.617   1.527  0.2321  0.3449 -0.3901
  652SOL     OW 1954   2.225   2.492   2.416 -0.3247  0.4845 -0.8271
  652SOL    HW1 1955   2.153   2.482   2.495  1.8494 -1.7695 -1.2264
  652SOL    HW2 1956   2.185   2.533   2.332 -0.6065  2.0056  0.4222
  653SOL     OW 1957   2.711   1.171   0.283 -0.4324  0.7658  0.6671
  653SOL    HW1 1958   2.763   1.258   0.289 -0.8673  1.4819 -0.9455
  653SOL    HW2 1959   2.774   1.089   0.311 -0.6334 -1.9120  0.5990
  654SOL     OW 1960   1.277   2.279   1.237 -0.0150  0.9523 -0.6192
  654SOL    HW1 1961   1.321   2.204   1.294  0.3043 -3.0177 -1.2242
  654SOL    HW2 1962   1.332   2.289   1.147 -0.1851  0.1416 -1.0636
  655SOL     OW 1963   0.211   1.016   1.846 -0.0368  0.2347  0.0407
  655SOL    HW1 1964   0.241   0.934   1.791 -0.7084 -2.8430  2.4374
  655SOL    HW2 1965   0.279   1.095   1.831  0.7676  2.8998  0.8994
  656SOL     OW 1966   2.513   2.483   2.600  0.1141  0.4185 -0.1851
  656SOL    HW1 1967   2.596   2.468   2.532 -0.0107  1.1158 -0.5356
  656SOL    HW2 1968   2.445   2.547   2.558  0.5929 -1.9591 -1.5775
  657SOL     OW 1969   3.036   1.095   1.885 -0.2418 -0.2215 -0.5228
  657SOL    HW1 1970   3.062   1.182   1.942  0.6160  1.6391 -0.7003
  657SOL    HW2 1971   3.124   1.039   1.871 -0.3108 -0.1164  0.4584
  658SOL     OW 1972   1.637   0.169   2.383  0.1699  0.3322  0.1990
  658SOL    HW1 1973   1.693   0.117   2.455  0.0654 -1.5632  0.5618
  658SOL    HW2 1974   1.683   0.185   2.285 -0.5610  3.2419 -3.2538
  659SOL     OW 1975   1.386   0.602   2.899  0.1965 -0.7630 -0.0876
  659SOL    HW1 1976   1.433   0.685   2.853 -0.6428  0.2485  1.3273
  659SOL    HW2 1977   1.293   0.592   2.849  0.9302 -0.6476 -1.3989
  660SOL     OW 1978   1.460   0.350   1.408 -0.2733  0.2585  0.2662
  660SOL    HW1 1979   1.491   0.361   1.507  1.0898 -0.3146  0.3628
  660SOL    HW2 1980   1.545   0.351   1.346 -2.6769 -0.0587  0.1447
  661SOL     OW 1981   2.500   1.183   0.671 -0.3663 -0.2151  0.1570
  661SOL    HW1 1982   2.500   1.150   0.573 -0.7502  0.6684 -0.0859
  661SOL    HW2 1983   2.418   1.249   0.694 -1.3671  2.2093  0.0381
  662SOL     OW 1984   1.318   0.420   1.837 -0.0222  0.2140  0.3268
  662SOL    HW1 1985   1.269   0.332   1.803 -0.0145 -1.1844  0.3092
  662SOL    HW2 1986   1.272   0.467   1.923 -1.3133  0.9729  0.9922
  663SOL     OW 1987   0.847   1.599   2.192  0.4542  0.3951  0.1582
  663SOL    HW1 1988   0.823   1.694   2.226 -2.1862  0.4988 -1.3905
  663SOL    HW2 1989   0.780   1.560   2.117 -2.2827 -2.0335  0.1084
  664SOL     OW 1990   1.666   2.023   1.369  0.1061  0.1991 -0.0928
  664SOL    HW1 1991   1.602   1.996   1.446  0.2074  1.7737 -0.0952
  664SOL    HW2 1992   1.759   1.973   1.377 -0.6211 -3.7769  0.9547
  665SOL     OW 1993   2.200   0.676   1.964  0.2919 -0.4207 -0.4130
  665SOL    HW1 1994   2.183   0.579   1.994  0.9764  0.0912 -1.2899
  665SOL    HW2 1995   2.251   0.726   2.034  2.0065 -3.0930 -1.0572
  666SOL     OW 1996   0.494   2.305   0.477  0.3975 -0.4056  0.0904
  666SOL    HW1 1997   0.574   2.373   0.491  0.7369  0.5302  1.9148
  666SOL    HW2 1998   0.462   2.279   0.567  3.0068 -1.0605 -2.8706
  667SOL     OW 1999   1.990   0.214   1.024  0.4520  0.7073 -0.4335
  667SOL    HW1 2000   2.030   0.311   1.034  2.0408  2.5592  3.3634
  667SOL    HW2 2001   1.932   0.187   1.107  0.2133  1.7597  0.4369
  668SOL     OW 2002   1.990   0.552   1.176  0.1671 -0.1198 -0.0444
  668SOL    HW1 2003   2.066   0.560   1.101  0.1895 -1.9967 -0.6749
  668SOL    HW2 2004   2.032   0.511   1.258 -0.9690 -0.1498 -0.0452
  669SOL     OW 2005   3.002   2.129   0.900 -0.3209 -0.5586  0.3476
  669SOL    HW1 2006   2.914   2.133   0.845  1.7446 -0.7866  1.9059
  669SOL    HW2 2007   3.030   2.206   0.962  1.8045 -1.9230 -0.8205
  670SOL     OW 2008   2.842   2.368   2.015 -0.4182 -0.0288  0.4151
  670SOL    HW1 2009   2.790   2.347   2.101 -2.4963  1.9986 -2.3495
  670SOL    HW2 2010   2.816   2.462   1.970 -1.2251  0.8237 -3.6954
  671SOL     OW 2011   1.751   1.703   1.457 -0.3354 -1.0028  0.1879
  671SOL    HW1 2012   1.765   1.762   1.369 -2.4660 -0.9595 -2.1024
  671SOL    HW2 2013   1.665   1.645   1.459  1.0873 -0.2582 -0.0238
  672SOL     OW 2014   0.447   0.622   2.450 -0.2998 -0.0294 -0.3660
  672SOL    HW1 2015   0.455   0.640   2.350 -0.7838  0.5560 -1.3367
  672SOL    HW2 2016   0.372   0.675   2.502 -2.4536  1.7463  1.1483
  673SOL     OW 2017   0.155   1.200   1.165  0.2597 -0.0177  0.0054
  673SOL    HW1 2018   0.206   1.265   1.234 -0.1707  3.3880  0.5788
  673SOL    HW2 2019   0.219   1.151   1.096  1.6426 -0.2455  1.0848
  674SOL     OW 2020   1.537   2.895   0.152 -0.4330  0.0491  0.1174
  674SOL    HW1 2021   1.599   2.971   0.123  0.4538 -3.8209  0.1391
  674SOL    HW2 2022   1.561   2.805   0.103  1.6335  0.1483  0.8110
  675SOL     OW 2023   1.671   0.846   2.325  0.3654 -0.6358  0.9815
  675SOL    HW1 2024   1.758   0.818   2.280  0.4473 -0.4929 -1.1872
  675SOL    HW2 2025   1.587   0.805   2.288  1.0969  3.0522 -2.2228
  676SOL     OW 2026   2.500   1.536   1.991 -0.0393 -0.1429 -0.2629
  676SOL    HW1 2027   2.463   1.479   1.913  1.9993  0.5572  2.8020
  676SOL    HW2 2028   2.526   1.475   2.068  0.2954 -0.2796 -0.2138
  677SOL     OW 2029   1.814   0.604   0.978 -0.4184 -0.3389 -0.3209
  677SOL    HW1 2030   1.884   0.591   1.051 -0.1856 -0.0779 -2.9521
  677SOL    HW2 2031   1.760   0.518   0.962 -2.4331  1.5788  0.9832
  678SOL     OW 2032   0.055   0.745   1.663  0.3539 -0.4023 -0.2624
  678SOL    HW1 2033   0.145   0.739   1.709 -2.6532  1.3082  0.1115
  678SOL    HW2 2034  -0.017   0.780   1.729  0.6097 -0.4522 -1.2104
  679SOL     OW 2035   2.504   1.177   1.074 -0.2773  0.0826 -0.7091
  679SOL    HW1 2036   2.459   1.209   1.162  1.1901 -0.5134 -2.4730
  679SOL    HW2 2037   2.506   1.073   1.063  0.4302  1.0505 -0.1947
  680SOL     OW 2038   2.828   0.649   1.651  0.4594 -0.3693  0.5206
  680SOL    HW1 2039   2.787   0.693   1.567  0.2456  0.8733  0.3118
  680SOL    HW2 2040   2.865   0.713   1.723  0.2221  0.0705 -0.3220
  681SOL     OW 2041   2.999   0.150   1.606  0.3159  0.6444 -0.0124
  681SOL    HW1 2042   3.072   0.134   1.531  1.1580  1.0308 -0.3197
  681SOL    HW2 2043   2.958   0.245   1.602  0.5431 -1.6590 -0.3449
  682SOL     OW 2044   0.789   0.033   1.398 -0.1893  0.0119  0.3709
  682SOL    HW1 2045   0.697  -0.014   1.419 -0.6068 -1.5827 -0.5137
  682SOL    HW2 2046   0.813   0.021   1.299  0.1117  3.2663  0.5476
  683SOL     OW 2047   1.389   0.259   2.180  0.1470 -0.0288 -0.2657
  683SOL    HW1 2048   1.380   0.310   2.268 -1.0848 -2.7381  0.7998
  683SOL    HW2 2049   1.463   0.302   2.117 -0.7352 -1.2823 -1.1851
  684SOL     OW 2050   1.447   2.119   0.500 -0.2155  0.1819 -0.1013
  684SOL    HW1 2051   1.507   2.052   0.555  0.9201 -1.5233 -0.8369
  684SOL    HW2 2052   1.363   2.069   0.463 -0.0846 -0.2124 -1.7863
  685SOL     OW 2053   2.196   1.964   1.927 -0.0241 -1.0401 -0.3132
  685SOL    HW1 2054   2.227   2.044   1.865 -3.1191  3.0171  1.3027
  685SOL    HW2 2055   2.270   1.901   1.953  1.5478 -0.9713 -0.1569
  686SOL     OW 2056   1.541   1.740   2.682  0.1982  0.3004  0.4299
  686SOL    HW1 2057   1.508   1.643   2.676  1.8532 -1.0150  1.1211
  686SOL    HW2 2058   1.638   1.754   2.720  1.1440 -0.2007  0.7261
  687SOL     OW 2059   1.324   2.525   1.896  0.1760  0.4369  0.1174
  687SOL    HW1 2060   1.374   2.466   1.824  4.8559 -0.2757  0.6167
  687SOL    HW2 2061   1.367   2.519   1.988 -1.7145 -2.8645 -1.0995
  688SOL     OW 2062   2.074   1.445   1.626 -0.0588 -0.8200 -0.3965
  688SOL    HW1 2063   2.169   1.483   1.600 -0.6457  2.2010 -1.9228
  688SOL    HW2 2064   2.037   1.389   1.549  3.5474 -0.7124  0.3883
  689SOL     OW 2065   2.476   1.110   2.759  0.2288 -0.1829 -0.1406
  689SOL    HW1 2066   2.377   1.126   2.773 -2.0003 -1.1020  0.9846
  689SOL    HW2 2067   2.527   1.072   2.843 -1.8073  0.2427  1.7091
  690SOL     OW 2068   2.200   2.802   0.022  0.3173  0.5833 -1.4600
  690SOL    HW1 2069   2.117   2.760  -0.027  0.2163 -0.2585 -1.3304
  690SOL    HW2 2070   2.177   2.796   0.125 -1.5136 -0.3144  0.6725
  691SOL     OW 2071   2.605   0.432   2.123 -0.1238  0.6414  0.1431
  691SOL    HW1 2072   2.627   0.367   2.045 -1.2055  1.5689  0.2449
  691SOL    HW2 2073   2.619   0.530   2.098 -3.8941  1.1341 -0.0312
  692SOL     OW 2074   2.798   1.213   0.713  0.2849  0.4186 -0.0037
  692SOL    HW1 2075   2.695   1.215   0.722 -1.1124  0.2662  0.9486
  692SOL    HW2 2076   2.835   1.295   0.762 -1.1571 -0.5891 -0.8686
  693SOL     OW 2077   2.873   3.002   0.625  0.1958 -0.0477 -0.4193
  693SOL    HW1 2078   2.828   3.068   0.684  0.6611 -3.5566 -0.1748
  693SOL    HW2 2079   2.804   2.976   0.552 -0.6857  1.5538  1.1393
  694SOL     OW 2080   2.414   2.222   0.055  0.3566 -0.0105  0.3525
  694SOL    HW1 2081   2.383   2.299   0.114  1.4191 -4.8698 -1.5343
  694SOL    HW2 2082   2.344   2.145   0.059 -0.5209  0.7445  0.0647
  695SOL     OW 2083   0.550   3.009   1.473 -0.4121  0.1713 -0.5843
  695SOL    HW1 2084   0.525   2.911   1.447 -0.0643 -1.1456 -0.0618
  695SOL    HW2 2085   0.497   3.039   1.558 -2.6104  0.0065  1.6387
  696SOL     OW 2086   2.686   1.907   0.708  0.1259 -0.3576  0.5169
  696SOL    HW1 2087   2.737   1.841   0.775 -1.6171 -2.7448 -1.9660
  696SOL    HW2 2088   2.656   1.857   0.619 -1.4618  0.3075 -0.6540
  697SOL     OW 2089   1.756   2.092   1.770 -0.1078  0.3584 -0.3987
  697SOL    HW1 2090   1.829   2.023   1.798  0.7776 -1.4058 -3.6712
  697SOL    HW2 2091   1.782   2.190   1.769  1.9157 -0.8614 -2.6439
  698SOL     OW 2092   2.877   0.412   2.745  0.1705 -0.2933  0.1097
  698SOL    HW1 2093   2.892   0.425   2.644  1.2192  2.1735 -3.0937
  698SOL    HW2 2094   2.901   0.317   2.774 -0.0595  0.7643 -1.5646
  699SOL     OW 2095   1.556   0.083   2.946  0.4902  0.0356 -0.1559
  699SOL    HW1 2096   1.531  -0.014   2.918  0.0279 -1.5161 -0.0438
  699SOL    HW2 2097   1.603   0.150   2.878 -1.0231  2.3951 -0.5153
  700SOL     OW 2098   0.994   2.351   1.319  0.6970  0.1674  0.4753
  700SOL    HW1 2099   1.085   2.307   1.304  2.5125  0.0293 -0.2731
  700SOL    HW2 2100   0.911   2.301   1.273 -1.1532  0.2943 -1.4326
  701SOL     OW 2101   1.892   2.807   0.028 -0.0614 -0.0477  0.3521
  701SOL    HW1 2102   1.907   2.734   0.102 -1.1287 -0.5068  2.3682
  701SOL    HW2 2103   1.908   2.904   0.053 -1.6321 -0.2102 -2.9860
  702SOL     OW 2104   2.109   1.347   1.932 -0.0854  0.2654  0.0894
  702SOL    HW1 2105   2.154   1.262   1.901  2.0328  1.5397 -0.6336
  702SOL    HW2 2106   2.084   1.405   1.848  0.0394 -1.6864  0.6767
  703SOL     OW 2107   1.932   0.826   1.413  0.5189  0.2940  0.6404
  703SOL    HW1 2108   1.931   0.728   1.453  1.2884 -0.3421 -0.6482
  703SOL    HW2 2109   1.972   0.892   1.480 -1.8323 -1.6215 -0.2246
  704SOL     OW 2110   0.320   2.039   1.677  0.3825 -0.0049  0.6118
  704SOL    HW1 2111   0.382   1.997   1.751  1.8706  1.5526  1.4408
  704SOL    HW2 2112   0.342   2.138   1.663  1.8228 -4.0444  1.2487
  705SOL     OW 2113   2.551   1.403   0.905  0.1873  0.4834 -0.4074
  705SOL    HW1 2114   2.475   1.395   0.840  0.1957 -0.6369  0.5927
  705SOL    HW2 2115   2.546   1.323   0.974  1.4449 -0.7546  0.6163
  706SOL     OW 2116   0.648   1.767   1.858  0.2868 -0.5663  0.4589
  706SOL    HW1 2117   0.650   1.667   1.871 -0.4540  2.7319 -1.0759
  706SOL    HW2 2118   0.729   1.815   1.903 -0.3444  2.0028  1.3834
  707SOL     OW 2119   2.265   1.141   1.832 -0.5056  0.5206 -0.6309
  707SOL    HW1 2120   2.348   1.129   1.898  0.4903 -0.0795  1.9397
  707SOL    HW2 2121   2.226   1.050   1.814 -0.1533  2.7427 -0.5992
  708SOL     OW 2122   3.049   0.464   3.028  0.0072  0.3521 -1.0602
  708SOL    HW1 2123   3.028   0.545   2.962 -2.6549  3.5202 -1.2066
  708SOL    HW2 2124   3.055   0.366   2.988  1.5048  0.0061  0.6949
  709SOL     OW 2125   1.824   1.809   0.294  0.0663 -0.0872  0.2612
  709SOL    HW1 2126   1.873   1.892   0.338  3.3141 -0.5801 -0.2581
  709SOL    HW2 2127   1.847   1.801   0.197 -0.6057  0.2420  3.8317
  710SOL     OW 2128   1.700   1.571   2.436  0.3019  0.1835  0.2190
  710SOL    HW1 2129   1.757   1.545   2.357  2.6888  2.4024 -1.7756
  710SOL    HW2 2130   1.739   1.540   2.524 -0.6188 -0.9364 -0.4357
  711SOL     OW 2131   2.640   2.915   0.957  0.0105  0.1757 -0.2234
  711SOL    HW1 2132   2.593   2.940   0.870  3.1461  2.7620 -1.7355
  711SOL    HW2 2133   2.739   2.904   0.943 -1.0376  1.4697  5.0655
  712SOL     OW 2134   1.493   2.324   1.766 -0.0365  0.2418 -0.4164
  712SOL    HW1 2135   1.582   2.272   1.782 -0.7514  0.9452 -0.8646
  712SOL    HW2 2136   1.430   2.280   1.695  1.3707 -1.2691 -2.1232
  713SOL     OW 2137   2.795   1.485   2.472  0.3734 -0.4698 -0.3054
  713SOL    HW1 2138   2.808   1.388   2.436  0.2532 -1.8522 -1.2893
  713SOL    HW2 2139   2.716   1.503   2.539 -0.0155 -0.5459 -1.3613
  714SOL     OW 2140   2.624   0.477   2.418 -0.7153  0.0643  0.4703
  714SOL    HW1 2141   2.538   0.465   2.474 -2.7392  2.5227  0.3033
  714SOL    HW2 2142   2.615   0.467   2.316 -1.5290 -0.4345 -1.1730
  715SOL     OW 2143   1.568   2.080   1.125 -0.0389  0.0959 -0.0056
  715SOL    HW1 2144   1.500   2.152   1.099  0.1355  1.5661  3.2582
  715SOL    HW2 2145   1.590   2.081   1.224  2.0693 -0.6508  2.1674
  716SOL     OW 2146   1.209   0.227   1.517  0.0641 -0.0603 -0.1461
  716SOL    HW1 2147   1.111   0.246   1.487 -1.3903  0.1993 -0.8467
  716SOL    HW2 2148   1.272   0.307   1.511 -0.7164  0.2681 -1.4917
  717SOL     OW 2149   1.081   0.577   1.624  0.2349 -0.3726 -0.0708
  717SOL    HW1 2150   1.183   0.589   1.648 -1.1741  1.0969  3.1069
  717SOL    HW2 2151   1.065   0.573   1.519 -1.0879 -0.5620  0.1548
  718SOL     OW 2152   0.695   1.004   1.009 -0.7679  0.7740 -0.2045
  718SOL    HW1 2153   0.652   0.989   0.915 -0.0224 -2.2301 -0.3800
  718SOL    HW2 2154   0.735   1.103   1.023  1.0064  1.2542  1.3911
  719SOL     OW 2155   0.783   1.843   2.272 -0.0148  0.8592  0.2006
  719SOL    HW1 2156   0.817   1.899   2.354  2.6045 -1.7476  0.5741
  719SOL    HW2 2157   0.683   1.836   2.269  4.0612 -1.8262 -0.7916
  720SOL     OW 2158   2.204   1.104   0.267  0.0573 -0.5357  0.1383
  720SOL    HW1 2159   2.277   1.046   0.221 -2.7811 -0.6185  0.6457
  720SOL    HW2 2160   2.199   1.092   0.372  0.9723  2.3630 -0.8620
  721SOL     OW 2161   2.329   0.010   2.063  0.1945  0.0533 -0.3155
  721SOL    HW1 2162   2.321   0.099   2.009 -2.3583 -0.2241  0.0199
  721SOL    HW2 2163   2.281   0.016   2.153  0.0672 -0.3178 -0.0387
  722SOL     OW 2164   2.390   1.630   0.594  0.2920  0.5481 -0.1541
  722SOL    HW1 2165   2.353   1.562   0.524 -0.6452 -1.4637  0.3127
  722SOL    HW2 2166   2.309   1.679   0.637  0.1992 -2.3369 -0.6777
  723SOL     OW 2167   2.567   2.787   1.960 -0.4590  0.8649  0.3498
  723SOL    HW1 2168   2.629   2.830   2.028 -1.4967 -0.3037  2.4916
  723SOL    HW2 2169   2.466   2.788   1.986  1.3702 -1.1633 -0.7723
  724SOL     OW 2170   0.498   2.461   2.439 -0.2576  0.0012 -0.3791
  724SOL    HW1 2171   0.392   2.455   2.457 -0.3291  0.0577 -1.0102
  724SOL    HW2 2172   0.559   2.497   2.520 -0.8660  0.1975  2.0894
  725SOL     OW 2173   2.464   2.739   1.492 -0.9268  0.1096 -0.8158
  725SOL    HW1 2174   2.510   2.758   1.400  0.3227 -1.7552 -0.3999
  725SOL    HW2 2175   2.464   2.636   1.512  1.5806 -1.4854 -3.0607
  726SOL     OW 2176   2.371   2.229   0.686  0.7034 -0.1944  0.4048
  726SOL    HW1 2177   2.357   2.329   0.681 -0.6353  0.6604  1.2404
  726SOL    HW2 2178   2.406   2.186   0.597 -0.4257  0.9104  1.7579
  727SOL     OW 2179   0.239   3.085   0.103 -0.1762 -0.1098  0.3130
  727SOL    HW1 2180   0.284   2.993   0.091 -1.9575 -0.2189  0.5042
  727SOL    HW2 2181   0.213   3.124   0.012  2.0743  2.9794 -0.7726
  728SOL     OW 2182   2.817   0.685   1.006 -0.6470 -0.0111 -0.1234
  728SOL    HW1 2183   2.772   0.637   0.925 -1.8467  1.1494 -1.2520
  728SOL    HW2 2184   2.825   0.626   1.093  0.4250 -0.8103  4.7224
  729SOL     OW 2185   2.902   2.445   0.688  0.5383 -0.1713 -0.1204
  729SOL    HW1 2186   2.880   2.363   0.632 -3.3514  2.5310  1.2529
  729SOL    HW2 2187   3.007   2.460   0.698  1.7225  1.0572 -0.2558
  730SOL     OW 2188   2.569   0.574   0.785  0.1181 -0.4391 -0.6439
  730SOL    HW1 2189   2.523   0.663   0.766  1.2155  1.1380  0.5835
  730SOL    HW2 2190   2.659   0.569   0.735  3.7052 -0.2620 -1.8189
  731SOL     OW 2191   0.010   2.136   2.443  0.0460 -0.4351  0.5065
  731SOL    HW1 2192   0.034   2.178   2.534 -1.8398 -0.6188  2.2429
  731SOL    HW2 2193  -0.017   2.198   2.368 -3.8653  3.7368 -0.9890
  732SOL     OW 2194   1.093   2.868   1.989  0.7139 -0.4255  0.0134
  732SOL    HW1 2195   1.115   2.823   2.079  1.5111 -1.2154  0.5124
  732SOL    HW2 2196   1.121   2.797   1.916  0.1800 -0.8073  1.8524
  733SOL     OW 2197   0.023   0.729   2.070  0.3680  0.2064  0.2125
  733SOL    HW1 2198   0.125   0.760   2.059  2.3543  2.7519  0.6684
  733SOL    HW2 2199   0.011   0.628   2.066 -1.8592  1.4116 -1.6300
  734SOL     OW 2200   1.434   0.348   2.758  0.0232 -0.1463 -0.4160
  734SOL    HW1 2201   1.438   0.444   2.789 -1.5008 -2.2938 -1.2058
  734SOL    HW2 2202   1.346   0.295   2.784  0.1338 -1.7445  0.6341
  735SOL     OW 2203   2.875   2.626   2.251 -0.1811  0.2083 -0.1582
  735SOL    HW1 2204   2.843   2.642   2.154  1.5741  0.9677 -1.5280
  735SOL    HW2 2205   2.977   2.598   2.254 -1.2640 -3.1423 -0.6549
  736SOL     OW 2206   0.751   0.430   2.639  0.5155 -1.1380  0.3497
  736SOL    HW1 2207   0.736   0.534   2.622 -2.4908  2.3304  3.3847
  736SOL    HW2 2208   0.746   0.379   2.554 -2.0619  0.4213 -1.8428
  737SOL     OW 2209   2.662   0.475   2.873  0.2998  0.3164 -0.2637
  737SOL    HW1 2210   2.648   0.428   2.968 -2.5761  0.4724 -1.5163
  737SOL    HW2 2211   2.760   0.461   2.832  0.5586  1.0817 -0.1252
  738SOL     OW 2212   1.595   1.224   2.953  0.0935 -0.2261  0.0445
  738SOL    HW1 2213   1.695   1.207   2.968  0.7425 -0.0440  0.9729
  738SOL    HW2 2214   1.556   1.169   2.877 -2.2488  0.5698 -2.3328
  739SOL     OW 2215   1.764   0.657   0.699  1.1134  0.5415  1.0316
  739SOL    HW1 2216   1.794   0.651   0.797  0.2254  0.4595  0.4434
  739SOL    HW2 2217   1.806   0.580   0.642  0.9124 -0.8028 -0.2687
  740SOL     OW 2218   1.945   1.893   2.253  0.1626  0.2540 -0.6318
  740SOL    HW1 2219   2.019   1.821   2.266 -0.8915  1.2700 -1.0477
  740SOL    HW2 2220   1.881   1.873   2.170 -2.2061 -0.0368 -1.2150
  741SOL     OW 2221   2.495   0.040   2.613 -0.2090 -0.1779  0.3099
  741SOL    HW1 2222   2.597   0.042   2.605 -1.6373  0.4766 -0.7071
  741SOL    HW2 2223   2.456   0.035   2.517 -0.7318 -0.7410 -0.8781
  742SOL     OW 2224   2.255   1.369   0.140  0.0893  0.0676 -0.4268
  742SOL    HW1 2225   2.155   1.388   0.156 -0.7022 -0.1523  1.5742
  742SOL    HW2 2226   2.289   1.299   0.208  1.1654 -1.2313  0.4862
  743SOL     OW 2227   1.779   0.590   2.579 -0.4886 -0.1149  0.5138
  743SOL    HW1 2228   1.749   0.534   2.495 -0.5637 -0.4392 -0.9169
  743SOL    HW2 2229   1.736   0.683   2.588 -0.7472 -1.3955 -0.9386
  744SOL     OW 2230   2.661   2.119   0.055 -0.7083 -0.0198 -0.4896
  744SOL    HW1 2231   2.568   2.162   0.062 -0.0614 -2.2681 -0.9195
  744SOL    HW2 2232   2.655   2.022   0.064 -1.9254  2.5867  1.1799
  745SOL     OW 2233   2.139   2.675   2.230 -0.1238  0.2087  0.0958
  745SOL    HW1 2234   2.046   2.652   2.190  1.9949 -2.3805 -1.6010
  745SOL    HW2 2235   2.134   2.755   2.298  0.2155 -3.1552  0.7159
  746SOL     OW 2236   3.084   2.556   1.824 -0.4383 -0.0968  0.3783
  746SOL    HW1 2237   3.177   2.583   1.787 -1.1601 -1.2873 -1.9402
  746SOL    HW2 2238   3.037   2.638   1.865 -0.7171 -2.0058 -1.8030
  747SOL     OW 2239   0.005   1.775   1.643  0.0449  0.3952  0.5505
  747SOL    HW1 2240  -0.030   1.684   1.609 -1.1790 -1.8084  0.7738
  747SOL    HW2 2241   0.074   1.822   1.581 -2.0610  1.9078  0.7599
  748SOL     OW 2242   1.812   2.740   2.887 -0.0032 -0.9498  0.2886
  748SOL    HW1 2243   1.842   2.773   2.982 -4.1554  0.7121  1.1512
  748SOL    HW2 2244   1.708   2.736   2.879 -1.4494  0.8412  0.4546
  749SOL     OW 2245   1.326   3.097   0.862 -0.0569  0.3367 -0.2905
  749SOL    HW1 2246   1.246   3.032   0.870  1.0183  2.7185 -1.2311
  749SOL    HW2 2247   1.334   3.138   0.769 -1.5792 -1.1838  2.8026
  750SOL     OW 2248   2.305   0.242   1.880 -0.2613  0.3609 -0.3974
  750SOL    HW1 2249   2.357   0.281   1.804  5.1384  0.5347  2.3302
  750SOL    HW2 2250   2.279   0.315   1.953  2.4987  0.9302  1.3801
  751SOL     OW 2251   0.834   2.207   2.794 -0.3868 -0.1914  0.1158
  751SOL    HW1 2252   0.910   2.202   2.863 -0.5418  0.7462 -1.4885
  751SOL    HW2 2253   0.763   2.132   2.811 -1.5016  0.9630  1.9518
  752SOL     OW 2254   1.226   0.878   1.527 -0.2278  0.4508  0.2644
  752SOL    HW1 2255   1.308   0.930   1.486  2.4326 -0.9823 -1.7648
  752SOL    HW2 2256   1.249   0.778   1.549  0.0895  0.5361 -0.0383
  753SOL     OW 2257   0.932   2.594   1.706 -0.0826 -0.1124  0.1077
  753SOL    HW1 2258   1.019   2.641   1.715 -2.3535 -0.6585  1.3190
  753SOL    HW2 2259   0.855   2.658   1.676 -2.1548 -0.7918 -1.1473
  754SOL     OW 2260   1.214   1.296   3.030 -0.4479 -0.7085  0.0770
  754SOL    HW1 2261   1.211   1.212   2.964  1.5435 -2.2590 -1.9475
  754SOL    HW2 2262   1.190   1.381   2.978 -0.8611 -1.0764  0.9914
  755SOL     OW 2263   1.929   0.457   2.224  0.6033  0.0654 -0.1159
  755SOL    HW1 2264   2.016   0.426   2.270 -0.5661  1.6302 -0.0747
  755SOL    HW2 2265   1.848   0.451   2.288  0.6304 -1.8460  2.5167
  756SOL     OW 2266   2.607   0.988   2.970 -0.3640  0.5139 -0.0999
  756SOL    HW1 2267   2.713   0.970   2.947  4.6927 -1.1879  1.4121
  756SOL    HW2 2268   2.557   0.900   2.995  0.5076  1.7766  1.3505
  757SOL     OW 2269   0.044   0.461   1.789  0.7815  0.5342  0.0257
  757SOL    HW1 2270  -0.008   0.534   1.740 -0.1472  0.4680 -2.0397
  757SOL    HW2 2271   0.098   0.407   1.719  0.0917  1.5943  1.2721
  758SOL     OW 2272   2.388   0.013   1.473  0.3568 -0.6944  0.1420
  758SOL    HW1 2273   2.320  -0.055   1.512  0.9059  0.9280 -0.7161
  758SOL    HW2 2274   2.375   0.019   1.375  0.9014  1.7925  1.9308
  759SOL     OW 2275   1.676   0.015   0.075  0.0077 -0.2575  0.4068
  759SOL    HW1 2276   1.625   0.053  -0.012  1.2051 -4.5192 -1.7835
  759SOL    HW2 2277   1.779  -0.004   0.054  3.0897 -0.1190  0.3683
  760SOL     OW 2278   2.727   2.041   2.760  0.1100 -0.2974 -0.8630
  760SOL    HW1 2279   2.790   1.961   2.748  1.9552  2.3548  1.5243
  760SOL    HW2 2280   2.714   2.081   2.855  0.4190  2.2070 -0.5755
  761SOL     OW 2281   1.968   1.679   1.624  0.4575 -0.0231  0.2108
  761SOL    HW1 2282   2.002   1.576   1.630  2.0927 -0.7628 -0.8170
  761SOL    HW2 2283   1.886   1.685   1.557  0.0141 -0.7360 -1.8657
  762SOL     OW 2284   0.500   2.414   0.967 -0.0158 -0.4905 -0.5117
  762SOL    HW1 2285   0.566   2.417   0.887 -0.9127  1.4648  0.3116
  762SOL    HW2 2286   0.518   2.489   1.042 -1.6875  0.8317 -3.3931
  763SOL     OW 2287   2.117   1.521   2.984 -0.1564 -0.1414  0.0104
  763SOL    HW1 2288   2.181   1.458   3.028 -2.5912 -0.4833  0.1932
  763SOL    HW2 2289   2.023   1.501   3.016  0.1574  0.2084  0.3111
  764SOL     OW 2290   0.700   0.548   0.898  0.4516 -0.5299  0.1560
  764SOL    HW1 2291   0.665   0.466   0.848 -1.0925  0.6133 -0.0827
  764SOL    HW2 2292   0.799   0.551   0.930 -1.7022  0.5948  0.7726
  765SOL     OW 2293   0.647   0.245   0.812  0.0977 -0.1571  0.2944
  765SOL    HW1 2294   0.739   0.249   0.764 -1.3355  0.3695  0.8836
  765SOL    HW2 2295   0.655   0.263   0.914 -0.9177 -2.2106 -1.8929
  766SOL     OW 2296   2.957   2.102   0.013 -0.1177 -0.0204  0.2214
  766SOL    HW1 2297   2.862   2.130   0.049 -0.1013 -0.1569  3.1184
  766SOL    HW2 2298   3.029   2.176   0.017 -0.7481 -3.0181  0.8099
  767SOL     OW 2299   2.886   1.547   0.520  0.1785 -0.2349 -0.5199
  767SOL    HW1 2300   2.795   1.532   0.563  3.6026 -1.7221  2.0233
  767SOL    HW2 2301   2.949   1.612   0.577  1.7987  2.3053 -2.7652
  768SOL     OW 2302   1.101   0.240   0.320  0.3382  0.3592 -0.0928
  768SOL    HW1 2303   1.027   0.166   0.338  0.8726 -0.7374 -1.2393
  768SOL    HW2 2304   1.190   0.202   0.282  2.9141 -1.4256  1.6700
  769SOL     OW 2305   1.175   1.827   2.236  0.2506 -0.6902  0.3055
  769SOL    HW1 2306   1.091   1.869   2.286 -1.2830 -0.1437  2.0255
  769SOL    HW2 2307   1.187   1.722   2.232  0.9995  3.5931  1.3125
  770SOL     OW 2308   0.166   1.259   2.377  0.7703 -0.0215  0.9353
  770SOL    HW1 2309   0.166   1.285   2.475  1.6796 -4.0864  2.4897
  770SOL    HW2 2310   0.090   1.192   2.349  1.1231 -3.6064  0.0191
  771SOL     OW 2311   2.962   2.808   1.887  0.0509  0.0782  0.2334
  771SOL    HW1 2312   2.963   2.849   1.789  0.3669  1.0208  1.3469
  771SOL    HW2 2313   2.947   2.877   1.955  3.3993 -2.8484  2.2520
  772SOL     OW 2314   2.145   0.109   2.951 -0.3896 -0.3177 -0.0645
  772SOL    HW1 2315   2.231   0.047   2.934 -0.8075 -1.0174  2.1377
  772SOL    HW2 2316   2.175   0.180   3.020  0.2783  0.1656 -1.9752
  773SOL     OW 2317   0.696   2.065   2.480 -0.3276 -0.0144 -0.1690
  773SOL    HW1 2318   0.676   2.136   2.408  0.8217 -1.4969 -0.2674
  773SOL    HW2 2319   0.620   2.060   2.553 -1.9661  0.7642 -0.7221
  774SOL     OW 2320   2.035   0.017   2.642 -0.2655 -0.7062 -0.5375
  774SOL    HW1 2321   2.040   0.119   2.677 -1.2157  1.6114 -2.4262
  774SOL    HW2 2322   2.086  -0.048   2.702 -1.2575 -3.9290 -0.2842
  775SOL     OW 2323   2.522   2.841   2.433 -0.5769  0.2570 -0.6446
  775SOL    HW1 2324   2.510   2.927   2.382  1.3699 -1.4712  0.5086
  775SOL    HW2 2325   2.614   2.837   2.479  0.1421 -4.4528 -0.6922
  776SOL     OW 2326   0.007   1.290   0.243  0.0888  0.1360 -0.7900
  776SOL    HW1 2327  -0.022   1.235   0.162 -1.7055 -1.5456  1.8489
  776SOL    HW2 2328  -0.071   1.283   0.317 -2.9482  0.3629  1.3368
  777SOL     OW 2329   0.216   2.706   0.484 -0.2635 -0.3975 -0.2007
  777SOL    HW1 2330   0.117   2.719   0.465  0.3942  1.2812 -2.6069
  777SOL    HW2 2331   0.266   2.794   0.503 -0.6527 -1.4246 -0.0795
  778SOL     OW 2332   1.336   1.967   0.179 -0.3641 -0.2076 -0.4078
  778SOL    HW1 2333   1.280   1.956   0.267  1.7904 -1.4141 -0.2002
  778SOL    HW2 2334   1.312   2.054   0.130 -0.7801 -0.8565  0.4797
  779SOL     OW 2335   0.186   0.771   0.518  0.0386  0.0276 -0.0732
  779SOL    HW1 2336   0.127   0.690   0.497 -0.0529 -0.5886 -1.5733
  779SOL    HW2 2337   0.131   0.849   0.567 -1.9090  1.0241  0.6632
  780SOL     OW 2338  -0.004   0.296   2.345 -0.4606  0.8747  0.5437
  780SOL    HW1 2339  -0.025   0.399   2.361 -0.3933  2.3841  0.4851
  780SOL    HW2 2340   0.098   0.290   2.318 -0.9395 -0.1238  0.2068
  781SOL     OW 2341   0.592   1.743   1.562 -0.1560 -0.0307  0.2563
  781SOL    HW1 2342   0.595   1.778   1.657  0.2048  1.0123  1.0022
  781SOL    HW2 2343   0.538   1.651   1.571 -0.9322 -1.0175  1.2967
  782SOL     OW 2344   2.588   0.149   0.934 -0.2906  0.0742 -0.0100
  782SOL    HW1 2345   2.545   0.192   0.851  0.8803 -0.5652  1.1513
  782SOL    HW2 2346   2.537   0.160   1.022 -1.1414  0.8150  0.6953
  783SOL     OW 2347   2.841   0.668   2.510  0.7033  0.5721  0.3456
  783SOL    HW1 2348   2.802   0.708   2.600 -2.6405  0.8800  0.8837
  783SOL    HW2 2349   2.767   0.604   2.471 -0.4457 -2.2778 -2.1524
  784SOL     OW 2350   1.315   2.219   0.047  0.1860  0.2637 -0.2047
  784SOL    HW1 2351   1.401   2.250   0.086  0.3772 -0.8366  1.5550
  784SOL    HW2 2352   1.334   2.184  -0.047  0.8408  0.1244  2.0964
  785SOL     OW 2353   2.191   0.353   3.087 -0.3592 -0.0295  0.5851
  785SOL    HW1 2354   2.107   0.350   3.155  0.0906  1.6883 -0.0001
  785SOL    HW2 2355   2.224   0.451   3.058  2.7548 -0.2233 -2.4823
  786SOL     OW 2356   2.031   2.144   2.228  0.0371 -0.0916  0.0056
  786SOL    HW1 2357   1.997   2.045   2.239 -2.6160 -1.9354 -0.8250
  786SOL    HW2 2358   2.133   2.137   2.230  0.7867 -1.1603  2.2628
  787SOL     OW 2359   1.395   0.603   0.845 -0.2617  0.5270 -0.6113
  787SOL    HW1 2360   1.313   0.665   0.858  1.2139  1.5734  0.9841
  787SOL    HW2 2361   1.446   0.611   0.753 -0.6883  0.2023  0.8853
  788SOL     OW 2362   1.226   0.388   3.026 -0.2158  0.2173  0.2509
  788SOL    HW1 2363   1.138   0.437   3.016  0.8116 -1.4173  1.2977
  788SOL    HW2 2364   1.308   0.445   2.996  2.2062  1.4816 -0.2076
  789SOL     OW 2365   2.605   0.108   1.823  0.6030  0.0900  0.4412
  789SOL    HW1 2366   2.513   0.157   1.835  3.7178 -0.1245  0.1187
  789SOL    HW2 2367   2.589   0.001   1.811 -2.0130 -2.6890 -0.5928
  790SOL     OW 2368   2.585   2.652   0.863  0.0051 -0.4023 -0.1746
  790SOL    HW1 2369   2.675   2.658   0.804  2.1536 -0.7465 -0.3486
  790SOL    HW2 2370   2.590   2.724   0.941 -0.7610  3.4927  3.0011
  791SOL     OW 2371   1.971   1.264   0.229 -0.2532  0.6409  0.3051
  791SOL    HW1 2372   1.872   1.229   0.237 -1.7659 -0.6800 -2.1544
  791SOL    HW2 2373   2.039   1.191   0.246 -2.1516 -2.5771  0.6123
  792SOL     OW 2374   0.418   1.979   2.179 -0.0987  0.0454  0.8066
  792SOL    HW1 2375   0.457   2.045   2.250  0.0199 -1.5884  0.3887
  792SOL    HW2 2376   0.331   1.934   2.210  0.0411 -0.3556 -1.3628
  793SOL     OW 2377   2.129   1.549   2.130  0.3504  0.0327  0.1105
  793SOL    HW1 2378   2.179   1.636   2.095 -1.1331 -3.4938  1.7463
  793SOL    HW2 2379   2.120   1.472   2.058  0.6820 -0.2522 -0.9836
  794SOL     OW 2380   0.420   1.388   2.460 -0.0974  0.4166  0.0396
  794SOL    HW1 2381   0.424   1.329   2.370  0.4721 -0.0147  0.5266
  794SOL    HW2 2382   0.368   1.482   2.442 -0.8756  1.8256 -1.8406
  795SOL     OW 2383   2.524   2.316   1.800  0.2606 -0.2020 -0.1473
  795SOL    HW1 2384   2.568   2.314   1.893 -0.5816  1.2321  1.5469
  795SOL    HW2 2385   2.428   2.287   1.803  2.9222  0.6596  0.1002
  796SOL     OW 2386   3.074   1.049   2.703 -0.3683  0.1096 -0.1451
  796SOL    HW1 2387   2.996   1.088   2.760  2.4397 -0.9911  1.6590
  796SOL    HW2 2388   3.175   1.058   2.731 -0.4534  1.0418 -0.6655
  797SOL     OW 2389   0.762   0.662   1.339 -0.6897  0.3969  0.7776
  797SOL    HW1 2390   0.812   0.725   1.403 -2.2614 -0.2518  1.6267
  797SOL    HW2 2391   0.702   0.717   1.274  0.7506 -0.8640 -3.1152
  798SOL     OW 2392   1.220   0.449   1.019 -0.6741  0.0141 -0.3274
  798SOL    HW1 2393   1.247   0.504   1.105 -3.1147  1.5098 -3.8739
  798SOL    HW2 2394   1.278   0.466   0.936 -1.0743 -1.4849  0.6107
  799SOL     OW 2395   1.838   2.748   1.024 -0.3930 -0.5951  0.0185
  799SOL    HW1 2396   1.849   2.660   1.070 -2.4888  2.4242  0.2262
  799SOL    HW2 2397   1.897   2.754   0.943 -0.1040  0.5460  0.0625
  800SOL     OW 2398   2.972   0.812   1.850 -0.4291  0.2626 -0.5128
  800SOL    HW1 2399   2.962   0.916   1.852  0.6710 -0.4446 -3.4130
  800SOL    HW2 2400   3.030   0.782   1.930 -1.8697  2.2984 -1.2920
  801SOL     OW 2401   1.962   2.142   0.129 -0.0374  0.2364  0.6495
  801SOL    HW1 2402   1.885   2.116   0.062  0.1102  3.1190 -0.3193
  801SOL    HW2 2403   2.053   2.101   0.101  1.5695  2.5402  0.4545
  802SOL     OW 2404   0.709   0.713   2.542  0.3973  0.1090 -0.2306
  802SOL    HW1 2405   0.755   0.742   2.454  3.1519 -0.4331  2.2892
  802SOL    HW2 2406   0.605   0.708   2.534  1.4140  1.0655 -0.3086
  803SOL     OW 2407   0.929   0.050   0.852 -0.1059 -0.8789  0.1633
  803SOL    HW1 2408   0.987   0.105   0.914 -1.4983 -1.3026  0.2195
  803SOL    HW2 2409   0.899   0.103   0.768  1.2561  0.3091  1.2174
  804SOL     OW 2410   0.270   0.018   2.174  0.1616  0.5216  0.3318
  804SOL    HW1 2411   0.245   0.118   2.185  1.0687 -0.1067  1.0799
  804SOL    HW2 2412   0.214  -0.024   2.095  0.4413 -0.1015  1.5862
  805SOL     OW 2413   2.348   0.391   0.323 -0.0170 -0.0960  0.2324
  805SOL    HW1 2414   2.418   0.377   0.401 -3.2092 -1.9824 -1.3525
  805SOL    HW2 2415   2.364   0.326   0.247 -1.7723  1.0166  0.1847
  806SOL     OW 2416   0.630   2.488   1.835  0.1880  0.1389 -0.1429
  806SOL    HW1 2417   0.570   2.573   1.839  0.5686 -0.1532  1.1071
  806SOL    HW2 2418   0.721   2.510   1.788  0.7831  0.1937  2.7153
  807SOL     OW 2419   2.531   0.944   0.435  0.7438  0.5590 -0.3129
  807SOL    HW1 2420   2.615   0.885   0.449  0.1802 -1.0461  0.1683
  807SOL    HW2 2421   2.518   0.961   0.339 -1.2257  1.5585  3.7799
  808SOL     OW 2422   0.593   2.019   2.890  0.3199  0.0320  0.2712
  808SOL    HW1 2423   0.595   2.056   2.989 -1.6328  0.2112 -1.3306
  808SOL    HW2 2424   0.606   1.917   2.877 -3.3294 -0.0097  2.0277
  809SOL     OW 2425   2.543   2.008   1.871  0.0627  0.2627 -0.3446
  809SOL    HW1 2426   2.627   2.064   1.884 -0.3768  0.6615  1.7757
  809SOL    HW2 2427   2.523   1.986   1.773  2.0824 -1.8534  3.0405
  810SOL     OW 2428   2.143   1.086   0.526  0.2254 -0.2476  0.2830
  810SOL    HW1 2429   2.123   1.016   0.596  0.8238 -0.6907 -3.4477
  810SOL    HW2 2430   2.096   1.175   0.539 -0.6549 -0.5900 -1.3364
  811SOL     OW 2431   1.318   2.544   1.191 -0.6373 -0.6356 -0.5255
  811SOL    HW1 2432   1.304   2.446   1.212 -0.5110  0.2070  1.5806
  811SOL    HW2 2433   1.289   2.606   1.267 -0.7314 -2.1213  0.3192
  812SOL     OW 2434   1.380   0.774   1.924  0.2652  0.1970  0.0468
  812SOL    HW1 2435   1.281   0.760   1.922  0.9328  0.0567  4.0101
  812SOL    HW2 2436   1.424   0.854   1.876  1.2463 -0.5045 -1.4522
  813SOL     OW 2437   1.581   2.048   2.416 -0.3393 -0.0090 -0.0200
  813SOL    HW1 2438   1.658   1.993   2.456 -0.9699  0.7102  1.5934
  813SOL    HW2 2439   1.578   2.047   2.310  0.9700  0.3648 -0.6202
  814SOL     OW 2440   2.963   1.698   2.896  0.4268  0.4317  0.0671
  814SOL    HW1 2441   3.030   1.680   2.973 -2.5136  0.0165  0.9791
  814SOL    HW2 2442   2.969   1.803   2.864 -1.9848  1.4200  0.7669
  815SOL     OW 2443   2.180   2.903   2.766 -0.0547  0.0720  0.7049
  815SOL    HW1 2444   2.169   2.816   2.826  0.1180  1.3051 -0.3983
  815SOL    HW2 2445   2.263   2.959   2.794  0.3055 -0.2213 -2.1979
  816SOL     OW 2446   1.540   0.370   1.657 -0.5469 -0.1643  0.2925
  816SOL    HW1 2447   1.603   0.301   1.697 -1.2972 -2.4630 -2.7942
  816SOL    HW2 2448   1.465   0.397   1.721  1.8635  1.2095 -0.5918
  817SOL     OW 2449   0.411   1.176   2.655  0.1208  0.3076  0.1795
  817SOL    HW1 2450   0.330   1.186   2.720 -1.5521  2.5509  1.3263
  817SOL    HW2 2451   0.417   1.263   2.593 -2.7672  2.4493 -1.1543
  818SOL     OW 2452   1.975   0.818   0.450  0.4021  0.0608  0.2960
  818SOL    HW1 2453   2.077   0.812   0.433 -0.7389 -0.1496  0.0876
  818SOL    HW2 2454   1.947   0.863   0.537  1.1594  0.8819 -0.3126
  819SOL     OW 2455   2.742   2.961   3.085  0.2168 -1.1718  0.0036
  819SOL    HW1 2456   2.755   2.885   3.151  0.9185  1.4572 -1.3061
  819SOL    HW2 2457   2.697   2.934   2.996  0.3618 -3.4228  1.2972
  820SOL     OW 2458   1.258   1.050   0.527  0.2290 -0.0956  0.1595
  820SOL    HW1 2459   1.295   1.149   0.552 -0.7278  2.7336 -0.1458
  820SOL    HW2 2460   1.250   0.993   0.614 -0.3679 -1.8986 -0.1674
  821SOL     OW 2461   0.051   1.205   0.730  0.4593 -0.1145  0.3716
  821SOL    HW1 2462   0.011   1.193   0.822 -0.2729 -1.6227  0.2476
  821SOL    HW2 2463   0.091   1.301   0.719 -0.6935 -2.4134 -1.2351
  822SOL     OW 2464   2.504   1.796   2.437 -0.5280  0.2803 -0.4605
  822SOL    HW1 2465   2.494   1.861   2.518 -0.9799 -2.4480 -0.1524
  822SOL    HW2 2466   2.415   1.786   2.386  0.9332 -0.7056  0.5818
  823SOL     OW 2467   2.002   0.942   1.176  0.7977  0.4399 -0.3221
  823SOL    HW1 2468   1.980   0.899   1.269  0.0122  3.0875 -2.7766
  823SOL    HW2 2469   1.911   0.964   1.124 -2.4951  1.8807  2.5664
  824SOL     OW 2470   0.223   1.951   2.789 -0.3649 -0.2971  0.1596
  824SOL    HW1 2471   0.241   1.892   2.872 -0.3738 -3.2116 -0.0513
  824SOL    HW2 2472   0.285   1.934   2.707  3.3507 -3.7731  1.6714
  825SOL     OW 2473   1.329   1.087   0.256 -0.0756 -0.2407 -0.0149
  825SOL    HW1 2474   1.331   1.187   0.224 -0.5920  1.8392 -1.7043
  825SOL    HW2 2475   1.279   1.067   0.347  1.2223  1.1535 -0.1467
  826SOL     OW 2476   1.926   0.599   1.584  0.0100 -0.4410  0.5682
  826SOL    HW1 2477   2.016   0.580   1.633  0.0011  0.3462 -0.2690
  826SOL    HW2 2478   1.872   0.515   1.561 -0.3404  1.6047  0.0947
  827SOL     OW 2479   0.698   1.162   0.366  0.3093 -0.3079  0.2803
  827SOL    HW1 2480   0.753   1.100   0.306  0.7058 -0.2819 -1.4442
  827SOL    HW2 2481   0.609   1.116   0.400 -0.0310 -2.2687  1.6065
  828SOL     OW 2482   2.661   0.125   1.523 -0.5102  0.0166  0.1744
  828SOL    HW1 2483   2.559   0.107   1.506 -1.0031  0.0669  0.1580
  828SOL    HW2 2484   2.681   0.133   1.623 -1.7587 -0.5863  0.0377
  829SOL     OW 2485   2.959   2.401   2.879 -0.0719  0.0421  0.6113
  829SOL    HW1 2486   2.861   2.374   2.899 -1.0568 -0.9349  0.7361
  829SOL    HW2 2487   2.964   2.498   2.843 -0.3344 -0.0631  0.2283
  830SOL     OW 2488   2.895   0.919   3.045  0.1175 -0.2168  0.0853
  830SOL    HW1 2489   2.949   0.993   3.099 -0.0943  1.0685  2.0721
  830SOL    HW2 2490   2.893   0.825   3.091 -0.9598 -2.6880 -1.1386
  831SOL     OW 2491   0.023   0.564   0.402  0.4655  0.1747 -0.0542
  831SOL    HW1 2492   0.020   0.496   0.479 -0.3213  1.6090  0.5860
  831SOL    HW2 2493   0.042   0.521   0.307  0.1278 -2.0583  1.0720
  832SOL     OW 2494   1.819   0.774   3.079 -0.4405 -0.4630 -0.4392
  832SOL    HW1 2495   1.750   0.799   3.003  1.6980 -2.5967 -0.1908
  832SOL    HW2 2496   1.806   0.675   3.105  1.2094  1.2140 -0.2546
  833SOL     OW 2497   2.403   2.075   0.466 -0.1004  1.0717  0.5000
  833SOL    HW1 2498   2.306   2.031   0.459  1.1440  0.4918 -0.8561
  833SOL    HW2 2499   2.478   2.002   0.470  0.9480 -1.4618 -0.0093
  834SOL     OW 2500   0.209   0.124   0.567  0.2049 -0.6426  0.4093
  834SOL    HW1 2501   0.257   0.035   0.595  1.7798  1.2280 -1.3409
  834SOL    HW2 2502   0.187   0.126   0.462 -0.2399  1.1627 -2.2775
  835SOL     OW 2503   2.469   1.520   1.146 -0.7373 -0.2506 -0.9108
  835SOL    HW1 2504   2.550   1.565   1.186 -1.4226 -0.4746 -0.2418
  835SOL    HW2 2505   2.483   1.510   1.044 -2.9100 -1.5154  2.0739
  836SOL     OW 2506   1.611   0.829   2.591 -0.4665 -0.3058 -0.3151
  836SOL    HW1 2507   1.512   0.795   2.595  0.6606  0.8200 -2.2011
  836SOL    HW2 2508   1.645   0.849   2.494  0.5950 -0.4097  1.1411
  837SOL     OW 2509   1.703   0.089   0.603  0.6539  0.3902 -0.3959
  837SOL    HW1 2510   1.688   0.185   0.648  0.3811  0.5959  1.9104
  837SOL    HW2 2511   1.649   0.078   0.515  1.4967  0.4955  1.3385
  838SOL     OW 2512   1.252   1.383   2.702 -0.4395 -0.0218 -0.2334
  838SOL    HW1 2513   1.212   1.453   2.769  2.1355  2.3535 -0.0482
  838SOL    HW2 2514   1.187   1.307   2.679 -1.7319  1.6877  1.6324
  839SOL     OW 2515   1.571   0.348   0.971  0.0358  0.2757  0.3860
  839SOL    HW1 2516   1.568   0.407   1.059 -2.7406  2.2208 -0.3535
  839SOL    HW2 2517   1.558   0.244   0.982 -1.1234 -0.1708 -2.4037
  840SOL     OW 2518   2.590   2.945   1.725 -0.5775  0.3292 -0.5052
  840SOL    HW1 2519   2.556   2.939   1.629  1.8721 -0.3639 -0.5765
  840SOL    HW2 2520   2.553   2.875   1.792  1.1133  0.0134  0.1082
  841SOL     OW 2521   1.538   0.851   2.938  0.1346 -0.4152 -0.1287
  841SOL    HW1 2522   1.504   0.828   3.033 -3.1546  1.7316 -1.1481
  841SOL    HW2 2523   1.492   0.939   2.899 -1.2169  1.0408 -1.3587
  842SOL     OW 2524   0.803   1.560   0.994  0.4621 -0.0298  0.1221
  842SOL    HW1 2525   0.781   1.658   1.031 -0.1194  1.5604 -0.2613
  842SOL    HW2 2526   0.731   1.524   0.932 -1.6784 -0.5731  1.3056
  843SOL     OW 2527   0.126   0.105   1.430  0.0113  0.3063  0.1387
  843SOL    HW1 2528   0.197   0.151   1.488 -0.4243  1.0774  1.4416
  843SOL    HW2 2529   0.154   0.016   1.393 -1.5589  0.7423  2.4465
  844SOL     OW 2530   0.773   2.513   0.233 -0.2229  0.3543 -0.6403
  844SOL    HW1 2531   0.735   2.519   0.329 -0.9806 -0.8955  0.7600
  844SOL    HW2 2532   0.700   2.546   0.168  0.2081  3.6393 -0.7919
  845SOL     OW 2533   1.681   2.954   1.303 -0.2443 -0.1935 -0.5752
  845SOL    HW1 2534   1.640   3.038   1.349 -1.5194 -0.1971 -2.9896
  845SOL    HW2 2535   1.625   2.930   1.220  0.0062 -1.9927 -0.3598
  846SOL     OW 2536   1.716   2.959   0.906 -0.1403  0.4568 -0.1376
  846SOL    HW1 2537   1.738   2.972   0.806 -1.2601  0.0064  0.9466
  846SOL    HW2 2538   1.753   2.867   0.940 -0.5167 -0.2899 -0.9328
  847SOL     OW 2539   2.063   1.613   0.208 -0.5337 -0.2334 -0.0893
  847SOL    HW1 2540   2.028   1.568   0.297 -0.5195 -0.3318 -0.9175
  847SOL    HW2 2541   1.999   1.605   0.131 -0.4737  0.4312  2.2157
  848SOL     OW 2542   2.462   0.851   2.655  0.0567  0.6117  0.1139
  848SOL    HW1 2543   2.477   0.947   2.683 -0.7319 -2.5023 -0.3704
  848SOL    HW2 2544   2.375   0.839   2.603 -1.1979  2.3502 -0.8235
  849SOL     OW 2545   2.416   0.875   2.301  0.0425  0.5834 -0.6695
  849SOL    HW1 2546   2.477   0.806   2.263  1.7841  2.6736  0.4343
  849SOL    HW2 2547   2.349   0.834   2.372  0.1642  1.2483 -0.8499
  850SOL     OW 2548   1.604   0.156   1.261  0.0582  0.2310 -0.3176
  850SOL    HW1 2549   1.556   0.130   1.170 -1.9106  1.5954  0.6525
  850SOL    HW2 2550   1.543   0.149   1.345 -2.5691 -0.4590 -1.9213
  851SOL     OW 2551   0.474   1.774   0.684  0.3123  0.1622 -0.0372
  851SOL    HW1 2552   0.462   1.876   0.682 -0.5082  0.6832  0.0395
  851SOL    HW2 2553   0.570   1.741   0.711  0.0191 -1.8765  0.5239
  852SOL     OW 2554   0.765   2.125   1.686  0.0100  0.4125  0.0107
  852SOL    HW1 2555   0.802   2.215   1.657 -1.3080 -1.9085  3.1628
  852SOL    HW2 2556   0.696   2.121   1.765 -2.4453 -2.6160  1.2130
  853SOL     OW 2557   2.522   1.543   2.578 -0.4262 -0.3051 -0.2142
  853SOL    HW1 2558   2.474   1.459   2.541  2.2734 -0.4070  0.4565
  853SOL    HW2 2559   2.522   1.621   2.516 -0.1212 -0.8022  1.6370
  854SOL     OW 2560   2.379   1.396   1.770 -0.8730 -0.0157 -0.1750
  854SOL    HW1 2561   2.459   1.359   1.712  0.2328  1.9054  0.3500
  854SOL    HW2 2562   2.312   1.321   1.794  1.6188  0.4504  2.9909
  855SOL     OW 2563   2.040   2.302   0.959  0.3778 -0.5209 -0.0710
  855SOL    HW1 2564   2.064   2.390   0.910 -0.5462 -0.2873  3.5989
  855SOL    HW2 2565   2.090   2.305   1.046 -0.8012 -0.6280 -2.4177
  856SOL     OW 2566   1.424   1.353   0.884 -0.2824 -0.1469 -0.3833
  856SOL    HW1 2567   1.426   1.458   0.915  1.2936  3.3980  2.0782
  856SOL    HW2 2568   1.370   1.291   0.949  3.2532 -1.4109  0.1219
  857SOL     OW 2569   2.989   2.555   1.060 -0.2192 -0.4818 -0.2860
  857SOL    HW1 2570   2.899   2.499   1.052 -0.8597  0.3370  2.7459
  857SOL    HW2 2571   3.074   2.511   1.025 -1.2009  2.5038 -1.3787
  858SOL     OW 2572   2.282   2.168   1.761 -0.0552 -0.3567  0.1673
  858SOL    HW1 2573   2.181   2.176   1.724 -0.6032 -1.9438 -2.4355
  858SOL    HW2 2574   2.338   2.117   1.689  1.1186 -1.0960  0.2453
  859SOL     OW 2575   2.452   0.502   1.028 -0.5884  0.0377 -0.1596
  859SOL    HW1 2576   2.512   0.513   0.943 -0.8905  0.8733  4.6050
  859SOL    HW2 2577   2.487   0.426   1.093  2.6640 -0.6600  0.2469
  860SOL     OW 2578   1.963   2.748   0.464 -0.1423 -0.2251  0.0024
  860SOL    HW1 2579   1.942   2.705   0.374 -1.1811  0.2891  2.1469
  860SOL    HW2 2580   2.017   2.836   0.447 -0.4941 -2.8417 -0.4973
  861SOL     OW 2581   1.100   2.589   2.771 -0.0730 -0.5683  0.2384
  861SOL    HW1 2582   1.147   2.677   2.749 -0.9676 -2.0260 -2.1853
  861SOL    HW2 2583   1.096   2.568   2.870 -3.3225  1.3171 -2.2024
  862SOL     OW 2584   2.933   2.553   1.543  0.3708  0.0542 -0.1350
  862SOL    HW1 2585   2.983   2.572   1.628  2.7865 -0.1754 -2.9607
  862SOL    HW2 2586   2.858   2.619   1.517 -1.9668  1.7888  0.5084
  863SOL     OW 2587   1.908   2.623   0.242  0.5323  0.1319  0.6575
  863SOL    HW1 2588   1.942   2.526   0.228  2.8000  4.0264 -0.5060
  863SOL    HW2 2589   1.808   2.620   0.264  0.7827 -1.6805 -2.0057
  864SOL     OW 2590   1.858   1.193   2.953  0.4458 -0.2123  0.1194
  864SOL    HW1 2591   1.853   1.138   2.862 -1.7581 -2.0037 -1.0345
  864SOL    HW2 2592   1.948   1.182   3.007 -0.6875  1.4090 -0.3493
  865SOL     OW 2593   2.157   1.752   0.677 -0.7682 -0.3301  0.1747
  865SOL    HW1 2594   2.214   1.782   0.764  1.8550  0.6085  0.7296
  865SOL    HW2 2595   2.064   1.707   0.708 -1.6914 -3.4958  1.3297
  866SOL     OW 2596   2.921   2.865   1.019 -0.4349 -0.4355  0.1458
  866SOL    HW1 2597   2.981   2.896   0.940  0.9066 -1.5293 -3.3171
  866SOL    HW2 2598   2.943   2.767   1.051 -2.5713  0.4228 -0.3887
  867SOL     OW 2599   0.422   1.329   0.873  0.2722 -0.0810 -0.0983
  867SOL    HW1 2600   0.419   1.227   0.858 -0.2582 -1.4359  2.3380
  867SOL    HW2 2601   0.335   1.375   0.832  1.3041 -0.3098 -0.8867
  868SOL     OW 2602   0.825   1.910   1.992  0.3788 -0.0884 -0.9177
  868SOL    HW1 2603   0.810   1.889   2.098 -0.2928 -0.3055  1.4404
  868SOL    HW2 2604   0.801   2.008   1.971 -1.9488 -2.8515 -1.3816
  869SOL     OW 2605   2.496   2.011   1.611  0.1913  0.2695  0.3539
  869SOL    HW1 2606   2.569   2.061   1.560 -1.9102  1.6594  0.9114
  869SOL    HW2 2607   2.476   1.919   1.570 -0.4235  1.4840  1.0953
  870SOL     OW 2608   2.322   2.558   1.229  0.9502  0.0427 -0.1417
  870SOL    HW1 2609   2.243   2.495   1.218 -0.2038 -1.4413 -1.4249
  870SOL    HW2 2610   2.379   2.539   1.315  1.7251  0.1443 -0.9519
  871SOL     OW 2611   2.982   2.065   0.566 -0.1928 -0.4190 -0.4055
  871SOL    HW1 2612   2.887   2.096   0.565 -0.7235 -3.1870  2.4149
  871SOL    HW2 2613   2.994   1.994   0.490  0.7201 -0.4902  0.3067
  872SOL     OW 2614   2.150   0.509   1.704  0.3421  0.0983 -0.1444
  872SOL    HW1 2615   2.112   0.522   1.801 -1.4495  0.5143  0.8571
  872SOL    HW2 2616   2.248   0.469   1.700  0.9230 -1.0154  2.0142
  873SOL     OW 2617   1.728   2.116   2.950 -0.1618  0.3182 -0.5333
  873SOL    HW1 2618   1.714   2.215   2.932 -0.6824 -1.0335  0.5997
  873SOL    HW2 2619   1.688   2.057   2.875 -2.3713 -0.0770  2.6946
  874SOL     OW 2620   0.686   2.484   0.776  0.6345 -0.4560  0.0543
  874SOL    HW1 2621   0.674   2.585   0.801 -0.4902  2.3531  2.0558
  874SOL    HW2 2622   0.786   2.453   0.789  0.5746  1.2114 -0.6621
  875SOL     OW 2623   2.278   1.543   1.493  0.4715 -0.6861  0.1527
  875SOL    HW1 2624   2.378   1.569   1.505 -2.4913  0.7109 -3.5121
  875SOL    HW2 2625   2.226   1.591   1.420  0.7282 -0.2376  0.7364
  876SOL     OW 2626   0.142   2.203   2.679 -0.1413 -0.3379 -0.2020
  876SOL    HW1 2627   0.145   2.108   2.718 -0.6952  1.5276 -2.2327
  876SOL    HW2 2628   0.192   2.276   2.734 -0.5532  1.3972  0.6205
  877SOL     OW 2629   2.784   2.686   0.640  0.0812  0.4004 -0.4174
  877SOL    HW1 2630   2.859   2.751   0.624 -2.1330 -1.7918 -2.7710
  877SOL    HW2 2631   2.830   2.592   0.665  3.1238  0.3166 -0.3122
  878SOL     OW 2632   2.884   1.465   2.187 -0.3091  1.0375 -0.3465
  878SOL    HW1 2633   2.986   1.487   2.192  1.8498 -2.4669 -0.9755
  878SOL    HW2 2634   2.830   1.494   2.271 -0.8066 -0.0668  3.2123
  879SOL     OW 2635   2.380   0.019   1.188 -0.2825 -0.2666 -0.1768
  879SOL    HW1 2636   2.436  -0.070   1.189 -0.4019  0.0385  0.9953
  879SOL    HW2 2637   2.296   0.021   1.128 -0.7848  1.2691  2.0654
  880SOL     OW 2638   0.710   0.455   2.155 -0.5886 -0.2153 -0.5190
  880SOL    HW1 2639   0.641   0.414   2.214 -0.9611 -2.8267 -1.8097
  880SOL    HW2 2640   0.771   0.387   2.112  0.8566  0.5321  1.1676
  881SOL     OW 2641   0.914   0.039   0.414 -0.1210  0.3022 -0.1310
  881SOL    HW1 2642   0.931  -0.056   0.458  2.4390 -3.3454  0.1984
  881SOL    HW2 2643   0.878   0.024   0.321  0.4755  0.2620  1.5958
  882SOL     OW 2644   2.732   1.633   1.687  0.0729  0.4407  0.5535
  882SOL    HW1 2645   2.833   1.616   1.669  2.3253  0.5787  0.6209
  882SOL    HW2 2646   2.714   1.684   1.776 -1.9897 -3.0845 -1.5046
  883SOL     OW 2647   0.975   0.574   0.961 -0.1169 -0.2481 -0.2605
  883SOL    HW1 2648   0.992   0.672   1.002 -0.9818  1.6339  0.3493
  883SOL    HW2 2649   1.052   0.507   0.965  1.8275  0.8821 -2.3296
  884SOL     OW 2650   1.187   1.907   1.027 -0.0415  0.4794 -0.7623
  884SOL    HW1 2651   1.150   1.874   0.937 -0.7717  1.6839  0.7999
  884SOL    HW2 2652   1.141   1.993   1.054  2.0425  0.7648  0.3883
  885SOL     OW 2653   2.272   1.851   2.311 -0.1113 -0.7280  0.0375
  885SOL    HW1 2654   2.214   1.789   2.374 -0.3071 -0.4268  0.5880
  885SOL    HW2 2655   2.249   1.953   2.330 -0.0159  3.6956 -0.1314
  886SOL     OW 2656   2.674   0.458   1.793  0.0593  0.0724 -0.1144
  886SOL    HW1 2657   2.714   0.400   1.867 -1.9082 -0.2433  2.6387
  886SOL    HW2 2658   2.737   0.527   1.752 -1.3865 -1.6118 -0.1007
  887SOL     OW 2659   0.091   2.065   1.270 -0.0235 -0.1077  0.3140
  887SOL    HW1 2660   0.015   2.015   1.224 -0.9064  2.1443  0.5598
  887SOL    HW2 2661   0.147   2.125   1.202  1.3352  1.1390  0.5918
  888SOL     OW 2662   0.559   1.283   1.521  0.1625 -0.1849 -0.9502
  888SOL    HW1 2663   0.624   1.315   1.446  2.3640  0.6854 -1.0646
  888SOL    HW2 2664   0.499   1.205   1.502  1.1171  1.8640 -0.2244
  889SOL     OW 2665   0.848   2.495   2.118 -0.5876  0.6132  0.0465
  889SOL    HW1 2666   0.762   2.462   2.070  0.3792 -1.0643  0.5750
  889SOL    HW2 2667   0.928   2.500   2.045  2.6014  0.1363 -1.3782
  890SOL     OW 2668   2.377   2.469   0.190  0.1447 -0.3502  0.1586
  890SOL    HW1 2669   2.424   2.530   0.118  1.1418 -1.4787 -1.4897
  890SOL    HW2 2670   2.274   2.487   0.206 -0.5096  0.7952  0.2570
  891SOL     OW 2671   2.635   1.510   0.638 -0.7359 -0.1364  0.3960
  891SOL    HW1 2672   2.619   1.475   0.735  1.3703 -3.0274  3.7328
  891SOL    HW2 2673   2.546   1.555   0.606 -4.1369 -2.5844  0.3200
  892SOL     OW 2674   0.264   0.290   2.236  0.0171  0.2113 -0.2377
  892SOL    HW1 2675   0.269   0.287   2.132  2.1542  0.8574  0.4155
  892SOL    HW2 2676   0.355   0.319   2.283  0.1161  0.6736  0.3961
  893SOL     OW 2677   1.685   0.230   2.756 -0.0744  0.1592 -0.3884
  893SOL    HW1 2678   1.751   0.312   2.750  0.4421  1.6670  0.4967
  893SOL    HW2 2679   1.586   0.267   2.758 -1.3100 -0.0635  0.6319
  894SOL     OW 2680   2.226   2.013   0.040 -0.2561 -0.4728 -0.5036
  894SOL    HW1 2681   2.199   1.948  -0.034  0.6531  1.7114  0.1562
  894SOL    HW2 2682   2.258   1.967   0.132 -2.5968 -2.2558  1.3803
  895SOL     OW 2683   2.910   1.449   0.834  0.2662  0.2307 -0.6185
  895SOL    HW1 2684   2.971   1.382   0.884 -1.6367 -0.2196 -1.3334
  895SOL    HW2 2685   2.964   1.522   0.781  1.9731  3.2383  0.4543
  896SOL     OW 2686   1.719   1.780   1.156 -0.0976  0.1911 -0.0778
  896SOL    HW1 2687   1.772   1.849   1.099  1.4910  2.0374  1.2321
  896SOL    HW2 2688   1.619   1.779   1.137  1.0993 -1.0437  0.5041
  897SOL     OW 2689   0.264   0.545   3.070  0.0362  0.0041  0.3840
  897SOL    HW1 2690   0.217   0.598   2.998 -1.4297 -1.0695 -0.2151
  897SOL    HW2 2691   0.358   0.574   3.084  0.5100 -0.7822  1.3300
  898SOL     OW 2692   0.575   2.837   1.121  0.1857  0.0031 -0.0835
  898SOL    HW1 2693   0.517   2.920   1.153 -0.1807  0.9369  0.7876
  898SOL    HW2 2694   0.679   2.852   1.128  0.1330  1.5801 -0.0784
  899SOL     OW 2695   2.691   0.952   1.236 -0.4204 -0.4760 -0.6832
  899SOL    HW1 2696   2.609   0.917   1.183 -3.5354  0.2331  2.3525
  899SOL    HW2 2697   2.783   0.947   1.185  0.0336  0.8430  0.2922
  900SOL     OW 2698   1.013   2.516   2.346  0.1393 -1.3299  0.4701
  900SOL    HW1 2699   0.934   2.503   2.279 -0.4470  0.4154 -0.3409
  900SOL    HW2 2700   0.990   2.510   2.441 -0.5535  2.8013 -0.2746
  901SOL     OW 2701   1.909   2.445   1.378 -0.6242 -0.2691  0.1705
  901SOL    HW1 2702   1.886   2.464   1.281  0.4160  0.2727 -2.3918
  901SOL    HW2 2703   1.998   2.394   1.388  2.1016 -0.3868 -2.1610
  902SOL     OW 2704   2.584   1.624   1.440 -0.1186 -0.0480  0.3953
  902SOL    HW1 2705   2.635   1.624   1.531  0.9776  3.0353 -2.6017
  902SOL    HW2 2706   2.635   1.581   1.363  0.1907 -1.8604 -0.2016
  903SOL     OW 2707   0.254   2.427   2.025  0.1423 -0.7151 -0.1476
  903SOL    HW1 2708   0.178   2.356   2.015  0.9469  1.5077  1.9666
  903SOL    HW2 2709   0.277   2.487   1.941  2.2119  0.0398 -0.9262
  904SOL     OW 2710   1.982   0.791   2.473 -0.5281  0.5296  0.7153
  904SOL    HW1 2711   1.948   0.708   2.518 -0.1119  1.8595  0.5526
  904SOL    HW2 2712   1.939   0.804   2.378  2.8006  0.6373 -0.2515
  905SOL     OW 2713   2.765   0.031   2.591 -0.2597 -0.1521  0.0408
  905SOL    HW1 2714   2.839  -0.038   2.623  2.0302 -0.9891  1.0711
  905SOL    HW2 2715   2.802   0.122   2.553  1.1338 -1.0345 -0.2086
  906SOL     OW 2716   0.197   1.783   1.881 -0.4448 -0.4310 -0.2328
  906SOL    HW1 2717   0.155   1.785   1.787 -1.3004  0.6414  0.7237
  906SOL    HW2 2718   0.285   1.839   1.886  0.9790 -0.5621 -0.6768
  907SOL     OW 2719   0.152   2.501   1.026 -0.1705 -0.3295 -0.1901
  907SOL    HW1 2720   0.227   2.568   1.055  0.0128 -2.4329  3.9729
  907SOL    HW2 2721   0.138   2.484   0.923  0.7414 -1.3787  0.0353
  908SOL     OW 2722   2.683   2.955   0.439 -0.6607 -0.3848 -0.8316
  908SOL    HW1 2723   2.652   3.000   0.348 -1.0259  0.9823 -2.8926
  908SOL    HW2 2724   2.666   2.850   0.443  0.9965 -1.6336  2.7266
  909SOL     OW 2725   0.829   0.914   2.674  0.0202 -0.0789 -0.4086
  909SOL    HW1 2726   0.807   0.828   2.621  1.4103 -1.0983  0.3740
  909SOL    HW2 2727   0.902   0.966   2.623 -1.0307  1.8356  0.4125
  910SOL     OW 2728   1.765   1.799   2.074 -0.0093 -0.0918 -0.6808
  910SOL    HW1 2729   1.824   1.807   1.988  0.2915  1.2064  0.4219
  910SOL    HW2 2730   1.680   1.861   2.072 -0.9201 -1.0456 -0.8224
  911SOL     OW 2731   1.766   3.011   1.626 -0.4843  0.2710  0.0547
  911SOL    HW1 2732   1.839   2.968   1.568  0.0399  0.9076  1.9161
  911SOL    HW2 2733   1.764   2.957   1.714  1.4029  0.8493 -0.5668
  912SOL     OW 2734   2.853   0.950   0.777 -0.2330 -0.0901  0.0815
  912SOL    HW1 2735   2.868   0.936   0.880 -2.8594  0.1672  2.2653
  912SOL    HW2 2736   2.828   1.048   0.756 -0.7504 -0.4493  1.2232
  913SOL     OW 2737   2.529   1.292   1.558 -0.0981 -0.4113 -0.3083
  913SOL    HW1 2738   2.545   1.191   1.566 -1.1569  1.5145 -2.1585
  913SOL    HW2 2739   2.590   1.339   1.485  0.6405  2.7113 -2.4559
  914SOL     OW 2740   2.812   0.528   1.221  0.2360 -0.0613  0.0871
  914SOL    HW1 2741   2.811   0.433   1.257  1.1985  1.0285 -1.1753
  914SOL    HW2 2742   2.751   0.582   1.285 -0.3045 -1.4009  2.0836
  915SOL     OW 2743   1.229   0.789   1.012 -0.1558 -0.0592 -0.0605
  915SOL    HW1 2744   1.308   0.831   1.066  1.3778 -1.4556  0.0171
  915SOL    HW2 2745   1.136   0.821   1.047  2.0299 -1.1823 -0.2903
  916SOL     OW 2746   0.544   0.035   0.659 -0.3784 -0.0404 -0.4466
  916SOL    HW1 2747   0.590   0.081   0.739 -2.4457  1.0909  0.2332
  916SOL    HW2 2748   0.583   0.078   0.572  2.0430  1.6227  1.2676
  917SOL     OW 2749   2.778   2.616   1.963 -0.5484 -0.4630  0.0421
  917SOL    HW1 2750   2.675   2.645   1.965 -1.5784  1.4249 -1.1917
  917SOL    HW2 2751   2.844   2.686   1.928  2.4583 -1.2884  0.2906
  918SOL     OW 2752   0.981   2.172   3.005 -0.0456 -0.6809  0.4954
  918SOL    HW1 2753   0.938   2.189   3.097  3.0280  0.2759 -0.4657
  918SOL    HW2 2754   1.038   2.086   3.005  0.2158 -0.3723 -1.4172
  919SOL     OW 2755   0.930   1.584   2.774  0.3609  0.2493  0.0664
  919SOL    HW1 2756   0.951   1.658   2.705  0.0040  2.7810  0.2745
  919SOL    HW2 2757   0.858   1.515   2.743 -1.4192 -0.3677 -0.6783
  920SOL     OW 2758   1.245   2.032   2.494 -0.2923  0.3374 -0.1082
  920SOL    HW1 2759   1.194   2.078   2.421  1.3259  0.6020  3.1206
  920SOL    HW2 2760   1.280   1.939   2.473  0.6661  2.0797  1.5517
  921SOL     OW 2761   1.107   0.032   2.569 -0.4893  0.1287  0.4609
  921SOL    HW1 2762   1.088   0.043   2.466 -1.2536 -0.1742 -1.7043
  921SOL    HW2 2763   1.020   0.021   2.620  0.1597 -1.0518 -3.9106
  922SOL     OW 2764   2.190   2.374   2.791  0.4397 -0.2785 -0.2017
  922SOL    HW1 2765   2.160   2.277   2.805  0.4486 -1.1319 -1.1179
  922SOL    HW2 2766   2.139   2.426   2.718  1.2208  1.7706 -0.2271
  923SOL     OW 2767   1.235   2.685   0.278  0.7940 -0.5476  0.6123
  923SOL    HW1 2768   1.312   2.729   0.332 -2.4545 -0.0929  1.1711
  923SOL    HW2 2769   1.244   2.585   0.252  1.8675 -1.0703 -1.2515
  924SOL     OW 2770   2.918   1.564   0.085 -0.1916 -0.0754 -0.2541
  924SOL    HW1 2771   2.847   1.588   0.014 -1.7935  2.1216 -0.3123
  924SOL    HW2 2772   3.003   1.521   0.049 -0.6672  0.1231 -0.4032
  925SOL     OW 2773   0.021   2.875   1.582  0.6294 -0.5912 -0.2407
  925SOL    HW1 2774  -0.077   2.914   1.586 -1.1519 -0.8320 -0.8813
  925SOL    HW2 2775   0.071   2.905   1.495 -0.1582 -0.9238  0.9361
  926SOL     OW 2776   1.351   2.895   1.308  0.3806  0.4524 -0.0140
  926SOL    HW1 2777   1.398   2.873   1.217 -1.7180 -0.8137 -0.6128
  926SOL    HW2 2778   1.386   2.984   1.343  1.1247  0.5830  0.6457
  927SOL     OW 2779   0.273   2.587   1.807  0.0832 -0.9412 -0.2273
  927SOL    HW1 2780   0.247   2.528   1.727  0.8757  1.2970 -2.4528
  927SOL    HW2 2781   0.262   2.690   1.778  1.8824 -0.6123 -1.6232
  928SOL     OW 2782   1.549   2.022   2.131 -0.1781 -0.5221  0.1201
  928SOL    HW1 2783   1.585   2.121   2.125 -1.9045  2.9298  0.4869
  928SOL    HW2 2784   1.448   2.021   2.090 -2.8551  1.3058 -0.7125
  929SOL     OW 2785   2.430   2.492   2.862  0.5966  0.0497  0.2164
  929SOL    HW1 2786   2.332   2.456   2.870 -2.9660 -2.3775  0.3979
  929SOL    HW2 2787   2.473   2.495   2.770 -0.8169  0.0447  1.7175
  930SOL     OW 2788   2.187   2.008   1.075  0.4533 -0.2906  0.0911
  930SOL    HW1 2789   2.176   1.995   1.179 -4.8642 -0.3971  1.4610
  930SOL    HW2 2790   2.278   2.052   1.047  1.6974 -0.8212 -1.9232
  931SOL     OW 2791   0.542   1.698   2.636 -0.2949  0.2715 -0.5597
  931SOL    HW1 2792   0.611   1.713   2.711 -1.4479 -0.0067 -2.4762
  931SOL    HW2 2793   0.519   1.600   2.625  2.2539  0.6319  3.4069
  932SOL     OW 2794   0.458   0.070   2.910  0.5585  0.8784  0.3471
  932SOL    HW1 2795   0.562   0.090   2.896  0.0349 -1.1937 -0.3187
  932SOL    HW2 2796   0.432  -0.003   2.978  0.9552 -1.8196 -0.6848
  933SOL     OW 2797   1.047   0.795   2.988 -0.4073  0.4193  0.3151
  933SOL    HW1 2798   1.115   0.824   3.061 -0.1228  0.6694 -0.8498
  933SOL    HW2 2799   1.001   0.881   2.954  1.3912 -0.1695 -1.2645
  934SOL     OW 2800   0.896   3.036   2.728  0.1801  0.1287  0.0204
  934SOL    HW1 2801   0.904   2.956   2.657 -3.1536 -0.9762  0.8324
  934SOL    HW2 2802   0.900   2.986   2.821  2.5391  0.0017  1.8377
  935SOL     OW 2803   3.086   0.524   0.813  0.4118 -0.1542  0.3110
  935SOL    HW1 2804   3.088   0.428   0.772  0.0269  1.4848  2.2004
  935SOL    HW2 2805   3.003   0.581   0.782 -0.3085  4.0696  0.7400
  936SOL     OW 2806   1.101   2.903   0.150 -0.2571 -0.0316  0.1995
  936SOL    HW1 2807   1.138   2.910   0.057  1.3986 -1.3332  1.4395
  936SOL    HW2 2808   1.146   2.830   0.209 -0.6288  1.9285  0.1240
  937SOL     OW 2809   1.896   2.618   2.102  0.1047 -0.2893  0.0968
  937SOL    HW1 2810   1.807   2.671   2.134 -0.0217  3.3586 -3.4818
  937SOL    HW2 2811   1.911   2.630   1.999  1.5782  0.6606 -1.3241
  938SOL     OW 2812   2.741   2.139   1.509  0.2410  0.4421 -0.5460
  938SOL    HW1 2813   2.723   2.229   1.557 -0.6118  1.7541 -1.3176
  938SOL    HW2 2814   2.820   2.085   1.553  5.1385 -0.1325 -1.0643
  939SOL     OW 2815   2.812   1.176   2.456  0.3865 -1.1866  0.1691
  939SOL    HW1 2816   2.898   1.181   2.398 -0.8370 -1.7274 -0.2477
  939SOL    HW2 2817   2.821   1.139   2.550  0.5058  0.1929 -0.2118
  940SOL     OW 2818   1.031   0.439   2.652  0.2657  0.5523 -0.3753
  940SOL    HW1 2819   1.090   0.358   2.675 -2.2132 -0.1811  0.5149
  940SOL    HW2 2820   0.938   0.402   2.672  1.6529 -3.4782  1.7041
  941SOL     OW 2821   0.012   2.833   2.220 -0.2219  0.1155  0.0985
  941SOL    HW1 2822   0.034   2.732   2.209  0.4612 -0.7356 -0.1673
  941SOL    HW2 2823   0.073   2.874   2.283 -3.2592  0.4525 -1.0113
  942SOL     OW 2824   0.036   0.078   2.538  0.4715 -0.1778 -0.2269
  942SOL    HW1 2825   0.110   0.096   2.612  0.4512 -1.7331 -0.3949
  942SOL    HW2 2826   0.015   0.160   2.477  1.0120 -0.2309 -2.6971
  943SOL     OW 2827   2.111   1.667   2.437  0.1169 -0.2315 -0.4843
  943SOL    HW1 2828   2.080   1.574   2.404 -1.9896 -0.0021  1.4796
  943SOL    HW2 2829   2.087   1.664   2.540 -2.5479 -2.7960  1.8511
  944SOL     OW 2830   2.176   2.345   1.464  0.0814  0.4807  0.2588
  944SOL    HW1 2831   2.253   2.390   1.520  0.7923 -1.0831  0.7847
  944SOL    HW2 2832   2.114   2.296   1.526  2.0037  2.9277 -0.3959
  945SOL     OW 2833   0.634   1.464   0.373 -0.0070 -0.8750  0.2818
  945SOL    HW1 2834   0.681   1.517   0.296 -0.7200  0.4342  2.2597
  945SOL    HW2 2835   0.653   1.364   0.379 -1.6847  0.9399  0.4716
  946SOL     OW 2836   0.426   0.946   2.530  0.1422  0.1044 -0.4436
  946SOL    HW1 2837   0.338   0.922   2.475 -3.1753 -0.8584  1.5688
  946SOL    HW2 2838   0.414   1.036   2.581 -4.3470 -0.1602 -2.8588
  947SOL     OW 2839   1.506   0.569   0.063 -0.8374  0.0202  0.8760
  947SOL    HW1 2840   1.469   0.576  -0.035  1.5554  0.1896  1.8530
  947SOL    HW2 2841   1.436   0.548   0.135 -2.3460 -3.9439  0.7447
  948SOL     OW 2842   2.014   3.079   2.209 -0.7548  0.0360 -0.0062
  948SOL    HW1 2843   1.998   3.062   2.105  1.1765 -0.1742 -0.8851
  948SOL    HW2 2844   1.978   3.002   2.271 -0.2385 -0.2682  2.2713
  949SOL     OW 2845   0.661   2.540   0.496 -0.7242 -0.2034  0.1824
  949SOL    HW1 2846   0.630   2.638   0.501  0.2496 -0.7968 -2.5010
  949SOL    HW2 2847   0.693   2.511   0.589 -2.6340 -0.8608 -0.2136
  950SOL     OW 2848   0.281   2.175   3.082  0.4415 -0.2527  0.4765
  950SOL    HW1 2849   0.211   2.247   3.049  0.8898 -0.1032 -4.0710
  950SOL    HW2 2850   0.266   2.088   3.027 -0.5649 -1.6856  0.2665
  951SOL     OW 2851   1.167   2.875   2.720 -0.0805  0.4598 -0.0715
  951SOL    HW1 2852   1.145   2.921   2.630 -0.6957 -3.3751  0.8302
  951SOL    HW2 2853   1.260   2.910   2.761  1.4473  1.7313 -0.1016
  952SOL     OW 2854   0.075   1.624   0.451 -0.2886 -0.2612  0.3432
  952SOL    HW1 2855   0.138   1.696   0.475 -1.3391 -1.3860 -1.9589
  952SOL    HW2 2856   0.066   1.559   0.531 -0.2854 -0.0002  0.0014
  953SOL     OW 2857   2.550   1.780   0.200  0.4427 -0.6391 -0.3992
  953SOL    HW1 2858   2.509   1.693   0.228  1.0711  2.1086 -0.5004
  953SOL    HW2 2859   2.606   1.775   0.109 -1.7037 -1.6764 -0.7422
  954SOL     OW 2860   2.184   0.554   0.985  0.1064  0.6048  0.0727
  954SOL    HW1 2861   2.154   0.560   0.890 -1.0534  0.8695  2.6060
  954SOL    HW2 2862   2.284   0.514   0.992 -0.6086 -0.2483 -1.5166
  955SOL     OW 2863   0.207   2.706   1.377 -0.1222 -0.2491  0.0031
  955SOL    HW1 2864   0.109   2.670   1.355 -1.6365 -0.1364 -0.5787
  955SOL    HW2 2865   0.266   2.700   1.294 -0.5435  0.5948  1.6549
  956SOL     OW 2866   2.773   2.475   2.456 -0.2208 -0.1841  0.3857
  956SOL    HW1 2867   2.779   2.369   2.449  0.6721  0.7051  2.6565
  956SOL    HW2 2868   2.810   2.521   2.370  3.0527 -0.7059 -3.5548
  957SOL     OW 2869   1.585   2.015   2.729  0.5640  0.8909 -0.2691
  957SOL    HW1 2870   1.547   1.920   2.727 -0.6415 -1.1742 -1.1827
  957SOL    HW2 2871   1.567   2.057   2.640 -1.6278  1.0646  0.9605
  958SOL     OW 2872   2.702   2.331   2.974 -0.7821 -0.0194  0.5771
  958SOL    HW1 2873   2.617   2.363   2.926  0.4963  2.7480 -2.8194
  958SOL    HW2 2874   2.692   2.267   3.054  0.3548 -1.8893 -1.3764
  959SOL     OW 2875   0.270   2.745   0.113  0.6483  0.2781 -0.7099
  959SOL    HW1 2876   0.172   2.716   0.112 -0.3830 -0.0080  1.5274
  959SOL    HW2 2877   0.339   2.688   0.168 -0.1002  0.4526 -0.1525
  960SOL     OW 2878   1.981   0.449   1.948 -0.1062  0.4596 -0.3242
  960SOL    HW1 2879   1.932   0.524   1.899  1.1260 -1.1090  0.5547
  960SOL    HW2 2880   1.948   0.440   2.050 -0.2020 -2.6409  1.6925
  961SOL     OW 2881   2.572   1.844   1.041 -0.0134  0.0580  0.5205
  961SOL    HW1 2882   2.540   1.918   0.976  0.1112 -1.4805  1.4179
  961SOL    HW2 2883   2.558   1.862   1.142 -1.2882  1.9272 -0.2666
  962SOL     OW 2884   1.301   0.898   0.046  0.3612 -0.0889 -0.0864
  962SOL    HW1 2885   1.307   0.931  -0.051 -0.0926  2.5228  0.0900
  962SOL    HW2 2886   1.309   0.979   0.110 -1.2083 -0.9082 -0.9280
  963SOL     OW 2887   2.222   2.564   1.855  0.1660  0.5232 -0.2022
  963SOL    HW1 2888   2.245   2.486   1.918  2.6095  1.2793  0.9411
  963SOL    HW2 2889   2.246   2.661   1.898 -1.8828  3.6230 -1.4636
  964SOL     OW 2890   2.411   0.395   1.686 -0.1279 -0.4487 -0.4301
  964SOL    HW1 2891   2.487   0.443   1.741 -0.4703  1.0927  1.7987
  964SOL    HW2 2892   2.432   0.396   1.582 -3.4085 -2.3950 -0.9730
  965SOL     OW 2893   2.600   3.096   0.208 -0.2399  0.0689  0.6904
  965SOL    HW1 2894   2.667   3.060   0.132 -1.0348  1.1718 -1.8173
  965SOL    HW2 2895   2.512   3.102   0.162  2.4228 -2.8165 -1.8880
  966SOL     OW 2896   2.473   2.489   2.282  0.3548  0.4047 -0.6763
  966SOL    HW1 2897   2.382   2.480   2.332 -1.0021  1.9467  1.8138
  966SOL    HW2 2898   2.500   2.585   2.271  2.0436 -0.3983  1.5239
  967SOL     OW 2899   2.821   2.802   2.489 -0.4030  0.4221  0.4682
  967SOL    HW1 2900   2.850   2.746   2.403  0.6033 -1.2662  2.0594
  967SOL    HW2 2901   2.899   2.861   2.521  0.9586  0.8110 -0.4665
  968SOL     OW 2902   1.926   1.066   2.667  0.2215  0.1567  0.0697
  968SOL    HW1 2903   1.906   1.139   2.596 -0.7871 -2.1562  5.0055
  968SOL    HW2 2904   1.888   0.974   2.645  2.8745  0.6982  0.9817
  969SOL     OW 2905   2.746   2.436   1.081 -0.0031 -0.6264 -0.1501
  969SOL    HW1 2906   2.688   2.404   1.000 -1.0223  0.1680  0.1604
  969SOL    HW2 2907   2.772   2.354   1.138 -1.6003  0.1540 -0.1132
  970SOL     OW 2908   1.050   2.119   1.764  0.0340 -0.3224  0.0769
  970SOL    HW1 2909   0.950   2.122   1.740  0.9949  0.1987 -0.6837
  970SOL    HW2 2910   1.070   2.149   1.862 -0.9671 -0.6640 -1.5804
  971SOL     OW 2911   2.791   2.099   1.885 -0.2418 -0.0539  0.3635
  971SOL    HW1 2912   2.798   2.200   1.903 -0.3988 -0.4146 -2.7701
  971SOL    HW2 2913   2.849   2.073   1.802 -2.3346  1.1429 -0.5423
  972SOL     OW 2914   2.050   2.397   0.230  0.3088  0.5208  0.3190
  972SOL    HW1 2915   2.033   2.313   0.172 -2.7927 -2.3393  1.4623
  972SOL    HW2 2916   2.054   2.379   0.333 -1.4345  0.6194  2.3692
  973SOL     OW 2917   1.316   1.078   1.954 -0.1947  0.2564  0.4516
  973SOL    HW1 2918   1.246   1.069   1.879  1.2432 -0.2127 -2.0062
  973SOL    HW2 2919   1.307   1.165   2.005 -0.3568 -1.4857  2.8643
  974SOL     OW 2920   1.603   0.609   1.938 -0.3011 -0.3915 -0.1786
  974SOL    HW1 2921   1.680   0.628   1.867  2.2303  0.9659 -0.2426
  974SOL    HW2 2922   1.525   0.678   1.931  1.4005  2.9628 -0.1179
  975SOL     OW 2923   2.376   3.029   0.026 -0.0947 -0.0685 -0.7709
  975SOL    HW1 2924   2.317   2.942   0.042  0.8112 -1.8546 -0.3807
  975SOL    HW2 2925   2.394   3.045  -0.071 -0.2144  0.5059 -0.9361
  976SOL     OW 2926   1.937   2.871   2.354 -0.2051 -0.7579  0.2241
  976SOL    HW1 2927   1.868   2.815   2.308 -0.6756  0.1167  1.3126
  976SOL    HW2 2928   1.943   2.844   2.458  2.3735 -1.9593 -2.8698
  977SOL     OW 2929   0.441   0.611   1.017 -0.1909 -0.1362  0.6694
  977SOL    HW1 2930   0.355   0.641   0.972  1.6186 -3.0944  1.7485
  977SOL    HW2 2931   0.516   0.583   0.948  1.1192 -0.4007 -2.9661
   3.10000   3.10000   3.10000
