1000 SPC/Fw water molecules t=   1.49000 step= 1490
 2931
    1SOL     OW    1   2.439   0.347   2.656  0.4459  0.2316  0.3131
    1SOL    HW1    2   2.429   0.243   2.649 -0.3402 -0.1119 -0.2819
    1SOL    HW2    3   2.492   0.375   2.741 -1.6357  0.4695 -3.5153
    2SOL     OW    4   2.722   2.984   1.398 -0.3471 -0.1902  0.1794
    2SOL    HW1    5   2.824   2.998   1.383 -0.3302  0.3890  1.3555
    2SOL    HW2    6   2.678   3.065   1.448 -1.6046  3.6854  0.2234
    3SOL     OW    7   2.652   2.550   0.391  0.3934 -0.4048  0.5319
    3SOL    HW1    8   2.594   2.467   0.406 -1.6059  2.2310 -1.1434
    3SOL    HW2    9   2.654   2.611   0.476 -1.4828  1.3465 -0.8389
    4SOL     OW   10   1.224   1.519   2.412  0.5766  0.3477  0.0789
    4SOL    HW1   11   1.179   1.491   2.320  0.1981 -0.2732 -2.3577
    4SOL    HW2   12   1.233   1.435   2.471 -1.2209  0.6647  0.5686
    5SOL     OW   13   1.189   1.554   2.928  0.1216 -0.4198  0.6304
    5SOL    HW1   14   1.259   1.599   2.991 -2.0953  0.1909  0.1456
    5SOL    HW2   15   1.106   1.615   2.907  0.5749  1.2629  1.3162
    6SOL     OW   16   0.284   1.782   3.012  0.0591 -0.0397 -0.4282
    6SOL    HW1   17   0.179   1.784   3.021 -1.7643  0.9487  5.6070
    6SOL    HW2   18   0.331   1.773   3.112  2.9608 -2.8472  0.9432
    7SOL     OW   19   2.473   0.904   1.035 -0.1193 -0.1170 -0.8748
    7SOL    HW1   20   2.407   0.847   1.089 -0.0403  0.5275  2.5725
    7SOL    HW2   21   2.514   0.860   0.951 -1.4965 -0.6421 -1.4903
    8SOL     OW   22   0.354   0.682   1.518  1.1041  0.2778 -0.0531
    8SOL    HW1   23   0.438   0.623   1.532 -0.2234 -0.0926 -1.8223
    8SOL    HW2   24   0.367   0.739   1.431  1.2851  0.8099 -0.1162
    9SOL     OW   25   1.162   0.848   2.351 -0.1180  0.9192 -0.4185
    9SOL    HW1   26   1.242   0.885   2.291 -2.1654 -1.2327  0.4064
    9SOL    HW2   27   1.146   0.745   2.342 -0.4256  0.1164 -1.0677
   10SOL     OW   28   0.731   1.396   1.271  0.1259  0.0798 -0.7915
   10SOL    HW1   29   0.636   1.400   1.227  3.0079  0.1091 -1.0927
   10SOL    HW2   30   0.756   1.483   1.315  0.0190  2.7707 -1.0541
   11SOL     OW   31   2.300   2.826   0.858  0.2343 -0.0401  0.1404
   11SOL    HW1   32   2.263   2.810   0.955 -1.6867 -0.7359  3.4282
   11SOL    HW2   33   2.404   2.846   0.860 -0.8849  1.6821  2.2508
   12SOL     OW   34   1.516   0.928   0.391 -0.1806 -0.1525 -0.5698
   12SOL    HW1   35   1.430   0.965   0.344 -0.5004  1.2958  0.5869
   12SOL    HW2   36   1.549   0.832   0.362  0.5163 -0.4321 -0.0347
   13SOL     OW   37   2.426   0.707   1.791  0.3602  0.9086  0.1833
   13SOL    HW1   38   2.340   0.668   1.834  0.3583  1.0092 -2.4699
   13SOL    HW2   39   2.427   0.682   1.690 -1.7714  1.7888  2.2101
   14SOL     OW   40   1.971   3.087   0.594  0.3170 -0.4420 -0.1697
   14SOL    HW1   41   1.879   3.131   0.587  0.6279 -1.7757 -2.1624
   14SOL    HW2   42   1.997   3.042   0.688  0.3939  0.4881  2.0376
   15SOL     OW   43   1.881   2.063   2.669  0.2167  0.1160 -0.3210
   15SOL    HW1   44   1.839   2.044   2.759  2.1662  0.7551  0.2682
   15SOL    HW2   45   1.867   1.988   2.598  0.5448 -1.7407  0.7715
   16SOL     OW   46   1.605   1.753   3.026 -0.6516  0.1532  0.1705
   16SOL    HW1   47   1.621   1.651   3.016  2.6848 -1.4941  1.7028
   16SOL    HW2   48   1.687   1.805   3.059 -2.2737 -1.4338  1.6141
   17SOL     OW   49   0.111   0.430   0.173  0.3360 -0.0351 -0.0315
   17SOL    HW1   50   0.187   0.480   0.119 -0.1362  2.0853  1.9401
   17SOL    HW2   51   0.035   0.390   0.118 -0.9758 -0.0251  0.4061
   18SOL     OW   52   0.905   2.970   2.137 -0.3988 -0.8669 -0.0691
   18SOL    HW1   53   0.842   2.896   2.170  2.8226  0.0765 -2.9023
   18SOL    HW2   54   0.945   2.951   2.047 -0.0346 -2.7585  0.0485
   19SOL     OW   55   0.594   0.858   1.901  0.3047 -0.0915  0.4686
   19SOL    HW1   56   0.673   0.823   1.955  1.6042 -0.5951 -0.2878
   19SOL    HW2   57   0.619   0.943   1.847 -0.4148 -1.0841  1.3425
   20SOL     OW   58   0.227   2.849   0.840 -0.1424  0.1501 -0.0651
   20SOL    HW1   59   0.125   2.851   0.812 -3.0400  1.5513 -0.1209
   20SOL    HW2   60   0.272   2.764   0.800 -4.5859 -0.5118  1.8368
   21SOL     OW   61   2.762   0.290   1.985 -0.4284  0.4210  0.2574
   21SOL    HW1   62   2.737   0.213   1.920  1.6771  2.2993 -0.7992
   21SOL    HW2   63   2.850   0.277   2.037 -0.9962  0.9458  3.3582
   22SOL     OW   64   2.365   0.188   0.136 -0.1280  0.0435  0.0906
   22SOL    HW1   65   2.373   0.092   0.097 -2.2365  2.0832  2.0475
   22SOL    HW2   66   2.314   0.255   0.084 -0.4364  0.0078  2.7251
   23SOL     OW   67   2.832   0.523   0.677  0.0619 -0.2941 -0.4031
   23SOL    HW1   68   2.827   0.442   0.608 -1.7925  0.4094 -0.2487
   23SOL    HW2   69   2.847   0.621   0.642  0.2119 -0.8786 -0.5417
   24SOL     OW   70   0.245   1.847   0.427 -0.2215 -0.0215 -0.5873
   24SOL    HW1   71   0.197   1.917   0.365  2.2095  0.8967  0.4015
   24SOL    HW2   72   0.338   1.824   0.385  2.3367 -3.1832 -1.4347
   25SOL     OW   73   2.266   0.608   0.213  0.1733 -0.3610 -0.2417
   25SOL    HW1   74   2.257   0.608   0.109 -3.0841 -0.7148 -1.0701
   25SOL    HW2   75   2.319   0.527   0.253  0.0372  0.8932  0.6011
   26SOL     OW   76   2.440   2.140   2.104 -0.3375  0.4109  0.2283
   26SOL    HW1   77   2.529   2.188   2.128  0.5755 -1.7871 -0.7642
   26SOL    HW2   78   2.454   2.080   2.020 -2.7007  0.3930  0.3349
   27SOL     OW   79   0.560   2.928   0.156 -0.3983 -0.0875 -0.3017
   27SOL    HW1   80   0.649   2.980   0.146 -0.5669 -0.6295  0.9179
   27SOL    HW2   81   0.512   2.895   0.069  0.2527 -3.3983 -2.7384
   28SOL     OW   82   1.630   0.112   0.322 -0.2617  0.4348 -0.4283
   28SOL    HW1   83   1.651   0.076   0.229 -1.3449  1.3141 -1.3327
   28SOL    HW2   84   1.645   0.219   0.330 -0.3962  0.1280  2.3672
   29SOL     OW   85   1.999   0.610   0.285  0.9386  0.5494  0.1255
   29SOL    HW1   86   1.981   0.673   0.368 -1.7336  2.2252 -0.1472
   29SOL    HW2   87   2.098   0.597   0.257  2.1358 -1.9043 -0.0382
   30SOL     OW   88   0.199   2.063   0.903 -0.1220  0.3820  0.4637
   30SOL    HW1   89   0.213   2.003   0.820 -1.7309 -0.4997  0.8870
   30SOL    HW2   90   0.099   2.090   0.915 -0.5997 -0.4724 -2.1758
   31SOL     OW   91   2.192   0.066   2.374  0.0692 -0.5514 -0.8324
   31SOL    HW1   92   2.150   0.020   2.459 -2.5000  0.4903 -0.5316
   31SOL    HW2   93   2.134   0.040   2.286 -0.5284 -0.7956 -0.9209
   32SOL     OW   94   2.988   3.058   0.266  0.5763  0.5427  0.1903
   32SOL    HW1   95   2.941   2.962   0.262  1.9240 -2.2879  1.1373
   32SOL    HW2   96   3.084   3.048   0.302 -0.7674  0.9812 -0.0294
   33SOL     OW   97   0.893   0.201   0.626  0.1503 -0.2873  0.0780
   33SOL    HW1   98   0.878   0.146   0.537 -1.3647 -0.0018  1.0216
   33SOL    HW2   99   0.981   0.250   0.624 -1.0634 -0.9636 -1.0464
   34SOL     OW  100   0.328   2.706   1.080 -0.1398 -0.5164 -0.4414
   34SOL    HW1  101   0.281   2.767   1.010 -0.4355 -0.8560  0.9725
   34SOL    HW2  102   0.414   2.740   1.124 -2.8642 -1.0927  0.7001
   35SOL     OW  103   0.019   0.112   1.875  1.0290  0.3083  0.4352
   35SOL    HW1  104   0.058   0.016   1.874 -0.1447  0.8778  0.8528
   35SOL    HW2  105  -0.019   0.131   1.782 -0.4167  1.7363  1.5997
   36SOL     OW  106   1.889   1.188   1.515  0.2534 -0.3929 -0.0568
   36SOL    HW1  107   1.962   1.124   1.553  4.0578 -0.3406 -0.2028
   36SOL    HW2  108   1.925   1.248   1.438  0.2153  0.8901  0.7749
   37SOL     OW  109   1.127   0.193   0.968 -0.2062  0.0808 -0.2073
   37SOL    HW1  110   1.146   0.297   0.963 -1.5700  2.5595  0.1100
   37SOL    HW2  111   1.202   0.129   0.935 -2.7299 -0.1665 -1.2645
   38SOL     OW  112   1.176   2.899   2.448 -0.1453 -0.4765  1.0985
   38SOL    HW1  113   1.071   2.875   2.473 -2.5068 -1.0142 -1.7047
   38SOL    HW2  114   1.194   2.992   2.405  0.8551 -1.5716  1.7608
   39SOL     OW  115   2.466   1.405   3.047  0.5741  0.0709  0.0894
   39SOL    HW1  116   2.547   1.343   3.080  0.2139 -1.7769  0.9785
   39SOL    HW2  117   2.383   1.395   3.104  0.9615  0.3161  1.0383
   40SOL     OW  118   2.032   2.523   2.613 -0.0734  0.4732 -0.0486
   40SOL    HW1  119   2.015   2.623   2.592 -0.4146  2.0721  1.4435
   40SOL    HW2  120   1.976   2.451   2.554  1.2404 -2.8925 -0.0563
   41SOL     OW  121   3.025   0.682   2.814  0.2125  1.0058 -0.4897
   41SOL    HW1  122   2.964   0.747   2.866 -0.4263 -0.6900  1.9610
   41SOL    HW2  123   2.970   0.633   2.747 -0.4590  1.4348 -0.6448
   42SOL     OW  124   1.791   1.731   0.573  0.3604 -0.1933 -0.0831
   42SOL    HW1  125   1.734   1.642   0.552 -0.6844 -0.9857 -1.7075
   42SOL    HW2  126   1.836   1.758   0.486 -1.6445 -0.8743  0.1071
   43SOL     OW  127   0.489   1.668   1.218 -0.7959  0.4420 -0.4960
   43SOL    HW1  128   0.493   1.574   1.166 -0.6024 -2.6202 -1.8410
   43SOL    HW2  129   0.413   1.681   1.288  1.3366 -0.7204 -0.2164
   44SOL     OW  130   1.651   2.381   2.978 -0.7647 -0.3901 -0.1716
   44SOL    HW1  131   1.565   2.435   2.991  1.0564 -2.1943  1.3265
   44SOL    HW2  132   1.703   2.393   2.888  0.7049  1.5869  2.9666
   45SOL     OW  133   0.365   1.914   2.560 -0.4107 -0.0061  0.2039
   45SOL    HW1  134   0.308   1.909   2.476  0.7979 -1.4801 -0.6930
   45SOL    HW2  135   0.433   1.839   2.574 -2.3800  2.5879  0.8851
   46SOL     OW  136   1.270   0.707   0.275 -1.0083  0.3392  0.2772
   46SOL    HW1  137   1.293   0.794   0.222 -0.6422  3.5250  1.0012
   46SOL    HW2  138   1.201   0.644   0.227 -0.4432  1.7360 -2.8080
   47SOL     OW  139   0.175   2.448   1.560 -0.3090 -0.2549 -0.6489
   47SOL    HW1  140   0.116   2.368   1.561  1.8381  1.1001  0.1289
   47SOL    HW2  141   0.192   2.492   1.467 -1.4822 -1.4578  0.5283
   48SOL     OW  142   2.681   0.632   0.152  0.1204 -0.0773 -0.0578
   48SOL    HW1  143   2.656   0.663   0.244  0.2085 -2.6460 -1.6974
   48SOL    HW2  144   2.784   0.633   0.140 -1.4346  0.6087 -0.1435
   49SOL     OW  145   0.334   0.814   1.753  0.2208  0.6910 -0.3577
   49SOL    HW1  146   0.426   0.816   1.806  0.7835  0.7439  1.0908
   49SOL    HW2  147   0.348   0.756   1.665 -1.7316  1.5211  0.1662
   50SOL     OW  148   1.747   1.147   0.310  0.2821  0.2928 -0.2927
   50SOL    HW1  149   1.744   1.053   0.265 -0.2904 -0.9223 -0.7322
   50SOL    HW2  150   1.688   1.149   0.398 -0.4877  0.3305  0.6469
   51SOL     OW  151   3.006   1.741   0.263 -0.0603 -0.1184 -0.2378
   51SOL    HW1  152   2.944   1.684   0.203 -0.1321 -0.3695  0.0711
   51SOL    HW2  153   3.031   1.698   0.357 -3.4024  1.2394  3.1339
   52SOL     OW  154   0.793   2.148   0.644 -0.6032 -0.0704 -0.0435
   52SOL    HW1  155   0.701   2.188   0.639  1.5836  0.2305 -2.9768
   52SOL    HW2  156   0.800   2.060   0.701 -2.5207 -0.9855  0.7323
   53SOL     OW  157   0.231   0.439   1.494  0.2413 -0.5778 -0.2195
   53SOL    HW1  158   0.248   0.544   1.495 -1.5904  1.1170 -1.4222
   53SOL    HW2  159   0.133   0.412   1.479  1.4070 -0.2840 -0.5239
   54SOL     OW  160   1.759   0.497   3.086 -0.9069 -0.5534  0.0852
   54SOL    HW1  161   1.825   0.441   3.147 -1.5212  1.5141  0.7324
   54SOL    HW2  162   1.666   0.473   3.118  0.3318 -0.4652 -0.3811
   55SOL     OW  163   0.724   2.942   0.684 -0.1866  0.4707 -1.1039
   55SOL    HW1  164   0.661   3.021   0.656 -1.0968 -1.9534 -0.6071
   55SOL    HW2  165   0.816   2.945   0.634 -0.0738 -0.8828  0.5995
   56SOL     OW  166   0.585   1.578   3.065  0.0663 -0.3955 -0.3258
   56SOL    HW1  167   0.517   1.632   3.120  1.7424 -3.4980 -0.3119
   56SOL    HW2  168   0.536   1.510   3.004 -1.5591  1.5478  0.0617
   57SOL     OW  169   1.730   2.506   2.397 -0.9336  0.4781  0.0120
   57SOL    HW1  170   1.780   2.415   2.408  0.4805 -1.9032 -1.3633
   57SOL    HW2  171   1.664   2.524   2.474 -0.2271 -0.4516  0.1897
   58SOL     OW  172   0.665   0.238   1.087  0.1816 -0.5613  0.3908
   58SOL    HW1  173   0.572   0.246   1.137 -2.4733  0.1705 -2.1649
   58SOL    HW2  174   0.723   0.153   1.110 -1.1684 -1.0630 -0.2375
   59SOL     OW  175   0.457   2.399   2.721 -0.2130 -0.7336 -0.0572
   59SOL    HW1  176   0.440   2.304   2.679  1.8318  0.0190 -1.2809
   59SOL    HW2  177   0.557   2.418   2.736  3.2935  0.4872 -0.7696
   60SOL     OW  178   2.290   2.105   2.348  0.9687 -0.3935  0.1447
   60SOL    HW1  179   2.369   2.099   2.284 -0.2066  0.9145  0.6297
   60SOL    HW2  180   2.309   2.153   2.434  0.8872 -1.3857 -2.0375
   61SOL     OW  181   1.203   0.646   0.537 -0.7235 -0.1151  0.2267
   61SOL    HW1  182   1.107   0.659   0.570  3.0191  0.8130 -0.8896
   61SOL    HW2  183   1.231   0.678   0.439  4.2409 -0.0280  1.3134
   62SOL     OW  184   2.730   1.709   2.746  0.4848  0.4014 -0.3696
   62SOL    HW1  185   2.653   1.642   2.731 -0.0840 -2.8314 -2.4559
   62SOL    HW2  186   2.807   1.673   2.806  0.5838 -1.0256 -0.6026
   63SOL     OW  187   0.520   0.910   0.195 -0.5953  0.1312 -0.0430
   63SOL    HW1  188   0.586   0.960   0.131 -1.4241  2.9318  0.6198
   63SOL    HW2  189   0.541   0.921   0.297 -1.1936  0.6153  0.0777
   64SOL     OW  190   3.025   0.583   2.311 -0.7410  0.6833 -0.5923
   64SOL    HW1  191   2.974   0.626   2.391  4.3458  0.2149 -0.3252
   64SOL    HW2  192   3.037   0.640   2.223  2.1436 -0.1820  0.6955
   65SOL     OW  193   0.206   1.436   0.722  0.4311  0.2273  0.4516
   65SOL    HW1  194   0.186   1.503   0.799  1.5512  0.1637 -2.7598
   65SOL    HW2  195   0.284   1.464   0.660  1.4481  1.2720  0.4641
   66SOL     OW  196   2.539   0.364   0.529 -0.1134 -0.7207  0.0749
   66SOL    HW1  197   2.642   0.345   0.503  1.5129 -0.5529 -0.6050
   66SOL    HW2  198   2.511   0.315   0.614  2.6563  1.5975  0.1729
   67SOL     OW  199   0.624   2.491   1.473 -0.2153  0.0337  0.0066
   67SOL    HW1  200   0.715   2.453   1.504 -2.9754  0.0989 -0.0657
   67SOL    HW2  201   0.562   2.416   1.433  0.5781 -1.2619 -1.2538
   68SOL     OW  202   0.978   1.003   2.445 -0.0717  0.0239 -0.5154
   68SOL    HW1  203   1.034   0.938   2.393  1.2133  2.0651 -1.8960
   68SOL    HW2  204   0.891   1.036   2.399 -1.2810 -4.6605 -2.5243
   69SOL     OW  205   0.809   2.744   2.306  0.3888 -0.0469  0.9747
   69SOL    HW1  206   0.847   2.675   2.237  0.9208  2.2719 -1.1660
   69SOL    HW2  207   0.708   2.729   2.329  0.0892  1.2454  0.5340
   70SOL     OW  208   0.429   0.116   2.490 -0.0623  0.1797  0.0763
   70SOL    HW1  209   0.338   0.066   2.503 -3.0178  1.6990 -0.1891
   70SOL    HW2  210   0.518   0.062   2.507  1.6514  2.2382 -1.3611
   71SOL     OW  211   1.080   1.731   0.312 -0.8953  0.4563 -0.2213
   71SOL    HW1  212   1.027   1.697   0.396 -2.8929  0.8824  2.1401
   71SOL    HW2  213   1.022   1.769   0.238  0.5849  1.5171  2.1996
   72SOL     OW  214   1.821   0.221   2.166  0.3683  0.2900  0.1447
   72SOL    HW1  215   1.882   0.296   2.191 -0.2598 -2.8361 -1.2899
   72SOL    HW2  216   1.872   0.129   2.177 -1.6734  2.0585  0.4205
   73SOL     OW  217   2.771   2.189   2.434 -0.1214 -0.2124  0.5809
   73SOL    HW1  218   2.757   2.090   2.405 -1.6609  1.2005 -2.6281
   73SOL    HW2  219   2.785   2.205   2.534  1.0228 -1.2051 -0.4233
   74SOL     OW  220   2.727   2.878   2.161  0.2750  0.0733  0.0819
   74SOL    HW1  221   2.685   2.862   2.252 -4.3611 -1.8850  0.6203
   74SOL    HW2  222   2.813   2.941   2.159 -0.3418  0.5172  0.7754
   75SOL     OW  223   0.999   0.862   1.109  0.1852 -0.6598  0.0298
   75SOL    HW1  224   0.897   0.887   1.096 -0.3754  0.2988 -0.7493
   75SOL    HW2  225   1.020   0.888   1.208 -0.9604 -0.3728  1.0211
   76SOL     OW  226   1.874   1.267   2.522 -0.2538 -0.0862  0.8117
   76SOL    HW1  227   1.767   1.263   2.527  0.9841 -1.1955 -2.6071
   76SOL    HW2  228   1.920   1.357   2.549  0.6117 -1.8207  2.3666
   77SOL     OW  229   2.881   0.937   1.057 -0.2769 -0.4908 -0.1834
   77SOL    HW1  230   2.863   0.840   1.038  0.4611  0.5055  0.6809
   77SOL    HW2  231   2.980   0.946   1.092  1.0216  2.8345 -1.1857
   78SOL     OW  232   2.001   1.334   1.323 -0.2304  0.1405 -1.3273
   78SOL    HW1  233   2.095   1.295   1.289  1.6781  1.5611  1.3446
   78SOL    HW2  234   1.954   1.406   1.260  0.7470  1.6027 -1.0445
   79SOL     OW  235   0.680   1.421   0.824  0.1990  0.5865  0.4431
   79SOL    HW1  236   0.586   1.377   0.859  0.0593  0.3679  0.9367
   79SOL    HW2  237   0.734   1.347   0.774 -0.6593  0.8553  2.9616
   80SOL     OW  238   0.556   0.529   1.537 -0.6900 -0.7272  0.3369
   80SOL    HW1  239   0.605   0.592   1.465  0.6879 -3.2788 -0.3710
   80SOL    HW2  240   0.588   0.431   1.519  0.1149  0.8430 -0.2350
   81SOL     OW  241   0.992   1.275   2.599  0.3251 -0.4937 -0.6769
   81SOL    HW1  242   1.006   1.181   2.556  1.7593  1.0514 -2.2832
   81SOL    HW2  243   0.930   1.340   2.546  0.4154 -1.4653  2.5624
   82SOL     OW  244   0.959   2.865   1.529 -0.7358  0.0065 -0.0405
   82SOL    HW1  245   0.884   2.804   1.491  0.3058 -0.5406 -2.2639
   82SOL    HW2  246   1.026   2.894   1.452  0.0014 -0.8505 -1.9360
   83SOL     OW  247   2.554   2.356   0.889  0.2567  0.4912  0.3476
   83SOL    HW1  248   2.488   2.321   0.813 -0.6978  0.3028 -0.8012
   83SOL    HW2  249   2.578   2.455   0.877  0.4857 -4.1780  1.3048
   84SOL     OW  250   0.735   0.023   2.341 -0.1969 -0.1710 -0.4035
   84SOL    HW1  251   0.692  -0.024   2.421 -1.6106  0.6462 -1.0185
   84SOL    HW2  252   0.794  -0.045   2.287 -2.4517 -1.1334 -0.4650
   85SOL     OW  253   0.273   1.659   1.427  0.2614  0.6334 -0.1757
   85SOL    HW1  254   0.247   1.754   1.448  0.8587 -3.9736  2.4748
   85SOL    HW2  255   0.294   1.601   1.511 -0.4307 -0.7824 -0.5385
   86SOL     OW  256   0.401   1.021   1.573 -0.5143  0.0786 -0.0445
   86SOL    HW1  257   0.410   0.968   1.482  2.6007 -1.5347 -0.3857
   86SOL    HW2  258   0.377   0.951   1.652 -0.8294 -1.2750  2.1342
   87SOL     OW  259   1.617   0.650   0.315 -0.2559 -0.3720  0.9502
   87SOL    HW1  260   1.702   0.709   0.299  2.8047  1.5063  2.2141
   87SOL    HW2  261   1.570   0.624   0.221 -2.1986 -2.9896 -0.1440
   88SOL     OW  262   1.601   1.398   0.275  0.1502 -0.0396 -0.4083
   88SOL    HW1  263   1.675   1.328   0.277 -2.2923 -2.0274  0.4178
   88SOL    HW2  264   1.510   1.360   0.241 -1.0681  0.8250 -0.6723
   89SOL     OW  265   0.008   0.351   0.579  0.6222  0.4699 -0.3836
   89SOL    HW1  266   0.080   0.278   0.599 -1.1796 -2.0195 -0.7204
   89SOL    HW2  267  -0.086   0.313   0.550 -3.7287 -0.3087  0.1965
   90SOL     OW  268   0.779   1.593   0.161  0.2337 -0.2313 -0.0195
   90SOL    HW1  269   0.837   1.510   0.169 -2.7177 -0.4743 -1.3636
   90SOL    HW2  270   0.714   1.587   0.080 -0.7620 -0.7045 -0.0987
   91SOL     OW  271   1.186   1.489   1.782  0.2295  0.7448  0.5480
   91SOL    HW1  272   1.176   1.572   1.837 -0.0051 -0.7132 -2.4181
   91SOL    HW2  273   1.226   1.409   1.832 -0.6801  0.4164 -0.5541
   92SOL     OW  274   0.021   0.984   1.209  0.1342 -0.2461  0.0794
   92SOL    HW1  275   0.073   1.073   1.198  1.0512 -0.4259 -0.8273
   92SOL    HW2  276   0.017   0.959   1.311  0.7020  2.5310  1.8131
   93SOL     OW  277   3.041   2.706   0.033  0.3382 -0.4054 -0.1042
   93SOL    HW1  278   2.976   2.694  -0.051 -4.5911 -3.2223  1.5938
   93SOL    HW2  279   3.075   2.612   0.070  1.3311 -1.3518  2.0459
   94SOL     OW  280   1.512   1.351   1.716 -0.0887 -0.6821 -0.5129
   94SOL    HW1  281   1.599   1.299   1.737  1.0085 -0.4905 -1.5224
   94SOL    HW2  282   1.513   1.446   1.758 -1.9519 -1.9810 -1.5456
   95SOL     OW  283   1.391   2.473   2.936  0.0218 -0.7870 -0.3162
   95SOL    HW1  284   1.303   2.475   2.994  2.2804  1.5240  1.0119
   95SOL    HW2  285   1.403   2.388   2.884 -1.2252 -0.6516 -1.5923
   96SOL     OW  286   0.590   2.114   1.277 -0.1251  0.5559  0.2462
   96SOL    HW1  287   0.505   2.060   1.252  0.1613  0.8394  2.6124
   96SOL    HW2  288   0.641   2.071   1.356 -0.8722  2.0484 -1.9749
   97SOL     OW  289   0.285   1.641   2.429 -0.4233  0.0641  0.1376
   97SOL    HW1  290   0.244   1.716   2.372 -1.6604  0.4519 -0.0003
   97SOL    HW2  291   0.267   1.664   2.530 -1.5113  1.0367 -1.9379
   98SOL     OW  292   2.224   1.650   1.238 -0.3727  0.5647 -0.1776
   98SOL    HW1  293   2.137   1.598   1.227  0.8893 -2.6047 -0.1131
   98SOL    HW2  294   2.295   1.612   1.167  1.4267 -0.2543 -2.4836
   99SOL     OW  295   2.566   2.136   1.294  0.6041 -0.1821 -0.4388
   99SOL    HW1  296   2.663   2.157   1.321 -3.3948 -0.8460  0.7324
   99SOL    HW2  297   2.549   2.034   1.300 -0.5732 -1.7505 -0.4059
  100SOL     OW  298   2.308   0.401   2.112 -0.0161  0.0427  0.1264
  100SOL    HW1  299   2.264   0.379   2.205 -1.4666 -2.2673 -1.6958
  100SOL    HW2  300   2.404   0.438   2.118 -0.5750 -0.6471  0.4308
  101SOL     OW  301   0.405   1.549   0.530 -0.3497 -0.2340  0.2081
  101SOL    HW1  302   0.434   1.642   0.567  1.2237  2.0395 -1.0769
  101SOL    HW2  303   0.467   1.504   0.452  0.9394 -1.7839 -0.9903
  102SOL     OW  304   2.293   1.081   0.862 -0.2612 -0.0415 -0.5261
  102SOL    HW1  305   2.281   0.983   0.878 -0.6584 -1.6282  0.2497
  102SOL    HW2  306   2.376   1.101   0.804 -2.5906 -0.5994  0.6115
  103SOL     OW  307   2.250   0.061   0.349  0.6914 -0.2177  0.1501
  103SOL    HW1  308   2.268   0.127   0.271 -3.2874 -0.3812  0.1621
  103SOL    HW2  309   2.337   0.043   0.401  0.3704 -0.4495 -1.2238
  104SOL     OW  310   0.030   1.790   2.133  0.1977 -0.7454  0.4154
  104SOL    HW1  311   0.076   1.812   2.046 -1.5815  0.0507  2.2346
  104SOL    HW2  312  -0.071   1.798   2.118 -0.8150  0.1592 -2.3858
  105SOL     OW  313   1.383   2.092   0.787  0.5077  0.0357 -0.2051
  105SOL    HW1  314   1.421   2.109   0.694 -0.8355  2.7989  1.5559
  105SOL    HW2  315   1.350   1.994   0.798  1.2434 -0.2513  0.6538
  106SOL     OW  316   2.143   0.390   1.449  0.8204  0.2741 -0.0449
  106SOL    HW1  317   2.108   0.298   1.412 -0.9331  0.3070  2.0617
  106SOL    HW2  318   2.142   0.409   1.553  1.7231  0.3434  0.5408
  107SOL     OW  319   1.954   2.938   1.171 -0.3671 -0.1474 -0.4741
  107SOL    HW1  320   1.884   3.013   1.178 -1.6109 -2.1416 -1.0560
  107SOL    HW2  321   1.926   2.858   1.106  3.6867 -3.6296 -1.2532
  108SOL     OW  322   0.831   2.859   1.203 -0.1269 -0.3572  0.4460
  108SOL    HW1  323   0.835   2.792   1.126 -0.5892  0.2850  0.3662
  108SOL    HW2  324   0.922   2.862   1.253  0.4956 -0.0549 -0.1862
  109SOL     OW  325   2.152   0.179   0.710 -0.0398  0.4907 -0.1021
  109SOL    HW1  326   2.099   0.105   0.662  1.0911 -0.0176 -0.6124
  109SOL    HW2  327   2.103   0.224   0.789  0.7549  0.7426  1.4368
  110SOL     OW  328   0.464   2.778   2.780  0.2661 -0.4619 -0.6905
  110SOL    HW1  329   0.433   2.788   2.676  0.5362  0.5889 -0.9777
  110SOL    HW2  330   0.545   2.718   2.795  0.4282  2.1234 -3.5198
  111SOL     OW  331   1.277   0.489   2.305  0.1622 -0.1389 -0.2927
  111SOL    HW1  332   1.184   0.520   2.341  1.9467 -0.2266 -1.2039
  111SOL    HW2  333   1.336   0.446   2.386 -1.0210 -0.6045  2.6786
  112SOL     OW  334   1.771   0.379   1.485  0.0041 -0.2150 -0.3402
  112SOL    HW1  335   1.749   0.412   1.386 -0.4000 -3.3506  0.2129
  112SOL    HW2  336   1.690   0.371   1.549 -0.3010 -1.3288  3.1506
  113SOL     OW  337   2.382   1.705   1.758  0.0500  0.1236  1.0795
  113SOL    HW1  338   2.367   1.601   1.754  2.1816  1.8348  1.2379
  113SOL    HW2  339   2.427   1.736   1.846 -0.9725  0.0625  0.1364
  114SOL     OW  340   0.305   0.474   1.221  0.5714 -0.5697 -0.3333
  114SOL    HW1  341   0.374   0.523   1.159  2.4367  1.3732  0.6865
  114SOL    HW2  342   0.231   0.535   1.254 -1.0415  0.0892  0.9262
  115SOL     OW  343   2.696   1.551   1.192 -0.4276  0.1147  0.0936
  115SOL    HW1  344   2.685   1.461   1.247 -0.9793  1.9044 -1.3111
  115SOL    HW2  345   2.794   1.566   1.162 -1.6778  1.4931 -0.9689
  116SOL     OW  346   1.896   0.922   0.751  1.0261 -0.2089  0.2952
  116SOL    HW1  347   1.844   0.839   0.719  0.9901 -3.0384  0.1195
  116SOL    HW2  348   1.861   1.009   0.715  1.4202  2.0619 -1.2119
  117SOL     OW  349   1.111   0.347   0.581  0.5467  0.0094  0.0742
  117SOL    HW1  350   1.132   0.453   0.596  1.7287 -1.7046  3.5489
  117SOL    HW2  351   1.093   0.321   0.483 -2.1815  0.7180  2.7697
  118SOL     OW  352   1.115   1.215   1.079  0.2228  0.4404 -0.3511
  118SOL    HW1  353   1.028   1.190   1.134 -0.2916 -2.7708  1.3837
  118SOL    HW2  354   1.158   1.306   1.106 -0.0167  0.8187 -1.3467
  119SOL     OW  355   1.863   1.548   2.205  0.0491 -0.0691 -0.5481
  119SOL    HW1  356   1.812   1.635   2.180  0.0688  0.8168  0.0050
  119SOL    HW2  357   1.961   1.565   2.234 -1.6162  1.6974 -3.2532
  120SOL     OW  358   2.903   2.785   0.246 -0.3985 -0.2909  0.1475
  120SOL    HW1  359   2.965   2.763   0.162 -1.7967  0.7988 -1.6072
  120SOL    HW2  360   2.810   2.754   0.220  2.8271 -1.0501 -0.9458
  121SOL     OW  361   1.955   0.747   2.250  0.8699  0.1034  0.6866
  121SOL    HW1  362   1.962   0.807   2.169  0.2793 -0.6677  1.0961
  121SOL    HW2  363   1.965   0.643   2.231 -1.3889  0.3301 -1.3709
  122SOL     OW  364   2.588   2.488   1.326  0.3977 -0.3001 -0.0237
  122SOL    HW1  365   2.669   2.463   1.259  0.8061  2.2870 -4.5234
  122SOL    HW2  366   2.611   2.457   1.423  5.0422 -2.1495  0.5258
  123SOL     OW  367   1.692   0.158   1.744  0.4901 -0.8424  0.4449
  123SOL    HW1  368   1.706   0.072   1.680 -1.1846  0.9828 -1.7682
  123SOL    HW2  369   1.783   0.208   1.760 -3.0685 -1.4087  2.2877
  124SOL     OW  370   3.071   0.440   1.086 -0.0088 -0.0516  0.2596
  124SOL    HW1  371   2.983   0.483   1.121 -0.3755 -0.8009  0.1131
  124SOL    HW2  372   3.097   0.483   0.996 -1.4512  1.2505  1.1556
  125SOL     OW  373   0.865   1.919   0.829  0.3136  0.6103 -0.0639
  125SOL    HW1  374   0.954   1.872   0.814 -4.3996  0.6915  0.6888
  125SOL    HW2  375   0.875   2.006   0.887 -0.5720  1.3836  4.5165
  126SOL     OW  376   1.902   2.299   2.462 -0.4792 -0.0601  0.7450
  126SOL    HW1  377   1.939   2.263   2.375 -2.0506 -0.2898  0.6017
  126SOL    HW2  378   1.909   2.237   2.545 -3.2224 -0.8557  2.4775
  127SOL     OW  379   0.877   0.994   0.228 -0.1658 -0.0602 -0.2164
  127SOL    HW1  380   0.944   1.016   0.305  0.1586 -0.1902  0.8266
  127SOL    HW2  381   0.881   0.890   0.206 -0.4882 -1.0425 -1.2656
  128SOL     OW  382   0.957   0.253   1.448  0.3703 -0.4054  0.3282
  128SOL    HW1  383   0.908   0.311   1.375 -3.5513 -1.9315  3.8895
  128SOL    HW2  384   0.904   0.163   1.444 -3.8129  2.2381 -3.5588
  129SOL     OW  385   1.852   0.699   1.860 -0.2228  0.2595  0.8180
  129SOL    HW1  386   1.860   0.680   1.755 -1.7226  1.5472 -3.8877
  129SOL    HW2  387   1.885   0.795   1.892  1.5100  0.3824 -0.2878
  130SOL     OW  388   1.365   2.298   0.969 -0.9124  0.1158 -0.0736
  130SOL    HW1  389   1.362   2.233   0.890  1.0535  0.8173  1.0379
  130SOL    HW2  390   1.445   2.367   0.965 -0.9858  1.7957  1.7187
  131SOL     OW  391   3.088   1.421   1.362  0.4463 -0.5167  0.1365
  131SOL    HW1  392   3.087   1.323   1.384 -2.6986  1.1944 -0.1374
  131SOL    HW2  393   3.183   1.463   1.349 -0.8304 -0.9271 -0.6477
  132SOL     OW  394   2.052   2.357   0.511 -0.0405 -0.2285  0.5355
  132SOL    HW1  395   1.957   2.397   0.532 -2.1047 -0.0989  1.4647
  132SOL    HW2  396   2.075   2.280   0.578  0.5524  1.9162  1.1510
  133SOL     OW  397   1.751   2.430   2.735 -0.4690  0.9210  0.1421
  133SOL    HW1  398   1.688   2.471   2.666  0.5721  3.0147  1.7135
  133SOL    HW2  399   1.847   2.463   2.720 -3.7788 -0.2138  0.7488
  134SOL     OW  400   2.697   2.398   1.586 -0.2275  0.0665 -0.2293
  134SOL    HW1  401   2.634   2.382   1.671 -0.0703  0.3042  2.1467
  134SOL    HW2  402   2.792   2.436   1.609  0.3251  0.4109  0.5220
  135SOL     OW  403   0.733   1.426   2.665  0.3174 -0.0591 -1.0024
  135SOL    HW1  404   0.713   1.325   2.700  0.7927 -0.4740  2.3515
  135SOL    HW2  405   0.739   1.422   2.561 -0.9008 -1.4240 -1.8660
  136SOL     OW  406   1.180   2.040   0.387  0.2425 -0.2107 -0.0950
  136SOL    HW1  407   1.100   2.099   0.418  0.1802  0.7308 -3.1504
  136SOL    HW2  408   1.170   1.940   0.400  0.0098  2.6994  1.2734
  137SOL     OW  409   0.405   1.221   2.242  0.0578  0.1481 -0.0454
  137SOL    HW1  410   0.316   1.205   2.292 -0.1792  1.6034  0.0101
  137SOL    HW2  411   0.464   1.135   2.235  1.5315 -3.5605 -0.1395
  138SOL     OW  412   2.444   1.530   0.263 -0.4424 -0.0525  0.1056
  138SOL    HW1  413   2.353   1.521   0.219  0.9233 -0.4032 -2.9694
  138SOL    HW2  414   2.466   1.442   0.316  0.6538  1.2209  0.3694
  139SOL     OW  415   1.843   2.666   1.583 -0.3844  0.3383  0.1242
  139SOL    HW1  416   1.758   2.719   1.550 -2.1964  1.4834 -0.0960
  139SOL    HW2  417   1.857   2.571   1.545 -0.8783  0.3550 -0.5886
  140SOL     OW  418   2.984   2.966   2.611  0.0958  0.2712 -0.4950
  140SOL    HW1  419   3.036   2.877   2.599  2.5367 -0.6852  0.1817
  140SOL    HW2  420   3.031   3.043   2.562 -1.4387  2.2332  1.2337
  141SOL     OW  421   1.298   1.616   1.542  0.3557 -0.2961  0.0725
  141SOL    HW1  422   1.214   1.675   1.521 -0.5112 -0.6370 -2.2521
  141SOL    HW2  423   1.288   1.559   1.627 -1.5351 -0.3291 -0.3280
  142SOL     OW  424   1.503   0.657   2.211  0.1001  0.3520 -0.1321
  142SOL    HW1  425   1.473   0.721   2.133  0.6597  1.3038 -0.9562
  142SOL    HW2  426   1.423   0.596   2.242  1.4451 -1.4093 -2.3485
  143SOL     OW  427   2.772   0.809   0.556  0.0760  0.2160  0.2990
  143SOL    HW1  428   2.806   0.871   0.477  0.0852  3.2184 -2.1319
  143SOL    HW2  429   2.779   0.853   0.655 -1.2471 -0.5284 -0.0462
  144SOL     OW  430   2.930   1.178   1.454 -0.0247 -0.0264  0.5167
  144SOL    HW1  431   2.870   1.189   1.537  2.2443  0.7493  2.0645
  144SOL    HW2  432   3.001   1.105   1.469 -1.0128  0.4311  2.2715
  145SOL     OW  433   0.864   1.838   0.103 -0.4506 -0.2638  0.2717
  145SOL    HW1  434   0.887   1.853   0.002  1.2474 -4.5042 -2.1755
  145SOL    HW2  435   0.807   1.750   0.124  0.4316  0.0284  0.8347
  146SOL     OW  436   2.458   0.687   1.515  0.2232 -0.3965  0.1988
  146SOL    HW1  437   2.414   0.599   1.482 -0.6980  1.5382 -3.1864
  146SOL    HW2  438   2.407   0.772   1.475  0.1884  1.7391  0.2030
  147SOL     OW  439   1.100   2.505   0.603 -0.1809 -0.0828 -0.4471
  147SOL    HW1  440   1.034   2.542   0.533  0.0511  0.3843 -0.5702
  147SOL    HW2  441   1.194   2.489   0.561 -0.4304 -0.2967 -1.5536
  148SOL     OW  442   1.619   1.474   3.070  0.2073 -0.1796  0.2553
  148SOL    HW1  443   1.601   1.371   3.044 -0.3809  0.8276 -0.8443
  148SOL    HW2  444   1.588   1.493   3.169 -1.6308  3.8506 -1.7312
  149SOL     OW  445   0.668   1.513   1.966  0.1027 -0.1650  0.5534
  149SOL    HW1  446   0.573   1.503   2.009  0.7487 -1.4480 -2.0884
  149SOL    HW2  447   0.673   1.450   1.883 -0.7923  0.1516  0.8438
  150SOL     OW  448   3.036   1.177   0.962  0.2056  0.4760 -0.2489
  150SOL    HW1  449   3.118   1.185   1.027 -0.6616  1.7346  0.8736
  150SOL    HW2  450   2.954   1.119   1.006  0.0262 -0.0430  1.1829
  151SOL     OW  451   0.267   0.837   2.088 -0.0231  0.6938 -0.7831
  151SOL    HW1  452   0.327   0.916   2.060  1.4998  1.1806 -4.2073
  151SOL    HW2  453   0.289   0.754   2.027 -0.1114 -0.0875 -0.2703
  152SOL     OW  454   1.456   1.835   1.107  0.3254 -0.1056 -0.3817
  152SOL    HW1  455   1.512   1.928   1.117  1.9217 -0.1810 -1.0490
  152SOL    HW2  456   1.354   1.861   1.089 -1.4175  0.5478 -1.3076
  153SOL     OW  457   0.145   1.528   0.211  0.1764  0.2318  0.0300
  153SOL    HW1  458   0.094   1.446   0.188 -2.4432  2.4424 -0.1500
  153SOL    HW2  459   0.125   1.561   0.307  0.2810 -0.9250 -1.4997
  154SOL     OW  460   2.267   1.785   2.771  0.3544 -0.5160 -0.0650
  154SOL    HW1  461   2.272   1.681   2.771 -0.6178 -1.8236 -1.6320
  154SOL    HW2  462   2.351   1.831   2.725  0.6553 -3.6988  0.9895
  155SOL     OW  463   2.439   1.276   0.358 -0.6437  0.2155  0.3126
  155SOL    HW1  464   2.534   1.244   0.333  0.2242 -0.8223  1.5138
  155SOL    HW2  465   2.381   1.193   0.387 -2.2614  3.1657  2.4723
  156SOL     OW  466   2.413   0.837   0.696 -0.6586 -0.0062 -0.0093
  156SOL    HW1  467   2.311   0.829   0.708  0.7418  0.0838  1.0799
  156SOL    HW2  468   2.435   0.884   0.606  1.3203 -1.2189 -1.9095
  157SOL     OW  469   1.203   2.987   3.010  0.0281  0.4629  0.5338
  157SOL    HW1  470   1.242   2.925   2.940  3.4732 -0.2697  0.0350
  157SOL    HW2  471   1.248   3.082   3.020  0.8719  1.3720  0.9047
  158SOL     OW  472   1.074   1.860   1.837  0.1824  0.2113 -0.0490
  158SOL    HW1  473   1.104   1.958   1.831  2.8763 -1.8970 -1.4190
  158SOL    HW2  474   0.988   1.851   1.897 -0.2860  1.4521 -0.2005
  159SOL     OW  475   0.853   0.427   1.233 -0.1383 -0.1944  0.1174
  159SOL    HW1  476   0.781   0.491   1.265  1.5677  1.8810 -0.5600
  159SOL    HW2  477   0.815   0.369   1.153 -0.7644  1.7752  2.3346
  160SOL     OW  478   1.440   2.455   1.454 -0.6328  0.1311 -0.2753
  160SOL    HW1  479   1.405   2.384   1.517  0.5791 -0.3812 -1.5492
  160SOL    HW2  480   1.518   2.414   1.400 -1.0825 -3.0441  0.9888
  161SOL     OW  481   3.048   2.656   0.434  0.1685  0.1178 -0.2858
  161SOL    HW1  482   3.020   2.552   0.421  1.0205  0.3355  0.9550
  161SOL    HW2  483   2.998   2.726   0.371  2.6950  2.7951 -0.9507
  162SOL     OW  484   2.564   1.865   0.463 -1.2323 -0.3035 -0.2874
  162SOL    HW1  485   2.582   1.825   0.371  3.9183  1.0688  1.1316
  162SOL    HW2  486   2.497   1.801   0.510 -1.1941  1.1936 -0.3810
  163SOL     OW  487   1.949   2.705   0.767 -0.6638  0.0001  0.4120
  163SOL    HW1  488   1.961   2.737   0.665 -0.1502 -0.2491 -1.0542
  163SOL    HW2  489   2.010   2.625   0.798  2.2087 -0.1604  3.3825
  164SOL     OW  490   3.087   0.197   1.205  0.6152 -0.9755  0.5977
  164SOL    HW1  491   3.107   0.298   1.175  0.2241 -0.7055  0.5986
  164SOL    HW2  492   3.135   0.176   1.297 -1.3128 -3.8995 -1.2753
  165SOL     OW  493   1.132   1.403   0.673  0.6720  0.1646 -0.0584
  165SOL    HW1  494   1.118   1.459   0.759 -0.3663  1.9059 -1.1449
  165SOL    HW2  495   1.073   1.444   0.594 -3.0874  0.0234  0.1111
  166SOL     OW  496   1.505   1.004   1.802  0.1272 -0.1618  0.4195
  166SOL    HW1  497   1.419   1.056   1.835  0.9103  3.3219 -1.0537
  166SOL    HW2  498   1.592   1.063   1.801  0.3131  0.5931 -0.0270
  167SOL     OW  499   0.681   1.969   1.472 -0.6086  0.2013  0.6946
  167SOL    HW1  500   0.725   2.011   1.558  1.3531 -2.8720 -0.3692
  167SOL    HW2  501   0.650   1.875   1.495 -0.8349  2.3755  2.0402
  168SOL     OW  502   1.558   2.330   0.145  0.8856 -0.0237 -0.1277
  168SOL    HW1  503   1.581   2.377   0.054  2.1358  1.8316  0.1616
  168SOL    HW2  504   1.643   2.330   0.204 -0.1435 -0.0051  1.0768
  169SOL     OW  505   0.060   2.548   2.187 -0.3147 -0.0898 -0.0914
  169SOL    HW1  506   0.093   2.479   2.120 -0.0654  0.3879  0.5885
  169SOL    HW2  507   0.103   2.542   2.284  1.6140 -1.4416  1.0697
  170SOL     OW  508   1.172   0.167   2.043  0.1100 -0.2873  0.0542
  170SOL    HW1  509   1.265   0.198   2.080 -0.9878 -1.0198 -1.9501
  170SOL    HW2  510   1.176   0.156   1.936  0.6908 -2.1492 -1.9778
  171SOL     OW  511   0.229   0.861   2.351 -0.7845 -0.2807  0.9436
  171SOL    HW1  512   0.130   0.869   2.367 -0.8762 -0.5640 -0.5627
  171SOL    HW2  513   0.247   0.867   2.244 -3.3099  0.7532  0.1561
  172SOL     OW  514   0.964   1.056   2.862  0.0250  0.0913  0.2433
  172SOL    HW1  515   0.913   1.135   2.900  0.6527  1.2721 -0.3653
  172SOL    HW2  516   0.907   0.992   2.805  1.3740 -0.4594  0.8913
  173SOL     OW  517   0.483   2.491   0.092 -0.1999  0.6813 -0.0395
  173SOL    HW1  518   0.512   2.492  -0.007  2.1742  2.9878  1.1112
  173SOL    HW2  519   0.417   2.424   0.134 -0.0328  1.1187  1.5672
  174SOL     OW  520   1.518   2.863   1.080 -0.2915  0.4970 -0.5254
  174SOL    HW1  521   1.572   2.894   0.999 -1.4731  0.7199  1.6970
  174SOL    HW2  522   1.465   2.776   1.061 -0.2050 -0.6624 -2.3352
  175SOL     OW  523   0.399   3.066   1.727  0.0543  0.2941 -0.0386
  175SOL    HW1  524   0.488   3.058   1.779 -2.6999  0.1218 -0.7463
  175SOL    HW2  525   0.361   3.160   1.713  1.6996 -1.6274 -0.5431
  176SOL     OW  526   2.639   0.388   0.030  0.0119  0.6509  0.0819
  176SOL    HW1  527   2.647   0.479   0.079  1.4521 -0.4863 -0.4362
  176SOL    HW2  528   2.716   0.321   0.058  2.1045  2.0642 -0.0591
  177SOL     OW  529   0.386   0.312   0.953  0.2263 -0.2286 -0.6397
  177SOL    HW1  530   0.371   0.216   0.920  0.0705  1.6885  1.8108
  177SOL    HW2  531   0.309   0.360   1.003  0.5278  0.9653 -3.7480
  178SOL     OW  532   0.037   2.730   2.561  0.5771  0.3617  0.3415
  178SOL    HW1  533  -0.023   2.646   2.554  1.7584  1.5191  3.1107
  178SOL    HW2  534   0.093   2.732   2.649 -0.2910  0.4553  0.0595
  179SOL     OW  535   2.971   1.542   1.127 -0.3016 -0.1428  0.2020
  179SOL    HW1  536   3.053   1.597   1.085 -0.3301  3.5134  0.9018
  179SOL    HW2  537   2.997   1.486   1.212  0.4140  3.5294 -0.9106
  180SOL     OW  538   0.204   1.369   1.792 -0.0866 -0.0137 -0.4302
  180SOL    HW1  539   0.295   1.331   1.824  1.2306 -0.9172 -0.3135
  180SOL    HW2  540   0.160   1.441   1.860  1.4563  3.0275  1.2211
  181SOL     OW  541   2.964   1.904   2.541 -0.5632 -0.1270  0.0278
  181SOL    HW1  542   3.029   1.957   2.480 -0.1773 -0.7747 -0.5744
  181SOL    HW2  543   2.878   1.895   2.486  2.9481  0.7052 -0.4219
  182SOL     OW  544   2.292   1.338   1.253 -0.4600  0.3043  0.1319
  182SOL    HW1  545   2.253   1.266   1.181 -0.0393 -1.3533  0.3725
  182SOL    HW2  546   2.332   1.419   1.201 -1.6532  1.1027  0.9821
  183SOL     OW  547   1.401   2.283   2.462  0.0241 -0.7335 -0.2061
  183SOL    HW1  548   1.343   2.198   2.471  0.1692  0.5488 -1.4507
  183SOL    HW2  549   1.502   2.257   2.462 -0.5312 -2.3233 -0.8435
  184SOL     OW  550   2.133   0.815   0.755  0.1473  0.0475 -0.2346
  184SOL    HW1  551   2.036   0.844   0.754 -0.0120  0.7005  3.7414
  184SOL    HW2  552   2.140   0.719   0.724 -1.7196  2.2480  0.1847
  185SOL     OW  553   1.580   2.781   2.025  0.7766  0.1443 -0.4046
  185SOL    HW1  554   1.498   2.845   2.012  0.1954 -0.8891 -0.2972
  185SOL    HW2  555   1.613   2.776   2.125 -0.5879 -0.9115 -1.0717
  186SOL     OW  556   0.083   2.211   1.680  0.3377 -0.4860  0.4686
  186SOL    HW1  557   0.036   2.245   1.764  2.9519 -0.5213  3.2649
  186SOL    HW2  558   0.153   2.145   1.702  0.5797  0.6874 -0.1041
  187SOL     OW  559   1.348   0.649   1.650  0.3337  0.2075 -0.2149
  187SOL    HW1  560   1.445   0.695   1.630  3.7906  1.1996 -2.4701
  187SOL    HW2  561   1.353   0.570   1.711  0.7234 -0.6618 -0.5547
  188SOL     OW  562   2.743   2.710   1.457 -0.1006 -0.3421  0.5218
  188SOL    HW1  563   2.756   2.807   1.413  2.6128  1.2390 -0.0250
  188SOL    HW2  564   2.689   2.642   1.401 -0.0617 -0.9204  1.1275
  189SOL     OW  565   0.916   1.212   1.370  0.2266  0.3987  0.1044
  189SOL    HW1  566   0.962   1.278   1.441 -2.0058  2.0101  1.0183
  189SOL    HW2  567   0.832   1.250   1.323  2.3471  1.2823 -1.8968
  190SOL     OW  568   1.459   1.887   1.522  0.0508 -0.5265 -0.1315
  190SOL    HW1  569   1.420   1.792   1.549  0.6376 -1.2779  2.5308
  190SOL    HW2  570   1.473   1.956   1.600 -2.0253  1.3746 -0.0502
  191SOL     OW  571   0.876   0.801   1.521 -0.2502 -0.8005  0.4199
  191SOL    HW1  572   0.929   0.758   1.600  1.8079 -1.0806 -2.3914
  191SOL    HW2  573   0.944   0.862   1.463  0.8090 -0.9265  1.1076
  192SOL     OW  574   1.831   2.461   1.102 -0.2742 -0.3432  0.1783
  192SOL    HW1  575   1.731   2.450   1.069  1.3647  0.5822  0.8584
  192SOL    HW2  576   1.904   2.416   1.038 -1.5778 -3.4528 -3.2137
  193SOL     OW  577   0.566   0.577   0.475  0.3363  0.1941 -0.3308
  193SOL    HW1  578   0.477   0.514   0.479  0.4598  0.9005  0.5295
  193SOL    HW2  579   0.596   0.585   0.378 -1.2233  1.4936  1.9094
  194SOL     OW  580   0.353   0.873   1.338 -0.0245 -0.4807  0.9721
  194SOL    HW1  581   0.277   0.808   1.308 -0.6398 -1.2137 -1.9861
  194SOL    HW2  582   0.410   0.897   1.257 -0.8134 -2.6382  2.7691
  195SOL     OW  583   0.982   2.907   0.538 -0.0298  0.5651  0.4246
  195SOL    HW1  584   0.956   2.810   0.511 -1.2726  0.7547  1.1856
  195SOL    HW2  585   1.082   2.930   0.529 -1.3699  2.4636  0.2544
  196SOL     OW  586   0.280   1.401   1.335 -0.0456  0.2951 -0.1382
  196SOL    HW1  587   0.282   1.503   1.362  3.0734 -0.6625 -1.5935
  196SOL    HW2  588   0.269   1.334   1.417  1.8325  2.5286  2.2236
  197SOL     OW  589   0.843   2.027   0.315 -0.4361  0.2146  0.3466
  197SOL    HW1  590   0.840   1.971   0.402 -1.0647  1.1512 -1.0664
  197SOL    HW2  591   0.861   1.970   0.228  0.0317  2.7049 -2.4573
  198SOL     OW  592   0.306   1.253   0.338 -0.1511  0.1006 -0.1604
  198SOL    HW1  593   0.207   1.234   0.318  0.4878 -2.5754 -2.3632
  198SOL    HW2  594   0.329   1.346   0.376  3.3232 -0.9801  0.9742
  199SOL     OW  595   2.195   0.473   2.583 -0.9071  0.4124 -0.1967
  199SOL    HW1  596   2.109   0.432   2.624 -2.6182 -0.6376  1.4489
  199SOL    HW2  597   2.284   0.437   2.621 -2.1180 -0.4175 -1.6032
  200SOL     OW  598   3.064   2.957   0.820 -0.8322 -0.6669 -0.1615
  200SOL    HW1  599   3.105   3.045   0.855  2.9217 -3.4892 -1.2976
  200SOL    HW2  600   3.035   2.971   0.724  1.8575 -0.6575  0.4083
  201SOL     OW  601   0.931   0.702   0.522 -0.1158 -0.9458  0.0646
  201SOL    HW1  602   0.902   0.786   0.569  3.4808 -1.3212 -1.7362
  201SOL    HW2  603   0.875   0.614   0.542  1.6144 -0.0594  1.1923
  202SOL     OW  604   0.441   1.247   1.825  0.2381 -0.2205  0.1181
  202SOL    HW1  605   0.500   1.189   1.767 -1.0411 -1.0836  3.5403
  202SOL    HW2  606   0.480   1.286   1.912  1.2128 -1.0761 -0.0980
  203SOL     OW  607   0.661   0.244   1.570  0.2477  0.7908  0.4262
  203SOL    HW1  608   0.682   0.200   1.480 -0.5777  1.4991  1.9399
  203SOL    HW2  609   0.709   0.200   1.647 -3.1609  1.4030  0.3614
  204SOL     OW  610   2.068   1.794   2.957  0.2898 -0.2971 -0.3101
  204SOL    HW1  611   2.063   1.694   2.967  1.1704  1.8525 -1.8977
  204SOL    HW2  612   2.142   1.827   2.893  0.2551  1.8672 -1.3532
  205SOL     OW  613   1.835   1.880   3.082 -0.0667  0.7542 -0.3824
  205SOL    HW1  614   1.923   1.864   3.032 -2.7405 -1.1220  1.2728
  205SOL    HW2  615   1.792   1.973   3.061  0.3657 -0.2794  2.2121
  206SOL     OW  616   2.418   2.750   0.292 -0.0301 -0.1156 -0.8098
  206SOL    HW1  617   2.400   2.665   0.352 -1.2482 -2.4893 -2.7507
  206SOL    HW2  618   2.497   2.749   0.223 -1.5082 -2.0889  0.1234
  207SOL     OW  619   0.722   1.772   2.837 -0.2366  0.2220 -0.1333
  207SOL    HW1  620   0.817   1.730   2.841  0.9566 -0.4542 -0.5337
  207SOL    HW2  621   0.657   1.730   2.904 -0.5809  1.1937  3.5657
  208SOL     OW  622   1.026   1.608   1.230 -0.0827 -0.4444 -0.2439
  208SOL    HW1  623   0.963   1.617   1.147 -1.8814 -3.8437 -0.6631
  208SOL    HW2  624   0.976   1.571   1.314  1.1536 -1.9819  1.3010
  209SOL     OW  625   0.257   0.967   3.088  0.3560 -0.3438  0.3241
  209SOL    HW1  626   0.218   0.884   3.038  1.8878 -3.0924 -1.3490
  209SOL    HW2  627   0.243   0.966   3.194  1.0667 -0.4381  1.0640
  210SOL     OW  628   1.716   0.492   1.248  0.1529  0.4786  0.0887
  210SOL    HW1  629   1.650   0.566   1.214 -0.9997  1.8173 -1.4842
  210SOL    HW2  630   1.816   0.510   1.236 -2.5539 -0.2335  0.8592
  211SOL     OW  631   2.076   1.012   1.584  0.5640 -0.1215  0.1673
  211SOL    HW1  632   2.116   0.963   1.667 -0.6741  1.9927  1.5757
  211SOL    HW2  633   2.133   1.103   1.565  4.2872  1.5551  0.1626
  212SOL     OW  634   0.015   0.990   1.488 -0.1597 -0.1597  0.2831
  212SOL    HW1  635   0.080   1.064   1.520 -0.5326  1.8291 -0.5811
  212SOL    HW2  636   0.042   0.899   1.525  1.7574  1.1390  1.6029
  213SOL     OW  637   2.793   0.197   0.271  0.7947 -0.1132  0.6464
  213SOL    HW1  638   2.881   0.149   0.275 -1.3681 -3.2461  1.1184
  213SOL    HW2  639   2.715   0.131   0.252  2.1429 -1.3172 -0.9375
  214SOL     OW  640   2.165   0.342   2.333  0.4925  0.0492 -0.0389
  214SOL    HW1  641   2.187   0.395   2.425 -1.6961 -0.0663  3.9018
  214SOL    HW2  642   2.170   0.239   2.343  0.2033  0.4629  0.6971
  215SOL     OW  643   1.657   2.242   2.069 -0.1529 -0.3895 -0.3081
  215SOL    HW1  644   1.759   2.269   2.072 -1.4764 -1.6136 -0.4885
  215SOL    HW2  645   1.590   2.318   2.101 -1.6585 -0.3066 -1.6197
  216SOL     OW  646   2.154   0.563   0.660  0.6396 -0.1825  0.6496
  216SOL    HW1  647   2.096   0.482   0.629 -0.7535  0.2827  0.9047
  216SOL    HW2  648   2.219   0.587   0.595 -0.9228 -0.7765  4.8667
  217SOL     OW  649   0.916   2.797   2.543 -0.3443 -0.2769 -0.2331
  217SOL    HW1  650   0.946   2.718   2.607  0.7631 -3.1435 -3.5604
  217SOL    HW2  651   0.864   2.771   2.459  0.7887  0.0722 -0.8060
  218SOL     OW  652   1.877   1.459   0.021 -0.2411 -0.1875  0.4896
  218SOL    HW1  653   1.786   1.484  -0.025  0.3120 -1.1699  0.4248
  218SOL    HW2  654   1.871   1.392   0.100 -0.3995 -1.3785  1.7928
  219SOL     OW  655   2.458   1.259   2.513 -0.1234  0.0686  0.4355
  219SOL    HW1  656   2.503   1.199   2.434 -2.5812 -1.6808 -0.6669
  219SOL    HW2  657   2.464   1.217   2.609  0.7010  0.8948 -0.9970
  220SOL     OW  658   1.425   1.007   1.386 -0.1021  0.1719 -0.4036
  220SOL    HW1  659   1.522   0.979   1.367 -0.5421  1.8663 -0.7417
  220SOL    HW2  660   1.387   1.053   1.301 -0.3165 -2.5585 -1.2835
  221SOL     OW  661   1.364   0.970   2.223  0.2248 -0.0546 -0.7735
  221SOL    HW1  662   1.351   0.999   2.128 -1.5114  0.9399 -1.3555
  221SOL    HW2  663   1.447   1.020   2.270 -0.8432  1.5119  0.6931
  222SOL     OW  664   1.122   0.081   1.238  0.1873 -0.3434  0.0816
  222SOL    HW1  665   1.134   0.148   1.313  1.8710 -2.2548 -0.0748
  222SOL    HW2  666   1.111   0.129   1.144  0.9787  1.6637  0.7377
  223SOL     OW  667   2.702   0.928   2.091  0.3233  0.4838  0.1686
  223SOL    HW1  668   2.657   1.019   2.072 -1.8124 -0.7414  0.8223
  223SOL    HW2  669   2.780   0.933   2.161 -0.9446  0.4558  0.2174
  224SOL     OW  670   1.590   1.042   2.749  0.4196 -1.0413  0.2738
  224SOL    HW1  671   1.588   0.961   2.681  0.2421  0.2029  0.4150
  224SOL    HW2  672   1.622   1.131   2.697  0.9290  1.9003 -3.0520
  225SOL     OW  673   2.961   2.681   2.873 -0.0091  0.0038  0.5667
  225SOL    HW1  674   2.873   2.694   2.823  3.4689  0.2304  1.8533
  225SOL    HW2  675   3.012   2.771   2.890 -0.1024 -1.9494 -1.1570
  226SOL     OW  676   2.359   1.514   2.812  0.3426 -0.3426 -0.4805
  226SOL    HW1  677   2.421   1.493   2.731  1.1138 -1.2078  2.1355
  226SOL    HW2  678   2.397   1.485   2.907  0.8222 -1.3980 -2.8256
  227SOL     OW  679   0.842   0.260   3.074 -0.0122 -0.2615  0.3668
  227SOL    HW1  680   0.897   0.344   3.053  0.6535  0.6386  1.5256
  227SOL    HW2  681   0.808   0.215   2.989  0.4256 -0.0960  0.3813
  228SOL     OW  682   2.420   0.636   2.826  0.0083  1.0787 -0.2289
  228SOL    HW1  683   2.436   0.724   2.770 -1.4728 -0.1472 -0.2742
  228SOL    HW2  684   2.506   0.573   2.837  2.6964 -0.8095 -0.1634
  229SOL     OW  685   0.488   0.491   1.802 -0.8713  0.2811  0.3469
  229SOL    HW1  686   0.527   0.399   1.843 -0.8479 -1.4619  0.7423
  229SOL    HW2  687   0.522   0.510   1.709  1.7254  1.8338  1.9099
  230SOL     OW  688   1.878   1.228   2.003 -0.2298 -0.4808 -0.3697
  230SOL    HW1  689   1.956   1.294   1.983  0.9599 -0.9110 -2.1226
  230SOL    HW2  690   1.799   1.281   2.048  0.5179 -0.0954 -2.0145
  231SOL     OW  691   0.640   1.064   3.086  0.0434  0.1185  0.0999
  231SOL    HW1  692   0.721   1.125   3.100 -2.9252 -2.0830 -2.9068
  231SOL    HW2  693   0.550   1.101   3.117 -4.8803 -1.3092  0.8846
  232SOL     OW  694   2.413   3.015   2.844 -0.0462  0.1735 -0.5062
  232SOL    HW1  695   2.472   2.937   2.875  0.6438  3.1274  0.3265
  232SOL    HW2  696   2.441   3.062   2.755  0.4581  0.5945 -0.6077
  233SOL     OW  697   1.725   1.216   1.161 -0.2926 -0.6241 -0.7131
  233SOL    HW1  698   1.804   1.245   1.095  0.5408  1.6471  0.4462
  233SOL    HW2  699   1.721   1.113   1.174  0.0644  0.3355 -0.2835
  234SOL     OW  700   1.649   2.568   1.818 -0.0837  0.2008 -0.0883
  234SOL    HW1  701   1.604   2.641   1.872 -0.2116  2.3205  1.9770
  234SOL    HW2  702   1.586   2.480   1.810 -1.3564 -1.0102 -1.9254
  235SOL     OW  703   3.084   2.934   2.900 -0.2252 -0.2912 -0.2487
  235SOL    HW1  704   3.065   2.996   2.824  0.5464  0.6626  2.3717
  235SOL    HW2  705   3.067   2.976   2.993 -0.7455 -1.0092  1.7681
  236SOL     OW  706   2.926   0.662   0.065  0.3717  0.5040 -0.0009
  236SOL    HW1  707   2.982   0.689   0.147 -1.5437  2.5149 -3.2111
  236SOL    HW2  708   2.979   0.599   0.005 -0.4222  1.5421 -0.1410
  237SOL     OW  709   1.418   1.626   0.911 -0.1397  0.0151 -0.1066
  237SOL    HW1  710   1.507   1.572   0.899  0.8387  1.5867 -1.2071
  237SOL    HW2  711   1.427   1.694   0.986 -0.0228 -0.6663 -1.1518
  238SOL     OW  712   1.894   1.198   0.788  0.2527  0.5805  0.0630
  238SOL    HW1  713   1.939   1.215   0.876 -0.2355 -0.3676 -0.9741
  238SOL    HW2  714   1.800   1.247   0.787  3.3445 -2.7307  0.0153
  239SOL     OW  715   2.065   0.253   2.728  0.1203 -0.4853 -0.3512
  239SOL    HW1  716   2.095   0.218   2.819 -1.1997  2.2432  0.1611
  239SOL    HW2  717   1.973   0.310   2.743 -1.7047 -2.0580  0.1673
  240SOL     OW  718   0.907   0.693   0.231 -0.2717 -0.0187  0.2471
  240SOL    HW1  719   0.973   0.624   0.194 -3.9967  1.8387  0.1432
  240SOL    HW2  720   0.920   0.703   0.331  1.6691 -0.0063 -3.3759
  241SOL     OW  721   0.570   0.125   0.384 -0.1694  0.9479 -0.5978
  241SOL    HW1  722   0.629   0.182   0.319 -1.0510 -0.4560 -2.5197
  241SOL    HW2  723   0.515   0.045   0.335  0.0055 -1.8417  0.7522
  242SOL     OW  724   0.631   2.550   1.170 -0.0414  0.0969 -0.0367
  242SOL    HW1  725   0.638   2.540   1.273  0.0198  0.7054  0.3505
  242SOL    HW2  726   0.626   2.642   1.132  2.2082 -1.7857  0.4507
  243SOL     OW  727   1.039   0.601   2.393 -0.2757 -0.2598  0.0762
  243SOL    HW1  728   0.940   0.630   2.378 -0.9980  1.7728 -0.2825
  243SOL    HW2  729   1.042   0.544   2.478 -1.1447  0.0443 -2.2255
  244SOL     OW  730   2.767   1.914   2.353  0.0173  0.5730 -0.2844
  244SOL    HW1  731   2.796   1.897   2.253 -0.1720 -2.6653  0.8025
  244SOL    HW2  732   2.686   1.852   2.384 -0.6294 -0.3469  1.8595
  245SOL     OW  733   2.182   0.948   2.143  0.1334  0.8618 -0.0277
  245SOL    HW1  734   2.281   0.934   2.167  0.4267  1.4147  0.7365
  245SOL    HW2  735   2.126   1.003   2.210 -2.0881 -0.0689 -0.8348
  246SOL     OW  736   0.248   2.828   1.792  0.0579 -0.4024  0.7325
  246SOL    HW1  737   0.155   2.817   1.740 -0.7292 -0.7439  2.4125
  246SOL    HW2  738   0.307   2.911   1.764  3.5063  0.7004 -1.3094
  247SOL     OW  739   2.231   0.619   3.035 -0.1696 -0.1563  0.0708
  247SOL    HW1  740   2.277   0.620   2.943  1.6678  0.1897 -1.4655
  247SOL    HW2  741   2.157   0.695   3.051 -0.3823  1.1896  2.3961
  248SOL     OW  742   2.193   1.852   1.629 -0.4364  0.2449  0.1330
  248SOL    HW1  743   2.273   1.803   1.673  3.2797 -1.2535 -0.9681
  248SOL    HW2  744   2.097   1.812   1.640  1.1369  0.8715 -0.1732
  249SOL     OW  745   1.913   1.891   1.835 -0.3274  0.2354  0.0448
  249SOL    HW1  746   1.921   1.824   1.757 -1.3303  2.3968 -1.3504
  249SOL    HW2  747   2.002   1.905   1.886 -2.3720 -2.3596  1.2829
  250SOL     OW  748   1.058   0.702   1.862 -1.3981  0.1302  0.0914
  250SOL    HW1  749   1.116   0.638   1.925  2.5419 -0.9193 -0.3161
  250SOL    HW2  750   1.055   0.663   1.767  0.9286 -0.0650  2.0283
  251SOL     OW  751   3.034   1.633   2.541  0.6720 -0.5275 -0.7162
  251SOL    HW1  752   2.986   1.720   2.560  0.8356 -4.4029  2.5612
  251SOL    HW2  753   2.972   1.552   2.526  0.8825 -1.2823  1.7629
  252SOL     OW  754   1.571   0.800   1.600 -0.8503  0.6696 -1.5589
  252SOL    HW1  755   1.607   0.842   1.513  0.3787  0.0408 -0.5697
  252SOL    HW2  756   1.533   0.866   1.674  0.7116  0.2970  0.1084
  253SOL     OW  757   0.965   1.525   0.480 -0.6165 -0.1777 -0.2985
  253SOL    HW1  758   0.954   1.476   0.391  0.3906 -1.3674 -2.5576
  253SOL    HW2  759   0.878   1.543   0.531  1.3657 -1.8680  2.0119
  254SOL     OW  760   2.027   2.209   1.630 -0.0261 -0.0665 -0.6199
  254SOL    HW1  761   1.994   2.121   1.583  2.9733  0.6396  0.9507
  254SOL    HW2  762   1.955   2.275   1.661  0.2940 -0.2117 -0.7511
  255SOL     OW  763   0.145   1.157   2.925 -0.2257 -0.5771  0.3114
  255SOL    HW1  764   0.183   1.258   2.923  3.7724  2.5595 -1.2309
  255SOL    HW2  765   0.194   1.086   2.984 -2.3595  0.6784  0.8806
  256SOL     OW  766   2.832   1.382   1.840  0.1783  0.1789 -0.4864
  256SOL    HW1  767   2.754   1.438   1.807 -0.3144  0.0396 -0.5609
  256SOL    HW2  768   2.833   1.283   1.799 -1.2080 -1.1853 -2.3020
  257SOL     OW  769   0.802   0.157   1.819  0.4454  0.2907  0.2499
  257SOL    HW1  770   0.872   0.238   1.790  3.0576  2.8526 -3.2986
  257SOL    HW2  771   0.848   0.061   1.817 -0.8446  2.4309  3.6055
  258SOL     OW  772   2.985   1.168   0.524  0.0327 -0.8258  0.0173
  258SOL    HW1  773   2.904   1.181   0.589 -1.4467  0.0108  3.4075
  258SOL    HW2  774   3.069   1.205   0.573  0.2037 -1.0271  1.9648
  259SOL     OW  775   0.439   2.914   3.008  0.9596  0.4773  0.0686
  259SOL    HW1  776   0.369   2.866   3.061  0.9407  3.7422  0.3657
  259SOL    HW2  777   0.467   2.855   2.925 -0.1739  0.0969  0.5107
  260SOL     OW  778   2.720   0.762   2.732 -0.4286  0.2586 -0.5552
  260SOL    HW1  779   2.629   0.805   2.700 -3.0317 -0.8671  0.7196
  260SOL    HW2  780   2.705   0.678   2.792 -3.5369  1.0625  2.4592
  261SOL     OW  781   2.717   1.300   1.333 -0.2844  0.3885  0.0484
  261SOL    HW1  782   2.681   1.241   1.252  2.1263 -2.2078 -1.6825
  261SOL    HW2  783   2.811   1.260   1.357 -1.0278 -0.9200  0.2871
  262SOL     OW  784   1.367   2.960   2.037 -0.0822  0.0277  0.1857
  262SOL    HW1  785   1.400   3.045   1.993 -1.8957 -0.3806 -0.7602
  262SOL    HW2  786   1.261   2.954   2.034 -1.9732  2.9753  2.7025
  263SOL     OW  787   0.799   0.679   2.276  0.2866 -0.2636 -0.6420
  263SOL    HW1  788   0.716   0.630   2.247 -0.3076 -1.3245  1.3505
  263SOL    HW2  789   0.827   0.747   2.202 -1.3610  0.0096  1.6243
  264SOL     OW  790   2.289   0.817   0.403 -0.2238  0.1883 -0.4753
  264SOL    HW1  791   2.260   0.740   0.344 -1.8057  1.3210 -0.1468
  264SOL    HW2  792   2.390   0.825   0.399  0.2680  0.5547  1.5576
  265SOL     OW  793   0.949   2.384   2.614 -0.6426 -0.4655  0.3869
  265SOL    HW1  794   1.017   2.441   2.679  0.1490 -0.2296  2.7321
  265SOL    HW2  795   0.890   2.323   2.667 -0.0772  0.5842 -2.7678
  266SOL     OW  796   1.324   1.763   3.061  0.4473 -0.0304  0.2208
  266SOL    HW1  797   1.290   1.807   3.148  1.4640 -2.7813 -0.1859
  266SOL    HW2  798   1.428   1.757   3.048 -0.4258  0.2072 -1.7022
  267SOL     OW  799   1.089   0.029   2.260 -0.4767  0.4573 -0.0670
  267SOL    HW1  800   1.021  -0.038   2.226 -1.6252  0.2838  1.5025
  267SOL    HW2  801   1.121   0.095   2.182  3.1558  1.7937 -2.2605
  268SOL     OW  802   0.849   1.242   1.059 -0.0097 -0.1066 -0.2112
  268SOL    HW1  803   0.832   1.327   1.110  0.9988 -0.2764  2.6473
  268SOL    HW2  804   0.904   1.251   0.968  1.6487  0.3927 -1.9838
  269SOL     OW  805   2.374   2.480   1.650  0.0253 -0.3331 -0.3160
  269SOL    HW1  806   2.444   2.413   1.693 -0.4845 -0.4710 -1.5094
  269SOL    HW2  807   2.337   2.538   1.731  0.2814  1.4751 -1.2777
  270SOL     OW  808   0.126   2.981   2.008  0.2342  0.0702 -0.1920
  270SOL    HW1  809   0.176   2.912   1.945  2.1880  0.7249  0.0724
  270SOL    HW2  810   0.074   2.935   2.086 -0.1536 -0.2451  1.6087
  271SOL     OW  811   0.506   1.398   1.119  0.0522 -0.1987  0.1823
  271SOL    HW1  812   0.527   1.341   1.036 -0.7692 -1.7916  3.5679
  271SOL    HW2  813   0.413   1.367   1.161 -0.6080 -1.0502  1.6273
  272SOL     OW  814   1.911   3.067   1.955 -0.6147  0.6308  0.0400
  272SOL    HW1  815   1.834   3.002   1.934  0.9017  1.1267  0.7801
  272SOL    HW2  816   1.990   3.056   1.885 -2.9635 -3.4383 -1.5982
  273SOL     OW  817   1.531   1.463   2.791  0.0206  0.5196  0.9310
  273SOL    HW1  818   1.431   1.482   2.780  1.5714  1.0560  1.8724
  273SOL    HW2  819   1.556   1.429   2.885 -0.4489 -1.5997 -0.1583
  274SOL     OW  820   1.148   0.518   2.045 -0.7580 -0.1267  0.2816
  274SOL    HW1  821   1.052   0.489   2.063 -0.2762  1.9207  1.3684
  274SOL    HW2  822   1.209   0.540   2.127  1.1633 -0.2871  1.6535
  275SOL     OW  823   0.631   2.113   1.944  0.5284 -0.1810  0.1130
  275SOL    HW1  824   0.596   2.210   1.952  1.5196  0.0596  3.1668
  275SOL    HW2  825   0.558   2.039   1.952 -2.1638  0.0665  1.4087
  276SOL     OW  826   2.210   0.998   2.789  0.4658 -0.4978  0.0281
  276SOL    HW1  827   2.126   1.026   2.737 -0.5273 -0.7401  0.6136
  276SOL    HW2  828   2.226   0.896   2.779  3.4923 -0.8047 -0.2972
  277SOL     OW  829   3.075   0.792   0.287  0.0328 -0.1363 -0.3037
  277SOL    HW1  830   3.149   0.864   0.270  0.2862  0.7148 -0.7343
  277SOL    HW2  831   3.101   0.721   0.361  1.3850 -1.1060 -0.5167
  278SOL     OW  832   0.266   0.256   2.999  0.7206  0.4168  0.7318
  278SOL    HW1  833   0.350   0.197   2.968  1.9139  1.8255 -0.5091
  278SOL    HW2  834   0.296   0.341   3.044  1.2852 -2.1418  1.9856
  279SOL     OW  835   0.265   0.044   0.926  0.1295 -0.5635  0.4150
  279SOL    HW1  836   0.311  -0.005   1.007 -1.3300  0.3343 -0.3904
  279SOL    HW2  837   0.239  -0.014   0.844  1.3077 -2.0751 -2.1746
  280SOL     OW  838   1.630   2.953   2.413  0.3821 -0.4180  0.0845
  280SOL    HW1  839   1.689   3.020   2.472 -0.2970  1.8819  1.1607
  280SOL    HW2  840   1.555   3.000   2.372  2.9980  1.1433  0.3183
  281SOL     OW  841   0.531   0.939   2.257 -0.2582  0.0408 -0.1511
  281SOL    HW1  842   0.511   0.859   2.193  1.0713  0.1068  0.4336
  281SOL    HW2  843   0.502   0.929   2.356  0.0767 -0.1692 -0.8368
  282SOL     OW  844   1.776   2.453   0.551  0.0624 -0.3297 -0.1163
  282SOL    HW1  845   1.722   2.383   0.497  0.6628 -1.4453  2.0595
  282SOL    HW2  846   1.728   2.544   0.567 -0.8170  2.4732 -0.1831
  283SOL     OW  847   1.135   0.888   0.769  0.0257 -0.4617 -0.1820
  283SOL    HW1  848   1.179   0.869   0.861  0.4934 -2.3378  0.4077
  283SOL    HW2  849   1.130   0.990   0.753  1.0043  0.4278 -1.7181
  284SOL     OW  850   2.245   2.831   2.462 -0.2241 -0.3084 -0.4288
  284SOL    HW1  851   2.349   2.821   2.447 -0.3811  1.7655  1.4555
  284SOL    HW2  852   2.219   2.876   2.553 -0.7110  3.7062  3.2632
  285SOL     OW  853   1.384   0.022   2.586 -0.0451 -0.1749 -0.2717
  285SOL    HW1  854   1.414   0.002   2.490 -2.5440  2.0360  0.1747
  285SOL    HW2  855   1.282   0.036   2.599 -0.6178 -1.1536 -1.1669
  286SOL     OW  856   0.426   0.488   0.740 -0.1850 -0.1074 -0.5553
  286SOL    HW1  857   0.417   0.432   0.824  0.6209  2.1322  1.2319
  286SOL    HW2  858   0.433   0.426   0.657  1.6650  2.3614 -0.3211
  287SOL     OW  859   0.080   1.325   2.652 -0.1613  0.0839 -0.6725
  287SOL    HW1  860   0.052   1.227   2.667  2.0999 -1.7118  3.0909
  287SOL    HW2  861   0.122   1.363   2.743 -2.0666  3.2268  3.3656
  288SOL     OW  862   1.509   2.736   1.639 -0.4548  0.1069  0.2934
  288SOL    HW1  863   1.557   2.652   1.687  0.7479 -0.5263 -1.2403
  288SOL    HW2  864   1.546   2.740   1.541  0.1802  1.7767 -1.3820
  289SOL     OW  865   0.615   2.738   0.869  0.2372  0.2299 -0.2095
  289SOL    HW1  866   0.662   2.817   0.815 -0.1167 -1.9426  2.4604
  289SOL    HW2  867   0.584   2.780   0.963 -2.4177  0.7335  0.9791
  290SOL     OW  868   2.803   1.118   1.723  0.2379  0.1962 -0.6576
  290SOL    HW1  869   2.727   1.053   1.747 -0.2085 -1.9509  0.5259
  290SOL    HW2  870   2.899   1.103   1.760 -1.3114  3.4833 -0.3990
  291SOL     OW  871   1.955   0.001   0.066  0.2719 -0.0328 -0.2797
  291SOL    HW1  872   1.981   0.069   0.137  1.9621 -2.5321  0.9832
  291SOL    HW2  873   2.002   0.022  -0.025 -1.1114 -3.4752 -1.8625
  292SOL     OW  874   3.003   1.171   3.068 -0.2933 -0.7629 -0.6369
  292SOL    HW1  875   2.950   1.262   3.050  0.0329 -1.9743  3.1006
  292SOL    HW2  876   3.092   1.164   3.012 -0.9807  2.0718 -1.4986
  293SOL     OW  877   0.566   2.093   0.308  0.3724 -0.3001  0.2506
  293SOL    HW1  878   0.532   2.173   0.363 -0.2172 -0.6886  1.4716
  293SOL    HW2  879   0.670   2.087   0.295  0.1973 -1.5998 -0.3762
  294SOL     OW  880   1.858   2.385   1.775  0.3722  0.1115 -0.4530
  294SOL    HW1  881   1.904   2.376   1.868  0.9043 -0.9248  1.2229
  294SOL    HW2  882   1.794   2.465   1.777 -1.3313  0.5956  1.7550
  295SOL     OW  883   1.016   1.053   0.446  0.5650 -0.2144  0.3866
  295SOL    HW1  884   1.111   1.065   0.480  0.0895 -1.0390  0.7371
  295SOL    HW2  885   0.942   1.034   0.521 -2.4308 -0.8829 -1.6408
  296SOL     OW  886   1.151   2.141   2.745 -0.3834 -0.0245  0.5027
  296SOL    HW1  887   1.049   2.154   2.758  1.7624  2.4320 -0.5071
  296SOL    HW2  888   1.181   2.106   2.648 -1.5350  0.6198  0.4747
  297SOL     OW  889   1.321   0.558   1.224 -0.0475 -0.2099 -1.2367
  297SOL    HW1  890   1.355   0.493   1.303 -1.4386 -2.3662  1.6241
  297SOL    HW2  891   1.399   0.624   1.202 -0.0084  0.9043 -0.6687
  298SOL     OW  892   0.492   1.342   2.953 -0.8566  0.0225 -0.2489
  298SOL    HW1  893   0.474   1.280   3.033 -1.0765 -0.5090  0.0837
  298SOL    HW2  894   0.538   1.292   2.876  0.3891  1.3745 -1.0763
  299SOL     OW  895   0.415   0.200   1.259  0.3832  0.1130 -0.7958
  299SOL    HW1  896   0.367   0.285   1.220 -2.0593  1.3969 -0.4743
  299SOL    HW2  897   0.422   0.196   1.364 -0.0302 -2.1513 -0.9117
  300SOL     OW  898   1.279   1.761   2.565  0.2760  0.6391  0.0114
  300SOL    HW1  899   1.273   1.681   2.500 -2.3599 -0.0575 -0.0554
  300SOL    HW2  900   1.362   1.759   2.621  1.0051  0.2387 -2.5797
  301SOL     OW  901   0.427   0.338   0.485 -0.0857 -0.2587 -0.9449
  301SOL    HW1  902   0.340   0.282   0.489  1.8953  1.6174  0.7330
  301SOL    HW2  903   0.504   0.281   0.448  0.6442  1.4991  3.4597
  302SOL     OW  904   1.274   2.463   2.241  0.1586 -0.0447  0.0799
  302SOL    HW1  905   1.171   2.466   2.246  0.4005 -3.1442 -0.5682
  302SOL    HW2  906   1.312   2.393   2.310 -0.0695 -0.1720  0.9760
  303SOL     OW  907   0.977   2.403   0.824  0.3626 -0.3071  0.1373
  303SOL    HW1  908   1.047   2.428   0.747  0.6340  0.3036  1.5578
  303SOL    HW2  909   0.964   2.470   0.905  0.2170 -2.2833 -0.8260
  304SOL     OW  910   0.116   1.899   0.675  0.3910  0.3288  0.0865
  304SOL    HW1  911   0.189   1.861   0.618 -0.5149  1.6729 -0.3326
  304SOL    HW2  912   0.020   1.908   0.626  2.4104 -0.3607  0.5433
  305SOL     OW  913   1.578   0.847   0.708  0.0068 -0.6061  0.2097
  305SOL    HW1  914   1.515   0.865   0.634  2.7484 -1.8524 -0.7590
  305SOL    HW2  915   1.637   0.767   0.682 -1.9003 -2.0911 -4.0636
  306SOL     OW  916   0.428   1.896   1.920 -0.3007 -0.8199  0.8582
  306SOL    HW1  917   0.499   1.823   1.892 -2.8468 -0.5142  1.3193
  306SOL    HW2  918   0.419   1.915   2.021 -0.4153 -0.3421 -2.4511
  307SOL     OW  919   3.054   0.884   2.459 -0.1727 -0.0525 -0.0176
  307SOL    HW1  920   3.075   0.940   2.545 -1.3037  0.2899  1.5576
  307SOL    HW2  921   2.983   0.808   2.475  0.5134 -1.4346 -3.7282
  308SOL     OW  922   1.489   2.708   2.796 -0.0482  0.2979  0.2859
  308SOL    HW1  923   1.465   2.687   2.699 -2.6289  1.1950  3.5182
  308SOL    HW2  924   1.469   2.627   2.861 -1.2649  1.1351  0.1427
  309SOL     OW  925   1.245   0.145   1.777  0.4935  0.3477 -0.1076
  309SOL    HW1  926   1.333   0.096   1.799 -0.6565 -1.3403  0.2369
  309SOL    HW2  927   1.226   0.142   1.677 -0.6326 -1.4790 -0.4313
  310SOL     OW  928   1.468   2.608   0.653  0.1709 -0.0368 -0.8097
  310SOL    HW1  929   1.431   2.656   0.739 -0.2292  0.8807  0.0502
  310SOL    HW2  930   1.530   2.666   0.603 -2.9873 -1.4936  1.6573
  311SOL     OW  931   1.089   0.970   1.782 -0.8811 -0.2390  0.0949
  311SOL    HW1  932   1.082   0.881   1.832  1.0614  2.4686  1.8782
  311SOL    HW2  933   1.149   0.970   1.698  0.7646  0.3473  2.5345
  312SOL     OW  934   1.519   0.659   1.066 -0.6814  0.0618 -0.3745
  312SOL    HW1  935   1.533   0.760   1.083  4.1773 -2.6576 -0.1284
  312SOL    HW2  936   1.479   0.637   0.970  0.2459 -0.1700 -0.1536
  313SOL     OW  937   1.650   1.280   0.733 -0.3411 -0.4630  0.0963
  313SOL    HW1  938   1.563   1.300   0.787  0.6343  0.0724  0.8214
  313SOL    HW2  939   1.647   1.202   0.665  1.0199 -2.8903  0.3407
  314SOL     OW  940   2.985   3.074  -0.002 -0.3639 -0.2300  0.1978
  314SOL    HW1  941   3.012   3.081   0.096  0.2634 -1.5398 -2.1947
  314SOL    HW2  942   2.906   3.005  -0.008  1.0328  1.4582  2.5882
  315SOL     OW  943   1.181   0.200   2.793  0.3539  0.1996  0.3847
  315SOL    HW1  944   1.134   0.146   2.713 -1.0262 -1.0401  2.1112
  315SOL    HW2  945   1.237   0.142   2.857  0.2409 -0.4574  1.4811
  316SOL     OW  946   1.686   2.091   0.870  0.1056 -0.0214  0.6232
  316SOL    HW1  947   1.638   2.089   0.964  2.4265 -2.2331 -2.1083
  316SOL    HW2  948   1.686   2.190   0.838  0.1074  0.6988  0.9308
  317SOL     OW  949   1.165   0.689   2.772 -0.0732  0.0611  0.5800
  317SOL    HW1  950   1.112   0.737   2.844  1.2648 -1.1185 -1.4317
  317SOL    HW2  951   1.117   0.606   2.728  0.1672  1.0676 -0.5673
  318SOL     OW  952   1.429   3.071   2.301  0.2646  0.4497  1.0244
  318SOL    HW1  953   1.424   3.172   2.289  0.9236 -0.6836  3.2772
  318SOL    HW2  954   1.426   3.015   2.214  0.9503  0.5495  1.8735
  319SOL     OW  955   0.664   2.395   2.966  0.0154  0.3025  0.3669
  319SOL    HW1  956   0.629   2.341   3.050  1.9199 -1.8201  1.7715
  319SOL    HW2  957   0.722   2.330   2.908  1.1806 -0.8104 -0.3836
  320SOL     OW  958   1.695   2.242   0.383 -0.5992 -0.5065 -0.0093
  320SOL    HW1  959   1.768   2.169   0.380 -0.1360  2.0688  2.0540
  320SOL    HW2  960   1.595   2.206   0.388  0.8205  3.5683  1.0462
  321SOL     OW  961   1.657   2.763   0.525 -1.2297 -0.6820 -0.0687
  321SOL    HW1  962   1.568   2.807   0.481  0.3448  1.6586 -0.2273
  321SOL    HW2  963   1.747   2.818   0.517  2.2420 -1.4556 -0.4689
  322SOL     OW  964   2.560   1.112   2.324  0.4941  0.5739  0.3766
  322SOL    HW1  965   2.648   1.097   2.378  0.8125  0.8983 -0.2273
  322SOL    HW2  966   2.506   1.024   2.297 -2.7369 -1.5003 -1.1899
  323SOL     OW  967   1.185   2.692   0.822  0.2478 -0.1018  0.0794
  323SOL    HW1  968   1.140   2.647   0.745  0.4230  0.8667  1.8476
  323SOL    HW2  969   1.149   2.785   0.858 -1.9545  2.1129  2.6245
  324SOL     OW  970   0.214   2.530   2.435 -0.6147  0.3254  0.1644
  324SOL    HW1  971   0.167   2.454   2.488 -0.3710  0.0182  1.2995
  324SOL    HW2  972   0.200   2.621   2.477 -0.1118 -2.6396  1.7948
  325SOL     OW  973   1.242   3.038   0.461  0.2364  1.0779  0.2842
  325SOL    HW1  974   1.188   3.054   0.374  0.7989 -1.0049 -0.0609
  325SOL    HW2  975   1.291   3.125   0.488  0.1383 -1.4143  1.2871
  326SOL     OW  976   2.507   0.775   3.088 -0.1506  0.3276 -0.0442
  326SOL    HW1  977   2.452   0.701   3.039  1.4582  0.4264 -1.4109
  326SOL    HW2  978   2.587   0.737   3.140  2.4601 -1.2433 -0.3087
  327SOL     OW  979   2.840   0.303   0.531  0.6079  0.2192  0.3124
  327SOL    HW1  980   2.829   0.272   0.429 -0.4475 -2.1792  3.2214
  327SOL    HW2  981   2.843   0.223   0.604  0.2997 -0.9416  0.4305
  328SOL     OW  982   2.554   0.662   0.383 -0.2808  0.0866 -0.3371
  328SOL    HW1  983   2.618   0.676   0.464  0.6366  0.8505 -0.2300
  328SOL    HW2  984   2.524   0.562   0.372  0.7510 -0.4434  2.4748
  329SOL     OW  985   2.942   3.048   2.131 -0.0730  0.5350  0.1946
  329SOL    HW1  986   3.028   3.010   2.175 -0.3518  2.2435 -0.8273
  329SOL    HW2  987   2.958   3.148   2.109  0.8325  1.4432  0.4128
  330SOL     OW  988   0.539   0.230   1.890 -0.4775  0.1129 -0.9908
  330SOL    HW1  989   0.641   0.234   1.857  0.3017  1.8115 -1.3665
  330SOL    HW2  990   0.535   0.165   1.971  0.0293 -1.0924  0.0734
  331SOL     OW  991   3.013   1.898   1.128  0.8968  0.1631  0.3381
  331SOL    HW1  992   2.947   1.909   1.047 -1.4765  2.4661  2.1923
  331SOL    HW2  993   2.960   1.855   1.207 -0.1380  1.8165 -2.2434
  332SOL     OW  994   0.390   1.204   0.078 -0.1206  0.5818 -0.0028
  332SOL    HW1  995   0.328   1.128   0.046 -0.4756 -1.1564  3.1907
  332SOL    HW2  996   0.372   1.241   0.175  1.7484  1.9066  0.5018
  333SOL     OW  997   2.865   0.977   0.343 -0.0493 -0.4534  0.2773
  333SOL    HW1  998   2.916   1.045   0.412 -0.1125  3.6374  1.1867
  333SOL    HW2  999   2.933   0.933   0.283 -1.4139 -2.1353 -1.8575
  334SOL     OW 1000   1.722   1.194   1.770  0.3049 -0.5533  0.2346
  334SOL    HW1 1001   1.771   1.197   1.679 -1.0456 -0.0851 -0.2265
  334SOL    HW2 1002   1.771   1.217   1.857 -1.8655 -2.9353  0.0770
  335SOL     OW 1003   1.925   2.811   2.633 -0.5371  0.3348  0.4067
  335SOL    HW1 1004   1.883   2.780   2.724  1.3026  0.2263 -0.5192
  335SOL    HW2 1005   1.965   2.908   2.635 -1.0566  0.8662  1.0672
  336SOL     OW 1006   0.238   3.090   2.700 -0.1084  0.0289 -0.1973
  336SOL    HW1 1007   0.290   3.168   2.741 -1.1632 -0.5510 -2.6126
  336SOL    HW2 1008   0.290   3.004   2.707  1.2647  1.1034 -0.1431
  337SOL     OW 1009   0.957   2.900   2.957 -0.5638 -0.5310  0.1144
  337SOL    HW1 1010   0.975   2.815   3.015 -2.3063 -0.2069 -0.8401
  337SOL    HW2 1011   1.049   2.957   2.944  4.2343  2.9567 -0.7123
  338SOL     OW 1012   0.007   0.924   0.668 -0.3544 -0.2507  0.0747
  338SOL    HW1 1013  -0.098   0.921   0.666 -0.1651  0.4812  2.4516
  338SOL    HW2 1014   0.037   1.018   0.700 -0.5860 -0.1991 -0.6044
  339SOL     OW 1015   1.679   1.342   2.147  1.0659 -0.6874 -0.1016
  339SOL    HW1 1016   1.601   1.397   2.095  4.9408  5.2595 -0.9947
  339SOL    HW2 1017   1.750   1.413   2.187 -0.2041 -0.0036  2.3268
  340SOL     OW 1018   2.234   0.796   1.149  0.2270  0.5038  0.1063
  340SOL    HW1 1019   2.156   0.858   1.174  0.2801 -2.5111 -0.9413
  340SOL    HW2 1020   2.214   0.732   1.068 -0.1958 -1.8050  0.6311
  341SOL     OW 1021   1.915   2.054   0.412 -0.0987  0.5265 -0.1979
  341SOL    HW1 1022   1.951   2.137   0.358  0.8521  0.5601  1.9385
  341SOL    HW2 1023   1.992   2.017   0.477  1.0169  0.7161  1.1916
  342SOL     OW 1024   2.139   2.114   2.709 -0.0340 -0.2046 -0.2997
  342SOL    HW1 1025   2.194   2.023   2.693  1.1193 -0.1009  1.1540
  342SOL    HW2 1026   2.035   2.100   2.702 -0.0481 -1.2426 -0.4083
  343SOL     OW 1027   0.393   0.791   2.746 -0.3278  0.3137  0.0062
  343SOL    HW1 1028   0.397   0.841   2.655 -0.5140  2.3218  0.3710
  343SOL    HW2 1029   0.465   0.821   2.813 -2.5115  1.0705 -0.2820
  344SOL     OW 1030   1.926   1.477   0.423  0.0013 -0.0004  0.3182
  344SOL    HW1 1031   1.937   1.402   0.353  1.1291 -0.6289  1.7525
  344SOL    HW2 1032   1.828   1.485   0.458  1.2915 -2.0899  1.5499
  345SOL     OW 1033   1.386   2.205   2.847 -0.3482 -0.2531 -0.0979
  345SOL    HW1 1034   1.307   2.187   2.777 -2.9078 -0.7380 -1.7375
  345SOL    HW2 1035   1.469   2.151   2.817 -0.7469  0.8583 -0.8074
  346SOL     OW 1036   2.325   0.889   1.398 -0.3788 -0.5493 -0.5362
  346SOL    HW1 1037   2.269   0.970   1.427 -2.1117 -0.9796  0.4194
  346SOL    HW2 1038   2.304   0.850   1.304 -0.4509 -0.8520 -1.8266
  347SOL     OW 1039   0.717   2.767   1.662 -0.5459  0.7003  0.2874
  347SOL    HW1 1040   0.718   2.858   1.707  3.1819  0.9156 -3.7737
  347SOL    HW2 1041   0.640   2.761   1.588 -2.0855 -0.0809 -0.4000
  348SOL     OW 1042   0.170   0.771   2.924 -0.0444 -0.5668  0.5028
  348SOL    HW1 1043   0.089   0.723   2.876 -0.2054 -1.6527 -0.4320
  348SOL    HW2 1044   0.248   0.779   2.856  2.1007 -1.0992 -0.2167
  349SOL     OW 1045   1.858   0.435   2.806  0.2048 -0.0844 -0.0935
  349SOL    HW1 1046   1.824   0.514   2.749 -0.3827  0.8492  2.3276
  349SOL    HW2 1047   1.837   0.453   2.907  1.0092 -0.3032 -1.7265
  350SOL     OW 1048   1.687   0.388   0.356 -0.2587  0.2885 -0.0729
  350SOL    HW1 1049   1.735   0.373   0.446 -0.0348  0.8322 -2.8991
  350SOL    HW2 1050   1.651   0.487   0.351 -0.3238  1.6108  1.3683
  351SOL     OW 1051   0.885   0.843   2.068 -0.4016  0.8625 -0.0934
  351SOL    HW1 1052   0.929   0.932   2.045  0.5828 -1.6772  1.5103
  351SOL    HW2 1053   0.941   0.769   2.026  2.4838 -1.2985  0.4240
  352SOL     OW 1054   2.068   1.347   0.617 -0.0726 -0.1990  0.1715
  352SOL    HW1 1055   2.016   1.397   0.540 -0.1521  0.0009 -1.0080
  352SOL    HW2 1056   2.007   1.281   0.667 -3.3782  0.7503 -2.2485
  353SOL     OW 1057   2.196   2.757   1.105 -0.4508 -0.3559 -0.5571
  353SOL    HW1 1058   2.270   2.690   1.138 -0.5578  3.7070 -2.1259
  353SOL    HW2 1059   2.150   2.801   1.186  3.2516  0.6968 -2.9916
  354SOL     OW 1060   0.240   1.433   2.878  0.3214 -0.1350  0.4473
  354SOL    HW1 1061   0.241   1.523   2.823  2.5687 -1.0146 -0.6164
  354SOL    HW2 1062   0.330   1.422   2.929 -0.5364 -2.9776 -0.5695
  355SOL     OW 1063   0.703   1.576   0.605 -0.3754 -0.2753  0.0651
  355SOL    HW1 1064   0.686   1.523   0.696 -1.5497  0.6102  2.7933
  355SOL    HW2 1065   0.653   1.526   0.529 -2.7945 -2.1985  0.5723
  356SOL     OW 1066   0.906   0.285   2.043  0.3608  0.1906  0.4308
  356SOL    HW1 1067   1.007   0.263   2.061  0.2630 -1.7685  2.0150
  356SOL    HW2 1068   0.863   0.217   1.984 -1.0107  1.1071  0.8520
  357SOL     OW 1069   1.016   1.346   0.286 -0.0041  0.4188 -0.9679
  357SOL    HW1 1070   1.109   1.390   0.315  0.7177  0.3131  1.1023
  357SOL    HW2 1071   0.994   1.258   0.336  3.8267 -1.0404  0.1084
  358SOL     OW 1072   1.685   1.484   0.539  0.5836 -0.5600 -0.0924
  358SOL    HW1 1073   1.679   1.406   0.608  0.5496 -0.0004  4.1625
  358SOL    HW2 1074   1.620   1.470   0.455 -0.5734  0.8985 -2.0745
  359SOL     OW 1075   1.618   2.600   0.302  0.2678  0.1931 -0.2562
  359SOL    HW1 1076   1.542   2.530   0.295  3.2218 -0.9501 -0.2085
  359SOL    HW2 1077   1.623   2.648   0.396  0.9415 -0.0936  0.2674
  360SOL     OW 1078   0.807   0.473   0.583  0.4585 -0.0887  0.0538
  360SOL    HW1 1079   0.709   0.492   0.562  1.3854 -2.3991 -0.2681
  360SOL    HW2 1080   0.825   0.370   0.603 -0.2103 -3.8189 -0.6186
  361SOL     OW 1081   1.376   1.316   0.606  0.0622  0.2713 -0.0777
  361SOL    HW1 1082   1.412   1.310   0.700 -0.1148  0.9916  0.1230
  361SOL    HW2 1083   1.281   1.366   0.609 -0.9802  0.3044 -0.5315
  362SOL     OW 1084   1.373   1.823   0.723 -0.8286  0.0945  0.3275
  362SOL    HW1 1085   1.375   1.744   0.794 -0.7737 -1.1531 -0.2998
  362SOL    HW2 1086   1.468   1.863   0.706 -0.5922 -0.3853  0.3150
  363SOL     OW 1087   1.278   1.321   2.104  0.7085 -0.1098 -0.0743
  363SOL    HW1 1088   1.355   1.385   2.086  0.3303 -2.0287  1.4438
  363SOL    HW2 1089   1.193   1.375   2.125  2.2677 -0.3378  3.1960
  364SOL     OW 1090   0.539   2.373   2.056 -0.2958  0.5043 -0.3709
  364SOL    HW1 1091   0.440   2.367   2.024  0.9413 -0.2261 -1.0507
  364SOL    HW2 1092   0.592   2.421   1.980 -0.9068  0.7262 -0.4205
  365SOL     OW 1093   0.969   1.948   1.354 -0.7042  0.5055 -0.3421
  365SOL    HW1 1094   0.870   1.956   1.389 -0.0761 -2.1305  1.0815
  365SOL    HW2 1095   0.987   1.981   1.255 -2.5082 -1.7599 -0.9291
  366SOL     OW 1096   2.822   1.955   0.305 -0.3996  0.1233 -0.2505
  366SOL    HW1 1097   2.777   1.859   0.306 -0.9835 -0.5865 -1.0402
  366SOL    HW2 1098   2.919   1.946   0.274  0.9594 -2.1927 -1.1951
  367SOL     OW 1099   0.894   1.208   0.029 -0.0419 -0.3903 -0.5782
  367SOL    HW1 1100   0.892   1.134   0.104 -1.8877 -1.1045  1.9492
  367SOL    HW2 1101   0.985   1.251   0.011  1.7276  1.0622 -0.2602
  368SOL     OW 1102   1.472   0.590   0.573 -0.4250  0.3737 -0.4112
  368SOL    HW1 1103   1.374   0.601   0.546 -1.0156  0.8195  3.4547
  368SOL    HW2 1104   1.530   0.594   0.485  0.3861  0.4027 -1.9450
  369SOL     OW 1105   0.391   1.680   0.151 -0.2779 -1.0145  0.1346
  369SOL    HW1 1106   0.455   1.718   0.226  0.5761 -1.2769  1.5377
  369SOL    HW2 1107   0.314   1.621   0.186  0.2419  3.1645  2.2746
  370SOL     OW 1108   0.374   2.198   1.073 -0.0751  0.4168  0.1174
  370SOL    HW1 1109   0.402   2.290   1.039 -0.0311 -2.1988  1.0242
  370SOL    HW2 1110   0.309   2.142   1.014 -1.3585 -0.3834  1.2438
  371SOL     OW 1111   2.907   2.256   2.694  0.4203 -0.2541  0.5609
  371SOL    HW1 1112   2.975   2.180   2.712  1.1730  0.9280  1.7585
  371SOL    HW2 1113   2.920   2.343   2.754  1.0925  2.3357 -0.5475
  372SOL     OW 1114   1.036   2.126   1.140 -0.5681 -0.9860  0.2780
  372SOL    HW1 1115   0.967   2.151   1.065  0.6852 -0.8067  0.5033
  372SOL    HW2 1116   1.123   2.180   1.140 -0.8259 -1.6119  0.8373
  373SOL     OW 1117   1.899   1.925   0.979 -0.2250 -0.4830 -0.3275
  373SOL    HW1 1118   1.978   1.971   1.025 -1.9068  0.5087  1.1585
  373SOL    HW2 1119   1.834   2.000   0.943  0.8414  4.5141  1.3873
  374SOL     OW 1120   1.876   0.430   0.574 -0.1286 -0.5493  0.7075
  374SOL    HW1 1121   1.866   0.358   0.642 -1.1978  2.4699 -0.5892
  374SOL    HW2 1122   1.967   0.423   0.519  1.3297  1.7779 -2.2289
  375SOL     OW 1123   2.418   2.219   1.079 -0.1506  0.2148 -0.4312
  375SOL    HW1 1124   2.466   2.284   1.011 -0.7713  1.0000  3.1586
  375SOL    HW2 1125   2.481   2.195   1.161  1.1429 -2.9198 -2.1506
  376SOL     OW 1126   0.024   0.647   1.414  0.4182  0.3760 -0.5560
  376SOL    HW1 1127   0.021   0.675   1.518 -1.8226 -1.6893  1.2316
  376SOL    HW2 1128  -0.049   0.576   1.394 -4.8511  0.7646 -2.1858
  377SOL     OW 1129   2.159   2.860   0.274  0.1864  0.1658 -0.5585
  377SOL    HW1 1130   2.170   2.963   0.289 -1.8639 -0.0348  0.1562
  377SOL    HW2 1131   2.251   2.811   0.271  0.6364  0.0850 -0.4652
  378SOL     OW 1132   1.804   1.893   2.458 -0.1193  0.0839 -0.3360
  378SOL    HW1 1133   1.854   1.877   2.369  0.5431  0.1263 -0.5924
  378SOL    HW2 1134   1.754   1.803   2.483 -1.9367 -0.6363  0.6486
  379SOL     OW 1135   0.735   0.195   2.839 -0.7598 -1.1082  0.4108
  379SOL    HW1 1136   0.783   0.111   2.805  1.1998  0.1653  0.7867
  379SOL    HW2 1137   0.741   0.270   2.760  0.0791 -1.6222 -4.5079
  380SOL     OW 1138   1.571   1.152   0.517 -0.5765  0.6221 -0.1095
  380SOL    HW1 1139   1.495   1.222   0.513  1.9801 -1.1889 -0.3421
  380SOL    HW2 1140   1.550   1.063   0.474  2.5470 -0.0866  1.8969
  381SOL     OW 1141   1.317   1.202   1.568 -0.4615 -0.1107 -0.3464
  381SOL    HW1 1142   1.353   1.115   1.529  0.8559 -1.4668 -0.1998
  381SOL    HW2 1143   1.391   1.266   1.610  0.1147 -0.7053 -0.8414
  382SOL     OW 1144   1.810   0.882   0.242  0.1504  0.2456  0.2163
  382SOL    HW1 1145   1.849   0.840   0.157  0.2728  1.4372  0.0362
  382SOL    HW2 1146   1.872   0.860   0.324 -2.2856 -2.1312  0.4107
  383SOL     OW 1147   2.566   1.020   1.481 -0.0214 -0.1318 -0.1989
  383SOL    HW1 1148   2.478   0.989   1.435  0.5130 -0.6744  1.4581
  383SOL    HW2 1149   2.647   1.024   1.413 -2.9713  1.8086  0.9894
  384SOL     OW 1150   0.863   2.260   0.146  0.2952  0.5476  0.4814
  384SOL    HW1 1151   0.844   2.354   0.183 -0.2047 -0.1206  2.6269
  384SOL    HW2 1152   0.874   2.185   0.222 -0.2980 -0.6144 -0.0481
  385SOL     OW 1153   2.960   2.041   1.677  0.3271  0.2945  0.0408
  385SOL    HW1 1154   3.037   2.105   1.649  1.1803 -0.8284  2.5883
  385SOL    HW2 1155   2.986   1.945   1.700 -1.0253  0.0444  1.7622
  386SOL     OW 1156   0.488   1.051   0.481  0.2092 -0.0757  0.2283
  386SOL    HW1 1157   0.440   0.966   0.507 -2.8568  2.3992 -1.3445
  386SOL    HW2 1158   0.425   1.131   0.442  1.3936  0.9856 -2.4113
  387SOL     OW 1159   0.950   0.363   1.698  0.2183  0.0138  0.2521
  387SOL    HW1 1160   0.981   0.462   1.693 -1.2016 -0.7098 -1.9975
  387SOL    HW2 1161   0.940   0.331   1.599  3.7457 -2.2210 -1.0740
  388SOL     OW 1162   1.192   2.712   1.759  0.3732 -0.6659 -0.4792
  388SOL    HW1 1163   1.219   2.748   1.663  0.9274 -1.7953 -3.4476
  388SOL    HW2 1164   1.266   2.650   1.801  2.3822 -1.8071 -0.1267
  389SOL     OW 1165   0.132   2.969   1.369 -0.1428  0.2410  0.2076
  389SOL    HW1 1166   0.041   2.970   1.317  1.6537  1.8089 -1.2802
  389SOL    HW2 1167   0.179   2.877   1.360 -1.1514 -2.0718 -1.5531
  390SOL     OW 1168   1.042   0.972   1.356  0.1757 -0.4086  0.1903
  390SOL    HW1 1169   1.113   0.957   1.427 -0.5590 -1.3358 -1.5211
  390SOL    HW2 1170   1.013   1.074   1.355 -0.1730  1.4584  2.3361
  391SOL     OW 1171   2.173   1.165   1.092 -0.1474  0.1003  0.0013
  391SOL    HW1 1172   2.106   1.091   1.122  0.6395 -0.1717 -0.0831
  391SOL    HW2 1173   2.227   1.141   1.002 -0.6449  1.6521 -4.9004
  392SOL     OW 1174   0.907   2.636   3.094 -0.2868 -0.3153  0.9752
  392SOL    HW1 1175   0.961   2.555   3.047  1.0806  1.4150 -1.6913
  392SOL    HW2 1176   0.835   2.604   3.158 -0.1342  0.9699 -1.1428
  393SOL     OW 1177   0.314   0.568   1.992 -0.3297 -0.0238  0.4350
  393SOL    HW1 1178   0.227   0.519   2.001  0.9704  2.4221 -0.0694
  393SOL    HW2 1179   0.381   0.534   1.917  0.7199  1.0413 -2.2073
  394SOL     OW 1180   3.030   1.983   2.790  0.3654  0.6040 -0.8618
  394SOL    HW1 1181   3.127   1.953   2.805 -3.5814 -0.3664  0.3281
  394SOL    HW2 1182   2.982   1.937   2.711 -2.4346  0.7677 -1.0166
  395SOL     OW 1183   1.616   1.957   0.626  0.1864 -0.3015 -1.2421
  395SOL    HW1 1184   1.686   1.887   0.597  0.1337  0.1712 -2.2116
  395SOL    HW2 1185   1.639   2.006   0.714  1.5383  1.3623 -3.8174
  396SOL     OW 1186   2.831   1.804   1.305  0.0329  0.0992  0.2207
  396SOL    HW1 1187   2.789   1.747   1.234  0.6157  1.0266  0.6600
  396SOL    HW2 1188   2.771   1.830   1.387 -0.1826 -1.2122 -0.3798
  397SOL     OW 1189   1.024   2.246   0.516  0.2928  0.1071  0.0171
  397SOL    HW1 1190   0.945   2.214   0.575  1.5756 -1.2899 -0.4057
  397SOL    HW2 1191   1.047   2.346   0.531  0.9150  2.3025  0.1022
  398SOL     OW 1192   2.155   3.095   1.056 -0.1140  0.1497  0.4171
  398SOL    HW1 1193   2.081   3.046   1.112  0.9117 -0.4441 -0.6417
  398SOL    HW2 1194   2.124   3.188   1.021 -0.7385  0.9391  1.3082
  399SOL     OW 1195   3.063   2.471   2.569 -0.3517 -0.0858 -0.3664
  399SOL    HW1 1196   2.988   2.424   2.518  0.8577  0.7598  0.2556
  399SOL    HW2 1197   3.084   2.424   2.661 -0.9479 -0.9588  2.6654
  400SOL     OW 1198   0.775   1.656   1.382  0.1857  0.4386  0.5985
  400SOL    HW1 1199   0.684   1.663   1.428  3.3451  2.3236  0.5642
  400SOL    HW2 1200   0.791   1.732   1.310 -0.7300  0.0445 -0.5253
  401SOL     OW 1201   1.867   0.122   1.200  0.2830  0.4726  0.2068
  401SOL    HW1 1202   1.912   0.117   1.295 -2.5695  1.6353 -0.6613
  401SOL    HW2 1203   1.772   0.155   1.211  2.5740 -2.4275 -2.9875
  402SOL     OW 1204   1.317   0.149   3.045  0.6985  0.4934 -0.0765
  402SOL    HW1 1205   1.415   0.136   3.010  0.2489  2.2399  0.5638
  402SOL    HW2 1206   1.288   0.248   3.062  2.0512  0.3839 -3.6861
  403SOL     OW 1207   2.285   1.772   0.910  0.0833 -0.4133 -0.2168
  403SOL    HW1 1208   2.387   1.777   0.910 -1.9815  0.8612  0.0916
  403SOL    HW2 1209   2.244   1.865   0.945  0.2507  0.5125 -1.4874
  404SOL     OW 1210   0.207   2.448   2.822 -0.2648 -0.6493 -0.7492
  404SOL    HW1 1211   0.302   2.444   2.790 -2.9987  1.2162 -0.1487
  404SOL    HW2 1212   0.169   2.544   2.820  2.3647 -1.9025  2.1234
  405SOL     OW 1213   0.089   2.456   0.742  0.1696 -0.4542  0.3897
  405SOL    HW1 1214   0.079   2.394   0.664  1.9244 -1.3524  0.8022
  405SOL    HW2 1215   0.159   2.523   0.710  1.8321 -0.9026  3.3664
  406SOL     OW 1216   0.053   1.555   3.048 -0.0054  0.6758  0.4350
  406SOL    HW1 1217   0.091   1.488   2.980 -0.9984 -0.5865 -2.2294
  406SOL    HW2 1218   0.110   1.562   3.137  0.5311  0.6308 -0.6417
  407SOL     OW 1219   1.548   0.950   0.957 -0.0137 -0.0254  0.3622
  407SOL    HW1 1220   1.572   0.924   0.858  0.7975  0.6922 -4.0228
  407SOL    HW2 1221   1.463   1.010   0.968  0.0341 -0.7712  0.5271
  408SOL     OW 1222   1.580   2.439   0.955  0.0666  0.1044  0.4160
  408SOL    HW1 1223   1.636   2.420   0.868  1.6976  1.9513 -0.9197
  408SOL    HW2 1224   1.520   2.523   0.951  0.8632 -0.1748  0.9472
  409SOL     OW 1225   0.683   0.769   0.761  0.1742 -0.2824  0.1510
  409SOL    HW1 1226   0.589   0.780   0.717 -0.7847 -2.5002  1.1488
  409SOL    HW2 1227   0.694   0.681   0.816 -1.3769  0.0865 -1.8450
  410SOL     OW 1228   1.269   2.050   1.371 -0.3546 -0.1766  0.0037
  410SOL    HW1 1229   1.332   1.985   1.421 -0.8501  0.3621 -1.5863
  410SOL    HW2 1230   1.181   2.005   1.353 -1.5692 -3.1269  0.4477
  411SOL     OW 1231   2.630   1.825   3.024 -0.5377  0.2625 -0.2481
  411SOL    HW1 1232   2.550   1.889   3.020  1.6791  1.0099  0.6257
  411SOL    HW2 1233   2.691   1.829   2.940 -0.7302 -1.5853 -0.1802
  412SOL     OW 1234   1.532   2.484   2.147  0.0877  0.0003 -0.7572
  412SOL    HW1 1235   1.586   2.562   2.183 -1.3438 -3.5544  7.3467
  412SOL    HW2 1236   1.432   2.485   2.170 -0.3509  1.4445 -0.3733
  413SOL     OW 1237   3.085   0.203   2.915  0.1937  0.1012 -0.2184
  413SOL    HW1 1238   3.022   0.151   2.979  0.3721 -0.1953 -0.9789
  413SOL    HW2 1239   3.188   0.200   2.937  1.8047 -3.8833 -3.7643
  414SOL     OW 1240   1.887   1.540   1.175 -0.7986 -0.1269  0.2829
  414SOL    HW1 1241   1.821   1.621   1.167 -1.3626  2.1676 -0.1522
  414SOL    HW2 1242   1.854   1.461   1.116  2.6061  1.1115  1.0249
  415SOL     OW 1243   0.383   2.288   0.713 -0.2106 -0.4407 -1.1558
  415SOL    HW1 1244   0.418   2.322   0.809 -0.5334  0.4019  2.0685
  415SOL    HW2 1245   0.281   2.273   0.698 -1.0806  1.7022 -1.3407
  416SOL     OW 1246   0.366   1.020   1.077  0.2838  0.2327 -0.7783
  416SOL    HW1 1247   0.306   0.969   1.003  0.3778 -4.2954 -0.2082
  416SOL    HW2 1248   0.471   1.003   1.066  1.0368  0.4957 -0.7547
  417SOL     OW 1249   2.278   2.359   2.032  0.4319  0.7135  0.3696
  417SOL    HW1 1250   2.337   2.305   2.094 -2.2385  0.2116 -0.9197
  417SOL    HW2 1251   2.265   2.308   1.943  0.9481 -0.3946  2.0706
  418SOL     OW 1252   1.075   0.598   1.350 -0.6049 -0.4120 -0.4255
  418SOL    HW1 1253   1.002   0.545   1.304  1.3290 -0.6638  2.8157
  418SOL    HW2 1254   1.164   0.566   1.303 -0.5738  0.3592 -0.5506
  419SOL     OW 1255   0.943   0.485   2.952  0.0633  0.5890 -0.1247
  419SOL    HW1 1256   0.906   0.484   2.854 -1.9687 -3.6725 -0.3534
  419SOL    HW2 1257   0.973   0.580   2.984 -1.9642  1.5329  3.9949
  420SOL     OW 1258   0.078   2.263   0.554 -0.0249  0.0995  0.3920
  420SOL    HW1 1259   0.122   2.243   0.462 -1.5366 -0.8876  0.4545
  420SOL    HW2 1260   0.026   2.180   0.583  3.3702  0.0059  1.4982
  421SOL     OW 1261   0.328   2.954   0.608 -0.2328 -0.2002 -0.3225
  421SOL    HW1 1262   0.288   2.927   0.700  0.3988 -0.8116 -0.5470
  421SOL    HW2 1263   0.424   2.997   0.619  1.8673 -1.6250 -0.1166
  422SOL     OW 1264   0.997   2.585   1.011 -0.0153  0.6212  0.5610
  422SOL    HW1 1265   1.070   2.639   0.962 -2.9492 -0.0216  0.3424
  422SOL    HW2 1266   1.020   2.558   1.108  0.7980  0.5362  1.0197
  423SOL     OW 1267   0.150   0.744   1.198 -0.6754 -0.0479 -0.2460
  423SOL    HW1 1268   0.091   0.717   1.278  0.1506  2.6381 -3.9685
  423SOL    HW2 1269   0.112   0.828   1.156  1.9194 -1.2368 -1.9743
  424SOL     OW 1270   1.132   2.215   2.039  0.2398 -0.0564 -0.0611
  424SOL    HW1 1271   1.093   2.306   2.009  0.0654  0.5207  0.1246
  424SOL    HW2 1272   1.104   2.197   2.136  0.4978  2.9418 -0.2386
  425SOL     OW 1273   1.957   1.315   1.028 -0.3409  0.6414  0.4013
  425SOL    HW1 1274   2.027   1.242   1.059  1.8480  2.0307  1.8891
  425SOL    HW2 1275   2.001   1.408   1.023  1.5620 -0.4389  1.2478
  426SOL     OW 1276   1.473   1.580   1.339 -0.5572 -0.2078 -0.7518
  426SOL    HW1 1277   1.485   1.666   1.275 -1.0324  3.3842 -2.9429
  426SOL    HW2 1278   1.401   1.596   1.410  3.8721 -1.3063  0.3326
  427SOL     OW 1279   1.903   2.339   2.092  0.2940  0.3375 -0.1614
  427SOL    HW1 1280   1.967   2.279   2.151 -1.4974  0.8632 -0.7460
  427SOL    HW2 1281   1.927   2.437   2.093 -2.2368 -2.3121  3.0368
  428SOL     OW 1282   0.816   3.087   0.141 -0.0774  0.6866  0.0368
  428SOL    HW1 1283   0.845   3.175   0.087 -0.5734  0.4185 -1.8320
  428SOL    HW2 1284   0.882   3.001   0.130  0.1442 -2.0357 -1.5660
  429SOL     OW 1285   1.348   0.113   0.228  0.4149  0.0835 -0.4131
  429SOL    HW1 1286   1.443   0.089   0.266  2.8176  1.3972 -0.1199
  429SOL    HW2 1287   1.331   0.060   0.139 -0.1747  0.4267 -1.0536
  430SOL     OW 1288   2.857   1.400   0.284  0.3895  0.1701  0.0694
  430SOL    HW1 1289   2.894   1.473   0.214 -0.6401  3.0777 -1.1185
  430SOL    HW2 1290   2.859   1.438   0.383  2.3952  0.2827 -3.0774
  431SOL     OW 1291   2.098   1.564   0.966 -0.0139  0.4037  0.0908
  431SOL    HW1 1292   2.171   1.643   0.973 -0.6881  1.0386  4.3726
  431SOL    HW2 1293   2.013   1.596   0.917 -1.3911 -0.1437  0.2407
  432SOL     OW 1294   2.950   2.210   1.158 -0.1133 -0.5803  0.5010
  432SOL    HW1 1295   2.957   2.115   1.201  1.3561 -0.9063 -2.2684
  432SOL    HW2 1296   2.980   2.287   1.219  0.0364 -1.3841 -1.8321
  433SOL     OW 1297   1.842   0.267   0.805  0.4734  0.3375  0.3161
  433SOL    HW1 1298   1.741   0.288   0.825 -2.8661  1.6856 -2.3018
  433SOL    HW2 1299   1.905   0.249   0.890 -2.0580 -1.6432 -3.4794
  434SOL     OW 1300   1.542   0.344   0.691  0.2261 -0.2228  0.1225
  434SOL    HW1 1301   1.527   0.438   0.642 -0.2393  2.6737  0.8438
  434SOL    HW2 1302   1.544   0.365   0.793 -0.0897  2.0268 -0.5192
  435SOL     OW 1303   1.482   1.493   2.023  0.2160 -0.3524 -0.3028
  435SOL    HW1 1304   1.487   1.536   2.117 -0.3413 -2.5526 -3.4093
  435SOL    HW2 1305   1.465   1.557   1.943  1.0908 -1.1530 -1.0221
  436SOL     OW 1306   1.710   2.728   2.252 -0.3621  0.3108 -0.3789
  436SOL    HW1 1307   1.700   2.810   2.310  3.4818 -1.8760 -0.1104
  436SOL    HW2 1308   1.714   2.638   2.311 -0.8681  0.4363 -1.9368
  437SOL     OW 1309   1.107   2.941   0.906  0.7827 -0.3367 -0.1501
  437SOL    HW1 1310   1.025   3.005   0.891 -1.4793 -2.8709  1.2516
  437SOL    HW2 1311   1.130   2.933   1.006 -1.2470 -1.6597  0.9916
  438SOL     OW 1312   1.007   2.648   1.319  0.4588  0.5374 -0.1438
  438SOL    HW1 1313   1.083   2.717   1.309 -1.7985 -3.4327 -1.0697
  438SOL    HW2 1314   1.031   2.559   1.361  1.1376 -0.2730 -3.0536
  439SOL     OW 1315   0.706   1.814   1.150 -0.2779 -0.0633 -0.0932
  439SOL    HW1 1316   0.703   1.891   1.079 -0.2133  1.4264  1.9724
  439SOL    HW2 1317   0.610   1.786   1.182 -0.3792  0.0574 -0.4678
  440SOL     OW 1318   1.070   2.455   1.939  0.0063 -1.0708  0.1452
  440SOL    HW1 1319   1.019   2.505   1.863  1.4225  0.9502 -0.8352
  440SOL    HW2 1320   1.169   2.484   1.932 -1.0522 -3.1132 -0.7272
  441SOL     OW 1321   0.500   2.721   1.470 -0.8918 -0.1916  0.4768
  441SOL    HW1 1322   0.538   2.626   1.473 -1.3181 -1.6237  0.4357
  441SOL    HW2 1323   0.402   2.716   1.432  1.0066 -0.7986  3.3245
  442SOL     OW 1324   2.273   0.739   2.495 -0.1234  0.2341  0.1700
  442SOL    HW1 1325   2.257   0.642   2.532  1.8414 -1.2162  0.7592
  442SOL    HW2 1326   2.186   0.790   2.474  1.0583  0.3883 -1.4627
  443SOL     OW 1327   1.191   2.744   2.205  0.2338 -0.2632 -0.3211
  443SOL    HW1 1328   1.174   2.791   2.295  3.0197 -1.5790 -2.1428
  443SOL    HW2 1329   1.217   2.641   2.214 -2.9513 -1.1547  2.2412
  444SOL     OW 1330   1.056   1.336   1.563 -0.2119  0.2787 -0.2261
  444SOL    HW1 1331   1.153   1.297   1.566 -0.8435  0.3837 -0.8368
  444SOL    HW2 1332   1.028   1.411   1.628 -1.0480 -0.0469 -0.5448
  445SOL     OW 1333   3.096   2.315   1.926 -0.5015  0.0856  0.1641
  445SOL    HW1 1334   3.080   2.414   1.890  1.8277  0.2117 -0.3924
  445SOL    HW2 1335   3.014   2.287   1.983 -0.6064  1.5482 -0.1786
  446SOL     OW 1336   0.150   1.898   2.356  0.0098  0.5558  0.4212
  446SOL    HW1 1337   0.106   1.988   2.386 -0.5062 -1.6061 -2.1297
  446SOL    HW2 1338   0.120   1.858   2.267  2.0219  0.3654  1.7867
  447SOL     OW 1339   1.252   1.696   1.959 -0.2421  0.4653  0.2804
  447SOL    HW1 1340   1.183   1.771   1.933 -0.9095  0.4150 -1.4191
  447SOL    HW2 1341   1.344   1.717   1.918 -3.0163  0.0567 -2.7692
  448SOL     OW 1342   0.154   1.533   2.029 -0.3843 -0.3724 -0.1440
  448SOL    HW1 1343   0.130   1.626   1.989 -3.8395  0.7110  0.1680
  448SOL    HW2 1344   0.133   1.539   2.127  1.3234 -1.2314 -2.1923
  449SOL     OW 1345   2.032   2.963   0.837 -0.1196  0.5774  0.2253
  449SOL    HW1 1346   2.095   3.002   0.909 -2.9297 -0.1147  0.4007
  449SOL    HW2 1347   2.020   2.857   0.831  0.9495  2.1609 -1.1052
  450SOL     OW 1348   2.292   1.362   0.772  0.6462 -0.0344  0.6849
  450SOL    HW1 1349   2.271   1.279   0.824 -0.3673  1.8086 -4.3082
  450SOL    HW2 1350   2.212   1.404   0.724  1.4576  0.6508  1.3024
  451SOL     OW 1351   1.455   0.038   1.472  0.2636  0.0354 -0.3702
  451SOL    HW1 1352   1.366   0.096   1.473  1.1576  0.7775 -0.2946
  451SOL    HW2 1353   1.465  -0.020   1.559 -0.3076 -0.4830 -0.5691
  452SOL     OW 1354   2.650   2.296   2.218 -0.3823  0.2493  0.3492
  452SOL    HW1 1355   2.608   2.389   2.245 -0.9977 -0.8681  0.2116
  452SOL    HW2 1356   2.682   2.237   2.299 -2.8909 -0.6618 -1.5459
  453SOL     OW 1357   2.443   2.652   3.089  0.1783  0.6418 -0.3918
  453SOL    HW1 1358   2.366   2.714   3.070  0.5597 -1.3024 -1.8803
  453SOL    HW2 1359   2.440   2.570   3.026 -1.4259  0.4994  1.5597
  454SOL     OW 1360   0.970   1.115   2.090 -0.1341 -0.1706  0.1146
  454SOL    HW1 1361   0.947   1.156   1.992 -1.2083  0.1686  1.2468
  454SOL    HW2 1362   1.034   1.178   2.143 -1.3671  0.1915  0.3744
  455SOL     OW 1363   0.711   2.648   2.864  0.4644  0.5728  0.0105
  455SOL    HW1 1364   0.777   2.711   2.917  0.7667 -0.3195 -1.7154
  455SOL    HW2 1365   0.688   2.557   2.918  0.5300 -2.6897  0.8829
  456SOL     OW 1366   0.516   1.832   0.346  0.4156 -0.5980 -0.6266
  456SOL    HW1 1367   0.563   1.825   0.437 -2.0663  2.3653 -0.3542
  456SOL    HW2 1368   0.530   1.931   0.302  1.5633  0.9997 -0.7576
  457SOL     OW 1369   0.355   2.641   0.733 -0.2069  0.8183  0.2696
  457SOL    HW1 1370   0.356   2.642   0.627 -2.0651  0.6305 -1.6079
  457SOL    HW2 1371   0.442   2.609   0.772 -1.9431  0.1020  2.2686
  458SOL     OW 1372   2.989   2.986   1.253  0.1912 -0.5093 -0.3388
  458SOL    HW1 1373   3.028   3.044   1.177  1.0140 -0.6427 -1.1811
  458SOL    HW2 1374   2.912   2.925   1.216 -1.6959 -4.1887  1.5349
  459SOL     OW 1375   2.134   2.555   0.916 -0.0923 -0.3892  0.4477
  459SOL    HW1 1376   2.135   2.642   0.971  0.8715  1.3185  1.0539
  459SOL    HW2 1377   2.224   2.533   0.867  0.7221 -1.1801 -0.4242
  460SOL     OW 1378   1.138   1.947   2.971 -0.0476 -0.3196 -0.7218
  460SOL    HW1 1379   1.168   2.029   2.917  0.7715  1.5015 -0.7897
  460SOL    HW2 1380   1.214   1.883   2.989 -0.3794  0.2475  0.3854
  461SOL     OW 1381   0.486   2.125   2.668 -0.5396  0.2785  0.5275
  461SOL    HW1 1382   0.412   2.062   2.634 -0.6987 -0.3356  2.1989
  461SOL    HW2 1383   0.528   2.092   2.754  0.6629 -2.5210 -0.3966
  462SOL     OW 1384   0.933   1.214   1.858  0.6603 -0.1569  0.1636
  462SOL    HW1 1385   0.993   1.150   1.799 -1.1413  0.6954  1.5794
  462SOL    HW2 1386   0.884   1.295   1.807 -4.2024  1.8866 -0.8324
  463SOL     OW 1387   0.443   0.793   0.596 -0.0888 -0.1302  0.7008
  463SOL    HW1 1388   0.508   0.726   0.542  1.3114 -1.7029 -1.0669
  463SOL    HW2 1389   0.342   0.786   0.576 -2.0996  2.4949  2.4483
  464SOL     OW 1390   0.595   2.247   2.295  0.0274 -0.3615 -0.5741
  464SOL    HW1 1391   0.548   2.316   2.352  0.2671 -1.7141 -2.8163
  464SOL    HW2 1392   0.604   2.280   2.198  0.5697 -0.4949 -0.2317
  465SOL     OW 1393   0.238   0.899   0.831  0.3545  0.4781  0.4446
  465SOL    HW1 1394   0.160   0.912   0.768 -1.8374  0.9956  2.0523
  465SOL    HW2 1395   0.256   0.796   0.843  0.1853 -0.4034 -2.3269
  466SOL     OW 1396   1.359   1.117   1.137  0.4316 -0.1264 -0.0762
  466SOL    HW1 1397   1.409   1.203   1.169  0.3722 -1.1058 -1.2835
  466SOL    HW2 1398   1.260   1.143   1.107 -3.1911  0.1940  1.8156
  467SOL     OW 1399   0.479   0.380   2.371 -0.5018 -0.1024 -0.6018
  467SOL    HW1 1400   0.450   0.461   2.430  1.2395 -2.2082 -0.0876
  467SOL    HW2 1401   0.453   0.287   2.410  0.0471  0.8807  1.2493
  468SOL     OW 1402   0.431   2.280   1.671  0.6222  0.2812 -0.1558
  468SOL    HW1 1403   0.458   2.366   1.723 -1.2210 -0.2485  1.6500
  468SOL    HW2 1404   0.410   2.297   1.570  2.0832 -1.2965 -0.8811
  469SOL     OW 1405   1.503   1.353   1.199  0.1812  0.5721 -0.9535
  469SOL    HW1 1406   1.596   1.326   1.167  1.3958  1.6588  2.0496
  469SOL    HW2 1407   1.500   1.421   1.278 -0.3429 -1.7208 -2.9862
  470SOL     OW 1408   3.016   1.686   0.737  0.0858 -0.3662 -0.1323
  470SOL    HW1 1409   3.101   1.739   0.770  0.3486  1.6658 -0.5228
  470SOL    HW2 1410   2.932   1.742   0.757  0.3111  3.2956  0.9698
  471SOL     OW 1411   2.616   1.340   2.147  0.1429 -0.1975 -0.4882
  471SOL    HW1 1412   2.585   1.257   2.204 -0.2190  0.4405 -0.5771
  471SOL    HW2 1413   2.717   1.358   2.153  0.8244  1.1180 -1.8358
  472SOL     OW 1414   1.102   2.425   3.047 -0.2757  0.0124  0.2680
  472SOL    HW1 1415   1.137   2.434   3.143  0.7260  0.8332 -1.6833
  472SOL    HW2 1416   1.050   2.337   3.037  0.9430 -0.2475 -0.3025
  473SOL     OW 1417   1.099   1.541   0.917  0.2342  0.3831  0.1219
  473SOL    HW1 1418   1.002   1.517   0.941 -0.3340  0.4287  3.5163
  473SOL    HW2 1419   1.165   1.543   1.003  1.5074  3.5409 -1.3179
  474SOL     OW 1420   0.816   1.223   0.642  0.4198 -0.2566  0.1101
  474SOL    HW1 1421   0.804   1.187   0.544  0.5883 -2.2448  2.0001
  474SOL    HW2 1422   0.867   1.153   0.701 -0.9739 -1.6116  1.3369
  475SOL     OW 1423   2.858   0.112   0.776  0.3341 -0.0753 -0.2765
  475SOL    HW1 1424   2.946   0.117   0.832  1.5152 -2.5854 -1.4748
  475SOL    HW2 1425   2.769   0.117   0.832  0.5083 -1.3446 -0.8986
  476SOL     OW 1426   0.925   3.008   1.778 -0.5562  0.7110  0.8969
  476SOL    HW1 1427   1.013   2.991   1.834 -0.3803  4.2039  2.0607
  476SOL    HW2 1428   0.928   2.969   1.677  2.8347 -0.6032  1.0771
  477SOL     OW 1429   1.425   0.328   2.456 -0.1235  0.2832 -0.7021
  477SOL    HW1 1430   1.434   0.343   2.559 -2.3800 -1.3909 -0.0506
  477SOL    HW2 1431   1.507   0.281   2.409  0.0346  0.1448  0.9111
  478SOL     OW 1432   2.256   1.801   0.236  0.0340 -0.6237 -0.5174
  478SOL    HW1 1433   2.189   1.728   0.206  0.5525 -0.0355 -0.3855
  478SOL    HW2 1434   2.360   1.782   0.221 -0.6774 -0.9159  0.7209
  479SOL     OW 1435   1.275   1.022   2.886  1.0755 -0.2287  0.4029
  479SOL    HW1 1436   1.356   1.037   2.820 -1.8020  1.4197 -0.2391
  479SOL    HW2 1437   1.187   1.017   2.824  0.0783 -2.2631 -0.5003
  480SOL     OW 1438   2.514   2.319   0.376  0.0734 -0.0247  0.7734
  480SOL    HW1 1439   2.460   2.238   0.410  1.3801  0.7337 -3.4340
  480SOL    HW2 1440   2.467   2.359   0.291 -0.9489 -0.5056  0.6531
  481SOL     OW 1441   1.083   1.160   0.801  0.1807 -0.7784 -0.3936
  481SOL    HW1 1442   1.065   1.246   0.742  0.9132 -0.5637  0.2853
  481SOL    HW2 1443   1.095   1.173   0.905  0.4867  2.3605 -0.5940
  482SOL     OW 1444   1.608   0.357   2.050 -0.6750 -0.1004  0.2018
  482SOL    HW1 1445   1.627   0.449   2.001  0.1962 -3.1669  1.0487
  482SOL    HW2 1446   1.696   0.308   2.086  1.9177 -1.0667  1.7217
  483SOL     OW 1447   0.160   2.374   1.261  0.0378 -0.5173 -0.4916
  483SOL    HW1 1448   0.072   2.358   1.320  0.6510 -1.6575  2.7560
  483SOL    HW2 1449   0.146   2.434   1.176 -0.1885  0.3352 -0.2086
  484SOL     OW 1450   1.705   0.969   1.396  0.3531 -0.0476  0.2980
  484SOL    HW1 1451   1.786   0.913   1.422 -0.8762  1.4894 -1.5399
  484SOL    HW2 1452   1.728   1.070   1.400 -1.1762 -1.1476 -0.5191
  485SOL     OW 1453   0.688   1.083   1.785  0.2344  0.1782  0.0118
  485SOL    HW1 1454   0.691   1.099   1.682 -0.4840  2.3813 -1.4313
  485SOL    HW2 1455   0.779   1.111   1.826 -1.5621  1.5462 -4.3646
  486SOL     OW 1456   0.936   1.968   2.479 -0.0468  0.2088  0.0721
  486SOL    HW1 1457   0.982   1.914   2.561  0.7816  3.2342  2.6482
  486SOL    HW2 1458   0.838   2.006   2.497  0.0112 -1.1920 -0.6480
  487SOL     OW 1459   1.707   1.506   0.897  0.1244  0.0860  0.2668
  487SOL    HW1 1460   1.722   1.417   0.850  0.9206  0.4609  2.3110
  487SOL    HW2 1461   1.774   1.572   0.862 -1.3116 -4.9195  0.8018
  488SOL     OW 1462   2.988   0.950   2.207 -0.3503  0.6655  0.4105
  488SOL    HW1 1463   3.003   0.862   2.150 -1.1510  1.6738  0.7833
  488SOL    HW2 1464   3.026   0.929   2.302 -0.1979 -1.4884  1.6081
  489SOL     OW 1465   2.725   0.268   1.329 -0.6512  0.1803  0.5021
  489SOL    HW1 1466   2.692   0.206   1.412 -0.6959  1.3782 -0.9344
  489SOL    HW2 1467   2.829   0.256   1.308  2.2833  0.6859  2.2695
  490SOL     OW 1468   1.417   2.978   2.804  0.2933 -0.0099 -0.2841
  490SOL    HW1 1469   1.450   2.884   2.792 -2.8266 -0.3398  1.8725
  490SOL    HW2 1470   1.419   3.037   2.720  0.6815 -0.3790  2.1918
  491SOL     OW 1471   1.839   1.525   2.691  0.4030  0.5379  0.4020
  491SOL    HW1 1472   1.779   1.492   2.773 -1.5377  1.7184  0.3126
  491SOL    HW2 1473   1.943   1.516   2.713  1.7584  1.6401 -0.4733
  492SOL     OW 1474   0.514   2.052   0.757 -0.4879 -0.5106  0.0235
  492SOL    HW1 1475   0.546   2.049   0.857  1.7600  0.4906  1.0887
  492SOL    HW2 1476   0.464   2.142   0.734  0.4062  2.1966  1.4899
  493SOL     OW 1477   0.424   1.448   2.064 -0.2476 -0.8558  0.4379
  493SOL    HW1 1478   0.331   1.483   2.041  0.8499  0.2432 -2.5636
  493SOL    HW2 1479   0.426   1.382   2.147 -0.7213 -1.0556  2.0303
  494SOL     OW 1480   2.648   2.696   0.160  0.0128  0.1409 -0.2644
  494SOL    HW1 1481   2.649   2.631   0.243  0.3985  0.0514  1.8352
  494SOL    HW2 1482   2.580   2.669   0.085 -0.6654  0.7349  1.1042
  495SOL     OW 1483   2.729   2.665   2.725 -0.0326  0.3399  0.1932
  495SOL    HW1 1484   2.709   2.563   2.723  0.8915  1.6861  0.4369
  495SOL    HW2 1485   2.735   2.711   2.629  1.8201  0.1473 -1.9769
  496SOL     OW 1486   2.037   2.167   0.718  0.4645 -0.2286 -0.2799
  496SOL    HW1 1487   2.076   2.208   0.806  2.4634  0.5791  2.4123
  496SOL    HW2 1488   2.029   2.069   0.729 -0.6720  2.2734 -1.4459
  497SOL     OW 1489   0.210   2.978   2.404  0.4040 -0.4168 -0.2263
  497SOL    HW1 1490   0.133   3.042   2.439  0.3230 -2.7056 -0.0016
  497SOL    HW2 1491   0.263   3.017   2.320  2.7094  0.0976  0.4152
  498SOL     OW 1492   1.240   1.453   1.143  0.2999 -0.0395 -0.1817
  498SOL    HW1 1493   1.319   1.423   1.201 -1.7105  0.6547  0.2168
  498SOL    HW2 1494   1.184   1.531   1.192 -1.9358 -0.3781  4.7796
  499SOL     OW 1495   0.794   1.822   0.524  0.4080 -0.1072 -0.5045
  499SOL    HW1 1496   0.752   1.728   0.538  3.6262 -2.4271  1.6405
  499SOL    HW2 1497   0.846   1.855   0.612  1.3765  0.4758  1.7928
  500SOL     OW 1498   1.410   2.991   1.698 -0.4221 -0.1595 -0.2797
  500SOL    HW1 1499   1.366   2.979   1.791 -0.4619  2.0187  1.5785
  500SOL    HW2 1500   1.455   2.902   1.667  0.9530  0.4029  0.9058
  501SOL     OW 1501   0.773   1.135   2.301 -0.2066  0.2029  0.0424
  501SOL    HW1 1502   0.692   1.072   2.297 -1.8054  1.0490 -3.9808
  501SOL    HW2 1503   0.843   1.122   2.227  1.1445 -0.5644  2.0271
  502SOL     OW 1504   2.567   0.978   1.757  0.0515 -0.0463 -0.3214
  502SOL    HW1 1505   2.558   1.006   1.657 -1.0625 -2.0784 -1.9844
  502SOL    HW2 1506   2.543   0.876   1.775 -0.5141 -0.0798 -0.4919
  503SOL     OW 1507   1.337   0.173   0.614 -0.1244  0.5726  0.0139
  503SOL    HW1 1508   1.252   0.221   0.595  0.5549 -0.8915 -1.2308
  503SOL    HW2 1509   1.406   0.233   0.659  0.7053  1.1556  1.0892
  504SOL     OW 1510   3.016   2.330   1.409 -0.3638  0.3039  0.0039
  504SOL    HW1 1511   2.999   2.424   1.457  0.3164 -2.5006 -2.5795
  504SOL    HW2 1512   2.969   2.245   1.452 -4.1198 -0.2389  3.1780
  505SOL     OW 1513   2.282   1.154   1.465  0.1612  0.4234 -0.4807
  505SOL    HW1 1514   2.260   1.233   1.400 -2.4530  2.2630  0.4309
  505SOL    HW2 1515   2.356   1.181   1.524 -2.7389  0.8692 -0.2058
  506SOL     OW 1516   1.994   0.251   1.769 -0.5596  0.6055  0.5168
  506SOL    HW1 1517   2.027   0.155   1.808  0.7414  0.5778  0.1982
  506SOL    HW2 1518   1.983   0.331   1.835  2.7127  2.0477 -0.4031
  507SOL     OW 1519   0.511   0.652   2.181 -0.0597 -0.9092 -0.2828
  507SOL    HW1 1520   0.421   0.646   2.126 -2.1830  0.4411  0.9717
  507SOL    HW2 1521   0.576   0.581   2.152  1.6933  3.4504 -0.4681
  508SOL     OW 1522   0.274   1.639   0.905  0.1365  0.3958 -0.3327
  508SOL    HW1 1523   0.366   1.674   0.869  0.3289  0.4509 -1.4240
  508SOL    HW2 1524   0.241   1.677   0.994 -1.6319  0.8447 -0.2521
  509SOL     OW 1525   1.339   1.199   2.459 -0.6631 -0.5126  0.4442
  509SOL    HW1 1526   1.246   1.166   2.477  3.7842  2.5072 -0.1614
  509SOL    HW2 1527   1.380   1.144   2.378  1.7976  0.0649 -0.7247
  510SOL     OW 1528   1.297   1.976   2.041  0.0417 -0.3558 -0.2103
  510SOL    HW1 1529   1.248   2.064   2.069  2.7364 -3.6630  0.2101
  510SOL    HW2 1530   1.283   1.894   2.098 -0.9114 -1.8756 -1.5016
  511SOL     OW 1531   3.067   2.644   1.290  0.5521  0.2285  0.2476
  511SOL    HW1 1532   3.016   2.616   1.203 -0.4610 -2.0114 -0.3227
  511SOL    HW2 1533   3.012   2.620   1.376  1.5475 -1.0464 -2.1546
  512SOL     OW 1534   2.408   0.422   1.390  0.0906  0.0283  0.1762
  512SOL    HW1 1535   2.314   0.379   1.401  0.1178  0.6398  1.2378
  512SOL    HW2 1536   2.471   0.378   1.316  1.6802 -0.7832 -2.0366
  513SOL     OW 1537   2.466   1.997   0.839 -0.1228 -0.7282  0.4797
  513SOL    HW1 1538   2.417   2.074   0.790 -1.7849  0.4063  1.3097
  513SOL    HW2 1539   2.551   1.967   0.789  0.2013  2.6235  2.1468
  514SOL     OW 1540   0.661   2.790   0.402  0.6175 -0.4837 -0.4493
  514SOL    HW1 1541   0.625   2.826   0.310 -0.8924  0.5593  0.2839
  514SOL    HW2 1542   0.657   2.862   0.478 -0.3555  2.1205 -1.7408
  515SOL     OW 1543   2.019   1.172   2.310 -0.2438  0.1832  0.0383
  515SOL    HW1 1544   1.984   1.229   2.231 -1.0061 -0.6430  0.7719
  515SOL    HW2 1545   1.975   1.219   2.393  1.5413  1.2321 -2.0732
  516SOL     OW 1546   0.267   0.251   1.963 -0.6262  0.0846  0.0980
  516SOL    HW1 1547   0.367   0.253   1.923  0.1862 -1.9168  0.8191
  516SOL    HW2 1548   0.196   0.210   1.903 -0.3679  1.5195 -1.3007
  517SOL     OW 1549   0.376   3.049   1.202  0.3301 -0.3811 -1.1945
  517SOL    HW1 1550   0.400   3.149   1.230 -2.4494  1.2167  1.7595
  517SOL    HW2 1551   0.294   3.020   1.256  1.9938  2.3573  0.4390
  518SOL     OW 1552   2.149   3.101   1.764  0.5496  0.8642  0.2961
  518SOL    HW1 1553   2.218   3.172   1.776 -1.5057 -2.2421 -0.8416
  518SOL    HW2 1554   2.187   3.011   1.723  1.1214  0.4024  0.5319
  519SOL     OW 1555   2.403   2.217   2.596 -0.1077 -0.2488  0.4023
  519SOL    HW1 1556   2.306   2.223   2.629  0.1094  1.7402 -1.6346
  519SOL    HW2 1557   2.439   2.312   2.583 -2.6789 -0.4965  0.8170
  520SOL     OW 1558   1.759   2.851   1.853  0.4420  0.0600 -0.6860
  520SOL    HW1 1559   1.688   2.831   1.927  1.0661  1.2373  1.4739
  520SOL    HW2 1560   1.815   2.766   1.831  1.8755 -2.6693  1.0108
  521SOL     OW 1561   0.555   0.060   2.097 -0.1285  0.5579  0.3580
  521SOL    HW1 1562   0.460   0.038   2.144 -1.2676  1.7418  2.8506
  521SOL    HW2 1563   0.627   0.083   2.171 -0.5710 -1.0389  1.4115
  522SOL     OW 1564   0.172   1.907   1.494 -0.3765  0.2934  0.7790
  522SOL    HW1 1565   0.245   1.954   1.557  0.7284 -0.1545 -1.3847
  522SOL    HW2 1566   0.159   1.966   1.409  1.8742 -1.7309  0.4653
  523SOL     OW 1567   2.235   2.901   1.604 -0.5343  0.5108  0.6012
  523SOL    HW1 1568   2.300   2.839   1.555  1.4018 -2.2027  2.2608
  523SOL    HW2 1569   2.141   2.896   1.556 -0.4998 -0.4928  0.2286
  524SOL     OW 1570   0.187   2.763   2.796 -0.2606 -0.1120  0.0509
  524SOL    HW1 1571   0.134   2.847   2.839  1.6122  1.9320  2.5103
  524SOL    HW2 1572   0.290   2.771   2.820 -0.5120 -0.4149 -0.6722
  525SOL     OW 1573   2.153   1.937   0.478  0.7840 -0.6519  0.5751
  525SOL    HW1 1574   2.173   1.876   0.558 -1.4452 -0.7376  0.0171
  525SOL    HW2 1575   2.172   1.880   0.389  2.1731 -0.9098  2.7276
  526SOL     OW 1576   0.428   1.516   1.595 -0.1616 -0.3442 -0.0570
  526SOL    HW1 1577   0.429   1.506   1.698 -0.0578  0.5251 -1.4042
  526SOL    HW2 1578   0.473   1.433   1.548 -0.1802 -2.0803  2.1897
  527SOL     OW 1579   1.094   2.923   1.255  0.6889  0.1535 -0.4539
  527SOL    HW1 1580   1.184   2.889   1.300  1.6465 -0.4152  1.2976
  527SOL    HW2 1581   1.092   3.028   1.247  1.8190 -1.8345 -0.4468
  528SOL     OW 1582   1.356   2.411   0.487  0.2049  0.1529 -0.1140
  528SOL    HW1 1583   1.371   2.309   0.494 -1.7806 -1.0093  2.3290
  528SOL    HW2 1584   1.420   2.468   0.547  0.3069 -0.0167  0.4179
  529SOL     OW 1585   1.887   1.712   0.828 -0.0124  0.3046  1.0741
  529SOL    HW1 1586   1.853   1.731   0.733  2.5377 -0.0382 -1.6935
  529SOL    HW2 1587   1.883   1.792   0.895 -1.3985 -0.0852 -0.2791
  530SOL     OW 1588   0.284   2.449   0.337  0.0728 -0.5082 -0.1413
  530SOL    HW1 1589   0.258   2.533   0.392 -2.3386 -3.4664 -1.2025
  530SOL    HW2 1590   0.364   2.399   0.381  2.5238 -2.1351  0.3253
  531SOL     OW 1591   1.813   0.974   1.004 -0.3673 -1.1328  0.2001
  531SOL    HW1 1592   1.880   0.946   0.928 -0.2380  0.2867  2.8441
  531SOL    HW2 1593   1.716   0.944   0.992  0.9901 -2.5215  1.9650
  532SOL     OW 1594   0.484   1.058   0.772 -0.6918 -0.4227 -0.5123
  532SOL    HW1 1595   0.523   1.039   0.677  2.4566 -0.2066 -0.6555
  532SOL    HW2 1596   0.394   1.011   0.796 -0.1946  0.8989 -2.0858
  533SOL     OW 1597   1.758   0.040   2.575 -0.1354 -0.0155  0.0446
  533SOL    HW1 1598   1.852   0.001   2.594 -1.6986  0.9191  2.0040
  533SOL    HW2 1599   1.728   0.114   2.644  2.3784  1.1162 -3.3989
  534SOL     OW 1600   0.378   0.214   1.566  0.4034 -0.5298 -0.1427
  534SOL    HW1 1601   0.474   0.224   1.596 -0.7768  2.2930 -0.5011
  534SOL    HW2 1602   0.335   0.304   1.541  0.2194 -0.6191 -1.9899
  535SOL     OW 1603   1.957   0.361   0.161 -0.0446  0.1429  0.1030
  535SOL    HW1 1604   1.959   0.462   0.195  0.1627  2.4074  1.3635
  535SOL    HW2 1605   1.939   0.301   0.245 -0.6218 -2.1089  1.5141
  536SOL     OW 1606   1.413   2.647   0.958 -0.6117 -0.6867 -0.0846
  536SOL    HW1 1607   1.374   2.598   1.040 -0.1108  0.6217 -5.3039
  536SOL    HW2 1608   1.338   2.677   0.890 -0.0922 -0.8156  0.2468
  537SOL     OW 1609   0.813   0.280   2.425  0.4607  0.1186  0.0676
  537SOL    HW1 1610   0.828   0.359   2.356  0.5234  0.2716  1.8451
  537SOL    HW2 1611   0.792   0.185   2.382  1.4437 -0.1931  0.6343
  538SOL     OW 1612   1.660   2.296   1.377 -0.0905  0.0566 -0.8911
  538SOL    HW1 1613   1.675   2.194   1.380  0.5225  1.7926 -1.8971
  538SOL    HW2 1614   1.750   2.346   1.387 -1.1148 -1.3111  1.6126
  539SOL     OW 1615   0.187   1.638   2.696 -0.3116  0.2453  0.3605
  539SOL    HW1 1616   0.099   1.627   2.644  0.8719  0.5592 -1.0796
  539SOL    HW2 1617   0.203   1.732   2.732 -0.5265 -0.0602 -1.9079
  540SOL     OW 1618   2.653   1.741   1.931 -0.2302 -0.1929  0.3271
  540SOL    HW1 1619   2.602   1.655   1.963  0.7528  1.0862 -0.3263
  540SOL    HW2 1620   2.599   1.827   1.951  3.1786 -0.7112 -0.7044
  541SOL     OW 1621   0.580   2.169   0.024  0.0911 -0.0778  0.2706
  541SOL    HW1 1622   0.590   2.151   0.125  1.3469 -1.8324  1.7507
  541SOL    HW2 1623   0.480   2.174  -0.004 -0.2957 -0.0647  1.0870
  542SOL     OW 1624   2.212   2.595   0.457  0.5546  0.1476  0.6663
  542SOL    HW1 1625   2.189   2.697   0.453  1.1667 -0.3586 -1.1141
  542SOL    HW2 1626   2.127   2.537   0.472 -1.5953  1.6654  0.3235
  543SOL     OW 1627   1.082   1.795   1.575 -0.6774  0.3355  0.6730
  543SOL    HW1 1628   1.082   1.830   1.672 -0.6395 -0.6673 -1.9727
  543SOL    HW2 1629   1.066   1.870   1.504 -0.6241  2.5651 -0.9462
  544SOL     OW 1630   1.103   0.499   0.167  0.1413  0.6902  0.3125
  544SOL    HW1 1631   1.077   0.416   0.227 -1.3580 -2.5921 -1.9378
  544SOL    HW2 1632   1.147   0.468   0.074  2.4311 -0.7313  1.7857
  545SOL     OW 1633   1.101   1.773   0.782 -0.3140  0.6156  0.0519
  545SOL    HW1 1634   1.187   1.785   0.727  0.3968 -0.1312  2.0563
  545SOL    HW2 1635   1.094   1.676   0.815  3.0138  0.9056 -0.0333
  546SOL     OW 1636   2.689   1.557   3.021  0.1949 -0.3262  0.3315
  546SOL    HW1 1637   2.655   1.656   3.015 -2.7271 -1.9649 -1.9997
  546SOL    HW2 1638   2.617   1.494   3.050  4.3696  2.4691  1.8280
  547SOL     OW 1639   0.631   3.010   2.557  0.0939 -0.2479 -0.5547
  547SOL    HW1 1640   0.680   3.014   2.649  1.9701 -0.6571  1.6485
  547SOL    HW2 1641   0.587   2.921   2.527  1.2856  2.3974 -0.4801
  548SOL     OW 1642   2.057   0.838   3.028 -0.0816 -0.6520  0.7196
  548SOL    HW1 1643   1.959   0.808   3.008 -1.3092  0.5925 -1.1745
  548SOL    HW2 1644   2.059   0.940   3.048 -0.2257  1.7374 -0.3568
  549SOL     OW 1645   0.650   0.589   0.228  0.3258 -0.3165 -0.1012
  549SOL    HW1 1646   0.591   0.613   0.153  1.4641 -1.5792  3.7162
  549SOL    HW2 1647   0.745   0.633   0.231 -1.4082 -0.0888 -1.2666
  550SOL     OW 1648   2.565   2.804   2.895 -0.6106 -0.2133 -0.0005
  550SOL    HW1 1649   2.532   2.742   2.973  2.1709 -1.1214 -0.4360
  550SOL    HW2 1650   2.624   2.750   2.831  0.1301  0.1741  2.7720
  551SOL     OW 1651   0.239   0.928   0.257 -0.5137 -0.5111 -0.1010
  551SOL    HW1 1652   0.343   0.907   0.243  1.0184  2.4539 -0.8661
  551SOL    HW2 1653   0.213   0.875   0.342  0.5977  1.0722  0.2585
  552SOL     OW 1654   0.663   2.968   1.873  0.2330 -0.4665  0.3647
  552SOL    HW1 1655   0.645   3.019   1.960 -0.8555 -2.4298 -0.2035
  552SOL    HW2 1656   0.763   2.981   1.844 -1.7395 -2.1014  1.6404
  553SOL     OW 1657   2.897   2.413   0.341 -0.0409 -0.0467 -0.3745
  553SOL    HW1 1658   2.879   2.320   0.380  1.0309 -0.1883 -0.6003
  553SOL    HW2 1659   2.809   2.469   0.350  4.9897 -0.0799 -1.8307
  554SOL     OW 1660   2.121   0.353   0.467 -0.3308  0.1473 -0.0863
  554SOL    HW1 1661   2.192   0.379   0.399 -1.2092 -1.5250 -1.1345
  554SOL    HW2 1662   2.143   0.268   0.522 -1.5758  0.4412 -1.9162
  555SOL     OW 1663   0.403   2.822   2.516  0.5176  0.6623 -0.1150
  555SOL    HW1 1664   0.325   2.888   2.488 -3.1563  2.0925  1.3728
  555SOL    HW2 1665   0.450   2.766   2.438 -0.1031  0.3786  1.1606
  556SOL     OW 1666   0.869   2.374   1.587 -0.3146  0.2709 -0.0258
  556SOL    HW1 1667   0.910   2.454   1.644  2.6018  2.7617  0.1800
  556SOL    HW2 1668   0.911   2.361   1.492 -1.3547 -3.0798  0.3867
  557SOL     OW 1669   0.140   2.045   0.203  0.3823  0.1138 -0.0479
  557SOL    HW1 1670   0.092   1.997   0.125  0.2329  1.3176  1.6327
  557SOL    HW2 1671   0.224   2.093   0.173 -2.7118 -1.8252 -0.7356
  558SOL     OW 1672   2.753   2.198   0.435 -0.1361 -0.3026 -0.0198
  558SOL    HW1 1673   2.660   2.250   0.430 -0.0370 -1.2540 -3.8346
  558SOL    HW2 1674   2.747   2.103   0.388 -4.1195 -1.3983  0.7532
  559SOL     OW 1675   0.437   2.322   1.374 -0.1117  0.3129  0.3656
  559SOL    HW1 1676   0.339   2.326   1.336  1.0894  1.8037 -0.7491
  559SOL    HW2 1677   0.494   2.246   1.325  1.2511 -0.5644 -0.6951
  560SOL     OW 1678   2.107   1.097   3.075  0.2004 -0.2716  0.0275
  560SOL    HW1 1679   2.159   1.119   3.162  1.0805 -2.9497  0.0608
  560SOL    HW2 1680   2.175   1.093   3.002  1.5987  0.1969  0.4024
  561SOL     OW 1681   0.021   1.886   0.001  0.2446  0.2700  0.6295
  561SOL    HW1 1682  -0.007   1.810   0.069 -1.4485  0.8432  1.3615
  561SOL    HW2 1683  -0.039   1.974   0.001 -1.5203 -0.9383  0.9557
  562SOL     OW 1684   1.069   2.178   2.337  0.1584  0.2460 -0.5470
  562SOL    HW1 1685   1.055   2.282   2.339  0.3255  0.8621  0.5982
  562SOL    HW2 1686   1.008   2.121   2.390  3.5039  0.4682 -3.7572
  563SOL     OW 1687   0.700   2.522   2.619 -0.0019  0.0203 -0.1544
  563SOL    HW1 1688   0.781   2.460   2.598 -0.2809  0.2119 -0.2634
  563SOL    HW2 1689   0.710   2.567   2.714  2.8067 -1.7552  0.8015
  564SOL     OW 1690   2.914   1.414   2.916  0.3965 -0.9894 -0.6147
  564SOL    HW1 1691   2.829   1.419   2.975  1.7089 -2.1218 -2.3644
  564SOL    HW2 1692   2.945   1.505   2.880  0.2798  1.6326 -0.6503
  565SOL     OW 1693   2.491   1.946   2.649  0.1883  0.0830  0.0162
  565SOL    HW1 1694   2.452   2.038   2.630  0.0958 -0.4648 -2.3346
  565SOL    HW2 1695   2.590   1.951   2.675 -1.6076 -2.4749  2.3377
  566SOL     OW 1696   1.990   2.889   1.468 -0.3712  0.1708  0.0904
  566SOL    HW1 1697   1.952   2.801   1.504  0.0064  1.2139 -1.2538
  566SOL    HW2 1698   1.957   2.905   1.369 -2.1509 -1.8328  0.3548
  567SOL     OW 1699   2.444   0.004   2.327  0.0875  0.0488  0.2800
  567SOL    HW1 1700   2.345   0.031   2.351  0.7252 -1.4734  2.5921
  567SOL    HW2 1701   2.468   0.015   2.226 -0.1257 -0.4136 -1.7363
  568SOL     OW 1702   1.541   1.783   0.307 -0.2204 -0.5718  0.6161
  568SOL    HW1 1703   1.499   1.856   0.246  0.1283 -0.4599 -0.9413
  568SOL    HW2 1704   1.645   1.776   0.298 -0.4268 -1.2101 -1.3482
  569SOL     OW 1705   0.244   0.645   0.843 -0.1953  0.3858  1.1120
  569SOL    HW1 1706   0.320   0.592   0.794  2.0114  0.6928  2.8001
  569SOL    HW2 1707   0.144   0.604   0.830 -1.8650  0.1309  2.9380
  570SOL     OW 1708   0.625   0.862   2.879 -0.6601 -0.2241  0.6420
  570SOL    HW1 1709   0.668   0.860   2.785  0.1894  0.5168 -0.7360
  570SOL    HW2 1710   0.629   0.955   2.923  0.7061 -2.4494  0.1813
  571SOL     OW 1711   0.831   0.009   1.114 -0.0410  0.3068 -0.0999
  571SOL    HW1 1712   0.834   0.024   1.012 -3.5394  0.2411 -1.0457
  571SOL    HW2 1713   0.839  -0.088   1.143 -1.0219 -0.9430 -2.4908
  572SOL     OW 1714   1.616   2.698   1.375  0.3594  0.6078  0.2593
  572SOL    HW1 1715   1.641   2.611   1.322  1.8455  2.3077  0.6328
  572SOL    HW2 1716   1.647   2.791   1.334  3.9448  2.1598 -0.0076
  573SOL     OW 1717   3.063   0.488   2.028  1.1930 -0.1682 -0.2162
  573SOL    HW1 1718   3.049   0.394   2.066  1.4319  3.8173 -1.2899
  573SOL    HW2 1719   3.082   0.487   1.926 -0.6053 -0.8979 -0.7890
  574SOL     OW 1720   0.166   1.760   1.135 -0.4860 -0.1240  0.0259
  574SOL    HW1 1721   0.184   1.756   1.235 -1.2507 -1.9757  0.8427
  574SOL    HW2 1722   0.085   1.817   1.111  1.3754  2.5535 -0.3131
  575SOL     OW 1723   0.878   2.185   0.943  0.5016 -0.0288 -0.7840
  575SOL    HW1 1724   0.826   2.228   1.023  0.0567  1.0996  0.8796
  575SOL    HW2 1725   0.926   2.251   0.883 -1.1727 -2.0599  1.7365
  576SOL     OW 1726   2.903   3.027   1.696  0.2592  0.0143  0.1084
  576SOL    HW1 1727   2.813   2.996   1.658  0.8029 -0.0585  1.6978
  576SOL    HW2 1728   2.931   3.123   1.684 -0.5449  1.1617  0.6849
  577SOL     OW 1729   2.669   1.244   0.027 -0.0093  0.2479  0.0527
  577SOL    HW1 1730   2.654   1.162  -0.031 -2.3000  1.4039  2.0043
  577SOL    HW2 1731   2.688   1.236   0.130  0.1658  0.5626 -0.9361
  578SOL     OW 1732   1.407   2.797   2.516  0.2305  0.1387  0.2220
  578SOL    HW1 1733   1.314   2.833   2.490  0.3833 -0.2396  0.2588
  578SOL    HW2 1734   1.484   2.854   2.475 -1.4814 -1.2117 -0.8770
  579SOL     OW 1735   0.039   2.453   0.202  0.7338 -0.3188 -0.1032
  579SOL    HW1 1736  -0.051   2.425   0.244  1.8148  0.2824 -0.7781
  579SOL    HW2 1737   0.123   2.415   0.252  1.0867 -1.5187  0.8549
  580SOL     OW 1738   0.976   2.642   0.401  0.0117 -0.3992  0.1174
  580SOL    HW1 1739   1.071   2.638   0.354  0.4952 -2.3736  0.0416
  580SOL    HW2 1740   0.901   2.654   0.326  0.9776 -1.0347  1.3245
  581SOL     OW 1741   1.296   2.688   1.453 -0.1779  0.1788 -0.2481
  581SOL    HW1 1742   1.363   2.608   1.455  1.5578  1.8818  0.3394
  581SOL    HW2 1743   1.348   2.779   1.444  2.7198  1.2525 -0.3682
  582SOL     OW 1744   1.478   0.097   1.926 -0.5321 -0.3346  0.6831
  582SOL    HW1 1745   1.473   0.175   1.989  2.3400  0.5622 -1.5253
  582SOL    HW2 1746   1.564   0.107   1.865  0.4597  0.7512 -0.2813
  583SOL     OW 1747   2.446   3.094   0.531  0.3729 -0.1998 -0.2357
  583SOL    HW1 1748   2.520   3.027   0.499  1.1088 -0.5477 -0.0288
  583SOL    HW2 1749   2.362   3.041   0.563  2.7684 -0.0195  1.3135
  584SOL     OW 1750   1.548   1.125   2.319  0.4170  0.2478  0.5262
  584SOL    HW1 1751   1.578   1.197   2.250 -0.3389  1.1989  0.3889
  584SOL    HW2 1752   1.633   1.092   2.361 -0.7800 -2.6024  3.4910
  585SOL     OW 1753   2.064   2.675   2.894 -0.2799 -0.2015 -0.3431
  585SOL    HW1 1754   2.101   2.586   2.866 -0.1877 -1.1497  0.2000
  585SOL    HW2 1755   1.958   2.677   2.897 -0.7023 -2.8033  0.2213
  586SOL     OW 1756   2.895   0.403   1.522  0.0184  0.3390 -0.0460
  586SOL    HW1 1757   2.885   0.470   1.606  2.5827  0.8844  1.3119
  586SOL    HW2 1758   2.814   0.392   1.463 -0.1443 -1.6987 -1.1961
  587SOL     OW 1759   2.100   1.457   2.694  0.5066  0.0254  0.7238
  587SOL    HW1 1760   2.148   1.383   2.636  1.8432  0.5614 -1.2763
  587SOL    HW2 1761   2.165   1.505   2.761  0.2324  1.8626 -0.6170
  588SOL     OW 1762   0.538   2.695   2.319  0.1506  0.3343 -0.2952
  588SOL    HW1 1763   0.504   2.696   2.220  2.2544  1.4560  2.3268
  588SOL    HW2 1764   0.525   2.607   2.366 -2.1070  0.5836 -1.7296
  589SOL     OW 1765   2.184   1.289   2.497 -0.1834  0.0750  0.0982
  589SOL    HW1 1766   2.137   1.266   2.412  0.0664 -1.0511 -1.2146
  589SOL    HW2 1767   2.287   1.267   2.489  1.0172  0.4257  1.0178
  590SOL     OW 1768   2.370   1.757   2.065  0.0210 -0.5016 -0.0955
  590SOL    HW1 1769   2.439   1.676   2.076 -1.7614 -3.0637 -1.4138
  590SOL    HW2 1770   2.361   1.803   2.158 -1.4982  1.1308  0.1565
  591SOL     OW 1771   1.224   2.385   0.231  0.3432 -0.1928  0.4366
  591SOL    HW1 1772   1.248   2.318   0.154 -1.8787 -2.0434 -1.0314
  591SOL    HW2 1773   1.263   2.356   0.325 -3.8757 -1.4847 -3.1196
  592SOL     OW 1774   1.780   2.338   0.787 -0.0397  0.2007 -0.2763
  592SOL    HW1 1775   1.763   2.373   0.689 -0.0711  0.1517  3.0825
  592SOL    HW2 1776   1.867   2.283   0.792  1.3018 -0.1329 -0.9280
  593SOL     OW 1777   0.736   0.304   0.222  0.0106  0.8987  0.2286
  593SOL    HW1 1778   0.765   0.281   0.126 -0.2326 -1.7989  1.8641
  593SOL    HW2 1779   0.726   0.405   0.232  0.2929  0.6544  0.9685
  594SOL     OW 1780   1.049   1.853   2.696  0.2428  0.4398 -0.6175
  594SOL    HW1 1781   1.128   1.822   2.638  0.5998  0.8891 -2.1214
  594SOL    HW2 1782   1.064   1.878   2.797 -1.2825  1.2671  3.1920
  595SOL     OW 1783   1.528   0.060   1.005 -0.4814  0.3688  0.2144
  595SOL    HW1 1784   1.607  -0.000   0.987 -3.2672  0.0108  0.8414
  595SOL    HW2 1785   1.450   0.030   0.944  0.8945  0.2788 -1.6140
  596SOL     OW 1786   0.062   1.485   2.286  0.1764 -0.4851 -0.0128
  596SOL    HW1 1787   0.127   1.414   2.321  0.3173 -4.4540  0.9147
  596SOL    HW2 1788   0.041   1.556   2.358 -1.8570 -1.2565 -0.2059
  597SOL     OW 1789   1.976   2.677   1.842 -0.2391  0.3293 -0.2674
  597SOL    HW1 1790   1.934   2.650   1.749 -1.2715  2.0901  1.2195
  597SOL    HW2 1791   2.074   2.645   1.850 -4.8773 -0.1209 -0.8601
  598SOL     OW 1792   2.525   2.884   1.216 -0.3426 -0.1360 -0.2211
  598SOL    HW1 1793   2.577   2.915   1.301  1.4537  2.7283  0.9157
  598SOL    HW2 1794   2.584   2.868   1.134  0.2639 -3.5570  0.1720
  599SOL     OW 1795   2.811   0.261   2.500 -0.4698  0.2040 -0.3677
  599SOL    HW1 1796   2.886   0.250   2.428 -1.0192 -0.4170  1.0904
  599SOL    HW2 1797   2.751   0.346   2.484  0.1560 -1.2356  3.8582
  600SOL     OW 1798   2.810   1.212   2.757 -0.1750 -0.0284 -0.3403
  600SOL    HW1 1799   2.735   1.160   2.801  1.5492  0.5898  0.1734
  600SOL    HW2 1800   2.873   1.269   2.822  0.1104 -0.7456 -0.1038
  601SOL     OW 1801   3.053   1.346   2.009 -0.9882 -0.5254 -0.0712
  601SOL    HW1 1802   2.973   1.384   1.955 -0.0794 -1.0817  3.9787
  601SOL    HW2 1803   3.115   1.421   2.039  0.4659 -0.2293 -0.1340
  602SOL     OW 1804   1.483   1.582   2.275  0.2211 -0.3098 -0.2895
  602SOL    HW1 1805   1.392   1.559   2.319 -1.0410 -0.5938  1.3247
  602SOL    HW2 1806   1.564   1.599   2.341 -0.8375  1.5103  1.6282
  603SOL     OW 1807   0.673   1.142   2.715 -0.1467  0.8274 -0.1477
  603SOL    HW1 1808   0.577   1.126   2.684  1.6595  1.1722 -3.8216
  603SOL    HW2 1809   0.738   1.068   2.689 -2.0348 -1.2521  1.1989
  604SOL     OW 1810   2.466   0.973   0.172  0.0326 -0.0976  0.4912
  604SOL    HW1 1811   2.540   1.043   0.152  1.8539 -0.0412  1.3910
  604SOL    HW2 1812   2.462   0.892   0.106 -1.1856  1.7071 -0.3584
  605SOL     OW 1813   2.506   1.140   1.952 -0.1323 -0.5386 -0.0083
  605SOL    HW1 1814   2.534   1.078   1.873  1.0937 -0.7908 -1.2709
  605SOL    HW2 1815   2.569   1.214   1.982 -0.8160 -0.6013 -0.9616
  606SOL     OW 1816   1.503   2.538   2.537  0.7216 -0.8432 -0.2655
  606SOL    HW1 1817   1.454   2.624   2.505 -0.3342 -0.2325 -0.5333
  606SOL    HW2 1818   1.457   2.451   2.508  1.8404  1.3731 -1.2075
  607SOL     OW 1819   1.313   1.604   0.264 -0.1655  0.2078 -0.4887
  607SOL    HW1 1820   1.224   1.651   0.298  1.5745 -1.7089 -1.1725
  607SOL    HW2 1821   1.401   1.661   0.279  0.9550 -0.1660  0.8253
  608SOL     OW 1822   1.445   2.844   0.404  0.7048 -0.1283  0.1866
  608SOL    HW1 1823   1.470   2.865   0.306 -0.5848 -1.1797 -0.4535
  608SOL    HW2 1824   1.375   2.915   0.436  0.7182 -1.5282  0.9977
  609SOL     OW 1825   1.354   1.358   0.168  0.3180 -0.7660 -0.6782
  609SOL    HW1 1826   1.319   1.459   0.198 -1.6226  1.8137  0.5434
  609SOL    HW2 1827   1.312   1.328   0.079 -0.2506 -0.8929  1.6296
  610SOL     OW 1828   3.018   1.203   2.272  0.5784  0.5780 -0.1613
  610SOL    HW1 1829   2.994   1.109   2.232  0.0094  1.4005  1.1549
  610SOL    HW2 1830   3.008   1.279   2.199 -0.5033  0.5129  1.0462
  611SOL     OW 1831   2.494   0.255   1.188 -0.0786 -0.1094 -0.2153
  611SOL    HW1 1832   2.453   0.161   1.186 -0.3701 -1.6412  1.2130
  611SOL    HW2 1833   2.595   0.260   1.212  0.8139 -1.4317 -1.2754
  612SOL     OW 1834   0.765   2.300   1.167  0.4550  0.1774 -0.0085
  612SOL    HW1 1835   0.698   2.241   1.216 -1.3287  1.7747 -2.0111
  612SOL    HW2 1836   0.734   2.402   1.159  0.9091  1.7140  1.2942
  613SOL     OW 1837   0.838   1.385   2.400 -0.3046  0.0431  0.8657
  613SOL    HW1 1838   0.849   1.464   2.330 -1.7939 -1.1838 -0.9352
  613SOL    HW2 1839   0.822   1.289   2.354 -0.0298  0.7721 -1.9695
  614SOL     OW 1840   1.568   1.688   1.810  0.0535  0.0286 -0.0465
  614SOL    HW1 1841   1.552   1.792   1.810  3.3004  1.6193  0.5077
  614SOL    HW2 1842   1.669   1.666   1.826  1.8425  1.3414  0.2029
  615SOL     OW 1843   0.759   1.392   1.727  0.1507  0.6479 -0.2842
  615SOL    HW1 1844   0.698   1.336   1.658 -3.2244  0.4498  0.5222
  615SOL    HW2 1845   0.806   1.470   1.683  0.7009 -1.5364 -1.9456
  616SOL     OW 1846   1.122   1.534   2.138 -0.7118  0.3205  0.1198
  616SOL    HW1 1847   1.022   1.563   2.135 -0.0510  0.5612 -2.3435
  616SOL    HW2 1848   1.183   1.603   2.089  2.1424  0.3169  0.5039
  617SOL     OW 1849   3.005   1.536   1.653  0.2034  0.5932  0.0018
  617SOL    HW1 1850   3.029   1.479   1.736  0.1244  2.9867  2.9606
  617SOL    HW2 1851   3.030   1.487   1.565  1.1586  1.2211  1.9815
  618SOL     OW 1852   1.938   1.947   1.435  0.3465  0.2656 -0.0350
  618SOL    HW1 1853   2.024   1.973   1.387 -0.7737 -0.0139  0.3283
  618SOL    HW2 1854   1.936   1.850   1.458  2.0525  1.6527 -0.0115
  619SOL     OW 1855   1.704   0.467   2.353  0.5340  0.6382 -0.3721
  619SOL    HW1 1856   1.633   0.520   2.289  1.3556  2.3893 -0.7540
  619SOL    HW2 1857   1.706   0.364   2.345  0.0530 -0.6063  0.0069
  620SOL     OW 1858   2.215   2.941   0.587  0.4530 -0.2654  0.5890
  620SOL    HW1 1859   2.125   2.995   0.576 -0.2569  2.2193  1.1174
  620SOL    HW2 1860   2.219   2.888   0.674 -0.4462  2.3442  0.7205
  621SOL     OW 1861   2.231   1.895   1.371  0.2350  0.0534  0.0965
  621SOL    HW1 1862   2.226   1.872   1.472  0.3755  0.4883  1.1778
  621SOL    HW2 1863   2.224   1.806   1.312  0.7129 -1.5497  0.0948
  622SOL     OW 1864   2.225   0.910   1.788  0.9475 -0.0589  0.5661
  622SOL    HW1 1865   2.301   0.841   1.768  0.4387  1.0612  2.0831
  622SOL    HW2 1866   2.159   0.865   1.858 -3.1425 -0.2451 -0.4626
  623SOL     OW 1867   1.330   0.798   2.566 -0.4271  0.4015 -0.3259
  623SOL    HW1 1868   1.274   0.767   2.644 -0.5753  1.2939 -0.3131
  623SOL    HW2 1869   1.280   0.813   2.480 -0.7903 -1.6870  1.3132
  624SOL     OW 1870   0.516   0.713   0.005  0.1258 -0.3325  0.0106
  624SOL    HW1 1871   0.532   0.760  -0.090 -0.3902 -2.4566  3.8917
  624SOL    HW2 1872   0.518   0.786   0.083  0.0066 -2.3837  1.2248
  625SOL     OW 1873   2.751   1.688   0.891 -0.4397 -0.2888  0.1292
  625SOL    HW1 1874   2.684   1.715   0.963 -0.0192  0.3923 -1.7156
  625SOL    HW2 1875   2.744   1.589   0.868 -1.9408  0.8218 -2.4024
  626SOL     OW 1876   0.506   2.763   1.920 -0.1848  0.1076  0.5882
  626SOL    HW1 1877   0.571   2.843   1.900  1.0153  0.3062  0.2808
  626SOL    HW2 1878   0.428   2.752   1.850 -1.6260 -0.7391  1.3545
  627SOL     OW 1879   0.743   1.048   1.514  0.2995  0.6640 -0.0100
  627SOL    HW1 1880   0.744   0.949   1.508 -1.9667  2.1808 -2.9191
  627SOL    HW2 1881   0.828   1.087   1.467 -0.3454  4.2192  0.0841
  628SOL     OW 1882   2.426   0.181   0.710 -0.1858 -0.1232  0.2190
  628SOL    HW1 1883   2.444   0.111   0.628 -0.4054 -0.4340  1.1047
  628SOL    HW2 1884   2.330   0.184   0.745 -1.4080 -0.7514 -2.4126
  629SOL     OW 1885   1.970   0.941   1.976 -0.2555  0.5268  0.1120
  629SOL    HW1 1886   2.057   0.933   2.028  0.8829 -1.4447 -1.3999
  629SOL    HW2 1887   1.926   1.033   1.995 -1.1452 -2.3603 -0.0533
  630SOL     OW 1888   2.745   2.184   0.771  0.8858  0.4300  0.0763
  630SOL    HW1 1889   2.667   2.252   0.806 -0.5172  0.3418 -0.3901
  630SOL    HW2 1890   2.717   2.085   0.745  1.9648 -3.3814 -2.0332
  631SOL     OW 1891   3.006   0.217   2.100  0.3898 -0.1659  0.3053
  631SOL    HW1 1892   3.057   0.222   2.188  0.2043 -0.6828 -2.6162
  631SOL    HW2 1893   3.059   0.196   2.015 -1.3700  0.2231 -0.4333
  632SOL     OW 1894   2.307   2.517   0.684 -0.6021  0.9989  1.1814
  632SOL    HW1 1895   2.359   2.598   0.713 -0.3588  1.3401  1.1221
  632SOL    HW2 1896   2.263   2.533   0.589  0.0728 -4.2021  0.9573
  633SOL     OW 1897   1.606   1.279   2.578  0.2030  0.2923 -0.2737
  633SOL    HW1 1898   1.608   1.367   2.629  1.1795 -1.9899  1.0900
  633SOL    HW2 1899   1.513   1.263   2.538 -0.0941  0.0251  2.4499
  634SOL     OW 1900   0.637   2.036   1.005  0.4008  0.5997  0.1439
  634SOL    HW1 1901   0.584   2.098   1.068 -0.7996 -0.0134 -0.0901
  634SOL    HW2 1902   0.724   2.082   0.970 -3.1994  0.0500  0.2186
  635SOL     OW 1903   0.056   2.292   3.068  0.1626 -0.5623  0.9323
  635SOL    HW1 1904   0.008   2.350   2.998 -1.6779 -3.0081 -1.0708
  635SOL    HW2 1905   0.038   2.335   3.160  0.9502  0.9874 -1.0620
  636SOL     OW 1906   2.277   2.819   2.015 -0.3251  0.7376  0.8983
  636SOL    HW1 1907   2.282   2.923   2.014 -0.3219  2.0141  0.9134
  636SOL    HW2 1908   2.228   2.776   2.089  1.6738  0.2860  0.0288
  637SOL     OW 1909   2.541   0.719   2.050 -0.1462  0.6439  0.0499
  637SOL    HW1 1910   2.499   0.722   1.954  1.1403  0.8849 -0.2525
  637SOL    HW2 1911   2.616   0.792   2.072 -1.5606  1.9146  1.8229
  638SOL     OW 1912   2.517   1.864   1.333  0.0099 -0.2591  0.6216
  638SOL    HW1 1913   2.412   1.880   1.325 -4.8519  1.0842 -0.2163
  638SOL    HW2 1914   2.530   1.774   1.385  0.7175 -0.2733 -0.3773
  639SOL     OW 1915   1.310   2.235   1.618 -0.0871  0.3149  0.1888
  639SOL    HW1 1916   1.314   2.184   1.523 -1.3407  1.7744 -1.4901
  639SOL    HW2 1917   1.226   2.208   1.676 -0.1804  0.9502 -1.5136
  640SOL     OW 1918   0.178   1.204   1.553  0.8932  0.2453 -0.4201
  640SOL    HW1 1919   0.162   1.238   1.650 -1.3715 -1.2931  1.2184
  640SOL    HW2 1920   0.266   1.154   1.554 -1.3108 -0.8511 -0.9747
  641SOL     OW 1921   1.977   0.166   1.466 -0.4964  0.5350 -0.5519
  641SOL    HW1 1922   1.915   0.248   1.454 -0.1132  0.7766 -0.9445
  641SOL    HW2 1923   2.012   0.161   1.568 -2.4429  1.2116 -1.1222
  642SOL     OW 1924   1.992   0.095   0.310 -0.2553 -0.1685  0.1478
  642SOL    HW1 1925   2.095   0.076   0.337  2.2019 -1.4051 -1.6358
  642SOL    HW2 1926   1.927   0.061   0.386  2.3182 -0.2087  1.1561
  643SOL     OW 1927   2.857   1.871   2.089 -0.5832  0.3377  0.2961
  643SOL    HW1 1928   2.801   1.788   2.052 -1.8715 -0.3891  1.6380
  643SOL    HW2 1929   2.846   1.961   2.037  0.0167  0.0077 -2.6562
  644SOL     OW 1930   2.194   2.292   1.216  0.3055 -0.1530  0.5926
  644SOL    HW1 1931   2.277   2.239   1.177 -1.3855 -0.7168 -1.2114
  644SOL    HW2 1932   2.205   2.317   1.320 -1.4853  0.4982  2.3959
  645SOL     OW 1933   0.595   0.813   1.159  0.2658  0.2543  0.2705
  645SOL    HW1 1934   0.535   0.742   1.111  0.6809  1.2563 -1.8901
  645SOL    HW2 1935   0.633   0.885   1.094 -2.0087  0.3286 -4.0024
  646SOL     OW 1936   1.511   1.955   1.811 -0.3892  0.3067 -0.1199
  646SOL    HW1 1937   1.598   2.014   1.792  1.1640  0.0901 -0.9849
  646SOL    HW2 1938   1.449   1.991   1.888  0.6959  1.0771 -1.5486
  647SOL     OW 1939   0.861   0.930   0.660  0.2622 -0.0533 -0.1409
  647SOL    HW1 1940   0.952   0.904   0.705  1.9551  1.9082 -2.6367
  647SOL    HW2 1941   0.774   0.869   0.687 -1.0172 -0.5672  0.8150
  648SOL     OW 1942   0.200   0.181   0.319  0.4325  0.6264 -0.0745
  648SOL    HW1 1943   0.213   0.112   0.245 -1.8087  2.9082  0.5222
  648SOL    HW2 1944   0.175   0.272   0.276  0.7883 -3.6197 -0.2920
  649SOL     OW 1945  -0.004   0.121   0.933 -0.4984  0.0771  0.1253
  649SOL    HW1 1946   0.099   0.121   0.921  0.2492 -2.1753  0.0115
  649SOL    HW2 1947  -0.024   0.137   1.037  3.9838 -1.5115  1.5943
  650SOL     OW 1948   2.721   0.720   1.417 -0.0765  0.0575  0.6112
  650SOL    HW1 1949   2.628   0.708   1.461  2.5085  2.8007 -0.4953
  650SOL    HW2 1950   2.710   0.800   1.356  1.8555 -0.8051  0.1096
  651SOL     OW 1951   0.907   1.596   1.610 -0.3097 -0.4926  0.0730
  651SOL    HW1 1952   0.979   1.673   1.621 -1.2979  0.3604 -2.5839
  651SOL    HW2 1953   0.850   1.620   1.522  1.2351  1.9611 -3.7661
  652SOL     OW 1954   2.252   2.504   2.381  0.7845  0.1656 -0.3894
  652SOL    HW1 1955   2.230   2.528   2.484 -0.0898  0.2605  1.8457
  652SOL    HW2 1956   2.215   2.571   2.314  1.3725 -0.3842 -0.6671
  653SOL     OW 1957   2.696   1.181   0.289  0.1166  0.1907 -0.3506
  653SOL    HW1 1958   2.747   1.271   0.297 -3.3293 -2.0953 -0.9997
  653SOL    HW2 1959   2.751   1.106   0.335 -0.3040 -0.3897  1.4300
  654SOL     OW 1960   1.282   2.277   1.226 -0.2897 -0.1057 -0.6135
  654SOL    HW1 1961   1.275   2.183   1.266 -2.1198  0.9372 -1.5748
  654SOL    HW2 1962   1.324   2.273   1.128  1.2781 -0.6903  1.6817
  655SOL     OW 1963   0.209   1.034   1.853  0.2908  0.2157 -0.0594
  655SOL    HW1 1964   0.248   0.947   1.821 -0.6076  2.7550  3.4594
  655SOL    HW2 1965   0.284   1.105   1.861 -0.9197  1.7981 -0.3345
  656SOL     OW 1966   2.513   2.490   2.566 -0.5767 -0.3551 -0.5543
  656SOL    HW1 1967   2.615   2.474   2.535  2.8294 -0.3518 -1.6234
  656SOL    HW2 1968   2.461   2.545   2.497  2.4256  3.5913  0.3394
  657SOL     OW 1969   3.050   1.090   1.861  0.5320 -0.1765 -0.2928
  657SOL    HW1 1970   3.038   1.165   1.930  0.0799  1.1277  1.2795
  657SOL    HW2 1971   3.150   1.088   1.832  0.8861  0.9491  0.1740
  658SOL     OW 1972   1.640   0.180   2.375  0.2312  0.1817 -0.0905
  658SOL    HW1 1973   1.688   0.152   2.460 -1.1882  0.5807 -0.1491
  658SOL    HW2 1974   1.685   0.153   2.285  0.4047  1.3726 -4.7842
  659SOL     OW 1975   1.409   0.566   2.894  0.1317 -0.5044 -0.2817
  659SOL    HW1 1976   1.479   0.645   2.891  0.2464  1.5082  3.2375
  659SOL    HW2 1977   1.316   0.605   2.863 -0.3845  1.7006 -1.1252
  660SOL     OW 1978   1.426   0.372   1.406 -0.6251  0.3714 -0.0060
  660SOL    HW1 1979   1.480   0.378   1.494  1.1111 -0.6709  0.5138
  660SOL    HW2 1980   1.492   0.337   1.328  0.0991  1.5042 -1.8724
  661SOL     OW 1981   2.482   1.175   0.671  0.0613 -0.4095 -0.2393
  661SOL    HW1 1982   2.511   1.105   0.601 -1.3016 -1.1576  0.3448
  661SOL    HW2 1983   2.423   1.251   0.635 -1.9195  0.4648 -1.0363
  662SOL     OW 1984   1.319   0.426   1.836 -0.0851  0.0506 -0.3832
  662SOL    HW1 1985   1.300   0.329   1.810 -2.0303  0.1990 -0.1513
  662SOL    HW2 1986   1.275   0.462   1.922  2.1099  1.4538  1.3393
  663SOL     OW 1987   0.838   1.597   2.169 -0.0455 -0.1738 -0.3302
  663SOL    HW1 1988   0.804   1.682   2.213  0.9462 -0.4539 -2.6939
  663SOL    HW2 1989   0.777   1.553   2.097 -1.5929 -1.0060 -0.9096
  664SOL     OW 1990   1.682   2.018   1.381  0.2833 -0.2498  0.1624
  664SOL    HW1 1991   1.608   1.964   1.430  0.0484  3.2093  1.6117
  664SOL    HW2 1992   1.779   1.981   1.396 -0.5363 -2.4869  2.8080
  665SOL     OW 1993   2.227   0.634   1.964  0.5452 -0.7036  0.4549
  665SOL    HW1 1994   2.199   0.540   2.003  0.4898  0.8319  1.6036
  665SOL    HW2 1995   2.245   0.705   2.037 -2.8835 -1.5833  0.1260
  666SOL     OW 1996   0.498   2.292   0.478 -0.7182 -0.3790 -0.0375
  666SOL    HW1 1997   0.557   2.380   0.460 -0.3712  3.6441  1.6860
  666SOL    HW2 1998   0.456   2.297   0.574  0.4563  0.1201 -1.9563
  667SOL     OW 1999   2.044   0.274   1.010  0.7125  0.5553 -0.1935
  667SOL    HW1 2000   2.073   0.368   1.043  1.3182  2.4809  0.1254
  667SOL    HW2 2001   1.985   0.223   1.075  3.0994  3.0152  0.3782
  668SOL     OW 2002   1.993   0.512   1.188 -0.1012 -0.8836  0.3453
  668SOL    HW1 2003   2.063   0.551   1.116  1.7160  1.1286 -0.2327
  668SOL    HW2 2004   2.039   0.510   1.278 -1.3598 -1.1172 -1.2067
  669SOL     OW 2005   2.998   2.092   0.911  0.0084 -0.5454 -0.1399
  669SOL    HW1 2006   2.939   2.121   0.826 -1.7234 -0.6953 -1.5661
  669SOL    HW2 2007   2.961   2.125   1.007  2.9335 -1.6782  4.2423
  670SOL     OW 2008   2.817   2.333   2.019 -0.2068 -0.0934 -0.1481
  670SOL    HW1 2009   2.747   2.332   2.098  0.0233 -0.4859 -2.1933
  670SOL    HW2 2010   2.818   2.418   1.960  1.6910  1.9915 -0.7734
  671SOL     OW 2011   1.748   1.651   1.453 -0.0477 -0.6917 -0.1604
  671SOL    HW1 2012   1.778   1.710   1.371  0.6898  0.8131 -1.0811
  671SOL    HW2 2013   1.651   1.615   1.457  2.0032 -0.9890  0.4253
  672SOL     OW 2014   0.432   0.639   2.435 -0.2811  0.8332 -0.0989
  672SOL    HW1 2015   0.470   0.646   2.341  0.0346 -0.0295  3.8754
  672SOL    HW2 2016   0.342   0.687   2.452 -1.2543  1.7135  1.0413
  673SOL     OW 2017   0.179   1.207   1.152  0.3011  0.0586 -0.5839
  673SOL    HW1 2018   0.205   1.291   1.203  0.7583  0.0681  1.4064
  673SOL    HW2 2019   0.256   1.137   1.142 -0.1102 -2.5166  0.7407
  674SOL     OW 2020   1.526   2.875   0.141 -0.2540 -0.2989  0.0169
  674SOL    HW1 2021   1.584   2.957   0.116  2.2332 -2.9371 -0.4918
  674SOL    HW2 2022   1.569   2.781   0.119  1.1504 -2.2062 -1.4576
  675SOL     OW 2023   1.698   0.820   2.333  0.2328 -0.3221 -0.2324
  675SOL    HW1 2024   1.790   0.821   2.285 -1.3607 -3.3333  1.0927
  675SOL    HW2 2025   1.616   0.791   2.278  3.0149  0.5835  2.7839
  676SOL     OW 2026   2.499   1.527   1.989  0.0408 -0.3476 -0.0389
  676SOL    HW1 2027   2.459   1.465   1.908 -1.4574 -2.1501  0.2031
  676SOL    HW2 2028   2.539   1.465   2.064 -1.4614 -2.4319  0.5220
  677SOL     OW 2029   1.789   0.573   0.978  0.0396 -0.7701  0.3803
  677SOL    HW1 2030   1.853   0.567   1.061 -1.4341 -0.7680  0.6381
  677SOL    HW2 2031   1.702   0.514   0.993 -0.3681 -1.4769  0.0848
  678SOL     OW 2032   0.071   0.752   1.665  0.4271  0.5373  0.3715
  678SOL    HW1 2033   0.169   0.764   1.702 -1.0470  2.4498  1.7329
  678SOL    HW2 2034  -0.003   0.804   1.722 -1.3228  1.4850  1.0926
  679SOL     OW 2035   2.517   1.197   1.054  0.2766  0.4275  0.2908
  679SOL    HW1 2036   2.486   1.235   1.147  1.2976  0.4526  1.4031
  679SOL    HW2 2037   2.524   1.091   1.050  0.9623 -1.7510  0.1527
  680SOL     OW 2038   2.844   0.632   1.667  0.1068 -0.1231 -0.2103
  680SOL    HW1 2039   2.813   0.656   1.570 -1.2328 -0.1743  0.6100
  680SOL    HW2 2040   2.871   0.715   1.725 -0.9587 -1.2399 -0.5115
  681SOL     OW 2041   3.018   0.163   1.612 -0.2207  0.0765  0.5585
  681SOL    HW1 2042   3.092   0.151   1.539  1.4320 -0.0212  0.2985
  681SOL    HW2 2043   2.952   0.240   1.586  0.8562 -0.1208 -0.1740
  682SOL     OW 2044   0.770   0.045   1.399 -0.2513  0.1496 -0.4477
  682SOL    HW1 2045   0.698  -0.032   1.408  0.0090  0.1873 -2.1799
  682SOL    HW2 2046   0.823   0.036   1.311 -1.3757  0.0696  1.8984
  683SOL     OW 2047   1.402   0.239   2.176  0.4950 -0.0380 -0.1129
  683SOL    HW1 2048   1.353   0.306   2.235  0.0704 -2.1221  0.4376
  683SOL    HW2 2049   1.475   0.294   2.120  2.8679 -0.5200 -0.3491
  684SOL     OW 2050   1.439   2.141   0.492  0.0257  0.3995 -0.1516
  684SOL    HW1 2051   1.504   2.064   0.518 -1.1099 -1.1832 -0.0218
  684SOL    HW2 2052   1.349   2.102   0.458  0.7188  1.0097 -0.8424
  685SOL     OW 2053   2.178   1.905   1.922 -0.0608 -1.1195  0.0281
  685SOL    HW1 2054   2.215   1.967   1.848 -2.8759  0.8203  1.0450
  685SOL    HW2 2055   2.251   1.850   1.964 -2.3253  2.2304  1.2077
  686SOL     OW 2056   1.571   1.745   2.712  0.3862 -0.2878  0.7368
  686SOL    HW1 2057   1.560   1.645   2.699  2.4839  2.3396 -0.1809
  686SOL    HW2 2058   1.650   1.780   2.770 -0.8990  2.7627  0.3584
  687SOL     OW 2059   1.348   2.521   1.909  0.1894  0.1314  0.6936
  687SOL    HW1 2060   1.380   2.456   1.837 -0.8789 -0.8722  1.0832
  687SOL    HW2 2061   1.407   2.525   1.992  0.3222 -1.3130 -2.9772
  688SOL     OW 2062   2.083   1.392   1.630 -0.0182 -0.3448  0.3968
  688SOL    HW1 2063   2.172   1.408   1.580  1.6575 -1.9695  0.2020
  688SOL    HW2 2064   2.013   1.334   1.580  1.4083 -0.6624  0.6466
  689SOL     OW 2065   2.460   1.115   2.765 -0.4062  0.1237  0.1583
  689SOL    HW1 2066   2.361   1.097   2.763  1.3808  0.2483 -2.1528
  689SOL    HW2 2067   2.515   1.068   2.840 -2.9270 -0.6773  0.0103
  690SOL     OW 2068   2.220   2.818   3.069  0.3105 -0.1949 -0.6056
  690SOL    HW1 2069   2.141   2.786   3.007 -3.3693  0.4517  3.6272
  690SOL    HW2 2070   2.179   2.826   3.163  0.2457 -0.4938  1.4191
  691SOL     OW 2071   2.571   0.473   2.161 -0.4260  0.3890  0.8391
  691SOL    HW1 2072   2.609   0.400   2.096 -2.1799  0.0893  0.6815
  691SOL    HW2 2073   2.579   0.570   2.121 -1.1244 -0.6810  0.6994
  692SOL     OW 2074   2.771   1.229   0.718 -0.5665 -0.3050 -0.0410
  692SOL    HW1 2075   2.671   1.252   0.710 -0.5305  1.7984 -0.4927
  692SOL    HW2 2076   2.828   1.318   0.730 -2.2030 -0.4205 -2.0679
  693SOL     OW 2077   2.883   2.996   0.605  0.2769 -0.4879 -0.2426
  693SOL    HW1 2078   2.849   3.070   0.674 -0.2020 -1.0407 -1.6067
  693SOL    HW2 2079   2.805   2.964   0.539 -2.6926  2.5027  0.4578
  694SOL     OW 2080   2.389   2.206   0.066 -0.4437 -0.3426  0.0177
  694SOL    HW1 2081   2.352   2.300   0.105 -1.2670 -1.1735  1.6504
  694SOL    HW2 2082   2.308   2.141   0.044 -4.5702 -0.6547 -1.8955
  695SOL     OW 2083   0.530   3.013   1.462  0.0621 -0.2285  0.2578
  695SOL    HW1 2084   0.523   2.911   1.461 -1.7970  1.9319  1.8758
  695SOL    HW2 2085   0.474   3.053   1.537 -0.5643 -0.4226 -0.3367
  696SOL     OW 2086   2.688   1.902   0.722  0.2139  0.3175  0.1844
  696SOL    HW1 2087   2.710   1.824   0.790 -0.8553 -2.5932 -0.1695
  696SOL    HW2 2088   2.707   1.879   0.625  1.6516 -0.7482 -1.2502
  697SOL     OW 2089   1.743   2.093   1.750 -0.1495  0.3874  0.0632
  697SOL    HW1 2090   1.808   2.010   1.756 -2.4433 -1.0237 -1.1898
  697SOL    HW2 2091   1.786   2.186   1.741 -0.4538 -2.6411 -1.6506
  698SOL     OW 2092   2.918   0.387   2.733  0.8241 -0.5426  0.2189
  698SOL    HW1 2093   2.908   0.325   2.654  0.2604  0.4099 -0.7654
  698SOL    HW2 2094   3.005   0.364   2.783 -1.6145 -0.7396 -3.3005
  699SOL     OW 2095   1.562   0.065   2.934  0.0185 -0.4272 -0.0882
  699SOL    HW1 2096   1.526  -0.029   2.907 -1.2038 -0.3140 -0.3059
  699SOL    HW2 2097   1.610   0.124   2.860 -0.5137  3.9316  0.9683
  700SOL     OW 2098   1.018   2.368   1.355  0.6900  0.1860  0.7117
  700SOL    HW1 2099   1.112   2.343   1.342 -1.6409 -0.1533  3.0324
  700SOL    HW2 2100   0.952   2.316   1.293 -0.9951  1.4546  0.4336
  701SOL     OW 2101   1.877   2.826   0.049 -0.3170  0.6268  0.1187
  701SOL    HW1 2102   1.906   2.740   0.102 -1.0226 -2.9115 -1.5955
  701SOL    HW2 2103   1.913   2.914   0.089  1.0136 -0.2097 -2.1770
  702SOL     OW 2104   2.094   1.378   1.917 -0.2972  0.7590 -0.3416
  702SOL    HW1 2105   2.146   1.290   1.912  0.7543  3.0740 -2.2771
  702SOL    HW2 2106   2.095   1.424   1.819 -0.7607 -0.7241 -1.6937
  703SOL     OW 2107   1.951   0.817   1.422  0.1849  0.0050 -0.1798
  703SOL    HW1 2108   1.933   0.721   1.465 -0.0376 -2.6253  1.1704
  703SOL    HW2 2109   1.994   0.880   1.496 -1.0815  0.5012  0.2143
  704SOL     OW 2110   0.320   2.031   1.690 -0.7846 -0.4135 -0.4134
  704SOL    HW1 2111   0.374   1.972   1.758 -0.2059 -0.8813  3.5411
  704SOL    HW2 2112   0.356   2.131   1.684  1.4538 -0.9946  2.6076
  705SOL     OW 2113   2.532   1.406   0.892 -1.1295 -0.0507 -0.2789
  705SOL    HW1 2114   2.442   1.391   0.841  0.3777 -1.1670  3.6935
  705SOL    HW2 2115   2.536   1.343   0.977  0.0933 -1.9366  0.2150
  706SOL     OW 2116   0.654   1.758   1.843  0.3752 -0.2112 -0.0204
  706SOL    HW1 2117   0.662   1.658   1.885  2.0773  1.1897 -2.5426
  706SOL    HW2 2118   0.726   1.823   1.883 -0.1425  3.1341  0.0845
  707SOL     OW 2119   2.270   1.172   1.835  0.2609  0.5827  0.5320
  707SOL    HW1 2120   2.361   1.173   1.887  2.0735 -0.7467  0.9167
  707SOL    HW2 2121   2.248   1.072   1.813  1.1618  3.3205  1.2076
  708SOL     OW 2122   3.070   0.469   3.022  0.3685 -0.4229  0.0791
  708SOL    HW1 2123   3.057   0.527   2.939  0.6092  2.5255  1.2714
  708SOL    HW2 2124   3.091   0.367   3.008  2.7864  0.2956  2.6229
  709SOL     OW 2125   1.823   1.804   0.298  0.2112  0.1431 -0.1430
  709SOL    HW1 2126   1.859   1.897   0.336  1.0957  3.9242 -2.0385
  709SOL    HW2 2127   1.841   1.792   0.196 -3.2553  0.7063  2.1997
  710SOL     OW 2128   1.719   1.606   2.455  0.4191  0.8350  0.5554
  710SOL    HW1 2129   1.793   1.586   2.388 -1.8998 -0.0036  2.6748
  710SOL    HW2 2130   1.748   1.576   2.553 -1.1567  0.9296 -1.6546
  711SOL     OW 2131   2.645   2.924   0.964  0.1577  0.2298  0.1980
  711SOL    HW1 2132   2.594   3.016   0.957 -1.7647 -1.5822 -0.3536
  711SOL    HW2 2133   2.744   2.933   0.937 -3.3161  1.5695  2.5993
  712SOL     OW 2134   1.511   2.358   1.769  0.3199  0.0669  0.1784
  712SOL    HW1 2135   1.590   2.295   1.793  0.2147  1.2916  1.8125
  712SOL    HW2 2136   1.431   2.312   1.722 -0.3306 -2.2611  1.0025
  713SOL     OW 2137   2.805   1.444   2.457 -0.0973 -0.6103  0.2382
  713SOL    HW1 2138   2.807   1.347   2.491  0.9896 -2.5004 -1.6197
  713SOL    HW2 2139   2.751   1.515   2.512  2.3839  0.9371  1.3044
  714SOL     OW 2140   2.605   0.479   2.427 -0.0021 -0.1646  0.1395
  714SOL    HW1 2141   2.544   0.421   2.487  3.0109 -0.4644  0.2571
  714SOL    HW2 2142   2.587   0.478   2.326  0.9930 -0.4239  1.4768
  715SOL     OW 2143   1.567   2.093   1.135  0.1525  0.2945 -0.0245
  715SOL    HW1 2144   1.533   2.187   1.109 -0.3661 -1.0075  2.1271
  715SOL    HW2 2145   1.604   2.093   1.230 -1.7526  2.7206 -1.3047
  716SOL     OW 2146   1.224   0.227   1.505  0.7727 -0.1511 -0.1593
  716SOL    HW1 2147   1.122   0.237   1.485  0.3391 -0.7256  0.0404
  716SOL    HW2 2148   1.280   0.310   1.480 -1.1045 -0.7026  0.0120
  717SOL     OW 2149   1.090   0.586   1.612  0.0617  0.5258 -0.1133
  717SOL    HW1 2150   1.187   0.609   1.640  1.3453 -1.1855  3.0127
  717SOL    HW2 2151   1.087   0.577   1.508  0.4509  0.7464 -1.4334
  718SOL     OW 2152   0.645   1.023   1.012 -0.8465  0.7640 -0.0468
  718SOL    HW1 2153   0.619   1.026   0.914  0.2567 -2.8336 -0.0703
  718SOL    HW2 2154   0.697   1.107   1.038 -1.1191  2.3884 -0.2196
  719SOL     OW 2155   0.791   1.877   2.253 -0.1573  0.6402 -0.6982
  719SOL    HW1 2156   0.863   1.908   2.325  2.4526 -3.0460  2.0849
  719SOL    HW2 2157   0.702   1.917   2.285  1.1989 -2.0506 -3.1254
  720SOL     OW 2158   2.206   1.080   0.253  0.1975  0.0503 -0.3709
  720SOL    HW1 2159   2.285   1.018   0.216  0.9070 -1.2057 -0.9395
  720SOL    HW2 2160   2.188   1.059   0.356 -2.0606 -1.8708  0.9405
  721SOL     OW 2161   2.309   0.012   2.039 -0.6877 -0.2991 -0.1902
  721SOL    HW1 2162   2.345   0.105   2.007 -1.7024 -0.8307 -3.2149
  721SOL    HW2 2163   2.209   0.013   2.050  0.0822 -0.4853 -0.9977
  722SOL     OW 2164   2.396   1.664   0.553  0.1575  0.7984 -0.9541
  722SOL    HW1 2165   2.392   1.624   0.458 -1.5148  0.2417 -2.1050
  722SOL    HW2 2166   2.315   1.635   0.613  1.8164 -1.3344 -0.9577
  723SOL     OW 2167   2.550   2.824   1.943  0.0308  0.3834 -0.3156
  723SOL    HW1 2168   2.613   2.852   2.020 -0.9939  2.0549 -1.6411
  723SOL    HW2 2169   2.447   2.811   1.974 -0.1221  3.7440 -1.2377
  724SOL     OW 2170   0.481   2.450   2.437 -0.2031 -0.3415  0.5340
  724SOL    HW1 2171   0.378   2.460   2.422 -0.8315 -1.8717 -0.9757
  724SOL    HW2 2172   0.517   2.462   2.534 -0.5414 -2.8035  3.7657
  725SOL     OW 2173   2.404   2.757   1.451 -1.0609  0.4578 -0.5927
  725SOL    HW1 2174   2.439   2.783   1.359  0.6795 -1.5031 -0.6103
  725SOL    HW2 2175   2.416   2.662   1.479  0.7527 -0.3719 -1.4547
  726SOL     OW 2176   2.393   2.256   0.707 -0.1322  0.4627 -0.1727
  726SOL    HW1 2177   2.316   2.321   0.705  1.9800 -0.9150 -0.1087
  726SOL    HW2 2178   2.398   2.189   0.623 -0.4666 -0.2164  0.9560
  727SOL     OW 2179   0.224   0.002   0.120 -0.1060  0.1909  0.1288
  727SOL    HW1 2180   0.234  -0.097   0.093  0.5030  1.9395  0.5527
  727SOL    HW2 2181   0.242   0.064   0.040 -2.0067 -1.3012 -0.5662
  728SOL     OW 2182   2.780   0.685   0.999 -0.9086 -0.0800 -0.1587
  728SOL    HW1 2183   2.713   0.650   0.929  1.3839  1.5754 -0.2051
  728SOL    HW2 2184   2.797   0.623   1.074  1.2163  2.0781  0.0747
  729SOL     OW 2185   2.914   2.456   0.688 -0.4536  0.1075  0.1012
  729SOL    HW1 2186   2.872   2.366   0.708  0.5848  1.5907 -1.8224
  729SOL    HW2 2187   3.016   2.451   0.700  0.6024  2.7193  2.3212
  730SOL     OW 2188   2.583   0.578   0.784 -0.2255  0.5402  0.7709
  730SOL    HW1 2189   2.525   0.651   0.745  2.7611 -1.9147  0.9069
  730SOL    HW2 2190   2.648   0.544   0.714 -2.8459  0.0593  0.0636
  731SOL     OW 2191   0.008   2.111   2.462  0.1004 -0.0472  0.6268
  731SOL    HW1 2192   0.053   2.155   2.545 -0.7173 -1.9799 -3.4466
  731SOL    HW2 2193  -0.081   2.141   2.436  2.0808 -1.7321 -2.2679
  732SOL     OW 2194   1.105   2.892   1.953  0.0771  0.7685 -0.2947
  732SOL    HW1 2195   1.135   2.840   2.037 -1.8778 -0.5775 -1.0784
  732SOL    HW2 2196   1.123   2.826   1.871  0.4761 -0.5728 -0.8786
  733SOL     OW 2197   3.088   0.744   2.058 -0.8099 -0.4570 -0.8254
  733SOL    HW1 2198   3.188   0.771   2.054  1.2795 -0.0336  0.8704
  733SOL    HW2 2199   3.076   0.643   2.038 -2.8904  2.5049  0.0487
  734SOL     OW 2200   1.409   0.331   2.741 -0.2789  0.1684 -0.1500
  734SOL    HW1 2201   1.430   0.421   2.791 -0.1288 -1.6302 -1.4028
  734SOL    HW2 2202   1.315   0.287   2.763 -0.9379 -1.6992  1.8419
  735SOL     OW 2203   2.870   2.613   2.251 -0.4103 -0.2445  0.3559
  735SOL    HW1 2204   2.819   2.659   2.178  2.5089 -1.4174 -1.6141
  735SOL    HW2 2205   2.964   2.575   2.221  0.3606 -0.6278  2.5684
  736SOL     OW 2206   0.770   0.392   2.662  0.5647 -0.1967 -0.3823
  736SOL    HW1 2207   0.713   0.478   2.646  2.4245  2.1568  2.9366
  736SOL    HW2 2208   0.793   0.342   2.578 -2.8925  2.8867  2.8173
  737SOL     OW 2209   2.648   0.505   2.860  0.3090  0.0276 -0.0715
  737SOL    HW1 2210   2.614   0.458   2.945 -1.1828 -0.6678  0.7664
  737SOL    HW2 2211   2.739   0.465   2.828  2.2451 -1.3196 -2.5125
  738SOL     OW 2212   1.605   1.224   2.974  0.9623 -0.3282  0.3337
  738SOL    HW1 2213   1.703   1.194   2.984 -2.2300 -1.2553  0.2848
  738SOL    HW2 2214   1.558   1.171   2.901 -2.7045  3.6666  2.2086
  739SOL     OW 2215   1.808   0.669   0.710  0.2666 -0.2861 -0.6164
  739SOL    HW1 2216   1.807   0.649   0.813 -1.5608 -0.0385 -2.0263
  739SOL    HW2 2217   1.826   0.582   0.658 -0.5575  0.0536 -0.3386
  740SOL     OW 2218   1.956   1.874   2.200  0.5187 -0.5782 -0.6097
  740SOL    HW1 2219   2.051   1.838   2.178 -0.8320  0.7763 -1.7823
  740SOL    HW2 2220   1.889   1.855   2.124 -0.7652  1.1431 -1.5882
  741SOL     OW 2221   2.481   0.039   2.625 -0.0050  0.3393 -0.1030
  741SOL    HW1 2222   2.583   0.014   2.631 -2.5656  0.0311 -1.3828
  741SOL    HW2 2223   2.451   0.039   2.526  0.3881 -0.3392 -0.7888
  742SOL     OW 2224   2.239   1.370   0.131 -0.5186  0.1595 -0.0785
  742SOL    HW1 2225   2.164   1.437   0.151 -0.6219 -1.4815 -0.0785
  742SOL    HW2 2226   2.244   1.295   0.199 -1.6953  1.0848 -0.1623
  743SOL     OW 2227   1.751   0.597   2.611 -0.3182  0.2243  0.5314
  743SOL    HW1 2228   1.739   0.548   2.521 -1.3727 -0.9026  0.4167
  743SOL    HW2 2229   1.696   0.686   2.620 -1.8000 -2.5391  1.0336
  744SOL     OW 2230   2.663   2.101   0.029  0.5280 -0.2500 -0.1682
  744SOL    HW1 2231   2.557   2.125   0.034 -2.3062 -1.8957  2.7318
  744SOL    HW2 2232   2.694   2.058   0.117 -0.4171  1.5391 -1.8333
  745SOL     OW 2233   2.141   2.706   2.203  0.0402  0.6020 -0.6138
  745SOL    HW1 2234   2.057   2.659   2.164  0.3676  1.3571 -1.2991
  745SOL    HW2 2235   2.114   2.752   2.296  1.8583  0.9707 -0.1699
  746SOL     OW 2236   3.074   2.568   1.819  0.1748  0.5085 -0.1714
  746SOL    HW1 2237   3.178   2.578   1.810  1.0989  1.6004 -2.1130
  746SOL    HW2 2238   3.035   2.649   1.876 -1.0264  0.1529  0.8564
  747SOL     OW 2239   3.091   1.798   1.676 -0.4515  0.4008 -0.0381
  747SOL    HW1 2240   3.046   1.711   1.648 -2.3253  0.8338  2.1643
  747SOL    HW2 2241   3.155   1.837   1.603 -0.9404 -0.1199  0.8859
  748SOL     OW 2242   1.790   2.693   2.880 -0.0968 -0.3205 -0.0679
  748SOL    HW1 2243   1.801   2.753   2.962 -3.4313 -0.1576  0.0989
  748SOL    HW2 2244   1.693   2.668   2.858 -1.8730  0.2890 -0.1987
  749SOL     OW 2245   1.314   0.024   0.837 -0.3779  0.5865 -0.2180
  749SOL    HW1 2246   1.234  -0.045   0.811 -1.2931 -0.1811 -2.9475
  749SOL    HW2 2247   1.337   0.094   0.760 -0.0624 -0.7820 -1.7929
  750SOL     OW 2248   2.311   0.235   1.892  0.5931 -0.1831 -0.2245
  750SOL    HW1 2249   2.340   0.282   1.809 -2.8507 -0.0805  3.1360
  750SOL    HW2 2250   2.273   0.299   1.968 -2.0414 -1.6501  0.3459
  751SOL     OW 2251   0.819   2.198   2.791  0.3403  0.0681  0.2018
  751SOL    HW1 2252   0.863   2.186   2.886  0.6622  2.1866 -0.3059
  751SOL    HW2 2253   0.735   2.135   2.780 -1.8919  0.2909  0.7825
  752SOL     OW 2254   1.246   0.893   1.555  0.1313  0.1266  0.5688
  752SOL    HW1 2255   1.320   0.928   1.493  1.1967  0.4483  3.7003
  752SOL    HW2 2256   1.262   0.796   1.588  1.5504  0.5034 -0.6071
  753SOL     OW 2257   0.939   2.614   1.738  0.6501  0.3225  0.7212
  753SOL    HW1 2258   1.035   2.655   1.742 -3.4863 -0.1074  2.3551
  753SOL    HW2 2259   0.865   2.684   1.713  0.4754 -0.2455  1.5114
  754SOL     OW 2260   1.187   1.266   3.043 -0.3572 -0.0114  0.4558
  754SOL    HW1 2261   1.192   1.174   2.991 -0.5422 -1.4634 -2.0541
  754SOL    HW2 2262   1.203   1.340   2.975 -1.8800 -1.8119  1.3838
  755SOL     OW 2263   1.944   0.463   2.219  0.1237  0.3163 -0.2989
  755SOL    HW1 2264   2.033   0.435   2.268 -2.2741  1.1321 -0.4383
  755SOL    HW2 2265   1.862   0.476   2.280  1.0774 -0.5566  0.7679
  756SOL     OW 2266   2.639   0.985   2.963  0.5177 -0.1305 -0.1926
  756SOL    HW1 2267   2.738   0.959   2.973  2.8398 -2.7345 -0.2347
  756SOL    HW2 2268   2.575   0.916   3.004  0.1546  2.9919 -1.4232
  757SOL     OW 2269   0.075   0.495   1.789  0.5912  0.4364 -0.0594
  757SOL    HW1 2270   0.073   0.581   1.734  3.2454  1.6237  0.7402
  757SOL    HW2 2271   0.167   0.443   1.778  0.0218  1.0651 -1.1800
  758SOL     OW 2272   2.412   3.097   1.473 -0.4262 -0.5891 -0.2269
  758SOL    HW1 2273   2.340   3.034   1.522 -2.0335  0.3415 -0.2680
  758SOL    HW2 2274   2.395   3.098   1.369  0.8177 -1.0871  1.0463
  759SOL     OW 2275   1.678   3.092   0.073 -0.3216 -0.2314 -0.4283
  759SOL    HW1 2276   1.632   3.124  -0.015  1.4378  0.3552 -0.7461
  759SOL    HW2 2277   1.777   3.103   0.071 -0.1294  0.8652  0.1929
  760SOL     OW 2278   2.752   2.026   2.760  0.3900 -0.3719  0.6444
  760SOL    HW1 2279   2.845   1.985   2.785 -0.4659 -0.5523 -3.3325
  760SOL    HW2 2280   2.744   2.129   2.777  0.3495  1.5406 -2.2434
  761SOL     OW 2281   1.962   1.699   1.619 -0.6628  0.0757 -0.1666
  761SOL    HW1 2282   2.022   1.616   1.631  1.3030 -0.2027  0.3680
  761SOL    HW2 2283   1.867   1.673   1.594 -1.0229 -1.2184  1.2284
  762SOL     OW 2284   0.514   2.409   0.964  0.0228  0.1090 -0.0342
  762SOL    HW1 2285   0.560   2.413   0.872  3.5058 -1.9643  0.8220
  762SOL    HW2 2286   0.561   2.462   1.046  2.6340 -0.1848  1.5892
  763SOL     OW 2287   2.108   1.517   2.984  0.0787  0.2684 -0.0688
  763SOL    HW1 2288   2.189   1.460   3.016 -2.9371 -1.1577 -1.7131
  763SOL    HW2 2289   2.016   1.473   3.011  2.1359 -0.1000  0.7448
  764SOL     OW 2290   0.693   0.520   0.909 -0.4456 -0.4445  0.1437
  764SOL    HW1 2291   0.684   0.432   0.853 -2.0126 -1.6780 -0.8964
  764SOL    HW2 2292   0.794   0.549   0.929 -0.4156  3.1086  1.6020
  765SOL     OW 2293   0.662   0.234   0.817  0.2869  0.0365 -0.6618
  765SOL    HW1 2294   0.767   0.235   0.810  1.2869  0.6434 -0.0767
  765SOL    HW2 2295   0.633   0.217   0.920 -0.4731 -2.9934  0.6848
  766SOL     OW 2296   2.954   2.088   0.035  0.1049  0.0352  0.0638
  766SOL    HW1 2297   2.855   2.108   0.005 -3.2797 -0.3979 -0.5058
  766SOL    HW2 2298   3.018   2.171   0.034 -0.8098 -0.0171  2.1241
  767SOL     OW 2299   2.874   1.541   0.510 -1.1789 -0.3140  0.1622
  767SOL    HW1 2300   2.779   1.526   0.548  0.0731  1.0925 -1.3309
  767SOL    HW2 2301   2.938   1.585   0.582  0.1950  2.6571  1.1525
  768SOL     OW 2302   1.096   0.255   0.311 -0.0659  0.1219 -0.0366
  768SOL    HW1 2303   1.020   0.185   0.332  0.5412 -0.9701 -3.0148
  768SOL    HW2 2304   1.188   0.216   0.295 -0.3769  1.6723 -0.1358
  769SOL     OW 2305   1.183   1.812   2.262  0.2997 -0.1055  0.2448
  769SOL    HW1 2306   1.138   1.832   2.355 -1.4637  1.4002  4.7696
  769SOL    HW2 2307   1.212   1.710   2.240  0.0340 -0.0175 -1.6480
  770SOL     OW 2308   0.174   1.236   2.417 -0.4686 -0.3726  0.2801
  770SOL    HW1 2309   0.162   1.269   2.511 -1.0332 -1.1647 -2.7394
  770SOL    HW2 2310   0.088   1.210   2.366  1.0307 -0.7274 -1.2785
  771SOL     OW 2311   2.972   2.811   1.903  0.1289  0.5098  0.3657
  771SOL    HW1 2312   2.931   2.878   1.828 -0.9772 -0.0708 -1.8417
  771SOL    HW2 2313   2.987   2.860   1.990 -1.6571 -1.4470 -1.1743
  772SOL     OW 2314   2.121   0.104   2.970 -0.6682  0.1842  0.2260
  772SOL    HW1 2315   2.191   0.023   2.984  4.2025  0.2650  1.8778
  772SOL    HW2 2316   2.152   0.187   3.026  0.3615  1.0546  2.3194
  773SOL     OW 2317   0.678   2.061   2.473  0.1714  0.0270 -0.4391
  773SOL    HW1 2318   0.676   2.137   2.400 -0.4647 -1.0360 -0.0826
  773SOL    HW2 2319   0.598   2.068   2.541 -0.7623 -0.1640 -0.1496
  774SOL     OW 2320   2.036   3.076   2.622  0.0851 -0.2705 -0.0901
  774SOL    HW1 2321   2.051   3.175   2.652  0.2711  1.5653 -2.4299
  774SOL    HW2 2322   2.078   3.013   2.687 -0.7665  0.8511 -3.6431
  775SOL     OW 2323   2.517   2.838   2.392 -0.1885  0.1477 -1.0390
  775SOL    HW1 2324   2.499   2.936   2.353  0.1328 -0.5445  1.9265
  775SOL    HW2 2325   2.605   2.837   2.449  0.3878 -2.9357 -0.7662
  776SOL     OW 2326   0.007   1.258   0.210  0.5175 -0.5563 -0.5467
  776SOL    HW1 2327  -0.036   1.219   0.124 -1.3089  1.6670  1.6320
  776SOL    HW2 2328  -0.066   1.281   0.278 -2.0328 -0.6328  0.3524
  777SOL     OW 2329   0.205   2.693   0.488  0.1861 -0.2951  0.0863
  777SOL    HW1 2330   0.107   2.700   0.451 -0.1273  2.5049  2.4890
  777SOL    HW2 2331   0.250   2.787   0.504  0.3033 -1.0914  1.7546
  778SOL     OW 2332   1.325   1.958   0.154 -0.0073  0.0148 -0.2238
  778SOL    HW1 2333   1.264   1.993   0.233 -0.2238 -0.7498  1.0689
  778SOL    HW2 2334   1.352   2.038   0.092 -2.1372  0.7224 -1.6923
  779SOL     OW 2335   0.180   0.792   0.494 -0.0450  0.3544 -0.5109
  779SOL    HW1 2336   0.149   0.696   0.501  2.5532  2.0984 -0.4862
  779SOL    HW2 2337   0.131   0.854   0.562 -0.0167  0.1023  1.1999
  780SOL     OW 2338   0.018   0.322   2.385  0.8779 -0.6188  0.5944
  780SOL    HW1 2339  -0.018   0.418   2.362  1.3040  0.1019  0.7643
  780SOL    HW2 2340   0.112   0.317   2.341 -0.2217 -1.7010 -0.8313
  781SOL     OW 2341   0.599   1.745   1.592  0.0968 -0.1300  0.2586
  781SOL    HW1 2342   0.616   1.767   1.691 -1.4712 -2.3090 -0.7421
  781SOL    HW2 2343   0.538   1.657   1.592  0.9904 -1.6210  1.9391
  782SOL     OW 2344   2.592   0.152   0.926  0.7188 -0.0175 -0.0034
  782SOL    HW1 2345   2.546   0.184   0.835  2.4495 -1.5423 -0.2601
  782SOL    HW2 2346   2.544   0.182   1.013 -1.2412 -1.2008 -0.0626
  783SOL     OW 2347   2.861   0.683   2.501 -0.0417  0.3451 -0.2535
  783SOL    HW1 2348   2.818   0.718   2.589 -1.5242 -0.5839 -1.7212
  783SOL    HW2 2349   2.792   0.620   2.463  0.1718 -0.2223  2.2117
  784SOL     OW 2350   1.343   2.213   0.039  0.3410 -0.6380 -0.6006
  784SOL    HW1 2351   1.430   2.247   0.084 -2.9647  2.5812 -1.6839
  784SOL    HW2 2352   1.363   2.185  -0.063  2.3512 -1.0048  0.8518
  785SOL     OW 2353   2.175   0.344   0.008 -0.0457 -0.2500  0.2923
  785SOL    HW1 2354   2.086   0.350   0.065 -2.1182  0.1889  0.4503
  785SOL    HW2 2355   2.204   0.433  -0.031  0.5566  0.2654 -4.1221
  786SOL     OW 2356   2.047   2.156   2.238 -0.3410  0.6700  0.1997
  786SOL    HW1 2357   2.001   2.065   2.223  1.4564  1.8623 -1.2005
  786SOL    HW2 2358   2.148   2.136   2.255 -3.6940 -0.0755  0.1030
  787SOL     OW 2359   1.380   0.628   0.835 -0.1835  0.2211  0.0691
  787SOL    HW1 2360   1.306   0.699   0.847 -1.0634  0.7789  1.2794
  787SOL    HW2 2361   1.427   0.628   0.739  1.0733  0.0406 -1.4656
  788SOL     OW 2362   1.217   0.419   3.031 -0.4135  0.4856 -0.1868
  788SOL    HW1 2363   1.141   0.406   2.963  2.1348  1.0271  2.1369
  788SOL    HW2 2364   1.303   0.461   2.991  1.8810 -2.4258 -1.2580
  789SOL     OW 2365   2.623   0.094   1.821 -0.0341  0.2055 -0.0563
  789SOL    HW1 2366   2.528   0.102   1.866 -0.4290 -1.3009 -0.4538
  789SOL    HW2 2367   2.634   0.000   1.783  1.4370 -3.8346 -0.2016
  790SOL     OW 2368   2.592   2.635   0.830 -0.0805 -0.3725 -1.1749
  790SOL    HW1 2369   2.657   2.651   0.752  1.8807  1.9151  0.9819
  790SOL    HW2 2370   2.612   2.703   0.899  0.2105 -0.5775  1.0399
  791SOL     OW 2371   1.950   1.284   0.232  0.1959  0.2095 -0.4249
  791SOL    HW1 2372   1.858   1.243   0.258  1.6793 -0.7925  0.2815
  791SOL    HW2 2373   2.020   1.214   0.223 -1.7422  2.5764  1.1958
  792SOL     OW 2374   0.413   1.975   2.211  0.0307 -0.0484  0.3109
  792SOL    HW1 2375   0.468   2.063   2.227 -0.9137  1.1337 -1.2792
  792SOL    HW2 2376   0.331   1.970   2.276 -1.3593 -0.5380 -0.0930
  793SOL     OW 2377   2.136   1.546   2.142  0.1321  0.2307  0.5999
  793SOL    HW1 2378   2.218   1.611   2.113  2.5034  0.8546 -0.7473
  793SOL    HW2 2379   2.115   1.476   2.068  0.0743 -3.3143 -2.2797
  794SOL     OW 2380   0.442   1.427   2.480  0.9597  0.7554  0.1361
  794SOL    HW1 2381   0.456   1.363   2.401 -0.2132 -1.3165  0.4082
  794SOL    HW2 2382   0.371   1.497   2.458 -1.3345  0.7637 -1.0684
  795SOL     OW 2383   2.535   2.322   1.804 -0.0545 -0.0389 -0.0111
  795SOL    HW1 2384   2.525   2.368   1.898  0.2738 -0.3354  1.7939
  795SOL    HW2 2385   2.471   2.241   1.788  2.5714  1.2061  0.3729
  796SOL     OW 2386   3.057   1.052   2.691 -0.3978  0.4201  0.0827
  796SOL    HW1 2387   2.961   1.098   2.698  0.5639  1.2532 -0.1244
  796SOL    HW2 2388   3.124   1.050   2.775  2.2848 -3.9807 -0.3934
  797SOL     OW 2389   0.692   0.659   1.366 -0.6968  0.1433 -0.1586
  797SOL    HW1 2390   0.768   0.708   1.420 -1.8233 -1.7673  0.6379
  797SOL    HW2 2391   0.681   0.698   1.270 -1.3323  0.1710  0.1944
  798SOL     OW 2392   1.204   0.453   0.987 -0.0534  0.1986 -0.3722
  798SOL    HW1 2393   1.260   0.445   1.081  1.1899  1.7944  0.7334
  798SOL    HW2 2394   1.233   0.534   0.928  0.2541 -0.7478 -3.3479
  799SOL     OW 2395   1.830   2.733   1.013  0.2325 -0.2958 -0.3259
  799SOL    HW1 2396   1.829   2.641   1.065 -2.2118  2.8718 -0.5894
  799SOL    HW2 2397   1.844   2.715   0.912  0.6512  1.7490  0.3460
  800SOL     OW 2398   2.955   0.834   1.816  0.0885  0.2964 -0.1882
  800SOL    HW1 2399   2.957   0.937   1.840 -1.5450  1.8844  0.1814
  800SOL    HW2 2400   2.954   0.776   1.904  0.0931  1.5085  0.5136
  801SOL     OW 2401   1.971   2.162   0.142 -0.0342 -0.2976 -0.1843
  801SOL    HW1 2402   1.878   2.168   0.093 -1.7179 -0.4075  0.6411
  801SOL    HW2 2403   2.017   2.073   0.128  2.0737  0.5418 -0.6708
  802SOL     OW 2404   0.705   0.688   2.538 -0.7917 -0.9139  0.0884
  802SOL    HW1 2405   0.756   0.673   2.447  2.0809 -1.6222  0.7185
  802SOL    HW2 2406   0.601   0.677   2.524 -1.9080 -0.5128 -0.8832
  803SOL     OW 2407   0.914   0.060   0.865 -0.2327  1.0337 -0.0071
  803SOL    HW1 2408   0.988   0.121   0.906 -1.6489  0.1812 -0.4706
  803SOL    HW2 2409   0.904   0.070   0.760  1.1554  1.6393  0.4788
  804SOL     OW 2410   0.312   0.028   2.192  0.6483 -0.2757  0.1886
  804SOL    HW1 2411   0.283   0.125   2.219  0.3885  0.3387  0.1864
  804SOL    HW2 2412   0.250  -0.002   2.113 -0.7018 -0.4141 -0.3673
  805SOL     OW 2413   2.356   0.373   0.326  0.7748 -0.3474 -0.1939
  805SOL    HW1 2414   2.423   0.344   0.409  3.4017  0.0386  0.1730
  805SOL    HW2 2415   2.370   0.308   0.245  0.0958  0.3464  0.0913
  806SOL     OW 2416   0.635   2.492   1.841 -0.0440  0.1087 -0.0205
  806SOL    HW1 2417   0.575   2.576   1.849  0.0176  1.3700  2.2004
  806SOL    HW2 2418   0.710   2.504   1.767 -0.1943  1.5210 -1.5700
  807SOL     OW 2419   2.540   0.984   0.438 -0.3963  0.3004  0.3756
  807SOL    HW1 2420   2.626   0.934   0.477  1.7141  0.1297  0.8169
  807SOL    HW2 2421   2.531   0.961   0.336  0.3006  2.6142  3.9186
  808SOL     OW 2422   0.606   2.032   2.883  0.5390  0.0509 -0.4240
  808SOL    HW1 2423   0.630   2.072   2.979 -0.2344 -0.4121  0.2427
  808SOL    HW2 2424   0.640   1.936   2.861 -2.4660 -0.8374  0.5608
  809SOL     OW 2425   2.547   1.995   1.902  0.3220 -0.4369  0.1428
  809SOL    HW1 2426   2.644   2.035   1.892  1.7032 -2.3153  1.5800
  809SOL    HW2 2427   2.501   1.975   1.805 -1.6743 -0.1205  1.6620
  810SOL     OW 2428   2.164   1.078   0.540  0.4995  0.0650  0.5774
  810SOL    HW1 2429   2.138   1.024   0.626  1.1016  0.5253 -1.5110
  810SOL    HW2 2430   2.132   1.177   0.547 -2.0039 -0.3404 -4.3957
  811SOL     OW 2431   1.283   2.575   1.183 -0.4138  0.8780  0.2258
  811SOL    HW1 2432   1.280   2.470   1.187 -0.1897  2.9720  1.9337
  811SOL    HW2 2433   1.294   2.623   1.276  0.4228 -0.1621 -0.9154
  812SOL     OW 2434   1.409   0.786   1.948  0.2625  0.1438  0.3343
  812SOL    HW1 2435   1.331   0.775   1.883  1.4323 -3.2447  0.4385
  812SOL    HW2 2436   1.469   0.873   1.928  2.3468  1.5799  3.9429
  813SOL     OW 2437   1.572   2.064   2.422  0.2798  0.1019  0.4211
  813SOL    HW1 2438   1.652   1.999   2.431  0.4341  1.3748  0.7308
  813SOL    HW2 2439   1.507   2.043   2.343  0.4149  0.8398 -0.7598
  814SOL     OW 2440   2.972   1.692   2.901  0.3730  0.0476 -0.2420
  814SOL    HW1 2441   3.045   1.642   2.952 -1.7110 -0.8375  1.1601
  814SOL    HW2 2442   2.993   1.794   2.899  1.5700  2.7771 -0.0442
  815SOL     OW 2443   2.163   2.907   2.771 -0.0376 -0.0830  0.0556
  815SOL    HW1 2444   2.135   2.825   2.834  0.3397 -1.0020  1.6085
  815SOL    HW2 2445   2.253   2.950   2.801  1.2084 -0.3194 -2.3000
  816SOL     OW 2446   1.530   0.360   1.672 -0.5907  0.5593 -0.3074
  816SOL    HW1 2447   1.570   0.264   1.696  0.2276  1.1263 -1.0776
  816SOL    HW2 2448   1.449   0.385   1.732  0.9268  0.4507 -1.6113
  817SOL     OW 2449   0.389   1.223   2.650 -0.1757  0.1335  0.1200
  817SOL    HW1 2450   0.303   1.255   2.691 -0.5635  1.8948 -2.1002
  817SOL    HW2 2451   0.426   1.290   2.586 -0.3000  1.7038  3.2189
  818SOL     OW 2452   2.000   0.817   0.462  0.5605 -0.3014  0.1651
  818SOL    HW1 2453   2.098   0.845   0.431 -0.7840  2.3868 -1.4538
  818SOL    HW2 2454   1.989   0.815   0.564  0.6163  1.5478 -0.8131
  819SOL     OW 2455   2.758   2.908   3.098  0.1647 -0.7409  0.0749
  819SOL    HW1 2456   2.749   2.809   3.136 -1.5546  0.3596 -0.2687
  819SOL    HW2 2457   2.708   2.929   3.008  1.0317  1.5238 -0.9060
  820SOL     OW 2458   1.268   1.053   0.543  0.0377 -0.5368  0.1476
  820SOL    HW1 2459   1.317   1.140   0.573 -2.4842  3.1801 -0.4312
  820SOL    HW2 2460   1.272   0.990   0.620  1.1075  3.6239  1.8299
  821SOL     OW 2461   0.069   1.187   0.736  0.2820 -0.1502 -0.2528
  821SOL    HW1 2462   0.014   1.192   0.823  1.1293 -2.3082 -0.5100
  821SOL    HW2 2463   0.119   1.283   0.721  2.2990 -0.5259 -1.0183
  822SOL     OW 2464   2.515   1.783   2.427  0.4269 -0.4920 -0.2406
  822SOL    HW1 2465   2.510   1.839   2.518 -0.4038 -0.9826  0.5284
  822SOL    HW2 2466   2.418   1.771   2.385  0.4895 -0.8820 -0.1218
  823SOL     OW 2467   2.014   0.956   1.185  0.3589  0.0839  0.8662
  823SOL    HW1 2468   1.971   0.918   1.275 -3.4914  0.7702  0.5724
  823SOL    HW2 2469   1.945   0.968   1.110 -1.9224 -3.4510 -1.6828
  824SOL     OW 2470   0.212   1.914   2.785 -0.0315 -0.4108 -0.4901
  824SOL    HW1 2471   0.246   1.872   2.871 -0.4619 -0.2545 -2.8481
  824SOL    HW2 2472   0.275   1.918   2.704 -0.8169  0.5021  3.5548
  825SOL     OW 2473   1.329   1.070   0.260 -0.0178  0.0550  0.0484
  825SOL    HW1 2474   1.331   1.162   0.217 -0.2897  0.0763 -0.7418
  825SOL    HW2 2475   1.292   1.066   0.359  0.9909 -0.1729  0.8698
  826SOL     OW 2476   1.928   0.598   1.583  0.1687  0.0141 -0.3494
  826SOL    HW1 2477   2.024   0.564   1.606  0.1288 -0.8771  0.2296
  826SOL    HW2 2478   1.866   0.518   1.556 -2.5132  2.1770  2.7758
  827SOL     OW 2479   0.726   1.167   0.378  0.2058 -0.0309  0.5010
  827SOL    HW1 2480   0.786   1.120   0.311 -1.6891  1.9671 -0.0622
  827SOL    HW2 2481   0.649   1.104   0.407  1.5942 -1.2310 -0.1957
  828SOL     OW 2482   2.638   0.128   1.531  0.3764  0.4408  0.4957
  828SOL    HW1 2483   2.549   0.073   1.509 -0.5953 -1.0163  0.4221
  828SOL    HW2 2484   2.647   0.147   1.630  1.1867 -1.3109 -0.6580
  829SOL     OW 2485   2.932   2.427   2.908 -0.9609  0.7178  0.5730
  829SOL    HW1 2486   2.850   2.408   2.965  2.2664 -0.0265  2.1896
  829SOL    HW2 2487   2.945   2.532   2.897 -0.6465 -1.0243  1.2253
  830SOL     OW 2488   2.873   0.911   3.048 -0.1888  0.1915 -0.0465
  830SOL    HW1 2489   2.913   1.002   3.073 -0.2236  0.9201  0.7559
  830SOL    HW2 2490   2.878   0.842   3.122 -3.7752 -0.3491 -1.1026
  831SOL     OW 2491   0.054   0.552   0.425  0.7385 -0.2208  0.2602
  831SOL    HW1 2492   0.040   0.470   0.489 -0.9685  0.9841  0.6647
  831SOL    HW2 2493   0.078   0.529   0.324  0.2215 -0.7172 -0.1852
  832SOL     OW 2494   1.796   0.766   3.032 -0.3789  0.3314 -0.5327
  832SOL    HW1 2495   1.699   0.814   3.031 -3.6553 -0.3515 -3.1916
  832SOL    HW2 2496   1.784   0.665   3.062 -0.4989 -0.3997  0.9134
  833SOL     OW 2497   2.401   2.097   0.477 -0.2129 -0.0759  0.4909
  833SOL    HW1 2498   2.299   2.067   0.474 -0.9884 -1.5848 -1.7717
  833SOL    HW2 2499   2.465   2.018   0.470  0.6088 -0.9638 -2.7266
  834SOL     OW 2500   0.202   0.111   0.578 -0.4291 -0.0030  0.5277
  834SOL    HW1 2501   0.261   0.026   0.588  1.5100  1.2087 -1.1305
  834SOL    HW2 2502   0.186   0.130   0.479 -1.8299  1.7855 -0.3339
  835SOL     OW 2503   2.416   1.521   1.104  0.0164  0.6286 -0.8329
  835SOL    HW1 2504   2.498   1.559   1.152 -0.6297  1.1023 -0.7324
  835SOL    HW2 2505   2.449   1.478   1.010 -1.7292 -0.1776 -0.8137
  836SOL     OW 2506   1.598   0.818   2.599 -0.0337  0.0862  0.3641
  836SOL    HW1 2507   1.493   0.807   2.589 -1.0969  2.2362  1.0310
  836SOL    HW2 2508   1.649   0.835   2.505  0.5277 -0.5523 -2.3342
  837SOL     OW 2509   1.702   0.110   0.573 -0.1056  0.1039 -0.4503
  837SOL    HW1 2510   1.684   0.196   0.630 -0.0818  1.8382  2.9894
  837SOL    HW2 2511   1.647   0.110   0.482  0.2231  1.2717 -0.7947
  838SOL     OW 2512   1.214   1.392   2.703 -0.4796  0.2082  0.2637
  838SOL    HW1 2513   1.196   1.469   2.771  1.5422  1.3869  0.6728
  838SOL    HW2 2514   1.126   1.344   2.669 -1.1629  1.9392 -0.9741
  839SOL     OW 2515   1.572   0.353   0.972  0.0762 -0.3707 -0.0565
  839SOL    HW1 2516   1.514   0.418   1.030 -0.0570  3.8249 -0.2012
  839SOL    HW2 2517   1.563   0.254   0.998 -0.7190 -1.7284 -1.4454
  840SOL     OW 2518   2.580   2.951   1.707 -0.1198 -0.3863 -0.3037
  840SOL    HW1 2519   2.525   2.931   1.622  0.2969  2.9210 -0.2236
  840SOL    HW2 2520   2.561   2.887   1.787  2.7071 -1.0660 -0.1873
  841SOL     OW 2521   1.536   0.819   2.942  0.2318 -0.9358  0.0710
  841SOL    HW1 2522   1.454   0.869   2.971  0.6028 -1.3923  1.7137
  841SOL    HW2 2523   1.597   0.863   2.872  0.7868  3.4503 -1.4695
  842SOL     OW 2524   0.835   1.558   1.004  0.4568 -0.1856 -0.0992
  842SOL    HW1 2525   0.788   1.645   1.040  0.7572  0.9709  0.1744
  842SOL    HW2 2526   0.770   1.501   0.952  0.0828  2.2745  2.8142
  843SOL     OW 2527   0.126   0.143   1.445  0.6529  0.3840 -0.1283
  843SOL    HW1 2528   0.201   0.181   1.508 -1.0179  0.7115  1.1744
  843SOL    HW2 2529   0.143   0.043   1.421 -2.7117  2.9303 -0.2655
  844SOL     OW 2530   0.740   2.536   0.205 -0.7288  0.2378 -0.4333
  844SOL    HW1 2531   0.730   2.571   0.302 -3.1873  0.5488 -1.9417
  844SOL    HW2 2532   0.647   2.536   0.161  0.5912  0.6174 -0.6705
  845SOL     OW 2533   1.686   2.930   1.293  0.7334 -0.1677  0.2431
  845SOL    HW1 2534   1.677   3.019   1.349 -1.4617  0.9652  0.7736
  845SOL    HW2 2535   1.637   2.935   1.202 -0.9773 -0.0919  1.6185
  846SOL     OW 2536   1.711   2.977   0.890 -0.0896  0.4850 -0.2236
  846SOL    HW1 2537   1.742   3.011   0.796  0.5188  0.6885  0.1645
  846SOL    HW2 2538   1.785   2.914   0.934  0.4427 -2.6523 -1.9004
  847SOL     OW 2539   2.059   1.613   0.196  0.2891  0.0491 -0.6231
  847SOL    HW1 2540   2.018   1.570   0.286  1.0857 -2.6454  0.1441
  847SOL    HW2 2541   1.999   1.606   0.113 -0.2647  1.2644  2.3803
  848SOL     OW 2542   2.468   0.841   2.660  0.3630 -0.5651  0.1865
  848SOL    HW1 2543   2.457   0.943   2.691 -0.4744 -3.4104 -0.3784
  848SOL    HW2 2544   2.392   0.805   2.597  0.1969  0.5296 -1.2002
  849SOL     OW 2545   2.418   0.876   2.264 -0.0887 -1.1851 -1.0163
  849SOL    HW1 2546   2.469   0.815   2.202 -0.0046 -0.3564  2.0998
  849SOL    HW2 2547   2.382   0.822   2.348 -0.2952  0.3577  1.3413
  850SOL     OW 2548   1.560   0.143   1.250 -0.7618 -0.1521  0.3840
  850SOL    HW1 2549   1.530   0.102   1.159 -0.0055 -1.7041  0.7841
  850SOL    HW2 2550   1.524   0.104   1.338 -0.7202 -1.8792 -0.9608
  851SOL     OW 2551   0.486   1.776   0.683  0.4164  0.0070  0.1793
  851SOL    HW1 2552   0.472   1.873   0.711 -3.1348 -0.4663 -0.3993
  851SOL    HW2 2553   0.586   1.749   0.684  1.0523  0.7950 -1.3569
  852SOL     OW 2554   0.785   2.140   1.686  0.6013  0.4224  0.0118
  852SOL    HW1 2555   0.822   2.235   1.651 -1.4626 -2.5565 -2.3632
  852SOL    HW2 2556   0.717   2.144   1.764 -0.8998 -0.7848  1.2048
  853SOL     OW 2557   2.516   1.521   2.580 -0.0049 -0.3009  0.0068
  853SOL    HW1 2558   2.494   1.426   2.531 -1.1336 -2.0098  0.0275
  853SOL    HW2 2559   2.539   1.596   2.512  0.1395 -0.1245  2.2825
  854SOL     OW 2560   2.363   1.425   1.761  0.0826  0.7364 -0.2676
  854SOL    HW1 2561   2.428   1.407   1.679  2.8924  0.6113 -0.8263
  854SOL    HW2 2562   2.315   1.336   1.789 -2.0589  0.6395 -0.3309
  855SOL     OW 2563   2.053   2.306   0.969 -0.0294  0.0574  0.2481
  855SOL    HW1 2564   2.068   2.404   0.926  1.0528  3.1361  2.4427
  855SOL    HW2 2565   2.101   2.300   1.063  2.0016  1.4507 -1.3968
  856SOL     OW 2566   1.410   1.344   0.889 -0.0780 -0.4962  0.2291
  856SOL    HW1 2567   1.404   1.444   0.871 -0.9453  2.7907 -1.2339
  856SOL    HW2 2568   1.416   1.324   0.988  0.4797 -0.7475 -0.6321
  857SOL     OW 2569   2.956   2.584   1.049 -0.7540  0.2465 -0.3029
  857SOL    HW1 2570   2.869   2.525   1.057 -1.9886 -1.4241 -1.7897
  857SOL    HW2 2571   3.038   2.523   1.037  0.3509  3.5482 -3.3041
  858SOL     OW 2572   2.278   2.130   1.745 -0.2732 -0.3970  0.2091
  858SOL    HW1 2573   2.184   2.156   1.704 -1.2814 -2.3270 -4.7007
  858SOL    HW2 2574   2.345   2.121   1.668  0.7306  0.9326 -0.2509
  859SOL     OW 2575   2.430   0.495   1.013 -0.1989 -0.1892 -0.6825
  859SOL    HW1 2576   2.488   0.524   0.929  0.7335 -0.2109  1.0607
  859SOL    HW2 2577   2.476   0.443   1.087  3.1106 -1.0817  2.0119
  860SOL     OW 2578   1.961   2.762   0.498  0.3911  0.5738  0.5264
  860SOL    HW1 2579   1.946   2.690   0.422  1.3886 -0.7056  0.2491
  860SOL    HW2 2580   2.011   2.848   0.454 -0.9167  2.5196 -2.3456
  861SOL     OW 2581   1.079   2.571   2.763 -0.2533  0.0468  0.1865
  861SOL    HW1 2582   1.102   2.672   2.778 -0.6826  1.2316 -0.1258
  861SOL    HW2 2583   1.118   2.513   2.842  0.1412 -1.9243 -2.9394
  862SOL     OW 2584   2.949   2.553   1.545 -0.0499  0.5699  0.4142
  862SOL    HW1 2585   2.993   2.568   1.639 -1.3379 -3.4172 -1.5866
  862SOL    HW2 2586   2.876   2.623   1.520  1.0704  0.1508  0.2028
  863SOL     OW 2587   1.896   2.625   0.240 -0.5388 -0.2308  0.0981
  863SOL    HW1 2588   1.922   2.521   0.225 -2.6383  0.1115 -1.4634
  863SOL    HW2 2589   1.795   2.630   0.268 -1.1370  0.3093 -0.6224
  864SOL     OW 2590   1.878   1.165   2.939 -0.0212 -0.4681 -0.3084
  864SOL    HW1 2591   1.883   1.122   2.845 -1.5301 -2.6177 -3.1014
  864SOL    HW2 2592   1.963   1.146   2.997  1.3631  2.7812 -0.4890
  865SOL     OW 2593   2.130   1.739   0.687  0.0850  0.0235 -0.2914
  865SOL    HW1 2594   2.199   1.758   0.758 -0.1720  2.2198  0.1235
  865SOL    HW2 2595   2.043   1.709   0.730 -0.6494 -1.9401  0.4480
  866SOL     OW 2596   2.907   2.840   1.020  0.1940  0.0133 -0.1411
  866SOL    HW1 2597   2.973   2.882   0.957  1.3320 -2.4565 -0.6936
  866SOL    HW2 2598   2.938   2.745   1.057 -3.3251 -1.1389 -0.7925
  867SOL     OW 2599   0.433   1.304   0.857 -0.0122 -0.2937 -0.5500
  867SOL    HW1 2600   0.451   1.210   0.819 -0.0142 -0.9291  0.1261
  867SOL    HW2 2601   0.331   1.329   0.842 -1.0518 -1.3278  0.1023
  868SOL     OW 2602   0.845   1.928   1.976 -0.0758  0.5173 -0.0805
  868SOL    HW1 2603   0.827   1.887   2.071 -0.2224 -0.2289  4.6834
  868SOL    HW2 2604   0.803   2.021   1.970  0.7826  0.1758  0.9992
  869SOL     OW 2605   2.496   2.029   1.609  0.3793  0.2486 -0.3234
  869SOL    HW1 2606   2.586   2.073   1.586 -0.3181 -0.5461 -0.5795
  869SOL    HW2 2607   2.479   1.949   1.541  0.0077 -0.5291  0.2653
  870SOL     OW 2608   2.341   2.558   1.198  0.6650 -0.7656 -0.2143
  870SOL    HW1 2609   2.263   2.499   1.218 -0.8996  1.3481 -0.9812
  870SOL    HW2 2610   2.430   2.526   1.244  0.1090 -2.3667  0.1236
  871SOL     OW 2611   2.997   2.032   0.562  0.2553 -0.3785 -0.0039
  871SOL    HW1 2612   2.951   2.119   0.586 -0.5150 -1.8565 -1.9253
  871SOL    HW2 2613   2.976   2.011   0.459 -1.4494 -0.9794 -0.3125
  872SOL     OW 2614   2.165   0.502   1.699 -0.0241  0.2433 -0.3978
  872SOL    HW1 2615   2.149   0.513   1.799  0.5634 -1.0747  0.0929
  872SOL    HW2 2616   2.262   0.487   1.672  0.0216 -5.2238  0.7918
  873SOL     OW 2617   1.729   2.121   2.951  0.0045 -0.2053  0.1274
  873SOL    HW1 2618   1.715   2.224   2.976  0.5335 -0.7040  0.1929
  873SOL    HW2 2619   1.671   2.099   2.865 -0.6638 -0.0557  0.3680
  874SOL     OW 2620   0.701   2.486   0.771  0.0900  0.1976 -0.3519
  874SOL    HW1 2621   0.670   2.570   0.817 -0.0964 -0.4128  0.7918
  874SOL    HW2 2622   0.783   2.443   0.819 -0.1141  3.2052 -0.3954
  875SOL     OW 2623   2.323   1.514   1.488  0.7364 -0.2804  0.1742
  875SOL    HW1 2624   2.426   1.546   1.486 -0.0179 -2.5150  0.0620
  875SOL    HW2 2625   2.266   1.523   1.405  3.9127 -0.4193 -0.5611
  876SOL     OW 2626   0.142   2.209   2.691  0.0603  0.1479  0.6675
  876SOL    HW1 2627   0.155   2.118   2.743 -0.3413 -0.2337 -2.0525
  876SOL    HW2 2628   0.159   2.294   2.751  3.0921  1.5366  1.1622
  877SOL     OW 2629   2.773   2.684   0.612 -0.6020 -0.1739 -0.3004
  877SOL    HW1 2630   2.814   2.762   0.664 -0.2790 -2.6449 -1.4384
  877SOL    HW2 2631   2.836   2.599   0.620  2.2009 -1.5129  0.5818
  878SOL     OW 2632   2.847   1.522   2.201 -0.5567  0.6281  0.2710
  878SOL    HW1 2633   2.944   1.531   2.178 -2.3381  1.7143  1.1797
  878SOL    HW2 2634   2.832   1.481   2.292 -1.9391  3.9817  0.7950
  879SOL     OW 2635   2.376   0.008   1.208  0.2484 -0.1323  0.4696
  879SOL    HW1 2636   2.430  -0.081   1.191  0.5892 -1.8622  1.7403
  879SOL    HW2 2637   2.285   0.015   1.153 -0.7658  2.7319  1.4678
  880SOL     OW 2638   0.677   0.436   2.151 -0.6316 -0.3675  0.3152
  880SOL    HW1 2639   0.633   0.395   2.235  2.0999  1.3517 -1.5389
  880SOL    HW2 2640   0.761   0.383   2.114 -3.7134 -0.5435  3.3996
  881SOL     OW 2641   0.911   0.040   0.400 -0.0906  0.0801 -0.5895
  881SOL    HW1 2642   0.913  -0.048   0.454  0.2549 -1.8636 -1.3378
  881SOL    HW2 2643   0.860   0.025   0.311  0.0981 -0.7137  2.7217
  882SOL     OW 2644   2.750   1.638   1.675  0.2312 -0.0839 -0.3951
  882SOL    HW1 2645   2.847   1.606   1.674  2.6579 -0.4822  0.2440
  882SOL    HW2 2646   2.719   1.667   1.774 -1.6347  0.3270 -1.6362
  883SOL     OW 2647   0.956   0.583   0.941 -0.1620  0.1307 -0.1867
  883SOL    HW1 2648   0.979   0.677   0.982 -1.1016  3.3878 -0.5081
  883SOL    HW2 2649   1.023   0.508   0.951 -0.7829  0.2160 -2.0632
  884SOL     OW 2650   1.189   1.921   1.001  0.3717 -0.0064 -0.1921
  884SOL    HW1 2651   1.134   1.873   0.922 -0.7921 -0.9593  1.7354
  884SOL    HW2 2652   1.128   1.978   1.062  0.4664 -2.0603 -0.7789
  885SOL     OW 2653   2.247   1.833   2.313 -0.3702 -0.1552 -0.0072
  885SOL    HW1 2654   2.172   1.794   2.370 -0.3500  1.6343 -2.5140
  885SOL    HW2 2655   2.246   1.933   2.324  0.2557 -0.2751  1.9119
  886SOL     OW 2656   2.648   0.460   1.776 -0.2608 -0.0146 -0.1167
  886SOL    HW1 2657   2.684   0.408   1.856 -1.4808 -0.6877 -0.9513
  886SOL    HW2 2658   2.724   0.521   1.730 -3.0101 -0.2488 -1.7639
  887SOL     OW 2659   0.097   2.058   1.280  0.0857 -0.2733 -0.0348
  887SOL    HW1 2660   0.069   2.014   1.192 -0.6515  1.5878  0.8258
  887SOL    HW2 2661   0.107   2.162   1.270  0.4597  2.0936  1.6478
  888SOL     OW 2662   0.564   1.292   1.501  0.3241 -0.0645 -0.2933
  888SOL    HW1 2663   0.630   1.328   1.428  0.6241  1.3177 -0.3414
  888SOL    HW2 2664   0.554   1.188   1.502 -1.7685  2.6910  1.3690
  889SOL     OW 2665   0.837   2.535   2.133  0.0342  0.5426  0.6341
  889SOL    HW1 2666   0.751   2.481   2.121  0.8350  2.0944 -1.5673
  889SOL    HW2 2667   0.902   2.505   2.059  0.1333 -1.7488 -1.0748
  890SOL     OW 2668   2.340   2.456   0.181 -0.5990 -0.1433  0.0273
  890SOL    HW1 2669   2.393   2.532   0.140 -1.5924  0.1435 -1.4637
  890SOL    HW2 2670   2.241   2.480   0.208 -3.9873 -3.0147 -2.6676
  891SOL     OW 2671   2.621   1.500   0.656  0.2480  0.2985 -0.6489
  891SOL    HW1 2672   2.604   1.475   0.752  1.5776  0.7115 -2.0546
  891SOL    HW2 2673   2.532   1.523   0.615  0.8017 -0.8390  2.0644
  892SOL     OW 2674   0.254   0.306   2.231 -0.4948  0.1700 -0.0049
  892SOL    HW1 2675   0.251   0.292   2.129  0.7859  0.3623  0.9489
  892SOL    HW2 2676   0.336   0.358   2.271  0.8571  1.3633  0.6114
  893SOL     OW 2677   1.677   0.239   2.730 -0.3973 -0.1411 -0.1991
  893SOL    HW1 2678   1.751   0.310   2.719 -0.4072 -0.1628  1.0456
  893SOL    HW2 2679   1.587   0.287   2.742 -0.2820 -0.4513 -1.0225
  894SOL     OW 2680   2.193   1.997   0.027 -0.8833 -0.3321 -0.1582
  894SOL    HW1 2681   2.136   1.935  -0.032  0.9845  0.8549 -0.2662
  894SOL    HW2 2682   2.233   1.954   0.115  0.0515 -1.0829  2.9494
  895SOL     OW 2683   2.917   1.437   0.801  0.0954 -0.4369  0.1149
  895SOL    HW1 2684   2.936   1.410   0.900 -0.1313 -1.7608 -0.7555
  895SOL    HW2 2685   2.940   1.535   0.786  0.7368  0.0442  1.0234
  896SOL     OW 2686   1.739   1.779   1.167  0.4847 -0.3318  0.1802
  896SOL    HW1 2687   1.808   1.830   1.111  1.5220  0.6024  2.0295
  896SOL    HW2 2688   1.641   1.805   1.144  1.3246 -1.6943  0.8556
  897SOL     OW 2689   0.281   0.538   3.094  0.5157  0.2359 -0.0056
  897SOL    HW1 2690   0.209   0.601   3.056  3.4553 -0.8493 -0.6016
  897SOL    HW2 2691   0.373   0.585   3.090 -0.6742 -3.4077  4.0912
  898SOL     OW 2692   0.562   2.855   1.132 -0.5871  0.2910  0.5533
  898SOL    HW1 2693   0.497   2.934   1.155  0.4944  2.8220 -0.2907
  898SOL    HW2 2694   0.659   2.872   1.166  0.5793 -0.1145 -2.7773
  899SOL     OW 2695   2.668   0.930   1.231 -0.0554 -0.2374  0.5689
  899SOL    HW1 2696   2.581   0.915   1.182 -1.3398 -2.4690  4.3791
  899SOL    HW2 2697   2.743   0.958   1.164  0.3169 -0.4950  0.0707
  900SOL     OW 2698   1.014   2.435   2.354 -0.0066 -1.3011  0.0738
  900SOL    HW1 2699   0.947   2.497   2.300  0.4239 -1.9038 -0.2069
  900SOL    HW2 2700   1.007   2.442   2.456  0.0510 -2.3857 -4.3408
  901SOL     OW 2701   1.900   2.431   1.370  0.0882 -0.0114 -0.1341
  901SOL    HW1 2702   1.878   2.454   1.274  3.2887 -1.9791  3.1431
  901SOL    HW2 2703   1.998   2.404   1.381 -1.6392  1.0589 -0.9144
  902SOL     OW 2704   2.578   1.631   1.463 -0.0312  0.2944  0.3270
  902SOL    HW1 2705   2.631   1.639   1.556  0.3144 -0.2811  0.3462
  902SOL    HW2 2706   2.636   1.610   1.382  0.4950 -0.6943  0.1872
  903SOL     OW 2707   0.274   2.387   2.002  0.2604 -0.7234 -0.7595
  903SOL    HW1 2708   0.199   2.311   1.991 -1.7408 -0.5173  2.6278
  903SOL    HW2 2709   0.278   2.451   1.921 -1.2010  2.9646 -0.5448
  904SOL     OW 2710   1.971   0.825   2.531 -0.2589  0.6514  1.2250
  904SOL    HW1 2711   1.923   0.765   2.598  4.3805 -1.1095  1.3111
  904SOL    HW2 2712   1.955   0.787   2.432  0.5873  1.3052 -1.0076
  905SOL     OW 2713   2.753   0.011   2.609 -0.5455 -0.4001  0.3507
  905SOL    HW1 2714   2.841  -0.038   2.622  0.7444 -0.2387  3.0361
  905SOL    HW2 2715   2.762   0.111   2.576  0.4700 -0.5581  1.5349
  906SOL     OW 2716   0.163   1.770   1.875 -0.3981 -0.3531  0.6664
  906SOL    HW1 2717   0.086   1.780   1.804  0.4099 -0.2412  1.3609
  906SOL    HW2 2718   0.239   1.838   1.859 -2.0537  1.5685  0.8978
  907SOL     OW 2719   0.162   2.478   1.000  0.1910 -0.3342 -0.5967
  907SOL    HW1 2720   0.249   2.534   1.001  1.7785 -0.6717  1.1746
  907SOL    HW2 2721   0.115   2.475   0.905 -3.5315  0.3190 -0.5895
  908SOL     OW 2722   2.644   2.934   0.427 -0.5890 -0.1672  0.1548
  908SOL    HW1 2723   2.638   2.970   0.334  0.8950 -2.8063 -0.2889
  908SOL    HW2 2724   2.620   2.835   0.426 -0.1331 -0.7260  3.5639
  909SOL     OW 2725   0.822   0.901   2.660  0.1155 -0.2025 -0.3918
  909SOL    HW1 2726   0.782   0.806   2.641 -1.2709  1.1820  1.5893
  909SOL    HW2 2727   0.876   0.928   2.575 -2.1008 -2.2495  1.5702
  910SOL     OW 2728   1.754   1.799   2.023 -0.3638 -0.0239 -0.5661
  910SOL    HW1 2729   1.811   1.833   1.941  0.3669  0.4086 -0.0777
  910SOL    HW2 2730   1.681   1.868   2.047 -1.0868 -0.2575 -1.6871
  911SOL     OW 2731   1.757   3.027   1.616 -0.2051  0.4297 -0.1965
  911SOL    HW1 2732   1.850   3.017   1.566  1.8708 -0.8160  2.3287
  911SOL    HW2 2733   1.754   2.960   1.698  0.8038 -2.3871 -1.1397
  912SOL     OW 2734   2.836   0.952   0.767 -0.3675  0.3291 -0.4984
  912SOL    HW1 2735   2.881   0.938   0.859  0.9732  1.9990  0.0324
  912SOL    HW2 2736   2.777   1.037   0.766 -0.0081 -0.5400  0.6939
  913SOL     OW 2737   2.529   1.286   1.544 -0.0462 -0.1424  0.1661
  913SOL    HW1 2738   2.554   1.185   1.552 -2.5176  1.1825 -0.6851
  913SOL    HW2 2739   2.586   1.331   1.471  2.0234  1.3443 -1.0509
  914SOL     OW 2740   2.834   0.521   1.230  0.4520  0.1078 -0.1578
  914SOL    HW1 2741   2.783   0.433   1.261 -0.0291  1.4597 -0.4224
  914SOL    HW2 2742   2.800   0.602   1.289 -1.6540 -2.7280  2.7719
  915SOL     OW 2743   1.220   0.797   1.000  0.0444  0.0366 -0.1699
  915SOL    HW1 2744   1.283   0.760   1.073  0.6688 -1.3195  0.9809
  915SOL    HW2 2745   1.124   0.819   1.043  0.2827  2.4257 -0.0226
  916SOL     OW 2746   0.556   0.035   0.642  0.1187 -0.1413  0.0366
  916SOL    HW1 2747   0.573   0.088   0.730 -0.7926  2.2588 -0.8530
  916SOL    HW2 2748   0.559   0.102   0.561  1.7129  1.4341 -0.5358
  917SOL     OW 2749   2.746   2.625   1.950 -0.3192  0.2215 -0.4311
  917SOL    HW1 2750   2.654   2.678   1.947 -2.3711 -0.9097 -0.6408
  917SOL    HW2 2751   2.829   2.680   1.935 -0.4640 -2.4055  3.9294
  918SOL     OW 2752   0.973   2.173   3.031 -0.3155  0.3138 -0.1537
  918SOL    HW1 2753   0.915   2.194   3.120 -1.2739 -0.0149 -0.9725
  918SOL    HW2 2754   1.035   2.089   3.044 -0.6537 -0.2352 -1.6009
  919SOL     OW 2755   0.951   1.606   2.798  0.1052 -0.1143  0.5282
  919SOL    HW1 2756   0.977   1.675   2.729 -2.8263  0.6929  2.6654
  919SOL    HW2 2757   0.902   1.525   2.762  1.0563  0.4931  2.0217
  920SOL     OW 2758   1.253   2.064   2.499  0.5234  0.1988  0.0641
  920SOL    HW1 2759   1.179   2.093   2.426  1.0843  3.2363  1.4521
  920SOL    HW2 2760   1.269   1.959   2.497  1.7302 -0.9317  2.0264
  921SOL     OW 2761   1.075   0.078   2.566 -0.6285  1.3560  0.4224
  921SOL    HW1 2762   1.069   0.075   2.464  0.5759 -0.6151 -2.0424
  921SOL    HW2 2763   0.992   0.036   2.614  0.2388 -1.0958 -4.7484
  922SOL     OW 2764   2.208   2.369   2.775  0.0823  0.1563 -0.4698
  922SOL    HW1 2765   2.181   2.269   2.786  1.6105  1.0605  0.1206
  922SOL    HW2 2766   2.152   2.420   2.703  0.6990  2.2955  2.5755
  923SOL     OW 2767   1.243   2.666   0.300 -0.7526 -0.2769  0.0520
  923SOL    HW1 2768   1.331   2.706   0.343 -2.6192  0.6161  2.8556
  923SOL    HW2 2769   1.249   2.566   0.272 -0.9018 -1.7382 -0.2898
  924SOL     OW 2770   2.891   1.580   0.086 -0.1794  0.1354  0.1888
  924SOL    HW1 2771   2.803   1.571   0.031 -0.6659  3.1127  2.4956
  924SOL    HW2 2772   2.975   1.554   0.032 -3.5105  1.2442 -0.3399
  925SOL     OW 2773   0.027   2.834   1.630 -0.0096 -0.5033  1.2382
  925SOL    HW1 2774  -0.058   2.888   1.652 -2.1676  0.2229 -0.0624
  925SOL    HW2 2775   0.064   2.863   1.538 -0.0772 -1.6720  0.9545
  926SOL     OW 2776   1.367   2.918   1.317  0.1849  0.5407  0.1815
  926SOL    HW1 2777   1.416   2.907   1.226 -0.8941 -1.0012  1.2548
  926SOL    HW2 2778   1.398   3.007   1.357  1.4923 -0.7093 -1.5665
  927SOL     OW 2779   0.274   2.549   1.781  0.0640 -0.5490  0.4338
  927SOL    HW1 2780   0.250   2.508   1.689  1.3725 -0.2838  2.2907
  927SOL    HW2 2781   0.295   2.652   1.773 -1.6607  1.2679 -2.4513
  928SOL     OW 2782   1.566   1.991   2.145  0.6659 -0.6958  0.2806
  928SOL    HW1 2783   1.603   2.080   2.118  0.4508 -3.4883 -3.1940
  928SOL    HW2 2784   1.476   1.980   2.100  0.6922  0.4081 -1.0324
  929SOL     OW 2785   2.452   2.468   2.856  0.2903 -0.4605 -0.5505
  929SOL    HW1 2786   2.359   2.422   2.861  0.3280  0.8535  3.5880
  929SOL    HW2 2787   2.499   2.474   2.761 -0.7047 -0.0943  2.6847
  930SOL     OW 2788   2.202   1.985   1.075  0.4490 -0.3053  0.0177
  930SOL    HW1 2789   2.235   1.961   1.167 -2.2290 -0.1288  1.5932
  930SOL    HW2 2790   2.242   2.073   1.049 -1.8521 -0.0117 -1.2725
  931SOL     OW 2791   0.539   1.718   2.621  0.1679  0.3033 -0.1431
  931SOL    HW1 2792   0.603   1.729   2.704  2.4667 -2.2582 -2.1458
  931SOL    HW2 2793   0.533   1.625   2.576 -0.1196  0.2412  0.8478
  932SOL     OW 2794   0.474   0.104   2.930  0.2150  0.4776  0.1989
  932SOL    HW1 2795   0.568   0.149   2.905  2.4361 -0.3087  0.9044
  932SOL    HW2 2796   0.472   0.010   2.967 -2.8303  1.0484  1.4677
  933SOL     OW 2797   1.038   0.804   2.987  0.1577 -0.0413 -0.4375
  933SOL    HW1 2798   1.088   0.815   3.079 -1.6031  0.9672  1.0813
  933SOL    HW2 2799   1.008   0.900   2.954 -1.1931  0.2555  2.4844
  934SOL     OW 2800   0.867   3.044   2.726 -0.8471  0.1325 -0.2403
  934SOL    HW1 2801   0.878   2.969   2.653  0.0549  0.1099 -0.4003
  934SOL    HW2 2802   0.906   3.002   2.812  1.2067 -1.8871 -0.6416
  935SOL     OW 2803   3.085   0.508   0.802  0.0818 -0.6020 -0.3525
  935SOL    HW1 2804   3.118   0.440   0.731 -0.3121  0.1990 -0.8418
  935SOL    HW2 2805   2.985   0.524   0.784 -2.9380  3.3704 -0.5578
  936SOL     OW 2806   1.084   2.910   0.168 -0.2629  0.3291  0.0607
  936SOL    HW1 2807   1.105   2.943   0.074  0.1362 -1.1981  1.5562
  936SOL    HW2 2808   1.136   2.820   0.199  0.7200  0.4102  1.9389
  937SOL     OW 2809   1.922   2.606   2.089  0.6079 -0.3659  0.1971
  937SOL    HW1 2810   1.828   2.645   2.112 -1.4048  0.2780 -1.0598
  937SOL    HW2 2811   1.954   2.631   1.996 -0.0334  1.2872  0.7806
  938SOL     OW 2812   2.792   2.153   1.499  0.6275  0.2582 -0.2325
  938SOL    HW1 2813   2.740   2.236   1.529  0.2350 -2.9915 -0.7320
  938SOL    HW2 2814   2.851   2.114   1.572  0.6323 -0.6996 -1.6181
  939SOL     OW 2815   2.818   1.115   2.487 -0.2136 -0.7536  0.5978
  939SOL    HW1 2816   2.909   1.145   2.440  0.5952 -1.4665 -0.4916
  939SOL    HW2 2817   2.805   1.147   2.586 -1.9726  1.1657 -0.3744
  940SOL     OW 2818   1.050   0.468   2.638  0.2963  1.1640 -0.0336
  940SOL    HW1 2819   1.115   0.383   2.651 -0.3830 -3.3918 -1.4537
  940SOL    HW2 2820   0.950   0.436   2.652 -0.4771 -5.8365  1.7425
  941SOL     OW 2821   0.028   2.825   2.227  0.8264 -0.0607  0.3328
  941SOL    HW1 2822   0.031   2.720   2.204  0.6950 -0.5331  1.7526
  941SOL    HW2 2823   0.093   2.846   2.303 -3.0046  0.3839 -3.8792
  942SOL     OW 2824   0.052   0.076   2.523 -0.0595  0.1327 -0.1504
  942SOL    HW1 2825   0.113   0.067   2.610 -2.4250 -1.0785  2.4224
  942SOL    HW2 2826   0.050   0.172   2.488  1.2816  1.4135 -0.7749
  943SOL     OW 2827   2.094   1.634   2.426 -0.3886 -0.5903 -0.4542
  943SOL    HW1 2828   2.109   1.572   2.346  2.1867 -5.0719  2.3472
  943SOL    HW2 2829   2.099   1.582   2.515  0.7167 -3.3079  2.3095
  944SOL     OW 2830   2.177   2.386   1.479 -0.2523  0.5350 -0.1151
  944SOL    HW1 2831   2.258   2.409   1.546  2.5280 -0.1629  1.9298
  944SOL    HW2 2832   2.111   2.313   1.519  0.5235  2.6558  1.6300
  945SOL     OW 2833   0.613   1.402   0.360 -0.2163 -0.2218 -0.2968
  945SOL    HW1 2834   0.623   1.437   0.261 -3.2763  0.0122 -2.6549
  945SOL    HW2 2835   0.664   1.310   0.377 -0.1607 -0.5787  1.7630
  946SOL     OW 2836   0.415   0.954   2.513  0.4989  0.6698  0.7614
  946SOL    HW1 2837   0.351   0.909   2.444 -2.3691  2.1110  0.5823
  946SOL    HW2 2838   0.375   1.038   2.552  0.8878 -0.6824 -1.8660
  947SOL     OW 2839   1.475   0.545   0.095 -0.1916 -0.4848  0.2004
  947SOL    HW1 2840   1.430   0.589   0.011  0.3493 -0.6692 -0.0843
  947SOL    HW2 2841   1.410   0.515   0.166 -0.7169 -0.5960  0.9985
  948SOL     OW 2842   1.979   3.082   2.209 -0.4494 -0.0839  0.2580
  948SOL    HW1 2843   1.946   3.058   2.112 -0.6749  1.5840 -1.6802
  948SOL    HW2 2844   1.971   3.008   2.277  0.3975  0.0868  0.8429
  949SOL     OW 2845   0.626   2.527   0.493 -0.1476  0.1843  0.0325
  949SOL    HW1 2846   0.616   2.632   0.483  1.3541 -0.1872 -0.8162
  949SOL    HW2 2847   0.682   2.508   0.579  0.0223  1.5194 -1.3987
  950SOL     OW 2848   0.304   2.146   3.097  0.3324 -0.4457  0.1853
  950SOL    HW1 2849   0.239   2.211   3.052 -0.1541 -1.0637 -0.4371
  950SOL    HW2 2850   0.303   2.055   3.052 -1.1008 -0.4204 -1.4420
  951SOL     OW 2851   1.181   2.866   2.724  0.1906 -0.6296  0.0692
  951SOL    HW1 2852   1.178   2.844   2.622  1.2944 -0.9436  0.1300
  951SOL    HW2 2853   1.279   2.881   2.755  2.6533 -1.9046  2.3154
  952SOL     OW 2854   0.082   1.624   0.471  0.7617  0.4525  0.1530
  952SOL    HW1 2855   0.157   1.695   0.485 -0.2960 -2.3261  0.2451
  952SOL    HW2 2856   0.040   1.597   0.567  1.3676  1.4375  1.0001
  953SOL     OW 2857   2.568   1.754   0.180 -0.0614 -0.0875  0.5755
  953SOL    HW1 2858   2.551   1.655   0.208  3.3982  1.0008 -0.3063
  953SOL    HW2 2859   2.620   1.771   0.085 -0.5963  0.7247 -3.5921
  954SOL     OW 2860   2.179   0.586   0.989 -0.6104  0.5071 -0.2567
  954SOL    HW1 2861   2.159   0.616   0.894 -0.5610 -0.0439  1.5310
  954SOL    HW2 2862   2.277   0.543   0.996  2.4617 -1.6171 -1.9202
  955SOL     OW 2863   0.240   2.656   1.353  1.0696 -0.4495 -0.9179
  955SOL    HW1 2864   0.139   2.644   1.333 -0.1409 -1.4140 -1.0165
  955SOL    HW2 2865   0.292   2.633   1.265 -0.0287  0.8376  0.2739
  956SOL     OW 2866   2.768   2.466   2.473  0.2553  0.0778  0.0323
  956SOL    HW1 2867   2.760   2.366   2.441 -0.9065  0.5522 -0.1290
  956SOL    HW2 2868   2.801   2.523   2.400 -0.3119 -1.0838 -1.0098
  957SOL     OW 2869   1.569   2.052   2.701 -0.5022  0.3792 -0.5123
  957SOL    HW1 2870   1.521   1.966   2.731 -1.0513  0.4853 -2.8742
  957SOL    HW2 2871   1.548   2.071   2.602 -1.2301 -0.4708  3.2047
  958SOL     OW 2872   2.675   2.341   2.976 -0.3952  0.2533 -0.0894
  958SOL    HW1 2873   2.583   2.361   2.934  0.2500  1.6914 -3.9622
  958SOL    HW2 2874   2.678   2.254   3.035  2.9608 -0.7151 -0.2845
  959SOL     OW 2875   0.287   2.762   0.083 -0.0419 -0.0826 -0.5681
  959SOL    HW1 2876   0.189   2.732   0.084  0.5788  0.6730  0.9139
  959SOL    HW2 2877   0.361   2.690   0.106  0.5935  2.0939 -0.0524
  960SOL     OW 2878   1.988   0.475   1.929  0.0940  0.4212 -0.1666
  960SOL    HW1 2879   1.944   0.562   1.895  1.5955  0.0486  1.5375
  960SOL    HW2 2880   1.954   0.455   2.025 -0.5767 -2.3856  2.0659
  961SOL     OW 2881   2.573   1.850   1.050  0.1275 -0.0814 -0.0996
  961SOL    HW1 2882   2.532   1.909   0.972  1.3582 -2.3971 -1.1749
  961SOL    HW2 2883   2.553   1.876   1.150 -2.1284  1.9539 -0.2843
  962SOL     OW 2884   1.306   0.909   0.030 -0.3297 -0.0809 -0.2059
  962SOL    HW1 2885   1.299   0.945  -0.068  0.0413  4.1957  0.5510
  962SOL    HW2 2886   1.323   0.986   0.099 -0.7434 -0.5859 -0.7769
  963SOL     OW 2887   2.247   2.588   1.868  1.1126 -0.3902  0.6810
  963SOL    HW1 2888   2.257   2.527   1.950  2.4013  1.8248  0.7301
  963SOL    HW2 2889   2.277   2.684   1.893  0.1409  1.6404 -0.8736
  964SOL     OW 2890   2.422   0.376   1.660  0.6657 -0.1843 -0.0330
  964SOL    HW1 2891   2.505   0.416   1.704  2.3481 -1.1912 -2.9931
  964SOL    HW2 2892   2.439   0.383   1.557 -3.8390 -1.2873 -1.3274
  965SOL     OW 2893   2.580   3.054   0.188 -0.0452 -0.5176 -0.2047
  965SOL    HW1 2894   2.645   3.005   0.121  0.2365 -4.1939 -1.4085
  965SOL    HW2 2895   2.486   3.066   0.160  3.8051 -0.8185 -5.0138
  966SOL     OW 2896   2.503   2.512   2.258  0.5946  0.6987 -0.3157
  966SOL    HW1 2897   2.419   2.466   2.297 -0.2078  1.9087  0.0045
  966SOL    HW2 2898   2.501   2.612   2.268  0.0887 -2.2730 -1.1625
  967SOL     OW 2899   2.761   2.792   2.493 -1.0080 -0.0452  0.0220
  967SOL    HW1 2900   2.817   2.744   2.417 -1.8106 -0.3593 -2.1935
  967SOL    HW2 2901   2.799   2.882   2.517  0.2569  0.3539 -3.6300
  968SOL     OW 2902   1.948   1.066   2.683  0.7800 -0.1240  0.1948
  968SOL    HW1 2903   1.927   1.145   2.607  1.0083  2.4848 -1.0035
  968SOL    HW2 2904   1.937   0.972   2.639 -1.6384 -2.0675  1.1813
  969SOL     OW 2905   2.731   2.381   1.089  0.2368 -1.0102  0.7182
  969SOL    HW1 2906   2.647   2.366   1.027  0.2759 -0.5457 -0.7562
  969SOL    HW2 2907   2.767   2.290   1.122  0.2358 -1.9118 -1.4094
  970SOL     OW 2908   1.066   2.129   1.765  0.5426  0.5046  0.0775
  970SOL    HW1 2909   0.962   2.130   1.741 -0.7307  0.9552  1.0371
  970SOL    HW2 2910   1.090   2.169   1.860  1.2429  1.2271 -0.1262
  971SOL     OW 2911   2.808   2.101   1.910  0.2286 -0.6272  0.4241
  971SOL    HW1 2912   2.816   2.200   1.946  4.2616 -0.5210  0.4866
  971SOL    HW2 2913   2.878   2.075   1.836  1.2327 -0.9427  0.3819
  972SOL     OW 2914   2.070   2.393   0.236  0.3674  0.2048  0.2055
  972SOL    HW1 2915   2.050   2.311   0.180  0.3338  1.8800  0.9724
  972SOL    HW2 2916   2.066   2.377   0.337  2.4377 -0.7394 -0.8150
  973SOL     OW 2917   1.293   1.069   1.988 -1.0754  0.1513  0.5588
  973SOL    HW1 2918   1.209   1.044   1.933  3.1345 -1.1870 -1.8842
  973SOL    HW2 2919   1.282   1.164   2.030  1.8764 -2.2997 -2.6115
  974SOL     OW 2920   1.613   0.596   1.928  0.3607 -0.2316 -0.3195
  974SOL    HW1 2921   1.707   0.625   1.897  1.6905  1.0147 -1.4639
  974SOL    HW2 2922   1.554   0.671   1.964  1.3635 -1.0056  1.0054
  975SOL     OW 2923   2.367   3.044   0.028 -0.1048  0.4797  0.1016
  975SOL    HW1 2924   2.311   2.953   0.021 -2.7253  0.4338 -0.2256
  975SOL    HW2 2925   2.406   3.070  -0.063 -1.4050  1.1412  3.5310
  976SOL     OW 2926   1.944   2.840   2.346  0.3028 -0.0197 -0.3747
  976SOL    HW1 2927   1.868   2.790   2.298  0.5498  0.0329 -0.0468
  976SOL    HW2 2928   1.948   2.814   2.453  0.3550 -1.2264  3.0243
  977SOL     OW 2929   0.460   0.608   1.024  0.5992  0.2794  0.1794
  977SOL    HW1 2930   0.379   0.639   0.967  1.6347 -1.1545  4.0392
  977SOL    HW2 2931   0.536   0.570   0.967 -0.0543 -0.5185 -4.1693
   3.10000   3.10000   3.10000
