1000 SPC/Fw water molecules t=   1.60000 step= 1600
 2931
    1SOL     OW    1   2.453   0.381   2.653  0.1695  0.4586  0.2308
    1SOL    HW1    2   2.461   0.277   2.644 -5.1918  3.4868 -0.1242
    1SOL    HW2    3   2.527   0.423   2.710 -0.0069  0.8859  1.8005
    2SOL     OW    4   2.732   2.982   1.378 -0.3027 -0.0645 -0.1834
    2SOL    HW1    5   2.828   2.985   1.334  3.7915 -2.0869 -1.0220
    2SOL    HW2    6   2.708   3.069   1.431  4.0121  0.3906  0.7439
    3SOL     OW    7   2.684   2.512   0.370  0.4587 -0.7773  0.2805
    3SOL    HW1    8   2.603   2.446   0.373 -0.5869  0.4159 -0.6949
    3SOL    HW2    9   2.698   2.561   0.459 -2.0605 -0.9602 -0.6515
    4SOL     OW   10   1.281   1.562   2.442  0.5292  0.1764  0.4267
    4SOL    HW1   11   1.216   1.551   2.363  2.2993  1.5392 -0.9326
    4SOL    HW2   12   1.247   1.512   2.528 -1.3909  0.3611  1.9627
    5SOL     OW   13   1.141   1.533   3.004 -1.1483  0.4139  0.0849
    5SOL    HW1   14   1.194   1.612   3.048 -1.4732  0.9589 -0.5365
    5SOL    HW2   15   1.052   1.569   2.962  0.7938  2.9621  1.9520
    6SOL     OW   16   0.271   1.828   3.047 -0.1256  0.6203  0.8130
    6SOL    HW1   17   0.178   1.839   3.107 -0.1383  0.1551  0.9468
    6SOL    HW2   18   0.355   1.803   3.102 -2.7016 -0.1773  3.2861
    7SOL     OW   19   2.488   0.926   0.992  0.4196  0.5907  0.1613
    7SOL    HW1   20   2.401   0.879   1.023  0.0318  0.1624 -0.4833
    7SOL    HW2   21   2.519   0.899   0.896  0.8574 -0.8261 -1.4130
    8SOL     OW   22   0.362   0.672   1.559  0.1957  0.5823 -0.1781
    8SOL    HW1   23   0.444   0.607   1.559 -0.0908 -0.4459 -1.7058
    8SOL    HW2   24   0.362   0.731   1.473 -1.3843 -0.1252 -0.3592
    9SOL     OW   25   1.154   0.867   2.322 -0.1780 -0.1030  0.0888
    9SOL    HW1   26   1.241   0.901   2.279 -2.5328 -0.5481 -0.5993
    9SOL    HW2   27   1.139   0.766   2.302  2.0947  3.3918  0.4993
   10SOL     OW   28   0.729   1.417   1.240 -0.3974  0.1556  0.1415
   10SOL    HW1   29   0.637   1.388   1.207 -2.1408 -1.0044 -0.8299
   10SOL    HW2   30   0.722   1.499   1.304 -0.7713 -1.5982 -0.1494
   11SOL     OW   31   2.374   2.867   0.906  0.0682  0.3732  0.8958
   11SOL    HW1   32   2.310   2.825   0.982  2.9939 -0.2938  1.6090
   11SOL    HW2   33   2.459   2.912   0.947  2.3181  0.9625  0.3226
   12SOL     OW   34   1.498   0.916   0.415 -0.1585 -0.2364  0.6912
   12SOL    HW1   35   1.422   0.980   0.391  1.3454 -0.7827  0.3549
   12SOL    HW2   36   1.501   0.824   0.369 -1.1068  0.5816  1.4639
   13SOL     OW   37   2.458   0.733   1.792  0.6578  0.1097  0.1794
   13SOL    HW1   38   2.409   0.680   1.869  0.2940  3.4560 -1.8014
   13SOL    HW2   39   2.462   0.671   1.709 -0.5760  0.6446  1.2951
   14SOL     OW   40   1.958   3.090   0.600  0.5204 -0.1493  0.2289
   14SOL    HW1   41   1.864   3.139   0.587 -3.1519  2.3560  2.9256
   14SOL    HW2   42   1.970   3.065   0.700  0.9156  2.4567 -0.5464
   15SOL     OW   43   1.894   2.077   2.655  0.5667  0.0771  0.6150
   15SOL    HW1   44   1.836   2.060   2.741 -2.5329 -0.6446  0.2863
   15SOL    HW2   45   1.886   2.000   2.587  0.7246  0.6769 -1.3476
   16SOL     OW   46   1.630   1.729   3.029  0.0555 -0.3781  0.3030
   16SOL    HW1   47   1.635   1.630   3.067  0.7630 -1.3261 -0.3950
   16SOL    HW2   48   1.718   1.782   3.054  3.5861 -0.3447 -0.0381
   17SOL     OW   49   0.130   0.451   0.164 -0.1754  0.3337  0.3457
   17SOL    HW1   50   0.218   0.481   0.113 -1.3071  0.3933  1.1111
   17SOL    HW2   51   0.043   0.434   0.102 -0.2445  1.2784  0.3801
   18SOL     OW   52   0.894   2.933   2.140  0.6656 -0.2217 -0.4387
   18SOL    HW1   53   0.887   2.863   2.214 -0.5878 -0.7919 -1.0429
   18SOL    HW2   54   0.974   2.905   2.079  0.9527 -1.6162  3.5068
   19SOL     OW   55   0.617   0.879   1.930  0.3319  0.5939  0.0012
   19SOL    HW1   56   0.689   0.864   2.005 -0.4025  0.9080  0.9093
   19SOL    HW2   57   0.631   0.973   1.889 -1.1721  2.2988  0.2496
   20SOL     OW   58   0.190   2.844   0.843 -0.5220 -0.1214 -0.9744
   20SOL    HW1   59   0.096   2.865   0.806  0.8934  0.6879  4.2845
   20SOL    HW2   60   0.226   2.751   0.810  0.4861 -2.8482 -0.2618
   21SOL     OW   61   2.700   0.318   2.031 -0.2144  0.0371  0.7425
   21SOL    HW1   62   2.670   0.231   1.984  0.6268 -0.3284 -2.1122
   21SOL    HW2   63   2.795   0.315   2.073 -0.5722  0.0906 -0.7111
   22SOL     OW   64   2.345   0.206   0.125 -0.1489 -0.0789 -0.0975
   22SOL    HW1   65   2.353   0.133   0.058  2.3594  3.8514  0.9120
   22SOL    HW2   66   2.258   0.260   0.117  0.6519  0.3686  0.0879
   23SOL     OW   67   2.796   0.563   0.665 -0.2034 -0.2670  0.3377
   23SOL    HW1   68   2.804   0.488   0.596  2.5068  2.2272 -0.5203
   23SOL    HW2   69   2.799   0.659   0.626  1.0020 -0.5903 -1.3362
   24SOL     OW   70   0.285   1.849   0.422  0.9552  0.0908  0.5781
   24SOL    HW1   71   0.257   1.930   0.365  0.2275  1.4270  0.2839
   24SOL    HW2   72   0.389   1.824   0.412  1.2605 -0.0840  2.3907
   25SOL     OW   73   2.300   0.607   0.185 -0.0216 -0.1089 -0.3997
   25SOL    HW1   74   2.293   0.585   0.084  0.2125  0.5505  0.2256
   25SOL    HW2   75   2.352   0.540   0.245  1.5292  0.9662  0.6064
   26SOL     OW   76   2.438   2.139   2.103  0.2492 -0.2984 -0.1519
   26SOL    HW1   77   2.511   2.193   2.153  0.6118 -1.4721 -0.6553
   26SOL    HW2   78   2.477   2.079   2.026 -2.0629 -1.2098 -0.9295
   27SOL     OW   79   0.615   2.951   0.184 -0.3642  0.0447  0.0755
   27SOL    HW1   80   0.710   2.993   0.187  1.5036  1.8875 -0.4453
   27SOL    HW2   81   0.574   2.945   0.091  1.1753  3.6156  0.4131
   28SOL     OW   82   1.588   0.146   0.284 -0.5439 -0.1111  0.2574
   28SOL    HW1   83   1.642   0.101   0.202  1.2391 -2.4487  0.7435
   28SOL    HW2   84   1.626   0.236   0.317 -2.0042 -0.9838  1.8074
   29SOL     OW   85   2.011   0.615   0.289 -0.1497  0.0562  0.1689
   29SOL    HW1   86   1.984   0.675   0.368  0.3043  0.7579  0.6284
   29SOL    HW2   87   2.098   0.642   0.235  0.7355  0.7344 -0.5941
   30SOL     OW   88   0.185   2.095   0.938  0.5755  0.0383  0.1143
   30SOL    HW1   89   0.234   2.028   0.874  1.5060 -0.3576 -0.1052
   30SOL    HW2   90   0.081   2.093   0.921 -1.6357 -2.6993 -2.1063
   31SOL     OW   91   2.147   0.054   2.371 -0.3248 -0.1161  0.4843
   31SOL    HW1   92   2.103   0.016   2.460  0.9694 -0.2248  0.0270
   31SOL    HW2   93   2.096   0.024   2.286 -1.3345  2.2541  0.4934
   32SOL     OW   94   3.068   3.062   0.300  0.4897 -0.4653 -0.2590
   32SOL    HW1   95   3.032   2.966   0.315  4.2392 -0.1855 -2.3844
   32SOL    HW2   96   3.172   3.063   0.280  1.6082  0.1732 -0.1320
   33SOL     OW   97   0.911   0.191   0.626  0.4164  0.2351  0.5661
   33SOL    HW1   98   0.912   0.122   0.551 -0.0129 -0.6769  1.5088
   33SOL    HW2   99   0.990   0.263   0.613  1.2882  1.8149  0.6007
   34SOL     OW  100   0.338   2.695   1.023 -0.0188 -0.1461  0.0916
   34SOL    HW1  101   0.286   2.768   0.972  3.4467  0.0523  2.5648
   34SOL    HW2  102   0.426   2.728   1.062 -0.8211 -1.4077 -0.9746
   35SOL     OW  103   0.043   0.121   1.908  0.0557  0.1870  0.6793
   35SOL    HW1  104   0.092   0.035   1.927  1.8172  0.9498  1.2017
   35SOL    HW2  105   0.007   0.127   1.811 -2.3435  1.8621  2.0458
   36SOL     OW  106   1.923   1.165   1.513  0.4885 -0.8635  0.2719
   36SOL    HW1  107   2.006   1.110   1.548  2.0846  1.4941  0.9066
   36SOL    HW2  108   1.958   1.239   1.447 -1.4830  2.8625 -1.1058
   37SOL     OW  109   1.125   0.234   0.997 -0.2902  0.5620  0.0075
   37SOL    HW1  110   1.124   0.334   0.960  0.8877 -0.3107 -1.5553
   37SOL    HW2  111   1.188   0.168   0.947  1.1837  0.2642 -1.5614
   38SOL     OW  112   1.160   2.886   2.452  0.2689 -0.5625 -0.1353
   38SOL    HW1  113   1.070   2.845   2.472  2.9296  0.3232 -0.6990
   38SOL    HW2  114   1.158   2.982   2.405 -3.6469 -0.7881 -0.7725
   39SOL     OW  115   2.469   1.392   3.037  0.7055  0.0647 -0.4191
   39SOL    HW1  116   2.549   1.327   3.048 -1.1995 -0.4488 -1.9993
   39SOL    HW2  117   2.402   1.380   3.120  1.8126 -0.6917  2.3375
   40SOL     OW  118   2.005   2.539   2.577 -0.1788  0.2644 -0.3809
   40SOL    HW1  119   1.940   2.627   2.591 -0.5937  1.2874 -0.1055
   40SOL    HW2  120   1.959   2.454   2.534  0.8769 -0.1516 -0.9646
   41SOL     OW  121   3.037   0.765   2.810  0.1422  0.3179 -0.0048
   41SOL    HW1  122   2.988   0.824   2.878 -0.7478  0.5001  1.1167
   41SOL    HW2  123   2.962   0.709   2.764 -1.7519  0.5353  0.6932
   42SOL     OW  124   1.792   1.712   0.552 -0.1031 -0.2732 -0.4621
   42SOL    HW1  125   1.751   1.617   0.546  0.0295  1.2305  0.1114
   42SOL    HW2  126   1.836   1.733   0.460  0.8602  0.1187 -0.8119
   43SOL     OW  127   0.457   1.674   1.149  0.0205 -0.3267 -0.9360
   43SOL    HW1  128   0.463   1.572   1.129  1.2731  0.7208  2.8263
   43SOL    HW2  129   0.416   1.700   1.241 -0.8480 -1.5195  1.1981
   44SOL     OW  130   1.655   2.359   2.970  0.0759 -0.5313  0.0270
   44SOL    HW1  131   1.569   2.411   2.986  1.1640  0.8118 -0.8552
   44SOL    HW2  132   1.696   2.389   2.881 -1.1681  1.9834  3.1333
   45SOL     OW  133   0.350   1.894   2.563  0.3441 -0.2226 -0.1034
   45SOL    HW1  134   0.301   1.899   2.473  0.4983 -0.9579  4.4038
   45SOL    HW2  135   0.429   1.827   2.562 -2.0005 -0.8528 -2.7252
   46SOL     OW  136   1.219   0.760   0.279  0.3650  0.3011  0.0596
   46SOL    HW1  137   1.244   0.828   0.200  0.9469  1.2251  0.0342
   46SOL    HW2  138   1.197   0.662   0.242  1.2305 -2.7093 -1.7696
   47SOL     OW  139   0.147   2.422   1.571 -0.5221 -0.0612  0.2621
   47SOL    HW1  140   0.122   2.330   1.607  1.0948  1.6220  3.7039
   47SOL    HW2  141   0.190   2.423   1.482 -0.8756 -1.8520  1.6262
   48SOL     OW  142   2.657   0.674   0.137  0.1408  0.5169 -0.2127
   48SOL    HW1  143   2.631   0.661   0.235 -1.7938 -0.8793 -1.0944
   48SOL    HW2  144   2.754   0.688   0.124 -1.8162 -2.5027  0.0293
   49SOL     OW  145   0.372   0.836   1.790 -0.1735 -0.3742 -0.1214
   49SOL    HW1  146   0.458   0.832   1.852 -1.9372  0.5706  1.4191
   49SOL    HW2  147   0.367   0.760   1.717  0.1091 -0.2594 -1.3727
   50SOL     OW  148   1.752   1.125   0.299 -0.3281 -0.6725  0.2565
   50SOL    HW1  149   1.763   1.020   0.280  0.4195 -1.2966  1.5478
   50SOL    HW2  150   1.689   1.144   0.380  0.3603  1.3513 -0.3892
   51SOL     OW  151   3.013   1.774   0.323 -0.4190  0.2191  0.8264
   51SOL    HW1  152   2.936   1.710   0.292 -1.6935 -0.9882  1.9328
   51SOL    HW2  153   3.096   1.727   0.366 -0.4834 -1.2709 -0.9929
   52SOL     OW  154   0.766   2.156   0.577 -0.1386  0.2676 -0.9484
   52SOL    HW1  155   0.667   2.190   0.565  0.0227  2.5284 -0.3410
   52SOL    HW2  156   0.780   2.085   0.648 -0.2944  2.5070 -1.8631
   53SOL     OW  157   0.258   0.412   1.506  0.6832 -0.5100 -0.4738
   53SOL    HW1  158   0.320   0.491   1.483 -0.1188 -1.9009 -0.3382
   53SOL    HW2  159   0.200   0.379   1.425  1.2031  0.2856 -2.6979
   54SOL     OW  160   1.737   0.457   0.006  0.3785 -0.2839  0.3957
   54SOL    HW1  161   1.808   0.422   0.069 -0.6916 -1.1835 -1.9487
   54SOL    HW2  162   1.644   0.456   0.051 -0.2682 -0.7966 -2.1737
   55SOL     OW  163   0.719   2.905   0.606  0.3074  1.2027 -0.0550
   55SOL    HW1  164   0.658   2.990   0.600 -2.0333  0.4790 -0.0845
   55SOL    HW2  165   0.816   2.913   0.567 -0.1660 -1.4253 -0.2519
   56SOL     OW  166   0.571   1.550   3.049 -0.4155 -0.7153  0.4573
   56SOL    HW1  167   0.514   1.557   3.134  1.3159 -1.9112  0.1188
   56SOL    HW2  168   0.551   1.459   3.003  0.7587  1.8464  0.8975
   57SOL     OW  169   1.711   2.484   2.343 -0.6485 -0.3365 -0.2136
   57SOL    HW1  170   1.795   2.450   2.396  0.1550  1.1261 -1.2620
   57SOL    HW2  171   1.624   2.475   2.399 -2.3982 -1.0864  0.6562
   58SOL     OW  172   0.676   0.243   1.093 -0.0735 -0.1297 -0.3425
   58SOL    HW1  173   0.584   0.220   1.137  1.1310 -0.4247 -2.5800
   58SOL    HW2  174   0.736   0.160   1.078 -1.8355 -1.9065 -0.2751
   59SOL     OW  175   0.458   2.405   2.711 -0.6337 -0.3142 -0.3499
   59SOL    HW1  176   0.465   2.304   2.706 -0.4893 -2.9752  0.6199
   59SOL    HW2  177   0.554   2.453   2.703 -0.1454  0.2953 -0.6526
   60SOL     OW  178   2.306   2.045   2.356 -0.6120 -0.2386 -0.5784
   60SOL    HW1  179   2.359   2.066   2.272 -0.6147 -1.5387  1.2013
   60SOL    HW2  180   2.354   2.083   2.439  1.0625 -2.3622 -1.1263
   61SOL     OW  181   1.190   0.634   0.517 -0.1580  0.3475 -0.6216
   61SOL    HW1  182   1.093   0.635   0.550  0.6122  1.5052 -1.2352
   61SOL    HW2  183   1.203   0.692   0.434 -2.8123 -2.3237  3.6670
   62SOL     OW  184   2.759   1.723   2.715  0.4559  0.3901 -0.5502
   62SOL    HW1  185   2.686   1.653   2.684 -1.2912  1.9644 -0.3536
   62SOL    HW2  186   2.833   1.683   2.775 -0.3347 -3.6796  2.6131
   63SOL     OW  187   0.502   0.927   0.192  0.7866 -0.2829  0.0237
   63SOL    HW1  188   0.568   0.985   0.133 -0.7021  1.8093 -1.6114
   63SOL    HW2  189   0.510   0.949   0.294  0.2188  3.1408 -0.1020
   64SOL     OW  190   3.005   0.564   2.310 -0.2446 -0.0352  0.4690
   64SOL    HW1  191   2.941   0.610   2.380 -0.1983 -3.1422 -1.1712
   64SOL    HW2  192   3.039   0.622   2.232 -0.0844 -3.1098  0.7993
   65SOL     OW  193   0.235   1.440   0.742 -0.1861 -0.1100  0.0494
   65SOL    HW1  194   0.215   1.521   0.802  1.2056  1.1744  0.7741
   65SOL    HW2  195   0.269   1.475   0.646 -0.2746  1.2339 -0.1452
   66SOL     OW  196   2.585   0.331   0.552 -0.1243  0.2343 -0.0611
   66SOL    HW1  197   2.684   0.322   0.577 -1.7160  0.1344 -0.1337
   66SOL    HW2  198   2.520   0.280   0.621 -2.0840 -0.6443  2.1263
   67SOL     OW  199   0.621   2.525   1.458 -0.5234  0.3075  0.3264
   67SOL    HW1  200   0.694   2.495   1.524  0.5117 -0.0087  1.0424
   67SOL    HW2  201   0.544   2.453   1.452  0.4633  1.5826  0.7496
   68SOL     OW  202   0.913   0.994   2.436 -0.6956 -0.6693 -0.1181
   68SOL    HW1  203   0.978   0.947   2.365  1.3749  1.2470 -1.6936
   68SOL    HW2  204   0.857   1.061   2.381  2.8574  4.0148 -0.4317
   69SOL     OW  205   0.802   2.715   2.328 -0.0299 -0.8850  0.2116
   69SOL    HW1  206   0.836   2.628   2.287 -0.7101  0.1729  1.6414
   69SOL    HW2  207   0.700   2.715   2.345  1.9054 -3.2070  1.1093
   70SOL     OW  208   0.444   0.140   2.523  0.0647  0.1146  0.5265
   70SOL    HW1  209   0.367   0.076   2.559  0.1528  1.0475  1.5913
   70SOL    HW2  210   0.543   0.096   2.519  1.3958  0.4643  0.6590
   71SOL     OW  211   1.061   1.774   0.331  0.7564  0.4429  0.5436
   71SOL    HW1  212   0.996   1.757   0.407  0.3938 -0.8605 -2.2819
   71SOL    HW2  213   1.017   1.786   0.238 -1.7184 -1.8928 -1.2144
   72SOL     OW  214   1.855   0.242   2.157  0.2917 -0.0358  0.0333
   72SOL    HW1  215   1.917   0.324   2.173 -2.0253  1.2375 -1.5050
   72SOL    HW2  216   1.900   0.156   2.181  0.9373  3.4646  1.1951
   73SOL     OW  217   2.784   2.177   2.500 -0.0741 -0.0856  0.2777
   73SOL    HW1  218   2.726   2.093   2.477  0.8856  1.0458  0.7798
   73SOL    HW2  219   2.829   2.183   2.594 -0.5444  1.1810  0.0688
   74SOL     OW  220   2.702   2.885   2.147 -0.1597  0.1823  0.0818
   74SOL    HW1  221   2.611   2.889   2.204 -1.5679 -1.3748 -0.5536
   74SOL    HW2  222   2.780   2.950   2.173  0.4185  2.6904  0.4627
   75SOL     OW  223   0.964   0.816   1.131 -0.1032 -0.2916  0.4627
   75SOL    HW1  224   0.864   0.826   1.121  1.1994 -1.1454  1.1326
   75SOL    HW2  225   0.990   0.846   1.228  1.6055  0.3438 -1.3528
   76SOL     OW  226   1.858   1.273   2.568 -0.3938  0.1763  0.0118
   76SOL    HW1  227   1.756   1.269   2.588  2.4526  1.7009  0.5718
   76SOL    HW2  228   1.896   1.370   2.575 -0.4137 -1.7571  0.5805
   77SOL     OW  229   2.902   0.948   1.046  0.5833  0.7555  0.0915
   77SOL    HW1  230   2.871   0.849   1.041 -1.1135 -0.3960 -3.1092
   77SOL    HW2  231   2.982   0.967   1.107 -0.3830  0.9995  0.2383
   78SOL     OW  232   1.999   1.342   1.339  0.3612  0.8539  0.0000
   78SOL    HW1  233   2.093   1.358   1.299 -1.9372  2.1594 -2.5343
   78SOL    HW2  234   1.920   1.381   1.277 -0.7048 -1.9114  0.9925
   79SOL     OW  235   0.704   1.424   0.829  0.0106  0.1738 -0.3420
   79SOL    HW1  236   0.611   1.398   0.863  1.8897  3.9463 -2.5549
   79SOL    HW2  237   0.756   1.343   0.783  1.6191  0.1259  2.4053
   80SOL     OW  238   0.568   0.467   1.547  0.3861 -0.8089  0.5361
   80SOL    HW1  239   0.613   0.520   1.466 -0.6813 -0.5438  2.1064
   80SOL    HW2  240   0.614   0.372   1.554  0.0787  0.0965  0.3567
   81SOL     OW  241   1.062   1.249   2.559  0.5160  0.3190 -0.3688
   81SOL    HW1  242   1.027   1.162   2.518  0.0436  2.2234  1.9741
   81SOL    HW2  243   0.993   1.324   2.567  0.7633 -1.2887  0.3658
   82SOL     OW  244   0.920   2.881   1.522 -0.5623 -0.0267 -0.0217
   82SOL    HW1  245   0.971   2.803   1.471  2.6930  1.4624  0.3503
   82SOL    HW2  246   0.917   2.969   1.466  0.1418 -0.9791  0.1406
   83SOL     OW  247   2.599   2.340   0.890  0.6733 -0.6639 -0.0478
   83SOL    HW1  248   2.520   2.310   0.827  3.3681  0.0790  2.2004
   83SOL    HW2  249   2.607   2.442   0.897 -2.1299  1.3893 -0.1141
   84SOL     OW  250   0.766   0.030   2.284  0.2314  0.7332 -0.3807
   84SOL    HW1  251   0.709   0.007   2.371  0.2713  2.1103  1.2575
   84SOL    HW2  252   0.782  -0.052   2.224 -0.4054  1.6346  0.7175
   85SOL     OW  253   0.295   1.694   1.383  0.1298 -0.4529 -0.2041
   85SOL    HW1  254   0.251   1.776   1.428  0.0858 -0.3374  1.6399
   85SOL    HW2  255   0.338   1.638   1.455 -0.4039  1.9500 -1.6593
   86SOL     OW  256   0.395   1.037   1.510 -0.0430  0.1800 -0.5863
   86SOL    HW1  257   0.382   0.989   1.414 -0.3816 -1.0032 -1.3325
   86SOL    HW2  258   0.418   0.965   1.582  0.0953  2.2216 -0.1972
   87SOL     OW  259   1.608   0.645   0.305  0.4172 -0.0763 -0.3942
   87SOL    HW1  260   1.691   0.709   0.279  1.4875  2.7986  1.7953
   87SOL    HW2  261   1.568   0.599   0.217  0.1655 -1.5739 -4.0300
   88SOL     OW  262   1.602   1.372   0.267 -0.5200  0.0129 -0.0972
   88SOL    HW1  263   1.655   1.285   0.245  1.6871 -1.5712 -1.2762
   88SOL    HW2  264   1.499   1.357   0.253 -0.8627 -2.8999  0.8648
   89SOL     OW  265   0.024   0.377   0.606 -0.2767  1.0441  0.5431
   89SOL    HW1  266   0.079   0.288   0.610  1.2353 -1.2923 -1.3915
   89SOL    HW2  267  -0.066   0.362   0.552  0.1522  1.3190 -0.0158
   90SOL     OW  268   0.775   1.513   0.151 -0.3574 -0.4478  0.0988
   90SOL    HW1  269   0.861   1.453   0.146  1.7562 -0.7120 -0.5807
   90SOL    HW2  270   0.720   1.509   0.064  1.0769 -0.1798  0.6779
   91SOL     OW  271   1.231   1.487   1.768  0.4002 -0.1669  0.1013
   91SOL    HW1  272   1.232   1.566   1.835  1.2025  0.5735 -1.6100
   91SOL    HW2  273   1.154   1.420   1.769  4.0487 -2.4132 -1.0279
   92SOL     OW  274   0.001   0.991   1.215 -0.3791  0.1869 -0.0149
   92SOL    HW1  275   0.043   1.082   1.187  1.4303  0.0701  0.7476
   92SOL    HW2  276   0.031   0.975   1.314  0.7551  0.3106 -0.8060
   93SOL     OW  277   3.099   2.686   0.084  0.5437  0.4518 -0.0243
   93SOL    HW1  278   3.058   2.697  -0.013  2.2383  2.2108 -0.8417
   93SOL    HW2  279   3.138   2.587   0.105 -0.7447 -1.2389 -0.2816
   94SOL     OW  280   1.512   1.290   1.673  0.4606 -0.4492  0.0941
   94SOL    HW1  281   1.612   1.260   1.665 -1.3094 -1.1347 -1.5877
   94SOL    HW2  282   1.494   1.364   1.742 -0.2712  0.8926  0.3811
   95SOL     OW  283   1.339   2.475   2.912 -0.6015 -0.1591  0.0986
   95SOL    HW1  284   1.285   2.487   2.996  1.0987 -1.9963  1.3201
   95SOL    HW2  285   1.337   2.379   2.866 -1.4380  1.0535 -1.7269
   96SOL     OW  286   0.586   2.182   1.310  0.5710  0.4667  0.4032
   96SOL    HW1  287   0.517   2.147   1.243  1.6885  0.6920  1.2870
   96SOL    HW2  288   0.609   2.111   1.381 -2.0076 -0.6823  0.5225
   97SOL     OW  289   0.262   1.618   2.443 -0.4501 -0.2905 -0.2495
   97SOL    HW1  290   0.239   1.712   2.405 -1.4392 -3.0324  2.3277
   97SOL    HW2  291   0.219   1.610   2.535  1.4120 -0.6010 -1.1627
   98SOL     OW  292   2.176   1.671   1.214 -0.2739 -0.2066  0.1640
   98SOL    HW1  293   2.088   1.663   1.154 -2.9243  6.9229  0.1147
   98SOL    HW2  294   2.260   1.646   1.156  0.6576 -0.3543  1.6358
   99SOL     OW  295   2.630   2.081   1.244  0.6807 -0.6314 -0.0933
   99SOL    HW1  296   2.688   2.140   1.304  1.7043  1.0957  0.4125
   99SOL    HW2  297   2.599   1.993   1.290 -1.1414  0.2566 -1.8904
  100SOL     OW  298   2.322   0.363   2.112  0.5999  0.0581  0.3093
  100SOL    HW1  299   2.255   0.335   2.188 -0.3843 -0.0656  0.0781
  100SOL    HW2  300   2.410   0.414   2.147  1.2546 -0.9458  1.1116
  101SOL     OW  301   0.376   1.526   0.516 -0.8046 -0.2925 -0.0548
  101SOL    HW1  302   0.409   1.612   0.574  1.6543  4.6025 -3.2640
  101SOL    HW2  303   0.448   1.499   0.445  1.2988  1.1256 -1.4454
  102SOL     OW  304   2.243   1.072   0.820 -0.4595 -0.2698  0.1079
  102SOL    HW1  305   2.211   0.976   0.792  0.6771  1.2171  1.9737
  102SOL    HW2  306   2.341   1.085   0.806  0.0902  0.2986 -1.7519
  103SOL     OW  307   2.274   0.048   0.345  0.4739  0.7760  0.4238
  103SOL    HW1  308   2.331   0.101   0.275 -2.1058  0.8873 -1.2316
  103SOL    HW2  309   2.322   0.019   0.432  1.1753 -0.4941  1.6383
  104SOL     OW  310   3.081   1.793   2.210 -0.2882 -0.0046  0.5769
  104SOL    HW1  311   3.133   1.778   2.123  0.4589  0.1630  1.1903
  104SOL    HW2  312   2.981   1.801   2.178  2.0539  0.1797  0.3486
  105SOL     OW  313   1.395   2.113   0.761 -0.3729 -0.2865  0.0895
  105SOL    HW1  314   1.381   2.150   0.664 -2.0610  1.9342 -0.3743
  105SOL    HW2  315   1.373   2.014   0.774  2.3053  0.0516  1.6052
  106SOL     OW  316   2.148   0.404   1.414  0.4005  0.1696 -0.3336
  106SOL    HW1  317   2.091   0.321   1.431 -0.0391  0.3931  2.1994
  106SOL    HW2  318   2.148   0.468   1.493 -1.9857 -1.6099  1.2702
  107SOL     OW  319   1.944   2.898   1.186 -0.2625 -0.2701  0.6135
  107SOL    HW1  320   1.857   2.960   1.197 -0.8821  2.8881  1.3603
  107SOL    HW2  321   1.926   2.807   1.136 -0.4255  0.6134  1.4025
  108SOL     OW  322   0.824   2.818   1.192  0.1835 -0.3897 -0.0085
  108SOL    HW1  323   0.794   2.720   1.186  0.5054 -0.4455 -1.0298
  108SOL    HW2  324   0.922   2.825   1.223  0.0249 -0.1545 -0.3282
  109SOL     OW  325   2.133   0.216   0.717  0.1971 -0.4207  0.3515
  109SOL    HW1  326   2.078   0.146   0.666 -0.1410 -0.1228 -0.7353
  109SOL    HW2  327   2.103   0.229   0.817 -1.1741  2.1815 -0.0370
  110SOL     OW  328   0.501   2.761   2.782  0.2067 -0.1144 -0.6393
  110SOL    HW1  329   0.512   2.783   2.681  2.6492  0.9476  1.0719
  110SOL    HW2  330   0.596   2.729   2.823  3.7576  0.1858 -0.4999
  111SOL     OW  331   1.302   0.523   2.285  0.1790 -0.4062  0.2719
  111SOL    HW1  332   1.203   0.548   2.312 -1.1147  1.7631 -0.7241
  111SOL    HW2  333   1.339   0.445   2.346  0.3930  1.4019 -1.9144
  112SOL     OW  334   1.735   0.408   1.504  0.3925  0.2990  0.4680
  112SOL    HW1  335   1.695   0.452   1.420 -1.8475  1.0135  0.3385
  112SOL    HW2  336   1.671   0.397   1.591  1.6249  1.4032  0.3169
  113SOL     OW  337   2.372   1.742   1.789  0.0070 -0.3053 -0.2504
  113SOL    HW1  338   2.392   1.647   1.755  0.9704  0.7430  0.0880
  113SOL    HW2  339   2.363   1.738   1.893  1.5243 -1.2703 -1.5039
  114SOL     OW  340   0.321   0.435   1.154 -0.0630 -0.5861 -0.0462
  114SOL    HW1  341   0.380   0.519   1.146 -1.0221  3.4260  1.0100
  114SOL    HW2  342   0.258   0.421   1.068 -0.7345 -2.1012 -1.6211
  115SOL     OW  343   2.703   1.562   1.225  0.4891 -0.1766 -0.0232
  115SOL    HW1  344   2.703   1.467   1.268 -0.8827  1.4682  1.1964
  115SOL    HW2  345   2.793   1.584   1.171  1.3154  0.3962  2.4038
  116SOL     OW  346   1.920   0.931   0.761  0.3031 -0.5485  0.0502
  116SOL    HW1  347   1.832   0.881   0.733 -2.2338 -2.0585 -1.5437
  116SOL    HW2  348   1.908   1.036   0.764  1.3013  1.8070 -1.5284
  117SOL     OW  349   1.123   0.363   0.552  0.1605  0.0362 -0.3879
  117SOL    HW1  350   1.140   0.464   0.549 -2.6567 -2.9827  1.0282
  117SOL    HW2  351   1.136   0.311   0.457 -1.0587 -2.2448  1.9007
  118SOL     OW  352   1.128   1.217   1.064 -0.3404 -0.2034  0.3570
  118SOL    HW1  353   1.049   1.198   1.126  1.0491 -1.7710  0.5310
  118SOL    HW2  354   1.190   1.299   1.095  0.5728  3.2185  0.7308
  119SOL     OW  355   1.839   1.583   2.192 -0.1766 -0.1410  0.5255
  119SOL    HW1  356   1.805   1.641   2.114  1.9984 -1.5553  0.5837
  119SOL    HW2  357   1.943   1.566   2.180  2.2977  0.7905  0.8036
  120SOL     OW  358   2.930   2.818   0.256  0.6255  0.4013  0.1390
  120SOL    HW1  359   3.001   2.766   0.199 -1.2330  1.5325  1.1723
  120SOL    HW2  360   2.838   2.798   0.214 -0.5596  2.0377 -0.6396
  121SOL     OW  361   2.009   0.778   2.310 -0.2684  0.3549  0.3110
  121SOL    HW1  362   2.066   0.862   2.277 -0.5311  0.1847 -2.1210
  121SOL    HW2  363   2.036   0.691   2.262  2.9677  0.5967  2.3468
  122SOL     OW  364   2.639   2.488   1.326 -0.0217  0.3373  0.2186
  122SOL    HW1  365   2.690   2.475   1.238  0.8190  0.8741 -0.5750
  122SOL    HW2  366   2.652   2.403   1.391 -2.5340 -0.2201  3.0468
  123SOL     OW  367   1.678   0.135   1.736 -0.3610 -0.4302 -1.5051
  123SOL    HW1  368   1.678   0.082   1.644 -2.8302  0.1984 -0.5066
  123SOL    HW2  369   1.772   0.176   1.766 -0.3482  0.8950  1.0546
  124SOL     OW  370   3.069   0.389   1.116 -0.1566 -0.1459  0.1141
  124SOL    HW1  371   3.037   0.477   1.159  1.4821 -0.5567 -0.8055
  124SOL    HW2  372   3.078   0.402   1.013 -2.8534 -2.0312 -1.3867
  125SOL     OW  373   0.844   1.978   0.766 -0.2803  0.9937  0.2664
  125SOL    HW1  374   0.940   1.939   0.772  1.1068 -0.4632 -2.5608
  125SOL    HW2  375   0.803   2.014   0.854  0.9541 -2.3240 -2.3580
  126SOL     OW  376   1.896   2.317   2.490  0.0873  0.3414 -0.4749
  126SOL    HW1  377   1.939   2.268   2.405  0.6914  1.6829 -2.9549
  126SOL    HW2  378   1.862   2.258   2.567  2.8869 -1.0092 -0.2229
  127SOL     OW  379   0.892   0.980   0.201  0.0085 -0.4815 -0.2454
  127SOL    HW1  380   0.950   1.025   0.280  1.6176  0.4948  0.5889
  127SOL    HW2  381   0.906   0.878   0.200 -2.0426  0.2365 -1.7114
  128SOL     OW  382   0.957   0.241   1.435 -0.7101  0.1959 -0.2869
  128SOL    HW1  383   0.931   0.317   1.365  0.2066 -0.4348  1.2893
  128SOL    HW2  384   0.918   0.151   1.395  2.4804  3.2439 -2.1566
  129SOL     OW  385   1.876   0.730   1.838 -0.1342 -0.3248 -0.5569
  129SOL    HW1  386   1.878   0.707   1.736 -1.0027  1.1197  1.0571
  129SOL    HW2  387   1.904   0.828   1.863  0.7246  3.1593 -2.8860
  130SOL     OW  388   1.328   2.294   0.977  0.2554 -0.1231  0.2010
  130SOL    HW1  389   1.332   2.218   0.904  0.8893  0.6628 -1.6136
  130SOL    HW2  390   1.416   2.347   0.986 -1.1839 -1.4151  2.4763
  131SOL     OW  391   3.079   1.417   1.391 -0.1326  0.6569  0.0827
  131SOL    HW1  392   3.005   1.344   1.411 -1.5974  2.6811  1.2585
  131SOL    HW2  393   3.170   1.388   1.358 -0.3176  2.6788  0.2277
  132SOL     OW  394   2.046   2.388   0.552  0.3809  0.1970  0.5849
  132SOL    HW1  395   1.942   2.418   0.549 -0.5370 -1.7267  0.1430
  132SOL    HW2  396   2.063   2.319   0.624  1.0312  0.3771  1.1861
  133SOL     OW  397   1.718   2.482   2.745  0.4851  0.2340  0.3247
  133SOL    HW1  398   1.641   2.470   2.676  1.0276  2.1236  3.5573
  133SOL    HW2  399   1.710   2.573   2.791  1.0356  1.1153  0.3172
  134SOL     OW  400   2.684   2.384   1.589  0.0047 -0.2128 -0.0268
  134SOL    HW1  401   2.610   2.346   1.653 -1.5456  2.4247 -0.1265
  134SOL    HW2  402   2.719   2.481   1.617 -2.0068  1.4386  0.7624
  135SOL     OW  403   0.796   1.459   2.682  0.3048 -0.2162 -0.4573
  135SOL    HW1  404   0.750   1.367   2.693  2.0940 -0.4128  2.3597
  135SOL    HW2  405   0.786   1.495   2.581 -0.1531  0.6397 -1.4916
  136SOL     OW  406   1.179   2.013   0.397 -0.5981 -0.7236 -0.0491
  136SOL    HW1  407   1.111   2.085   0.423 -0.1901 -2.9372 -0.2482
  136SOL    HW2  408   1.145   1.917   0.406 -0.1341 -1.5879 -0.1682
  137SOL     OW  409   0.411   1.216   2.294  0.5718  0.3237  0.6220
  137SOL    HW1  410   0.318   1.198   2.339 -1.9297 -1.0833  0.9040
  137SOL    HW2  411   0.469   1.127   2.282  0.0320  0.1457 -1.0368
  138SOL     OW  412   2.416   1.530   0.263  0.3363 -0.2644 -0.2725
  138SOL    HW1  413   2.349   1.476   0.201 -2.0469  1.1656  0.2494
  138SOL    HW2  414   2.480   1.469   0.315  2.7783  0.4563 -0.3361
  139SOL     OW  415   1.886   2.656   1.566  0.2740  0.6399  0.6884
  139SOL    HW1  416   1.792   2.694   1.571  2.4636  1.6936  2.3517
  139SOL    HW2  417   1.905   2.584   1.488 -3.2765 -0.0707 -1.1168
  140SOL     OW  418   2.956   2.951   2.577 -0.5161 -0.0916 -0.3317
  140SOL    HW1  419   3.013   2.866   2.577  0.6076  1.0407  1.4828
  140SOL    HW2  420   3.004   3.037   2.548 -1.1425  1.9504 -2.0444
  141SOL     OW  421   1.304   1.649   1.535 -0.1510  1.1065 -0.7120
  141SOL    HW1  422   1.221   1.708   1.544  0.6854 -0.0424  1.8905
  141SOL    HW2  423   1.302   1.569   1.601 -1.0217 -0.2492 -1.3129
  142SOL     OW  424   1.524   0.664   2.239  0.6812  0.5405  0.2431
  142SOL    HW1  425   1.502   0.742   2.169  2.5725  0.1696 -0.5162
  142SOL    HW2  426   1.438   0.608   2.269  0.1261  1.5234  3.1393
  143SOL     OW  427   2.756   0.822   0.563  0.1066 -0.0351  0.2411
  143SOL    HW1  428   2.808   0.871   0.479 -1.6971  1.3375 -1.5365
  143SOL    HW2  429   2.786   0.860   0.657  2.7815  5.1223 -0.5988
  144SOL     OW  430   2.903   1.201   1.460 -0.4484 -0.7570  0.0403
  144SOL    HW1  431   2.886   1.188   1.560  0.0604 -2.8315 -0.7902
  144SOL    HW2  432   2.947   1.113   1.425 -0.3043 -2.2356  0.1900
  145SOL     OW  433   0.870   1.824   0.103  0.0301 -0.4100 -0.4170
  145SOL    HW1  434   0.841   1.857   0.008 -0.5381 -2.5528  0.8307
  145SOL    HW2  435   0.831   1.729   0.124  0.3811 -1.0522  0.0582
  146SOL     OW  436   2.473   0.653   1.531 -0.2824  0.1842 -0.1636
  146SOL    HW1  437   2.498   0.573   1.465 -1.1559 -0.6555 -0.7631
  146SOL    HW2  438   2.411   0.724   1.486  1.5968  0.5980  1.2219
  147SOL     OW  439   1.098   2.505   0.574 -0.6656 -0.0433 -0.4478
  147SOL    HW1  440   1.050   2.573   0.511  0.1190  0.6569 -0.1808
  147SOL    HW2  441   1.172   2.453   0.523 -1.4401 -1.8183 -1.4902
  148SOL     OW  442   1.580   1.468   0.011 -0.1174 -0.1552  0.2321
  148SOL    HW1  443   1.591   1.364  -0.013 -1.6307  0.9029 -1.9755
  148SOL    HW2  444   1.561   1.486   0.113 -0.4231  2.0407  0.3138
  149SOL     OW  445   0.657   1.488   1.979 -0.3783  0.1254 -0.0166
  149SOL    HW1  446   0.569   1.446   2.014  1.6782  0.0680  2.2885
  149SOL    HW2  447   0.681   1.445   1.886  1.0035  0.1769  3.2362
  150SOL     OW  448   3.065   1.215   0.944 -0.3909 -0.3085 -0.8430
  150SOL    HW1  449   3.151   1.231   1.008 -0.8834 -1.9260 -0.0945
  150SOL    HW2  450   2.998   1.158   0.993  1.0252  1.0160 -2.7000
  151SOL     OW  451   0.179   0.895   2.068 -0.6320  0.9148  0.4125
  151SOL    HW1  452   0.206   0.974   2.002 -1.0466  0.7431  1.7108
  151SOL    HW2  453   0.253   0.821   2.059  1.7348  0.4000  1.1376
  152SOL     OW  454   1.489   1.849   1.089 -0.0425  0.3045  0.2211
  152SOL    HW1  455   1.527   1.947   1.105  1.4339  1.4156 -1.5639
  152SOL    HW2  456   1.379   1.847   1.077 -2.1651 -1.3442  0.2968
  153SOL     OW  457   0.151   1.502   0.230  0.4805 -0.0668 -0.0033
  153SOL    HW1  458   0.127   1.400   0.215  3.3239 -1.0655 -1.3712
  153SOL    HW2  459   0.111   1.537   0.316 -1.1294 -4.7545  0.1562
  154SOL     OW  460   2.328   1.776   2.749  0.0671  0.1678  0.3496
  154SOL    HW1  461   2.359   1.680   2.786  0.1771  1.7348 -0.1062
  154SOL    HW2  462   2.409   1.830   2.711  0.7848 -0.1856  0.1167
  155SOL     OW  463   2.407   1.294   0.420  0.6077  0.3571  0.4746
  155SOL    HW1  464   2.498   1.251   0.396  0.1571  1.1520 -0.3029
  155SOL    HW2  465   2.333   1.223   0.428 -1.8720  1.2979 -4.4449
  156SOL     OW  466   2.473   0.827   0.715  0.1547  0.4824  0.5135
  156SOL    HW1  467   2.375   0.800   0.695 -1.8448  1.8903  1.9657
  156SOL    HW2  468   2.516   0.885   0.637  2.3718 -1.6883  2.8913
  157SOL     OW  469   1.246   3.048   3.076  0.3318  0.5829  0.3602
  157SOL    HW1  470   1.301   2.985   3.011  0.2153  1.0929 -0.3619
  157SOL    HW2  471   1.274   3.146   3.092  0.7978  1.2493  1.2956
  158SOL     OW  472   1.092   1.920   1.815  0.1631 -0.1532 -0.4271
  158SOL    HW1  473   1.091   2.018   1.778  2.2901  0.2965 -1.4936
  158SOL    HW2  474   1.024   1.907   1.888  2.7423 -0.0136 -0.1814
  159SOL     OW  475   0.796   0.410   1.284 -0.2949 -0.4702  0.4573
  159SOL    HW1  476   0.741   0.498   1.304  0.6687 -2.7770  2.4122
  159SOL    HW2  477   0.749   0.347   1.220  1.6542  1.2339 -2.0518
  160SOL     OW  478   1.411   2.459   1.444  0.1134  0.7700 -0.2261
  160SOL    HW1  479   1.379   2.374   1.498  1.0146 -0.8197 -1.1611
  160SOL    HW2  480   1.484   2.425   1.378  0.5050  1.9092 -0.6007
  161SOL     OW  481   3.080   2.638   0.447  0.6927 -0.5730  0.3120
  161SOL    HW1  482   3.037   2.544   0.430  1.2569  0.2249  0.2674
  161SOL    HW2  483   3.012   2.722   0.432  2.9460 -0.8508 -1.1935
  162SOL     OW  484   2.536   1.891   0.470  0.0066 -0.0834  0.8860
  162SOL    HW1  485   2.590   1.907   0.382  1.3323  4.8209 -0.2913
  162SOL    HW2  486   2.477   1.807   0.482 -3.3299 -0.6761  0.4396
  163SOL     OW  487   1.963   2.737   0.754  0.1554  0.8389  0.4116
  163SOL    HW1  488   1.979   2.757   0.650 -1.1953  0.7248 -1.8501
  163SOL    HW2  489   1.995   2.641   0.787  1.0848 -0.5682 -0.7614
  164SOL     OW  490   3.083   0.145   1.212 -0.3279 -0.3800  0.0071
  164SOL    HW1  491   3.105   0.243   1.172 -1.8759  0.3379 -1.8230
  164SOL    HW2  492   3.137   0.115   1.299  0.4759 -4.5340  0.6927
  165SOL     OW  493   1.114   1.452   0.648  0.3888  0.0655 -0.1989
  165SOL    HW1  494   1.115   1.516   0.733  0.9393  2.3042 -0.5703
  165SOL    HW2  495   1.041   1.485   0.582  0.3283 -3.3437 -1.3563
  166SOL     OW  496   1.516   0.991   1.801 -0.0342 -0.3713 -0.1023
  166SOL    HW1  497   1.420   1.028   1.820  0.1475  0.2771  1.2983
  166SOL    HW2  498   1.591   1.067   1.804 -0.5058  0.7804  1.4085
  167SOL     OW  499   0.666   1.997   1.524 -0.3067  0.2374  0.0964
  167SOL    HW1  500   0.718   2.064   1.580  0.0881 -0.6281 -2.3676
  167SOL    HW2  501   0.611   1.934   1.588  1.4542  1.5366  1.3713
  168SOL     OW  502   1.602   2.313   0.142  0.2930 -0.9309 -0.3939
  168SOL    HW1  503   1.654   2.321   0.053 -1.9209 -0.8710 -0.4631
  168SOL    HW2  504   1.664   2.284   0.222  0.1967  3.1668  1.1668
  169SOL     OW  505   0.014   2.566   2.212 -0.2523  0.3004  0.1033
  169SOL    HW1  506  -0.002   2.510   2.123 -0.7148  0.3068 -1.7644
  169SOL    HW2  507   0.087   2.534   2.278  0.1259 -2.1208 -2.0216
  170SOL     OW  508   1.150   0.149   2.052 -0.2896 -0.0502  0.0709
  170SOL    HW1  509   1.232   0.198   2.099  1.4741  0.1135  0.1612
  170SOL    HW2  510   1.165   0.145   1.949 -0.8807 -0.3529  2.1258
  171SOL     OW  511   0.195   0.855   2.422 -0.2636  0.3133  0.1512
  171SOL    HW1  512   0.108   0.830   2.479 -0.5015 -0.1470 -0.2271
  171SOL    HW2  513   0.166   0.864   2.325  0.2351  2.1727  0.7591
  172SOL     OW  514   0.993   1.036   2.867  0.4820 -0.5218 -0.6002
  172SOL    HW1  515   0.948   1.094   2.941  0.2040 -0.3127  1.6265
  172SOL    HW2  516   0.934   1.002   2.791 -0.6216 -0.8438 -1.8694
  173SOL     OW  517   0.418   2.570   0.053 -0.6166  0.0794 -0.5630
  173SOL    HW1  518   0.468   2.540  -0.034  0.2675  1.0329  2.7982
  173SOL    HW2  519   0.346   2.507   0.095  3.3744  1.7725  0.2153
  174SOL     OW  520   1.489   2.880   1.055 -0.3641 -0.4018 -0.2998
  174SOL    HW1  521   1.559   2.954   1.024  0.6112  0.3493 -2.4655
  174SOL    HW2  522   1.468   2.813   0.981 -2.4549  1.2634  0.5556
  175SOL     OW  523   0.428   3.063   1.719  0.8574  0.0999 -0.1224
  175SOL    HW1  524   0.494   3.061   1.794  0.0457  1.5503 -1.1512
  175SOL    HW2  525   0.413   3.155   1.680  0.7663 -0.2839  1.7959
  176SOL     OW  526   2.666   0.400   3.087 -0.0370  0.2523 -0.4386
  176SOL    HW1  527   2.671   0.481   3.151  0.2706 -1.1973 -0.1867
  176SOL    HW2  528   2.630   0.315   3.132  0.3106  1.8328  1.2045
  177SOL     OW  529   0.371   0.286   0.901  0.2626 -0.0247 -0.3709
  177SOL    HW1  530   0.334   0.195   0.874  2.6341  1.7486 -1.2659
  177SOL    HW2  531   0.470   0.290   0.909 -0.6658 -1.3264 -0.6009
  178SOL     OW  532   0.049   2.735   2.607 -0.1615 -0.4426  0.6427
  178SOL    HW1  533  -0.002   2.645   2.606 -0.9296 -1.0842  2.3497
  178SOL    HW2  534   0.112   2.737   2.693 -0.2850 -3.1688  0.1988
  179SOL     OW  535   2.966   1.572   1.174  0.7197  0.3303  0.4257
  179SOL    HW1  536   3.037   1.584   1.104 -2.6434 -1.2543  1.7047
  179SOL    HW2  537   3.003   1.524   1.262  4.8932  0.6041 -0.7241
  180SOL     OW  538   0.237   1.375   1.766  0.0671 -0.2227  0.4962
  180SOL    HW1  539   0.330   1.334   1.805  2.0814 -0.7392  1.9072
  180SOL    HW2  540   0.178   1.412   1.844  1.1471 -0.0981 -0.5492
  181SOL     OW  541   2.973   1.841   2.514  0.3266 -0.6684 -0.2428
  181SOL    HW1  542   3.007   1.903   2.443 -0.5994 -3.5195  1.5393
  181SOL    HW2  543   2.870   1.838   2.509  0.5001  1.8762 -2.3839
  182SOL     OW  544   2.263   1.369   1.187 -0.0954 -0.2025 -0.4084
  182SOL    HW1  545   2.233   1.287   1.130 -1.1841 -1.8928  1.4341
  182SOL    HW2  546   2.300   1.453   1.130 -3.0013  3.7492  0.0864
  183SOL     OW  547   1.428   2.260   2.420 -0.3278 -0.5128 -0.0262
  183SOL    HW1  548   1.348   2.221   2.471  0.3013 -0.1372  1.3649
  183SOL    HW2  549   1.503   2.190   2.405  0.2518  1.0421  3.1611
  184SOL     OW  550   2.169   0.816   0.770 -0.1931 -0.8092 -0.0537
  184SOL    HW1  551   2.072   0.845   0.779  0.9208 -1.6015 -0.0271
  184SOL    HW2  552   2.180   0.718   0.760  1.5611  1.3413 -1.5931
  185SOL     OW  553   1.571   2.792   1.990  0.2147  0.0999 -0.0349
  185SOL    HW1  554   1.491   2.858   1.985  1.2788  0.7560 -0.0247
  185SOL    HW2  555   1.614   2.789   2.082 -1.4567  0.4172 -0.7456
  186SOL     OW  556   0.105   2.219   1.740 -0.3306  0.1723  0.2145
  186SOL    HW1  557   0.066   2.261   1.824 -0.4898 -1.6771 -0.1391
  186SOL    HW2  558   0.181   2.158   1.773 -0.4947 -1.5391  2.6433
  187SOL     OW  559   1.349   0.674   1.665 -0.4972  0.7464  0.0248
  187SOL    HW1  560   1.437   0.707   1.624  1.2487 -1.2541  2.0776
  187SOL    HW2  561   1.348   0.583   1.724 -2.1954 -2.2654  1.0299
  188SOL     OW  562   2.712   2.687   1.519 -0.2143 -0.4145  0.9126
  188SOL    HW1  563   2.715   2.791   1.513  2.6981 -0.9002  0.8360
  188SOL    HW2  564   2.661   2.639   1.437  0.0820  0.3828 -2.2997
  189SOL     OW  565   0.943   1.228   1.344  0.4507 -0.4338 -0.1934
  189SOL    HW1  566   0.972   1.272   1.436 -2.3471 -1.2446  1.0812
  189SOL    HW2  567   0.896   1.301   1.285 -0.8759  0.4834  0.9817
  190SOL     OW  568   1.457   1.867   1.513  0.2213  0.0070 -0.6119
  190SOL    HW1  569   1.412   1.772   1.497  2.8710 -2.2171  0.0588
  190SOL    HW2  570   1.466   1.891   1.614 -2.5888 -2.6695  0.5511
  191SOL     OW  571   0.860   0.767   1.510 -0.2669  0.0394  0.1708
  191SOL    HW1  572   0.908   0.674   1.536  0.0174 -0.2813 -1.0936
  191SOL    HW2  573   0.935   0.829   1.471 -1.2469 -2.5435  0.6045
  192SOL     OW  574   1.851   2.440   1.130  0.0448  0.4078  0.0192
  192SOL    HW1  575   1.750   2.408   1.135 -1.1149 -3.5352 -3.0851
  192SOL    HW2  576   1.913   2.371   1.081 -3.2307  0.2530 -0.9127
  193SOL     OW  577   0.576   0.583   0.460 -0.3886 -0.2204 -0.3826
  193SOL    HW1  578   0.498   0.515   0.462  1.2805  2.6048  1.5475
  193SOL    HW2  579   0.612   0.605   0.361  1.8728 -0.5573 -0.6972
  194SOL     OW  580   0.365   0.849   1.317 -0.4750 -1.1128  0.1349
  194SOL    HW1  581   0.291   0.823   1.248  1.7457  3.5002  0.6790
  194SOL    HW2  582   0.445   0.889   1.261  2.2663 -0.2229  0.9255
  195SOL     OW  583   1.023   2.939   0.535  0.5128 -0.2055 -0.5844
  195SOL    HW1  584   1.021   2.848   0.483 -0.5931  0.2663 -0.6717
  195SOL    HW2  585   1.108   3.000   0.518 -0.8726  2.3895 -2.9790
  196SOL     OW  586   0.264   1.390   1.305 -0.4774  0.6176 -0.5032
  196SOL    HW1  587   0.268   1.491   1.329 -0.8634 -0.3190  1.2248
  196SOL    HW2  588   0.273   1.328   1.389 -2.1065  2.0185 -1.1827
  197SOL     OW  589   0.847   2.009   0.326 -0.2088  0.0514 -0.2243
  197SOL    HW1  590   0.850   1.965   0.421 -0.1772 -1.3763  1.4771
  197SOL    HW2  591   0.861   1.944   0.245  2.0933  1.3819  0.7105
  198SOL     OW  592   0.290   1.234   0.345  0.0453 -0.2049  0.2459
  198SOL    HW1  593   0.194   1.210   0.299 -0.9817 -1.3295 -1.5277
  198SOL    HW2  594   0.296   1.323   0.402  0.3791  0.3855  2.3671
  199SOL     OW  595   2.189   0.478   2.597  0.5198 -0.5599  0.0982
  199SOL    HW1  596   2.126   0.467   2.677  2.6737  0.5573  1.8894
  199SOL    HW2  597   2.285   0.435   2.607  3.6500 -0.6551  0.5388
  200SOL     OW  598   3.034   2.921   0.787  0.0903 -0.2467  0.3337
  200SOL    HW1  599   3.044   3.012   0.831  0.0084 -1.0324  3.4156
  200SOL    HW2  600   2.972   2.925   0.703  0.1374  2.0071 -0.7317
  201SOL     OW  601   0.898   0.681   0.514 -0.3624  0.1744  0.0693
  201SOL    HW1  602   0.881   0.774   0.565  2.6096  1.1932 -0.6045
  201SOL    HW2  603   0.848   0.598   0.553  2.0031  2.3044 -0.2396
  202SOL     OW  604   0.457   1.230   1.847 -0.1722  0.1298 -0.5733
  202SOL    HW1  605   0.543   1.176   1.826  1.3341 -0.4638  1.1582
  202SOL    HW2  606   0.466   1.284   1.930  0.1173 -1.0031 -0.9280
  203SOL     OW  607   0.688   0.199   1.595 -0.4476 -0.0679  0.0763
  203SOL    HW1  608   0.702   0.132   1.520  1.8831  1.4698  2.1519
  203SOL    HW2  609   0.727   0.174   1.688 -0.8107  0.1382  0.1551
  204SOL     OW  610   2.100   1.816   2.924  0.3232  0.3515 -0.3847
  204SOL    HW1  611   2.099   1.721   2.960 -1.1211  0.5309 -1.0114
  204SOL    HW2  612   2.134   1.826   2.831  1.5825 -1.0672  1.8566
  205SOL     OW  613   1.839   1.904   3.084 -0.1037 -0.0924 -0.4598
  205SOL    HW1  614   1.936   1.905   3.045  0.8444 -0.5102  1.7124
  205SOL    HW2  615   1.766   1.952   3.027  0.1579 -0.8849  2.8501
  206SOL     OW  616   2.372   2.721   0.264 -0.6820  0.1814  0.0653
  206SOL    HW1  617   2.337   2.652   0.332  0.9502 -0.4758 -0.2049
  206SOL    HW2  618   2.474   2.719   0.254  1.6729 -1.8882  2.6945
  207SOL     OW  619   0.689   1.745   2.905  0.1671  0.1661 -0.0062
  207SOL    HW1  620   0.786   1.711   2.894  2.0632  1.4035  1.2624
  207SOL    HW2  621   0.629   1.669   2.950  1.3566 -0.9673  2.0587
  208SOL     OW  622   1.008   1.555   1.265 -0.1344 -0.1641  0.3842
  208SOL    HW1  623   0.949   1.589   1.183 -0.6151 -0.6156 -0.3343
  208SOL    HW2  624   0.952   1.528   1.348 -0.3688 -1.2162  0.2304
  209SOL     OW  625   0.267   0.960   3.070 -0.1327  0.1338 -0.5308
  209SOL    HW1  626   0.325   0.921   2.991 -0.9382 -0.5015  0.0181
  209SOL    HW2  627   0.230   0.897   3.142 -0.5541 -0.1800 -1.0235
  210SOL     OW  628   1.696   0.548   1.264 -0.0702  0.6414 -0.3633
  210SOL    HW1  629   1.644   0.597   1.191  0.5241 -1.3507  2.3542
  210SOL    HW2  630   1.797   0.534   1.242  1.5073  1.7433 -3.5366
  211SOL     OW  631   2.152   1.017   1.576  1.1205  0.6021 -0.1215
  211SOL    HW1  632   2.169   1.003   1.683 -3.9637 -0.9454  2.8151
  211SOL    HW2  633   2.197   1.104   1.543 -0.3952 -0.8195 -0.1289
  212SOL     OW  634   0.055   1.018   1.481  0.1896  0.7846 -0.3195
  212SOL    HW1  635   0.079   1.110   1.515 -0.7708  0.8002  0.8745
  212SOL    HW2  636   0.082   0.947   1.550  1.5261 -0.3576 -0.5994
  213SOL     OW  637   2.819   0.118   0.331 -0.2583 -0.5856  0.6195
  213SOL    HW1  638   2.899   0.046   0.327  0.1943 -4.0672 -0.5880
  213SOL    HW2  639   2.734   0.078   0.289 -1.1751 -1.6057 -0.8787
  214SOL     OW  640   2.157   0.318   2.351  0.0181  0.1230 -0.1044
  214SOL    HW1  641   2.161   0.353   2.448  0.7501 -0.7566 -0.4285
  214SOL    HW2  642   2.144   0.208   2.351 -0.8039 -3.9642  2.4657
  215SOL     OW  643   1.648   2.210   2.036  0.4291  0.6232  0.1563
  215SOL    HW1  644   1.743   2.248   2.017 -2.1519  0.1480  0.1217
  215SOL    HW2  645   1.572   2.279   2.041  2.8384 -0.9327  0.1048
  216SOL     OW  646   2.203   0.534   0.728  0.2285 -0.0299 -0.2045
  216SOL    HW1  647   2.196   0.526   0.632 -0.9503 -0.1163  1.4207
  216SOL    HW2  648   2.246   0.452   0.778  1.3890 -0.3221  2.2666
  217SOL     OW  649   0.923   2.755   2.581  0.0482 -0.8015 -0.3554
  217SOL    HW1  650   0.957   2.685   2.645 -0.9398 -1.9142 -0.0221
  217SOL    HW2  651   0.859   2.713   2.505 -0.2570 -3.7468 -1.2453
  218SOL     OW  652   1.861   1.454   0.039 -0.0351 -0.3065 -0.2766
  218SOL    HW1  653   1.762   1.440   0.012 -1.4784  1.5039  1.9254
  218SOL    HW2  654   1.898   1.394   0.116 -1.3187 -1.4207 -1.1490
  219SOL     OW  655   2.462   1.271   2.525  0.1958  0.4306 -0.5034
  219SOL    HW1  656   2.491   1.210   2.443 -3.1182 -1.0988  0.8967
  219SOL    HW2  657   2.468   1.222   2.618  1.2500 -0.6483 -0.4239
  220SOL     OW  658   1.391   1.039   1.355 -0.1723 -0.3223 -0.8121
  220SOL    HW1  659   1.467   0.976   1.381 -0.4700 -0.0510 -1.4705
  220SOL    HW2  660   1.390   1.050   1.253 -0.6321 -0.5694 -0.1805
  221SOL     OW  661   1.398   0.980   2.170  0.0057  0.0981  0.0346
  221SOL    HW1  662   1.349   1.037   2.093  0.7949  1.0669 -1.2700
  221SOL    HW2  663   1.453   1.031   2.236  0.8685 -0.8641 -0.3026
  222SOL     OW  664   1.158   0.075   1.220  0.2628 -0.3872  0.1582
  222SOL    HW1  665   1.185   0.125   1.309  1.2269  0.8089 -0.5663
  222SOL    HW2  666   1.126   0.141   1.147 -0.3750 -1.5469  1.1752
  223SOL     OW  667   2.711   0.960   2.105  0.2217  0.2678  0.0197
  223SOL    HW1  668   2.663   1.026   2.040  1.4755  1.1669  2.1512
  223SOL    HW2  669   2.805   0.988   2.136 -0.7711 -1.4287  1.9677
  224SOL     OW  670   1.571   1.018   2.777 -0.6078  0.2740 -0.1636
  224SOL    HW1  671   1.551   0.949   2.696  2.0298 -3.4483 -1.5218
  224SOL    HW2  672   1.578   1.114   2.740 -0.7631 -2.1456  0.7138
  225SOL     OW  673   2.946   2.674   2.912  0.1339 -0.3357  0.3429
  225SOL    HW1  674   2.868   2.679   2.842  1.3316 -2.2477  1.1774
  225SOL    HW2  675   3.016   2.743   2.888 -4.0170 -1.6236 -0.8229
  226SOL     OW  676   2.387   1.511   2.802 -0.0723  0.8552 -0.6024
  226SOL    HW1  677   2.459   1.479   2.731  1.4913 -1.1229  0.3554
  226SOL    HW2  678   2.408   1.462   2.894  0.1879 -2.3192 -0.6279
  227SOL     OW  679   0.838   0.239   3.081  0.0286  0.2118 -0.6879
  227SOL    HW1  680   0.902   0.316   3.054  2.3567 -0.2480 -1.8710
  227SOL    HW2  681   0.800   0.188   3.001 -1.8768 -1.5060 -1.5038
  228SOL     OW  682   2.447   0.663   2.855  0.6500  0.1928 -0.2895
  228SOL    HW1  683   2.433   0.703   2.760 -0.1238  0.2701 -1.1484
  228SOL    HW2  684   2.522   0.590   2.862 -1.6850 -0.2264  0.5997
  229SOL     OW  685   0.445   0.504   1.825  0.7086  0.8458  0.0706
  229SOL    HW1  686   0.526   0.563   1.842  0.7456  1.2481 -2.2249
  229SOL    HW2  687   0.453   0.456   1.729 -0.3274 -1.9922 -1.0664
  230SOL     OW  688   1.893   1.212   1.964 -0.3179  0.0697 -0.5484
  230SOL    HW1  689   1.945   1.293   1.922 -2.2307 -1.1013 -2.0591
  230SOL    HW2  690   1.836   1.242   2.047 -1.0048 -1.6345  1.4406
  231SOL     OW  691   0.621   1.066   3.092 -0.1790  0.1371 -0.0723
  231SOL    HW1  692   0.717   1.102   3.075  3.3929  0.0582 -1.1660
  231SOL    HW2  693   0.544   1.132   3.119  2.6586 -1.5998 -0.0947
  232SOL     OW  694   2.416   3.061   2.801 -0.0732  0.1522 -0.6843
  232SOL    HW1  695   2.496   2.998   2.812  0.6514  1.1472 -2.8891
  232SOL    HW2  696   2.420   3.116   2.714 -1.2074 -0.4831  0.8223
  233SOL     OW  697   1.754   1.168   1.090  0.8955 -0.5146 -0.4684
  233SOL    HW1  698   1.841   1.199   1.042 -0.0171  1.9247  2.3803
  233SOL    HW2  699   1.768   1.098   1.166 -1.4889  0.7427 -0.4975
  234SOL     OW  700   1.656   2.566   1.830  0.0032 -0.4870  0.3801
  234SOL    HW1  701   1.622   2.617   1.919 -1.0405 -1.2982  3.3252
  234SOL    HW2  702   1.594   2.486   1.812 -2.3388 -1.2843 -2.5856
  235SOL     OW  703   3.093   2.967   2.859  0.1841  0.4826 -0.0875
  235SOL    HW1  704   3.063   2.994   2.762 -0.6495 -0.9201 -3.2367
  235SOL    HW2  705   3.042   3.018   2.935 -2.4617  0.7369 -1.6681
  236SOL     OW  706   2.941   0.676   0.049 -0.5497  0.4816  0.0326
  236SOL    HW1  707   3.001   0.714   0.121 -2.5802 -2.7412  0.7952
  236SOL    HW2  708   2.983   0.600  -0.010 -3.7200  0.6824  0.9528
  237SOL     OW  709   1.456   1.651   0.903 -0.0705  0.4772 -0.5308
  237SOL    HW1  710   1.532   1.584   0.911 -1.7558  1.7349  0.8615
  237SOL    HW2  711   1.476   1.734   0.965  0.8728  2.0329  1.6839
  238SOL     OW  712   1.899   1.192   0.778 -0.2411  0.3362 -0.3673
  238SOL    HW1  713   1.949   1.253   0.849  0.0619 -2.3547 -0.0600
  238SOL    HW2  714   1.800   1.203   0.773  3.4765 -1.8541 -1.4360
  239SOL     OW  715   2.020   0.219   2.745 -0.3889 -0.2967  0.0113
  239SOL    HW1  716   2.070   0.189   2.837  2.4882 -0.7795  2.8513
  239SOL    HW2  717   1.944   0.284   2.770  1.0872 -2.0241 -0.7023
  240SOL     OW  718   0.932   0.716   0.233  0.6573 -0.4387 -0.1188
  240SOL    HW1  719   1.000   0.649   0.194  1.6535  2.7815  1.0989
  240SOL    HW2  720   0.934   0.719   0.336 -0.9808 -1.7445 -3.1414
  241SOL     OW  721   0.550   0.133   0.340 -0.0834 -0.2315 -0.5977
  241SOL    HW1  722   0.631   0.204   0.333  1.9002 -1.9158 -0.7018
  241SOL    HW2  723   0.569   0.048   0.287 -0.9761  1.2706 -0.3071
  242SOL     OW  724   0.643   2.568   1.190  0.3010 -0.3453 -0.3346
  242SOL    HW1  725   0.632   2.546   1.287  1.3090  0.0033 -3.4395
  242SOL    HW2  726   0.603   2.659   1.158  0.5133  1.7560  2.0866
  243SOL     OW  727   1.053   0.595   2.369 -0.2072  0.5162 -0.0079
  243SOL    HW1  728   0.960   0.627   2.354  2.1347 -0.6133 -0.7222
  243SOL    HW2  729   1.070   0.572   2.469  0.6111 -2.4984  2.1615
  244SOL     OW  730   2.689   1.950   2.348 -0.5377  0.3228  0.3289
  244SOL    HW1  731   2.728   1.924   2.253 -1.9163  0.3372 -1.5750
  244SOL    HW2  732   2.625   1.874   2.386 -1.5659  1.5207 -2.0631
  245SOL     OW  733   2.170   1.004   2.189 -0.3333  0.2145  1.1029
  245SOL    HW1  734   2.251   0.952   2.229  0.6977  1.4490  0.8575
  245SOL    HW2  735   2.136   1.088   2.240  0.5870  0.8145 -0.6813
  246SOL     OW  736   0.293   2.842   1.807  0.4467 -0.1855 -0.3013
  246SOL    HW1  737   0.203   2.833   1.754 -0.4683 -0.2379 -2.8050
  246SOL    HW2  738   0.348   2.930   1.785 -1.5356 -0.9787 -0.7348
  247SOL     OW  739   2.225   0.594   3.017  0.3128 -0.2916 -0.1234
  247SOL    HW1  740   2.285   0.612   2.934 -0.1700  0.6718 -1.7445
  247SOL    HW2  741   2.171   0.672   3.051  0.1540  0.1213 -1.9897
  248SOL     OW  742   2.200   1.812   1.598  0.1131 -0.6219 -0.5816
  248SOL    HW1  743   2.281   1.799   1.664 -2.0930  0.2799 -0.9648
  248SOL    HW2  744   2.113   1.777   1.629  0.0052 -0.6457  2.6399
  249SOL     OW  745   1.880   1.899   1.802 -0.5479  0.1112  0.1820
  249SOL    HW1  746   1.888   1.815   1.739 -1.5369 -1.6100  2.7328
  249SOL    HW2  747   1.967   1.917   1.853 -1.2525 -0.5014 -0.1094
  250SOL     OW  748   0.969   0.718   1.893 -0.4412  0.4647  0.1041
  250SOL    HW1  749   1.011   0.648   1.959 -3.5151  1.5665 -0.3287
  250SOL    HW2  750   0.961   0.670   1.799  1.3667 -2.0919 -1.0799
  251SOL     OW  751   3.041   1.544   2.522 -0.0849 -0.4166  0.2212
  251SOL    HW1  752   3.001   1.640   2.528 -0.4962  0.1005  3.5096
  251SOL    HW2  753   2.962   1.476   2.513  0.2375  1.8678  0.3403
  252SOL     OW  754   1.551   0.862   1.580  0.3413  0.0721  0.4197
  252SOL    HW1  755   1.625   0.890   1.513  0.0022  1.6271  1.2281
  252SOL    HW2  756   1.558   0.908   1.674  1.1294  0.7592 -0.2829
  253SOL     OW  757   0.934   1.518   0.444  0.0530  0.2125 -0.9723
  253SOL    HW1  758   0.920   1.543   0.343 -1.5939  2.3818 -0.2804
  253SOL    HW2  759   0.857   1.526   0.512 -0.1062  0.0434  2.3020
  254SOL     OW  760   2.043   2.198   1.593  0.4523  0.0519  0.3320
  254SOL    HW1  761   1.996   2.117   1.554  1.0909  2.2211 -0.3138
  254SOL    HW2  762   1.990   2.247   1.669  1.1016 -0.7829 -0.6962
  255SOL     OW  763   0.133   1.154   2.912 -0.1893  0.2070 -0.6057
  255SOL    HW1  764   0.170   1.247   2.890 -2.4176 -1.0313  1.4629
  255SOL    HW2  765   0.191   1.088   2.973  4.7076 -0.0623  0.7006
  256SOL     OW  766   2.830   1.414   1.783  0.0541  0.4712 -0.3260
  256SOL    HW1  767   2.759   1.480   1.736 -1.7229 -0.1045 -4.3731
  256SOL    HW2  768   2.816   1.316   1.755 -0.0840  0.9562  0.9165
  257SOL     OW  769   0.837   0.242   1.869  1.0680  0.9195  0.8453
  257SOL    HW1  770   0.917   0.289   1.813  0.5945 -1.8803  0.7266
  257SOL    HW2  771   0.849   0.138   1.875  0.2066 -3.1440 -0.3999
  258SOL     OW  772   2.958   1.158   0.539  0.2791  0.1080 -0.4203
  258SOL    HW1  773   2.880   1.215   0.581 -0.9413  0.7129 -0.9644
  258SOL    HW2  774   3.045   1.177   0.592  1.8372 -1.9975  2.0998
  259SOL     OW  775   0.466   2.932   2.987  0.3504  0.2691 -0.2177
  259SOL    HW1  776   0.384   2.888   3.035 -0.4622  2.1135  2.9348
  259SOL    HW2  777   0.504   2.884   2.907  1.9585 -0.5645  2.5140
  260SOL     OW  778   2.720   0.752   2.747  0.3412  0.0652 -0.0365
  260SOL    HW1  779   2.628   0.766   2.693 -1.7493 -0.9196 -1.2329
  260SOL    HW2  780   2.705   0.671   2.814 -0.6859 -1.7245  1.0550
  261SOL     OW  781   2.700   1.303   1.299 -0.0575 -0.2178  0.1161
  261SOL    HW1  782   2.641   1.250   1.231  1.2775  0.5129  0.6575
  261SOL    HW2  783   2.762   1.233   1.352 -1.0507  0.9070  1.9073
  262SOL     OW  784   1.375   2.976   2.081 -0.2034 -0.2762 -0.1333
  262SOL    HW1  785   1.403   3.062   2.026 -1.3333  1.4813 -0.3832
  262SOL    HW2  786   1.286   2.944   2.042  1.6979  0.7390  0.4823
  263SOL     OW  787   0.807   0.635   2.266  0.1325 -0.3245  0.4663
  263SOL    HW1  788   0.772   0.541   2.229  0.9912 -0.1418  1.2799
  263SOL    HW2  789   0.788   0.713   2.204 -0.7238  0.8312  0.5888
  264SOL     OW  790   2.270   0.805   0.364 -0.3016  0.0878  0.5893
  264SOL    HW1  791   2.282   0.731   0.292 -0.2349  0.7659 -3.8845
  264SOL    HW2  792   2.352   0.822   0.425  1.1950  2.2474 -0.2448
  265SOL     OW  793   0.929   2.399   2.597 -0.0381  0.5636 -0.0930
  265SOL    HW1  794   0.976   2.459   2.665 -2.4795 -0.4866 -2.9867
  265SOL    HW2  795   0.887   2.310   2.641 -1.8434 -1.4217 -0.4399
  266SOL     OW  796   1.298   1.769   3.049 -0.1225  0.0454 -0.1291
  266SOL    HW1  797   1.321   1.823   3.133 -1.4549  1.2858 -2.0567
  266SOL    HW2  798   1.376   1.733   2.999 -1.3854 -0.2057  2.5061
  267SOL     OW  799   1.054   0.049   2.315  0.4516  0.1354  0.6115
  267SOL    HW1  800   0.952   0.019   2.326 -3.3550  1.6981  1.8914
  267SOL    HW2  801   1.094   0.068   2.221 -0.5679 -0.2546 -0.0945
  268SOL     OW  802   0.839   1.249   1.038  0.5504 -0.1144  0.1135
  268SOL    HW1  803   0.802   1.327   1.102 -2.5532  1.6839 -1.4317
  268SOL    HW2  804   0.927   1.266   0.991 -0.5516  2.7912 -0.0082
  269SOL     OW  805   2.372   2.521   1.625  0.0781  0.5759 -0.5958
  269SOL    HW1  806   2.439   2.445   1.637 -1.0003 -1.6509 -3.0335
  269SOL    HW2  807   2.360   2.574   1.713 -1.3041  2.0237 -1.1078
  270SOL     OW  808   0.160   2.996   1.994 -0.0560  0.1616 -0.4296
  270SOL    HW1  809   0.203   2.927   1.928  0.0239 -2.0701 -0.9766
  270SOL    HW2  810   0.124   2.951   2.085 -0.7071  1.2544 -0.3015
  271SOL     OW  811   0.488   1.379   1.132  0.2003 -0.0283 -0.2275
  271SOL    HW1  812   0.455   1.399   1.032  1.0679  4.4763 -1.5654
  271SOL    HW2  813   0.411   1.390   1.202  3.5198  1.9146 -0.8383
  272SOL     OW  814   1.914   0.001   1.927 -0.0184 -0.0408 -0.0084
  272SOL    HW1  815   1.849  -0.063   1.873 -3.3113  1.5100 -0.4510
  272SOL    HW2  816   1.908   0.099   1.896 -0.1748 -0.9927 -2.4567
  273SOL     OW  817   1.505   1.491   2.804 -0.7888  0.2115  0.2498
  273SOL    HW1  818   1.410   1.513   2.771 -0.6193 -0.1930 -0.0554
  273SOL    HW2  819   1.513   1.466   2.904 -1.1839  1.2963 -0.5441
  274SOL     OW  820   1.099   0.517   2.028  0.1313  0.4099 -0.7663
  274SOL    HW1  821   1.032   0.438   2.033  1.1731 -5.5223  0.6136
  274SOL    HW2  822   1.180   0.510   2.092  0.9191  1.1681 -1.1279
  275SOL     OW  823   0.645   2.149   1.907  0.2533 -0.1827 -0.7511
  275SOL    HW1  824   0.593   2.232   1.945 -0.7288  1.5588 -0.5645
  275SOL    HW2  825   0.600   2.058   1.921 -0.1892  1.0072  2.0264
  276SOL     OW  826   2.241   0.946   2.841  0.1234 -0.4863  0.8051
  276SOL    HW1  827   2.182   0.983   2.764  1.5736  0.8880 -1.4860
  276SOL    HW2  828   2.185   0.905   2.915 -1.0299 -1.4530  0.0404
  277SOL     OW  829   3.083   0.786   0.274 -0.1307 -0.2519 -0.1496
  277SOL    HW1  830   3.168   0.840   0.245  0.6142 -0.5967  0.4424
  277SOL    HW2  831   3.112   0.704   0.334 -0.9645  1.1146  2.5537
  278SOL     OW  832   0.259   0.235   3.070 -0.0895 -0.7436 -0.0102
  278SOL    HW1  833   0.326   0.170   3.024 -2.5858  0.4272 -2.3326
  278SOL    HW2  834   0.306   0.329   3.081  0.8021 -0.4007  0.0427
  279SOL     OW  835   0.254   0.040   0.888 -0.1392 -0.6930 -0.6405
  279SOL    HW1  836   0.290   0.018   0.982 -1.6781 -3.3095  1.2111
  279SOL    HW2  837   0.236  -0.043   0.830  1.5074  0.4895  1.8576
  280SOL     OW  838   1.626   2.929   2.439  0.4417 -0.2379  0.5141
  280SOL    HW1  839   1.691   2.992   2.485 -2.5289  0.2522 -1.0455
  280SOL    HW2  840   1.574   2.988   2.366 -0.4554  0.3815 -2.5572
  281SOL     OW  841   0.517   0.961   2.272 -0.1672 -0.3161  0.3082
  281SOL    HW1  842   0.504   0.888   2.203  3.5684 -1.7018  2.1028
  281SOL    HW2  843   0.502   0.935   2.370 -1.3836 -0.2861 -0.9980
  282SOL     OW  844   1.782   2.453   0.510  0.5672 -0.0902  0.1888
  282SOL    HW1  845   1.714   2.380   0.469 -4.5167 -1.2437  1.1450
  282SOL    HW2  846   1.741   2.552   0.515  1.4563  0.5032  1.2403
  283SOL     OW  847   1.156   0.880   0.731  0.3725 -0.2762  0.0965
  283SOL    HW1  848   1.167   0.804   0.800  0.4136 -0.0310  1.9672
  283SOL    HW2  849   1.146   0.973   0.777 -1.6049  2.4553 -1.4057
  284SOL     OW  850   2.227   2.815   2.478 -0.3530 -0.2235  0.0866
  284SOL    HW1  851   2.328   2.822   2.445  3.2113  0.2607 -1.1692
  284SOL    HW2  852   2.204   2.865   2.570  2.5301  0.8801 -0.1390
  285SOL     OW  853   1.325   3.091   2.600 -0.2585 -0.6767  0.5800
  285SOL    HW1  854   1.378   3.090   2.509 -0.0731  0.7512  0.5742
  285SOL    HW2  855   1.265   3.174   2.608 -0.5578 -0.2354 -2.7732
  286SOL     OW  856   0.361   0.465   0.706 -0.6971 -0.3108 -0.6663
  286SOL    HW1  857   0.358   0.400   0.791 -3.3127  1.0035 -0.4237
  286SOL    HW2  858   0.382   0.426   0.613 -2.5052 -1.5039 -2.2054
  287SOL     OW  859   0.087   1.297   2.618 -0.0139  0.1858 -0.1642
  287SOL    HW1  860   0.015   1.223   2.653  0.7955 -0.4263  1.8984
  287SOL    HW2  861   0.037   1.384   2.596  1.0624 -0.6003 -1.1046
  288SOL     OW  862   1.519   2.742   1.655  0.1872 -0.0896  0.1554
  288SOL    HW1  863   1.559   2.666   1.709 -0.5245 -0.2677  0.1794
  288SOL    HW2  864   1.559   2.743   1.556 -0.6335  2.8258 -0.3068
  289SOL     OW  865   0.635   2.762   0.829  0.2424  0.3650 -0.1288
  289SOL    HW1  866   0.672   2.797   0.739 -1.7731 -3.0217 -2.0424
  289SOL    HW2  867   0.620   2.837   0.895 -2.4794 -3.4421 -2.0222
  290SOL     OW  868   2.816   1.155   1.730  0.3546  0.5781 -0.3168
  290SOL    HW1  869   2.749   1.076   1.738  1.9847  1.7932  0.4030
  290SOL    HW2  870   2.896   1.146   1.790 -0.6867 -1.3430  1.7888
  291SOL     OW  871   1.942   3.072   0.053 -0.2501  0.2821 -0.1330
  291SOL    HW1  872   1.960   3.083   0.156 -0.2875 -1.9635  2.1017
  291SOL    HW2  873   2.010   3.115  -0.010  1.4137 -2.3103 -2.9727
  292SOL     OW  874   2.985   1.162   3.059  0.0435  0.2177  0.2084
  292SOL    HW1  875   2.934   1.242   3.027  0.5738 -1.5199 -0.6231
  292SOL    HW2  876   3.075   1.146   3.004 -2.1837  0.4029  1.8098
  293SOL     OW  877   0.576   2.069   0.299  0.2488 -0.3522 -0.0709
  293SOL    HW1  878   0.525   2.141   0.358  0.6246  0.6373  1.0515
  293SOL    HW2  879   0.677   2.058   0.318  1.2748  0.6212 -0.9268
  294SOL     OW  880   1.877   2.340   1.766  0.2737 -0.1213 -0.5464
  294SOL    HW1  881   1.875   2.326   1.868 -0.0887  0.7511  0.2447
  294SOL    HW2  882   1.811   2.418   1.738 -0.0914  2.1770 -2.2239
  295SOL     OW  883   1.024   1.039   0.435 -0.3368  0.2066  0.6462
  295SOL    HW1  884   1.117   0.991   0.451  0.6691 -0.6078 -0.3108
  295SOL    HW2  885   0.958   1.039   0.510  2.0140  1.5936  0.0437
  296SOL     OW  886   1.095   2.159   2.739 -0.0299  0.1811 -0.1138
  296SOL    HW1  887   0.992   2.184   2.746 -1.3871 -0.2959  1.6864
  296SOL    HW2  888   1.113   2.093   2.662 -4.4106 -0.6955 -0.0926
  297SOL     OW  889   1.282   0.535   1.172 -0.5722  0.0071 -0.3141
  297SOL    HW1  890   1.321   0.455   1.232 -1.4341 -2.3470  1.2427
  297SOL    HW2  891   1.360   0.600   1.145  0.3467  3.1747 -2.2550
  298SOL     OW  892   0.499   1.336   2.925  0.0678 -0.2584 -0.3329
  298SOL    HW1  893   0.444   1.286   2.995 -1.5598 -0.3567 -0.9137
  298SOL    HW2  894   0.538   1.275   2.850  0.1587  0.1314 -1.9800
  299SOL     OW  895   0.438   0.207   1.262  0.2362  0.0204  0.2716
  299SOL    HW1  896   0.389   0.285   1.210 -0.7725  0.9645  1.8748
  299SOL    HW2  897   0.436   0.210   1.364 -1.9985 -1.9113  0.4025
  300SOL     OW  898   1.342   1.791   2.568  0.3930  0.2634  0.3428
  300SOL    HW1  899   1.331   1.694   2.541  1.3348 -0.9757  0.7177
  300SOL    HW2  900   1.428   1.802   2.625  2.8223  1.1524  0.7295
  301SOL     OW  901   0.402   0.364   0.443  0.0850  0.0025 -0.6593
  301SOL    HW1  902   0.309   0.325   0.412 -1.5728  1.7859  3.6241
  301SOL    HW2  903   0.479   0.301   0.412 -2.0005 -0.9091  1.6693
  302SOL     OW  904   1.249   2.457   2.294 -0.0751  0.3137  0.2684
  302SOL    HW1  905   1.146   2.429   2.294 -1.5239  1.5313  1.6084
  302SOL    HW2  906   1.303   2.386   2.348  0.2282 -1.7122 -3.2577
  303SOL     OW  907   0.968   2.432   0.829 -0.6287  0.3789  0.1964
  303SOL    HW1  908   1.029   2.472   0.758 -1.4654  2.0864  4.6121
  303SOL    HW2  909   0.976   2.481   0.919 -0.5323  1.5725 -1.9102
  304SOL     OW  910   0.149   1.916   0.670 -0.0409  0.4347  0.0839
  304SOL    HW1  911   0.203   1.877   0.586 -1.1639 -1.6796  0.7703
  304SOL    HW2  912   0.053   1.929   0.651  1.4732 -2.6321 -1.6638
  305SOL     OW  913   1.599   0.851   0.686  0.6707  0.5073  0.0055
  305SOL    HW1  914   1.588   0.874   0.582 -0.2732  1.9915 -0.4651
  305SOL    HW2  915   1.625   0.751   0.683 -2.4249  1.4060  0.2309
  306SOL     OW  916   0.395   1.852   1.961  0.1275 -0.3538 -0.2109
  306SOL    HW1  917   0.481   1.821   1.915 -0.0793  2.8360  1.2280
  306SOL    HW2  918   0.412   1.892   2.055  0.3852 -1.0648 -0.8201
  307SOL     OW  919   2.995   0.901   2.494 -0.0662  0.1750  0.4522
  307SOL    HW1  920   3.034   0.954   2.578  0.7873 -2.2319  2.0805
  307SOL    HW2  921   2.945   0.811   2.513 -1.4180 -0.9295  0.1457
  308SOL     OW  922   1.506   2.680   2.829  0.0671 -0.1478 -0.0492
  308SOL    HW1  923   1.477   2.713   2.734 -0.0156  1.7419  1.0410
  308SOL    HW2  924   1.448   2.603   2.860 -0.6726  4.3912 -0.8895
  309SOL     OW  925   1.266   0.175   1.774 -0.1191 -0.1106  0.0258
  309SOL    HW1  926   1.344   0.118   1.811  0.7313 -0.2163  1.4326
  309SOL    HW2  927   1.269   0.181   1.672 -0.0941  0.4110 -0.8126
  310SOL     OW  928   1.465   2.573   0.677  0.1507 -0.5628  0.3872
  310SOL    HW1  929   1.435   2.579   0.772  2.5454 -0.5643 -3.7396
  310SOL    HW2  930   1.547   2.636   0.661  2.0401 -0.6266  0.6698
  311SOL     OW  931   1.048   0.974   1.760 -0.2587 -0.3131 -0.3688
  311SOL    HW1  932   1.010   0.881   1.782  0.7785 -0.7665 -2.9029
  311SOL    HW2  933   1.123   0.967   1.691 -0.4975 -0.5871  1.0223
  312SOL     OW  934   1.549   0.634   1.047  0.1785 -0.3794 -0.0638
  312SOL    HW1  935   1.556   0.737   1.064  1.5384  0.1305 -1.3538
  312SOL    HW2  936   1.504   0.610   0.958 -0.7099  1.0044  2.2508
  313SOL     OW  937   1.630   1.235   0.764 -0.4255 -0.3491 -0.5155
  313SOL    HW1  938   1.554   1.277   0.821 -2.7933 -0.0632 -2.8906
  313SOL    HW2  939   1.600   1.189   0.675 -0.2352 -1.1818  2.4135
  314SOL     OW  940   2.963   3.081   3.084  0.3754 -0.0408 -0.3599
  314SOL    HW1  941   2.975   3.093   3.187 -1.5348 -0.8590 -1.1435
  314SOL    HW2  942   2.890   3.013   3.065  2.3494  1.7259 -1.5097
  315SOL     OW  943   1.181   0.205   2.792  0.3760  0.1030 -0.1690
  315SOL    HW1  944   1.115   0.187   2.715 -2.9729 -0.3822  2.0612
  315SOL    HW2  945   1.189   0.126   2.862 -0.7957  0.8040  0.0878
  316SOL     OW  946   1.725   2.088   0.882  0.5112  0.1574 -0.1547
  316SOL    HW1  947   1.655   2.101   0.956 -1.1855 -2.5124  2.4326
  316SOL    HW2  948   1.756   2.176   0.834  2.3129 -2.8055 -1.0363
  317SOL     OW  949   1.174   0.692   2.774 -0.1566  0.2194 -0.6267
  317SOL    HW1  950   1.128   0.740   2.853  1.2424 -1.3307  0.9548
  317SOL    HW2  951   1.109   0.634   2.720 -1.8884 -0.2168  3.5005
  318SOL     OW  952   1.444   3.076   2.322 -0.8140  0.3506 -0.1696
  318SOL    HW1  953   1.449   3.174   2.297  3.2099 -0.5131 -0.2228
  318SOL    HW2  954   1.426   3.012   2.246  2.0714 -0.3291  2.6626
  319SOL     OW  955   0.678   2.390   3.016 -0.0471  0.2458  0.1895
  319SOL    HW1  956   0.637   2.309   3.071  0.3525 -1.8952  1.2982
  319SOL    HW2  957   0.707   2.358   2.920  1.0456  0.4389 -0.2579
  320SOL     OW  958   1.680   2.224   0.408  0.0947 -0.2951 -0.0467
  320SOL    HW1  959   1.778   2.181   0.415  0.5193  3.6740 -0.0191
  320SOL    HW2  960   1.603   2.173   0.456 -0.5448  1.0529 -2.7765
  321SOL     OW  961   1.689   2.713   0.561 -0.4380 -0.2163  0.2527
  321SOL    HW1  962   1.624   2.765   0.500 -1.1296  1.1764  1.0762
  321SOL    HW2  963   1.787   2.753   0.567 -2.2201  2.2109 -1.2450
  322SOL     OW  964   2.575   1.140   2.317 -0.3687  0.1595 -0.0342
  322SOL    HW1  965   2.666   1.110   2.365  2.7921 -2.5289  0.3281
  322SOL    HW2  966   2.524   1.065   2.264 -0.6577  2.2376  1.0331
  323SOL     OW  967   1.152   2.671   0.800  0.1609  0.4114  0.0657
  323SOL    HW1  968   1.128   2.623   0.711 -1.8725  0.6006 -2.7599
  323SOL    HW2  969   1.122   2.766   0.819  1.2249 -1.5392  1.0923
  324SOL     OW  970   0.168   2.533   2.434 -0.5201  0.0973 -0.3122
  324SOL    HW1  971   0.090   2.480   2.473  1.0238  0.1718  0.9352
  324SOL    HW2  972   0.176   2.624   2.486 -1.4698  1.7034  0.2821
  325SOL     OW  973   1.251   3.086   0.452  0.0620  0.1593 -0.2187
  325SOL    HW1  974   1.264   3.110   0.351 -2.5658 -1.3010 -0.0982
  325SOL    HW2  975   1.306   3.144   0.516  0.4305 -1.6625  2.1141
  326SOL     OW  976   2.498   0.848   3.091 -0.1563  0.6598  0.5823
  326SOL    HW1  977   2.432   0.783   3.044 -2.3347 -0.2852  2.2961
  326SOL    HW2  978   2.565   0.798   3.156 -0.1748  0.2371 -0.7686
  327SOL     OW  979   2.859   0.289   0.562  0.5842  0.6309  0.1026
  327SOL    HW1  980   2.838   0.224   0.480  0.1805 -2.6564 -0.3598
  327SOL    HW2  981   2.876   0.230   0.651 -0.6015 -0.6855 -0.0161
  328SOL     OW  982   2.576   0.649   0.399  0.4070 -0.5998 -0.2208
  328SOL    HW1  983   2.613   0.701   0.481 -2.2559 -1.4688  1.0219
  328SOL    HW2  984   2.530   0.562   0.430 -1.3386  0.3856 -0.3465
  329SOL     OW  985   2.932   3.020   2.190  0.4643 -0.4464  0.5626
  329SOL    HW1  986   3.017   2.962   2.194 -0.5004 -0.5910  0.7434
  329SOL    HW2  987   2.956   3.121   2.186  0.1539 -2.5264  2.0646
  330SOL     OW  988   0.528   0.195   1.850  0.1754 -0.0859 -0.6418
  330SOL    HW1  989   0.606   0.256   1.822  2.2224 -1.3589 -1.3147
  330SOL    HW2  990   0.538   0.165   1.954 -1.3489 -0.4356  2.9215
  331SOL     OW  991   3.057   1.883   1.145  0.2467 -0.9759 -0.2664
  331SOL    HW1  992   3.047   1.923   1.048  1.3744 -0.3971  1.7209
  331SOL    HW2  993   2.966   1.849   1.181  1.9158 -0.8744 -0.2744
  332SOL     OW  994   0.379   1.194   0.060 -0.1869 -0.0980 -0.3210
  332SOL    HW1  995   0.339   1.103   0.028 -0.9566 -0.2643 -2.0865
  332SOL    HW2  996   0.376   1.210   0.162 -1.2579 -1.8411  1.6640
  333SOL     OW  997   2.881   0.949   0.362  0.0001  0.0657  0.1765
  333SOL    HW1  998   2.923   1.013   0.430  2.3252  3.2545  1.0058
  333SOL    HW2  999   2.951   0.899   0.292  2.4597 -2.4327 -3.3776
  334SOL     OW 1000   1.744   1.145   1.716 -0.1056  0.0926 -0.1520
  334SOL    HW1 1001   1.790   1.137   1.626  0.2815 -0.4135  2.4255
  334SOL    HW2 1002   1.800   1.176   1.795 -0.2595 -2.7312  0.0659
  335SOL     OW 1003   1.876   2.791   2.637  0.6263 -0.1995 -0.3676
  335SOL    HW1 1004   1.816   2.778   2.723 -0.9686 -2.6330 -1.1328
  335SOL    HW2 1005   1.969   2.826   2.664 -1.5192 -1.7014  1.7987
  336SOL     OW 1006   0.278   0.030   2.718  0.1374  0.4005  0.4841
  336SOL    HW1 1007   0.329   0.097   2.772  0.1262  1.9576  0.9447
  336SOL    HW2 1008   0.240  -0.045   2.779  1.6560  0.4447  0.5877
  337SOL     OW 1009   0.897   2.859   2.976  0.3745  0.3114  0.5177
  337SOL    HW1 1010   0.892   2.780   3.049 -1.6865 -3.1876  3.9288
  337SOL    HW2 1011   0.979   2.920   2.990 -2.6747 -0.4951 -0.3073
  338SOL     OW 1012   3.088   0.928   0.705 -0.0249  0.7231  0.5098
  338SOL    HW1 1013   2.987   0.913   0.719  0.2945  0.4537 -0.5815
  338SOL    HW2 1014   3.105   1.016   0.651 -0.6039 -0.2200  0.4365
  339SOL     OW 1015   1.743   1.311   2.169  0.4261  0.0575  0.1427
  339SOL    HW1 1016   1.664   1.339   2.103 -1.0456  1.8268  2.2562
  339SOL    HW2 1017   1.758   1.389   2.243 -2.2940  2.5320 -1.7408
  340SOL     OW 1018   2.227   0.809   1.084  0.0325 -0.0693 -0.6333
  340SOL    HW1 1019   2.151   0.871   1.116 -1.1596  0.4930 -0.2113
  340SOL    HW2 1020   2.197   0.714   1.085 -0.8118  2.0855 -0.6680
  341SOL     OW 1021   1.925   2.099   0.389  0.0292  0.4360  0.4300
  341SOL    HW1 1022   1.933   2.133   0.288 -0.1316  1.6200 -1.2993
  341SOL    HW2 1023   2.016   2.104   0.438  0.0666 -3.1843 -1.0731
  342SOL     OW 1024   2.178   2.102   2.718 -0.2100 -0.1610  0.2195
  342SOL    HW1 1025   2.212   2.005   2.716 -0.2933  1.1490  0.6531
  342SOL    HW2 1026   2.075   2.111   2.688  0.6088  0.5100 -0.3860
  343SOL     OW 1027   0.374   0.860   2.778  0.0165  0.6903  0.6846
  343SOL    HW1 1028   0.385   0.906   2.687 -0.5619  0.0017  1.7943
  343SOL    HW2 1029   0.465   0.847   2.824  1.9984  1.0407 -1.5224
  344SOL     OW 1030   1.947   1.474   0.393 -0.3328 -0.5624 -0.6509
  344SOL    HW1 1031   1.950   1.399   0.321  1.2146  2.2129 -1.5289
  344SOL    HW2 1032   1.850   1.496   0.424 -2.0954 -3.3803 -0.0984
  345SOL     OW 1033   1.352   2.194   2.839 -0.5358  0.0464  0.0987
  345SOL    HW1 1034   1.271   2.189   2.774 -0.7831  2.0599  1.2892
  345SOL    HW2 1035   1.431   2.139   2.795  3.5075  0.7276 -0.1448
  346SOL     OW 1036   2.300   0.861   1.390 -0.4158 -0.7913 -0.0483
  346SOL    HW1 1037   2.234   0.890   1.467 -1.2738  1.9456  0.8235
  346SOL    HW2 1038   2.289   0.916   1.304 -0.5419  0.7529 -0.2777
  347SOL     OW 1039   0.713   2.775   1.653  0.5357  0.0689  0.0752
  347SOL    HW1 1040   0.785   2.797   1.576  1.4446 -1.2227 -2.8280
  347SOL    HW2 1041   0.620   2.809   1.628  1.7330 -2.2344  0.6114
  348SOL     OW 1042   0.181   0.692   2.924 -0.2710 -0.5639 -0.2754
  348SOL    HW1 1043   0.087   0.694   2.884  0.3049 -0.2907 -2.1756
  348SOL    HW2 1044   0.240   0.763   2.874  2.6838 -0.8579  1.9595
  349SOL     OW 1045   1.838   0.423   2.827 -1.0521  0.4940  0.2604
  349SOL    HW1 1046   1.817   0.495   2.751 -1.2234  1.4800  2.4437
  349SOL    HW2 1047   1.822   0.463   2.920  0.0502 -0.7442  0.6124
  350SOL     OW 1048   1.687   0.395   0.367 -0.2494  0.4442 -0.2474
  350SOL    HW1 1049   1.760   0.382   0.438 -0.5093 -3.2541 -0.3830
  350SOL    HW2 1050   1.666   0.495   0.356  1.0744 -1.3002 -2.1664
  351SOL     OW 1051   0.823   0.854   2.086 -0.2556 -0.4516  0.7232
  351SOL    HW1 1052   0.890   0.918   2.129  1.3448  2.8262 -0.6923
  351SOL    HW2 1053   0.874   0.795   2.015 -2.5526 -0.1207  0.3573
  352SOL     OW 1054   2.061   1.331   0.586 -0.1249 -0.4651  0.0243
  352SOL    HW1 1055   2.016   1.392   0.514  2.4914  2.0181  0.2670
  352SOL    HW2 1056   1.986   1.291   0.649 -1.2213 -0.0249 -0.8845
  353SOL     OW 1057   2.205   2.748   1.100  0.7075 -0.3751  0.2042
  353SOL    HW1 1058   2.246   2.688   1.168 -1.7569 -0.5487 -1.6132
  353SOL    HW2 1059   2.149   2.823   1.137 -0.9915 -2.1432 -1.6245
  354SOL     OW 1060   0.205   1.451   2.894  0.3926 -0.3114 -0.2379
  354SOL    HW1 1061   0.177   1.484   2.799  0.0387  0.5204  0.4262
  354SOL    HW2 1062   0.307   1.452   2.909  1.2797 -2.5696  1.7535
  355SOL     OW 1063   0.691   1.548   0.590  0.3900  0.3825  0.0816
  355SOL    HW1 1064   0.709   1.510   0.687 -1.7611  3.2684  1.8275
  355SOL    HW2 1065   0.655   1.472   0.527 -0.5235 -1.9710 -0.7370
  356SOL     OW 1066   0.934   0.292   2.125 -0.1814 -0.0437  0.5298
  356SOL    HW1 1067   1.018   0.235   2.115 -0.9552 -0.8637  1.9138
  356SOL    HW2 1068   0.864   0.269   2.048 -0.6758 -0.6159 -1.7668
  357SOL     OW 1069   1.012   1.376   0.205 -0.7740  0.3070 -0.8543
  357SOL    HW1 1070   1.081   1.326   0.144  0.1844 -2.5569  0.8198
  357SOL    HW2 1071   1.029   1.366   0.309  2.0690  1.2811 -0.1227
  358SOL     OW 1072   1.706   1.458   0.511  0.1920  0.1595 -0.4103
  358SOL    HW1 1073   1.672   1.405   0.598 -1.0102  1.2154  1.4343
  358SOL    HW2 1074   1.651   1.431   0.423  0.5306 -1.8884 -2.7689
  359SOL     OW 1075   1.590   2.589   0.229 -0.1753  0.4123 -0.5064
  359SOL    HW1 1076   1.586   2.486   0.207 -1.5781 -0.3063 -0.7342
  359SOL    HW2 1077   1.514   2.622   0.291  0.5671  0.4683 -1.3817
  360SOL     OW 1078   0.786   0.449   0.587 -0.5975 -0.1257 -0.0040
  360SOL    HW1 1079   0.708   0.494   0.525 -1.0552  2.0962 -2.8670
  360SOL    HW2 1080   0.804   0.352   0.553 -0.3523  1.8715 -0.8406
  361SOL     OW 1081   1.348   1.316   0.622 -0.7315 -0.2321 -0.2454
  361SOL    HW1 1082   1.376   1.317   0.725 -0.5670 -0.2038  1.7261
  361SOL    HW2 1083   1.267   1.375   0.604 -0.4907 -3.5255 -1.8379
  362SOL     OW 1084   1.365   1.826   0.702  0.2953 -0.2219 -0.4595
  362SOL    HW1 1085   1.390   1.752   0.773  0.0989  2.0358  0.5647
  362SOL    HW2 1086   1.429   1.820   0.619  2.0936  0.7694  1.0323
  363SOL     OW 1087   1.305   1.324   2.062  0.0723 -0.0028 -0.6301
  363SOL    HW1 1088   1.384   1.349   2.003 -2.1415  1.1434 -1.3735
  363SOL    HW2 1089   1.314   1.370   2.153 -0.0415  1.1733 -2.2564
  364SOL     OW 1090   0.537   2.370   1.997 -0.1940  0.2453 -0.8129
  364SOL    HW1 1091   0.435   2.358   1.991  0.1993 -1.3164  0.0703
  364SOL    HW2 1092   0.568   2.452   1.944  0.0389  1.3759  2.4077
  365SOL     OW 1093   0.918   1.969   1.405  0.0961  0.4813  0.4302
  365SOL    HW1 1094   0.814   1.962   1.422  1.0525 -0.4248 -1.4844
  365SOL    HW2 1095   0.946   1.997   1.311 -2.0961 -0.7911  0.3775
  366SOL     OW 1096   2.768   1.953   0.237 -0.2483  0.2050 -0.5508
  366SOL    HW1 1097   2.720   1.870   0.194  0.4496 -1.5258 -3.0742
  366SOL    HW2 1098   2.875   1.940   0.237  1.3214  0.0445 -0.0727
  367SOL     OW 1099   0.877   1.135   3.093 -0.1402 -0.1826 -0.1804
  367SOL    HW1 1100   0.872   1.076   3.181  0.7400  3.1116  3.6519
  367SOL    HW2 1101   0.959   1.201   3.091 -0.5799  1.3592 -2.0539
  368SOL     OW 1102   1.467   0.557   0.545  0.1449 -0.2830 -0.5011
  368SOL    HW1 1103   1.365   0.575   0.533 -2.7845  0.0596  0.1542
  368SOL    HW2 1104   1.531   0.603   0.478  1.3979  0.5274 -1.1245
  369SOL     OW 1105   0.407   1.569   0.157  0.0468 -0.4917  0.3120
  369SOL    HW1 1106   0.432   1.650   0.219 -1.6188 -0.5415 -2.5032
  369SOL    HW2 1107   0.306   1.543   0.172 -2.4156  0.1200 -0.3171
  370SOL     OW 1108   0.394   2.175   1.076  0.1064 -0.2303 -0.0785
  370SOL    HW1 1109   0.433   2.260   1.032 -1.0966  0.7746 -1.3048
  370SOL    HW2 1110   0.304   2.144   1.033  1.3987  0.5866  1.3327
  371SOL     OW 1111   2.924   2.225   2.748 -0.1698 -0.1405  0.0313
  371SOL    HW1 1112   2.994   2.146   2.763  1.0249 -1.2662  3.3860
  371SOL    HW2 1113   2.925   2.294   2.827  0.3423  0.5498 -1.2412
  372SOL     OW 1114   1.028   2.058   1.142 -0.6126 -0.2392  0.3093
  372SOL    HW1 1115   0.989   2.086   1.052 -1.7182  1.7255  1.5655
  372SOL    HW2 1116   1.098   2.129   1.177 -1.6547  0.3566 -1.0050
  373SOL     OW 1117   1.926   1.922   1.022  0.3258 -0.2648  0.1122
  373SOL    HW1 1118   2.025   1.955   1.017  1.7484 -0.5982  0.3360
  373SOL    HW2 1119   1.865   1.998   0.980  1.7501 -1.7148  0.8593
  374SOL     OW 1120   1.879   0.400   0.575  0.6335 -0.0326  0.1928
  374SOL    HW1 1121   1.883   0.349   0.670  0.8253 -0.8462  2.1952
  374SOL    HW2 1122   1.966   0.410   0.522 -1.5638  0.2903  2.3850
  375SOL     OW 1123   2.430   2.185   1.100  0.3912 -0.1965  0.3840
  375SOL    HW1 1124   2.467   2.247   1.028 -1.8361 -1.1456  0.1542
  375SOL    HW2 1125   2.509   2.132   1.150 -0.7612  0.9233 -1.8898
  376SOL     OW 1126   0.006   0.650   1.408  0.0051 -0.2402  0.1441
  376SOL    HW1 1127  -0.004   0.715   1.491 -1.3001  0.7486  0.6631
  376SOL    HW2 1128  -0.007   0.549   1.441  1.5865  1.1682  0.2026
  377SOL     OW 1129   2.171   2.920   0.225 -0.0761 -0.0615 -0.1568
  377SOL    HW1 1130   2.207   3.010   0.262  2.1412 -0.6311 -0.2125
  377SOL    HW2 1131   2.231   2.835   0.248 -0.9705 -1.8804 -2.5703
  378SOL     OW 1132   1.866   1.908   2.426  0.9851 -0.2340 -0.1698
  378SOL    HW1 1133   1.908   1.914   2.330  2.0786  3.0159 -2.1479
  378SOL    HW2 1134   1.805   1.825   2.435  0.3463  0.5466  0.5828
  379SOL     OW 1135   0.763   0.133   2.829  0.4867  0.7911  0.0465
  379SOL    HW1 1136   0.767   0.035   2.787 -0.2027 -1.9310  2.2489
  379SOL    HW2 1137   0.759   0.203   2.755 -0.2931 -1.2217  3.5233
  380SOL     OW 1138   1.565   1.170   0.507  0.2233  0.3712  0.5246
  380SOL    HW1 1139   1.484   1.228   0.519  1.6679  1.5117  1.7295
  380SOL    HW2 1140   1.550   1.067   0.491 -0.1030  2.1812 -0.9708
  381SOL     OW 1141   1.286   1.227   1.521 -0.3239  0.8120  0.0040
  381SOL    HW1 1142   1.308   1.145   1.454  0.1548  0.0729  0.4192
  381SOL    HW2 1143   1.373   1.247   1.576  0.3016  2.4043 -0.5881
  382SOL     OW 1144   1.828   0.854   0.265  0.0770 -0.6310 -0.1084
  382SOL    HW1 1145   1.874   0.820   0.179 -1.5706 -0.2590 -1.5175
  382SOL    HW2 1146   1.891   0.843   0.344  0.6870 -1.7643 -1.0558
  383SOL     OW 1147   2.550   1.008   1.460  0.4493 -0.4583 -0.3747
  383SOL    HW1 1148   2.461   0.954   1.450  2.8300  0.6311  0.2039
  383SOL    HW2 1149   2.616   0.992   1.388 -0.0371  1.9556  2.6377
  384SOL     OW 1150   0.892   2.310   0.197  0.1990  0.4245  0.4154
  384SOL    HW1 1151   0.816   2.385   0.184 -1.9159 -0.2972  0.0437
  384SOL    HW2 1152   0.870   2.241   0.270 -0.8911 -0.3988  0.3218
  385SOL     OW 1153   2.970   2.088   1.673  0.1806  0.0634 -0.0178
  385SOL    HW1 1154   3.056   2.140   1.673  1.1591 -1.2206  0.3912
  385SOL    HW2 1155   2.991   1.986   1.676  0.9353  0.5169 -1.4053
  386SOL     OW 1156   0.460   1.027   0.447 -0.2047 -0.1676  0.0746
  386SOL    HW1 1157   0.434   0.940   0.505 -1.3667 -1.2028  0.4335
  386SOL    HW2 1158   0.384   1.086   0.418 -1.8151 -3.8730 -1.0827
  387SOL     OW 1159   1.018   0.368   1.685 -0.0820 -0.3346 -0.2571
  387SOL    HW1 1160   1.050   0.465   1.667  4.2060  1.0982  2.7569
  387SOL    HW2 1161   0.997   0.321   1.593  0.3545  0.2486 -0.6124
  388SOL     OW 1162   1.201   2.680   1.730 -0.9676  0.1531  0.5281
  388SOL    HW1 1163   1.222   2.678   1.627 -0.4569 -0.2053 -0.3347
  388SOL    HW2 1164   1.264   2.615   1.789  2.1585 -0.0310 -0.4299
  389SOL     OW 1165   0.163   2.927   1.355  0.6064 -0.5904  0.0865
  389SOL    HW1 1166   0.065   2.895   1.343 -0.9886 -0.4038 -0.6017
  389SOL    HW2 1167   0.221   2.856   1.405 -0.6247 -1.9303 -2.3222
  390SOL     OW 1168   1.034   0.932   1.394 -0.1931  0.4042 -0.3047
  390SOL    HW1 1169   1.114   0.924   1.462  1.2445  1.2405  1.1349
  390SOL    HW2 1170   1.009   1.030   1.377  0.5224 -0.6125 -2.0969
  391SOL     OW 1171   2.179   1.142   1.074  0.2304  0.4671 -0.2475
  391SOL    HW1 1172   2.119   1.071   1.123 -2.8460 -3.4109 -0.9956
  391SOL    HW2 1173   2.228   1.102   0.989  0.2104  0.0952 -0.0366
  392SOL     OW 1174   0.906   2.646   0.037 -0.0442 -0.3693  0.4080
  392SOL    HW1 1175   0.984   2.584   0.014  0.0928  3.9243  1.5664
  392SOL    HW2 1176   0.837   2.609   0.110  0.2418 -0.4673  1.6484
  393SOL     OW 1177   0.272   0.622   2.026  0.6188  0.6967 -0.2863
  393SOL    HW1 1178   0.181   0.574   2.047 -1.2407 -0.2730  1.5521
  393SOL    HW2 1179   0.334   0.570   1.963 -0.1168  0.0677  0.2032
  394SOL     OW 1180   3.017   1.960   2.753 -0.2439  0.2045 -0.8634
  394SOL    HW1 1181   3.117   1.959   2.777  0.1332 -1.5420  0.6909
  394SOL    HW2 1182   2.995   1.918   2.658  0.2321  0.6181  1.1388
  395SOL     OW 1183   1.620   1.945   0.552  0.0145 -0.0954 -0.0495
  395SOL    HW1 1184   1.671   1.872   0.501 -0.2188 -0.9020  1.6376
  395SOL    HW2 1185   1.664   1.964   0.644  0.8677  1.2429  0.2180
  396SOL     OW 1186   2.839   1.834   1.297  0.0678  0.5131 -0.0287
  396SOL    HW1 1187   2.815   1.740   1.259  1.4071  1.1761 -0.1226
  396SOL    HW2 1188   2.803   1.849   1.391 -3.6557 -2.2563 -0.7109
  397SOL     OW 1189   1.023   2.212   0.511 -0.5372 -0.0064  0.0142
  397SOL    HW1 1190   0.931   2.166   0.527 -1.4490 -1.6522  2.2514
  397SOL    HW2 1191   1.030   2.311   0.546  1.2057  0.0840  0.0370
  398SOL     OW 1192   2.122   0.009   1.091 -0.2852 -0.3983  0.1495
  398SOL    HW1 1193   2.049  -0.016   1.161 -1.1884 -0.5361  0.6619
  398SOL    HW2 1194   2.113   0.106   1.054  2.4914 -0.5114  1.4548
  399SOL     OW 1195   3.041   2.473   2.570  0.1572  0.2624  0.7485
  399SOL    HW1 1196   2.935   2.472   2.567 -1.3017 -2.5133  1.1862
  399SOL    HW2 1197   3.078   2.446   2.662  0.7489 -1.2400 -2.6487
  400SOL     OW 1198   0.743   1.681   1.382 -0.0022 -0.5492 -0.1013
  400SOL    HW1 1199   0.678   1.724   1.455 -4.6074 -1.1343 -0.0084
  400SOL    HW2 1200   0.740   1.738   1.297 -1.8696 -0.0961  1.2125
  401SOL     OW 1201   1.890   0.217   1.158 -0.0175  1.2837 -0.0238
  401SOL    HW1 1202   1.914   0.201   1.254 -1.4499 -1.1095 -4.1649
  401SOL    HW2 1203   1.809   0.275   1.148  0.1838 -0.1875 -2.0606
  402SOL     OW 1204   1.353   0.212   3.080 -0.0515  0.6084  0.3848
  402SOL    HW1 1205   1.425   0.186   3.009 -0.7935  1.2619 -1.9877
  402SOL    HW2 1206   1.303   0.297   3.049 -0.0210  1.2298 -2.4063
  403SOL     OW 1207   2.289   1.790   0.913  0.2842  1.0017 -0.0026
  403SOL    HW1 1208   2.385   1.823   0.883 -0.2917  0.3770  1.5577
  403SOL    HW2 1209   2.254   1.856   0.981  2.7781 -0.6000 -3.3295
  404SOL     OW 1210   0.200   2.466   2.776  0.0075  0.1358 -0.4001
  404SOL    HW1 1211   0.297   2.451   2.743 -0.1108  2.6312  0.0916
  404SOL    HW2 1212   0.209   2.535   2.849  1.0725 -0.2419 -1.2507
  405SOL     OW 1213   0.081   2.477   0.740 -0.4020 -0.0499  0.0200
  405SOL    HW1 1214   0.101   2.416   0.663  2.8915 -0.5573  0.2564
  405SOL    HW2 1215   0.143   2.555   0.735 -1.8613  2.3826  0.8136
  406SOL     OW 1216   0.047   1.573   3.083 -0.3902  0.2030  0.1720
  406SOL    HW1 1217   0.091   1.526   2.998  1.2956  1.1966  1.3523
  406SOL    HW2 1218   0.104   1.568   3.167 -0.9935 -1.3270  0.7269
  407SOL     OW 1219   1.550   0.908   0.970  0.3765 -1.1434 -0.2348
  407SOL    HW1 1220   1.562   0.904   0.865 -4.0479 -0.6410 -0.1551
  407SOL    HW2 1221   1.517   0.999   1.007 -0.3325  1.9910 -0.1522
  408SOL     OW 1222   1.590   2.426   0.983 -0.1191 -0.6448  0.0326
  408SOL    HW1 1223   1.651   2.401   0.902 -0.6925  1.2951  0.1565
  408SOL    HW2 1224   1.541   2.518   0.973  0.9006  2.3251  1.5601
  409SOL     OW 1225   0.669   0.763   0.766 -0.6326  0.0495  0.1185
  409SOL    HW1 1226   0.572   0.775   0.725 -1.8875 -0.1639  0.9019
  409SOL    HW2 1227   0.668   0.682   0.832 -1.0157 -1.2042  1.4085
  410SOL     OW 1228   1.244   2.033   1.413 -0.1504  0.3406  0.1125
  410SOL    HW1 1229   1.305   1.981   1.478  0.7191  1.8108  5.0157
  410SOL    HW2 1230   1.161   1.972   1.393  2.3812 -0.6104  1.0854
  411SOL     OW 1231   2.581   1.845   2.994 -0.8889 -0.2709  0.7654
  411SOL    HW1 1232   2.630   1.937   3.010 -1.0673  0.3666  1.3141
  411SOL    HW2 1233   2.497   1.850   2.935  0.2080 -0.5818 -0.0919
  412SOL     OW 1234   1.515   2.467   2.139 -0.4484 -0.3107 -0.0508
  412SOL    HW1 1235   1.594   2.443   2.203  0.3248 -0.9295  1.2732
  412SOL    HW2 1236   1.430   2.477   2.196  0.3714  2.1337  1.7511
  413SOL     OW 1237   0.013   0.187   2.923  0.0542 -0.2497  0.4887
  413SOL    HW1 1238  -0.034   0.124   2.992 -0.0295  2.4575  1.5432
  413SOL    HW2 1239   0.107   0.221   2.953 -2.2029  2.1179 -0.3119
  414SOL     OW 1240   1.811   1.506   1.195 -0.6642 -0.0579  0.0291
  414SOL    HW1 1241   1.809   1.607   1.220  0.9216 -1.1838  1.8050
  414SOL    HW2 1242   1.775   1.485   1.099 -3.9009 -0.2463 -1.1869
  415SOL     OW 1243   0.338   2.242   0.700  0.2848 -0.3258 -0.2342
  415SOL    HW1 1244   0.326   2.256   0.798 -1.9866 -0.6755 -1.7203
  415SOL    HW2 1245   0.255   2.254   0.638 -1.7235 -2.6092  1.5650
  416SOL     OW 1246   0.361   1.050   1.068 -0.4210  0.1335 -0.2966
  416SOL    HW1 1247   0.308   0.993   0.996  1.1147 -1.7682  0.1385
  416SOL    HW2 1248   0.457   1.076   1.035 -0.1469 -0.0881  2.3413
  417SOL     OW 1249   2.296   2.389   2.047  0.1276  0.7208 -0.0284
  417SOL    HW1 1250   2.312   2.286   2.039 -0.1772  0.6552  0.3580
  417SOL    HW2 1251   2.231   2.404   2.122  2.1237 -3.0444  1.1586
  418SOL     OW 1252   1.058   0.537   1.346  0.4275 -0.2730  0.0388
  418SOL    HW1 1253   0.969   0.523   1.299  0.1125 -3.1642  3.3585
  418SOL    HW2 1254   1.131   0.567   1.286 -0.2715 -3.2475  1.5245
  419SOL     OW 1255   0.938   0.528   2.966 -0.5316  0.2485  0.0850
  419SOL    HW1 1256   0.874   0.483   2.896  0.7042 -3.2026 -0.3624
  419SOL    HW2 1257   0.963   0.633   2.943  3.3894  0.2870 -0.0677
  420SOL     OW 1258   0.103   2.211   0.551  0.3697 -0.2414 -0.4788
  420SOL    HW1 1259   0.128   2.152   0.475 -2.5394 -0.3065  0.9992
  420SOL    HW2 1260   0.033   2.159   0.605  1.0932 -0.5295 -0.6287
  421SOL     OW 1261   0.336   2.953   0.597  0.2211  0.2422  0.0272
  421SOL    HW1 1262   0.343   2.894   0.683  0.2904  0.5660  1.1900
  421SOL    HW2 1263   0.426   3.000   0.573  0.0203 -1.4100 -0.8313
  422SOL     OW 1264   0.993   2.631   1.038 -0.2097 -0.0230  0.2072
  422SOL    HW1 1265   1.035   2.687   0.963 -0.2701 -1.2711 -1.7236
  422SOL    HW2 1266   1.028   2.650   1.133  0.8497 -1.8047 -3.8464
  423SOL     OW 1267   0.153   0.755   1.178 -0.0580  0.2207  0.4148
  423SOL    HW1 1268   0.114   0.701   1.253  1.8907  1.3083  1.6914
  423SOL    HW2 1269   0.087   0.820   1.140  0.6782 -0.6375  3.5811
  424SOL     OW 1270   1.161   2.181   2.028 -0.0610  0.7396  0.3659
  424SOL    HW1 1271   1.127   2.279   2.014  2.0656 -0.5438 -0.1460
  424SOL    HW2 1272   1.127   2.144   2.119  1.5908 -0.4389 -1.0059
  425SOL     OW 1273   1.980   1.324   1.001  1.1284 -0.9555 -0.3129
  425SOL    HW1 1274   2.048   1.266   1.055 -1.0237 -0.0545  4.0959
  425SOL    HW2 1275   1.999   1.427   1.023 -0.3074  1.4452 -0.5615
  426SOL     OW 1276   1.429   1.619   1.253 -0.3425  0.2579 -0.6929
  426SOL    HW1 1277   1.427   1.719   1.237 -1.0692 -3.0291 -3.4943
  426SOL    HW2 1278   1.398   1.590   1.350 -0.4050 -1.8747  2.4358
  427SOL     OW 1279   1.897   2.329   2.041  0.0642 -0.1340  0.6129
  427SOL    HW1 1280   1.942   2.282   2.116 -0.7939  4.2148 -2.0346
  427SOL    HW2 1281   1.927   2.431   2.033  0.9638 -0.2461 -1.7889
  428SOL     OW 1282   0.835   3.085   0.112  1.1218 -0.3514 -0.1384
  428SOL    HW1 1283   0.827   3.169   0.048  2.3935 -0.7114 -1.3720
  428SOL    HW2 1284   0.930   3.038   0.118  0.4448  3.5603 -2.2061
  429SOL     OW 1285   1.311   0.137   0.239  0.2285 -0.0186  0.1445
  429SOL    HW1 1286   1.414   0.145   0.266  0.1745  2.7100  3.0261
  429SOL    HW2 1287   1.300   0.160   0.139 -1.6321  0.1273 -1.3424
  430SOL     OW 1288   2.904   1.387   0.298  0.4125  0.0042 -0.2595
  430SOL    HW1 1289   2.944   1.450   0.221 -0.5906 -1.6613  3.1579
  430SOL    HW2 1290   2.901   1.444   0.389 -1.2482  1.6782  0.3199
  431SOL     OW 1291   2.071   1.600   0.956 -0.5655  0.1426 -0.6847
  431SOL    HW1 1292   2.164   1.641   0.950 -1.1244  0.4768  1.3638
  431SOL    HW2 1293   1.995   1.650   0.900 -0.7013  0.9401 -1.0412
  432SOL     OW 1294   2.943   2.152   1.186  0.2266 -0.3738  0.1547
  432SOL    HW1 1295   2.943   2.053   1.219 -2.0077  1.4787  2.1204
  432SOL    HW2 1296   2.976   2.224   1.256 -1.8433  2.0021 -0.4027
  433SOL     OW 1297   1.846   0.256   0.828 -0.5405 -0.3833 -0.2236
  433SOL    HW1 1298   1.786   0.335   0.859  3.4140 -3.1731 -4.6791
  433SOL    HW2 1299   1.937   0.249   0.874 -1.0125 -5.0107 -0.2271
  434SOL     OW 1300   1.585   0.347   0.673  0.5818 -0.1471  0.0164
  434SOL    HW1 1301   1.558   0.429   0.616  1.6468 -3.2416  0.4046
  434SOL    HW2 1302   1.578   0.377   0.772  3.4137  1.0676  0.2829
  435SOL     OW 1303   1.553   1.456   2.026  0.5229 -0.6058  0.5800
  435SOL    HW1 1304   1.568   1.495   2.119  3.0351  0.6934 -0.8381
  435SOL    HW2 1305   1.538   1.529   1.953  0.5471 -2.5528  2.4327
  436SOL     OW 1306   1.713   2.739   2.232 -0.3235 -0.3429 -0.1990
  436SOL    HW1 1307   1.681   2.811   2.301  1.1079  1.2379 -0.1499
  436SOL    HW2 1308   1.686   2.646   2.257  0.5766  2.5783 -0.1337
  437SOL     OW 1309   1.094   2.955   0.934 -0.2722 -0.0633  0.1508
  437SOL    HW1 1310   1.022   3.026   0.905 -1.4808  1.0189 -0.1907
  437SOL    HW2 1311   1.103   2.944   1.040 -0.2066  2.2184  1.9569
  438SOL     OW 1312   0.995   2.653   1.354 -0.1757  0.8447  0.7408
  438SOL    HW1 1313   1.078   2.660   1.413  0.3058 -1.6993  3.6404
  438SOL    HW2 1314   0.969   2.555   1.345  4.3968  2.4738 -0.9998
  439SOL     OW 1315   0.684   1.808   1.098 -0.2030  0.9406 -0.6445
  439SOL    HW1 1316   0.678   1.899   1.046 -1.9311 -1.5852 -5.0890
  439SOL    HW2 1317   0.587   1.762   1.103  0.0278 -0.6634 -0.4141
  440SOL     OW 1318   1.079   2.454   1.975  0.6379  0.1751  0.2037
  440SOL    HW1 1319   1.028   2.511   1.903  0.2890 -1.1144  2.4756
  440SOL    HW2 1320   1.181   2.477   1.974  0.2853  0.4276 -0.4905
  441SOL     OW 1321   0.415   2.716   1.526 -0.3708 -0.3359  0.1287
  441SOL    HW1 1322   0.485   2.638   1.540 -2.2183 -0.5335  0.8282
  441SOL    HW2 1323   0.369   2.702   1.437  0.3233  0.0544  0.8053
  442SOL     OW 1324   2.232   0.741   2.491 -0.2002 -0.2595  0.2284
  442SOL    HW1 1325   2.230   0.636   2.505  0.0324 -0.6118  2.3400
  442SOL    HW2 1326   2.148   0.791   2.531  0.4695  3.2723  0.0430
  443SOL     OW 1327   1.192   2.694   2.172 -0.0324 -0.9891  0.4789
  443SOL    HW1 1328   1.179   2.765   2.248  3.1618  0.2962  1.1409
  443SOL    HW2 1329   1.222   2.603   2.212 -2.2318  1.1864  3.4104
  444SOL     OW 1330   1.035   1.331   1.579 -0.8028 -0.2548  0.3649
  444SOL    HW1 1331   1.136   1.309   1.563 -1.3401  0.0287 -1.8182
  444SOL    HW2 1332   1.008   1.431   1.573 -1.1860 -1.4686 -1.8170
  445SOL     OW 1333   3.072   2.364   1.956 -0.2756  0.1097  0.5561
  445SOL    HW1 1334   3.074   2.437   1.880  1.6403  1.1700  0.9866
  445SOL    HW2 1335   2.975   2.339   1.987  0.2264 -1.3440  2.5006
  446SOL     OW 1336   0.176   1.914   2.335  0.3551 -0.0183  0.1238
  446SOL    HW1 1337   0.128   1.972   2.403 -0.0081 -0.2660 -1.8418
  446SOL    HW2 1338   0.101   1.863   2.280 -0.4244  1.9471  0.9711
  447SOL     OW 1339   1.210   1.709   1.973 -0.6642  0.1254 -0.0605
  447SOL    HW1 1340   1.167   1.777   1.907 -0.2533 -0.6573  1.1997
  447SOL    HW2 1341   1.310   1.733   1.986  1.0776 -1.7844 -1.2968
  448SOL     OW 1342   0.112   1.460   1.980 -0.4152 -0.0763 -1.2313
  448SOL    HW1 1343   0.120   1.556   1.947 -2.3787 -2.1792 -0.5029
  448SOL    HW2 1344   0.094   1.458   2.081 -0.5355 -3.2421  0.8731
  449SOL     OW 1345   2.000   3.000   0.856 -0.3629 -0.2795 -0.0550
  449SOL    HW1 1346   2.053   3.032   0.941 -0.1945 -2.3827 -1.3364
  449SOL    HW2 1347   1.991   2.900   0.850  1.5891  1.5284  1.0621
  450SOL     OW 1348   2.264   1.354   0.819  0.0532  0.5011  0.9925
  450SOL    HW1 1349   2.246   1.255   0.820 -3.1080  0.9127 -1.4742
  450SOL    HW2 1350   2.206   1.397   0.747  1.2769 -2.0281  1.8919
  451SOL     OW 1351   1.443   0.025   1.470 -0.0007  0.0646 -0.3833
  451SOL    HW1 1352   1.358   0.083   1.455  1.5249 -0.6247 -0.9224
  451SOL    HW2 1353   1.439  -0.024   1.564 -0.6758  0.8352 -0.4593
  452SOL     OW 1354   2.653   2.313   2.239  0.3025  0.8962  0.1962
  452SOL    HW1 1355   2.616   2.409   2.252  2.4293 -2.4337  3.4384
  452SOL    HW2 1356   2.681   2.264   2.327 -0.0008 -2.0076 -1.9510
  453SOL     OW 1357   2.433   2.610   3.049  0.1128 -0.0030  0.2372
  453SOL    HW1 1358   2.356   2.677   3.072 -1.4348  0.8252 -2.0207
  453SOL    HW2 1359   2.419   2.571   2.954 -0.5535 -0.8690  1.7169
  454SOL     OW 1360   0.978   1.118   2.116 -0.1558 -0.0677 -0.6787
  454SOL    HW1 1361   0.967   1.159   2.021  1.2850 -0.2128  1.6850
  454SOL    HW2 1362   1.076   1.105   2.146 -2.5355  1.0982 -0.4432
  455SOL     OW 1363   0.741   2.665   2.877 -0.2632 -0.4072  0.4313
  455SOL    HW1 1364   0.823   2.731   2.876  2.4117  0.2765  0.2039
  455SOL    HW2 1365   0.745   2.595   2.955 -1.9563  1.8950 -0.1402
  456SOL     OW 1366   0.534   1.789   0.300 -0.1322 -0.2877 -0.7363
  456SOL    HW1 1367   0.632   1.754   0.328  2.7178  0.9027  2.0563
  456SOL    HW2 1368   0.534   1.887   0.266  2.9344 -0.6808 -2.2375
  457SOL     OW 1369   0.320   2.617   0.749 -0.0401 -0.6171 -0.0929
  457SOL    HW1 1370   0.345   2.626   0.649 -2.4458 -0.6596 -1.6054
  457SOL    HW2 1371   0.397   2.573   0.809  0.4330 -2.0483  1.9478
  458SOL     OW 1372   2.969   3.001   1.266 -0.1460  0.3567  0.1065
  458SOL    HW1 1373   2.994   3.099   1.229  1.0729  4.2113  2.5962
  458SOL    HW2 1374   2.990   2.925   1.198 -2.0673  0.9555 -2.0109
  459SOL     OW 1375   2.091   2.526   0.929  0.2644 -0.2950 -0.2253
  459SOL    HW1 1376   2.067   2.611   0.986 -0.3398  0.4176 -0.6640
  459SOL    HW2 1377   2.172   2.545   0.865  1.1792  1.4786 -4.2050
  460SOL     OW 1378   1.106   1.931   2.929 -0.6942 -0.1040 -0.2103
  460SOL    HW1 1379   1.148   2.022   2.909 -2.1822  2.4655  2.2640
  460SOL    HW2 1380   1.175   1.860   2.965  3.5285 -1.8144 -3.2403
  461SOL     OW 1381   0.469   2.104   2.694  0.3178  0.1274  0.3017
  461SOL    HW1 1382   0.417   2.026   2.655  1.5555 -0.7673  1.4325
  461SOL    HW2 1383   0.538   2.066   2.762  0.0001  0.5409  1.3806
  462SOL     OW 1384   0.941   1.213   1.848 -0.2270  0.0093  0.0592
  462SOL    HW1 1385   0.972   1.126   1.795  1.4432 -0.8197 -0.4094
  462SOL    HW2 1386   0.924   1.297   1.784  1.6734 -2.0049  4.1741
  463SOL     OW 1387   0.452   0.785   0.599  0.7739  0.4647 -0.4432
  463SOL    HW1 1388   0.514   0.706   0.571 -0.2066 -0.5049  1.3220
  463SOL    HW2 1389   0.346   0.769   0.596 -1.4901 -1.1682 -1.0639
  464SOL     OW 1390   0.532   2.235   2.267 -0.9417 -0.0675 -0.3299
  464SOL    HW1 1391   0.480   2.315   2.308 -1.8548  1.2325 -2.1402
  464SOL    HW2 1392   0.565   2.260   2.175 -1.9450 -1.6969  0.8055
  465SOL     OW 1393   0.225   0.890   0.851  0.0625 -0.7456  0.5772
  465SOL    HW1 1394   0.130   0.910   0.810 -1.5278 -0.6752 -0.2948
  465SOL    HW2 1395   0.241   0.787   0.858 -0.2804 -3.7311 -0.7838
  466SOL     OW 1396   1.381   1.113   1.085 -0.2228 -0.0032 -0.6664
  466SOL    HW1 1397   1.438   1.196   1.115 -0.2977  0.6174  2.1124
  466SOL    HW2 1398   1.286   1.143   1.056 -0.1123 -1.6072  0.7116
  467SOL     OW 1399   0.458   0.362   2.363 -0.1407  0.1987  0.0997
  467SOL    HW1 1400   0.452   0.450   2.413 -0.1823 -0.4792  1.2915
  467SOL    HW2 1401   0.446   0.279   2.429 -0.2368  0.3958  0.5331
  468SOL     OW 1402   0.469   2.255   1.663  0.2191 -0.1907  0.1935
  468SOL    HW1 1403   0.524   2.334   1.701  1.7255 -1.6256  0.9098
  468SOL    HW2 1404   0.416   2.276   1.574 -0.5106  0.0158  0.1081
  469SOL     OW 1405   1.541   1.333   1.122  0.1724 -0.4441 -0.1378
  469SOL    HW1 1406   1.635   1.285   1.126 -0.2567  1.4459  1.2894
  469SOL    HW2 1407   1.551   1.424   1.164  2.1479 -0.0715  0.5629
  470SOL     OW 1408   3.019   1.676   0.720 -0.0712 -0.3711 -0.0415
  470SOL    HW1 1409   3.101   1.691   0.786  1.4411  0.2254  0.7736
  470SOL    HW2 1410   2.934   1.729   0.759 -0.2345  0.2346  0.5241
  471SOL     OW 1411   2.685   1.308   2.126  0.2828  0.1232  0.0112
  471SOL    HW1 1412   2.664   1.253   2.210  1.7088  0.0385  0.8103
  471SOL    HW2 1413   2.748   1.391   2.140  0.7413 -0.1062 -2.0264
  472SOL     OW 1414   1.099   2.463   3.080 -0.2084  0.4551  0.1809
  472SOL    HW1 1415   1.147   2.453   3.171 -0.0039  0.5655 -0.2615
  472SOL    HW2 1416   1.035   2.381   3.058 -0.3572  0.2285 -0.0204
  473SOL     OW 1417   1.096   1.572   0.904 -0.4681  0.3051 -0.1243
  473SOL    HW1 1418   0.995   1.589   0.940 -0.6758 -2.4032 -0.0717
  473SOL    HW2 1419   1.155   1.525   0.974 -0.5605  1.7979  1.5232
  474SOL     OW 1420   0.831   1.214   0.720  0.2057 -0.6768  0.4054
  474SOL    HW1 1421   0.798   1.231   0.623 -1.2545  0.8571  1.6926
  474SOL    HW2 1422   0.865   1.117   0.733  0.4971  0.9939 -0.9790
  475SOL     OW 1423   2.886   0.087   0.762  0.2708 -0.3373 -0.5080
  475SOL    HW1 1424   2.974   0.073   0.824  1.4227 -0.3342  1.5961
  475SOL    HW2 1425   2.795   0.073   0.808  0.3177 -0.3525  1.1540
  476SOL     OW 1426   0.895   3.058   1.808 -0.1493  0.3379  0.3582
  476SOL    HW1 1427   0.990   3.070   1.851 -0.5780 -0.6937 -1.9998
  476SOL    HW2 1428   0.893   2.980   1.739  0.3646  2.3851  0.0035
  477SOL     OW 1429   1.409   0.325   2.432 -0.1201  0.2356 -0.3286
  477SOL    HW1 1430   1.398   0.358   2.532  0.2612 -1.5328  0.8167
  477SOL    HW2 1431   1.503   0.284   2.417  0.0860  0.5934 -1.0030
  478SOL     OW 1432   2.274   1.801   0.230  0.8360  0.2703  0.3249
  478SOL    HW1 1433   2.202   1.720   0.232  1.2897 -1.4111  0.1696
  478SOL    HW2 1434   2.371   1.768   0.225  0.3646 -1.0005 -1.1556
  479SOL     OW 1435   1.315   1.056   2.877 -0.0364  0.5572 -0.0516
  479SOL    HW1 1436   1.418   1.060   2.854 -0.9901  2.8041 -1.1647
  479SOL    HW2 1437   1.260   1.063   2.792 -0.5177 -1.8109  4.2914
  480SOL     OW 1438   2.467   2.339   0.384  0.0444  0.4166 -0.1867
  480SOL    HW1 1439   2.414   2.267   0.434 -0.5140  2.5565  1.3715
  480SOL    HW2 1440   2.420   2.358   0.292  1.6117 -1.1615  2.1518
  481SOL     OW 1441   1.124   1.150   0.776  0.0925  0.0993 -0.3686
  481SOL    HW1 1442   1.127   1.230   0.710  3.5568  1.1996 -0.0903
  481SOL    HW2 1443   1.146   1.186   0.872  1.6274  2.3498 -0.7933
  482SOL     OW 1444   1.600   0.318   2.053  0.0509 -0.5255 -0.0216
  482SOL    HW1 1445   1.618   0.404   1.997  0.0001  0.8124 -1.6998
  482SOL    HW2 1446   1.685   0.292   2.110 -3.9447  3.0374 -0.0837
  483SOL     OW 1447   0.136   2.326   1.287 -0.3446  0.2101  0.2489
  483SOL    HW1 1448   0.036   2.338   1.322  0.7151  0.0121  2.9792
  483SOL    HW2 1449   0.157   2.372   1.191 -0.3243  2.9354 -1.6704
  484SOL     OW 1450   1.732   0.987   1.404  0.2854  0.0987 -0.0226
  484SOL    HW1 1451   1.797   0.914   1.376 -2.0161  0.3484 -2.6316
  484SOL    HW2 1452   1.780   1.071   1.431  0.7904 -2.2438  1.2729
  485SOL     OW 1453   0.683   1.101   1.792  0.2779 -0.2859 -0.1733
  485SOL    HW1 1454   0.695   1.070   1.694  0.6594  2.0819  2.7236
  485SOL    HW2 1455   0.767   1.158   1.818  0.8959  0.0860 -0.4303
  486SOL     OW 1456   0.924   1.969   2.454 -0.4079 -0.7905  0.2058
  486SOL    HW1 1457   0.934   1.887   2.519 -3.3387 -0.1185  0.6209
  486SOL    HW2 1458   0.824   2.008   2.460 -0.4228  0.0349  3.6373
  487SOL     OW 1459   1.718   1.497   0.936  1.0510 -0.4171 -0.2295
  487SOL    HW1 1460   1.730   1.414   0.879  0.5053  3.7807  0.0751
  487SOL    HW2 1461   1.757   1.576   0.887 -0.5095 -3.0988  0.2693
  488SOL     OW 1462   2.964   0.948   2.233  0.4855 -0.7768  0.2034
  488SOL    HW1 1463   3.006   0.867   2.187  0.8119 -0.4575 -3.0624
  488SOL    HW2 1464   2.961   0.934   2.338 -0.5718 -0.9196 -0.7909
  489SOL     OW 1465   2.746   0.277   1.337  0.4695 -0.2367 -0.3202
  489SOL    HW1 1466   2.687   0.222   1.406  1.4384 -0.9569  0.6709
  489SOL    HW2 1467   2.833   0.224   1.315  0.0303  3.8729  1.2407
  490SOL     OW 1468   1.417   2.968   2.835 -0.0216 -0.1987  0.1763
  490SOL    HW1 1469   1.457   2.873   2.839 -1.5498  0.7405  2.3321
  490SOL    HW2 1470   1.400   3.018   2.746  0.3574  1.5088  1.5068
  491SOL     OW 1471   1.861   1.578   2.712  0.1839  0.3738 -0.1234
  491SOL    HW1 1472   1.841   1.516   2.793 -2.6027 -1.1333 -0.8456
  491SOL    HW2 1473   1.968   1.591   2.703  0.7673  0.5553 -2.7620
  492SOL     OW 1474   0.468   2.003   0.759 -0.3446 -0.8034 -0.5537
  492SOL    HW1 1475   0.526   2.047   0.834 -0.9907  1.2741 -0.0595
  492SOL    HW2 1476   0.391   2.068   0.724 -0.9201 -0.5468 -3.5469
  493SOL     OW 1477   0.418   1.381   2.091  0.1727  0.4426  0.6903
  493SOL    HW1 1478   0.339   1.438   2.130  0.3882  1.1272  0.9542
  493SOL    HW2 1479   0.436   1.294   2.147 -2.2937 -0.6327 -0.5828
  494SOL     OW 1480   2.649   2.667   0.135 -0.1402 -0.3880 -0.4639
  494SOL    HW1 1481   2.683   2.583   0.190 -0.0967 -0.8116 -1.9121
  494SOL    HW2 1482   2.576   2.640   0.067 -0.0525  0.9292 -0.8881
  495SOL     OW 1483   2.738   2.671   2.691  0.1124  0.2190 -0.2610
  495SOL    HW1 1484   2.708   2.574   2.671 -1.2249 -0.3697 -4.9052
  495SOL    HW2 1485   2.740   2.730   2.605  0.9297  0.1086  2.2917
  496SOL     OW 1486   2.097   2.198   0.744  0.4387  0.6001  0.1366
  496SOL    HW1 1487   2.088   2.206   0.844  2.2086  3.2689 -1.6997
  496SOL    HW2 1488   2.134   2.104   0.724  0.7991 -3.0242 -0.0077
  497SOL     OW 1489   0.214   2.981   2.404  0.3140  0.2143 -0.2500
  497SOL    HW1 1490   0.134   3.029   2.451 -0.0034 -0.1188  1.7952
  497SOL    HW2 1491   0.270   3.042   2.336  3.5061 -0.6352  1.7098
  498SOL     OW 1492   1.231   1.473   1.133 -0.6485  0.4126 -0.0943
  498SOL    HW1 1493   1.323   1.501   1.183  3.5381  1.1520 -0.8301
  498SOL    HW2 1494   1.149   1.500   1.193  2.0185  0.3068  1.0223
  499SOL     OW 1495   0.842   1.831   0.543  0.3073 -0.7430 -0.0836
  499SOL    HW1 1496   0.812   1.732   0.574 -0.3354 -1.9391  2.4479
  499SOL    HW2 1497   0.851   1.895   0.625 -0.6733  0.6599 -0.5930
  500SOL     OW 1498   1.389   2.977   1.737  0.2524  0.3008  0.7872
  500SOL    HW1 1499   1.434   3.015   1.823 -0.3366  0.5301  0.8858
  500SOL    HW2 1500   1.433   2.889   1.697  0.2328 -2.1675  0.5441
  501SOL     OW 1501   0.730   1.149   2.265  0.0699 -0.0863 -0.0566
  501SOL    HW1 1502   0.665   1.069   2.269  1.3542 -1.3919 -2.4491
  501SOL    HW2 1503   0.804   1.137   2.191  1.8539  1.3113 -2.4180
  502SOL     OW 1504   2.621   0.963   1.734  0.0441 -0.4180  0.3493
  502SOL    HW1 1505   2.615   0.956   1.627 -2.5834  0.1868 -1.7604
  502SOL    HW2 1506   2.576   0.879   1.776 -2.1711 -1.8946 -2.0823
  503SOL     OW 1507   1.363   0.199   0.606 -0.2050 -0.2001  0.1269
  503SOL    HW1 1508   1.297   0.265   0.563 -1.1034  0.8783 -0.6098
  503SOL    HW2 1509   1.459   0.230   0.624  0.4857 -1.0222 -1.3203
  504SOL     OW 1510   2.996   2.356   1.383 -0.1673 -0.2244 -0.0097
  504SOL    HW1 1511   3.005   2.454   1.420 -2.6374  2.8322  1.7436
  504SOL    HW2 1512   2.913   2.308   1.428  0.0499  3.2024 -2.1676
  505SOL     OW 1513   2.288   1.219   1.455 -0.0629  0.2870 -0.3319
  505SOL    HW1 1514   2.268   1.269   1.370  0.7512  0.1577 -0.7446
  505SOL    HW2 1515   2.362   1.270   1.510  0.8130  3.1646  2.3064
  506SOL     OW 1516   1.913   0.256   1.803 -0.4486  0.4410  0.7582
  506SOL    HW1 1517   1.995   0.210   1.763 -1.7937  2.2133  0.1865
  506SOL    HW2 1518   1.939   0.342   1.863  3.9676 -0.4072 -1.2026
  507SOL     OW 1519   0.489   0.639   2.178 -0.1586 -0.2504 -0.2776
  507SOL    HW1 1520   0.404   0.622   2.119  0.6787  2.1008  0.4772
  507SOL    HW2 1521   0.568   0.567   2.173  1.1444  0.2158 -2.0936
  508SOL     OW 1522   0.258   1.678   0.872 -0.5547 -0.0069 -0.1267
  508SOL    HW1 1523   0.342   1.730   0.851 -1.4429 -1.6459 -0.9770
  508SOL    HW2 1524   0.210   1.695   0.965  0.1969  0.8458  0.0487
  509SOL     OW 1525   1.337   1.190   2.513  0.3206 -0.0184  0.5775
  509SOL    HW1 1526   1.245   1.235   2.496 -2.6091  0.2835  0.3658
  509SOL    HW2 1527   1.345   1.102   2.472  4.1051  1.3976  3.3617
  510SOL     OW 1528   1.334   1.961   2.073 -0.1595 -0.5170  0.4357
  510SOL    HW1 1529   1.290   2.043   2.043 -1.1651 -1.3695  0.4690
  510SOL    HW2 1530   1.276   1.911   2.147 -0.3442  1.8359 -0.9739
  511SOL     OW 1531   0.020   2.640   1.333  0.4187  0.0320 -0.1959
  511SOL    HW1 1532  -0.044   2.624   1.252  0.1022  0.3923  2.2806
  511SOL    HW2 1533  -0.028   2.620   1.424  1.6351 -0.1672  1.3260
  512SOL     OW 1534   2.424   0.434   1.358 -0.1637  0.0158 -0.5062
  512SOL    HW1 1535   2.322   0.418   1.378 -0.8925  0.3734 -0.9305
  512SOL    HW2 1536   2.461   0.398   1.269 -2.4904 -2.0791  2.1682
  513SOL     OW 1537   2.478   1.993   0.845  0.4465 -0.1044 -0.2420
  513SOL    HW1 1538   2.436   2.086   0.852  1.7942 -1.2229 -0.8372
  513SOL    HW2 1539   2.568   1.994   0.793  0.7905  0.1454 -1.3985
  514SOL     OW 1540   0.692   2.777   0.378  0.0675 -0.6539 -0.1286
  514SOL    HW1 1541   0.642   2.828   0.298 -0.1219  3.1267 -0.1183
  514SOL    HW2 1542   0.670   2.821   0.472 -0.6537  1.1501  0.1370
  515SOL     OW 1543   1.987   1.188   2.303 -0.6291  0.5365  0.6295
  515SOL    HW1 1544   1.917   1.220   2.237  1.4140 -1.8601 -1.0397
  515SOL    HW2 1545   1.960   1.197   2.398  1.7367 -1.5063  0.2352
  516SOL     OW 1546   0.276   0.303   1.941 -0.3261 -0.0615 -0.0120
  516SOL    HW1 1547   0.364   0.296   1.893 -1.1214 -0.3019  0.5641
  516SOL    HW2 1548   0.203   0.238   1.903 -0.0473  1.8370 -1.5607
  517SOL     OW 1549   0.345   3.049   1.186  0.2094 -0.2648  0.0222
  517SOL    HW1 1550   0.381   3.141   1.224 -1.7372 -1.3313  1.8600
  517SOL    HW2 1551   0.271   3.010   1.255 -3.7378 -0.0355 -0.0752
  518SOL     OW 1552   2.133   0.109   1.757  0.1685  0.8734 -1.1234
  518SOL    HW1 1553   2.228   0.145   1.782  1.4410 -0.7098 -0.9862
  518SOL    HW2 1554   2.133   0.009   1.745 -0.0009  3.6791 -0.6272
  519SOL     OW 1555   2.417   2.180   2.582  0.0033 -0.1441 -0.3157
  519SOL    HW1 1556   2.328   2.175   2.639  0.9393  2.7903 -1.1507
  519SOL    HW2 1557   2.432   2.283   2.563 -0.6020  0.5460  0.1521
  520SOL     OW 1558   1.773   2.892   1.814 -0.1031  0.1130  0.0811
  520SOL    HW1 1559   1.684   2.838   1.837 -2.0609 -2.7312 -0.2291
  520SOL    HW2 1560   1.856   2.827   1.828  1.0322 -0.2865 -1.7025
  521SOL     OW 1561   0.550   0.114   2.111 -0.4769  0.6285  0.8213
  521SOL    HW1 1562   0.460   0.077   2.157 -0.3715  0.2778 -0.0561
  521SOL    HW2 1563   0.627   0.123   2.182  0.1707 -0.6392  1.7564
  522SOL     OW 1564   0.173   1.909   1.544  0.6903  0.2750  1.1423
  522SOL    HW1 1565   0.250   1.936   1.608 -0.6872 -0.9822  0.2231
  522SOL    HW2 1566   0.160   1.981   1.468  1.2994 -1.8147  0.0535
  523SOL     OW 1567   2.188   2.933   1.615  0.1735  0.4349  0.2134
  523SOL    HW1 1568   2.244   2.859   1.563  1.2679 -1.0568 -0.0609
  523SOL    HW2 1569   2.101   2.956   1.564 -1.4405  2.0351  0.4502
  524SOL     OW 1570   0.224   2.734   2.826  0.1932 -0.2067  0.4144
  524SOL    HW1 1571   0.226   2.756   2.929  1.0553 -1.3948 -1.1401
  524SOL    HW2 1572   0.322   2.753   2.782  0.0179  1.6662 -0.8495
  525SOL     OW 1573   2.178   1.910   0.451 -0.4849  0.1573 -0.3677
  525SOL    HW1 1574   2.157   1.840   0.527  0.1529  1.9223  0.8709
  525SOL    HW2 1575   2.220   1.865   0.370  0.8079  2.3751  3.2900
  526SOL     OW 1576   0.396   1.512   1.577 -0.1778  0.6302 -1.5222
  526SOL    HW1 1577   0.332   1.461   1.645  1.2683 -0.5460  0.6533
  526SOL    HW2 1578   0.457   1.443   1.526  1.7335  1.4669  1.8822
  527SOL     OW 1579   1.123   2.922   1.207 -0.3282 -0.2973 -0.6647
  527SOL    HW1 1580   1.201   2.869   1.249 -3.1451  0.0100 -1.7949
  527SOL    HW2 1581   1.135   3.028   1.222  3.4427  0.5506 -0.0854
  528SOL     OW 1582   1.335   2.378   0.460  0.2738 -0.2565 -0.2576
  528SOL    HW1 1583   1.368   2.279   0.439  0.8234 -0.4769  0.1023
  528SOL    HW2 1584   1.389   2.421   0.536 -1.3767 -1.2859  0.2902
  529SOL     OW 1585   1.862   1.719   0.820 -0.2239  0.4060 -0.3267
  529SOL    HW1 1586   1.837   1.737   0.719 -3.0561  1.7786  1.1530
  529SOL    HW2 1587   1.875   1.804   0.875 -0.0827  1.6102 -0.4508
  530SOL     OW 1588   0.295   2.444   0.342  0.7981  0.2572  0.1942
  530SOL    HW1 1589   0.303   2.539   0.388  2.4951  3.5146  2.6421
  530SOL    HW2 1590   0.360   2.373   0.383 -4.0366 -3.1249 -1.0513
  531SOL     OW 1591   1.810   0.862   1.052  0.2333 -0.9395  0.1233
  531SOL    HW1 1592   1.868   0.884   0.977 -1.0555  0.8020 -0.4568
  531SOL    HW2 1593   1.713   0.891   1.035  2.0216 -0.4942 -0.8424
  532SOL     OW 1594   0.494   1.066   0.728  0.1445  0.3819 -0.7929
  532SOL    HW1 1595   0.546   1.062   0.641 -0.4836  0.1645  1.5236
  532SOL    HW2 1596   0.412   1.005   0.733  0.4094  0.2733 -0.5783
  533SOL     OW 1597   1.773   0.040   2.556  0.1515  0.2547 -0.4268
  533SOL    HW1 1598   1.871   0.013   2.579 -2.6438  0.0994  2.5196
  533SOL    HW2 1599   1.743   0.113   2.622  1.0516 -2.7004 -0.5563
  534SOL     OW 1600   0.415   0.186   1.532 -0.1224 -0.3240 -0.1649
  534SOL    HW1 1601   0.512   0.181   1.565  0.1527  0.4642  1.7916
  534SOL    HW2 1602   0.377   0.281   1.550  1.2508  0.8665 -1.2245
  535SOL     OW 1603   1.917   0.372   0.178 -0.5217 -0.6372  0.1862
  535SOL    HW1 1604   1.966   0.454   0.223  0.4190  2.7772 -3.5973
  535SOL    HW2 1605   1.941   0.284   0.231 -0.9896 -0.0420  1.1976
  536SOL     OW 1606   1.383   2.634   0.933 -0.2658  0.2655 -0.7318
  536SOL    HW1 1607   1.343   2.600   1.024 -1.9299  1.6610 -2.2897
  536SOL    HW2 1608   1.303   2.657   0.870  1.5246 -1.3376  2.0991
  537SOL     OW 1609   0.846   0.268   2.395 -0.0678 -0.0722 -0.3596
  537SOL    HW1 1610   0.913   0.310   2.329 -1.4257 -2.1697  0.1898
  537SOL    HW2 1611   0.794   0.188   2.351  1.2223  2.4724  2.2347
  538SOL     OW 1612   1.626   2.322   1.341 -0.1413  0.6473  0.3205
  538SOL    HW1 1613   1.623   2.228   1.383 -1.4675  1.8293 -0.6524
  538SOL    HW2 1614   1.713   2.370   1.367  0.3584 -3.9551 -1.3389
  539SOL     OW 1615   0.130   1.627   2.693 -0.3731 -0.3208 -0.3764
  539SOL    HW1 1616   0.035   1.621   2.654  1.1063  1.4817 -0.3169
  539SOL    HW2 1617   0.150   1.712   2.748  0.9134 -0.1784 -0.8645
  540SOL     OW 1618   2.677   1.699   1.940 -0.3359  0.2393  0.1209
  540SOL    HW1 1619   2.643   1.613   1.984  3.9349  0.9447  2.4369
  540SOL    HW2 1620   2.600   1.766   1.918 -0.2273 -0.4818  0.9294
  541SOL     OW 1621   0.560   2.158   0.020 -0.1667 -0.1087 -0.2993
  541SOL    HW1 1622   0.580   2.142   0.120 -0.5771  0.3538 -0.1864
  541SOL    HW2 1623   0.460   2.136  -0.004 -1.4526 -3.4076 -1.0436
  542SOL     OW 1624   2.239   2.603   0.503 -0.0339 -0.1997  0.4916
  542SOL    HW1 1625   2.198   2.698   0.495  2.9915  0.7501 -0.3441
  542SOL    HW2 1626   2.163   2.530   0.514 -1.6145  3.0598  1.2062
  543SOL     OW 1627   1.080   1.810   1.570  0.4476 -0.0673 -0.0816
  543SOL    HW1 1628   1.109   1.847   1.662  3.5527  0.7480  1.8625
  543SOL    HW2 1629   1.021   1.880   1.515  0.9735 -1.8129  0.9245
  544SOL     OW 1630   1.107   0.512   0.177 -0.0146 -0.0202 -0.0132
  544SOL    HW1 1631   1.088   0.416   0.224 -0.6920 -0.8201 -2.0621
  544SOL    HW2 1632   1.128   0.498   0.074 -1.8471  0.1121 -1.0892
  545SOL     OW 1633   1.089   1.820   0.796  0.1503  0.1131 -0.0025
  545SOL    HW1 1634   1.179   1.821   0.744 -0.7094 -0.2527 -0.6820
  545SOL    HW2 1635   1.070   1.721   0.826  0.4445  1.3975 -0.1210
  546SOL     OW 1636   2.690   1.573   2.983  0.3641  0.5750 -0.3962
  546SOL    HW1 1637   2.676   1.671   2.973 -1.4591 -3.1683 -0.3824
  546SOL    HW2 1638   2.596   1.528   2.985  0.0740  1.4142 -2.3955
  547SOL     OW 1639   0.644   3.063   2.514  0.5696  0.2613  0.0396
  547SOL    HW1 1640   0.715   3.058   2.589 -2.4432 -1.4134 -0.9992
  547SOL    HW2 1641   0.582   2.982   2.510 -1.4085 -1.2979  0.4021
  548SOL     OW 1642   2.058   0.798   3.077 -0.0985 -0.0646  0.1675
  548SOL    HW1 1643   1.963   0.771   3.044 -1.5300 -0.0638  0.3393
  548SOL    HW2 1644   2.071   0.901   3.070  0.2851  0.6166  1.1947
  549SOL     OW 1645   0.701   0.587   0.216  0.3854  0.0942  0.1398
  549SOL    HW1 1646   0.621   0.640   0.173  1.3823  1.3035 -0.7030
  549SOL    HW2 1647   0.786   0.637   0.203 -3.6995  1.1773  0.9715
  550SOL     OW 1648   2.566   2.833   2.864 -0.3361 -0.1767 -0.5314
  550SOL    HW1 1649   2.523   2.774   2.935  1.0616 -0.1997 -3.0028
  550SOL    HW2 1650   2.606   2.770   2.789  0.1701  0.9828  0.2684
  551SOL     OW 1651   0.244   0.897   0.261  0.2263 -0.0428  0.2677
  551SOL    HW1 1652   0.336   0.912   0.216 -1.6858  2.5186 -2.7748
  551SOL    HW2 1653   0.244   0.873   0.364 -0.9054 -1.9275  1.4938
  552SOL     OW 1654   0.595   2.998   1.958 -0.8725 -0.2245  0.4068
  552SOL    HW1 1655   0.583   3.071   2.032  0.0289 -0.7536  0.7152
  552SOL    HW2 1656   0.688   2.997   1.916 -1.6584 -1.5377 -1.0664
  553SOL     OW 1657   2.938   2.402   0.338 -0.1318 -0.3592  0.7660
  553SOL    HW1 1658   2.927   2.305   0.379  2.4461  1.3994 -0.1153
  553SOL    HW2 1659   2.852   2.452   0.323  0.1707  1.0633 -3.3294
  554SOL     OW 1660   2.142   0.367   0.480  0.8162  0.4247  0.3117
  554SOL    HW1 1661   2.233   0.385   0.430  0.8383  0.7236  0.5667
  554SOL    HW2 1662   2.147   0.297   0.552  2.0685  0.0198 -0.5264
  555SOL     OW 1663   0.448   2.843   2.495  0.4893 -0.0636  0.2002
  555SOL    HW1 1664   0.354   2.898   2.481  0.9569 -0.3351 -0.3838
  555SOL    HW2 1665   0.462   2.765   2.430 -2.5744  1.1643 -1.8208
  556SOL     OW 1666   0.852   2.434   1.604 -0.4905 -0.0783  0.4175
  556SOL    HW1 1667   0.876   2.516   1.669  2.5924 -0.7996 -2.7206
  556SOL    HW2 1668   0.924   2.413   1.529  0.1141 -1.3700 -0.1602
  557SOL     OW 1669   0.195   2.072   0.242  0.4268  0.3552  0.2034
  557SOL    HW1 1670   0.132   2.006   0.202  2.1370  3.8027  1.7934
  557SOL    HW2 1671   0.241   2.128   0.170 -0.8356 -0.1204 -0.0468
  558SOL     OW 1672   2.800   2.163   0.421  0.9456 -0.0719 -0.2622
  558SOL    HW1 1673   2.713   2.219   0.404 -0.2219 -0.3847  1.2853
  558SOL    HW2 1674   2.803   2.086   0.343 -1.0293 -0.7135 -0.7169
  559SOL     OW 1675   0.396   2.346   1.413  0.4068  0.1533  0.4346
  559SOL    HW1 1676   0.306   2.305   1.371 -2.2225 -2.4964  0.6249
  559SOL    HW2 1677   0.484   2.307   1.368 -0.9561  2.5292 -0.4957
  560SOL     OW 1678   2.135   1.056   3.069  0.1809 -0.2116  0.3784
  560SOL    HW1 1679   2.142   1.084   3.166 -0.1579  0.1114 -0.1618
  560SOL    HW2 1680   2.199   1.120   3.019 -0.4883 -0.0471  1.9897
  561SOL     OW 1681   0.045   1.896   0.080  0.7072  0.4239  0.2701
  561SOL    HW1 1682   0.025   1.849   0.171 -0.6758  0.7893  1.6148
  561SOL    HW2 1683  -0.040   1.956   0.053 -2.8693  0.4857  1.8858
  562SOL     OW 1684   1.116   2.115   2.292 -0.0099  0.8987 -0.3935
  562SOL    HW1 1685   1.081   2.206   2.314 -0.4796 -3.5533 -0.0570
  562SOL    HW2 1686   1.055   2.040   2.328 -0.2730 -0.9079  0.3760
  563SOL     OW 1687   0.692   2.527   2.644  0.1146  0.2523 -0.1074
  563SOL    HW1 1688   0.783   2.478   2.626  1.6922  0.9301 -1.4298
  563SOL    HW2 1689   0.703   2.590   2.728 -0.7761 -1.0797  2.0426
  564SOL     OW 1690   2.908   1.382   2.885 -0.3275  0.0087  0.0130
  564SOL    HW1 1691   2.847   1.429   2.954 -0.2058  2.9368  1.7047
  564SOL    HW2 1692   2.980   1.445   2.842 -4.0791 -0.3739 -1.8431
  565SOL     OW 1693   2.510   1.940   2.640  0.1465  0.0447 -0.5323
  565SOL    HW1 1694   2.457   2.027   2.613 -0.1467  1.1640 -1.1031
  565SOL    HW2 1695   2.593   1.956   2.701  0.6967 -1.2384  1.3120
  566SOL     OW 1696   1.973   2.885   1.449 -0.1331  0.1272 -0.6742
  566SOL    HW1 1697   1.961   2.783   1.478  0.1155 -0.3504  0.0404
  566SOL    HW2 1698   1.950   2.892   1.349  1.0007 -2.8038  0.1709
  567SOL     OW 1699   2.415   0.024   2.312 -0.5863  0.2531 -0.3029
  567SOL    HW1 1700   2.312   0.038   2.340 -1.4830  2.0201  1.4952
  567SOL    HW2 1701   2.447   0.082   2.232 -0.4913 -1.7506 -0.9212
  568SOL     OW 1702   1.488   1.751   0.310 -0.6771 -0.1502 -0.4130
  568SOL    HW1 1703   1.447   1.829   0.251 -1.3548  1.5787 -0.5864
  568SOL    HW2 1704   1.588   1.769   0.334  1.0126  1.1878 -1.3186
  569SOL     OW 1705   0.253   0.616   0.887  0.2736  0.1433 -0.0398
  569SOL    HW1 1706   0.306   0.564   0.806 -0.9372  1.2783 -1.7357
  569SOL    HW2 1707   0.152   0.598   0.887  1.9175  2.0521 -2.0900
  570SOL     OW 1708   0.604   0.866   2.909  0.5076  0.5622 -0.9718
  570SOL    HW1 1709   0.670   0.889   2.832 -0.6341  0.4999  2.1202
  570SOL    HW2 1710   0.603   0.942   2.980  0.5741  0.6472 -0.1647
  571SOL     OW 1711   0.782   3.079   1.110 -0.6049  0.3305 -0.0705
  571SOL    HW1 1712   0.852   3.097   1.035  0.6571 -1.4858 -1.0165
  571SOL    HW2 1713   0.806   2.988   1.155 -1.1335 -2.4284  0.0731
  572SOL     OW 1714   1.628   2.699   1.406  0.2523 -0.2366 -0.1150
  572SOL    HW1 1715   1.570   2.615   1.399 -2.0149 -2.2126 -1.7222
  572SOL    HW2 1716   1.602   2.778   1.342 -3.4163  0.3289  2.3425
  573SOL     OW 1717   0.030   0.493   1.969 -0.8840  0.4856 -0.0566
  573SOL    HW1 1718  -0.003   0.401   1.988 -1.4552  0.9646 -2.5072
  573SOL    HW2 1719   0.066   0.500   1.871  0.3282  0.6756  3.8344
  574SOL     OW 1720   0.139   1.687   1.139 -0.2205 -1.2031  0.0549
  574SOL    HW1 1721   0.188   1.675   1.229  0.9573 -0.5011  0.6474
  574SOL    HW2 1722   0.055   1.751   1.150  0.9352  3.3427  0.8952
  575SOL     OW 1723   0.890   2.206   0.960  0.1349  0.3783  0.4859
  575SOL    HW1 1724   0.859   2.248   1.049  0.9267  0.2209 -0.8826
  575SOL    HW2 1725   0.928   2.278   0.894  1.1917  2.6604 -0.9977
  576SOL     OW 1726   2.904   2.995   1.714 -0.0117  0.0033  0.2157
  576SOL    HW1 1727   2.807   2.978   1.694 -0.5526  0.8852 -0.6527
  576SOL    HW2 1728   2.940   3.090   1.690  0.2204  0.9329  0.0614
  577SOL     OW 1729   2.661   1.227   3.092 -0.2914  0.3938  0.2138
  577SOL    HW1 1730   2.672   1.137   3.043  2.9685  0.3434  2.4974
  577SOL    HW2 1731   2.660   1.216   3.190 -0.3050 -2.0408 -2.0935
  578SOL     OW 1732   1.450   2.757   2.546 -0.5161 -0.0478 -0.0456
  578SOL    HW1 1733   1.356   2.780   2.504 -0.2839  2.1096  1.6800
  578SOL    HW2 1734   1.526   2.809   2.501 -1.5508  0.0814 -0.5211
  579SOL     OW 1735   0.062   2.410   0.184  0.0346 -0.4916 -0.1842
  579SOL    HW1 1736  -0.025   2.422   0.238 -1.6138 -0.4845 -1.2969
  579SOL    HW2 1737   0.145   2.413   0.248 -1.2170  1.8073  0.0963
  580SOL     OW 1738   0.940   2.677   0.422 -0.1582  0.6134  0.3006
  580SOL    HW1 1739   0.980   2.627   0.338  1.8548  1.5250  2.8627
  580SOL    HW2 1740   0.838   2.684   0.423  0.2779  1.3961  0.8991
  581SOL     OW 1741   1.277   2.704   1.434 -0.2085 -0.2828 -0.4179
  581SOL    HW1 1742   1.348   2.623   1.442  1.8228 -2.0404  0.3803
  581SOL    HW2 1743   1.328   2.793   1.404  0.4822 -1.2955  0.1737
  582SOL     OW 1744   1.486   0.081   1.927 -0.3052 -0.5488 -0.2716
  582SOL    HW1 1745   1.472   0.160   1.997  1.5984  0.7391  2.9469
  582SOL    HW2 1746   1.574   0.097   1.874 -0.5005  0.8687 -0.3684
  583SOL     OW 1747   2.478   3.073   0.552  0.5476 -0.3070  0.0150
  583SOL    HW1 1748   2.553   3.015   0.513 -3.0235 -0.0793 -1.9631
  583SOL    HW2 1749   2.396   3.016   0.580  0.3657  0.9702 -0.0404
  584SOL     OW 1750   1.609   1.102   2.312  0.2781 -0.9382 -0.4089
  584SOL    HW1 1751   1.658   1.176   2.262  2.0434  2.4650 -1.5919
  584SOL    HW2 1752   1.668   1.020   2.328 -1.2849 -4.3180 -0.6067
  585SOL     OW 1753   2.058   2.663   2.883  0.1503  0.1698 -0.2340
  585SOL    HW1 1754   2.113   2.572   2.871 -1.6274 -2.2095  0.4128
  585SOL    HW2 1755   1.959   2.654   2.859 -1.5185  0.0487 -0.5884
  586SOL     OW 1756   2.917   0.396   1.565  0.3896 -0.0561  0.6083
  586SOL    HW1 1757   2.902   0.488   1.611  1.0075  0.3593  1.5202
  586SOL    HW2 1758   2.852   0.373   1.479 -1.2767 -0.6035 -0.1227
  587SOL     OW 1759   2.133   1.475   2.699  0.6012 -0.3491  0.4984
  587SOL    HW1 1760   2.135   1.405   2.621 -0.2365  0.9250 -1.6411
  587SOL    HW2 1761   2.229   1.508   2.726  1.6606  2.3847 -2.9264
  588SOL     OW 1762   0.510   2.664   2.278 -0.4753 -0.7522 -0.6852
  588SOL    HW1 1763   0.507   2.691   2.183 -1.8127 -2.4261 -0.5021
  588SOL    HW2 1764   0.477   2.565   2.294  1.3976  0.4456 -0.4295
  589SOL     OW 1765   2.176   1.291   2.480  0.0057  0.0497 -0.0455
  589SOL    HW1 1766   2.133   1.254   2.390 -1.1156 -0.7505 -0.8849
  589SOL    HW2 1767   2.278   1.281   2.484  2.0085  1.3989 -0.6132
  590SOL     OW 1768   2.325   1.706   2.066 -0.5235 -0.2005  0.2350
  590SOL    HW1 1769   2.378   1.618   2.045  0.3525 -1.5461 -2.2935
  590SOL    HW2 1770   2.334   1.745   2.163 -0.2283  2.4273  0.8003
  591SOL     OW 1771   1.253   2.386   0.195  0.8184  0.1445 -0.7453
  591SOL    HW1 1772   1.288   2.297   0.152 -0.0278  3.1838  3.2307
  591SOL    HW2 1773   1.274   2.391   0.295  0.8302  1.0504  0.5753
  592SOL     OW 1774   1.799   2.356   0.794  0.0258  0.5373  0.0573
  592SOL    HW1 1775   1.791   2.392   0.698 -2.3496 -1.5321 -1.4578
  592SOL    HW2 1776   1.896   2.332   0.820 -1.7553  0.3687 -1.3556
  593SOL     OW 1777   0.768   0.312   0.253  0.4321 -0.3899  0.0319
  593SOL    HW1 1778   0.816   0.270   0.173  0.2198 -1.8806 -1.5422
  593SOL    HW2 1779   0.726   0.406   0.235  1.3278 -0.7237  3.0000
  594SOL     OW 1780   1.056   1.809   2.658 -0.0522 -0.5353 -0.3097
  594SOL    HW1 1781   1.150   1.808   2.615  0.7366 -0.7553  0.9567
  594SOL    HW2 1782   1.041   1.864   2.744  0.3870 -0.2922 -3.2325
  595SOL     OW 1783   1.509   0.107   0.981 -0.0559  0.3330  0.0138
  595SOL    HW1 1784   1.577   0.034   0.956  1.2196  0.2433  1.6464
  595SOL    HW2 1785   1.426   0.085   0.926  1.3897 -0.5983  0.8321
  596SOL     OW 1786   0.097   1.473   2.250  0.4572  0.2547 -0.1329
  596SOL    HW1 1787   0.018   1.440   2.308  2.4386 -2.6155 -1.0559
  596SOL    HW2 1788   0.168   1.526   2.306  3.1314 -1.5011  2.9728
  597SOL     OW 1789   2.009   2.669   1.819  0.4624 -0.1689 -0.0180
  597SOL    HW1 1790   1.959   2.627   1.741  1.5100  1.7304  4.5438
  597SOL    HW2 1791   2.108   2.651   1.819 -0.0547  0.8292  0.6183
  598SOL     OW 1792   2.525   2.862   1.250 -0.5818 -0.3265  1.0515
  598SOL    HW1 1793   2.623   2.886   1.272  1.3625  1.8934 -1.3524
  598SOL    HW2 1794   2.513   2.771   1.200  0.6296 -1.3863 -1.0104
  599SOL     OW 1795   2.829   0.244   2.519  0.7936  0.0044 -0.2808
  599SOL    HW1 1796   2.909   0.247   2.450  1.1873 -1.5947  1.5975
  599SOL    HW2 1797   2.776   0.334   2.531 -0.1767 -2.4271  2.3886
  600SOL     OW 1798   2.790   1.158   2.761 -0.1832 -0.3283  0.3125
  600SOL    HW1 1799   2.728   1.106   2.830 -0.4062 -0.8739  2.1984
  600SOL    HW2 1800   2.810   1.253   2.792  0.0555 -2.0712  2.5625
  601SOL     OW 1801   2.964   1.338   2.004  0.2198  0.5865 -0.1300
  601SOL    HW1 1802   2.884   1.357   1.943 -0.6745 -2.5035 -1.9545
  601SOL    HW2 1803   3.036   1.412   2.000 -1.2097 -0.8245  1.1053
  602SOL     OW 1804   1.521   1.554   2.274  0.6998 -0.4007  0.0348
  602SOL    HW1 1805   1.437   1.555   2.340  0.1632  3.8203  2.3940
  602SOL    HW2 1806   1.604   1.597   2.315  0.1852  1.5512 -0.2616
  603SOL     OW 1807   0.640   1.196   2.711 -0.2498  0.3553  0.4120
  603SOL    HW1 1808   0.550   1.237   2.676 -0.9554  2.0016 -0.4657
  603SOL    HW2 1809   0.644   1.095   2.693 -3.4054  0.1537 -1.8528
  604SOL     OW 1810   2.494   1.019   0.213  0.0611  0.9143 -0.1361
  604SOL    HW1 1811   2.585   1.063   0.238 -1.0157  0.5871 -0.7302
  604SOL    HW2 1812   2.500   0.962   0.124  1.4502  0.8938 -1.3948
  605SOL     OW 1813   2.540   1.124   1.971  0.4626  0.3882 -0.3127
  605SOL    HW1 1814   2.557   1.091   1.875 -1.9368  0.6704 -1.3845
  605SOL    HW2 1815   2.588   1.208   2.000  2.5662  1.2221 -2.1377
  606SOL     OW 1816   1.503   2.488   2.562  0.1089 -0.6920 -0.3353
  606SOL    HW1 1817   1.459   2.582   2.560 -0.0068 -2.7668  2.3413
  606SOL    HW2 1818   1.452   2.419   2.503 -0.2024 -0.6985 -3.2255
  607SOL     OW 1819   1.278   1.584   0.221 -0.6155  0.3157  0.0275
  607SOL    HW1 1820   1.198   1.643   0.247 -0.1846  2.0833  0.7729
  607SOL    HW2 1821   1.371   1.619   0.260 -0.9534 -1.0094 -0.9430
  608SOL     OW 1822   1.396   2.848   0.380 -0.5426 -0.5984 -0.5074
  608SOL    HW1 1823   1.442   2.862   0.287  1.0841 -0.9250 -0.7108
  608SOL    HW2 1824   1.335   2.923   0.410 -0.8477 -1.9797  0.5586
  609SOL     OW 1825   1.348   1.331   0.167  0.2441 -0.2116  0.5180
  609SOL    HW1 1826   1.328   1.434   0.178 -1.0633 -2.4993  1.1494
  609SOL    HW2 1827   1.309   1.292   0.074 -1.4448 -0.4595 -2.5953
  610SOL     OW 1828   3.010   1.224   2.264 -0.2451  0.0833 -0.1661
  610SOL    HW1 1829   2.999   1.119   2.270  0.1374  0.5699 -0.0716
  610SOL    HW2 1830   2.992   1.262   2.169 -1.0696  1.4912  3.0246
  611SOL     OW 1831   2.541   0.253   1.128  0.7006 -0.1609 -0.7680
  611SOL    HW1 1832   2.503   0.159   1.156 -0.7920 -2.5026  1.9291
  611SOL    HW2 1833   2.633   0.268   1.171  2.5726 -0.0247  1.2360
  612SOL     OW 1834   0.800   2.334   1.208 -0.1825  0.3208  0.8135
  612SOL    HW1 1835   0.740   2.275   1.274  0.4311  0.0449  3.0583
  612SOL    HW2 1836   0.748   2.411   1.165 -0.5570 -1.9966  0.0529
  613SOL     OW 1837   0.797   1.394   2.359 -0.2594 -0.1030  0.6257
  613SOL    HW1 1838   0.781   1.476   2.293  0.5107  0.6984  0.3725
  613SOL    HW2 1839   0.764   1.302   2.313 -1.1172  0.8480 -2.9530
  614SOL     OW 1840   1.547   1.670   1.839 -0.5048 -0.2761  0.3285
  614SOL    HW1 1841   1.523   1.756   1.779 -1.1680 -0.3030 -2.1824
  614SOL    HW2 1842   1.645   1.677   1.878  0.7466  2.3022  0.6366
  615SOL     OW 1843   0.722   1.411   1.711 -0.2086  0.2114 -0.4250
  615SOL    HW1 1844   0.675   1.380   1.628  1.0679  1.4243  0.6755
  615SOL    HW2 1845   0.799   1.484   1.691  0.3460  4.0887 -0.1585
  616SOL     OW 1846   1.134   1.565   2.210  0.2763  0.1376  0.7012
  616SOL    HW1 1847   1.036   1.533   2.214 -0.6806 -0.4979  1.1999
  616SOL    HW2 1848   1.157   1.603   2.114  1.0779 -1.2330  0.8543
  617SOL     OW 1849   3.036   1.538   1.634 -0.0645 -0.1108 -0.2435
  617SOL    HW1 1850   3.022   1.461   1.699 -0.6834  0.1751 -0.8192
  617SOL    HW2 1851   3.056   1.507   1.539  2.7186  1.9408 -1.4109
  618SOL     OW 1852   1.948   1.976   1.470 -0.7064  0.1607  0.3603
  618SOL    HW1 1853   2.029   1.976   1.410 -2.1238 -0.6517 -0.1918
  618SOL    HW2 1854   1.933   1.883   1.511 -1.9273 -0.9180  0.1158
  619SOL     OW 1855   1.727   0.512   2.339  0.5836 -0.3540  0.2686
  619SOL    HW1 1856   1.658   0.571   2.287 -0.2780 -3.9402 -2.9826
  619SOL    HW2 1857   1.692   0.414   2.364  1.0120  0.3425 -0.1552
  620SOL     OW 1858   2.249   2.926   0.641 -0.2847 -0.1396  0.1107
  620SOL    HW1 1859   2.149   2.945   0.645  1.3286 -0.5245  0.8626
  620SOL    HW2 1860   2.290   2.919   0.737  0.9109  0.0181  2.0935
  621SOL     OW 1861   2.192   1.897   1.349 -0.3705  0.0082 -0.3109
  621SOL    HW1 1862   2.204   1.875   1.451 -1.0594  0.9799  1.2622
  621SOL    HW2 1863   2.191   1.810   1.294  0.3097  0.1491 -0.4999
  622SOL     OW 1864   2.209   0.962   1.840 -0.1854  0.6931  0.1798
  622SOL    HW1 1865   2.285   0.896   1.865  3.0650  1.7551 -0.5142
  622SOL    HW2 1866   2.118   0.937   1.883  0.5512  2.4299 -1.4694
  623SOL     OW 1867   1.285   0.843   2.576 -0.1344  0.6524 -0.1422
  623SOL    HW1 1868   1.226   0.796   2.644 -0.7348  1.8523  0.3931
  623SOL    HW2 1869   1.239   0.848   2.486 -3.3868 -0.8654  0.0083
  624SOL     OW 1870   0.516   0.715   0.046  0.0075  0.4814  0.5209
  624SOL    HW1 1871   0.582   0.716  -0.034 -1.4189 -3.2730  0.5868
  624SOL    HW2 1872   0.501   0.810   0.094 -1.8785 -4.6713  2.8359
  625SOL     OW 1873   2.744   1.707   0.853  0.4201  0.3593 -0.5312
  625SOL    HW1 1874   2.668   1.742   0.911  0.9044  2.2587 -1.2343
  625SOL    HW2 1875   2.747   1.604   0.843 -1.0403  0.0117 -2.7275
  626SOL     OW 1876   0.490   2.743   2.015 -0.2344  0.6252  1.0453
  626SOL    HW1 1877   0.541   2.835   1.996  1.1441  0.0439  1.8009
  626SOL    HW2 1878   0.393   2.740   1.974 -0.6087  0.7874  1.0992
  627SOL     OW 1879   0.752   1.071   1.511  0.0627 -0.1073  0.1364
  627SOL    HW1 1880   0.737   0.968   1.483 -1.6009 -2.5672 -0.5687
  627SOL    HW2 1881   0.842   1.111   1.489  1.1895  0.6836  0.7598
  628SOL     OW 1882   2.430   0.179   0.732  0.4782  0.0434  0.0790
  628SOL    HW1 1883   2.450   0.097   0.673 -1.5222 -1.3529  1.3416
  628SOL    HW2 1884   2.324   0.184   0.756 -2.3483 -1.5558 -1.3066
  629SOL     OW 1885   1.991   0.948   2.000 -0.0019  0.0897 -0.0068
  629SOL    HW1 1886   2.067   0.965   2.072  1.0011 -1.4256 -1.7937
  629SOL    HW2 1887   1.932   1.027   1.975 -2.3670 -0.3656  0.8289
  630SOL     OW 1888   2.818   2.206   0.753  0.1252  0.2926 -0.4282
  630SOL    HW1 1889   2.750   2.276   0.781 -1.1216 -0.7999  1.5530
  630SOL    HW2 1890   2.778   2.112   0.714 -1.7391  0.4329  1.7277
  631SOL     OW 1891   3.029   0.239   2.129  0.0318 -0.3310 -0.2834
  631SOL    HW1 1892   3.104   0.273   2.188 -1.0575  2.0941 -0.8048
  631SOL    HW2 1893   3.055   0.177   2.050 -1.2399  0.2188  2.2215
  632SOL     OW 1894   2.307   2.561   0.754 -0.7876 -0.5694  0.1144
  632SOL    HW1 1895   2.403   2.579   0.799 -0.3913  1.5958  2.8777
  632SOL    HW2 1896   2.292   2.587   0.655 -1.7730 -0.3861 -1.4070
  633SOL     OW 1897   1.596   1.278   2.650 -0.0155 -0.9266  0.6816
  633SOL    HW1 1898   1.549   1.345   2.713 -0.9760 -0.7048  0.4062
  633SOL    HW2 1899   1.536   1.253   2.570  2.3117 -0.3181 -1.1098
  634SOL     OW 1900   0.619   2.069   0.986  0.0014 -0.0943  0.0416
  634SOL    HW1 1901   0.523   2.100   1.018  2.7246 -0.5701 -1.3165
  634SOL    HW2 1902   0.693   2.134   1.008  2.7311 -2.5957 -0.3540
  635SOL     OW 1903   0.071   2.243   3.065  0.3328 -0.0660 -1.1719
  635SOL    HW1 1904   0.033   2.266   2.975 -0.2381  1.8558  1.4635
  635SOL    HW2 1905   0.054   2.320   3.131 -1.7022 -3.6496  3.0895
  636SOL     OW 1906   2.317   2.858   2.037  0.3590  0.7852  0.0872
  636SOL    HW1 1907   2.301   2.956   2.038 -1.3001 -0.9095  2.8041
  636SOL    HW2 1908   2.266   2.803   2.110 -0.1304 -1.0772  0.4915
  637SOL     OW 1909   2.595   0.723   2.056  0.1683 -0.9574  0.0758
  637SOL    HW1 1910   2.567   0.737   1.957  0.8411  2.4712 -0.0371
  637SOL    HW2 1911   2.650   0.805   2.091 -0.8630 -0.6125 -0.3484
  638SOL     OW 1912   2.497   1.887   1.384 -0.4136  0.6853  0.6390
  638SOL    HW1 1913   2.397   1.905   1.358 -0.5407 -0.0401 -1.3358
  638SOL    HW2 1914   2.505   1.787   1.411  2.0590 -4.0554  1.2448
  639SOL     OW 1915   1.296   2.238   1.572  0.1240 -0.2449 -0.5084
  639SOL    HW1 1916   1.286   2.156   1.511  1.1348 -0.6985  2.9840
  639SOL    HW2 1917   1.222   2.236   1.650 -1.7887 -0.8846 -1.2906
  640SOL     OW 1918   0.213   1.244   1.524 -0.1581 -0.5275  0.5291
  640SOL    HW1 1919   0.190   1.269   1.620  1.6302  0.1969  0.0771
  640SOL    HW2 1920   0.282   1.168   1.514  3.8542 -0.3745 -1.9922
  641SOL     OW 1921   1.943   0.214   1.451 -0.5248  0.4245  0.0227
  641SOL    HW1 1922   1.849   0.264   1.472  0.7768 -0.5839 -0.2900
  641SOL    HW2 1923   1.968   0.147   1.522 -0.4606  1.5127  0.4061
  642SOL     OW 1924   1.989   0.091   0.297 -0.1099  0.1950 -0.4410
  642SOL    HW1 1925   2.093   0.101   0.309 -1.5602 -1.3896 -3.4631
  642SOL    HW2 1926   1.944   0.076   0.390  0.5401 -0.2300  1.2278
  643SOL     OW 1927   2.835   1.834   2.110 -0.5475 -0.3785  0.0611
  643SOL    HW1 1928   2.775   1.769   2.055 -0.0684  0.7642 -2.2722
  643SOL    HW2 1929   2.838   1.930   2.070 -1.6374  0.2104 -1.6029
  644SOL     OW 1930   2.163   2.272   1.235 -0.0594 -0.4126  0.1943
  644SOL    HW1 1931   2.256   2.232   1.203 -1.0016 -3.8435 -1.8498
  644SOL    HW2 1932   2.166   2.328   1.328  2.2781  2.1826 -0.5302
  645SOL     OW 1933   0.627   0.887   1.167  0.7630  0.2412 -0.3723
  645SOL    HW1 1934   0.584   0.809   1.113 -0.0625 -0.1620  0.8999
  645SOL    HW2 1935   0.650   0.958   1.094  1.4960  0.3971  0.9006
  646SOL     OW 1936   1.462   1.961   1.772 -0.2685  0.0427 -0.0156
  646SOL    HW1 1937   1.538   2.032   1.754  0.6032 -3.9901  0.4787
  646SOL    HW2 1938   1.411   1.975   1.863  0.5919  0.3380  1.5919
  647SOL     OW 1939   0.863   0.905   0.660  0.1381  0.5662 -0.2490
  647SOL    HW1 1940   0.961   0.897   0.704  0.3638 -1.4775  2.1134
  647SOL    HW2 1941   0.789   0.842   0.701  2.2126 -0.2431 -1.9975
  648SOL     OW 1942   0.210   0.223   0.329 -0.1907  0.2645  0.1294
  648SOL    HW1 1943   0.220   0.143   0.259 -0.8316  2.9778  0.7351
  648SOL    HW2 1944   0.157   0.297   0.283 -1.0016 -3.3827  0.5418
  649SOL     OW 1945   3.091   0.049   0.925 -0.1994 -0.6294  0.1905
  649SOL    HW1 1946   3.196   0.069   0.904  0.5697 -3.2407 -1.4234
  649SOL    HW2 1947   3.081   0.061   1.027  1.2556 -1.2622 -0.6063
  650SOL     OW 1948   2.721   0.718   1.433 -0.0403  0.3854  0.2360
  650SOL    HW1 1949   2.634   0.729   1.480  1.7853 -0.8071  1.7432
  650SOL    HW2 1950   2.728   0.776   1.351  0.6737 -0.7736  0.9405
  651SOL     OW 1951   0.914   1.594   1.581 -0.3667 -0.2421 -0.4255
  651SOL    HW1 1952   0.977   1.682   1.573  1.9397  1.7717 -2.2306
  651SOL    HW2 1953   0.822   1.616   1.533  0.8170  1.5512  0.4348
  652SOL     OW 1954   2.311   2.523   2.386  0.3181 -0.4072  0.6293
  652SOL    HW1 1955   2.231   2.499   2.442 -0.6483  1.6685 -1.5213
  652SOL    HW2 1956   2.293   2.599   2.312  2.3126  0.9206 -1.0855
  653SOL     OW 1957   2.715   1.167   0.287  0.6243 -0.4974 -0.1023
  653SOL    HW1 1958   2.751   1.262   0.302 -0.6926  0.3677  1.4176
  653SOL    HW2 1959   2.792   1.097   0.289 -0.8475  0.8795  0.9464
  654SOL     OW 1960   1.206   2.253   1.213  0.1918 -0.5077 -0.2345
  654SOL    HW1 1961   1.267   2.199   1.277 -2.0726 -0.2425  1.4234
  654SOL    HW2 1962   1.243   2.266   1.118  0.3507  1.0330  2.4708
  655SOL     OW 1963   0.235   1.053   1.838 -0.0594 -0.2662  0.0394
  655SOL    HW1 1964   0.272   0.967   1.798 -0.9169 -1.9181 -0.2195
  655SOL    HW2 1965   0.294   1.134   1.830 -3.9531 -2.2677 -0.9854
  656SOL     OW 1966   2.501   2.464   2.563  0.2315 -0.3141 -0.0880
  656SOL    HW1 1967   2.605   2.464   2.546 -0.0809  1.9717  1.2388
  656SOL    HW2 1968   2.445   2.498   2.476  0.1148 -0.4169 -3.6494
  657SOL     OW 1969   3.066   1.107   1.839  0.3255  0.2133 -0.0004
  657SOL    HW1 1970   3.035   1.179   1.910 -0.3047  0.0993 -0.3425
  657SOL    HW2 1971   3.169   1.093   1.838  1.0060  1.0345 -1.5217
  658SOL     OW 1972   1.681   0.233   2.378  0.4664  0.6810 -0.0283
  658SOL    HW1 1973   1.705   0.154   2.447  2.4687 -1.4050  2.5440
  658SOL    HW2 1974   1.738   0.239   2.291 -0.5558  0.7024  2.1092
  659SOL     OW 1975   1.414   0.577   2.870  0.1029  0.3222 -0.1127
  659SOL    HW1 1976   1.492   0.643   2.896  1.4134 -0.5560  1.7148
  659SOL    HW2 1977   1.325   0.630   2.845  0.0206  0.9533  0.3016
  660SOL     OW 1978   1.418   0.393   1.382 -0.2880 -0.0283  0.3527
  660SOL    HW1 1979   1.446   0.420   1.482 -0.7987  0.2541 -0.0285
  660SOL    HW2 1980   1.482   0.321   1.346  0.1392 -0.0377 -0.5430
  661SOL     OW 1981   2.456   1.164   0.679  0.1037 -0.1192  0.0693
  661SOL    HW1 1982   2.497   1.102   0.607 -0.9299  0.1797 -2.2773
  661SOL    HW2 1983   2.421   1.255   0.644  1.8965  0.6465  1.0953
  662SOL     OW 1984   1.286   0.446   1.825 -0.0599  0.4774  0.3819
  662SOL    HW1 1985   1.257   0.357   1.791 -1.1673  1.2139  1.0730
  662SOL    HW2 1986   1.218   0.493   1.884  0.0025 -0.0653 -0.3597
  663SOL     OW 1987   0.833   1.593   2.173  0.1189 -0.1381 -0.4452
  663SOL    HW1 1988   0.804   1.681   2.214 -3.4250 -0.5327  1.3257
  663SOL    HW2 1989   0.777   1.565   2.090  0.6781  1.7439 -1.4970
  664SOL     OW 1990   1.666   2.045   1.397  0.1173  0.5215  0.2742
  664SOL    HW1 1991   1.592   1.975   1.429 -1.6156  0.4731 -1.4642
  664SOL    HW2 1992   1.761   2.016   1.424 -1.7896 -2.6737  1.8779
  665SOL     OW 1993   2.293   0.630   1.987  0.2456 -0.2442  0.0995
  665SOL    HW1 1994   2.303   0.535   2.026 -2.7247 -0.6410  0.2136
  665SOL    HW2 1995   2.202   0.672   2.011 -0.2201 -2.2860  1.6500
  666SOL     OW 1996   0.510   2.288   0.472  0.1044 -0.4869  0.4491
  666SOL    HW1 1997   0.564   2.381   0.464 -0.5639  0.0074  1.4657
  666SOL    HW2 1998   0.452   2.286   0.559  0.1111 -1.1327  4.0882
  667SOL     OW 1999   2.081   0.275   0.983  0.3343 -0.3905 -0.2166
  667SOL    HW1 2000   2.140   0.353   1.012 -3.6663  0.6105  0.9958
  667SOL    HW2 2001   1.995   0.265   1.042 -1.1261 -1.8937 -0.3617
  668SOL     OW 2002   1.974   0.492   1.202 -0.6507  0.6225  0.0861
  668SOL    HW1 2003   2.031   0.538   1.131 -2.0211 -2.9483  0.3665
  668SOL    HW2 2004   2.033   0.460   1.282 -1.6110  1.1302  2.2433
  669SOL     OW 2005   2.995   2.072   0.937 -0.4768  0.2293  0.5062
  669SOL    HW1 2006   2.932   2.106   0.854 -1.7123 -0.5457 -1.1568
  669SOL    HW2 2007   2.986   2.132   1.028  0.2272  1.2748  1.4880
  670SOL     OW 2008   2.793   2.351   2.011 -0.2098 -0.3784 -0.0136
  670SOL    HW1 2009   2.759   2.337   2.107 -1.8295 -1.2916  0.4690
  670SOL    HW2 2010   2.785   2.451   1.976 -1.1489 -0.2521  1.9200
  671SOL     OW 2011   1.710   1.652   1.455 -0.5141  0.9288 -0.0068
  671SOL    HW1 2012   1.704   1.724   1.386 -0.1512 -2.9911  1.5080
  671SOL    HW2 2013   1.699   1.554   1.424  0.5259  0.5084  1.4829
  672SOL     OW 2014   0.425   0.687   2.430  0.1937 -0.0875  0.4650
  672SOL    HW1 2015   0.444   0.675   2.328 -1.2505 -0.0326 -0.7894
  672SOL    HW2 2016   0.335   0.734   2.450  4.0616 -0.0908  0.0575
  673SOL     OW 2017   0.160   1.212   1.134 -0.0873  0.1159  0.8042
  673SOL    HW1 2018   0.191   1.279   1.209  1.8333  3.7817  0.5555
  673SOL    HW2 2019   0.239   1.155   1.097  1.8155 -0.2330 -0.3882
  674SOL     OW 2020   1.537   2.845   0.133 -0.2752 -0.0829  0.2313
  674SOL    HW1 2021   1.605   2.921   0.104  2.1385  2.0986  0.5937
  674SOL    HW2 2022   1.578   2.750   0.127  2.3284  1.8581 -0.4697
  675SOL     OW 2023   1.730   0.842   2.335  0.6277  1.1129 -0.0155
  675SOL    HW1 2024   1.830   0.835   2.320 -3.1553  1.5702 -2.4032
  675SOL    HW2 2025   1.678   0.774   2.279  1.2123  1.1521  1.0267
  676SOL     OW 2026   2.509   1.503   2.029  0.3847 -0.2126  0.4740
  676SOL    HW1 2027   2.477   1.475   1.933  1.3636  0.4913 -0.5797
  676SOL    HW2 2028   2.563   1.421   2.076  1.6938 -1.2233  0.3651
  677SOL     OW 2029   1.830   0.532   0.946  0.8141  0.4715  0.2335
  677SOL    HW1 2030   1.875   0.583   1.026 -0.9953  1.0330 -0.0522
  677SOL    HW2 2031   1.746   0.479   0.974  3.7935 -0.4692  0.5263
  678SOL     OW 2032   0.107   0.812   1.678 -0.1517  0.6682 -0.3097
  678SOL    HW1 2033   0.198   0.813   1.731  2.2407 -1.3800 -0.4378
  678SOL    HW2 2034   0.022   0.793   1.736  1.1244 -0.3392  1.5511
  679SOL     OW 2035   2.549   1.157   1.134 -0.3279 -0.7461  0.1160
  679SOL    HW1 2036   2.455   1.189   1.172 -1.0557  0.7730  0.6419
  679SOL    HW2 2037   2.543   1.063   1.081 -1.4575 -1.1075 -0.5370
  680SOL     OW 2038   2.841   0.650   1.677 -0.2133  0.0420 -0.1528
  680SOL    HW1 2039   2.811   0.680   1.580 -0.3382 -0.7723  2.1433
  680SOL    HW2 2040   2.878   0.731   1.735  1.5797 -0.1774 -0.9170
  681SOL     OW 2041   3.047   0.149   1.648  0.5438 -0.6525 -0.2293
  681SOL    HW1 2042   3.113   0.128   1.569 -0.6982 -2.1896  0.3455
  681SOL    HW2 2043   2.992   0.234   1.630 -0.5065 -0.3524 -0.4483
  682SOL     OW 2044   0.712   0.047   1.370 -0.4372 -1.1469 -0.3020
  682SOL    HW1 2045   0.649  -0.023   1.417  1.2911 -0.2291 -3.5232
  682SOL    HW2 2046   0.712   0.030   1.266 -1.4561 -1.5785 -0.3230
  683SOL     OW 2047   1.378   0.241   2.179 -0.1207  0.3371 -0.3765
  683SOL    HW1 2048   1.361   0.270   2.279 -1.0568 -2.8982  3.3511
  683SOL    HW2 2049   1.463   0.287   2.132  0.9988 -0.6647  0.4710
  684SOL     OW 2050   1.421   2.115   0.485 -0.0692 -0.2675 -0.5222
  684SOL    HW1 2051   1.487   2.036   0.506 -0.4952  0.8383  2.5960
  684SOL    HW2 2052   1.333   2.079   0.443  0.2390 -1.3994  0.4218
  685SOL     OW 2053   2.127   1.904   1.957  0.2628  1.1368 -0.0708
  685SOL    HW1 2054   2.172   1.986   1.916 -0.8526 -0.7453  0.5775
  685SOL    HW2 2055   2.190   1.827   1.988 -2.0923 -1.8660 -0.9631
  686SOL     OW 2056   1.556   1.773   2.779 -0.2238 -0.7121  0.3669
  686SOL    HW1 2057   1.583   1.688   2.727 -1.8713 -0.9965  0.2643
  686SOL    HW2 2058   1.574   1.767   2.879 -1.0684 -0.3631 -2.9439
  687SOL     OW 2059   1.340   2.507   1.915  0.1737 -0.5661 -0.4665
  687SOL    HW1 2060   1.377   2.429   1.860  1.3654 -1.2806  2.9742
  687SOL    HW2 2061   1.406   2.536   1.984  1.2740 -0.1072 -0.0938
  688SOL     OW 2062   2.083   1.460   1.617  0.0122  1.6047 -0.4263
  688SOL    HW1 2063   2.179   1.486   1.584 -0.6153  0.1056 -0.2642
  688SOL    HW2 2064   2.034   1.393   1.553 -0.8435 -1.1532  0.2309
  689SOL     OW 2065   2.448   1.104   2.757 -0.2071  0.0511 -0.4244
  689SOL    HW1 2066   2.372   1.032   2.769  0.9276 -1.1595  0.1058
  689SOL    HW2 2067   2.526   1.080   2.816 -2.7825  0.0613 -1.6717
  690SOL     OW 2068   2.202   2.769   3.093  0.0428 -0.5197 -0.0858
  690SOL    HW1 2069   2.143   2.730   3.016 -0.0356 -0.4682  0.5366
  690SOL    HW2 2070   2.136   2.777   3.175  2.4735  0.4816 -1.5521
  691SOL     OW 2071   2.559   0.490   2.177  0.0260 -0.2274 -0.0706
  691SOL    HW1 2072   2.633   0.425   2.140 -0.1930 -0.7436  3.5200
  691SOL    HW2 2073   2.568   0.586   2.131  3.4851  0.3319  3.2426
  692SOL     OW 2074   2.739   1.229   0.683 -0.1142  0.0904  0.1410
  692SOL    HW1 2075   2.635   1.231   0.708  0.1515  0.8961  1.9902
  692SOL    HW2 2076   2.790   1.291   0.749 -0.9241  0.7735  0.1867
  693SOL     OW 2077   2.862   2.962   0.573 -0.2321 -0.2693 -0.5157
  693SOL    HW1 2078   2.866   3.060   0.613  0.4889 -2.4314  1.4026
  693SOL    HW2 2079   2.784   2.955   0.499 -1.1942  4.0068  2.5931
  694SOL     OW 2080   2.373   2.131   0.065 -0.6477 -0.6009  0.1996
  694SOL    HW1 2081   2.358   2.233   0.081 -0.5198  2.1290 -0.9804
  694SOL    HW2 2082   2.279   2.076   0.080  0.5272 -1.4909 -0.7231
  695SOL     OW 2083   0.550   2.966   1.489  0.2748 -0.1633  0.1753
  695SOL    HW1 2084   0.498   2.887   1.446  0.5806 -2.1516  1.3928
  695SOL    HW2 2085   0.496   2.999   1.573 -0.0019 -1.9671 -1.5626
  696SOL     OW 2086   2.700   1.951   0.692 -0.3997  0.5317 -0.3554
  696SOL    HW1 2087   2.743   1.873   0.743  1.7403 -0.6731  0.0746
  696SOL    HW2 2088   2.627   1.917   0.620 -1.7477 -2.6607 -0.8317
  697SOL     OW 2089   1.705   2.129   1.759 -0.5619 -0.7069 -0.2179
  697SOL    HW1 2090   1.762   2.046   1.764 -0.9965  2.8976 -1.1961
  697SOL    HW2 2091   1.761   2.212   1.735  1.0268 -1.9715  1.1623
  698SOL     OW 2092   2.925   0.343   2.757 -0.0916 -0.3689  0.4874
  698SOL    HW1 2093   2.913   0.300   2.664 -1.3555  1.3167  2.7686
  698SOL    HW2 2094   2.986   0.285   2.810  0.2726 -0.6737  0.7781
  699SOL     OW 2095   1.566   0.093   2.935 -0.3692  0.2784  0.3321
  699SOL    HW1 2096   1.540  -0.004   2.909  1.2494  2.7736 -1.5157
  699SOL    HW2 2097   1.611   0.149   2.859 -2.5746 -1.1982  0.4839
  700SOL     OW 2098   0.993   2.369   1.388 -1.2317 -0.5105  0.0212
  700SOL    HW1 2099   1.091   2.332   1.379  0.8066 -0.2072  1.6769
  700SOL    HW2 2100   0.928   2.344   1.314  0.4529  1.5051  0.4239
  701SOL     OW 2101   1.847   2.795   0.050  0.0263 -0.0505  0.5296
  701SOL    HW1 2102   1.868   2.766   0.148  2.1142 -2.5608 -1.7698
  701SOL    HW2 2103   1.871   2.895   0.027  3.0196  1.0597 -0.3690
  702SOL     OW 2104   2.076   1.401   1.901  0.4055 -0.1202 -0.5508
  702SOL    HW1 2105   2.144   1.318   1.902  0.8566 -1.4885 -2.5916
  702SOL    HW2 2106   2.071   1.434   1.803  1.1946 -0.1419 -0.1194
  703SOL     OW 2107   1.969   0.841   1.473 -0.1373 -0.0368  0.2465
  703SOL    HW1 2108   1.960   0.744   1.515 -0.8034 -0.4065 -1.6847
  703SOL    HW2 2109   2.027   0.903   1.535  1.0902  1.4436  1.0407
  704SOL     OW 2110   0.345   2.023   1.746 -0.1583 -0.3130  0.2667
  704SOL    HW1 2111   0.355   1.978   1.844  1.1393  0.7251  0.5017
  704SOL    HW2 2112   0.405   2.110   1.735  1.3914  2.9279  1.5007
  705SOL     OW 2113   2.552   1.404   0.872 -0.0379 -0.0888  0.3034
  705SOL    HW1 2114   2.449   1.403   0.880  0.7402 -1.8758 -1.2567
  705SOL    HW2 2115   2.595   1.320   0.916 -0.1545  2.2849 -2.4256
  706SOL     OW 2116   0.651   1.750   1.883 -0.5070 -0.2203  0.4111
  706SOL    HW1 2117   0.646   1.661   1.936  0.0461  1.0181  1.1464
  706SOL    HW2 2118   0.747   1.796   1.892 -1.9642 -2.0085 -1.6209
  707SOL     OW 2119   2.291   1.223   1.928  0.5313  0.2690  0.7763
  707SOL    HW1 2120   2.380   1.199   1.975 -1.2105 -0.3071 -1.1200
  707SOL    HW2 2121   2.252   1.139   1.885 -1.6689 -0.0584  1.9755
  708SOL     OW 2122   3.072   0.464   3.029  0.1824 -0.2562 -0.2880
  708SOL    HW1 2123   3.177   0.478   3.021 -0.9748  1.0501  1.3414
  708SOL    HW2 2124   3.026   0.391   2.969 -1.6697  0.5816  0.4052
  709SOL     OW 2125   1.803   1.863   0.298 -0.5750  0.1081  0.3983
  709SOL    HW1 2126   1.845   1.939   0.359 -0.3903  0.1833 -2.8202
  709SOL    HW2 2127   1.797   1.893   0.198 -0.0246  0.0366 -2.4187
  710SOL     OW 2128   1.755   1.626   2.453  0.2795 -0.3493 -0.2708
  710SOL    HW1 2129   1.833   1.598   2.390  0.4739  0.6426  1.6097
  710SOL    HW2 2130   1.768   1.596   2.549  0.3747  3.0319 -2.4771
  711SOL     OW 2131   2.605   2.933   0.970  0.5852  0.4304 -0.1220
  711SOL    HW1 2132   2.630   3.027   0.945 -0.7439 -3.7204 -2.7119
  711SOL    HW2 2133   2.680   2.865   0.961 -1.9790 -1.1101  1.3862
  712SOL     OW 2134   1.480   2.305   1.802 -0.7654 -0.0492  0.0650
  712SOL    HW1 2135   1.552   2.233   1.820 -1.6511 -2.6813 -0.4306
  712SOL    HW2 2136   1.412   2.284   1.724 -0.6961  2.5278 -0.9377
  713SOL     OW 2137   2.836   1.399   2.502 -0.5033 -0.8366  0.0685
  713SOL    HW1 2138   2.817   1.298   2.473  2.8833 -0.1602 -0.3874
  713SOL    HW2 2139   2.761   1.448   2.558 -0.9422 -1.1123  1.5663
  714SOL     OW 2140   2.642   0.485   2.460  0.0060  0.1634 -0.5655
  714SOL    HW1 2141   2.576   0.450   2.532  0.5642 -0.4573 -2.2141
  714SOL    HW2 2142   2.606   0.480   2.363  1.1125 -0.8803  0.0291
  715SOL     OW 2143   1.586   2.089   1.139  0.3605  0.1453 -0.1488
  715SOL    HW1 2144   1.550   2.184   1.147  0.0276 -0.5210  1.6140
  715SOL    HW2 2145   1.625   2.063   1.235 -1.1900  1.6020  0.3563
  716SOL     OW 2146   1.225   0.203   1.467 -0.2566  0.2009 -0.3219
  716SOL    HW1 2147   1.121   0.220   1.474  0.3862  1.9966 -2.0413
  716SOL    HW2 2148   1.276   0.285   1.428  2.5249  1.4448  2.6294
  717SOL     OW 2149   1.096   0.629   1.597 -0.3073  0.0853 -0.4454
  717SOL    HW1 2150   1.194   0.657   1.624  2.2298 -0.2327 -0.1752
  717SOL    HW2 2151   1.092   0.593   1.500 -2.0815  0.1528 -0.9647
  718SOL     OW 2152   0.621   1.070   0.978  0.5995  0.0378  0.2165
  718SOL    HW1 2153   0.579   1.064   0.885 -0.2781 -1.3572 -0.7032
  718SOL    HW2 2154   0.698   1.137   0.987  0.7565  2.2775 -0.0556
  719SOL     OW 2155   0.797   1.851   2.245  0.0723 -0.2850  0.2932
  719SOL    HW1 2156   0.861   1.883   2.320  1.1345 -1.1846  0.0427
  719SOL    HW2 2157   0.699   1.887   2.255 -6.2365 -0.7665 -0.6898
  720SOL     OW 2158   2.226   1.108   0.236  0.4051  0.0169 -0.5669
  720SOL    HW1 2159   2.324   1.090   0.197  0.8863 -0.4255  0.9228
  720SOL    HW2 2160   2.224   1.089   0.340 -0.4119  2.3651 -0.9939
  721SOL     OW 2161   2.224   0.058   2.092 -0.5267  0.4013  0.0303
  721SOL    HW1 2162   2.268   0.109   2.014 -2.1295  2.0456  1.7290
  721SOL    HW2 2163   2.124   0.033   2.078 -0.3562 -2.6155  0.1966
  722SOL     OW 2164   2.348   1.649   0.506 -0.3932  0.2193 -0.2328
  722SOL    HW1 2165   2.321   1.578   0.435 -1.9240  0.2892  2.4809
  722SOL    HW2 2166   2.268   1.679   0.564  0.6517  0.8651  2.0784
  723SOL     OW 2167   2.587   2.841   1.901 -0.1309 -0.1050 -0.5556
  723SOL    HW1 2168   2.656   2.851   1.985  0.2876  1.8041  0.2090
  723SOL    HW2 2169   2.492   2.834   1.932  2.2304  0.3316 -2.2986
  724SOL     OW 2170   0.417   2.422   2.405 -0.4026  0.0343 -0.2004
  724SOL    HW1 2171   0.324   2.467   2.406 -1.2620 -2.4173  0.1452
  724SOL    HW2 2172   0.461   2.398   2.496 -1.3846  2.0910 -1.1413
  725SOL     OW 2173   2.308   2.759   1.422 -0.9686 -0.0872  0.3680
  725SOL    HW1 2174   2.371   2.797   1.353  0.8905  0.9668 -2.1013
  725SOL    HW2 2175   2.351   2.679   1.471  1.3063 -1.4820 -1.7512
  726SOL     OW 2176   2.385   2.261   0.747 -0.2844 -0.2913  1.1920
  726SOL    HW1 2177   2.328   2.351   0.747  1.6916  2.2307 -1.2755
  726SOL    HW2 2178   2.373   2.209   0.660  3.4003  1.6777  0.9496
  727SOL     OW 2179   0.227   0.038   0.129 -0.0730  0.0329  0.3609
  727SOL    HW1 2180   0.209  -0.039   0.065  2.0007  1.1775 -1.0511
  727SOL    HW2 2181   0.226   0.130   0.076 -0.4537 -1.3493 -0.2726
  728SOL     OW 2182   2.761   0.717   1.033  0.1931  0.3276  0.5810
  728SOL    HW1 2183   2.698   0.674   0.967  1.2391  3.8790 -1.7607
  728SOL    HW2 2184   2.793   0.659   1.115  0.6284 -1.9989 -1.0257
  729SOL     OW 2185   2.921   2.460   0.720  0.4247  0.1657  0.4435
  729SOL    HW1 2186   2.886   2.366   0.701  0.3338 -1.7644 -0.5269
  729SOL    HW2 2187   3.023   2.463   0.722 -0.7846  1.8351  2.6769
  730SOL     OW 2188   2.599   0.596   0.844  0.5910 -1.1360  0.7464
  730SOL    HW1 2189   2.557   0.667   0.783 -0.9138 -3.1148  2.4504
  730SOL    HW2 2190   2.691   0.572   0.804 -2.9340  1.4005  2.2855
  731SOL     OW 2191   0.034   2.116   2.455  0.2419  0.2513 -0.4679
  731SOL    HW1 2192   0.094   2.146   2.530  1.4529 -3.8038 -1.9262
  731SOL    HW2 2193  -0.042   2.181   2.423 -1.2360 -3.3443  4.2107
  732SOL     OW 2194   1.131   2.854   1.952  0.1871 -0.2466 -0.6912
  732SOL    HW1 2195   1.145   2.778   2.023 -1.3260 -0.3773  1.3362
  732SOL    HW2 2196   1.163   2.824   1.858  0.0671 -0.5317 -0.4468
  733SOL     OW 2197   3.059   0.736   2.070 -0.8963 -0.7850  0.8490
  733SOL    HW1 2198   3.145   0.801   2.072 -1.4355  0.2351 -0.3784
  733SOL    HW2 2199   3.076   0.640   2.030 -1.5849 -1.0684 -2.1946
  734SOL     OW 2200   1.388   0.350   2.705 -0.2029 -0.0307 -0.2439
  734SOL    HW1 2201   1.396   0.438   2.760 -1.1597  1.9147  0.0968
  734SOL    HW2 2202   1.303   0.294   2.733  1.3781  0.5917  1.4788
  735SOL     OW 2203   2.855   2.605   2.271 -0.3614 -0.0746 -0.0022
  735SOL    HW1 2204   2.780   2.611   2.198 -1.1188  0.3224  1.3639
  735SOL    HW2 2205   2.946   2.584   2.235 -1.8151 -0.8339 -1.1804
  736SOL     OW 2206   0.801   0.405   2.658 -0.1048 -0.5118 -0.5263
  736SOL    HW1 2207   0.752   0.491   2.633  1.2280 -1.6006  2.1939
  736SOL    HW2 2208   0.807   0.338   2.581 -1.7817 -1.3017 -2.5138
  737SOL     OW 2209   2.685   0.473   2.804 -0.0316 -0.2004 -0.9612
  737SOL    HW1 2210   2.670   0.456   2.909 -0.6437  0.2303  2.7008
  737SOL    HW2 2211   2.783   0.452   2.772  1.8063 -0.1406  0.3997
  738SOL     OW 2212   1.645   1.221   3.022  0.2878 -0.2071  0.1386
  738SOL    HW1 2213   1.745   1.204   3.008  1.5993  1.4808  2.7187
  738SOL    HW2 2214   1.580   1.147   2.990 -0.2688  0.7070  1.4505
  739SOL     OW 2215   1.781   0.634   0.706 -0.4972 -0.3042  0.0436
  739SOL    HW1 2216   1.789   0.600   0.803 -0.7412  1.9159 -0.2726
  739SOL    HW2 2217   1.790   0.558   0.635 -0.7132  0.2386 -0.6011
  740SOL     OW 2218   1.955   1.920   2.176 -0.7217  0.9739  0.1709
  740SOL    HW1 2219   2.026   1.905   2.103 -1.0760 -0.4817 -0.5944
  740SOL    HW2 2220   1.872   1.862   2.154 -0.0666  0.8821  4.4042
  741SOL     OW 2221   2.482   0.112   2.586  0.6142  0.3363 -0.0583
  741SOL    HW1 2222   2.579   0.082   2.607 -0.3101 -1.8343 -0.3699
  741SOL    HW2 2223   2.457   0.092   2.485  0.6815  0.7065  0.5139
  742SOL     OW 2224   2.240   1.370   0.113  0.2825 -0.1237 -0.2903
  742SOL    HW1 2225   2.179   1.450   0.127  0.2426  0.0603  2.4460
  742SOL    HW2 2226   2.211   1.286   0.166 -2.0000 -1.2958 -1.0806
  743SOL     OW 2227   1.742   0.588   2.614  0.2131  0.1067 -0.3668
  743SOL    HW1 2228   1.753   0.543   2.522 -1.4851  1.4322 -0.2573
  743SOL    HW2 2229   1.689   0.676   2.613 -1.9597  0.2813 -0.8802
  744SOL     OW 2230   2.635   2.095   0.046  0.0449 -0.3541 -0.0991
  744SOL    HW1 2231   2.533   2.108   0.071  1.3827  0.6358  0.4566
  744SOL    HW2 2232   2.689   2.061   0.132  2.9358  1.3889  2.4848
  745SOL     OW 2233   2.162   2.713   2.212 -0.4144  0.1460  0.3952
  745SOL    HW1 2234   2.073   2.689   2.164  1.7296  0.2359 -2.1704
  745SOL    HW2 2235   2.149   2.745   2.306 -0.6586 -0.0743 -0.5514
  746SOL     OW 2236   3.084   2.599   1.817  0.0236  0.7434  0.2776
  746SOL    HW1 2237   3.185   2.631   1.804  0.0360 -0.4691 -3.2999
  746SOL    HW2 2238   3.030   2.665   1.878  0.9356  0.1044  1.3329
  747SOL     OW 2239   3.065   1.813   1.701  0.3504 -0.3741  0.3001
  747SOL    HW1 2240   3.066   1.708   1.701 -0.0123  0.3939 -0.2402
  747SOL    HW2 2241   3.143   1.855   1.646 -0.2291 -0.0115 -0.1211
  748SOL     OW 2242   1.751   2.762   2.867 -0.6243  0.6386 -0.3947
  748SOL    HW1 2243   1.762   2.782   2.969  0.0046 -1.1514  2.6001
  748SOL    HW2 2244   1.648   2.748   2.856 -0.2114 -3.0190  1.7287
  749SOL     OW 2245   1.269   0.060   0.836 -0.3325  0.1901  0.4096
  749SOL    HW1 2246   1.208  -0.025   0.833  1.2252  0.4936 -4.3255
  749SOL    HW2 2247   1.304   0.092   0.740  0.5021  0.0227  0.7836
  750SOL     OW 2248   2.378   0.209   1.902  0.0340 -0.0198  0.5091
  750SOL    HW1 2249   2.404   0.277   1.828  0.2256  1.0785  1.8174
  750SOL    HW2 2250   2.340   0.261   1.979 -0.3277 -3.7784 -3.5859
  751SOL     OW 2251   0.831   2.230   2.820  0.3949  0.2463  0.5974
  751SOL    HW1 2252   0.893   2.238   2.905  0.8003  0.8669  1.9920
  751SOL    HW2 2253   0.750   2.163   2.832  0.9136  0.1809 -1.4117
  752SOL     OW 2254   1.240   0.906   1.576 -0.1641  0.1726 -0.2212
  752SOL    HW1 2255   1.304   0.978   1.542 -0.5725 -0.0854  0.1881
  752SOL    HW2 2256   1.292   0.820   1.597  0.9381  1.0794 -1.8220
  753SOL     OW 2257   0.946   2.625   1.774 -0.0200  0.0873  0.0396
  753SOL    HW1 2258   1.041   2.665   1.765  0.3761  2.5840 -0.3766
  753SOL    HW2 2259   0.876   2.698   1.751  2.7683  0.9563  1.5571
  754SOL     OW 2260   1.131   1.252   3.065 -0.5585 -0.5437  0.0345
  754SOL    HW1 2261   1.144   1.190   2.986 -0.0121  0.3063  3.4864
  754SOL    HW2 2262   1.127   1.350   3.035  1.9306  0.6883 -0.3553
  755SOL     OW 2263   1.998   0.504   2.228  0.0198  0.8386  0.0183
  755SOL    HW1 2264   2.053   0.437   2.284 -1.1925 -0.4671  1.3293
  755SOL    HW2 2265   1.897   0.507   2.258  0.7708 -0.5623  0.1196
  756SOL     OW 2266   2.643   1.003   2.933  0.1965 -0.2387 -0.4671
  756SOL    HW1 2267   2.721   0.934   2.923 -2.1955 -0.7037 -0.7659
  756SOL    HW2 2268   2.563   0.965   2.983 -0.6295  0.1369  1.7555
  757SOL     OW 2269   0.131   0.536   1.736 -0.2223  0.3865 -0.4043
  757SOL    HW1 2270   0.151   0.638   1.711 -0.1998  1.1203 -1.2187
  757SOL    HW2 2271   0.179   0.476   1.668 -0.5833  1.0806 -1.3925
  758SOL     OW 2272   2.405   3.083   1.540 -0.0471  0.0040  0.3849
  758SOL    HW1 2273   2.319   3.035   1.573  1.3188  0.7436  0.1395
  758SOL    HW2 2274   2.408   3.096   1.435  0.0482  0.3430  0.9872
  759SOL     OW 2275   1.673   3.087   0.061 -0.0107  0.0302 -0.0371
  759SOL    HW1 2276   1.637   3.129  -0.022  1.9101 -0.8506 -0.4107
  759SOL    HW2 2277   1.776   3.084   0.051  1.2774  1.0483  0.8980
  760SOL     OW 2278   2.709   2.013   2.805  0.4392 -0.0727  0.2375
  760SOL    HW1 2279   2.725   1.919   2.845  0.0338 -0.6378 -1.2143
  760SOL    HW2 2280   2.796   2.066   2.781 -4.0223  0.8671  0.3811
  761SOL     OW 2281   1.937   1.696   1.611  0.2167 -0.0456 -0.4572
  761SOL    HW1 2282   1.990   1.608   1.609  0.1863 -0.5078  1.7821
  761SOL    HW2 2283   1.851   1.690   1.550 -1.6562 -2.1321 -0.0746
  762SOL     OW 2284   0.523   2.397   0.944  0.2181 -0.1992  0.1413
  762SOL    HW1 2285   0.584   2.425   0.861  1.0823  2.4937 -0.6877
  762SOL    HW2 2286   0.522   2.464   1.019 -0.2098  2.4201 -2.3883
  763SOL     OW 2287   2.082   1.548   2.981 -0.6487  0.2537 -0.2794
  763SOL    HW1 2288   2.081   1.494   2.892 -2.0818 -0.7971  1.4113
  763SOL    HW2 2289   2.012   1.507   3.049  0.9822 -1.6982 -2.9065
  764SOL     OW 2290   0.690   0.524   0.889 -0.1076  0.6148 -0.0539
  764SOL    HW1 2291   0.669   0.454   0.810  0.4622 -0.0988 -1.4869
  764SOL    HW2 2292   0.794   0.542   0.912  2.2417  2.8014 -0.3686
  765SOL     OW 2293   0.672   0.246   0.776 -0.1724 -0.3321  0.1779
  765SOL    HW1 2294   0.748   0.253   0.704  0.2594 -1.0742 -0.8504
  765SOL    HW2 2295   0.709   0.270   0.871  0.7089  0.2202 -0.8302
  766SOL     OW 2296   2.940   2.066   0.012 -0.1609 -0.5772 -0.3014
  766SOL    HW1 2297   2.847   2.115   0.018 -0.6112 -2.8752 -1.3459
  766SOL    HW2 2298   3.023   2.129   0.021  1.2662  0.9737 -1.0067
  767SOL     OW 2299   2.867   1.570   0.511  0.0156  0.0294  0.0178
  767SOL    HW1 2300   2.773   1.553   0.554  0.2353 -0.6235  1.6766
  767SOL    HW2 2301   2.947   1.577   0.579 -0.4336  2.8519 -2.6836
  768SOL     OW 2302   1.095   0.275   0.313 -0.8151  0.2772 -0.0556
  768SOL    HW1 2303   1.012   0.227   0.341 -1.4963  1.1245  0.2364
  768SOL    HW2 2304   1.161   0.214   0.259 -0.7022 -1.0762 -0.2582
  769SOL     OW 2305   1.205   1.826   2.245  0.4709  0.2505 -0.0788
  769SOL    HW1 2306   1.244   1.831   2.345  1.4402 -1.5844 -3.2199
  769SOL    HW2 2307   1.163   1.733   2.218 -0.5267 -2.1984  0.6890
  770SOL     OW 2308   0.166   1.167   2.404 -0.6143 -0.8491 -0.5977
  770SOL    HW1 2309   0.147   1.202   2.498 -1.3161  0.2115 -1.0315
  770SOL    HW2 2310   0.096   1.183   2.337  3.0872 -2.6666  1.6087
  771SOL     OW 2311   2.913   2.835   1.951 -0.1866  0.1650 -0.2555
  771SOL    HW1 2312   2.926   2.897   1.872  2.0324 -3.0640  1.4827
  771SOL    HW2 2313   2.894   2.888   2.044 -1.1998 -0.3008  2.2346
  772SOL     OW 2314   2.142   0.123   2.970  0.3071 -0.4749  0.2887
  772SOL    HW1 2315   2.222   0.063   2.997  0.2837  0.3127 -0.9170
  772SOL    HW2 2316   2.144   0.214   3.028 -0.6176  1.2391  2.9422
  773SOL     OW 2317   0.668   2.075   2.461 -0.0364 -0.1425  0.1194
  773SOL    HW1 2318   0.630   2.139   2.388  2.6182  2.5147  2.0484
  773SOL    HW2 2319   0.621   2.094   2.552  1.1203  2.6049 -0.8932
  774SOL     OW 2320   2.048   3.085   2.608 -0.2242  0.2768  0.1203
  774SOL    HW1 2321   2.038   3.175   2.660  0.3118 -1.4910 -2.2701
  774SOL    HW2 2322   2.092   3.005   2.656  0.0075 -1.2623  2.1216
  775SOL     OW 2323   2.487   2.836   2.320  0.3314  0.4530  0.3166
  775SOL    HW1 2324   2.427   2.917   2.301 -1.0555 -0.7022 -0.5421
  775SOL    HW2 2325   2.575   2.859   2.370 -0.4069 -1.8763  0.8629
  776SOL     OW 2326   0.047   1.253   0.211 -0.2723 -0.5224  0.4539
  776SOL    HW1 2327   0.012   1.238   0.114 -0.8791  1.3357 -1.9842
  776SOL    HW2 2328  -0.041   1.257   0.272 -1.2775  2.3515 -1.4607
  777SOL     OW 2329   0.260   2.677   0.467 -0.0975  0.2326 -0.8483
  777SOL    HW1 2330   0.154   2.676   0.466  0.3704  1.5209 -0.5296
  777SOL    HW2 2331   0.295   2.774   0.467  0.3606 -0.6021  0.3494
  778SOL     OW 2332   1.346   1.944   0.184  0.5192 -0.2487  0.4171
  778SOL    HW1 2333   1.267   1.965   0.252  0.7786 -1.0282  1.5335
  778SOL    HW2 2334   1.393   2.033   0.148  1.0965 -0.6966 -0.0586
  779SOL     OW 2335   0.188   0.814   0.547 -0.1632  0.1466  0.2504
  779SOL    HW1 2336   0.160   0.724   0.508  2.5061 -1.7162 -0.7332
  779SOL    HW2 2337   0.126   0.848   0.620  1.1112 -2.0852 -0.6123
  780SOL     OW 2338   0.016   0.337   2.391 -0.6734  0.3889 -0.4090
  780SOL    HW1 2339  -0.027   0.428   2.365  0.1085 -0.5333  0.7537
  780SOL    HW2 2340   0.105   0.323   2.343 -1.0060 -2.7274 -0.2733
  781SOL     OW 2341   0.588   1.704   1.615  0.0924  0.0192  0.6635
  781SOL    HW1 2342   0.621   1.736   1.711 -1.5830  3.1601  0.3341
  781SOL    HW2 2343   0.518   1.631   1.627  0.7149  3.5070 -0.1765
  782SOL     OW 2344   2.651   0.112   0.902 -0.4515 -0.1155 -0.0731
  782SOL    HW1 2345   2.571   0.120   0.836 -1.8732  0.9114  3.1411
  782SOL    HW2 2346   2.650   0.184   0.977  1.1433 -1.4880 -1.3186
  783SOL     OW 2347   2.819   0.676   2.483 -0.4797 -0.4102  0.1868
  783SOL    HW1 2348   2.771   0.738   2.546 -0.1280 -1.3112 -2.3227
  783SOL    HW2 2349   2.754   0.594   2.477  2.4797  0.2551  0.3022
  784SOL     OW 2350   1.402   2.179   0.038  0.5171 -0.0055  0.2208
  784SOL    HW1 2351   1.481   2.245   0.070  1.3096  0.4870  1.8682
  784SOL    HW2 2352   1.387   2.179  -0.064 -2.0914  0.0824  3.0232
  785SOL     OW 2353   2.130   0.345   0.015 -0.2563 -0.4001  0.0013
  785SOL    HW1 2354   2.046   0.365   0.069 -1.5798  0.2993  1.6924
  785SOL    HW2 2355   2.173   0.425  -0.033  0.2276  0.3972 -0.6413
  786SOL     OW 2356   2.017   2.159   2.311  0.0826 -0.5728  0.3995
  786SOL    HW1 2357   1.985   2.098   2.234  2.7371  1.6345  2.7485
  786SOL    HW2 2358   2.108   2.126   2.341 -2.3644  0.3730 -0.3576
  787SOL     OW 2359   1.398   0.617   0.813  0.9006 -0.4002 -0.2140
  787SOL    HW1 2360   1.360   0.709   0.856  1.3636  0.2644  1.3793
  787SOL    HW2 2361   1.420   0.617   0.711 -1.9064  1.1624 -1.3299
  788SOL     OW 2362   1.204   0.452   3.023  0.3381 -0.0037  0.3192
  788SOL    HW1 2363   1.124   0.479   2.968  0.5001  2.9205 -1.7611
  788SOL    HW2 2364   1.293   0.492   2.988 -0.4606 -1.2316  1.1456
  789SOL     OW 2365   2.625   0.116   1.865  0.6416 -0.1531  0.5265
  789SOL    HW1 2366   2.535   0.162   1.872 -0.9571  1.1147  0.5131
  789SOL    HW2 2367   2.612   0.017   1.828 -0.7537  0.2101  1.0504
  790SOL     OW 2368   2.589   2.658   0.799  0.4694  0.5361  0.4437
  790SOL    HW1 2369   2.646   2.669   0.715  0.3733  0.0819 -1.4545
  790SOL    HW2 2370   2.563   2.754   0.830  0.9344  0.2995 -2.7512
  791SOL     OW 2371   1.982   1.242   0.236 -0.3281  0.0327  0.2125
  791SOL    HW1 2372   1.904   1.185   0.264  2.5258 -2.3138 -1.1706
  791SOL    HW2 2373   2.071   1.192   0.263  1.8384 -0.2327  3.8527
  792SOL     OW 2374   0.422   1.992   2.199  0.2368  0.3164 -0.0299
  792SOL    HW1 2375   0.452   2.081   2.248  0.5780  1.0099 -1.4201
  792SOL    HW2 2376   0.345   1.941   2.248  2.0859 -0.4248 -0.9725
  793SOL     OW 2377   2.119   1.525   2.156 -0.7835 -0.4991  0.4106
  793SOL    HW1 2378   2.172   1.610   2.136 -0.2389  2.4260  3.6309
  793SOL    HW2 2379   2.125   1.467   2.063 -1.9757  1.5421 -1.4240
  794SOL     OW 2380   0.498   1.482   2.472  0.1588  0.3743  0.0939
  794SOL    HW1 2381   0.549   1.415   2.416  0.9472 -1.4406  0.7235
  794SOL    HW2 2382   0.420   1.519   2.415  0.8748  0.2523 -1.6740
  795SOL     OW 2383   2.529   2.315   1.800 -0.1466  0.0578  0.2515
  795SOL    HW1 2384   2.592   2.329   1.880 -1.8945 -2.9012 -1.7112
  795SOL    HW2 2385   2.460   2.237   1.808 -1.3636 -1.1804 -1.7682
  796SOL     OW 2386   3.053   1.072   2.712  0.1830  0.1152  0.4961
  796SOL    HW1 2387   2.954   1.090   2.747  1.7581  1.1836  0.1974
  796SOL    HW2 2388   3.121   1.036   2.782 -1.5277  1.1410 -1.0670
  797SOL     OW 2389   0.670   0.645   1.359 -0.3916  0.3898 -0.5155
  797SOL    HW1 2390   0.732   0.691   1.432 -1.7359  1.1393  0.4150
  797SOL    HW2 2391   0.655   0.699   1.269 -0.3407  1.4995 -0.9940
  798SOL     OW 2392   1.168   0.489   0.918 -0.5302  0.5456 -0.2656
  798SOL    HW1 2393   1.190   0.484   1.018  2.5869 -1.8214 -0.8513
  798SOL    HW2 2394   1.249   0.529   0.860 -1.0068  3.3851 -0.0390
  799SOL     OW 2395   1.813   2.700   1.008  0.3052 -0.5366 -0.4020
  799SOL    HW1 2396   1.820   2.612   1.060 -2.5561 -0.4553  2.1278
  799SOL    HW2 2397   1.828   2.696   0.904 -2.2702  1.2371 -1.9765
  800SOL     OW 2398   2.947   0.856   1.823  0.3610 -0.0342  0.3203
  800SOL    HW1 2399   2.995   0.952   1.827 -0.8856  1.1939  2.3105
  800SOL    HW2 2400   2.954   0.812   1.918  0.2227 -2.4864  0.4886
  801SOL     OW 2401   1.956   2.152   0.123  0.0122  0.5984 -0.4345
  801SOL    HW1 2402   1.922   2.170   0.029 -0.1344 -1.1784 -0.4889
  801SOL    HW2 2403   2.032   2.078   0.124  0.2151 -0.5320  1.1447
  802SOL     OW 2404   0.658   0.604   2.532 -0.2228  0.0171 -0.5512
  802SOL    HW1 2405   0.708   0.627   2.442  1.6552 -0.2688 -0.8123
  802SOL    HW2 2406   0.558   0.640   2.527 -0.9194 -0.3148  0.7468
  803SOL     OW 2407   0.931   0.058   0.891  0.4213 -0.3625  0.1530
  803SOL    HW1 2408   0.996   0.131   0.932 -0.0462  0.9385 -1.4020
  803SOL    HW2 2409   0.906   0.086   0.796 -0.7399  0.4526  3.4813
  804SOL     OW 2410   0.313   0.032   2.183  0.3577 -0.3019  0.0273
  804SOL    HW1 2411   0.280   0.128   2.204  0.3998  0.4575  1.4826
  804SOL    HW2 2412   0.272  -0.001   2.093  0.4174 -1.4665 -1.0759
  805SOL     OW 2413   2.416   0.383   0.344  0.5060 -0.5409  0.3007
  805SOL    HW1 2414   2.494   0.359   0.413 -1.4168  0.1035 -0.0141
  805SOL    HW2 2415   2.390   0.302   0.280 -0.2734 -1.1667  0.2921
  806SOL     OW 2416   0.613   2.575   1.822 -0.7726  0.5700 -0.0684
  806SOL    HW1 2417   0.575   2.643   1.896  1.9954  2.7374  1.4141
  806SOL    HW2 2418   0.672   2.626   1.755  2.0533 -1.4261  1.1525
  807SOL     OW 2419   2.513   0.940   0.472  0.1907 -0.2531 -0.2473
  807SOL    HW1 2420   2.606   0.907   0.499 -4.5113  2.0488  2.8108
  807SOL    HW2 2421   2.507   0.958   0.370  1.1582 -0.4660  0.0442
  808SOL     OW 2422   0.651   2.016   2.893 -0.2967 -0.2521  0.2963
  808SOL    HW1 2423   0.633   2.058   2.983  2.3432 -1.3361 -0.3776
  808SOL    HW2 2424   0.664   1.913   2.899 -0.5432 -0.1166  2.7701
  809SOL     OW 2425   2.569   1.975   1.893  0.4550 -0.0713  0.0261
  809SOL    HW1 2426   2.669   2.010   1.919  1.6460 -1.2797  2.2631
  809SOL    HW2 2427   2.548   1.986   1.792 -3.6594 -1.0712  0.6190
  810SOL     OW 2428   2.218   1.122   0.498  0.0195  0.4131 -0.0022
  810SOL    HW1 2429   2.218   1.044   0.565  0.9861 -3.4570 -2.6330
  810SOL    HW2 2430   2.159   1.202   0.529  1.4798  0.4294 -0.2692
  811SOL     OW 2431   1.291   2.554   1.188  0.4843 -0.8073 -0.1424
  811SOL    HW1 2432   1.270   2.455   1.208 -1.7723  0.7851  2.0853
  811SOL    HW2 2433   1.261   2.617   1.265 -1.7967 -3.3183  0.9414
  812SOL     OW 2434   1.453   0.741   1.934  0.0020  0.1795 -0.8085
  812SOL    HW1 2435   1.368   0.748   1.999  1.1305 -1.7006  3.7138
  812SOL    HW2 2436   1.463   0.824   1.871  0.5847 -0.4143 -1.7644
  813SOL     OW 2437   1.629   2.079   2.378  0.5805 -0.0086 -0.5231
  813SOL    HW1 2438   1.724   2.055   2.414  0.1888 -0.7863  0.8375
  813SOL    HW2 2439   1.607   2.022   2.294  3.0203 -1.7465  2.2024
  814SOL     OW 2440   3.008   1.722   2.857 -0.0565 -0.6077  0.2474
  814SOL    HW1 2441   3.044   1.692   2.950 -0.1959 -1.8463  3.6018
  814SOL    HW2 2442   3.021   1.822   2.832  1.4834 -1.3997 -0.7048
  815SOL     OW 2443   2.174   2.879   2.735  0.0776 -0.4317 -0.1415
  815SOL    HW1 2444   2.140   2.791   2.778  0.5959 -0.5753 -0.7847
  815SOL    HW2 2445   2.240   2.933   2.798  0.6951 -0.3214 -0.2950
  816SOL     OW 2446   1.521   0.338   1.679 -0.4280 -0.3660  0.5155
  816SOL    HW1 2447   1.568   0.255   1.722  0.4352 -0.5923 -1.6126
  816SOL    HW2 2448   1.458   0.389   1.745 -1.6493  0.2618 -0.7153
  817SOL     OW 2449   0.383   1.302   2.636 -0.2194  0.8391 -0.3102
  817SOL    HW1 2450   0.282   1.308   2.629  0.5028  1.1986 -3.5617
  817SOL    HW2 2451   0.417   1.382   2.580 -0.3902  2.3895 -0.9195
  818SOL     OW 2452   2.014   0.849   0.466  0.4788  0.4566  0.0345
  818SOL    HW1 2453   2.107   0.858   0.425 -1.6472  1.5558  1.6500
  818SOL    HW2 2454   1.995   0.901   0.554 -1.4399 -1.2394 -0.1081
  819SOL     OW 2455   2.772   2.875   3.047  0.4310  0.2252 -0.1294
  819SOL    HW1 2456   2.838   2.795   3.034  1.1026  1.3600 -2.7224
  819SOL    HW2 2457   2.689   2.873   2.980  2.8621 -0.1356  0.2096
  820SOL     OW 2458   1.272   1.041   0.535 -0.4761  0.0260 -0.5299
  820SOL    HW1 2459   1.277   1.134   0.575  2.4295 -1.0455 -1.0602
  820SOL    HW2 2460   1.251   0.979   0.615 -0.9251  1.3070  0.7019
  821SOL     OW 2461   0.088   1.204   0.697 -0.3290  0.5699 -0.0473
  821SOL    HW1 2462   0.041   1.172   0.791 -2.8085 -2.4969  0.5773
  821SOL    HW2 2463   0.130   1.297   0.698 -0.1850  0.0993 -0.7387
  822SOL     OW 2464   2.516   1.753   2.455 -0.0927 -0.2991  0.7906
  822SOL    HW1 2465   2.524   1.829   2.529  0.2430  0.9109 -0.5017
  822SOL    HW2 2466   2.427   1.767   2.398  1.5546 -1.0709 -0.0126
  823SOL     OW 2467   2.014   0.945   1.208  0.0067 -0.2727  0.2224
  823SOL    HW1 2468   1.997   0.921   1.307 -0.3619 -0.2512  2.6280
  823SOL    HW2 2469   1.937   0.897   1.153  0.5813 -3.4411 -0.0678
  824SOL     OW 2470   0.189   1.899   2.779 -0.2147 -0.2639  0.0239
  824SOL    HW1 2471   0.237   1.862   2.865  2.8783  0.5657 -2.7724
  824SOL    HW2 2472   0.255   1.897   2.702 -0.2047  1.1731  2.4855
  825SOL     OW 2473   1.306   1.082   0.266 -0.0439 -0.2385  0.3637
  825SOL    HW1 2474   1.325   1.185   0.246 -1.6174  1.7152 -0.5348
  825SOL    HW2 2475   1.279   1.061   0.361 -2.0512  2.6950 -0.3151
  826SOL     OW 2476   1.933   0.591   1.586  0.0828  0.1145  0.2077
  826SOL    HW1 2477   2.021   0.548   1.619  0.5685  1.4284  1.1259
  826SOL    HW2 2478   1.870   0.522   1.541 -0.6358 -0.7383  0.2758
  827SOL     OW 2479   0.716   1.189   0.426 -0.5481  0.5480  0.3469
  827SOL    HW1 2480   0.780   1.163   0.350 -0.6575  0.3260  0.1426
  827SOL    HW2 2481   0.645   1.118   0.438  1.1828  1.1001  1.3827
  828SOL     OW 2482   2.625   0.142   1.533  0.0725  0.3544 -0.6536
  828SOL    HW1 2483   2.536   0.089   1.537  0.8547  0.6618  0.4902
  828SOL    HW2 2484   2.654   0.176   1.628  1.1999  1.7094  2.3001
  829SOL     OW 2485   2.936   2.400   2.960  0.0263  0.0534  0.3294
  829SOL    HW1 2486   2.839   2.370   2.991 -1.2058 -3.2410 -0.1454
  829SOL    HW2 2487   2.949   2.501   2.948  1.9149 -2.1504  1.2033
  830SOL     OW 2488   2.872   0.896   2.979  0.8471 -0.0897 -0.6241
  830SOL    HW1 2489   2.903   0.981   3.027 -2.4131  0.6887  0.3609
  830SOL    HW2 2490   2.854   0.812   3.037 -0.3109 -2.2578 -0.9508
  831SOL     OW 2491   0.127   0.577   0.414  0.2216 -0.3973  0.2353
  831SOL    HW1 2492   0.113   0.512   0.494 -1.6870 -1.4138 -0.7851
  831SOL    HW2 2493   0.128   0.532   0.322  0.7920 -0.2100  1.6395
  832SOL     OW 2494   1.788   0.704   3.039 -0.0387 -0.7067  0.4633
  832SOL    HW1 2495   1.698   0.750   3.055  1.2969  1.3756 -0.9416
  832SOL    HW2 2496   1.780   0.599   3.060 -0.7815 -1.8211 -1.0603
  833SOL     OW 2497   2.367   2.114   0.510 -0.4397  0.1544 -0.1010
  833SOL    HW1 2498   2.277   2.063   0.521  0.2701 -1.0336 -1.3820
  833SOL    HW2 2499   2.450   2.045   0.497  1.8118 -0.2637  2.0297
  834SOL     OW 2500   0.165   0.075   0.570 -0.1632 -0.5220 -0.5071
  834SOL    HW1 2501   0.227  -0.004   0.585  0.1539 -2.0147  0.5887
  834SOL    HW2 2502   0.153   0.098   0.469 -1.5928 -1.7198 -1.0895
  835SOL     OW 2503   2.421   1.591   1.118  0.4251  0.4715  0.6100
  835SOL    HW1 2504   2.513   1.564   1.169  0.2693 -1.6015  1.5837
  835SOL    HW2 2505   2.426   1.686   1.079 -0.0241  0.0819 -2.3169
  836SOL     OW 2506   1.561   0.815   2.585  0.1008  0.0650  0.2057
  836SOL    HW1 2507   1.455   0.806   2.595 -2.3310  1.2559 -0.9064
  836SOL    HW2 2508   1.591   0.802   2.485 -1.5475  0.1842  1.8323
  837SOL     OW 2509   1.713   0.115   0.545 -0.6509  0.4049 -0.6272
  837SOL    HW1 2510   1.661   0.186   0.605  0.3869  0.2236 -0.1451
  837SOL    HW2 2511   1.676   0.114   0.448 -0.5637  0.6808 -3.1725
  838SOL     OW 2512   1.218   1.445   2.681  0.2443  0.6406 -0.2651
  838SOL    HW1 2513   1.187   1.468   2.779 -0.1436 -1.4102  0.2147
  838SOL    HW2 2514   1.208   1.347   2.650  1.5339  1.1107 -1.7813
  839SOL     OW 2515   1.608   0.361   0.967  0.3916  0.6776 -0.0267
  839SOL    HW1 2516   1.583   0.408   1.056  0.7874  0.3457  0.5674
  839SOL    HW2 2517   1.582   0.256   0.955  0.0081 -2.7045 -0.2051
  840SOL     OW 2518   2.647   2.952   1.671  0.3981  0.2842  0.0326
  840SOL    HW1 2519   2.574   2.979   1.601  1.8543 -0.8863 -3.5401
  840SOL    HW2 2520   2.620   2.881   1.745  3.1675 -1.5808 -1.5333
  841SOL     OW 2521   1.513   0.822   2.953  0.3316 -0.1011  0.6157
  841SOL    HW1 2522   1.416   0.837   2.988 -3.4284  3.1382  2.0362
  841SOL    HW2 2523   1.556   0.899   2.899  0.2931  1.6346 -0.2891
  842SOL     OW 2524   0.859   1.619   1.007  0.1402  0.5447 -0.1683
  842SOL    HW1 2525   0.805   1.698   1.042  0.3785 -0.2002 -2.0857
  842SOL    HW2 2526   0.792   1.541   0.984 -1.1102 -1.1529 -1.6523
  843SOL     OW 2527   0.140   0.077   1.471  0.1328 -0.6444  0.2487
  843SOL    HW1 2528   0.237   0.113   1.480 -1.4981  1.3157  0.8127
  843SOL    HW2 2529   0.129  -0.025   1.442 -2.6394 -1.2549  0.8245
  844SOL     OW 2530   0.714   2.517   0.218  0.0465 -0.5114 -0.1336
  844SOL    HW1 2531   0.682   2.508   0.316  0.0853 -2.3543 -0.9700
  844SOL    HW2 2532   0.631   2.525   0.157 -0.0894 -2.3244  0.5001
  845SOL     OW 2533   1.730   3.025   1.284 -0.2065  0.8028 -0.6615
  845SOL    HW1 2534   1.708   3.025   1.385  1.9734  1.1451 -0.2790
  845SOL    HW2 2535   1.681   3.104   1.234  1.3118  4.4076  0.1127
  846SOL     OW 2536   1.691   3.012   0.910  0.3096  0.1522  0.3952
  846SOL    HW1 2537   1.741   3.063   0.833 -0.9081  1.0550  1.6835
  846SOL    HW2 2538   1.754   2.944   0.954  0.2029  1.6923 -2.6838
  847SOL     OW 2539   2.094   1.611   0.201  0.3591  0.1925  0.3204
  847SOL    HW1 2540   2.066   1.560   0.285 -0.9843  3.5274 -2.3245
  847SOL    HW2 2541   2.012   1.660   0.154 -0.6526 -0.5471 -1.9252
  848SOL     OW 2542   2.478   0.856   2.616  0.3981 -0.6970  0.0243
  848SOL    HW1 2543   2.506   0.953   2.627 -1.0835  0.3237 -3.2523
  848SOL    HW2 2544   2.398   0.846   2.549  1.1098  0.8114  1.3086
  849SOL     OW 2545   2.355   0.841   2.258 -0.5237 -0.3058  0.3442
  849SOL    HW1 2546   2.437   0.800   2.207  2.1970  1.1783 -0.4739
  849SOL    HW2 2547   2.326   0.789   2.339  0.7662  2.4767  0.0800
  850SOL     OW 2548   1.558   0.203   1.247  0.2570  0.1091 -0.2832
  850SOL    HW1 2549   1.515   0.159   1.164  0.1558  0.3011  0.1465
  850SOL    HW2 2550   1.531   0.157   1.336 -1.4820 -1.5897 -0.3572
  851SOL     OW 2551   0.487   1.731   0.656 -0.4567 -0.4505 -0.4002
  851SOL    HW1 2552   0.491   1.831   0.688 -0.5034  0.5400  3.8307
  851SOL    HW2 2553   0.576   1.685   0.635 -0.0093 -1.2405  0.6679
  852SOL     OW 2554   0.840   2.176   1.724  0.3559  0.9386  0.1138
  852SOL    HW1 2555   0.841   2.264   1.671  0.1523  1.5717 -1.4627
  852SOL    HW2 2556   0.748   2.153   1.780  1.1773  0.4288 -1.2122
  853SOL     OW 2557   2.604   1.517   2.577  1.0266 -0.5385  0.0638
  853SOL    HW1 2558   2.568   1.421   2.549  1.4251 -0.0637  1.0274
  853SOL    HW2 2559   2.581   1.599   2.508  0.5930  2.4862 -2.0792
  854SOL     OW 2560   2.403   1.445   1.764  0.0457  0.0447  0.4232
  854SOL    HW1 2561   2.436   1.410   1.669  2.5766 -0.0211  0.1895
  854SOL    HW2 2562   2.360   1.363   1.820 -3.3133  0.1161  2.0879
  855SOL     OW 2563   2.027   2.268   0.995 -0.6002 -0.3675 -0.4186
  855SOL    HW1 2564   2.067   2.365   0.972  0.5501  1.4845  1.0527
  855SOL    HW2 2565   2.057   2.244   1.097 -1.3590 -1.5398  3.8333
  856SOL     OW 2566   1.403   1.361   0.890 -0.3421  0.9653  0.2233
  856SOL    HW1 2567   1.367   1.459   0.883  0.9530  2.0620 -0.5733
  856SOL    HW2 2568   1.444   1.336   0.982  3.0831  0.3446  2.4827
  857SOL     OW 2569   2.894   2.552   1.030 -0.1730  0.1859 -0.2798
  857SOL    HW1 2570   2.884   2.453   1.061 -0.1083  0.1552  0.7294
  857SOL    HW2 2571   2.904   2.561   0.925 -1.0703  2.4001 -2.1209
  858SOL     OW 2572   2.258   2.098   1.781 -0.2232 -0.3017  0.2776
  858SOL    HW1 2573   2.192   2.145   1.717  0.2952 -0.9737  1.5575
  858SOL    HW2 2574   2.325   2.044   1.722  0.4473 -1.4373  1.1897
  859SOL     OW 2575   2.395   0.440   0.985 -0.2691 -0.6799 -0.4783
  859SOL    HW1 2576   2.461   0.511   0.952  4.8681  0.4806 -0.1630
  859SOL    HW2 2577   2.440   0.366   1.045  0.4816  0.9884  2.3170
  860SOL     OW 2578   1.950   2.806   0.482  0.1348  0.5216 -0.1619
  860SOL    HW1 2579   1.971   2.754   0.388  2.9420  0.1268 -0.0690
  860SOL    HW2 2580   1.984   2.906   0.479  0.8200  0.2113  0.5094
  861SOL     OW 2581   1.023   2.561   2.785 -0.5077  0.0449  0.5845
  861SOL    HW1 2582   1.094   2.642   2.791 -0.1036  1.2896 -2.0164
  861SOL    HW2 2583   1.037   2.489   2.860  0.6584 -3.0719 -0.2050
  862SOL     OW 2584   2.974   2.588   1.548 -0.1708  0.4742 -0.0252
  862SOL    HW1 2585   3.003   2.579   1.647  1.5035  0.5810 -1.3732
  862SOL    HW2 2586   2.874   2.618   1.532  2.0860  0.0993 -0.0940
  863SOL     OW 2587   1.922   2.649   0.265 -0.0868 -0.1475  0.3657
  863SOL    HW1 2588   1.988   2.573   0.251  0.8574  1.7804  0.0160
  863SOL    HW2 2589   1.825   2.609   0.281  0.2788  1.6745 -0.0090
  864SOL     OW 2590   1.907   1.126   2.953  0.1716 -0.0265  0.4073
  864SOL    HW1 2591   1.926   1.103   2.850 -0.4690  0.6918 -1.9426
  864SOL    HW2 2592   1.983   1.096   3.017  2.0299 -2.5751  0.9949
  865SOL     OW 2593   2.139   1.690   0.669 -0.4486 -0.3873 -0.4277
  865SOL    HW1 2594   2.184   1.696   0.761  0.6541 -1.8202  2.7846
  865SOL    HW2 2595   2.038   1.671   0.677 -1.0908 -2.6497  0.3546
  866SOL     OW 2596   2.865   2.824   1.009 -0.4516 -0.5405 -0.2942
  866SOL    HW1 2597   2.928   2.852   0.931  0.4693 -1.9846  0.4538
  866SOL    HW2 2598   2.868   2.726   1.033 -0.4303  1.9258  1.6448
  867SOL     OW 2599   0.456   1.304   0.868  0.3101  0.3315  0.0352
  867SOL    HW1 2600   0.471   1.208   0.821 -1.2417 -1.5956  1.5969
  867SOL    HW2 2601   0.375   1.350   0.828 -0.6743  0.4692  2.7145
  868SOL     OW 2602   0.843   1.965   1.994 -0.1773 -0.0847  0.3652
  868SOL    HW1 2603   0.821   1.932   2.092 -1.0596  0.4244  1.2370
  868SOL    HW2 2604   0.790   2.050   1.973 -1.2742  2.4038 -2.0792
  869SOL     OW 2605   2.529   2.035   1.624  0.0039  0.1580  0.3349
  869SOL    HW1 2606   2.591   2.117   1.609 -0.7774 -1.4266 -1.2004
  869SOL    HW2 2607   2.497   1.999   1.535 -0.0738 -0.5796  3.4995
  870SOL     OW 2608   2.384   2.514   1.181  0.1722  0.3110 -0.0517
  870SOL    HW1 2609   2.328   2.426   1.162 -1.0249 -0.0540 -0.2307
  870SOL    HW2 2610   2.470   2.505   1.236  1.7729 -0.3546 -1.9052
  871SOL     OW 2611   3.005   2.015   0.529  0.1233 -0.2045 -0.4828
  871SOL    HW1 2612   2.931   2.089   0.501 -1.0551 -1.3257 -2.1437
  871SOL    HW2 2613   2.992   1.931   0.475  1.4041  2.0630  0.4058
  872SOL     OW 2614   2.178   0.510   1.694 -0.4692 -0.1736 -0.3211
  872SOL    HW1 2615   2.128   0.516   1.783  1.5374 -2.1637  1.9838
  872SOL    HW2 2616   2.263   0.453   1.697  1.8507  0.3715 -2.1129
  873SOL     OW 2617   1.699   2.089   2.892 -0.0015 -0.0191 -0.4020
  873SOL    HW1 2618   1.700   2.193   2.909  1.6401 -1.7007  1.2006
  873SOL    HW2 2619   1.618   2.062   2.827  1.4849  0.3179 -0.1376
  874SOL     OW 2620   0.716   2.521   0.744 -0.1028  0.0791 -0.0824
  874SOL    HW1 2621   0.708   2.606   0.807  0.2475 -1.0175 -0.7771
  874SOL    HW2 2622   0.798   2.469   0.776 -1.5423 -1.0423  1.4035
  875SOL     OW 2623   2.321   1.514   1.460 -0.3369  0.3045 -0.1305
  875SOL    HW1 2624   2.407   1.561   1.472 -0.1787 -1.4213 -2.7050
  875SOL    HW2 2625   2.296   1.504   1.360  1.2176  1.2829 -1.6565
  876SOL     OW 2626   0.166   2.203   2.711  0.4454  0.6119  0.0542
  876SOL    HW1 2627   0.241   2.153   2.764 -0.6998 -0.1936  1.4656
  876SOL    HW2 2628   0.167   2.310   2.724  0.2571 -1.3120 -0.3711
  877SOL     OW 2629   2.793   2.669   0.587  0.3553 -0.6459 -0.0008
  877SOL    HW1 2630   2.861   2.749   0.584  1.9704  0.5966 -0.9555
  877SOL    HW2 2631   2.841   2.585   0.630 -1.5367  0.9642 -0.6263
  878SOL     OW 2632   2.770   1.549   2.224 -0.4672 -0.3852  0.3646
  878SOL    HW1 2633   2.821   1.636   2.228 -1.6214  1.6757  0.9203
  878SOL    HW2 2634   2.763   1.500   2.312 -1.4748 -2.0008  0.1039
  879SOL     OW 2635   2.372   3.103   1.217  0.1542 -0.0181  0.3510
  879SOL    HW1 2636   2.440   3.024   1.207  0.8803  0.0808 -1.2753
  879SOL    HW2 2637   2.289   3.104   1.152  1.5973  2.1988 -1.4132
  880SOL     OW 2638   0.679   0.420   2.188 -0.3592  0.3122  0.0112
  880SOL    HW1 2639   0.606   0.371   2.248  3.9710 -0.9505  2.5973
  880SOL    HW2 2640   0.767   0.369   2.202 -2.0794 -1.7831  0.7186
  881SOL     OW 2641   0.910   0.061   0.363  0.3485 -0.0405  0.1236
  881SOL    HW1 2642   0.945  -0.025   0.412  1.0015  1.3389 -1.3642
  881SOL    HW2 2643   0.870   0.033   0.270  0.9721 -0.7255 -1.0123
  882SOL     OW 2644   2.757   1.648   1.676  0.0942  0.3783 -0.5907
  882SOL    HW1 2645   2.859   1.651   1.644  0.2038 -0.4254 -1.1373
  882SOL    HW2 2646   2.747   1.677   1.773 -2.7477  1.3696  0.2711
  883SOL     OW 2647   0.931   0.611   0.944 -0.4524  0.2899  0.1765
  883SOL    HW1 2648   0.931   0.666   1.031 -0.0157 -3.9524  0.0695
  883SOL    HW2 2649   1.022   0.564   0.915  1.1625 -0.6146  0.6135
  884SOL     OW 2650   1.216   1.872   1.028  0.4115 -0.8829  0.2947
  884SOL    HW1 2651   1.166   1.834   0.944 -1.1647  0.3397  1.6925
  884SOL    HW2 2652   1.150   1.932   1.083 -0.4769 -1.5018  0.4819
  885SOL     OW 2653   2.285   1.781   2.338  0.0918 -0.4584  0.5206
  885SOL    HW1 2654   2.205   1.736   2.379  1.4971 -1.3035  3.8705
  885SOL    HW2 2655   2.272   1.881   2.350 -0.9743 -3.3782 -0.8667
  886SOL     OW 2656   2.658   0.467   1.774  0.2344  0.2831  0.1530
  886SOL    HW1 2657   2.678   0.441   1.876 -0.6175 -1.1812 -0.7134
  886SOL    HW2 2658   2.722   0.535   1.731 -1.6465 -1.9235 -0.8666
  887SOL     OW 2659   0.155   2.052   1.304  0.6468 -0.0928  0.0268
  887SOL    HW1 2660   0.134   1.980   1.229 -0.0312 -3.3124  0.6316
  887SOL    HW2 2661   0.154   2.150   1.270 -0.3224 -1.2706 -1.8278
  888SOL     OW 2662   0.604   1.330   1.480  0.6155  0.3555 -0.4370
  888SOL    HW1 2663   0.668   1.325   1.397 -1.1009 -1.0817  1.3816
  888SOL    HW2 2664   0.576   1.235   1.518 -3.5164  0.9357  2.5172
  889SOL     OW 2665   0.875   2.521   2.131 -0.0862 -0.1667  0.3440
  889SOL    HW1 2666   0.795   2.508   2.065 -0.7442  1.2423 -1.7031
  889SOL    HW2 2667   0.963   2.498   2.075 -1.2467 -1.2045  1.8707
  890SOL     OW 2668   2.342   2.407   0.157 -0.2282 -0.9507 -0.4273
  890SOL    HW1 2669   2.385   2.471   0.082  2.0523 -2.0884 -2.0772
  890SOL    HW2 2670   2.239   2.407   0.167 -0.2726  1.2856 -0.4229
  891SOL     OW 2671   2.571   1.534   0.608  0.1392  0.2577 -0.4834
  891SOL    HW1 2672   2.566   1.488   0.699  2.7109  0.2255 -1.7343
  891SOL    HW2 2673   2.480   1.572   0.584 -0.3419 -2.8993  2.0284
  892SOL     OW 2674   0.231   0.291   2.219 -0.3790  0.6454  0.3919
  892SOL    HW1 2675   0.251   0.303   2.118  2.2464 -0.3057 -1.5251
  892SOL    HW2 2676   0.311   0.331   2.271  1.1911  0.2915 -3.9248
  893SOL     OW 2677   1.671   0.245   2.710  0.3277  0.1635 -0.4422
  893SOL    HW1 2678   1.741   0.303   2.760  1.5180 -0.1582 -0.7364
  893SOL    HW2 2679   1.578   0.291   2.702 -1.3137 -1.3190  0.2479
  894SOL     OW 2680   2.145   1.960   0.048 -0.1449  0.3977  0.1203
  894SOL    HW1 2681   2.137   1.913  -0.044  0.8189 -1.1827 -1.9097
  894SOL    HW2 2682   2.178   1.896   0.124  0.2613 -0.4682 -1.8908
  895SOL     OW 2683   2.898   1.388   0.819 -0.3372  0.0782 -0.4031
  895SOL    HW1 2684   2.977   1.334   0.858 -1.6044 -0.0028  1.9086
  895SOL    HW2 2685   2.923   1.486   0.792 -0.8935  2.1915  2.2264
  896SOL     OW 2686   1.729   1.799   1.194 -0.0274 -0.3554  0.5034
  896SOL    HW1 2687   1.804   1.839   1.131  2.0404 -1.2898  0.9722
  896SOL    HW2 2688   1.635   1.796   1.152 -0.8732  1.5626 -0.7491
  897SOL     OW 2689   0.331   0.526   3.096  0.3929  0.1721 -0.3891
  897SOL    HW1 2690   0.274   0.592   3.042  0.3708 -0.8211 -0.5740
  897SOL    HW2 2691   0.421   0.566   3.128  0.7747 -3.5448 -2.8381
  898SOL     OW 2692   0.551   2.820   1.148 -0.2868  0.5896  0.3103
  898SOL    HW1 2693   0.479   2.896   1.152  0.7135  2.2408 -0.5836
  898SOL    HW2 2694   0.645   2.844   1.182  0.4906  0.4666 -3.2402
  899SOL     OW 2695   2.692   0.916   1.232 -0.0418  0.1347 -0.5581
  899SOL    HW1 2696   2.619   0.877   1.167 -0.8206 -0.6089 -0.9683
  899SOL    HW2 2697   2.776   0.945   1.181  2.1184 -0.1415  2.1748
  900SOL     OW 2698   1.007   2.367   2.335  0.3918 -1.0443 -0.7483
  900SOL    HW1 2699   0.960   2.424   2.264  0.9556 -2.8573  2.8484
  900SOL    HW2 2700   0.963   2.377   2.430  1.3122 -1.4527 -1.3219
  901SOL     OW 2701   1.899   2.466   1.384  0.2336 -0.7382 -0.3824
  901SOL    HW1 2702   1.875   2.456   1.283  1.3082 -2.6219 -0.4682
  901SOL    HW2 2703   1.999   2.447   1.392 -2.6223  1.1775 -1.1633
  902SOL     OW 2704   2.575   1.633   1.464 -0.8167 -0.0560  0.5107
  902SOL    HW1 2705   2.619   1.619   1.556  0.7732  1.7645  0.0468
  902SOL    HW2 2706   2.641   1.607   1.383  1.3991 -0.4234  1.7241
  903SOL     OW 2707   0.263   2.320   1.973  0.3280  0.2167 -0.3328
  903SOL    HW1 2708   0.167   2.329   2.009  1.4956 -1.8228  2.7393
  903SOL    HW2 2709   0.275   2.349   1.869 -2.8988 -0.7505 -2.2662
  904SOL     OW 2710   1.969   0.790   2.586 -0.0332 -0.3186  0.1932
  904SOL    HW1 2711   1.898   0.721   2.622  0.1449 -3.8017  0.3405
  904SOL    HW2 2712   1.967   0.799   2.485  1.5317  2.3834  0.8932
  905SOL     OW 2713   2.741   0.023   2.646 -0.3193  0.4279  0.0774
  905SOL    HW1 2714   2.814  -0.054   2.645  1.8799  1.1614 -0.4979
  905SOL    HW2 2715   2.775   0.111   2.605 -1.1632  1.4448  0.3586
  906SOL     OW 2716   0.124   1.749   1.962 -0.3411 -0.3828  0.6012
  906SOL    HW1 2717   0.059   1.792   1.892 -0.6879  0.3509  1.5445
  906SOL    HW2 2718   0.220   1.793   1.957 -2.1497 -1.1106 -0.7979
  907SOL     OW 2719   0.175   2.459   1.049  0.1401  0.1215  0.2998
  907SOL    HW1 2720   0.241   2.541   1.044  3.4084 -0.2593  0.5874
  907SOL    HW2 2721   0.116   2.449   0.964  0.9300 -0.4743 -1.6794
  908SOL     OW 2722   2.647   2.888   0.419 -0.4565 -0.4684  0.5778
  908SOL    HW1 2723   2.621   2.914   0.322  2.8667  1.4703 -2.6945
  908SOL    HW2 2724   2.661   2.788   0.423  0.2932 -1.7249 -1.9000
  909SOL     OW 2725   0.756   0.897   2.651 -1.1967 -0.1320 -0.1246
  909SOL    HW1 2726   0.700   0.818   2.626  0.0489  1.1785  4.2279
  909SOL    HW2 2727   0.831   0.921   2.585 -0.8517  1.2974  2.0266
  910SOL     OW 2728   1.751   1.783   2.013  0.5984  0.7039 -0.3692
  910SOL    HW1 2729   1.802   1.823   1.932 -1.0297 -0.2623 -1.5360
  910SOL    HW2 2730   1.680   1.852   2.049 -0.3552 -1.0360  1.1134
  911SOL     OW 2731   1.754   3.055   1.551 -0.1283  0.4459  0.0321
  911SOL    HW1 2732   1.849   3.009   1.531  0.4850  0.0961 -1.4124
  911SOL    HW2 2733   1.714   3.005   1.638 -0.4317 -0.3033  0.5545
  912SOL     OW 2734   2.818   0.943   0.787 -0.3516 -0.2871  0.3629
  912SOL    HW1 2735   2.807   0.941   0.891 -0.6151  0.0327 -0.2252
  912SOL    HW2 2736   2.823   1.041   0.753  0.1861 -0.2087  0.4577
  913SOL     OW 2737   2.541   1.257   1.556  0.3382 -0.1530 -0.4172
  913SOL    HW1 2738   2.531   1.159   1.530  1.3183 -1.1855 -0.4328
  913SOL    HW2 2739   2.599   1.312   1.485 -0.9627  0.2923  0.1844
  914SOL     OW 2740   2.804   0.537   1.246 -0.1010 -0.6792  0.1832
  914SOL    HW1 2741   2.789   0.434   1.267  0.3298 -0.1944  3.2773
  914SOL    HW2 2742   2.775   0.596   1.330 -2.7579 -3.0907  0.7035
  915SOL     OW 2743   1.240   0.819   1.007 -0.4128  0.8872 -0.1722
  915SOL    HW1 2744   1.282   0.911   1.035  1.5118 -0.1593  0.2502
  915SOL    HW2 2745   1.153   0.798   1.058 -0.9947  0.2890  0.3910
  916SOL     OW 2746   0.516   0.055   0.588 -0.2440 -0.6187 -0.0534
  916SOL    HW1 2747   0.543   0.122   0.666  0.0236  0.0813  1.4015
  916SOL    HW2 2748   0.531   0.101   0.493  0.2443 -0.2370 -0.8508
  917SOL     OW 2749   2.761   2.620   1.927  0.1617 -0.2339 -0.3283
  917SOL    HW1 2750   2.667   2.639   1.893  2.3914 -1.4879  0.5531
  917SOL    HW2 2751   2.821   2.704   1.957  1.4344  0.6197  1.2127
  918SOL     OW 2752   0.978   2.209   3.077  0.2100  0.3164  0.4408
  918SOL    HW1 2753   0.956   2.247   3.173  1.4017  0.8090  0.2524
  918SOL    HW2 2754   0.996   2.106   3.077 -1.7074  0.4290 -1.8426
  919SOL     OW 2755   0.942   1.624   2.830  0.4640  0.4075  0.5447
  919SOL    HW1 2756   1.008   1.678   2.774 -0.8029  0.4292 -1.5645
  919SOL    HW2 2757   0.877   1.560   2.780 -2.4220  0.3806  4.1756
  920SOL     OW 2758   1.250   2.062   2.523  0.4796  0.1255 -0.0050
  920SOL    HW1 2759   1.199   2.064   2.428 -0.2882  3.6238 -3.4556
  920SOL    HW2 2760   1.291   1.969   2.554  2.5125 -0.3138  2.2590
  921SOL     OW 2761   1.036   0.155   2.571  0.1608  0.0269 -0.0843
  921SOL    HW1 2762   1.055   0.133   2.469 -1.9253 -2.1912 -0.3226
  921SOL    HW2 2763   0.938   0.134   2.593 -4.1491  0.3032 -0.1714
  922SOL     OW 2764   2.159   2.404   2.768 -0.9798  0.3185 -0.0033
  922SOL    HW1 2765   2.136   2.303   2.782  1.6743  0.2822  2.2799
  922SOL    HW2 2766   2.101   2.459   2.697 -1.0420 -0.2811 -2.5638
  923SOL     OW 2767   1.185   2.670   0.267 -0.4092  0.5654 -0.5529
  923SOL    HW1 2768   1.257   2.715   0.327  1.1987  0.6036  0.0560
  923SOL    HW2 2769   1.212   2.572   0.230 -1.0882  0.2592 -2.4222
  924SOL     OW 2770   2.902   1.574   0.083 -0.3370 -0.0930  0.3855
  924SOL    HW1 2771   2.821   1.570   0.021  2.2507 -3.4195  0.5614
  924SOL    HW2 2772   2.993   1.582   0.034 -0.7397  1.1301  0.3240
  925SOL     OW 2773   0.054   2.846   1.673  0.5919  0.3143 -0.1474
  925SOL    HW1 2774  -0.036   2.893   1.689  0.8120  0.1724 -0.3184
  925SOL    HW2 2775   0.036   2.750   1.638  1.0156 -0.6666  0.0996
  926SOL     OW 2776   1.428   2.896   1.326  0.2572 -0.5196  0.2205
  926SOL    HW1 2777   1.453   2.878   1.228 -1.9461 -2.5930  0.5253
  926SOL    HW2 2778   1.452   2.992   1.359  0.5582 -0.9560  2.4615
  927SOL     OW 2779   0.291   2.528   1.762  0.2270  0.0625  0.0515
  927SOL    HW1 2780   0.230   2.495   1.685  0.6653  0.3068 -1.4130
  927SOL    HW2 2781   0.363   2.591   1.726  0.1684 -2.4479 -0.5022
  928SOL     OW 2782   1.605   1.968   2.133  0.2659 -0.2963 -0.3705
  928SOL    HW1 2783   1.625   2.067   2.106  3.3458  0.1517  0.5376
  928SOL    HW2 2784   1.504   1.955   2.143  2.3847 -0.5725  2.5213
  929SOL     OW 2785   2.415   2.472   2.822 -0.9987  0.0218 -0.4075
  929SOL    HW1 2786   2.313   2.451   2.799  1.9598  0.8451  1.7839
  929SOL    HW2 2787   2.479   2.471   2.741  0.0882 -1.8562  1.7018
  930SOL     OW 2788   2.221   1.986   1.093  0.0333  0.3498  0.1016
  930SOL    HW1 2789   2.190   1.975   1.190 -1.4641 -0.4166  1.7067
  930SOL    HW2 2790   2.296   2.056   1.085  1.8062  1.4631 -0.3484
  931SOL     OW 2791   0.555   1.723   2.604 -0.1106  0.2095 -0.0363
  931SOL    HW1 2792   0.624   1.718   2.678  0.4808 -1.6041  0.3089
  931SOL    HW2 2793   0.533   1.632   2.562  4.6375 -1.7408  1.2590
  932SOL     OW 2794   0.462   0.100   2.945 -0.2266  0.4019 -0.2588
  932SOL    HW1 2795   0.556   0.135   2.925  0.2708 -2.5911  0.7379
  932SOL    HW2 2796   0.459  -0.004   2.961  0.7038 -1.3320 -0.6735
  933SOL     OW 2797   1.055   0.782   3.003 -0.0277 -0.0551  0.6376
  933SOL    HW1 2798   1.097   0.805   3.096  0.7786 -1.2528 -1.7532
  933SOL    HW2 2799   1.017   0.871   2.962  1.7497 -0.1881  1.8013
  934SOL     OW 2800   0.822   2.979   2.739 -0.5109 -0.3237  0.2415
  934SOL    HW1 2801   0.863   2.911   2.678  0.7483  1.6138  0.2875
  934SOL    HW2 2802   0.846   2.951   2.839 -3.4330 -0.0420  1.4373
  935SOL     OW 2803   3.084   0.497   0.854 -0.1007  0.1581  1.0435
  935SOL    HW1 2804   3.112   0.446   0.767  1.4961 -2.3685 -2.2967
  935SOL    HW2 2805   2.989   0.538   0.841 -0.6059  0.3400  1.6420
  936SOL     OW 2806   1.063   2.951   0.163 -0.1994  0.3344 -0.2841
  936SOL    HW1 2807   1.132   2.984   0.089  0.1805 -2.0992 -1.1341
  936SOL    HW2 2808   1.083   2.858   0.199 -2.0410  2.8945 -2.0260
  937SOL     OW 2809   1.927   2.625   2.073  0.4316 -0.1957 -0.2624
  937SOL    HW1 2810   1.846   2.677   2.112  0.8838  0.8861 -3.0375
  937SOL    HW2 2811   1.949   2.654   1.973  0.4535 -0.0579 -1.8678
  938SOL     OW 2812   2.795   2.160   1.473 -0.3801  0.1056 -0.0722
  938SOL    HW1 2813   2.755   2.251   1.488  0.9818  0.5469 -2.1488
  938SOL    HW2 2814   2.838   2.122   1.559  1.0851  1.1795 -0.9889
  939SOL     OW 2815   2.790   1.076   2.493 -0.4124  0.2154 -0.0492
  939SOL    HW1 2816   2.875   1.031   2.458 -0.7816  2.1503  2.3614
  939SOL    HW2 2817   2.791   1.098   2.598 -3.6396  0.2736  0.3198
  940SOL     OW 2818   1.064   0.486   2.636  0.3868  0.0682 -0.3073
  940SOL    HW1 2819   1.151   0.428   2.657 -0.0869 -1.8824 -0.4848
  940SOL    HW2 2820   0.971   0.423   2.644 -0.4895 -1.8364 -1.6088
  941SOL     OW 2821   0.053   2.842   2.196 -0.7055 -0.1360 -0.1735
  941SOL    HW1 2822   0.033   2.741   2.201  2.0973  3.8536  0.7137
  941SOL    HW2 2823   0.089   2.879   2.286  1.5728  1.5428 -2.0614
  942SOL     OW 2824   0.056   0.075   2.521  0.1302  0.3605  0.5706
  942SOL    HW1 2825   0.123   0.076   2.596 -1.3067 -1.0821  2.1230
  942SOL    HW2 2826   0.040   0.169   2.475  0.6501  0.7429 -1.3742
  943SOL     OW 2827   2.069   1.582   2.416 -0.4326  0.5288 -0.2362
  943SOL    HW1 2828   2.085   1.539   2.318  0.0894 -1.8626 -4.2962
  943SOL    HW2 2829   2.147   1.551   2.480  1.4769 -0.9103 -1.0573
  944SOL     OW 2830   2.151   2.416   1.483 -0.0570 -0.0398  0.1812
  944SOL    HW1 2831   2.215   2.474   1.549 -1.1012  0.2495 -0.7841
  944SOL    HW2 2832   2.105   2.334   1.534 -1.4542 -1.1028  3.6319
  945SOL     OW 2833   0.590   1.423   0.356  0.8797 -0.3231 -0.5685
  945SOL    HW1 2834   0.619   1.449   0.258 -0.5452  0.2259 -0.8621
  945SOL    HW2 2835   0.620   1.326   0.386  1.8198 -1.4987  0.0797
  946SOL     OW 2836   0.391   1.009   2.539 -0.6204 -0.1353  0.0166
  946SOL    HW1 2837   0.322   0.982   2.467 -1.7064  1.0849  2.6418
  946SOL    HW2 2838   0.396   1.111   2.543  1.2648  2.0595 -2.4211
  947SOL     OW 2839   1.474   0.501   0.121 -0.1174 -0.5341  0.1099
  947SOL    HW1 2840   1.395   0.560   0.100 -2.1488 -0.3367  0.9237
  947SOL    HW2 2841   1.448   0.405   0.157  1.0991 -1.6177 -2.1469
  948SOL     OW 2842   1.943   3.085   2.195 -0.0488  0.5553 -0.3025
  948SOL    HW1 2843   1.913   3.071   2.098  0.7853 -2.8537  0.5678
  948SOL    HW2 2844   1.931   3.003   2.265 -0.6497 -1.3442  1.9031
  949SOL     OW 2845   0.624   2.535   0.481  0.2154  0.1014 -0.0117
  949SOL    HW1 2846   0.633   2.634   0.449 -0.4677 -0.2395 -0.0012
  949SOL    HW2 2847   0.683   2.518   0.567 -0.2723 -1.7597 -0.6318
  950SOL     OW 2848   0.308   2.091   3.064  0.0278 -0.3584 -0.5193
  950SOL    HW1 2849   0.227   2.155   3.068 -1.5185 -2.0178  1.8449
  950SOL    HW2 2850   0.272   1.993   3.044  0.3905 -1.4465 -0.7344
  951SOL     OW 2851   1.205   2.778   2.770  0.2335 -0.9279  0.1334
  951SOL    HW1 2852   1.160   2.850   2.705 -1.8550  2.5288  0.7034
  951SOL    HW2 2853   1.297   2.817   2.804 -1.3610  1.6435  1.0175
  952SOL     OW 2854   0.095   1.651   0.468 -0.3780  0.2368  0.4526
  952SOL    HW1 2855   0.188   1.701   0.449 -1.7953 -2.2893 -0.3552
  952SOL    HW2 2856   0.078   1.645   0.567 -1.4286  0.8138 -3.3658
  953SOL     OW 2857   2.583   1.754   0.168 -0.3609 -0.5628 -1.0370
  953SOL    HW1 2858   2.552   1.654   0.196 -2.2838 -2.5777 -1.4302
  953SOL    HW2 2859   2.577   1.768   0.066 -0.3850 -1.8615  1.6094
  954SOL     OW 2860   2.146   0.550   1.016  0.3019  0.0621  0.8289
  954SOL    HW1 2861   2.103   0.580   0.924 -1.8839 -1.3487 -3.5066
  954SOL    HW2 2862   2.248   0.534   1.004 -0.1549  0.7235  0.2416
  955SOL     OW 2863   0.283   2.677   1.295 -0.0473  0.3075 -0.3474
  955SOL    HW1 2864   0.177   2.662   1.310  0.7024  1.0564  1.8754
  955SOL    HW2 2865   0.305   2.693   1.195  0.0571 -0.9709  0.6115
  956SOL     OW 2866   2.762   2.451   2.505 -0.3399  0.0096  0.0812
  956SOL    HW1 2867   2.781   2.355   2.488  0.7579  1.9848  1.3535
  956SOL    HW2 2868   2.799   2.511   2.427 -0.1918  0.6941 -0.8524
  957SOL     OW 2869   1.538   2.040   2.685 -0.2087  0.3864 -1.0480
  957SOL    HW1 2870   1.529   1.935   2.690 -2.1315  3.4474 -1.8378
  957SOL    HW2 2871   1.549   2.066   2.585 -1.8106  1.1576 -1.8479
  958SOL     OW 2872   2.648   2.344   2.997  0.2641  0.0956  0.2618
  958SOL    HW1 2873   2.563   2.368   2.936 -1.1914  1.0103  0.0291
  958SOL    HW2 2874   2.659   2.245   3.031 -0.1793 -0.9972  1.1168
  959SOL     OW 2875   0.268   2.797   0.008 -1.4662  0.0370 -0.1270
  959SOL    HW1 2876   0.172   2.774   0.038  0.4316  0.3985  1.4311
  959SOL    HW2 2877   0.341   2.736   0.046 -2.9413  0.4941 -3.0691
  960SOL     OW 2878   1.991   0.498   1.919  0.4917 -0.1870 -0.1167
  960SOL    HW1 2879   1.942   0.578   1.875  0.5354  2.8542 -1.7530
  960SOL    HW2 2880   2.011   0.513   2.019  0.1879 -2.5302 -0.2429
  961SOL     OW 2881   2.576   1.826   1.081  0.0095  0.2872 -0.0404
  961SOL    HW1 2882   2.551   1.908   1.026  1.0294  0.4508  2.4927
  961SOL    HW2 2883   2.653   1.841   1.147 -0.5623  0.8691 -2.6496
  962SOL     OW 2884   1.265   0.910   0.058 -0.5638  0.4196 -0.3568
  962SOL    HW1 2885   1.256   0.961  -0.036  0.7862  1.6899  0.6090
  962SOL    HW2 2886   1.288   0.983   0.128 -0.8804  0.2463  0.6669
  963SOL     OW 2887   2.315   2.626   1.855 -0.0517  0.2486  0.0240
  963SOL    HW1 2888   2.304   2.545   1.918 -1.2583 -0.6859 -1.8716
  963SOL    HW2 2889   2.321   2.712   1.909  0.0993 -1.3658 -0.8714
  964SOL     OW 2890   2.439   0.377   1.650  0.3637  0.2450  0.1828
  964SOL    HW1 2891   2.522   0.400   1.709  0.4418  2.5683  1.1099
  964SOL    HW2 2892   2.449   0.401   1.553 -3.4201 -1.4031 -1.1214
  965SOL     OW 2893   2.624   2.991   0.178  0.3200 -0.0459 -0.4817
  965SOL    HW1 2894   2.687   2.949   0.112 -0.6130  0.7972 -3.8213
  965SOL    HW2 2895   2.546   3.038   0.125 -4.0291  1.9638 -4.8262
  966SOL     OW 2896   2.560   2.584   2.215  0.3245 -0.1931 -0.6444
  966SOL    HW1 2897   2.467   2.557   2.182  0.9581  0.5157 -0.2985
  966SOL    HW2 2898   2.563   2.685   2.234  0.0005  1.0077 -0.5095
  967SOL     OW 2899   2.761   2.791   2.438 -0.2281  0.2598 -0.3349
  967SOL    HW1 2900   2.790   2.720   2.370  0.8102 -0.2257 -0.2305
  967SOL    HW2 2901   2.846   2.844   2.479  2.9690 -0.6078  1.8975
  968SOL     OW 2902   2.026   1.072   2.675  0.1876 -0.1165 -0.3578
  968SOL    HW1 2903   1.970   1.148   2.630  1.6048  1.9880 -0.9777
  968SOL    HW2 2904   2.015   0.973   2.631  1.1985 -4.6380 -0.5164
  969SOL     OW 2905   2.749   2.337   1.115 -0.3507 -0.1481 -0.4782
  969SOL    HW1 2906   2.677   2.331   1.038 -1.2750  0.8502 -0.6147
  969SOL    HW2 2907   2.768   2.246   1.162 -0.2929  0.3217  0.0629
  970SOL     OW 2908   1.106   2.200   1.751  0.0480  0.5997 -0.9988
  970SOL    HW1 2909   1.005   2.177   1.724 -1.5101  1.6096  2.4138
  970SOL    HW2 2910   1.130   2.174   1.851 -1.5506  2.2228  0.9588
  971SOL     OW 2911   2.827   2.083   1.931 -0.2242  0.4446  0.5190
  971SOL    HW1 2912   2.824   2.186   1.951 -0.7255  2.9206 -2.1179
  971SOL    HW2 2913   2.879   2.061   1.843  3.6248  0.5459  1.1607
  972SOL     OW 2914   2.019   2.385   0.264 -0.5392  0.1183 -0.2658
  972SOL    HW1 2915   2.000   2.302   0.206  0.9849 -0.3375 -0.2184
  972SOL    HW2 2916   1.986   2.375   0.359  0.9960 -0.8862 -0.3867
  973SOL     OW 2917   1.229   1.072   1.981 -0.0109  0.4366  0.1038
  973SOL    HW1 2918   1.162   1.043   1.904 -0.9482 -3.7531  2.9996
  973SOL    HW2 2919   1.246   1.174   2.000  3.0662  0.2497  1.5331
  974SOL     OW 2920   1.648   0.551   1.898  0.6277 -0.6993 -0.1025
  974SOL    HW1 2921   1.729   0.613   1.878  0.3819 -0.1391 -2.5443
  974SOL    HW2 2922   1.562   0.605   1.904 -0.8627  1.0349  1.1906
  975SOL     OW 2923   2.329   3.054   3.085 -0.3706 -0.1887 -0.2151
  975SOL    HW1 2924   2.285   2.973   3.132  0.2905  4.5138 -0.7811
  975SOL    HW2 2925   2.373   3.030   2.993 -0.7380 -1.0405  0.8734
  976SOL     OW 2926   1.935   2.874   2.355 -0.1508  0.4010  0.0411
  976SOL    HW1 2927   1.877   2.791   2.317  0.3003 -1.3258 -1.6098
  976SOL    HW2 2928   1.926   2.885   2.455 -1.8293 -0.8895 -2.7592
  977SOL     OW 2929   0.501   0.667   1.037  0.4856  0.6272 -0.1621
  977SOL    HW1 2930   0.416   0.664   0.986 -1.2473  0.7622  0.6252
  977SOL    HW2 2931   0.566   0.595   0.997 -0.1685  1.2431  0.5273
   3.10000   3.10000   3.10000
