1000 SPC/Fw water molecules t=   0.78000 step= 780
 2931
    1SOL     OW    1   2.483   0.389   2.601 -0.4254 -0.8022 -0.0938
    1SOL    HW1    2   2.500   0.286   2.599  3.0173  0.2173  1.9600
    1SOL    HW2    3   2.517   0.436   2.687 -2.0936 -2.4634 -0.6140
    2SOL     OW    4   2.758   3.070   1.414 -0.3604  0.6350  0.3519
    2SOL    HW1    5   2.826   3.100   1.342 -1.0133 -0.4283  2.8033
    2SOL    HW2    6   2.725   3.151   1.475  1.5147  2.4113  0.4678
    3SOL     OW    7   2.744   2.624   0.342 -0.0911 -0.1306  0.3480
    3SOL    HW1    8   2.715   2.530   0.369  2.3074  0.3150 -0.7769
    3SOL    HW2    9   2.805   2.662   0.416 -0.4512 -0.0172  1.3967
    4SOL     OW   10   1.278   1.478   2.363 -0.1208 -0.4617 -0.3141
    4SOL    HW1   11   1.189   1.528   2.346  1.3234 -0.3576  1.4831
    4SOL    HW2   12   1.272   1.377   2.356  1.7950  3.5033  0.9723
    5SOL     OW   13   1.140   1.513   3.089 -0.1792 -0.3704 -0.0427
    5SOL    HW1   14   1.218   1.577   3.123 -0.2868 -0.3678 -1.7340
    5SOL    HW2   15   1.047   1.554   3.103 -0.8994  0.8575 -0.5327
    6SOL     OW   16   0.097   1.878   2.945  0.3988 -0.4596 -0.0275
    6SOL    HW1   17   0.010   1.889   2.997 -0.8630 -0.7004 -2.2362
    6SOL    HW2   18   0.170   1.819   2.992  3.1495 -1.0928 -1.2345
    7SOL     OW   19   2.575   0.950   1.152  0.5372 -0.8245 -0.3369
    7SOL    HW1   20   2.497   0.881   1.151  1.9945  1.3113 -1.5298
    7SOL    HW2   21   2.585   0.977   1.052  1.6299 -0.2205 -0.3472
    8SOL     OW   22   0.383   0.605   1.516  0.3802  0.6168  0.7497
    8SOL    HW1   23   0.481   0.589   1.550  0.4640  2.0547  1.8726
    8SOL    HW2   24   0.381   0.578   1.416  2.1438  2.0650  0.4873
    9SOL     OW   25   1.176   0.878   2.389 -0.0602 -0.1711  0.0263
    9SOL    HW1   26   1.228   0.914   2.306 -1.6741 -0.0160 -1.2173
    9SOL    HW2   27   1.098   0.822   2.350  0.0228 -0.2871 -0.0781
   10SOL     OW   28   0.637   1.319   1.297 -0.1880  0.1000 -0.1985
   10SOL    HW1   29   0.546   1.320   1.247  0.9771 -2.9501  1.2394
   10SOL    HW2   30   0.687   1.411   1.295  2.1552  3.0732 -0.1584
   11SOL     OW   31   2.370   2.736   0.861 -0.3805  0.2253 -0.5922
   11SOL    HW1   32   2.311   2.780   0.938 -1.0740 -4.4876 -0.8037
   11SOL    HW2   33   2.471   2.720   0.884 -1.4558  3.2141  1.2799
   12SOL     OW   34   1.476   0.904   0.360  0.4284  0.2210  0.0168
   12SOL    HW1   35   1.385   0.941   0.331 -1.6534 -1.0196 -0.8993
   12SOL    HW2   36   1.496   0.823   0.300 -1.5375 -0.3994 -1.5852
   13SOL     OW   37   2.462   0.662   1.782  0.0962 -0.2417 -0.0705
   13SOL    HW1   38   2.367   0.645   1.820  1.7775  2.9024  0.8619
   13SOL    HW2   39   2.466   0.643   1.681 -0.7130  1.1790 -1.0811
   14SOL     OW   40   1.901   0.058   0.737 -0.1699 -0.3252  0.1013
   14SOL    HW1   41   1.846   0.090   0.653  0.5057  1.6346 -2.3785
   14SOL    HW2   42   1.847  -0.001   0.804 -0.2709 -0.6288  0.2711
   15SOL     OW   43   1.983   2.074   2.732  0.0178  0.6791  0.1841
   15SOL    HW1   44   1.938   2.156   2.774 -0.5385 -1.4767  0.0164
   15SOL    HW2   45   1.920   2.001   2.694  1.4731 -0.9107 -0.7347
   16SOL     OW   46   1.610   1.711   2.959  0.2359  0.3522  0.3360
   16SOL    HW1   47   1.657   1.620   2.968  2.1444  2.7052 -2.7008
   16SOL    HW2   48   1.663   1.782   3.013  0.4186 -1.1407  1.5030
   17SOL     OW   49   0.151   0.523   0.186 -0.2478 -0.2851  0.4492
   17SOL    HW1   50   0.227   0.532   0.115  3.7020  1.0782  0.4911
   17SOL    HW2   51   0.062   0.547   0.138  1.4018 -0.8791  0.1300
   18SOL     OW   52   0.941   2.958   2.098  0.8248 -0.2773 -0.1795
   18SOL    HW1   53   0.859   2.889   2.096 -0.5509 -1.1069  0.0301
   18SOL    HW2   54   1.014   2.941   2.031  0.3773  1.1957  3.0657
   19SOL     OW   55   0.523   0.824   1.890  0.0261 -0.2997  0.0418
   19SOL    HW1   56   0.538   0.798   1.991  1.6029  2.5431  0.0607
   19SOL    HW2   57   0.622   0.833   1.843  0.9206  1.0632  3.0171
   20SOL     OW   58   0.227   2.713   0.841  0.1397 -0.0069  0.6519
   20SOL    HW1   59   0.153   2.767   0.791 -1.5466 -2.8361  0.7732
   20SOL    HW2   60   0.301   2.673   0.780 -0.2164 -1.6239  1.6025
   21SOL     OW   61   2.749   0.216   2.094 -0.3660 -0.2533  0.1217
   21SOL    HW1   62   2.681   0.159   2.034  0.0149  0.4392 -0.4137
   21SOL    HW2   63   2.825   0.155   2.134 -1.0154  0.4999  0.2454
   22SOL     OW   64   2.376   0.229   0.101  0.2382  0.2090  0.8803
   22SOL    HW1   65   2.370   0.127   0.075  0.7483  0.2655  0.5228
   22SOL    HW2   66   2.289   0.280   0.090  3.9827  0.1071  2.0711
   23SOL     OW   67   2.772   0.644   0.640  0.1063 -0.0068  0.7138
   23SOL    HW1   68   2.778   0.543   0.610  0.7533 -0.0609 -2.7824
   23SOL    HW2   69   2.753   0.712   0.564  0.2732  3.2711 -1.5885
   24SOL     OW   70   0.173   1.914   0.378  0.7805  0.2502 -0.4463
   24SOL    HW1   71   0.140   1.987   0.312  1.0669  3.0734 -0.0115
   24SOL    HW2   72   0.275   1.911   0.375 -0.7241 -3.4465  0.8551
   25SOL     OW   73   2.207   0.548   0.331 -0.0239  0.1711  0.0489
   25SOL    HW1   74   2.238   0.623   0.271 -1.5805 -1.2787  0.1811
   25SOL    HW2   75   2.277   0.469   0.326 -2.8901 -1.2548  1.3208
   26SOL     OW   76   2.530   2.099   2.092 -0.1072 -0.5346 -0.3728
   26SOL    HW1   77   2.589   2.171   2.143 -0.5934  1.9877 -0.9663
   26SOL    HW2   78   2.592   2.044   2.031 -1.9475  2.4542  0.6731
   27SOL     OW   79   0.601   2.973   0.220 -0.2352 -0.0488  0.4729
   27SOL    HW1   80   0.698   2.946   0.191  1.8773 -0.3414 -0.8112
   27SOL    HW2   81   0.545   2.991   0.135  0.8462  0.8211 -0.7005
   28SOL     OW   82   1.587   0.158   0.288 -0.2763  0.0422 -0.0394
   28SOL    HW1   83   1.613   0.132   0.191  0.5386 -1.1697 -1.1593
   28SOL    HW2   84   1.607   0.261   0.310 -2.3595  1.1076  0.1997
   29SOL     OW   85   1.955   0.597   0.418  0.2840  0.0402  0.1599
   29SOL    HW1   86   1.933   0.702   0.439  1.3349  1.6167 -2.0009
   29SOL    HW2   87   2.058   0.582   0.418  0.6151 -1.0337  1.0334
   30SOL     OW   88   0.194   1.992   0.909 -0.2738 -0.1423  0.3559
   30SOL    HW1   89   0.210   2.013   0.806 -0.6630 -0.5707 -1.0225
   30SOL    HW2   90   0.095   2.020   0.945 -0.9686 -1.4706  0.3370
   31SOL     OW   91   2.117   3.065   2.315  0.2902 -0.2238  0.0397
   31SOL    HW1   92   2.147   3.106   2.406 -0.4148  3.7532 -2.1935
   31SOL    HW2   93   2.035   3.003   2.320 -0.3149 -0.8394 -1.1201
   32SOL     OW   94   2.962   0.101   0.198 -0.0160 -0.2973 -0.6365
   32SOL    HW1   95   2.933   0.022   0.255 -0.4548  0.7509  1.6252
   32SOL    HW2   96   3.045   0.153   0.243 -0.8003 -0.0537  1.0655
   33SOL     OW   97   0.944   0.282   0.618  0.0748 -0.5573  0.2013
   33SOL    HW1   98   0.955   0.188   0.579 -1.1243  2.4334 -0.3101
   33SOL    HW2   99   1.034   0.333   0.608  1.0290 -2.0036 -3.2434
   34SOL     OW  100   0.305   2.785   1.083 -0.3760 -0.4093 -0.2998
   34SOL    HW1  101   0.263   2.759   0.987  0.1933 -0.1806 -2.2536
   34SOL    HW2  102   0.401   2.825   1.070 -2.3257 -0.9807 -2.4787
   35SOL     OW  103   0.026   0.169   1.857 -0.3069 -0.4468 -0.1377
   35SOL    HW1  104   0.069   0.079   1.881  0.6126  1.0795 -0.0380
   35SOL    HW2  105  -0.018   0.175   1.764  1.0973  1.4613 -0.1712
   36SOL     OW  106   1.965   1.158   1.748 -0.2917  0.1607 -0.2225
   36SOL    HW1  107   2.020   1.137   1.660  2.4016  1.2925  0.9018
   36SOL    HW2  108   2.021   1.211   1.816 -3.7439 -2.3122 -2.8717
   37SOL     OW  109   1.204   0.152   0.913 -0.0331 -0.1137  0.5100
   37SOL    HW1  110   1.249   0.228   0.968 -0.2752  1.6284  0.8378
   37SOL    HW2  111   1.271   0.073   0.891  1.1067  0.5050  0.7515
   38SOL     OW  112   1.079   2.807   2.464 -0.3495 -0.2654  0.3213
   38SOL    HW1  113   1.017   2.740   2.504 -0.1415 -1.6080  0.7058
   38SOL    HW2  114   1.029   2.881   2.405  0.2608 -1.6886 -1.6129
   39SOL     OW  115   2.309   1.396   3.025 -0.0467 -0.2215  0.1754
   39SOL    HW1  116   2.389   1.334   3.060 -1.4715 -5.0002 -0.8020
   39SOL    HW2  117   2.228   1.388   3.088 -1.7173  3.3994 -1.0330
   40SOL     OW  118   2.096   2.488   2.561  0.1140 -0.2427 -0.1319
   40SOL    HW1  119   2.050   2.579   2.582 -1.5803  0.9912  0.3571
   40SOL    HW2  120   2.033   2.406   2.546 -0.4080  0.1833  1.2034
   41SOL     OW  121   3.004   0.689   2.822  0.6965 -0.1336  0.5187
   41SOL    HW1  122   2.961   0.781   2.821 -0.0222  0.6081  3.0364
   41SOL    HW2  123   2.948   0.601   2.798 -0.9750 -2.6324 -0.1245
   42SOL     OW  124   1.751   1.750   0.509  0.2607 -0.5327 -0.8253
   42SOL    HW1  125   1.725   1.652   0.514  0.2785  1.9010 -1.2937
   42SOL    HW2  126   1.776   1.774   0.413 -1.0217 -1.4570 -0.8625
   43SOL     OW  127   0.460   1.691   1.093 -0.1991 -0.1060  0.6479
   43SOL    HW1  128   0.467   1.599   1.133  0.2106  0.0022 -4.0443
   43SOL    HW2  129   0.367   1.699   1.042  2.6292 -1.8183 -2.0494
   44SOL     OW  130   1.835   2.495   3.063 -0.2995  0.1294 -0.4703
   44SOL    HW1  131   1.814   2.580   3.008 -1.1366 -0.7079  2.6281
   44SOL    HW2  132   1.896   2.427   3.018 -2.8898 -1.1911  1.6131
   45SOL     OW  133   0.423   1.942   2.596  0.6563 -0.2869  0.1957
   45SOL    HW1  134   0.355   1.923   2.523  2.5371  1.2389 -0.8986
   45SOL    HW2  135   0.464   1.850   2.627  1.3847 -0.9300  3.1757
   46SOL     OW  136   1.250   0.700   0.209  0.0144  0.4020 -0.0625
   46SOL    HW1  137   1.291   0.773   0.143 -0.3933 -0.9609 -1.6792
   46SOL    HW2  138   1.149   0.683   0.184 -1.7503 -1.6036 -2.4714
   47SOL     OW  139   0.230   2.490   1.601  0.0789  0.5287  0.4172
   47SOL    HW1  140   0.237   2.388   1.577  0.5537 -0.9217 -3.2192
   47SOL    HW2  141   0.208   2.543   1.518  2.6896  1.1022  1.3210
   48SOL     OW  142   2.640   0.641   0.130 -0.0776  0.2220  0.2436
   48SOL    HW1  143   2.603   0.636   0.227  3.1628  2.1974 -1.3524
   48SOL    HW2  144   2.745   0.663   0.124  1.3886  0.8116 -3.2884
   49SOL     OW  145   0.324   0.790   1.704  0.2543  0.1924  0.2471
   49SOL    HW1  146   0.395   0.777   1.781  0.2620  0.4593 -0.6168
   49SOL    HW2  147   0.332   0.720   1.629 -2.1747  2.5075  0.1369
   50SOL     OW  148   1.677   1.119   0.283 -0.3031  0.0394  0.6946
   50SOL    HW1  149   1.679   1.025   0.236 -2.7308  2.4591  0.4231
   50SOL    HW2  150   1.611   1.120   0.367 -0.8188 -0.4360 -1.9113
   51SOL     OW  151   2.904   1.885   0.318 -0.1882  0.0297 -0.3838
   51SOL    HW1  152   2.815   1.845   0.276 -1.2970  0.3818  0.5098
   51SOL    HW2  153   2.968   1.816   0.361  2.4845 -1.8243  0.9787
   52SOL     OW  154   0.786   2.004   0.491 -0.1755 -0.2033  0.5411
   52SOL    HW1  155   0.692   2.051   0.519  0.2238 -0.9576 -1.6664
   52SOL    HW2  156   0.822   1.937   0.565  0.5423 -1.8562 -0.9221
   53SOL     OW  157   0.180   0.419   1.610 -0.2813  0.1817  0.4623
   53SOL    HW1  158   0.246   0.495   1.585 -1.5340 -2.2730 -0.9922
   53SOL    HW2  159   0.081   0.441   1.590  0.1056 -2.8179 -0.6247
   54SOL     OW  160   1.786   0.482   3.055  0.5364  0.0195 -0.2336
   54SOL    HW1  161   1.834   0.452   3.144 -0.3099 -1.3405  0.6834
   54SOL    HW2  162   1.683   0.480   3.062  1.4422 -0.5503  2.4269
   55SOL     OW  163   0.778   2.891   0.685 -0.5379 -0.0171  0.2288
   55SOL    HW1  164   0.729   2.981   0.693 -0.1281 -1.1635  1.1649
   55SOL    HW2  165   0.877   2.906   0.656 -0.2712 -4.2273 -1.0233
   56SOL     OW  166   0.484   1.615   0.035  0.6148 -0.0035 -0.0594
   56SOL    HW1  167   0.396   1.663   0.014 -2.1943  1.5222  0.0153
   56SOL    HW2  168   0.494   1.526  -0.024  0.9470  1.1767 -1.3937
   57SOL     OW  169   1.731   2.520   2.533 -0.3773 -0.1404 -0.5099
   57SOL    HW1  170   1.774   2.431   2.498  1.0076 -0.7592 -3.3840
   57SOL    HW2  171   1.626   2.517   2.561 -0.3590  1.0523 -3.8969
   58SOL     OW  172   0.639   0.299   1.040 -0.1950 -0.5213 -0.0816
   58SOL    HW1  173   0.536   0.311   1.034  3.5394  3.0831  1.9204
   58SOL    HW2  174   0.673   0.212   1.089  1.0354 -0.3804  0.7695
   59SOL     OW  175   0.453   2.444   2.749 -0.1382  0.7217 -0.0194
   59SOL    HW1  176   0.469   2.356   2.702  0.5415 -1.3380  0.7966
   59SOL    HW2  177   0.524   2.445   2.825 -0.4443  0.3303 -0.2868
   60SOL     OW  178   2.291   2.054   2.197  0.2338 -0.0205  0.2449
   60SOL    HW1  179   2.378   2.082   2.146 -3.2123 -1.4022 -0.6074
   60SOL    HW2  180   2.292   2.083   2.295 -0.0760 -2.0857 -4.0910
   61SOL     OW  181   1.331   0.633   0.509  0.4830 -0.1356  0.2345
   61SOL    HW1  182   1.252   0.685   0.548  0.9141 -2.4151  0.1426
   61SOL    HW2  183   1.346   0.657   0.413 -0.9721 -0.7565  0.5480
   62SOL     OW  184   2.771   1.814   2.907 -0.2012  0.0250 -0.4888
   62SOL    HW1  185   2.773   1.708   2.919 -0.0293  0.5346  2.7916
   62SOL    HW2  186   2.852   1.843   2.851  2.2028 -0.4176  0.8032
   63SOL     OW  187   0.613   0.924   0.162 -0.0833  0.1774 -0.6952
   63SOL    HW1  188   0.636   0.956   0.069  0.2383  0.7479  0.9022
   63SOL    HW2  189   0.693   0.911   0.223 -2.5623 -3.8525  2.0292
   64SOL     OW  190   0.116   0.494   2.468 -0.6804 -0.5827  0.0064
   64SOL    HW1  191   0.208   0.452   2.504  1.7004  0.8192 -1.3221
   64SOL    HW2  192   0.116   0.596   2.479  1.2641  0.2371  0.9938
   65SOL     OW  193   0.171   1.483   0.557 -0.4306 -0.0821  0.1113
   65SOL    HW1  194   0.228   1.547   0.618 -1.3623 -1.6784 -0.6980
   65SOL    HW2  195   0.214   1.437   0.476 -3.8844 -2.3952  1.2528
   66SOL     OW  196   2.553   0.391   0.598  0.3451  0.3833  0.3310
   66SOL    HW1  197   2.643   0.393   0.651 -1.3850 -0.5565 -0.8019
   66SOL    HW2  198   2.493   0.314   0.627  2.3994 -0.0906 -1.9998
   67SOL     OW  199   0.533   2.533   1.363  0.3134  0.3569 -0.0776
   67SOL    HW1  200   0.610   2.483   1.414 -0.9187 -4.0723  0.7855
   67SOL    HW2  201   0.453   2.464   1.357 -0.0597 -1.6773 -1.1145
   68SOL     OW  202   1.017   1.088   2.449  0.5331 -0.0904  0.2950
   68SOL    HW1  203   1.079   1.007   2.427  1.2025 -0.0031 -1.6651
   68SOL    HW2  204   0.941   1.104   2.378  1.0603 -1.0564 -1.8270
   69SOL     OW  205   0.748   2.765   2.161 -0.0706 -0.9687 -0.2153
   69SOL    HW1  206   0.779   2.670   2.140 -1.1432  0.5999  2.4864
   69SOL    HW2  207   0.645   2.777   2.181 -1.5740  1.8580  0.9292
   70SOL     OW  208   0.535   0.332   2.698 -0.5712  0.0583  0.2989
   70SOL    HW1  209   0.458   0.351   2.761  1.8878 -2.9026  0.7976
   70SOL    HW2  210   0.559   0.231   2.706 -1.5544  0.9687 -1.4490
   71SOL     OW  211   1.078   1.739   0.393  0.4516  0.3838  0.8004
   71SOL    HW1  212   1.011   1.680   0.436  0.4616  0.2660  0.6056
   71SOL    HW2  213   1.040   1.780   0.302 -1.0562 -0.4270  1.4013
   72SOL     OW  214   1.838   0.179   2.131  0.6109  0.5672  0.4623
   72SOL    HW1  215   1.932   0.213   2.161 -1.9674  1.1564 -1.0067
   72SOL    HW2  216   1.835   0.074   2.116 -0.7516 -0.7038  0.5292
   73SOL     OW  217   2.822   2.160   2.415 -0.2367 -0.3586 -0.0862
   73SOL    HW1  218   2.800   2.059   2.386 -0.1323 -1.3001  1.7826
   73SOL    HW2  219   2.841   2.158   2.511  1.6985  1.6984 -4.8339
   74SOL     OW  220   2.712   2.911   2.114 -1.0652  0.3634  0.5531
   74SOL    HW1  221   2.648   2.914   2.199 -0.8335  0.1926  0.2185
   74SOL    HW2  222   2.817   2.923   2.140  1.6425  0.1389  1.9918
   75SOL     OW  223   0.910   0.758   1.095 -0.0858  0.1358  0.0301
   75SOL    HW1  224   0.819   0.794   1.056 -0.8345  1.1619  0.0930
   75SOL    HW2  225   0.921   0.798   1.191  3.5462 -0.5606  1.7354
   76SOL     OW  226   1.699   1.227   2.502 -0.1189 -0.7078  0.3751
   76SOL    HW1  227   1.620   1.163   2.508  1.5751  0.2369 -0.9980
   76SOL    HW2  228   1.689   1.327   2.533 -0.7594  2.5229  0.9262
   77SOL     OW  229   2.996   0.917   0.972 -0.0562  0.1803 -0.1037
   77SOL    HW1  230   2.952   0.820   0.960  1.2087 -0.2002 -4.1136
   77SOL    HW2  231   3.061   0.916   1.053 -2.5023 -1.1305 -1.2641
   78SOL     OW  232   2.097   1.446   1.517 -0.0144  0.6652 -0.4948
   78SOL    HW1  233   2.196   1.465   1.501 -0.9076  0.6735 -3.3704
   78SOL    HW2  234   2.048   1.413   1.432 -0.9145 -0.8103 -0.0901
   79SOL     OW  235   0.606   1.348   0.871 -0.1497  0.6275  0.0788
   79SOL    HW1  236   0.505   1.358   0.891 -1.8565 -1.7743 -2.3438
   79SOL    HW2  237   0.623   1.293   0.784  1.9622  1.5978  2.0030
   80SOL     OW  238   0.618   0.473   1.574 -0.0228 -0.2709 -0.0762
   80SOL    HW1  239   0.693   0.515   1.515  0.4265 -0.7131  0.6377
   80SOL    HW2  240   0.635   0.375   1.590 -1.1956  0.8155  2.5835
   81SOL     OW  241   1.043   1.388   2.627  0.1865  0.3086  0.2473
   81SOL    HW1  242   1.042   1.296   2.581 -0.8239  1.5651  1.8743
   81SOL    HW2  243   0.966   1.441   2.591 -0.9548 -1.2736 -0.1299
   82SOL     OW  244   1.013   2.938   1.499  0.0535 -0.1501 -0.0130
   82SOL    HW1  245   1.028   2.998   1.416  0.4686  0.0956  1.5031
   82SOL    HW2  246   0.920   2.889   1.502  0.3247 -0.3469 -0.3213
   83SOL     OW  247   2.745   2.483   0.844  0.0609 -0.7479  0.1599
   83SOL    HW1  248   2.668   2.425   0.810  1.6443  0.6074  2.1571
   83SOL    HW2  249   2.723   2.584   0.829 -0.6896  1.7314  0.0010
   84SOL     OW  250   0.647   3.061   2.361 -0.8343  0.1241  0.7368
   84SOL    HW1  251   0.566   3.063   2.426 -0.3612 -1.0391 -1.7001
   84SOL    HW2  252   0.699   2.977   2.368  0.1965 -0.3434 -0.0950
   85SOL     OW  253   0.305   1.575   1.509 -0.3431 -0.3572 -0.1218
   85SOL    HW1  254   0.277   1.676   1.519 -1.6226  1.0376 -0.1871
   85SOL    HW2  255   0.375   1.535   1.579 -0.0383 -3.5666 -3.0795
   86SOL     OW  256   0.383   0.990   1.521  0.1363  0.1950  0.3853
   86SOL    HW1  257   0.361   0.938   1.435  0.2684 -0.1101 -0.1881
   86SOL    HW2  258   0.359   0.941   1.607  0.2571  1.5775 -0.1110
   87SOL     OW  259   1.611   0.657   0.219 -0.2782  0.0665  0.0275
   87SOL    HW1  260   1.689   0.720   0.219  0.0243 -1.7921  0.8923
   87SOL    HW2  261   1.591   0.606   0.128  0.3859 -0.0608 -0.6799
   88SOL     OW  262   1.604   1.360   0.207 -0.2488  0.2238  0.2615
   88SOL    HW1  263   1.622   1.258   0.217  2.0935  0.7405 -3.3818
   88SOL    HW2  264   1.508   1.381   0.234  0.8702  0.6264 -0.1985
   89SOL     OW  265   0.028   0.426   0.575 -0.3987  0.0803 -0.0139
   89SOL    HW1  266   0.091   0.349   0.603 -0.1622  0.6842 -2.3457
   89SOL    HW2  267  -0.065   0.387   0.548  0.0893 -0.7909 -0.4436
   90SOL     OW  268   0.900   1.624   0.048 -0.0604 -0.1064  0.4579
   90SOL    HW1  269   0.826   1.595   0.119 -1.2155 -0.4748  0.9670
   90SOL    HW2  270   0.875   1.592  -0.046 -1.4169 -0.1274  1.7520
   91SOL     OW  271   1.219   1.436   1.767 -0.2505 -0.5755  0.8163
   91SOL    HW1  272   1.206   1.509   1.843  1.7354  1.4406  0.3073
   91SOL    HW2  273   1.323   1.416   1.757  2.6060  0.9506 -1.4433
   92SOL     OW  274   0.029   0.979   1.211 -0.4359 -0.0612 -0.0852
   92SOL    HW1  275   0.070   1.068   1.178 -0.9119  0.4828  1.2256
   92SOL    HW2  276   0.034   0.966   1.317 -2.9169 -0.4125  0.9784
   93SOL     OW  277   0.011   2.729   3.087 -0.3572 -0.3244 -0.3042
   93SOL    HW1  278  -0.069   2.741   3.024  0.9019 -3.8228  0.6308
   93SOL    HW2  279   0.018   2.636   3.133 -0.4364 -0.1852 -1.7685
   94SOL     OW  280   1.508   1.472   1.766 -0.3396  1.1983  0.2612
   94SOL    HW1  281   1.569   1.390   1.772 -1.4772  0.0049  0.6645
   94SOL    HW2  282   1.527   1.540   1.842 -0.2924 -4.1146  1.8474
   95SOL     OW  283   1.386   2.550   3.014 -0.2002  0.3765 -0.6199
   95SOL    HW1  284   1.298   2.533   3.065 -1.3546  1.5713  0.4355
   95SOL    HW2  285   1.430   2.461   2.984  0.2601  1.1697  1.5828
   96SOL     OW  286   0.524   2.091   1.272 -0.0114  0.4708 -0.8241
   96SOL    HW1  287   0.501   2.069   1.171 -2.2193 -1.9368  0.6614
   96SOL    HW2  288   0.556   2.004   1.325 -0.0220 -0.3799  0.1018
   97SOL     OW  289   0.385   1.649   2.443  0.2190 -0.3148  0.0321
   97SOL    HW1  290   0.284   1.676   2.432  1.7235 -0.8812  0.1914
   97SOL    HW2  291   0.416   1.645   2.539  0.1705 -0.1518 -1.2051
   98SOL     OW  292   1.983   1.602   1.241 -0.0987 -0.0353  0.1265
   98SOL    HW1  293   1.918   1.565   1.311  0.3998 -0.7443 -1.4033
   98SOL    HW2  294   1.985   1.544   1.154  2.3912 -0.4869 -0.3292
   99SOL     OW  295   2.442   2.077   1.388 -0.1845 -0.6395 -0.2543
   99SOL    HW1  296   2.395   2.096   1.478  0.2414  0.6422 -1.7632
   99SOL    HW2  297   2.441   1.978   1.355 -1.0787 -0.2454 -0.0344
  100SOL     OW  298   2.332   0.303   2.093  0.2009 -0.1753  0.1082
  100SOL    HW1  299   2.281   0.283   2.177 -0.8535 -0.6481  0.2403
  100SOL    HW2  300   2.398   0.380   2.108 -1.1328  0.9320 -1.0527
  101SOL     OW  301   0.353   1.517   0.315  0.3854  0.3626  0.9482
  101SOL    HW1  302   0.419   1.516   0.395 -0.6424  1.3788 -0.6332
  101SOL    HW2  303   0.396   1.548   0.229  0.2175 -0.7640  0.7438
  102SOL     OW  304   2.257   1.024   0.835 -0.5809  0.0970 -0.7987
  102SOL    HW1  305   2.204   0.941   0.806 -0.0914  3.3895  0.0226
  102SOL    HW2  306   2.276   1.097   0.755  2.2337  0.4835 -1.3310
  103SOL     OW  307   2.277   0.038   0.397 -0.2693  0.2153 -0.0741
  103SOL    HW1  308   2.277   0.138   0.358  0.7857  0.9277 -0.0153
  103SOL    HW2  309   2.376   0.012   0.410 -1.4717  0.9961 -0.1331
  104SOL     OW  310   0.127   1.771   2.181 -0.2278 -0.4817 -0.0401
  104SOL    HW1  311   0.178   1.737   2.100 -2.8911  0.1303  2.0562
  104SOL    HW2  312   0.024   1.771   2.180 -1.1207 -0.0900 -0.6936
  105SOL     OW  313   1.238   2.121   0.797 -0.4033 -0.3980 -0.1145
  105SOL    HW1  314   1.205   2.137   0.700  1.6558 -0.9813 -0.1172
  105SOL    HW2  315   1.271   2.023   0.812 -2.3487  0.0865  0.8024
  106SOL     OW  316   2.144   0.428   1.430 -0.6489 -0.4553  0.0773
  106SOL    HW1  317   2.083   0.348   1.453 -1.0139  1.1874  0.7811
  106SOL    HW2  318   2.145   0.494   1.507  0.0166  1.2335 -1.9367
  107SOL     OW  319   1.768   3.039   1.171  0.9916 -1.0033  0.2901
  107SOL    HW1  320   1.803   3.122   1.221  1.5380  1.0057 -0.2809
  107SOL    HW2  321   1.724   2.967   1.233 -0.1539  1.1312  1.1924
  108SOL     OW  322   0.793   2.781   1.200 -0.2364  0.2713  0.1524
  108SOL    HW1  323   0.797   2.775   1.304 -0.2951  0.4671 -1.2906
  108SOL    HW2  324   0.891   2.785   1.161  1.2657 -1.6623  1.8267
  109SOL     OW  325   2.167   0.132   0.712 -1.0747  0.0645 -0.1481
  109SOL    HW1  326   2.066   0.107   0.694 -1.5519  0.0399  1.9672
  109SOL    HW2  327   2.207   0.088   0.798  0.8623  0.6419 -1.6906
  110SOL     OW  328   0.475   2.862   2.769 -0.1260  0.1731 -0.1127
  110SOL    HW1  329   0.451   2.867   2.663  1.3039 -1.5138 -2.4386
  110SOL    HW2  330   0.558   2.799   2.787 -0.7816  0.1951  1.4852
  111SOL     OW  331   1.298   0.558   2.328  0.0433  0.7311  0.4299
  111SOL    HW1  332   1.215   0.581   2.380  1.5570  0.6089 -0.0509
  111SOL    HW2  333   1.344   0.470   2.362 -2.4042 -1.4128 -1.0847
  112SOL     OW  334   1.719   0.552   1.474  0.2542 -0.3119 -0.9148
  112SOL    HW1  335   1.723   0.537   1.369  0.5861  0.9905 -0.4167
  112SOL    HW2  336   1.704   0.462   1.528 -0.2120  0.4325  2.0927
  113SOL     OW  337   2.262   1.667   1.779  0.1663  0.0274  0.3795
  113SOL    HW1  338   2.293   1.568   1.756  2.3057 -0.5403  1.0219
  113SOL    HW2  339   2.297   1.696   1.872  0.4846  0.2928 -0.4599
  114SOL     OW  340   0.355   0.540   1.251 -0.4457  0.0308 -0.4778
  114SOL    HW1  341   0.409   0.592   1.172 -1.2759 -0.1899 -1.5015
  114SOL    HW2  342   0.252   0.543   1.235  0.5227 -0.4557 -2.4607
  115SOL     OW  343   2.770   1.583   1.287  0.0589 -0.2394 -0.3965
  115SOL    HW1  344   2.770   1.479   1.289 -1.8037  0.2071 -0.3548
  115SOL    HW2  345   2.761   1.624   1.193  2.3851 -0.0572 -3.4206
  116SOL     OW  346   1.860   1.040   0.734 -0.3399 -0.1506  0.3326
  116SOL    HW1  347   1.787   1.010   0.669  2.0886  0.5141  0.7164
  116SOL    HW2  348   1.843   1.136   0.765  1.7715 -1.4080 -0.4324
  117SOL     OW  349   1.191   0.413   0.601  0.3733 -0.1990 -0.7817
  117SOL    HW1  350   1.218   0.438   0.693 -3.2280 -1.4161 -0.4657
  117SOL    HW2  351   1.227   0.483   0.529 -0.1962 -2.9559 -2.1131
  118SOL     OW  352   1.115   1.103   1.071 -0.2676 -0.4526  0.5297
  118SOL    HW1  353   1.079   1.028   1.136  0.3364  0.9566 -2.9406
  118SOL    HW2  354   1.142   1.182   1.126 -0.5696 -0.3000  0.2732
  119SOL     OW  355   1.808   1.615   2.154 -0.1278  0.0937 -0.2641
  119SOL    HW1  356   1.802   1.719   2.175 -2.1198 -0.5934 -0.2673
  119SOL    HW2  357   1.907   1.584   2.159  3.7654 -1.1526  0.0592
  120SOL     OW  358   2.941   2.870   0.158 -0.0011  0.5498  0.0223
  120SOL    HW1  359   3.018   2.819   0.106  0.7367  2.7818 -1.2771
  120SOL    HW2  360   2.850   2.834   0.135  0.0777  3.2304  0.5720
  121SOL     OW  361   2.001   0.757   2.290 -0.3512 -0.3071 -0.1958
  121SOL    HW1  362   2.009   0.828   2.216  1.9341  0.6520 -1.8341
  121SOL    HW2  363   2.011   0.661   2.249 -0.5895  1.7165 -1.2119
  122SOL     OW  364   2.625   2.672   1.222 -0.5615 -0.4135  0.2166
  122SOL    HW1  365   2.689   2.600   1.182 -2.6790 -1.6277 -1.8717
  122SOL    HW2  366   2.583   2.731   1.145 -3.1785  2.1787 -1.6361
  123SOL     OW  367   1.759   0.090   1.712 -0.4086 -0.1251  0.5554
  123SOL    HW1  368   1.788   0.002   1.667  1.9573 -0.7337 -1.0036
  123SOL    HW2  369   1.835   0.132   1.773  0.2190 -0.1354 -0.0352
  124SOL     OW  370   0.122   0.454   1.082 -0.0756  0.2449  0.1574
  124SOL    HW1  371   0.103   0.540   1.146  0.1501  3.3485  0.9099
  124SOL    HW2  372   0.098   0.471   0.984 -0.9694 -2.7564 -3.0506
  125SOL     OW  373   0.851   1.860   0.701  0.1205  0.1690  0.0723
  125SOL    HW1  374   0.937   1.798   0.717 -0.8929  2.1303  0.6171
  125SOL    HW2  375   0.810   1.899   0.787 -0.8358 -0.2159 -1.0865
  126SOL     OW  376   1.873   2.290   2.459  0.0020 -0.1433 -0.3493
  126SOL    HW1  377   1.925   2.272   2.369 -0.7959  0.4565 -0.8609
  126SOL    HW2  378   1.826   2.202   2.490  0.4644 -0.5348 -1.2635
  127SOL     OW  379   0.933   0.894   0.281  0.9967 -0.0589 -0.6356
  127SOL    HW1  380   0.973   0.954   0.358  1.3209 -2.7305  0.4725
  127SOL    HW2  381   0.929   0.796   0.316 -1.9185 -1.1764  0.5187
  128SOL     OW  382   0.908   0.255   1.384 -0.1616 -0.5114 -0.7124
  128SOL    HW1  383   0.884   0.324   1.311 -1.8270  1.3499  0.4194
  128SOL    HW2  384   0.879   0.162   1.368  2.8275  3.0504  0.8277
  129SOL     OW  385   1.831   0.728   1.891  0.5544  0.2711  0.0420
  129SOL    HW1  386   1.843   0.725   1.788  0.8756 -1.8864 -1.6856
  129SOL    HW2  387   1.885   0.811   1.936 -0.4964 -0.2112  1.1668
  130SOL     OW  388   1.360   2.221   1.014 -0.0361  0.3519 -0.4174
  130SOL    HW1  389   1.304   2.191   0.929 -0.1707  1.9732  1.4427
  130SOL    HW2  390   1.451   2.269   0.995  0.7348 -0.9924 -0.2651
  131SOL     OW  391   3.030   1.438   1.355  0.1724  0.5671 -0.0105
  131SOL    HW1  392   2.988   1.349   1.383  3.7632  1.1522  1.3783
  131SOL    HW2  393   3.132   1.429   1.345 -1.8368  0.7114  2.2197
  132SOL     OW  394   2.037   2.442   0.516 -0.0107 -0.5035 -0.0191
  132SOL    HW1  395   1.934   2.468   0.517 -1.9299  1.2267 -0.6135
  132SOL    HW2  396   2.060   2.372   0.593 -1.5834  1.1743 -0.1642
  133SOL     OW  397   1.889   2.335   2.835 -0.1095  0.0711  0.5316
  133SOL    HW1  398   1.802   2.376   2.864  0.4202 -0.3303 -1.2723
  133SOL    HW2  399   1.921   2.382   2.749 -1.1788  1.7043  2.2821
  134SOL     OW  400   2.682   2.340   1.667 -0.2973  0.1532 -0.2335
  134SOL    HW1  401   2.626   2.316   1.752  2.1054  0.2306 -0.6872
  134SOL    HW2  402   2.727   2.435   1.665 -2.5116  0.8572 -1.0962
  135SOL     OW  403   0.686   1.480   2.676 -0.6612  0.3145  0.6820
  135SOL    HW1  404   0.644   1.401   2.717 -1.0301 -1.0216  0.0784
  135SOL    HW2  405   0.733   1.452   2.583  1.3977 -0.2924 -1.0582
  136SOL     OW  406   1.226   1.978   0.413 -0.1726 -0.0037 -0.3218
  136SOL    HW1  407   1.161   2.049   0.454  1.1235  1.6171 -1.9874
  136SOL    HW2  408   1.192   1.878   0.417  1.8037  1.4841  0.4401
  137SOL     OW  409   0.431   1.146   2.156 -0.4615  0.3039  0.3223
  137SOL    HW1  410   0.339   1.163   2.196  2.0553  1.3801 -0.4099
  137SOL    HW2  411   0.471   1.057   2.180 -0.5583  0.0016  0.6093
  138SOL     OW  412   2.433   1.547   0.252  0.3883  0.0296 -0.2415
  138SOL    HW1  413   2.338   1.507   0.239 -0.2754  0.5080 -1.7322
  138SOL    HW2  414   2.507   1.479   0.282  4.1480  1.3167  1.1599
  139SOL     OW  415   1.862   2.616   1.278 -0.3307 -0.2678 -0.3570
  139SOL    HW1  416   1.760   2.632   1.273  3.5958 -3.4629  1.6534
  139SOL    HW2  417   1.885   2.520   1.311 -0.5546 -0.0563 -0.1436
  140SOL     OW  418   3.017   2.968   2.548  0.5667  0.5588 -0.1595
  140SOL    HW1  419   3.053   2.872   2.552 -0.6680 -0.9688 -0.6696
  140SOL    HW2  420   3.086   3.041   2.569 -0.3344  0.4871 -0.5325
  141SOL     OW  421   1.319   1.679   1.634  0.0906 -0.0483 -0.3027
  141SOL    HW1  422   1.228   1.703   1.677  0.0573 -2.0479  0.1116
  141SOL    HW2  423   1.386   1.641   1.699 -0.9767 -0.7952 -0.7961
  142SOL     OW  424   1.581   0.588   2.257 -0.1055  0.2197  0.5302
  142SOL    HW1  425   1.602   0.574   2.154  0.1646  0.6486 -0.7571
  142SOL    HW2  426   1.479   0.592   2.281  1.5178 -1.4068 -0.6604
  143SOL     OW  427   2.747   0.903   0.494 -0.3817 -0.0695  0.7272
  143SOL    HW1  428   2.795   0.943   0.413 -1.8710 -1.3474  0.3425
  143SOL    HW2  429   2.770   0.944   0.586  0.6902 -1.5185  0.1787
  144SOL     OW  430   2.923   1.180   1.471  0.3001 -0.7420 -0.2963
  144SOL    HW1  431   2.883   1.148   1.563 -0.1154  1.8979 -0.3064
  144SOL    HW2  432   2.984   1.101   1.433  2.4529  0.5882  1.1990
  145SOL     OW  433   1.020   1.841   0.152 -0.5993 -0.4116  0.4923
  145SOL    HW1  434   1.077   1.901   0.089  0.2533 -1.9533  0.7623
  145SOL    HW2  435   0.980   1.754   0.109 -0.2601  0.9377  0.5224
  146SOL     OW  436   2.509   0.677   1.505  0.1472  0.0819 -0.1498
  146SOL    HW1  437   2.466   0.595   1.455 -1.6226 -0.2166  1.7635
  146SOL    HW2  438   2.463   0.771   1.489 -1.3025 -3.0489 -0.3630
  147SOL     OW  439   1.109   2.458   0.615 -0.6095 -0.5298 -0.1180
  147SOL    HW1  440   1.072   2.533   0.555 -1.4459 -0.8162  2.2837
  147SOL    HW2  441   1.192   2.401   0.588  2.4654  1.0547 -1.7574
  148SOL     OW  442   1.681   1.454   3.037 -0.5207 -0.2441  0.1737
  148SOL    HW1  443   1.684   1.374   2.967  0.0771  0.7520  0.8101
  148SOL    HW2  444   1.650   1.430   3.134 -0.0409  0.8312 -0.0670
  149SOL     OW  445   0.712   1.414   1.965  0.1872 -0.1404  0.3403
  149SOL    HW1  446   0.619   1.369   1.992  0.7967 -2.9271 -1.4947
  149SOL    HW2  447   0.735   1.396   1.864  1.6370 -0.5086  0.5467
  150SOL     OW  448   3.031   1.253   0.939 -0.5027 -0.2321 -0.0784
  150SOL    HW1  449   3.118   1.260   0.993 -0.6857 -0.8200 -1.4860
  150SOL    HW2  450   2.985   1.164   0.963  1.8250 -0.6106 -2.3647
  151SOL     OW  451   0.222   0.724   2.149 -0.5065 -0.0363  0.4046
  151SOL    HW1  452   0.207   0.802   2.081 -0.5944  0.5822  0.0234
  151SOL    HW2  453   0.227   0.634   2.096 -0.8482 -0.6289 -0.5351
  152SOL     OW  454   1.414   1.767   1.286  0.5583  0.0269 -0.0140
  152SOL    HW1  455   1.444   1.866   1.287  0.0453  2.4293 -1.1508
  152SOL    HW2  456   1.312   1.757   1.256  0.6229 -1.1271 -0.1203
  153SOL     OW  457  -0.001   1.506   0.152  0.4340 -0.1061 -0.2878
  153SOL    HW1  458   0.023   1.409   0.178 -0.1097  0.0007  1.4573
  153SOL    HW2  459   0.005   1.566   0.238 -0.1093 -0.9514 -0.1175
  154SOL     OW  460   2.371   1.860   2.768  0.1155  0.1319  0.3187
  154SOL    HW1  461   2.381   1.758   2.797  0.0625  0.4024  0.7714
  154SOL    HW2  462   2.437   1.884   2.689  0.6081 -0.8503  1.3928
  155SOL     OW  463   2.445   1.211   0.407  0.3605 -0.1037  0.3392
  155SOL    HW1  464   2.539   1.219   0.366  0.7052  1.3428 -2.1491
  155SOL    HW2  465   2.384   1.163   0.342  1.4658 -1.2213  0.7907
  156SOL     OW  466   2.530   0.967   0.875 -0.2366  0.0778  0.2278
  156SOL    HW1  467   2.433   0.989   0.862  1.2004 -3.2154  0.4987
  156SOL    HW2  468   2.589   1.009   0.802 -1.9670  0.7123 -0.2568
  157SOL     OW  469   1.297   2.933   3.035  0.2727 -0.7567 -0.6049
  157SOL    HW1  470   1.328   2.919   2.939 -0.7719  2.8799 -1.3339
  157SOL    HW2  471   1.324   3.025   3.071 -2.2754  3.1203 -0.9937
  158SOL     OW  472   1.030   1.826   1.909 -0.4132 -0.1894 -0.5123
  158SOL    HW1  473   1.060   1.918   1.879 -0.8758 -0.5498  0.8528
  158SOL    HW2  474   0.927   1.825   1.924  1.4144 -1.3854 -0.9012
  159SOL     OW  475   0.819   0.444   1.202 -0.0062  0.2176 -0.4360
  159SOL    HW1  476   0.807   0.530   1.259  0.1411  0.8378 -2.0417
  159SOL    HW2  477   0.748   0.432   1.125 -0.3402 -0.9737  3.2994
  160SOL     OW  478   1.397   2.311   1.587 -0.0943 -0.2804 -0.3791
  160SOL    HW1  479   1.408   2.369   1.673  1.8961 -1.6651  0.7692
  160SOL    HW2  480   1.479   2.311   1.529 -0.5348  0.8296 -0.2797
  161SOL     OW  481   0.091   2.934   0.302  0.8382 -0.0940  0.1443
  161SOL    HW1  482   0.023   2.862   0.285  1.2436  0.6746 -1.3879
  161SOL    HW2  483   0.112   3.002   0.222 -1.6048  3.5103 -2.3586
  162SOL     OW  484   2.496   1.902   0.470  0.3303  0.0416 -0.0776
  162SOL    HW1  485   2.506   1.845   0.382 -0.1300  1.0796  2.9303
  162SOL    HW2  486   2.500   1.846   0.555  1.8251 -1.6257 -3.1476
  163SOL     OW  487   1.891   2.817   0.709  0.3469  0.1477 -0.4486
  163SOL    HW1  488   1.872   2.842   0.608  0.7848  3.1128 -0.7996
  163SOL    HW2  489   1.961   2.741   0.722  1.6499  0.2936 -0.8397
  164SOL     OW  490   3.075   0.229   1.192 -0.3262  0.2984  0.6978
  164SOL    HW1  491   3.136   0.295   1.139  1.2780  0.5483 -4.2739
  164SOL    HW2  492   3.129   0.170   1.258 -0.3792 -1.6473  0.7564
  165SOL     OW  493   0.943   1.440   0.744  0.1831  0.5334  0.4476
  165SOL    HW1  494   0.891   1.482   0.828  1.7987 -0.3945  0.8550
  165SOL    HW2  495   0.904   1.447   0.651  1.6603 -0.2981  0.9312
  166SOL     OW  496   1.492   1.097   1.716 -0.0180 -0.3646 -0.1163
  166SOL    HW1  497   1.419   1.057   1.781 -3.4733  2.0733 -1.3134
  166SOL    HW2  498   1.568   1.149   1.769  1.0426  0.3164 -2.1263
  167SOL     OW  499   0.727   1.937   1.446  0.0183 -0.1200  0.1454
  167SOL    HW1  500   0.740   2.000   1.530 -0.1331  1.1545  0.4296
  167SOL    HW2  501   0.707   1.840   1.473 -3.3396 -0.0963  1.9349
  168SOL     OW  502   1.637   2.379   0.159  0.5916  0.3562 -0.0977
  168SOL    HW1  503   1.700   2.442   0.109 -3.9249 -0.9451 -1.8269
  168SOL    HW2  504   1.679   2.341   0.247 -2.2963 -1.4499  0.3108
  169SOL     OW  505   0.170   2.548   2.221  0.5790 -0.3441 -0.2245
  169SOL    HW1  506   0.206   2.502   2.136 -1.4228  0.8538 -0.9978
  169SOL    HW2  507   0.182   2.493   2.310 -1.0156  0.3333  2.1860
  170SOL     OW  508   1.133   0.231   1.990 -0.4494  0.3398  0.2260
  170SOL    HW1  509   1.199   0.210   2.071  0.3563 -1.9729 -1.4434
  170SOL    HW2  510   1.151   0.174   1.904 -1.7696 -0.1129 -0.6801
  171SOL     OW  511   0.210   0.774   2.422  0.2033 -0.4761 -0.2631
  171SOL    HW1  512   0.148   0.836   2.479  0.4944  1.1463  0.2462
  171SOL    HW2  513   0.193   0.771   2.322 -2.0484 -0.8199 -0.7849
  172SOL     OW  514   0.927   1.049   2.902 -0.2818 -0.3608 -0.1606
  172SOL    HW1  515   0.989   1.127   2.934 -0.6564 -0.0459  0.4943
  172SOL    HW2  516   0.904   1.050   2.799  0.5314 -0.0263  1.1598
  173SOL     OW  517   0.645   2.683   0.103 -0.5535  0.2011  0.5846
  173SOL    HW1  518   0.636   2.771   0.045 -0.8960  1.1198  1.7268
  173SOL    HW2  519   0.551   2.642   0.129  3.6914  1.5863  0.4423
  174SOL     OW  520   1.447   2.832   1.095  0.2268 -0.2506 -0.5125
  174SOL    HW1  521   1.414   2.924   1.052 -0.0573  1.6217  0.7671
  174SOL    HW2  522   1.497   2.774   1.030  2.6217  2.3297  2.8969
  175SOL     OW  523   0.384   0.030   1.677  0.1730 -1.0749 -0.6515
  175SOL    HW1  524   0.454   0.069   1.746  0.8633  1.2327 -1.6593
  175SOL    HW2  525   0.364   0.096   1.599 -1.5488 -0.0887  0.1949
  176SOL     OW  526   2.589   0.381   0.005  0.4675 -0.0170 -0.2040
  176SOL    HW1  527   2.600   0.481   0.032  0.7017 -1.5813 -0.7301
  176SOL    HW2  528   2.514   0.340   0.060 -0.3730  4.2999  3.7779
  177SOL     OW  529   0.363   0.310   1.007  0.2522 -0.3854  0.4519
  177SOL    HW1  530   0.300   0.227   0.987 -0.8128  1.2664 -3.7974
  177SOL    HW2  531   0.303   0.391   1.044 -1.9554 -0.3213  1.3462
  178SOL     OW  532   3.077   2.665   2.626 -0.0951  0.5242 -0.8375
  178SOL    HW1  533   2.995   2.620   2.671  0.4420  1.4249 -1.2583
  178SOL    HW2  534   3.155   2.687   2.694  0.8895 -1.0118  0.9176
  179SOL     OW  535   0.010   1.652   1.188 -0.1744 -0.6584 -0.4927
  179SOL    HW1  536  -0.062   1.726   1.184 -0.0675 -5.8632  1.2772
  179SOL    HW2  537  -0.029   1.568   1.232 -0.6279 -0.1019  2.1474
  180SOL     OW  538   0.227   1.207   1.848 -0.3989  0.4846  0.2467
  180SOL    HW1  539   0.327   1.209   1.856 -2.6952 -0.1168  0.2729
  180SOL    HW2  540   0.177   1.290   1.897  0.0267  0.0120  1.5350
  181SOL     OW  541   3.003   1.845   2.491 -0.3343 -0.0980  0.0779
  181SOL    HW1  542   3.034   1.940   2.490 -0.1828 -1.3428  0.1564
  181SOL    HW2  543   2.911   1.833   2.447 -0.6607  2.2070 -2.4003
  182SOL     OW  544   2.245   1.311   1.169 -0.0110 -0.2037  0.4072
  182SOL    HW1  545   2.181   1.264   1.104  0.5511 -1.9567 -0.6416
  182SOL    HW2  546   2.293   1.391   1.122 -0.2808  0.6187  1.3189
  183SOL     OW  547   1.516   2.233   2.556 -0.5463 -0.0654  0.2669
  183SOL    HW1  548   1.417   2.199   2.540 -0.3680 -1.1893  1.9455
  183SOL    HW2  549   1.591   2.167   2.537  2.4833 -1.5320 -0.6975
  184SOL     OW  550   2.039   0.852   0.790  0.3263 -0.3113  0.2869
  184SOL    HW1  551   1.965   0.927   0.795  0.3338 -1.8666 -0.4348
  184SOL    HW2  552   2.014   0.770   0.851  1.2852 -0.0208  1.8299
  185SOL     OW  553   1.593   2.772   2.091  0.0374  0.5985 -0.5314
  185SOL    HW1  554   1.553   2.866   2.071  0.5207  0.4235 -0.5532
  185SOL    HW2  555   1.598   2.760   2.195 -1.7257  1.4568  0.5912
  186SOL     OW  556   0.105   2.220   1.665  0.2498 -0.5137 -0.1679
  186SOL    HW1  557   0.082   2.288   1.738  0.5656 -1.3263  0.1661
  186SOL    HW2  558   0.168   2.146   1.698 -1.3301  3.3549  1.3027
  187SOL     OW  559   1.322   0.761   1.660 -0.6678  0.1910  0.2107
  187SOL    HW1  560   1.419   0.779   1.633 -0.9053 -2.1367  0.1683
  187SOL    HW2  561   1.317   0.707   1.745  0.0483  0.6322  0.4296
  188SOL     OW  562   2.745   2.775   1.431 -0.0242 -0.0642  0.0071
  188SOL    HW1  563   2.758   2.873   1.403 -0.1408  0.8340  0.1721
  188SOL    HW2  564   2.701   2.725   1.352 -1.7941  2.3931  0.2812
  189SOL     OW  565   0.905   1.215   1.401  0.6466  0.4160  0.2451
  189SOL    HW1  566   0.984   1.261   1.453  3.2264  1.6290  0.4623
  189SOL    HW2  567   0.832   1.280   1.361 -1.8671  0.7755 -1.9536
  190SOL     OW  568   1.472   1.909   1.577 -0.4469  0.0478  0.7360
  190SOL    HW1  569   1.415   1.822   1.567 -0.3748 -0.0392 -0.5630
  190SOL    HW2  570   1.462   1.959   1.667  0.5772  1.8411 -1.8499
  191SOL     OW  571   0.977   0.757   1.542 -0.4252 -0.0019  0.3252
  191SOL    HW1  572   1.047   0.683   1.539  0.5814  1.4535  0.0352
  191SOL    HW2  573   1.021   0.847   1.559 -0.2940 -1.6815  0.3718
  192SOL     OW  574   1.848   2.257   1.110 -0.1386  0.3073 -0.3034
  192SOL    HW1  575   1.753   2.266   1.070 -0.4891  0.7313 -1.4110
  192SOL    HW2  576   1.919   2.306   1.049  0.9805  1.8349  1.0914
  193SOL     OW  577   0.566   0.584   0.456  0.5598  0.2850 -0.4613
  193SOL    HW1  578   0.514   0.501   0.481 -0.8099  1.0769  3.8923
  193SOL    HW2  579   0.612   0.579   0.361 -0.2488 -1.0181  0.3752
  194SOL     OW  580   0.345   0.851   1.287  0.3272 -0.5847  0.0418
  194SOL    HW1  581   0.294   0.774   1.240  0.3774  1.8542 -0.3024
  194SOL    HW2  582   0.348   0.939   1.235  1.6325  1.3497  3.2026
  195SOL     OW  583   1.019   2.893   0.547  0.2477  0.5572 -0.4215
  195SOL    HW1  584   0.999   2.797   0.504 -0.3583  0.2670  0.0535
  195SOL    HW2  585   1.121   2.919   0.547 -3.4953  2.3936  0.1737
  196SOL     OW  586   0.214   1.349   1.379  0.4639  0.0103  0.0370
  196SOL    HW1  587   0.252   1.429   1.434  1.0638 -1.3222  0.6207
  196SOL    HW2  588   0.179   1.272   1.441 -0.3858 -1.5112 -0.8837
  197SOL     OW  589   0.830   2.046   0.225  0.2653 -0.5419  0.2092
  197SOL    HW1  590   0.821   2.029   0.328 -0.9892  0.2978  0.3111
  197SOL    HW2  591   0.889   1.976   0.182 -0.8696 -0.0487 -0.0078
  198SOL     OW  592   0.315   1.247   0.227 -0.1079 -0.1874 -0.1432
  198SOL    HW1  593   0.214   1.234   0.214 -0.2044 -0.9544 -1.5848
  198SOL    HW2  594   0.338   1.338   0.272 -2.1253 -2.3945 -3.3205
  199SOL     OW  595   2.204   0.383   2.554  0.8674  0.4031 -0.1206
  199SOL    HW1  596   2.149   0.334   2.625  0.7542  1.7098  2.4530
  199SOL    HW2  597   2.310   0.385   2.574  1.3339  1.5908 -0.3454
  200SOL     OW  598   0.035   2.937   0.742 -0.1287  0.3586  0.0338
  200SOL    HW1  599  -0.065   2.945   0.711 -2.8081  1.2593 -0.2134
  200SOL    HW2  600   0.081   3.029   0.757 -0.1742  1.3750  1.1871
  201SOL     OW  601   1.129   0.759   0.628 -0.4064  0.7860  0.3618
  201SOL    HW1  602   1.122   0.796   0.727 -0.2127 -1.3245  1.0390
  201SOL    HW2  603   1.049   0.690   0.612 -1.1932  0.3760  0.7594
  202SOL     OW  604   0.500   1.185   1.811 -0.7113 -0.5793  0.8809
  202SOL    HW1  605   0.518   1.211   1.713  2.1080 -0.2488 -0.2027
  202SOL    HW2  606   0.547   1.100   1.841  1.4866  2.8118 -0.6285
  203SOL     OW  607   0.682   0.209   1.556 -0.7822  0.0519  0.1787
  203SOL    HW1  608   0.753   0.205   1.481  0.6223  1.6183 -0.0388
  203SOL    HW2  609   0.720   0.207   1.650 -2.2805 -0.3616 -0.4545
  204SOL     OW  610   2.056   1.869   2.924 -0.3747  0.1424  0.0527
  204SOL    HW1  611   2.059   1.763   2.928  0.0990  1.5248  0.0737
  204SOL    HW2  612   2.046   1.918   2.837  3.2977 -2.3180  0.4658
  205SOL     OW  613   1.821   1.871   3.082  0.0142  0.3348 -0.8264
  205SOL    HW1  614   1.907   1.849   3.026  0.5038 -0.6140  0.3016
  205SOL    HW2  615   1.782   1.966   3.071  2.1963 -2.1549  0.3117
  206SOL     OW  616   2.505   2.794   0.318 -0.5947 -0.2772  0.1776
  206SOL    HW1  617   2.567   2.715   0.334 -0.0539 -0.1700  3.1770
  206SOL    HW2  618   2.539   2.856   0.241  0.5289  1.2140 -1.1769
  207SOL     OW  619   0.624   1.789   2.958  0.3746  0.0372 -0.1286
  207SOL    HW1  620   0.728   1.783   2.956  1.0224 -0.0205  1.6555
  207SOL    HW2  621   0.583   1.736   3.038 -0.4050 -0.9762  1.1527
  208SOL     OW  622   1.135   1.579   1.415 -0.4121 -0.4222  0.2133
  208SOL    HW1  623   1.135   1.651   1.338  1.2309  1.1349 -0.8822
  208SOL    HW2  624   1.197   1.602   1.491 -1.2944  0.0987 -0.2461
  209SOL     OW  625   0.256   0.960   3.044 -0.0386  0.4193  1.0110
  209SOL    HW1  626   0.248   0.892   2.964  0.1556 -0.7465  1.6466
  209SOL    HW2  627   0.251   0.919   3.141 -3.4495  2.0397  1.4604
  210SOL     OW  628   1.786   0.531   1.192  0.3363  0.4340 -0.4437
  210SOL    HW1  629   1.715   0.591   1.139 -2.1885  2.2812  0.0330
  210SOL    HW2  630   1.879   0.524   1.149 -0.6110  0.3096 -0.2735
  211SOL     OW  631   2.127   1.046   1.567  0.0718 -0.7950 -0.7511
  211SOL    HW1  632   2.199   0.983   1.614  0.1657 -2.0141  1.1429
  211SOL    HW2  633   2.172   1.117   1.506 -2.9261  0.1258 -0.0027
  212SOL     OW  634   0.025   0.963   1.468 -0.3199 -0.3382 -0.1963
  212SOL    HW1  635   0.083   1.039   1.517  1.1105 -0.2169  2.9754
  212SOL    HW2  636   0.017   0.882   1.533  1.2322 -1.2047 -0.6169
  213SOL     OW  637   2.806   0.335   0.368  0.5607 -0.5537  0.5918
  213SOL    HW1  638   2.829   0.268   0.292  3.1886 -4.6597 -1.2264
  213SOL    HW2  639   2.735   0.396   0.336 -0.3101 -0.6824  0.7807
  214SOL     OW  640   2.170   0.251   2.314  0.3122 -0.5462  0.1553
  214SOL    HW1  641   2.184   0.297   2.407  0.4204  0.6837 -1.7409
  214SOL    HW2  642   2.175   0.148   2.314 -1.7669  0.5236 -2.7612
  215SOL     OW  643   1.639   2.287   2.108  0.0443 -0.4227  0.6617
  215SOL    HW1  644   1.737   2.307   2.084 -1.1564 -1.1850  1.1284
  215SOL    HW2  645   1.581   2.373   2.133 -2.7051  0.5026 -0.4294
  216SOL     OW  646   2.202   0.630   0.640 -0.3011  0.2837  0.0615
  216SOL    HW1  647   2.168   0.546   0.595 -1.1716  2.7618 -1.0375
  216SOL    HW2  648   2.125   0.694   0.673  0.3578  2.8099  1.8581
  217SOL     OW  649   0.751   2.782   2.464  0.3330  0.4070 -0.4276
  217SOL    HW1  650   0.751   2.684   2.495  2.1820  0.6771 -0.7394
  217SOL    HW2  651   0.791   2.789   2.371 -0.8800 -1.9300  0.0841
  218SOL     OW  652   1.921   1.448   0.063 -0.2923 -0.2932 -0.0387
  218SOL    HW1  653   1.833   1.476   0.014 -1.2732 -1.8518 -2.1413
  218SOL    HW2  654   1.921   1.356   0.100  0.3200 -0.7636 -0.9742
  219SOL     OW  655   2.362   1.258   2.552 -0.2814  0.4095 -0.2624
  219SOL    HW1  656   2.435   1.210   2.490  0.9996  0.8073 -1.9160
  219SOL    HW2  657   2.347   1.205   2.642  1.6241 -0.1815 -1.7254
  220SOL     OW  658   1.520   1.039   1.248 -0.3011  0.3098 -0.6983
  220SOL    HW1  659   1.601   1.073   1.298 -0.3891 -0.2729 -2.3085
  220SOL    HW2  660   1.506   1.089   1.158  4.2653  2.2507 -0.5266
  221SOL     OW  661   1.367   0.981   2.207  0.0951 -0.1678  0.1869
  221SOL    HW1  662   1.329   1.024   2.123 -0.9244 -3.0358  2.4142
  221SOL    HW2  663   1.446   0.923   2.183 -1.3711 -0.7470  0.6819
  222SOL     OW  664   1.177   0.022   1.214 -0.9750 -0.3878 -0.9633
  222SOL    HW1  665   1.244  -0.021   1.284 -1.6168  0.7608  1.0928
  222SOL    HW2  666   1.202   0.114   1.178  0.8731  0.1287  0.8776
  223SOL     OW  667   2.727   0.887   2.015 -0.2539  0.0746 -0.1268
  223SOL    HW1  668   2.704   0.920   2.110  0.5741 -1.5656 -0.4249
  223SOL    HW2  669   2.826   0.914   1.988  1.1448 -0.7971  0.9534
  224SOL     OW  670   1.573   1.015   2.763 -0.3738 -0.0874 -0.0881
  224SOL    HW1  671   1.620   0.945   2.702 -3.3260  0.8451 -0.0993
  224SOL    HW2  672   1.507   1.075   2.711 -0.3550  1.7727 -1.6277
  225SOL     OW  673   2.919   2.799   2.893 -0.4102 -0.1498 -0.1732
  225SOL    HW1  674   2.874   2.713   2.854  2.9196 -1.0554 -2.6959
  225SOL    HW2  675   2.996   2.837   2.840 -1.7917  0.1611 -0.1468
  226SOL     OW  676   2.393   1.598   2.797  0.4832  0.2047 -0.3006
  226SOL    HW1  677   2.464   1.573   2.727 -0.7852  3.5044  2.5622
  226SOL    HW2  678   2.373   1.524   2.869  0.1269 -1.9228  0.3305
  227SOL     OW  679   0.819   0.152   3.040 -0.2271 -0.0704  0.6767
  227SOL    HW1  680   0.873   0.069   3.073  0.7984 -2.3291 -0.5541
  227SOL    HW2  681   0.791   0.153   2.936 -1.1592 -0.3892 -1.3374
  228SOL     OW  682   2.396   0.587   2.876  0.3924  0.3504 -0.3991
  228SOL    HW1  683   2.354   0.601   2.783  1.0883 -1.0370  1.6201
  228SOL    HW2  684   2.489   0.543   2.874  1.7366 -0.5931 -1.3357
  229SOL     OW  685   0.638   0.444   1.890 -0.1960 -0.3011  0.0453
  229SOL    HW1  686   0.615   0.343   1.877 -0.0183 -1.5372 -0.3316
  229SOL    HW2  687   0.667   0.472   1.793 -1.2724 -4.6443 -1.0874
  230SOL     OW  688   1.923   1.143   2.141 -0.2234  0.0529 -0.5873
  230SOL    HW1  689   1.994   1.196   2.090 -0.1717 -3.1675 -0.7233
  230SOL    HW2  690   1.835   1.190   2.125 -1.9392 -1.8000  1.5213
  231SOL     OW  691   0.658   0.998   3.008  0.1919 -0.1884  0.7212
  231SOL    HW1  692   0.749   1.041   2.989  0.2696  0.4580  0.7965
  231SOL    HW2  693   0.582   1.064   3.019  0.2233 -1.0121  0.2064
  232SOL     OW  694   2.412   3.095   2.811 -0.9345  0.3507  0.1580
  232SOL    HW1  695   2.432   2.994   2.831  1.5362 -0.5716  0.9548
  232SOL    HW2  696   2.481   3.134   2.744 -1.2822  0.6958  0.4880
  233SOL     OW  697   1.737   1.289   1.163 -0.0316  0.1034  0.0543
  233SOL    HW1  698   1.743   1.267   1.058  0.7254  1.3048 -0.9136
  233SOL    HW2  699   1.759   1.207   1.227 -0.1517 -3.0327  1.7157
  234SOL     OW  700   1.604   2.603   1.879  0.0941  0.1434 -0.5326
  234SOL    HW1  701   1.615   2.675   1.952  0.2990  1.3100 -1.0249
  234SOL    HW2  702   1.560   2.511   1.908  1.5134 -1.7717  0.6436
  235SOL     OW  703   0.038   2.992   2.866 -0.2973 -0.6832  0.3055
  235SOL    HW1  704   0.102   3.059   2.818 -1.5559  1.2501 -0.1877
  235SOL    HW2  705  -0.028   3.047   2.924 -0.9937  3.1925 -2.8872
  236SOL     OW  706   2.880   0.744   0.108 -0.0853 -0.3297 -0.3126
  236SOL    HW1  707   2.933   0.797   0.177  0.2311 -0.2561 -0.9111
  236SOL    HW2  708   2.930   0.669   0.059  0.2003 -0.4533 -1.7566
  237SOL     OW  709   1.492   1.712   0.995  0.1652 -0.0723  0.8151
  237SOL    HW1  710   1.593   1.679   0.986  1.4568  0.8617  2.7279
  237SOL    HW2  711   1.461   1.723   1.091  0.7999 -0.1982 -1.7931
  238SOL     OW  712   1.760   1.269   0.871 -0.4049  0.2869  0.0319
  238SOL    HW1  713   1.840   1.324   0.912  1.0323  2.0719  2.0608
  238SOL    HW2  714   1.702   1.329   0.804  0.8665  1.9833 -0.2511
  239SOL     OW  715   2.041   0.234   2.736 -0.1748  0.3752 -0.1165
  239SOL    HW1  716   2.102   0.200   2.817  0.2662  0.9354 -0.2276
  239SOL    HW2  717   1.985   0.324   2.759 -0.2329  0.6890  2.1849
  240SOL     OW  718   0.957   0.632   0.343 -0.6599  0.3747  0.3267
  240SOL    HW1  719   0.987   0.541   0.300 -0.7171  1.9785  0.3069
  240SOL    HW2  720   0.926   0.638   0.440  1.5258  1.1173  0.8437
  241SOL     OW  721   0.620   0.107   0.372 -0.3287 -0.3160 -0.1235
  241SOL    HW1  722   0.652   0.187   0.315 -0.5505 -0.1605 -3.2003
  241SOL    HW2  723   0.611   0.015   0.322  0.6029  2.0857  0.2276
  242SOL     OW  724   0.668   2.506   1.122 -0.0228  0.8817 -0.2326
  242SOL    HW1  725   0.618   2.557   1.196 -0.7941 -0.4351  1.6290
  242SOL    HW2  726   0.753   2.555   1.096 -0.0608  0.9817  2.2705
  243SOL     OW  727   1.075   0.578   2.488 -0.1028  0.0430 -0.0714
  243SOL    HW1  728   0.987   0.632   2.458 -2.4293  2.0076  1.1760
  243SOL    HW2  729   1.067   0.504   2.559  0.6508 -0.5222 -2.2396
  244SOL     OW  730   2.782   1.901   2.339  0.5032  0.3283 -0.1142
  244SOL    HW1  731   2.844   1.876   2.261 -3.1216  4.6743  1.7070
  244SOL    HW2  732   2.713   1.829   2.367  2.1262 -0.5447 -0.6761
  245SOL     OW  733   2.412   0.648   2.197 -0.3491  0.3305  0.3426
  245SOL    HW1  734   2.472   0.727   2.231 -1.9702 -1.2765  2.9619
  245SOL    HW2  735   2.440   0.558   2.233  0.2621  1.4728  4.0455
  246SOL     OW  736   0.222   2.904   1.672  0.0176  0.1427  0.3077
  246SOL    HW1  737   0.160   2.891   1.591  0.0427  1.2566  0.8640
  246SOL    HW2  738   0.275   2.991   1.659 -2.0362 -0.4306  1.9403
  247SOL     OW  739   2.153   0.570   3.033 -0.5740 -0.1041  0.7281
  247SOL    HW1  740   2.243   0.553   2.990 -0.8261  0.1802  1.4354
  247SOL    HW2  741   2.118   0.661   3.016 -1.4154 -2.5531 -3.6842
  248SOL     OW  742   2.127   1.828   1.572  0.3946  0.2973  0.1364
  248SOL    HW1  743   2.178   1.771   1.637 -0.7746  0.0070 -0.8537
  248SOL    HW2  744   2.024   1.818   1.579  0.3124  0.0590 -3.5809
  249SOL     OW  745   1.898   1.887   1.925 -0.8413 -0.1089 -0.5372
  249SOL    HW1  746   1.883   1.855   1.826 -0.9521  1.3419 -0.6456
  249SOL    HW2  747   1.989   1.931   1.939 -2.7308 -1.1132 -1.0797
  250SOL     OW  748   1.120   0.718   1.907  0.0475 -0.2879  0.2667
  250SOL    HW1  749   1.178   0.635   1.936  2.0345  2.0745  0.6868
  250SOL    HW2  750   1.052   0.697   1.831 -0.1803 -0.3110  1.4685
  251SOL     OW  751   3.091   1.570   2.532  0.5895 -0.2979 -0.1018
  251SOL    HW1  752   3.074   1.669   2.511  1.7546 -0.3066 -3.0952
  251SOL    HW2  753   3.001   1.525   2.510 -1.2516  0.3538  0.2312
  252SOL     OW  754   1.554   0.879   1.560 -0.6787  0.0061 -0.0042
  252SOL    HW1  755   1.576   0.904   1.463  0.6455 -1.8969 -0.3795
  252SOL    HW2  756   1.539   0.952   1.627  2.6049  0.1629 -2.1240
  253SOL     OW  757   0.854   1.540   0.467  0.5083  0.1159  0.2300
  253SOL    HW1  758   0.896   1.463   0.421 -2.1188  1.9477  0.4085
  253SOL    HW2  759   0.752   1.518   0.494 -1.1030 -1.9581  4.3932
  254SOL     OW  760   2.039   2.132   1.592 -0.1437  0.1543  0.6131
  254SOL    HW1  761   1.987   2.098   1.509 -1.9253  1.8740  1.6796
  254SOL    HW2  762   1.991   2.114   1.678 -0.9347  2.5915 -1.5776
  255SOL     OW  763   0.122   1.165   2.911  0.1630 -0.2935 -0.3211
  255SOL    HW1  764   0.168   1.254   2.880  0.0670  2.2468 -0.5442
  255SOL    HW2  765   0.188   1.103   2.956 -1.6772 -0.8881 -0.4812
  256SOL     OW  766   2.784   1.382   1.730  0.4436  0.0530  0.3254
  256SOL    HW1  767   2.689   1.399   1.768 -0.5587 -1.1729 -0.2642
  256SOL    HW2  768   2.793   1.286   1.696  3.1797 -0.8322  1.4747
  257SOL     OW  769   0.841   0.192   1.795 -0.3213  0.8746  0.1141
  257SOL    HW1  770   0.905   0.270   1.766  1.2873  3.7858  0.6037
  257SOL    HW2  771   0.885   0.094   1.785  0.6197 -1.3945 -1.9907
  258SOL     OW  772   2.906   1.301   0.456  0.3357  0.1516  0.6533
  258SOL    HW1  773   2.838   1.374   0.437 -0.6461 -1.6245 -0.8015
  258SOL    HW2  774   2.978   1.318   0.534  2.4485 -1.9305  2.3629
  259SOL     OW  775   0.466   2.959   3.032 -0.1872 -0.1088  0.3168
  259SOL    HW1  776   0.384   2.916   3.075  0.4797  1.1421 -0.9444
  259SOL    HW2  777   0.474   2.929   2.929  0.1705  0.2511 -2.8794
  260SOL     OW  778   2.772   0.835   2.766  0.2678  0.7027  0.4267
  260SOL    HW1  779   2.677   0.798   2.761 -0.3087 -1.8043 -1.9546
  260SOL    HW2  780   2.807   0.885   2.849  1.3546 -2.9636  0.4297
  261SOL     OW  781   2.747   1.307   1.298 -0.4252 -0.2234 -0.4697
  261SOL    HW1  782   2.663   1.280   1.240  1.2712 -3.2089 -0.6393
  261SOL    HW2  783   2.786   1.229   1.360 -0.7129 -2.3235  1.9786
  262SOL     OW  784   1.435   2.996   2.045 -0.0971 -0.3893  0.4149
  262SOL    HW1  785   1.466   3.071   1.983 -0.3882  0.1453  0.2711
  262SOL    HW2  786   1.345   2.950   2.020  2.2922  0.7559  0.6608
  263SOL     OW  787   0.879   0.697   2.348  0.4434 -0.3361  0.0330
  263SOL    HW1  788   0.837   0.611   2.304 -2.0567  2.3845  0.7147
  263SOL    HW2  789   0.892   0.783   2.292 -0.7098 -2.0560  1.0580
  264SOL     OW  790   2.194   0.823   0.299 -0.1268  0.4372  0.4338
  264SOL    HW1  791   2.111   0.799   0.360 -0.4398 -0.6766  0.2297
  264SOL    HW2  792   2.290   0.815   0.352  0.1195 -1.2522 -1.1089
  265SOL     OW  793   0.899   2.315   2.677  0.0611  0.7643  0.2807
  265SOL    HW1  794   0.967   2.354   2.748 -0.0699 -1.0626  0.9960
  265SOL    HW2  795   0.876   2.220   2.698 -0.9155  5.4615 -1.5292
  266SOL     OW  796   1.326   1.725   0.022  0.2359 -0.3337 -0.1170
  266SOL    HW1  797   1.322   1.811   0.082 -0.1012 -2.1784 -0.4117
  266SOL    HW2  798   1.415   1.709  -0.031 -0.7288 -2.2079 -1.0925
  267SOL     OW  799   0.965   3.030   2.357  0.1149 -0.2564  0.0888
  267SOL    HW1  800   0.982   3.008   2.254  0.7612 -1.4564  0.2737
  267SOL    HW2  801   0.909   3.117   2.369 -2.6425  0.0770 -1.3303
  268SOL     OW  802   0.687   1.145   1.102 -0.2234 -0.1959 -0.5286
  268SOL    HW1  803   0.690   1.186   1.203  0.3911 -1.3753  1.5206
  268SOL    HW2  804   0.695   1.213   1.027  0.3479  0.5557  0.7989
  269SOL     OW  805   2.386   2.504   1.549  0.0039  0.5187 -0.1609
  269SOL    HW1  806   2.485   2.475   1.551 -0.1353 -0.6817  1.8145
  269SOL    HW2  807   2.354   2.518   1.648 -0.4152  0.0397 -1.4142
  270SOL     OW  808   0.144   3.024   1.923  0.5075 -1.0214  0.1614
  270SOL    HW1  809   0.160   2.973   1.834  0.3300 -0.1557  1.0860
  270SOL    HW2  810   0.148   2.962   2.006  1.3543 -0.0413  0.9020
  271SOL     OW  811   0.397   1.377   1.159 -0.1251 -0.3490  0.2144
  271SOL    HW1  812   0.343   1.362   1.071 -0.4426 -0.2632  3.0984
  271SOL    HW2  813   0.334   1.365   1.244  0.5442 -0.7214 -0.4050
  272SOL     OW  814   1.945   2.867   1.929 -0.1532 -0.4374 -0.0366
  272SOL    HW1  815   1.885   2.815   1.852  0.5876 -1.3986  0.0873
  272SOL    HW2  816   2.038   2.896   1.900 -1.0050 -0.4794  4.0555
  273SOL     OW  817   1.448   1.462   2.777  0.2602 -0.5505 -0.4035
  273SOL    HW1  818   1.346   1.493   2.785 -0.3260  0.9840  1.5895
  273SOL    HW2  819   1.494   1.439   2.868  1.1563  0.1680  1.9422
  274SOL     OW  820   1.273   0.495   2.006 -0.3071 -0.5606  0.1018
  274SOL    HW1  821   1.212   0.413   2.006  1.0583  2.1030  0.1580
  274SOL    HW2  822   1.289   0.518   2.108  0.0024 -1.1001  1.5703
  275SOL     OW  823   0.616   2.096   1.859 -0.1324  0.5394 -0.3071
  275SOL    HW1  824   0.546   2.168   1.886  0.0432 -0.7174  2.6626
  275SOL    HW2  825   0.566   2.002   1.876 -0.3285  0.9463  0.4048
  276SOL     OW  826   2.158   0.908   2.809  0.2051 -0.4817  0.1710
  276SOL    HW1  827   2.104   0.901   2.718 -1.0754 -0.8589  1.1251
  276SOL    HW2  828   2.103   0.885   2.891  0.7655  0.5252 -0.8503
  277SOL     OW  829   3.089   0.853   0.249  0.1114  0.3880 -0.3019
  277SOL    HW1  830   3.187   0.859   0.216  0.3422  0.4828  0.0572
  277SOL    HW2  831   3.084   0.782   0.325  3.5882  0.1862 -0.9810
  278SOL     OW  832   0.239   0.273   0.005 -0.1038  0.2129  0.4208
  278SOL    HW1  833   0.329   0.219   0.018  0.3013  1.4064  2.9826
  278SOL    HW2  834   0.252   0.375  -0.016 -1.2917 -3.1187  1.1245
  279SOL     OW  835   0.151   0.107   0.904  0.1362 -0.4611 -0.3343
  279SOL    HW1  836   0.159   0.046   0.989 -0.5854 -0.1953  0.7577
  279SOL    HW2  837   0.227   0.088   0.837 -0.8480  0.7098  0.9294
  280SOL     OW  838   1.551   2.924   2.506  0.3005  0.4549 -0.7155
  280SOL    HW1  839   1.643   2.971   2.515 -1.0417  1.2166  0.6637
  280SOL    HW2  840   1.470   2.988   2.510  0.3952  1.3073  1.8229
  281SOL     OW  841   0.582   0.933   2.243 -0.4665  0.1158 -0.3977
  281SOL    HW1  842   0.578   0.832   2.207 -2.2424 -1.4389 -2.7416
  281SOL    HW2  843   0.532   0.947   2.335 -2.3002  0.5323 -0.3282
  282SOL     OW  844   1.785   2.490   0.517 -0.3769  1.0025  0.1437
  282SOL    HW1  845   1.734   2.417   0.464  2.3694 -0.5488 -0.8480
  282SOL    HW2  846   1.758   2.590   0.507  1.5066  1.2770 -1.1169
  283SOL     OW  847   1.128   0.912   0.853 -0.1458  0.0828 -0.5240
  283SOL    HW1  848   1.147   0.843   0.924  0.4154  1.8258  0.8119
  283SOL    HW2  849   1.072   0.985   0.893  1.2758 -0.2763 -0.1083
  284SOL     OW  850   2.353   2.694   2.413  0.5037 -0.7065  1.3209
  284SOL    HW1  851   2.385   2.779   2.360 -2.1268  1.0287  2.2661
  284SOL    HW2  852   2.406   2.687   2.495  0.2042  0.7778 -2.0884
  285SOL     OW  853   1.306   3.039   2.556 -0.3535 -0.4675  0.5557
  285SOL    HW1  854   1.320   3.061   2.453  0.9069  0.6120  0.8883
  285SOL    HW2  855   1.212   3.063   2.580  3.5208 -1.6122 -0.6964
  286SOL     OW  856   0.451   0.439   0.773 -0.3920  0.6238  0.1603
  286SOL    HW1  857   0.449   0.388   0.866  0.8502  2.3537  1.7696
  286SOL    HW2  858   0.486   0.376   0.695  1.4529  0.9980 -1.0727
  287SOL     OW  859   0.125   1.293   2.546  0.3105 -0.1447  0.1009
  287SOL    HW1  860   0.051   1.223   2.575 -1.6687  0.8352 -0.8872
  287SOL    HW2  861   0.095   1.388   2.548 -1.3690 -5.2674 -1.1741
  288SOL     OW  862   1.578   2.687   1.564  0.3070 -0.0364  0.0099
  288SOL    HW1  863   1.578   2.651   1.656 -0.5231  1.6837  2.7565
  288SOL    HW2  864   1.668   2.677   1.514 -2.6876  0.6561  0.3616
  289SOL     OW  865   0.593   2.734   0.838  1.0016  0.0527  0.3334
  289SOL    HW1  866   0.668   2.789   0.793  1.2540 -3.1327 -0.2728
  289SOL    HW2  867   0.578   2.761   0.940  1.6234  2.1124  1.8375
  290SOL     OW  868   2.805   1.095   1.708 -0.6459 -0.0636  0.1352
  290SOL    HW1  869   2.706   1.088   1.726  0.7552  0.0098 -2.1361
  290SOL    HW2  870   2.863   1.022   1.752 -1.0455 -1.9151 -2.2274
  291SOL     OW  871   1.978   0.089   0.085  0.2596  0.0846 -0.4230
  291SOL    HW1  872   2.012   0.048   0.175  0.1510  2.5158  0.5822
  291SOL    HW2  873   2.050   0.157   0.057  1.6111  1.4521 -0.6586
  292SOL     OW  874   2.993   1.190   3.078  0.4882  0.2925 -0.3160
  292SOL    HW1  875   2.902   1.227   3.036  0.3938  0.0298  0.3069
  292SOL    HW2  876   3.078   1.210   3.018  1.8602  0.2861 -0.0932
  293SOL     OW  877   0.574   2.146   0.131 -0.2580  0.1062  0.1683
  293SOL    HW1  878   0.523   2.189   0.210  1.6836  1.1418 -1.9993
  293SOL    HW2  879   0.657   2.095   0.159  1.0190  0.0100  1.5197
  294SOL     OW  880   1.776   2.218   1.768  0.1195 -0.4933  0.1035
  294SOL    HW1  881   1.831   2.279   1.833  0.5517 -0.7397  1.4969
  294SOL    HW2  882   1.759   2.272   1.679  0.7653 -2.2192  1.3174
  295SOL     OW  883   0.994   1.026   0.502 -0.0064  0.3870  0.3148
  295SOL    HW1  884   1.063   0.985   0.557 -2.1140 -0.5843 -1.3008
  295SOL    HW2  885   0.902   1.020   0.551  0.0993 -0.0699 -1.5662
  296SOL     OW  886   1.246   2.111   2.523  0.1089  0.0000  0.0895
  296SOL    HW1  887   1.195   2.122   2.431 -1.2162  1.8381 -1.5474
  296SOL    HW2  888   1.249   2.013   2.546 -0.3021  2.4975 -0.0574
  297SOL     OW  889   1.441   0.624   1.362  0.0709 -0.1036 -0.0269
  297SOL    HW1  890   1.415   0.526   1.346  0.0703  0.4542 -1.4717
  297SOL    HW2  891   1.537   0.625   1.408 -1.2741 -1.4991  0.7505
  298SOL     OW  892   0.511   1.383   2.988  0.3771 -0.5591  0.2779
  298SOL    HW1  893   0.490   1.293   3.032  1.9835  1.7483  0.6808
  298SOL    HW2  894   0.576   1.358   2.910  1.6263 -2.2457 -2.0386
  299SOL     OW  895   0.518   0.259   1.331  0.2876  0.4101 -0.8194
  299SOL    HW1  896   0.520   0.352   1.294 -1.4107 -2.8428 -0.5793
  299SOL    HW2  897   0.573   0.241   1.418  1.3854  3.2767 -0.8052
  300SOL     OW  898   1.228   1.843   2.815  0.6636  0.2976 -0.3697
  300SOL    HW1  899   1.214   1.750   2.854  0.0444 -0.3475 -1.2770
  300SOL    HW2  900   1.316   1.846   2.761 -4.0259 -2.4718 -2.6189
  301SOL     OW  901   0.468   0.315   0.512 -0.3638  0.5616 -0.5398
  301SOL    HW1  902   0.364   0.311   0.509 -2.6918  0.9439  2.0059
  301SOL    HW2  903   0.519   0.243   0.455  1.5810 -0.2857 -0.7750
  302SOL     OW  904   1.228   2.406   2.333  0.3645  1.3319  0.4621
  302SOL    HW1  905   1.152   2.464   2.375  2.3748 -0.0407  0.0198
  302SOL    HW2  906   1.201   2.315   2.293  1.3938 -1.7093 -0.3430
  303SOL     OW  907   0.973   2.353   0.824  0.0295  0.3927  0.0220
  303SOL    HW1  908   1.018   2.386   0.737 -0.9830  3.6171 -0.2523
  303SOL    HW2  909   0.981   2.414   0.905  0.5547 -0.1508 -0.3541
  304SOL     OW  910   0.131   2.030   0.622 -0.0766  0.1049  0.5626
  304SOL    HW1  911   0.160   1.973   0.541 -2.8238  1.7575 -0.6943
  304SOL    HW2  912   0.063   2.104   0.587 -1.6893 -2.7622 -0.3526
  305SOL     OW  913   1.640   0.919   0.572 -0.2646  0.2002 -0.0914
  305SOL    HW1  914   1.573   0.897   0.497  2.5114  0.2542 -0.0943
  305SOL    HW2  915   1.672   0.835   0.625  1.4748 -1.9308 -3.0351
  306SOL     OW  916   0.447   1.871   1.897 -0.3127 -0.3902 -0.0058
  306SOL    HW1  917   0.495   1.783   1.884  0.8046 -0.8688  0.0602
  306SOL    HW2  918   0.428   1.894   1.995 -0.4266  1.6835  0.2911
  307SOL     OW  919   3.069   0.922   2.509 -0.5366 -0.1343  0.0919
  307SOL    HW1  920   3.061   1.006   2.574 -2.3580  0.3596 -1.8242
  307SOL    HW2  921   2.995   0.846   2.521  0.4590 -0.3825 -1.7642
  308SOL     OW  922   1.555   2.663   2.837 -0.1837 -0.3896 -0.1845
  308SOL    HW1  923   1.527   2.612   2.747  1.5122 -1.5709 -0.0920
  308SOL    HW2  924   1.496   2.636   2.916  0.7433  0.5724 -2.7520
  309SOL     OW  925   1.224   0.094   1.762  0.3049  0.6423 -0.1868
  309SOL    HW1  926   1.327   0.070   1.772  0.5712  0.3296 -1.8133
  309SOL    HW2  927   1.202   0.124   1.666  2.2234  0.8418  0.6584
  310SOL     OW  928   1.502   2.537   0.653  0.7038  0.3916  0.3103
  310SOL    HW1  929   1.501   2.535   0.756 -1.6155 -0.2386 -1.0718
  310SOL    HW2  930   1.532   2.624   0.614 -2.5443 -0.3319  1.5018
  311SOL     OW  931   1.166   0.976   1.609  0.0026  0.7269  0.3369
  311SOL    HW1  932   1.234   0.902   1.634  1.0009  1.4049  1.4390
  311SOL    HW2  933   1.203   1.045   1.545  0.9834  2.2368  3.4634
  312SOL     OW  934   1.598   0.686   1.028 -0.2239 -0.0207  0.8535
  312SOL    HW1  935   1.580   0.780   0.982 -1.3139 -2.4694  1.9055
  312SOL    HW2  936   1.525   0.617   1.009  1.8525 -0.2670  3.4475
  313SOL     OW  937   1.566   1.388   0.709 -0.6037 -0.5104 -0.0478
  313SOL    HW1  938   1.516   1.464   0.759 -1.9518 -0.0908  1.7450
  313SOL    HW2  939   1.518   1.302   0.678  1.6568 -0.2006  0.6114
  314SOL     OW  940   2.955   0.049   3.048 -0.9831 -0.4409  0.0142
  314SOL    HW1  941   2.952   0.083   3.151 -0.3792  0.6922  0.5602
  314SOL    HW2  942   2.866   0.005   3.019  0.1701  0.7074 -1.0737
  315SOL     OW  943   1.248   0.221   2.805  0.2841  0.0816  0.0410
  315SOL    HW1  944   1.201   0.135   2.764 -1.1911  0.8647 -0.6675
  315SOL    HW2  945   1.263   0.207   2.901 -1.2580 -0.4653 -2.5041
  316SOL     OW  946   1.719   2.049   0.864  0.2114 -0.2786 -0.3607
  316SOL    HW1  947   1.661   2.034   0.952 -2.1247  1.0961  1.0747
  316SOL    HW2  948   1.724   2.149   0.837  1.6669  0.2645  1.5051
  317SOL     OW  949   1.118   0.658   2.879 -0.2760 -0.0648  0.0842
  317SOL    HW1  950   1.051   0.685   2.956 -0.7354 -1.8922 -0.2516
  317SOL    HW2  951   1.070   0.594   2.812 -1.3271 -1.8562 -2.6351
  318SOL     OW  952   1.350   3.074   2.285  0.3339  0.0303  0.0781
  318SOL    HW1  953   1.340   3.175   2.278 -0.7172  1.4367 -1.9656
  318SOL    HW2  954   1.389   3.025   2.204  0.8694 -0.8885  2.6604
  319SOL     OW  955   0.731   2.426   2.939  0.1978 -0.2396 -0.3490
  319SOL    HW1  956   0.660   2.400   3.007  1.0417 -0.5790  0.1020
  319SOL    HW2  957   0.821   2.453   2.985  1.9043 -1.2963  0.4599
  320SOL     OW  958   1.710   2.255   0.385  0.3123  0.4588  0.2824
  320SOL    HW1  959   1.790   2.190   0.401 -1.3900  3.9859  1.8230
  320SOL    HW2  960   1.621   2.208   0.400 -1.3485 -0.8758 -1.6116
  321SOL     OW  961   1.674   2.741   0.477 -0.4857 -0.1328  0.6218
  321SOL    HW1  962   1.589   2.782   0.430  2.6285  0.3232 -1.0588
  321SOL    HW2  963   1.764   2.781   0.444 -2.9339  0.5539  1.8199
  322SOL     OW  964   2.590   1.163   2.419  0.2113 -0.0509 -0.4379
  322SOL    HW1  965   2.690   1.174   2.398 -0.2209  0.0624 -1.3304
  322SOL    HW2  966   2.573   1.070   2.452  3.3069  1.2486  1.3791
  323SOL     OW  967   1.146   2.641   0.847  0.3303  0.1384  0.4096
  323SOL    HW1  968   1.135   2.582   0.762  1.7385  0.5916  0.4146
  323SOL    HW2  969   1.126   2.743   0.834  0.8983  0.2963 -0.2739
  324SOL     OW  970   0.247   2.513   2.536 -0.0518 -0.2204 -0.0860
  324SOL    HW1  971   0.321   2.482   2.608  1.4123 -2.9949 -1.3626
  324SOL    HW2  972   0.164   2.564   2.577  0.1861 -0.8298  0.9043
  325SOL     OW  973   1.252   3.014   0.498 -0.5857  0.0186  0.5418
  325SOL    HW1  974   1.229   3.048   0.399  1.8867  1.3136  0.2559
  325SOL    HW2  975   1.286   3.092   0.561  1.4707 -1.6904  1.8978
  326SOL     OW  976   2.423   0.782   3.087  0.3277 -0.2160 -0.2238
  326SOL    HW1  977   2.398   0.718   3.008  0.4110 -1.0332  1.2375
  326SOL    HW2  978   2.507   0.749   3.140 -0.6018 -0.3706  2.5312
  327SOL     OW  979   2.831   0.383   0.636  0.1621 -0.2200  0.0158
  327SOL    HW1  980   2.832   0.354   0.537 -0.1144 -1.6621  0.6030
  327SOL    HW2  981   2.887   0.319   0.692 -0.6285 -2.0899  0.3857
  328SOL     OW  982   2.549   0.583   0.378  0.3999 -0.5911 -0.1345
  328SOL    HW1  983   2.507   0.682   0.388 -0.2705  2.7298  0.8589
  328SOL    HW2  984   2.541   0.531   0.470 -1.9468 -0.7304  3.7346
  329SOL     OW  985   2.962   2.981   2.152 -0.0974 -0.0171 -0.3290
  329SOL    HW1  986   3.029   2.935   2.219  3.1194  0.0410  0.7647
  329SOL    HW2  987   3.005   3.061   2.102  0.6411 -2.2731 -3.3818
  330SOL     OW  988   0.572   0.157   1.883 -0.0178 -0.2461  0.6265
  330SOL    HW1  989   0.666   0.146   1.846  1.2071  0.8069 -0.6697
  330SOL    HW2  990   0.553   0.085   1.954 -2.3920  0.2141 -0.6840
  331SOL     OW  991   2.976   1.909   1.147 -0.2388 -0.4280 -0.1986
  331SOL    HW1  992   3.028   1.986   1.101 -0.2433 -0.0633  0.0229
  331SOL    HW2  993   2.906   1.938   1.220  0.8370  0.8587 -1.7365
  332SOL     OW  994   0.447   1.149   0.006 -0.2944  0.5451 -0.2897
  332SOL    HW1  995   0.381   1.077  -0.033 -0.2128 -0.5834 -0.9338
  332SOL    HW2  996   0.410   1.194   0.092 -1.8166 -2.0128 -2.0884
  333SOL     OW  997   2.894   1.048   0.325 -0.0217  0.3098  0.3616
  333SOL    HW1  998   2.919   1.120   0.393  1.0351 -2.1831 -0.7500
  333SOL    HW2  999   2.978   0.989   0.300 -0.8019 -0.8817 -0.2892
  334SOL     OW 1000   1.689   1.237   1.837 -0.7955  0.0774  0.1864
  334SOL    HW1 1001   1.778   1.205   1.795  0.7748  1.9715 -0.1450
  334SOL    HW2 1002   1.698   1.276   1.934  0.4136  1.2821  0.7616
  335SOL     OW 1003   1.986   2.771   2.600  0.6346 -0.5622  0.4558
  335SOL    HW1 1004   1.909   2.741   2.659  1.4554 -0.3532 -3.1678
  335SOL    HW2 1005   2.057   2.821   2.654 -2.2407  0.3153 -0.4881
  336SOL     OW 1006   0.273   0.148   2.783 -0.0865  0.7227 -0.4391
  336SOL    HW1 1007   0.369   0.127   2.805 -0.8618  0.0699  0.1977
  336SOL    HW2 1008   0.227   0.194   2.862  1.0256  0.2200 -2.0828
  337SOL     OW 1009   0.949   2.759   2.832  0.9801  0.1257 -0.6710
  337SOL    HW1 1010   0.920   2.718   2.925 -1.0735  3.5298  0.4264
  337SOL    HW2 1011   1.047   2.740   2.801  1.0290 -1.9706  2.7122
  338SOL     OW 1012   0.018   1.041   0.631  0.3247 -0.7373 -0.5681
  338SOL    HW1 1013  -0.080   1.033   0.665  1.3503  0.6445  1.7590
  338SOL    HW2 1014   0.053   1.140   0.643 -1.7548  1.6903  1.1960
  339SOL     OW 1015   1.716   1.344   2.091 -0.0812 -0.2157  0.1979
  339SOL    HW1 1016   1.617   1.357   2.110  0.1305  0.2648 -0.0477
  339SOL    HW2 1017   1.758   1.440   2.083  0.9234  0.4362  0.5295
  340SOL     OW 1018   2.341   0.781   1.165  0.5881  0.7604 -0.3176
  340SOL    HW1 1019   2.247   0.823   1.156 -1.1044 -0.6370 -2.6894
  340SOL    HW2 1020   2.348   0.688   1.124  0.5931  2.8491  1.0930
  341SOL     OW 1021   1.971   2.090   0.325 -0.1262  0.1703 -0.1028
  341SOL    HW1 1022   1.980   2.165   0.253  1.8913 -0.3515  0.5654
  341SOL    HW2 1023   2.064   2.054   0.355  0.8220 -1.0179 -0.1117
  342SOL     OW 1024   2.258   2.110   2.711  0.5178 -0.2645 -0.1829
  342SOL    HW1 1025   2.308   2.031   2.754  1.0316  0.7909 -1.5997
  342SOL    HW2 1026   2.156   2.089   2.714  1.7497  0.5809  0.9754
  343SOL     OW 1027   0.382   0.868   2.765 -0.2905 -0.3609 -0.4004
  343SOL    HW1 1028   0.392   0.968   2.739 -3.3711 -4.0795  0.9832
  343SOL    HW2 1029   0.469   0.813   2.757 -0.1755  1.4228  1.7902
  344SOL     OW 1030   1.935   1.410   0.380 -0.0127  0.7118 -0.2194
  344SOL    HW1 1031   1.917   1.325   0.320  0.5864  0.1216  1.0192
  344SOL    HW2 1032   1.841   1.446   0.408 -1.1191 -1.0580 -2.2559
  345SOL     OW 1033   1.430   2.249   2.899  0.1873 -0.3139  0.2162
  345SOL    HW1 1034   1.334   2.218   2.866 -1.4398 -0.5939 -0.4208
  345SOL    HW2 1035   1.500   2.237   2.821  1.2534 -0.1252 -0.9198
  346SOL     OW 1036   2.392   0.901   1.399 -0.3947 -0.4225  0.3057
  346SOL    HW1 1037   2.339   0.990   1.398 -1.4975 -1.6408 -0.4009
  346SOL    HW2 1038   2.364   0.846   1.313  1.3982 -2.3310 -0.2624
  347SOL     OW 1039   0.757   2.811   1.498  0.0395  0.8428  0.6943
  347SOL    HW1 1040   0.707   2.743   1.560 -0.4037  1.4050 -1.4131
  347SOL    HW2 1041   0.692   2.888   1.474  1.0603 -0.7651 -2.9152
  348SOL     OW 1042   0.202   0.674   2.840  0.6191  0.6115 -0.0769
  348SOL    HW1 1043   0.102   0.674   2.793 -0.3798 -1.7441 -0.4845
  348SOL    HW2 1044   0.260   0.749   2.799 -0.9433 -0.9885 -2.3348
  349SOL     OW 1045   1.866   0.437   2.784  0.6974  0.2648  0.3863
  349SOL    HW1 1046   1.844   0.513   2.715 -2.1272 -3.6281 -0.2486
  349SOL    HW2 1047   1.838   0.456   2.885 -2.1920 -0.3674 -0.3112
  350SOL     OW 1048   1.639   0.419   0.335  0.3595 -0.3266 -0.1847
  350SOL    HW1 1049   1.667   0.439   0.434  1.7533  0.4341  0.3072
  350SOL    HW2 1050   1.635   0.512   0.286  1.7333  0.1575 -3.5379
  351SOL     OW 1051   0.998   0.878   2.163  0.3808  0.0629  0.1617
  351SOL    HW1 1052   0.995   0.977   2.142 -2.4748  0.8831 -3.2858
  351SOL    HW2 1053   1.017   0.820   2.080 -0.1730  1.2174  0.7957
  352SOL     OW 1054   2.041   1.337   0.624  0.3267  0.0165  0.5819
  352SOL    HW1 1055   1.960   1.345   0.562 -2.9127  0.1027 -1.3610
  352SOL    HW2 1056   2.131   1.356   0.579 -1.4506  0.9115  0.4052
  353SOL     OW 1057   2.201   2.844   1.047  0.0698 -0.4132 -0.3975
  353SOL    HW1 1058   2.215   2.748   1.088  2.1615 -0.3343 -0.4673
  353SOL    HW2 1059   2.101   2.869   1.034 -0.3838  1.7247  0.0013
  354SOL     OW 1060   0.265   1.412   2.820  0.6021 -0.1123  0.1048
  354SOL    HW1 1061   0.253   1.501   2.766 -0.1318  2.3572 -2.0196
  354SOL    HW2 1062   0.359   1.412   2.865  1.0525  1.7424 -1.3446
  355SOL     OW 1063   0.519   1.511   0.534  0.8947  0.2150  0.8422
  355SOL    HW1 1064   0.536   1.594   0.594  3.0404  0.6284  0.9407
  355SOL    HW2 1065   0.524   1.422   0.587  0.1534 -0.6005 -0.0004
  356SOL     OW 1066   0.851   0.247   2.067  0.2078  0.0808  0.5461
  356SOL    HW1 1067   0.950   0.257   2.048  0.0089  0.5485  0.6948
  356SOL    HW2 1068   0.807   0.238   1.975  1.1170  0.5717  3.7024
  357SOL     OW 1069   0.987   1.269   0.369  0.3183 -0.3638 -0.5116
  357SOL    HW1 1070   0.960   1.237   0.275 -0.6196  1.4583 -0.3187
  357SOL    HW2 1071   0.984   1.192   0.436  0.4370  1.4109 -0.9968
  358SOL     OW 1072   1.680   1.465   0.464 -1.0397 -0.2964  0.0391
  358SOL    HW1 1073   1.629   1.447   0.551  0.0321 -0.7000 -0.8142
  358SOL    HW2 1074   1.622   1.443   0.380 -1.6608  2.2392  1.8785
  359SOL     OW 1075   1.581   2.683   0.128 -0.1340 -0.6264  0.3635
  359SOL    HW1 1076   1.546   2.581   0.133  0.0336 -2.5933  1.1066
  359SOL    HW2 1077   1.514   2.755   0.148  1.9256 -1.4409  0.8438
  360SOL     OW 1078   0.867   0.560   0.592 -0.4543 -0.0737  0.2358
  360SOL    HW1 1079   0.770   0.587   0.620  0.2030 -1.6926 -0.2395
  360SOL    HW2 1080   0.882   0.455   0.597  0.7780 -0.0435  1.5184
  361SOL     OW 1081   1.205   1.331   0.763 -0.3609 -0.7904 -0.0042
  361SOL    HW1 1082   1.263   1.361   0.842  0.2502  2.6192 -0.9278
  361SOL    HW2 1083   1.121   1.393   0.755  2.3252 -2.4213 -0.5075
  362SOL     OW 1084   1.347   1.862   0.798 -0.0481 -0.2224 -0.4159
  362SOL    HW1 1085   1.372   1.811   0.884  0.2790  3.2127  0.8278
  362SOL    HW2 1086   1.428   1.870   0.732  1.2702  1.7276 -2.1146
  363SOL     OW 1087   1.222   1.307   2.013  0.6447  0.6003 -0.3245
  363SOL    HW1 1088   1.267   1.383   2.066  1.1119  0.8740  0.9321
  363SOL    HW2 1089   1.215   1.329   1.910 -0.1615  0.8033 -1.2911
  364SOL     OW 1090   0.483   2.314   1.965 -0.2382  0.1091  0.3384
  364SOL    HW1 1091   0.395   2.375   1.967 -2.7307  0.7431 -1.2779
  364SOL    HW2 1092   0.554   2.357   1.901  0.7020  0.3969  1.5117
  365SOL     OW 1093   1.000   1.867   1.420  0.2750  0.3514 -0.5376
  365SOL    HW1 1094   0.896   1.864   1.424  1.7971 -1.2770 -1.8980
  365SOL    HW2 1095   1.039   1.880   1.325 -0.0503  0.8774 -1.7577
  366SOL     OW 1096   2.744   2.087   0.434  0.0310  0.0109 -0.4313
  366SOL    HW1 1097   2.661   2.027   0.458 -0.8232 -1.2432  1.5918
  366SOL    HW2 1098   2.811   2.031   0.379  0.7620  1.5371  2.5919
  367SOL     OW 1099   0.915   1.122   0.113  0.2223 -0.1897 -1.1142
  367SOL    HW1 1100   0.949   1.044   0.174  0.8973  0.0739  0.7710
  367SOL    HW2 1101   0.969   1.140   0.027  0.9403  1.6939 -0.6272
  368SOL     OW 1102   1.461   0.529   0.732  0.3174 -0.0410  0.5006
  368SOL    HW1 1103   1.420   0.574   0.648  2.9932  1.0575  0.0959
  368SOL    HW2 1104   1.553   0.563   0.755 -1.1248 -0.4498 -1.1813
  369SOL     OW 1105   0.219   1.736   0.053  0.3923  0.4976  0.1036
  369SOL    HW1 1106   0.277   1.803   0.104 -1.2389 -0.7307 -1.4776
  369SOL    HW2 1107   0.147   1.692   0.112  1.0402 -0.4263  0.5946
  370SOL     OW 1108   0.463   2.076   1.018 -0.3363 -0.0674 -0.4462
  370SOL    HW1 1109   0.473   2.174   0.987 -0.5516 -0.6488  1.1547
  370SOL    HW2 1110   0.367   2.042   0.999 -3.5505  0.3939  0.3597
  371SOL     OW 1111   2.902   2.167   2.677 -0.0413 -0.2277  0.5452
  371SOL    HW1 1112   2.826   2.148   2.750 -0.4825 -0.7837 -0.2110
  371SOL    HW2 1113   2.986   2.207   2.720 -2.2627 -1.7742 -2.3116
  372SOL     OW 1114   1.126   1.990   1.133  0.0928 -0.1806 -0.1714
  372SOL    HW1 1115   1.057   2.030   1.065 -0.7252  0.1657 -4.2960
  372SOL    HW2 1116   1.158   2.066   1.193 -2.9344  1.9100  1.6750
  373SOL     OW 1117   1.985   2.000   0.876  0.0429  0.1843  0.3171
  373SOL    HW1 1118   2.041   2.030   0.956  0.9653 -3.8349 -0.4473
  373SOL    HW2 1119   1.885   2.022   0.890  2.0013 -0.2709  1.1844
  374SOL     OW 1120   1.782   0.457   0.575  0.2536 -0.2575 -0.3170
  374SOL    HW1 1121   1.806   0.426   0.677  1.1863  0.8026  2.4236
  374SOL    HW2 1122   1.862   0.503   0.530  1.8364 -1.9023  3.6899
  375SOL     OW 1123   2.419   2.210   1.154  0.2794  0.0589  0.3444
  375SOL    HW1 1124   2.484   2.208   1.073 -0.2097  0.4202  1.0468
  375SOL    HW2 1125   2.447   2.156   1.239 -0.3950  0.4461  1.9002
  376SOL     OW 1126   3.048   0.564   1.468  0.5887 -0.1114 -0.0275
  376SOL    HW1 1127   3.099   0.623   1.537  0.3701  2.1181 -0.5728
  376SOL    HW2 1128   2.950   0.596   1.450  0.8302 -1.1090 -2.7146
  377SOL     OW 1129   2.235   2.851   0.365  0.0690  0.0200  0.0788
  377SOL    HW1 1130   2.220   2.958   0.370  0.8192 -0.4771  0.1182
  377SOL    HW2 1131   2.327   2.820   0.327 -0.7862  0.6933  0.1538
  378SOL     OW 1132   1.846   1.815   2.639  0.1892  0.3203 -0.2656
  378SOL    HW1 1133   1.777   1.739   2.659  0.1106  0.9491 -1.0831
  378SOL    HW2 1134   1.943   1.776   2.626 -2.5175  1.9539 -1.8760
  379SOL     OW 1135   0.841   0.142   2.769 -0.2452  0.3741  0.9495
  379SOL    HW1 1136   0.779   0.068   2.735 -3.3603 -0.6178 -1.8304
  379SOL    HW2 1137   0.845   0.220   2.704  0.6309 -1.7694  1.1269
  380SOL     OW 1138   1.502   1.153   0.577 -0.3401  0.0427  0.2473
  380SOL    HW1 1139   1.403   1.123   0.585  0.2248 -0.2341 -0.6377
  380SOL    HW2 1140   1.572   1.070   0.561  0.1965  0.6947 -0.1581
  381SOL     OW 1141   1.359   1.165   1.504  0.4564 -0.3398  0.4856
  381SOL    HW1 1142   1.400   1.151   1.406  2.7094  0.1460  0.4295
  381SOL    HW2 1143   1.423   1.132   1.583  1.0227  0.3233  0.9054
  382SOL     OW 1144   1.791   0.860   0.193  0.3696 -0.5714 -0.5756
  382SOL    HW1 1145   1.845   0.840   0.106  0.2293 -0.0346 -4.6034
  382SOL    HW2 1146   1.849   0.856   0.277  0.1392 -0.4864  0.2809
  383SOL     OW 1147   2.616   1.028   1.451 -0.1955 -0.0811  0.2651
  383SOL    HW1 1148   2.532   0.982   1.422  1.6942  2.3180 -1.5467
  383SOL    HW2 1149   2.695   1.010   1.384  0.7280  0.1236 -1.8973
  384SOL     OW 1150   0.926   2.293   0.129 -0.3989  0.1095 -0.1564
  384SOL    HW1 1151   0.879   2.378   0.165 -0.4221  1.9001  0.3740
  384SOL    HW2 1152   0.912   2.211   0.191 -1.7118  3.3070  0.5451
  385SOL     OW 1153   2.999   2.011   1.729  0.2519 -0.3200 -0.3847
  385SOL    HW1 1154   3.068   2.085   1.711  0.0888  1.1072  0.9061
  385SOL    HW2 1155   3.040   1.918   1.731 -3.2417 -1.7538  0.6538
  386SOL     OW 1156   0.441   1.107   0.433 -0.0285 -0.7410  0.0152
  386SOL    HW1 1157   0.480   1.012   0.437 -0.6708  0.0429  0.5308
  386SOL    HW2 1158   0.398   1.133   0.337  0.0807 -0.4416 -0.8369
  387SOL     OW 1159   0.979   0.380   1.633 -1.0230  0.2373  0.3826
  387SOL    HW1 1160   1.049   0.458   1.608 -1.4945  0.0287 -0.6854
  387SOL    HW2 1161   0.925   0.348   1.550  0.7172 -1.1059  0.0440
  388SOL     OW 1162   1.199   2.640   1.768 -0.0865 -0.3630  0.0140
  388SOL    HW1 1163   1.227   2.631   1.667  0.9858  0.7900  2.3973
  388SOL    HW2 1164   1.254   2.581   1.832  2.4235  0.4615 -3.0356
  389SOL     OW 1165   0.203   3.073   1.174 -0.3990 -0.3348 -0.1697
  389SOL    HW1 1166   0.143   3.096   1.256 -0.5632 -1.3245  0.8402
  389SOL    HW2 1167   0.228   2.975   1.181 -0.1207  0.1780  0.7106
  390SOL     OW 1168   1.032   0.955   1.298 -0.7516  0.3093  0.2462
  390SOL    HW1 1169   1.117   0.917   1.344 -0.9271 -0.0213 -2.5481
  390SOL    HW2 1170   1.003   1.050   1.324 -0.2302  1.7810 -1.1214
  391SOL     OW 1171   2.092   1.180   0.963 -0.1885  0.1071 -0.1744
  391SOL    HW1 1172   2.013   1.107   0.974 -0.6263  0.0434  2.4378
  391SOL    HW2 1173   2.179   1.145   0.922  0.6351  1.0079  1.0375
  392SOL     OW 1174   0.882   2.653   3.066  0.3998 -0.3472  0.4520
  392SOL    HW1 1175   0.805   2.660   3.134  1.9326 -1.1647 -1.6948
  392SOL    HW2 1176   0.976   2.673   3.106 -2.3173 -0.8184  0.5374
  393SOL     OW 1177   0.406   0.453   2.052  0.4847 -0.0441 -0.6808
  393SOL    HW1 1178   0.352   0.384   1.998  2.7053  2.2904 -1.5522
  393SOL    HW2 1179   0.493   0.477   2.006 -1.4378 -1.1612 -1.3876
  394SOL     OW 1180   3.026   1.774   2.752  0.2875  0.1442  0.1878
  394SOL    HW1 1181   3.092   1.816   2.824  1.7846 -0.0648  1.1110
  394SOL    HW2 1182   3.032   1.820   2.660 -1.6632 -0.4827  2.5317
  395SOL     OW 1183   1.582   1.915   0.634  0.0770  0.0238 -0.5363
  395SOL    HW1 1184   1.646   1.857   0.576  0.8402 -1.1087 -1.0159
  395SOL    HW2 1185   1.622   1.955   0.721 -3.3038  1.9944  3.2912
  396SOL     OW 1186   2.749   1.966   1.322  0.3038 -0.2449 -0.5166
  396SOL    HW1 1187   2.715   2.039   1.390 -2.2855 -0.6319 -0.1693
  396SOL    HW2 1188   2.755   1.873   1.360 -1.1730  1.3465  2.1797
  397SOL     OW 1189   1.039   2.142   0.611 -0.2152  0.8070 -0.1078
  397SOL    HW1 1190   0.956   2.101   0.559  0.4634 -0.3297 -1.5750
  397SOL    HW2 1191   1.009   2.178   0.697  0.6299 -0.6006 -2.9249
  398SOL     OW 1192   2.244   0.042   0.996 -0.0040 -0.1909  0.2713
  398SOL    HW1 1193   2.243  -0.060   1.017 -0.6458  3.0365  0.4491
  398SOL    HW2 1194   2.164   0.098   1.038 -2.2680  2.3161  0.6090
  399SOL     OW 1195   2.875   2.545   2.771  0.3426 -0.3829  0.0257
  399SOL    HW1 1196   2.849   2.503   2.683 -0.4288  0.6102 -1.9214
  399SOL    HW2 1197   2.846   2.495   2.856  0.8237  0.5435 -2.0655
  400SOL     OW 1198   0.764   1.573   1.268 -0.1540 -0.0957 -0.0385
  400SOL    HW1 1199   0.748   1.623   1.361  2.0325 -0.3304  2.1910
  400SOL    HW2 1200   0.750   1.631   1.184  1.7093  1.1093  2.6668
  401SOL     OW 1201   1.833   0.157   1.335 -0.1650 -0.2630  1.0633
  401SOL    HW1 1202   1.904   0.187   1.408  2.0146  0.5761  1.0571
  401SOL    HW2 1203   1.732   0.158   1.369  1.0050  1.8761  0.4249
  402SOL     OW 1204   1.332   0.148   3.075  0.2039  0.2629 -0.0343
  402SOL    HW1 1205   1.416   0.131   3.019  0.2972 -1.4731  0.7776
  402SOL    HW2 1206   1.326   0.241   3.121  0.2424 -1.7648 -0.3507
  403SOL     OW 1207   2.311   1.840   0.892  0.0185 -0.0846 -0.3040
  403SOL    HW1 1208   2.415   1.855   0.908  0.5592 -0.7044  1.2023
  403SOL    HW2 1209   2.260   1.924   0.925  0.5264  2.3664 -1.1053
  404SOL     OW 1210   0.194   2.475   2.880  0.2623 -0.0199 -0.3465
  404SOL    HW1 1211   0.294   2.464   2.852  1.4807  0.0001 -1.3841
  404SOL    HW2 1212   0.162   2.568   2.845 -1.9292  1.5078 -2.8425
  405SOL     OW 1213   0.192   2.493   0.578 -0.2504 -0.9489 -0.6547
  405SOL    HW1 1214   0.128   2.517   0.500 -0.7340 -2.1098  0.2549
  405SOL    HW2 1215   0.279   2.546   0.592  0.7615 -0.9486  0.7562
  406SOL     OW 1216   0.035   1.467   2.968  0.0848 -0.5803 -0.2154
  406SOL    HW1 1217   0.116   1.442   2.916 -3.3481  0.8204  2.8851
  406SOL    HW2 1218   0.059   1.493   3.063  0.0639  1.3612 -0.1630
  407SOL     OW 1219   1.573   0.930   0.883  0.4758 -0.0350 -0.4807
  407SOL    HW1 1220   1.584   0.947   0.782  1.1749  0.0457  0.9979
  407SOL    HW2 1221   1.506   0.999   0.926  0.8833  0.3589  2.9194
  408SOL     OW 1222   1.617   2.324   1.011  0.7415  0.1829 -0.1585
  408SOL    HW1 1223   1.662   2.337   0.913  0.8975 -0.1376 -2.4939
  408SOL    HW2 1224   1.600   2.411   1.056 -0.3785 -4.5924 -2.2151
  409SOL     OW 1225   0.558   0.879   0.774  0.8375  0.0241  0.0595
  409SOL    HW1 1226   0.500   0.892   0.685  2.1141  0.6444 -2.4755
  409SOL    HW2 1227   0.584   0.780   0.783  1.1634  2.1811 -2.1930
  410SOL     OW 1228   1.248   1.998   1.407  0.1538 -0.0965  0.5967
  410SOL    HW1 1229   1.316   1.995   1.475 -0.0772 -0.6972 -1.6387
  410SOL    HW2 1230   1.160   1.969   1.451  2.8996  1.1646 -0.1254
  411SOL     OW 1231   2.452   1.872   3.052  0.3907  0.6276  0.0512
  411SOL    HW1 1232   2.373   1.937   3.030  0.1957 -0.0089 -1.0224
  411SOL    HW2 1233   2.536   1.886   2.991 -0.7388  0.4876 -0.5178
  412SOL     OW 1234   1.474   2.495   2.240 -0.4016 -0.2290 -0.3162
  412SOL    HW1 1235   1.532   2.558   2.301 -1.0020 -3.0976  2.5366
  412SOL    HW2 1236   1.389   2.456   2.285 -0.8321 -1.1519  1.0701
  413SOL     OW 1237   0.021   0.248   2.931 -0.1647  0.0296 -0.7196
  413SOL    HW1 1238  -0.050   0.181   2.964  3.2786  1.3219  1.3945
  413SOL    HW2 1239   0.105   0.249   2.990  0.3935  1.1236 -1.0760
  414SOL     OW 1240   1.773   1.457   1.365  0.4383  0.3108 -0.2007
  414SOL    HW1 1241   1.680   1.478   1.403 -0.3597 -1.2493 -0.9583
  414SOL    HW2 1242   1.760   1.388   1.283  1.8333 -3.1086 -1.0441
  415SOL     OW 1243   0.332   2.223   0.675 -0.6038 -0.8240  0.7401
  415SOL    HW1 1244   0.306   2.322   0.675 -2.3326  0.7490 -1.3656
  415SOL    HW2 1245   0.254   2.161   0.648  0.2736  1.2811 -0.2085
  416SOL     OW 1246   0.333   1.047   1.056  0.0654  0.8340  0.3169
  416SOL    HW1 1247   0.275   1.001   0.982  2.4645 -1.2134  0.5858
  416SOL    HW2 1248   0.435   1.064   1.032  0.2294 -0.9874 -0.5707
  417SOL     OW 1249   2.108   2.330   1.873 -0.2201  0.0184  0.1094
  417SOL    HW1 1250   2.144   2.229   1.869  0.0996 -1.4615  0.3487
  417SOL    HW2 1251   2.035   2.345   1.946 -1.4678  1.1157 -1.4392
  418SOL     OW 1252   1.088   0.502   1.273  0.4938 -0.1180 -0.0168
  418SOL    HW1 1253   1.002   0.481   1.217 -1.0546 -0.1569 -0.6770
  418SOL    HW2 1254   1.167   0.514   1.208 -0.5057  2.8975  2.3979
  419SOL     OW 1255   1.045   0.341   3.044 -0.0403  0.6052 -0.6289
  419SOL    HW1 1256   1.031   0.388   2.957 -0.1137 -1.3941 -0.2159
  419SOL    HW2 1257   0.982   0.264   3.057 -0.7813  0.3957 -1.6349
  420SOL     OW 1258   0.187   2.238   0.377 -0.3273 -0.2199 -0.1035
  420SOL    HW1 1259   0.156   2.179   0.297  2.9071 -0.1580 -1.5318
  420SOL    HW2 1260   0.116   2.246   0.454 -1.7520 -0.1255 -2.2359
  421SOL     OW 1261   0.315   3.091   0.668  0.4103 -0.7729  0.2271
  421SOL    HW1 1262   0.314   2.988   0.658 -0.6639  0.4399 -0.9830
  421SOL    HW2 1263   0.405   3.129   0.691 -2.0183  1.5350  1.1234
  422SOL     OW 1264   0.974   2.547   1.064 -0.3897  0.0365  0.3518
  422SOL    HW1 1265   1.042   2.583   0.994 -0.1831 -0.9085  1.8070
  422SOL    HW2 1266   1.007   2.578   1.158 -0.5447 -0.0373 -1.8873
  423SOL     OW 1267   0.092   0.668   1.251  0.1568  0.2623  0.6885
  423SOL    HW1 1268   0.041   0.630   1.334 -1.8516 -0.8242  0.8331
  423SOL    HW2 1269   0.057   0.758   1.231  4.0240 -0.0293  1.9700
  424SOL     OW 1270   1.008   2.210   2.054  0.0412  0.3390  0.0918
  424SOL    HW1 1271   0.996   2.312   2.031 -0.9953  0.6157  0.9524
  424SOL    HW2 1272   0.993   2.193   2.156  2.7313 -1.0337  0.8800
  425SOL     OW 1273   1.973   1.436   0.981  0.0883 -0.2212 -0.5035
  425SOL    HW1 1274   2.020   1.342   0.979  2.2698 -1.8570  0.5409
  425SOL    HW2 1275   2.022   1.515   0.929 -1.1599  3.1212 -2.8564
  426SOL     OW 1276   1.516   1.550   1.432 -0.4521 -0.7591 -0.3730
  426SOL    HW1 1277   1.490   1.630   1.372 -1.9304  2.1071  2.2402
  426SOL    HW2 1278   1.469   1.549   1.524 -1.1198 -0.9939 -1.7106
  427SOL     OW 1279   1.887   2.372   2.065 -0.4963 -0.1495 -0.7887
  427SOL    HW1 1280   1.926   2.326   2.148 -0.8346 -0.9715 -0.5328
  427SOL    HW2 1281   1.884   2.476   2.066  0.7666  1.3349 -0.0982
  428SOL     OW 1282   0.865   2.915   0.156 -0.2024 -0.2456  0.3181
  428SOL    HW1 1283   0.920   3.001   0.190  3.3695 -1.9228  0.7197
  428SOL    HW2 1284   0.925   2.836   0.124 -0.4228 -1.7349 -2.5934
  429SOL     OW 1285   1.296   0.083   0.256 -0.1292  0.4026  0.0334
  429SOL    HW1 1286   1.387   0.130   0.284  2.9176 -0.1878 -1.0109
  429SOL    HW2 1287   1.289   0.079   0.155 -1.2750  0.3756  1.9861
  430SOL     OW 1288   2.706   1.485   0.387 -0.1002 -0.1926  0.2666
  430SOL    HW1 1289   2.743   1.544   0.307  0.7146  0.7218 -0.5282
  430SOL    HW2 1290   2.710   1.541   0.473 -1.0227 -2.4826 -0.1222
  431SOL     OW 1291   2.111   1.636   0.874  0.1794 -0.2892 -0.1378
  431SOL    HW1 1292   2.169   1.698   0.933  2.0841 -0.5457  0.1270
  431SOL    HW2 1293   2.048   1.683   0.805 -0.0581 -0.4726  0.5659
  432SOL     OW 1294   2.896   2.247   1.260 -0.0794 -0.1380  0.4963
  432SOL    HW1 1295   2.869   2.146   1.265  0.6224 -1.7069  3.7490
  432SOL    HW2 1296   2.949   2.272   1.349 -1.1763 -2.5779 -1.5171
  433SOL     OW 1297   1.862   0.392   0.839  0.4306 -0.6151  0.1489
  433SOL    HW1 1298   1.797   0.376   0.918  0.1877  2.9717 -0.4622
  433SOL    HW2 1299   1.901   0.303   0.802  2.2452  0.3580  1.8982
  434SOL     OW 1300   1.579   0.288   0.731  0.2625 -0.2183  0.5253
  434SOL    HW1 1301   1.518   0.364   0.702  2.2762  0.7244  0.3868
  434SOL    HW2 1302   1.612   0.301   0.832 -0.0500 -1.3441 -2.1069
  435SOL     OW 1303   1.432   1.455   2.120 -0.0757  0.0598 -0.2649
  435SOL    HW1 1304   1.377   1.483   2.207  0.5268  1.5338 -1.3460
  435SOL    HW2 1305   1.437   1.525   2.044 -2.2531  3.1404 -1.3234
  436SOL     OW 1306   1.640   2.700   2.346  0.4949  0.1026 -0.0074
  436SOL    HW1 1307   1.627   2.797   2.370 -1.8321  1.9707 -0.4727
  436SOL    HW2 1308   1.687   2.646   2.422  1.1182  1.4801 -0.0855
  437SOL     OW 1309   1.104   2.906   0.864  0.0307 -0.1203  0.1204
  437SOL    HW1 1310   1.046   2.977   0.818 -0.1601  0.4777 -0.2442
  437SOL    HW2 1311   1.092   2.908   0.968 -1.4280  2.4635  1.7895
  438SOL     OW 1312   1.050   2.606   1.332  0.4005  0.1926 -0.5058
  438SOL    HW1 1313   1.119   2.638   1.400 -1.2616  1.5356 -0.1418
  438SOL    HW2 1314   1.013   2.509   1.342 -1.8109 -1.7804  1.5932
  439SOL     OW 1315   0.725   1.802   1.099 -0.1388  0.1324 -0.0790
  439SOL    HW1 1316   0.757   1.900   1.111  0.1348 -1.2519 -0.2724
  439SOL    HW2 1317   0.623   1.789   1.091  1.3151 -0.2004 -0.2967
  440SOL     OW 1318   0.993   2.487   1.965 -0.6603  0.0282 -0.1129
  440SOL    HW1 1319   0.957   2.456   1.874  0.0258 -0.0765  0.6038
  440SOL    HW2 1320   1.098   2.487   1.970  1.4916  0.8315  1.1018
  441SOL     OW 1321   0.401   2.794   1.341  0.0732  0.2840  0.5584
  441SOL    HW1 1322   0.458   2.713   1.374 -3.5872  1.4658 -1.3539
  441SOL    HW2 1323   0.388   2.786   1.238  1.1930  1.6094 -0.2010
  442SOL     OW 1324   2.265   0.651   2.610 -0.2591 -0.2242  0.0533
  442SOL    HW1 1325   2.257   0.574   2.544 -2.0892 -1.7882  0.2724
  442SOL    HW2 1326   2.179   0.714   2.608 -1.4145  0.5946 -0.1825
  443SOL     OW 1327   1.216   2.706   2.197 -0.0831  0.4845 -0.4632
  443SOL    HW1 1328   1.258   2.630   2.258 -0.2279 -1.8953  4.0576
  443SOL    HW2 1329   1.220   2.797   2.249 -0.2104  0.2171 -1.0382
  444SOL     OW 1330   1.119   1.314   1.536  0.3591  0.6797  0.6435
  444SOL    HW1 1331   1.215   1.281   1.536 -0.2020  2.9698  2.4048
  444SOL    HW2 1332   1.122   1.413   1.566  2.3493 -0.9363  0.1776
  445SOL     OW 1333   3.101   2.377   1.844 -0.0241 -0.5165 -0.0048
  445SOL    HW1 1334   3.109   2.458   1.777  1.4473 -0.4966 -0.3039
  445SOL    HW2 1335   3.015   2.373   1.894  1.3187 -0.7083 -2.1626
  446SOL     OW 1336   0.217   1.884   2.406  0.5056 -0.2086 -0.1791
  446SOL    HW1 1337   0.157   1.964   2.411  3.3395 -1.8756 -0.6159
  446SOL    HW2 1338   0.182   1.814   2.333  1.9228 -0.6663  1.8958
  447SOL     OW 1339   1.235   1.659   1.979  0.1603  0.0840  0.1837
  447SOL    HW1 1340   1.149   1.716   1.958 -1.5507 -2.3366  1.1315
  447SOL    HW2 1341   1.317   1.717   2.008  1.3423 -0.1170  0.4312
  448SOL     OW 1342   0.088   1.452   1.974 -0.0477  0.4175 -0.3041
  448SOL    HW1 1343   0.122   1.540   1.931 -0.1013  3.3243  1.2538
  448SOL    HW2 1344   0.063   1.464   2.074  0.1582 -0.4418 -2.5459
  449SOL     OW 1345   1.723   2.932   0.904 -0.1557  0.3027  0.2144
  449SOL    HW1 1346   1.753   2.954   0.998 -1.3902 -2.4637  1.8075
  449SOL    HW2 1347   1.800   2.895   0.842 -0.4103  0.2983  0.3246
  450SOL     OW 1348   2.310   1.444   0.749  0.3282 -0.2835 -0.4162
  450SOL    HW1 1349   2.225   1.493   0.796  0.8072  2.0192  1.2411
  450SOL    HW2 1350   2.328   1.494   0.659  1.8650 -1.0545  1.7920
  451SOL     OW 1351   1.307   3.049   1.433 -0.2791  0.0363 -0.1476
  451SOL    HW1 1352   1.252   3.132   1.461 -2.3933 -4.0488 -1.8240
  451SOL    HW2 1353   1.326   2.986   1.517 -1.6616 -0.7210  2.2466
  452SOL     OW 1354   2.652   2.292   2.233 -0.1955  0.5638 -0.4922
  452SOL    HW1 1355   2.628   2.394   2.246  0.2679  0.1403 -3.6390
  452SOL    HW2 1356   2.702   2.246   2.310  1.3532  0.4893 -1.4377
  453SOL     OW 1357   2.465   2.679   3.079  0.0501  0.2180 -0.1633
  453SOL    HW1 1358   2.379   2.723   3.121 -1.1266 -3.0009 -1.9684
  453SOL    HW2 1359   2.434   2.619   2.993  0.3404 -2.5952 -2.3454
  454SOL     OW 1360   0.980   1.160   2.047  0.1048 -0.2331 -0.2733
  454SOL    HW1 1361   0.947   1.167   1.946 -2.3880  0.0395  0.8072
  454SOL    HW2 1362   1.060   1.222   2.071 -0.8687 -0.8526  1.8712
  455SOL     OW 1363   0.684   2.689   2.797  0.5810 -0.6510  0.1161
  455SOL    HW1 1364   0.776   2.733   2.793 -0.3149  0.0024  0.4530
  455SOL    HW2 1365   0.699   2.600   2.846  0.9577  4.9647 -0.5591
  456SOL     OW 1366   0.428   1.857   0.191  0.2681  0.0383  0.2347
  456SOL    HW1 1367   0.506   1.801   0.235  0.7219  0.8926 -0.6534
  456SOL    HW2 1368   0.456   1.951   0.158  3.4712  0.1994  0.3847
  457SOL     OW 1369   0.394   2.690   0.604 -0.0941 -0.6393 -0.4823
  457SOL    HW1 1370   0.367   2.732   0.516 -0.4116  2.3018  1.8725
  457SOL    HW2 1371   0.485   2.729   0.633  0.1610 -0.5590 -0.1129
  458SOL     OW 1372   2.914   0.014   1.208  0.7859 -0.4500  0.5245
  458SOL    HW1 1373   2.971   0.100   1.188 -0.8851 -0.9992  0.3632
  458SOL    HW2 1374   2.902  -0.047   1.125  3.5821 -0.3511 -0.6153
  459SOL     OW 1375   2.090   2.622   0.785 -0.4664  0.3706 -0.1320
  459SOL    HW1 1376   2.188   2.640   0.819 -2.2906 -1.4490 -0.8696
  459SOL    HW2 1377   2.087   2.561   0.699 -1.6164  1.8085 -2.2777
  460SOL     OW 1378   1.194   2.127   2.817  0.1651 -0.4149 -0.3017
  460SOL    HW1 1379   1.182   2.127   2.715  2.1593  2.3395 -0.2310
  460SOL    HW2 1380   1.211   2.030   2.849 -0.2753 -0.2976  2.3934
  461SOL     OW 1381   0.561   2.185   2.652  0.0906 -0.1754  0.0932
  461SOL    HW1 1382   0.508   2.103   2.613 -1.9351 -1.9671  0.7983
  461SOL    HW2 1383   0.571   2.172   2.754  1.0203  1.1230 -0.4011
  462SOL     OW 1384   0.936   1.077   1.755  0.0876 -0.0124 -0.5415
  462SOL    HW1 1385   1.019   1.051   1.696  2.4718 -0.2446  0.6599
  462SOL    HW2 1386   0.866   1.144   1.713 -1.5949 -0.8031 -1.2903
  463SOL     OW 1387   0.463   0.835   0.506 -0.3651 -0.3895 -0.0183
  463SOL    HW1 1388   0.504   0.738   0.484 -0.2578 -1.0479 -1.0275
  463SOL    HW2 1389   0.362   0.835   0.494  1.6848 -2.0820 -1.8742
  464SOL     OW 1390   0.608   2.274   2.218  0.6335  0.2072  0.2589
  464SOL    HW1 1391   0.569   2.362   2.261 -1.1232 -1.8975 -0.1375
  464SOL    HW2 1392   0.560   2.251   2.127 -1.6526  1.8003  0.0413
  465SOL     OW 1393   0.208   0.944   0.833 -0.6104  0.1543 -0.7620
  465SOL    HW1 1394   0.115   0.952   0.786  2.5767 -0.1662  2.5471
  465SOL    HW2 1395   0.247   0.846   0.834  0.6977  0.6233  0.8031
  466SOL     OW 1396   1.399   1.108   0.998 -0.1427 -0.0890 -0.1356
  466SOL    HW1 1397   1.427   1.202   0.964  2.2150  0.1096  1.5223
  466SOL    HW2 1398   1.297   1.088   0.991  0.5136  0.1666  3.2224
  467SOL     OW 1399   0.615   0.433   2.444 -0.6003  0.0357 -0.2428
  467SOL    HW1 1400   0.537   0.496   2.410  1.0189 -3.9863 -2.5980
  467SOL    HW2 1401   0.592   0.388   2.533 -0.1512  2.6403 -1.6125
  468SOL     OW 1402   0.436   2.254   1.612  0.1558 -0.6045  0.2457
  468SOL    HW1 1403   0.426   2.337   1.673 -2.7815  1.3449 -1.4636
  468SOL    HW2 1404   0.414   2.281   1.512 -0.3407 -1.4277  1.1341
  469SOL     OW 1405   1.476   1.353   1.247 -0.3162 -0.0112 -0.3426
  469SOL    HW1 1406   1.568   1.330   1.212  0.2377  1.2411 -0.2459
  469SOL    HW2 1407   1.481   1.405   1.341 -0.2039 -0.8809  0.9727
  470SOL     OW 1408   3.038   1.849   0.772 -0.1761 -0.3122  0.1720
  470SOL    HW1 1409   3.107   1.903   0.720  0.7099  0.7472 -1.7340
  470SOL    HW2 1410   3.078   1.768   0.821  0.6623  0.7393 -0.7184
  471SOL     OW 1411   2.591   1.312   2.147  0.5670 -0.6541 -0.3325
  471SOL    HW1 1412   2.512   1.285   2.212 -0.2972 -0.8695  0.5527
  471SOL    HW2 1413   2.674   1.349   2.199 -0.4132  2.4088  0.7132
  472SOL     OW 1414   1.157   2.412   0.046 -0.1538  0.7514 -0.0707
  472SOL    HW1 1415   1.230   2.395   0.119 -0.7419  1.0927  0.5241
  472SOL    HW2 1416   1.063   2.376   0.080 -1.0251  0.4543  1.1999
  473SOL     OW 1417   1.070   1.516   1.031  0.1202  0.1517 -0.4734
  473SOL    HW1 1418   0.978   1.530   0.986  0.7224  0.6821  0.3767
  473SOL    HW2 1419   1.081   1.421   1.074  1.0646  1.8743 -0.2777
  474SOL     OW 1420   0.674   1.251   0.550  0.1171  0.1728 -0.2820
  474SOL    HW1 1421   0.621   1.227   0.464  0.7432  0.1531 -0.6707
  474SOL    HW2 1422   0.713   1.166   0.601  0.6188 -0.2673  1.1272
  475SOL     OW 1423   2.842   0.033   0.828 -0.1290 -0.2916  0.3278
  475SOL    HW1 1424   2.905   0.120   0.830  4.1721  0.2703  2.1472
  475SOL    HW2 1425   2.737   0.053   0.849 -2.1491 -1.5061  1.7798
  476SOL     OW 1426   0.964   3.051   1.748 -0.0192  0.5247  0.0156
  476SOL    HW1 1427   1.054   3.092   1.776 -2.6991  1.2666  1.9912
  476SOL    HW2 1428   0.976   2.982   1.672  2.2638 -0.1067 -0.0493
  477SOL     OW 1429   1.433   0.335   2.417 -0.5832  0.0689 -0.3346
  477SOL    HW1 1430   1.429   0.364   2.516 -0.3617 -0.8685 -1.5874
  477SOL    HW2 1431   1.517   0.271   2.402 -0.8827  1.3257 -2.1537
  478SOL     OW 1432   2.240   1.808   0.171 -0.6418  0.0684 -0.1359
  478SOL    HW1 1433   2.197   1.749   0.244  2.5823 -0.2485 -0.8158
  478SOL    HW2 1434   2.269   1.762   0.081  0.5508 -1.0813 -2.1963
  479SOL     OW 1435   1.206   0.985   2.817 -0.7522  0.0829  0.5367
  479SOL    HW1 1436   1.281   0.956   2.751  0.8994  0.5977 -0.6756
  479SOL    HW2 1437   1.119   0.940   2.797 -0.6242  0.9868 -1.8352
  480SOL     OW 1438   2.661   2.351   0.363 -0.2576 -0.3067 -0.1916
  480SOL    HW1 1439   2.685   2.250   0.375  1.2118 -0.6003  2.3498
  480SOL    HW2 1440   2.565   2.363   0.331 -0.7429  0.0599 -1.0874
  481SOL     OW 1441   0.964   1.177   0.865  0.5344 -0.2867  0.2709
  481SOL    HW1 1442   0.967   1.272   0.821  1.5205  1.2076 -1.0340
  481SOL    HW2 1443   1.025   1.169   0.948  1.3061  0.3636  1.9032
  482SOL     OW 1444   1.601   0.285   2.004 -0.2893 -0.2810 -0.0565
  482SOL    HW1 1445   1.599   0.394   1.990 -0.2149 -0.0629  0.9009
  482SOL    HW2 1446   1.693   0.255   2.043  1.1398  1.1927  0.8098
  483SOL     OW 1447   0.120   2.278   1.199 -0.3548  0.7321  0.1000
  483SOL    HW1 1448   0.041   2.296   1.263  0.6991 -2.0621  1.8733
  483SOL    HW2 1449   0.157   2.356   1.144 -1.0321 -1.4423 -1.2001
  484SOL     OW 1450   1.776   1.125   1.365  0.0197  0.2382 -0.0706
  484SOL    HW1 1451   1.832   1.037   1.378  2.0512 -1.2336 -1.3928
  484SOL    HW2 1452   1.806   1.202   1.427 -1.4265  0.3151 -1.1883
  485SOL     OW 1453   0.751   0.892   1.768 -0.0056  0.4086  0.0437
  485SOL    HW1 1454   0.736   0.882   1.668  1.1294  4.0453  1.7024
  485SOL    HW2 1455   0.833   0.959   1.791  0.1480  1.4386  1.4676
  486SOL     OW 1456   0.794   1.876   2.461 -0.2108  0.2613 -0.4745
  486SOL    HW1 1457   0.841   1.832   2.543 -0.6686 -2.0724  0.0581
  486SOL    HW2 1458   0.765   1.977   2.485 -0.2046  0.2902 -1.3709
  487SOL     OW 1459   1.779   1.665   0.933  0.4977 -0.3280  0.2515
  487SOL    HW1 1460   1.839   1.592   0.963 -3.0637  0.9881  0.8600
  487SOL    HW2 1461   1.817   1.708   0.845 -0.2383 -0.3516 -1.1211
  488SOL     OW 1462   2.962   0.867   2.265  0.5956 -0.2978  0.2925
  488SOL    HW1 1463   2.992   0.772   2.237 -1.5298 -0.2865 -1.6924
  488SOL    HW2 1464   3.012   0.910   2.346  1.2758 -0.5022  0.8056
  489SOL     OW 1465   2.811   0.341   1.285 -0.2692  0.2054 -0.9833
  489SOL    HW1 1466   2.783   0.326   1.387 -3.0020  0.8084 -0.1123
  489SOL    HW2 1467   2.906   0.302   1.267  2.3632  1.3202 -0.8987
  490SOL     OW 1468   1.431   2.931   2.798  0.5539  0.1111 -0.0658
  490SOL    HW1 1469   1.499   2.857   2.811 -0.7145  0.1253  1.3441
  490SOL    HW2 1470   1.393   2.926   2.702 -0.3458  2.0611 -0.7663
  491SOL     OW 1471   1.687   1.477   2.630  0.4798 -1.1490 -0.2039
  491SOL    HW1 1472   1.608   1.450   2.694 -1.2866 -1.4856 -1.3874
  491SOL    HW2 1473   1.775   1.509   2.684  1.9494  0.6667  2.4283
  492SOL     OW 1474   0.565   2.101   0.628  0.8039  0.6970  0.6221
  492SOL    HW1 1475   0.616   2.078   0.713 -4.2105 -0.5973 -0.4435
  492SOL    HW2 1476   0.469   2.143   0.647 -2.5573  0.2787 -1.5610
  493SOL     OW 1477   0.422   1.396   2.042 -0.0684  0.1694 -0.2105
  493SOL    HW1 1478   0.342   1.456   2.015  0.5107 -3.7126 -0.9552
  493SOL    HW2 1479   0.400   1.295   2.065  1.0938 -0.7382  2.5725
  494SOL     OW 1480   2.708   2.708   0.095  0.1710  0.3672 -0.0799
  494SOL    HW1 1481   2.710   2.685   0.198  1.7134  0.4443 -2.0901
  494SOL    HW2 1482   2.615   2.703   0.042  0.9343 -0.0465  0.9585
  495SOL     OW 1483   2.569   2.714   2.652 -0.2190  0.5477  0.0926
  495SOL    HW1 1484   2.571   2.614   2.633  0.6603 -1.8353 -1.8430
  495SOL    HW2 1485   2.640   2.764   2.603 -1.8383 -0.5384 -1.0909
  496SOL     OW 1486   2.087   2.262   0.730  0.1180 -0.2639 -0.6674
  496SOL    HW1 1487   2.092   2.316   0.821 -1.1475  0.0723 -0.3409
  496SOL    HW2 1488   2.110   2.163   0.736  2.7413 -0.8583 -1.5185
  497SOL     OW 1489   0.208   2.988   2.353  0.2576 -0.1150  0.3072
  497SOL    HW1 1490   0.157   3.046   2.427 -2.0467 -0.8140  2.1008
  497SOL    HW2 1491   0.257   3.045   2.283 -2.5520  1.0134 -0.4899
  498SOL     OW 1492   1.195   1.343   1.230 -0.4460  0.1915 -0.3678
  498SOL    HW1 1493   1.296   1.328   1.241  0.4469  0.6208 -1.8827
  498SOL    HW2 1494   1.163   1.431   1.270  1.4287  0.4855  1.1717
  499SOL     OW 1495   0.620   1.750   0.360  0.0933  0.1954  0.3896
  499SOL    HW1 1496   0.639   1.651   0.332  1.1569  0.8667 -2.1154
  499SOL    HW2 1497   0.694   1.786   0.415  0.3445 -2.8876 -1.1405
  500SOL     OW 1498   1.391   2.897   1.629  0.6433 -0.0654 -0.2789
  500SOL    HW1 1499   1.341   2.889   1.714  1.6052 -5.0392  0.9654
  500SOL    HW2 1500   1.471   2.830   1.622  0.6635 -2.2046  2.3803
  501SOL     OW 1501   0.811   1.127   2.269  0.1562 -0.1044  0.5039
  501SOL    HW1 1502   0.723   1.069   2.260  2.3465  1.7154 -1.7364
  501SOL    HW2 1503   0.841   1.169   2.175  2.0955  0.6397 -2.9002
  502SOL     OW 1504   2.563   0.923   1.717 -0.6710 -0.1353 -0.1672
  502SOL    HW1 1505   2.595   0.952   1.625  2.5808  2.0785  0.7397
  502SOL    HW2 1506   2.586   0.823   1.734  0.6252 -0.8320  0.0442
  503SOL     OW 1507   1.335   0.145   0.647 -0.2857  0.1149  0.5154
  503SOL    HW1 1508   1.275   0.226   0.630 -0.1167  0.0589 -2.2997
  503SOL    HW2 1509   1.432   0.172   0.650  0.2455  0.5322  0.5755
  504SOL     OW 1510   3.013   2.332   1.496  0.0075  0.0004 -0.3142
  504SOL    HW1 1511   2.941   2.401   1.528 -1.2531  0.6320 -0.6590
  504SOL    HW2 1512   3.070   2.282   1.572  0.5305 -1.7226  0.1002
  505SOL     OW 1513   2.311   1.167   1.402  0.4037 -0.3188 -0.1737
  505SOL    HW1 1514   2.270   1.222   1.328  0.5904  3.3505 -2.4028
  505SOL    HW2 1515   2.377   1.223   1.461  0.8414 -1.1763  3.1130
  506SOL     OW 1516   1.982   0.220   1.842  0.2775  0.0999 -0.2856
  506SOL    HW1 1517   2.027   0.159   1.911  0.0386  1.1833 -1.3850
  506SOL    HW2 1518   1.975   0.323   1.860 -0.1148 -0.9449  0.5251
  507SOL     OW 1519   0.581   0.661   2.130 -0.7845 -0.3347 -0.3249
  507SOL    HW1 1520   0.503   0.607   2.090 -3.0830 -0.8166 -2.5489
  507SOL    HW2 1521   0.657   0.594   2.170  1.2145 -0.1164  1.0985
  508SOL     OW 1522   0.288   1.656   0.747 -0.0619  0.2683 -0.2060
  508SOL    HW1 1523   0.360   1.718   0.706 -0.2114 -1.9417  1.3545
  508SOL    HW2 1524   0.245   1.684   0.838  0.1925 -4.0852  0.2836
  509SOL     OW 1525   1.271   1.190   2.404 -1.0764  0.5936 -0.0159
  509SOL    HW1 1526   1.321   1.117   2.348  1.3562 -3.2112  1.1067
  509SOL    HW2 1527   1.174   1.159   2.416  3.2773  1.6626 -2.0166
  510SOL     OW 1528   1.301   2.125   2.231 -0.0659 -0.3182  0.0096
  510SOL    HW1 1529   1.289   2.163   2.132  2.8268  2.0229 -2.8892
  510SOL    HW2 1530   1.251   2.033   2.239 -0.4868  0.1101  0.9828
  511SOL     OW 1531   3.008   2.662   1.286 -0.0191  0.1080 -0.1268
  511SOL    HW1 1532   2.964   2.627   1.201  0.8595 -1.3302  1.9582
  511SOL    HW2 1533   2.952   2.669   1.376  1.2519  0.1700 -0.8845
  512SOL     OW 1534   2.414   0.449   1.373  0.1021  0.2228  0.0975
  512SOL    HW1 1535   2.315   0.459   1.386  0.7621  3.8381 -0.4475
  512SOL    HW2 1536   2.446   0.372   1.316 -2.6622  0.8923  1.5659
  513SOL     OW 1537   2.575   2.107   0.892  0.2961 -0.3556 -0.1218
  513SOL    HW1 1538   2.548   2.208   0.869 -1.3017  1.5128 -0.4350
  513SOL    HW2 1539   2.652   2.070   0.830 -1.0464  1.0961 -0.4097
  514SOL     OW 1540   0.670   2.756   0.473 -0.0302  0.2686  0.0061
  514SOL    HW1 1541   0.707   2.790   0.384 -1.0708 -1.3323 -0.8907
  514SOL    HW2 1542   0.723   2.789   0.559  0.6269 -0.9719  1.2424
  515SOL     OW 1543   1.930   1.299   2.369  0.3412 -0.1139 -0.5219
  515SOL    HW1 1544   1.953   1.212   2.316  2.8417 -0.3314 -0.7049
  515SOL    HW2 1545   1.840   1.280   2.415  0.2369 -1.8360 -3.5344
  516SOL     OW 1546   0.268   0.273   1.910  0.0191 -0.3570  0.0792
  516SOL    HW1 1547   0.333   0.236   1.846 -0.0978 -1.1645 -0.0334
  516SOL    HW2 1548   0.167   0.251   1.884 -0.1233 -0.3029  3.2273
  517SOL     OW 1549   0.455   0.045   1.158  0.4389 -0.4317  0.3350
  517SOL    HW1 1550   0.502   0.123   1.207  0.6847 -0.9758 -1.4207
  517SOL    HW2 1551   0.353   0.039   1.144 -0.9657  0.4172  0.8090
  518SOL     OW 1552   2.164   3.066   1.834 -0.2504 -0.4791  0.1391
  518SOL    HW1 1553   2.210   3.157   1.814  1.3596 -1.7633 -2.4655
  518SOL    HW2 1554   2.157   3.018   1.745  1.3844 -0.0959  2.7150
  519SOL     OW 1555   2.340   2.126   2.450  0.0780 -0.0458  0.2090
  519SOL    HW1 1556   2.321   2.105   2.548  1.1414 -2.0199 -2.4671
  519SOL    HW2 1557   2.349   2.227   2.426  1.6502  1.1325  0.4265
  520SOL     OW 1558   1.848   2.684   1.753 -0.3932 -0.0510  0.5287
  520SOL    HW1 1559   1.775   2.628   1.800  3.4689 -1.6740  1.6264
  520SOL    HW2 1560   1.915   2.627   1.694  0.3314 -2.2283 -0.7691
  521SOL     OW 1561   0.566   3.060   2.091  0.6967 -0.0672  0.2468
  521SOL    HW1 1562   0.464   3.073   2.099  2.1068  1.9695 -2.9672
  521SOL    HW2 1563   0.611   3.041   2.184  0.3652 -1.9262  1.5155
  522SOL     OW 1564   0.201   1.827   1.580  0.6059  0.5086  0.2631
  522SOL    HW1 1565   0.248   1.910   1.630  1.8515 -0.4325  1.7281
  522SOL    HW2 1566   0.169   1.858   1.485  1.2600  1.5945 -0.0600
  523SOL     OW 1567   2.177   2.969   1.570 -0.4015 -0.4345 -0.3273
  523SOL    HW1 1568   2.259   2.900   1.576  3.8407 -1.2521  0.5010
  523SOL    HW2 1569   2.101   2.934   1.501 -2.4774  0.5746 -1.6220
  524SOL     OW 1570   0.174   2.738   2.797 -0.0082  0.3381 -0.0576
  524SOL    HW1 1571   0.122   2.825   2.826  1.4982  1.7116 -0.0563
  524SOL    HW2 1572   0.276   2.752   2.797  2.2446 -2.4338 -2.1195
  525SOL     OW 1573   2.198   1.990   0.396 -0.3731 -0.1523 -0.3758
  525SOL    HW1 1574   2.213   1.932   0.482 -2.7674 -1.8985  1.9956
  525SOL    HW2 1575   2.257   1.961   0.314 -2.8331 -0.0882 -0.9459
  526SOL     OW 1576   0.478   1.494   1.684  0.2803  0.3762 -0.8508
  526SOL    HW1 1577   0.519   1.559   1.758 -0.6729 -0.0935 -1.0514
  526SOL    HW2 1578   0.498   1.395   1.696 -0.7640  4.2392 -0.1098
  527SOL     OW 1579   1.060   2.876   1.138 -0.4350  0.0804  0.1602
  527SOL    HW1 1580   1.126   2.819   1.198  1.3061  1.8587  2.4968
  527SOL    HW2 1581   1.072   2.975   1.166  0.3480 -1.5465  2.0844
  528SOL     OW 1582   1.361   2.328   0.518 -0.8308 -0.0833 -0.4836
  528SOL    HW1 1583   1.395   2.231   0.510  0.9186  1.4127  1.5794
  528SOL    HW2 1584   1.417   2.388   0.587 -0.5935  1.4742 -0.3161
  529SOL     OW 1585   1.928   1.779   0.726  0.1218 -0.0818 -1.0015
  529SOL    HW1 1586   1.865   1.788   0.645  0.1628  1.0906  0.7944
  529SOL    HW2 1587   1.955   1.868   0.779  1.8812  0.4691 -0.8267
  530SOL     OW 1588   0.410   2.586   0.224 -0.0004  0.1484 -0.3208
  530SOL    HW1 1589   0.365   2.654   0.294 -0.9451 -0.1762 -1.3984
  530SOL    HW2 1590   0.434   2.490   0.259  1.5544 -1.6847  1.5251
  531SOL     OW 1591   1.876   1.008   1.027  0.3007  0.5553 -0.3076
  531SOL    HW1 1592   1.793   1.028   0.967 -2.2423  1.8850 -2.6125
  531SOL    HW2 1593   1.857   0.923   1.082  0.6260 -3.2804 -4.3391
  532SOL     OW 1594   0.382   1.178   0.721  0.2175 -0.4548 -0.5451
  532SOL    HW1 1595   0.405   1.157   0.618 -1.8833 -0.0670 -2.2931
  532SOL    HW2 1596   0.309   1.108   0.755 -0.5524 -2.5362  0.3800
  533SOL     OW 1597   1.764   0.009   2.580  0.2560 -0.1857 -0.1115
  533SOL    HW1 1598   1.868   0.007   2.566 -0.0014  0.7632  0.7705
  533SOL    HW2 1599   1.740   0.089   2.637  1.5891 -3.8207 -1.5716
  534SOL     OW 1600   0.263   0.213   1.445  0.1871 -0.6373  0.1135
  534SOL    HW1 1601   0.355   0.208   1.397  0.9604  1.9427 -2.0768
  534SOL    HW2 1602   0.239   0.308   1.488  0.5744  2.3659  0.6420
  535SOL     OW 1603   1.890   0.381   0.216 -0.1105  0.0641  0.0062
  535SOL    HW1 1604   1.927   0.439   0.291  0.1115  2.3790 -5.5415
  535SOL    HW2 1605   1.815   0.316   0.247 -0.1578  1.9824 -1.0582
  536SOL     OW 1606   1.440   2.573   0.933  0.1701  0.0455  0.4282
  536SOL    HW1 1607   1.410   2.550   1.029 -0.0585  0.5366 -1.5477
  536SOL    HW2 1608   1.362   2.631   0.887  0.0307  0.6122  0.5649
  537SOL     OW 1609   0.812   0.163   2.344 -0.4713 -0.4836 -0.2697
  537SOL    HW1 1610   0.835   0.179   2.245  1.8120  1.4218  0.6506
  537SOL    HW2 1611   0.734   0.095   2.352 -0.9089 -0.3733 -0.7867
  538SOL     OW 1612   1.664   2.288   1.498  0.1454 -0.3436 -0.1622
  538SOL    HW1 1613   1.636   2.195   1.461  1.3448  0.4294  0.9952
  538SOL    HW2 1614   1.743   2.332   1.447 -1.3213 -4.6053 -2.1890
  539SOL     OW 1615   0.200   1.658   2.726 -0.6510 -0.1206  0.1786
  539SOL    HW1 1616   0.128   1.627   2.658 -1.1243 -0.9367 -1.4001
  539SOL    HW2 1617   0.178   1.751   2.763 -0.2740  2.0313  3.1018
  540SOL     OW 1618   2.719   1.704   1.980 -0.3471  0.1323 -0.0683
  540SOL    HW1 1619   2.653   1.620   1.969  0.0538 -2.7772  0.8574
  540SOL    HW2 1620   2.670   1.798   1.970 -0.0807  0.9216  3.4522
  541SOL     OW 1621   0.483   2.319   3.051  0.2694 -0.3412 -0.5341
  541SOL    HW1 1622   0.541   2.290   3.126 -2.2997  0.9223  0.2347
  541SOL    HW2 1623   0.381   2.289   3.053  0.5600 -0.8076  0.0881
  542SOL     OW 1624   2.252   2.568   0.409  0.3803  0.0568  0.0701
  542SOL    HW1 1625   2.241   2.669   0.400  0.9129 -0.7519 -1.0501
  542SOL    HW2 1626   2.170   2.518   0.448  0.3387 -1.2395  0.6512
  543SOL     OW 1627   1.021   1.700   1.659  0.8185 -0.1354  0.0709
  543SOL    HW1 1628   1.020   1.730   1.758 -3.0653 -0.8516 -0.3842
  543SOL    HW2 1629   1.034   1.781   1.589 -1.2878  0.1662 -1.0344
  544SOL     OW 1630   0.989   0.392   0.200 -0.1101  0.1767 -0.0570
  544SOL    HW1 1631   0.891   0.358   0.199  2.2909 -2.3185  1.1205
  544SOL    HW2 1632   1.029   0.374   0.109 -3.1291 -1.5962  2.4322
  545SOL     OW 1633   1.085   1.747   0.743  0.0331  0.6144  0.4574
  545SOL    HW1 1634   1.167   1.792   0.792  1.1686  1.1215  1.5257
  545SOL    HW2 1635   1.112   1.650   0.714 -0.2305 -2.1652  3.3413
  546SOL     OW 1636   2.619   1.554   3.063  0.5690  0.4097  0.2358
  546SOL    HW1 1637   2.596   1.590   2.971 -1.4156  1.1388  3.8532
  546SOL    HW2 1638   2.536   1.516   3.111 -3.6708 -0.3518  1.1801
  547SOL     OW 1639   0.562   0.050   2.673 -0.6455 -0.1587 -0.7372
  547SOL    HW1 1640   0.639  -0.018   2.685  2.5099 -3.9562 -0.1388
  547SOL    HW2 1641   0.477  -0.001   2.640  0.1051 -2.0098 -1.8305
  548SOL     OW 1642   2.033   0.838   3.036  0.5747 -0.1025 -0.4295
  548SOL    HW1 1643   1.936   0.812   3.015  2.7030  0.6329  1.3674
  548SOL    HW2 1644   2.044   0.936   3.063 -2.2087  0.4745  1.7245
  549SOL     OW 1645   0.663   0.576   0.200 -0.4244 -0.2073 -0.1091
  549SOL    HW1 1646   0.608   0.648   0.143  0.0211  0.5668  0.8522
  549SOL    HW2 1647   0.763   0.591   0.213  1.2390 -0.3381  0.3150
  550SOL     OW 1648   2.506   2.857   2.856  0.6167 -0.6654  0.0867
  550SOL    HW1 1649   2.476   2.798   2.937  2.3846 -0.2073  1.6473
  550SOL    HW2 1650   2.559   2.795   2.785 -1.7974 -3.3720  0.1868
  551SOL     OW 1651   0.289   0.856   0.219 -0.2758 -0.3816  0.0611
  551SOL    HW1 1652   0.382   0.813   0.220  0.3275 -0.4185  3.9163
  551SOL    HW2 1653   0.249   0.880   0.311  0.5507  1.6829 -2.1814
  552SOL     OW 1654   0.702   2.942   1.875 -0.5281  0.3250 -0.1886
  552SOL    HW1 1655   0.676   2.966   1.970  0.2742  1.5949 -1.7951
  552SOL    HW2 1656   0.791   2.983   1.832  1.4046  2.2339  0.8433
  553SOL     OW 1657   3.078   2.554   0.373 -0.4956  0.5183 -0.2550
  553SOL    HW1 1658   3.023   2.467   0.366 -1.8432  2.1783 -2.7158
  553SOL    HW2 1659   3.037   2.627   0.433 -1.7280  1.1465  0.6540
  554SOL     OW 1660   2.172   0.364   0.567 -0.0697 -0.4223 -0.2024
  554SOL    HW1 1661   2.241   0.344   0.493 -0.4702  1.1462 -0.2146
  554SOL    HW2 1662   2.161   0.289   0.638  0.0010  2.3308 -0.5485
  555SOL     OW 1663   0.434   2.932   2.495  0.0636  0.4209 -0.0915
  555SOL    HW1 1664   0.347   2.964   2.453  0.8172  2.7037  0.3465
  555SOL    HW2 1665   0.478   2.846   2.452 -1.0414 -0.0079  3.3871
  556SOL     OW 1666   0.836   2.392   1.552 -0.7750 -0.1147  0.0774
  556SOL    HW1 1667   0.869   2.474   1.604 -1.1422 -0.2638  0.7485
  556SOL    HW2 1668   0.907   2.352   1.486  0.1872  2.6208 -0.0788
  557SOL     OW 1669   0.092   2.074   0.157 -0.4380 -0.1531  0.0478
  557SOL    HW1 1670   0.025   1.997   0.142 -0.3103  1.6743  1.1618
  557SOL    HW2 1671   0.135   2.112   0.072  1.1602 -3.8244 -1.1268
  558SOL     OW 1672   2.921   2.339   0.286  0.3631 -0.2385  0.0352
  558SOL    HW1 1673   2.822   2.364   0.302 -0.4253 -1.4772 -2.3119
  558SOL    HW2 1674   2.942   2.326   0.184  1.8699  0.3218 -0.4339
  559SOL     OW 1675   0.368   2.312   1.352 -0.3322  0.3940  0.1868
  559SOL    HW1 1676   0.279   2.335   1.310  1.1840 -2.4086 -0.4200
  559SOL    HW2 1677   0.413   2.225   1.308  0.4308 -2.0049 -1.4019
  560SOL     OW 1678   2.073   1.124   3.070 -0.0641  0.0901 -0.2532
  560SOL    HW1 1679   2.014   1.174   3.140  0.5289  0.1909 -1.0153
  560SOL    HW2 1680   2.159   1.177   3.046  0.4073  1.8871  1.3595
  561SOL     OW 1681   3.004   1.881   0.045  0.2119 -0.0116 -0.1355
  561SOL    HW1 1682   2.961   1.817   0.113  0.5450  0.7800 -0.8689
  561SOL    HW2 1683   2.947   1.963   0.023  1.2382 -3.5935  0.5770
  562SOL     OW 1684   0.950   2.229   2.346 -0.1206 -0.0826  0.3823
  562SOL    HW1 1685   0.862   2.194   2.385  2.1003 -0.3474 -3.0944
  562SOL    HW2 1686   1.016   2.267   2.421  0.6564  2.5797  1.9808
  563SOL     OW 1687   0.719   2.518   2.586 -0.0617  0.8525 -0.0078
  563SOL    HW1 1688   0.756   2.428   2.629 -1.7876 -4.3744 -0.3425
  563SOL    HW2 1689   0.666   2.577   2.654 -0.0574 -1.6029  0.9345
  564SOL     OW 1690   2.776   1.321   2.924  0.1150 -0.0550  0.5438
  564SOL    HW1 1691   2.702   1.348   2.992 -1.5419  1.9746 -1.1947
  564SOL    HW2 1692   2.828   1.406   2.893  0.2964 -2.3559  0.9824
  565SOL     OW 1693   2.578   1.962   2.567  0.2894 -0.4953  0.3166
  565SOL    HW1 1694   2.545   2.032   2.501 -0.0635 -0.2799  1.0238
  565SOL    HW2 1695   2.623   2.003   2.651 -1.2526 -0.8655  0.5794
  566SOL     OW 1696   1.997   2.857   1.409 -0.7607 -0.0431 -0.2709
  566SOL    HW1 1697   1.958   2.760   1.406  1.3111  1.6003  2.0340
  566SOL    HW2 1698   1.991   2.904   1.314 -0.0017  1.3036 -2.3040
  567SOL     OW 1699   2.491   0.069   2.227  0.5380 -0.8112  0.6655
  567SOL    HW1 1700   2.527   0.137   2.159 -2.0258 -1.0276 -4.1201
  567SOL    HW2 1701   2.428  -0.005   2.184 -0.9990 -0.2198  2.8234
  568SOL     OW 1702   1.554   1.760   0.251  0.1349  0.0851  0.5255
  568SOL    HW1 1703   1.507   1.847   0.218 -1.7863 -0.0023  0.9073
  568SOL    HW2 1704   1.658   1.767   0.247  2.1441  0.9515  3.1775
  569SOL     OW 1705   0.301   0.662   0.834 -0.3248  0.3673 -0.9275
  569SOL    HW1 1706   0.353   0.588   0.790  0.7333  0.9027  1.3547
  569SOL    HW2 1707   0.213   0.632   0.871  0.3598 -0.7383 -2.6933
  570SOL     OW 1708   0.644   0.780   2.825 -0.6203  0.5754  0.0278
  570SOL    HW1 1709   0.671   0.785   2.724 -1.6050  2.2468  1.1693
  570SOL    HW2 1710   0.655   0.862   2.886  2.2143 -0.0793  2.3352
  571SOL     OW 1711   0.771   3.064   1.045 -0.0540  0.0863  0.0507
  571SOL    HW1 1712   0.839   3.094   0.976 -2.9601  2.2566  0.6045
  571SOL    HW2 1713   0.779   2.962   1.069 -1.6350 -0.2554 -1.3528
  572SOL     OW 1714   1.593   2.621   1.226 -0.0315  0.2333  0.3180
  572SOL    HW1 1715   1.508   2.561   1.239  0.6549  0.6906 -0.5081
  572SOL    HW2 1716   1.572   2.721   1.226 -0.0515 -2.3155 -0.0365
  573SOL     OW 1717   2.917   0.433   2.017 -0.4348  0.4094 -0.1108
  573SOL    HW1 1718   2.863   0.346   2.038 -1.5197  1.4040  2.9495
  573SOL    HW2 1719   2.860   0.502   1.963  0.5461 -0.6357  1.1479
  574SOL     OW 1720   0.216   1.719   0.995  0.0587  0.1733  0.1892
  574SOL    HW1 1721   0.216   1.823   0.982 -3.3731  0.2202 -0.7664
  574SOL    HW2 1722   0.144   1.690   1.066 -0.6217  0.5276 -0.7335
  575SOL     OW 1723   0.949   2.116   0.992  0.5237  0.5079 -0.1564
  575SOL    HW1 1724   0.893   2.177   1.056  0.9171  1.3160 -1.8509
  575SOL    HW2 1725   1.011   2.172   0.931  0.3801 -0.8198  0.0544
  576SOL     OW 1726   2.881   2.973   1.654 -0.3483  0.1444  0.2644
  576SOL    HW1 1727   2.802   2.956   1.593  0.4831  0.7157  0.3482
  576SOL    HW2 1728   2.931   3.060   1.641 -1.4190 -0.8015 -2.0785
  577SOL     OW 1729   2.524   1.227   0.008 -0.3466  0.1164  0.4311
  577SOL    HW1 1730   2.559   1.154  -0.054  1.1419  0.2705 -0.2797
  577SOL    HW2 1731   2.587   1.231   0.094  1.7016 -0.5575  0.0771
  578SOL     OW 1732   1.349   2.735   2.534  0.1936  0.2152 -0.5843
  578SOL    HW1 1733   1.258   2.779   2.505 -1.0479 -0.5936  1.6815
  578SOL    HW2 1734   1.427   2.802   2.515 -4.2521  4.1235  1.2386
  579SOL     OW 1735   0.093   2.496   0.116 -0.2377  0.0080  0.3081
  579SOL    HW1 1736   0.057   2.520   0.214 -1.4908  1.6355  0.2907
  579SOL    HW2 1737   0.183   2.446   0.115  1.6153  1.0126  0.1299
  580SOL     OW 1738   1.039   2.654   0.434  0.7561 -0.4415 -0.1497
  580SOL    HW1 1739   1.124   2.670   0.382 -0.3195  1.0301 -0.9798
  580SOL    HW2 1740   0.961   2.606   0.377 -1.0934  0.0052  0.8687
  581SOL     OW 1741   1.278   2.582   1.515  0.0078  0.0802 -0.2205
  581SOL    HW1 1742   1.333   2.493   1.527  0.1994 -2.1183  0.1301
  581SOL    HW2 1743   1.319   2.657   1.454  0.9570  2.6208  2.8720
  582SOL     OW 1744   1.498   0.086   1.823 -0.2398  0.0168  0.3787
  582SOL    HW1 1745   1.509   0.152   1.901  0.3148  0.5027  0.7341
  582SOL    HW2 1746   1.589   0.089   1.771  0.3271  1.0672  0.6423
  583SOL     OW 1747   2.517   3.024   0.501 -0.3692  0.3664  0.2912
  583SOL    HW1 1748   2.537   2.957   0.427  0.4122  0.1474  1.0562
  583SOL    HW2 1749   2.434   2.980   0.559 -2.3341 -0.3794 -0.0148
  584SOL     OW 1750   1.624   0.940   2.100  0.5968 -0.4522 -0.0742
  584SOL    HW1 1751   1.665   1.032   2.085 -0.7328  1.4350  2.2148
  584SOL    HW2 1752   1.667   0.890   2.184 -0.1254  2.4661  0.6656
  585SOL     OW 1753   2.098   2.671   2.959  0.4008 -0.3676 -0.4898
  585SOL    HW1 1754   2.145   2.585   2.921 -4.1428  0.4427  0.2198
  585SOL    HW2 1755   1.996   2.668   2.946 -1.2964 -1.4315  1.7175
  586SOL     OW 1756   2.757   0.280   1.547 -0.0124  0.3280  0.4159
  586SOL    HW1 1757   2.768   0.374   1.596  2.4102  2.4059  0.0671
  586SOL    HW2 1758   2.665   0.231   1.568  1.8643 -0.8870  1.6760
  587SOL     OW 1759   1.923   1.526   2.748  0.4778 -0.2507 -0.2551
  587SOL    HW1 1760   1.992   1.481   2.685  2.5336  1.2213 -1.5657
  587SOL    HW2 1761   1.964   1.552   2.842  1.7682 -0.0867  1.6824
  588SOL     OW 1762   0.470   2.737   2.263 -0.3689 -0.3618 -0.2306
  588SOL    HW1 1763   0.391   2.756   2.201  1.8717  1.3158 -0.8288
  588SOL    HW2 1764   0.481   2.634   2.293 -0.6748 -0.8555 -2.2414
  589SOL     OW 1765   2.106   1.410   2.550  0.2135  0.0758 -0.0265
  589SOL    HW1 1766   2.037   1.381   2.475 -1.4977 -2.8358  1.5772
  589SOL    HW2 1767   2.183   1.342   2.561  1.0462 -1.8987 -0.4916
  590SOL     OW 1768   2.340   1.652   2.052 -0.2190  0.3854  0.2933
  590SOL    HW1 1769   2.422   1.591   2.036 -1.2180 -0.9298 -0.0076
  590SOL    HW2 1770   2.336   1.704   2.143 -0.0208  1.7685  0.2602
  591SOL     OW 1771   1.327   2.394   0.257  0.2253  0.0185  0.1312
  591SOL    HW1 1772   1.386   2.320   0.217  0.7217 -0.6764  0.7328
  591SOL    HW2 1773   1.323   2.387   0.362 -0.5596 -1.4785  0.6607
  592SOL     OW 1774   1.767   2.312   0.779  0.1810  0.0792  0.6363
  592SOL    HW1 1775   1.736   2.373   0.704  0.1825 -0.4797  1.8521
  592SOL    HW2 1776   1.868   2.282   0.764 -0.3345 -0.8943 -1.9011
  593SOL     OW 1777   0.694   0.300   0.138  0.3930 -0.4745  0.6901
  593SOL    HW1 1778   0.721   0.250   0.051  0.3532  1.8767 -0.4589
  593SOL    HW2 1779   0.693   0.406   0.124  0.6036 -1.4482  1.2368
  594SOL     OW 1780   0.941   1.835   2.719 -0.3004  0.1479  0.0487
  594SOL    HW1 1781   1.044   1.823   2.715 -3.0698 -0.7426 -0.8974
  594SOL    HW2 1782   0.912   1.922   2.775  1.3629  0.8750  0.9618
  595SOL     OW 1783   1.543   0.075   1.039 -0.7266 -0.3720  0.0364
  595SOL    HW1 1784   1.619   0.003   1.054  0.0862 -0.1501  0.7719
  595SOL    HW2 1785   1.476   0.041   0.969  2.0370  0.1560 -1.1341
  596SOL     OW 1786   3.091   1.461   2.258  0.5327 -0.3169 -0.4477
  596SOL    HW1 1787   2.992   1.435   2.258  2.7528 -0.9390  0.3672
  596SOL    HW2 1788   3.118   1.551   2.307 -0.8250  0.5487 -0.4046
  597SOL     OW 1789   2.036   2.553   1.612 -0.3707 -0.1766  0.4391
  597SOL    HW1 1790   2.040   2.473   1.551  1.3317  1.3393  0.6159
  597SOL    HW2 1791   2.118   2.572   1.669  1.0973  2.0763  2.2779
  598SOL     OW 1792   2.515   2.975   1.322  0.2228  0.1752 -0.0051
  598SOL    HW1 1793   2.599   3.009   1.369 -0.2634 -0.6030  1.5466
  598SOL    HW2 1794   2.537   2.935   1.229  0.7240  0.9389  0.0362
  599SOL     OW 1795   2.948   0.393   2.497  0.1190 -0.2054  0.1588
  599SOL    HW1 1796   3.029   0.446   2.456 -0.2536 -3.5029 -0.7136
  599SOL    HW2 1797   2.858   0.437   2.464  1.7346  1.4578 -3.0542
  600SOL     OW 1798   2.754   1.124   2.683 -0.1376 -0.4170  0.3287
  600SOL    HW1 1799   2.731   1.026   2.702 -1.6798  2.1851 -0.8133
  600SOL    HW2 1800   2.732   1.189   2.759  1.3836 -1.6959 -1.3735
  601SOL     OW 1801   2.966   1.276   1.925 -0.3126  0.2348  0.1837
  601SOL    HW1 1802   2.900   1.308   1.852  0.0640 -1.4215 -0.7285
  601SOL    HW2 1803   3.041   1.342   1.941 -0.5088 -0.3563  2.0380
  602SOL     OW 1804   1.420   1.711   2.341 -0.1168  0.3888  0.8077
  602SOL    HW1 1805   1.363   1.624   2.335  0.7186 -2.9800  0.3148
  602SOL    HW2 1806   1.511   1.691   2.392  0.1183  0.6215  1.9370
  603SOL     OW 1807   0.608   1.218   2.738 -0.4303 -0.4466  0.6438
  603SOL    HW1 1808   0.531   1.212   2.671 -0.3351  4.3163 -0.2359
  603SOL    HW2 1809   0.684   1.151   2.717 -3.2399 -0.0293 -1.2742
  604SOL     OW 1810   2.385   1.007   0.149 -0.1741  0.0923 -0.1038
  604SOL    HW1 1811   2.438   1.056   0.075 -2.3707 -1.3729  1.2444
  604SOL    HW2 1812   2.350   0.918   0.105 -1.0392 -1.3978 -0.8833
  605SOL     OW 1813   2.552   1.171   1.879 -0.1289  0.1049 -0.1003
  605SOL    HW1 1814   2.554   1.071   1.853  3.2471  0.1906 -0.0776
  605SOL    HW2 1815   2.601   1.195   1.972  0.6956 -0.6670  3.4649
  606SOL     OW 1816   1.473   2.501   2.613 -0.5139  0.4455 -0.3517
  606SOL    HW1 1817   1.412   2.579   2.582  0.0852  2.4541 -2.2045
  606SOL    HW2 1818   1.454   2.417   2.556  0.1533  2.4633 -1.2245
  607SOL     OW 1819   1.385   1.633   0.427 -0.2852 -0.4789 -0.6213
  607SOL    HW1 1820   1.287   1.674   0.420 -0.4108  1.4350 -0.4490
  607SOL    HW2 1821   1.450   1.687   0.366  0.0721 -1.7179 -2.1482
  608SOL     OW 1822   1.461   2.860   0.370 -0.4150 -0.7045 -0.7001
  608SOL    HW1 1823   1.543   2.919   0.342 -0.6366  0.0421  2.4962
  608SOL    HW2 1824   1.388   2.910   0.424  0.1857 -1.8170 -0.0398
  609SOL     OW 1825   1.346   1.400   0.258  0.5575 -0.3969 -0.2418
  609SOL    HW1 1826   1.348   1.486   0.319  0.8899  3.8874  1.7207
  609SOL    HW2 1827   1.266   1.403   0.196  0.8792  1.1906  0.8100
  610SOL     OW 1828   3.021   1.138   2.178  0.2966 -0.0473 -0.5188
  610SOL    HW1 1829   3.007   1.034   2.181 -1.1536 -1.9321  0.1298
  610SOL    HW2 1830   2.949   1.182   2.121  1.3385  0.3103 -2.1084
  611SOL     OW 1831   2.597   0.290   1.113 -0.4956 -0.2660 -0.1167
  611SOL    HW1 1832   2.530   0.234   1.169 -0.8418  0.6992 -0.2967
  611SOL    HW2 1833   2.687   0.314   1.162 -1.0224 -1.5305  0.0810
  612SOL     OW 1834   0.769   2.244   1.184  0.0298 -0.2443  0.0624
  612SOL    HW1 1835   0.697   2.200   1.247  1.8741  0.2802 -0.9567
  612SOL    HW2 1836   0.744   2.340   1.151 -0.5525 -1.0435 -0.7958
  613SOL     OW 1837   0.793   1.400   2.423 -0.0230 -0.9257  0.0593
  613SOL    HW1 1838   0.822   1.459   2.341  0.4064  1.4093  0.2048
  613SOL    HW2 1839   0.712   1.343   2.402  0.3763 -1.4005 -1.3510
  614SOL     OW 1840   1.571   1.641   1.965 -0.0493 -0.6905  0.0218
  614SOL    HW1 1841   1.518   1.721   2.001  0.7755  0.1594 -0.7069
  614SOL    HW2 1842   1.661   1.632   2.016 -1.0469  0.0470  1.3134
  615SOL     OW 1843   0.773   1.315   1.712 -0.4105 -0.0467  0.0801
  615SOL    HW1 1844   0.685   1.276   1.664  0.2324  0.1504 -3.4413
  615SOL    HW2 1845   0.828   1.372   1.644 -3.5216  0.9964  0.2274
  616SOL     OW 1846   1.072   1.651   2.283 -0.3775  0.6270 -0.9741
  616SOL    HW1 1847   0.977   1.617   2.253  2.0587  2.5750 -4.1618
  616SOL    HW2 1848   1.090   1.744   2.243  0.7502 -1.9675  1.7254
  617SOL     OW 1849   2.943   1.559   1.604 -0.0879  0.1517  0.2714
  617SOL    HW1 1850   2.881   1.492   1.647 -0.3432  1.6684 -1.2395
  617SOL    HW2 1851   2.964   1.533   1.503  3.2615  0.4993 -0.7405
  618SOL     OW 1852   1.907   1.994   1.384 -0.4010 -0.1593 -0.0038
  618SOL    HW1 1853   1.914   2.024   1.282 -0.2194 -0.3582 -1.3799
  618SOL    HW2 1854   1.897   1.891   1.395 -4.4297  1.0429  0.6071
  619SOL     OW 1855   1.783   0.448   2.382  0.2531 -0.0846  0.1094
  619SOL    HW1 1856   1.700   0.492   2.333 -0.9177  0.1502  2.3541
  619SOL    HW2 1857   1.756   0.349   2.394  1.1714 -0.4997 -2.6318
  620SOL     OW 1858   2.327   2.928   0.648  0.0213 -0.4689 -0.4691
  620SOL    HW1 1859   2.237   2.964   0.631  1.9973 -0.3192 -0.4224
  620SOL    HW2 1860   2.333   2.850   0.722  1.0154  0.7155  0.1408
  621SOL     OW 1861   2.166   1.803   1.293 -0.1639  0.5161 -0.3293
  621SOL    HW1 1862   2.164   1.834   1.389 -3.4765  4.1418  0.1382
  621SOL    HW2 1863   2.103   1.719   1.278  1.0683 -0.6264  1.5525
  622SOL     OW 1864   2.284   0.899   1.784  0.3013 -0.2627 -0.2025
  622SOL    HW1 1865   2.384   0.889   1.764 -2.2725 -0.5086  0.8872
  622SOL    HW2 1866   2.252   0.836   1.859  1.0203 -1.9427 -0.2858
  623SOL     OW 1867   1.326   0.828   2.599  0.2384  0.0336  0.6769
  623SOL    HW1 1868   1.303   0.736   2.635  0.4635  0.1565 -1.2836
  623SOL    HW2 1869   1.268   0.860   2.519 -0.7903 -1.9302  1.3411
  624SOL     OW 1870   0.541   0.707   3.091  0.8554  0.2870  0.7412
  624SOL    HW1 1871   0.578   0.695   2.991  3.9230  0.1926  0.8450
  624SOL    HW2 1872   0.572   0.794   3.131  0.6971 -1.5902 -0.5874
  625SOL     OW 1873   2.796   1.705   1.045  0.4304  0.7263  0.1099
  625SOL    HW1 1874   2.698   1.736   1.019 -2.1092  1.6748  0.6448
  625SOL    HW2 1875   2.863   1.784   1.047 -1.3286  0.6243  0.2148
  626SOL     OW 1876   0.577   2.715   1.713 -0.0141  0.7185 -0.2465
  626SOL    HW1 1877   0.608   2.804   1.758  0.9993 -0.3714  0.7398
  626SOL    HW2 1878   0.475   2.696   1.731  1.3471 -0.2153 -2.0113
  627SOL     OW 1879   0.735   0.961   1.493  0.5000 -0.5731 -0.8572
  627SOL    HW1 1880   0.684   0.903   1.425  1.0707 -2.2886 -0.7058
  627SOL    HW2 1881   0.819   1.008   1.453 -1.3489 -2.3717 -0.2353
  628SOL     OW 1882   2.479   0.139   0.686 -0.7490  0.2474  0.1135
  628SOL    HW1 1883   2.518   0.079   0.609 -2.3123 -1.5840 -0.7148
  628SOL    HW2 1884   2.380   0.134   0.690  1.7142 -1.6153 -3.1515
  629SOL     OW 1885   1.991   0.932   1.986 -0.5334 -0.1224 -0.1734
  629SOL    HW1 1886   1.993   0.973   1.888  1.3632  1.6004 -0.6652
  629SOL    HW2 1887   1.966   1.008   2.054  1.6867  1.3580 -0.7714
  630SOL     OW 1888   2.927   2.268   0.832 -0.2993 -1.4735  0.2747
  630SOL    HW1 1889   2.861   2.331   0.883  1.8537 -0.8523  3.1001
  630SOL    HW2 1890   2.882   2.188   0.779  1.0617 -3.2233 -1.0611
  631SOL     OW 1891   3.019   0.134   2.120 -0.5505 -0.0335 -0.1878
  631SOL    HW1 1892   3.085   0.172   2.193  2.1503  0.1042 -0.6664
  631SOL    HW2 1893   3.043   0.164   2.027  0.3835 -1.3820  2.9257
  632SOL     OW 1894   2.410   2.547   0.649  0.1009 -0.8817  0.0272
  632SOL    HW1 1895   2.378   2.619   0.713 -2.7019  0.2543  1.1999
  632SOL    HW2 1896   2.375   2.564   0.551  0.3220 -0.5042 -2.5843
  633SOL     OW 1897   1.400   1.204   2.661  0.3842 -0.3323  0.1431
  633SOL    HW1 1898   1.413   1.295   2.710  1.3903  0.1242 -1.8414
  633SOL    HW2 1899   1.343   1.223   2.572 -1.1281  0.5913 -0.6686
  634SOL     OW 1900   0.689   2.047   0.871  0.7342 -0.1442 -0.3255
  634SOL    HW1 1901   0.615   2.066   0.941 -0.2368 -1.8285 -1.2610
  634SOL    HW2 1902   0.786   2.057   0.909 -0.1031 -0.1429 -0.0324
  635SOL     OW 1903   2.973   2.343   0.015 -0.1164  0.2970 -0.2376
  635SOL    HW1 1904   2.901   2.409  -0.023  1.6254  0.4854  0.0768
  635SOL    HW2 1905   3.071   2.382   0.006  1.2307  0.5451  0.6084
  636SOL     OW 1906   2.337   2.744   2.003 -0.1993 -0.0776  0.5839
  636SOL    HW1 1907   2.312   2.843   2.001  0.6629 -0.0193  0.5163
  636SOL    HW2 1908   2.288   2.686   2.078 -1.3283 -0.2291 -0.1559
  637SOL     OW 1909   2.665   0.608   1.961 -0.2375  0.8052 -0.1104
  637SOL    HW1 1910   2.590   0.602   1.888 -2.4076 -0.9394 -1.3633
  637SOL    HW2 1911   2.703   0.707   1.972 -1.9668 -0.6663 -0.1146
  638SOL     OW 1912   2.439   1.827   1.264  0.9655  0.0737 -0.1912
  638SOL    HW1 1913   2.334   1.827   1.267 -1.4251 -0.6800 -0.0337
  638SOL    HW2 1914   2.479   1.769   1.342  1.2548  0.0536 -0.3233
  639SOL     OW 1915   1.273   2.063   1.701  0.2685 -0.0810 -0.6930
  639SOL    HW1 1916   1.296   2.146   1.646  0.7371  1.6370  0.8455
  639SOL    HW2 1917   1.175   2.067   1.742 -1.0465  0.0680  0.5300
  640SOL     OW 1918   0.184   1.157   1.573 -0.3731 -0.0948  0.1356
  640SOL    HW1 1919   0.169   1.204   1.663 -3.0921  0.9978  0.8082
  640SOL    HW2 1920   0.275   1.109   1.561  1.8650 -2.0583  1.7260
  641SOL     OW 1921   2.011   0.209   1.555  0.3191 -1.0222 -0.0239
  641SOL    HW1 1922   1.982   0.189   1.655 -1.3263  2.0747  1.2140
  641SOL    HW2 1923   2.111   0.181   1.541 -0.5309 -0.6727  3.0877
  642SOL     OW 1924   2.014   3.076   0.336  0.0282  0.0173  0.6661
  642SOL    HW1 1925   2.099   3.125   0.371 -0.2822  1.5993 -0.5501
  642SOL    HW2 1926   1.968   3.014   0.406  1.2628 -2.8986 -0.2451
  643SOL     OW 1927   2.932   1.811   2.128  0.6162  0.3427 -0.7540
  643SOL    HW1 1928   2.870   1.749   2.074 -1.2299  0.7136  0.9578
  643SOL    HW2 1929   2.960   1.899   2.079 -1.6209  0.0409 -1.1322
  644SOL     OW 1930   2.205   2.356   1.168  0.3849 -0.1636 -0.2379
  644SOL    HW1 1931   2.296   2.302   1.155 -0.5345 -0.9238  0.8444
  644SOL    HW2 1932   2.166   2.343   1.266  1.3581  3.0793  1.2865
  645SOL     OW 1933   0.610   0.835   1.275 -0.0658  0.2851 -0.0945
  645SOL    HW1 1934   0.511   0.838   1.305  1.1532  3.0992  0.4625
  645SOL    HW2 1935   0.634   0.887   1.194  0.1157  0.1800  1.8251
  646SOL     OW 1936   1.440   1.827   2.098  0.2271  0.4938 -0.1538
  646SOL    HW1 1937   1.490   1.918   2.094 -2.4696  2.0065 -3.0331
  646SOL    HW2 1938   1.424   1.797   2.196  2.0427  1.5417  0.3499
  647SOL     OW 1939   0.776   1.047   0.713 -0.6119 -0.1798 -0.0013
  647SOL    HW1 1940   0.832   1.102   0.787  0.9977  1.1501  0.8159
  647SOL    HW2 1941   0.702   0.983   0.754 -0.4056 -3.7356  3.8895
  648SOL     OW 1942   0.090   0.245   0.267 -0.3472 -0.4299 -0.5064
  648SOL    HW1 1943   0.149   0.230   0.182  1.6355  0.3519  2.1687
  648SOL    HW2 1944   0.081   0.352   0.283 -0.4690  2.6391  2.8492
  649SOL     OW 1945   3.009   0.238   0.821  0.1060  0.6347 -0.3480
  649SOL    HW1 1946   3.093   0.187   0.853 -0.8826  0.4751 -4.4874
  649SOL    HW2 1947   3.005   0.330   0.867 -0.3298 -2.0352  1.2425
  650SOL     OW 1948   2.769   0.723   1.526  0.1391  0.2932  0.3336
  650SOL    HW1 1949   2.666   0.714   1.517  2.1049 -1.8041 -2.0639
  650SOL    HW2 1950   2.803   0.786   1.451  0.9887 -1.4616  0.3959
  651SOL     OW 1951   0.880   1.505   1.551 -0.7976  0.5846  0.0433
  651SOL    HW1 1952   0.935   1.576   1.603 -1.2974  1.1670  3.3062
  651SOL    HW2 1953   0.917   1.493   1.453 -1.7548 -0.3998  0.4117
  652SOL     OW 1954   2.338   2.409   2.440 -0.5481  0.9901  0.4748
  652SOL    HW1 1955   2.245   2.439   2.475  0.7962  0.0136  2.9768
  652SOL    HW2 1956   2.385   2.487   2.391 -1.2391 -0.2081  0.7630
  653SOL     OW 1957   2.691   1.233   0.243  0.1925 -0.0986 -0.0662
  653SOL    HW1 1958   2.709   1.316   0.300 -1.3899  1.8054 -1.2960
  653SOL    HW2 1959   2.759   1.160   0.257  1.3428  1.8786  2.8702
  654SOL     OW 1960   1.225   2.236   1.244 -0.0396  0.2772  0.0206
  654SOL    HW1 1961   1.258   2.174   1.319  1.1209 -0.3952 -0.3932
  654SOL    HW2 1962   1.264   2.215   1.148 -1.3216  0.2337  1.0855
  655SOL     OW 1963   0.172   0.927   1.897  0.0813  0.1484  0.7502
  655SOL    HW1 1964   0.231   0.876   1.830  3.3340  0.5374  2.0843
  655SOL    HW2 1965   0.196   1.028   1.903  1.0380 -1.6021  0.6941
  656SOL     OW 1966   2.575   2.443   2.614  0.2145 -0.4518  0.2863
  656SOL    HW1 1967   2.663   2.445   2.565 -1.4813 -0.2098 -1.5547
  656SOL    HW2 1968   2.507   2.381   2.565  1.4685  2.1832 -0.5148
  657SOL     OW 1969   2.987   0.999   1.904  0.5034  0.1793 -0.0181
  657SOL    HW1 1970   2.988   1.103   1.913 -0.1821  2.5252 -1.7008
  657SOL    HW2 1971   3.085   0.967   1.901 -1.6179 -1.1580 -0.0888
  658SOL     OW 1972   1.652   0.166   2.377 -0.8771 -0.0737 -0.0010
  658SOL    HW1 1973   1.684   0.091   2.446  0.4631 -1.1478  0.7874
  658SOL    HW2 1974   1.689   0.155   2.281 -0.1960  0.2166  1.2066
  659SOL     OW 1975   1.395   0.621   2.831  0.0636  0.0707 -0.1725
  659SOL    HW1 1976   1.452   0.704   2.859  2.2444 -1.2271  0.4398
  659SOL    HW2 1977   1.297   0.621   2.868  2.7909 -1.0116  0.7504
  660SOL     OW 1978   1.398   0.318   1.417  0.3234  0.2015 -0.3153
  660SOL    HW1 1979   1.394   0.371   1.506  1.6492 -0.6123 -3.4768
  660SOL    HW2 1980   1.489   0.267   1.413  0.7129  2.5300 -1.0570
  661SOL     OW 1981   2.355   1.191   0.661  0.5470 -0.2044 -0.3094
  661SOL    HW1 1982   2.396   1.204   0.569 -0.0366 -1.8891  1.2293
  661SOL    HW2 1983   2.360   1.277   0.718  0.0570  1.7570  0.2550
  662SOL     OW 1984   1.396   0.369   1.722  0.3165 -0.0068  0.1592
  662SOL    HW1 1985   1.333   0.287   1.714  2.1465  0.1524 -3.2251
  662SOL    HW2 1986   1.382   0.430   1.804 -0.5569 -1.3186  1.0891
  663SOL     OW 1987   0.804   1.551   2.200 -0.4316 -0.0583  0.4099
  663SOL    HW1 1988   0.733   1.625   2.243  0.2720  0.6573 -1.3370
  663SOL    HW2 1989   0.772   1.500   2.110 -3.3882 -1.6530 -3.2811
  664SOL     OW 1990   1.620   2.046   1.390  0.5122  0.3120  0.2437
  664SOL    HW1 1991   1.563   1.995   1.458 -0.6368  0.5938  0.2073
  664SOL    HW2 1992   1.725   2.025   1.403  1.3762 -0.0822  1.1678
  665SOL     OW 1993   2.240   0.690   1.972 -0.3304  0.3500 -0.8933
  665SOL    HW1 1994   2.153   0.741   1.990  0.5107 -1.8111 -1.6524
  665SOL    HW2 1995   2.297   0.665   2.060  0.3438 -0.4896 -0.9824
  666SOL     OW 1996   0.432   2.332   0.304 -0.2572 -0.8036  0.3604
  666SOL    HW1 1997   0.497   2.340   0.383 -0.9310  3.2684 -1.5072
  666SOL    HW2 1998   0.341   2.287   0.335  0.6305 -1.1420  1.6047
  667SOL     OW 1999   2.078   0.188   1.155  0.1648 -0.1082  0.5929
  667SOL    HW1 2000   2.094   0.287   1.132  0.7130 -1.3883 -1.0554
  667SOL    HW2 2001   1.988   0.165   1.200  1.8194 -1.4294  1.8398
  668SOL     OW 2002   2.057   0.473   1.112 -0.0294  0.3715  0.1032
  668SOL    HW1 2003   2.111   0.506   1.031 -0.6359  0.5792  0.6935
  668SOL    HW2 2004   2.102   0.485   1.199 -1.3965 -1.0751 -2.1197
  669SOL     OW 2005   3.070   2.135   1.014  0.2507 -0.4419  0.0005
  669SOL    HW1 2006   3.018   2.192   0.945  0.0780  2.6455 -2.4152
  669SOL    HW2 2007   3.135   2.186   1.077  2.0199 -0.5919 -1.2101
  670SOL     OW 2008   2.864   2.339   2.057 -0.5247  0.1101 -0.2772
  670SOL    HW1 2009   2.791   2.317   2.129  1.1174 -1.4785  0.4284
  670SOL    HW2 2010   2.855   2.437   2.022  0.8326  5.1179 -0.1729
  671SOL     OW 2011   1.713   1.782   1.478 -0.3099  0.1117  0.7306
  671SOL    HW1 2012   1.704   1.742   1.380  0.3612  0.5806 -0.0878
  671SOL    HW2 2013   1.623   1.820   1.515 -2.8864  0.0204 -0.9665
  672SOL     OW 2014   0.435   0.615   2.359 -0.2555  0.4869  0.2764
  672SOL    HW1 2015   0.483   0.641   2.267  0.9646 -0.8868 -0.5059
  672SOL    HW2 2016   0.349   0.669   2.371  1.8568  2.0400 -1.2225
  673SOL     OW 2017   0.137   1.226   1.135  0.0134  0.2902 -0.3616
  673SOL    HW1 2018   0.166   1.278   1.219  0.8465  0.9309 -0.9375
  673SOL    HW2 2019   0.217   1.162   1.104 -0.4439 -0.9214 -0.8431
  674SOL     OW 2020   1.701   2.983   0.282  0.6711 -0.0853 -0.7529
  674SOL    HW1 2021   1.681   3.085   0.288  2.8715  0.3239 -2.1960
  674SOL    HW2 2022   1.774   2.960   0.213 -0.8383 -0.4452  1.6819
  675SOL     OW 2023   1.712   0.806   2.320 -0.2142  0.0161  0.5030
  675SOL    HW1 2024   1.812   0.795   2.323 -2.3793 -1.1043 -0.4723
  675SOL    HW2 2025   1.659   0.714   2.316  0.6509 -1.1327  3.6651
  676SOL     OW 2026   2.562   1.489   1.927  0.3824 -0.1037 -0.1110
  676SOL    HW1 2027   2.498   1.452   1.848 -1.8160 -0.9783 -0.6787
  676SOL    HW2 2028   2.568   1.421   2.001 -0.4016  2.8703  2.9300
  677SOL     OW 2029   1.899   0.655   0.913 -0.2799  0.0207 -0.3184
  677SOL    HW1 2030   1.819   0.681   0.966  1.7617 -0.4110 -0.7742
  677SOL    HW2 2031   1.891   0.560   0.874  0.5991  1.1339  0.1739
  678SOL     OW 2032   0.056   0.755   1.634 -0.5357  0.4501 -0.0014
  678SOL    HW1 2033   0.158   0.770   1.660 -0.8435 -1.0266  0.6807
  678SOL    HW2 2034  -0.004   0.724   1.710 -1.5477 -0.6063 -0.0367
  679SOL     OW 2035   2.512   1.227   1.183 -0.0191  0.4898 -0.5334
  679SOL    HW1 2036   2.415   1.259   1.200  1.6320  1.7261  1.0492
  679SOL    HW2 2037   2.522   1.122   1.176  3.9954 -1.8345 -0.1960
  680SOL     OW 2038   2.804   0.513   1.693  0.3276  0.0613  0.0711
  680SOL    HW1 2039   2.784   0.590   1.627 -0.2726  1.9951 -0.6554
  680SOL    HW2 2040   2.856   0.557   1.768 -1.6973  1.7155 -2.1304
  681SOL     OW 2041   3.006   0.136   1.610  0.5908  0.2976  0.5133
  681SOL    HW1 2042   3.065   0.132   1.530 -2.4805  4.0350  2.1859
  681SOL    HW2 2043   2.920   0.187   1.574  1.6366 -1.2958 -0.4191
  682SOL     OW 2044   0.781   0.018   1.337  0.3566 -0.5061 -0.0304
  682SOL    HW1 2045   0.691   0.004   1.387  0.8060 -0.1390 -2.6677
  682SOL    HW2 2046   0.764   0.005   1.235 -2.4921 -2.1783  2.5585
  683SOL     OW 2047   1.357   0.231   2.174  0.3014  0.3606 -0.0008
  683SOL    HW1 2048   1.355   0.277   2.268 -1.7794 -1.9681  0.5308
  683SOL    HW2 2049   1.438   0.248   2.109 -2.9385  3.0348 -4.3122
  684SOL     OW 2050   1.459   2.091   0.464  0.0168 -0.1466 -0.0277
  684SOL    HW1 2051   1.514   2.026   0.526 -1.7377 -1.2018  0.4111
  684SOL    HW2 2052   1.367   2.051   0.436  0.6008  2.9784  3.7536
  685SOL     OW 2053   2.176   2.064   1.926  0.0793 -0.6623  0.3657
  685SOL    HW1 2054   2.241   2.080   1.849  1.1268  3.1415 -1.8144
  685SOL    HW2 2055   2.219   2.045   2.022  1.8258  0.8173  0.4153
  686SOL     OW 2056   1.481   1.829   2.734 -0.2120 -0.4869 -0.2953
  686SOL    HW1 2057   1.528   1.769   2.807  2.6670 -0.1163 -0.3124
  686SOL    HW2 2058   1.472   1.787   2.639  1.6585  1.7987 -1.7177
  687SOL     OW 2059   1.320   2.476   1.942 -0.3873 -0.0143  0.1582
  687SOL    HW1 2060   1.340   2.375   1.933  0.5698  3.7348 -1.4896
  687SOL    HW2 2061   1.361   2.514   2.032 -1.5925 -0.1286  1.4424
  688SOL     OW 2062   2.026   1.499   1.799  0.4179  0.2541  0.4958
  688SOL    HW1 2063   2.055   1.592   1.828 -0.1947 -1.8992  0.6071
  688SOL    HW2 2064   2.075   1.454   1.718  1.7760 -0.1935  1.6738
  689SOL     OW 2065   2.354   1.083   2.747 -0.3247 -0.0994  0.3425
  689SOL    HW1 2066   2.258   1.064   2.785 -1.7115  0.7418 -1.7458
  689SOL    HW2 2067   2.424   1.062   2.824 -0.3058  0.9446  1.6866
  690SOL     OW 2068   2.214   2.776   0.078 -0.2015 -0.1994  0.0550
  690SOL    HW1 2069   2.150   2.733   0.014 -1.3206 -0.8071  3.0607
  690SOL    HW2 2070   2.172   2.790   0.172  0.2966  2.3555 -2.1916
  691SOL     OW 2071   2.584   0.422   2.167 -0.0148  0.3309  0.6526
  691SOL    HW1 2072   2.651   0.343   2.141 -0.5166 -1.4693 -3.0190
  691SOL    HW2 2073   2.594   0.503   2.097  2.4072 -2.4959  0.9040
  692SOL     OW 2074   2.716   1.256   0.737  0.4661 -0.6176 -0.3907
  692SOL    HW1 2075   2.690   1.290   0.645 -2.8648  0.4459  0.1899
  692SOL    HW2 2076   2.762   1.333   0.796 -0.2812 -0.6704  1.5224
  693SOL     OW 2077   2.850   2.941   0.636  0.3984  0.0775 -0.1159
  693SOL    HW1 2078   2.839   3.014   0.708  0.7620  1.4319 -2.7047
  693SOL    HW2 2079   2.840   2.977   0.541 -1.1695  1.7849  2.0329
  694SOL     OW 2080   2.383   2.203   0.092 -0.5274 -0.0282 -0.0004
  694SOL    HW1 2081   2.367   2.288   0.155  0.4724  0.9922 -1.5707
  694SOL    HW2 2082   2.296   2.150   0.065 -1.0688 -0.9092  2.9453
  695SOL     OW 2083   0.564   3.013   1.451  0.1243 -0.2573 -0.3351
  695SOL    HW1 2084   0.503   2.946   1.392 -0.5586  1.2244 -2.2046
  695SOL    HW2 2085   0.518   3.032   1.542  0.0700 -2.8886  0.2871
  696SOL     OW 2086   2.813   2.048   0.710 -0.4686 -0.6269 -0.1327
  696SOL    HW1 2087   2.872   1.963   0.727  0.8346 -0.5708 -0.5136
  696SOL    HW2 2088   2.791   2.063   0.609  2.2372 -1.1306  0.1617
  697SOL     OW 2089   1.607   2.008   1.846  0.7754  0.4582 -0.4150
  697SOL    HW1 2090   1.679   1.941   1.859 -1.6489  0.7521  0.2906
  697SOL    HW2 2091   1.650   2.102   1.837 -0.4944 -0.9393  0.3252
  698SOL     OW 2092   2.916   0.433   2.792  0.0289  0.6423  0.0509
  698SOL    HW1 2093   2.928   0.414   2.692 -2.9133  1.6743 -0.8117
  698SOL    HW2 2094   2.975   0.369   2.851  0.0212 -0.8620  3.8211
  699SOL     OW 2095   1.540   0.095   2.915 -0.0125  0.1028  0.2066
  699SOL    HW1 2096   1.522  -0.005   2.888 -1.5147  1.9788 -0.1973
  699SOL    HW2 2097   1.580   0.147   2.834 -1.2880  0.1546 -3.5641
  700SOL     OW 2098   0.996   2.334   1.343 -0.5034 -0.2726 -0.3814
  700SOL    HW1 2099   1.090   2.298   1.315 -1.5039 -1.3011  1.2510
  700SOL    HW2 2100   0.924   2.291   1.283  0.4413 -1.6648 -0.8798
  701SOL     OW 2101   1.866   2.935   3.061 -0.2014  0.1563 -0.0702
  701SOL    HW1 2102   1.863   2.869   3.143 -0.7403 -1.3718 -1.8927
  701SOL    HW2 2103   1.871   3.036   3.093  3.5594  0.0682  1.3293
  702SOL     OW 2104   2.085   1.308   1.983 -0.5326  0.3101  0.6666
  702SOL    HW1 2105   2.154   1.249   1.929 -0.2106  0.1638  1.2384
  702SOL    HW2 2106   2.041   1.386   1.926 -3.0185  2.7818  0.5366
  703SOL     OW 2107   1.931   0.911   1.453  0.4304  0.1341  0.7012
  703SOL    HW1 2108   1.912   0.822   1.507 -0.2114 -2.1452  0.2845
  703SOL    HW2 2109   2.007   0.971   1.496  1.9175  0.6577  0.1324
  704SOL     OW 2110   0.324   2.035   1.727  0.1326  0.1067 -0.3119
  704SOL    HW1 2111   0.378   1.983   1.795  0.0875  1.4727  2.2594
  704SOL    HW2 2112   0.379   2.120   1.693 -1.6946  2.6419 -0.9805
  705SOL     OW 2113   2.562   1.538   0.905 -0.3928 -0.3847 -0.0173
  705SOL    HW1 2114   2.489   1.482   0.853  2.1617 -0.7056  0.2920
  705SOL    HW2 2115   2.655   1.492   0.917  0.5294  0.1259  0.0141
  706SOL     OW 2116   0.601   1.658   1.880 -0.0264 -0.3637 -0.2897
  706SOL    HW1 2117   0.636   1.572   1.930 -0.0874 -1.0974 -3.2610
  706SOL    HW2 2118   0.672   1.737   1.881  1.2289  0.4301  0.6801
  707SOL     OW 2119   2.263   1.163   1.847 -0.0293  0.4804 -0.2552
  707SOL    HW1 2120   2.358   1.175   1.886 -0.3196  2.2211  0.4443
  707SOL    HW2 2121   2.251   1.062   1.816  0.0317 -0.2026 -0.4176
  708SOL     OW 2122   3.069   0.550   3.080  0.1926 -0.0762 -0.3107
  708SOL    HW1 2123   3.034   0.612   3.003  1.3438 -0.9389  0.8907
  708SOL    HW2 2124   3.080   0.450   3.049 -0.9006 -0.5487  1.3449
  709SOL     OW 2125   1.856   1.831   0.251  0.3355 -0.3627 -0.0685
  709SOL    HW1 2126   1.919   1.902   0.289 -1.0747  1.0737 -0.4225
  709SOL    HW2 2127   1.841   1.836   0.149 -0.1098 -0.6342 -1.6812
  710SOL     OW 2128   1.668   1.635   2.403  0.0808  0.6524 -0.3399
  710SOL    HW1 2129   1.718   1.608   2.320 -0.9739 -0.3921  1.0008
  710SOL    HW2 2130   1.695   1.575   2.484 -0.3245  1.6422  1.9731
  711SOL     OW 2131   2.567   2.899   1.054  0.7308  0.0277 -0.2928
  711SOL    HW1 2132   2.528   2.983   1.002  1.6021  0.7800  0.3893
  711SOL    HW2 2133   2.670   2.906   1.074  0.3980  0.2015 -0.0445
  712SOL     OW 2134   1.395   2.208   1.959  0.2361  0.1506  0.2410
  712SOL    HW1 2135   1.493   2.216   1.982  0.0919 -0.3617 -1.8810
  712SOL    HW2 2136   1.376   2.142   1.886 -1.1116  0.6191  2.1729
  713SOL     OW 2137   2.834   1.464   2.523  0.1896 -0.1066  0.2487
  713SOL    HW1 2138   2.826   1.365   2.492  0.0016  0.6825  0.2950
  713SOL    HW2 2139   2.799   1.479   2.618  0.2153  1.8442 -2.1115
  714SOL     OW 2140   2.686   0.500   2.453  0.4731  0.5233  0.5887
  714SOL    HW1 2141   2.607   0.455   2.500  2.3246  0.3782  0.8778
  714SOL    HW2 2142   2.665   0.519   2.354 -0.3318 -0.5090  1.9244
  715SOL     OW 2143   1.593   2.054   1.094  0.3553 -0.1152  0.2204
  715SOL    HW1 2144   1.505   2.097   1.063  0.0610  3.0704  1.4172
  715SOL    HW2 2145   1.617   2.079   1.191 -0.9545 -3.4189 -0.5161
  716SOL     OW 2146   1.180   0.188   1.497  0.0737 -0.7019  0.5826
  716SOL    HW1 2147   1.088   0.215   1.455 -0.0619 -0.8928 -0.6469
  716SOL    HW2 2148   1.267   0.226   1.464 -1.3994  0.2284  0.7647
  717SOL     OW 2149   1.164   0.568   1.524  0.1997 -0.4773 -0.1870
  717SOL    HW1 2150   1.253   0.627   1.542  2.7371  1.3560  0.8664
  717SOL    HW2 2151   1.146   0.527   1.430  0.2073  1.0099 -2.6484
  718SOL     OW 2152   0.671   0.895   1.018 -0.3675  0.3350  0.8996
  718SOL    HW1 2153   0.626   0.896   0.927  2.1368  1.3348  0.9943
  718SOL    HW2 2154   0.683   0.995   1.051  0.1161  2.7246 -0.7088
  719SOL     OW 2155   0.631   1.706   2.320 -0.3967  1.0469 -0.0584
  719SOL    HW1 2156   0.689   1.778   2.371 -1.5907 -1.9720 -1.6931
  719SOL    HW2 2157   0.539   1.677   2.364 -0.1799 -0.5907  0.5903
  720SOL     OW 2158   2.188   1.118   0.293 -0.1787 -0.1489  0.5086
  720SOL    HW1 2159   2.251   1.054   0.243  1.7219  0.8661 -0.0582
  720SOL    HW2 2160   2.167   1.087   0.385  1.0781 -0.0706 -0.5842
  721SOL     OW 2161   2.284   3.013   2.089 -0.4811  0.2951  0.3270
  721SOL    HW1 2162   2.283   3.068   2.002  6.1991 -1.5315  1.6328
  721SOL    HW2 2163   2.204   3.028   2.157 -2.7393  0.0555  0.0030
  722SOL     OW 2164   2.330   1.590   0.524  0.8168  0.0246  0.6781
  722SOL    HW1 2165   2.380   1.591   0.433 -2.5289  2.7024  0.3967
  722SOL    HW2 2166   2.268   1.671   0.540  3.2080 -0.0704  3.2744
  723SOL     OW 2167   2.594   2.733   1.947 -0.2397 -0.1455  0.0548
  723SOL    HW1 2168   2.645   2.809   1.999  0.2496 -0.0122 -0.5094
  723SOL    HW2 2169   2.489   2.743   1.960  0.7126  0.1749  1.0458
  724SOL     OW 2170   0.493   2.498   2.387  0.1998 -0.3373  0.1638
  724SOL    HW1 2171   0.399   2.479   2.426  0.1559  1.8654  2.1906
  724SOL    HW2 2172   0.574   2.497   2.455  1.0910 -0.3393 -0.4296
  725SOL     OW 2173   2.378   2.799   1.518  1.2594 -0.0587  0.1978
  725SOL    HW1 2174   2.418   2.821   1.426 -1.3137  0.6660  1.4992
  725SOL    HW2 2175   2.355   2.698   1.532  2.2810  3.1944  1.9422
  726SOL     OW 2176   2.545   2.336   0.735 -0.5457  0.0158 -0.8634
  726SOL    HW1 2177   2.495   2.418   0.705 -0.4051  0.6353  1.5676
  726SOL    HW2 2178   2.544   2.256   0.663 -3.1615 -0.6724  0.4261
  727SOL     OW 2179   0.118   3.074   0.045 -0.3273 -0.0021  0.7683
  727SOL    HW1 2180   0.179   3.011  -0.008 -0.2354 -2.4299  0.2880
  727SOL    HW2 2181   0.018   3.068   0.027  1.8928  3.9953  1.0980
  728SOL     OW 2182   2.912   0.638   0.950 -0.0081 -0.3982  0.1171
  728SOL    HW1 2183   2.824   0.645   0.890 -1.9103  2.4697 -1.8721
  728SOL    HW2 2184   2.888   0.598   1.047 -0.0675  0.5162 -0.0017
  729SOL     OW 2185   3.030   2.512   0.754 -0.2566  0.2346  0.2163
  729SOL    HW1 2186   3.006   2.413   0.791  1.3289 -1.5810  4.1413
  729SOL    HW2 2187   3.127   2.512   0.712 -3.4918  1.0899  0.2023
  730SOL     OW 2188   2.643   0.704   0.866  0.3347  0.4229 -0.1817
  730SOL    HW1 2189   2.599   0.801   0.867 -0.5986 -0.1744  0.8351
  730SOL    HW2 2190   2.681   0.686   0.769  0.3286 -0.1765 -2.9065
  731SOL     OW 2191   0.040   2.109   2.455  0.4699  0.4810  0.8053
  731SOL    HW1 2192   0.054   2.172   2.537 -0.5482 -0.6051  1.7547
  731SOL    HW2 2193  -0.018   2.156   2.382  0.2614 -0.9388  1.1252
  732SOL     OW 2194   1.202   2.850   1.962 -0.5599  0.1164 -0.0215
  732SOL    HW1 2195   1.200   2.786   2.046  0.0795  1.0640 -0.0958
  732SOL    HW2 2196   1.192   2.792   1.875 -2.3566  1.1114  1.3439
  733SOL     OW 2197   3.053   0.586   2.220  0.5404  0.1674 -0.1559
  733SOL    HW1 2198   3.146   0.617   2.197 -0.1947 -2.7895 -2.7721
  733SOL    HW2 2199   3.007   0.532   2.139 -0.1498 -0.7073  0.1241
  734SOL     OW 2200   1.427   0.388   2.697  0.3609 -0.0650  0.0074
  734SOL    HW1 2201   1.413   0.486   2.733  0.5401  0.5539  0.9442
  734SOL    HW2 2202   1.356   0.324   2.738  2.0394 -2.2057  1.4028
  735SOL     OW 2203   2.891   2.653   2.301  0.0255  0.3814  0.3297
  735SOL    HW1 2204   2.879   2.611   2.204 -0.0593  2.9006 -3.8897
  735SOL    HW2 2205   2.964   2.728   2.300  0.1556  0.2387 -0.0299
  736SOL     OW 2206   0.851   0.334   2.577 -0.5204 -0.4972 -0.2927
  736SOL    HW1 2207   0.767   0.382   2.601  2.3046 -1.0843 -1.6637
  736SOL    HW2 2208   0.861   0.294   2.482  0.0775 -0.2647  0.7221
  737SOL     OW 2209   2.633   0.456   2.834  0.1534  0.3631  0.2863
  737SOL    HW1 2210   2.623   0.410   2.928  3.2041  1.1629  0.2580
  737SOL    HW2 2211   2.726   0.440   2.792  0.3371 -2.2608 -1.1078
  738SOL     OW 2212   1.652   1.240   2.891  0.0077  0.2071  0.0474
  738SOL    HW1 2213   1.755   1.237   2.877 -3.5104  1.9635 -2.7335
  738SOL    HW2 2214   1.605   1.161   2.847  0.3431  2.6637  0.8587
  739SOL     OW 2215   1.730   0.707   0.684 -0.3601 -0.4392  0.0048
  739SOL    HW1 2216   1.797   0.703   0.765 -1.1140 -0.5210  1.2426
  739SOL    HW2 2217   1.739   0.620   0.620  0.9752 -3.1866 -1.7409
  740SOL     OW 2218   1.973   1.932   2.372  0.0028  0.0192 -0.6986
  740SOL    HW1 2219   2.020   1.845   2.400  2.7066 -1.0794 -0.5490
  740SOL    HW2 2220   1.904   1.916   2.300 -0.0204  2.5950  2.9525
  741SOL     OW 2221   2.564   0.099   2.574  0.5154  0.4121 -0.2306
  741SOL    HW1 2222   2.668   0.113   2.583  0.9205 -0.7849  0.3110
  741SOL    HW2 2223   2.532   0.079   2.478 -1.5078 -1.7000 -1.2576
  742SOL     OW 2224   2.195   1.385   0.213 -0.0063  0.1071 -0.3692
  742SOL    HW1 2225   2.113   1.441   0.244 -3.7740 -0.4821  0.8248
  742SOL    HW2 2226   2.191   1.289   0.246 -2.8397 -1.2515  1.0036
  743SOL     OW 2227   1.797   0.638   2.573  0.6042  0.1374  0.3011
  743SOL    HW1 2228   1.794   0.550   2.526  0.6322  2.9251  2.0775
  743SOL    HW2 2229   1.714   0.698   2.562 -1.2829  3.3968  2.9799
  744SOL     OW 2230   2.632   2.052   0.132 -0.3061 -0.2380  1.1457
  744SOL    HW1 2231   2.549   2.107   0.101 -4.0082 -0.2836 -0.6986
  744SOL    HW2 2232   2.616   1.966   0.196  1.6760 -0.8379  3.2388
  745SOL     OW 2233   2.133   2.656   2.208 -0.7441 -0.0548  0.5855
  745SOL    HW1 2234   2.040   2.691   2.223 -1.3245 -1.7653 -0.5500
  745SOL    HW2 2235   2.198   2.668   2.286  1.1906  1.5282 -2.6510
  746SOL     OW 2236   3.092   2.633   1.723 -0.2700 -0.0193  0.4142
  746SOL    HW1 2237   3.182   2.633   1.671 -0.9622  0.2467 -0.8987
  746SOL    HW2 2238   3.065   2.713   1.782 -1.1743  0.9419 -0.9681
  747SOL     OW 2239   0.003   1.755   1.756  0.4481 -0.1005 -0.4283
  747SOL    HW1 2240  -0.068   1.690   1.722  2.3551  4.2961  0.6944
  747SOL    HW2 2241   0.085   1.764   1.691  0.4146 -0.0336 -2.1097
  748SOL     OW 2242   1.827   2.716   2.874  0.2845 -0.1087 -0.0720
  748SOL    HW1 2243   1.840   2.812   2.914 -0.7655  3.0288 -2.0391
  748SOL    HW2 2244   1.724   2.703   2.848 -0.9909  1.7032 -1.6904
  749SOL     OW 2245   1.378   3.018   0.875  0.0119  0.5626  0.8253
  749SOL    HW1 2246   1.294   2.968   0.854  4.5693 -0.9618  3.8978
  749SOL    HW2 2247   1.445   3.001   0.799  0.1461  0.6910 -2.8861
  750SOL     OW 2248   2.299   0.215   1.845 -0.0984  0.5394  0.2129
  750SOL    HW1 2249   2.321   0.287   1.771  1.1422 -1.1334  0.2550
  750SOL    HW2 2250   2.303   0.251   1.946 -2.7466 -0.7445  2.9421
  751SOL     OW 2251   0.843   2.065   2.816 -0.3383  0.3601  0.3462
  751SOL    HW1 2252   0.899   2.080   2.902  1.0649  0.0114 -0.9950
  751SOL    HW2 2253   0.742   2.090   2.823 -1.0426 -0.9235  1.9358
  752SOL     OW 2254   1.322   0.854   1.244  0.0359  0.8095 -0.0019
  752SOL    HW1 2255   1.393   0.931   1.238  0.3340  0.2786 -0.4324
  752SOL    HW2 2256   1.371   0.772   1.291  0.5119  1.6916  1.1241
  753SOL     OW 2257   0.928   2.630   1.675 -0.4234 -0.0375 -0.4105
  753SOL    HW1 2258   1.020   2.641   1.720 -0.9437 -1.6018  1.2296
  753SOL    HW2 2259   0.868   2.710   1.688  2.0530 -1.8034 -2.8239
  754SOL     OW 2260   1.126   1.206   2.984 -0.0255  0.3195  0.0863
  754SOL    HW1 2261   1.166   1.144   2.911  0.8939 -0.2568 -1.3111
  754SOL    HW2 2262   1.144   1.309   2.978 -0.6076  3.9864 -1.1533
  755SOL     OW 2263   2.013   0.466   2.211 -0.3041  0.0877 -0.5294
  755SOL    HW1 2264   2.087   0.405   2.250  1.1778  0.9338  2.4032
  755SOL    HW2 2265   1.931   0.481   2.272  0.3181 -0.0802 -0.5217
  756SOL     OW 2266   2.564   0.999   2.974 -0.1264  0.7550 -0.1572
  756SOL    HW1 2267   2.665   0.990   2.983 -2.7789 -1.3126 -0.0082
  756SOL    HW2 2268   2.504   0.914   2.999  0.0261  2.2587 -1.2639
  757SOL     OW 2269   0.101   0.509   1.964 -0.5962  0.8333 -0.3134
  757SOL    HW1 2270   0.173   0.439   1.935  1.2543  0.3998  1.2266
  757SOL    HW2 2271   0.010   0.473   1.990 -2.5606 -1.0949 -3.0093
  758SOL     OW 2272   2.288   0.119   1.491  0.6915  0.5750  0.4928
  758SOL    HW1 2273   2.246   0.028   1.521  0.9482 -1.5147  1.8036
  758SOL    HW2 2274   2.317   0.124   1.390 -1.3122 -0.6197 -1.4465
  759SOL     OW 2275   1.707   0.116   0.049  0.2867  0.0837 -0.7071
  759SOL    HW1 2276   1.664   0.132  -0.041 -0.7785 -0.5236  0.2200
  759SOL    HW2 2277   1.812   0.107   0.046 -0.3698 -2.4604 -0.3943
  760SOL     OW 2278   2.680   2.053   2.826  1.0916 -0.0066  0.1485
  760SOL    HW1 2279   2.701   1.952   2.849  1.0825  0.2667  1.7880
  760SOL    HW2 2280   2.666   2.106   2.910 -0.1702  0.3827 -1.8728
  761SOL     OW 2281   1.858   1.750   1.698  0.3188 -0.6044  0.2011
  761SOL    HW1 2282   1.874   1.646   1.698  0.3242 -1.3842  2.4427
  761SOL    HW2 2283   1.798   1.783   1.615 -0.3298  1.7332  2.9418
  762SOL     OW 2284   0.510   2.335   0.947  0.0446  0.2530  0.1328
  762SOL    HW1 2285   0.552   2.345   0.850  1.7646 -0.0535 -1.5439
  762SOL    HW2 2286   0.554   2.395   1.018 -3.1694  0.2003 -0.5141
  763SOL     OW 2287   2.080   1.589   2.986 -0.0581  0.1886  0.0663
  763SOL    HW1 2288   2.149   1.515   2.963 -2.1154  0.2686 -0.9786
  763SOL    HW2 2289   2.014   1.553   3.060  3.8583 -0.7858 -0.4090
  764SOL     OW 2290   0.659   0.623   0.810  0.0482  0.8215  0.1887
  764SOL    HW1 2291   0.575   0.559   0.810  0.7450 -0.7341  0.2613
  764SOL    HW2 2292   0.750   0.577   0.839  4.4395  1.0690 -2.7266
  765SOL     OW 2293   0.735   0.214   0.765  0.3336 -0.0994 -0.3115
  765SOL    HW1 2294   0.815   0.259   0.720 -3.5093 -0.6865  1.4242
  765SOL    HW2 2295   0.695   0.284   0.832 -1.6919  1.3128  1.1552
  766SOL     OW 2296   2.850   2.103   3.073  0.2476 -0.1266 -0.1459
  766SOL    HW1 2297   2.767   2.095   3.137 -0.9112  0.7684  0.3869
  766SOL    HW2 2298   2.894   2.202   3.084  2.3072 -0.2931 -0.6702
  767SOL     OW 2299   2.779   1.646   0.597 -0.1643 -0.1805  0.1735
  767SOL    HW1 2300   2.683   1.660   0.631 -2.2556  0.7202 -3.4332
  767SOL    HW2 2301   2.847   1.705   0.639 -0.4612 -4.6579 -2.5414
  768SOL     OW 2302   0.971   0.062   0.245  0.7800  0.0492  0.5387
  768SOL    HW1 2303   0.951   0.031   0.337 -1.2623 -0.0031 -0.8654
  768SOL    HW2 2304   1.061   0.117   0.240  1.4588  1.2763 -0.1549
  769SOL     OW 2305   1.087   1.948   2.303 -0.6956  0.6360 -0.2199
  769SOL    HW1 2306   0.988   1.972   2.328 -0.7522 -0.0234 -1.5227
  769SOL    HW2 2307   1.140   1.915   2.385  0.5510  0.3121 -0.4009
  770SOL     OW 2308   0.182   1.188   2.277  0.0337 -0.3759 -0.0700
  770SOL    HW1 2309   0.175   1.219   2.378  0.7233 -0.0209  1.5851
  770SOL    HW2 2310   0.095   1.203   2.227  0.7241 -1.8680 -0.1580
  771SOL     OW 2311   2.997   2.845   1.869 -0.6166 -0.3351  0.3465
  771SOL    HW1 2312   2.944   2.894   1.791 -0.6624  1.2346 -0.8219
  771SOL    HW2 2313   2.986   2.884   1.964  1.6572 -0.4665 -0.0988
  772SOL     OW 2314   2.218   0.155   2.941 -0.7196  0.7304 -0.1349
  772SOL    HW1 2315   2.280   0.088   2.892  2.5563  0.0681  0.6196
  772SOL    HW2 2316   2.258   0.210   3.021 -0.1570  0.4243 -0.0547
  773SOL     OW 2317   0.722   2.129   2.452  0.4015  0.1399 -0.2819
  773SOL    HW1 2318   0.678   2.177   2.368  2.0214  1.2750 -1.4670
  773SOL    HW2 2319   0.668   2.156   2.534  0.6688 -3.5018  1.9215
  774SOL     OW 2320   2.029   0.014   2.595 -0.5619 -0.2442  0.0323
  774SOL    HW1 2321   2.031   0.104   2.639  0.6816  0.8837 -0.3615
  774SOL    HW2 2322   2.045  -0.067   2.657 -1.8658  1.9724 -0.0648
  775SOL     OW 2323   2.545   2.916   2.348  0.0736 -0.3926  0.4339
  775SOL    HW1 2324   2.527   3.017   2.326 -0.1873  1.1186 -0.7995
  775SOL    HW2 2325   2.611   2.896   2.428  3.4575 -0.3615  1.0659
  776SOL     OW 2326   0.042   1.237   0.221 -0.2254 -0.0955 -0.2154
  776SOL    HW1 2327  -0.017   1.226   0.132 -0.4164  2.6010 -1.0701
  776SOL    HW2 2328  -0.001   1.204   0.307 -2.1144 -1.0102 -3.7267
  777SOL     OW 2329   0.329   2.812   0.359 -0.8640  0.8591  0.3917
  777SOL    HW1 2330   0.244   2.867   0.335  2.2222 -0.0206  0.5100
  777SOL    HW2 2331   0.412   2.872   0.354 -3.4327  1.6634  1.3254
  778SOL     OW 2332   1.354   1.961   0.167  0.3835  0.0676  0.1575
  778SOL    HW1 2333   1.311   1.942   0.259 -1.6790 -1.1657  2.1515
  778SOL    HW2 2334   1.372   2.062   0.144 -3.9668  0.1207  1.2306
  779SOL     OW 2335   0.181   0.855   0.481  0.1243  0.0256  0.0283
  779SOL    HW1 2336   0.125   0.769   0.466 -1.5379  1.5208 -4.4861
  779SOL    HW2 2337   0.127   0.923   0.547 -0.7457  1.3735 -0.7781
  780SOL     OW 2338   0.078   0.227   2.373  0.4650 -0.1211 -0.5370
  780SOL    HW1 2339  -0.006   0.279   2.410 -0.8462 -2.2919 -1.8213
  780SOL    HW2 2340   0.152   0.290   2.337 -0.7576  0.6503 -2.5805
  781SOL     OW 2341   0.663   1.664   1.529  0.4354 -0.1210  0.3554
  781SOL    HW1 2342   0.745   1.605   1.558  0.5886 -0.0975  0.2599
  781SOL    HW2 2343   0.581   1.635   1.581  0.7794  1.6166 -2.0777
  782SOL     OW 2344   2.594   0.066   0.935  0.4896  0.2622  0.1164
  782SOL    HW1 2345   2.528   0.099   0.860 -0.1036 -0.6081 -2.5452
  782SOL    HW2 2346   2.596   0.132   1.016  1.3692 -2.9348 -1.4336
  783SOL     OW 2347   2.842   0.724   2.524  0.8503  0.6549  0.1454
  783SOL    HW1 2348   2.807   0.759   2.617 -1.6668 -0.2626  3.5298
  783SOL    HW2 2349   2.798   0.634   2.492 -0.3116  0.2469 -1.4155
  784SOL     OW 2350   1.436   2.204   0.077 -0.0287  0.1783  0.8980
  784SOL    HW1 2351   1.510   2.263   0.113  0.6985 -0.2805 -1.4769
  784SOL    HW2 2352   1.414   2.226  -0.025  0.0212 -3.0776  1.8923
  785SOL     OW 2353   2.132   0.342   0.084 -0.2531  0.2921 -0.2792
  785SOL    HW1 2354   2.038   0.346   0.142 -3.7699  0.8999 -1.2210
  785SOL    HW2 2355   2.137   0.428   0.025  1.2292  0.7894 -1.6754
  786SOL     OW 2356   2.044   2.198   2.239 -0.7286 -0.0586  0.4173
  786SOL    HW1 2357   2.007   2.114   2.274  1.1237  1.0872 -1.2076
  786SOL    HW2 2358   2.143   2.195   2.217  0.8502 -3.5594 -3.1309
  787SOL     OW 2359   1.365   0.510   0.972  0.2959  0.5750  0.6389
  787SOL    HW1 2360   1.301   0.590   0.988 -1.9856 -1.5780 -0.6769
  787SOL    HW2 2361   1.406   0.509   0.880 -1.3785  1.5458 -1.9060
  788SOL     OW 2362   1.293   0.408   0.061 -0.3458 -0.8512  0.1805
  788SOL    HW1 2363   1.209   0.415  -0.002 -1.0363 -1.3864 -3.2778
  788SOL    HW2 2364   1.275   0.450   0.155  3.6287  0.2323  0.2530
  789SOL     OW 2365   2.568   0.086   1.939  0.7269  0.0382 -0.6117
  789SOL    HW1 2366   2.479   0.134   1.904 -0.4095  0.1848 -1.7988
  789SOL    HW2 2367   2.583  -0.003   1.901 -3.8538  2.6134  1.1150
  790SOL     OW 2368   2.678   2.754   0.824  0.1894  0.5123 -0.3239
  790SOL    HW1 2369   2.696   2.816   0.748  0.2475  2.3570  1.1388
  790SOL    HW2 2370   2.669   2.812   0.911 -0.2655  1.2358 -0.9053
  791SOL     OW 2371   1.919   1.209   0.203  0.4805  0.3963 -0.1067
  791SOL    HW1 2372   1.828   1.156   0.229 -0.4897 -1.5111 -1.9722
  791SOL    HW2 2373   2.005   1.156   0.226 -3.0447 -0.1389 -0.7354
  792SOL     OW 2374   0.425   1.882   2.191 -0.0774  1.1185 -0.0370
  792SOL    HW1 2375   0.501   1.823   2.230 -2.5929 -0.2709  0.1853
  792SOL    HW2 2376   0.349   1.896   2.261  0.2134  2.6425 -2.1179
  793SOL     OW 2377   2.081   1.552   2.120 -0.1551  0.2769  0.3696
  793SOL    HW1 2378   2.140   1.619   2.061  2.0018  1.4521 -0.8944
  793SOL    HW2 2379   2.080   1.458   2.076 -2.4230 -0.1518 -0.6845
  794SOL     OW 2380   0.506   1.366   2.375 -0.1264 -0.2931  0.2333
  794SOL    HW1 2381   0.497   1.341   2.274  0.5451 -2.1505 -1.7296
  794SOL    HW2 2382   0.481   1.464   2.402 -1.8200  1.6231 -0.1771
  795SOL     OW 2383   2.502   2.253   1.873 -0.1198  0.3344 -0.0526
  795SOL    HW1 2384   2.506   2.217   1.971  1.1901 -1.3005 -0.1834
  795SOL    HW2 2385   2.433   2.202   1.818 -1.3022  0.5246  0.4633
  796SOL     OW 2386   3.044   1.134   2.689 -0.2485 -0.0686 -0.2973
  796SOL    HW1 2387   2.943   1.159   2.711 -0.4239  0.5704 -2.4066
  796SOL    HW2 2388   3.115   1.155   2.768  1.1896  1.0388  2.1706
  797SOL     OW 2389   0.776   0.641   1.384  0.4593 -0.0727 -0.0126
  797SOL    HW1 2390   0.839   0.698   1.447 -0.9393 -0.7259  1.0178
  797SOL    HW2 2391   0.705   0.699   1.332  0.9271  1.8716  0.8800
  798SOL     OW 2392   1.313   0.293   1.153  0.1292 -0.1383 -0.7877
  798SOL    HW1 2393   1.323   0.301   1.257  2.8482  0.7718  3.7950
  798SOL    HW2 2394   1.358   0.373   1.100 -0.5285  0.1416 -2.0638
  799SOL     OW 2395   1.918   2.738   1.035 -0.5614  0.0707 -0.1219
  799SOL    HW1 2396   1.883   2.706   1.127 -1.1105  0.3711  3.1820
  799SOL    HW2 2397   1.872   2.701   0.951 -0.8978  0.9500  1.3227
  800SOL     OW 2398   2.990   0.686   1.856 -0.3094  0.5096  0.2727
  800SOL    HW1 2399   2.983   0.783   1.886 -0.4929  0.3581 -0.6738
  800SOL    HW2 2400   3.068   0.627   1.892  0.2122 -0.0889  1.4843
  801SOL     OW 2401   1.949   2.234   0.105 -0.3680 -0.4413  0.1075
  801SOL    HW1 2402   1.857   2.215   0.061  0.3270  1.5949 -2.4554
  801SOL    HW2 2403   2.023   2.160   0.081 -2.6676 -1.0606 -3.3610
  802SOL     OW 2404   0.685   0.811   2.566 -0.3691 -0.7570 -0.6699
  802SOL    HW1 2405   0.735   0.764   2.491 -0.6333 -0.2430  0.7763
  802SOL    HW2 2406   0.602   0.864   2.527 -1.3441  0.6538 -1.5134
  803SOL     OW 2407   0.942   0.045   0.823  0.0649 -0.1504 -0.1090
  803SOL    HW1 2408   1.031   0.098   0.840  2.3496  1.9111 -1.8369
  803SOL    HW2 2409   0.862   0.106   0.797  2.1778  2.2357 -1.9787
  804SOL     OW 2410   0.308   0.044   2.133  0.1622  0.1447  0.2450
  804SOL    HW1 2411   0.327   0.137   2.174 -1.3160 -0.6603  1.0753
  804SOL    HW2 2412   0.267   0.049   2.037 -1.6238 -2.0966  1.3476
  805SOL     OW 2413   2.375   0.329   0.355 -0.4238  0.3614 -0.1380
  805SOL    HW1 2414   2.445   0.358   0.424 -1.6439  0.9978  1.4812
  805SOL    HW2 2415   2.410   0.300   0.262  0.7645 -1.1796  0.1819
  806SOL     OW 2416   0.619   2.453   1.777  0.4659 -0.5346  0.3220
  806SOL    HW1 2417   0.603   2.549   1.735 -1.1457  0.1286 -0.3260
  806SOL    HW2 2418   0.684   2.398   1.719  1.0662  0.8763  0.3263
  807SOL     OW 2419   2.488   0.845   0.375  0.0358  0.1037 -0.1008
  807SOL    HW1 2420   2.571   0.891   0.413  0.3906 -2.4967 -3.1085
  807SOL    HW2 2421   2.445   0.883   0.288 -0.4247  0.5608 -1.7605
  808SOL     OW 2422   0.570   2.078   2.905  0.6744  0.4734 -0.5267
  808SOL    HW1 2423   0.535   2.132   2.988 -0.0545 -0.4917  0.7748
  808SOL    HW2 2424   0.594   1.977   2.925  1.3994  0.0106 -1.2214
  809SOL     OW 2425   2.692   1.988   1.912  0.2350  0.3331 -0.2309
  809SOL    HW1 2426   2.792   2.012   1.927  0.3529 -0.7114  0.7073
  809SOL    HW2 2427   2.672   1.994   1.811  0.3807 -1.4034 -0.1925
  810SOL     OW 2428   2.089   1.033   0.528  0.7530  0.0750  0.1535
  810SOL    HW1 2429   2.106   0.972   0.609 -1.6666  2.6446 -0.1403
  810SOL    HW2 2430   2.077   1.129   0.564  0.4744  0.2125  1.0986
  811SOL     OW 2431   1.337   2.505   1.199 -0.2717 -0.3433 -0.8434
  811SOL    HW1 2432   1.324   2.406   1.221 -0.9486  0.1527  1.1369
  811SOL    HW2 2433   1.268   2.565   1.250  1.5774  1.1127 -1.4425
  812SOL     OW 2434   1.426   0.761   1.970 -0.1585 -1.0567 -0.2823
  812SOL    HW1 2435   1.493   0.838   1.996  0.8935  1.9122  1.7802
  812SOL    HW2 2436   1.326   0.800   1.975 -2.8965  0.4815  1.6050
  813SOL     OW 2437   1.714   2.038   2.496 -0.4099 -0.1141 -0.0661
  813SOL    HW1 2438   1.758   1.955   2.536 -0.3997  3.5490 -2.1503
  813SOL    HW2 2439   1.672   2.018   2.406 -0.0189 -1.5758  1.7601
  814SOL     OW 2440   2.912   1.524   2.852 -0.5102  0.5207 -0.5729
  814SOL    HW1 2441   2.990   1.500   2.920 -0.0501  1.7289 -0.0757
  814SOL    HW2 2442   2.936   1.613   2.802 -0.4018  2.4159 -0.6549
  815SOL     OW 2443   2.134   2.914   2.780 -0.0282 -0.0033 -0.3049
  815SOL    HW1 2444   2.130   2.840   2.852 -0.4690 -2.4856 -0.3854
  815SOL    HW2 2445   2.225   2.962   2.762  0.3984 -2.3801  1.8279
  816SOL     OW 2446   1.654   0.332   1.608 -0.0314  0.1680 -0.2300
  816SOL    HW1 2447   1.694   0.244   1.639 -0.8636  1.2635 -2.4566
  816SOL    HW2 2448   1.563   0.354   1.660 -1.8130  1.0419 -1.8771
  817SOL     OW 2449   0.390   1.198   2.558 -0.3146 -0.7142  0.0686
  817SOL    HW1 2450   0.291   1.231   2.573 -1.5080 -1.0518 -1.5543
  817SOL    HW2 2451   0.440   1.240   2.477 -1.7428 -0.1509 -0.0471
  818SOL     OW 2452   1.902   0.865   0.446 -0.8554  0.4081 -0.1939
  818SOL    HW1 2453   1.975   0.934   0.470  0.1464 -0.8468 -0.1212
  818SOL    HW2 2454   1.806   0.885   0.482  0.6293  2.3200 -0.5693
  819SOL     OW 2455   2.728   2.974   2.991  0.3736 -0.1649 -0.3621
  819SOL    HW1 2456   2.788   2.895   2.972  0.4867  0.2614 -1.9651
  819SOL    HW2 2457   2.642   2.961   2.936 -2.6958 -1.3136  0.6049
  820SOL     OW 2458   1.273   1.082   0.680  0.0328 -0.3977 -0.3647
  820SOL    HW1 2459   1.246   1.175   0.705 -1.4253 -1.2108 -1.5521
  820SOL    HW2 2460   1.218   1.014   0.741 -1.1477 -0.6511  0.7288
  821SOL     OW 2461   3.081   1.318   0.675  0.0500  0.1465 -0.0869
  821SOL    HW1 2462   3.078   1.286   0.770  1.2209 -2.0430 -0.1641
  821SOL    HW2 2463   3.162   1.381   0.646  1.3892  1.1484 -4.7390
  822SOL     OW 2464   2.570   1.715   2.436 -0.5037 -0.3110 -0.4720
  822SOL    HW1 2465   2.581   1.802   2.494  0.9264 -0.4492 -1.9405
  822SOL    HW2 2466   2.490   1.723   2.375  0.0131 -1.9500  1.1276
  823SOL     OW 2467   2.105   0.899   1.220 -0.0816  0.4418 -0.0780
  823SOL    HW1 2468   2.048   0.885   1.309 -3.0504 -3.4491  0.0020
  823SOL    HW2 2469   2.048   0.944   1.150 -1.4957 -1.3439 -0.6959
  824SOL     OW 2470   0.235   2.055   2.784  0.3787 -0.5522  0.0376
  824SOL    HW1 2471   0.186   1.990   2.847  0.5323  1.6103  1.0610
  824SOL    HW2 2472   0.293   2.009   2.716 -1.1686 -0.5500 -0.1495
  825SOL     OW 2473   1.297   1.114   0.266  0.1116  0.5867  0.1619
  825SOL    HW1 2474   1.306   1.219   0.265 -1.6549  0.7901 -0.9829
  825SOL    HW2 2475   1.221   1.080   0.333 -0.6487  0.0831  2.6865
  826SOL     OW 2476   1.897   0.709   1.635  0.2642 -0.1707 -0.1170
  826SOL    HW1 2477   1.985   0.656   1.651 -0.1071 -0.1779  2.5131
  826SOL    HW2 2478   1.831   0.658   1.570 -0.2115  1.5926  0.7099
  827SOL     OW 2479   0.686   1.194   0.228 -0.2874 -0.7800 -0.5088
  827SOL    HW1 2480   0.768   1.160   0.176  0.8518  0.6652  1.2476
  827SOL    HW2 2481   0.600   1.145   0.222  1.6737 -3.6920 -1.7477
  828SOL     OW 2482   2.555   0.100   1.579  0.6673  0.3723 -0.6078
  828SOL    HW1 2483   2.457   0.130   1.565  0.3211  2.0002 -0.5318
  828SOL    HW2 2484   2.564   0.014   1.637  1.5181 -0.2809 -2.7796
  829SOL     OW 2485   2.755   2.497   3.033 -0.2901  0.5391  0.4168
  829SOL    HW1 2486   2.677   2.426   3.027  0.6718 -1.0554  1.0315
  829SOL    HW2 2487   2.743   2.572   3.106 -0.5414  2.5937  0.3940
  830SOL     OW 2488   2.846   0.946   2.981 -0.4461 -0.4273  0.4869
  830SOL    HW1 2489   2.913   1.018   3.005  0.2461 -2.6196  0.7140
  830SOL    HW2 2490   2.846   0.875   3.052 -1.0215 -1.0067 -0.2746
  831SOL     OW 2491   0.028   0.635   0.407 -0.7114  0.1106  0.0405
  831SOL    HW1 2492   0.018   0.571   0.486 -1.1907  1.8868 -0.8329
  831SOL    HW2 2493   0.073   0.590   0.325 -0.2319  1.7011 -0.8609
  832SOL     OW 2494   1.788   0.743   2.991  0.3638  0.0630 -0.1405
  832SOL    HW1 2495   1.688   0.776   2.993 -1.4360  0.9720 -0.8031
  832SOL    HW2 2496   1.794   0.642   3.022  0.3514 -0.2401  1.1892
  833SOL     OW 2497   2.475   2.160   0.551  0.6289 -0.4256  0.0121
  833SOL    HW1 2498   2.402   2.229   0.532 -0.2641  0.9554  0.2020
  833SOL    HW2 2499   2.457   2.066   0.514 -1.7129  0.5496  2.7466
  834SOL     OW 2500   0.204   0.214   0.533 -0.0384  0.1437 -0.9584
  834SOL    HW1 2501   0.264   0.126   0.550 -1.1284  1.6700  0.1739
  834SOL    HW2 2502   0.155   0.217   0.442  2.7376 -2.7820 -1.1071
  835SOL     OW 2503   2.348   1.553   1.108 -0.8178  0.4069 -0.1010
  835SOL    HW1 2504   2.344   1.648   1.155  0.0751  1.5456 -2.7699
  835SOL    HW2 2505   2.414   1.555   1.027  1.1870  1.9265 -1.7792
  836SOL     OW 2506   1.598   0.833   2.566  0.1510  0.1357 -0.0418
  836SOL    HW1 2507   1.495   0.815   2.570  2.0993  2.4673 -0.3419
  836SOL    HW2 2508   1.629   0.854   2.470  0.1493 -1.2551  2.5207
  837SOL     OW 2509   1.709   0.120   0.552  0.0451  0.3678  0.0019
  837SOL    HW1 2510   1.670   0.190   0.612  0.6635 -0.8409 -0.6779
  837SOL    HW2 2511   1.655   0.108   0.464 -1.4478 -1.2562  0.2493
  838SOL     OW 2512   1.189   1.550   2.806 -0.4676 -0.1914  0.1817
  838SOL    HW1 2513   1.159   1.539   2.904 -3.5036 -0.3424 -0.0655
  838SOL    HW2 2514   1.135   1.494   2.737 -0.5865  0.6885  0.3591
  839SOL     OW 2515   1.685   0.318   1.023  0.2285  0.0664  0.5058
  839SOL    HW1 2516   1.721   0.366   1.106  0.2049  2.1747  0.0249
  839SOL    HW2 2517   1.627   0.237   1.046  1.5148  0.5842 -0.6218
  840SOL     OW 2518   2.505   2.973   1.748  0.0326 -0.1942 -0.0178
  840SOL    HW1 2519   2.441   2.941   1.671  2.4174  1.7727  0.2382
  840SOL    HW2 2520   2.550   2.899   1.802 -0.3177  0.1009  1.5515
  841SOL     OW 2521   1.539   0.830   2.956 -0.3021  0.1758 -0.0512
  841SOL    HW1 2522   1.487   0.876   3.036  3.5461 -1.4568 -0.6668
  841SOL    HW2 2523   1.546   0.895   2.878 -0.0178 -2.1855  3.2409
  842SOL     OW 2524   0.808   1.550   0.945 -0.3291 -0.1336  0.1414
  842SOL    HW1 2525   0.763   1.645   0.962 -2.6558 -0.5795  0.5123
  842SOL    HW2 2526   0.749   1.468   0.972 -0.6372 -0.2285 -1.2632
  843SOL     OW 2527   0.058   0.037   1.377 -0.4621  0.2435 -0.3661
  843SOL    HW1 2528   0.144   0.079   1.417 -1.4536 -1.2193  1.7967
  843SOL    HW2 2529   0.034  -0.056   1.419 -0.2695 -2.4374  0.3319
  844SOL     OW 2530   0.824   2.525   0.277 -0.0339  0.4679  0.2881
  844SOL    HW1 2531   0.775   2.483   0.357 -1.4387  2.3544  0.2055
  844SOL    HW2 2532   0.767   2.575   0.211 -0.8943 -0.4264  2.7626
  845SOL     OW 2533   1.629   2.886   1.371  0.3013  0.1140 -0.5277
  845SOL    HW1 2534   1.679   2.957   1.426  2.4724 -1.8658  0.0008
  845SOL    HW2 2535   1.538   2.864   1.413 -0.5847  0.7833  2.2060
  846SOL     OW 2536   1.567   2.897   0.680 -0.0541 -0.0824 -0.0788
  846SOL    HW1 2537   1.623   2.842   0.610  0.5182  0.1163 -0.3038
  846SOL    HW2 2538   1.632   2.951   0.747  2.2965 -0.7986 -1.0514
  847SOL     OW 2539   2.069   1.646   0.312  0.1014  0.3307 -0.2265
  847SOL    HW1 2540   2.027   1.563   0.357 -0.3720  0.9116 -2.5857
  847SOL    HW2 2541   2.000   1.711   0.258 -2.3495  3.5696 -0.5691
  848SOL     OW 2542   2.436   0.874   2.581  0.0768 -0.1266  0.0859
  848SOL    HW1 2543   2.419   0.956   2.643  0.9273  0.7303  2.6568
  848SOL    HW2 2544   2.385   0.785   2.601  0.3025 -2.0803 -3.1939
  849SOL     OW 2545   2.592   0.816   2.355 -0.1947 -0.5132 -0.4462
  849SOL    HW1 2546   2.691   0.815   2.390  1.0087  1.8089  2.2107
  849SOL    HW2 2547   2.523   0.823   2.431  0.7236  0.3242 -0.7173
  850SOL     OW 2548   1.558   0.096   1.335 -0.2500 -0.2332  0.3855
  850SOL    HW1 2549   1.556   0.098   1.230  4.0196 -0.3998 -1.8501
  850SOL    HW2 2550   1.487   0.042   1.393  0.1861 -1.2672  2.3606
  851SOL     OW 2551   0.469   1.809   0.592 -0.4709 -0.3974  0.2284
  851SOL    HW1 2552   0.474   1.911   0.612  0.5534 -0.4510 -2.0237
  851SOL    HW2 2553   0.527   1.785   0.510 -1.4798 -1.1272  0.7837
  852SOL     OW 2554   0.794   2.111   1.655 -0.5391  0.2885  0.4922
  852SOL    HW1 2555   0.781   2.203   1.604  0.9708 -1.0834 -0.6404
  852SOL    HW2 2556   0.724   2.107   1.733  0.0686 -1.9083 -1.5534
  853SOL     OW 2557   2.554   1.478   2.604  0.7171  0.0960 -0.1535
  853SOL    HW1 2558   2.484   1.407   2.590  1.5442 -1.0530  1.4028
  853SOL    HW2 2559   2.565   1.554   2.536  0.0212 -2.5620 -0.9384
  854SOL     OW 2560   2.373   1.423   1.736  0.1059 -0.3417  0.1504
  854SOL    HW1 2561   2.444   1.406   1.667  0.2356  1.4717 -0.7749
  854SOL    HW2 2562   2.327   1.334   1.768 -2.3710 -0.0623 -2.7270
  855SOL     OW 2563   2.018   2.437   0.985 -0.2491  0.0236  0.0082
  855SOL    HW1 2564   2.031   2.529   0.940  1.5025 -1.8611  2.4610
  855SOL    HW2 2565   2.096   2.429   1.055  0.3524  0.9919 -2.1843
  856SOL     OW 2566   1.341   1.496   0.938  0.8267  0.3883  0.0238
  856SOL    HW1 2567   1.413   1.563   0.961 -1.3448 -0.9165 -0.8425
  856SOL    HW2 2568   1.247   1.521   0.981  0.2501  0.3737  0.2565
  857SOL     OW 2569   3.077   2.688   0.978 -0.9226 -0.2254  0.8970
  857SOL    HW1 2570   3.034   2.604   0.943  1.3517  2.8202  0.2489
  857SOL    HW2 2571   3.176   2.701   0.949  1.6225 -0.9850  2.9177
  858SOL     OW 2572   2.343   2.073   1.693 -0.0657 -0.5918  0.1871
  858SOL    HW1 2573   2.259   2.035   1.652  0.3116 -2.6414 -0.5019
  858SOL    HW2 2574   2.426   2.008   1.682 -0.1917 -0.9115 -1.1670
  859SOL     OW 2575   2.475   0.540   1.010 -0.0979  0.0193 -0.1939
  859SOL    HW1 2576   2.541   0.601   0.954  0.9450 -0.9956  2.6438
  859SOL    HW2 2577   2.511   0.445   1.034 -0.8231  1.6698  0.5910
  860SOL     OW 2578   1.936   2.801   0.441  0.0469  0.2042 -0.0878
  860SOL    HW1 2579   1.889   2.778   0.348  0.4537  1.7798 -0.9378
  860SOL    HW2 2580   2.033   2.802   0.443 -1.2625 -0.4745  2.1413
  861SOL     OW 2581   1.043   2.433   2.883  1.0933  0.3739 -0.2412
  861SOL    HW1 2582   1.048   2.529   2.839 -0.5128  1.2212 -0.3319
  861SOL    HW2 2583   1.077   2.432   2.983  1.9724  0.8852  1.1162
  862SOL     OW 2584   2.816   2.569   1.604 -0.0451  0.3929 -0.2452
  862SOL    HW1 2585   2.905   2.594   1.654  0.6205 -1.6994  1.9780
  862SOL    HW2 2586   2.777   2.653   1.555 -0.7718  1.2733  1.3031
  863SOL     OW 2587   1.850   2.747   0.184 -0.4206  0.0017 -0.0973
  863SOL    HW1 2588   1.905   2.657   0.171  2.2099 -0.5137  1.3737
  863SOL    HW2 2589   1.748   2.727   0.176  0.1790 -0.7685  0.2370
  864SOL     OW 2590   1.915   1.192   2.867 -0.1031 -0.0299  0.5472
  864SOL    HW1 2591   1.925   1.158   2.769  0.1695 -1.1098  0.0880
  864SOL    HW2 2592   1.962   1.132   2.934  0.5708  1.1668  1.1541
  865SOL     OW 2593   2.209   1.841   0.636  0.2023 -0.5585 -0.0529
  865SOL    HW1 2594   2.251   1.861   0.728  0.9727 -3.1326  0.2227
  865SOL    HW2 2595   2.113   1.802   0.641  0.2226  1.5687  0.7367
  866SOL     OW 2596   2.879   2.911   1.027 -0.0021  0.1294 -0.1537
  866SOL    HW1 2597   2.878   2.985   0.958 -0.4570 -0.4703  1.7017
  866SOL    HW2 2598   2.959   2.847   1.016  0.7751  2.1879  4.1465
  867SOL     OW 2599   0.336   1.391   0.872 -0.6098 -0.3904  0.4721
  867SOL    HW1 2600   0.336   1.313   0.800  0.8541  0.7916  3.2636
  867SOL    HW2 2601   0.286   1.475   0.841 -2.6842 -0.0899 -0.0772
  868SOL     OW 2602   0.782   1.893   2.004 -0.3341 -0.2427 -0.6329
  868SOL    HW1 2603   0.796   1.910   2.103  0.8725 -0.0287  1.2006
  868SOL    HW2 2604   0.729   1.974   1.966  0.4981 -1.3218 -0.1203
  869SOL     OW 2605   2.564   1.906   1.646  0.3239 -0.3046 -0.4179
  869SOL    HW1 2606   2.623   1.988   1.612  1.0865 -0.6906  1.3212
  869SOL    HW2 2607   2.620   1.822   1.674 -2.3798  1.5137 -2.3411
  870SOL     OW 2608   2.221   2.657   1.241 -0.2007 -0.8803  0.2914
  870SOL    HW1 2609   2.242   2.552   1.228 -1.7227  1.2415  1.0970
  870SOL    HW2 2610   2.247   2.691   1.332 -1.7593  0.3934 -2.8399
  871SOL     OW 2611   3.040   2.205   0.518 -0.6487  0.1569 -0.2856
  871SOL    HW1 2612   3.022   2.264   0.600  1.7565 -0.6495 -1.1028
  871SOL    HW2 2613   2.975   2.223   0.439  0.3397 -1.0393 -0.8833
  872SOL     OW 2614   2.119   0.536   1.699 -0.3914  0.2962 -0.2314
  872SOL    HW1 2615   2.060   0.499   1.775  0.9190 -1.1163 -0.8320
  872SOL    HW2 2616   2.212   0.487   1.698  0.2430 -2.5210 -1.0652
  873SOL     OW 2617   1.701   2.126   3.067  0.7534 -0.3419  0.3429
  873SOL    HW1 2618   1.612   2.161   3.108 -0.6532  0.3054 -0.5904
  873SOL    HW2 2619   1.695   2.126   2.964  1.1993  0.1153 -1.0576
  874SOL     OW 2620   0.678   2.467   0.761  0.1555  0.1784  0.2374
  874SOL    HW1 2621   0.654   2.563   0.785 -3.2538 -1.0678 -1.9105
  874SOL    HW2 2622   0.778   2.437   0.782  1.6020  1.5809  2.2640
  875SOL     OW 2623   2.342   1.477   1.405 -0.1303 -0.3083 -0.0088
  875SOL    HW1 2624   2.431   1.520   1.400 -2.2666  3.0283 -1.0605
  875SOL    HW2 2625   2.307   1.444   1.314  1.0637  0.7728  2.6094
  876SOL     OW 2626   0.055   2.263   2.747  0.5644 -0.1943  0.3855
  876SOL    HW1 2627   0.128   2.184   2.760 -0.9645  1.1652 -1.0791
  876SOL    HW2 2628   0.089   2.350   2.793 -0.6957 -0.7167  2.2290
  877SOL     OW 2629   2.903   2.673   0.559 -0.0191 -0.3317  0.2966
  877SOL    HW1 2630   2.889   2.771   0.581 -0.0786 -1.3729 -0.9199
  877SOL    HW2 2631   2.918   2.613   0.641 -0.4382 -1.2949  1.1754
  878SOL     OW 2632   2.790   1.486   2.261 -0.2611 -0.2475  0.2330
  878SOL    HW1 2633   2.743   1.572   2.220 -0.1247  1.5900 -0.5080
  878SOL    HW2 2634   2.792   1.481   2.366 -0.4929  0.2004  0.9936
  879SOL     OW 2635   2.406   0.122   1.246 -0.1376 -0.1666 -0.1064
  879SOL    HW1 2636   2.453   0.042   1.289 -1.8496 -2.7083 -0.8213
  879SOL    HW2 2637   2.330   0.093   1.180 -0.6211  2.0221 -1.0635
  880SOL     OW 2638   0.765   0.476   2.228 -0.0974  0.1569 -0.0831
  880SOL    HW1 2639   0.727   0.428   2.312  0.7036 -0.7680  1.1095
  880SOL    HW2 2640   0.773   0.410   2.148  2.1598 -0.6075 -0.8518
  881SOL     OW 2641   0.904   0.036   0.522  0.5004 -0.3200  0.1315
  881SOL    HW1 2642   0.948  -0.060   0.540 -1.9943  2.1266  3.6088
  881SOL    HW2 2643   0.804   0.045   0.495 -0.0319 -0.8813  0.2368
  882SOL     OW 2644   2.703   1.680   1.684 -0.1560  0.0149  0.0944
  882SOL    HW1 2645   2.784   1.639   1.629 -0.3321  3.2620 -1.6412
  882SOL    HW2 2646   2.715   1.657   1.784  0.4620  1.2415  2.8263
  883SOL     OW 2647   0.900   0.509   0.929 -0.0666  0.2669  0.4286
  883SOL    HW1 2648   0.903   0.596   0.982 -0.0208 -1.0684  1.3813
  883SOL    HW2 2649   0.907   0.425   0.990  0.3295  0.1620 -0.6027
  884SOL     OW 2650   1.159   1.729   1.192 -0.0696  0.3445  0.0578
  884SOL    HW1 2651   1.120   1.653   1.135  0.4257 -3.0743 -2.1418
  884SOL    HW2 2652   1.145   1.826   1.159  2.7589 -0.9659 -0.3322
  885SOL     OW 2653   2.328   1.774   2.291  0.2642 -0.1021 -0.6044
  885SOL    HW1 2654   2.236   1.730   2.318  1.7144  1.4598  0.2728
  885SOL    HW2 2655   2.330   1.875   2.269 -3.6219 -0.3582  1.3069
  886SOL     OW 2656   2.600   0.349   1.798  0.2524  0.5665  0.3616
  886SOL    HW1 2657   2.640   0.266   1.841  1.2930 -1.1587 -3.0059
  886SOL    HW2 2658   2.668   0.427   1.776 -1.8802  1.4611  0.1906
  887SOL     OW 2659   0.103   1.957   1.348 -0.1790  0.2998  0.0171
  887SOL    HW1 2660   0.080   1.892   1.272  2.6631  0.8084 -1.1216
  887SOL    HW2 2661   0.143   2.045   1.314 -0.2025  0.9709  0.6378
  888SOL     OW 2662   0.561   1.213   1.550  0.3295 -0.1671 -0.0882
  888SOL    HW1 2663   0.593   1.248   1.458  1.3482 -0.1525  1.3513
  888SOL    HW2 2664   0.520   1.116   1.539  0.7470  2.9399 -1.1885
  889SOL     OW 2665   0.820   2.486   2.194  0.2547 -0.2760  0.3199
  889SOL    HW1 2666   0.793   2.407   2.251  2.3185 -0.4671 -1.2162
  889SOL    HW2 2667   0.871   2.462   2.110  0.6388  1.3374  4.5156
  890SOL     OW 2668   2.422   2.425   0.237  0.1728 -0.7684 -0.2444
  890SOL    HW1 2669   2.437   2.500   0.165  4.0763 -1.4901  0.2418
  890SOL    HW2 2670   2.359   2.447   0.316 -1.7600 -0.0982 -2.0296
  891SOL     OW 2671   2.517   1.723   0.684 -0.2198  0.1463  0.2830
  891SOL    HW1 2672   2.531   1.679   0.779  2.8084 -2.1309  2.8145
  891SOL    HW2 2673   2.441   1.681   0.627 -1.1552 -0.3524 -3.5800
  892SOL     OW 2674   0.364   0.292   2.264 -0.1632  0.4816 -0.5866
  892SOL    HW1 2675   0.368   0.353   2.179  1.5447 -1.0757  0.5917
  892SOL    HW2 2676   0.450   0.293   2.318 -1.2006 -0.5356  0.4590
  893SOL     OW 2677   1.673   0.259   2.713  0.0240  0.2269  0.4545
  893SOL    HW1 2678   1.742   0.323   2.756  0.3648  0.9595 -1.0183
  893SOL    HW2 2679   1.583   0.313   2.707  1.3183  0.0040  0.3152
  894SOL     OW 2680   2.170   2.040   0.033 -0.3487 -0.2625 -0.1160
  894SOL    HW1 2681   2.112   1.996  -0.045  0.2705  1.0027 -0.1068
  894SOL    HW2 2682   2.207   1.968   0.099 -0.7061  1.3749 -0.3454
  895SOL     OW 2683   2.813   1.452   0.938  0.4199 -0.1837  0.3925
  895SOL    HW1 2684   2.885   1.384   0.972  2.6171 -0.3330  1.6815
  895SOL    HW2 2685   2.815   1.544   0.982 -2.1282 -3.4116  0.0965
  896SOL     OW 2686   1.707   1.811   1.195  0.2826 -0.0813 -0.0513
  896SOL    HW1 2687   1.765   1.739   1.145  0.9495 -0.8347 -1.3637
  896SOL    HW2 2688   1.661   1.875   1.129  1.1001  1.4194 -0.1623
  897SOL     OW 2689   0.319   0.554   3.057 -0.3512 -0.2582 -0.1556
  897SOL    HW1 2690   0.263   0.593   2.978  1.9526  0.5424  0.8249
  897SOL    HW2 2691   0.405   0.613   3.083  0.0322  1.5378  0.8210
  898SOL     OW 2692   0.566   2.875   1.071 -0.2072  0.0438  0.2830
  898SOL    HW1 2693   0.576   2.976   1.061 -2.6716 -1.2148 -0.8256
  898SOL    HW2 2694   0.633   2.834   1.136 -2.1514  0.7332 -1.1203
  899SOL     OW 2695   2.836   0.899   1.301  0.2288  0.5788 -0.6968
  899SOL    HW1 2696   2.754   0.919   1.244 -1.4206 -1.0083 -1.0296
  899SOL    HW2 2697   2.914   0.886   1.236 -0.7096 -0.8306 -3.4739
  900SOL     OW 2698   0.967   2.526   2.416 -0.1521  0.2448 -0.7602
  900SOL    HW1 2699   0.928   2.531   2.321 -1.6907 -0.1217 -3.2166
  900SOL    HW2 2700   0.892   2.509   2.480  2.7731 -1.6930 -3.6468
  901SOL     OW 2701   1.899   2.346   1.369 -0.4292 -0.2104  0.1752
  901SOL    HW1 2702   1.883   2.307   1.271  1.7547  1.6076 -0.8891
  901SOL    HW2 2703   1.997   2.322   1.402  1.0754  0.3249  2.2181
  902SOL     OW 2704   2.569   1.637   1.423 -0.0750  0.4020  0.4496
  902SOL    HW1 2705   2.590   1.657   1.522  1.6984  0.0275  0.7661
  902SOL    HW2 2706   2.658   1.617   1.369 -1.9192  2.2333 -0.1544
  903SOL     OW 2707   0.236   2.477   1.969  0.4013 -0.0350  0.7394
  903SOL    HW1 2708   0.143   2.447   1.936 -0.7926  0.5619  0.2920
  903SOL    HW2 2709   0.263   2.562   1.921 -1.3044  0.2686  1.1649
  904SOL     OW 2710   2.033   0.789   2.570  0.1609 -0.0482 -0.7491
  904SOL    HW1 2711   1.951   0.746   2.611  3.7981  0.8025  0.0574
  904SOL    HW2 2712   2.025   0.784   2.467  1.1659  0.2530 -1.5190
  905SOL     OW 2713   2.843   0.136   2.563 -0.5207  0.0112  0.1197
  905SOL    HW1 2714   2.906   0.057   2.566 -0.8781 -2.3322 -0.8259
  905SOL    HW2 2715   2.881   0.226   2.535  0.3597 -0.6536  0.8684
  906SOL     OW 2716   0.227   1.692   1.935  0.1031 -0.6303  0.1371
  906SOL    HW1 2717   0.144   1.719   1.877  0.0528  2.1109  0.2258
  906SOL    HW2 2718   0.313   1.749   1.935  0.5595  0.0337 -2.1473
  907SOL     OW 2719   0.262   2.438   1.030  0.2456 -0.1506  0.1224
  907SOL    HW1 2720   0.352   2.394   1.003 -0.4067 -1.1900  0.4551
  907SOL    HW2 2721   0.223   2.496   0.955  0.6841  0.8842  2.3541
  908SOL     OW 2722   2.820   2.980   0.363 -0.0692 -0.5556 -0.5912
  908SOL    HW1 2723   2.745   3.020   0.305 -1.0081 -0.3538  1.2506
  908SOL    HW2 2724   2.882   2.924   0.300  1.3588 -0.4337 -3.6811
  909SOL     OW 2725   0.833   1.046   2.653  0.2446  0.1741  0.5415
  909SOL    HW1 2726   0.764   0.975   2.616  0.4890 -0.1008  0.7929
  909SOL    HW2 2727   0.908   1.068   2.579 -1.7964  1.5390 -2.0722
  910SOL     OW 2728   1.789   1.910   2.181 -0.4762 -0.0136 -0.0625
  910SOL    HW1 2729   1.829   1.898   2.088 -1.1812 -0.3745  3.5391
  910SOL    HW2 2730   1.706   1.972   2.183  0.6656  1.1053  1.1957
  911SOL     OW 2731   1.808   2.938   1.598  0.0067  0.4350 -0.3736
  911SOL    HW1 2732   1.891   2.917   1.540 -0.5154  0.6481  0.0928
  911SOL    HW2 2733   1.786   2.858   1.661 -0.0049 -1.7848  1.8028
  912SOL     OW 2734   2.857   1.017   0.744 -0.0584 -0.0888  0.2891
  912SOL    HW1 2735   2.894   1.000   0.838 -1.1566  1.8752  0.5395
  912SOL    HW2 2736   2.787   1.097   0.749 -1.6740 -0.1247 -3.8965
  913SOL     OW 2737   2.545   1.282   1.535  0.3450 -0.1013 -0.4507
  913SOL    HW1 2738   2.579   1.183   1.526  0.2909 -1.4065  1.0812
  913SOL    HW2 2739   2.590   1.352   1.474  2.1160  0.5262 -2.3212
  914SOL     OW 2740   2.786   0.586   1.194  0.0789 -0.0713  0.3380
  914SOL    HW1 2741   2.800   0.487   1.227 -1.6793  0.9472 -1.2231
  914SOL    HW2 2742   2.689   0.617   1.194  2.8243 -2.0387  2.0715
  915SOL     OW 2743   1.172   0.721   1.056  0.2734 -0.2087  0.6274
  915SOL    HW1 2744   1.227   0.776   1.123  0.0110 -0.4971 -1.1801
  915SOL    HW2 2745   1.069   0.711   1.069 -3.7850 -0.0545 -0.9345
  916SOL     OW 2746   0.592   0.024   0.651 -0.3597 -0.3218  0.2438
  916SOL    HW1 2747   0.656   0.093   0.697 -0.0336  0.6515 -1.5659
  916SOL    HW2 2748   0.577   0.050   0.549  0.3906  1.9382 -3.5923
  917SOL     OW 2749   2.831   2.615   2.004  0.2609 -0.0168 -0.6295
  917SOL    HW1 2750   2.733   2.630   1.976  0.2071  0.6101 -1.8417
  917SOL    HW2 2751   2.886   2.703   2.003  0.2999 -1.2691 -1.7308
  918SOL     OW 2752   1.014   2.102   3.032 -0.2482  0.0207  0.5814
  918SOL    HW1 2753   1.019   2.183   3.093  1.7371 -0.2208 -3.2537
  918SOL    HW2 2754   1.084   2.103   2.955 -2.6570  3.1989  0.1894
  919SOL     OW 2755   0.839   1.618   2.846  0.5590  0.1841 -0.2475
  919SOL    HW1 2756   0.891   1.690   2.793 -0.0540  2.0052  0.6307
  919SOL    HW2 2757   0.765   1.574   2.792 -0.7608  0.3035  0.5678
  920SOL     OW 2758   1.249   1.837   2.501  0.2209 -0.0255 -0.4397
  920SOL    HW1 2759   1.321   1.796   2.431 -0.6709 -0.6070 -1.1936
  920SOL    HW2 2760   1.185   1.771   2.550 -0.8162  1.6965 -0.6839
  921SOL     OW 2761   1.051   0.031   2.622 -0.5480  0.3709 -0.3983
  921SOL    HW1 2762   1.011  -0.014   2.539  0.8215 -0.5777  0.6174
  921SOL    HW2 2763   0.976   0.070   2.689 -0.4578 -4.8158  1.5925
  922SOL     OW 2764   2.206   2.363   2.787 -0.5263  0.3985 -0.2615
  922SOL    HW1 2765   2.243   2.264   2.773 -1.2816 -2.1833 -0.3511
  922SOL    HW2 2766   2.167   2.414   2.707 -0.1430  1.9633 -3.1040
  923SOL     OW 2767   1.280   2.669   0.292 -0.4890  0.1913  0.3004
  923SOL    HW1 2768   1.353   2.736   0.323  1.4555  2.2609 -0.8402
  923SOL    HW2 2769   1.318   2.574   0.273  1.1645 -3.0202 -0.1209
  924SOL     OW 2770   2.837   1.633   0.153  0.2682 -1.0571  0.8594
  924SOL    HW1 2771   2.756   1.626   0.088 -0.4602  0.7921  0.3341
  924SOL    HW2 2772   2.920   1.575   0.127  0.7592 -0.6704 -0.5680
  925SOL     OW 2773   0.012   2.881   1.475 -0.0075 -0.4085  0.4014
  925SOL    HW1 2774  -0.052   2.855   1.550  2.4950 -0.1721  0.8653
  925SOL    HW2 2775   0.019   2.807   1.409  1.0541  1.6439  1.4541
  926SOL     OW 2776   1.279   2.788   1.313  0.0620 -0.1447 -0.5804
  926SOL    HW1 2777   1.353   2.815   1.245 -0.8051  0.4084 -2.7624
  926SOL    HW2 2778   1.262   2.871   1.375  1.1409  0.2178  1.3922
  927SOL     OW 2779   0.316   2.667   1.786  0.0988 -0.0538 -0.4127
  927SOL    HW1 2780   0.272   2.593   1.728  0.5909 -0.2623  0.3507
  927SOL    HW2 2781   0.283   2.761   1.758 -1.1628  0.5994 -0.8724
  928SOL     OW 2782   1.572   2.058   2.248  0.1399 -0.1654  0.2520
  928SOL    HW1 2783   1.612   2.144   2.208  1.0640 -1.1148  2.2863
  928SOL    HW2 2784   1.466   2.058   2.271 -1.7073 -2.1919 -0.8286
  929SOL     OW 2785   2.410   2.525   2.859 -0.6989  0.2703  0.2525
  929SOL    HW1 2786   2.324   2.472   2.843  1.0875  1.0544  1.9239
  929SOL    HW2 2787   2.460   2.541   2.773 -3.4519 -0.7689  0.8517
  930SOL     OW 2788   2.178   2.029   1.075 -0.0430 -0.2362  0.0387
  930SOL    HW1 2789   2.157   1.947   1.136  1.7440  0.9323  1.9785
  930SOL    HW2 2790   2.268   2.084   1.103  1.1068  0.4378  1.4491
  931SOL     OW 2791   0.526   1.707   2.709 -0.1055  0.5607  0.1895
  931SOL    HW1 2792   0.558   1.725   2.804  1.4326 -2.2776  2.0206
  931SOL    HW2 2793   0.586   1.634   2.670 -0.3732 -0.6014  2.2850
  932SOL     OW 2794   0.476   0.142   3.046  0.4413 -0.1832 -0.2808
  932SOL    HW1 2795   0.559   0.194   3.073  0.2525  3.4931 -2.3304
  932SOL    HW2 2796   0.485   0.036   3.044 -0.8206  2.1153 -0.2483
  933SOL     OW 2797   0.978   0.800  -0.002  0.3382 -0.1956  0.4784
  933SOL    HW1 2798   0.952   0.811   0.096 -0.6661  1.3442  0.6684
  933SOL    HW2 2799   0.991   0.891  -0.055  0.9759  2.1194  0.2754
  934SOL     OW 2800   0.787   2.945   2.683 -0.0500  0.0051 -0.0495
  934SOL    HW1 2801   0.770   2.889   2.597  0.8235  0.5031 -2.2069
  934SOL    HW2 2802   0.852   2.905   2.754 -2.3918  0.3685  0.7065
  935SOL     OW 2803   0.034   0.541   0.840 -0.3702  0.6280  0.4247
  935SOL    HW1 2804   0.034   0.522   0.737 -0.0254  1.3332  1.6677
  935SOL    HW2 2805  -0.051   0.580   0.876  2.1895  0.2186  0.6322
  936SOL     OW 2806   1.128   2.770   0.071  0.2373 -0.0815  0.0110
  936SOL    HW1 2807   1.185   2.831   0.013 -0.5327  0.9761  0.6120
  936SOL    HW2 2808   1.176   2.744   0.160 -2.9704 -0.8130  1.0712
  937SOL     OW 2809   1.860   2.660   2.099  1.2254  0.2673  0.1796
  937SOL    HW1 2810   1.763   2.678   2.104  1.5919 -1.8951  0.2544
  937SOL    HW2 2811   1.916   2.736   2.053  4.1139 -0.6074  2.0851
  938SOL     OW 2812   2.763   2.086   1.605  0.5230  0.2503  0.0935
  938SOL    HW1 2813   2.746   2.188   1.626 -0.5268  0.1470  0.3248
  938SOL    HW2 2814   2.861   2.061   1.631 -1.2295  1.3484  0.8840
  939SOL     OW 2815   2.856   1.196   2.434  0.0448  0.5687  0.2803
  939SOL    HW1 2816   2.947   1.163   2.393  2.4576 -0.1356  0.1537
  939SOL    HW2 2817   2.830   1.160   2.530  2.4227 -0.4410  2.8682
  940SOL     OW 2818   1.046   0.420   2.746 -0.2565 -0.1787  0.0974
  940SOL    HW1 2819   1.131   0.360   2.760  1.9958  0.1131 -2.7997
  940SOL    HW2 2820   0.958   0.374   2.708 -2.6053  1.1321  0.7693
  941SOL     OW 2821   0.033   2.782   2.253  0.4509 -0.1230  0.2719
  941SOL    HW1 2822   0.082   2.695   2.227  1.6737 -2.5747 -1.1559
  941SOL    HW2 2823   0.096   2.849   2.305 -0.4248 -0.1055  0.3339
  942SOL     OW 2824   0.123   0.049   2.579  0.6972  0.4580 -0.0597
  942SOL    HW1 2825   0.171   0.097   2.658 -2.5431 -3.1687  0.1253
  942SOL    HW2 2826   0.101   0.111   2.498  1.1527 -0.5238  1.4275
  943SOL     OW 2827   2.091   1.644   2.395 -0.0671 -0.4534  0.3055
  943SOL    HW1 2828   2.096   1.611   2.294 -0.6680  1.7469  0.7953
  943SOL    HW2 2829   2.108   1.564   2.458  0.1120  2.9191 -2.0632
  944SOL     OW 2830   2.165   2.332   1.450  0.3018 -0.6250  0.0875
  944SOL    HW1 2831   2.246   2.398   1.454 -0.9740  0.9171 -1.7328
  944SOL    HW2 2832   2.149   2.261   1.520 -1.0788  0.1937 -1.2844
  945SOL     OW 2833   0.676   1.503   0.192 -0.0874  0.1586  0.6577
  945SOL    HW1 2834   0.602   1.546   0.135  1.2379 -2.5001  0.5376
  945SOL    HW2 2835   0.675   1.398   0.199  2.6215  0.5335 -1.8845
  946SOL     OW 2836   0.436   0.943   2.478 -0.1508 -0.2435 -0.1917
  946SOL    HW1 2837   0.355   0.883   2.469  1.2897  0.5374 -1.0518
  946SOL    HW2 2838   0.422   1.036   2.520 -0.1951 -1.2527  1.4780
  947SOL     OW 2839   1.521   0.507   3.072  0.5197  0.6609  0.3740
  947SOL    HW1 2840   1.496   0.544   2.977  1.0874  1.2606 -2.8512
  947SOL    HW2 2841   1.436   0.464   3.124  2.0862 -1.2636  1.1973
  948SOL     OW 2842   1.831   3.012   2.116 -0.0468 -0.0561  0.3106
  948SOL    HW1 2843   1.858   2.953   2.029  1.3529 -1.7274 -2.6283
  948SOL    HW2 2844   1.848   2.968   2.209 -0.8975  1.4625 -0.3026
  949SOL     OW 2845   0.623   2.495   0.494 -0.3967 -0.0238  0.3415
  949SOL    HW1 2846   0.646   2.598   0.483 -0.6990 -1.0987 -1.4193
  949SOL    HW2 2847   0.633   2.466   0.595  1.3115 -3.9888 -1.0479
  950SOL     OW 2848   0.209   2.246   3.022 -0.3034  0.0141  0.4860
  950SOL    HW1 2849   0.211   2.344   2.978 -3.0831  2.0073  0.7759
  950SOL    HW2 2850   0.196   2.175   2.949  1.0042  0.2239  1.9091
  951SOL     OW 2851   1.219   2.688   2.791 -0.5597  0.3022  0.0635
  951SOL    HW1 2852   1.261   2.666   2.882 -0.7347 -1.3823 -2.5392
  951SOL    HW2 2853   1.276   2.752   2.729 -0.9173  0.6706  0.9235
  952SOL     OW 2854   0.035   1.652   0.396 -0.8174  0.0866  0.0651
  952SOL    HW1 2855   0.106   1.733   0.375 -0.0181 -0.9993  0.5628
  952SOL    HW2 2856   0.084   1.587   0.463  3.2133  1.7311 -0.0872
  953SOL     OW 2857   2.525   1.788   0.227  0.3138  0.5833  0.1469
  953SOL    HW1 2858   2.479   1.697   0.248 -0.8482  1.2024 -0.6827
  953SOL    HW2 2859   2.509   1.829   0.130 -1.0930  2.8534 -2.0199
  954SOL     OW 2860   2.225   0.536   0.890  0.4754 -0.0191 -0.1277
  954SOL    HW1 2861   2.231   0.558   0.792 -1.9500  0.3750  1.1435
  954SOL    HW2 2862   2.318   0.533   0.934  0.4513  1.2907 -0.4314
  955SOL     OW 2863   0.167   2.598   1.347  0.1624  0.0310 -0.7146
  955SOL    HW1 2864   0.072   2.618   1.316  0.0904  0.1668 -0.4320
  955SOL    HW2 2865   0.245   2.635   1.285  0.3368  0.2920 -0.5061
  956SOL     OW 2866   2.843   2.446   2.491  0.2074  0.1967  0.8867
  956SOL    HW1 2867   2.869   2.352   2.455  2.0011 -1.6459 -0.2761
  956SOL    HW2 2868   2.857   2.526   2.424 -1.8548 -0.7996 -0.4724
  957SOL     OW 2869   1.686   2.053   2.784  0.2920 -0.2677 -0.7867
  957SOL    HW1 2870   1.622   1.970   2.790 -2.0411  0.6500 -0.6992
  957SOL    HW2 2871   1.730   2.071   2.696 -0.5171 -0.3386  1.7926
  958SOL     OW 2872   2.558   2.288   2.997 -0.5936 -0.2266  0.5437
  958SOL    HW1 2873   2.519   2.369   2.946  2.7596  2.0844 -1.6798
  958SOL    HW2 2874   2.491   2.254   3.072 -1.0144 -0.3991  0.4526
  959SOL     OW 2875   0.275   2.810   0.032 -0.3754  0.0656  0.1675
  959SOL    HW1 2876   0.181   2.778  -0.001  1.1071  0.3813  1.2218
  959SOL    HW2 2877   0.323   2.745   0.099  1.2560  1.0748  1.1255
  960SOL     OW 2878   1.950   0.472   1.932  0.2773  0.1833 -0.0743
  960SOL    HW1 2879   1.874   0.531   1.901  1.0872 -0.9529  1.5360
  960SOL    HW2 2880   1.962   0.481   2.035  1.6542  0.5224  1.6398
  961SOL     OW 2881   2.577   1.861   1.013  0.1694  0.2317 -0.7884
  961SOL    HW1 2882   2.595   1.959   0.994 -0.2191  0.8791 -0.9294
  961SOL    HW2 2883   2.524   1.852   1.104 -0.6478  3.1020  0.8641
  962SOL     OW 2884   1.311   0.920   0.036  0.2058 -0.0302  0.0118
  962SOL    HW1 2885   1.261   0.957  -0.048 -0.8174 -0.5816  1.4677
  962SOL    HW2 2886   1.322   0.994   0.105 -1.2482  1.6440 -2.5509
  963SOL     OW 2887   2.262   2.577   1.782 -0.9052 -0.0297  0.0459
  963SOL    HW1 2888   2.211   2.495   1.829 -2.1087  0.5578  0.5437
  963SOL    HW2 2889   2.297   2.648   1.854 -0.9271  2.0764  3.1038
  964SOL     OW 2890   2.361   0.415   1.672  0.0845 -0.2490  0.0713
  964SOL    HW1 2891   2.455   0.422   1.714  2.6548 -0.5147  0.1016
  964SOL    HW2 2892   2.367   0.380   1.574 -3.2775 -1.8877  0.3336
  965SOL     OW 2893   2.617   3.000   0.136  0.5598  0.7172 -0.2761
  965SOL    HW1 2894   2.680   2.994   0.055  0.5931  4.0037 -2.4577
  965SOL    HW2 2895   2.523   3.040   0.113  1.6145  3.4291  0.7041
  966SOL     OW 2896   2.591   2.560   2.254  0.2986  0.2232 -0.7414
  966SOL    HW1 2897   2.678   2.615   2.260  1.6539 -1.8753 -3.1795
  966SOL    HW2 2898   2.509   2.610   2.216  1.1477  0.9683 -2.3950
  967SOL     OW 2899   2.780   2.832   2.490 -0.5714  0.0366 -0.1573
  967SOL    HW1 2900   2.818   2.746   2.446 -0.6022 -1.5572 -0.2123
  967SOL    HW2 2901   2.855   2.898   2.513 -0.2025 -1.0017 -1.7821
  968SOL     OW 2902   1.913   1.066   2.612 -0.4678 -0.1388 -0.1146
  968SOL    HW1 2903   1.842   1.113   2.554  1.3276 -0.8347 -0.4940
  968SOL    HW2 2904   1.940   0.966   2.578 -1.7984  0.8555 -0.7927
  969SOL     OW 2905   2.808   2.518   1.106  1.0344  0.1267 -0.5197
  969SOL    HW1 2906   2.784   2.502   1.007 -0.8656 -1.2932 -0.5891
  969SOL    HW2 2907   2.844   2.436   1.159  0.4511  0.8263 -0.8435
  970SOL     OW 2908   1.030   2.094   1.794 -0.0634  0.0268 -0.4494
  970SOL    HW1 2909   0.950   2.086   1.729 -1.7318 -0.7356  2.0670
  970SOL    HW2 2910   1.013   2.158   1.874 -0.8400  1.0565 -0.9526
  971SOL     OW 2911   2.946   2.062   1.998 -0.6753  0.0830 -0.7257
  971SOL    HW1 2912   2.897   2.152   2.017 -2.1534  3.6294 -1.1486
  971SOL    HW2 2913   2.981   2.042   1.904 -0.9088 -0.9338 -1.6135
  972SOL     OW 2914   1.968   2.483   0.234  0.2217 -0.3907  0.4801
  972SOL    HW1 2915   1.970   2.409   0.158 -0.2293 -1.0749 -3.6810
  972SOL    HW2 2916   1.982   2.445   0.328 -0.2854  1.7019 -0.3619
  973SOL     OW 2917   1.261   1.052   1.905 -0.0583 -0.1448 -0.3624
  973SOL    HW1 2918   1.197   1.038   1.826  0.3736  0.2716 -1.6173
  973SOL    HW2 2919   1.253   1.146   1.952 -0.8597 -1.1731  0.0641
  974SOL     OW 2920   1.600   0.565   1.974 -0.0221 -0.5818 -0.1217
  974SOL    HW1 2921   1.679   0.615   1.933 -1.6448  0.1625  1.6331
  974SOL    HW2 2922   1.523   0.630   1.959  1.7674  1.7816  0.0345
  975SOL     OW 2923   2.368   3.057   0.031 -0.1269 -0.0568  0.6679
  975SOL    HW1 2924   2.304   2.977   0.043 -0.7376 -0.7512 -1.9218
  975SOL    HW2 2925   2.381   3.083  -0.068 -1.8151 -0.7887  0.4373
  976SOL     OW 2926   1.903   2.861   2.339  0.1958 -0.0300 -0.4848
  976SOL    HW1 2927   1.850   2.784   2.301 -0.4259 -0.4207  3.8430
  976SOL    HW2 2928   1.941   2.838   2.435 -0.2485  2.5239  1.3773
  977SOL     OW 2929   0.474   0.670   1.060 -0.1450 -0.2904 -0.3305
  977SOL    HW1 2930   0.425   0.681   0.974  1.8030  1.6202  0.4388
  977SOL    HW2 2931   0.549   0.736   1.056  0.4032 -2.8583 -1.3175
   3.10000   3.10000   3.10000
