1000 SPC/Fw water molecules t=   0.94000 step= 940
 2931
    1SOL     OW    1   2.519   0.324   2.660  1.0936 -0.5678  0.0754
    1SOL    HW1    2   2.550   0.226   2.661 -2.0550 -2.4049 -0.4961
    1SOL    HW2    3   2.570   0.378   2.731 -1.1001 -1.0852  0.9045
    2SOL     OW    4   2.702   3.048   1.437 -0.3710 -0.1969 -0.3171
    2SOL    HW1    5   2.772   3.077   1.369 -0.9622 -1.1970 -0.5796
    2SOL    HW2    6   2.687   3.119   1.512 -1.5908  0.7393  1.2419
    3SOL     OW    7   2.680   2.612   0.424 -0.0102  0.1697  0.6991
    3SOL    HW1    8   2.690   2.512   0.392  0.1624 -0.9720  1.7976
    3SOL    HW2    9   2.762   2.640   0.486  1.7771  2.7475  2.6011
    4SOL     OW   10   1.247   1.539   2.305  0.3151 -0.0036  0.2524
    4SOL    HW1   11   1.169   1.581   2.253 -1.8340 -0.9137 -2.4888
    4SOL    HW2   12   1.227   1.451   2.353 -1.5252  1.1077  0.3385
    5SOL     OW   13   1.160   1.494   3.077  0.1414 -0.2165 -0.5349
    5SOL    HW1   14   1.237   1.566   3.094 -0.2309  0.2536 -0.5623
    5SOL    HW2   15   1.073   1.520   3.126  0.4890 -0.4446 -0.9035
    6SOL     OW   16   0.138   1.789   2.954 -0.2273 -0.5897  0.0471
    6SOL    HW1   17   0.061   1.808   3.016  1.1147  1.3603  1.8493
    6SOL    HW2   18   0.218   1.748   3.013  0.3147 -0.8658  4.2617
    7SOL     OW   19   2.613   0.920   1.102 -0.2398 -0.3998 -0.0105
    7SOL    HW1   20   2.527   0.862   1.120 -0.7632 -1.0688  1.9721
    7SOL    HW2   21   2.646   0.914   1.001 -0.6887 -0.4098 -3.5454
    8SOL     OW   22   0.372   0.639   1.573  0.0048  0.3647 -0.3991
    8SOL    HW1   23   0.460   0.589   1.608  2.3631  3.6549  1.9155
    8SOL    HW2   24   0.376   0.659   1.472  1.2690  1.4538 -1.2616
    9SOL     OW   25   1.191   0.890   2.417  0.0954  0.3876 -0.1206
    9SOL    HW1   26   1.248   0.923   2.334  4.6191  1.2722 -1.5646
    9SOL    HW2   27   1.145   0.799   2.404 -2.0931 -1.3812  0.4858
   10SOL     OW   28   0.666   1.354   1.276 -0.1926  0.1073 -0.4667
   10SOL    HW1   29   0.566   1.367   1.244  1.7425  0.8866  4.2411
   10SOL    HW2   30   0.715   1.446   1.274  0.2319 -0.1319 -0.7607
   11SOL     OW   31   2.327   2.751   0.845 -0.2786  0.7127 -0.1062
   11SOL    HW1   32   2.291   2.782   0.934  0.8502  0.4429 -1.4250
   11SOL    HW2   33   2.430   2.762   0.845 -0.8870 -1.9119  0.6937
   12SOL     OW   34   1.489   0.898   0.339 -0.1063 -0.2975 -0.3772
   12SOL    HW1   35   1.422   0.961   0.292  1.0878  1.3528 -1.8322
   12SOL    HW2   36   1.479   0.800   0.310  1.7996 -0.6967 -0.3807
   13SOL     OW   37   2.497   0.698   1.783 -0.1225  0.3968 -0.2003
   13SOL    HW1   38   2.406   0.698   1.838  0.7114  0.7520 -1.2435
   13SOL    HW2   39   2.493   0.652   1.688  0.9667  1.1590 -1.7732
   14SOL     OW   40   1.881   0.094   0.696  0.1304  0.5914 -0.4583
   14SOL    HW1   41   1.813   0.093   0.619 -0.0544 -0.1100 -0.6201
   14SOL    HW2   42   1.838   0.051   0.779 -1.1421  2.1204 -2.7195
   15SOL     OW   43   1.993   2.083   2.722  0.3177  0.4680 -0.1452
   15SOL    HW1   44   1.924   2.145   2.763  1.4806 -0.2705 -1.0387
   15SOL    HW2   45   1.953   1.996   2.684 -0.8696 -1.4040  2.6437
   16SOL     OW   46   1.601   1.729   2.979  0.4096 -0.3349 -0.1626
   16SOL    HW1   47   1.627   1.645   3.029 -4.4945  1.6893  3.2771
   16SOL    HW2   48   1.676   1.801   2.978  1.9639 -1.8794  0.0368
   17SOL     OW   49   0.116   0.510   0.209 -0.2330 -0.1003 -0.3364
   17SOL    HW1   50   0.216   0.501   0.179  0.8979 -1.5971 -0.9313
   17SOL    HW2   51   0.051   0.526   0.131 -0.0958  0.3957  3.4877
   18SOL     OW   52   0.951   2.891   2.145  0.3311  0.1307 -0.0007
   18SOL    HW1   53   0.874   2.818   2.137  0.9976 -3.3459 -2.7292
   18SOL    HW2   54   1.018   2.881   2.074  1.5243 -0.7347  3.2488
   19SOL     OW   55   0.526   0.820   1.893  0.6273 -0.2292  0.5412
   19SOL    HW1   56   0.536   0.764   1.974  0.3619 -1.2833 -2.4686
   19SOL    HW2   57   0.606   0.875   1.859 -0.7060  1.6493 -1.4732
   20SOL     OW   58   0.181   2.702   0.820  0.1916 -0.3849 -0.2383
   20SOL    HW1   59   0.119   2.774   0.776  2.7416  0.2384 -1.8880
   20SOL    HW2   60   0.252   2.665   0.752  0.2367 -2.2873 -0.0981
   21SOL     OW   61   2.681   0.246   2.067 -0.3312 -0.1470 -0.7642
   21SOL    HW1   62   2.614   0.207   1.997  0.4653  1.6045 -1.9008
   21SOL    HW2   63   2.755   0.183   2.087 -1.8321  0.7949 -2.7233
   22SOL     OW   64   2.375   0.244   0.168 -0.3721  0.5735  0.2633
   22SOL    HW1   65   2.397   0.150   0.122  0.0882 -1.7745  0.2834
   22SOL    HW2   66   2.289   0.288   0.133  1.1900  0.2339 -0.4713
   23SOL     OW   67   2.791   0.631   0.642  0.0577 -0.5717 -0.5225
   23SOL    HW1   68   2.825   0.540   0.609 -2.8293  2.6381  1.7998
   23SOL    HW2   69   2.774   0.697   0.564  2.5137 -1.5977 -0.5073
   24SOL     OW   70   0.217   1.919   0.378  0.4540 -0.3227  0.4928
   24SOL    HW1   71   0.166   1.966   0.294 -0.9828  0.7052  0.7375
   24SOL    HW2   72   0.314   1.892   0.357 -1.8792  2.5777  0.9068
   25SOL     OW   73   2.208   0.605   0.241  0.5857  0.6089  0.1586
   25SOL    HW1   74   2.224   0.636   0.142  0.6491  1.3658  0.2648
   25SOL    HW2   75   2.257   0.517   0.273 -2.7485  0.8790 -1.6844
   26SOL     OW   76   2.509   2.107   2.073 -0.0777  0.3518 -0.0938
   26SOL    HW1   77   2.572   2.177   2.111 -0.7848 -0.0678  0.3492
   26SOL    HW2   78   2.542   2.049   1.994 -1.6929  3.6210  1.1299
   27SOL     OW   79   0.610   2.952   0.196  0.1797 -0.3975 -0.2211
   27SOL    HW1   80   0.716   2.963   0.203  1.2929  0.6035  0.1820
   27SOL    HW2   81   0.571   2.946   0.099 -1.5824 -2.5781  1.5908
   28SOL     OW   82   1.592   0.183   0.285 -0.0673  0.4371  0.2242
   28SOL    HW1   83   1.654   0.155   0.207  1.1366  1.2098  1.1638
   28SOL    HW2   84   1.607   0.283   0.319 -0.3566 -0.6757  0.2577
   29SOL     OW   85   1.978   0.645   0.402  0.4228  0.1645 -0.5832
   29SOL    HW1   86   1.925   0.737   0.401 -0.6375 -0.4235  2.4211
   29SOL    HW2   87   2.055   0.634   0.334  0.3581 -0.3328 -0.9979
   30SOL     OW   88   0.156   1.970   0.885 -0.3235 -0.0182  0.0233
   30SOL    HW1   89   0.151   1.963   0.785  0.0025  0.9948  0.4957
   30SOL    HW2   90   0.102   2.050   0.924  0.9184 -0.4747 -1.3296
   31SOL     OW   91   2.104   3.088   2.365  0.3747  0.0971  0.4967
   31SOL    HW1   92   2.077   3.119   2.459 -0.7596 -2.5287 -0.0750
   31SOL    HW2   93   2.040   3.020   2.325 -0.7475 -0.1060 -0.1500
   32SOL     OW   94   2.971   0.040   0.197  0.3212 -0.1995  0.8411
   32SOL    HW1   95   2.975  -0.050   0.154 -3.9748  0.2484 -0.3024
   32SOL    HW2   96   3.060   0.093   0.203 -1.6094 -0.7903  2.4016
   33SOL     OW   97   0.943   0.297   0.582 -0.0302 -0.1623 -0.4280
   33SOL    HW1   98   0.892   0.222   0.533  0.4371 -1.5489 -2.0574
   33SOL    HW2   99   1.045   0.285   0.575  0.9607  0.4506  2.3401
   34SOL     OW  100   0.292   2.745   1.099  1.0959  0.2179  0.2501
   34SOL    HW1  101   0.244   2.722   1.012 -1.3963 -0.1935 -0.4588
   34SOL    HW2  102   0.382   2.785   1.089 -0.3601  0.6531  1.7248
   35SOL     OW  103   0.022   0.070   1.908 -0.1265  0.2055  0.3648
   35SOL    HW1  104   0.046  -0.031   1.902  0.8822 -1.5833 -0.0576
   35SOL    HW2  105  -0.017   0.109   1.821 -0.6456 -0.6692 -2.5649
   36SOL     OW  106   1.913   1.208   1.713  0.1160  1.1761 -0.3735
   36SOL    HW1  107   1.979   1.144   1.657  2.3250 -1.7926  0.3448
   36SOL    HW2  108   1.975   1.285   1.739 -0.0348 -0.9884 -0.0826
   37SOL     OW  109   1.173   0.200   0.967 -0.1688  0.4304  0.6408
   37SOL    HW1  110   1.227   0.261   1.033 -0.5846  1.0008  0.6957
   37SOL    HW2  111   1.236   0.158   0.893 -0.9632  0.7966  0.0152
   38SOL     OW  112   1.081   2.816   2.496  0.2909  0.0172  0.0252
   38SOL    HW1  113   1.017   2.741   2.518 -1.8316  1.7582  1.3718
   38SOL    HW2  114   1.033   2.906   2.466  2.8642  0.7764  0.7927
   39SOL     OW  115   2.327   1.412   3.044 -0.3150  0.3306  0.6486
   39SOL    HW1  116   2.402   1.350   3.082 -0.3323  2.5462  0.0196
   39SOL    HW2  117   2.267   1.445   3.119  2.7661  2.3223 -0.4590
   40SOL     OW  118   2.035   2.423   2.538 -0.2083  0.0291 -0.1436
   40SOL    HW1  119   1.992   2.519   2.543 -4.3259 -0.9527  2.5330
   40SOL    HW2  120   1.972   2.364   2.476 -1.1872 -0.0600  0.7832
   41SOL     OW  121   3.045   0.686   2.846  0.6565 -0.3234  0.1682
   41SOL    HW1  122   2.978   0.759   2.877 -0.9319  0.4805 -0.1684
   41SOL    HW2  123   2.995   0.604   2.798 -4.2686  0.6899  2.7972
   42SOL     OW  124   1.792   1.736   0.488 -0.0325 -0.0068  0.4303
   42SOL    HW1  125   1.745   1.642   0.494  1.0744 -4.7325  0.9205
   42SOL    HW2  126   1.786   1.782   0.392 -0.3746  1.1234 -1.4583
   43SOL     OW  127   0.460   1.654   1.138  0.1608  0.2189 -0.3280
   43SOL    HW1  128   0.456   1.587   1.213  0.9025  2.5271  2.7337
   43SOL    HW2  129   0.362   1.669   1.096  0.0091 -0.1752  1.9125
   44SOL     OW  130   1.753   2.495   3.013 -0.3559 -0.3590  0.0694
   44SOL    HW1  131   1.772   2.589   2.976 -0.3513 -1.9404  0.4181
   44SOL    HW2  132   1.770   2.416   2.950  0.2317  0.7226  0.2496
   45SOL     OW  133   0.398   1.934   2.608 -0.2308 -0.0734  0.4889
   45SOL    HW1  134   0.371   1.924   2.509 -1.0707 -0.4827  1.9848
   45SOL    HW2  135   0.453   1.850   2.647 -1.2908 -2.9021 -0.2655
   46SOL     OW  136   1.242   0.676   0.184  0.0483  0.0272 -0.2440
   46SOL    HW1  137   1.281   0.751   0.130 -1.7528 -2.0262 -0.5638
   46SOL    HW2  138   1.139   0.680   0.180 -1.7046 -1.6172 -2.3031
   47SOL     OW  139   0.218   2.512   1.548 -0.3504 -0.2479 -0.3838
   47SOL    HW1  140   0.152   2.428   1.550  2.6750 -1.3716  0.4529
   47SOL    HW2  141   0.220   2.549   1.452 -3.0379  0.3209  0.4007
   48SOL     OW  142   2.648   0.643   0.124 -0.3949 -0.2632  0.0907
   48SOL    HW1  143   2.664   0.616   0.220 -0.1935 -0.9524 -1.8215
   48SOL    HW2  144   2.737   0.674   0.075  1.2580  0.7502 -1.6037
   49SOL     OW  145   0.288   0.799   1.764 -0.1790 -0.2753  0.0479
   49SOL    HW1  146   0.369   0.803   1.828 -1.3728  1.2073  2.3279
   49SOL    HW2  147   0.314   0.740   1.680  2.9806  0.0890  1.5738
   50SOL     OW  148   1.681   1.137   0.347  0.1669  0.0053 -0.1112
   50SOL    HW1  149   1.655   1.040   0.320 -1.4144  1.0491  0.9177
   50SOL    HW2  150   1.607   1.161   0.416  0.7658 -1.5781  0.5662
   51SOL     OW  151   2.864   1.785   0.260  0.1338 -0.6500 -0.6944
   51SOL    HW1  152   2.818   1.698   0.228  2.2573  1.3924  1.2077
   51SOL    HW2  153   2.931   1.762   0.332 -1.9483 -2.9050  1.4559
   52SOL     OW  154   0.769   2.021   0.520 -0.1406  0.1824  0.4203
   52SOL    HW1  155   0.674   2.039   0.559  1.9560  0.7812  0.7897
   52SOL    HW2  156   0.811   1.952   0.580 -1.3527  0.8227  1.2085
   53SOL     OW  157   0.190   0.429   1.583 -0.0492 -0.0920  0.2781
   53SOL    HW1  158   0.277   0.485   1.595 -0.1679 -0.2334  1.9398
   53SOL    HW2  159   0.102   0.482   1.562  0.3534  1.3608 -0.6268
   54SOL     OW  160   1.789   0.510   3.079 -0.4117  0.2119  0.4196
   54SOL    HW1  161   1.853   0.472   3.154  2.6476 -1.0594 -2.2744
   54SOL    HW2  162   1.695   0.473   3.082  1.1687  3.0944 -2.9834
   55SOL     OW  163   0.737   2.861   0.680 -0.3299 -0.2095 -0.0961
   55SOL    HW1  164   0.698   2.952   0.720  0.7271 -0.4193 -0.2931
   55SOL    HW2  165   0.815   2.870   0.610  0.5533 -1.5517  1.1833
   56SOL     OW  166   0.572   1.575   0.021  0.2020 -0.6149 -0.3263
   56SOL    HW1  167   0.478   1.613   0.039  0.3131  0.0407 -0.8908
   56SOL    HW2  168   0.571   1.489  -0.041  0.4290  1.1004  1.0716
   57SOL     OW  169   1.743   2.513   2.440  0.4945  0.1741 -0.3485
   57SOL    HW1  170   1.769   2.420   2.411  1.3790 -1.7673 -2.9830
   57SOL    HW2  171   1.654   2.509   2.497  1.6787 -2.5793 -2.2538
   58SOL     OW  172   0.671   0.274   1.064  0.0685  0.7276 -0.2156
   58SOL    HW1  173   0.575   0.282   1.087  1.2153 -0.3168  1.7481
   58SOL    HW2  174   0.703   0.179   1.049  1.0662 -1.0884  1.8157
   59SOL     OW  175   0.453   2.418   2.722  0.0437 -0.5403  0.3936
   59SOL    HW1  176   0.474   2.329   2.673 -0.9697 -3.3564 -0.6115
   59SOL    HW2  177   0.537   2.450   2.773 -2.5734  1.1556  1.9139
   60SOL     OW  178   2.295   2.055   2.232  0.1166 -0.0227  0.2797
   60SOL    HW1  179   2.366   2.071   2.163  2.0450  0.1104  0.6613
   60SOL    HW2  180   2.326   2.078   2.324  0.8680  0.5366 -1.8737
   61SOL     OW  181   1.324   0.657   0.507  0.5618 -0.1789 -0.2416
   61SOL    HW1  182   1.238   0.703   0.552  1.6354  1.0295  1.5817
   61SOL    HW2  183   1.312   0.649   0.404  0.9606  1.5009 -1.0507
   62SOL     OW  184   2.749   1.816   2.928 -0.8203 -0.2245  0.0822
   62SOL    HW1  185   2.693   1.731   2.917  0.7329  1.1892  2.6008
   62SOL    HW2  186   2.834   1.827   2.872  0.1961 -0.7675  1.2024
   63SOL     OW  187   0.555   0.838   0.194 -0.2362 -0.7743 -0.5196
   63SOL    HW1  188   0.583   0.928   0.144  1.1726  0.3288  0.8085
   63SOL    HW2  189   0.607   0.818   0.285  0.1605 -0.6776  1.3506
   64SOL     OW  190   0.076   0.475   2.450 -0.3758  0.0801 -0.3453
   64SOL    HW1  191   0.175   0.503   2.447 -1.7880 -2.4428 -0.7737
   64SOL    HW2  192   0.026   0.527   2.381  1.5957  1.9242  0.9560
   65SOL     OW  193   0.141   1.527   0.546 -0.3061 -0.0547  0.4831
   65SOL    HW1  194   0.177   1.547   0.640 -0.4810 -0.0574  0.7679
   65SOL    HW2  195   0.217   1.508   0.483  0.5623 -2.0013  2.8203
   66SOL     OW  196   2.556   0.357   0.610 -0.2377  0.1244 -0.2634
   66SOL    HW1  197   2.653   0.362   0.655  2.1531 -0.2620 -0.8431
   66SOL    HW2  198   2.491   0.309   0.678 -1.0747 -0.7116  0.3761
   67SOL     OW  199   0.549   2.522   1.408  0.6056 -0.5017  0.4325
   67SOL    HW1  200   0.616   2.510   1.485  1.5666  0.2793  1.8082
   67SOL    HW2  201   0.497   2.438   1.382 -1.4562  1.0505 -0.3383
   68SOL     OW  202   0.986   1.074   2.471 -0.3972  0.1962 -0.2408
   68SOL    HW1  203   1.054   0.995   2.472 -0.6565  1.6211  0.0696
   68SOL    HW2  204   0.913   1.063   2.396  1.3158 -0.3948  1.1487
   69SOL     OW  205   0.714   2.729   2.150  0.0733 -0.2796 -0.7123
   69SOL    HW1  206   0.740   2.631   2.156  0.4268  1.0135  0.1907
   69SOL    HW2  207   0.613   2.744   2.168 -2.5996 -0.8723  3.1305
   70SOL     OW  208   0.529   0.285   2.664 -0.5271 -0.1508 -0.4192
   70SOL    HW1  209   0.444   0.312   2.714 -1.9354  0.7141 -0.1306
   70SOL    HW2  210   0.541   0.180   2.673  0.6948 -1.2582 -0.7467
   71SOL     OW  211   1.107   1.769   0.462 -0.3200  0.4491 -0.6260
   71SOL    HW1  212   1.097   1.686   0.515  0.4620  1.1176  1.4404
   71SOL    HW2  213   1.037   1.774   0.385  0.3590  1.4441  1.1911
   72SOL     OW  214   1.831   0.206   2.158  0.4093 -0.2030 -0.3410
   72SOL    HW1  215   1.914   0.259   2.191 -4.5923 -0.8056 -0.8630
   72SOL    HW2  216   1.839   0.101   2.169  0.5117 -1.0861  1.9726
   73SOL     OW  217   2.805   2.151   2.400  0.1852 -0.3207  0.1409
   73SOL    HW1  218   2.825   2.052   2.358  0.6594 -4.7925  0.3065
   73SOL    HW2  219   2.840   2.166   2.494 -0.7997  0.3704 -0.6571
   74SOL     OW  220   2.675   2.879   2.121  0.5202 -0.2516  0.0147
   74SOL    HW1  221   2.616   2.893   2.202  2.5387 -1.0123 -3.8134
   74SOL    HW2  222   2.776   2.891   2.148  1.2260 -3.2181  2.2104
   75SOL     OW  223   0.895   0.821   1.093  0.7713  0.4343  0.0791
   75SOL    HW1  224   0.812   0.874   1.054 -1.6074 -1.8623  3.1131
   75SOL    HW2  225   0.936   0.867   1.178 -2.2700  2.0510 -1.7134
   76SOL     OW  226   1.705   1.176   2.507  0.6006  0.4951 -0.1412
   76SOL    HW1  227   1.604   1.150   2.518  1.1451  0.1885 -0.0468
   76SOL    HW2  228   1.730   1.259   2.572 -3.0370  2.1331  3.9646
   77SOL     OW  229   2.958   0.928   0.957 -0.0108  0.6976  0.0598
   77SOL    HW1  230   2.906   0.841   0.982 -2.3445  0.8407  1.1496
   77SOL    HW2  231   3.034   0.955   1.020  1.0052 -1.1242  0.1969
   78SOL     OW  232   2.032   1.484   1.488 -0.2445 -0.2927  0.1433
   78SOL    HW1  233   2.129   1.493   1.454 -0.4013  3.6916 -0.7307
   78SOL    HW2  234   1.963   1.486   1.410 -1.2334 -0.8964  0.0647
   79SOL     OW  235   0.607   1.379   0.829  0.7037 -0.0895 -0.1175
   79SOL    HW1  236   0.516   1.357   0.878 -0.3873 -0.1586  1.2405
   79SOL    HW2  237   0.598   1.364   0.727  1.5553 -1.0736  2.9261
   80SOL     OW  238   0.605   0.503   1.583 -0.1952 -0.3024 -0.4746
   80SOL    HW1  239   0.672   0.558   1.522  1.7689 -0.3542  0.7667
   80SOL    HW2  240   0.612   0.403   1.562 -2.7538 -0.3809 -2.2847
   81SOL     OW  241   1.039   1.380   2.644 -0.1884 -0.7735 -0.1780
   81SOL    HW1  242   1.035   1.276   2.639 -0.6474 -0.2728  0.8367
   81SOL    HW2  243   0.970   1.415   2.572  0.0538  1.5343 -1.2854
   82SOL     OW  244   0.997   2.978   1.508 -0.4830  0.5212 -0.3537
   82SOL    HW1  245   0.933   3.032   1.450  0.1475 -1.1120 -0.9083
   82SOL    HW2  246   0.975   2.878   1.507  0.4698 -0.9771 -2.0672
   83SOL     OW  247   2.717   2.431   0.852 -0.6772 -0.7803 -0.4600
   83SOL    HW1  248   2.630   2.387   0.814  0.0571  0.2884  0.3139
   83SOL    HW2  249   2.726   2.536   0.841 -0.9308  2.8001 -0.1950
   84SOL     OW  250   0.654   3.030   2.355 -0.3429  0.2333 -0.1427
   84SOL    HW1  251   0.592   3.050   2.438  1.8696 -1.0744 -0.9559
   84SOL    HW2  252   0.700   2.937   2.352  0.4118 -0.6229  1.1072
   85SOL     OW  253   0.267   1.570   1.483 -0.0066  0.9695 -0.0527
   85SOL    HW1  254   0.272   1.672   1.478  3.0780 -0.5800  2.6864
   85SOL    HW2  255   0.327   1.538   1.558  0.6097 -0.3144 -2.0246
   86SOL     OW  256   0.409   0.987   1.539  0.5126  0.0765  0.4084
   86SOL    HW1  257   0.373   0.957   1.444  0.6361 -2.6003 -0.8393
   86SOL    HW2  258   0.386   0.920   1.614  1.2532 -1.8122 -1.1314
   87SOL     OW  259   1.559   0.644   0.212 -0.1512 -0.3279  0.0817
   87SOL    HW1  260   1.651   0.694   0.201  0.1978 -1.1325  1.2095
   87SOL    HW2  261   1.538   0.572   0.134  0.5961 -2.2920 -1.5488
   88SOL     OW  262   1.569   1.392   0.243  0.2078  0.1681  0.2072
   88SOL    HW1  263   1.630   1.307   0.257  1.3114 -0.9743  1.3134
   88SOL    HW2  264   1.472   1.369   0.212  0.4793 -1.6452  2.3187
   89SOL     OW  265   3.092   0.460   0.578 -0.2060 -0.0151  0.0446
   89SOL    HW1  266   3.168   0.393   0.581  0.5548 -1.6010 -1.1498
   89SOL    HW2  267   2.997   0.421   0.579 -2.1103  0.7785 -0.4469
   90SOL     OW  268   0.911   1.566   0.074 -0.0898 -0.2234  0.3611
   90SOL    HW1  269   0.851   1.517   0.144 -2.2009  1.8585  1.5510
   90SOL    HW2  270   0.870   1.570  -0.020  2.6377 -1.0799  0.2768
   91SOL     OW  271   1.236   1.435   1.850  0.6232  0.1316  0.3576
   91SOL    HW1  272   1.211   1.527   1.885 -0.1695 -3.6462  3.0659
   91SOL    HW2  273   1.327   1.428   1.805  0.2450  0.6672 -1.1469
   92SOL     OW  274   3.080   0.959   1.230 -0.1154 -0.2645  0.0214
   92SOL    HW1  275   3.136   1.032   1.181  1.1702 -0.5943  0.6914
   92SOL    HW2  276   3.096   0.964   1.334 -2.0093 -0.2026  1.2532
   93SOL     OW  277   0.033   2.717   3.045 -0.0134  0.2948  0.0465
   93SOL    HW1  278  -0.039   2.705   2.972 -0.5980 -0.4870  0.5166
   93SOL    HW2  279   0.059   2.625   3.087 -1.7188  0.9064  2.6018
   94SOL     OW  280   1.503   1.487   1.735 -0.6100 -0.0671 -0.1808
   94SOL    HW1  281   1.574   1.414   1.751  0.0536 -0.6843 -1.5464
   94SOL    HW2  282   1.513   1.552   1.816 -1.3308 -0.2336 -1.5142
   95SOL     OW  283   1.400   2.520   2.976  0.9010 -0.3979 -0.3535
   95SOL    HW1  284   1.307   2.522   3.028  0.8613 -1.3110  3.4682
   95SOL    HW2  285   1.418   2.429   2.929  1.5175  1.3050  1.3822
   96SOL     OW  286   0.551   2.117   1.237 -0.1362  0.4220 -0.1199
   96SOL    HW1  287   0.506   2.088   1.152  0.0896  2.0006  0.5044
   96SOL    HW2  288   0.600   2.040   1.284 -0.1753  1.1992 -0.9887
   97SOL     OW  289   0.449   1.620   2.484  0.3649  0.4871 -0.2364
   97SOL    HW1  290   0.352   1.626   2.444  0.5227  3.5202  0.1388
   97SOL    HW2  291   0.458   1.636   2.585 -0.9022 -0.3423  1.7154
   98SOL     OW  292   2.024   1.598   1.201 -0.0902  0.3378 -0.1709
   98SOL    HW1  293   1.929   1.554   1.214  0.7775 -2.8069  4.0842
   98SOL    HW2  294   2.092   1.535   1.149  3.0233  0.2540 -0.6658
   99SOL     OW  295   2.502   2.046   1.321  0.1656 -0.1974 -0.7089
   99SOL    HW1  296   2.493   2.089   1.415  0.3382 -0.2365 -0.6037
   99SOL    HW2  297   2.452   1.955   1.311 -0.4849  0.0136 -2.1642
  100SOL     OW  298   2.386   0.306   2.124 -0.1168  0.0850  0.2940
  100SOL    HW1  299   2.304   0.294   2.188  2.0360 -0.6307  0.6254
  100SOL    HW2  300   2.456   0.381   2.154 -2.9366 -1.3173  3.2643
  101SOL     OW  301   0.395   1.470   0.435 -0.0867 -0.5034 -0.0567
  101SOL    HW1  302   0.415   1.499   0.534 -2.1312  0.4448  0.1122
  101SOL    HW2  303   0.484   1.474   0.378  3.6587 -3.0285  1.2855
  102SOL     OW  304   2.246   1.033   0.856 -0.4481  0.0796 -0.0236
  102SOL    HW1  305   2.177   0.964   0.839  0.8360 -0.1147  1.0150
  102SOL    HW2  306   2.297   1.067   0.770  1.7885  0.0910 -1.7488
  103SOL     OW  307   2.260   0.079   0.411  0.2586  0.2886  0.3702
  103SOL    HW1  308   2.257   0.184   0.398 -0.5063  2.2354 -0.9780
  103SOL    HW2  309   2.347   0.041   0.446 -1.3305 -0.7806  1.5002
  104SOL     OW  310   0.074   1.766   2.197  0.6655  0.2041 -0.3381
  104SOL    HW1  311   0.114   1.715   2.115  0.6346  0.3741  0.8825
  104SOL    HW2  312  -0.020   1.802   2.165 -2.6009 -0.6871 -1.9187
  105SOL     OW  313   1.249   2.086   0.787  0.6892  0.0723 -0.1866
  105SOL    HW1  314   1.161   2.100   0.734 -1.2000 -1.8185  1.0664
  105SOL    HW2  315   1.283   1.990   0.775  2.1691 -0.7399  1.6975
  106SOL     OW  316   2.088   0.419   1.402  0.0947 -0.1975  0.0921
  106SOL    HW1  317   2.033   0.330   1.395 -1.8384  0.6226  0.5448
  106SOL    HW2  318   2.109   0.448   1.501 -1.7879  0.3733  1.4049
  107SOL     OW  319   1.816   2.984   1.186 -0.0230 -1.1026  0.8077
  107SOL    HW1  320   1.822   3.071   1.245  0.3230 -0.5010  0.5955
  107SOL    HW2  321   1.729   2.929   1.208  0.7056  1.7087  0.7798
  108SOL     OW  322   0.758   2.761   1.266  0.2988 -0.2708  0.2673
  108SOL    HW1  323   0.727   2.735   1.360 -1.3790  0.9215 -1.2602
  108SOL    HW2  324   0.860   2.775   1.260  0.3043 -0.8181  0.0041
  109SOL     OW  325   2.132   0.098   0.803  0.3729 -0.0373  0.1869
  109SOL    HW1  326   2.033   0.097   0.768  0.3694 -0.0107 -0.8381
  109SOL    HW2  327   2.134   0.060   0.901 -1.5134 -0.4970 -0.6166
  110SOL     OW  328   0.449   2.839   2.786  0.3343  0.3435 -0.6124
  110SOL    HW1  329   0.449   2.829   2.683 -0.3113 -0.5778  1.1586
  110SOL    HW2  330   0.521   2.786   2.827 -3.0604  0.5498 -0.4108
  111SOL     OW  331   1.310   0.528   2.312 -0.4944 -0.8324 -0.0210
  111SOL    HW1  332   1.227   0.572   2.352  1.9158  1.0098  1.7685
  111SOL    HW2  333   1.351   0.452   2.376  0.1343 -1.8429  0.2369
  112SOL     OW  334   1.664   0.518   1.445 -0.1055 -0.2757  0.1746
  112SOL    HW1  335   1.695   0.487   1.352 -1.2849 -0.7965  1.5466
  112SOL    HW2  336   1.653   0.435   1.504 -1.7964 -2.0432 -3.3439
  113SOL     OW  337   2.309   1.675   1.763  0.0462  0.7114  0.2143
  113SOL    HW1  338   2.361   1.593   1.722 -0.4880 -1.2326  0.5238
  113SOL    HW2  339   2.306   1.682   1.867 -1.5998  0.3678  0.6244
  114SOL     OW  340   0.408   0.554   1.262 -0.1961  0.0275  0.5507
  114SOL    HW1  341   0.416   0.593   1.168 -0.9969 -0.1615 -0.2791
  114SOL    HW2  342   0.311   0.549   1.279  1.6996 -0.3872 -0.7804
  115SOL     OW  343   2.728   1.606   1.208 -0.1187  0.2557 -0.5838
  115SOL    HW1  344   2.751   1.501   1.210 -1.8321  1.4201 -0.2688
  115SOL    HW2  345   2.784   1.657   1.139  1.6656  1.8760 -0.6844
  116SOL     OW  346   1.801   1.065   0.665  0.2384  0.0268 -0.8935
  116SOL    HW1  347   1.732   0.994   0.629 -2.8151  0.3322  0.8095
  116SOL    HW2  348   1.762   1.150   0.712 -1.3082  0.9915  0.3508
  117SOL     OW  349   1.217   0.355   0.568 -0.2605 -0.7013 -0.0071
  117SOL    HW1  350   1.240   0.440   0.620 -0.5816 -0.5785  0.8104
  117SOL    HW2  351   1.233   0.356   0.465 -1.5967 -1.1991  3.9783
  118SOL     OW  352   1.171   1.090   1.118  0.3244 -0.8409 -0.1666
  118SOL    HW1  353   1.115   1.033   1.190  0.2206  1.0986  2.4317
  118SOL    HW2  354   1.190   1.189   1.144  2.5789  1.4568  1.1768
  119SOL     OW  355   1.820   1.605   2.174  0.1742  0.5700  0.0686
  119SOL    HW1  356   1.782   1.702   2.192 -0.9840 -1.0944 -1.1457
  119SOL    HW2  357   1.922   1.601   2.159  0.1024  1.6416  2.3302
  120SOL     OW  358   2.956   2.881   0.119  0.1049 -0.3425  0.3665
  120SOL    HW1  359   3.013   2.851   0.036 -1.2391 -1.8508  0.7098
  120SOL    HW2  360   2.873   2.825   0.132 -0.3499 -0.7934 -2.5777
  121SOL     OW  361   2.003   0.749   2.208  0.0314 -0.1952  0.6414
  121SOL    HW1  362   2.005   0.795   2.116  0.3482  0.5078 -0.4628
  121SOL    HW2  363   2.032   0.649   2.206  1.0868  1.7785  2.3271
  122SOL     OW  364   2.583   2.630   1.274 -0.3576 -0.8470  0.2877
  122SOL    HW1  365   2.624   2.544   1.246 -0.0646  1.3077  1.7786
  122SOL    HW2  366   2.483   2.644   1.245 -0.5323  1.6417 -0.4292
  123SOL     OW  367   1.737   0.080   1.689  0.1590 -0.1474 -0.2536
  123SOL    HW1  368   1.743   0.001   1.626  0.9490  1.0081 -1.9283
  123SOL    HW2  369   1.835   0.112   1.724 -0.3786  2.6009  0.6878
  124SOL     OW  370   0.079   0.474   1.096 -0.0910 -0.2538  0.1902
  124SOL    HW1  371   0.077   0.562   1.156 -1.8723 -2.2939 -2.0649
  124SOL    HW2  372   0.066   0.500   1.000 -0.7749  2.0139  2.2986
  125SOL     OW  373   0.864   1.833   0.692 -0.0869  0.2959  0.1890
  125SOL    HW1  374   0.951   1.815   0.748 -0.5877  0.9252 -0.9132
  125SOL    HW2  375   0.791   1.866   0.755  1.0554  1.3527  0.3782
  126SOL     OW  376   1.856   2.274   2.384 -0.2259  0.2986 -0.9039
  126SOL    HW1  377   1.894   2.243   2.293  0.7158  0.2022  0.6164
  126SOL    HW2  378   1.801   2.205   2.435 -0.4724 -1.5715 -1.2408
  127SOL     OW  379   1.029   0.899   0.253  0.1220  0.1555 -0.2723
  127SOL    HW1  380   1.025   0.956   0.341 -0.6093  0.9072 -1.6361
  127SOL    HW2  381   0.986   0.806   0.264 -2.3228 -1.0110 -1.2005
  128SOL     OW  382   0.945   0.214   1.393  1.0722 -0.5079  0.1117
  128SOL    HW1  383   0.910   0.289   1.326  0.0557  1.7643 -3.9676
  128SOL    HW2  384   0.911   0.123   1.363 -1.3194  2.2030 -0.8839
  129SOL     OW  385   1.836   0.670   1.881 -0.0566 -0.7069 -0.1416
  129SOL    HW1  386   1.845   0.683   1.784  0.5281 -1.0728  0.8753
  129SOL    HW2  387   1.870   0.751   1.938 -0.5787 -0.8820 -0.7742
  130SOL     OW  388   1.384   2.179   1.008 -0.1343 -0.2969 -0.3421
  130SOL    HW1  389   1.321   2.150   0.930  2.6032  0.8171 -1.2518
  130SOL    HW2  390   1.460   2.230   0.964  1.4804  1.4462  0.7117
  131SOL     OW  391   3.030   1.446   1.398 -0.5404 -0.4906 -0.2979
  131SOL    HW1  392   2.993   1.356   1.429 -0.8042  0.4252  0.3876
  131SOL    HW2  393   3.132   1.438   1.400 -1.8205 -1.5913 -0.5198
  132SOL     OW  394   2.054   2.432   0.527 -0.2370 -0.1817 -0.2790
  132SOL    HW1  395   1.960   2.467   0.547 -0.8239  0.0724  3.1313
  132SOL    HW2  396   2.065   2.332   0.557  0.1014  2.7352 -0.8135
  133SOL     OW  397   1.851   2.331   2.800 -0.6228  0.1248 -0.9306
  133SOL    HW1  398   1.795   2.308   2.719  0.3819 -2.0595 -1.3750
  133SOL    HW2  399   1.943   2.362   2.763 -1.0395 -1.5058  0.7898
  134SOL     OW  400   2.652   2.347   1.591 -0.1274 -0.5215 -0.5199
  134SOL    HW1  401   2.577   2.349   1.664  1.8803 -1.3495  1.2488
  134SOL    HW2  402   2.713   2.431   1.598  0.4309 -0.1038  0.6561
  135SOL     OW  403   0.657   1.462   2.636  0.5930  0.1287 -0.1648
  135SOL    HW1  404   0.594   1.390   2.674  0.2553  0.5918 -0.6650
  135SOL    HW2  405   0.732   1.418   2.569 -1.7330 -1.3089 -2.4969
  136SOL     OW  406   1.220   2.026   0.423 -0.4289 -0.1746  0.2775
  136SOL    HW1  407   1.143   2.088   0.448 -2.5565 -0.6813  1.9109
  136SOL    HW2  408   1.192   1.927   0.432 -0.5890 -0.3375 -1.5717
  137SOL     OW  409   0.402   1.197   2.150 -0.1332  0.3093  0.2374
  137SOL    HW1  410   0.317   1.174   2.213 -0.3442 -2.3534  0.1580
  137SOL    HW2  411   0.482   1.130   2.163 -0.1415 -3.6635  0.1224
  138SOL     OW  412   2.495   1.487   0.236  0.1628 -0.0446  0.2210
  138SOL    HW1  413   2.401   1.446   0.229  2.2874 -2.3572  0.2727
  138SOL    HW2  414   2.563   1.426   0.287 -1.5381 -1.3948  2.0090
  139SOL     OW  415   1.843   2.596   1.315  0.3178 -0.1793  0.4083
  139SOL    HW1  416   1.740   2.605   1.315  1.3687  2.3543  2.9083
  139SOL    HW2  417   1.877   2.502   1.334  2.9220 -0.5682 -1.3479
  140SOL     OW  418   3.047   3.012   2.551 -0.4307  0.0416  0.0917
  140SOL    HW1  419   3.101   2.923   2.535  2.9363 -0.3943 -0.3212
  140SOL    HW2  420   3.113   3.094   2.562  0.3263  0.3388 -0.2205
  141SOL     OW  421   1.343   1.657   1.607 -0.0653  0.2698  0.3242
  141SOL    HW1  422   1.250   1.682   1.650 -1.0829 -1.4445  0.9092
  141SOL    HW2  423   1.396   1.594   1.670 -1.4985 -2.8668 -1.2252
  142SOL     OW  424   1.569   0.613   2.260 -0.5248  0.1862  0.0493
  142SOL    HW1  425   1.567   0.598   2.159  1.4552 -0.4324 -0.4961
  142SOL    HW2  426   1.471   0.618   2.290  2.0291  1.8427 -0.9006
  143SOL     OW  427   2.687   0.887   0.503 -0.3199 -0.2532  0.2106
  143SOL    HW1  428   2.735   0.928   0.419  2.0830  0.0776 -1.9833
  143SOL    HW2  429   2.745   0.905   0.593  1.7660 -2.2849  1.4328
  144SOL     OW  430   2.913   1.179   1.466  0.3244  0.3277  0.2193
  144SOL    HW1  431   2.835   1.170   1.530  1.1161  2.5723 -0.9119
  144SOL    HW2  432   2.988   1.111   1.472 -1.2875  2.3202  1.7952
  145SOL     OW  433   0.972   1.829   0.212  0.1716  0.3530  0.6669
  145SOL    HW1  434   1.044   1.879   0.158 -0.2238  0.2946 -0.2828
  145SOL    HW2  435   0.961   1.735   0.169  0.4745 -0.0350 -0.6107
  146SOL     OW  436   2.516   0.635   1.490 -0.2703 -0.1606 -0.4573
  146SOL    HW1  437   2.504   0.542   1.452 -0.5231 -1.6799  3.6362
  146SOL    HW2  438   2.460   0.699   1.436 -0.4728 -1.4249  1.1283
  147SOL     OW  439   1.117   2.483   0.620  0.1917 -0.2697 -0.9252
  147SOL    HW1  440   1.097   2.558   0.546  1.7364  1.9955  0.7127
  147SOL    HW2  441   1.209   2.438   0.589  3.5066 -2.8460 -0.2165
  148SOL     OW  442   1.623   1.468   3.084  0.3481 -0.0087  0.8335
  148SOL    HW1  443   1.616   1.391   3.016  0.0646 -0.1413 -0.2236
  148SOL    HW2  444   1.577   1.436   3.168 -0.6879 -1.1523 -0.8763
  149SOL     OW  445   0.705   1.391   1.988 -0.0845  0.1298  0.2187
  149SOL    HW1  446   0.604   1.368   1.993  0.5216  2.6820 -0.3505
  149SOL    HW2  447   0.751   1.359   1.902 -1.3712  2.2292  0.8272
  150SOL     OW  448   3.009   1.221   0.942  0.2072  0.2168 -0.2382
  150SOL    HW1  449   3.079   1.259   1.012 -0.2824  2.2782  2.1542
  150SOL    HW2  450   2.996   1.116   0.945 -3.5364 -0.9282  1.8053
  151SOL     OW  451   0.148   0.700   2.092 -0.1989 -0.6473 -0.7616
  151SOL    HW1  452   0.128   0.784   2.033  2.4769 -0.3537 -1.3521
  151SOL    HW2  453   0.185   0.616   2.039 -0.7476 -2.2892  0.7939
  152SOL     OW  454   1.464   1.780   1.280  0.2569  0.0078 -0.8391
  152SOL    HW1  455   1.522   1.863   1.264  1.8532  2.3309  0.5230
  152SOL    HW2  456   1.366   1.792   1.251  1.8606  0.9042  0.1587
  153SOL     OW  457   0.080   1.561   0.152  0.5079  0.6416  0.3036
  153SOL    HW1  458   0.062   1.458   0.161 -0.7497  0.7723  1.0610
  153SOL    HW2  459   0.033   1.624   0.218  2.7027  3.0701 -2.8890
  154SOL     OW  460   2.384   1.820   2.828 -0.0264 -0.0175  0.1615
  154SOL    HW1  461   2.417   1.730   2.856  0.4781  0.3192 -0.5474
  154SOL    HW2  462   2.434   1.858   2.748 -0.8856  0.1587  1.5297
  155SOL     OW  463   2.467   1.196   0.398  0.0472  0.0741  0.1734
  155SOL    HW1  464   2.515   1.114   0.354  2.1202 -0.5914  2.6833
  155SOL    HW2  465   2.377   1.211   0.349 -1.5029 -0.5912 -0.9328
  156SOL     OW  466   2.554   0.972   0.831 -0.1035 -0.3925 -0.1147
  156SOL    HW1  467   2.474   1.005   0.885 -1.8182 -1.0674 -0.0126
  156SOL    HW2  468   2.547   1.010   0.732  1.2617 -0.7090 -1.1244
  157SOL     OW  469   1.250   2.936   3.003 -0.1828  0.0670 -0.5792
  157SOL    HW1  470   1.339   2.898   2.971 -3.1090  0.6917  1.7957
  157SOL    HW2  471   1.253   3.041   3.016 -1.3693  0.5871 -0.9652
  158SOL     OW  472   0.971   1.846   1.912 -0.0883  0.2469 -0.2284
  158SOL    HW1  473   0.993   1.946   1.886  1.0881  1.0479 -2.1118
  158SOL    HW2  474   0.877   1.832   1.963 -0.8406  1.3484  0.8485
  159SOL     OW  475   0.869   0.388   1.218  0.6299  0.2421 -0.2621
  159SOL    HW1  476   0.840   0.471   1.267 -0.6115  0.0100 -0.8672
  159SOL    HW2  477   0.792   0.353   1.158  0.8454 -1.4117  2.4947
  160SOL     OW  478   1.414   2.373   1.584 -0.2538  0.6633  0.3015
  160SOL    HW1  479   1.337   2.302   1.610  0.3685 -0.3528  0.2852
  160SOL    HW2  480   1.497   2.328   1.544 -1.0450  1.2108  0.3852
  161SOL     OW  481   0.080   2.949   0.385  0.2981  0.0520  0.8841
  161SOL    HW1  482  -0.003   2.897   0.364  0.9503  1.9825 -1.1935
  161SOL    HW2  483   0.084   3.035   0.327 -1.9101 -1.1458 -0.7974
  162SOL     OW  484   2.579   1.881   0.483 -0.1815  0.1458  0.3834
  162SOL    HW1  485   2.571   1.845   0.384 -1.0781  0.0915 -1.6475
  162SOL    HW2  486   2.548   1.814   0.554 -1.7245 -0.1517  3.8410
  163SOL     OW  487   1.919   2.816   0.716  0.1384 -0.4279  0.1737
  163SOL    HW1  488   1.929   2.834   0.614  0.8071 -1.9094  0.0973
  163SOL    HW2  489   1.987   2.747   0.747 -1.1383 -0.3919 -1.5094
  164SOL     OW  490   3.050   0.233   1.250 -0.1479 -0.3970  0.3515
  164SOL    HW1  491   3.078   0.316   1.189  0.6889 -0.7165  2.2911
  164SOL    HW2  492   3.130   0.201   1.313 -2.4909 -1.2296 -1.6874
  165SOL     OW  493   0.963   1.386   0.729 -0.7479 -0.9691 -0.3144
  165SOL    HW1  494   0.942   1.451   0.811 -0.8123 -0.0930  0.4064
  165SOL    HW2  495   0.966   1.447   0.648  1.1245  0.7866 -1.1570
  166SOL     OW  496   1.540   1.068   1.742  0.1441  0.3688  0.0089
  166SOL    HW1  497   1.469   1.035   1.806  0.8776  1.8268 -0.3486
  166SOL    HW2  498   1.581   1.157   1.770 -2.1639  0.3248 -0.0769
  167SOL     OW  499   0.731   2.005   1.425  0.1121 -0.1282  0.5436
  167SOL    HW1  500   0.747   2.086   1.490 -0.2166 -0.5874 -0.9440
  167SOL    HW2  501   0.680   1.929   1.471  3.2289  0.4499  1.6771
  168SOL     OW  502   1.659   2.358   0.156 -0.7174  0.1554 -0.0224
  168SOL    HW1  503   1.713   2.391   0.081 -2.7780 -1.3073  1.7288
  168SOL    HW2  504   1.701   2.357   0.247  2.6955  1.4581 -3.2232
  169SOL     OW  505   0.223   2.558   2.235  0.3064 -0.3951 -0.6725
  169SOL    HW1  506   0.236   2.522   2.140 -3.2656  0.5763  1.6708
  169SOL    HW2  507   0.187   2.493   2.306 -0.7469  0.0354 -1.9833
  170SOL     OW  508   1.124   0.202   2.046 -0.2862 -0.0272 -0.0563
  170SOL    HW1  509   1.207   0.198   2.108 -3.5277 -2.0890 -1.1807
  170SOL    HW2  510   1.150   0.178   1.953 -1.2695  0.6265  1.5362
  171SOL     OW  511   0.186   0.778   2.366 -0.1041  0.1887 -0.3481
  171SOL    HW1  512   0.096   0.817   2.412  0.3680 -2.3004  1.8310
  171SOL    HW2  513   0.166   0.761   2.265  0.9230 -1.9964 -0.2558
  172SOL     OW  514   0.948   1.019   2.860  0.2741  0.3100 -0.0520
  172SOL    HW1  515   0.990   1.111   2.889  0.7046  1.5826 -0.7122
  172SOL    HW2  516   0.884   1.028   2.778  2.4365  0.1751 -1.0205
  173SOL     OW  517   0.669   2.677   0.120 -0.0929 -0.7408 -0.1906
  173SOL    HW1  518   0.640   2.762   0.173  0.5679  3.5244  1.1706
  173SOL    HW2  519   0.605   2.645   0.049 -2.2257 -0.0073 -0.5591
  174SOL     OW  520   1.509   2.827   1.050  0.2310 -0.2160  0.4442
  174SOL    HW1  521   1.522   2.907   0.981 -0.0857 -0.8941 -2.2339
  174SOL    HW2  522   1.497   2.739   1.008  0.3855  0.2382  0.1253
  175SOL     OW  523   0.447   3.067   1.672  0.1016 -0.4835  0.2270
  175SOL    HW1  524   0.503   3.123   1.742  1.7421 -1.0143 -0.0818
  175SOL    HW2  525   0.381   3.129   1.624  1.7715 -1.4624  0.5531
  176SOL     OW  526   2.600   0.384   0.004 -0.1657  0.0901  0.1099
  176SOL    HW1  527   2.607   0.468   0.063  1.3315  0.1131 -1.9264
  176SOL    HW2  528   2.551   0.310   0.051 -3.9262 -0.9868 -0.0595
  177SOL     OW  529   0.332   0.312   0.935 -0.2125  0.1145 -0.2560
  177SOL    HW1  530   0.296   0.222   0.904  3.1559  0.7264 -2.2527
  177SOL    HW2  531   0.267   0.354   0.999 -4.1417 -2.3119 -2.4483
  178SOL     OW  532   0.024   2.740   2.577 -0.0728 -0.4520 -0.1198
  178SOL    HW1  533  -0.056   2.678   2.598  1.1213 -0.7088 -2.0038
  178SOL    HW2  534   0.095   2.744   2.654  1.3457 -0.5755  0.0458
  179SOL     OW  535   3.060   1.566   1.129 -0.0326 -0.0585 -0.0151
  179SOL    HW1  536   3.028   1.655   1.163 -0.0325 -3.8850 -1.5159
  179SOL    HW2  537   3.052   1.500   1.207 -0.3033 -0.9105  0.0406
  180SOL     OW  538   0.178   1.222   1.851  0.1519  0.4151 -0.6485
  180SOL    HW1  539   0.276   1.197   1.852 -0.8534 -2.0048  2.3792
  180SOL    HW2  540   0.160   1.307   1.911 -1.7293 -0.0456  5.0514
  181SOL     OW  541   3.030   1.841   2.486 -0.4285  0.2040  0.2838
  181SOL    HW1  542   3.087   1.927   2.476 -0.5418  1.2109 -0.2897
  181SOL    HW2  543   2.946   1.847   2.420 -1.2075 -1.4913  0.5546
  182SOL     OW  544   2.320   1.287   1.163  0.4017 -0.5897 -0.5352
  182SOL    HW1  545   2.242   1.243   1.103 -0.3834 -1.1194 -2.4407
  182SOL    HW2  546   2.329   1.393   1.145  0.9168 -1.8714  0.5924
  183SOL     OW  547   1.445   2.248   2.599 -0.8024  0.3021 -0.0641
  183SOL    HW1  548   1.348   2.205   2.585  1.8641 -1.7792 -0.4041
  183SOL    HW2  549   1.514   2.173   2.605  0.4615 -2.6430 -0.8539
  184SOL     OW  550   1.985   0.867   0.739  0.2708  0.4164 -0.6291
  184SOL    HW1  551   1.913   0.927   0.702 -0.2311  1.5520  2.6461
  184SOL    HW2  552   1.948   0.787   0.790 -0.2768  0.4496  1.6210
  185SOL     OW  553   1.628   2.784   2.007 -0.2767  0.7379 -1.1540
  185SOL    HW1  554   1.562   2.865   2.018  0.1209  0.8191 -1.7682
  185SOL    HW2  555   1.669   2.753   2.098  0.5849 -0.6715  0.0651
  186SOL     OW  556   0.110   2.248   1.656  0.2888  0.3005 -0.5384
  186SOL    HW1  557   0.081   2.276   1.751 -3.4733  0.4468  0.1782
  186SOL    HW2  558   0.197   2.195   1.661 -1.6131  0.7988 -1.1956
  187SOL     OW  559   1.303   0.709   1.672  0.3234 -0.6109 -0.2968
  187SOL    HW1  560   1.363   0.724   1.584  2.1369  0.0554 -1.1250
  187SOL    HW2  561   1.355   0.723   1.762  0.1652 -1.6371  0.5454
  188SOL     OW  562   2.770   2.758   1.422  0.0526  0.2355  0.0854
  188SOL    HW1  563   2.750   2.861   1.440  1.6984  3.5593 -0.3071
  188SOL    HW2  564   2.692   2.703   1.378  0.4105 -0.4832  3.0350
  189SOL     OW  565   0.947   1.202   1.439  0.2195  0.0313  0.3982
  189SOL    HW1  566   1.030   1.238   1.485 -2.3093  0.3397 -2.3940
  189SOL    HW2  567   0.877   1.276   1.419  1.5170 -1.8301  0.8162
  190SOL     OW  568   1.453   1.921   1.618 -0.5103  0.7065  0.2788
  190SOL    HW1  569   1.418   1.823   1.623  3.4830 -3.7521  0.0625
  190SOL    HW2  570   1.516   1.943   1.695 -2.6231 -0.8496  1.8639
  191SOL     OW  571   0.949   0.716   1.574  0.0408 -0.2728 -0.1614
  191SOL    HW1  572   1.039   0.663   1.583  1.0458  1.0636 -0.7633
  191SOL    HW2  573   0.926   0.762   1.665 -1.0352 -0.3303 -1.5089
  192SOL     OW  574   1.859   2.263   1.095 -0.0544  0.7621 -0.4836
  192SOL    HW1  575   1.772   2.290   1.048 -0.0829 -1.6403  0.0037
  192SOL    HW2  576   1.943   2.301   1.050 -1.9733  0.9975  0.4370
  193SOL     OW  577   0.584   0.583   0.457 -0.5266  0.2035 -0.2784
  193SOL    HW1  578   0.537   0.499   0.489  0.2606 -2.6213 -3.1325
  193SOL    HW2  579   0.609   0.576   0.354  0.0641 -1.4064  0.6256
  194SOL     OW  580   0.324   0.912   1.281 -0.0428 -0.2609  0.2433
  194SOL    HW1  581   0.236   0.856   1.282  0.1684  0.2228 -0.4607
  194SOL    HW2  582   0.338   0.970   1.196 -0.7291  2.0567 -0.9798
  195SOL     OW  583   1.000   2.931   0.537 -0.2214  0.9184 -0.0621
  195SOL    HW1  584   1.027   2.843   0.489 -1.1241 -2.2125 -0.9043
  195SOL    HW2  585   1.074   2.988   0.575  0.2378  2.1026 -0.9189
  196SOL     OW  586   0.220   1.319   1.372 -0.0677 -0.2736 -0.2363
  196SOL    HW1  587   0.244   1.418   1.392 -3.1157 -0.9570 -1.3071
  196SOL    HW2  588   0.207   1.266   1.462  0.1589  0.7796  0.2890
  197SOL     OW  589   0.834   2.069   0.262  0.8667 -0.5022  0.2942
  197SOL    HW1  590   0.822   2.078   0.366  1.8829 -0.3789 -0.6050
  197SOL    HW2  591   0.870   1.976   0.232 -1.4586 -0.7818  1.8056
  198SOL     OW  592   0.292   1.270   0.272  0.2478  0.4661  0.4927
  198SOL    HW1  593   0.189   1.262   0.254 -3.8838  0.1455 -0.8428
  198SOL    HW2  594   0.317   1.352   0.333 -1.7256  0.2820  1.6848
  199SOL     OW  595   2.283   0.359   2.500 -0.0097 -0.3450 -0.4434
  199SOL    HW1  596   2.204   0.327   2.554  1.2187 -0.5294 -2.0413
  199SOL    HW2  597   2.376   0.342   2.553 -2.0580  0.7996  0.7790
  200SOL     OW  598   0.013   2.935   0.737 -0.3367  0.6725 -0.9741
  200SOL    HW1  599  -0.068   2.946   0.674  0.1038 -1.9027 -0.4783
  200SOL    HW2  600   0.106   2.961   0.703 -0.7703 -0.3713  3.6332
  201SOL     OW  601   1.091   0.750   0.602 -0.5651  0.4258 -0.4071
  201SOL    HW1  602   1.123   0.812   0.677  0.1099 -4.1092  0.7251
  201SOL    HW2  603   1.006   0.695   0.619  2.1037 -4.0147  1.5685
  202SOL     OW  604   0.427   1.089   1.897 -0.1449 -0.2437  0.2052
  202SOL    HW1  605   0.490   1.002   1.909 -0.2330 -1.5200  2.3090
  202SOL    HW2  606   0.408   1.137   1.991  1.0018  0.1415  0.1305
  203SOL     OW  607   0.653   0.218   1.511 -0.0238  0.3673 -0.3253
  203SOL    HW1  608   0.738   0.217   1.447  0.6273  0.8763 -0.6678
  203SOL    HW2  609   0.680   0.186   1.607  1.7466 -0.6648 -1.2836
  204SOL     OW  610   2.083   1.805   2.879  0.4052 -0.3538  0.0015
  204SOL    HW1  611   2.066   1.704   2.904 -1.9198  0.5495 -1.0667
  204SOL    HW2  612   2.176   1.810   2.840 -0.4428 -1.9834 -1.5758
  205SOL     OW  613   1.834   1.883   3.029  0.1528  0.3060 -0.3811
  205SOL    HW1  614   1.914   1.881   2.961  2.1687  1.7219 -1.7010
  205SOL    HW2  615   1.805   1.980   3.045 -2.0781 -0.3547  0.4149
  206SOL     OW  616   2.498   2.823   0.329  0.0193  0.1192  0.0787
  206SOL    HW1  617   2.533   2.732   0.364 -2.5105  0.9883 -1.4463
  206SOL    HW2  618   2.559   2.862   0.254  0.2530 -0.1185  0.2467
  207SOL     OW  619   0.671   1.824   3.008  0.5697  0.1969 -0.0124
  207SOL    HW1  620   0.729   1.764   2.943 -0.3862  1.4010 -1.1680
  207SOL    HW2  621   0.622   1.770   3.083  0.1350  1.8815 -0.8676
  208SOL     OW  622   1.091   1.573   1.385  0.1226  0.3609  0.1453
  208SOL    HW1  623   1.063   1.663   1.335 -0.8493  1.1450  1.0906
  208SOL    HW2  624   1.167   1.586   1.453  1.1972 -1.7046 -0.4848
  209SOL     OW  625   0.218   0.926   3.033  0.3109  0.2205 -0.3229
  209SOL    HW1  626   0.248   0.843   2.978  1.3917 -3.0784  2.6496
  209SOL    HW2  627   0.229   0.909   3.135 -1.8411  1.7048  1.8289
  210SOL     OW  628   1.781   0.481   1.193 -0.1643 -0.3550  0.0440
  210SOL    HW1  629   1.746   0.567   1.148 -0.7923  0.3253 -0.0710
  210SOL    HW2  630   1.879   0.458   1.174 -3.4668  0.5099  0.8370
  211SOL     OW  631   2.114   1.090   1.572 -0.6426  0.3372  0.4571
  211SOL    HW1  632   2.168   1.022   1.629  2.4660  0.5296  0.5518
  211SOL    HW2  633   2.178   1.156   1.525 -0.4889 -1.3387  0.1170
  212SOL     OW  634   0.029   0.958   1.490 -0.2545 -0.1262  0.4190
  212SOL    HW1  635   0.078   1.041   1.534 -1.1921  0.6351  1.4817
  212SOL    HW2  636   0.031   0.871   1.548 -1.9564 -0.6913 -1.5894
  213SOL     OW  637   2.823   0.238   0.374 -0.2619 -0.4800 -0.4073
  213SOL    HW1  638   2.880   0.173   0.309  1.9853 -1.0121  3.3913
  213SOL    HW2  639   2.736   0.266   0.331 -1.0125 -1.2180  2.1052
  214SOL     OW  640   2.168   0.238   2.280  0.7103 -0.0382 -0.2941
  214SOL    HW1  641   2.218   0.304   2.341 -1.2931  0.7891 -0.0688
  214SOL    HW2  642   2.146   0.146   2.320  1.3780  1.9561  2.5345
  215SOL     OW  643   1.612   2.262   2.122 -0.0816  0.1048  0.0672
  215SOL    HW1  644   1.702   2.280   2.076 -1.4875  3.4555 -0.6667
  215SOL    HW2  645   1.571   2.351   2.162 -2.1562  1.9689 -0.5314
  216SOL     OW  646   2.187   0.615   0.683 -0.4270 -0.1682  0.4069
  216SOL    HW1  647   2.162   0.524   0.638  0.0551 -0.2102  2.6954
  216SOL    HW2  648   2.144   0.703   0.644  0.5047  1.1048 -0.2360
  217SOL     OW  649   0.758   2.773   2.426  0.0103 -0.0737 -0.4279
  217SOL    HW1  650   0.744   2.691   2.489  0.7478  1.5596  2.4730
  217SOL    HW2  651   0.754   2.746   2.326 -2.4771  0.7055  0.1980
  218SOL     OW  652   1.900   1.422   0.016 -0.1132 -0.0099  0.0296
  218SOL    HW1  653   1.811   1.479   0.009  1.5469 -1.1982 -1.2407
  218SOL    HW2  654   1.895   1.358   0.098 -1.6062 -0.0644 -3.0412
  219SOL     OW  655   2.420   1.274   2.534  0.2058  0.0125 -0.5968
  219SOL    HW1  656   2.488   1.239   2.463  1.8865 -2.0656  0.0128
  219SOL    HW2  657   2.402   1.202   2.605  1.2053  3.1045  1.2314
  220SOL     OW  658   1.499   1.049   1.249  0.3505  0.1050 -0.3656
  220SOL    HW1  659   1.593   1.077   1.281 -0.1173 -2.0208  0.7896
  220SOL    HW2  660   1.471   1.082   1.155 -3.0485  1.2417  0.4303
  221SOL     OW  661   1.321   1.004   2.198 -1.0581 -0.0148 -0.2009
  221SOL    HW1  662   1.271   1.016   2.107 -0.5208 -0.3964  0.5242
  221SOL    HW2  663   1.425   1.003   2.191  0.4407  0.7478 -0.3516
  222SOL     OW  664   1.099   0.015   1.165  0.0825  0.5064  0.0414
  222SOL    HW1  665   1.157   0.056   1.244 -0.7567 -0.4523 -1.2252
  222SOL    HW2  666   1.117   0.072   1.079 -0.2024  2.3141  1.7001
  223SOL     OW  667   2.745   0.938   2.066 -0.1391  0.4167  0.8465
  223SOL    HW1  668   2.693   1.003   2.122 -0.5936  1.9759 -1.4720
  223SOL    HW2  669   2.843   0.920   2.098  0.3931 -0.5401  2.2372
  224SOL     OW  670   1.520   1.049   2.775 -0.0131  0.1038 -0.4581
  224SOL    HW1  671   1.558   0.966   2.722  0.2837  1.3442  1.3186
  224SOL    HW2  672   1.474   1.112   2.713  0.7086 -0.0955 -0.0399
  225SOL     OW  673   2.928   2.768   2.870  0.0949 -0.0212 -0.0312
  225SOL    HW1  674   2.888   2.675   2.836 -1.7238 -1.0720  1.1220
  225SOL    HW2  675   2.995   2.803   2.804 -0.9963  1.4978 -0.3154
  226SOL     OW  676   2.500   1.576   2.871  0.6564  0.2241 -0.0714
  226SOL    HW1  677   2.500   1.569   2.769 -2.2563  0.2253  1.1028
  226SOL    HW2  678   2.434   1.505   2.916 -4.7825  0.9935  1.1549
  227SOL     OW  679   0.861   0.140   0.034  0.1500 -0.1875  0.4045
  227SOL    HW1  680   0.927   0.063   0.060  0.6790 -1.4646 -3.8484
  227SOL    HW2  681   0.810   0.119  -0.055  1.6084 -0.0093  1.1500
  228SOL     OW  682   2.406   0.622   2.850  0.0564 -0.4110 -0.2851
  228SOL    HW1  683   2.369   0.644   2.753  1.9508 -0.1252 -0.4507
  228SOL    HW2  684   2.494   0.563   2.846  3.4333 -1.2308  0.1705
  229SOL     OW  685   0.582   0.468   1.874 -0.1791  0.3076  0.2064
  229SOL    HW1  686   0.554   0.369   1.890 -1.2513 -2.5160  0.9809
  229SOL    HW2  687   0.612   0.506   1.783  2.7570  1.8958  0.7272
  230SOL     OW  688   1.893   1.143   2.063 -0.0865  0.0988 -0.2884
  230SOL    HW1  689   1.960   1.220   2.030 -1.3819  0.3655  3.0405
  230SOL    HW2  690   1.799   1.181   2.097 -0.2968  2.2984  1.1007
  231SOL     OW  691   0.628   1.022   0.003 -0.6223 -0.2461  0.7064
  231SOL    HW1  692   0.729   1.030   0.030 -0.7243 -0.4778  0.3462
  231SOL    HW2  693   0.573   1.110   0.014  0.3301  0.7309  1.7975
  232SOL     OW  694   2.355   3.089   2.886  0.3755 -0.0462  0.0272
  232SOL    HW1  695   2.395   2.992   2.900  0.3115 -1.0288 -1.3639
  232SOL    HW2  696   2.410   3.143   2.816  0.9780 -1.1382  1.5833
  233SOL     OW  697   1.705   1.286   1.145 -0.0381 -0.5128 -0.8032
  233SOL    HW1  698   1.716   1.276   1.043  1.8630  0.4452  3.1502
  233SOL    HW2  699   1.747   1.207   1.197 -3.0187 -0.7395 -0.8829
  234SOL     OW  700   1.561   2.547   1.869 -0.1100 -0.3340 -0.1819
  234SOL    HW1  701   1.577   2.631   1.928  0.8421 -0.9965  2.0638
  234SOL    HW2  702   1.490   2.484   1.918 -0.9779  0.6295  0.5787
  235SOL     OW  703   3.104   3.009   2.809 -0.3565  0.4401 -0.5653
  235SOL    HW1  704   3.061   3.022   2.716  1.8288  0.8610 -0.4284
  235SOL    HW2  705   3.045   3.037   2.885  1.7857 -0.1955  1.3061
  236SOL     OW  706   2.899   0.737   0.085  0.2342  0.5544  0.2928
  236SOL    HW1  707   2.979   0.779   0.136  0.8625 -2.5790  0.6004
  236SOL    HW2  708   2.915   0.637   0.062  0.7039 -0.8350 -1.5685
  237SOL     OW  709   1.522   1.679   1.003  0.1622 -0.2786  0.2556
  237SOL    HW1  710   1.626   1.659   0.990  2.5236  0.1416 -0.7243
  237SOL    HW2  711   1.506   1.711   1.097 -0.3081  0.2938 -0.4030
  238SOL     OW  712   1.785   1.274   0.850 -0.2216  0.2559  0.1265
  238SOL    HW1  713   1.860   1.332   0.887  0.2627 -1.9993  0.1084
  238SOL    HW2  714   1.710   1.331   0.805  1.7480  0.6372  2.3302
  239SOL     OW  715   2.065   0.271   2.653  0.7019  0.4154 -0.3619
  239SOL    HW1  716   2.130   0.261   2.733 -0.3023 -0.0042 -2.2761
  239SOL    HW2  717   2.004   0.353   2.666 -1.5003 -0.8835  0.5910
  240SOL     OW  718   0.915   0.644   0.307  0.2148 -0.2727  0.2344
  240SOL    HW1  719   0.968   0.555   0.276  1.3874 -0.2918 -0.6082
  240SOL    HW2  720   0.907   0.634   0.410  0.5682 -1.0578 -0.6860
  241SOL     OW  721   0.547   0.050   0.380  0.1436 -0.5879  0.2503
  241SOL    HW1  722   0.587   0.135   0.334 -1.0998  1.7963  1.7986
  241SOL    HW2  723   0.544  -0.031   0.306 -0.6199 -0.9977  2.3911
  242SOL     OW  724   0.656   2.542   1.143 -0.3401 -0.0430  0.2698
  242SOL    HW1  725   0.633   2.538   1.245 -0.4301 -1.3303 -1.6602
  242SOL    HW2  726   0.726   2.617   1.121 -1.9811 -0.5733 -1.3214
  243SOL     OW  727   1.079   0.608   2.492  0.2518  0.4738 -0.3864
  243SOL    HW1  728   0.978   0.643   2.480 -2.2207  0.2862 -0.4335
  243SOL    HW2  729   1.076   0.521   2.546 -2.6837  0.2862 -1.4993
  244SOL     OW  730   2.833   1.895   2.313  0.6976  0.5985  0.6289
  244SOL    HW1  731   2.878   1.906   2.220  0.5878 -0.6065 -0.8357
  244SOL    HW2  732   2.752   1.826   2.306 -1.7959 -4.1182  1.5036
  245SOL     OW  733   2.325   0.708   2.193 -0.1149  0.7205  0.2409
  245SOL    HW1  734   2.405   0.715   2.255 -4.1418  0.3535 -1.8469
  245SOL    HW2  735   2.272   0.795   2.198  0.7379  1.5380 -0.0200
  246SOL     OW  736   0.220   2.907   1.730  0.3765  0.1481  0.5958
  246SOL    HW1  737   0.159   2.890   1.645 -0.0444 -2.6869 -0.8599
  246SOL    HW2  738   0.303   2.968   1.722  0.7078 -0.4656 -1.2236
  247SOL     OW  739   2.226   0.587   3.066  0.8379  0.4899 -0.1434
  247SOL    HW1  740   2.285   0.595   2.973  3.3845 -0.1924  2.0677
  247SOL    HW2  741   2.151   0.665   3.063  0.2770  1.2142 -1.4288
  248SOL     OW  742   2.134   1.818   1.589  0.3076 -0.3296 -0.0330
  248SOL    HW1  743   2.195   1.770   1.660 -1.6101 -0.8226  2.2407
  248SOL    HW2  744   2.031   1.826   1.620  0.4359  1.0079 -0.3104
  249SOL     OW  745   1.851   1.940   1.915 -0.2288  0.6654  0.7430
  249SOL    HW1  746   1.862   1.872   1.836 -0.8422  1.9790 -3.1064
  249SOL    HW2  747   1.941   1.992   1.929 -1.1590  1.0761  2.6719
  250SOL     OW  748   1.135   0.721   1.926 -0.2430 -0.4236 -0.5764
  250SOL    HW1  749   1.155   0.625   1.957  0.8346 -0.8593 -0.4921
  250SOL    HW2  750   1.152   0.734   1.826  1.0841 -0.8075  0.5946
  251SOL     OW  751   0.057   1.585   2.467  0.5672 -0.1251  0.1162
  251SOL    HW1  752   0.058   1.688   2.447  2.3278  0.6454 -1.3295
  251SOL    HW2  753  -0.040   1.548   2.495 -3.7770 -0.4447  1.1335
  252SOL     OW  754   1.527   0.846   1.565 -0.1456 -0.5945  0.2627
  252SOL    HW1  755   1.586   0.839   1.475  1.8298  0.9091 -1.5310
  252SOL    HW2  756   1.554   0.925   1.629  1.8006  2.3532  1.3633
  253SOL     OW  757   0.959   1.537   0.496  0.2338  1.0950  0.5390
  253SOL    HW1  758   0.956   1.469   0.420  1.0709  3.2196  0.3643
  253SOL    HW2  759   0.876   1.607   0.497  0.3247  0.2439  1.8032
  254SOL     OW  760   2.036   2.146   1.614  0.3293  0.5439  0.6975
  254SOL    HW1  761   1.981   2.078   1.556  1.6919 -0.1769 -0.7061
  254SOL    HW2  762   1.985   2.173   1.699  1.2958  2.4213  0.3246
  255SOL     OW  763   0.141   1.137   2.877 -0.2784 -0.6409  0.2020
  255SOL    HW1  764   0.188   1.225   2.910 -1.9026 -2.2725  1.7175
  255SOL    HW2  765   0.167   1.051   2.935  1.3149  3.6135  0.6315
  256SOL     OW  766   2.792   1.364   1.779 -0.4293 -0.1431 -0.0574
  256SOL    HW1  767   2.708   1.421   1.754 -2.5687 -1.1730  1.8823
  256SOL    HW2  768   2.789   1.266   1.740  0.4560 -2.8686  0.5687
  257SOL     OW  769   0.776   0.207   1.761 -0.4873  0.0016 -0.0721
  257SOL    HW1  770   0.831   0.286   1.720  1.0138 -2.0558  1.6406
  257SOL    HW2  771   0.847   0.133   1.790 -2.7519 -0.4421 -1.1804
  258SOL     OW  772   2.975   1.280   0.438  0.1526 -0.5599 -0.1477
  258SOL    HW1  773   2.889   1.334   0.442  0.1561  1.7977  0.2101
  258SOL    HW2  774   3.029   1.296   0.531 -2.2736 -1.2674  4.2558
  259SOL     OW  775   0.466   2.958   3.050  0.1136  0.1752 -0.4218
  259SOL    HW1  776   0.387   2.924   3.104  2.3645  2.3076 -3.3354
  259SOL    HW2  777   0.459   2.929   2.948 -0.2855  0.2556 -2.4328
  260SOL     OW  778   2.706   0.832   2.813  0.4964 -0.1914  0.0959
  260SOL    HW1  779   2.619   0.800   2.762 -3.9232  0.9244 -1.6394
  260SOL    HW2  780   2.702   0.843   2.916 -1.1952  0.0814  1.1843
  261SOL     OW  781   2.746   1.338   1.233 -0.0290  0.1161 -0.5399
  261SOL    HW1  782   2.675   1.285   1.181  2.6193 -0.3748  2.7678
  261SOL    HW2  783   2.823   1.273   1.262  1.9701  2.6322 -0.2561
  262SOL     OW  784   1.416   2.965   2.039  0.4068 -0.1755  0.2301
  262SOL    HW1  785   1.447   3.039   1.972  0.6895  0.5049 -1.1429
  262SOL    HW2  786   1.325   2.928   2.007  0.4574 -1.0764  1.3379
  263SOL     OW  787   0.841   0.722   2.349  0.0508 -0.9045  0.2079
  263SOL    HW1  788   0.823   0.622   2.328 -0.3511 -1.6968  2.3739
  263SOL    HW2  789   0.896   0.761   2.271 -0.4580  2.0717  0.7815
  264SOL     OW  790   2.200   0.829   0.392  0.3732 -0.5806  0.7004
  264SOL    HW1  791   2.209   0.738   0.347 -1.2036 -2.8569 -2.9750
  264SOL    HW2  792   2.283   0.879   0.422  0.6784  2.0285 -1.5218
  265SOL     OW  793   0.916   2.385   2.636 -0.4295 -0.1945 -0.3605
  265SOL    HW1  794   0.989   2.444   2.690  3.5227  0.5126  0.7177
  265SOL    HW2  795   0.901   2.292   2.686 -0.4432 -1.3656 -2.8991
  266SOL     OW  796   1.333   1.698   0.011 -0.6977  0.6683  0.5297
  266SOL    HW1  797   1.318   1.772   0.078  0.8200  1.5774  0.7161
  266SOL    HW2  798   1.421   1.706  -0.039  2.5041  0.6056  1.7635
  267SOL     OW  799   0.986   3.062   2.361  0.0234  0.9979 -0.3017
  267SOL    HW1  800   0.990   3.015   2.269  0.4019 -0.3026  2.5152
  267SOL    HW2  801   0.929   3.149   2.357 -0.2241 -0.1098 -2.4911
  268SOL     OW  802   0.614   1.204   1.058 -0.8473  0.4632 -0.2874
  268SOL    HW1  803   0.666   1.253   1.140  1.0367  0.4808 -0.4422
  268SOL    HW2  804   0.649   1.249   0.975 -1.4300  0.8955 -0.3109
  269SOL     OW  805   2.348   2.525   1.607  0.0435  0.1267  0.5009
  269SOL    HW1  806   2.413   2.446   1.602 -0.1401 -2.1814 -2.2679
  269SOL    HW2  807   2.316   2.543   1.703  1.2949  1.8718  0.9296
  270SOL     OW  808   0.189   2.937   1.996  0.2131 -0.5252  0.1300
  270SOL    HW1  809   0.218   2.905   1.901  0.6484 -2.5457 -0.6361
  270SOL    HW2  810   0.216   2.873   2.072 -1.1488 -1.9073  1.6101
  271SOL     OW  811   0.397   1.366   1.187  0.0319 -0.0950  0.2451
  271SOL    HW1  812   0.385   1.352   1.087  0.5430  2.6650 -0.7684
  271SOL    HW2  813   0.318   1.337   1.247 -1.2585 -3.6091 -0.3358
  272SOL     OW  814   1.989   2.880   1.968  0.2864  0.0033 -0.5142
  272SOL    HW1  815   1.921   2.816   1.921  1.3938 -1.9493  0.4302
  272SOL    HW2  816   2.064   2.904   1.915 -2.2542 -0.5647  0.0438
  273SOL     OW  817   1.466   1.441   2.737  0.0390  0.1203 -0.4051
  273SOL    HW1  818   1.380   1.474   2.784  1.5260 -1.7831 -1.0846
  273SOL    HW2  819   1.530   1.394   2.803 -0.3837  0.6373 -0.4171
  274SOL     OW  820   1.221   0.474   2.052 -0.3877  0.2524  0.4023
  274SOL    HW1  821   1.183   0.382   2.026 -1.1332  1.6029 -0.0850
  274SOL    HW2  822   1.286   0.481   2.137  2.1833  0.2462  1.6326
  275SOL     OW  823   0.590   2.098   1.904 -0.1263  0.1411  0.2431
  275SOL    HW1  824   0.544   2.174   1.956  0.1578  1.3032  2.0184
  275SOL    HW2  825   0.555   1.998   1.913  1.1350 -1.6662 -1.6301
  276SOL     OW  826   2.194   0.929   2.748  0.0756  0.5030 -0.2108
  276SOL    HW1  827   2.132   0.915   2.665 -1.1058  0.0443  0.9134
  276SOL    HW2  828   2.159   0.889   2.836  2.0302  1.2343  3.6052
  277SOL     OW  829   3.077   0.890   0.229  0.2895 -0.5080 -0.1686
  277SOL    HW1  830   3.168   0.935   0.223  0.3462  1.2238  1.8430
  277SOL    HW2  831   3.086   0.801   0.280  0.7864 -0.5904  0.8968
  278SOL     OW  832   0.240   0.286   3.064 -0.0669 -0.3621  0.5342
  278SOL    HW1  833   0.306   0.229   3.006  1.5143 -0.7163 -2.1473
  278SOL    HW2  834   0.292   0.372   3.092 -0.6170 -0.5568  0.5534
  279SOL     OW  835   0.200   0.087   0.865  0.8500 -0.1089  0.0371
  279SOL    HW1  836   0.177   0.038   0.955 -0.4150 -2.6349  0.5781
  279SOL    HW2  837   0.261   0.028   0.804 -1.5654  0.1621 -1.0762
  280SOL     OW  838   1.585   2.943   2.421  0.6103 -0.3923 -0.1422
  280SOL    HW1  839   1.660   2.992   2.474  1.3953 -0.5253  0.4312
  280SOL    HW2  840   1.519   3.013   2.384 -0.9131 -1.8721  0.5519
  281SOL     OW  841   0.578   0.984   2.227  0.2147  0.5238  0.0579
  281SOL    HW1  842   0.564   0.897   2.171 -0.4770 -1.8602  2.1908
  281SOL    HW2  843   0.520   0.976   2.313  0.2479  0.4798  0.1839
  282SOL     OW  844   1.783   2.492   0.531  0.0371  0.0556 -0.1185
  282SOL    HW1  845   1.725   2.432   0.466 -3.1316  0.0745  0.3182
  282SOL    HW2  846   1.737   2.584   0.547  0.1724  0.3251 -0.3879
  283SOL     OW  847   1.138   0.878   0.813  0.2346  0.2286 -0.1316
  283SOL    HW1  848   1.200   0.858   0.892  4.3307  0.3875 -1.1602
  283SOL    HW2  849   1.059   0.936   0.841 -1.3100 -0.0591 -3.2371
  284SOL     OW  850   2.283   2.735   2.536 -0.3526  0.7653  1.1081
  284SOL    HW1  851   2.365   2.780   2.478  1.2892  0.4588 -2.7810
  284SOL    HW2  852   2.254   2.800   2.610 -2.5599  3.9803 -1.8982
  285SOL     OW  853   1.307   3.043   2.601 -0.0047 -0.0943  0.1179
  285SOL    HW1  854   1.333   3.082   2.505  0.9771  0.1745 -4.3582
  285SOL    HW2  855   1.214   3.060   2.635  0.7891  1.8166 -1.1516
  286SOL     OW  856   0.436   0.457   0.746  0.0596  0.0436 -0.1047
  286SOL    HW1  857   0.403   0.404   0.829 -0.5247  2.8317 -1.7627
  286SOL    HW2  858   0.440   0.396   0.661 -0.4990 -0.0155 -0.2280
  287SOL     OW  859   0.096   1.302   2.510  0.0428  0.3418 -0.1098
  287SOL    HW1  860   0.054   1.245   2.588 -1.2132 -0.9912 -2.9830
  287SOL    HW2  861   0.098   1.396   2.536  1.3192 -2.9936 -2.8339
  288SOL     OW  862   1.578   2.636   1.579 -0.0897  0.0368  0.0362
  288SOL    HW1  863   1.563   2.613   1.681  0.1027 -3.5993  2.8871
  288SOL    HW2  864   1.556   2.560   1.513 -2.9516  2.7598  3.9682
  289SOL     OW  865   0.670   2.695   0.870  0.0475 -0.3309 -0.1110
  289SOL    HW1  866   0.696   2.770   0.804 -0.6477 -1.1274  1.1149
  289SOL    HW2  867   0.626   2.733   0.956  0.2353  0.7499  1.7328
  290SOL     OW  868   2.817   1.086   1.719  0.2466  0.4331  0.1306
  290SOL    HW1  869   2.722   1.045   1.707  0.8323 -1.9881 -0.0044
  290SOL    HW2  870   2.880   1.036   1.789 -0.0528 -0.1771  1.9979
  291SOL     OW  871   1.974   0.050   0.035  0.4560  0.0781 -0.0640
  291SOL    HW1  872   1.983   0.064   0.141 -0.0939  0.1194  1.9199
  291SOL    HW2  873   2.026   0.114  -0.029  1.7391  0.6577 -4.6864
  292SOL     OW  874   2.998   1.148   3.006  0.3508  0.0506  0.3024
  292SOL    HW1  875   2.929   1.208   2.965 -0.4189 -0.4022 -0.3387
  292SOL    HW2  876   3.085   1.148   2.953  1.2924  0.7698  0.1523
  293SOL     OW  877   0.569   2.140   0.204 -0.5301 -0.2368  0.6055
  293SOL    HW1  878   0.519   2.213   0.268 -0.2133  2.1597 -1.2157
  293SOL    HW2  879   0.671   2.135   0.208  1.1512 -0.5223  3.2533
  294SOL     OW  880   1.816   2.268   1.796  0.2021  0.0226  0.4169
  294SOL    HW1  881   1.819   2.310   1.892 -0.3963  2.3321  3.1421
  294SOL    HW2  882   1.766   2.314   1.718  1.1559 -2.2156 -1.2469
  295SOL     OW  883   0.986   1.074   0.469 -0.7432 -0.1536  0.0599
  295SOL    HW1  884   1.082   1.064   0.511  2.3084  0.8888  0.5000
  295SOL    HW2  885   0.909   1.085   0.547  0.2690  0.3008  1.5441
  296SOL     OW  886   1.205   2.148   2.559  0.3426 -0.4691  0.4806
  296SOL    HW1  887   1.159   2.229   2.503 -2.2979  1.9406  2.5997
  296SOL    HW2  888   1.205   2.056   2.512 -4.2336 -0.8177  0.2687
  297SOL     OW  889   1.438   0.616   1.347  0.1356  0.0692 -0.0766
  297SOL    HW1  890   1.379   0.535   1.326 -1.6118 -2.8806  0.4174
  297SOL    HW2  891   1.530   0.594   1.391 -0.9946  2.8407  0.5114
  298SOL     OW  892   0.545   1.334   2.966 -0.7125 -0.2501  0.9728
  298SOL    HW1  893   0.505   1.264   3.029 -2.1356  1.1377 -1.4881
  298SOL    HW2  894   0.596   1.298   2.880  3.9772 -0.8496 -2.7159
  299SOL     OW  895   0.480   0.266   1.303 -0.2363 -0.0809 -0.5177
  299SOL    HW1  896   0.467   0.363   1.265 -0.3733  1.8367  2.3657
  299SOL    HW2  897   0.569   0.260   1.366  3.0655 -1.4284  1.8543
  300SOL     OW  898   1.250   1.799   2.739  0.7355 -0.2187 -0.1503
  300SOL    HW1  899   1.219   1.704   2.775 -3.2831 -2.4623  1.1906
  300SOL    HW2  900   1.352   1.797   2.713 -0.1808  0.3063 -1.1712
  301SOL     OW  901   0.436   0.317   0.510  0.1725 -0.7784 -0.1398
  301SOL    HW1  902   0.340   0.310   0.475  1.9172 -1.5583 -2.3988
  301SOL    HW2  903   0.494   0.238   0.478 -2.1398  0.2296 -2.3229
  302SOL     OW  904   1.272   2.470   2.343  0.0279  0.0054  0.1658
  302SOL    HW1  905   1.193   2.518   2.390  2.0839 -1.1425 -1.1977
  302SOL    HW2  906   1.252   2.375   2.311 -1.7863 -1.8998 -2.1670
  303SOL     OW  907   0.935   2.396   0.833  0.2845  0.2389  0.0626
  303SOL    HW1  908   0.994   2.439   0.757 -0.8844 -0.4629 -2.5401
  303SOL    HW2  909   0.942   2.453   0.918  0.1073  0.4687 -0.6290
  304SOL     OW  910   0.079   1.961   0.602 -0.5216 -0.5559  0.4713
  304SOL    HW1  911   0.151   1.937   0.532  2.4631 -1.1825  3.2839
  304SOL    HW2  912   0.021   2.040   0.569 -0.4731  0.5653  1.0502
  305SOL     OW  913   1.620   0.880   0.581 -0.6732 -0.3002  0.2872
  305SOL    HW1  914   1.566   0.874   0.490  0.8181  1.2778  0.3718
  305SOL    HW2  915   1.670   0.790   0.603  0.9411 -0.8580  0.7757
  306SOL     OW  916   0.415   1.845   1.922 -0.3581 -0.0312 -0.0245
  306SOL    HW1  917   0.471   1.761   1.898  4.1139  1.8633  0.6333
  306SOL    HW2  918   0.443   1.890   2.018  2.3449  0.2049  1.7966
  307SOL     OW  919   3.059   0.898   2.477 -0.2910 -0.2532 -0.5816
  307SOL    HW1  920   3.082   0.986   2.524 -3.1714  0.7698 -0.5490
  307SOL    HW2  921   3.000   0.838   2.537  0.4732  0.0159  0.7913
  308SOL     OW  922   1.546   2.674   2.792 -0.2183 -0.1770  0.4922
  308SOL    HW1  923   1.518   2.598   2.721 -2.5445 -1.2267  0.0338
  308SOL    HW2  924   1.503   2.650   2.882  1.0768  1.8493  2.6567
  309SOL     OW  925   1.266   0.183   1.736  0.3860  0.5102 -0.3792
  309SOL    HW1  926   1.350   0.132   1.770  1.3395 -0.2426 -1.2599
  309SOL    HW2  927   1.237   0.159   1.641  0.8280  0.5100 -0.2987
  310SOL     OW  928   1.516   2.577   0.692  0.0363  0.2066  0.1960
  310SOL    HW1  929   1.465   2.598   0.780 -1.8087  0.8948  1.1578
  310SOL    HW2  930   1.547   2.660   0.637 -0.9725  0.8399  2.6554
  311SOL     OW  931   1.186   0.986   1.646 -0.2504 -0.5309  0.4357
  311SOL    HW1  932   1.201   0.882   1.626  2.3426 -0.6536 -0.0191
  311SOL    HW2  933   1.240   1.044   1.578  0.6136  0.3882  1.9464
  312SOL     OW  934   1.650   0.732   1.098  0.4271  0.2575  0.6845
  312SOL    HW1  935   1.640   0.805   1.024  0.7136  0.1493 -2.0422
  312SOL    HW2  936   1.561   0.683   1.111 -1.8527 -0.0295  0.9930
  313SOL     OW  937   1.549   1.361   0.718  0.4096 -0.4384 -0.3190
  313SOL    HW1  938   1.486   1.427   0.778 -1.4723  0.8927  1.2275
  313SOL    HW2  939   1.489   1.283   0.686  0.2678  1.2361 -0.9733
  314SOL     OW  940   2.949   0.048   3.000 -0.1777 -0.5862 -0.5231
  314SOL    HW1  941   2.955   0.071   3.101  0.5385 -0.7787  0.4281
  314SOL    HW2  942   2.848   0.032   2.980 -0.9270  1.4331  0.3573
  315SOL     OW  943   1.218   0.196   2.755 -0.2732 -0.1925  0.1880
  315SOL    HW1  944   1.136   0.141   2.708 -2.2610  0.0787 -2.0889
  315SOL    HW2  945   1.287   0.133   2.797  2.1283  0.3464 -0.6822
  316SOL     OW  946   1.749   2.043   0.873  0.1032 -0.2362  0.2240
  316SOL    HW1  947   1.670   2.039   0.941 -1.3613  0.2644  0.6085
  316SOL    HW2  948   1.753   2.131   0.818  0.7305 -3.2310  0.4715
  317SOL     OW  949   1.132   0.616   2.875  0.2485 -0.1125 -0.1157
  317SOL    HW1  950   1.068   0.680   2.930  1.7444 -0.1177 -3.1500
  317SOL    HW2  951   1.090   0.532   2.829  0.3771 -4.0329 -0.7174
  318SOL     OW  952   1.349   3.070   2.296 -0.0178 -0.7544 -0.2319
  318SOL    HW1  953   1.344   3.165   2.254 -2.5581  0.3434 -0.6592
  318SOL    HW2  954   1.348   2.996   2.223 -0.7546  2.1352 -2.4935
  319SOL     OW  955   0.656   2.407   2.926 -0.7947  0.5244  0.0351
  319SOL    HW1  956   0.580   2.376   2.988 -0.8158  2.4592  2.3710
  319SOL    HW2  957   0.738   2.344   2.932  0.1256 -0.2052 -0.7824
  320SOL     OW  958   1.689   2.261   0.421  0.3227 -0.4097  0.2042
  320SOL    HW1  959   1.779   2.208   0.403 -2.6519  0.4140 -0.4651
  320SOL    HW2  960   1.608   2.201   0.445 -1.9466 -2.2855  0.6902
  321SOL     OW  961   1.613   2.754   0.519  0.2572  0.6234 -0.2536
  321SOL    HW1  962   1.545   2.766   0.442  0.9093  1.4573 -0.7532
  321SOL    HW2  963   1.705   2.768   0.476 -2.1675  0.5317  0.4724
  322SOL     OW  964   2.596   1.122   2.373  0.3510 -0.5700 -0.3129
  322SOL    HW1  965   2.685   1.164   2.416 -0.8636  0.8436  2.4022
  322SOL    HW2  966   2.612   1.026   2.335  0.2653 -0.4628 -0.9877
  323SOL     OW  967   1.192   2.652   0.830  0.1474  0.5012 -0.0225
  323SOL    HW1  968   1.170   2.599   0.745  0.7307  1.2012 -0.1674
  323SOL    HW2  969   1.153   2.745   0.827  1.3380 -0.9241  0.5243
  324SOL     OW  970   0.263   2.460   2.529  0.0952  0.0879 -0.5661
  324SOL    HW1  971   0.332   2.438   2.600 -0.7866 -1.0914 -2.3616
  324SOL    HW2  972   0.177   2.499   2.564 -0.8778 -3.6349  0.4269
  325SOL     OW  973   1.296   3.061   0.491 -0.0831  0.0345 -0.1683
  325SOL    HW1  974   1.321   3.127   0.417  3.1486 -1.6786  0.3847
  325SOL    HW2  975   1.319   3.097   0.583 -1.2998  0.0840  0.4628
  326SOL     OW  976   2.475   0.805   3.078  0.0069  0.2860  0.4260
  326SOL    HW1  977   2.407   0.749   3.026  2.0615  0.7285  1.3412
  326SOL    HW2  978   2.548   0.748   3.118 -1.4013  0.3990  0.6871
  327SOL     OW  979   2.853   0.338   0.668  0.1419 -0.1090 -0.0421
  327SOL    HW1  980   2.823   0.276   0.586  0.3135 -2.2221  0.1853
  327SOL    HW2  981   2.907   0.300   0.751  1.8612  0.6089  3.8493
  328SOL     OW  982   2.588   0.582   0.413  0.2396 -0.0295  0.3277
  328SOL    HW1  983   2.537   0.670   0.388  1.8063 -1.6969 -0.1947
  328SOL    HW2  984   2.562   0.537   0.500  0.9506 -1.0193 -1.8162
  329SOL     OW  985   2.946   2.967   2.147 -0.1052  0.9588 -0.0530
  329SOL    HW1  986   3.015   2.925   2.214 -1.6316  1.3633  0.6985
  329SOL    HW2  987   2.966   3.062   2.119 -2.6339 -0.7354  0.0727
  330SOL     OW  988   0.536   0.156   1.856  0.1672  0.1844  0.1377
  330SOL    HW1  989   0.633   0.184   1.820 -1.0707  1.5480  0.2885
  330SOL    HW2  990   0.546   0.073   1.922 -0.6385  0.4561  0.2976
  331SOL     OW  991   2.995   1.915   1.165 -0.1359  0.3796 -0.1772
  331SOL    HW1  992   2.992   1.995   1.101 -1.7862  0.2491 -1.3139
  331SOL    HW2  993   2.903   1.913   1.216 -0.6473 -1.9968  0.3324
  332SOL     OW  994   0.392   1.166   0.032 -0.2360  0.1443  0.8075
  332SOL    HW1  995   0.339   1.075   0.030 -0.0690 -3.9526 -0.5022
  332SOL    HW2  996   0.348   1.226   0.105 -3.7003 -1.9471 -0.5094
  333SOL     OW  997   2.856   1.031   0.302  0.0867  0.6607 -0.4444
  333SOL    HW1  998   2.883   1.097   0.376  1.3520  0.1303  0.4920
  333SOL    HW2  999   2.935   0.985   0.248  1.8066 -1.9293 -0.3551
  334SOL     OW 1000   1.674   1.272   1.840  0.3280 -0.7210  0.3127
  334SOL    HW1 1001   1.772   1.255   1.805 -0.5175  0.8195 -0.2010
  334SOL    HW2 1002   1.678   1.293   1.944  3.0284  0.4111 -1.0143
  335SOL     OW 1003   1.987   2.734   2.607 -0.2615  0.2641 -0.4422
  335SOL    HW1 1004   1.927   2.713   2.692  2.6811 -2.3449  1.7036
  335SOL    HW2 1005   2.069   2.796   2.624  1.5183 -1.3310  0.6840
  336SOL     OW 1006   0.230   0.157   2.776 -0.2452 -0.3180 -0.6309
  336SOL    HW1 1007   0.315   0.154   2.836  2.0826  0.4675 -1.8760
  336SOL    HW2 1008   0.137   0.161   2.825  0.3043 -4.3159  0.8061
  337SOL     OW 1009   0.910   2.858   2.841  0.0567  0.5895  0.1756
  337SOL    HW1 1010   0.909   2.818   2.934  0.4037  0.1953 -0.1794
  337SOL    HW2 1011   1.006   2.869   2.810 -0.4618 -0.9052  0.1783
  338SOL     OW 1012   0.013   1.012   0.616 -0.1708  0.2933  0.4192
  338SOL    HW1 1013  -0.089   1.004   0.615  2.0184  0.5073  1.6557
  338SOL    HW2 1014   0.041   1.110   0.640  2.0481 -2.2230 -0.0562
  339SOL     OW 1015   1.687   1.357   2.120 -0.4147 -0.2649 -0.3119
  339SOL    HW1 1016   1.589   1.371   2.158 -2.5521 -0.3381 -2.0930
  339SOL    HW2 1017   1.762   1.430   2.149  2.6495  0.7668 -0.0690
  340SOL     OW 1018   2.342   0.788   1.112 -0.0036 -0.0461 -0.5163
  340SOL    HW1 1019   2.247   0.814   1.079 -2.3893  0.7624  0.3881
  340SOL    HW2 1020   2.374   0.701   1.070  1.6762  2.9732 -0.9376
  341SOL     OW 1021   1.912   2.106   0.330 -0.7664  0.1520 -0.1892
  341SOL    HW1 1022   1.918   2.174   0.247 -1.4807  1.7938 -0.0623
  341SOL    HW2 1023   2.005   2.081   0.372  0.5661 -0.1162  1.6753
  342SOL     OW 1024   2.250   2.129   2.729 -0.2354  0.1847  0.4114
  342SOL    HW1 1025   2.308   2.091   2.802 -2.5998 -0.7286  1.2911
  342SOL    HW2 1026   2.149   2.104   2.726  0.5938  1.5280  0.1630
  343SOL     OW 1027   0.340   0.862   2.728  0.1372 -0.5002 -0.0092
  343SOL    HW1 1028   0.317   0.926   2.649  0.1769  0.5635  0.8318
  343SOL    HW2 1029   0.440   0.877   2.763  4.2880  1.3973  1.6673
  344SOL     OW 1030   1.904   1.421   0.416  0.2004 -0.0352  0.4384
  344SOL    HW1 1031   1.907   1.349   0.340  0.8745  1.0165 -1.8877
  344SOL    HW2 1032   1.809   1.454   0.443  0.6501  1.9427  1.8690
  345SOL     OW 1033   1.422   2.250   2.918 -0.6968  0.1239  0.1711
  345SOL    HW1 1034   1.338   2.193   2.906 -0.4392  2.3030  1.4349
  345SOL    HW2 1035   1.495   2.225   2.850 -0.1093 -1.5636  0.1571
  346SOL     OW 1036   2.381   0.873   1.359 -0.0138  0.5219  0.0834
  346SOL    HW1 1037   2.319   0.950   1.391 -1.0703 -1.1811 -0.2985
  346SOL    HW2 1038   2.360   0.834   1.261 -0.2877 -2.4258  0.1785
  347SOL     OW 1039   0.751   2.776   1.556 -0.0517 -0.3439  0.5188
  347SOL    HW1 1040   0.685   2.729   1.623 -2.7126 -1.4581 -2.1737
  347SOL    HW2 1041   0.709   2.857   1.513 -0.4687 -0.8517 -0.6757
  348SOL     OW 1042   0.214   0.690   2.901 -0.5245  0.3688  0.6445
  348SOL    HW1 1043   0.115   0.678   2.867  0.3803 -0.9635 -1.0639
  348SOL    HW2 1044   0.276   0.735   2.837  1.8595 -4.4214  0.8521
  349SOL     OW 1045   1.889   0.460   2.805  0.0302  0.5714  0.3616
  349SOL    HW1 1046   1.900   0.557   2.770 -2.5122 -1.1750  0.7858
  349SOL    HW2 1047   1.853   0.471   2.903 -1.0494  0.9423  0.4347
  350SOL     OW 1048   1.650   0.443   0.370  0.3909  0.8281  0.3385
  350SOL    HW1 1049   1.707   0.442   0.458 -1.3288 -1.3116 -0.3584
  350SOL    HW2 1050   1.609   0.534   0.342 -1.5128  0.2275  1.5227
  351SOL     OW 1051   0.999   0.849   2.152  0.5925 -0.7006 -0.0980
  351SOL    HW1 1052   0.988   0.953   2.146 -0.2722  0.7238  3.7252
  351SOL    HW2 1053   1.054   0.812   2.072 -4.3654 -0.6261 -1.4687
  352SOL     OW 1054   2.010   1.313   0.673 -0.6637 -0.3889  0.1655
  352SOL    HW1 1055   1.989   1.357   0.579 -3.8837 -2.8872 -2.4351
  352SOL    HW2 1056   1.932   1.258   0.707  0.7177  5.1582 -0.5839
  353SOL     OW 1057   2.156   2.806   1.070 -0.1819  0.1863  0.4520
  353SOL    HW1 1058   2.209   2.750   1.138 -3.2563 -3.2759  0.5975
  353SOL    HW2 1059   2.072   2.753   1.046  1.4511 -0.8123  0.0668
  354SOL     OW 1060   0.282   1.384   2.909  0.2487 -0.3152  0.3873
  354SOL    HW1 1061   0.270   1.446   2.824 -1.6660  0.1960 -1.9080
  354SOL    HW2 1062   0.381   1.360   2.933  0.3305 -0.1457  2.4497
  355SOL     OW 1063   0.641   1.550   0.595  0.9328  0.4954 -0.4268
  355SOL    HW1 1064   0.661   1.537   0.697  0.6393  0.4587  0.5359
  355SOL    HW2 1065   0.666   1.470   0.536 -2.5332  0.7217  0.5260
  356SOL     OW 1066   0.849   0.320   2.075 -0.3593  0.5871 -0.2625
  356SOL    HW1 1067   0.947   0.278   2.056  2.8454 -1.1519 -0.1044
  356SOL    HW2 1068   0.814   0.385   1.999 -0.2202  0.6314  0.3345
  357SOL     OW 1069   1.007   1.306   0.335  0.4626  0.2147 -0.4950
  357SOL    HW1 1070   1.003   1.294   0.233 -0.5559 -0.6939 -1.6501
  357SOL    HW2 1071   1.002   1.215   0.391  0.4549 -1.0279  0.4610
  358SOL     OW 1072   1.652   1.504   0.500  0.4505  0.2216 -0.2399
  358SOL    HW1 1073   1.601   1.477   0.585  0.3064  1.6273  1.8869
  358SOL    HW2 1074   1.588   1.480   0.421 -0.2677  0.5402  0.0280
  359SOL     OW 1075   1.575   2.635   0.193  0.3131 -0.3652  0.1756
  359SOL    HW1 1076   1.573   2.531   0.169 -0.9799 -0.4524 -2.0774
  359SOL    HW2 1077   1.487   2.680   0.188  0.5564  0.5080 -0.8278
  360SOL     OW 1078   0.859   0.567   0.578 -0.5694  0.2398 -0.6076
  360SOL    HW1 1079   0.758   0.572   0.568  1.7543 -0.8570 -2.1166
  360SOL    HW2 1080   0.896   0.473   0.571  0.6784  1.0721 -0.0723
  361SOL     OW 1081   1.238   1.308   0.730  0.5055 -0.1573  0.0224
  361SOL    HW1 1082   1.299   1.380   0.771  1.9336  1.8925 -1.5150
  361SOL    HW2 1083   1.139   1.336   0.717  0.5547  1.0764 -1.1507
  362SOL     OW 1084   1.390   1.840   0.808  0.1807 -0.1471  0.1443
  362SOL    HW1 1085   1.433   1.802   0.894  0.2039  5.0239  0.5179
  362SOL    HW2 1086   1.462   1.873   0.742 -0.2279  1.5367  1.4566
  363SOL     OW 1087   1.216   1.247   2.049  0.3577  0.3935 -0.3983
  363SOL    HW1 1088   1.302   1.284   2.091  0.5432 -3.6960 -2.9400
  363SOL    HW2 1089   1.176   1.313   1.980  1.9819  1.8528  3.3161
  364SOL     OW 1090   0.494   2.344   1.984  0.1111 -0.2787  0.3468
  364SOL    HW1 1091   0.406   2.403   1.984  1.7639  2.2959  0.3451
  364SOL    HW2 1092   0.554   2.359   1.903 -0.6297 -3.6871  2.8510
  365SOL     OW 1093   1.006   1.896   1.415 -0.5459  0.5807 -0.2685
  365SOL    HW1 1094   0.908   1.922   1.427  0.8264  2.0466 -2.4105
  365SOL    HW2 1095   1.033   1.929   1.319  1.8408  1.2935 -1.6154
  366SOL     OW 1096   2.806   2.036   0.431  0.4313 -0.0398 -0.9324
  366SOL    HW1 1097   2.722   1.984   0.471  0.4899 -1.0343  1.3180
  366SOL    HW2 1098   2.850   1.998   0.348  0.6784 -0.7733  3.8282
  367SOL     OW 1099   0.926   1.118   0.124 -0.5375 -0.3843 -0.3182
  367SOL    HW1 1100   0.976   1.053   0.189  1.3384 -2.1815 -1.4031
  367SOL    HW2 1101   0.981   1.144   0.041 -2.3774  1.2145  0.1085
  368SOL     OW 1102   1.438   0.539   0.716  0.1830  0.4268 -1.1001
  368SOL    HW1 1103   1.382   0.591   0.644 -4.0789  1.3553  1.3976
  368SOL    HW2 1104   1.532   0.540   0.684  0.1385 -0.7699  0.5195
  369SOL     OW 1105   0.330   1.714   0.072  0.1449 -0.3835 -0.2583
  369SOL    HW1 1106   0.381   1.773   0.143 -1.0798 -2.5700  1.6435
  369SOL    HW2 1107   0.235   1.683   0.105 -0.8839 -1.8704  0.7538
  370SOL     OW 1108   0.459   2.086   0.975 -0.3815  0.0234  0.1362
  370SOL    HW1 1109   0.446   2.191   0.977  1.6253 -2.4596  1.8467
  370SOL    HW2 1110   0.376   2.029   0.947 -0.8618 -0.5346  0.4915
  371SOL     OW 1111   2.930   2.182   2.659 -0.3165  0.0643 -0.1715
  371SOL    HW1 1112   2.853   2.154   2.727 -1.7779  0.2871  1.7911
  371SOL    HW2 1113   3.023   2.196   2.695 -1.5659  0.6414 -1.0742
  372SOL     OW 1114   1.129   2.020   1.092 -0.0481  0.8781  0.1913
  372SOL    HW1 1115   1.059   2.074   1.035 -1.5553 -1.0646 -0.6326
  372SOL    HW2 1116   1.220   2.067   1.105  1.8884 -1.0979 -1.2828
  373SOL     OW 1117   2.007   1.991   0.850 -0.1165 -0.1835 -0.0064
  373SOL    HW1 1118   2.077   2.000   0.929  0.9559  0.1172  0.3300
  373SOL    HW2 1119   1.904   1.990   0.874  0.4742 -0.5441  2.0709
  374SOL     OW 1120   1.842   0.393   0.578  0.4653 -0.4111 -0.2179
  374SOL    HW1 1121   1.829   0.382   0.685 -3.8039 -2.2322 -0.0889
  374SOL    HW2 1122   1.935   0.403   0.547 -0.3039 -0.7298 -1.3089
  375SOL     OW 1123   2.434   2.175   1.103 -0.2170 -0.1915 -0.6827
  375SOL    HW1 1124   2.513   2.169   1.037 -0.9787  1.1878  0.5227
  375SOL    HW2 1125   2.455   2.124   1.191  1.8437 -1.8311 -2.0182
  376SOL     OW 1126   3.071   0.557   1.469 -0.4154  0.0980 -0.3289
  376SOL    HW1 1127   3.066   0.653   1.502 -0.3279  1.2472  1.0455
  376SOL    HW2 1128   2.981   0.506   1.474 -0.2400  1.4325 -1.2012
  377SOL     OW 1129   2.231   2.864   0.326 -0.3083  0.5247  0.0448
  377SOL    HW1 1130   2.210   2.958   0.371  0.0157  2.6271 -1.1510
  377SOL    HW2 1131   2.333   2.854   0.328  0.5559 -0.7752 -0.2479
  378SOL     OW 1132   1.863   1.852   2.588 -0.6569 -0.1513  0.0562
  378SOL    HW1 1133   1.955   1.825   2.630  2.5599 -0.1966  0.7074
  378SOL    HW2 1134   1.819   1.783   2.523 -0.9985 -1.2828 -1.2696
  379SOL     OW 1135   0.748   0.158   2.863 -0.2299 -0.1116  0.6907
  379SOL    HW1 1136   0.730   0.063   2.822  1.4314 -1.1389  1.0754
  379SOL    HW2 1137   0.804   0.211   2.796  0.2044 -1.1372  5.2010
  380SOL     OW 1138   1.488   1.141   0.565 -0.2494  0.1751  0.5131
  380SOL    HW1 1139   1.391   1.116   0.564 -1.4112  0.6980  1.5334
  380SOL    HW2 1140   1.542   1.053   0.554 -2.4076 -1.1745  1.6213
  381SOL     OW 1141   1.387   1.176   1.506 -0.4251  0.0847  1.2453
  381SOL    HW1 1142   1.412   1.143   1.411  0.9377  2.8709  2.2357
  381SOL    HW2 1143   1.453   1.139   1.574  0.0088 -0.7180  0.0682
  382SOL     OW 1144   1.780   0.830   0.173  0.0906  0.1757  0.2373
  382SOL    HW1 1145   1.801   0.808   0.070 -2.2138  0.3535  0.0675
  382SOL    HW2 1146   1.860   0.862   0.232 -0.8513 -0.8984 -1.0792
  383SOL     OW 1147   2.599   0.987   1.445 -0.1416 -0.2192  0.1977
  383SOL    HW1 1148   2.512   0.955   1.402 -0.5868  3.2942  0.8453
  383SOL    HW2 1149   2.681   0.963   1.380  2.7901  0.8767 -0.2942
  384SOL     OW 1150   0.895   2.309   0.122  0.1400 -0.0747  0.1790
  384SOL    HW1 1151   0.856   2.378   0.191  1.2548  0.9449  1.9293
  384SOL    HW2 1152   0.862   2.210   0.138 -0.7740 -0.5401 -2.6807
  385SOL     OW 1153   3.045   2.018   1.673  0.2790  0.8934 -0.6617
  385SOL    HW1 1154   3.127   2.077   1.641  2.1864 -1.1419  0.5113
  385SOL    HW2 1155   3.065   1.919   1.682  1.4578  1.0983 -0.0581
  386SOL     OW 1156   0.477   1.104   0.408 -0.0189 -0.4923 -0.4277
  386SOL    HW1 1157   0.467   1.011   0.442  0.8429  0.8795 -0.3590
  386SOL    HW2 1158   0.419   1.129   0.323 -1.9937  1.8179  0.0751
  387SOL     OW 1159   0.921   0.377   1.612  0.1678 -0.4233  0.2050
  387SOL    HW1 1160   0.988   0.457   1.619  0.3192  0.0723  1.9254
  387SOL    HW2 1161   0.940   0.320   1.531  0.7232 -0.0923  1.2266
  388SOL     OW 1162   1.193   2.595   1.762  0.0123 -0.6454  0.4352
  388SOL    HW1 1163   1.227   2.568   1.670 -2.2535  3.2306 -0.8604
  388SOL    HW2 1164   1.248   2.559   1.840  1.4318  0.8519  1.7946
  389SOL     OW 1165   0.157   3.012   1.082 -0.1382 -0.3129 -0.0201
  389SOL    HW1 1166   0.065   3.023   1.130 -2.1124  0.6944 -1.7686
  389SOL    HW2 1167   0.199   2.922   1.102  1.0907  0.7679 -0.7402
  390SOL     OW 1168   1.019   0.942   1.329  0.0765 -0.1640  0.2208
  390SOL    HW1 1169   1.054   0.867   1.394  3.2077 -0.1847  0.8502
  390SOL    HW2 1170   0.990   1.029   1.379  2.2861  0.4327  4.2445
  391SOL     OW 1171   2.085   1.187   1.025  0.1601 -0.8763  1.0034
  391SOL    HW1 1172   2.014   1.128   1.078  0.9005 -2.3977 -0.4531
  391SOL    HW2 1173   2.150   1.127   0.976  0.8985  0.2369  0.1798
  392SOL     OW 1174   0.874   2.670   3.048 -0.2223  0.1526  0.4079
  392SOL    HW1 1175   0.809   2.674   3.125  0.1050  1.3457  1.4241
  392SOL    HW2 1176   0.970   2.668   3.086  1.0806  0.7526  0.1422
  393SOL     OW 1177   0.328   0.495   1.987 -1.2904  0.3555  0.0949
  393SOL    HW1 1178   0.282   0.400   1.978 -3.3439  0.9584  1.3828
  393SOL    HW2 1179   0.412   0.510   1.932 -1.9365  2.0506 -2.7392
  394SOL     OW 1180   2.977   1.863   2.771  1.1202  0.2322 -1.0428
  394SOL    HW1 1181   3.074   1.871   2.811  3.1102  3.3078 -0.0802
  394SOL    HW2 1182   2.975   1.867   2.668  1.6072 -0.1769  0.7616
  395SOL     OW 1183   1.607   1.924   0.623 -0.5012  1.2539  0.3147
  395SOL    HW1 1184   1.665   1.851   0.575  0.3128 -0.5382  2.4806
  395SOL    HW2 1185   1.653   1.948   0.713 -0.5225 -2.7936  0.8116
  396SOL     OW 1186   2.751   1.962   1.326  0.3824 -0.2126  0.7627
  396SOL    HW1 1187   2.654   2.003   1.312  2.8044 -0.8205  2.7079
  396SOL    HW2 1188   2.775   1.971   1.422 -1.0527 -2.3601 -0.7471
  397SOL     OW 1189   0.982   2.194   0.511  0.2254  0.4023 -0.3031
  397SOL    HW1 1190   0.894   2.137   0.539  1.0577 -0.8829 -0.4270
  397SOL    HW2 1191   0.975   2.294   0.513 -0.1783 -0.5254 -1.6482
  398SOL     OW 1192   2.126   3.088   1.072 -0.5171 -1.1959  0.4496
  398SOL    HW1 1193   2.111   2.988   1.085 -1.6367  3.1640 -2.3795
  398SOL    HW2 1194   2.071   3.144   1.138 -2.2240 -2.0409  1.7773
  399SOL     OW 1195   2.955   2.513   2.705  0.6882  0.3032 -0.9483
  399SOL    HW1 1196   2.894   2.479   2.624 -0.7504 -2.0109 -3.2994
  399SOL    HW2 1197   2.993   2.435   2.761  0.2715  1.3986 -3.4267
  400SOL     OW 1198   0.792   1.595   1.312  0.3408  0.1982 -0.1302
  400SOL    HW1 1199   0.774   1.646   1.405  1.5226  0.8082  1.8693
  400SOL    HW2 1200   0.788   1.662   1.237 -1.1933 -0.7214  1.5193
  401SOL     OW 1201   1.829   0.103   1.372 -0.5327  0.2067 -0.1628
  401SOL    HW1 1202   1.892   0.091   1.453 -1.1734  2.1900  2.3163
  401SOL    HW2 1203   1.732   0.113   1.402  1.4237 -2.4038 -0.9974
  402SOL     OW 1204   1.330   0.122   3.044 -0.2174  0.6844 -0.3074
  402SOL    HW1 1205   1.426   0.112   3.004  3.8462  1.3311  0.3886
  402SOL    HW2 1206   1.307   0.225   3.056  1.0019  0.8321 -0.7967
  403SOL     OW 1207   2.314   1.823   0.893  0.0196 -0.1207 -0.1279
  403SOL    HW1 1208   2.397   1.788   0.952  0.1896 -1.1391 -2.9105
  403SOL    HW2 1209   2.266   1.909   0.925  1.7313  0.9535 -0.1927
  404SOL     OW 1210   0.178   2.500   2.806  0.3050  0.4655  0.2950
  404SOL    HW1 1211   0.266   2.461   2.847 -2.6874 -1.7204 -0.3657
  404SOL    HW2 1212   0.165   2.601   2.826 -0.9331  0.5795 -1.4403
  405SOL     OW 1213   0.143   2.419   0.614 -0.0727 -0.0299  0.7189
  405SOL    HW1 1214   0.139   2.403   0.509 -3.0181  1.3552  0.1236
  405SOL    HW2 1215   0.211   2.498   0.635  3.9721  2.0422 -2.0166
  406SOL     OW 1216   0.035   1.480   3.003 -0.2443  0.1432 -0.2369
  406SOL    HW1 1217   0.121   1.425   2.975 -1.2942 -0.1215 -0.6945
  406SOL    HW2 1218   0.040   1.522   3.101  1.3914  1.1301  4.5153
  407SOL     OW 1219   1.568   0.928   0.907  0.4808 -0.1535 -0.1689
  407SOL    HW1 1220   1.543   0.882   0.820 -2.7756  0.4065  3.6478
  407SOL    HW2 1221   1.528   1.024   0.912 -0.0985 -0.2734 -0.2663
  408SOL     OW 1222   1.611   2.351   0.933 -0.6465 -0.8221  0.5217
  408SOL    HW1 1223   1.679   2.350   0.849  2.1820  1.0893 -1.3509
  408SOL    HW2 1224   1.554   2.432   0.931  3.5355 -2.6058  2.0142
  409SOL     OW 1225   0.634   0.870   0.727  0.4684 -0.3980  0.1518
  409SOL    HW1 1226   0.584   0.885   0.634  1.0898 -0.2157 -3.6868
  409SOL    HW2 1227   0.642   0.769   0.753  2.8965  0.9067 -0.3647
  410SOL     OW 1228   1.265   2.014   1.424 -0.3332  0.5308  0.0160
  410SOL    HW1 1229   1.331   1.972   1.493  3.9636 -2.3196  1.5841
  410SOL    HW2 1230   1.162   1.980   1.438 -1.1123 -1.4103  1.2861
  411SOL     OW 1231   2.509   1.867   3.094 -0.2509 -0.4091  0.9252
  411SOL    HW1 1232   2.435   1.873   3.022 -0.9870  0.0617  1.2741
  411SOL    HW2 1233   2.601   1.855   3.051 -1.8112 -0.1139  1.0309
  412SOL     OW 1234   1.499   2.549   2.174 -0.1183 -0.1791 -0.3469
  412SOL    HW1 1235   1.555   2.632   2.203 -0.1616 -1.5981  0.7322
  412SOL    HW2 1236   1.454   2.506   2.256  0.5739  0.6242 -1.6778
  413SOL     OW 1237   3.094   0.261   2.927 -0.1183  0.0307 -0.2459
  413SOL    HW1 1238   3.024   0.188   2.959  0.3127 -1.1014 -2.8201
  413SOL    HW2 1239   3.187   0.258   2.972  1.5834  1.4359  0.0386
  414SOL     OW 1240   1.800   1.482   1.298  0.5698 -0.1027 -1.0810
  414SOL    HW1 1241   1.728   1.527   1.358  1.7165 -0.6725 -0.5158
  414SOL    HW2 1242   1.767   1.393   1.245  2.0489 -2.8061 -2.3317
  415SOL     OW 1243   0.301   2.184   0.720 -0.3724 -0.3352  0.5265
  415SOL    HW1 1244   0.259   2.269   0.684 -2.3433 -0.9098 -1.3575
  415SOL    HW2 1245   0.236   2.130   0.778  3.8159 -0.4252  0.1155
  416SOL     OW 1246   0.364   1.062   1.055  0.4115  0.0104 -0.1772
  416SOL    HW1 1247   0.355   1.021   0.962  1.1090  3.4101 -1.1784
  416SOL    HW2 1248   0.461   1.102   1.065 -1.5161  0.9289 -0.1473
  417SOL     OW 1249   2.133   2.308   1.903  0.4521  0.1511  0.0740
  417SOL    HW1 1250   2.125   2.206   1.926 -0.5100 -0.5019 -0.7808
  417SOL    HW2 1251   2.044   2.349   1.877  1.2059  0.0293  0.9157
  418SOL     OW 1252   1.136   0.494   1.309 -0.0544  0.0825  0.2735
  418SOL    HW1 1253   1.043   0.454   1.268 -0.8829 -0.3895 -0.7773
  418SOL    HW2 1254   1.188   0.559   1.248  1.1112 -1.0245  2.0214
  419SOL     OW 1255   0.995   0.368   3.027 -0.0010  0.1106 -0.3493
  419SOL    HW1 1256   0.959   0.408   2.938  0.0620  1.6327  1.9409
  419SOL    HW2 1257   0.941   0.279   3.051  0.3254  0.1066  3.1023
  420SOL     OW 1258   0.142   2.270   0.376 -0.3169  0.2370  0.4211
  420SOL    HW1 1259   0.157   2.211   0.294  0.6193  0.2693 -0.6636
  420SOL    HW2 1260   0.057   2.245   0.427  0.1515 -1.1106 -0.1340
  421SOL     OW 1261   0.324   3.014   0.705 -0.5167 -0.7367  0.5139
  421SOL    HW1 1262   0.318   2.915   0.675 -0.3229  1.2437 -0.3152
  421SOL    HW2 1263   0.420   3.051   0.716  0.3290 -3.3669  1.2960
  422SOL     OW 1264   0.986   2.593   1.034 -0.1098 -0.4185 -0.0674
  422SOL    HW1 1265   1.059   2.607   0.963  3.0338  0.7548 -0.7440
  422SOL    HW2 1266   1.020   2.615   1.130 -0.1394 -0.4429  1.6856
  423SOL     OW 1267   0.100   0.711   1.275  0.1266 -0.1771 -0.0815
  423SOL    HW1 1268   0.063   0.651   1.359 -0.3541 -0.2199  1.1964
  423SOL    HW2 1269   0.029   0.774   1.233  0.8048 -1.0848 -1.4501
  424SOL     OW 1270   1.020   2.257   2.066  0.0509  0.4459  0.1898
  424SOL    HW1 1271   0.992   2.351   2.032 -0.6397 -0.6451  0.8264
  424SOL    HW2 1272   1.032   2.248   2.169  3.1999 -0.9693 -0.3728
  425SOL     OW 1273   1.982   1.426   0.961 -0.1622  0.3596  0.2761
  425SOL    HW1 1274   2.008   1.323   0.963  0.4449  0.3888 -0.7283
  425SOL    HW2 1275   2.063   1.479   0.911 -1.6917  1.2217 -0.4932
  426SOL     OW 1276   1.520   1.527   1.392  0.1590  0.5063 -0.0753
  426SOL    HW1 1277   1.490   1.622   1.364  0.6901 -0.4952  0.0772
  426SOL    HW2 1278   1.458   1.493   1.470  2.5593  0.7679 -1.2367
  427SOL     OW 1279   1.860   2.350   2.048 -0.4046 -0.0268  0.2920
  427SOL    HW1 1280   1.925   2.278   2.094  1.3730  0.3982  0.9794
  427SOL    HW2 1281   1.903   2.448   2.052 -0.1377  0.5557 -0.7642
  428SOL     OW 1282   0.867   2.958   0.193 -0.3064  0.0351  0.0606
  428SOL    HW1 1283   0.926   3.038   0.221 -3.2096  0.3994 -1.3336
  428SOL    HW2 1284   0.929   2.900   0.134  0.1812  2.8581 -1.9211
  429SOL     OW 1285   1.324   0.082   0.226 -0.0571  0.1859 -0.5241
  429SOL    HW1 1286   1.417   0.127   0.236  0.0370  0.7987  1.4041
  429SOL    HW2 1287   1.292   0.075   0.130  0.9816 -1.1830 -0.0184
  430SOL     OW 1288   2.743   1.448   0.388  0.9235 -0.2154  0.2783
  430SOL    HW1 1289   2.788   1.505   0.314  3.1268 -0.7738  0.0576
  430SOL    HW2 1290   2.753   1.481   0.486  1.6074  0.9209 -1.7994
  431SOL     OW 1291   2.166   1.596   0.813  0.4531 -0.7883 -0.2015
  431SOL    HW1 1292   2.236   1.661   0.852  1.1632 -0.0967  0.9060
  431SOL    HW2 1293   2.088   1.648   0.764 -0.4545 -0.0513  1.1332
  432SOL     OW 1294   2.858   2.203   1.279  0.1594  0.0685 -0.1238
  432SOL    HW1 1295   2.816   2.114   1.302  0.6473 -0.5463 -1.5945
  432SOL    HW2 1296   2.905   2.251   1.355 -2.2069  1.5674 -2.2470
  433SOL     OW 1297   1.922   0.375   0.859 -0.0163  0.7254  0.0680
  433SOL    HW1 1298   1.858   0.309   0.906  1.0707  0.2176 -0.2639
  433SOL    HW2 1299   2.020   0.374   0.895  0.7911 -0.3608  1.0943
  434SOL     OW 1300   1.536   0.291   0.790 -0.4770  0.1625 -0.3411
  434SOL    HW1 1301   1.492   0.382   0.784 -0.6388  4.6619  0.0220
  434SOL    HW2 1302   1.588   0.276   0.881 -1.2599 -0.3258  0.9602
  435SOL     OW 1303   1.407   1.432   2.120 -0.0891  0.6796  0.1514
  435SOL    HW1 1304   1.349   1.482   2.191  0.4689 -1.0567 -3.3723
  435SOL    HW2 1305   1.452   1.497   2.058 -0.2922 -1.8425 -2.8547
  436SOL     OW 1306   1.681   2.733   2.282  0.2579  0.4637 -0.4584
  436SOL    HW1 1307   1.641   2.819   2.330 -0.7105  0.0522  2.4084
  436SOL    HW2 1308   1.700   2.655   2.354 -0.8597  0.2738 -0.7362
  437SOL     OW 1309   1.080   2.905   0.919 -0.9023  0.3602 -0.1505
  437SOL    HW1 1310   1.017   2.970   0.865  0.0624 -0.1598  0.7465
  437SOL    HW2 1311   1.031   2.879   1.010  0.8796  1.4959  0.3360
  438SOL     OW 1312   1.058   2.579   1.315 -0.5910  0.4456 -0.0568
  438SOL    HW1 1313   1.140   2.598   1.376 -0.0895 -3.0323 -2.4296
  438SOL    HW2 1314   1.024   2.480   1.332  1.0820 -2.6911 -0.4044
  439SOL     OW 1315   0.706   1.751   1.069 -0.4069 -0.4066 -0.4659
  439SOL    HW1 1316   0.708   1.851   1.048 -0.6817  0.2419  0.9701
  439SOL    HW2 1317   0.610   1.712   1.087 -2.4565  0.4078  0.1198
  440SOL     OW 1318   0.970   2.482   1.917  0.0157 -0.2225 -0.0860
  440SOL    HW1 1319   0.926   2.488   1.826  0.1631  2.2174  0.1715
  440SOL    HW2 1320   1.070   2.515   1.913  1.9196  0.7822  2.3885
  441SOL     OW 1321   0.400   2.782   1.383  0.2225 -0.1123  0.3624
  441SOL    HW1 1322   0.458   2.698   1.381  0.2872  2.0076  1.6211
  441SOL    HW2 1323   0.298   2.763   1.380 -3.4369 -0.3806 -2.0846
  442SOL     OW 1324   2.286   0.642   2.532  0.3379  0.4240 -0.8007
  442SOL    HW1 1325   2.272   0.539   2.520 -0.5308  0.1235 -1.4520
  442SOL    HW2 1326   2.201   0.703   2.518  1.2240  0.5168 -0.3616
  443SOL     OW 1327   1.214   2.728   2.191 -0.2332 -0.1499  0.4401
  443SOL    HW1 1328   1.300   2.700   2.245  3.6431  2.1595 -0.7800
  443SOL    HW2 1329   1.132   2.755   2.243 -0.4842 -2.0138 -3.6577
  444SOL     OW 1330   1.150   1.300   1.597  0.1779 -0.2199 -0.1781
  444SOL    HW1 1331   1.236   1.256   1.561  1.1801 -0.5619 -1.8686
  444SOL    HW2 1332   1.155   1.332   1.697 -0.6482  2.7134 -0.6198
  445SOL     OW 1333   0.012   2.383   1.876  0.0405  0.3833  0.8777
  445SOL    HW1 1334   0.009   2.466   1.812 -1.4766  2.5204 -1.9939
  445SOL    HW2 1335  -0.079   2.362   1.917  0.9520  1.1691 -0.1274
  446SOL     OW 1336   0.258   1.907   2.355  0.6189  0.1685 -0.6512
  446SOL    HW1 1337   0.200   1.959   2.415  0.2094 -0.3173 -0.7610
  446SOL    HW2 1338   0.209   1.857   2.275 -2.0038 -1.5678 -0.4352
  447SOL     OW 1339   1.220   1.718   1.913 -0.1975  0.0920 -0.8427
  447SOL    HW1 1340   1.126   1.743   1.943  1.5161  0.2255  1.8354
  447SOL    HW2 1341   1.292   1.764   1.968 -0.4570 -1.6347  0.6084
  448SOL     OW 1342   0.115   1.447   2.006 -0.1907  0.1833  1.0749
  448SOL    HW1 1343   0.119   1.547   1.985 -3.3274  1.3065 -0.2470
  448SOL    HW2 1344   0.103   1.429   2.106  2.5044 -0.8377 -0.0277
  449SOL     OW 1345   1.797   2.979   0.880  1.0400 -0.0151 -0.8870
  449SOL    HW1 1346   1.847   2.989   0.971  0.5737 -1.2625 -0.9389
  449SOL    HW2 1347   1.853   2.926   0.805  1.5673  0.8137 -0.5838
  450SOL     OW 1348   2.372   1.429   0.716  0.4460  0.5016  0.0090
  450SOL    HW1 1349   2.292   1.453   0.778  0.2265  0.1522  1.4542
  450SOL    HW2 1350   2.375   1.478   0.628  0.0629  0.3122  1.1824
  451SOL     OW 1351   1.343   3.028   1.434  0.5271 -0.1597  0.0283
  451SOL    HW1 1352   1.276   3.097   1.473  0.6297 -0.6536  0.5146
  451SOL    HW2 1353   1.384   2.964   1.506  0.2733 -1.6523  0.6673
  452SOL     OW 1354   2.693   2.291   2.178 -0.0710 -0.1723 -0.2211
  452SOL    HW1 1355   2.643   2.380   2.203  0.5760 -1.3620  1.9803
  452SOL    HW2 1356   2.722   2.240   2.261  2.1418 -0.8736  0.1873
  453SOL     OW 1357   2.476   2.630   3.097 -0.3032 -0.0894 -0.5022
  453SOL    HW1 1358   2.395   2.687   3.107  3.0069 -2.0771  1.2220
  453SOL    HW2 1359   2.480   2.578   3.008 -0.8387  0.1811 -1.9576
  454SOL     OW 1360   0.974   1.133   2.080 -0.6576  0.4757  0.2353
  454SOL    HW1 1361   0.974   1.138   1.976  0.4961  0.4870  0.9212
  454SOL    HW2 1362   1.058   1.178   2.118 -1.8645  0.1578 -0.9854
  455SOL     OW 1363   0.682   2.678   2.857 -0.5810 -0.0347  0.9119
  455SOL    HW1 1364   0.781   2.716   2.859  3.8466  1.4260  1.7138
  455SOL    HW2 1365   0.665   2.590   2.916  0.0246 -2.6447 -2.1080
  456SOL     OW 1366   0.454   1.896   0.264  0.3816 -0.2384  0.2037
  456SOL    HW1 1367   0.535   1.853   0.313 -1.9671 -1.3980 -0.6447
  456SOL    HW2 1368   0.478   1.994   0.241 -0.2319  1.2281  2.3464
  457SOL     OW 1369   0.334   2.642   0.597 -0.0264  0.5352 -0.4344
  457SOL    HW1 1370   0.307   2.712   0.528  0.2277  1.3712  0.0914
  457SOL    HW2 1371   0.427   2.603   0.570  0.3480 -1.1056  1.4751
  458SOL     OW 1372   2.908   3.092   1.269  0.1506  0.2204  0.3241
  458SOL    HW1 1373   2.954   3.183   1.266 -1.9446  0.1213  1.4771
  458SOL    HW2 1374   2.912   3.043   1.180  0.5625 -1.9087 -0.3461
  459SOL     OW 1375   2.107   2.612   0.741  0.5464 -0.2638  0.4402
  459SOL    HW1 1376   2.196   2.650   0.773 -2.3483  2.3879 -0.3612
  459SOL    HW2 1377   2.114   2.544   0.665  0.9118 -1.9013  0.0478
  460SOL     OW 1378   1.221   2.074   2.824  0.4095 -0.3470 -0.1117
  460SOL    HW1 1379   1.198   2.143   2.749  2.2487 -1.9503  1.4180
  460SOL    HW2 1380   1.233   1.975   2.791 -2.6488  0.7440 -0.4139
  461SOL     OW 1381   0.545   2.162   2.647  0.1774 -0.6641 -0.4896
  461SOL    HW1 1382   0.468   2.087   2.641 -1.2776 -1.6936 -3.0213
  461SOL    HW2 1383   0.612   2.135   2.723  0.3369  1.0172 -1.4031
  462SOL     OW 1384   0.969   1.156   1.803  0.3809  0.1154  0.7195
  462SOL    HW1 1385   1.012   1.094   1.730 -0.8388  0.9098 -1.6850
  462SOL    HW2 1386   0.917   1.229   1.751 -0.2896 -3.4202 -0.4700
  463SOL     OW 1387   0.461   0.831   0.513  0.1984  0.5655 -0.1092
  463SOL    HW1 1388   0.496   0.734   0.489  1.2998 -1.0939  0.0822
  463SOL    HW2 1389   0.362   0.844   0.500  2.6626  4.2192 -0.7642
  464SOL     OW 1390   0.600   2.288   2.242  0.0641  0.3738 -0.1477
  464SOL    HW1 1391   0.560   2.349   2.314  3.5443 -1.9257  0.7042
  464SOL    HW2 1392   0.540   2.284   2.161 -0.3366  0.2325 -0.1284
  465SOL     OW 1393   0.233   0.958   0.833  0.0138 -0.1178 -0.1706
  465SOL    HW1 1394   0.139   0.974   0.806  2.1686  0.7976 -0.1127
  465SOL    HW2 1395   0.269   0.866   0.795 -0.2576 -3.6190 -5.0127
  466SOL     OW 1396   1.397   1.142   0.980 -0.3442  0.6075  0.4662
  466SOL    HW1 1397   1.440   1.232   0.996 -0.5010  0.8049  1.0291
  466SOL    HW2 1398   1.312   1.122   1.031  1.1239  0.1855 -0.2831
  467SOL     OW 1399   0.525   0.372   2.424 -0.2614 -0.4679 -0.0141
  467SOL    HW1 1400   0.483   0.466   2.415  1.3432  0.2385 -0.4213
  467SOL    HW2 1401   0.532   0.337   2.518 -0.1365  1.7645  1.2669
  468SOL     OW 1402   0.472   2.274   1.652  0.1049  0.1964  0.2550
  468SOL    HW1 1403   0.522   2.347   1.703  1.7100  2.4740  0.9304
  468SOL    HW2 1404   0.444   2.296   1.555 -1.0931 -2.1743  1.3039
  469SOL     OW 1405   1.437   1.371   1.166 -0.0595  0.1735 -0.5268
  469SOL    HW1 1406   1.532   1.338   1.154 -0.6872  1.2748 -3.0715
  469SOL    HW2 1407   1.428   1.429   1.257  3.7183 -0.3317  1.1605
  470SOL     OW 1408   3.003   1.764   0.732  0.1015 -1.2925 -0.6226
  470SOL    HW1 1409   3.064   1.848   0.715 -1.6097  0.2069 -1.1787
  470SOL    HW2 1410   3.055   1.675   0.720  0.0012  1.7890  0.8974
  471SOL     OW 1411   2.691   1.256   2.121  0.2636  0.1191  0.0543
  471SOL    HW1 1412   2.631   1.233   2.206  1.8451 -0.3246  0.2718
  471SOL    HW2 1413   2.765   1.321   2.146 -0.3685 -0.1220 -2.0243
  472SOL     OW 1414   1.123   2.453   0.048  0.3435 -0.1272 -0.0719
  472SOL    HW1 1415   1.192   2.434   0.121 -0.1136  2.0128 -1.2535
  472SOL    HW2 1416   1.031   2.409   0.068  0.7024 -0.9373 -2.7421
  473SOL     OW 1417   1.104   1.554   1.004 -0.2199  0.2049  0.1315
  473SOL    HW1 1418   1.005   1.563   0.989  1.5877  0.3214  0.5860
  473SOL    HW2 1419   1.124   1.478   1.077 -2.9368 -1.3479  2.2641
  474SOL     OW 1420   0.646   1.271   0.530  0.3033  0.3956  0.4780
  474SOL    HW1 1421   0.591   1.194   0.486  2.1781  0.0647  0.6317
  474SOL    HW2 1422   0.713   1.239   0.601 -1.5339  1.6318  0.5197
  475SOL     OW 1423   2.846   0.042   0.803 -0.7153  0.4463 -0.4185
  475SOL    HW1 1424   2.917   0.113   0.816 -3.0765 -0.0956  2.1513
  475SOL    HW2 1425   2.754   0.084   0.819  2.8513  0.4800 -0.1513
  476SOL     OW 1426   0.987   3.074   1.791 -0.0647 -0.1958  0.9488
  476SOL    HW1 1427   1.045   3.018   1.856  0.2154 -0.5006 -0.5848
  476SOL    HW2 1428   1.013   3.059   1.690  0.0517  1.4882 -0.2412
  477SOL     OW 1429   1.410   0.323   2.466  0.0736  0.4125  0.6276
  477SOL    HW1 1430   1.405   0.352   2.562  0.1787 -1.1619 -1.6981
  477SOL    HW2 1431   1.495   0.268   2.439 -0.9537 -0.1307  2.7590
  478SOL     OW 1432   2.238   1.836   0.164  0.0104  0.1786  0.3935
  478SOL    HW1 1433   2.186   1.749   0.187  0.6494  1.2950 -1.9710
  478SOL    HW2 1434   2.341   1.826   0.195  0.1099 -0.0014  3.6881
  479SOL     OW 1435   1.252   1.002   2.900  0.0221  0.4891  0.1905
  479SOL    HW1 1436   1.311   0.992   2.810  0.2717  0.6142  1.2805
  479SOL    HW2 1437   1.193   0.918   2.913  2.7456  0.8451  1.1450
  480SOL     OW 1438   2.657   2.340   0.366 -0.7235  0.2861  0.4232
  480SOL    HW1 1439   2.640   2.290   0.454 -2.1799  0.9104 -0.8706
  480SOL    HW2 1440   2.573   2.365   0.311 -0.4879 -0.2993  0.3454
  481SOL     OW 1441   0.971   1.150   0.909  0.1982  0.1840 -0.1972
  481SOL    HW1 1442   0.988   1.243   0.864  2.4778 -1.1376 -0.4335
  481SOL    HW2 1443   1.051   1.121   0.969 -1.8519 -0.1433  0.8704
  482SOL     OW 1444   1.578   0.310   2.041  0.1829  0.3821 -0.2183
  482SOL    HW1 1445   1.588   0.410   2.007 -1.5664 -1.5865 -2.2362
  482SOL    HW2 1446   1.662   0.273   2.075 -0.4105  1.9800 -0.2239
  483SOL     OW 1447   0.114   2.317   1.269  0.4031  0.0933 -0.0378
  483SOL    HW1 1448   0.029   2.300   1.329 -0.0355  3.1938  1.5818
  483SOL    HW2 1449   0.150   2.414   1.277  2.1742  0.7336  1.7094
  484SOL     OW 1450   1.765   1.099   1.341 -0.0074 -0.2235  0.0139
  484SOL    HW1 1451   1.827   1.014   1.360  0.5765  0.2193  1.4241
  484SOL    HW2 1452   1.768   1.169   1.419  0.0883 -1.8238 -0.5053
  485SOL     OW 1453   0.726   1.012   1.790 -0.0028  0.5209  0.0691
  485SOL    HW1 1454   0.739   1.017   1.689 -2.4959  3.1905  1.8483
  485SOL    HW2 1455   0.808   1.062   1.833  0.1540  2.2115 -0.2323
  486SOL     OW 1456   0.818   1.901   2.427  0.1236  0.5400  0.1655
  486SOL    HW1 1457   0.868   1.855   2.504  3.0917 -2.2900 -1.7677
  486SOL    HW2 1458   0.784   2.002   2.437 -0.4764 -1.0344  1.0190
  487SOL     OW 1459   1.803   1.653   0.965  0.1081  0.0535 -0.1402
  487SOL    HW1 1460   1.833   1.556   0.959  0.9434  2.2536 -0.2845
  487SOL    HW2 1461   1.844   1.722   0.894  1.3837 -0.4348 -0.8130
  488SOL     OW 1462   3.003   0.876   2.215 -0.4716  0.2819 -0.0337
  488SOL    HW1 1463   3.038   0.784   2.184 -1.7791 -0.1622  0.7042
  488SOL    HW2 1464   3.016   0.890   2.318  4.3933  0.9857 -0.2639
  489SOL     OW 1465   2.775   0.306   1.274  0.2703  0.6283  0.0144
  489SOL    HW1 1466   2.785   0.347   1.371  0.1806 -0.7275 -2.1762
  489SOL    HW2 1467   2.856   0.248   1.243 -2.4380  0.0741 -0.4942
  490SOL     OW 1468   1.521   2.957   2.767  0.4671  0.3854  0.4825
  490SOL    HW1 1469   1.541   2.856   2.766  1.3177  0.8212  0.4117
  490SOL    HW2 1470   1.438   2.987   2.704  0.3617 -0.2010 -2.0610
  491SOL     OW 1471   1.744   1.422   2.616  0.1455 -0.3830  0.3068
  491SOL    HW1 1472   1.656   1.441   2.660  1.0062  0.7013 -1.9886
  491SOL    HW2 1473   1.829   1.456   2.667 -1.3617 -0.0460 -0.1188
  492SOL     OW 1474   0.555   2.122   0.661  0.4632 -1.0071 -0.2420
  492SOL    HW1 1475   0.588   2.066   0.737  0.8919  1.3532 -1.4959
  492SOL    HW2 1476   0.455   2.153   0.680 -0.9744  0.7106  3.5864
  493SOL     OW 1477   0.415   1.438   2.021  0.0331  0.2419 -0.3426
  493SOL    HW1 1478   0.340   1.471   1.962  1.1042  0.1726  3.2443
  493SOL    HW2 1479   0.392   1.349   2.068 -0.9712 -1.5183  1.1142
  494SOL     OW 1480   2.718   2.710   0.151  0.2015 -0.3274  0.1739
  494SOL    HW1 1481   2.725   2.647   0.231  0.9044 -0.4926  0.5855
  494SOL    HW2 1482   2.624   2.692   0.110  0.9462 -1.6331  0.1032
  495SOL     OW 1483   2.677   2.725   2.726  0.8719 -0.0786  0.2951
  495SOL    HW1 1484   2.656   2.620   2.721  1.4505 -3.2748  2.5458
  495SOL    HW2 1485   2.719   2.761   2.633  1.1799  1.0156  1.0200
  496SOL     OW 1486   2.078   2.225   0.712  0.1661 -0.0155 -0.5351
  496SOL    HW1 1487   2.111   2.292   0.782 -0.6612 -2.6125 -0.6269
  496SOL    HW2 1488   2.058   2.134   0.754 -0.4319 -0.2240  0.0937
  497SOL     OW 1489   0.208   2.987   2.396  0.7551 -0.1873  0.3605
  497SOL    HW1 1490   0.175   3.068   2.451 -0.0945 -0.5326 -0.9177
  497SOL    HW2 1491   0.258   3.012   2.312 -3.3320  0.5702  1.7628
  498SOL     OW 1492   1.170   1.354   1.180  0.2105 -0.2546  0.4409
  498SOL    HW1 1493   1.276   1.362   1.176  0.0816 -0.2716 -1.6911
  498SOL    HW2 1494   1.126   1.395   1.266 -0.2130 -1.1272  0.3481
  499SOL     OW 1495   0.655   1.754   0.373  0.1912  0.6544  0.4453
  499SOL    HW1 1496   0.653   1.657   0.327 -1.5957  0.7469 -0.7912
  499SOL    HW2 1497   0.739   1.765   0.427  0.1633 -0.0374  0.5639
  500SOL     OW 1498   1.420   2.838   1.633  0.6390 -0.6213 -0.0783
  500SOL    HW1 1499   1.440   2.862   1.728 -4.2607  1.4894  1.7082
  500SOL    HW2 1500   1.476   2.758   1.596 -3.7708 -0.3013 -2.5168
  501SOL     OW 1501   0.801   1.109   2.295 -0.2311  0.2989  0.5036
  501SOL    HW1 1502   0.713   1.057   2.280  2.8845  2.3434  4.2676
  501SOL    HW2 1503   0.861   1.116   2.211  0.6999  0.2948 -1.7795
  502SOL     OW 1504   2.568   0.960   1.719  0.1085  0.5768  0.1181
  502SOL    HW1 1505   2.565   0.971   1.616  0.3518 -0.0003 -0.7922
  502SOL    HW2 1506   2.585   0.858   1.752 -0.7733 -0.7174  1.0042
  503SOL     OW 1507   1.341   0.130   0.698  0.1546 -0.0994 -0.0907
  503SOL    HW1 1508   1.291   0.208   0.647 -1.2259 -1.5301  1.2475
  503SOL    HW2 1509   1.420   0.164   0.756  0.2755 -0.2465  1.4883
  504SOL     OW 1510   3.019   2.346   1.458 -0.4361 -0.0626  0.5056
  504SOL    HW1 1511   2.971   2.434   1.463 -0.0521 -0.9699  2.4556
  504SOL    HW2 1512   3.050   2.313   1.547 -0.6773  1.4474 -1.3865
  505SOL     OW 1513   2.320   1.191   1.421  0.1097  0.1867  0.2991
  505SOL    HW1 1514   2.307   1.215   1.319 -0.5449 -0.4479  0.0803
  505SOL    HW2 1515   2.420   1.220   1.457 -1.4238 -1.3407  0.9496
  506SOL     OW 1516   1.961   0.204   1.822 -0.2319 -0.4794 -0.4540
  506SOL    HW1 1517   1.973   0.145   1.909  1.3201 -0.4106  1.4503
  506SOL    HW2 1518   1.956   0.308   1.851  0.0795  0.6274  0.9182
  507SOL     OW 1519   0.527   0.663   2.144 -0.4393  0.3823 -0.3387
  507SOL    HW1 1520   0.458   0.606   2.098  2.5290 -0.5300  2.3095
  507SOL    HW2 1521   0.617   0.610   2.163 -4.2251  2.9467 -0.6949
  508SOL     OW 1522   0.296   1.599   0.749  0.2830 -0.1503  0.4718
  508SOL    HW1 1523   0.340   1.681   0.702 -0.5774  0.8638 -0.0392
  508SOL    HW2 1524   0.259   1.628   0.838 -0.3570  1.7710 -0.1404
  509SOL     OW 1525   1.194   1.242   2.354 -0.7278  0.5119  0.0633
  509SOL    HW1 1526   1.230   1.219   2.255  2.5859 -2.0410 -5.7009
  509SOL    HW2 1527   1.113   1.190   2.386  0.5801  0.7267  0.8907
  510SOL     OW 1528   1.255   2.093   2.216 -0.0403 -0.8597  0.4821
  510SOL    HW1 1529   1.275   2.148   2.127  1.6854 -1.2835  1.0497
  510SOL    HW2 1530   1.167   2.040   2.216  2.2221  2.6751  0.9680
  511SOL     OW 1531   3.015   2.707   1.329 -0.1011  0.4010 -0.3467
  511SOL    HW1 1532   3.014   2.698   1.225 -0.4884 -1.2076 -3.5445
  511SOL    HW2 1533   2.914   2.721   1.366 -1.7695  0.0555  1.0786
  512SOL     OW 1534   2.372   0.432   1.375  0.5523 -0.3847  0.3396
  512SOL    HW1 1535   2.268   0.453   1.373 -3.6067  0.0520 -3.1809
  512SOL    HW2 1536   2.409   0.387   1.290 -0.5048  1.4313 -0.8077
  513SOL     OW 1537   2.604   2.098   0.906 -0.5256 -0.1465  0.3142
  513SOL    HW1 1538   2.572   2.165   0.836 -1.8113 -0.9969 -0.6765
  513SOL    HW2 1539   2.671   2.036   0.857 -1.5827  2.6892  2.2409
  514SOL     OW 1540   0.621   2.741   0.480  0.0582  0.0581 -0.1854
  514SOL    HW1 1541   0.632   2.804   0.403 -1.0577  0.7557  1.5068
  514SOL    HW2 1542   0.659   2.782   0.569  2.6174 -0.5306 -1.0520
  515SOL     OW 1543   1.956   1.252   2.372  0.2612 -0.3737  0.0359
  515SOL    HW1 1544   1.970   1.198   2.282 -0.5625 -1.6680 -3.9175
  515SOL    HW2 1545   1.862   1.229   2.411 -1.6269  0.0567  5.1240
  516SOL     OW 1546   0.266   0.232   1.921 -0.1271  0.5017 -0.1111
  516SOL    HW1 1547   0.359   0.197   1.897 -0.1705 -2.0303 -2.5719
  516SOL    HW2 1548   0.190   0.162   1.905  0.4239 -0.0072 -0.3369
  517SOL     OW 1549   0.423   0.027   1.133 -0.8301 -0.1209 -0.8082
  517SOL    HW1 1550   0.454   0.089   1.215 -1.4551  0.0691  1.0316
  517SOL    HW2 1551   0.328  -0.015   1.157 -3.2172 -0.1899 -0.1216
  518SOL     OW 1552   2.175   3.040   1.801  0.1661 -0.1652  0.0210
  518SOL    HW1 1553   2.227   3.134   1.812 -0.0654  2.9409  1.9828
  518SOL    HW2 1554   2.180   2.992   1.708 -0.5395  1.1942  0.0309
  519SOL     OW 1555   2.393   2.141   2.480  0.0415 -0.6192  0.8524
  519SOL    HW1 1556   2.357   2.118   2.575  2.3277  0.0460  0.2732
  519SOL    HW2 1557   2.371   2.240   2.456 -0.8105  0.3709 -0.7434
  520SOL     OW 1558   1.858   2.735   1.775 -0.4188  0.1394  0.5054
  520SOL    HW1 1559   1.760   2.707   1.778  1.1524  2.4514  1.3090
  520SOL    HW2 1560   1.914   2.660   1.728 -1.4728 -1.0643  1.9271
  521SOL     OW 1561   0.561   3.049   2.065 -0.0202  0.0583 -0.6561
  521SOL    HW1 1562   0.466   3.083   2.091 -0.5232 -1.9167  0.7739
  521SOL    HW2 1563   0.629   3.039   2.145  1.9540  0.8892 -0.1515
  522SOL     OW 1564   0.246   1.869   1.480 -0.1272  0.2973 -0.5401
  522SOL    HW1 1565   0.272   1.945   1.545  0.4598  0.0876 -2.5411
  522SOL    HW2 1566   0.184   1.901   1.407  0.3116  1.1957  1.0523
  523SOL     OW 1567   2.226   2.933   1.545 -0.2866 -0.2672  0.0019
  523SOL    HW1 1568   2.314   2.885   1.532 -3.9331 -0.5202 -2.4572
  523SOL    HW2 1569   2.149   2.880   1.503  1.6234  1.3232  2.0293
  524SOL     OW 1570   0.188   2.784   2.801 -0.1843  0.2358  0.6634
  524SOL    HW1 1571   0.138   2.874   2.820  0.4253 -3.0167 -0.2933
  524SOL    HW2 1572   0.292   2.797   2.803 -1.7853  1.1442  1.6265
  525SOL     OW 1573   2.149   2.020   0.382  0.3691  0.6387 -0.1262
  525SOL    HW1 1574   2.162   1.974   0.472  0.2562  0.5666  0.3381
  525SOL    HW2 1575   2.167   1.957   0.302 -0.2917 -0.2424  3.3404
  526SOL     OW 1576   0.476   1.490   1.652  0.1705 -0.4303  0.0951
  526SOL    HW1 1577   0.545   1.532   1.720  0.9220  0.5859  2.3330
  526SOL    HW2 1578   0.521   1.412   1.605  0.5544  0.3304  1.5365
  527SOL     OW 1579   1.018   2.861   1.210  0.0083  0.3505  0.9980
  527SOL    HW1 1580   1.094   2.794   1.222 -0.6917 -2.1168 -0.2719
  527SOL    HW2 1581   1.054   2.957   1.201 -1.7936  0.1633 -0.0436
  528SOL     OW 1582   1.354   2.363   0.544 -0.1034  0.1242 -0.3472
  528SOL    HW1 1583   1.400   2.273   0.535 -0.9108  0.6756  1.1491
  528SOL    HW2 1584   1.423   2.434   0.579  0.1221 -0.6959  3.3548
  529SOL     OW 1585   1.963   1.767   0.711  0.0158 -0.1569  0.2975
  529SOL    HW1 1586   1.883   1.764   0.648 -1.3995  2.7354  1.7081
  529SOL    HW2 1587   1.975   1.868   0.741  2.8931  1.4109 -0.1257
  530SOL     OW 1588   0.330   2.617   0.244 -0.4241  0.4185  0.3598
  530SOL    HW1 1589   0.344   2.676   0.327 -2.7285 -2.5369 -0.7263
  530SOL    HW2 1590   0.391   2.535   0.251  1.9981  1.4807  3.8367
  531SOL     OW 1591   1.830   1.020   1.030 -0.5864  0.1287 -0.0665
  531SOL    HW1 1592   1.833   1.055   0.933  3.6096  0.2072 -0.9814
  531SOL    HW2 1593   1.736   0.999   1.061  1.0157  0.9357  1.2586
  532SOL     OW 1594   0.382   1.200   0.684  0.2446 -0.3393 -0.5507
  532SOL    HW1 1595   0.430   1.191   0.596 -1.3426  1.9101  1.7736
  532SOL    HW2 1596   0.340   1.117   0.727 -1.4106  1.8159 -0.2194
  533SOL     OW 1597   1.778   0.042   2.560  0.3200 -0.3119  0.3335
  533SOL    HW1 1598   1.876   0.018   2.587  3.2581 -1.1658  0.8541
  533SOL    HW2 1599   1.730   0.084   2.640 -2.1371 -1.8681  1.5948
  534SOL     OW 1600   0.322   0.170   1.552 -0.0013 -0.4247  0.7984
  534SOL    HW1 1601   0.411   0.195   1.508 -1.2305 -0.0339  4.1881
  534SOL    HW2 1602   0.274   0.256   1.589 -1.4097 -1.4853 -2.2360
  535SOL     OW 1603   1.923   0.429   0.242 -0.1640 -0.2284  0.0931
  535SOL    HW1 1604   1.943   0.504   0.305 -1.2005  0.2370  0.4887
  535SOL    HW2 1605   1.845   0.371   0.273  1.3670  1.8519  0.3510
  536SOL     OW 1606   1.401   2.574   0.958  0.0735 -0.4306  0.4569
  536SOL    HW1 1607   1.389   2.541   1.054 -0.2526  1.6779  1.3308
  536SOL    HW2 1608   1.313   2.613   0.912 -0.9304  1.8036 -0.2585
  537SOL     OW 1609   0.819   0.173   2.330  0.3298  0.1337 -0.0285
  537SOL    HW1 1610   0.856   0.240   2.258 -1.7791  0.2800 -2.5694
  537SOL    HW2 1611   0.748   0.103   2.298  0.2554 -1.2591  3.1462
  538SOL     OW 1612   1.700   2.336   1.525  0.2288  0.5151 -0.5523
  538SOL    HW1 1613   1.654   2.248   1.503 -1.1272  1.6166  0.2519
  538SOL    HW2 1614   1.789   2.338   1.475  0.0423  3.1102  2.8046
  539SOL     OW 1615   0.190   1.567   2.713  0.0020 -0.2630 -0.5319
  539SOL    HW1 1616   0.146   1.588   2.620  0.3967 -2.0200  1.6972
  539SOL    HW2 1617   0.157   1.627   2.793  1.2517 -0.2414 -0.8430
  540SOL     OW 1618   2.729   1.706   1.984 -0.0965 -0.5243  0.1329
  540SOL    HW1 1619   2.734   1.614   2.031  1.5539 -0.0610 -0.3986
  540SOL    HW2 1620   2.650   1.764   2.009  2.0842 -1.3842 -1.5295
  541SOL     OW 1621   0.457   2.297   3.070 -0.1767  0.2857 -0.0040
  541SOL    HW1 1622   0.494   2.237   3.148  2.6644  0.2157  0.3674
  541SOL    HW2 1623   0.349   2.274   3.061 -1.2760 -0.2683 -1.1465
  542SOL     OW 1624   2.265   2.580   0.386  0.2015 -0.2425  0.2740
  542SOL    HW1 1625   2.231   2.664   0.336 -1.5520 -1.8483 -1.0728
  542SOL    HW2 1626   2.191   2.520   0.431  0.1988 -0.4125  0.4718
  543SOL     OW 1627   1.093   1.764   1.654  0.3430 -0.0565  0.2238
  543SOL    HW1 1628   1.058   1.790   1.746  0.1518  1.6353  0.4838
  543SOL    HW2 1629   1.064   1.827   1.577  1.0968 -1.4122  0.6407
  544SOL     OW 1630   1.013   0.427   0.220  0.0138  0.2407  0.2236
  544SOL    HW1 1631   1.014   0.336   0.269 -0.0367 -2.5152  2.4815
  544SOL    HW2 1632   1.037   0.407   0.120  1.2211 -0.9173 -2.7742
  545SOL     OW 1633   1.096   1.792   0.840  0.1036  0.5655 -0.4759
  545SOL    HW1 1634   1.190   1.825   0.813  0.0275 -0.4264  0.4941
  545SOL    HW2 1635   1.091   1.724   0.919 -3.8318  1.1149 -1.2261
  546SOL     OW 1636   2.644   1.541   3.092  0.1054 -1.3133  0.2093
  546SOL    HW1 1637   2.603   1.533   2.999  3.4061  3.1386  2.9778
  546SOL    HW2 1638   2.572   1.527   3.167  0.7155  0.7031  1.6090
  547SOL     OW 1639   0.558   3.104   2.683 -0.1224 -0.9499  0.1817
  547SOL    HW1 1640   0.649   3.060   2.659 -1.1405 -0.0299  2.0141
  547SOL    HW2 1641   0.481   3.037   2.686  2.3793  3.1553  1.8113
  548SOL     OW 1642   2.095   0.839   3.016  0.2721 -0.2780 -1.0677
  548SOL    HW1 1643   2.000   0.802   2.990  0.5332 -1.7887  1.5262
  548SOL    HW2 1644   2.084   0.935   3.052  0.8001  1.6303  3.1387
  549SOL     OW 1645   0.679   0.515   0.203 -0.0976 -0.1339  0.5659
  549SOL    HW1 1646   0.661   0.577   0.120  1.8578 -2.1109  1.3162
  549SOL    HW2 1647   0.760   0.555   0.249  1.5174  2.4717 -0.4458
  550SOL     OW 1648   2.467   2.842   2.883 -0.0303  0.0495  0.5554
  550SOL    HW1 1649   2.461   2.774   2.957 -0.9819 -0.5907  1.5658
  550SOL    HW2 1650   2.543   2.814   2.815  1.0189 -0.9270  1.1931
  551SOL     OW 1651   0.277   0.906   0.219 -0.6415  0.4527 -0.2434
  551SOL    HW1 1652   0.360   0.843   0.201  1.3252  0.6907 -0.5700
  551SOL    HW2 1653   0.251   0.898   0.322 -0.8377  1.7907 -1.5778
  552SOL     OW 1654   0.725   2.983   1.839  0.1742 -0.2954  0.2465
  552SOL    HW1 1655   0.700   3.005   1.937 -0.3686  0.8157 -2.1612
  552SOL    HW2 1656   0.816   3.036   1.809  2.5779 -1.0358  1.4460
  553SOL     OW 1657   3.006   2.554   0.329 -0.1639 -0.0913 -0.5033
  553SOL    HW1 1658   2.994   2.449   0.324  0.9747  0.6196 -0.8179
  553SOL    HW2 1659   3.022   2.586   0.430 -0.7934 -1.0042  2.3052
  554SOL     OW 1660   2.122   0.372   0.599  0.4468 -0.1971 -0.2300
  554SOL    HW1 1661   2.200   0.351   0.534  0.4654 -0.7908 -1.3112
  554SOL    HW2 1662   2.095   0.295   0.664  3.7819 -1.2510  1.7531
  555SOL     OW 1663   0.413   2.807   2.523  0.0784 -0.7699  0.5058
  555SOL    HW1 1664   0.326   2.849   2.496 -1.5762 -1.6948  0.3031
  555SOL    HW2 1665   0.452   2.741   2.450 -1.7053 -0.9550  0.5862
  556SOL     OW 1666   0.780   2.405   1.522  0.1119 -0.0143 -0.6106
  556SOL    HW1 1667   0.847   2.474   1.555 -1.9007  0.9820  0.9365
  556SOL    HW2 1668   0.822   2.359   1.439  0.1655  0.7111  0.4955
  557SOL     OW 1669   0.109   2.050   0.156  0.1038  0.5820 -0.6569
  557SOL    HW1 1670   0.021   1.996   0.131  0.6166 -0.3117  1.3098
  557SOL    HW2 1671   0.141   2.097   0.068 -1.3748  1.0536 -1.4001
  558SOL     OW 1672   2.935   2.296   0.288  0.0870 -0.5841 -0.0538
  558SOL    HW1 1673   2.839   2.279   0.326 -0.4857  0.9767 -0.7473
  558SOL    HW2 1674   2.940   2.291   0.184 -1.4063 -0.4574  0.7172
  559SOL     OW 1675   0.399   2.306   1.361  0.1739 -0.4982 -0.1136
  559SOL    HW1 1676   0.301   2.312   1.337  3.3839  2.1006  2.1413
  559SOL    HW2 1677   0.451   2.234   1.303  1.3714 -0.7308  1.9590
  560SOL     OW 1678   2.094   1.142   3.075 -0.2100  0.3371 -0.0370
  560SOL    HW1 1679   2.004   1.187   3.088  0.4728 -0.0122  0.6435
  560SOL    HW2 1680   2.170   1.210   3.065 -1.3498 -0.5837 -1.1648
  561SOL     OW 1681   3.005   1.884   0.009  0.1297  0.0148 -0.3992
  561SOL    HW1 1682   2.953   1.830   0.085  1.1308 -0.5318  3.5913
  561SOL    HW2 1683   2.947   1.970  -0.018 -2.2274  1.2203  1.1070
  562SOL     OW 1684   1.042   2.273   2.338 -0.2940 -0.4909 -0.5975
  562SOL    HW1 1685   0.962   2.236   2.377  0.7548  1.3224 -2.8494
  562SOL    HW2 1686   1.054   2.377   2.343  0.7530  2.4471  0.4967
  563SOL     OW 1687   0.716   2.559   2.607 -0.3042 -0.3428  1.1915
  563SOL    HW1 1688   0.783   2.483   2.616 -0.1287  0.4826  0.7585
  563SOL    HW2 1689   0.698   2.606   2.696  2.3496  0.5207 -1.9896
  564SOL     OW 1690   2.742   1.316   2.962 -0.2392  0.2494 -0.1299
  564SOL    HW1 1691   2.701   1.367   3.046  2.0616 -1.7218  3.5542
  564SOL    HW2 1692   2.794   1.384   2.905  1.0177 -1.2115  1.1587
  565SOL     OW 1693   2.565   1.970   2.608 -0.5966  0.6820  0.1205
  565SOL    HW1 1694   2.515   2.034   2.544 -0.5064 -0.4658 -2.2529
  565SOL    HW2 1695   2.617   2.019   2.684 -1.9736  0.0520  0.6579
  566SOL     OW 1696   2.005   2.822   1.396  0.8761 -0.4610  0.1012
  566SOL    HW1 1697   1.972   2.728   1.384  2.5347  2.3296  0.6931
  566SOL    HW2 1698   1.993   2.883   1.312  2.1620 -0.2937 -2.0692
  567SOL     OW 1699   2.489   0.088   2.269 -0.8198  0.2837  0.6990
  567SOL    HW1 1700   2.515   0.147   2.186  1.4289  0.9864 -0.0027
  567SOL    HW2 1701   2.389   0.066   2.268  2.0096 -0.0496 -5.6054
  568SOL     OW 1702   1.532   1.791   0.311 -0.6083  0.1327 -0.1641
  568SOL    HW1 1703   1.464   1.852   0.259 -0.5664  0.1935  1.7037
  568SOL    HW2 1704   1.625   1.787   0.263 -1.7854 -1.0772 -2.8407
  569SOL     OW 1705   0.278   0.675   0.773  0.0801 -0.4485  0.2511
  569SOL    HW1 1706   0.343   0.595   0.764 -1.8005 -0.0251  0.2175
  569SOL    HW2 1707   0.185   0.642   0.809 -2.5733  2.4047  0.8260
  570SOL     OW 1708   0.597   0.848   2.858 -0.4508  0.2474  0.3289
  570SOL    HW1 1709   0.678   0.848   2.793 -1.4610  2.7851  0.3925
  570SOL    HW2 1710   0.605   0.925   2.930  2.5193  3.0178  0.6064
  571SOL     OW 1711   0.778   3.090   1.018 -0.2388 -0.6815 -0.4770
  571SOL    HW1 1712   0.819   3.109   0.929 -0.0160 -0.8012  1.3032
  571SOL    HW2 1713   0.700   3.020   1.021 -1.1762  1.3092 -1.0498
  572SOL     OW 1714   1.577   2.616   1.287  0.3041  0.6055  0.2820
  572SOL    HW1 1715   1.496   2.563   1.248 -2.3426 -2.7153  2.1092
  572SOL    HW2 1716   1.575   2.713   1.258 -2.2418  0.1691 -0.6452
  573SOL     OW 1717   2.884   0.459   2.057  0.2547  0.0878 -0.0518
  573SOL    HW1 1718   2.842   0.366   2.084 -1.0696 -2.4143  0.1472
  573SOL    HW2 1719   2.816   0.531   2.038  2.7610  1.9703  1.5562
  574SOL     OW 1720   0.201   1.704   1.026 -0.3321  0.0046  0.1936
  574SOL    HW1 1721   0.162   1.797   1.015 -0.3540 -1.6866  0.5218
  574SOL    HW2 1722   0.132   1.634   1.058  1.0768  1.4907  0.5917
  575SOL     OW 1723   0.917   2.158   0.968 -0.5592 -0.3595 -0.5176
  575SOL    HW1 1724   0.874   2.194   1.055 -0.5764 -0.1890  0.4120
  575SOL    HW2 1725   0.936   2.240   0.906 -2.2392  1.1019  0.7308
  576SOL     OW 1726   2.880   3.007   1.696  0.1069  0.2924  0.1525
  576SOL    HW1 1727   2.776   2.994   1.715  0.5156  1.6935  2.7145
  576SOL    HW2 1728   2.908   3.106   1.681  0.0328  0.4033  0.5374
  577SOL     OW 1729   2.511   1.249   0.026 -0.3375 -0.1022 -0.2823
  577SOL    HW1 1730   2.526   1.185  -0.053 -0.6946  0.8282 -1.9371
  577SOL    HW2 1731   2.584   1.254   0.105 -0.3134 -2.1348  1.6224
  578SOL     OW 1732   1.341   2.774   2.463  0.5847  0.2908 -0.4144
  578SOL    HW1 1733   1.241   2.797   2.462 -0.2594 -2.0913 -0.8214
  578SOL    HW2 1734   1.402   2.855   2.469  0.6118  0.5988 -0.9022
  579SOL     OW 1735   0.085   2.510   0.125  0.2278  0.3339 -0.0488
  579SOL    HW1 1736   0.019   2.546   0.195  1.4840 -0.2980 -0.1590
  579SOL    HW2 1737   0.178   2.514   0.165 -0.5027 -1.7352  0.8433
  580SOL     OW 1738   1.029   2.642   0.420  0.1608  0.3924 -0.3703
  580SOL    HW1 1739   1.095   2.664   0.347 -0.6961  0.6212 -0.7578
  580SOL    HW2 1740   0.932   2.606   0.389 -3.1708  0.7983 -0.2729
  581SOL     OW 1741   1.264   2.609   1.494  0.2246  0.8801 -0.3460
  581SOL    HW1 1742   1.333   2.535   1.509  1.2655  0.8587 -0.0201
  581SOL    HW2 1743   1.294   2.701   1.521  1.1402 -1.3624 -0.6351
  582SOL     OW 1744   1.499   0.094   1.864  0.0795  0.1324  0.0028
  582SOL    HW1 1745   1.539   0.182   1.899 -1.4565  0.0968 -0.5012
  582SOL    HW2 1746   1.556   0.054   1.784  0.1804 -0.7991  0.5373
  583SOL     OW 1747   2.497   3.081   0.517 -0.2723  0.1640  0.3587
  583SOL    HW1 1748   2.589   3.066   0.476 -0.2832  2.3845  1.4583
  583SOL    HW2 1749   2.443   2.992   0.535 -2.1535  1.3042  1.3039
  584SOL     OW 1750   1.579   0.901   2.091  0.0555 -0.5050  0.1689
  584SOL    HW1 1751   1.643   0.975   2.069 -1.7271  2.8090  0.8922
  584SOL    HW2 1752   1.617   0.843   2.166 -0.2194 -0.6168 -3.4109
  585SOL     OW 1753   2.106   2.658   2.894  0.3256 -0.4250 -0.1979
  585SOL    HW1 1754   2.132   2.559   2.865  1.4379  2.6496  0.5561
  585SOL    HW2 1755   2.005   2.673   2.881 -0.8915  0.0471 -0.4889
  586SOL     OW 1756   2.821   0.387   1.536  0.5422  0.2183 -0.1745
  586SOL    HW1 1757   2.816   0.451   1.613  0.5023 -1.6073  0.2770
  586SOL    HW2 1758   2.741   0.321   1.544  0.7612  3.7464 -0.0396
  587SOL     OW 1759   1.978   1.558   2.697  0.5366 -0.0492 -0.2534
  587SOL    HW1 1760   2.047   1.518   2.630 -2.8681  0.5070 -1.2420
  587SOL    HW2 1761   2.010   1.553   2.798 -1.8608  0.9409  0.4353
  588SOL     OW 1762   0.476   2.705   2.253 -0.1008  0.2920  0.0179
  588SOL    HW1 1763   0.383   2.704   2.214 -1.0357  0.3319  0.2811
  588SOL    HW2 1764   0.501   2.610   2.288 -1.3516  0.0857 -0.3337
  589SOL     OW 1765   2.141   1.420   2.513  0.1968 -0.6032  0.2917
  589SOL    HW1 1766   2.075   1.353   2.464 -0.1603  0.6580  0.1007
  589SOL    HW2 1767   2.228   1.374   2.541  0.7390  1.5671 -1.4375
  590SOL     OW 1768   2.336   1.670   2.042  0.0254  0.4206 -0.4778
  590SOL    HW1 1769   2.409   1.594   2.029 -1.7770 -1.8548  0.7798
  590SOL    HW2 1770   2.361   1.723   2.130  3.6277  0.5707 -0.3068
  591SOL     OW 1771   1.320   2.373   0.270 -0.2728  0.0847  0.0713
  591SOL    HW1 1772   1.377   2.303   0.221 -2.0043 -0.2794 -0.6692
  591SOL    HW2 1773   1.314   2.358   0.375 -0.0242  0.1927 -0.3184
  592SOL     OW 1774   1.803   2.288   0.738  0.3898 -0.1857 -0.6321
  592SOL    HW1 1775   1.780   2.338   0.652 -1.5303  0.1032 -0.6871
  592SOL    HW2 1776   1.905   2.272   0.748 -0.2349  2.5464 -1.7541
  593SOL     OW 1777   0.709   0.243   0.243 -0.1803 -0.2443  0.0842
  593SOL    HW1 1778   0.771   0.202   0.172  3.7247 -0.9535  3.1634
  593SOL    HW2 1779   0.696   0.346   0.232 -1.3320 -1.0567 -0.2418
  594SOL     OW 1780   0.953   1.879   2.702  0.1712 -0.0339  0.2634
  594SOL    HW1 1781   1.050   1.848   2.705 -0.9576 -0.3513 -0.8288
  594SOL    HW2 1782   0.945   1.977   2.731  1.6343  2.1328  0.7245
  595SOL     OW 1783   1.566   0.064   1.078 -0.7973  0.4354 -0.2920
  595SOL    HW1 1784   1.626   0.003   1.016 -0.6805 -2.0844  0.0365
  595SOL    HW2 1785   1.468   0.033   1.067 -1.0507  1.9275  0.1035
  596SOL     OW 1786   0.006   1.423   2.247 -0.1093  0.5419 -0.5171
  596SOL    HW1 1787  -0.031   1.330   2.263  1.2979 -0.8976  0.6646
  596SOL    HW2 1788   0.032   1.464   2.341  0.6808  0.3360  1.7847
  597SOL     OW 1789   2.000   2.543   1.634 -0.1203  0.2780  0.5072
  597SOL    HW1 1790   1.968   2.474   1.558  2.2889 -0.1154  1.3915
  597SOL    HW2 1791   2.105   2.542   1.658  1.1583 -0.6018 -1.3118
  598SOL     OW 1792   2.517   2.959   1.265 -0.0478 -0.0079 -0.3461
  598SOL    HW1 1793   2.585   3.009   1.327 -0.2621  1.4815 -1.1145
  598SOL    HW2 1794   2.555   2.928   1.172  2.3554 -0.2796  1.4185
  599SOL     OW 1795   2.944   0.326   2.497 -0.4087 -0.2091 -0.0132
  599SOL    HW1 1796   3.037   0.349   2.460 -0.0600 -1.2527 -1.1903
  599SOL    HW2 1797   2.873   0.403   2.483 -3.2735  1.3831 -0.5918
  600SOL     OW 1798   2.811   1.130   2.772  0.4247 -0.2177 -0.0116
  600SOL    HW1 1799   2.742   1.052   2.786 -1.4700 -2.1154  0.0068
  600SOL    HW2 1800   2.788   1.204   2.843 -0.3438 -0.2423  2.0593
  601SOL     OW 1801   2.979   1.293   1.972  0.1784  0.2505  0.3993
  601SOL    HW1 1802   2.912   1.326   1.893 -1.5596  2.0671  0.6592
  601SOL    HW2 1803   3.068   1.345   1.983 -0.8375  1.5639 -3.1834
  602SOL     OW 1804   1.442   1.751   2.378  0.7845 -0.0309 -0.5327
  602SOL    HW1 1805   1.378   1.680   2.343  0.3140 -0.1928  2.4099
  602SOL    HW2 1806   1.541   1.737   2.351 -1.4000 -0.1465  2.2937
  603SOL     OW 1807   0.594   1.204   2.734  0.0971  0.2001 -0.1919
  603SOL    HW1 1808   0.510   1.161   2.683 -2.0630  0.6244 -1.6147
  603SOL    HW2 1809   0.682   1.150   2.710 -0.9877 -0.7608 -2.3845
  604SOL     OW 1810   2.388   1.009   0.153  0.2386  0.5881  0.2440
  604SOL    HW1 1811   2.446   1.085   0.113 -0.6209  0.1130 -1.6997
  604SOL    HW2 1812   2.381   0.924   0.091 -0.5910 -3.7780 -0.4967
  605SOL     OW 1813   2.529   1.142   1.937  0.5860 -0.4654  0.4698
  605SOL    HW1 1814   2.584   1.074   1.890 -0.1884  4.8168 -1.6014
  605SOL    HW2 1815   2.583   1.197   2.008 -1.6564 -1.5068  1.2264
  606SOL     OW 1816   1.488   2.532   2.582  0.3504 -0.0649 -0.6682
  606SOL    HW1 1817   1.415   2.585   2.529 -1.8500  3.2741 -0.4972
  606SOL    HW2 1818   1.475   2.427   2.585 -0.6449 -0.0695  2.9614
  607SOL     OW 1819   1.344   1.589   0.334  0.1353 -0.2949 -0.6442
  607SOL    HW1 1820   1.246   1.629   0.345 -1.2648 -1.9643 -1.3583
  607SOL    HW2 1821   1.422   1.659   0.333 -0.2762  0.9246 -0.0719
  608SOL     OW 1822   1.422   2.890   0.329 -0.3600 -0.5555  0.3545
  608SOL    HW1 1823   1.519   2.916   0.291  1.1860 -1.6384 -0.0077
  608SOL    HW2 1824   1.379   2.971   0.378  0.2564  0.0491 -0.6393
  609SOL     OW 1825   1.302   1.363   0.184 -0.9349 -0.2897 -0.0601
  609SOL    HW1 1826   1.316   1.442   0.258 -3.0537 -0.6560  3.4671
  609SOL    HW2 1827   1.244   1.391   0.101  1.3749 -3.1920  1.2714
  610SOL     OW 1828   3.014   1.156   2.204  0.0785  0.0434 -0.0576
  610SOL    HW1 1829   3.007   1.050   2.193  0.4470 -0.2141 -0.5047
  610SOL    HW2 1830   3.002   1.208   2.112 -1.2616 -0.1292  0.1999
  611SOL     OW 1831   2.534   0.294   1.117  0.1957  0.0853  0.1617
  611SOL    HW1 1832   2.469   0.227   1.165 -2.2188 -0.8357 -1.0856
  611SOL    HW2 1833   2.628   0.300   1.162 -0.5484 -0.2747  2.2240
  612SOL     OW 1834   0.753   2.275   1.161 -0.0758 -0.1573  0.4621
  612SOL    HW1 1835   0.673   2.217   1.193 -0.1925  0.8221 -0.1998
  612SOL    HW2 1836   0.725   2.373   1.163 -2.2300  0.7603 -1.8029
  613SOL     OW 1837   0.823   1.368   2.423  0.0625  0.0455 -0.1253
  613SOL    HW1 1838   0.821   1.456   2.362 -0.4945 -1.1010 -0.3361
  613SOL    HW2 1839   0.839   1.282   2.369 -1.2515  1.5638 -0.3807
  614SOL     OW 1840   1.554   1.616   1.978 -0.3603 -0.2181  0.9711
  614SOL    HW1 1841   1.510   1.711   1.990 -1.6058  1.7974 -3.9156
  614SOL    HW2 1842   1.639   1.611   2.036  0.5599  1.0746  0.0274
  615SOL     OW 1843   0.763   1.348   1.723  0.2895  0.8356  0.2491
  615SOL    HW1 1844   0.707   1.297   1.654  0.1682 -0.5109  0.9516
  615SOL    HW2 1845   0.820   1.425   1.686  1.2514 -2.7032  4.7277
  616SOL     OW 1846   1.006   1.641   2.178 -0.3451 -0.3422 -0.7039
  616SOL    HW1 1847   0.919   1.587   2.190 -0.9771 -2.5464 -0.6882
  616SOL    HW2 1848   0.988   1.743   2.176 -0.3055  1.4792  1.5997
  617SOL     OW 1849   2.943   1.566   1.639  0.1738 -0.1606  0.2679
  617SOL    HW1 1850   2.906   1.489   1.694  2.0567  0.4140  0.9234
  617SOL    HW2 1851   2.990   1.539   1.546  1.1709 -2.2421 -2.1540
  618SOL     OW 1852   1.885   1.996   1.450 -0.2608  0.0280  0.2857
  618SOL    HW1 1853   1.906   2.009   1.349 -1.0106 -2.2372 -1.1694
  618SOL    HW2 1854   1.873   1.898   1.470  0.9521 -1.2765  0.5217
  619SOL     OW 1855   1.766   0.456   2.407  0.2754  0.7349  0.7352
  619SOL    HW1 1856   1.694   0.511   2.353 -0.9153  3.0584  0.5622
  619SOL    HW2 1857   1.743   0.357   2.434  0.3048 -1.8265 -2.1176
  620SOL     OW 1858   2.251   2.970   0.626 -0.4224  0.3216  0.1245
  620SOL    HW1 1859   2.213   3.056   0.651 -3.1521 -1.1082  0.4097
  620SOL    HW2 1860   2.239   2.897   0.699  0.3455  0.7276 -0.3197
  621SOL     OW 1861   2.172   1.832   1.312  0.0113 -0.1896 -0.1297
  621SOL    HW1 1862   2.174   1.829   1.416  0.4070 -0.7204  0.8463
  621SOL    HW2 1863   2.113   1.750   1.274  1.3411  2.4736 -2.5835
  622SOL     OW 1864   2.251   0.939   1.818 -0.1214 -0.4277  0.1121
  622SOL    HW1 1865   2.340   0.947   1.766 -1.9707  2.1965 -0.5134
  622SOL    HW2 1866   2.233   0.843   1.853 -1.6442 -1.7366 -0.1819
  623SOL     OW 1867   1.327   0.840   2.644  0.4161  0.2640  0.0363
  623SOL    HW1 1868   1.299   0.741   2.648 -0.1390  0.5845  0.5063
  623SOL    HW2 1869   1.265   0.889   2.575 -0.1085 -1.2807  0.1745
  624SOL     OW 1870   0.590   0.674   3.081  0.0610  0.2372 -0.1123
  624SOL    HW1 1871   0.588   0.716   2.984  1.9837  1.7210 -1.7300
  624SOL    HW2 1872   0.592   0.746   3.152  1.8917 -1.3243  0.4734
  625SOL     OW 1873   2.820   1.693   0.965  0.5505 -0.0395 -0.4508
  625SOL    HW1 1874   2.747   1.762   0.997 -0.8206 -0.0475  1.8736
  625SOL    HW2 1875   2.869   1.728   0.881  0.7983  1.6625  2.5546
  626SOL     OW 1876   0.600   2.741   1.781 -0.2115  0.4866  0.9334
  626SOL    HW1 1877   0.636   2.829   1.819  0.8090  2.5916 -2.6893
  626SOL    HW2 1878   0.500   2.738   1.763  0.6406  1.3306 -0.4588
  627SOL     OW 1879   0.767   1.005   1.513 -0.7967  0.6641  0.8703
  627SOL    HW1 1880   0.783   0.929   1.442  1.4475 -2.5334 -0.1571
  627SOL    HW2 1881   0.816   1.096   1.497 -0.8832 -0.3672 -2.9721
  628SOL     OW 1882   2.383   0.163   0.711 -0.6665 -0.3249 -0.0918
  628SOL    HW1 1883   2.405   0.103   0.628  1.1955 -1.1249  0.7599
  628SOL    HW2 1884   2.291   0.147   0.748  3.0386  0.8814  5.5953
  629SOL     OW 1885   1.957   0.890   1.977  0.5086 -0.1525 -0.0749
  629SOL    HW1 1886   2.021   0.906   1.898 -1.9213  0.0635 -2.7149
  629SOL    HW2 1887   1.927   0.976   2.021 -2.5644 -1.4227  0.0242
  630SOL     OW 1888   2.916   2.243   0.845  0.4275  0.7413  0.1477
  630SOL    HW1 1889   2.842   2.316   0.847 -2.2750 -1.0081 -0.5517
  630SOL    HW2 1890   2.877   2.155   0.814 -0.6235  1.1591 -1.0039
  631SOL     OW 1891   2.972   0.149   2.119 -0.1245 -0.3518 -0.2061
  631SOL    HW1 1892   3.019   0.213   2.188 -1.0060  0.3886  2.1059
  631SOL    HW2 1893   3.028   0.136   2.033 -1.8091  0.4449  2.2173
  632SOL     OW 1894   2.371   2.529   0.655  0.4794 -0.1415 -0.0512
  632SOL    HW1 1895   2.437   2.599   0.696 -0.6226 -0.3145  1.0457
  632SOL    HW2 1896   2.336   2.556   0.556 -1.1670 -1.0587  0.6094
  633SOL     OW 1897   1.423   1.212   2.568 -0.0189  0.2509 -0.5366
  633SOL    HW1 1898   1.443   1.295   2.627  0.2367 -2.1683 -0.8060
  633SOL    HW2 1899   1.351   1.223   2.492 -2.7223 -2.4397 -0.3566
  634SOL     OW 1900   0.714   1.982   0.872  0.4087 -1.0714  0.0569
  634SOL    HW1 1901   0.634   2.023   0.922  0.6121 -1.3840  0.2453
  634SOL    HW2 1902   0.804   2.033   0.888  0.2219  0.7490  0.0764
  635SOL     OW 1903   3.017   2.333   3.099  0.3284 -0.0197  0.0401
  635SOL    HW1 1904   2.951   2.393   3.048  1.2046 -2.2460  0.8300
  635SOL    HW2 1905   3.089   2.383   3.156 -1.4398 -0.5355  2.5980
  636SOL     OW 1906   2.282   2.724   2.075 -0.7176 -0.2034  0.5300
  636SOL    HW1 1907   2.262   2.820   2.098 -1.9751 -0.5619  0.5732
  636SOL    HW2 1908   2.236   2.661   2.150  0.5666  0.4870  1.1380
  637SOL     OW 1909   2.637   0.683   2.041  0.1352  0.4424  0.8800
  637SOL    HW1 1910   2.590   0.690   1.951 -2.9747  1.2546  1.3947
  637SOL    HW2 1911   2.672   0.776   2.068 -1.1791 -1.0427 -1.0003
  638SOL     OW 1912   2.430   1.780   1.252  0.0379 -0.2080  0.1976
  638SOL    HW1 1913   2.333   1.786   1.288  0.1189  1.9936  1.2993
  638SOL    HW2 1914   2.493   1.728   1.316 -1.0259  1.0192 -0.5808
  639SOL     OW 1915   1.281   2.169   1.730  0.2812  0.4112  0.0380
  639SOL    HW1 1916   1.324   2.098   1.669  0.2532 -0.0457 -0.8815
  639SOL    HW2 1917   1.179   2.149   1.746  0.0516 -0.0050 -0.7881
  640SOL     OW 1918   0.185   1.158   1.580  0.0949  0.4113 -0.1843
  640SOL    HW1 1919   0.184   1.194   1.678  1.2378 -2.0757  1.0712
  640SOL    HW2 1920   0.269   1.094   1.564  0.0250 -0.1170  2.9605
  641SOL     OW 1921   2.045   0.179   1.535  0.1982  0.1091 -0.0192
  641SOL    HW1 1922   2.005   0.211   1.626 -0.5793  0.2593  1.7955
  641SOL    HW2 1923   2.141   0.149   1.534 -1.7892 -0.3991  0.1918
  642SOL     OW 1924   2.000   0.061   0.320 -0.5793  0.5791 -0.4570
  642SOL    HW1 1925   2.097   0.063   0.351 -0.9263  0.1808 -1.4339
  642SOL    HW2 1926   1.934   0.092   0.392  1.5737  0.0147  2.7415
  643SOL     OW 1927   2.952   1.849   2.069 -0.4079  0.1323  0.0667
  643SOL    HW1 1928   2.882   1.779   2.043 -1.7367 -0.3561  0.2944
  643SOL    HW2 1929   2.982   1.905   1.985  0.8454 -0.5640 -1.4170
  644SOL     OW 1930   2.236   2.367   1.197  0.4535  0.3858  0.2778
  644SOL    HW1 1931   2.320   2.323   1.164 -1.8019  4.8118 -1.7118
  644SOL    HW2 1932   2.205   2.339   1.289  1.1515 -0.7643  0.8302
  645SOL     OW 1933   0.624   0.799   1.272  0.2766  0.3158 -0.4036
  645SOL    HW1 1934   0.534   0.837   1.315  1.7486 -0.0599  1.7791
  645SOL    HW2 1935   0.611   0.802   1.170 -0.2060  1.3367  0.1620
  646SOL     OW 1936   1.453   1.880   2.039  0.3377  0.5946 -0.5152
  646SOL    HW1 1937   1.465   1.945   1.957 -0.3961  0.7187 -1.0316
  646SOL    HW2 1938   1.413   1.927   2.123 -1.2999 -0.9957 -1.4329
  647SOL     OW 1939   0.805   1.079   0.695  0.4756  0.0983 -0.3554
  647SOL    HW1 1940   0.851   1.118   0.781 -0.9443 -1.4375 -3.3217
  647SOL    HW2 1941   0.750   0.992   0.706  0.3591  1.5034 -2.8235
  648SOL     OW 1942   0.081   0.216   0.204  0.5820 -0.4480 -0.5929
  648SOL    HW1 1943   0.138   0.172   0.135  0.0222  0.7060  2.7754
  648SOL    HW2 1944   0.088   0.320   0.211 -0.4752 -0.8083  1.7551
  649SOL     OW 1945   3.025   0.252   0.884 -0.1612  0.4640  0.2534
  649SOL    HW1 1946   3.111   0.200   0.853  0.5565  0.0869  0.2245
  649SOL    HW2 1947   3.026   0.290   0.982 -0.7252 -1.5178  0.9756
  650SOL     OW 1948   2.780   0.708   1.465 -0.2991 -0.1988 -0.5052
  650SOL    HW1 1949   2.680   0.676   1.473 -0.9480 -2.1324  1.0188
  650SOL    HW2 1950   2.796   0.796   1.408 -1.5847  1.5680  0.0763
  651SOL     OW 1951   0.911   1.539   1.605 -0.1170  0.5643  0.0390
  651SOL    HW1 1952   0.968   1.615   1.643  0.9817 -0.2038 -0.1263
  651SOL    HW2 1953   0.921   1.528   1.501  0.6554  1.2122  3.3751
  652SOL     OW 1954   2.313   2.415   2.497  0.5358 -0.1783  0.2245
  652SOL    HW1 1955   2.212   2.421   2.494 -0.9298  1.2884 -0.0215
  652SOL    HW2 1956   2.362   2.505   2.489  0.7249 -0.0978 -0.7970
  653SOL     OW 1957   2.707   1.232   0.190  0.4773  0.1319  0.0216
  653SOL    HW1 1958   2.736   1.329   0.223  1.1664 -0.7808  1.2045
  653SOL    HW2 1959   2.769   1.154   0.224 -0.9508 -1.1459 -0.8154
  654SOL     OW 1960   1.224   2.241   1.258 -0.0984 -0.3259 -0.0783
  654SOL    HW1 1961   1.245   2.168   1.326 -1.4159 -1.1220  1.1622
  654SOL    HW2 1962   1.278   2.232   1.172 -0.1039 -0.6951  1.1707
  655SOL     OW 1963   0.150   0.954   1.967  0.0246 -0.0048 -0.5098
  655SOL    HW1 1964   0.215   0.907   1.901 -1.8450 -1.4655 -1.6971
  655SOL    HW2 1965   0.163   1.056   1.955  0.6650 -0.9323  1.4039
  656SOL     OW 1966   2.572   2.436   2.648 -0.0652  0.2415 -0.3904
  656SOL    HW1 1967   2.650   2.423   2.581  2.6500  3.4041 -2.2565
  656SOL    HW2 1968   2.486   2.398   2.604  0.3739  0.7296  0.3805
  657SOL     OW 1969   3.004   1.010   1.899 -0.0595  0.0182  0.3892
  657SOL    HW1 1970   2.981   1.111   1.908  0.5071  1.8139  0.0766
  657SOL    HW2 1971   3.102   0.986   1.923 -1.8757  3.0180 -0.7454
  658SOL     OW 1972   1.643   0.195   2.387  0.3218  0.1415 -0.2289
  658SOL    HW1 1973   1.691   0.130   2.450  1.5985  1.0987 -1.0384
  658SOL    HW2 1974   1.691   0.195   2.299 -0.3073  0.8009  1.4906
  659SOL     OW 1975   1.422   0.609   2.852  0.1446 -0.2916  0.6046
  659SOL    HW1 1976   1.469   0.690   2.895  0.3519  2.4178 -0.0746
  659SOL    HW2 1977   1.322   0.616   2.874  2.5671 -0.8173  0.3407
  660SOL     OW 1978   1.387   0.339   1.413 -0.2213 -0.0192  0.6700
  660SOL    HW1 1979   1.423   0.379   1.501  0.9655 -2.6203 -0.9958
  660SOL    HW2 1980   1.440   0.258   1.373 -0.0091 -2.1917 -1.1009
  661SOL     OW 1981   2.479   1.195   0.655  0.0875 -0.1468 -0.5302
  661SOL    HW1 1982   2.471   1.186   0.549  0.7563 -0.1093  1.7605
  661SOL    HW2 1983   2.423   1.278   0.686 -0.0044  1.4532 -0.9595
  662SOL     OW 1984   1.416   0.418   1.748  0.0051  0.2746  0.0761
  662SOL    HW1 1985   1.330   0.362   1.756 -0.6238  0.9444  1.2002
  662SOL    HW2 1986   1.456   0.439   1.841  0.2930 -0.1678  0.7741
  663SOL     OW 1987   0.759   1.543   2.232 -0.7019 -0.2239  0.0120
  663SOL    HW1 1988   0.706   1.634   2.219  1.4330 -3.2891 -0.9623
  663SOL    HW2 1989   0.739   1.486   2.145 -2.9460  3.9739 -2.6255
  664SOL     OW 1990   1.639   2.083   1.442  0.4684 -0.1460  0.2573
  664SOL    HW1 1991   1.563   2.025   1.475  1.7534 -1.1469 -2.1573
  664SOL    HW2 1992   1.735   2.041   1.452 -0.6486  1.3542  0.5535
  665SOL     OW 1993   2.267   0.670   1.925  0.1919 -0.0611 -0.5179
  665SOL    HW1 1994   2.225   0.581   1.910 -0.0871 -0.3656  0.6349
  665SOL    HW2 1995   2.297   0.683   2.024  2.2172 -1.4558  0.4470
  666SOL     OW 1996   0.422   2.306   0.359 -0.5963  0.1607 -0.2819
  666SOL    HW1 1997   0.484   2.353   0.425 -0.5351 -1.5374 -0.1523
  666SOL    HW2 1998   0.324   2.302   0.395 -1.6559 -0.0932  1.1357
  667SOL     OW 1999   2.017   0.204   1.190 -0.7754  0.1386 -0.0516
  667SOL    HW1 2000   2.042   0.302   1.175 -3.2475  0.8587  1.1083
  667SOL    HW2 2001   1.941   0.193   1.257 -0.2168  1.6244  0.5152
  668SOL     OW 2002   2.064   0.465   1.128 -0.3398  0.0790 -0.2522
  668SOL    HW1 2003   2.115   0.512   1.044  2.4255  2.3730 -3.4309
  668SOL    HW2 2004   2.086   0.508   1.221  0.6672 -1.1462  1.0005
  669SOL     OW 2005   0.009   2.163   1.025  0.1380  0.2858 -0.4873
  669SOL    HW1 2006  -0.059   2.221   0.969  1.5103  0.0631 -0.1016
  669SOL    HW2 2007   0.034   2.211   1.117 -2.0674 -0.2395 -2.7548
  670SOL     OW 2008   2.863   2.348   1.967  0.0634 -0.0737 -0.5971
  670SOL    HW1 2009   2.790   2.324   2.041  2.5077  1.5945 -0.7892
  670SOL    HW2 2010   2.852   2.448   1.940 -0.5976  1.0113 -0.5372
  671SOL     OW 2011   1.742   1.707   1.482  0.2925  0.4425 -0.3390
  671SOL    HW1 2012   1.747   1.737   1.383 -1.4096 -1.2865  2.4203
  671SOL    HW2 2013   1.664   1.643   1.500  2.4580 -2.6413  0.0076
  672SOL     OW 2014   0.415   0.624   2.389 -0.1451 -0.2409 -0.1178
  672SOL    HW1 2015   0.482   0.668   2.320 -0.0418  2.1261  0.8772
  672SOL    HW2 2016   0.332   0.681   2.404  0.2420 -1.6128  2.2300
  673SOL     OW 2017   0.133   1.182   1.153 -0.0431 -0.5242  0.1212
  673SOL    HW1 2018   0.144   1.238   1.238  0.2883 -0.0446 -1.8608
  673SOL    HW2 2019   0.224   1.138   1.116  1.7343 -0.6345  0.7113
  674SOL     OW 2020   1.675   2.941   0.232 -0.5051  0.4148 -0.3310
  674SOL    HW1 2021   1.703   3.026   0.176  1.7768  1.8872 -0.5613
  674SOL    HW2 2022   1.752   2.873   0.222  0.1237  2.1316  1.6243
  675SOL     OW 2023   1.740   0.819   2.342  0.2726  0.1187  0.2852
  675SOL    HW1 2024   1.837   0.795   2.343 -2.0166  1.5940  0.9001
  675SOL    HW2 2025   1.683   0.736   2.313 -1.9179  1.0598  0.4135
  676SOL     OW 2026   2.514   1.462   1.967  0.1171 -0.1997  0.5011
  676SOL    HW1 2027   2.498   1.442   1.862 -1.4405 -2.4330  1.6697
  676SOL    HW2 2028   2.572   1.395   2.013 -0.5172  0.1203 -2.0366
  677SOL     OW 2029   1.884   0.655   0.889  0.9999 -0.1149 -0.8227
  677SOL    HW1 2030   1.886   0.674   0.992  1.4301 -0.5443  1.9665
  677SOL    HW2 2031   1.913   0.554   0.866  2.1954 -0.4229 -0.7961
  678SOL     OW 2032   0.030   0.761   1.681 -0.2180  0.2709  0.2995
  678SOL    HW1 2033   0.124   0.770   1.731 -0.7624 -0.2831  0.5237
  678SOL    HW2 2034  -0.048   0.770   1.747 -1.0175  0.6876  0.4044
  679SOL     OW 2035   2.574   1.201   1.100  0.1160  0.4846 -0.1377
  679SOL    HW1 2036   2.478   1.231   1.109  2.1479 -4.1117 -0.7249
  679SOL    HW2 2037   2.584   1.101   1.082  0.0661  0.4478  0.2648
  680SOL     OW 2038   2.831   0.599   1.706 -0.4253  0.7095  0.6849
  680SOL    HW1 2039   2.823   0.653   1.616 -0.0407 -0.0372 -2.1226
  680SOL    HW2 2040   2.877   0.647   1.786 -0.8667 -0.8308  0.1453
  681SOL     OW 2041   3.009   0.178   1.643 -0.0577  0.6217  0.4427
  681SOL    HW1 2042   3.097   0.155   1.601  1.6041 -1.4463 -1.3078
  681SOL    HW2 2043   2.942   0.239   1.586 -3.3826  2.1915 -1.0662
  682SOL     OW 2044   0.825   3.091   1.304 -0.1572 -0.5462  0.2013
  682SOL    HW1 2045   0.743   3.042   1.325 -0.0245  0.1879  1.3562
  682SOL    HW2 2046   0.857   3.064   1.211  0.5123 -0.7272  0.0932
  683SOL     OW 2047   1.343   0.229   2.199 -0.3078 -0.4592  0.3943
  683SOL    HW1 2048   1.380   0.260   2.289 -0.5242  2.7381 -1.2630
  683SOL    HW2 2049   1.416   0.243   2.129  2.7964  0.4558  1.5211
  684SOL     OW 2050   1.457   2.109   0.499  0.1348 -0.2482  0.8798
  684SOL    HW1 2051   1.507   2.029   0.549  1.7163  0.0237  1.7126
  684SOL    HW2 2052   1.360   2.081   0.477  1.9132 -2.1692 -0.1118
  685SOL     OW 2053   2.115   2.029   1.959 -0.4126 -0.6932  0.1980
  685SOL    HW1 2054   2.193   2.021   1.893 -1.4524  2.7447  0.8664
  685SOL    HW2 2055   2.151   2.018   2.058  1.4940  0.0713 -2.8581
  686SOL     OW 2056   1.521   1.802   2.705 -0.6759 -0.2041  0.2227
  686SOL    HW1 2057   1.562   1.751   2.785  0.8182 -2.3393 -1.9462
  686SOL    HW2 2058   1.588   1.811   2.628 -0.4561  0.3103  1.0093
  687SOL     OW 2059   1.288   2.478   1.977 -0.1830 -0.0337 -0.1124
  687SOL    HW1 2060   1.263   2.379   1.968 -1.4854 -0.4162 -1.0970
  687SOL    HW2 2061   1.316   2.512   2.074  0.6128  0.0426  3.6141
  688SOL     OW 2062   2.079   1.505   1.749 -0.1632  0.4139 -1.0045
  688SOL    HW1 2063   2.165   1.561   1.763 -1.3970  0.4846 -0.4290
  688SOL    HW2 2064   2.066   1.492   1.641  0.0183 -0.2085 -2.7775
  689SOL     OW 2065   2.413   1.076   2.712  0.6061 -0.4222 -0.1927
  689SOL    HW1 2066   2.326   1.025   2.714  1.8444  2.8988 -0.0604
  689SOL    HW2 2067   2.465   1.078   2.803 -0.0628 -2.8960 -0.6268
  690SOL     OW 2068   2.226   2.813   0.021  0.2226  0.1069 -0.1769
  690SOL    HW1 2069   2.146   2.810  -0.046  0.6587 -2.5104 -2.8055
  690SOL    HW2 2070   2.188   2.814   0.118  0.9608 -0.7343 -0.6767
  691SOL     OW 2071   2.600   0.463   2.203 -0.3457  0.6448 -0.4434
  691SOL    HW1 2072   2.638   0.375   2.168 -1.1906 -0.2724  0.3394
  691SOL    HW2 2073   2.624   0.541   2.144 -1.1544 -3.2895  1.9163
  692SOL     OW 2074   2.718   1.230   0.747  0.2305  0.2119 -0.1297
  692SOL    HW1 2075   2.627   1.219   0.703  1.7904 -0.6751 -2.1412
  692SOL    HW2 2076   2.723   1.306   0.819 -0.5512 -0.0569 -0.4481
  693SOL     OW 2077   2.866   2.934   0.625 -0.7766  0.0741  0.1131
  693SOL    HW1 2078   2.850   2.997   0.704 -0.5934 -2.5989  1.0160
  693SOL    HW2 2079   2.812   2.964   0.541  0.0786 -2.6608 -3.3247
  694SOL     OW 2080   2.359   2.179   0.079 -0.3284  0.2808 -0.1763
  694SOL    HW1 2081   2.376   2.258   0.143  0.7043 -1.7312  0.3568
  694SOL    HW2 2082   2.262   2.152   0.080  1.1401  0.5940  1.4063
  695SOL     OW 2083   0.580   2.992   1.428 -0.2270 -0.4519  0.4417
  695SOL    HW1 2084   0.534   2.906   1.395  0.4232  0.5259 -0.6882
  695SOL    HW2 2085   0.536   3.030   1.510  0.7987 -1.4145  0.0890
  696SOL     OW 2086   2.774   1.946   0.736  0.4700  0.0946  0.4941
  696SOL    HW1 2087   2.850   1.874   0.747  0.2519 -1.5117  2.1748
  696SOL    HW2 2088   2.735   1.950   0.641 -1.0756 -3.7114  1.5745
  697SOL     OW 2089   1.601   2.027   1.825  0.5572 -0.0512  0.1115
  697SOL    HW1 2090   1.677   1.966   1.863  1.6501 -1.2795 -0.9044
  697SOL    HW2 2091   1.640   2.124   1.793 -1.0704  1.1776 -1.1187
  698SOL     OW 2092   2.943   0.437   2.777  0.1608  0.3450 -0.5599
  698SOL    HW1 2093   2.914   0.425   2.681  2.2280 -3.2514  2.5834
  698SOL    HW2 2094   2.994   0.351   2.811 -2.9899  0.2520 -0.6582
  699SOL     OW 2095   1.574   0.075   2.915  0.3482 -0.2801 -0.2843
  699SOL    HW1 2096   1.572  -0.005   2.849 -2.3774  2.4241  0.2330
  699SOL    HW2 2097   1.610   0.158   2.868 -0.4740  2.1530  1.1831
  700SOL     OW 2098   0.964   2.307   1.322  0.4823 -0.2891 -0.2522
  700SOL    HW1 2099   1.062   2.274   1.296 -0.4542 -3.7162 -0.5721
  700SOL    HW2 2100   0.888   2.286   1.254 -1.3019  1.5581  0.8212
  701SOL     OW 2101   1.913   2.869   3.063  0.5150 -0.9481  0.0268
  701SOL    HW1 2102   1.870   2.811   3.139 -3.8141 -0.5180 -2.5940
  701SOL    HW2 2103   1.957   2.962   3.090  1.1570 -0.0299 -0.0599
  702SOL     OW 2104   2.065   1.327   2.009  0.4150  0.1453  0.1945
  702SOL    HW1 2105   2.144   1.274   1.963 -1.5083  2.3985 -0.6961
  702SOL    HW2 2106   2.048   1.419   1.962 -0.7408  1.1299 -2.5276
  703SOL     OW 2107   1.926   0.886   1.426 -0.0133  0.3096 -0.5484
  703SOL    HW1 2108   1.919   0.807   1.497 -1.4567  0.7577  1.1124
  703SOL    HW2 2109   1.974   0.968   1.469 -1.5683 -1.0774  0.0038
  704SOL     OW 2110   0.310   2.057   1.694 -0.0495 -0.1305 -0.8164
  704SOL    HW1 2111   0.330   2.005   1.779  0.0419  2.1397 -1.9414
  704SOL    HW2 2112   0.373   2.143   1.679  2.6714 -0.9599  0.7416
  705SOL     OW 2113   2.518   1.497   0.969 -0.5869 -0.4153  0.3209
  705SOL    HW1 2114   2.467   1.437   0.900 -0.2249  0.0520  0.3812
  705SOL    HW2 2115   2.620   1.483   0.961 -0.5692 -0.0466 -1.6722
  706SOL     OW 2116   0.637   1.629   1.832  0.0672  0.4113 -0.5735
  706SOL    HW1 2117   0.669   1.537   1.862 -1.7675  0.5256 -1.2458
  706SOL    HW2 2118   0.684   1.699   1.888 -0.9451 -0.4822  1.0527
  707SOL     OW 2119   2.269   1.210   1.879  0.2315  0.3112  0.2115
  707SOL    HW1 2120   2.362   1.217   1.922 -0.6958  0.9638  0.4515
  707SOL    HW2 2121   2.243   1.107   1.859  0.6151 -1.3783  1.2271
  708SOL     OW 2122   3.074   0.532   3.061 -0.6415  1.0410 -0.3173
  708SOL    HW1 2123   3.102   0.595   2.985 -0.7237  0.1741 -1.2469
  708SOL    HW2 2124   3.052   0.432   3.040  1.2248 -1.7689  0.3377
  709SOL     OW 2125   1.824   1.844   0.236 -0.3338  0.2490 -0.2206
  709SOL    HW1 2126   1.861   1.935   0.272  1.4133 -1.2118 -3.3733
  709SOL    HW2 2127   1.818   1.848   0.131  2.0476  0.1960 -0.9236
  710SOL     OW 2128   1.761   1.663   2.440  0.0958  0.2533  0.2375
  710SOL    HW1 2129   1.788   1.651   2.340  1.2562  0.4935  1.4380
  710SOL    HW2 2130   1.788   1.580   2.503 -0.5702 -1.7200 -0.7756
  711SOL     OW 2131   2.637   2.975   0.990  0.4391  0.1139 -1.0220
  711SOL    HW1 2132   2.614   3.063   0.944 -0.3926  1.5842  1.1688
  711SOL    HW2 2133   2.721   2.975   1.048  1.6330 -1.5116 -1.1650
  712SOL     OW 2134   1.363   2.218   1.988 -0.8822  0.1910 -0.3490
  712SOL    HW1 2135   1.461   2.242   2.023 -1.5449  3.1143  2.2206
  712SOL    HW2 2136   1.361   2.193   1.884  1.0494  0.5267 -0.6193
  713SOL     OW 2137   2.905   1.463   2.536  0.5774 -0.2432 -0.0593
  713SOL    HW1 2138   2.865   1.391   2.471 -0.7470 -1.6567 -0.1420
  713SOL    HW2 2139   2.893   1.444   2.637  1.8354 -2.4865  0.1533
  714SOL     OW 2140   2.728   0.505   2.466  0.1478 -0.0542  0.4981
  714SOL    HW1 2141   2.670   0.471   2.546 -0.5647 -2.2386  0.0154
  714SOL    HW2 2142   2.678   0.486   2.373  0.2110  0.0338  0.1183
  715SOL     OW 2143   1.579   2.015   1.115  0.5372 -0.0829  0.6450
  715SOL    HW1 2144   1.500   2.037   1.050  1.0783 -1.5319 -2.7436
  715SOL    HW2 2145   1.611   2.100   1.166  0.1134 -1.6796 -0.5930
  716SOL     OW 2146   1.215   0.157   1.463  0.3405 -0.5986 -0.0439
  716SOL    HW1 2147   1.115   0.196   1.447 -2.4766  0.7236  0.9613
  716SOL    HW2 2148   1.282   0.236   1.438  1.1858  0.6853 -2.7474
  717SOL     OW 2149   1.154   0.502   1.574 -0.5056 -0.1122  0.5587
  717SOL    HW1 2150   1.237   0.557   1.613 -2.2936  2.5731 -0.8156
  717SOL    HW2 2151   1.166   0.500   1.470  1.0248  0.3204  1.1586
  718SOL     OW 2152   0.688   0.949   0.980 -0.2151  0.1034 -0.7914
  718SOL    HW1 2153   0.669   0.935   0.878  0.5724 -0.4452 -1.7805
  718SOL    HW2 2154   0.673   1.046   1.017 -1.7803  1.7063  2.9699
  719SOL     OW 2155   0.623   1.788   2.271  0.4661 -0.0212 -0.4749
  719SOL    HW1 2156   0.689   1.826   2.342 -1.2489 -0.0095 -0.0528
  719SOL    HW2 2157   0.555   1.731   2.327 -1.6836  0.3370  3.5810
  720SOL     OW 2158   2.189   1.159   0.301 -0.0432  0.0254 -0.3652
  720SOL    HW1 2159   2.259   1.096   0.247  0.0979 -1.5638 -3.3856
  720SOL    HW2 2160   2.157   1.114   0.394 -0.8782 -2.0009  0.4193
  721SOL     OW 2161   2.259   3.006   2.128 -0.3088 -0.2688 -0.0415
  721SOL    HW1 2162   2.247   3.031   2.031  0.7077 -0.9491  1.9882
  721SOL    HW2 2163   2.177   3.017   2.190 -0.5453  0.5434 -0.3859
  722SOL     OW 2164   2.384   1.574   0.489  0.6360  0.0226 -0.7739
  722SOL    HW1 2165   2.411   1.532   0.400 -2.0320  0.4204 -0.0539
  722SOL    HW2 2166   2.404   1.676   0.485  1.4985  0.3771  0.3028
  723SOL     OW 2167   2.554   2.722   1.966 -0.2073 -0.1172  0.5183
  723SOL    HW1 2168   2.600   2.797   2.021 -2.3553  0.7216 -0.2587
  723SOL    HW2 2169   2.450   2.710   1.986 -0.3334 -0.7768 -3.1994
  724SOL     OW 2170   0.530   2.486   2.427 -0.1120 -0.1498 -0.0259
  724SOL    HW1 2171   0.440   2.473   2.473  2.3083 -2.3902  1.0054
  724SOL    HW2 2172   0.602   2.511   2.498  0.6820 -3.8582 -2.9940
  725SOL     OW 2173   2.477   2.836   1.513  0.2724 -0.3933  0.1114
  725SOL    HW1 2174   2.498   2.848   1.411  2.1054 -1.7960 -2.2205
  725SOL    HW2 2175   2.450   2.741   1.545  1.4456  0.0180 -0.3953
  726SOL     OW 2176   2.516   2.275   0.712 -0.0504 -0.2971 -0.0056
  726SOL    HW1 2177   2.458   2.357   0.706  0.0810 -1.3955 -0.9854
  726SOL    HW2 2178   2.480   2.202   0.638 -1.7453 -2.2156 -3.1590
  727SOL     OW 2179   0.157   3.088   0.045  0.0338 -0.0590 -0.0859
  727SOL    HW1 2180   0.179   2.988   0.072 -0.4492 -2.2415 -1.0244
  727SOL    HW2 2181   0.117   3.093  -0.048  3.6326 -3.5492  0.1819
  728SOL     OW 2182   2.879   0.648   0.976 -0.6244 -0.1283  0.2760
  728SOL    HW1 2183   2.795   0.639   0.918 -0.1328 -0.8602 -2.3968
  728SOL    HW2 2184   2.871   0.628   1.076 -0.0389 -2.3006 -2.5220
  729SOL     OW 2185   3.041   2.467   0.767 -0.5359 -0.5148 -0.5337
  729SOL    HW1 2186   2.993   2.375   0.791 -2.0693 -4.1555  0.2767
  729SOL    HW2 2187   3.128   2.468   0.712 -1.7275  1.6747  1.8918
  730SOL     OW 2188   2.622   0.713   0.846  0.2204 -0.8976 -0.0233
  730SOL    HW1 2189   2.574   0.811   0.844  1.0002 -0.7423  0.1253
  730SOL    HW2 2190   2.676   0.687   0.760 -1.1896 -0.5488  1.0210
  731SOL     OW 2191   0.106   2.090   2.510  0.3290  0.7570 -0.0032
  731SOL    HW1 2192   0.097   2.114   2.612 -3.0877 -2.3806  2.0354
  731SOL    HW2 2193   0.128   2.170   2.447  0.5705  0.9394  0.6836
  732SOL     OW 2194   1.153   2.813   1.943 -0.6437  0.0391 -0.4033
  732SOL    HW1 2195   1.174   2.767   2.031 -1.1092 -0.5093 -1.1081
  732SOL    HW2 2196   1.155   2.749   1.862 -0.8953  0.4052 -0.3158
  733SOL     OW 2197   3.063   0.581   2.246  0.3155 -0.3969  0.2840
  733SOL    HW1 2198   3.153   0.602   2.211 -1.4817 -1.4452  1.8342
  733SOL    HW2 2199   2.993   0.549   2.172 -0.2877  0.6631  0.3368
  734SOL     OW 2200   1.420   0.371   2.719 -0.2270 -0.2160  0.7554
  734SOL    HW1 2201   1.423   0.467   2.763  1.0116 -0.5752  0.2858
  734SOL    HW2 2202   1.337   0.314   2.742 -0.5435  1.1798  1.1605
  735SOL     OW 2203   2.901   2.650   2.281  0.0164 -0.3538  0.2414
  735SOL    HW1 2204   2.844   2.641   2.194 -0.3256 -1.8829 -0.2413
  735SOL    HW2 2205   2.990   2.694   2.259 -2.8423  0.5104 -0.0782
  736SOL     OW 2206   0.802   0.307   2.616  0.0832 -0.1874  0.8400
  736SOL    HW1 2207   0.702   0.299   2.650 -2.4343 -2.7040  0.0709
  736SOL    HW2 2208   0.804   0.316   2.506 -0.0827  3.9573 -2.3353
  737SOL     OW 2209   2.684   0.501   2.873 -0.2039  0.3104  0.4844
  737SOL    HW1 2210   2.652   0.462   2.965 -2.2666  1.0271 -0.6732
  737SOL    HW2 2211   2.787   0.490   2.859 -0.8086 -1.7642 -1.0625
  738SOL     OW 2212   1.646   1.256   2.893 -0.1221  0.0979  0.0793
  738SOL    HW1 2213   1.751   1.238   2.902  1.5820  0.1205  1.5729
  738SOL    HW2 2214   1.600   1.171   2.856 -0.9388 -1.8150  1.5272
  739SOL     OW 2215   1.728   0.654   0.654 -0.4300  0.1210  0.1573
  739SOL    HW1 2216   1.772   0.658   0.748 -1.9332 -0.5477 -1.3944
  739SOL    HW2 2217   1.768   0.585   0.594 -0.1530  0.2610  1.5167
  740SOL     OW 2218   1.985   1.913   2.258 -0.1081 -0.1285 -1.0299
  740SOL    HW1 2219   2.009   1.855   2.342 -2.1000 -0.2744  3.6089
  740SOL    HW2 2220   1.890   1.899   2.223  0.4508 -0.0599  1.7219
  741SOL     OW 2221   2.556   0.045   2.578 -0.4676 -0.0146  0.8365
  741SOL    HW1 2222   2.660   0.069   2.578 -0.7779  0.0337 -2.0082
  741SOL    HW2 2223   2.526   0.031   2.481 -0.1874 -0.0017 -0.9664
  742SOL     OW 2224   2.227   1.442   0.220 -0.0477  0.1178  0.2075
  742SOL    HW1 2225   2.167   1.522   0.257  4.6211  0.9660  2.1568
  742SOL    HW2 2226   2.185   1.349   0.245  0.5227  1.9076 -2.0832
  743SOL     OW 2227   1.856   0.671   2.624  0.4625 -0.3922 -0.6107
  743SOL    HW1 2228   1.817   0.585   2.587 -1.4304  3.1334 -1.1298
  743SOL    HW2 2229   1.788   0.752   2.632 -2.9011  0.7374 -0.3738
  744SOL     OW 2230   2.617   2.125   0.159  0.1332 -0.0959 -0.3965
  744SOL    HW1 2231   2.512   2.140   0.146 -2.8479  0.7004  4.2445
  744SOL    HW2 2232   2.625   2.055   0.237 -2.5243  0.0282 -3.5208
  745SOL     OW 2233   2.158   2.615   2.295  0.2121 -0.1665 -0.0561
  745SOL    HW1 2234   2.057   2.615   2.314  0.5354  0.4965  3.2572
  745SOL    HW2 2235   2.215   2.670   2.361 -0.8358  1.4073 -1.0782
  746SOL     OW 2236  -0.003   2.617   1.730  0.1554  0.0163 -0.3765
  746SOL    HW1 2237   0.082   2.637   1.673  1.1347  0.0431 -0.5209
  746SOL    HW2 2238  -0.025   2.696   1.795  2.8840  3.1138 -0.5937
  747SOL     OW 2239   0.054   1.757   1.674  0.0237 -0.0696  0.0238
  747SOL    HW1 2240  -0.008   1.682   1.636 -0.4892  0.7832 -0.2832
  747SOL    HW2 2241   0.137   1.776   1.608  3.2943  0.8599 -3.9913
  748SOL     OW 2242   1.833   2.744   2.828 -0.7353  0.5436 -0.0522
  748SOL    HW1 2243   1.875   2.797   2.908  4.8422 -3.1033 -2.2504
  748SOL    HW2 2244   1.729   2.736   2.819 -0.0182 -1.2237 -0.5803
  749SOL     OW 2245   1.347   3.051   0.963  0.1337 -0.0291  0.6098
  749SOL    HW1 2246   1.253   3.006   0.972  2.9723 -0.0154  0.8393
  749SOL    HW2 2247   1.388   3.040   0.865  3.0808 -0.7453 -2.2586
  750SOL     OW 2248   2.291   0.178   1.905  0.2286 -0.0686 -0.1890
  750SOL    HW1 2249   2.300   0.249   1.832  2.6229 -0.9777  0.6302
  750SOL    HW2 2250   2.325   0.214   1.994  0.9538  0.9548  0.6307
  751SOL     OW 2251   0.890   2.164   2.801  0.5734  0.3575  0.0091
  751SOL    HW1 2252   0.964   2.175   2.875  0.4683  0.1971 -1.1176
  751SOL    HW2 2253   0.812   2.106   2.837  1.5842 -1.0667  1.3904
  752SOL     OW 2254   1.311   0.854   1.341 -0.3305  0.0367  0.9814
  752SOL    HW1 2255   1.381   0.928   1.333 -1.8860 -0.3103 -0.7745
  752SOL    HW2 2256   1.341   0.756   1.338  0.0722  0.1811 -0.8186
  753SOL     OW 2257   0.929   2.598   1.665  0.1317 -0.6607  0.4206
  753SOL    HW1 2258   1.032   2.629   1.676  1.9736  1.3047 -1.3020
  753SOL    HW2 2259   0.867   2.676   1.631 -0.9337 -1.0738  2.8017
  754SOL     OW 2260   1.083   1.210   2.987 -0.3305 -0.7913  0.1572
  754SOL    HW1 2261   1.161   1.164   2.934 -0.5194  2.4041  0.3236
  754SOL    HW2 2262   1.109   1.312   3.007  1.1303 -0.4283 -1.6001
  755SOL     OW 2263   1.994   0.466   2.239 -0.6282  0.2710  0.0433
  755SOL    HW1 2264   2.071   0.424   2.294 -0.2595  0.2392 -0.9583
  755SOL    HW2 2265   1.904   0.454   2.292  1.6357  0.8207  0.7813
  756SOL     OW 2266   2.550   1.048   2.947  0.0433 -0.1170 -0.2293
  756SOL    HW1 2267   2.646   1.040   2.974 -1.0664 -1.1956 -0.8868
  756SOL    HW2 2268   2.508   0.953   2.972 -2.5974  1.1167  1.2466
  757SOL     OW 2269   0.042   0.522   1.878  0.2340 -0.2506 -0.6051
  757SOL    HW1 2270   0.100   0.450   1.829 -4.0407 -1.2865  0.3287
  757SOL    HW2 2271  -0.059   0.516   1.854 -0.2882 -1.0582 -2.2282
  758SOL     OW 2272   2.368   0.088   1.492  0.5337  0.0360 -0.1664
  758SOL    HW1 2273   2.318   0.003   1.526  0.9050  2.5882  0.7604
  758SOL    HW2 2274   2.348   0.103   1.386  0.7520  1.4458  0.8730
  759SOL     OW 2275   1.711   0.100   0.057 -0.3124 -0.6534  0.1323
  759SOL    HW1 2276   1.655   0.069  -0.024 -0.5464 -1.2768 -0.4695
  759SOL    HW2 2277   1.815   0.089   0.036 -0.0047 -0.5351 -0.8642
  760SOL     OW 2278   2.697   2.106   2.821  0.3455  0.5620 -0.0346
  760SOL    HW1 2279   2.712   2.016   2.874 -0.2813  0.8879  0.1681
  760SOL    HW2 2280   2.651   2.177   2.878  0.3681  0.4272 -1.2783
  761SOL     OW 2281   1.893   1.753   1.698 -0.3113 -0.0065 -0.2385
  761SOL    HW1 2282   1.929   1.670   1.743  1.8155  1.2578  0.7603
  761SOL    HW2 2283   1.839   1.737   1.616  3.3190 -1.4623  1.2014
  762SOL     OW 2284   0.492   2.363   0.968 -0.5564  0.0044  0.8669
  762SOL    HW1 2285   0.536   2.379   0.872  0.1560  2.8473 -2.8152
  762SOL    HW2 2286   0.523   2.442   1.026 -3.6697  2.9795 -0.2385
  763SOL     OW 2287   2.098   1.545   2.949 -0.4189 -0.6864 -0.4441
  763SOL    HW1 2288   2.193   1.513   2.948  1.7783 -0.8065 -0.3297
  763SOL    HW2 2289   2.046   1.503   3.029 -3.6729 -2.5784 -0.7616
  764SOL     OW 2290   0.667   0.622   0.824 -0.1360 -0.1748  0.2456
  764SOL    HW1 2291   0.597   0.551   0.800  2.5407 -0.6078  0.8424
  764SOL    HW2 2292   0.752   0.575   0.863 -0.7801 -2.9450 -0.0481
  765SOL     OW 2293   0.713   0.258   0.747  0.3507  0.3008  0.1509
  765SOL    HW1 2294   0.799   0.296   0.699 -1.1460 -0.5547 -1.3090
  765SOL    HW2 2295   0.677   0.307   0.837 -2.2498  3.8696  1.8941
  766SOL     OW 2296   2.863   2.098   0.025  0.3213 -0.3489 -0.1276
  766SOL    HW1 2297   2.778   2.107   0.081  2.2588  0.5785  0.0463
  766SOL    HW2 2298   2.904   2.183  -0.021 -0.1582 -3.4144 -1.0135
  767SOL     OW 2299   2.810   1.588   0.623  0.6845 -0.4108 -0.2862
  767SOL    HW1 2300   2.720   1.560   0.667 -1.1033  1.9928  1.3782
  767SOL    HW2 2301   2.851   1.675   0.653 -3.4638 -0.8410 -0.8269
  768SOL     OW 2302   1.034   0.107   0.261  0.4719  1.5452 -0.3595
  768SOL    HW1 2303   0.989   0.085   0.349  0.6617  0.3207 -0.0583
  768SOL    HW2 2304   1.138   0.080   0.260 -1.5062 -3.8775  1.8218
  769SOL     OW 2305   1.020   1.915   2.239 -1.0308 -0.3476 -0.6273
  769SOL    HW1 2306   0.923   1.924   2.278  2.0018  0.7634 -1.9379
  769SOL    HW2 2307   1.094   1.912   2.310 -1.6060  4.2567 -0.4170
  770SOL     OW 2308   0.190   1.111   2.306 -0.1064  0.1553 -0.1172
  770SOL    HW1 2309   0.187   1.173   2.394  0.2012  0.9142  1.7370
  770SOL    HW2 2310   0.104   1.061   2.289 -0.0531 -2.4453  2.2979
  771SOL     OW 2311   2.987   2.833   1.880  0.5185 -0.1887  0.4941
  771SOL    HW1 2312   2.938   2.903   1.822 -0.7575  0.7669 -0.0574
  771SOL    HW2 2313   3.008   2.877   1.971  0.0753 -1.1526  0.0692
  772SOL     OW 2314   2.206   0.221   2.892  0.0682  0.1747  0.1144
  772SOL    HW1 2315   2.261   0.137   2.923 -1.0339 -0.3118  2.1741
  772SOL    HW2 2316   2.168   0.277   2.977  2.5469  0.0003 -0.2369
  773SOL     OW 2317   0.735   2.155   2.444  0.3503  0.4990  0.3651
  773SOL    HW1 2318   0.705   2.217   2.362 -2.0401  0.3161  2.6740
  773SOL    HW2 2319   0.665   2.155   2.522  0.0509 -0.0817 -0.6417
  774SOL     OW 2320   2.036   3.093   2.625 -0.4358 -0.3505 -0.2195
  774SOL    HW1 2321   2.060   3.186   2.663  1.5831  1.4859  0.5246
  774SOL    HW2 2322   2.084   3.010   2.678 -0.7611  0.8511  0.2072
  775SOL     OW 2323   2.530   2.849   2.393  0.1439 -0.4787  0.3864
  775SOL    HW1 2324   2.457   2.919   2.373  2.6715  0.6159  1.5246
  775SOL    HW2 2325   2.603   2.887   2.457 -0.7496  2.8383 -1.4046
  776SOL     OW 2326   3.102   1.299   0.206  0.3768  0.7392 -0.1309
  776SOL    HW1 2327   3.058   1.240   0.130  2.2957 -1.9204  1.6427
  776SOL    HW2 2328   3.046   1.293   0.293  0.8133  1.0545 -2.7153
  777SOL     OW 2329   0.320   2.848   0.414 -0.8001 -0.6911 -0.0442
  777SOL    HW1 2330   0.220   2.886   0.402 -3.4259 -1.6200 -0.2703
  777SOL    HW2 2331   0.390   2.922   0.405 -0.1916  3.2219  1.0219
  778SOL     OW 2332   1.332   1.955   0.181 -0.1106 -0.1065 -0.1703
  778SOL    HW1 2333   1.269   1.994   0.255  0.7079  0.9875  0.9948
  778SOL    HW2 2334   1.392   2.033   0.141 -2.0951 -2.0059 -0.9384
  779SOL     OW 2335   0.188   0.841   0.481  0.2386 -0.1687 -0.5363
  779SOL    HW1 2336   0.121   0.764   0.478  0.2612  0.0843 -0.7552
  779SOL    HW2 2337   0.143   0.924   0.529 -0.1946 -0.6035  0.5324
  780SOL     OW 2338   0.128   0.200   2.273 -0.0209 -0.0713 -0.5068
  780SOL    HW1 2339   0.176   0.286   2.249 -1.0912 -1.4482  0.0348
  780SOL    HW2 2340   0.188   0.120   2.267  0.8343  0.1818  2.5389
  781SOL     OW 2341   0.662   1.747   1.557 -0.0019  0.6312  0.3197
  781SOL    HW1 2342   0.693   1.710   1.651 -0.5541  0.1803 -0.7019
  781SOL    HW2 2343   0.575   1.711   1.518  0.4989  2.4832  1.1481
  782SOL     OW 2344   2.606   0.134   0.882  0.5226  0.8885  0.0404
  782SOL    HW1 2345   2.538   0.145   0.805 -0.3621  2.4914 -0.4642
  782SOL    HW2 2346   2.590   0.205   0.955 -1.5486 -1.6246 -2.6121
  783SOL     OW 2347   2.851   0.764   2.593 -0.6715 -0.1733  0.6200
  783SOL    HW1 2348   2.796   0.796   2.674  0.3692 -2.9209  1.1734
  783SOL    HW2 2349   2.824   0.670   2.558  2.3854  3.3675  0.4291
  784SOL     OW 2350   1.472   2.170   0.093  0.1801 -0.1460 -0.1827
  784SOL    HW1 2351   1.546   2.227   0.141  0.5745  0.4688  1.6593
  784SOL    HW2 2352   1.444   2.214  -0.003 -0.7048  2.4577 -0.7583
  785SOL     OW 2353   2.129   0.357   0.060 -0.0059  0.1977 -0.3675
  785SOL    HW1 2354   2.062   0.358   0.141 -1.5143 -2.6014  0.5361
  785SOL    HW2 2355   2.167   0.447   0.031  0.6373 -0.4174  0.0317
  786SOL     OW 2356   1.997   2.162   2.175  0.2460 -0.1829 -0.1109
  786SOL    HW1 2357   1.969   2.060   2.194 -1.5098  1.7099 -0.5357
  786SOL    HW2 2358   2.096   2.178   2.217  1.5360  2.7282  1.5126
  787SOL     OW 2359   1.408   0.606   1.006 -0.1708  0.4829 -0.0065
  787SOL    HW1 2360   1.331   0.669   1.048 -1.6634 -1.3019  0.9781
  787SOL    HW2 2361   1.385   0.583   0.905 -0.3858 -0.6799 -1.2871
  788SOL     OW 2362   1.261   0.417   0.022 -0.7380  0.0243 -0.3195
  788SOL    HW1 2363   1.173   0.416  -0.032  0.0369  1.2521  0.2175
  788SOL    HW2 2364   1.258   0.477   0.103 -3.4802 -2.5299 -2.9067
  789SOL     OW 2365   2.556   0.120   1.864  0.3480 -0.0598  0.1304
  789SOL    HW1 2366   2.446   0.122   1.866 -0.4471  1.8501 -0.5799
  789SOL    HW2 2367   2.589   0.039   1.817  0.0233  2.5975  0.8632
  790SOL     OW 2368   2.649   2.765   0.804 -0.5162  0.0720  0.5141
  790SOL    HW1 2369   2.695   2.797   0.720  0.7410 -3.6647 -3.2023
  790SOL    HW2 2370   2.664   2.828   0.887  1.7937 -1.8116  1.8676
  791SOL     OW 2371   1.910   1.228   0.207 -0.0216  0.4245  0.3253
  791SOL    HW1 2372   1.830   1.175   0.246  0.9965 -2.5514 -0.4373
  791SOL    HW2 2373   1.991   1.167   0.221 -0.7274  1.5340 -1.1276
  792SOL     OW 2374   0.444   2.001   2.143 -0.0256 -0.4328 -0.1091
  792SOL    HW1 2375   0.523   2.020   2.204  2.1500  3.3990  0.0585
  792SOL    HW2 2376   0.353   1.991   2.192 -1.0013  0.1165 -0.3550
  793SOL     OW 2377   2.107   1.557   2.160 -0.0735 -0.4589  0.0846
  793SOL    HW1 2378   2.188   1.600   2.106 -0.8744 -1.5682  0.6792
  793SOL    HW2 2379   2.095   1.458   2.145 -1.6041  3.4828  1.7768
  794SOL     OW 2380   0.447   1.332   2.420 -0.3315 -0.1287  0.1830
  794SOL    HW1 2381   0.445   1.342   2.317  0.5036  1.0191 -0.5182
  794SOL    HW2 2382   0.492   1.416   2.462  1.1805  0.1331 -1.2581
  795SOL     OW 2383   2.414   2.293   1.748 -0.6639 -0.0125 -0.9252
  795SOL    HW1 2384   2.363   2.336   1.826 -0.0817  3.0869 -2.9783
  795SOL    HW2 2385   2.392   2.193   1.743 -1.0176 -0.7177 -0.7934
  796SOL     OW 2386   3.064   1.123   2.674  0.3024  0.0018 -0.1014
  796SOL    HW1 2387   2.973   1.138   2.714  1.7861 -0.6281 -2.9972
  796SOL    HW2 2388   3.133   1.107   2.749 -2.7174  0.6316  0.1033
  797SOL     OW 2389   0.797   0.610   1.370 -0.0233 -0.0871 -0.4840
  797SOL    HW1 2390   0.861   0.653   1.437 -0.3352  1.8046 -3.1399
  797SOL    HW2 2391   0.732   0.681   1.332 -1.1869 -2.2151 -2.2428
  798SOL     OW 2392   1.362   0.350   1.119  0.3473  1.0225 -0.3569
  798SOL    HW1 2393   1.356   0.348   1.220 -1.5809  1.0885  0.5074
  798SOL    HW2 2394   1.395   0.442   1.081 -2.3083 -2.0784  2.7003
  799SOL     OW 2395   1.904   2.678   1.035  0.0455 -0.7447 -0.3349
  799SOL    HW1 2396   1.873   2.676   1.134 -0.9333  2.0424  0.1425
  799SOL    HW2 2397   1.827   2.690   0.970  1.1204 -1.8923  4.1539
  800SOL     OW 2398   2.948   0.743   1.891 -0.1876 -0.1028 -0.3456
  800SOL    HW1 2399   2.963   0.847   1.907  0.9964  0.5253  2.3946
  800SOL    HW2 2400   3.020   0.679   1.937  1.3243 -1.7597  0.8252
  801SOL     OW 2401   1.937   2.231   0.085  0.4069 -0.4707 -0.8546
  801SOL    HW1 2402   1.868   2.231   0.012  0.0170 -1.3350  0.4914
  801SOL    HW2 2403   2.020   2.176   0.055 -0.7754 -2.2160  3.0716
  802SOL     OW 2404   0.674   0.800   2.546 -0.9232  0.0144  0.4068
  802SOL    HW1 2405   0.738   0.764   2.474 -1.1400 -1.7866  2.6965
  802SOL    HW2 2406   0.578   0.828   2.513 -3.4343 -1.6840 -0.1860
  803SOL     OW 2407   0.975   0.029   0.791  0.2523  0.3863 -0.4483
  803SOL    HW1 2408   1.016   0.092   0.863 -2.9862 -0.3491  0.5225
  803SOL    HW2 2409   0.947   0.080   0.706  0.8139 -2.5570 -0.6881
  804SOL     OW 2410   0.318   0.047   2.144 -0.2148 -0.1769 -0.0629
  804SOL    HW1 2411   0.327   0.152   2.144  1.5891 -1.1058 -0.4780
  804SOL    HW2 2412   0.253   0.001   2.075 -0.6634 -0.1388  0.4775
  805SOL     OW 2413   2.350   0.337   0.430 -0.5614 -0.0144 -0.0593
  805SOL    HW1 2414   2.427   0.344   0.496  0.1733 -0.7318 -0.4833
  805SOL    HW2 2415   2.385   0.322   0.335  0.2370  1.0285  1.4222
  806SOL     OW 2416   0.645   2.458   1.784  0.4014 -0.2077 -0.1835
  806SOL    HW1 2417   0.613   2.558   1.796 -0.4045  0.1128 -0.1030
  806SOL    HW2 2418   0.747   2.445   1.781 -0.6659 -0.9918 -2.7256
  807SOL     OW 2419   2.464   0.816   0.351 -0.2768 -0.3814  0.2943
  807SOL    HW1 2420   2.542   0.857   0.409 -0.3084 -0.0700 -1.4917
  807SOL    HW2 2421   2.428   0.889   0.283 -0.7895 -0.7759 -3.0071
  808SOL     OW 2422   0.647   2.059   2.875  0.4512  0.1014  0.0672
  808SOL    HW1 2423   0.585   2.121   2.929  0.2377  0.5970  1.6509
  808SOL    HW2 2424   0.677   1.979   2.933  1.7232 -0.2603 -1.2907
  809SOL     OW 2425   2.638   1.959   1.878  0.0898 -0.1392 -0.0871
  809SOL    HW1 2426   2.733   2.001   1.903  0.5227  0.9248  0.8419
  809SOL    HW2 2427   2.601   1.985   1.781 -4.9610  4.3216  1.1911
  810SOL     OW 2428   2.119   1.076   0.575  0.3115  0.4663  0.3827
  810SOL    HW1 2429   2.083   0.997   0.629 -2.4890 -1.2715 -2.1461
  810SOL    HW2 2430   2.083   1.168   0.613  1.3127  3.8011  1.1076
  811SOL     OW 2431   1.338   2.512   1.221  0.1445 -0.0912 -0.2497
  811SOL    HW1 2432   1.294   2.431   1.264 -1.1036 -0.1011 -0.1886
  811SOL    HW2 2433   1.295   2.602   1.251  2.2475 -1.0827 -0.8835
  812SOL     OW 2434   1.404   0.752   1.926  0.3169  0.2105  0.5529
  812SOL    HW1 2435   1.472   0.798   1.987 -0.0799  0.4604 -0.6611
  812SOL    HW2 2436   1.306   0.757   1.953  1.7333 -0.2647 -4.2322
  813SOL     OW 2437   1.672   2.053   2.522 -0.3755 -0.6079 -0.0415
  813SOL    HW1 2438   1.744   1.977   2.520  0.1217 -1.2425 -0.7703
  813SOL    HW2 2439   1.599   2.046   2.446 -1.8616  0.4198 -2.3955
  814SOL     OW 2440   2.918   1.507   2.828  0.3906  0.4175 -0.0590
  814SOL    HW1 2441   2.997   1.492   2.892  0.4662 -0.1751 -1.5819
  814SOL    HW2 2442   2.901   1.605   2.812  1.4482  1.3131 -0.8926
  815SOL     OW 2443   2.177   2.891   2.771  0.1160  0.0163 -0.2266
  815SOL    HW1 2444   2.163   2.801   2.823 -1.5703 -2.0814  0.5451
  815SOL    HW2 2445   2.246   2.948   2.823  0.3487 -1.7860 -1.0220
  816SOL     OW 2446   1.630   0.317   1.621 -0.2804 -0.1919  0.3724
  816SOL    HW1 2447   1.675   0.235   1.662 -1.4333  3.1144  0.9747
  816SOL    HW2 2448   1.547   0.354   1.674  0.4576  0.1185  2.9091
  817SOL     OW 2449   0.341   1.153   2.599 -0.6830  0.1271  0.5162
  817SOL    HW1 2450   0.262   1.178   2.662 -1.7773 -1.0427 -0.9386
  817SOL    HW2 2451   0.369   1.239   2.547  0.3260 -1.6564  0.4491
  818SOL     OW 2452   1.966   0.930   0.359 -0.1717  0.8225 -0.6697
  818SOL    HW1 2453   2.065   0.898   0.355  2.5119  1.4820 -0.8396
  818SOL    HW2 2454   1.954   0.994   0.442  1.0781 -0.3198 -1.5508
  819SOL     OW 2455   2.738   2.988   2.961 -0.5118 -0.1118  0.0598
  819SOL    HW1 2456   2.812   2.911   2.943  0.5941  1.6986 -0.0065
  819SOL    HW2 2457   2.639   2.961   2.931 -1.3716 -1.1745 -1.7070
  820SOL     OW 2458   1.223   1.075   0.602  0.4545 -0.1620 -0.2158
  820SOL    HW1 2459   1.215   1.167   0.649 -0.1973  0.0251 -1.7530
  820SOL    HW2 2460   1.218   0.990   0.669 -0.6956  0.7419  0.9007
  821SOL     OW 2461   0.033   1.281   0.677  0.2781 -0.0841 -0.6124
  821SOL    HW1 2462  -0.018   1.282   0.767 -0.5895  3.1835 -0.6334
  821SOL    HW2 2463   0.075   1.377   0.653  1.1685  1.9903  3.4414
  822SOL     OW 2464   2.594   1.750   2.417  0.4963  0.3905 -0.1405
  822SOL    HW1 2465   2.611   1.813   2.499  0.7601  3.2632 -0.2860
  822SOL    HW2 2466   2.502   1.760   2.372  1.0052  0.4955 -1.1086
  823SOL     OW 2467   2.054   0.882   1.174 -0.2963 -0.4162 -0.5732
  823SOL    HW1 2468   2.010   0.852   1.269  1.8745 -0.9824  0.9824
  823SOL    HW2 2469   1.987   0.928   1.111  0.1651 -2.2621  0.9913
  824SOL     OW 2470   0.281   2.015   2.862  0.2075 -0.5634  0.4369
  824SOL    HW1 2471   0.240   1.929   2.907  1.9421 -1.3243  0.6721
  824SOL    HW2 2472   0.318   1.999   2.767 -1.3948 -2.3959 -0.5460
  825SOL     OW 2473   1.287   1.093   0.289 -0.2014  0.6128  0.4609
  825SOL    HW1 2474   1.292   1.189   0.262  1.4595 -1.4296 -0.4883
  825SOL    HW2 2475   1.215   1.072   0.361 -2.1508  1.5991 -0.2242
  826SOL     OW 2476   1.890   0.652   1.589  0.0129 -0.4714 -0.8450
  826SOL    HW1 2477   1.978   0.597   1.592 -2.0455 -2.7963  0.6610
  826SOL    HW2 2478   1.805   0.599   1.560  2.0437  0.4408 -1.1309
  827SOL     OW 2479   0.698   1.250   0.205  0.3762  0.1726  0.0302
  827SOL    HW1 2480   0.789   1.194   0.188  2.6845 -2.0628  1.4089
  827SOL    HW2 2481   0.644   1.223   0.292  1.2573 -2.2636  2.4649
  828SOL     OW 2482   2.622   0.190   1.558  0.1444  0.1066 -0.5718
  828SOL    HW1 2483   2.549   0.136   1.511  1.0790 -2.5500  2.2092
  828SOL    HW2 2484   2.604   0.208   1.660  0.0161 -0.3595 -0.8817
  829SOL     OW 2485   2.805   2.465   2.979  0.6724 -0.3558 -0.5563
  829SOL    HW1 2486   2.724   2.401   2.971  2.9833 -0.1590  1.1840
  829SOL    HW2 2487   2.792   2.527   3.060  0.8031  0.0072  1.4203
  830SOL     OW 2488   2.786   0.950   3.070 -0.5644 -0.4303 -0.2672
  830SOL    HW1 2489   2.862   1.024   3.062  0.8977  0.1603 -0.2909
  830SOL    HW2 2490   2.821   0.855   3.107  0.5286 -0.9217  1.1817
  831SOL     OW 2491   3.071   0.666   0.372 -0.0738 -0.0340 -0.4960
  831SOL    HW1 2492   3.043   0.639   0.467  0.0117 -0.4014 -1.4390
  831SOL    HW2 2493   3.122   0.589   0.317  1.4836 -1.7097  0.3656
  832SOL     OW 2494   1.826   0.767   2.988 -0.2205  0.0485  0.4068
  832SOL    HW1 2495   1.747   0.823   2.947 -0.1264  2.8401 -1.0697
  832SOL    HW2 2496   1.806   0.668   3.015 -0.7572  2.0908  3.1462
  833SOL     OW 2497   2.406   2.105   0.491  0.0395 -0.8600 -0.0885
  833SOL    HW1 2498   2.313   2.134   0.456 -0.6635  0.0500 -1.2459
  833SOL    HW2 2499   2.419   2.005   0.489 -2.2747  0.6465 -2.4185
  834SOL     OW 2500   0.161   0.231   0.481 -1.0869  0.1094  0.1562
  834SOL    HW1 2501   0.147   0.143   0.538  2.9883  1.7608 -0.5791
  834SOL    HW2 2502   0.154   0.208   0.381 -3.2689  1.3567 -0.2650
  835SOL     OW 2503   2.286   1.556   1.088 -0.3693 -0.1395  0.5316
  835SOL    HW1 2504   2.267   1.657   1.090  2.9614 -2.6654  1.7453
  835SOL    HW2 2505   2.382   1.546   1.050 -1.0848 -0.5722 -1.5245
  836SOL     OW 2506   1.595   0.852   2.611 -0.2247  0.2267  0.2407
  836SOL    HW1 2507   1.492   0.852   2.620 -2.8759  0.6608 -0.1483
  836SOL    HW2 2508   1.633   0.859   2.517  0.8675  1.0420 -1.3206
  837SOL     OW 2509   1.668   0.109   0.530 -0.5436 -0.5032  0.4826
  837SOL    HW1 2510   1.620   0.161   0.604  0.5713  0.7835  0.1719
  837SOL    HW2 2511   1.635   0.135   0.430  0.4282  0.0399 -0.6889
  838SOL     OW 2512   1.201   1.530   2.819  0.8705  0.0462 -0.2113
  838SOL    HW1 2513   1.186   1.504   2.919  2.5762 -0.4692  0.0294
  838SOL    HW2 2514   1.132   1.478   2.759  1.4982  0.8199  0.1056
  839SOL     OW 2515   1.739   0.265   1.015  0.2879 -0.7647  0.0532
  839SOL    HW1 2516   1.746   0.349   1.076 -0.7983 -1.3159  2.2243
  839SOL    HW2 2517   1.677   0.188   1.050  1.3701  0.1384  1.7569
  840SOL     OW 2518   2.640   2.945   1.729  0.1863 -0.3188 -0.6255
  840SOL    HW1 2519   2.594   2.908   1.642 -2.0783 -1.1411 -0.9797
  840SOL    HW2 2520   2.619   2.887   1.811 -0.1322 -2.4652  1.4009
  841SOL     OW 2521   1.527   0.836   2.980  0.5468  0.3554 -0.5249
  841SOL    HW1 2522   1.448   0.849   3.047  0.0085  0.0921  2.4449
  841SOL    HW2 2523   1.539   0.914   2.913 -0.8136  3.2888 -0.5404
  842SOL     OW 2524   0.832   1.532   0.941 -0.4135 -0.2881 -0.5159
  842SOL    HW1 2525   0.791   1.613   0.989  0.0786 -4.4542  3.4527
  842SOL    HW2 2526   0.755   1.484   0.899  0.8485  1.4831  0.5151
  843SOL     OW 2527   0.097   0.073   1.445  0.3676  0.3642 -0.0973
  843SOL    HW1 2528   0.194   0.100   1.468 -1.3417  0.6527 -1.4953
  843SOL    HW2 2529   0.066  -0.007   1.507 -0.6774  1.0216  3.4040
  844SOL     OW 2530   0.793   2.490   0.306 -0.1260  0.1630 -0.1778
  844SOL    HW1 2531   0.722   2.482   0.379  1.8260 -1.5205 -0.3646
  844SOL    HW2 2532   0.768   2.560   0.234  2.7073 -1.8217 -2.6348
  845SOL     OW 2533   1.612   2.899   1.361 -0.1542 -0.2201 -0.1186
  845SOL    HW1 2534   1.686   2.910   1.435  0.3424 -0.4574 -0.7979
  845SOL    HW2 2535   1.541   2.975   1.366  0.7480  0.5568  0.2734
  846SOL     OW 2536   1.541   2.940   0.774  0.0647  0.3712  0.7779
  846SOL    HW1 2537   1.542   2.885   0.690 -2.0827 -1.1874  1.3995
  846SOL    HW2 2538   1.628   2.986   0.797 -2.2762  2.1372 -1.8849
  847SOL     OW 2539   2.042   1.634   0.286 -0.2472 -0.7568 -0.2878
  847SOL    HW1 2540   2.005   1.558   0.342 -0.3724  1.8427 -1.2830
  847SOL    HW2 2541   1.960   1.696   0.262 -0.5563 -0.0273  0.5293
  848SOL     OW 2542   2.492   0.832   2.607  0.5482 -0.9055  0.1810
  848SOL    HW1 2543   2.477   0.933   2.638 -3.2466  3.0370 -2.1903
  848SOL    HW2 2544   2.402   0.795   2.570 -1.0020 -0.2916  1.3667
  849SOL     OW 2545   2.581   0.840   2.340 -0.2373  0.6747  0.1142
  849SOL    HW1 2546   2.660   0.774   2.325  0.3062 -0.2197 -1.7844
  849SOL    HW2 2547   2.552   0.845   2.439 -1.3221 -1.7997 -1.1586
  850SOL     OW 2548   1.541   0.103   1.358  0.3627  0.1113  0.1535
  850SOL    HW1 2549   1.556   0.087   1.257 -0.7154 -0.8199 -1.0082
  850SOL    HW2 2550   1.457   0.043   1.378  1.6925 -1.3113 -2.0334
  851SOL     OW 2551   0.446   1.788   0.617  0.1644 -0.5863  0.2593
  851SOL    HW1 2552   0.441   1.890   0.599 -1.8101 -0.3698  0.7028
  851SOL    HW2 2553   0.528   1.746   0.573  0.0446 -0.5218 -1.5467
  852SOL     OW 2554   0.772   2.136   1.691  0.2332  0.4408  0.0658
  852SOL    HW1 2555   0.752   2.224   1.640 -0.1437 -2.7660 -1.0793
  852SOL    HW2 2556   0.703   2.104   1.755  1.7923  3.2693 -1.1391
  853SOL     OW 2557   2.536   1.545   2.622 -0.3324  0.8027  0.4228
  853SOL    HW1 2558   2.514   1.444   2.609 -0.1002 -2.5121  1.0459
  853SOL    HW2 2559   2.551   1.589   2.526 -1.8929 -0.6680 -1.9478
  854SOL     OW 2560   2.429   1.436   1.693  0.6047 -0.4306  0.1609
  854SOL    HW1 2561   2.496   1.399   1.624  0.6483 -2.5780 -0.8885
  854SOL    HW2 2562   2.354   1.367   1.714  1.9600  0.0016 -1.8097
  855SOL     OW 2563   2.092   2.377   0.953  0.6811 -0.5399  0.6681
  855SOL    HW1 2564   2.081   2.477   0.936 -0.2521  1.7555 -1.4085
  855SOL    HW2 2565   2.151   2.357   1.036 -0.1014 -1.1384  3.0365
  856SOL     OW 2566   1.350   1.501   0.871  0.3848 -0.3865 -0.8969
  856SOL    HW1 2567   1.416   1.567   0.906 -1.2262 -1.9410 -2.3553
  856SOL    HW2 2568   1.251   1.525   0.893 -1.5452 -0.3008 -0.9857
  857SOL     OW 2569   3.090   2.657   1.034 -0.3321 -0.1590  0.5932
  857SOL    HW1 2570   3.016   2.592   1.051 -0.9373  2.2318  0.8047
  857SOL    HW2 2571   3.154   2.619   0.957 -1.0997 -1.0915 -1.7746
  858SOL     OW 2572   2.319   2.015   1.767  0.0489  0.0152  0.3899
  858SOL    HW1 2573   2.252   1.996   1.691 -2.2364 -0.5353  3.2347
  858SOL    HW2 2574   2.400   1.948   1.762 -0.8269  2.4296 -0.0447
  859SOL     OW 2575   2.487   0.569   1.045  0.0821 -0.0919  0.2072
  859SOL    HW1 2576   2.548   0.605   0.969 -0.2753  1.2023 -1.7242
  859SOL    HW2 2577   2.510   0.470   1.057  0.9987 -0.0024 -1.1975
  860SOL     OW 2578   1.942   2.813   0.451 -0.5963 -0.0538  0.1651
  860SOL    HW1 2579   1.900   2.759   0.365  2.3233 -0.9135 -0.5409
  860SOL    HW2 2580   2.032   2.858   0.429  0.8002  0.1700 -1.4262
  861SOL     OW 2581   1.099   2.499   2.825 -0.1028  0.6134 -0.0705
  861SOL    HW1 2582   1.181   2.552   2.799 -1.6383 -1.0874 -0.6878
  861SOL    HW2 2583   1.083   2.497   2.924  0.1863  1.6274 -1.6212
  862SOL     OW 2584   2.838   2.558   1.608  0.2981 -0.5858  0.4346
  862SOL    HW1 2585   2.932   2.596   1.637  0.2960  0.1140 -2.1891
  862SOL    HW2 2586   2.782   2.629   1.560  3.9628 -2.0426 -0.4914
  863SOL     OW 2587   1.836   2.703   0.166 -0.3673 -0.2151  0.0970
  863SOL    HW1 2588   1.896   2.618   0.180 -1.1930 -1.1987 -1.5840
  863SOL    HW2 2589   1.739   2.678   0.149 -0.0046  0.5253  2.5749
  864SOL     OW 2590   1.903   1.189   2.866  0.2249 -0.4092 -0.1403
  864SOL    HW1 2591   1.917   1.130   2.782 -0.7695  2.5176 -1.3338
  864SOL    HW2 2592   1.990   1.218   2.910 -1.0237  0.1041 -1.2811
  865SOL     OW 2593   2.248   1.855   0.592  0.0686  0.3463 -0.1401
  865SOL    HW1 2594   2.292   1.853   0.684  2.5052 -0.3186 -2.1700
  865SOL    HW2 2595   2.157   1.807   0.599  1.9977 -0.1206  0.6395
  866SOL     OW 2596   2.953   2.935   1.024  0.5000  0.5076  0.3319
  866SOL    HW1 2597   2.951   2.979   0.933  0.8880 -1.8392 -0.3239
  866SOL    HW2 2598   2.990   2.834   1.021  0.2055 -1.0150 -0.2222
  867SOL     OW 2599   0.322   1.363   0.913  0.0601  0.3277  0.3765
  867SOL    HW1 2600   0.333   1.285   0.845  0.8135  3.0568  1.5539
  867SOL    HW2 2601   0.271   1.442   0.873 -0.6394  2.6400 -1.3828
  868SOL     OW 2602   0.726   1.852   2.031 -0.2856 -0.3994  0.8690
  868SOL    HW1 2603   0.667   1.822   2.111 -1.6835 -2.3064  1.3476
  868SOL    HW2 2604   0.748   1.954   2.030  0.2446 -2.0323  1.8365
  869SOL     OW 2605   2.575   1.950   1.594 -0.2558 -0.1359 -0.0965
  869SOL    HW1 2606   2.661   2.006   1.593  1.6677  0.0545 -0.1502
  869SOL    HW2 2607   2.596   1.851   1.605 -0.4597  1.1305 -0.6818
  870SOL     OW 2608   2.279   2.662   1.273  0.9410 -0.2995  0.0043
  870SOL    HW1 2609   2.293   2.562   1.238  0.5197 -1.1451  1.5977
  870SOL    HW2 2610   2.206   2.682   1.342  0.4293  2.8090  2.5164
  871SOL     OW 2611   3.030   2.199   0.555 -0.0473 -0.3806  0.7114
  871SOL    HW1 2612   3.006   2.228   0.651 -0.1865  0.7585 -0.8847
  871SOL    HW2 2613   2.951   2.185   0.492  0.3833 -0.7764 -0.0180
  872SOL     OW 2614   2.107   0.485   1.666 -0.0230  0.0853  0.4879
  872SOL    HW1 2615   2.073   0.504   1.762 -1.9887 -0.2963 -0.3423
  872SOL    HW2 2616   2.202   0.441   1.668  0.8127 -3.1275 -1.0572
  873SOL     OW 2617   1.721   2.126   3.063 -0.0964 -0.3307  0.2929
  873SOL    HW1 2618   1.640   2.137   3.127  1.4662 -0.3451  0.1557
  873SOL    HW2 2619   1.697   2.115   2.964  1.7159  0.0084  0.2727
  874SOL     OW 2620   0.645   2.460   0.775 -0.2341  0.3690  0.3853
  874SOL    HW1 2621   0.663   2.554   0.813  0.3839 -1.9577  0.4866
  874SOL    HW2 2622   0.734   2.402   0.782  1.6693  1.3861 -2.2924
  875SOL     OW 2623   2.316   1.559   1.421 -0.8498  0.6387 -0.2654
  875SOL    HW1 2624   2.407   1.595   1.463  2.2817 -0.0697  2.1514
  875SOL    HW2 2625   2.330   1.517   1.325  0.2043  0.2363  1.7314
  876SOL     OW 2626   0.096   2.223   2.761 -0.1254 -0.0362 -0.5059
  876SOL    HW1 2627   0.172   2.163   2.796  1.0201 -1.6230 -2.7745
  876SOL    HW2 2628   0.117   2.319   2.754  0.7024 -1.7726  0.5900
  877SOL     OW 2629   2.909   2.657   0.586 -0.1240 -0.0056  0.1365
  877SOL    HW1 2630   2.906   2.760   0.612  1.4518 -0.4073  0.5313
  877SOL    HW2 2631   2.958   2.599   0.657 -1.0991 -1.2625  2.2115
  878SOL     OW 2632   2.785   1.506   2.218  0.5517  0.3160 -0.3639
  878SOL    HW1 2633   2.888   1.516   2.211 -0.0078  1.6092 -0.5659
  878SOL    HW2 2634   2.744   1.559   2.293  1.7578  0.7241 -1.0679
  879SOL     OW 2635   2.367   0.094   1.196 -0.1481 -0.3930 -0.9103
  879SOL    HW1 2636   2.400  -0.005   1.210  1.0872 -0.4058 -0.9479
  879SOL    HW2 2637   2.288   0.099   1.126 -0.8902  0.2156  0.4384
  880SOL     OW 2638   0.729   0.485   2.276 -0.0520 -0.4092  0.3342
  880SOL    HW1 2639   0.656   0.447   2.337  0.6959  1.4252  0.3246
  880SOL    HW2 2640   0.778   0.411   2.220 -0.7637  0.2420 -0.2038
  881SOL     OW 2641   0.854   0.055   0.480  0.2248  0.1274  0.2576
  881SOL    HW1 2642   0.869  -0.048   0.498  0.8925  0.0229 -2.1382
  881SOL    HW2 2643   0.753   0.061   0.442 -1.9074 -0.4035  0.2327
  882SOL     OW 2644   2.717   1.705   1.703  0.1407  0.4170 -0.2723
  882SOL    HW1 2645   2.814   1.691   1.670 -3.0274 -1.4713  2.8474
  882SOL    HW2 2646   2.706   1.717   1.805 -0.6210  0.5291 -1.0958
  883SOL     OW 2647   0.912   0.568   0.987 -0.4452 -0.0529  0.3252
  883SOL    HW1 2648   0.885   0.658   1.035 -1.0525  1.0737  0.5486
  883SOL    HW2 2649   0.913   0.485   1.053 -2.2804 -0.3767  0.0388
  884SOL     OW 2650   1.196   1.759   1.152  0.1999  0.0867  0.3888
  884SOL    HW1 2651   1.160   1.679   1.093 -1.3519 -3.4768 -1.8303
  884SOL    HW2 2652   1.179   1.853   1.102  1.0040 -0.3145 -0.0460
  885SOL     OW 2653   2.350   1.789   2.300 -0.0278  0.6446  0.3281
  885SOL    HW1 2654   2.283   1.728   2.348  3.8271 -1.0108 -0.7492
  885SOL    HW2 2655   2.312   1.880   2.282  2.1599 -0.5509 -0.6567
  886SOL     OW 2656   2.620   0.419   1.789  0.4556  0.2709 -0.1223
  886SOL    HW1 2657   2.636   0.369   1.878 -0.9771  2.4045  3.1540
  886SOL    HW2 2658   2.698   0.484   1.762  1.2672 -0.0918  0.6382
  887SOL     OW 2659   0.091   2.044   1.322  0.0963  0.4218 -0.1395
  887SOL    HW1 2660   0.012   2.003   1.267 -0.8476  1.3374  2.4344
  887SOL    HW2 2661   0.116   2.142   1.303  4.2868 -1.3058 -0.5973
  888SOL     OW 2662   0.569   1.248   1.542 -0.3345  0.6928 -0.0639
  888SOL    HW1 2663   0.589   1.258   1.443  0.2676 -0.9630 -0.3754
  888SOL    HW2 2664   0.536   1.154   1.573 -1.6224  0.5272  0.4245
  889SOL     OW 2665   0.831   2.480   2.165 -0.1812  0.0225 -0.3095
  889SOL    HW1 2666   0.756   2.408   2.168 -2.2947 -1.1766 -0.0489
  889SOL    HW2 2667   0.876   2.476   2.070  1.9351  2.5921  0.2450
  890SOL     OW 2668   2.422   2.417   0.188 -0.0311  0.1349 -0.2388
  890SOL    HW1 2669   2.437   2.479   0.104  0.1993 -0.3105 -1.4117
  890SOL    HW2 2670   2.378   2.474   0.265  0.8147  3.1835 -0.4071
  891SOL     OW 2671   2.546   1.697   0.723  0.0085 -0.4545 -0.3522
  891SOL    HW1 2672   2.568   1.732   0.816 -2.5426 -2.0570 -1.5604
  891SOL    HW2 2673   2.485   1.618   0.729  0.9274  1.4963  2.6927
  892SOL     OW 2674   0.370   0.324   2.192  0.0161 -0.1251 -0.7195
  892SOL    HW1 2675   0.378   0.402   2.123  0.2007 -0.0948 -1.2627
  892SOL    HW2 2676   0.432   0.336   2.271  1.3764 -1.7279 -1.2359
  893SOL     OW 2677   1.662   0.272   2.755 -0.6759 -0.1639  0.0773
  893SOL    HW1 2678   1.743   0.333   2.779  0.1853  1.6570 -0.7940
  893SOL    HW2 2679   1.566   0.317   2.752 -0.3699 -0.5696 -1.0460
  894SOL     OW 2680   2.119   2.028   3.097  0.2581  0.2079 -0.4681
  894SOL    HW1 2681   2.089   1.967   3.018 -1.2631 -0.6540 -0.1499
  894SOL    HW2 2682   2.160   1.977   3.173 -1.4041 -0.3254 -0.5073
  895SOL     OW 2683   2.783   1.423   0.922  0.2165  0.0089  0.2548
  895SOL    HW1 2684   2.875   1.371   0.937  4.0383  0.4395  0.5925
  895SOL    HW2 2685   2.796   1.523   0.939 -1.3379 -1.8407 -0.7886
  896SOL     OW 2686   1.773   1.814   1.227 -0.0859  0.0703  0.1266
  896SOL    HW1 2687   1.808   1.738   1.162 -1.3776 -1.6498  1.2983
  896SOL    HW2 2688   1.736   1.896   1.176 -1.7027 -0.6795 -0.1808
  897SOL     OW 2689   0.337   0.525   0.016 -0.1661  1.1889  0.3540
  897SOL    HW1 2690   0.286   0.581  -0.049 -0.0531 -2.3702  2.4058
  897SOL    HW2 2691   0.432   0.563   0.021  0.2201 -0.8526 -1.5641
  898SOL     OW 2692   0.553   2.871   1.084  0.3087  0.0536  0.1223
  898SOL    HW1 2693   0.512   2.968   1.087 -1.0758  1.5276  2.0915
  898SOL    HW2 2694   0.619   2.849   1.159 -0.3728  1.5109 -0.2729
  899SOL     OW 2695   2.811   0.912   1.285 -0.5155 -0.3725  0.1517
  899SOL    HW1 2696   2.734   0.925   1.215 -2.0989  1.2236  0.2223
  899SOL    HW2 2697   2.908   0.904   1.247  1.1842  1.5736  1.4928
  900SOL     OW 2698   0.975   2.544   2.415  1.0521  0.5709 -0.4274
  900SOL    HW1 2699   0.910   2.535   2.331 -3.6919  3.1220  0.0431
  900SOL    HW2 2700   0.951   2.477   2.490  2.2960  1.5180 -1.9541
  901SOL     OW 2701   1.921   2.340   1.353  0.1259  0.0376 -0.5056
  901SOL    HW1 2702   1.889   2.305   1.261 -0.0766  0.2046  3.1017
  901SOL    HW2 2703   2.021   2.326   1.369  0.2830 -1.0283 -2.2667
  902SOL     OW 2704   2.577   1.652   1.468 -0.1517 -0.0055  0.0603
  902SOL    HW1 2705   2.628   1.649   1.559  1.8644 -0.2397  1.0026
  902SOL    HW2 2706   2.638   1.630   1.382  0.4197  1.9252 -1.8975
  903SOL     OW 2707   0.264   2.482   1.977 -0.0665  0.5882  0.1033
  903SOL    HW1 2708   0.171   2.429   1.961 -3.0877 -1.3295  3.1044
  903SOL    HW2 2709   0.293   2.541   1.896 -0.0092  0.7992 -0.9307
  904SOL     OW 2710   2.045   0.809   2.478  0.1874 -0.3180 -0.3931
  904SOL    HW1 2711   1.982   0.740   2.522  2.1164 -0.5335 -1.5783
  904SOL    HW2 2712   2.049   0.810   2.373  1.0279 -2.7441 -2.9147
  905SOL     OW 2713   2.820   0.081   2.557  0.0732  0.0577  0.2031
  905SOL    HW1 2714   2.884  -0.001   2.549  1.0496 -1.2675 -1.6781
  905SOL    HW2 2715   2.872   0.171   2.535  2.9651 -1.8800 -1.8592
  906SOL     OW 2716   0.163   1.717   1.936 -0.7650  0.1067 -0.2936
  906SOL    HW1 2717   0.111   1.734   1.845 -3.1624  0.4502  1.0479
  906SOL    HW2 2718   0.261   1.750   1.923 -1.5983  0.7777  1.4952
  907SOL     OW 2719   0.244   2.463   1.010 -0.4008 -0.0886 -0.5246
  907SOL    HW1 2720   0.329   2.412   0.981  0.6791 -0.6295  0.0787
  907SOL    HW2 2721   0.175   2.414   1.066  2.3297 -0.0340  1.1578
  908SOL     OW 2722   2.730   2.986   0.369 -0.4315  0.3850 -0.0754
  908SOL    HW1 2723   2.674   3.028   0.289  1.3418  0.9907  1.4650
  908SOL    HW2 2724   2.809   2.926   0.337  0.0356 -1.3658 -0.5362
  909SOL     OW 2725   0.799   1.025   2.645  0.4991  0.0518 -0.0075
  909SOL    HW1 2726   0.770   0.935   2.608 -0.9661  0.4344  1.0915
  909SOL    HW2 2727   0.868   1.068   2.582  1.9498 -2.1331 -0.0870
  910SOL     OW 2728   1.720   1.875   2.164 -0.2064 -0.4957 -0.3564
  910SOL    HW1 2729   1.754   1.900   2.070 -0.4081 -0.1321 -1.3642
  910SOL    HW2 2730   1.635   1.925   2.199 -3.6004  1.3562 -0.1238
  911SOL     OW 2731   1.802   2.939   1.564 -0.1974 -0.3007 -0.3073
  911SOL    HW1 2732   1.860   2.907   1.485 -1.0134  2.2921  0.1064
  911SOL    HW2 2733   1.837   2.895   1.655  1.0156  0.1443  0.4804
  912SOL     OW 2734   2.846   0.992   0.693  0.0850 -0.5093  0.0389
  912SOL    HW1 2735   2.881   0.971   0.788  1.4776  2.0368 -1.1674
  912SOL    HW2 2736   2.810   1.091   0.683  3.4945 -0.7477 -0.0287
  913SOL     OW 2737   2.598   1.248   1.484  0.2278 -0.0304 -0.0491
  913SOL    HW1 2738   2.616   1.144   1.467 -1.5851  0.1129 -2.3071
  913SOL    HW2 2739   2.644   1.304   1.410 -1.5904 -1.4028 -3.0885
  914SOL     OW 2740   2.847   0.583   1.228  0.6147 -1.2153  0.1039
  914SOL    HW1 2741   2.814   0.484   1.241  2.3347 -1.6154  0.2815
  914SOL    HW2 2742   2.832   0.628   1.320  1.3249 -1.5168 -0.7681
  915SOL     OW 2743   1.207   0.778   1.094  0.5463  0.1296 -0.1293
  915SOL    HW1 2744   1.226   0.826   1.186  0.9154 -1.0722  0.5057
  915SOL    HW2 2745   1.101   0.774   1.077 -3.5229  0.3496 -1.0426
  916SOL     OW 2746   0.576   0.008   0.672  0.0707  0.5686 -0.3061
  916SOL    HW1 2747   0.603   0.100   0.712 -1.5523 -1.5511  1.4073
  916SOL    HW2 2748   0.560   0.007   0.568  0.4472  0.0170 -0.4321
  917SOL     OW 2749   2.806   2.633   1.967  0.1122  0.3225 -0.3204
  917SOL    HW1 2750   2.719   2.669   1.920 -0.5127 -0.1839 -0.5239
  917SOL    HW2 2751   2.888   2.697   1.948 -0.3227 -0.8191 -1.5995
  918SOL     OW 2752   1.030   2.170   3.038  0.0840  0.3629 -0.7365
  918SOL    HW1 2753   0.986   2.242   3.100 -1.5803 -3.1270 -0.2009
  918SOL    HW2 2754   1.124   2.153   3.077 -0.7850  0.8421 -2.9821
  919SOL     OW 2755   0.840   1.665   2.867 -0.0676  0.4929 -0.3706
  919SOL    HW1 2756   0.867   1.756   2.819  0.0206 -0.1243 -2.9991
  919SOL    HW2 2757   0.858   1.581   2.809 -0.2631  1.7481 -1.2270
  920SOL     OW 2758   1.207   1.863   2.430  0.5901  0.5160 -0.4074
  920SOL    HW1 2759   1.302   1.819   2.414  0.6329 -0.2904  0.4703
  920SOL    HW2 2760   1.178   1.831   2.523 -2.6578  0.8927 -1.0845
  921SOL     OW 2761   1.026   0.027   2.642 -0.2185  0.0282  0.5099
  921SOL    HW1 2762   1.052   0.041   2.545  0.2552  0.6189 -1.6149
  921SOL    HW2 2763   0.925  -0.007   2.648 -1.7382 -1.1019 -0.1980
  922SOL     OW 2764   2.135   2.403   2.788  0.6647  0.2540  0.4744
  922SOL    HW1 2765   2.176   2.305   2.804  0.6807 -0.0948  0.6608
  922SOL    HW2 2766   2.115   2.416   2.684 -0.5914 -1.0970 -0.5231
  923SOL     OW 2767   1.252   2.693   0.278 -0.3729  0.1164  0.0207
  923SOL    HW1 2768   1.325   2.763   0.315 -1.2844 -1.9231  1.3708
  923SOL    HW2 2769   1.287   2.593   0.272 -2.3145  0.6614  0.0530
  924SOL     OW 2770   2.849   1.525   0.152 -0.3689 -0.2518 -0.1311
  924SOL    HW1 2771   2.787   1.563   0.076  2.6402  1.3756 -0.2544
  924SOL    HW2 2772   2.945   1.499   0.119  0.4940 -0.4774  1.0179
  925SOL     OW 2773   0.008   2.916   1.540  0.8247  0.8097  0.3970
  925SOL    HW1 2774  -0.089   2.908   1.585  0.2155 -0.7692  1.2256
  925SOL    HW2 2775   0.011   2.904   1.437 -1.1372  2.0285 -2.3616
  926SOL     OW 2776   1.305   2.811   1.242  0.1096  0.4731 -0.3513
  926SOL    HW1 2777   1.380   2.803   1.170 -1.1909 -0.5529 -1.2133
  926SOL    HW2 2778   1.318   2.890   1.312  0.1064 -0.4256  1.4257
  927SOL     OW 2779   0.319   2.659   1.752  0.2184 -0.1397  0.2632
  927SOL    HW1 2780   0.281   2.581   1.692 -1.1862  1.3139  0.5087
  927SOL    HW2 2781   0.285   2.755   1.724  0.0566  2.9285  0.8998
  928SOL     OW 2782   1.522   2.064   2.279 -0.0040  0.2102 -0.0637
  928SOL    HW1 2783   1.555   2.137   2.217 -1.7234 -1.1851 -1.5430
  928SOL    HW2 2784   1.417   2.082   2.287 -2.0776  0.6823 -1.0053
  929SOL     OW 2785   2.400   2.495   2.867 -0.6607  0.1878  0.5180
  929SOL    HW1 2786   2.306   2.451   2.857  0.7728 -1.4586  2.0808
  929SOL    HW2 2787   2.455   2.485   2.778  1.3582  2.9890 -0.4531
  930SOL     OW 2788   2.207   2.013   1.073 -0.6964 -0.5066 -0.1073
  930SOL    HW1 2789   2.189   1.970   1.162  1.4662 -0.8482 -0.6716
  930SOL    HW2 2790   2.289   2.080   1.080 -0.2756 -0.6581 -1.6778
  931SOL     OW 2791   0.547   1.716   2.721 -0.1410 -0.1148 -0.4583
  931SOL    HW1 2792   0.556   1.738   2.823  1.9426  3.2870  2.6086
  931SOL    HW2 2793   0.613   1.641   2.683  1.3153 -0.8069 -4.4529
  932SOL     OW 2794   0.445   0.126   2.960 -0.3646 -0.8589 -0.1076
  932SOL    HW1 2795   0.532   0.157   2.920  0.5947 -1.3723 -2.3827
  932SOL    HW2 2796   0.448   0.053   3.030 -0.1313  2.1292 -2.6540
  933SOL     OW 2797   0.994   0.823   3.055 -0.2333  0.0973  0.1111
  933SOL    HW1 2798   0.997   0.867   3.147  3.0474 -0.0240 -1.7382
  933SOL    HW2 2799   0.971   0.893   2.980  1.1501 -0.2491 -0.9077
  934SOL     OW 2800   0.786   2.965   2.635 -0.1549  0.1603 -0.0547
  934SOL    HW1 2801   0.796   2.902   2.549  1.0137 -2.7225 -1.6626
  934SOL    HW2 2802   0.835   2.919   2.718  1.2474 -0.4517 -0.4920
  935SOL     OW 2803   0.030   0.572   0.851  0.0490 -0.0687  0.2532
  935SOL    HW1 2804   0.038   0.513   0.760 -0.4099 -1.6021 -3.8029
  935SOL    HW2 2805  -0.067   0.605   0.865  0.5116  2.6310  0.1936
  936SOL     OW 2806   1.071   2.824   0.090 -0.4119  0.1187  0.1599
  936SOL    HW1 2807   1.120   2.863   0.009  1.7538 -1.2856  0.2122
  936SOL    HW2 2808   1.141   2.791   0.165  2.1679  0.4135  0.7168
  937SOL     OW 2809   1.925   2.608   2.089  0.8141 -0.3601 -0.1334
  937SOL    HW1 2810   1.839   2.648   2.057 -0.2111 -2.5257  0.5111
  937SOL    HW2 2811   2.009   2.668   2.085 -3.0085  0.5032 -2.5477
  938SOL     OW 2812   2.785   2.104   1.596  0.0499 -0.3176 -0.7915
  938SOL    HW1 2813   2.754   2.203   1.598 -0.5922  0.2255  0.1403
  938SOL    HW2 2814   2.880   2.086   1.627 -2.9333 -1.8865 -0.0535
  939SOL     OW 2815   2.838   1.206   2.457 -1.1843 -0.0766  0.7547
  939SOL    HW1 2816   2.927   1.176   2.410  0.3348  0.2528  3.4152
  939SOL    HW2 2817   2.833   1.166   2.553  1.8736  0.0505  0.7845
  940SOL     OW 2818   1.033   0.411   2.723  0.0639  0.5639  0.2400
  940SOL    HW1 2819   1.091   0.332   2.746 -2.4315 -0.5097 -0.7602
  940SOL    HW2 2820   0.942   0.381   2.689  1.2986  0.1297 -2.4716
  941SOL     OW 2821   0.046   2.767   2.245 -0.2014  0.3948 -0.0424
  941SOL    HW1 2822   0.111   2.683   2.246  2.0198  1.2065 -2.0873
  941SOL    HW2 2823   0.082   2.840   2.318  0.5465 -1.4628 -0.0399
  942SOL     OW 2824   0.117   0.110   2.549 -0.3084  0.0548 -0.8168
  942SOL    HW1 2825   0.170   0.140   2.632  0.0587  1.9382  0.4401
  942SOL    HW2 2826   0.094   0.184   2.482 -0.1135  2.2828 -2.2773
  943SOL     OW 2827   2.084   1.680   2.398  0.2610  0.3700 -0.8827
  943SOL    HW1 2828   2.073   1.648   2.301 -0.1644 -1.3623 -2.1497
  943SOL    HW2 2829   2.107   1.608   2.464 -1.0540  2.1558 -0.9851
  944SOL     OW 2830   2.188   2.346   1.476 -0.0503  0.1304 -0.6254
  944SOL    HW1 2831   2.244   2.419   1.523 -1.2657  0.6306  3.3902
  944SOL    HW2 2832   2.163   2.272   1.544 -2.4694 -0.2898  2.2499
  945SOL     OW 2833   0.681   1.518   0.272  0.5584  0.4293  0.7155
  945SOL    HW1 2834   0.645   1.549   0.181 -0.3489  0.7160  1.0808
  945SOL    HW2 2835   0.707   1.417   0.262  0.7006 -2.2748 -0.5961
  946SOL     OW 2836   0.412   0.933   2.422  0.2056  0.3430 -0.0509
  946SOL    HW1 2837   0.327   0.891   2.377 -1.0600 -0.3854 -1.6513
  946SOL    HW2 2838   0.392   1.034   2.455 -0.6232  2.8991  1.0068
  947SOL     OW 2839   1.511   0.481   3.076  0.3120 -0.7977  0.1968
  947SOL    HW1 2840   1.504   0.540   2.993  0.8047  0.0251 -1.7670
  947SOL    HW2 2841   1.419   0.442   3.096  2.5526  3.8028 -2.5126
  948SOL     OW 2842   1.885   3.035   2.159  0.4062  0.4107  0.8492
  948SOL    HW1 2843   1.897   2.972   2.075  0.6514 -0.2879 -0.9861
  948SOL    HW2 2844   1.865   2.974   2.240 -0.7712 -1.2698 -3.3948
  949SOL     OW 2845   0.567   2.472   0.504 -1.0160  0.1024  0.2927
  949SOL    HW1 2846   0.609   2.556   0.466  1.2274  0.1219  2.7098
  949SOL    HW2 2847   0.604   2.453   0.599  0.9814  1.6595 -0.3291
  950SOL     OW 2848   0.212   2.197   3.037 -0.5943 -0.5916  0.1787
  950SOL    HW1 2849   0.123   2.244   3.005 -0.1113  1.3638 -2.0209
  950SOL    HW2 2850   0.248   2.123   2.975 -0.3757  0.4260 -1.0246
  951SOL     OW 2851   1.257   2.694   2.732 -0.2285  0.1104  0.0930
  951SOL    HW1 2852   1.325   2.741   2.790  1.2745  0.3718  0.8524
  951SOL    HW2 2853   1.279   2.714   2.630  2.4632 -1.1132 -0.5352
  952SOL     OW 2854   0.008   1.690   0.374 -0.0389  0.1677 -0.0465
  952SOL    HW1 2855   0.050   1.780   0.385 -3.0025 -0.7968 -2.4361
  952SOL    HW2 2856   0.043   1.627   0.436 -1.0211  1.5517  0.4160
  953SOL     OW 2857   2.527   1.774   0.250 -0.3446 -0.6183  0.3591
  953SOL    HW1 2858   2.538   1.672   0.229 -0.7415  1.7405  0.0967
  953SOL    HW2 2859   2.530   1.826   0.158 -1.1462 -1.8661 -2.1894
  954SOL     OW 2860   2.237   0.562   0.943 -0.4988  0.0138  0.5897
  954SOL    HW1 2861   2.231   0.554   0.839 -0.4096  1.2372  0.2932
  954SOL    HW2 2862   2.334   0.560   0.980  1.0204  0.6523 -0.4929
  955SOL     OW 2863   0.159   2.590   1.287  0.7496 -0.2125  0.0102
  955SOL    HW1 2864   0.066   2.633   1.287 -1.2750  0.2595 -0.7411
  955SOL    HW2 2865   0.214   2.624   1.201 -1.6032 -2.5983 -1.3466
  956SOL     OW 2866   2.793   2.462   2.468 -0.5848  0.4463 -0.5218
  956SOL    HW1 2867   2.830   2.365   2.458 -1.0451 -2.0347 -1.0423
  956SOL    HW2 2868   2.835   2.521   2.394  1.7889 -3.3755  2.5059
  957SOL     OW 2869   1.603   2.064   2.800 -0.3441  0.2880  0.5588
  957SOL    HW1 2870   1.533   1.986   2.798 -2.5770  0.1640 -0.7513
  957SOL    HW2 2871   1.651   2.071   2.709 -0.3841  0.4378 -1.7574
  958SOL     OW 2872   2.593   2.276   3.006  0.7372 -0.8076  0.4106
  958SOL    HW1 2873   2.501   2.301   2.967  2.0184 -2.5262 -1.6086
  958SOL    HW2 2874   2.594   2.214   3.089  1.4424 -0.7585 -1.1968
  959SOL     OW 2875   0.243   2.827   0.071 -0.1500  0.3231  0.6900
  959SOL    HW1 2876   0.169   2.778   0.014  1.7689  0.0246 -1.7775
  959SOL    HW2 2877   0.293   2.755   0.128 -0.2466 -1.5236  2.0376
  960SOL     OW 2878   2.041   0.492   1.950 -0.2455 -0.0369 -0.1356
  960SOL    HW1 2879   1.992   0.584   1.947  3.2405 -0.7654 -1.9882
  960SOL    HW2 2880   2.046   0.445   2.046 -1.0082  1.1229  2.0851
  961SOL     OW 2881   2.562   1.815   1.002 -0.0349 -0.1986  0.0937
  961SOL    HW1 2882   2.556   1.916   0.983 -0.0455  0.0032 -1.9270
  961SOL    HW2 2883   2.529   1.786   1.100  1.1620 -3.5443  1.0941
  962SOL     OW 2884   1.322   0.930   0.065  0.6258 -0.7983  0.2985
  962SOL    HW1 2885   1.301   0.968  -0.029 -2.1936 -3.4035  1.7625
  962SOL    HW2 2886   1.302   1.001   0.134 -0.5796 -4.0693  2.3781
  963SOL     OW 2887   2.216   2.568   1.832 -0.5190 -0.3772  0.5318
  963SOL    HW1 2888   2.189   2.479   1.876  1.9757  2.4087 -1.2695
  963SOL    HW2 2889   2.231   2.646   1.896  0.1287 -0.0150 -0.6102
  964SOL     OW 2890   2.365   0.349   1.682  0.0521 -0.4421 -0.0676
  964SOL    HW1 2891   2.449   0.381   1.734 -1.7679  1.2816 -0.1242
  964SOL    HW2 2892   2.382   0.336   1.580 -0.6632  0.4360  1.6803
  965SOL     OW 2893   2.638   3.073   0.131  0.2032 -0.2364  0.1440
  965SOL    HW1 2894   2.696   3.050   0.046  1.5166 -1.5367 -0.6120
  965SOL    HW2 2895   2.534   3.076   0.100  1.2648  1.8275  0.4907
  966SOL     OW 2896   2.595   2.548   2.201 -0.6725 -0.5995  0.3889
  966SOL    HW1 2897   2.565   2.617   2.271 -4.1457  0.4896 -1.3601
  966SOL    HW2 2898   2.624   2.590   2.111 -0.9863  1.0195  0.9730
  967SOL     OW 2899   2.804   2.804   2.499  0.0617 -0.4018  0.1121
  967SOL    HW1 2900   2.824   2.741   2.417 -1.5969 -0.0667 -2.7472
  967SOL    HW2 2901   2.880   2.874   2.512 -1.0583  1.6746 -1.3858
  968SOL     OW 2902   1.894   1.021   2.631 -0.0879 -0.2644  0.5424
  968SOL    HW1 2903   1.822   1.072   2.585  0.9782  1.6418 -1.2386
  968SOL    HW2 2904   1.924   0.947   2.563 -0.2889  1.0075 -1.0890
  969SOL     OW 2905   2.830   2.447   1.108 -0.2495  0.1199 -0.1218
  969SOL    HW1 2906   2.791   2.423   1.014  0.6217 -0.6317 -2.1200
  969SOL    HW2 2907   2.836   2.361   1.169 -0.9406  0.6770 -0.4504
  970SOL     OW 2908   1.016   2.102   1.815 -0.3231  0.1562  0.1752
  970SOL    HW1 2909   0.929   2.104   1.758  2.4055 -3.4454 -2.1564
  970SOL    HW2 2910   1.004   2.161   1.902 -2.1753  2.3750 -1.8198
  971SOL     OW 2911   2.879   2.072   1.901 -0.9634 -0.6793 -0.4256
  971SOL    HW1 2912   2.883   2.174   1.939  1.5040  3.3709  0.9751
  971SOL    HW2 2913   2.951   2.062   1.824 -0.4274  0.6236 -1.1655
  972SOL     OW 2914   1.998   2.486   0.216  0.4062  0.3641  0.2527
  972SOL    HW1 2915   1.960   2.397   0.181  0.5547  1.3224  0.9632
  972SOL    HW2 2916   2.045   2.480   0.305 -1.5618 -2.6013 -4.3269
  973SOL     OW 2917   1.292   1.016   1.899  0.3320  0.5553 -0.3297
  973SOL    HW1 2918   1.256   0.991   1.804 -2.3179  0.6774 -0.6248
  973SOL    HW2 2919   1.239   1.100   1.932  1.4138 -0.6297  0.8497
  974SOL     OW 2920   1.599   0.566   1.965 -0.2082  0.0086 -0.3434
  974SOL    HW1 2921   1.694   0.612   1.942  3.1521 -2.7721  1.0459
  974SOL    HW2 2922   1.512   0.617   1.931 -0.9574  1.2543 -1.5926
  975SOL     OW 2923   2.369   3.067   0.050 -0.0387  0.5626 -0.0742
  975SOL    HW1 2924   2.332   2.972   0.067  0.5386  0.1553 -2.8604
  975SOL    HW2 2925   2.358   3.085  -0.053 -0.9324  1.8920  1.6495
  976SOL     OW 2926   1.912   2.859   2.371 -0.2692  0.0161 -0.3950
  976SOL    HW1 2927   1.830   2.809   2.333  0.4724 -0.4698 -0.5225
  976SOL    HW2 2928   1.952   2.810   2.459  1.6996 -0.3960  1.1701
  977SOL     OW 2929   0.412   0.655   1.007 -0.0242  0.2190 -0.1115
  977SOL    HW1 2930   0.341   0.673   0.933 -1.8895  3.5740 -0.3352
  977SOL    HW2 2931   0.504   0.645   0.964  3.0414  0.7927  1.0334
   3.10000   3.10000   3.10000
