1000 SPC/Fw water molecules t=   1.70000 step= 1700
 2931
    1SOL     OW    1   2.481   0.382   2.660 -0.4492  0.0138  0.1771
    1SOL    HW1    2   2.492   0.289   2.613 -0.4051  1.1464  1.7168
    1SOL    HW2    3   2.559   0.401   2.727  2.1274 -1.8256  0.3646
    2SOL     OW    4   2.710   2.961   1.382  0.3951 -0.6238  0.2452
    2SOL    HW1    5   2.800   2.961   1.335  0.1415  0.1269 -1.8468
    2SOL    HW2    6   2.715   3.003   1.473 -0.2003  1.7824 -3.2376
    3SOL     OW    7   2.709   2.496   0.368  0.0516 -0.1994 -0.1154
    3SOL    HW1    8   2.620   2.440   0.381 -0.3662 -0.8174 -1.7984
    3SOL    HW2    9   2.739   2.548   0.453  0.0519  0.7520 -0.7579
    4SOL     OW   10   1.324   1.579   2.444 -0.2422 -0.5112  0.1236
    4SOL    HW1   11   1.266   1.551   2.365 -1.1706 -0.4216  2.8788
    4SOL    HW2   12   1.304   1.522   2.530  0.0522 -0.7294 -0.1271
    5SOL     OW   13   1.117   1.547   3.024  0.0693  1.0141 -0.2626
    5SOL    HW1   14   1.172   1.621   3.076  1.8795  0.9372  1.2376
    5SOL    HW2   15   1.051   1.586   2.952 -0.6039  0.1049 -1.4776
    6SOL     OW   16   0.260   1.807   3.084 -0.2261  0.3922  0.1879
    6SOL    HW1   17   0.173   1.827   3.138 -2.3567 -1.8885 -0.5687
    6SOL    HW2   18   0.315   1.741   3.143  2.2206 -2.4766  0.0334
    7SOL     OW   19   2.502   0.914   1.056  0.1310 -0.0745  1.0620
    7SOL    HW1   20   2.412   0.872   1.076  2.6751 -0.7910  1.8808
    7SOL    HW2   21   2.539   0.880   0.966  2.0212  0.3749  0.1557
    8SOL     OW   22   0.418   0.649   1.551 -0.2948  0.0036 -0.0513
    8SOL    HW1   23   0.477   0.571   1.589 -0.3373 -0.3273  1.0739
    8SOL    HW2   24   0.452   0.690   1.461 -0.1373  0.8045  0.0121
    9SOL     OW   25   1.130   0.894   2.335 -0.4096  0.0265  0.4066
    9SOL    HW1   26   1.209   0.915   2.263  0.4730  2.2488 -1.4063
    9SOL    HW2   27   1.099   0.790   2.342 -0.9251  1.4579  1.6071
   10SOL     OW   28   0.710   1.408   1.253 -1.0333  0.1505  0.2440
   10SOL    HW1   29   0.628   1.417   1.190 -2.8707  0.4306 -0.1410
   10SOL    HW2   30   0.714   1.482   1.323 -0.2894 -4.1890 -1.3529
   11SOL     OW   31   2.344   2.880   0.932 -0.0329 -0.3083  0.5668
   11SOL    HW1   32   2.281   2.826   0.996  0.6121  0.0855 -0.2751
   11SOL    HW2   33   2.438   2.901   0.975  3.1580  1.7945  2.8537
   12SOL     OW   34   1.522   0.856   0.456 -0.2529 -0.7912  0.1597
   12SOL    HW1   35   1.424   0.871   0.483  1.2374 -1.0497  0.7850
   12SOL    HW2   36   1.523   0.790   0.374 -0.4952  1.2715 -0.6315
   13SOL     OW   37   2.462   0.726   1.813 -0.1029  0.1009 -0.2788
   13SOL    HW1   38   2.397   0.669   1.873  1.7814  0.8793 -1.9059
   13SOL    HW2   39   2.475   0.690   1.715 -0.0585 -1.7473 -0.5725
   14SOL     OW   40   1.969   0.017   0.597  0.5948 -0.9188 -0.3448
   14SOL    HW1   41   1.879   0.065   0.568 -0.0386  2.9862 -0.0150
   14SOL    HW2   42   1.966  -0.033   0.685  2.0380  0.0372 -2.3229
   15SOL     OW   43   1.919   2.099   2.671  0.2006  0.6364  0.0444
   15SOL    HW1   44   1.866   2.109   2.760 -0.4685 -0.2988  0.3765
   15SOL    HW2   45   1.891   2.023   2.613  0.8576  2.4325 -0.7411
   16SOL     OW   46   1.592   1.744   3.031 -0.7107  0.4189  0.6637
   16SOL    HW1   47   1.589   1.647   3.062  1.9679 -0.6547 -0.2700
   16SOL    HW2   48   1.687   1.789   3.036  1.1135  2.6591  0.3696
   17SOL     OW   49   0.117   0.471   0.170 -0.0502  0.1839 -0.0501
   17SOL    HW1   50   0.197   0.478   0.101  2.6116  0.4746  0.2223
   17SOL    HW2   51   0.028   0.499   0.117 -1.2054 -0.1400 -1.6131
   18SOL     OW   52   0.917   2.914   2.136 -0.0343 -0.0399  0.1477
   18SOL    HW1   53   0.901   2.836   2.206 -2.1790 -1.5597  0.3868
   18SOL    HW2   54   0.995   2.897   2.067 -1.0003  2.2654 -0.1325
   19SOL     OW   55   0.566   0.894   1.915 -0.3153  0.0781 -0.0991
   19SOL    HW1   56   0.601   0.882   2.010  0.1247  0.0323 -1.2138
   19SOL    HW2   57   0.615   0.965   1.859  0.5981  1.1617 -0.0951
   20SOL     OW   58   0.212   2.808   0.796  0.1371  0.0584  0.3123
   20SOL    HW1   59   0.111   2.817   0.798  2.2469 -2.6061  0.4365
   20SOL    HW2   60   0.242   2.720   0.741 -0.5092 -2.4967 -3.7551
   21SOL     OW   61   2.730   0.298   2.037 -0.2171 -0.2127 -0.8863
   21SOL    HW1   62   2.700   0.224   1.972 -1.2265 -0.2413 -1.8516
   21SOL    HW2   63   2.827   0.278   2.069 -1.4360  0.0036 -1.1343
   22SOL     OW   64   2.356   0.200   0.128  0.2297 -0.1603  0.4291
   22SOL    HW1   65   2.392   0.120   0.073 -3.4198 -0.7447 -2.8021
   22SOL    HW2   66   2.282   0.255   0.075  1.8857 -1.2186 -0.2444
   23SOL     OW   67   2.816   0.538   0.685  0.0813  0.0253 -0.0831
   23SOL    HW1   68   2.865   0.466   0.632  0.6183 -3.2985  4.0484
   23SOL    HW2   69   2.785   0.615   0.624  1.3735 -1.0250 -0.9906
   24SOL     OW   70   0.304   1.895   0.460 -0.3173 -0.1425  0.6615
   24SOL    HW1   71   0.303   1.981   0.398  1.2755  2.8760 -1.2924
   24SOL    HW2   72   0.401   1.860   0.475 -0.2797  0.3696  1.9894
   25SOL     OW   73   2.282   0.601   0.206  0.1296  0.0654  0.6503
   25SOL    HW1   74   2.263   0.593   0.105 -1.8974  1.8723  2.3634
   25SOL    HW2   75   2.336   0.516   0.240  0.9999 -2.1869 -3.2399
   26SOL     OW   76   2.464   2.132   2.114  0.2935  0.5648  0.3538
   26SOL    HW1   77   2.548   2.183   2.153  0.6047  0.4635  1.7106
   26SOL    HW2   78   2.490   2.057   2.047  2.1461  0.5760 -0.1709
   27SOL     OW   79   0.612   3.008   0.140  0.1883  0.6018 -0.7480
   27SOL    HW1   80   0.707   3.046   0.129 -0.9096 -0.3061  1.1693
   27SOL    HW2   81   0.580   2.969   0.054  1.6434  0.8091  2.3444
   28SOL     OW   82   1.568   0.142   0.298 -0.3221  0.0358  0.4244
   28SOL    HW1   83   1.613   0.100   0.210  1.3438  2.2381  0.5017
   28SOL    HW2   84   1.610   0.232   0.322 -1.4430  2.1519 -0.7103
   29SOL     OW   85   2.030   0.576   0.290  0.0675 -0.8023  0.1443
   29SOL    HW1   86   2.001   0.653   0.352 -0.0312  0.5315  1.1335
   29SOL    HW2   87   2.126   0.594   0.253 -1.6581  0.9783 -0.9591
   30SOL     OW   88   0.180   2.067   0.903 -0.2286 -0.0434  0.4391
   30SOL    HW1   89   0.183   2.002   0.824 -1.2952  1.9327 -0.8488
   30SOL    HW2   90   0.083   2.082   0.935 -1.4840  1.1088  2.5217
   31SOL     OW   91   2.123   0.069   2.412 -0.1672  0.5907  0.3457
   31SOL    HW1   92   2.103   0.031   2.507 -1.8073  1.5530 -0.0958
   31SOL    HW2   93   2.045   0.046   2.347 -0.7523 -2.0180 -0.1979
   32SOL     OW   94   3.057   3.079   0.240 -0.1834  0.1786 -0.1105
   32SOL    HW1   95   3.028   2.991   0.285 -1.2080 -1.4624 -1.2378
   32SOL    HW2   96   3.163   3.085   0.225  2.2739  2.0489 -0.1364
   33SOL     OW   97   0.918   0.189   0.646 -0.4062  0.3228  0.0091
   33SOL    HW1   98   0.897   0.148   0.556  1.1862  0.5238 -1.4504
   33SOL    HW2   99   1.002   0.252   0.649  0.8759 -1.7729  0.8867
   34SOL     OW  100   0.360   2.701   1.011 -0.3287  0.0496 -0.5766
   34SOL    HW1  101   0.292   2.742   0.946  0.4158 -1.9233  0.0678
   34SOL    HW2  102   0.433   2.769   1.047 -0.7477 -2.0322  2.4112
   35SOL     OW  103   0.051   0.129   1.902 -0.2725  0.0438  0.2400
   35SOL    HW1  104   0.088   0.036   1.927  0.4092 -0.7465 -2.1833
   35SOL    HW2  105   0.026   0.130   1.801  4.5710 -0.4496  0.3615
   36SOL     OW  106   1.937   1.162   1.508 -0.4152  0.6719 -0.1756
   36SOL    HW1  107   2.015   1.097   1.508 -2.2680  0.9191  1.1487
   36SOL    HW2  108   1.950   1.249   1.451  0.9320  0.8651 -2.3067
   37SOL     OW  109   1.117   0.257   1.005  0.2196  0.3073  0.4120
   37SOL    HW1  110   1.131   0.356   1.001 -0.7828 -1.7184  2.2193
   37SOL    HW2  111   1.176   0.208   0.938 -1.0622 -1.2629 -2.7002
   38SOL     OW  112   1.151   2.831   2.429  0.0296  0.3583  0.5858
   38SOL    HW1  113   1.069   2.795   2.479  1.8311 -3.6124  1.7487
   38SOL    HW2  114   1.162   2.934   2.447 -0.5558 -0.3317 -1.4870
   39SOL     OW  115   2.482   1.429   3.011  0.0138  0.0367  0.0915
   39SOL    HW1  116   2.552   1.352   3.010  0.9417  0.5047 -2.3251
   39SOL    HW2  117   2.392   1.403   3.062 -1.1203 -2.5466 -0.4223
   40SOL     OW  118   2.054   2.529   2.520  0.3824 -0.6328 -0.4662
   40SOL    HW1  119   2.047   2.635   2.531 -0.4873  0.8199  1.6471
   40SOL    HW2  120   1.965   2.492   2.482 -2.0038 -0.7023 -3.6769
   41SOL     OW  121   3.049   0.727   2.771 -0.7105 -0.3467 -0.3374
   41SOL    HW1  122   3.049   0.819   2.821  2.4506 -0.1411  2.2295
   41SOL    HW2  123   2.954   0.689   2.748  0.8704 -1.9095  1.9980
   42SOL     OW  124   1.767   1.730   0.522 -0.5165 -0.2191 -0.0601
   42SOL    HW1  125   1.737   1.631   0.516 -0.2134  0.5240 -2.2914
   42SOL    HW2  126   1.783   1.778   0.429 -2.0736  0.6777  0.4768
   43SOL     OW  127   0.463   1.673   1.122 -0.3981 -0.2848 -0.0805
   43SOL    HW1  128   0.438   1.576   1.113 -0.0837  0.3503 -0.0556
   43SOL    HW2  129   0.400   1.718   1.190  1.8607  3.3341  2.6413
   44SOL     OW  130   1.668   2.331   2.930  0.3393 -0.0520 -0.7864
   44SOL    HW1  131   1.595   2.379   2.987 -0.2921 -0.7557 -0.2484
   44SOL    HW2  132   1.718   2.396   2.865 -1.0097 -2.1099 -2.2429
   45SOL     OW  133   0.372   1.905   2.615 -0.0206 -0.0806  0.7859
   45SOL    HW1  134   0.315   1.912   2.527 -1.1491  2.5329  3.0561
   45SOL    HW2  135   0.458   1.841   2.603  2.2345  2.5380  0.1706
   46SOL     OW  136   1.308   0.733   0.248  0.8612 -0.2613  0.1056
   46SOL    HW1  137   1.306   0.825   0.203  2.7363  0.2100 -1.9599
   46SOL    HW2  138   1.249   0.657   0.206 -1.2547 -2.6495 -2.8741
   47SOL     OW  139   0.116   2.415   1.594  0.3733 -0.3354  0.4589
   47SOL    HW1  140   0.102   2.334   1.657 -1.4360  1.3455 -2.4330
   47SOL    HW2  141   0.121   2.385   1.496 -1.4993 -1.3322  2.4064
   48SOL     OW  142   2.631   0.681   0.120 -0.0384  0.5949  0.2102
   48SOL    HW1  143   2.632   0.628   0.212  1.1856  2.3191 -0.4909
   48SOL    HW2  144   2.728   0.701   0.089 -1.0550 -0.6030  1.9987
   49SOL     OW  145   0.347   0.833   1.754 -0.5555 -0.0006 -0.6866
   49SOL    HW1  146   0.433   0.863   1.804 -2.1284  1.6635  0.5269
   49SOL    HW2  147   0.373   0.766   1.677  2.8475  0.1909 -1.9563
   50SOL     OW  148   1.735   1.091   0.309 -0.3311  0.0293  0.1204
   50SOL    HW1  149   1.761   0.989   0.291 -0.8978  0.1211 -0.7693
   50SOL    HW2  150   1.674   1.104   0.392  0.0209 -1.6964  1.3434
   51SOL     OW  151   2.956   1.755   0.337 -0.1338 -0.6261 -0.0244
   51SOL    HW1  152   2.874   1.707   0.380 -1.2638  0.7602 -0.1256
   51SOL    HW2  153   3.041   1.706   0.371  0.4328 -3.1836 -1.9678
   52SOL     OW  154   0.774   2.168   0.550  0.2005 -0.2867  0.1932
   52SOL    HW1  155   0.673   2.191   0.560  0.2866 -3.1090  1.6046
   52SOL    HW2  156   0.807   2.109   0.630  1.2948  0.6988  0.7034
   53SOL     OW  157   0.293   0.424   1.442  0.4406  0.4356 -0.3626
   53SOL    HW1  158   0.325   0.513   1.484  1.0855 -0.9317  1.0519
   53SOL    HW2  159   0.319   0.422   1.340  0.9466  0.2430 -0.5862
   54SOL     OW  160   1.716   0.424   0.005  0.3427  0.2658  0.0157
   54SOL    HW1  161   1.787   0.386   0.068 -0.3809 -0.1246 -0.6361
   54SOL    HW2  162   1.625   0.442   0.055  2.7143 -0.5462  2.5896
   55SOL     OW  163   0.763   2.958   0.617  0.5207 -0.6478  0.2057
   55SOL    HW1  164   0.712   3.047   0.604  1.5108  1.3567 -0.2117
   55SOL    HW2  165   0.860   2.966   0.584  2.0679  1.8839  3.0110
   56SOL     OW  166   0.578   1.526   3.045 -0.1626  0.2451 -0.1281
   56SOL    HW1  167   0.501   1.551   3.115 -0.8091 -1.0295  1.0406
   56SOL    HW2  168   0.554   1.441   2.985  0.8666  1.1747  1.5525
   57SOL     OW  169   1.689   2.466   2.326  0.0516 -0.4671 -0.0190
   57SOL    HW1  170   1.757   2.393   2.356  0.0250  1.0811  0.0715
   57SOL    HW2  171   1.626   2.485   2.407  0.6182  0.4660  1.3989
   58SOL     OW  172   0.647   0.214   1.076 -0.1800 -0.2880  0.7018
   58SOL    HW1  173   0.578   0.228   1.153 -0.1656  1.9234 -1.4129
   58SOL    HW2  174   0.693   0.119   1.082 -0.7695 -1.7089 -1.1822
   59SOL     OW  175   0.448   2.373   2.648 -0.0832  0.0018 -0.2182
   59SOL    HW1  176   0.475   2.274   2.666  2.6441 -1.7534  0.9687
   59SOL    HW2  177   0.522   2.440   2.680 -1.2956 -0.3937 -0.8171
   60SOL     OW  178   2.306   2.035   2.305  0.5525 -0.5656 -0.3449
   60SOL    HW1  179   2.364   2.064   2.222 -0.4283 -2.4168 -0.4869
   60SOL    HW2  180   2.334   2.083   2.396  0.1434  1.3705  0.4666
   61SOL     OW  181   1.192   0.639   0.496  0.1473  0.5980 -0.7108
   61SOL    HW1  182   1.093   0.658   0.533 -1.1333 -2.9425  1.1177
   61SOL    HW2  183   1.217   0.702   0.419  0.7000 -1.2708  0.4076
   62SOL     OW  184   2.806   1.725   2.681  0.0541 -0.3037  0.0371
   62SOL    HW1  185   2.721   1.670   2.683  1.5533 -1.0239 -1.7947
   62SOL    HW2  186   2.876   1.689   2.747  1.3011 -0.8405  2.2372
   63SOL     OW  187   0.545   0.912   0.204  0.0299 -0.4788 -0.2490
   63SOL    HW1  188   0.579   0.966   0.122 -1.5203 -0.1946 -0.5993
   63SOL    HW2  189   0.545   0.960   0.293  0.2266 -0.6130  0.7382
   64SOL     OW  190   2.995   0.543   2.339  0.5949 -0.9200  0.1170
   64SOL    HW1  191   2.930   0.590   2.411 -0.7276  2.1999 -0.1426
   64SOL    HW2  192   3.011   0.605   2.254  0.1285  2.4887 -2.4520
   65SOL     OW  193   0.241   1.447   0.701  0.0289  0.3039 -0.5943
   65SOL    HW1  194   0.209   1.532   0.749 -0.6853  0.5187 -1.4499
   65SOL    HW2  195   0.274   1.461   0.604 -3.1898 -1.1181  1.3720
   66SOL     OW  196   2.574   0.339   0.560 -0.0713  0.3054 -0.5986
   66SOL    HW1  197   2.672   0.347   0.569  0.3247 -1.0666  0.2443
   66SOL    HW2  198   2.533   0.280   0.637 -0.9007 -1.1406 -0.6034
   67SOL     OW  199   0.599   2.532   1.443 -0.3761  0.0317 -1.0762
   67SOL    HW1  200   0.691   2.513   1.492  2.8723  1.3341 -0.7646
   67SOL    HW2  201   0.541   2.446   1.435  1.9722  0.0032  1.0377
   68SOL     OW  202   0.906   0.988   2.442  0.6710  0.6570 -0.0248
   68SOL    HW1  203   0.994   0.943   2.403  1.5364  2.1311 -0.4264
   68SOL    HW2  204   0.849   1.048   2.380 -2.4279 -0.8826 -1.4634
   69SOL     OW  205   0.784   2.645   2.362  0.5382 -0.7734  0.2896
   69SOL    HW1  206   0.827   2.583   2.291  2.1133 -2.0705  0.9434
   69SOL    HW2  207   0.679   2.637   2.364  0.3942  3.6359  0.5436
   70SOL     OW  208   0.463   0.162   2.560  0.3040  0.1576  0.0504
   70SOL    HW1  209   0.377   0.131   2.613 -0.6535 -0.1173  2.8290
   70SOL    HW2  210   0.531   0.080   2.556  1.8381 -1.6708  0.1698
   71SOL     OW  211   1.047   1.751   0.310  0.3465 -0.1969  0.2233
   71SOL    HW1  212   1.007   1.697   0.384  2.1368  3.3321  0.6780
   71SOL    HW2  213   0.993   1.745   0.223  2.1149 -1.6955 -0.6609
   72SOL     OW  214   1.852   0.269   2.160  0.2556  0.0852 -0.1515
   72SOL    HW1  215   1.922   0.343   2.187 -0.1292 -1.2048 -1.6615
   72SOL    HW2  216   1.893   0.172   2.160  0.5722  1.5018 -2.0398
   73SOL     OW  217   2.763   2.197   2.483 -0.3542 -0.3112 -0.1342
   73SOL    HW1  218   2.720   2.105   2.457 -0.1060  1.0453 -1.1116
   73SOL    HW2  219   2.793   2.193   2.584 -0.6057  0.0074  0.3029
   74SOL     OW  220   2.705   2.921   2.112 -0.0510  0.3401 -0.4502
   74SOL    HW1  221   2.637   2.914   2.190  0.9532 -0.5294  0.1451
   74SOL    HW2  222   2.784   2.975   2.152  3.3191  1.1679  1.1733
   75SOL     OW  223   0.955   0.813   1.161 -0.0502  0.2075 -0.2122
   75SOL    HW1  224   0.851   0.833   1.149  0.2645 -3.2058  2.0900
   75SOL    HW2  225   1.000   0.852   1.249 -0.8699  0.3815 -1.9185
   76SOL     OW  226   1.853   1.289   2.610  0.4278  0.1198  1.0222
   76SOL    HW1  227   1.759   1.266   2.657  0.4589 -1.6512 -0.6409
   76SOL    HW2  228   1.889   1.385   2.637 -2.1644  0.9580 -1.3833
   77SOL     OW  229   2.903   0.953   1.051 -0.1652 -0.6662  0.3831
   77SOL    HW1  230   2.901   0.849   1.031  2.7942 -0.0118 -2.1363
   77SOL    HW2  231   2.978   0.967   1.121 -0.8150 -1.8734 -1.9708
   78SOL     OW  232   1.988   1.430   1.348 -0.4003  0.6369  0.4775
   78SOL    HW1  233   2.076   1.413   1.295  1.6363  0.8888 -0.1838
   78SOL    HW2  234   1.905   1.446   1.284 -0.5569 -1.1410  1.2669
   79SOL     OW  235   0.713   1.445   0.822 -0.2347  0.1996 -0.0318
   79SOL    HW1  236   0.612   1.421   0.829 -0.6813  1.2164 -0.6135
   79SOL    HW2  237   0.767   1.350   0.806 -3.7235 -1.4009 -5.5777
   80SOL     OW  238   0.604   0.456   1.565  0.8905 -0.2752  0.1908
   80SOL    HW1  239   0.647   0.516   1.490  2.3363  2.0075  1.5488
   80SOL    HW2  240   0.623   0.350   1.564  2.0026 -2.6113 -3.2360
   81SOL     OW  241   1.083   1.260   2.526 -0.0070  0.0853 -0.3013
   81SOL    HW1  242   1.053   1.163   2.534  2.0059  1.6938 -0.7877
   81SOL    HW2  243   1.007   1.315   2.483  0.7191 -0.7746  0.8018
   82SOL     OW  244   0.903   2.949   1.519  0.2743  0.2177  1.0798
   82SOL    HW1  245   0.890   2.853   1.478  1.2351 -1.0695  0.9842
   82SOL    HW2  246   0.850   3.021   1.468  0.6780  2.0196 -0.8908
   83SOL     OW  247   2.640   2.385   0.854 -0.1386  0.5365 -0.0661
   83SOL    HW1  248   2.546   2.351   0.833  2.5560  0.7079 -0.8371
   83SOL    HW2  249   2.647   2.491   0.848  0.9563  3.8771  2.8076
   84SOL     OW  250   0.781   3.099   2.278  0.2740 -0.5664 -0.0060
   84SOL    HW1  251   0.742   3.068   2.372 -2.9200 -0.2382 -0.5162
   84SOL    HW2  252   0.816   3.021   2.220  0.7497 -3.3242  1.1700
   85SOL     OW  253   0.296   1.717   1.360  0.6991  0.2121  0.2129
   85SOL    HW1  254   0.248   1.787   1.423 -0.4883 -1.6503  0.7826
   85SOL    HW2  255   0.347   1.648   1.412 -0.7732 -0.5036 -3.6582
   86SOL     OW  256   0.434   1.045   1.482  0.6661  0.0516 -0.2665
   86SOL    HW1  257   0.397   0.961   1.425 -0.0600 -1.9353 -0.8018
   86SOL    HW2  258   0.530   1.036   1.518  1.7488  0.9761 -1.2219
   87SOL     OW  259   1.605   0.655   0.298  0.0180 -0.5043  0.0342
   87SOL    HW1  260   1.677   0.728   0.295 -0.7918 -1.4922  0.3735
   87SOL    HW2  261   1.582   0.599   0.212 -1.7464 -0.1959 -2.7737
   88SOL     OW  262   1.575   1.325   0.258 -0.5663 -0.1562 -0.3621
   88SOL    HW1  263   1.632   1.242   0.237 -0.9916 -2.9744  2.1351
   88SOL    HW2  264   1.479   1.316   0.233  0.9041  1.2671  0.8010
   89SOL     OW  265   0.014   0.399   0.660 -0.4038 -0.3408  0.5150
   89SOL    HW1  266   0.115   0.374   0.657  0.8116  0.7698  2.7836
   89SOL    HW2  267  -0.051   0.326   0.640 -0.0981  0.4036  0.9870
   90SOL     OW  268   0.754   1.538   0.157 -0.4977 -0.1684  0.1576
   90SOL    HW1  269   0.843   1.484   0.150  1.3902  0.5086 -0.8871
   90SOL    HW2  270   0.692   1.531   0.074 -0.3689 -0.4289  1.1981
   91SOL     OW  271   1.298   1.504   1.733  0.5173  0.3507 -1.0975
   91SOL    HW1  272   1.243   1.561   1.804 -0.0654 -0.8672  1.7417
   91SOL    HW2  273   1.343   1.420   1.779  0.4188  0.0365  1.4868
   92SOL     OW  274   0.011   0.999   1.222  0.2666 -0.0989  0.1528
   92SOL    HW1  275   0.056   1.087   1.186 -2.8774  1.0269 -0.3905
   92SOL    HW2  276   0.001   0.995   1.329 -1.3564  0.5054 -0.9680
   93SOL     OW  277   3.075   2.640   0.066 -0.5483 -0.2665 -0.0843
   93SOL    HW1  278   3.021   2.637  -0.025 -3.2681 -1.9819 -2.9307
   93SOL    HW2  279   3.109   2.545   0.102  2.5273 -2.3341  0.2433
   94SOL     OW  280   1.495   1.297   1.675 -0.2892  0.1294 -0.0205
   94SOL    HW1  281   1.566   1.224   1.657  0.2386  2.8294 -1.3474
   94SOL    HW2  282   1.536   1.393   1.678  0.9954  1.7275  0.4328
   95SOL     OW  283   1.345   2.473   2.916  0.4068  0.0858 -0.2748
   95SOL    HW1  284   1.262   2.472   2.978 -1.1274  1.1071  0.9488
   95SOL    HW2  285   1.354   2.380   2.868  1.5745  1.6091  2.6064
   96SOL     OW  286   0.576   2.172   1.318 -0.6088 -0.0447 -0.4999
   96SOL    HW1  287   0.524   2.163   1.229  1.7453  1.8790 -1.5626
   96SOL    HW2  288   0.621   2.086   1.357  0.9297  0.0176  0.5181
   97SOL     OW  289   0.247   1.614   2.408 -0.2477  0.3130 -0.5078
   97SOL    HW1  290   0.251   1.716   2.391  1.5515 -2.1064 -3.8703
   97SOL    HW2  291   0.240   1.592   2.512 -1.0475 -1.1006  0.0207
   98SOL     OW  292   2.162   1.663   1.206 -0.2028  0.2876  0.2011
   98SOL    HW1  293   2.097   1.582   1.207  2.3373 -1.1985 -3.2688
   98SOL    HW2  294   2.263   1.645   1.195  0.8004 -0.8100  0.4238
   99SOL     OW  295   2.615   2.033   1.283 -0.8075 -0.6313  0.4908
   99SOL    HW1  296   2.689   2.070   1.350 -0.4206  1.0955  2.9084
   99SOL    HW2  297   2.545   1.980   1.341  1.1953  1.4271  1.8294
  100SOL     OW  298   2.323   0.370   2.127  0.2898 -0.2828 -0.6046
  100SOL    HW1  299   2.271   0.351   2.216 -1.8853  3.0159  1.4810
  100SOL    HW2  300   2.421   0.407   2.145  1.2066 -0.3587 -1.3236
  101SOL     OW  301   0.367   1.477   0.460 -0.0274 -0.5097 -0.7033
  101SOL    HW1  302   0.366   1.573   0.495 -0.1696 -0.0931 -1.4320
  101SOL    HW2  303   0.449   1.447   0.406  0.5813 -3.7878 -2.1280
  102SOL     OW  304   2.242   1.064   0.819  0.0523 -0.1610  0.3155
  102SOL    HW1  305   2.229   0.961   0.804  0.7140  3.5437  0.9536
  102SOL    HW2  306   2.299   1.107   0.743  1.3791  0.5042 -1.0945
  103SOL     OW  307   2.267   0.083   0.381 -0.5188  0.0868 -0.0616
  103SOL    HW1  308   2.299   0.153   0.311  0.8022  0.9205  1.7710
  103SOL    HW2  309   2.349   0.047   0.440  2.1150 -2.0821  0.8533
  104SOL     OW  310   3.055   1.782   2.206 -0.2136  0.1812 -0.5311
  104SOL    HW1  311   3.119   1.785   2.121 -1.0960  1.6336 -3.6148
  104SOL    HW2  312   2.958   1.819   2.191  1.7533 -2.5503 -0.5229
  105SOL     OW  313   1.348   2.093   0.774 -0.3556  0.1005  0.2212
  105SOL    HW1  314   1.346   2.150   0.688 -1.5761 -0.4845 -1.1750
  105SOL    HW2  315   1.346   1.993   0.755 -0.9956 -0.0060 -1.6523
  106SOL     OW  316   2.137   0.410   1.418  0.2056  0.0586  0.2456
  106SOL    HW1  317   2.058   0.350   1.389 -1.3204  2.2544 -3.5257
  106SOL    HW2  318   2.148   0.427   1.517  2.5606 -0.2864 -1.7626
  107SOL     OW  319   1.909   2.907   1.160  1.1059  0.0613 -0.3967
  107SOL    HW1  320   1.839   2.984   1.185 -1.9027  1.2221  0.0289
  107SOL    HW2  321   1.860   2.831   1.112  0.2006 -0.6420  1.3222
  108SOL     OW  322   0.836   2.821   1.149  0.4401 -0.0777 -0.7302
  108SOL    HW1  323   0.851   2.720   1.129 -0.1008 -0.0445  2.5065
  108SOL    HW2  324   0.922   2.858   1.190 -1.4554 -1.4453 -0.2028
  109SOL     OW  325   2.165   0.163   0.710 -0.0897 -0.3482  0.1587
  109SOL    HW1  326   2.079   0.135   0.660 -0.3850  0.5788  0.4939
  109SOL    HW2  327   2.148   0.183   0.810 -0.7833 -1.4898 -1.4272
  110SOL     OW  328   0.497   2.806   2.748 -0.0067  0.7973  0.0469
  110SOL    HW1  329   0.500   2.830   2.649 -1.2755  1.2754 -0.7862
  110SOL    HW2  330   0.571   2.738   2.784  1.6550 -1.1295  1.2035
  111SOL     OW  331   1.324   0.562   2.272  0.6242  0.4582 -0.1275
  111SOL    HW1  332   1.232   0.578   2.315 -1.5925 -0.3269  1.6144
  111SOL    HW2  333   1.368   0.471   2.295 -2.6387  0.2382 -0.0591
  112SOL     OW  334   1.728   0.450   1.529 -0.1671  0.3026  0.4973
  112SOL    HW1  335   1.694   0.488   1.436 -1.4068  1.5048 -2.1979
  112SOL    HW2  336   1.641   0.431   1.583  2.8154 -2.0731 -0.2356
  113SOL     OW  337   2.364   1.682   1.790 -0.6876 -0.3337  0.1459
  113SOL    HW1  338   2.407   1.588   1.767 -0.1648 -1.1955 -0.6727
  113SOL    HW2  339   2.347   1.706   1.891  0.3233 -2.0368 -0.8004
  114SOL     OW  340   0.293   0.408   1.160 -0.4349 -0.4438 -0.0258
  114SOL    HW1  341   0.189   0.414   1.148 -4.6708  0.9488 -2.3081
  114SOL    HW2  342   0.340   0.430   1.072 -0.5093  1.1303  0.6700
  115SOL     OW  343   2.694   1.533   1.267 -0.2490 -0.4999  0.2018
  115SOL    HW1  344   2.690   1.429   1.266 -0.7385 -2.1486  0.6678
  115SOL    HW2  345   2.795   1.562   1.251 -0.2230  0.0547 -2.2290
  116SOL     OW  346   1.920   0.893   0.757  0.4495  0.6111 -0.1072
  116SOL    HW1  347   1.818   0.877   0.743 -1.3327  1.1155 -0.2453
  116SOL    HW2  348   1.948   0.991   0.756  1.2796  0.6669 -0.0476
  117SOL     OW  349   1.142   0.367   0.553 -0.2921 -0.3145 -0.3379
  117SOL    HW1  350   1.160   0.471   0.560  2.3116  1.9112 -1.8455
  117SOL    HW2  351   1.091   0.338   0.461 -1.0473  2.0966 -2.1350
  118SOL     OW  352   1.151   1.220   1.074  0.4658 -0.1857  0.2266
  118SOL    HW1  353   1.067   1.190   1.119 -0.4251 -0.0267 -0.8252
  118SOL    HW2  354   1.178   1.317   1.105 -0.5936  1.6926 -1.0475
  119SOL     OW  355   1.853   1.574   2.199  0.6211  0.1122  0.2715
  119SOL    HW1  356   1.798   1.630   2.134  1.2914 -2.1367 -1.3413
  119SOL    HW2  357   1.949   1.542   2.166  1.4852 -1.1715 -0.1274
  120SOL     OW  358   2.973   2.808   0.274  0.3488 -0.4465  0.4679
  120SOL    HW1  359   3.005   2.753   0.193 -0.9016  0.7856 -0.4268
  120SOL    HW2  360   2.873   2.793   0.306 -0.6812 -0.4348  0.9613
  121SOL     OW  361   2.011   0.779   2.326  0.3460 -0.2378  0.1404
  121SOL    HW1  362   2.056   0.865   2.281 -0.6918 -0.3868 -0.8981
  121SOL    HW2  363   2.039   0.688   2.283 -1.4548 -1.9939 -1.3831
  122SOL     OW  364   2.626   2.506   1.330  0.1650 -0.0803  0.7581
  122SOL    HW1  365   2.688   2.454   1.268  3.4764 -0.3638  1.6109
  122SOL    HW2  366   2.607   2.463   1.420  0.7885 -0.1648 -0.7171
  123SOL     OW  367   1.656   0.151   1.700 -0.3971  0.8149 -0.3848
  123SOL    HW1  368   1.684   0.062   1.653  0.3049 -1.2823  0.1888
  123SOL    HW2  369   1.742   0.196   1.742  2.7247 -0.4269  1.1801
  124SOL     OW  370   3.043   0.410   1.147 -0.3051  0.6055  0.4089
  124SOL    HW1  371   2.970   0.448   1.205  1.7542 -0.9243  0.9736
  124SOL    HW2  372   3.049   0.452   1.053 -1.9540  1.0225  1.3485
  125SOL     OW  373   0.866   1.995   0.734  0.0326  0.0248 -0.3652
  125SOL    HW1  374   0.961   1.942   0.746  1.0067 -2.7382 -0.3183
  125SOL    HW2  375   0.809   1.990   0.818  2.8933 -2.3271 -1.8154
  126SOL     OW  376   1.882   2.320   2.447  0.0032 -0.0362 -0.0827
  126SOL    HW1  377   1.942   2.255   2.385  1.2873 -1.1116  0.8313
  126SOL    HW2  378   1.882   2.274   2.538 -0.2287  0.3849 -0.4387
  127SOL     OW  379   0.895   0.975   0.184  0.0522 -0.0647 -0.5891
  127SOL    HW1  380   0.899   1.024   0.276 -2.3364  0.8554 -0.7393
  127SOL    HW2  381   0.917   0.876   0.193 -0.2156 -0.5058  2.2829
  128SOL     OW  382   0.936   0.207   1.429 -0.2981 -0.5392 -0.5868
  128SOL    HW1  383   0.897   0.284   1.361 -0.3237 -0.0575 -3.6576
  128SOL    HW2  384   0.882   0.115   1.423  0.0920 -1.7671  0.5495
  129SOL     OW  385   1.868   0.714   1.845  0.3421  0.3758 -0.1869
  129SOL    HW1  386   1.878   0.735   1.748  1.1446  1.1148  1.9688
  129SOL    HW2  387   1.878   0.802   1.904  0.7174  0.6893  3.0575
  130SOL     OW  388   1.359   2.221   1.014  0.2431 -1.2024  0.1193
  130SOL    HW1  389   1.322   2.160   0.934 -2.0952 -0.5936 -0.5464
  130SOL    HW2  390   1.407   2.305   0.975 -1.6218  0.6290  1.7103
  131SOL     OW  391   3.057   1.406   1.407 -0.6495 -0.1817  0.3655
  131SOL    HW1  392   2.988   1.328   1.419  0.9478 -1.2229 -0.8753
  131SOL    HW2  393   3.146   1.372   1.363  1.9053 -4.7714 -0.3343
  132SOL     OW  394   2.062   2.428   0.560 -0.5353 -0.1020 -0.0949
  132SOL    HW1  395   1.960   2.452   0.570  0.4749  0.8241 -0.8730
  132SOL    HW2  396   2.086   2.338   0.602 -1.2983  0.3223  2.4132
  133SOL     OW  397   1.752   2.517   2.758 -0.0376  0.1448 -0.2262
  133SOL    HW1  398   1.705   2.504   2.666  0.5224 -1.2465  1.2131
  133SOL    HW2  399   1.742   2.615   2.801  2.9143  2.5906  1.6632
  134SOL     OW  400   2.642   2.398   1.603 -0.6408  0.0449  0.2209
  134SOL    HW1  401   2.575   2.355   1.668 -0.5200 -1.8234 -1.4331
  134SOL    HW2  402   2.667   2.489   1.642 -0.5107  0.3241  0.4141
  135SOL     OW  403   0.822   1.407   2.668  0.1914 -0.7333  0.4309
  135SOL    HW1  404   0.765   1.336   2.712 -3.8476 -0.4253 -0.5530
  135SOL    HW2  405   0.804   1.423   2.566  0.9509  0.1066 -0.3229
  136SOL     OW  406   1.162   2.006   0.402 -0.2913 -0.3305 -0.0423
  136SOL    HW1  407   1.101   2.087   0.427  0.8982 -1.9448 -1.8767
  136SOL    HW2  408   1.108   1.920   0.382  1.1507 -0.3441 -0.1289
  137SOL     OW  409   0.413   1.221   2.323  0.0714  0.1321 -0.4678
  137SOL    HW1  410   0.309   1.223   2.311 -2.7059  0.7773  0.2185
  137SOL    HW2  411   0.443   1.130   2.360 -0.8195 -0.5724 -2.9222
  138SOL     OW  412   2.452   1.494   0.235  0.1036 -0.0902  0.0368
  138SOL    HW1  413   2.393   1.437   0.176  1.7239 -0.2893  1.2921
  138SOL    HW2  414   2.482   1.442   0.319  0.1460 -2.7679  0.2222
  139SOL     OW  415   1.865   2.660   1.582 -0.0373 -0.3660 -0.4163
  139SOL    HW1  416   1.783   2.706   1.537  0.4034  0.1014 -1.7266
  139SOL    HW2  417   1.860   2.558   1.550 -1.6883 -0.0633  0.1063
  140SOL     OW  418   2.990   2.961   2.562  0.3229  0.2035  0.0754
  140SOL    HW1  419   3.028   2.869   2.580 -0.4085  1.8446 -2.2763
  140SOL    HW2  420   3.065   3.023   2.525  1.4859 -0.3597  2.4738
  141SOL     OW  421   1.321   1.647   1.479 -0.0498  0.2516  0.2086
  141SOL    HW1  422   1.230   1.691   1.488 -0.8694 -2.2506 -3.2748
  141SOL    HW2  423   1.336   1.564   1.542  3.5364  0.0300  0.1022
  142SOL     OW  424   1.582   0.684   2.220  0.1293 -0.1237 -0.6689
  142SOL    HW1  425   1.569   0.704   2.118  1.5555 -1.2150 -2.1013
  142SOL    HW2  426   1.492   0.645   2.263 -3.2559 -2.1158 -2.0601
  143SOL     OW  427   2.744   0.803   0.546  0.0370 -0.0213 -0.1455
  143SOL    HW1  428   2.812   0.836   0.475 -0.9975 -0.5973 -0.8466
  143SOL    HW2  429   2.770   0.838   0.641  1.5817 -0.3477  3.7478
  144SOL     OW  430   2.891   1.151   1.427 -0.3066  0.1952 -0.3175
  144SOL    HW1  431   2.834   1.142   1.515 -3.1791 -0.9956 -0.9782
  144SOL    HW2  432   2.993   1.124   1.437  0.8934  3.2600  0.4170
  145SOL     OW  433   0.891   1.759   0.092  0.1528  0.0345 -1.1434
  145SOL    HW1  434   0.870   1.783  -0.006 -0.8113  0.7406  0.1243
  145SOL    HW2  435   0.825   1.683   0.128 -1.5175 -0.3983 -0.1192
  146SOL     OW  436   2.468   0.646   1.512  0.3502 -0.1918  0.3295
  146SOL    HW1  437   2.448   0.552   1.461 -0.6455 -0.9028 -1.4532
  146SOL    HW2  438   2.399   0.714   1.480  1.4407  0.3917  0.5685
  147SOL     OW  439   1.069   2.471   0.567  0.0227  0.1286  0.1118
  147SOL    HW1  440   0.997   2.531   0.524 -0.7129 -1.0086  1.4725
  147SOL    HW2  441   1.166   2.486   0.533 -0.0258 -0.5827 -1.2668
  148SOL     OW  442   1.584   1.445  -0.001  0.2098  0.1929 -0.3794
  148SOL    HW1  443   1.600   1.353  -0.048 -0.0973  0.0003 -1.6698
  148SOL    HW2  444   1.560   1.440   0.100 -0.5106 -3.4816  1.0295
  149SOL     OW  445   0.671   1.496   1.993  0.5030  0.1863  0.7586
  149SOL    HW1  446   0.571   1.467   2.011 -1.5595 -0.2353 -1.2788
  149SOL    HW2  447   0.704   1.482   1.896 -0.6938 -0.8064  1.9980
  150SOL     OW  448   3.024   1.193   0.939 -0.1205  0.4902  0.4017
  150SOL    HW1  449   3.107   1.215   1.004 -1.9130  1.8785  0.4225
  150SOL    HW2  450   2.966   1.112   0.970 -1.0434 -0.0944  0.9128
  151SOL     OW  451   0.131   0.888   2.097  0.0530 -0.3772 -0.1437
  151SOL    HW1  452   0.146   0.980   2.052 -0.0461 -1.2969  0.5099
  151SOL    HW2  453   0.188   0.805   2.062 -0.3522 -2.8793 -1.6588
  152SOL     OW  454   1.480   1.875   1.112  0.0881 -0.0236  0.2191
  152SOL    HW1  455   1.494   1.976   1.110 -2.1793  2.3831  0.7238
  152SOL    HW2  456   1.378   1.857   1.101 -1.4289 -0.7475  0.5355
  153SOL     OW  457   0.125   1.493   0.265 -0.5295 -0.3034  0.5471
  153SOL    HW1  458   0.119   1.394   0.287  0.6140  0.5785 -0.0311
  153SOL    HW2  459   0.088   1.550   0.341 -0.9306  1.2812 -0.7388
  154SOL     OW  460   2.342   1.835   2.785 -0.7304  0.1686 -0.1102
  154SOL    HW1  461   2.353   1.729   2.772 -2.5555  0.8544 -0.4226
  154SOL    HW2  462   2.409   1.894   2.728  1.2263 -0.8808 -3.4983
  155SOL     OW  463   2.493   1.316   0.441  1.1748 -0.2821  0.1872
  155SOL    HW1  464   2.589   1.288   0.460 -1.3522 -0.3201  2.3114
  155SOL    HW2  465   2.438   1.249   0.386  0.7754 -1.5291  1.0639
  156SOL     OW  466   2.456   0.794   0.769  0.6502 -0.6847  0.2011
  156SOL    HW1  467   2.353   0.779   0.757 -1.9217 -0.6738  0.8579
  156SOL    HW2  468   2.497   0.869   0.713 -3.8152 -0.0408  0.2079
  157SOL     OW  469   1.272   3.091   3.062  0.0789  0.2585 -0.2277
  157SOL    HW1  470   1.346   3.032   3.017 -1.1770  0.0390  2.8902
  157SOL    HW2  471   1.317   3.184   3.079 -0.6677  0.7197 -0.3615
  158SOL     OW  472   1.075   1.918   1.844 -0.3348 -0.5151  0.4168
  158SOL    HW1  473   1.121   2.004   1.807 -3.6742 -1.1450  0.0532
  158SOL    HW2  474   0.997   1.936   1.904 -0.0980 -0.1534 -1.9065
  159SOL     OW  475   0.771   0.417   1.262  0.1778 -0.1956 -0.3314
  159SOL    HW1  476   0.715   0.505   1.279  0.1559 -1.5817 -1.4265
  159SOL    HW2  477   0.742   0.369   1.174  0.0751 -0.4107 -2.8555
  160SOL     OW  478   1.425   2.478   1.433 -0.2803  0.0091 -0.5548
  160SOL    HW1  479   1.371   2.422   1.502  1.3959  1.5946  1.7777
  160SOL    HW2  480   1.513   2.433   1.399 -0.5269 -0.2729 -1.3641
  161SOL     OW  481   0.024   2.631   0.432  0.6455  1.0245 -0.1286
  161SOL    HW1  482  -0.031   2.540   0.436 -1.2116 -2.7756 -0.8114
  161SOL    HW2  483  -0.027   2.708   0.376 -0.5528 -0.0744 -2.4469
  162SOL     OW  484   2.520   1.897   0.488  0.6395  0.9350 -0.0064
  162SOL    HW1  485   2.551   1.910   0.388 -1.8032 -0.8805 -2.5701
  162SOL    HW2  486   2.457   1.813   0.482 -1.4982 -0.2205 -1.6239
  163SOL     OW  487   1.983   2.734   0.761  0.2280 -0.2823 -0.0394
  163SOL    HW1  488   1.984   2.761   0.662 -1.4166 -0.4338 -2.3841
  163SOL    HW2  489   2.034   2.646   0.778  1.2671 -0.0252  0.0377
  164SOL     OW  490  -0.001   0.128   1.231 -0.2090 -0.4971  0.2032
  164SOL    HW1  491  -0.017   0.221   1.189  2.4963  1.9558 -0.5129
  164SOL    HW2  492   0.073   0.136   1.303  2.0012  0.4866  1.7132
  165SOL     OW  493   1.106   1.444   0.608 -0.0442 -0.5355 -0.1268
  165SOL    HW1  494   1.088   1.475   0.705 -1.4823  0.4663 -1.5087
  165SOL    HW2  495   1.071   1.504   0.532  1.3251  0.6700  0.8811
  166SOL     OW  496   1.514   1.000   1.840  0.3284 -0.4060  0.2891
  166SOL    HW1  497   1.430   1.055   1.863 -2.4293 -1.7375 -0.5278
  166SOL    HW2  498   1.591   1.061   1.803  1.3095  0.9342  1.7021
  167SOL     OW  499   0.667   2.009   1.534 -0.1032 -0.4903  0.1021
  167SOL    HW1  500   0.648   2.099   1.586  1.9287  0.2775  0.7201
  167SOL    HW2  501   0.618   1.921   1.569 -1.9346  0.6520 -1.6252
  168SOL     OW  502   1.619   2.290   0.137 -0.5226 -0.0351 -0.1620
  168SOL    HW1  503   1.684   2.301   0.060  0.2867 -1.4264 -0.8106
  168SOL    HW2  504   1.659   2.283   0.233  1.5023  0.0455 -0.9214
  169SOL     OW  505   3.085   2.590   2.170 -0.3869  0.6151  0.3260
  169SOL    HW1  506   3.083   2.511   2.099 -1.1916  1.3436  0.2019
  169SOL    HW2  507   3.129   2.555   2.256 -0.7076  0.5213  0.4548
  170SOL     OW  508   1.152   0.127   2.073  0.2134 -0.2050  0.4436
  170SOL    HW1  509   1.234   0.163   2.131  1.4501 -1.7858  2.1435
  170SOL    HW2  510   1.168   0.134   1.971  1.6572  0.4692  3.1146
  171SOL     OW  511   0.173   0.863   2.424  0.4966 -0.0199  0.2041
  171SOL    HW1  512   0.074   0.855   2.460  1.6368  0.1191 -2.2735
  171SOL    HW2  513   0.190   0.936   2.350 -0.0446  0.5093 -1.9203
  172SOL     OW  514   0.999   0.980   2.824 -0.3582 -0.3612 -0.3367
  172SOL    HW1  515   0.953   1.052   2.886 -0.9624 -0.5590 -1.0029
  172SOL    HW2  516   0.957   0.989   2.731 -0.8913  2.7252 -1.5974
  173SOL     OW  517   0.369   2.587   0.031 -0.8263 -0.0466  0.1161
  173SOL    HW1  518   0.383   2.537  -0.064  1.1859 -1.7289  1.3978
  173SOL    HW2  519   0.365   2.517   0.113  1.0760  0.1488 -0.0071
  174SOL     OW  520   1.467   2.872   1.042  0.2018  0.1899 -0.3773
  174SOL    HW1  521   1.553   2.903   0.990  0.7775 -0.4735  0.1823
  174SOL    HW2  522   1.415   2.798   0.995 -0.3909  0.3768 -0.9573
  175SOL     OW  523   0.486   3.039   1.721  0.3593 -0.1066  0.4558
  175SOL    HW1  524   0.525   3.027   1.816 -0.2073 -0.8669 -1.3987
  175SOL    HW2  525   0.444   3.132   1.710  1.0513 -1.6969 -0.6307
  176SOL     OW  526   2.628   0.467   3.074 -0.4407  0.2644  0.1618
  176SOL    HW1  527   2.612   0.555   3.127 -3.6142 -0.6871 -1.6642
  176SOL    HW2  528   2.691   0.406   3.127 -1.4114 -0.8430  0.4255
  177SOL     OW  529   0.388   0.250   0.854 -0.4961 -0.8644 -0.8644
  177SOL    HW1  530   0.339   0.161   0.856 -1.4187  2.6139 -0.0334
  177SOL    HW2  531   0.489   0.246   0.830  0.8539  2.3620  1.2586
  178SOL     OW  532   3.096   2.730   2.675 -0.3507 -0.3543  0.2314
  178SOL    HW1  533   3.082   2.626   2.689  0.4120 -3.2117 -1.0053
  178SOL    HW2  534   3.168   2.778   2.735  1.4479  0.9281 -2.1041
  179SOL     OW  535   2.973   1.609   1.211 -0.1089 -0.2243  0.4369
  179SOL    HW1  536   3.022   1.590   1.124 -1.6356 -0.5343 -0.2579
  179SOL    HW2  537   3.010   1.548   1.290 -0.2931  0.3609  3.1200
  180SOL     OW  538   0.269   1.418   1.742  0.1932  0.3384  0.0456
  180SOL    HW1  539   0.333   1.352   1.796  1.8071 -0.6216  0.9425
  180SOL    HW2  540   0.214   1.475   1.805  1.6938 -0.1447  0.9686
  181SOL     OW  541   2.988   1.783   2.481  0.2744 -0.4641 -0.4306
  181SOL    HW1  542   3.009   1.797   2.379 -0.3301 -1.5290 -1.3148
  181SOL    HW2  543   2.885   1.793   2.508  0.7823 -0.8933  4.9197
  182SOL     OW  544   2.227   1.374   1.188 -0.6593  0.2556  0.0156
  182SOL    HW1  545   2.219   1.277   1.154 -0.5658 -1.1100 -0.4148
  182SOL    HW2  546   2.321   1.413   1.159  0.0497 -2.1991 -1.6661
  183SOL     OW  547   1.454   2.230   2.413  0.5952 -0.4245  0.1598
  183SOL    HW1  548   1.386   2.174   2.464 -0.9178  1.1358 -1.8609
  183SOL    HW2  549   1.532   2.174   2.378 -0.8263  1.0795  0.7046
  184SOL     OW  550   2.177   0.794   0.736  0.0216 -0.0286 -0.4635
  184SOL    HW1  551   2.077   0.812   0.713  1.8109 -0.4280  0.3330
  184SOL    HW2  552   2.195   0.690   0.745 -4.2914  2.1966  1.8953
  185SOL     OW  553   1.583   2.788   2.000  0.2024 -0.1620  0.2361
  185SOL    HW1  554   1.511   2.864   1.999 -0.5927 -1.0370 -1.3970
  185SOL    HW2  555   1.614   2.766   2.096 -0.7117 -0.8376 -0.9738
  186SOL     OW  556   0.061   2.198   1.781 -0.4273 -0.0763  0.1504
  186SOL    HW1  557   0.054   2.262   1.863 -2.3140 -2.3454 -0.1868
  186SOL    HW2  558   0.152   2.142   1.766 -2.2036 -1.4762 -0.9533
  187SOL     OW  559   1.320   0.701   1.642 -0.2209  0.1011 -0.1743
  187SOL    HW1  560   1.405   0.755   1.638 -0.0732  1.3364 -1.7486
  187SOL    HW2  561   1.348   0.602   1.646 -0.8683  1.7226 -2.6507
  188SOL     OW  562   2.695   2.675   1.577 -0.4323  0.2971  0.3242
  188SOL    HW1  563   2.700   2.764   1.627  0.7646  2.1608  2.6672
  188SOL    HW2  564   2.689   2.689   1.473  0.1394  2.0668 -0.4301
  189SOL     OW  565   0.936   1.215   1.338 -0.3630  0.1970  0.1987
  189SOL    HW1  566   0.957   1.273   1.424 -0.4681 -0.6922  0.6543
  189SOL    HW2  567   0.889   1.261   1.258 -1.6690 -0.4944  0.7316
  190SOL     OW  568   1.455   1.894   1.515 -0.4414 -0.5326  0.2630
  190SOL    HW1  569   1.412   1.803   1.488 -1.1874 -0.9167  1.7021
  190SOL    HW2  570   1.447   1.912   1.617 -0.1253  2.9302  1.7248
  191SOL     OW  571   0.851   0.786   1.503  0.0951 -0.1085 -0.1154
  191SOL    HW1  572   0.906   0.727   1.576 -0.2836 -0.3228  0.8896
  191SOL    HW2  573   0.912   0.855   1.449  2.8211  1.5547  0.0414
  192SOL     OW  574   1.823   2.436   1.108  0.4029 -0.0780  0.3121
  192SOL    HW1  575   1.723   2.419   1.086 -2.5350  2.3560  1.2810
  192SOL    HW2  576   1.878   2.358   1.091  1.1135 -0.0359  3.5442
  193SOL     OW  577   0.536   0.568   0.418 -0.3606 -0.6725 -0.3195
  193SOL    HW1  578   0.472   0.491   0.393 -1.4111 -0.9414 -1.1937
  193SOL    HW2  579   0.604   0.593   0.341  0.2761 -1.1319 -3.6253
  194SOL     OW  580   0.388   0.826   1.289 -0.0072  0.2329 -0.4760
  194SOL    HW1  581   0.300   0.780   1.258  0.9711  0.1921  2.1411
  194SOL    HW2  582   0.463   0.837   1.212 -0.9353  0.6162 -3.5677
  195SOL     OW  583   1.039   2.947   0.523  0.1945 -0.1847  0.5029
  195SOL    HW1  584   1.011   2.852   0.489 -0.0979 -0.1526 -1.1388
  195SOL    HW2  585   1.139   2.965   0.496  0.5388  0.9066 -0.9359
  196SOL     OW  586   0.239   1.410   1.311 -0.1872 -0.0586 -0.1460
  196SOL    HW1  587   0.290   1.481   1.370  0.4237  0.2462 -1.7770
  196SOL    HW2  588   0.211   1.327   1.368  1.1519 -0.4199 -0.1769
  197SOL     OW  589   0.837   1.950   0.276 -0.8278 -0.7502 -0.6125
  197SOL    HW1  590   0.846   1.902   0.370  1.3152 -0.5091  2.0250
  197SOL    HW2  591   0.867   1.890   0.198 -0.2690  0.2613  1.1758
  198SOL     OW  592   0.268   1.206   0.346  0.1623 -0.1728 -0.0399
  198SOL    HW1  593   0.173   1.187   0.303 -1.5259  1.8501 -2.3281
  198SOL    HW2  594   0.275   1.301   0.385  0.9338  0.4775  1.7035
  199SOL     OW  595   2.227   0.431   2.603  0.1253 -0.5351  0.7443
  199SOL    HW1  596   2.170   0.417   2.684  1.3656 -0.6393 -0.2745
  199SOL    HW2  597   2.323   0.398   2.623  0.2294  0.3487  0.2130
  200SOL     OW  598   3.043   2.885   0.798  0.8195  0.1600 -0.1481
  200SOL    HW1  599   3.051   2.972   0.852  0.7863  0.1568  0.2027
  200SOL    HW2  600   3.011   2.900   0.699 -2.1489 -0.8642  0.8417
  201SOL     OW  601   0.909   0.699   0.525  0.2056  0.0464  0.5853
  201SOL    HW1  602   0.885   0.782   0.591 -2.2916  0.5023  2.7638
  201SOL    HW2  603   0.840   0.621   0.539  0.3542 -1.8024  0.4616
  202SOL     OW  604   0.464   1.225   1.886 -0.5652  0.4966  1.0089
  202SOL    HW1  605   0.553   1.184   1.849 -1.5760  2.1578 -1.3790
  202SOL    HW2  606   0.476   1.279   1.970 -0.0511 -1.1418  0.4186
  203SOL     OW  607   0.685   0.181   1.569 -0.1722 -0.1542 -0.2737
  203SOL    HW1  608   0.684   0.112   1.493 -2.5675  0.7890 -0.2446
  203SOL    HW2  609   0.779   0.224   1.578 -1.2744 -1.8136 -0.7932
  204SOL     OW  610   2.094   1.826   2.933 -0.2826 -0.3100  0.1399
  204SOL    HW1  611   2.061   1.728   2.940  0.0908  2.3630 -0.2340
  204SOL    HW2  612   2.187   1.834   2.891 -3.9692  2.2967  0.6319
  205SOL     OW  613   1.837   1.903   3.050 -0.2676 -0.1018 -0.3269
  205SOL    HW1  614   1.935   1.873   3.022  1.1433  0.4532 -0.9092
  205SOL    HW2  615   1.798   1.974   2.983  1.4719  1.1202 -2.9263
  206SOL     OW  616   2.362   2.700   0.285  0.2834 -0.2796  0.0287
  206SOL    HW1  617   2.347   2.665   0.378 -0.7690 -1.6091 -1.1325
  206SOL    HW2  618   2.455   2.686   0.243  1.9792  3.7946 -1.2295
  207SOL     OW  619   0.687   1.747   2.939  0.0891  0.0771  0.3804
  207SOL    HW1  620   0.769   1.713   2.889 -0.1985  0.4957 -1.0344
  207SOL    HW2  621   0.615   1.675   2.968 -1.3711  0.4897 -1.0195
  208SOL     OW  622   0.991   1.555   1.268  0.1382  0.1926 -0.5760
  208SOL    HW1  623   0.927   1.585   1.191 -0.7858 -0.6871 -0.1558
  208SOL    HW2  624   0.941   1.549   1.358 -0.1371  0.5370  0.7355
  209SOL     OW  625   0.237   0.983   3.050 -0.3322  0.1883  0.0928
  209SOL    HW1  626   0.279   0.916   2.982 -1.3932  1.3575  3.0766
  209SOL    HW2  627   0.176   0.927   3.114 -2.3998  0.9248  0.7125
  210SOL     OW  628   1.668   0.562   1.301 -0.2285  0.2679 -0.2052
  210SOL    HW1  629   1.598   0.601   1.238 -0.1923 -0.1305  3.6852
  210SOL    HW2  630   1.767   0.592   1.282  0.9097  0.2018 -1.1584
  211SOL     OW  631   2.198   1.027   1.569 -0.0574 -0.0734  0.0525
  211SOL    HW1  632   2.226   1.006   1.671  2.8583  2.7459  0.9675
  211SOL    HW2  633   2.269   1.085   1.528 -0.3335  2.0351  2.7487
  212SOL     OW  634   0.035   1.040   1.496  0.3439 -0.1439  0.1051
  212SOL    HW1  635   0.097   1.122   1.503 -1.2623 -1.0287 -1.4445
  212SOL    HW2  636   0.059   0.960   1.557  0.2228  1.6907 -0.1220
  213SOL     OW  637   2.833   0.045   0.374  0.0992 -0.3682  0.0665
  213SOL    HW1  638   2.921   0.040   0.321  1.6755  0.7963  1.1584
  213SOL    HW2  639   2.755  -0.001   0.330 -1.8928 -1.4821 -0.4188
  214SOL     OW  640   2.161   0.346   2.354 -0.1393 -0.1546 -0.0709
  214SOL    HW1  641   2.183   0.401   2.434 -0.4278  0.3781 -1.6230
  214SOL    HW2  642   2.155   0.241   2.373 -2.4507 -2.7546  0.0595
  215SOL     OW  643   1.660   2.262   2.080  0.2835  0.4703  0.2785
  215SOL    HW1  644   1.757   2.295   2.047  1.1177 -1.0184  0.3014
  215SOL    HW2  645   1.587   2.337   2.072 -0.8774 -0.0990  1.1358
  216SOL     OW  646   2.248   0.518   0.758  0.7620 -0.2752  0.5511
  216SOL    HW1  647   2.240   0.476   0.666  1.3872 -1.4888  1.6525
  216SOL    HW2  648   2.296   0.450   0.824  2.3658  2.4956 -2.5058
  217SOL     OW  649   0.943   2.746   2.564 -0.4868  0.2831 -0.1524
  217SOL    HW1  650   0.968   2.668   2.623 -0.6430 -1.9653  1.8368
  217SOL    HW2  651   0.867   2.723   2.496 -0.1547  2.2308  1.1887
  218SOL     OW  652   1.877   1.412   0.023  0.3230 -0.3884  0.1299
  218SOL    HW1  653   1.776   1.408  -0.002 -0.2927 -0.6498 -1.1580
  218SOL    HW2  654   1.893   1.345   0.099 -0.7628 -0.4321 -1.0428
  219SOL     OW  655   2.442   1.277   2.506 -0.2525 -0.5881 -0.4231
  219SOL    HW1  656   2.498   1.233   2.431 -2.4262 -1.6553 -1.7699
  219SOL    HW2  657   2.427   1.209   2.586  0.7833  1.0495  2.0628
  220SOL     OW  658   1.393   1.014   1.331  0.6294  0.0868 -0.1432
  220SOL    HW1  659   1.493   0.989   1.349 -0.8926 -2.2499  0.0517
  220SOL    HW2  660   1.371   1.044   1.233  0.0306  1.7506  1.6167
  221SOL     OW  661   1.352   0.927   2.200 -0.4592  0.0068 -0.0060
  221SOL    HW1  662   1.330   0.955   2.099  1.5675 -0.8530  0.1562
  221SOL    HW2  663   1.426   0.984   2.235 -1.3004  0.5163  0.7468
  222SOL     OW  664   1.165   0.062   1.210 -0.2724 -0.3722 -0.3799
  222SOL    HW1  665   1.210   0.098   1.298  0.2829 -2.7847  0.8101
  222SOL    HW2  666   1.125   0.135   1.150  0.0241 -0.1330  0.5951
  223SOL     OW  667   2.730   0.941   2.135 -0.1762  0.4902 -0.0576
  223SOL    HW1  668   2.705   1.034   2.096  2.5012  0.5181  2.0778
  223SOL    HW2  669   2.817   0.942   2.193  0.3581 -1.9847 -1.1541
  224SOL     OW  670   1.516   0.988   2.815 -0.5890 -0.1171  0.8934
  224SOL    HW1  671   1.559   0.934   2.731 -1.4416 -1.2385 -1.8844
  224SOL    HW2  672   1.525   1.088   2.806  1.0370 -0.8234 -1.9225
  225SOL     OW  673   2.958   2.681   2.921  0.0875 -0.0684 -0.4889
  225SOL    HW1  674   2.890   2.686   2.839 -0.8584 -2.2894  2.7678
  225SOL    HW2  675   3.055   2.703   2.895  0.1780  1.3946 -0.0658
  226SOL     OW  676   2.424   1.569   2.771 -0.1735  0.7814  0.4680
  226SOL    HW1  677   2.498   1.544   2.703 -0.2998  0.5050 -1.4963
  226SOL    HW2  678   2.424   1.517   2.862 -1.1723 -2.4635  0.5130
  227SOL     OW  679   0.888   0.265   3.061  0.6063 -0.2574 -0.3778
  227SOL    HW1  680   0.913   0.363   3.054  2.3674 -1.4933 -2.7904
  227SOL    HW2  681   0.827   0.231   2.990  1.0554 -1.2841  0.1140
  228SOL     OW  682   2.434   0.664   2.861 -0.3888 -0.4326  0.6006
  228SOL    HW1  683   2.451   0.732   2.782  1.1623  2.5786  0.1846
  228SOL    HW2  684   2.523   0.620   2.892  1.1011  2.8401 -0.9016
  229SOL     OW  685   0.543   0.600   1.828  1.1237  0.8326  0.1898
  229SOL    HW1  686   0.590   0.618   1.916  2.3144  1.1104  1.9714
  229SOL    HW2  687   0.585   0.529   1.763  0.1176  0.5529 -0.0008
  230SOL     OW  688   1.879   1.227   1.944  0.5706  0.2937 -0.3321
  230SOL    HW1  689   1.963   1.275   1.911 -0.4541  1.5010  1.5397
  230SOL    HW2  690   1.835   1.268   2.030 -2.1516  0.7068  0.1547
  231SOL     OW  691   0.621   1.093   3.071  0.1462 -0.0799 -0.0868
  231SOL    HW1  692   0.718   1.130   3.090  1.9996  2.0506 -0.4210
  231SOL    HW2  693   0.551   1.159   3.104  4.1475 -2.0418 -1.0640
  232SOL     OW  694   2.398   3.010   2.800  0.4270 -0.3899  0.0661
  232SOL    HW1  695   2.462   2.930   2.825 -1.2111 -2.0434  0.8573
  232SOL    HW2  696   2.449   3.084   2.753  1.0310 -1.2385  2.2716
  233SOL     OW  697   1.798   1.168   1.092  0.0892  0.1157  0.3447
  233SOL    HW1  698   1.874   1.237   1.064  2.5802 -1.9216 -1.0696
  233SOL    HW2  699   1.832   1.083   1.143  0.4155 -0.0468 -0.5290
  234SOL     OW  700   1.638   2.513   1.833  0.4093 -0.2851 -0.0479
  234SOL    HW1  701   1.620   2.574   1.915 -0.0488 -0.1806 -1.8685
  234SOL    HW2  702   1.580   2.429   1.811  0.1243 -2.6477 -3.5044
  235SOL     OW  703   0.012   2.984   2.834  0.5004  0.7547  0.5188
  235SOL    HW1  704  -0.043   2.979   2.747 -0.6448 -0.7864  0.1265
  235SOL    HW2  705  -0.040   3.026   2.913 -0.7122  0.1036  0.8571
  236SOL     OW  706   2.914   0.694   0.073 -0.4166  0.0823 -0.0412
  236SOL    HW1  707   2.972   0.717   0.159  0.7758  0.2706 -0.2070
  236SOL    HW2  708   2.959   0.611   0.022  0.6804  1.9185 -0.5582
  237SOL     OW  709   1.519   1.685   0.883  0.9659 -0.0142  0.1101
  237SOL    HW1  710   1.608   1.639   0.876 -0.4878  1.3601 -1.3619
  237SOL    HW2  711   1.513   1.759   0.959  0.4405  3.7152  0.0422
  238SOL     OW  712   1.886   1.188   0.758  0.1924 -0.6780 -0.2603
  238SOL    HW1  713   1.947   1.201   0.848 -0.6909 -0.0250  0.0544
  238SOL    HW2  714   1.786   1.209   0.779  0.5278 -1.0762  0.6456
  239SOL     OW  715   1.993   0.240   2.780 -0.3542  0.5440  0.0727
  239SOL    HW1  716   2.033   0.203   2.872  0.2726  1.1880  3.2752
  239SOL    HW2  717   1.931   0.320   2.784 -1.5403 -0.9035 -0.2140
  240SOL     OW  718   0.945   0.699   0.239  0.0444 -0.2548  0.0103
  240SOL    HW1  719   1.020   0.641   0.188  0.3105  1.3404 -1.9976
  240SOL    HW2  720   0.945   0.679   0.343  0.1828  1.7579  0.3405
  241SOL     OW  721   0.577   0.117   0.315  0.3902 -0.7948  0.1910
  241SOL    HW1  722   0.630   0.204   0.279 -1.9802  2.0076  1.2443
  241SOL    HW2  723   0.580   0.039   0.246 -0.2499 -0.9267 -1.9672
  242SOL     OW  724   0.610   2.587   1.182 -0.7151  0.8491  0.6636
  242SOL    HW1  725   0.590   2.569   1.279  0.5265  2.2295 -2.6023
  242SOL    HW2  726   0.595   2.690   1.162 -2.4147 -2.6874 -1.8062
  243SOL     OW  727   1.076   0.637   2.406  0.1032  0.1040  0.1474
  243SOL    HW1  728   0.989   0.619   2.364  1.6969  2.2323  4.5028
  243SOL    HW2  729   1.097   0.567   2.481 -0.8845 -1.3365  1.5793
  244SOL     OW  730   2.689   1.965   2.363  0.3807  0.1299  0.3895
  244SOL    HW1  731   2.732   1.933   2.271  2.4021 -0.3880 -1.9640
  244SOL    HW2  732   2.620   1.894   2.399 -0.1652 -0.0276  1.5514
  245SOL     OW  733   2.103   1.021   2.224 -0.5178 -0.1104 -0.0771
  245SOL    HW1  734   2.206   1.016   2.241  0.8570  0.8571 -0.5187
  245SOL    HW2  735   2.057   1.094   2.284  0.4548  1.0386 -1.3812
  246SOL     OW  736   0.307   2.838   1.793 -0.1876  0.3578 -0.2596
  246SOL    HW1  737   0.224   2.824   1.728 -3.2007 -1.5807  0.0161
  246SOL    HW2  738   0.378   2.896   1.746 -0.7301 -2.8213 -0.1502
  247SOL     OW  739   2.238   0.573   3.015  0.1902  0.0667  0.2086
  247SOL    HW1  740   2.306   0.592   2.937 -2.8787 -2.3548 -0.0141
  247SOL    HW2  741   2.170   0.649   3.029  0.4121 -2.2066  1.2648
  248SOL     OW  742   2.204   1.814   1.605  0.3454  0.2575  0.6621
  248SOL    HW1  743   2.265   1.778   1.681 -2.1465  1.8335 -2.0648
  248SOL    HW2  744   2.107   1.783   1.617 -2.8613  2.0518 -0.0949
  249SOL     OW  745   1.902   1.922   1.813  0.1214  0.1958  0.9211
  249SOL    HW1  746   1.901   1.836   1.751  1.4718  0.6517  0.0906
  249SOL    HW2  747   1.992   1.937   1.865 -0.1878  0.8528  2.2743
  250SOL     OW  748   0.944   0.721   1.870  0.0888 -0.5755  0.3254
  250SOL    HW1  749   1.013   0.683   1.938 -0.0154  0.9596  0.3194
  250SOL    HW2  750   0.918   0.654   1.789  0.8380  1.1208 -1.9230
  251SOL     OW  751   3.029   1.518   2.580  0.4504  0.2410  0.9619
  251SOL    HW1  752   3.028   1.617   2.543  1.0274  0.7696  3.1390
  251SOL    HW2  753   2.954   1.455   2.545  0.3173  2.0193  0.5782
  252SOL     OW  754   1.566   0.842   1.584 -0.2857 -0.2705  0.2958
  252SOL    HW1  755   1.632   0.867   1.509 -1.4812 -1.8065  0.0399
  252SOL    HW2  756   1.584   0.895   1.672 -0.5859 -0.2380  0.9518
  253SOL     OW  757   0.943   1.511   0.405  0.4150 -0.6837  0.0384
  253SOL    HW1  758   0.937   1.435   0.336 -0.7460  3.0798  1.1796
  253SOL    HW2  759   0.857   1.508   0.463  1.8327 -1.2497  0.0227
  254SOL     OW  760   2.057   2.176   1.642 -0.5889 -0.0238  0.1802
  254SOL    HW1  761   2.003   2.096   1.605 -0.0869 -0.3342  0.6922
  254SOL    HW2  762   1.995   2.247   1.690  0.2482 -0.3199 -2.4154
  255SOL     OW  763   0.113   1.188   2.919 -0.3341  0.1075  0.1438
  255SOL    HW1  764   0.157   1.279   2.917 -2.0993 -0.5990 -2.2218
  255SOL    HW2  765   0.184   1.116   2.952  1.7342 -1.5191 -0.5618
  256SOL     OW  766   2.807   1.416   1.762 -0.4085 -0.5104 -0.0544
  256SOL    HW1  767   2.727   1.481   1.731 -0.4261  0.7731  0.9025
  256SOL    HW2  768   2.799   1.319   1.732  0.2311 -1.2987 -0.5043
  257SOL     OW  769   0.873   0.240   1.875 -0.4169  0.5009 -0.3015
  257SOL    HW1  770   0.902   0.301   1.798 -0.6634 -1.1806  0.7883
  257SOL    HW2  771   0.872   0.136   1.854 -2.6118 -5.3638 -0.4662
  258SOL     OW  772   2.963   1.172   0.519 -0.2971  0.1521 -0.0542
  258SOL    HW1  773   2.876   1.163   0.570  3.8545 -0.1004  1.2355
  258SOL    HW2  774   3.045   1.187   0.576  0.4995 -1.9310 -2.1135
  259SOL     OW  775   0.476   2.938   3.013  0.3030  0.3147  0.0603
  259SOL    HW1  776   0.394   2.875   3.044  0.7189 -1.9260 -3.5798
  259SOL    HW2  777   0.508   2.907   2.921 -0.0036  0.8843 -0.5714
  260SOL     OW  778   2.746   0.756   2.763  0.4475  0.0458  0.9227
  260SOL    HW1  779   2.654   0.799   2.734  0.0174  3.6031  1.4796
  260SOL    HW2  780   2.746   0.651   2.775 -2.9691 -2.9976 -2.9730
  261SOL     OW  781   2.691   1.267   1.317 -0.0503 -0.3398  0.3137
  261SOL    HW1  782   2.627   1.222   1.247 -0.8435  2.6054 -3.4153
  261SOL    HW2  783   2.775   1.209   1.350 -0.5020 -3.5900 -3.2634
  262SOL     OW  784   1.370   2.970   2.057  0.4934  0.1759  0.1700
  262SOL    HW1  785   1.408   3.058   2.009  2.1384  0.8942  2.3642
  262SOL    HW2  786   1.280   2.932   2.025  1.9334  1.5648 -0.9325
  263SOL     OW  787   0.815   0.634   2.298 -0.0065 -0.4690  0.0188
  263SOL    HW1  788   0.757   0.556   2.259  2.3424  0.9742  0.6903
  263SOL    HW2  789   0.810   0.720   2.238 -0.4470 -0.4306 -1.7913
  264SOL     OW  790   2.276   0.815   0.409 -0.1865 -0.0750  0.3676
  264SOL    HW1  791   2.290   0.742   0.336  0.0801 -1.4822  0.5083
  264SOL    HW2  792   2.368   0.853   0.434  0.1932 -1.4546 -1.9709
  265SOL     OW  793   0.917   2.394   2.608 -0.3721 -0.4500  0.0799
  265SOL    HW1  794   0.954   2.455   2.682  0.5108 -0.2817  0.0134
  265SOL    HW2  795   0.844   2.324   2.644 -1.5037  1.1315  3.0719
  266SOL     OW  796   1.290   1.789   3.055 -0.3171  0.3408 -0.0390
  266SOL    HW1  797   1.293   1.847   3.142 -2.0722 -2.5853 -1.4658
  266SOL    HW2  798   1.381   1.749   3.039 -1.1909  0.7669  3.0960
  267SOL     OW  799   1.088   0.018   2.332  0.3020 -0.5348 -0.0115
  267SOL    HW1  800   1.004  -0.046   2.326  2.7132  0.1663 -2.0844
  267SOL    HW2  801   1.093   0.055   2.236 -1.6042 -0.4909  0.8301
  268SOL     OW  802   0.857   1.275   1.060  0.3384  0.2835  0.0510
  268SOL    HW1  803   0.804   1.336   1.128 -0.3104 -1.6788 -0.7880
  268SOL    HW2  804   0.932   1.327   1.014  0.8209  2.4277  1.6015
  269SOL     OW  805   2.377   2.546   1.585 -0.0787 -0.2107  0.2087
  269SOL    HW1  806   2.461   2.529   1.532  0.4850 -0.2006  1.4681
  269SOL    HW2  807   2.385   2.548   1.686  0.5578  3.0488 -0.2620
  270SOL     OW  808   0.158   2.988   1.981 -0.5806  0.0722  0.3268
  270SOL    HW1  809   0.215   2.937   1.909  3.3542 -2.5370  1.4816
  270SOL    HW2  810   0.109   2.918   2.041  0.2961  1.3526 -0.2330
  271SOL     OW  811   0.459   1.381   1.120 -0.0840 -0.1359 -0.2568
  271SOL    HW1  812   0.471   1.358   1.015 -0.6116 -0.4664 -2.0693
  271SOL    HW2  813   0.383   1.324   1.162  0.0940  1.1166 -0.3907
  272SOL     OW  814   1.884   3.091   1.930 -0.4391 -0.3695  0.0234
  272SOL    HW1  815   1.855   3.011   1.870  1.8353 -2.3960  0.2797
  272SOL    HW2  816   1.877   3.183   1.884 -0.9831  0.6264  2.0610
  273SOL     OW  817   1.469   1.466   2.832  0.2925 -0.5584  0.4978
  273SOL    HW1  818   1.364   1.465   2.819  0.1773  0.9987  0.7756
  273SOL    HW2  819   1.494   1.470   2.932  0.1058  1.2666  0.2834
  274SOL     OW  820   1.108   0.542   2.058  0.5102  0.8852  0.5188
  274SOL    HW1  821   1.074   0.449   2.086  0.6961 -0.2524 -0.1387
  274SOL    HW2  822   1.182   0.571   2.118  0.1700  1.0221 -2.1535
  275SOL     OW  823   0.652   2.108   1.924  0.3059 -0.5559  0.1219
  275SOL    HW1  824   0.624   2.200   1.963  0.5934 -0.7191  1.9798
  275SOL    HW2  825   0.576   2.062   1.876 -0.2476 -0.5526  2.6897
  276SOL     OW  826   2.222   0.937   2.855  0.5250  0.2515  0.4668
  276SOL    HW1  827   2.143   0.946   2.792  0.9264 -0.2206  2.6273
  276SOL    HW2  828   2.275   0.850   2.847  0.0985 -0.0378  0.0116
  277SOL     OW  829  -0.004   0.748   0.266  0.3058 -0.3320  0.1080
  277SOL    HW1  830   0.084   0.785   0.224  1.6872 -0.9069 -0.5270
  277SOL    HW2  831   0.013   0.681   0.345  0.1028 -0.6133  0.4014
  278SOL     OW  832   0.260   0.228   3.026  0.6164 -0.3967 -0.1872
  278SOL    HW1  833   0.354   0.188   3.003  0.8104 -2.4414 -0.1897
  278SOL    HW2  834   0.260   0.334   3.042  2.4830  0.8569 -0.5047
  279SOL     OW  835   0.280   3.073   0.918 -0.0996 -0.6176 -0.2202
  279SOL    HW1  836   0.323   3.060   1.013  0.8092 -0.2965  0.9897
  279SOL    HW2  837   0.286   2.990   0.862 -0.8629  2.9261 -1.3360
  280SOL     OW  838   1.594   2.913   2.425 -0.7668 -0.1868 -0.2076
  280SOL    HW1  839   1.686   2.945   2.454 -0.5082 -0.8337 -0.2703
  280SOL    HW2  840   1.525   2.990   2.391 -0.8445 -0.3146 -2.0300
  281SOL     OW  841   0.553   0.940   2.315  0.6702 -0.1971  0.6684
  281SOL    HW1  842   0.535   0.863   2.249  2.7687  0.9330  1.5315
  281SOL    HW2  843   0.581   0.902   2.404 -0.2240  3.1169 -0.7256
  282SOL     OW  844   1.788   2.461   0.548 -0.0747  0.3032  0.3562
  282SOL    HW1  845   1.759   2.388   0.477 -0.3031 -4.0444 -0.7193
  282SOL    HW2  846   1.735   2.546   0.533 -0.0309  0.5138 -2.5257
  283SOL     OW  847   1.157   0.918   0.765  0.4888  0.4002  0.9280
  283SOL    HW1  848   1.180   0.868   0.851 -0.1982  1.1483  0.4183
  283SOL    HW2  849   1.137   1.017   0.781  1.8458  0.0786  0.7168
  284SOL     OW  850   2.242   2.812   2.460 -0.0183  0.4420  0.2508
  284SOL    HW1  851   2.335   2.852   2.437  0.3513  2.6958 -0.7753
  284SOL    HW2  852   2.221   2.836   2.556 -0.1190 -2.5546  0.1068
  285SOL     OW  853   1.318   3.043   2.623 -0.0445 -0.2668  0.0494
  285SOL    HW1  854   1.369   3.040   2.533 -1.7524 -1.8896 -0.2557
  285SOL    HW2  855   1.286   3.139   2.644 -1.1656  1.4554  0.6043
  286SOL     OW  856   0.299   0.422   0.661 -0.1828 -1.1692  0.2720
  286SOL    HW1  857   0.339   0.347   0.723  0.6365  1.9783 -1.8572
  286SOL    HW2  858   0.337   0.400   0.565  2.4715 -1.3140 -1.5152
  287SOL     OW  859   0.089   1.297   2.567  0.0960 -1.0048 -0.7115
  287SOL    HW1  860   0.051   1.207   2.608  0.5051  0.1595 -2.0997
  287SOL    HW2  861   0.027   1.381   2.566 -2.4711 -1.0919  1.0807
  288SOL     OW  862   1.533   2.722   1.680 -0.0056 -0.6472 -0.0837
  288SOL    HW1  863   1.573   2.658   1.748  1.0152 -0.8970 -0.8683
  288SOL    HW2  864   1.555   2.697   1.582 -0.5227 -0.9593  1.6497
  289SOL     OW  865   0.641   2.788   0.799  0.0839  0.2103 -0.2444
  289SOL    HW1  866   0.697   2.845   0.730  2.8478  3.1160  2.8755
  289SOL    HW2  867   0.618   2.834   0.884  0.1193 -0.1178 -1.8490
  290SOL     OW  868   2.828   1.145   1.709  0.3750  0.1786 -0.2465
  290SOL    HW1  869   2.766   1.065   1.687 -0.2718  4.5105  0.4377
  290SOL    HW2  870   2.915   1.122   1.764  2.0492  0.9844 -0.9177
  291SOL     OW  871   1.932   3.067   0.042 -0.6041 -0.0135  0.6519
  291SOL    HW1  872   1.967   3.109   0.132 -1.6725  3.2711 -0.4589
  291SOL    HW2  873   1.992   3.112  -0.029  1.5220 -0.3922  2.5549
  292SOL     OW  874   2.988   1.187   3.067 -0.1656  0.7691  0.3804
  292SOL    HW1  875   2.933   1.273   3.037 -0.5597  3.1854  1.1706
  292SOL    HW2  876   3.076   1.178   3.006 -1.9536  0.5175  1.1739
  293SOL     OW  877   0.578   2.073   0.286  0.2416 -0.0048  0.4408
  293SOL    HW1  878   0.554   2.151   0.350 -1.0306 -1.7010 -2.0872
  293SOL    HW2  879   0.679   2.056   0.291 -1.0565  1.2065  2.0742
  294SOL     OW  880   1.874   2.348   1.767 -0.0227  0.1344  0.6546
  294SOL    HW1  881   1.921   2.338   1.858  0.3704 -1.1060  2.0395
  294SOL    HW2  882   1.790   2.411   1.771 -0.9594  0.3160  1.1986
  295SOL     OW  883   0.935   1.069   0.461  0.2087 -0.4055  0.2056
  295SOL    HW1  884   1.039   1.082   0.440 -0.8006  1.9784  1.8284
  295SOL    HW2  885   0.928   1.029   0.555  0.2056 -0.5098 -2.0868
  296SOL     OW  886   1.099   2.166   2.753 -0.0824  0.1697  0.2931
  296SOL    HW1  887   1.020   2.232   2.736  1.3615  0.7895 -1.2268
  296SOL    HW2  888   1.119   2.106   2.672  3.7109 -0.7592  0.2199
  297SOL     OW  889   1.274   0.537   1.175  0.0530  0.0336  0.4428
  297SOL    HW1  890   1.304   0.496   1.264  1.0791  1.3201  0.6096
  297SOL    HW2  891   1.339   0.600   1.129  1.0086 -0.0720 -1.0569
  298SOL     OW  892   0.470   1.319   2.933  0.1667 -0.4255 -0.3627
  298SOL    HW1  893   0.409   1.284   3.006  1.5549 -1.3577 -0.3700
  298SOL    HW2  894   0.526   1.244   2.887  0.0923  0.5234  1.1838
  299SOL     OW  895   0.441   0.184   1.250 -0.1689  0.4065  0.1623
  299SOL    HW1  896   0.387   0.265   1.213 -2.2106 -3.5156  0.9377
  299SOL    HW2  897   0.438   0.184   1.352 -0.3225 -0.3625 -0.0778
  300SOL     OW  898   1.364   1.819   2.583  0.4066 -0.2261 -0.0453
  300SOL    HW1  899   1.346   1.735   2.533  0.1753  3.3738  0.1834
  300SOL    HW2  900   1.422   1.807   2.668 -1.0828 -3.3662 -1.0594
  301SOL     OW  901   0.400   0.312   0.388 -0.7800 -0.4104 -0.3143
  301SOL    HW1  902   0.302   0.278   0.364 -2.0891 -1.1446 -2.1280
  301SOL    HW2  903   0.472   0.245   0.355 -1.1722 -0.9996 -0.1381
  302SOL     OW  904   1.254   2.418   2.307 -0.4647 -0.5426 -0.1603
  302SOL    HW1  905   1.157   2.413   2.347 -2.0875 -1.0637  0.9580
  302SOL    HW2  906   1.316   2.343   2.344  0.6344  1.0060  1.2221
  303SOL     OW  907   0.927   2.438   0.809 -0.0725 -0.1812 -0.7214
  303SOL    HW1  908   0.994   2.443   0.732 -0.7010 -1.9270 -0.2044
  303SOL    HW2  909   0.960   2.483   0.898 -3.5798 -0.3496  0.8082
  304SOL     OW  910   0.147   1.925   0.678  0.4928 -0.7269 -0.4117
  304SOL    HW1  911   0.216   1.914   0.599 -0.0961  2.0492  1.6606
  304SOL    HW2  912   0.055   1.953   0.643 -1.0277  1.8424  2.0269
  305SOL     OW  913   1.660   0.862   0.695  0.0780 -0.4667  0.2295
  305SOL    HW1  914   1.628   0.905   0.604  2.3463 -3.0896  0.1579
  305SOL    HW2  915   1.670   0.759   0.689  2.5146  0.9789 -2.5451
  306SOL     OW  916   0.364   1.835   1.956 -0.0695 -0.2418 -0.0139
  306SOL    HW1  917   0.452   1.785   1.936 -0.3825 -0.8459 -2.1966
  306SOL    HW2  918   0.359   1.871   2.056  1.4639  0.6886  1.1743
  307SOL     OW  919   3.009   0.882   2.523 -0.1084 -0.1397  0.6588
  307SOL    HW1  920   3.046   0.923   2.611  3.1728  0.1834  0.2872
  307SOL    HW2  921   2.973   0.786   2.537  0.6059 -1.9429  0.7842
  308SOL     OW  922   1.451   2.707   2.823 -0.3852  0.2730  0.3570
  308SOL    HW1  923   1.423   2.722   2.719  1.6316  0.6117 -0.3825
  308SOL    HW2  924   1.421   2.613   2.859  1.0738 -0.3408 -1.7559
  309SOL     OW  925   1.225   0.175   1.806 -0.3105  0.0576  0.1769
  309SOL    HW1  926   1.297   0.104   1.815 -1.9418 -0.6516  0.1093
  309SOL    HW2  927   1.194   0.191   1.709 -0.2042  0.0998  0.6781
  310SOL     OW  928   1.489   2.485   0.663  0.0695 -0.2332  0.0885
  310SOL    HW1  929   1.459   2.505   0.758  1.0356 -2.0897 -0.7622
  310SOL    HW2  930   1.557   2.559   0.624  1.6448 -0.5869  0.0125
  311SOL     OW  931   1.055   0.959   1.770  0.7419 -0.3567  0.0236
  311SOL    HW1  932   1.019   0.869   1.808  0.1442  0.0859  1.3069
  311SOL    HW2  933   1.128   0.953   1.698  1.2619  2.0109  2.2411
  312SOL     OW  934   1.523   0.617   1.044 -0.2511  0.1684 -0.4590
  312SOL    HW1  935   1.550   0.718   1.037 -1.0776 -0.4909  1.3966
  312SOL    HW2  936   1.481   0.584   0.956  1.3775 -0.8722  0.1023
  313SOL     OW  937   1.624   1.264   0.786  0.2364  0.3090 -0.2694
  313SOL    HW1  938   1.542   1.328   0.808 -0.3317  1.7992  2.4280
  313SOL    HW2  939   1.592   1.181   0.733  1.6815 -0.0321  0.3554
  314SOL     OW  940   2.996   3.073   3.092  0.1179 -0.3567 -0.4266
  314SOL    HW1  941   3.022   3.076   3.195  0.5941 -1.0355 -1.3522
  314SOL    HW2  942   2.913   3.010   3.072 -1.2574 -1.7073 -0.2670
  315SOL     OW  943   1.194   0.209   2.814  0.0425  0.1051  0.1546
  315SOL    HW1  944   1.126   0.201   2.738  0.0577 -0.2575 -0.6628
  315SOL    HW2  945   1.164   0.152   2.895  2.6608  0.2764 -1.2313
  316SOL     OW  946   1.786   2.078   0.888  0.5943  0.0471 -0.5868
  316SOL    HW1  947   1.725   2.083   0.974 -0.3113  0.7449  4.5080
  316SOL    HW2  948   1.805   2.171   0.854 -2.7146  0.4507  1.4071
  317SOL     OW  949   1.166   0.708   2.748 -0.2606  0.3565 -0.4942
  317SOL    HW1  950   1.088   0.734   2.809  1.2741 -0.0197  0.5688
  317SOL    HW2  951   1.145   0.627   2.686  2.2643 -1.2287  0.3752
  318SOL     OW  952   1.399   3.071   2.343 -0.5638 -0.5696 -0.0016
  318SOL    HW1  953   1.403   3.175   2.335  1.0995 -1.3175 -0.0685
  318SOL    HW2  954   1.359   3.032   2.257 -1.9659  4.2812 -0.1250
  319SOL     OW  955   0.639   2.386   3.031 -0.3331 -0.0680 -0.1738
  319SOL    HW1  956   0.628   2.307   3.099  0.5966 -1.0015  2.7662
  319SOL    HW2  957   0.688   2.358   2.945 -1.0080 -1.1716 -0.9759
  320SOL     OW  958   1.689   2.240   0.417  0.1229  0.7527  0.4512
  320SOL    HW1  959   1.777   2.180   0.412 -0.3487 -3.4763 -2.9473
  320SOL    HW2  960   1.602   2.183   0.423 -2.1051  0.1042  2.0177
  321SOL     OW  961   1.650   2.713   0.543  0.0028 -0.1442 -0.2215
  321SOL    HW1  962   1.613   2.739   0.449 -1.5050 -1.0953 -1.9024
  321SOL    HW2  963   1.726   2.777   0.565 -1.7678  0.2253 -0.3913
  322SOL     OW  964   2.561   1.124   2.309 -0.4027 -0.3355  0.0024
  322SOL    HW1  965   2.621   1.073   2.381  0.2680 -2.4547  1.8691
  322SOL    HW2  966   2.511   1.055   2.256 -0.1318  1.4816  1.4720
  323SOL     OW  967   1.146   2.700   0.770  0.3398  0.1020 -0.0184
  323SOL    HW1  968   1.077   2.659   0.700  0.6455 -1.7024 -0.1702
  323SOL    HW2  969   1.110   2.792   0.797 -2.9814 -3.3276 -3.3564
  324SOL     OW  970   0.096   2.565   2.420 -0.6726  0.1332  0.3810
  324SOL    HW1  971   0.070   2.490   2.486 -1.1728  0.5681  0.7270
  324SOL    HW2  972   0.093   2.659   2.466 -4.0172  0.6442 -2.3959
  325SOL     OW  973   1.305   3.043   0.450  0.4328 -0.6171  0.2055
  325SOL    HW1  974   1.267   3.080   0.362  2.6479  0.6130  0.6824
  325SOL    HW2  975   1.337   3.124   0.508  1.8163  2.4645 -2.7069
  326SOL     OW  976   2.464   0.866   0.017 -0.3573  0.0735 -0.0517
  326SOL    HW1  977   2.362   0.879   0.031 -1.9683  1.9080  2.3179
  326SOL    HW2  978   2.496   0.775   0.054  0.1823  1.4229 -1.1393
  327SOL     OW  979   2.866   0.282   0.536 -0.2409 -0.3111 -0.4570
  327SOL    HW1  980   2.869   0.231   0.443  0.0174 -0.7776 -3.7656
  327SOL    HW2  981   2.848   0.214   0.614 -1.3235 -0.1939  0.4475
  328SOL     OW  982   2.608   0.586   0.363  0.4525 -0.2503 -0.2254
  328SOL    HW1  983   2.624   0.634   0.453  0.0123  1.2076 -0.3943
  328SOL    HW2  984   2.528   0.519   0.366  0.7980 -1.4258 -1.2671
  329SOL     OW  985   2.914   3.031   2.241 -0.1405  0.5049  0.0431
  329SOL    HW1  986   3.009   2.984   2.241  1.0744  0.4004  1.1999
  329SOL    HW2  987   2.917   3.133   2.254 -1.0524 -0.8411  1.4472
  330SOL     OW  988   0.531   0.249   1.895 -0.0990  0.8360  0.2641
  330SOL    HW1  989   0.616   0.255   1.843  0.6929  0.2120 -0.3535
  330SOL    HW2  990   0.540   0.210   1.991 -0.3744  0.5986  1.1290
  331SOL     OW  991   3.104   1.881   1.108  0.4709  0.4572  0.0693
  331SOL    HW1  992   3.079   1.957   1.040 -0.5891 -1.1909 -0.6736
  331SOL    HW2  993   3.027   1.854   1.172 -1.2334  3.2281 -1.0442
  332SOL     OW  994   0.369   1.186   0.070 -0.2486 -0.2857  0.8764
  332SOL    HW1  995   0.319   1.109   0.021  0.4212  2.3018  0.0676
  332SOL    HW2  996   0.319   1.209   0.158 -2.3850 -0.4543  1.9386
  333SOL     OW  997   2.915   0.935   0.357 -0.0292 -0.2862  0.1428
  333SOL    HW1  998   2.955   1.013   0.398  0.9658 -0.2104 -1.5758
  333SOL    HW2  999   2.986   0.892   0.295 -0.9288 -1.6000  1.0730
  334SOL     OW 1000   1.726   1.121   1.706  0.0597 -0.0158 -0.2681
  334SOL    HW1 1001   1.806   1.128   1.643 -2.3017 -0.2318  0.3854
  334SOL    HW2 1002   1.756   1.144   1.804 -1.3416 -1.3515 -1.2687
  335SOL     OW 1003   1.931   2.810   2.602  0.2428  0.1015 -0.4493
  335SOL    HW1 1004   1.859   2.782   2.674 -0.4750 -1.7382 -0.5087
  335SOL    HW2 1005   2.019   2.848   2.641  0.2110 -1.6847 -0.0469
  336SOL     OW 1006   0.253   0.068   2.754 -0.2791  0.1129  0.4993
  336SOL    HW1 1007   0.337   0.093   2.807 -0.5383  1.2805 -0.2854
  336SOL    HW2 1008   0.178   0.030   2.810  1.1620  1.2009 -1.6703
  337SOL     OW 1009   0.892   2.864   3.022 -1.0948  0.2905 -0.1210
  337SOL    HW1 1010   0.896   2.789   3.098 -1.6035 -1.6474  4.3331
  337SOL    HW2 1011   0.907   2.950   3.065  1.3991 -2.7531 -0.2544
  338SOL     OW 1012   0.020   0.960   0.725  0.1280  0.4124 -0.5685
  338SOL    HW1 1013  -0.075   0.940   0.765 -0.5287 -0.8351 -0.6508
  338SOL    HW2 1014   0.040   1.062   0.703 -0.3002 -0.0393  1.6340
  339SOL     OW 1015   1.770   1.314   2.181 -0.1022 -0.0412 -0.4850
  339SOL    HW1 1016   1.678   1.326   2.134 -3.3022  0.5033  0.9039
  339SOL    HW2 1017   1.799   1.409   2.210  3.1385  0.3421  1.6772
  340SOL     OW 1018   2.247   0.818   1.068 -0.2027 -0.6630  0.1610
  340SOL    HW1 1019   2.157   0.854   1.111  0.8870 -0.5578 -1.4197
  340SOL    HW2 1020   2.235   0.730   1.019  3.3707  0.1024  1.1353
  341SOL     OW 1021   1.909   2.093   0.372 -0.6033 -0.2474 -0.6202
  341SOL    HW1 1022   1.941   2.116   0.273 -0.5811  0.5217 -2.9667
  341SOL    HW2 1023   1.981   2.047   0.431  0.5460 -2.1847 -1.1461
  342SOL     OW 1024   2.192   2.137   2.740 -0.2079  0.6070  0.4543
  342SOL    HW1 1025   2.254   2.100   2.815  1.9810 -1.1336  1.2835
  342SOL    HW2 1026   2.095   2.090   2.737  0.1264 -2.3131  1.5557
  343SOL     OW 1027   0.377   0.882   2.812  0.2521 -0.4933  0.3356
  343SOL    HW1 1028   0.382   0.936   2.723 -1.6407 -0.1947  1.4383
  343SOL    HW2 1029   0.469   0.859   2.860  0.7715 -0.6614  1.3604
  344SOL     OW 1030   1.943   1.464   0.363  0.3547 -0.2283 -0.1846
  344SOL    HW1 1031   1.959   1.392   0.290  0.3774 -0.2942  3.0236
  344SOL    HW2 1032   1.844   1.469   0.394 -0.6049  0.4459  1.2363
  345SOL     OW 1033   1.354   2.194   2.854  0.4177 -0.0419 -0.0880
  345SOL    HW1 1034   1.260   2.181   2.825  2.8540 -1.0574 -0.0699
  345SOL    HW2 1035   1.429   2.143   2.802 -0.2141 -1.7154  0.2405
  346SOL     OW 1036   2.290   0.848   1.392  0.0891  0.1691 -0.1378
  346SOL    HW1 1037   2.230   0.911   1.449 -2.4096 -0.0771  0.0120
  346SOL    HW2 1038   2.266   0.847   1.292  3.1612  0.0318 -2.7588
  347SOL     OW 1039   0.740   2.788   1.680 -0.0311  0.3658  0.3161
  347SOL    HW1 1040   0.811   2.851   1.633  1.4036  1.5324  0.7991
  347SOL    HW2 1041   0.654   2.792   1.630  0.8005  0.1735  0.6365
  348SOL     OW 1042   0.200   0.651   2.872  0.6685 -0.1805 -0.5074
  348SOL    HW1 1043   0.104   0.673   2.842  1.3781  1.6277 -0.0375
  348SOL    HW2 1044   0.268   0.718   2.831 -0.2521 -2.2510 -2.2639
  349SOL     OW 1045   1.789   0.421   2.822  0.0900 -0.3498 -0.2087
  349SOL    HW1 1046   1.790   0.505   2.759  0.0436 -2.4359 -1.4404
  349SOL    HW2 1047   1.759   0.444   2.921 -0.6117  0.7874  0.6391
  350SOL     OW 1048   1.680   0.384   0.376 -0.0031 -0.1301  0.1999
  350SOL    HW1 1049   1.778   0.379   0.402 -0.0635  3.4124  2.0095
  350SOL    HW2 1050   1.642   0.476   0.374  2.9422 -0.8239  1.7839
  351SOL     OW 1051   0.851   0.836   2.114  0.1675 -0.6652 -0.3638
  351SOL    HW1 1052   0.887   0.935   2.114  1.8522 -0.2598 -0.8902
  351SOL    HW2 1053   0.885   0.780   2.039 -3.1999  2.2194 -0.4099
  352SOL     OW 1054   2.072   1.339   0.600 -0.0065  0.3752 -0.0116
  352SOL    HW1 1055   2.047   1.384   0.511 -2.4346  0.1270 -0.7112
  352SOL    HW2 1056   1.993   1.305   0.663  0.1680  2.4340  1.3978
  353SOL     OW 1057   2.204   2.709   1.114 -0.6358  0.4649 -0.0836
  353SOL    HW1 1058   2.272   2.640   1.152 -2.8847  0.6519 -0.3185
  353SOL    HW2 1059   2.173   2.774   1.187  1.3824 -2.7892  1.2495
  354SOL     OW 1060   0.223   1.436   2.895 -0.4177  0.6469  0.3272
  354SOL    HW1 1061   0.200   1.508   2.822  0.0525 -0.6564 -0.8200
  354SOL    HW2 1062   0.320   1.403   2.881  0.8369  3.0576 -0.6934
  355SOL     OW 1063   0.720   1.581   0.596  0.2791  0.3608  0.5611
  355SOL    HW1 1064   0.712   1.547   0.691 -0.3777  1.3126  0.0358
  355SOL    HW2 1065   0.683   1.517   0.526  0.5966 -1.8047  2.0692
  356SOL     OW 1066   0.961   0.331   2.123  0.6435  0.3518 -0.4083
  356SOL    HW1 1067   1.040   0.270   2.117  0.4111  1.1256 -0.6825
  356SOL    HW2 1068   0.903   0.332   2.037 -0.1836  1.0383  0.5646
  357SOL     OW 1069   0.986   1.387   0.163 -0.2575  0.6652  0.1868
  357SOL    HW1 1070   1.032   1.318   0.105  0.2686 -0.5425  0.5383
  357SOL    HW2 1071   1.058   1.452   0.196 -0.8126  1.3448  1.6883
  358SOL     OW 1072   1.681   1.466   0.494  0.0996  0.2554 -0.0689
  358SOL    HW1 1073   1.656   1.391   0.561 -1.4132  0.9790  0.7203
  358SOL    HW2 1074   1.630   1.455   0.404 -1.1450 -0.7860 -2.5923
  359SOL     OW 1075   1.616   2.581   0.213  0.2757 -0.0711  0.0672
  359SOL    HW1 1076   1.602   2.504   0.143  1.5897 -0.8271 -0.5372
  359SOL    HW2 1077   1.524   2.613   0.248 -0.1872 -0.8016  0.2403
  360SOL     OW 1078   0.736   0.477   0.595 -0.2137  0.6354  0.2445
  360SOL    HW1 1079   0.657   0.507   0.528 -4.4130 -0.5970 -1.4704
  360SOL    HW2 1080   0.765   0.380   0.597  0.5197 -0.0924  1.3794
  361SOL     OW 1081   1.354   1.312   0.630 -0.0315  0.2633 -0.2120
  361SOL    HW1 1082   1.381   1.355   0.725  0.0378  1.6343 -0.2007
  361SOL    HW2 1083   1.261   1.349   0.606  0.8272  2.2932  1.9272
  362SOL     OW 1084   1.371   1.840   0.680 -0.1749 -0.1317  0.0541
  362SOL    HW1 1085   1.401   1.760   0.740  0.8072  0.2483  0.1888
  362SOL    HW2 1086   1.445   1.880   0.618 -0.3292 -1.7271 -0.9414
  363SOL     OW 1087   1.294   1.355   1.999  0.0681  0.1633 -0.7040
  363SOL    HW1 1088   1.397   1.360   2.009 -1.3030  1.0311  0.4055
  363SOL    HW2 1089   1.245   1.444   2.008 -1.1597 -1.5333 -0.8291
  364SOL     OW 1090   0.559   2.368   1.965  0.1489  0.0376 -0.0211
  364SOL    HW1 1091   0.460   2.340   1.955  0.8103  0.9251 -1.4342
  364SOL    HW2 1092   0.567   2.466   1.931 -0.9027 -2.4497 -2.8663
  365SOL     OW 1093   0.930   1.976   1.432 -0.5281  0.0915  0.4112
  365SOL    HW1 1094   0.835   2.004   1.468 -0.6562 -1.0223  1.1840
  365SOL    HW2 1095   0.945   2.009   1.334  2.6708  0.4256 -0.6814
  366SOL     OW 1096   2.739   1.921   0.238  0.3664  0.5835  0.5483
  366SOL    HW1 1097   2.680   1.841   0.217  0.4820 -2.4145 -1.0087
  366SOL    HW2 1098   2.838   1.896   0.243  1.1341  2.5517  1.0987
  367SOL     OW 1099   0.918   1.123   3.054  1.0228 -0.2496 -0.7071
  367SOL    HW1 1100   0.918   1.074   3.144 -1.7168 -0.5631 -0.4566
  367SOL    HW2 1101   1.005   1.179   3.044  0.0393 -1.0177  1.6730
  368SOL     OW 1102   1.453   0.552   0.517  0.2174 -0.1219 -0.2436
  368SOL    HW1 1103   1.352   0.572   0.508  0.9877 -0.4860  2.1054
  368SOL    HW2 1104   1.499   0.608   0.448 -2.6287  0.6329 -0.6564
  369SOL     OW 1105   0.402   1.595   0.147 -0.3234  0.9470 -0.2851
  369SOL    HW1 1106   0.449   1.653   0.218 -1.5702 -0.6291 -0.6256
  369SOL    HW2 1107   0.325   1.530   0.181 -0.4149 -2.8725 -0.7614
  370SOL     OW 1108   0.443   2.196   1.084 -0.1791 -0.4505 -0.2113
  370SOL    HW1 1109   0.471   2.295   1.054  2.2413 -0.1777  0.6432
  370SOL    HW2 1110   0.351   2.171   1.047  1.1298  1.8610 -0.1741
  371SOL     OW 1111   2.901   2.204   2.744 -0.1087 -0.7053 -0.3345
  371SOL    HW1 1112   2.986   2.141   2.730  2.9118 -1.3568 -1.6217
  371SOL    HW2 1113   2.912   2.273   2.820  1.8200  3.9045 -3.0539
  372SOL     OW 1114   1.001   2.044   1.168  0.0273  0.4699 -0.2571
  372SOL    HW1 1115   0.929   2.059   1.096 -0.8769 -1.5760 -2.6309
  372SOL    HW2 1116   1.063   2.128   1.181 -0.8471 -0.1830  0.2819
  373SOL     OW 1117   1.950   1.919   1.038 -0.4053 -0.3007  0.3873
  373SOL    HW1 1118   2.046   1.961   1.057  1.0604 -0.6571 -1.9648
  373SOL    HW2 1119   1.884   1.976   0.980  1.5175  1.1198  2.8774
  374SOL     OW 1120   1.912   0.398   0.563  0.1757 -0.1316 -0.4237
  374SOL    HW1 1121   1.907   0.341   0.654 -1.0916  0.2884  0.5059
  374SOL    HW2 1122   2.009   0.408   0.538 -0.2577  0.5756 -0.5341
  375SOL     OW 1123   2.425   2.184   1.129 -0.1108  0.2906  0.6227
  375SOL    HW1 1124   2.470   2.227   1.044 -0.5929  0.2766 -1.6598
  375SOL    HW2 1125   2.497   2.139   1.193 -1.3971 -2.4039 -2.6338
  376SOL     OW 1126   0.006   0.628   1.441 -0.3858 -0.1509  0.1436
  376SOL    HW1 1127   0.014   0.695   1.525 -1.9473  0.9843  2.5846
  376SOL    HW2 1128  -0.064   0.549   1.442  0.7571 -0.6250  0.4314
  377SOL     OW 1129   2.200   2.923   0.195  0.3581  0.2791 -0.5084
  377SOL    HW1 1130   2.229   3.012   0.242 -0.0535  0.5943  3.2608
  377SOL    HW2 1131   2.249   2.841   0.242  1.3840 -0.3687 -1.5505
  378SOL     OW 1132   1.895   1.893   2.499 -0.2388  0.1148  0.3909
  378SOL    HW1 1133   1.989   1.877   2.465 -0.0239 -2.8107  1.9847
  378SOL    HW2 1134   1.832   1.815   2.479  2.2428 -1.4799  3.8153
  379SOL     OW 1135   0.746   0.155   2.809 -0.5038 -0.1420  0.4667
  379SOL    HW1 1136   0.811   0.073   2.789  1.2963  1.1938 -1.8307
  379SOL    HW2 1137   0.760   0.236   2.748  1.4477 -4.7832 -0.0716
  380SOL     OW 1138   1.535   1.135   0.510 -0.2645 -0.5630  0.1777
  380SOL    HW1 1139   1.455   1.201   0.522 -1.4258  0.2221 -0.6601
  380SOL    HW2 1140   1.509   1.050   0.455  2.4520  1.3482  2.6691
  381SOL     OW 1141   1.257   1.301   1.518 -0.4025  0.2480 -0.3150
  381SOL    HW1 1142   1.310   1.233   1.459  0.8096  1.6477  0.1789
  381SOL    HW2 1143   1.302   1.331   1.607 -0.1249  2.0771  1.7702
  382SOL     OW 1144   1.838   0.837   0.253  0.1815  0.0726 -0.1882
  382SOL    HW1 1145   1.844   0.824   0.151 -1.0346 -0.8840  0.8733
  382SOL    HW2 1146   1.924   0.827   0.311 -1.0178 -1.3399  1.3160
  383SOL     OW 1147   2.529   0.974   1.470 -0.9736 -0.1872 -0.0525
  383SOL    HW1 1148   2.444   0.922   1.435  2.4490 -0.2025  1.9656
  383SOL    HW2 1149   2.603   0.980   1.397 -3.0746 -0.8006 -2.0625
  384SOL     OW 1150   0.941   2.286   0.248  0.4222  0.0005  0.1578
  384SOL    HW1 1151   0.880   2.361   0.282 -1.0805  0.0245 -1.4070
  384SOL    HW2 1152   0.983   2.234   0.327  2.0244 -0.2815  2.4217
  385SOL     OW 1153   2.960   2.036   1.674 -0.1186 -0.6500  0.2592
  385SOL    HW1 1154   3.030   2.111   1.686 -2.3205  0.9883  1.2464
  385SOL    HW2 1155   2.991   1.943   1.708 -2.4463  1.2676  0.7321
  386SOL     OW 1156   0.476   1.062   0.457 -0.3907 -0.1217  0.1322
  386SOL    HW1 1157   0.466   0.970   0.503  0.6091  3.3500 -0.3287
  386SOL    HW2 1158   0.389   1.090   0.414 -0.2129  2.6282 -0.6238
  387SOL     OW 1159   0.996   0.359   1.653 -0.4125 -0.2178  0.1725
  387SOL    HW1 1160   1.023   0.458   1.640 -1.5385  0.0233  0.2309
  387SOL    HW2 1161   0.973   0.307   1.567  0.3003  1.0106 -1.6821
  388SOL     OW 1162   1.218   2.697   1.740 -0.2977  0.1003  0.0724
  388SOL    HW1 1163   1.239   2.740   1.648  1.0858  3.4155 -0.2557
  388SOL    HW2 1164   1.300   2.642   1.772 -0.7969 -0.3940  1.0358
  389SOL     OW 1165   0.141   2.911   1.337 -0.4034 -0.1023 -0.3109
  389SOL    HW1 1166   0.038   2.901   1.331 -2.3501  0.1594 -0.6305
  389SOL    HW2 1167   0.188   2.820   1.326  0.1317 -0.3841 -2.6956
  390SOL     OW 1168   1.021   0.943   1.385 -0.2352  0.0171  0.3283
  390SOL    HW1 1169   1.106   0.939   1.449  0.5748  0.6561  1.4051
  390SOL    HW2 1170   0.980   1.038   1.380 -0.6331  1.1288 -2.2667
  391SOL     OW 1171   2.198   1.115   1.123  0.1160  0.1555  0.3549
  391SOL    HW1 1172   2.141   1.041   1.165 -0.4575 -1.6215  1.3022
  391SOL    HW2 1173   2.256   1.084   1.046  0.2328  3.0944  0.8387
  392SOL     OW 1174   0.883   2.641   0.084  0.0303 -0.1945 -0.1077
  392SOL    HW1 1175   0.964   2.581   0.073  0.4200  0.3999  1.2860
  392SOL    HW2 1176   0.812   2.595   0.149 -0.2351 -0.3779 -0.9559
  393SOL     OW 1177   0.273   0.668   1.989 -0.0687  0.6063  0.0270
  393SOL    HW1 1178   0.230   0.573   1.988  1.5732 -0.1483 -0.1678
  393SOL    HW2 1179   0.324   0.683   1.904  0.6364 -0.3619  0.5138
  394SOL     OW 1180   3.041   1.955   2.683 -0.0838 -0.2868 -0.5039
  394SOL    HW1 1181   3.134   1.936   2.726  2.9297  1.1744  0.4460
  394SOL    HW2 1182   3.022   1.884   2.608  1.5828  2.0587 -0.5723
  395SOL     OW 1183   1.611   1.947   0.609 -0.2196  0.0896  0.6917
  395SOL    HW1 1184   1.662   1.872   0.560  0.0819  0.9554  0.8300
  395SOL    HW2 1185   1.642   1.966   0.707  0.6248  3.3464  0.3275
  396SOL     OW 1186   2.879   1.843   1.287  1.1670  0.4828 -0.5377
  396SOL    HW1 1187   2.910   1.746   1.268  2.0877  2.7315 -0.2598
  396SOL    HW2 1188   2.780   1.856   1.260 -1.1307 -0.3033  0.2592
  397SOL     OW 1189   1.023   2.222   0.491  0.4333  0.0730 -0.2934
  397SOL    HW1 1190   0.928   2.192   0.525 -1.9960  1.2202 -0.1513
  397SOL    HW2 1191   1.043   2.314   0.534  1.4220 -1.3627  0.4793
  398SOL     OW 1192   2.141   3.057   1.112  0.3125 -0.2383  0.4232
  398SOL    HW1 1193   2.046   3.020   1.140 -2.3017 -0.4133 -0.1724
  398SOL    HW2 1194   2.138   3.159   1.097 -0.6421 -1.1422  0.6170
  399SOL     OW 1195   3.034   2.455   2.640  0.3297  0.1305  0.4707
  399SOL    HW1 1196   2.928   2.459   2.619 -0.0392  1.3746  1.9336
  399SOL    HW2 1197   3.064   2.360   2.658 -1.3125 -0.7143 -1.5987
  400SOL     OW 1198   0.682   1.660   1.369 -0.1937  0.2406 -0.1784
  400SOL    HW1 1199   0.651   1.677   1.469 -0.6111 -0.1790  1.5870
  400SOL    HW2 1200   0.659   1.733   1.301 -1.7137 -0.5437 -1.9323
  401SOL     OW 1201   1.838   0.262   1.162 -0.1635  0.5885 -0.5757
  401SOL    HW1 1202   1.870   0.268   1.260 -4.3701 -0.7618 -0.8902
  401SOL    HW2 1203   1.749   0.314   1.142  0.2247  1.1613  1.8574
  402SOL     OW 1204   1.347   0.245   3.080 -0.4477  0.3046 -0.1846
  402SOL    HW1 1205   1.423   0.194   3.028  0.1468 -0.8851  0.7509
  402SOL    HW2 1206   1.299   0.324   3.031 -1.3748 -0.3358 -0.7393
  403SOL     OW 1207   2.236   1.822   0.868 -0.6842  0.3332 -0.9140
  403SOL    HW1 1208   2.336   1.842   0.829 -0.7120 -0.8305 -0.1578
  403SOL    HW2 1209   2.213   1.883   0.951 -3.2965 -0.2645 -2.6407
  404SOL     OW 1210   0.228   2.475   2.749  0.9396 -0.2500 -0.2726
  404SOL    HW1 1211   0.318   2.427   2.722 -0.5566  0.4416 -1.0070
  404SOL    HW2 1212   0.227   2.580   2.751 -0.5189  0.2005  2.6013
  405SOL     OW 1213   0.090   2.402   0.755  0.3102 -0.7728 -0.2836
  405SOL    HW1 1214   0.075   2.343   0.673 -2.3217  0.3367  3.1012
  405SOL    HW2 1215   0.161   2.474   0.749 -2.1648 -2.3778  1.0775
  406SOL     OW 1216   0.066   1.547   3.096  0.2981 -0.6214 -0.1559
  406SOL    HW1 1217   0.139   1.512   3.031 -2.4440 -2.7922  0.3327
  406SOL    HW2 1218   0.090   1.531   3.195 -1.9371  1.1466  1.1321
  407SOL     OW 1219   1.577   0.899   0.962  0.7064  0.0335  0.0761
  407SOL    HW1 1220   1.617   0.907   0.868  0.4472  0.0912  1.1794
  407SOL    HW2 1221   1.489   0.954   0.968 -2.0774  0.8525  1.6367
  408SOL     OW 1222   1.548   2.411   0.962 -0.7926 -0.0329 -0.2951
  408SOL    HW1 1223   1.631   2.384   0.910 -2.1045 -0.2653  0.7605
  408SOL    HW2 1224   1.523   2.513   0.949 -0.4142  2.3223 -0.3098
  409SOL     OW 1225   0.656   0.842   0.758 -0.4558  0.4096 -0.4100
  409SOL    HW1 1226   0.595   0.825   0.677 -1.3682  1.6183  1.8132
  409SOL    HW2 1227   0.643   0.781   0.840 -0.3565  1.0865  1.6458
  410SOL     OW 1228   1.264   2.026   1.393 -0.0011 -0.2411 -0.1596
  410SOL    HW1 1229   1.341   1.983   1.454  0.2606  0.0832  1.9160
  410SOL    HW2 1230   1.189   1.966   1.361  2.4165  0.7485 -0.3275
  411SOL     OW 1231   2.508   1.828   2.991  0.4525  0.0658  0.4662
  411SOL    HW1 1232   2.556   1.921   2.995 -0.5833  0.4841  2.1917
  411SOL    HW2 1233   2.455   1.821   2.902  1.8295 -0.7674 -0.1668
  412SOL     OW 1234   1.475   2.457   2.141 -0.1906  0.2390  0.1896
  412SOL    HW1 1235   1.559   2.439   2.201  0.1030  0.2293 -1.2926
  412SOL    HW2 1236   1.382   2.442   2.183  0.3099 -1.6140 -1.6183
  413SOL     OW 1237   0.001   0.208   2.965 -0.2670  0.6214  0.4964
  413SOL    HW1 1238  -0.045   0.125   3.015  0.4834 -2.0764  0.5797
  413SOL    HW2 1239   0.106   0.205   2.974  0.3473  1.0727 -1.9183
  414SOL     OW 1240   1.756   1.484   1.189 -0.1656 -0.2874 -0.4927
  414SOL    HW1 1241   1.743   1.583   1.205  1.3062 -0.5774 -1.6832
  414SOL    HW2 1242   1.739   1.466   1.087  0.5632  0.6452 -2.7920
  415SOL     OW 1243   0.306   2.200   0.712 -0.6128 -0.6242 -0.2198
  415SOL    HW1 1244   0.268   2.155   0.792  0.6690  0.2018 -1.7965
  415SOL    HW2 1245   0.241   2.198   0.633  3.8078  1.9552  0.7857
  416SOL     OW 1246   0.365   1.079   1.058  0.6257  1.0237  0.4538
  416SOL    HW1 1247   0.299   1.013   1.008  0.3622  0.8300  0.5786
  416SOL    HW2 1248   0.465   1.054   1.041 -0.2921 -1.0645 -2.4568
  417SOL     OW 1249   2.339   2.452   2.073  0.6697  0.1878  1.0637
  417SOL    HW1 1250   2.363   2.350   2.085  0.6989 -1.1431 -2.4360
  417SOL    HW2 1251   2.275   2.488   2.148 -2.6944  1.5422  0.2631
  418SOL     OW 1252   1.044   0.483   1.346 -0.5032 -0.2269  0.1745
  418SOL    HW1 1253   0.948   0.468   1.310  2.2518  0.2233 -0.1041
  418SOL    HW2 1254   1.102   0.533   1.278 -4.8707 -0.0873 -1.9978
  419SOL     OW 1255   0.939   0.521   2.972  0.3735  0.6511  0.2074
  419SOL    HW1 1256   0.844   0.483   2.951 -3.2531  0.2781 -0.4725
  419SOL    HW2 1257   0.950   0.625   2.986 -0.8242  1.6629 -1.1400
  420SOL     OW 1258   0.123   2.213   0.497  0.2061  0.0894  0.1482
  420SOL    HW1 1259   0.188   2.191   0.417  1.7306  4.0113  0.7137
  420SOL    HW2 1260   0.048   2.137   0.513 -3.1001  1.9117 -3.6188
  421SOL     OW 1261   0.330   2.946   0.567  0.1998  0.9004 -0.3878
  421SOL    HW1 1262   0.290   2.901   0.651  0.9601  0.6608 -0.2626
  421SOL    HW2 1263   0.408   3.011   0.584 -0.5492  0.9980 -1.3453
  422SOL     OW 1264   1.013   2.620   1.038  0.2250 -0.3680  0.0685
  422SOL    HW1 1265   1.081   2.673   0.975  0.9960  0.9491  0.3243
  422SOL    HW2 1266   1.055   2.597   1.128  1.2319  1.2218 -3.4209
  423SOL     OW 1267   0.125   0.746   1.224  0.0230 -0.0473  0.2840
  423SOL    HW1 1268   0.087   0.704   1.313  1.3260 -0.5138  0.0650
  423SOL    HW2 1269   0.095   0.843   1.207  0.5495 -3.2249 -0.8399
  424SOL     OW 1270   1.188   2.224   2.032 -0.0188  0.2393 -0.0515
  424SOL    HW1 1271   1.164   2.325   2.044  1.3757  0.7309  2.7624
  424SOL    HW2 1272   1.154   2.169   2.115 -0.9706  2.1051  1.6405
  425SOL     OW 1273   2.013   1.309   0.968 -0.1051  0.2324 -0.0567
  425SOL    HW1 1274   2.095   1.314   1.029  1.8709 -0.0266  1.2554
  425SOL    HW2 1275   1.980   1.399   0.925  0.0299  1.1001 -0.9671
  426SOL     OW 1276   1.425   1.610   1.227  0.0325 -0.3151 -0.6201
  426SOL    HW1 1277   1.460   1.693   1.188 -0.2884  0.3170  0.1812
  426SOL    HW2 1278   1.377   1.630   1.320 -1.0757  2.7337 -0.1570
  427SOL     OW 1279   1.935   2.341   2.072  0.4271 -0.0688  0.1807
  427SOL    HW1 1280   1.964   2.275   2.143 -1.9041 -1.9139 -1.0746
  427SOL    HW2 1281   1.945   2.444   2.103  0.9338 -0.1760  0.7512
  428SOL     OW 1282   0.868   0.016   0.108  0.7798  0.2139  0.2356
  428SOL    HW1 1283   0.884   0.110   0.067  0.2235  0.4400  0.2974
  428SOL    HW2 1284   0.959  -0.025   0.133 -0.5596 -3.2916  1.0556
  429SOL     OW 1285   1.289   0.167   0.254  0.4863  0.1003  0.2393
  429SOL    HW1 1286   1.382   0.145   0.293  0.0665 -0.3294 -0.8868
  429SOL    HW2 1287   1.289   0.184   0.154 -0.0502  0.1633 -0.7804
  430SOL     OW 1288   2.908   1.407   0.308 -0.0157  0.2390 -0.2007
  430SOL    HW1 1289   2.889   1.462   0.218  2.1537  3.0635  0.6554
  430SOL    HW2 1290   2.885   1.457   0.402 -0.7949  3.6624  4.1301
  431SOL     OW 1291   2.063   1.585   0.930 -0.0942 -0.6407  0.0189
  431SOL    HW1 1292   2.113   1.636   1.005  0.2521  0.6422  0.7394
  431SOL    HW2 1293   1.979   1.636   0.896  1.1128  0.3390 -1.8586
  432SOL     OW 1294   2.936   2.143   1.220 -0.3634 -0.1655  0.2519
  432SOL    HW1 1295   2.936   2.054   1.269 -0.8771  1.4066  1.0365
  432SOL    HW2 1296   2.946   2.221   1.290  0.1853  0.2770  0.8922
  433SOL     OW 1297   1.849   0.186   0.807 -0.0457  0.1724  0.4540
  433SOL    HW1 1298   1.768   0.198   0.866  2.4902 -1.3926 -0.5128
  433SOL    HW2 1299   1.918   0.109   0.840  0.6235 -2.0890  2.8987
  434SOL     OW 1300   1.563   0.327   0.662 -0.6770 -0.2111 -0.4832
  434SOL    HW1 1301   1.537   0.363   0.570 -0.3505 -0.3869  3.1104
  434SOL    HW2 1302   1.622   0.393   0.721 -1.6958  0.0605 -0.9367
  435SOL     OW 1303   1.550   1.430   2.062 -0.5894 -0.1815  0.5060
  435SOL    HW1 1304   1.544   1.472   2.158  2.8678 -0.3225  0.9572
  435SOL    HW2 1305   1.528   1.498   1.987 -1.7949 -3.5880  1.3441
  436SOL     OW 1306   1.701   2.719   2.257 -0.0055  0.3165  0.2973
  436SOL    HW1 1307   1.652   2.791   2.321  0.0433 -1.2710  1.6801
  436SOL    HW2 1308   1.693   2.622   2.288 -1.9025  1.2127 -1.9686
  437SOL     OW 1309   1.082   2.952   0.905  0.0304  0.6724  0.0864
  437SOL    HW1 1310   1.016   3.031   0.903 -1.6215  1.1842  1.5505
  437SOL    HW2 1311   1.095   2.924   1.003  1.9844 -0.1770 -0.1535
  438SOL     OW 1312   0.996   2.668   1.433 -0.1233 -0.3619  0.4026
  438SOL    HW1 1313   1.099   2.684   1.451  0.3330  5.1916  2.2676
  438SOL    HW2 1314   0.966   2.574   1.412  0.2233  1.6561  0.3659
  439SOL     OW 1315   0.674   1.839   1.070  0.3913  0.5013 -0.1422
  439SOL    HW1 1316   0.665   1.935   1.028 -0.0033  1.2604 -0.7354
  439SOL    HW2 1317   0.582   1.788   1.075 -0.1584  1.0404  3.5460
  440SOL     OW 1318   1.087   2.477   1.968  0.4949 -0.3583  0.3598
  440SOL    HW1 1319   1.023   2.546   1.919  0.7484  0.0811 -0.8530
  440SOL    HW2 1320   1.189   2.495   1.942  2.0939 -1.3490  1.0736
  441SOL     OW 1321   0.397   2.680   1.556 -0.4946 -0.4865  0.2768
  441SOL    HW1 1322   0.489   2.638   1.528 -0.8409  0.8837  0.0151
  441SOL    HW2 1323   0.325   2.669   1.484 -1.8358 -0.6979  0.3159
  442SOL     OW 1324   2.265   0.702   2.545  0.0389  0.0382  0.1245
  442SOL    HW1 1325   2.257   0.598   2.567  1.7035 -1.7985  1.7373
  442SOL    HW2 1326   2.167   0.743   2.549 -2.2419 -2.9679  1.5233
  443SOL     OW 1327   1.194   2.704   2.204  0.5158 -0.4744  0.0173
  443SOL    HW1 1328   1.192   2.773   2.284  0.5019  1.0068  0.1721
  443SOL    HW2 1329   1.217   2.608   2.236 -3.7213 -3.4581  0.7554
  444SOL     OW 1330   1.002   1.330   1.581  0.1205  0.5807 -0.5875
  444SOL    HW1 1331   1.104   1.317   1.554  0.3847 -0.1779 -1.4346
  444SOL    HW2 1332   0.971   1.428   1.567  1.0645  0.1649 -1.0194
  445SOL     OW 1333   3.067   2.386   1.977  0.1070 -0.4487 -0.4087
  445SOL    HW1 1334   3.075   2.479   1.929 -2.2825  2.3730  0.5236
  445SOL    HW2 1335   2.968   2.363   2.002 -1.6181 -0.5546 -1.1048
  446SOL     OW 1336   0.210   1.915   2.346 -0.2584 -0.2282  0.1581
  446SOL    HW1 1337   0.158   1.998   2.389  0.5365  0.5727  3.8285
  446SOL    HW2 1338   0.149   1.833   2.316 -0.8684  0.7546 -1.3781
  447SOL     OW 1339   1.191   1.658   1.950  0.1010 -0.3706 -0.0052
  447SOL    HW1 1340   1.149   1.751   1.932  2.0363 -0.4370  2.1433
  447SOL    HW2 1341   1.294   1.648   1.933  1.4522 -0.5939 -0.7478
  448SOL     OW 1342   0.110   1.481   1.956  0.1313  0.5060 -0.3764
  448SOL    HW1 1343   0.098   1.580   1.939  2.5717 -2.0477 -0.9284
  448SOL    HW2 1344   0.135   1.461   2.055 -1.1595  2.3924  1.3047
  449SOL     OW 1345   1.990   3.019   0.860  0.2862  0.3063  0.0602
  449SOL    HW1 1346   2.064   3.043   0.932 -0.8895  1.3248 -1.2236
  449SOL    HW2 1347   1.991   2.918   0.836 -3.5006 -0.0819 -1.6951
  450SOL     OW 1348   2.279   1.371   0.881 -0.2004  0.0558  0.3209
  450SOL    HW1 1349   2.243   1.278   0.848  1.3212 -3.1122 -1.1307
  450SOL    HW2 1350   2.208   1.445   0.892  2.9793  3.0554  0.5553
  451SOL     OW 1351   1.430   0.024   1.448 -0.3848 -0.2928 -0.1600
  451SOL    HW1 1352   1.356   0.096   1.470  0.5392  0.5381  1.6736
  451SOL    HW2 1353   1.451  -0.036   1.533  1.6162  0.6548  0.5586
  452SOL     OW 1354   2.648   2.297   2.255 -0.6162 -0.2113 -0.2209
  452SOL    HW1 1355   2.602   2.382   2.287  1.3802 -1.5872 -2.7189
  452SOL    HW2 1356   2.691   2.241   2.338  0.0638 -0.7283  1.3228
  453SOL     OW 1357   2.437   2.594   3.045  0.0584 -0.0853  0.0248
  453SOL    HW1 1358   2.369   2.672   3.067  0.0302  0.6824  1.8585
  453SOL    HW2 1359   2.411   2.531   2.966  0.0938  0.3979  0.5214
  454SOL     OW 1360   0.956   1.081   2.078  0.5162  0.0507 -0.3258
  454SOL    HW1 1361   0.949   1.151   2.000 -0.6959 -2.3438 -1.0598
  454SOL    HW2 1362   1.054   1.061   2.096 -1.9870 -0.5395  3.0388
  455SOL     OW 1363   0.711   2.625   2.912 -0.5189 -0.0653  0.1305
  455SOL    HW1 1364   0.766   2.706   2.954  1.2611  1.6286  0.6364
  455SOL    HW2 1365   0.684   2.558   2.983  1.2162  0.7622 -0.5201
  456SOL     OW 1366   0.560   1.791   0.288  0.3388  0.2099  0.1980
  456SOL    HW1 1367   0.660   1.784   0.254  1.0762  0.5189 -0.1427
  456SOL    HW2 1368   0.543   1.888   0.313 -1.7983  2.3710 -0.1424
  457SOL     OW 1369   0.335   2.582   0.684  0.1770 -0.7688 -0.6021
  457SOL    HW1 1370   0.320   2.632   0.596  0.0524  0.5106 -1.0479
  457SOL    HW2 1371   0.428   2.539   0.697  0.4131  1.1699 -1.0270
  458SOL     OW 1372   2.964   2.937   1.242 -0.1250 -0.3025  0.5531
  458SOL    HW1 1373   3.035   3.005   1.215  2.5189 -1.6426 -0.7604
  458SOL    HW2 1374   2.921   2.895   1.160  2.7583 -2.7506  1.2243
  459SOL     OW 1375   2.088   2.537   0.922  0.3483  0.4107 -0.1702
  459SOL    HW1 1376   2.086   2.604   0.999  1.6077 -3.7637  0.4527
  459SOL    HW2 1377   2.183   2.513   0.889  0.9655 -1.5004 -1.2585
  460SOL     OW 1378   1.067   1.919   2.899 -0.1477 -0.3819  0.7318
  460SOL    HW1 1379   1.074   2.020   2.891  1.3167  0.5559 -3.2679
  460SOL    HW2 1380   1.138   1.879   2.963  0.7342 -0.1235 -0.6118
  461SOL     OW 1381   0.519   2.114   2.700  0.2581 -0.1952  0.1980
  461SOL    HW1 1382   0.446   2.042   2.682 -1.0150  1.1716  1.8644
  461SOL    HW2 1383   0.573   2.099   2.788  1.4156  0.0913 -2.9450
  462SOL     OW 1384   0.956   1.213   1.826 -0.0110  0.5370 -0.3033
  462SOL    HW1 1385   0.996   1.113   1.812  0.9426 -4.1407 -2.3421
  462SOL    HW2 1386   0.956   1.266   1.738  1.8611 -0.7559  0.9772
  463SOL     OW 1387   0.450   0.802   0.553  0.0528  0.3045 -0.2241
  463SOL    HW1 1388   0.462   0.717   0.498  0.0583 -0.2806  0.2442
  463SOL    HW2 1389   0.346   0.816   0.571 -0.5324  3.2381 -0.8518
  464SOL     OW 1390   0.499   2.254   2.213 -0.2362  0.2704 -0.0932
  464SOL    HW1 1391   0.436   2.298   2.285 -0.6840 -1.5681  0.6622
  464SOL    HW2 1392   0.512   2.308   2.127 -0.3691 -0.9727  1.0918
  465SOL     OW 1393   0.229   0.879   0.876  0.3923 -0.4944  0.1873
  465SOL    HW1 1394   0.149   0.911   0.821  2.0953  1.0218 -0.9087
  465SOL    HW2 1395   0.235   0.780   0.903  0.6822 -1.6398  0.0281
  466SOL     OW 1396   1.376   1.077   1.042 -0.1220 -0.3204 -0.0877
  466SOL    HW1 1397   1.444   1.157   1.059 -0.9378  1.7164  0.3365
  466SOL    HW2 1398   1.279   1.109   1.035  1.1471 -0.4382 -2.6082
  467SOL     OW 1399   0.442   0.390   2.399 -0.1988  0.2045  0.6275
  467SOL    HW1 1400   0.385   0.468   2.437 -0.2808  2.9636  0.2939
  467SOL    HW2 1401   0.461   0.314   2.468  0.7818 -0.4274  0.9317
  468SOL     OW 1402   0.496   2.246   1.691  0.3154  0.0200  0.1136
  468SOL    HW1 1403   0.490   2.314   1.767  1.9449  0.3781 -0.4052
  468SOL    HW2 1404   0.449   2.285   1.607 -0.6748  1.9921  1.3647
  469SOL     OW 1405   1.549   1.275   1.104  0.1776 -0.7632 -0.4662
  469SOL    HW1 1406   1.638   1.221   1.088 -1.1042 -2.3168  0.3359
  469SOL    HW2 1407   1.558   1.353   1.173 -2.5101  0.4515  2.5013
  470SOL     OW 1408   3.043   1.651   0.731  0.2404 -0.1132 -0.5913
  470SOL    HW1 1409   3.133   1.654   0.789  3.1535  1.3297  0.8463
  470SOL    HW2 1410   2.961   1.711   0.760 -1.1431 -1.8478  1.9006
  471SOL     OW 1411   2.688   1.297   2.145 -0.2438  0.2098  0.3115
  471SOL    HW1 1412   2.652   1.247   2.227  1.6259  0.6990  0.7161
  471SOL    HW2 1413   2.722   1.392   2.167 -0.9917 -1.8364 -1.2908
  472SOL     OW 1414   1.101   2.469   0.007  0.2005 -0.0131  0.7986
  472SOL    HW1 1415   1.174   2.458   0.081  0.8140  1.0054  0.5890
  472SOL    HW2 1416   1.069   2.374  -0.025  1.2296  0.1656 -1.2074
  473SOL     OW 1417   1.068   1.586   0.861 -0.6694  0.3614 -0.5582
  473SOL    HW1 1418   0.975   1.599   0.909 -1.5859 -0.4759 -2.3029
  473SOL    HW2 1419   1.140   1.550   0.924  1.6246 -0.9024  0.4456
  474SOL     OW 1420   0.803   1.212   0.727  0.0735  0.2187  0.7313
  474SOL    HW1 1421   0.764   1.206   0.628 -2.2842 -1.6111  0.7679
  474SOL    HW2 1422   0.837   1.121   0.764  0.6722 -0.1151 -0.3123
  475SOL     OW 1423   2.867   0.096   0.741  0.0973 -0.1051  0.5391
  475SOL    HW1 1424   2.943   0.073   0.807  1.2384  0.6915  0.8472
  475SOL    HW2 1425   2.783   0.106   0.794 -0.2818 -0.3385  0.4178
  476SOL     OW 1426   0.872   3.074   1.824 -0.0567 -0.5621  0.3448
  476SOL    HW1 1427   0.944   3.051   1.895  0.4218 -0.2169 -1.2324
  476SOL    HW2 1428   0.894   3.030   1.732 -1.2845  0.0392 -0.3825
  477SOL     OW 1429   1.443   0.335   2.420 -0.0537  0.6057  0.0467
  477SOL    HW1 1430   1.418   0.361   2.518  0.8159  2.7192 -0.5333
  477SOL    HW2 1431   1.541   0.306   2.408 -0.2188 -0.2305  0.8423
  478SOL     OW 1432   2.296   1.819   0.238 -0.8525 -0.0845  0.3117
  478SOL    HW1 1433   2.218   1.752   0.209 -2.0246  0.0682  0.9347
  478SOL    HW2 1434   2.385   1.799   0.191  1.5247 -1.3031  0.2515
  479SOL     OW 1435   1.248   1.102   2.878 -0.4702 -0.0820 -1.3480
  479SOL    HW1 1436   1.328   1.055   2.822 -0.6449 -2.3415 -0.7375
  479SOL    HW2 1437   1.155   1.067   2.848 -0.0096  1.7490 -1.8783
  480SOL     OW 1438   2.455   2.341   0.380 -0.0811  0.2536 -0.3440
  480SOL    HW1 1439   2.427   2.258   0.438  1.7974 -2.5219 -0.6365
  480SOL    HW2 1440   2.408   2.347   0.287 -0.0782 -1.9825  2.0037
  481SOL     OW 1441   1.118   1.178   0.809 -0.6203  0.4483  0.3027
  481SOL    HW1 1442   1.095   1.260   0.750  0.7432  2.5659 -0.0319
  481SOL    HW2 1443   1.123   1.196   0.912 -0.6898 -3.6968  2.3617
  482SOL     OW 1444   1.616   0.300   2.028  0.4023  0.0252  0.0712
  482SOL    HW1 1445   1.605   0.393   1.976 -0.1910  2.2706 -1.8528
  482SOL    HW2 1446   1.716   0.283   2.053 -1.6951  0.1010 -0.3520
  483SOL     OW 1447   0.145   2.352   1.309 -0.1001  0.1229  0.5706
  483SOL    HW1 1448   0.044   2.362   1.316 -0.4269  1.4229 -0.9507
  483SOL    HW2 1449   0.175   2.376   1.211  0.1715 -1.2800 -2.3045
  484SOL     OW 1450   1.725   0.983   1.377  0.1889 -0.1000  0.0747
  484SOL    HW1 1451   1.818   0.939   1.383 -1.9399  0.7307 -0.3224
  484SOL    HW2 1452   1.724   1.082   1.403 -1.2931 -0.9112 -2.4640
  485SOL     OW 1453   0.694   1.118   1.773 -0.0183 -0.2418 -0.2174
  485SOL    HW1 1454   0.710   1.079   1.678 -1.0200 -0.2280  1.3815
  485SOL    HW2 1455   0.780   1.169   1.813  1.7064  1.3699  0.9773
  486SOL     OW 1456   0.899   1.916   2.456 -0.4572 -0.2980 -0.3924
  486SOL    HW1 1457   0.972   1.901   2.530  2.3634 -0.4184 -0.2504
  486SOL    HW2 1458   0.810   1.963   2.492 -2.2613  0.6632 -0.8543
  487SOL     OW 1459   1.748   1.495   0.899 -0.3504  0.2776 -0.4325
  487SOL    HW1 1460   1.691   1.413   0.864 -1.3375  0.2676  3.8154
  487SOL    HW2 1461   1.763   1.576   0.830  2.6545  0.2692  0.8314
  488SOL     OW 1462   2.957   0.969   2.287 -0.3586  0.7314  0.4884
  488SOL    HW1 1463   3.002   0.895   2.228  0.3818 -2.8034  0.8282
  488SOL    HW2 1464   2.978   0.946   2.386 -1.7253  0.3609 -1.4335
  489SOL     OW 1465   2.804   0.225   1.308  0.3918 -0.4664 -0.0318
  489SOL    HW1 1466   2.759   0.184   1.395  0.0559 -1.3314  0.5949
  489SOL    HW2 1467   2.889   0.182   1.273 -1.1742  0.3737  1.5086
  490SOL     OW 1468   1.417   2.963   2.867  0.1988  0.0405 -0.1983
  490SOL    HW1 1469   1.431   2.855   2.860 -2.4744 -1.7766 -0.4348
  490SOL    HW2 1470   1.378   2.996   2.771  0.9979 -1.4194 -3.7676
  491SOL     OW 1471   1.898   1.561   2.680  0.9659 -0.4722 -0.4265
  491SOL    HW1 1472   1.854   1.645   2.722 -2.9906 -1.8457  1.2330
  491SOL    HW2 1473   1.967   1.508   2.734 -1.8548  0.9888  1.5648
  492SOL     OW 1474   0.468   1.956   0.741  0.0586 -0.2343  0.0143
  492SOL    HW1 1475   0.539   2.007   0.798  1.4714  0.2979  2.7182
  492SOL    HW2 1476   0.398   2.019   0.696  2.4573  0.7869 -1.8987
  493SOL     OW 1477   0.424   1.400   2.115  0.1703 -0.4529  0.2423
  493SOL    HW1 1478   0.320   1.412   2.117  0.3599  0.6090  0.4995
  493SOL    HW2 1479   0.450   1.337   2.196 -1.5465 -2.5938 -0.2517
  494SOL     OW 1480   2.637   2.657   0.154 -0.2800  0.1824  0.6725
  494SOL    HW1 1481   2.664   2.588   0.231  0.9298  1.5543  0.5017
  494SOL    HW2 1482   2.592   2.614   0.071  2.3717 -1.7943 -0.6750
  495SOL     OW 1483   2.763   2.688   2.687  0.4484  0.5303 -0.0873
  495SOL    HW1 1484   2.759   2.594   2.637  1.1801 -1.6720 -0.5468
  495SOL    HW2 1485   2.760   2.764   2.620  0.6669  0.2758  1.7573
  496SOL     OW 1486   2.084   2.188   0.726 -0.7813 -0.3438 -0.1336
  496SOL    HW1 1487   2.086   2.228   0.814 -0.2033 -2.1164 -2.6892
  496SOL    HW2 1488   2.027   2.100   0.716  0.3359  2.1495 -1.3425
  497SOL     OW 1489   0.241   2.966   2.421  0.1617 -0.4358  0.0505
  497SOL    HW1 1490   0.202   3.028   2.498 -1.8169  1.4519  1.8752
  497SOL    HW2 1491   0.261   3.027   2.338 -0.2873  2.7543  0.2450
  498SOL     OW 1492   1.198   1.483   1.111  0.2085  0.2463 -0.3667
  498SOL    HW1 1493   1.288   1.507   1.162  1.6781  0.5367 -0.4922
  498SOL    HW2 1494   1.119   1.532   1.147  1.9383  1.2166  2.0989
  499SOL     OW 1495   0.860   1.832   0.525 -0.0309  0.8603 -0.2578
  499SOL    HW1 1496   0.806   1.749   0.554 -0.2805 -0.2086 -0.0381
  499SOL    HW2 1497   0.845   1.911   0.590 -1.0474  3.1958  0.5606
  500SOL     OW 1498   1.421   2.987   1.700  0.4636  0.4113 -1.0891
  500SOL    HW1 1499   1.462   3.021   1.786 -0.5582 -0.6406 -1.2169
  500SOL    HW2 1500   1.465   2.894   1.675  0.1797 -0.9645 -1.2920
  501SOL     OW 1501   0.730   1.141   2.277 -0.2974 -0.2130  0.6722
  501SOL    HW1 1502   0.650   1.084   2.295  0.7825  0.1413  0.6298
  501SOL    HW2 1503   0.771   1.122   2.183 -0.2766  0.0712  0.1993
  502SOL     OW 1504   2.617   0.971   1.719 -0.1058 -0.2393  0.0701
  502SOL    HW1 1505   2.577   0.973   1.620 -0.5292  1.5240 -2.1850
  502SOL    HW2 1506   2.618   0.877   1.764 -1.4421 -3.0725  0.9745
  503SOL     OW 1507   1.339   0.176   0.619  0.2734 -0.2647  0.2574
  503SOL    HW1 1508   1.276   0.248   0.581 -0.7568 -0.7108  1.5454
  503SOL    HW2 1509   1.420   0.226   0.657 -1.9606 -1.1129  0.5003
  504SOL     OW 1510   2.963   2.384   1.406 -0.0654  0.1265 -0.0579
  504SOL    HW1 1511   3.008   2.458   1.471  3.5113  2.1315  3.5408
  504SOL    HW2 1512   2.878   2.348   1.448  1.7476 -2.6585 -1.2121
  505SOL     OW 1513   2.309   1.240   1.434  0.4084  0.0758 -0.2281
  505SOL    HW1 1514   2.282   1.306   1.366 -0.5550  0.5078  0.9736
  505SOL    HW2 1515   2.387   1.270   1.497 -0.7151 -1.5554  0.8659
  506SOL     OW 1516   1.899   0.236   1.805  0.3614  0.0336 -0.6760
  506SOL    HW1 1517   1.993   0.232   1.761  2.3694 -1.3559  0.0595
  506SOL    HW2 1518   1.884   0.330   1.845 -2.2801 -1.4478 -2.6121
  507SOL     OW 1519   0.494   0.683   2.181 -0.6294  1.1091 -0.4125
  507SOL    HW1 1520   0.424   0.695   2.104 -0.8919 -0.0205 -0.7264
  507SOL    HW2 1521   0.540   0.588   2.175 -1.0422 -1.0736  0.3971
  508SOL     OW 1522   0.170   1.669   0.846 -0.5787 -0.2102 -0.4463
  508SOL    HW1 1523   0.202   1.761   0.813 -2.4463 -0.8453 -2.7577
  508SOL    HW2 1524   0.158   1.670   0.952 -3.1208  3.5696 -2.6271
  509SOL     OW 1525   1.365   1.190   2.569 -0.1648 -0.2764  0.4630
  509SOL    HW1 1526   1.274   1.238   2.585  0.4110 -1.7500 -2.2606
  509SOL    HW2 1527   1.358   1.093   2.582 -2.1153  0.7537  2.3403
  510SOL     OW 1528   1.329   1.992   2.023 -0.4667  0.0127  0.0728
  510SOL    HW1 1529   1.278   2.079   2.000  0.4553  2.5227 -2.5235
  510SOL    HW2 1530   1.300   1.947   2.112  0.9095  1.2428 -2.4323
  511SOL     OW 1531   3.098   2.636   1.305 -0.4078 -0.2097 -0.0657
  511SOL    HW1 1532   3.031   2.601   1.237  0.2492  0.9759 -1.7146
  511SOL    HW2 1533   3.056   2.653   1.401 -3.3516  0.7489  0.7148
  512SOL     OW 1534   2.410   0.429   1.363 -0.2428 -0.1171  0.2223
  512SOL    HW1 1535   2.308   0.404   1.367  1.1475  1.0747  2.6192
  512SOL    HW2 1536   2.449   0.404   1.274  0.5362 -1.7734  2.2942
  513SOL     OW 1537   2.496   2.002   0.835  0.1381 -0.1155 -0.3934
  513SOL    HW1 1538   2.446   2.093   0.827 -1.5452 -2.2974 -1.4268
  513SOL    HW2 1539   2.567   1.988   0.762  1.4112 -1.4197  1.3670
  514SOL     OW 1540   0.672   2.802   0.402 -0.1798  0.0625  0.2124
  514SOL    HW1 1541   0.633   2.840   0.315  0.3322  1.7973 -0.5806
  514SOL    HW2 1542   0.665   2.867   0.482  2.3369  0.3578  2.5563
  515SOL     OW 1543   1.974   1.217   2.350  0.2055 -0.0180  0.2860
  515SOL    HW1 1544   1.916   1.253   2.272 -0.4290  2.2098  1.8100
  515SOL    HW2 1545   1.917   1.241   2.435 -2.6815  2.7725 -0.3142
  516SOL     OW 1546   0.270   0.307   1.968  0.1351  0.4098  0.1094
  516SOL    HW1 1547   0.353   0.306   1.909  0.4232 -0.9516 -0.0379
  516SOL    HW2 1548   0.192   0.246   1.934  2.0702  1.7640  2.9368
  517SOL     OW 1549   0.356   3.050   1.158 -0.0267  0.0419  0.1829
  517SOL    HW1 1550   0.405   3.137   1.182  1.3193 -0.1079 -0.1508
  517SOL    HW2 1551   0.280   3.025   1.230  0.3198 -2.8671  3.3518
  518SOL     OW 1552   2.146   0.169   1.657 -0.1414 -0.0606 -0.5023
  518SOL    HW1 1553   2.191   0.215   1.741 -2.2867  1.1671 -0.4729
  518SOL    HW2 1554   2.181   0.074   1.644 -0.8591  0.7246 -0.5886
  519SOL     OW 1555   2.356   2.164   2.530 -0.4150 -0.3586 -0.4318
  519SOL    HW1 1556   2.269   2.151   2.589 -1.2687 -1.4565  1.0180
  519SOL    HW2 1557   2.404   2.260   2.536  1.3654  1.3245 -2.2812
  520SOL     OW 1558   1.771   2.866   1.797  0.1643 -0.3816  0.3556
  520SOL    HW1 1559   1.694   2.817   1.851 -2.3618 -0.5034  1.8769
  520SOL    HW2 1560   1.843   2.810   1.751  1.1108 -1.2585  0.7968
  521SOL     OW 1561   0.570   0.147   2.147  0.0525  0.0080  0.6785
  521SOL    HW1 1562   0.476   0.130   2.187 -0.1996 -1.0782 -0.3290
  521SOL    HW2 1563   0.650   0.098   2.193  0.9997 -0.5114  1.5000
  522SOL     OW 1564   0.214   1.895   1.558  0.4655 -0.1070  0.3405
  522SOL    HW1 1565   0.257   1.949   1.635  0.3431  1.3925 -0.4015
  522SOL    HW2 1566   0.196   1.955   1.472  1.1403  0.1695 -0.5742
  523SOL     OW 1567   2.210   2.988   1.618  0.6629  1.1043 -0.0462
  523SOL    HW1 1568   2.254   2.906   1.574  0.7893  2.8738 -0.7983
  523SOL    HW2 1569   2.110   2.987   1.591 -1.2435 -0.8448 -0.8184
  524SOL     OW 1570   0.246   2.745   2.823 -0.3486  0.1580 -0.1262
  524SOL    HW1 1571   0.223   2.800   2.909 -3.0915  2.5985 -0.1125
  524SOL    HW2 1572   0.349   2.764   2.802  2.1479 -0.2016 -1.3379
  525SOL     OW 1573   2.129   1.931   0.467  0.1458 -0.2702  0.2873
  525SOL    HW1 1574   2.117   1.862   0.549  2.7185 -0.0659 -0.4380
  525SOL    HW2 1575   2.180   1.889   0.388 -0.7738 -0.8124  0.8655
  526SOL     OW 1576   0.416   1.532   1.554  0.3437  0.9818 -0.2468
  526SOL    HW1 1577   0.351   1.486   1.623 -2.0701  0.7539  0.7286
  526SOL    HW2 1578   0.500   1.471   1.538  2.1065  1.0303  1.6543
  527SOL     OW 1579   1.106   2.887   1.198  0.0961  0.0140  0.1505
  527SOL    HW1 1580   1.142   2.829   1.273 -0.2843  2.7029  0.3366
  527SOL    HW2 1581   1.146   2.986   1.204 -1.0346  2.3089 -2.3852
  528SOL     OW 1582   1.351   2.398   0.456  0.0034  0.0356 -0.2979
  528SOL    HW1 1583   1.374   2.296   0.440 -1.0182  0.0703 -1.2286
  528SOL    HW2 1584   1.398   2.433   0.542 -0.4810  0.1310  1.0419
  529SOL     OW 1585   1.824   1.736   0.789 -0.2778 -0.3391 -0.4251
  529SOL    HW1 1586   1.826   1.730   0.686 -1.3526  0.8922  1.6017
  529SOL    HW2 1587   1.856   1.828   0.824  1.0744  0.8196  1.3949
  530SOL     OW 1588   0.336   2.455   0.287  0.4072 -0.0954 -1.2099
  530SOL    HW1 1589   0.351   2.549   0.334  1.8463  3.6117  0.6536
  530SOL    HW2 1590   0.342   2.380   0.351 -4.1915  3.2886  1.6563
  531SOL     OW 1591   1.853   0.819   1.011 -0.1675  0.5723 -0.5390
  531SOL    HW1 1592   1.894   0.837   0.919  1.5428 -1.3001 -0.7330
  531SOL    HW2 1593   1.756   0.849   1.024  3.2418 -3.2309  2.1011
  532SOL     OW 1594   0.490   1.091   0.750  0.1314 -0.0196  0.2992
  532SOL    HW1 1595   0.503   1.111   0.649 -0.4394 -1.6678  2.1984
  532SOL    HW2 1596   0.461   0.993   0.766 -1.1342  0.4729 -0.0646
  533SOL     OW 1597   1.770   0.037   2.550 -0.2469 -0.3112  0.3157
  533SOL    HW1 1598   1.872   0.012   2.572 -0.0082 -0.5669  0.3621
  533SOL    HW2 1599   1.721   0.092   2.626 -2.9488  0.2713 -0.9806
  534SOL     OW 1600   0.395   0.174   1.559  0.3899  0.6448  0.1616
  534SOL    HW1 1601   0.496   0.175   1.586 -0.3393 -0.5833  1.3553
  534SOL    HW2 1602   0.349   0.267   1.540 -0.7903 -0.4267 -1.0217
  535SOL     OW 1603   1.937   0.343   0.185  0.2869  0.0264 -0.6577
  535SOL    HW1 1604   1.961   0.427   0.240 -0.3249 -1.0888  0.8587
  535SOL    HW2 1605   1.951   0.252   0.229  0.2019  3.4726 -0.5969
  536SOL     OW 1606   1.370   2.613   0.921 -0.1213 -0.4007 -0.7979
  536SOL    HW1 1607   1.320   2.568   1.006 -1.0736 -2.8069  1.8395
  536SOL    HW2 1608   1.300   2.650   0.848  1.3109  1.9390 -1.3099
  537SOL     OW 1609   0.841   0.266   2.369 -0.0945 -0.7919 -0.3990
  537SOL    HW1 1610   0.888   0.306   2.281  0.1020  1.1039 -0.8113
  537SOL    HW2 1611   0.800   0.168   2.351  2.1682  0.6104  1.2011
  538SOL     OW 1612   1.656   2.355   1.378  0.1261  0.5427  0.4636
  538SOL    HW1 1613   1.647   2.250   1.396 -2.5030  0.7704 -1.2848
  538SOL    HW2 1614   1.754   2.392   1.389  0.4636 -1.3004  0.4303
  539SOL     OW 1615   0.179   1.604   2.698  0.1187  0.0735  0.0114
  539SOL    HW1 1616   0.087   1.571   2.664  1.4303 -1.4482 -2.3769
  539SOL    HW2 1617   0.174   1.705   2.729 -1.4823 -0.6233  0.4990
  540SOL     OW 1618   2.664   1.709   1.909  0.2585  0.0541  0.0611
  540SOL    HW1 1619   2.608   1.648   1.971 -0.1958  0.1663 -1.7779
  540SOL    HW2 1620   2.628   1.806   1.899  0.2152 -1.8604  3.2777
  541SOL     OW 1621   0.554   2.161   0.025 -0.3824 -0.2883 -0.0480
  541SOL    HW1 1622   0.565   2.132   0.123 -1.8362  1.2614 -1.6498
  541SOL    HW2 1623   0.460   2.142  -0.016 -0.1812  0.8610 -1.0077
  542SOL     OW 1624   2.240   2.648   0.524  0.2060  0.9896  0.8405
  542SOL    HW1 1625   2.197   2.738   0.557 -0.2086 -0.4532  3.5629
  542SOL    HW2 1626   2.175   2.564   0.523  1.9522  0.1267 -1.0380
  543SOL     OW 1627   1.090   1.801   1.582  0.1674 -0.5586  0.6273
  543SOL    HW1 1628   1.108   1.840   1.677  1.3043 -0.3325  3.1121
  543SOL    HW2 1629   1.026   1.866   1.533  3.7742  0.2090  2.1186
  544SOL     OW 1630   1.166   0.520   0.165  0.5922  0.1238  0.0812
  544SOL    HW1 1631   1.106   0.437   0.188  0.5996 -0.6108 -1.1493
  544SOL    HW2 1632   1.187   0.533   0.062  2.2931  2.4587 -2.4135
  545SOL     OW 1633   1.114   1.852   0.772  0.1381 -0.0215  0.1198
  545SOL    HW1 1634   1.202   1.865   0.715  1.0351  1.7051  0.8611
  545SOL    HW2 1635   1.088   1.753   0.790  1.1908  0.3684 -0.5373
  546SOL     OW 1636   2.681   1.600   2.976 -0.4465  0.5268  0.2774
  546SOL    HW1 1637   2.669   1.701   2.982 -1.5087  0.2602  1.0945
  546SOL    HW2 1638   2.591   1.543   3.002  2.5168 -3.6484  0.7255
  547SOL     OW 1639   0.659   3.038   2.511  0.2835  0.2419  0.5122
  547SOL    HW1 1640   0.704   3.035   2.601 -0.7056  0.1424 -3.9927
  547SOL    HW2 1641   0.591   2.961   2.497 -1.6373 -1.1347 -1.2502
  548SOL     OW 1642   2.064   0.763   3.046 -0.1357 -0.0985 -0.4432
  548SOL    HW1 1643   1.966   0.731   3.042  0.5453 -0.9559  0.9235
  548SOL    HW2 1644   2.078   0.866   3.048 -1.4467 -1.0034 -0.2806
  549SOL     OW 1645   0.700   0.556   0.203 -0.2279  0.4390 -0.5744
  549SOL    HW1 1646   0.639   0.578   0.117 -0.5239 -3.8696 -2.9279
  549SOL    HW2 1647   0.779   0.620   0.218 -0.2634  1.8584  0.9625
  550SOL     OW 1648   2.567   2.801   2.851  0.1308 -0.2839  0.3897
  550SOL    HW1 1649   2.506   2.736   2.908 -1.1254 -0.6430  0.3619
  550SOL    HW2 1650   2.624   2.754   2.773  1.5460 -0.1651  1.0781
  551SOL     OW 1651   0.235   0.875   0.264  0.2912  0.0218 -0.4206
  551SOL    HW1 1652   0.332   0.905   0.267  1.9916 -0.7274  0.8142
  551SOL    HW2 1653   0.204   0.840   0.359  1.4226 -0.5011  0.0636
  552SOL     OW 1654   0.598   3.036   1.978  0.3831  0.2621 -0.1346
  552SOL    HW1 1655   0.591   3.115   2.046  1.3754 -0.8270 -0.8539
  552SOL    HW2 1656   0.693   3.024   1.939  2.1300  0.3646 -0.6763
  553SOL     OW 1657   2.987   2.397   0.381  0.6142 -0.2958  0.2065
  553SOL    HW1 1658   2.987   2.299   0.411 -1.0776  1.7785 -2.3225
  553SOL    HW2 1659   2.890   2.423   0.345 -2.9533 -1.7029  0.2326
  554SOL     OW 1660   2.211   0.376   0.523  0.1506 -0.4890  0.0067
  554SOL    HW1 1661   2.286   0.378   0.450 -0.7255 -0.1832  1.7668
  554SOL    HW2 1662   2.202   0.284   0.569 -1.2535  0.9236  0.6597
  555SOL     OW 1663   0.480   2.850   2.467 -0.3559  0.3882 -0.0403
  555SOL    HW1 1664   0.384   2.884   2.446  2.8779  3.3089  0.3396
  555SOL    HW2 1665   0.500   2.764   2.416 -0.2713 -2.0582  1.6461
  556SOL     OW 1666   0.815   2.461   1.603  0.3877 -0.4382  0.0881
  556SOL    HW1 1667   0.835   2.517   1.686 -2.8364 -3.0306  0.1190
  556SOL    HW2 1668   0.903   2.424   1.557  2.6960  1.3006 -2.3146
  557SOL     OW 1669   0.253   2.091   0.292  0.4047 -0.2482 -0.6692
  557SOL    HW1 1670   0.188   2.033   0.240  3.2858  1.4698  1.2429
  557SOL    HW2 1671   0.317   2.144   0.228 -0.4932  2.5049  3.6735
  558SOL     OW 1672   2.836   2.133   0.404  0.1149 -0.7418  0.0081
  558SOL    HW1 1673   2.779   2.216   0.434 -1.2666  2.8314 -1.3254
  558SOL    HW2 1674   2.803   2.066   0.327 -0.3191 -1.4148 -0.6169
  559SOL     OW 1675   0.401   2.334   1.442  0.0272 -0.7626  0.3513
  559SOL    HW1 1676   0.317   2.359   1.379 -2.2635  2.0464 -3.3186
  559SOL    HW2 1677   0.453   2.254   1.403 -2.2752 -2.4620  0.9298
  560SOL     OW 1678   2.126   1.035   3.096  0.3874 -0.7165 -0.0368
  560SOL    HW1 1679   2.180   1.061   3.185  0.2901  0.1982 -0.9048
  560SOL    HW2 1680   2.182   1.015   3.009 -2.8754 -0.3262  1.5931
  561SOL     OW 1681   0.030   1.929   0.180 -0.2404  0.5410  0.8921
  561SOL    HW1 1682  -0.020   1.876   0.254 -0.0018 -3.6152  1.0748
  561SOL    HW2 1683  -0.023   1.962   0.097 -0.4486  3.5225 -1.1547
  562SOL     OW 1684   1.096   2.082   2.269 -0.7774 -0.0546 -0.5153
  562SOL    HW1 1685   1.029   2.151   2.301  3.2845  0.3266 -1.1858
  562SOL    HW2 1686   1.073   1.983   2.297 -0.5501 -1.9512 -0.5016
  563SOL     OW 1687   0.660   2.531   2.660 -0.0667  0.1358  0.4436
  563SOL    HW1 1688   0.726   2.520   2.581  0.7700 -0.2402 -0.5717
  563SOL    HW2 1689   0.697   2.568   2.750 -0.1878  0.5423  0.4737
  564SOL     OW 1690   2.854   1.399   2.882 -0.0014  0.2826 -0.3476
  564SOL    HW1 1691   2.789   1.460   2.939 -1.6845  0.4961  1.3430
  564SOL    HW2 1692   2.914   1.456   2.826 -0.8322 -1.2618  0.9101
  565SOL     OW 1693   2.528   1.964   2.640  0.0486  0.3652 -0.0833
  565SOL    HW1 1694   2.501   2.043   2.581  0.5813  0.2094  0.7365
  565SOL    HW2 1695   2.607   1.992   2.698  0.9214 -0.7408 -1.2746
  566SOL     OW 1696   1.972   2.893   1.446 -0.4188 -0.3008 -0.2872
  566SOL    HW1 1697   1.967   2.794   1.480 -1.0816 -0.3550 -1.1500
  566SOL    HW2 1698   2.001   2.908   1.349 -2.6109  2.5413 -0.6061
  567SOL     OW 1699   2.386   0.021   2.329 -0.2272  0.2757  0.2881
  567SOL    HW1 1700   2.283   0.021   2.354 -2.3107 -0.5314  0.0798
  567SOL    HW2 1701   2.393   0.029   2.226 -0.4134 -1.5385 -1.4317
  568SOL     OW 1702   1.500   1.716   0.265  0.0942 -0.0224 -0.7512
  568SOL    HW1 1703   1.435   1.794   0.252 -0.7987  1.5568  0.1923
  568SOL    HW2 1704   1.598   1.744   0.253  1.3267 -0.1521  0.0562
  569SOL     OW 1705   0.259   0.592   0.896 -0.3470 -0.3297  0.0146
  569SOL    HW1 1706   0.290   0.538   0.809 -0.5358 -0.6171  1.0927
  569SOL    HW2 1707   0.167   0.560   0.924 -1.2788  2.4794  1.4965
  570SOL     OW 1708   0.635   0.867   2.909 -0.1225 -0.4843 -0.0487
  570SOL    HW1 1709   0.667   0.880   2.810  0.1253 -1.0217  1.0301
  570SOL    HW2 1710   0.636   0.956   2.969  2.6316  1.2210  2.1165
  571SOL     OW 1711   0.759   3.068   1.070 -0.0649  0.0278 -0.3781
  571SOL    HW1 1712   0.820   3.115   1.002  1.7969 -0.3132  2.4328
  571SOL    HW2 1713   0.779   2.969   1.081  0.3582  0.4237  1.9460
  572SOL     OW 1714   1.646   2.697   1.422  0.4556  0.6500  0.2162
  572SOL    HW1 1715   1.680   2.606   1.384 -1.1111 -2.9185  0.4682
  572SOL    HW2 1716   1.569   2.730   1.367  1.8964  0.4865  1.5114
  573SOL     OW 1717   3.058   0.489   1.935 -0.4046  0.0675 -0.8276
  573SOL    HW1 1718   3.066   0.386   1.945 -0.2460 -0.5332 -2.1539
  573SOL    HW2 1719   3.074   0.523   1.838  0.1149  1.5216  3.5698
  574SOL     OW 1720   0.143   1.661   1.110 -0.1773  0.2616 -0.4981
  574SOL    HW1 1721   0.165   1.635   1.206 -4.9334 -0.5612  0.4274
  574SOL    HW2 1722   0.111   1.761   1.103  0.2744  1.3697 -0.9004
  575SOL     OW 1723   0.873   2.235   0.992  0.5619  0.2372  0.0712
  575SOL    HW1 1724   0.852   2.279   1.080 -0.7244 -1.6794 -0.8391
  575SOL    HW2 1725   0.902   2.304   0.918 -0.4164  2.3595  0.1759
  576SOL     OW 1726   2.945   2.999   1.723 -0.2183  0.1676 -0.3841
  576SOL    HW1 1727   2.847   2.993   1.704  0.1730 -0.4817 -0.1912
  576SOL    HW2 1728   2.984   3.092   1.694 -0.7845 -3.3794 -0.8049
  577SOL     OW 1729   2.675   1.224   3.089 -0.2414 -0.1039 -0.7170
  577SOL    HW1 1730   2.694   1.133   3.046 -0.1286  2.7032 -3.1856
  577SOL    HW2 1731   2.714   1.234   3.183  3.5295  4.4755 -1.8025
  578SOL     OW 1732   1.401   2.743   2.543 -0.4383 -0.4430 -0.2702
  578SOL    HW1 1733   1.309   2.745   2.491  0.5328 -0.0823  0.1124
  578SOL    HW2 1734   1.471   2.805   2.496  1.2105  0.3873  0.5040
  579SOL     OW 1735   0.084   2.416   0.168  0.3995 -0.1785 -0.2012
  579SOL    HW1 1736   0.026   2.395   0.252  0.7719  2.5248  0.9707
  579SOL    HW2 1737   0.174   2.457   0.191 -0.0255 -1.6562 -2.4367
  580SOL     OW 1738   0.950   2.687   0.409 -0.0680 -0.5075  0.0507
  580SOL    HW1 1739   1.016   2.675   0.327 -3.5018 -2.0444 -2.2941
  580SOL    HW2 1740   0.858   2.727   0.380 -0.8545  2.3824 -0.5885
  581SOL     OW 1741   1.290   2.709   1.451 -0.0851  0.6493  0.6108
  581SOL    HW1 1742   1.352   2.623   1.457 -1.3139 -3.7224  0.1094
  581SOL    HW2 1743   1.333   2.789   1.406  2.3840 -0.7473  1.3002
  582SOL     OW 1744   1.511   0.069   1.911  0.0597 -0.4737 -0.5758
  582SOL    HW1 1745   1.545   0.118   1.997 -0.6980 -0.1350  0.1103
  582SOL    HW2 1746   1.564   0.098   1.830  0.2451 -0.3908 -1.2540
  583SOL     OW 1747   2.446   3.031   0.529 -0.2192 -0.9340 -1.0797
  583SOL    HW1 1748   2.509   2.965   0.481  1.5324  3.3361 -0.0480
  583SOL    HW2 1749   2.367   2.980   0.580  2.5730 -1.7509  0.1326
  584SOL     OW 1750   1.586   1.109   2.256 -0.5214 -0.3212 -0.5484
  584SOL    HW1 1751   1.637   1.196   2.252  0.5267 -0.4049  2.3583
  584SOL    HW2 1752   1.650   1.039   2.283 -2.3320  3.6089  0.1048
  585SOL     OW 1753   2.027   2.666   2.883 -0.3786 -0.1424  0.1755
  585SOL    HW1 1754   2.026   2.571   2.848 -0.0998  1.3789  0.8657
  585SOL    HW2 1755   1.929   2.696   2.891 -1.4193  0.7163 -0.6518
  586SOL     OW 1756   2.951   0.383   1.608 -0.0973  0.0900 -0.0597
  586SOL    HW1 1757   2.936   0.465   1.670 -0.0249  4.9738  1.5251
  586SOL    HW2 1758   2.865   0.359   1.551 -0.7133  0.5513  1.0755
  587SOL     OW 1759   2.155   1.460   2.750  0.3802  0.2900  0.4997
  587SOL    HW1 1760   2.151   1.399   2.666  0.1403 -0.1136  1.7307
  587SOL    HW2 1761   2.250   1.493   2.765  1.0215 -0.6331  1.5326
  588SOL     OW 1762   0.514   2.643   2.304 -0.7380 -0.8633 -0.1275
  588SOL    HW1 1763   0.502   2.675   2.207  0.6612  1.1505 -1.1011
  588SOL    HW2 1764   0.444   2.568   2.331  1.1755  2.3042 -0.9939
  589SOL     OW 1765   2.181   1.347   2.495 -0.2282  0.4431  0.2636
  589SOL    HW1 1766   2.112   1.296   2.439  1.0743  0.9014  2.3502
  589SOL    HW2 1767   2.278   1.320   2.476  1.2859  0.7453 -1.8955
  590SOL     OW 1768   2.303   1.695   2.087 -0.3725  0.1441  0.1057
  590SOL    HW1 1769   2.383   1.630   2.074  1.0646  0.6248  0.8228
  590SOL    HW2 1770   2.304   1.720   2.188 -2.3692 -1.2653 -0.6841
  591SOL     OW 1771   1.331   2.443   0.169  0.4118  0.2971 -0.1278
  591SOL    HW1 1772   1.352   2.358   0.116 -0.9563  4.1623 -0.2825
  591SOL    HW2 1773   1.310   2.425   0.273 -0.2440  0.1498  2.9343
  592SOL     OW 1774   1.775   2.356   0.809  0.2143 -0.2588  0.2865
  592SOL    HW1 1775   1.762   2.381   0.709  0.5527  0.0084  0.5367
  592SOL    HW2 1776   1.853   2.404   0.853 -0.4054 -1.8168 -2.5401
  593SOL     OW 1777   0.752   0.301   0.221 -0.2471  0.0658 -0.0552
  593SOL    HW1 1778   0.817   0.290   0.140 -1.8447 -2.0842 -3.3369
  593SOL    HW2 1779   0.711   0.397   0.220  1.8253 -0.3046 -1.0695
  594SOL     OW 1780   1.087   1.798   2.665  0.3075 -0.1004  0.0831
  594SOL    HW1 1781   1.189   1.796   2.636 -0.7192 -2.6149  1.3398
  594SOL    HW2 1782   1.078   1.850   2.757  1.7121  0.8907 -3.8626
  595SOL     OW 1783   1.523   0.140   0.994  0.4073  0.2628  0.2425
  595SOL    HW1 1784   1.593   0.065   0.969 -2.2815  0.5667  0.0950
  595SOL    HW2 1785   1.426   0.123   0.967  2.4989  2.5954 -1.5475
  596SOL     OW 1786   0.151   1.409   2.216  0.5126 -0.8930 -0.2865
  596SOL    HW1 1787   0.086   1.336   2.242  0.5255 -0.2907  0.4842
  596SOL    HW2 1788   0.184   1.463   2.301  1.2286  0.3975  0.5225
  597SOL     OW 1789   2.021   2.691   1.827 -0.8251  0.1012  0.2587
  597SOL    HW1 1790   1.978   2.653   1.741  0.5127  2.6545  2.6052
  597SOL    HW2 1791   2.129   2.689   1.824  0.3450  0.2382 -1.4848
  598SOL     OW 1792   2.481   2.849   1.295 -0.2670 -0.3328 -0.0674
  598SOL    HW1 1793   2.552   2.912   1.333 -1.4636  0.9257 -1.1206
  598SOL    HW2 1794   2.519   2.755   1.288  1.4220  1.1696  1.0604
  599SOL     OW 1795   2.876   0.269   2.526 -0.1714 -0.1324  0.7492
  599SOL    HW1 1796   2.966   0.276   2.470  0.8893  2.9841 -1.1656
  599SOL    HW2 1797   2.798   0.332   2.491 -0.7650 -0.1023 -2.8184
  600SOL     OW 1798   2.786   1.160   2.773 -0.5634 -0.0603 -0.0223
  600SOL    HW1 1799   2.736   1.091   2.835  0.8309 -2.7455 -0.8760
  600SOL    HW2 1800   2.822   1.243   2.819 -0.5429  0.2525  0.3113
  601SOL     OW 1801   2.964   1.341   1.984 -0.0674  0.3431 -0.6586
  601SOL    HW1 1802   2.898   1.396   1.922  0.3324  4.0526 -2.3014
  601SOL    HW2 1803   3.042   1.402   2.013 -1.7448 -0.6649 -1.7795
  602SOL     OW 1804   1.560   1.543   2.298 -0.0314 -0.1169 -0.0503
  602SOL    HW1 1805   1.473   1.557   2.354 -1.1737 -2.0816 -1.4996
  602SOL    HW2 1806   1.638   1.591   2.344  0.1587 -0.1753  2.0468
  603SOL     OW 1807   0.597   1.209   2.694 -0.0885 -0.4876 -0.1332
  603SOL    HW1 1808   0.513   1.257   2.654  0.8421  0.9411 -1.3455
  603SOL    HW2 1809   0.610   1.115   2.657  0.9087 -0.7751  0.9990
  604SOL     OW 1810   2.537   1.078   0.224  0.2653 -0.0351  0.4378
  604SOL    HW1 1811   2.628   1.127   0.235  0.4893 -0.0597  1.9616
  604SOL    HW2 1812   2.536   0.994   0.161  1.2756 -2.5682  1.0295
  605SOL     OW 1813   2.576   1.189   1.906  0.4039  0.4988 -0.2989
  605SOL    HW1 1814   2.605   1.101   1.864 -1.4302  1.4536  0.3379
  605SOL    HW2 1815   2.646   1.233   1.964 -1.6145 -0.6800 -0.1746
  606SOL     OW 1816   1.536   2.466   2.582  0.2997  0.3091  0.7327
  606SOL    HW1 1817   1.479   2.549   2.590 -0.2369 -1.6906 -3.8409
  606SOL    HW2 1818   1.487   2.378   2.549  0.8395 -1.2254  0.0759
  607SOL     OW 1819   1.253   1.589   0.260  0.1500  0.3339  0.4803
  607SOL    HW1 1820   1.184   1.668   0.268  0.3924  1.1811  0.1183
  607SOL    HW2 1821   1.349   1.628   0.262 -0.1592 -2.6967  1.8883
  608SOL     OW 1822   1.371   2.809   0.342  0.0843 -0.2117 -0.0643
  608SOL    HW1 1823   1.443   2.838   0.274 -0.8733 -0.0556  0.6703
  608SOL    HW2 1824   1.346   2.889   0.401  2.6000 -0.2603 -0.6543
  609SOL     OW 1825   1.304   1.338   0.179 -0.1326 -0.8325  0.1870
  609SOL    HW1 1826   1.280   1.435   0.206  0.7131  0.3443  0.0904
  609SOL    HW2 1827   1.260   1.304   0.085 -0.3474 -2.4372 -2.5066
  610SOL     OW 1828   3.023   1.216   2.213  0.6113  0.2325 -0.4681
  610SOL    HW1 1829   2.977   1.127   2.257 -1.3195 -0.8775 -1.0623
  610SOL    HW2 1830   2.973   1.251   2.126 -0.9749 -0.9759 -1.6209
  611SOL     OW 1831   2.560   0.194   1.147 -0.0199 -0.4259 -0.1894
  611SOL    HW1 1832   2.502   0.123   1.193  0.2431  1.3390  0.8582
  611SOL    HW2 1833   2.651   0.213   1.188  0.5563 -0.7809 -1.5626
  612SOL     OW 1834   0.763   2.354   1.235  0.0961  0.2979  0.8603
  612SOL    HW1 1835   0.679   2.295   1.270 -1.0219 -0.9234  0.3388
  612SOL    HW2 1836   0.724   2.444   1.197 -0.7121 -0.1119 -1.2570
  613SOL     OW 1837   0.776   1.386   2.375 -0.1348 -0.0637 -0.2320
  613SOL    HW1 1838   0.820   1.446   2.301 -0.9438  1.3679 -1.6780
  613SOL    HW2 1839   0.760   1.285   2.350  0.4212 -2.5035 -0.8061
  614SOL     OW 1840   1.509   1.646   1.888 -0.2139  0.1112  0.5746
  614SOL    HW1 1841   1.472   1.730   1.836 -1.2362  1.9680  0.9843
  614SOL    HW2 1842   1.607   1.665   1.919  3.5001  1.5652  1.8876
  615SOL     OW 1843   0.723   1.467   1.722 -0.2622  0.3826 -0.3553
  615SOL    HW1 1844   0.704   1.409   1.643  0.3801 -2.0336 -0.2522
  615SOL    HW2 1845   0.798   1.539   1.704 -0.3608  0.6991 -0.7886
  616SOL     OW 1846   1.128   1.562   2.201  0.6033  0.5087 -0.4878
  616SOL    HW1 1847   1.030   1.529   2.196  0.6950 -0.5211 -1.7501
  616SOL    HW2 1848   1.163   1.593   2.110 -1.1198  1.3344  1.0636
  617SOL     OW 1849   3.003   1.575   1.644 -0.5303  0.3717  0.1256
  617SOL    HW1 1850   2.958   1.506   1.706 -1.1359  0.6777 -2.4121
  617SOL    HW2 1851   3.029   1.533   1.554 -1.6521 -0.1169  0.0554
  618SOL     OW 1852   1.901   1.991   1.469  0.3500  0.5888 -0.4719
  618SOL    HW1 1853   1.981   1.995   1.407 -0.2170 -1.6975 -0.2663
  618SOL    HW2 1854   1.894   1.899   1.518 -0.3990  3.0423 -0.1258
  619SOL     OW 1855   1.777   0.537   2.356  0.2834  0.1425  0.2410
  619SOL    HW1 1856   1.700   0.596   2.319  0.2778  4.5037 -0.3092
  619SOL    HW2 1857   1.745   0.438   2.367 -0.1634  0.3962 -0.3620
  620SOL     OW 1858   2.241   2.904   0.672 -0.7759 -0.0498 -0.3589
  620SOL    HW1 1859   2.175   2.978   0.658 -1.2294 -2.2517  0.8128
  620SOL    HW2 1860   2.283   2.902   0.768 -2.6083 -1.5162  0.9027
  621SOL     OW 1861   2.168   1.902   1.348 -0.4493 -0.1784  0.0909
  621SOL    HW1 1862   2.171   1.870   1.449  0.8531 -1.9759 -2.4629
  621SOL    HW2 1863   2.136   1.823   1.289  1.0044 -0.5645  2.2310
  622SOL     OW 1864   2.226   1.009   1.851 -0.0877 -0.0449 -0.1606
  622SOL    HW1 1865   2.297   0.933   1.858  1.0211 -1.4375  0.4992
  622SOL    HW2 1866   2.139   0.988   1.897  1.9995 -2.9681  1.3760
  623SOL     OW 1867   1.293   0.914   2.568 -0.3010  0.5011 -0.1656
  623SOL    HW1 1868   1.257   0.834   2.617  2.6531  1.5673  0.5264
  623SOL    HW2 1869   1.243   0.942   2.483  0.7791  2.8045  0.4447
  624SOL     OW 1870   0.542   0.696   0.017  0.4947 -0.5242 -0.4762
  624SOL    HW1 1871   0.551   0.761  -0.065 -3.4935  4.5503 -2.4540
  624SOL    HW2 1872   0.527   0.737   0.110  0.7438  2.6244  0.0951
  625SOL     OW 1873   2.782   1.741   0.798  0.2000  0.0012 -0.2688
  625SOL    HW1 1874   2.721   1.778   0.872 -0.6536 -0.1764 -0.5061
  625SOL    HW2 1875   2.729   1.670   0.742 -1.6796 -0.3500  2.6375
  626SOL     OW 1876   0.413   2.775   2.043 -0.8064  0.3110  0.7418
  626SOL    HW1 1877   0.454   2.856   2.095 -0.9808  1.9844  0.5313
  626SOL    HW2 1878   0.357   2.807   1.959 -0.3951  1.4671 -1.7160
  627SOL     OW 1879   0.739   1.028   1.501 -0.7539 -0.3148 -0.1024
  627SOL    HW1 1880   0.765   0.926   1.490  0.7425  0.0961 -1.3518
  627SOL    HW2 1881   0.772   1.083   1.422  0.1470  2.9176 -2.4761
  628SOL     OW 1882   2.435   0.145   0.696  0.3713 -0.0374 -0.2848
  628SOL    HW1 1883   2.454   0.057   0.648  0.6874 -1.9727 -1.7652
  628SOL    HW2 1884   2.332   0.168   0.711 -1.0798  1.7375  1.2258
  629SOL     OW 1885   1.975   0.955   1.962 -0.0284  0.0150 -0.4585
  629SOL    HW1 1886   2.000   0.969   2.061  0.0326  1.4675 -3.0802
  629SOL    HW2 1887   1.948   1.048   1.922 -1.1188  1.3841 -0.4955
  630SOL     OW 1888   2.830   2.204   0.751  0.4317 -0.3252  0.0736
  630SOL    HW1 1889   2.740   2.245   0.772 -0.3339  1.8406  2.4540
  630SOL    HW2 1890   2.817   2.112   0.705  0.6262  2.4817  0.2583
  631SOL     OW 1891   2.982   0.211   2.140  0.7198 -0.8463  0.2563
  631SOL    HW1 1892   3.025   0.286   2.204  2.7227 -0.7929  0.7993
  631SOL    HW2 1893   3.045   0.187   2.059 -0.5824  0.2778  1.1297
  632SOL     OW 1894   2.358   2.513   0.765  0.9909  0.2980  0.2278
  632SOL    HW1 1895   2.431   2.588   0.778 -2.4977  1.4526 -0.4725
  632SOL    HW2 1896   2.318   2.534   0.671  1.4336  0.0622 -2.3234
  633SOL     OW 1897   1.594   1.279   2.684 -0.2265  0.2118  0.4330
  633SOL    HW1 1898   1.580   1.354   2.757 -0.8864 -0.5145  1.4778
  633SOL    HW2 1899   1.515   1.270   2.617  0.2718  2.6086  1.1522
  634SOL     OW 1900   0.645   2.089   0.921 -0.5860 -0.5005 -0.9717
  634SOL    HW1 1901   0.554   2.117   0.965  3.6954  0.8834  0.3459
  634SOL    HW2 1902   0.721   2.155   0.954  1.4373  2.4198 -1.4657
  635SOL     OW 1903   0.063   2.245   3.022  0.3355 -0.0646  0.3309
  635SOL    HW1 1904   0.000   2.291   2.958  1.1483  1.3201  3.8760
  635SOL    HW2 1905   0.074   2.294   3.112  3.7814 -3.6820 -0.9615
  636SOL     OW 1906   2.320   2.884   2.034  0.0725 -0.0885 -0.2995
  636SOL    HW1 1907   2.282   2.978   2.020  0.1524 -1.4645 -1.6325
  636SOL    HW2 1908   2.262   2.829   2.104  1.1469 -1.7930 -4.3571
  637SOL     OW 1909   2.609   0.720   2.068 -0.3931 -0.1044  0.0662
  637SOL    HW1 1910   2.552   0.728   1.980 -2.2097  1.7550 -1.8272
  637SOL    HW2 1911   2.667   0.804   2.090  2.0074 -0.3902  3.0215
  638SOL     OW 1912   2.442   1.902   1.422 -0.7476  0.0879 -0.0271
  638SOL    HW1 1913   2.343   1.905   1.403  3.3146  1.0876  1.3460
  638SOL    HW2 1914   2.490   1.813   1.437  0.6529 -0.1741  1.5076
  639SOL     OW 1915   1.298   2.246   1.550 -0.5728 -0.4709 -0.2255
  639SOL    HW1 1916   1.277   2.177   1.478  1.0654 -3.2769  1.9537
  639SOL    HW2 1917   1.228   2.247   1.631  0.3795  0.9154  2.4869
  640SOL     OW 1918   0.223   1.238   1.505  0.1306 -0.6900  0.3965
  640SOL    HW1 1919   0.209   1.296   1.586  1.9186 -2.7225 -1.5180
  640SOL    HW2 1920   0.315   1.188   1.513 -0.1411  0.2622  0.9401
  641SOL     OW 1921   1.909   0.253   1.421 -0.8941  0.3729 -0.1003
  641SOL    HW1 1922   1.840   0.322   1.466  0.4106 -0.6121  0.9136
  641SOL    HW2 1923   1.917   0.165   1.478  1.5030 -3.4568  1.0268
  642SOL     OW 1924   2.012   0.103   0.322  0.4352 -0.1685  0.4836
  642SOL    HW1 1925   2.115   0.106   0.339 -0.2548  2.2579  1.0320
  642SOL    HW2 1926   1.958   0.078   0.411  0.7332  1.0302  2.2912
  643SOL     OW 1927   2.808   1.889   2.136 -0.1238  0.4915  0.0434
  643SOL    HW1 1928   2.763   1.806   2.094 -0.1601 -2.4124  3.4120
  643SOL    HW2 1929   2.842   1.952   2.061  0.5619 -0.8429 -0.7376
  644SOL     OW 1930   2.176   2.265   1.235  0.4178  0.1437 -0.5059
  644SOL    HW1 1931   2.264   2.211   1.216  2.4014 -1.9413  1.5910
  644SOL    HW2 1932   2.173   2.298   1.333 -2.3075  1.1930  0.3151
  645SOL     OW 1933   0.695   0.845   1.135  0.0773 -0.2696 -0.6716
  645SOL    HW1 1934   0.641   0.785   1.071  2.9855  0.8857 -2.4851
  645SOL    HW2 1935   0.693   0.943   1.107 -1.9326 -1.9762 -4.6702
  646SOL     OW 1936   1.446   1.918   1.783 -0.0040 -0.9937  0.0066
  646SOL    HW1 1937   1.535   1.975   1.781 -0.2618 -0.1166 -2.2768
  646SOL    HW2 1938   1.389   1.951   1.867 -1.2325  0.1740  2.2142
  647SOL     OW 1939   0.896   0.922   0.700 -0.1436  0.0757  0.1422
  647SOL    HW1 1940   0.982   0.890   0.752  1.4727  0.1462 -1.7992
  647SOL    HW2 1941   0.811   0.893   0.750 -0.1862  0.6199 -0.3210
  648SOL     OW 1942   0.127   0.248   0.327 -1.0877 -0.1767 -0.0246
  648SOL    HW1 1943   0.043   0.190   0.297 -1.2107  1.4006  0.2334
  648SOL    HW2 1944   0.144   0.332   0.261  4.1276  2.6211 -2.0372
  649SOL     OW 1945   3.093   0.019   0.959  0.3305 -0.3042 -0.2762
  649SOL    HW1 1946   3.188   0.005   0.914  0.9116  1.5615  2.1377
  649SOL    HW2 1947   3.093   0.056   1.055 -1.1519 -1.1152  0.6009
  650SOL     OW 1948   2.720   0.725   1.443  0.2255 -0.1349  0.2314
  650SOL    HW1 1949   2.629   0.683   1.465  0.5719  1.2880 -2.2160
  650SOL    HW2 1950   2.705   0.807   1.384 -1.1485 -4.0277 -1.1858
  651SOL     OW 1951   0.919   1.586   1.531 -0.2159 -0.0012 -0.3956
  651SOL    HW1 1952   0.997   1.659   1.545  2.8417  2.1418 -1.0162
  651SOL    HW2 1953   0.831   1.623   1.498 -1.4116  0.6698 -0.1198
  652SOL     OW 1954   2.275   2.516   2.391  0.1941 -0.1173 -0.5038
  652SOL    HW1 1955   2.184   2.510   2.437 -1.8528  0.8865 -0.5200
  652SOL    HW2 1956   2.276   2.609   2.342  1.6474 -0.4135  3.0555
  653SOL     OW 1957   2.777   1.171   0.268  0.6164 -0.5075 -0.3932
  653SOL    HW1 1958   2.820   1.268   0.287 -1.9158  1.2264  3.5813
  653SOL    HW2 1959   2.838   1.096   0.297  0.1810  3.5191 -0.2371
  654SOL     OW 1960   1.203   2.223   1.221 -0.2748 -0.1070 -0.1599
  654SOL    HW1 1961   1.242   2.145   1.283 -3.8549 -1.6745  0.9857
  654SOL    HW2 1962   1.243   2.209   1.125 -0.7828 -2.3408 -0.5260
  655SOL     OW 1963   0.248   1.067   1.876  0.0397  0.5373  0.9175
  655SOL    HW1 1964   0.284   0.983   1.819  1.5106  0.8950 -0.8983
  655SOL    HW2 1965   0.326   1.134   1.886 -3.2698 -1.7175 -0.6634
  656SOL     OW 1966   2.486   2.425   2.579 -0.2174 -0.3457 -0.0012
  656SOL    HW1 1967   2.577   2.472   2.580 -1.5043  3.2484  2.0406
  656SOL    HW2 1968   2.421   2.458   2.503 -2.7884 -0.0472 -2.1553
  657SOL     OW 1969   3.053   1.108   1.870  0.0178 -0.6866  0.4661
  657SOL    HW1 1970   3.016   1.190   1.923  0.8373  0.7784 -2.1830
  657SOL    HW2 1971   3.157   1.112   1.865  0.4201  0.4239 -0.6822
  658SOL     OW 1972   1.687   0.233   2.372  0.0092 -0.1318 -0.3752
  658SOL    HW1 1973   1.723   0.157   2.440  1.7934 -0.9416  1.9309
  658SOL    HW2 1974   1.740   0.220   2.289  0.0832  2.9497  1.8635
  659SOL     OW 1975   1.403   0.615   2.849  0.0635  0.4296 -0.2353
  659SOL    HW1 1976   1.451   0.677   2.916 -0.7973  2.1829  0.8270
  659SOL    HW2 1977   1.327   0.666   2.796  0.8998 -0.5181 -2.5229
  660SOL     OW 1978   1.406   0.423   1.377 -0.4922  0.7646 -0.6892
  660SOL    HW1 1979   1.418   0.437   1.478 -2.3143  0.5245 -3.0062
  660SOL    HW2 1980   1.461   0.342   1.337 -2.4593 -3.0005  0.3514
  661SOL     OW 1981   2.466   1.130   0.666  0.1735 -0.0816 -0.1473
  661SOL    HW1 1982   2.470   1.070   0.580  1.1139 -1.2499 -0.5330
  661SOL    HW2 1983   2.436   1.226   0.646 -3.3507 -1.8048  0.2410
  662SOL     OW 1984   1.283   0.449   1.821 -0.5047 -0.2293  0.3995
  662SOL    HW1 1985   1.264   0.350   1.830  0.9586  1.4566 -3.0353
  662SOL    HW2 1986   1.222   0.509   1.876  2.5439 -0.7873 -2.6947
  663SOL     OW 1987   0.848   1.558   2.186 -0.8076 -0.0949  0.5331
  663SOL    HW1 1988   0.822   1.654   2.205  1.6915 -0.3884  1.3452
  663SOL    HW2 1989   0.792   1.509   2.114  2.2950  1.2071  1.1151
  664SOL     OW 1990   1.660   2.089   1.393  0.1258 -0.3563 -0.1846
  664SOL    HW1 1991   1.587   2.018   1.418 -1.5665  0.6780 -0.8828
  664SOL    HW2 1992   1.756   2.057   1.412  0.3991 -1.3755  0.6660
  665SOL     OW 1993   2.310   0.603   1.991  0.2107  0.1089  0.3002
  665SOL    HW1 1994   2.325   0.511   2.030  1.8503 -2.7460 -1.0939
  665SOL    HW2 1995   2.260   0.664   2.057 -0.7825  1.2530 -0.6107
  666SOL     OW 1996   0.482   2.266   0.477 -0.4169  0.0644 -0.6179
  666SOL    HW1 1997   0.522   2.362   0.473 -0.6723  0.0019 -0.5113
  666SOL    HW2 1998   0.432   2.247   0.566 -2.1219 -0.4549  1.0882
  667SOL     OW 1999   2.091   0.236   0.998 -0.0538 -0.5108  0.1307
  667SOL    HW1 2000   2.147   0.303   1.046 -0.1700 -1.6702  1.9093
  667SOL    HW2 2001   1.993   0.269   0.989  0.6516 -2.3291  0.2471
  668SOL     OW 2002   1.997   0.606   1.266  0.7475  1.2471  0.2395
  668SOL    HW1 2003   2.043   0.625   1.179  2.2786  1.4070  1.9386
  668SOL    HW2 2004   2.057   0.547   1.329 -1.5160  0.1762 -0.7917
  669SOL     OW 2005   3.005   2.086   0.954  0.7858  0.2243 -0.0722
  669SOL    HW1 2006   2.967   2.120   0.862 -1.7421  2.4207 -1.6867
  669SOL    HW2 2007   2.948   2.126   1.032 -2.5380 -0.4627  4.5439
  670SOL     OW 2008   2.775   2.325   2.011  0.1557  0.0122 -0.0796
  670SOL    HW1 2009   2.730   2.310   2.103 -1.2096 -1.3747  0.7257
  670SOL    HW2 2010   2.756   2.419   1.971  1.3916 -0.8453  0.8259
  671SOL     OW 2011   1.666   1.690   1.467 -0.8633  0.4340  0.2061
  671SOL    HW1 2012   1.666   1.718   1.369 -0.4330  0.1398  2.2094
  671SOL    HW2 2013   1.602   1.755   1.523  1.9979  0.5548 -1.3753
  672SOL     OW 2014   0.394   0.662   2.434 -0.5541 -0.2408  0.2318
  672SOL    HW1 2015   0.422   0.668   2.331  0.7185  0.0792 -1.8243
  672SOL    HW2 2016   0.308   0.710   2.456  1.8350 -3.5359  0.5809
  673SOL     OW 2017   0.150   1.235   1.107 -0.0277  0.2259 -1.1286
  673SOL    HW1 2018   0.164   1.330   1.140  0.7139 -0.0160 -0.2403
  673SOL    HW2 2019   0.237   1.187   1.094 -1.9023  0.4213 -1.8810
  674SOL     OW 2020   1.544   2.890   0.150  0.2774  0.1257 -0.1028
  674SOL    HW1 2021   1.562   2.985   0.107  0.7185  1.8445  1.7788
  674SOL    HW2 2022   1.611   2.819   0.123  2.2343  0.4219 -0.0421
  675SOL     OW 2023   1.723   0.880   2.375 -0.2396  0.4214  0.1976
  675SOL    HW1 2024   1.822   0.854   2.356 -1.4561  0.9493  1.6759
  675SOL    HW2 2025   1.655   0.814   2.324 -2.0209 -0.0059  2.0883
  676SOL     OW 2026   2.499   1.516   2.041  0.2049  0.3064 -0.0184
  676SOL    HW1 2027   2.476   1.486   1.945 -0.7489 -0.8937 -1.5077
  676SOL    HW2 2028   2.535   1.440   2.104  0.0404  0.4840 -0.0331
  677SOL     OW 2029   1.876   0.559   0.922  0.5888 -0.0184 -0.7477
  677SOL    HW1 2030   1.875   0.653   0.975  1.7745 -1.7629  1.1521
  677SOL    HW2 2031   1.805   0.489   0.957 -0.1669 -1.1075 -0.0723
  678SOL     OW 2032   0.088   0.821   1.656 -0.0939 -0.4769  0.0101
  678SOL    HW1 2033   0.188   0.837   1.682  1.9912 -1.6558  0.4213
  678SOL    HW2 2034   0.028   0.830   1.739  0.6831 -1.4699  0.0296
  679SOL     OW 2035   2.477   1.195   1.148 -0.6481  0.3343  0.1403
  679SOL    HW1 2036   2.423   1.177   1.237 -2.3098  0.0248  2.0345
  679SOL    HW2 2037   2.468   1.114   1.083 -2.6864 -0.3815 -1.7410
  680SOL     OW 2038   2.870   0.650   1.689  0.2878 -0.4840  0.2593
  680SOL    HW1 2039   2.826   0.685   1.600 -1.6987  1.0850  2.8590
  680SOL    HW2 2040   2.942   0.716   1.731  2.5232  1.8082  0.0357
  681SOL     OW 2041   3.065   0.144   1.638  0.6447 -0.1468 -0.1662
  681SOL    HW1 2042   3.135   0.127   1.563 -0.3021  0.2872  1.0709
  681SOL    HW2 2043   3.031   0.242   1.645 -0.7043  1.2338 -2.0062
  682SOL     OW 2044   0.730   3.083   1.374 -0.3268 -0.1252 -0.3553
  682SOL    HW1 2045   0.671   2.998   1.402 -3.3845 -0.5016  0.6501
  682SOL    HW2 2046   0.738   3.099   1.269  3.3435  2.2401 -2.7870
  683SOL     OW 2047   1.390   0.243   2.177  0.2397 -0.1084 -0.0562
  683SOL    HW1 2048   1.420   0.279   2.268  0.7882  0.8290  1.2171
  683SOL    HW2 2049   1.462   0.265   2.106 -0.4442  0.1830  0.7945
  684SOL     OW 2050   1.444   2.119   0.467  0.6383  0.4648  0.3365
  684SOL    HW1 2051   1.505   2.056   0.524  0.7031  0.5539  0.2622
  684SOL    HW2 2052   1.349   2.080   0.447  0.9429 -0.5045 -0.7963
  685SOL     OW 2053   2.125   1.950   1.955  0.6714  0.1029 -0.3498
  685SOL    HW1 2054   2.195   2.011   1.905  1.0775 -1.6468  0.9746
  685SOL    HW2 2055   2.173   1.863   1.991  1.0087  0.1527 -0.0831
  686SOL     OW 2056   1.532   1.737   2.777 -0.2196 -0.2405 -0.3067
  686SOL    HW1 2057   1.496   1.636   2.774 -0.5585  0.8205  0.2172
  686SOL    HW2 2058   1.562   1.762   2.873  0.3484 -1.4219 -1.9720
  687SOL     OW 2059   1.349   2.513   1.901 -0.2846 -0.4206 -0.0844
  687SOL    HW1 2060   1.365   2.420   1.864 -2.8016  2.8622 -0.8855
  687SOL    HW2 2061   1.403   2.532   1.986  1.6718 -1.7047 -0.7576
  688SOL     OW 2062   2.077   1.504   1.596 -0.5278  0.1580 -0.1383
  688SOL    HW1 2063   2.164   1.554   1.574 -1.8247 -0.5165 -0.0316
  688SOL    HW2 2064   2.036   1.472   1.502  0.3529  0.5861 -1.7784
  689SOL     OW 2065   2.433   1.076   2.697 -0.1010 -0.5757 -0.0211
  689SOL    HW1 2066   2.339   1.040   2.724  0.9394 -1.0986 -1.4590
  689SOL    HW2 2067   2.501   1.072   2.773  0.2416  0.4483 -2.6163
  690SOL     OW 2068   2.216   2.758   3.072  0.2250  0.4815 -0.0645
  690SOL    HW1 2069   2.150   2.699   3.011 -0.1149  0.1152 -0.6265
  690SOL    HW2 2070   2.173   2.816   3.147  0.3449 -2.9644 -1.0890
  691SOL     OW 2071   2.587   0.468   2.168  0.0498 -0.3191 -0.0493
  691SOL    HW1 2072   2.632   0.398   2.104 -0.7401 -2.2108  0.1081
  691SOL    HW2 2073   2.581   0.566   2.127  0.8030  1.0459  0.2686
  692SOL     OW 2074   2.742   1.225   0.677 -0.3083  0.8745 -0.3013
  692SOL    HW1 2075   2.636   1.215   0.677 -0.4618  1.1085 -1.4204
  692SOL    HW2 2076   2.780   1.314   0.717  2.7816  1.2988  2.3124
  693SOL     OW 2077   2.853   2.925   0.602 -0.3074 -0.4673  0.2030
  693SOL    HW1 2078   2.862   3.018   0.653  0.7627  1.1056  1.8418
  693SOL    HW2 2079   2.794   2.937   0.515 -1.1581 -1.0448  0.1184
  694SOL     OW 2080   2.380   2.114   0.078 -0.0295 -0.2435  0.1273
  694SOL    HW1 2081   2.364   2.217   0.073 -2.8968  3.7624 -2.7783
  694SOL    HW2 2082   2.297   2.056   0.066  1.4639  2.4090  0.4825
  695SOL     OW 2083   0.551   2.906   1.476  0.3052  0.0471 -0.0827
  695SOL    HW1 2084   0.486   2.821   1.465 -1.6002 -2.9343 -3.4604
  695SOL    HW2 2085   0.542   2.955   1.568 -0.0900 -1.5440  0.2776
  696SOL     OW 2086   2.730   1.963   0.653  0.1679  0.0047 -0.7104
  696SOL    HW1 2087   2.763   1.881   0.704 -0.3774 -2.2571 -0.9202
  696SOL    HW2 2088   2.653   1.940   0.587 -2.6272  4.1694  0.5333
  697SOL     OW 2089   1.673   2.071   1.727  0.1363 -0.2662 -0.4090
  697SOL    HW1 2090   1.754   2.029   1.778 -2.7958 -1.7650  1.2249
  697SOL    HW2 2091   1.697   2.110   1.633 -1.4630 -0.6022 -1.5364
  698SOL     OW 2092   2.915   0.316   2.784 -0.1127 -0.2699 -0.1823
  698SOL    HW1 2093   2.902   0.299   2.683  1.0479  3.8070  3.5119
  698SOL    HW2 2094   2.996   0.266   2.826  0.2666 -1.4688 -3.2128
  699SOL     OW 2095   1.527   0.119   2.929 -0.0605 -0.2115 -0.2370
  699SOL    HW1 2096   1.481   0.032   2.889  1.4274 -1.9279  2.0113
  699SOL    HW2 2097   1.600   0.156   2.863 -0.3230  1.1347  1.0700
  700SOL     OW 2098   0.987   2.366   1.408 -0.0334  0.3418  0.1482
  700SOL    HW1 2099   1.062   2.295   1.387 -2.3511  0.0071 -1.4394
  700SOL    HW2 2100   0.911   2.359   1.341  0.3923  1.7324 -0.3372
  701SOL     OW 2101   1.868   2.814   0.023 -0.0879 -0.2937 -0.2595
  701SOL    HW1 2102   1.892   2.748   0.098  1.8386  1.6577 -0.6069
  701SOL    HW2 2103   1.898   2.913   0.050  1.3859  1.1049 -0.9253
  702SOL     OW 2104   2.082   1.383   1.851 -0.2503 -0.7280 -0.6601
  702SOL    HW1 2105   2.176   1.331   1.859  0.2218  0.4131 -1.6766
  702SOL    HW2 2106   2.064   1.439   1.764 -0.1689  2.0517 -1.7876
  703SOL     OW 2107   2.002   0.853   1.468  0.0717  0.2719 -0.1749
  703SOL    HW1 2108   1.985   0.754   1.488  0.2285  2.7547  1.1185
  703SOL    HW2 2109   2.069   0.903   1.530  1.5117  0.2558  0.2060
  704SOL     OW 2110   0.303   2.056   1.786 -0.9714  0.3143  0.1515
  704SOL    HW1 2111   0.321   1.969   1.839 -4.8568 -0.2432 -0.3256
  704SOL    HW2 2112   0.383   2.119   1.762  4.4780  0.3748  0.0820
  705SOL     OW 2113   2.542   1.418   0.834 -0.0904 -0.1615  0.3089
  705SOL    HW1 2114   2.435   1.415   0.856 -1.2445 -0.8526  1.4277
  705SOL    HW2 2115   2.595   1.386   0.917  0.1263 -0.0598 -2.0170
  706SOL     OW 2116   0.646   1.765   1.910 -0.1456  0.2311 -0.5508
  706SOL    HW1 2117   0.660   1.670   1.960 -0.7223 -2.6555  3.1809
  706SOL    HW2 2118   0.716   1.840   1.938 -1.5320  0.2594 -1.6688
  707SOL     OW 2119   2.315   1.247   1.949  0.5016  0.0900 -0.1845
  707SOL    HW1 2120   2.417   1.228   1.948 -2.1673  1.0647 -1.8006
  707SOL    HW2 2121   2.261   1.159   1.937 -0.0311 -0.5308  1.6916
  708SOL     OW 2122   3.064   0.511   3.041 -0.0699  0.6342  0.4797
  708SOL    HW1 2123   3.133   0.570   2.985  0.4318  2.0091 -1.5386
  708SOL    HW2 2124   3.018   0.434   2.979 -1.5300 -0.9821 -4.0091
  709SOL     OW 2125   1.767   1.863   0.271 -0.0128  0.2239 -0.5942
  709SOL    HW1 2126   1.831   1.939   0.291  0.0940 -1.7965  0.0732
  709SOL    HW2 2127   1.736   1.868   0.169 -0.5605  0.2750 -3.7180
  710SOL     OW 2128   1.766   1.663   2.451  0.5317  0.4436 -0.4089
  710SOL    HW1 2129   1.831   1.634   2.370 -0.8393 -1.3709  1.5526
  710SOL    HW2 2130   1.799   1.617   2.538 -2.3023  2.3202 -0.3552
  711SOL     OW 2131   2.613   2.938   0.966 -0.6077 -0.5001 -0.1889
  711SOL    HW1 2132   2.631   3.032   0.925  1.6495 -2.0806  2.4792
  711SOL    HW2 2133   2.704   2.889   0.992 -2.1181 -0.9276 -0.7790
  712SOL     OW 2134   1.485   2.283   1.781  0.3649  0.5115  0.0987
  712SOL    HW1 2135   1.564   2.219   1.802  0.9459 -0.1179  1.2036
  712SOL    HW2 2136   1.440   2.250   1.693  1.4193 -0.7559  1.6110
  713SOL     OW 2137   2.836   1.363   2.473  0.2252 -0.1291 -0.4983
  713SOL    HW1 2138   2.814   1.260   2.467 -2.2125  0.4012  0.6797
  713SOL    HW2 2139   2.761   1.417   2.527 -1.4762  1.9008  3.6066
  714SOL     OW 2140   2.681   0.443   2.456  1.1435 -0.0628 -0.3293
  714SOL    HW1 2141   2.610   0.435   2.533  2.2607 -0.2832  1.3491
  714SOL    HW2 2142   2.644   0.413   2.362  0.1109 -0.9267 -1.2688
  715SOL     OW 2143   1.635   2.135   1.111  0.3541  0.2513  0.0101
  715SOL    HW1 2144   1.558   2.199   1.084 -0.8095 -0.6591 -3.7704
  715SOL    HW2 2145   1.650   2.125   1.214  1.1785  0.9917 -0.6446
  716SOL     OW 2146   1.224   0.214   1.458  0.1661 -0.0570 -0.1999
  716SOL    HW1 2147   1.120   0.222   1.457 -0.3785 -1.8541  2.8763
  716SOL    HW2 2148   1.273   0.305   1.450 -0.4026  2.1144 -0.3924
  717SOL     OW 2149   1.048   0.611   1.592 -0.2475 -0.0849 -0.6007
  717SOL    HW1 2150   1.145   0.642   1.606  0.2274 -0.6883  0.3318
  717SOL    HW2 2151   1.027   0.583   1.497 -0.0234  1.2252  0.9735
  718SOL     OW 2152   0.658   1.083   0.993 -0.0193 -0.1006  0.4254
  718SOL    HW1 2153   0.615   1.069   0.902 -0.6295  0.2972  3.0188
  718SOL    HW2 2154   0.718   1.165   0.996 -2.0422 -0.4551 -0.2423
  719SOL     OW 2155   0.742   1.829   2.238 -0.1155 -0.6752 -0.4043
  719SOL    HW1 2156   0.792   1.851   2.320 -1.0387  1.4081 -1.0979
  719SOL    HW2 2157   0.659   1.894   2.234 -1.9279  1.0358  0.7819
  720SOL     OW 2158   2.259   1.138   0.222  0.1659  0.0829 -0.4293
  720SOL    HW1 2159   2.360   1.132   0.192  1.4949  1.8023 -2.0709
  720SOL    HW2 2160   2.245   1.129   0.326 -0.7859  1.5182  1.2554
  721SOL     OW 2161   2.223   0.027   2.035  0.5959 -0.3669 -0.5502
  721SOL    HW1 2162   2.262   0.098   1.968  0.2609 -0.9440 -0.9401
  721SOL    HW2 2163   2.122   0.007   2.017  0.9053  0.0928 -2.7572
  722SOL     OW 2164   2.365   1.662   0.500  0.0438 -0.5388 -0.2663
  722SOL    HW1 2165   2.358   1.614   0.410 -0.3514 -1.2592  3.6712
  722SOL    HW2 2166   2.273   1.680   0.544  0.3175 -0.4599 -0.7920
  723SOL     OW 2167   2.565   2.845   1.895  0.0138  0.1670 -0.1081
  723SOL    HW1 2168   2.627   2.858   1.983 -0.4767  1.1058  0.6024
  723SOL    HW2 2169   2.468   2.869   1.915 -0.2356  1.3609  1.6664
  724SOL     OW 2170   0.354   2.422   2.394 -0.6678  0.0632 -0.8094
  724SOL    HW1 2171   0.262   2.472   2.397 -0.7629  0.3110 -2.3522
  724SOL    HW2 2172   0.389   2.406   2.491  0.1682  0.1239 -4.2840
  725SOL     OW 2173   2.265   2.768   1.456 -0.0430  0.1530  0.5745
  725SOL    HW1 2174   2.339   2.805   1.395 -2.8759  2.1846 -1.9132
  725SOL    HW2 2175   2.285   2.694   1.523 -1.4182  1.8004 -2.5225
  726SOL     OW 2176   2.386   2.239   0.800  0.2621 -0.1526  0.0210
  726SOL    HW1 2177   2.371   2.345   0.812  1.7210  0.3932  0.8446
  726SOL    HW2 2178   2.335   2.209   0.716 -3.1979 -0.2562  0.6705
  727SOL     OW 2179   0.233   3.070   0.160  0.2187 -0.4102  0.2235
  727SOL    HW1 2180   0.261   2.976   0.123 -1.7672 -3.1079 -0.9003
  727SOL    HW2 2181   0.283   3.149   0.114  0.0890 -0.1730 -0.5672
  728SOL     OW 2182   2.841   0.691   1.030  0.9039 -0.6324 -0.6092
  728SOL    HW1 2183   2.756   0.687   0.970 -0.4975 -0.4777  0.5434
  728SOL    HW2 2184   2.823   0.641   1.120  0.0122  3.5989  0.6466
  729SOL     OW 2185   2.915   2.465   0.754  0.7652  0.0895 -0.3431
  729SOL    HW1 2186   2.860   2.376   0.741  1.2689 -0.4855 -0.0424
  729SOL    HW2 2187   3.014   2.445   0.758 -2.8641  0.2860 -0.4257
  730SOL     OW 2188   2.613   0.588   0.876  0.0777  0.6072 -0.0267
  730SOL    HW1 2189   2.536   0.634   0.817  3.4885  0.7230 -1.9647
  730SOL    HW2 2190   2.698   0.565   0.822 -4.1459 -0.8938  0.2894
  731SOL     OW 2191   0.066   2.116   2.459  0.1409 -0.5305 -0.6457
  731SOL    HW1 2192   0.108   2.166   2.545 -1.0557  1.9662  2.0830
  731SOL    HW2 2193  -0.037   2.114   2.466  3.5485  1.0465 -0.2210
  732SOL     OW 2194   1.117   2.827   1.976 -0.5465 -0.0283 -0.2296
  732SOL    HW1 2195   1.155   2.786   2.065 -0.1393 -1.2158  0.7257
  732SOL    HW2 2196   1.163   2.785   1.893  1.0609  0.2714 -0.0496
  733SOL     OW 2197   3.034   0.715   2.106  0.0894 -0.3914 -0.0230
  733SOL    HW1 2198   3.112   0.785   2.105  0.0474 -0.5680  0.6124
  733SOL    HW2 2199   3.066   0.626   2.062  0.9904 -2.8261  2.7597
  734SOL     OW 2200   1.401   0.359   2.704 -0.5489 -0.1933  0.1270
  734SOL    HW1 2201   1.441   0.442   2.753  1.6257  1.7927  1.1222
  734SOL    HW2 2202   1.332   0.302   2.758  0.4068  1.5437 -0.3052
  735SOL     OW 2203   2.817   2.600   2.272 -0.2766  0.3271 -0.1923
  735SOL    HW1 2204   2.750   2.612   2.194  1.4160  2.9025  3.2473
  735SOL    HW2 2205   2.914   2.608   2.241 -0.5779  0.2939 -0.9030
  736SOL     OW 2206   0.784   0.382   2.653 -0.2330  0.7565 -0.0215
  736SOL    HW1 2207   0.742   0.472   2.647  0.1755 -1.6816 -2.1788
  736SOL    HW2 2208   0.796   0.348   2.554  3.0424  1.4376  0.9181
  737SOL     OW 2209   2.711   0.472   2.814  0.3176  0.4213  0.2336
  737SOL    HW1 2210   2.682   0.460   2.911  1.4623  1.2827  1.8103
  737SOL    HW2 2211   2.786   0.406   2.793  0.5403  2.0976 -1.1079
  738SOL     OW 2212   1.653   1.195   3.021 -0.3454 -0.4875 -0.2199
  738SOL    HW1 2213   1.758   1.188   3.015  1.2949 -2.0213 -3.4994
  738SOL    HW2 2214   1.615   1.109   2.979  1.8382 -1.5189  2.3157
  739SOL     OW 2215   1.745   0.606   0.688 -0.1684 -0.7768 -0.1747
  739SOL    HW1 2216   1.798   0.588   0.776  2.1348  0.4657 -0.9641
  739SOL    HW2 2217   1.792   0.550   0.611  2.3145 -0.0771  0.6261
  740SOL     OW 2218   1.911   1.987   2.145 -0.3795  0.5457  0.3826
  740SOL    HW1 2219   1.981   1.979   2.068  0.4563  0.4685 -0.5385
  740SOL    HW2 2220   1.828   1.928   2.135  0.3641  2.8637 -2.3322
  741SOL     OW 2221   2.496   0.139   2.549  0.2193 -0.7080 -0.2579
  741SOL    HW1 2222   2.592   0.100   2.563  2.4099 -0.8467 -1.8062
  741SOL    HW2 2223   2.445   0.096   2.465 -1.4309 -0.4126  0.2498
  742SOL     OW 2224   2.262   1.368   0.073 -0.0935  0.0021 -0.9223
  742SOL    HW1 2225   2.209   1.446   0.038  1.0438  2.7107 -1.9096
  742SOL    HW2 2226   2.204   1.289   0.102  0.1981  1.0580  2.7471
  743SOL     OW 2227   1.752   0.635   2.627 -0.1245  0.1995  0.5222
  743SOL    HW1 2228   1.767   0.578   2.546  1.8533  0.1721  3.2803
  743SOL    HW2 2229   1.662   0.686   2.624  0.1602  1.2774  0.0605
  744SOL     OW 2230   2.642   2.076   0.010  0.5394 -0.8421 -0.2708
  744SOL    HW1 2231   2.545   2.093   0.034  2.8268  1.5415  0.6105
  744SOL    HW2 2232   2.692   2.027   0.086 -0.5259  0.1626  2.5325
  745SOL     OW 2233   2.195   2.715   2.200  0.3667 -0.4981 -0.2141
  745SOL    HW1 2234   2.111   2.661   2.173  1.3400  1.9413  1.2592
  745SOL    HW2 2235   2.190   2.759   2.293  1.7385 -2.5535  0.6879
  746SOL     OW 2236   0.007   2.614   1.846 -0.0441 -0.0598  0.1903
  746SOL    HW1 2237   0.109   2.621   1.817  0.7821 -0.8471  0.8844
  746SOL    HW2 2238  -0.040   2.698   1.887  0.7896  2.4003 -0.7253
  747SOL     OW 2239   0.021   1.818   1.729 -0.1022  0.0492 -0.2295
  747SOL    HW1 2240  -0.017   1.724   1.704 -0.1442  0.0245  1.3596
  747SOL    HW2 2241   0.086   1.854   1.654  2.0137 -0.3186 -1.2722
  748SOL     OW 2242   1.759   2.756   2.887  0.1432 -0.3323 -0.2341
  748SOL    HW1 2243   1.787   2.782   2.984 -2.0712 -0.2619  0.4438
  748SOL    HW2 2244   1.669   2.786   2.855  2.3478 -1.6976  0.0951
  749SOL     OW 2245   1.280   0.064   0.875  0.2516 -0.3473  0.3534
  749SOL    HW1 2246   1.218  -0.020   0.876 -1.9620 -0.2332  2.5138
  749SOL    HW2 2247   1.317   0.081   0.777 -0.6372 -0.9425  0.1787
  750SOL     OW 2248   2.320   0.235   1.884 -1.0375  0.1829  0.2479
  750SOL    HW1 2249   2.367   0.302   1.810 -0.8330  1.0221  0.8842
  750SOL    HW2 2250   2.303   0.282   1.975 -1.6059  0.0486 -2.2765
  751SOL     OW 2251   0.827   2.236   2.860 -0.1830  0.1805  0.0806
  751SOL    HW1 2252   0.891   2.217   2.940  3.0952 -0.2763  0.9443
  751SOL    HW2 2253   0.752   2.165   2.860  0.5081  0.3911  2.7157
  752SOL     OW 2254   1.237   0.940   1.537  0.2532 -0.0876 -0.0117
  752SOL    HW1 2255   1.301   0.973   1.460 -0.1659 -0.1959  0.8623
  752SOL    HW2 2256   1.271   0.855   1.584 -2.1348 -0.3396  0.0349
  753SOL     OW 2257   0.930   2.618   1.806 -0.2265  0.8108 -0.6736
  753SOL    HW1 2258   1.031   2.638   1.780  3.2786 -0.1286  0.3085
  753SOL    HW2 2259   0.858   2.686   1.771 -1.2665  0.5986  0.7235
  754SOL     OW 2260   1.156   1.282   3.056  0.2076  0.2915  0.2355
  754SOL    HW1 2261   1.201   1.226   2.983 -2.8750  2.2423  1.5102
  754SOL    HW2 2262   1.147   1.385   3.030 -1.2670  0.8313 -0.9744
  755SOL     OW 2263   2.019   0.537   2.207  0.4048 -0.1107  0.1947
  755SOL    HW1 2264   2.082   0.481   2.266  1.4531 -0.6936  1.8592
  755SOL    HW2 2265   1.927   0.562   2.250  0.0005 -1.0120 -3.2300
  756SOL     OW 2266   2.634   0.974   2.921  0.2086  0.2380  0.2035
  756SOL    HW1 2267   2.716   0.916   2.910 -2.2583  2.2346 -1.2541
  756SOL    HW2 2268   2.567   0.935   2.990 -0.2976 -1.7465 -1.1827
  757SOL     OW 2269   0.092   0.533   1.688 -0.2601 -0.6206  0.5178
  757SOL    HW1 2270   0.145   0.624   1.697 -1.5788 -0.0099  0.1337
  757SOL    HW2 2271   0.121   0.476   1.608 -0.0302 -1.4477 -2.1857
  758SOL     OW 2272   2.443   3.100   1.514  0.6069  0.3585 -0.1412
  758SOL    HW1 2273   2.360   3.056   1.560  0.9954 -1.9216  0.1208
  758SOL    HW2 2274   2.420   3.120   1.411  1.8667 -0.9195 -0.1054
  759SOL     OW 2275   1.662   0.040   0.057  0.2398  0.9420 -0.6542
  759SOL    HW1 2276   1.621   0.080  -0.028  0.2005 -0.2903  0.9815
  759SOL    HW2 2277   1.765   0.020   0.059 -2.2738 -0.3579 -0.3836
  760SOL     OW 2278   2.734   1.999   2.818 -0.2597 -0.2572  0.0262
  760SOL    HW1 2279   2.764   1.896   2.818  1.4229 -1.0550 -1.9905
  760SOL    HW2 2280   2.808   2.066   2.789  0.0927 -2.5454  0.7093
  761SOL     OW 2281   1.908   1.721   1.598  0.0365 -0.4081 -0.0851
  761SOL    HW1 2282   1.976   1.645   1.605  0.6124 -0.8819  0.6674
  761SOL    HW2 2283   1.825   1.690   1.538  0.9570 -0.8323 -0.4259
  762SOL     OW 2284   0.535   2.419   0.980 -0.1529  0.2798  0.6251
  762SOL    HW1 2285   0.591   2.426   0.893 -1.6318  0.5769  0.3618
  762SOL    HW2 2286   0.541   2.504   1.035  0.2022  0.0558  2.5203
  763SOL     OW 2287   2.013   1.577   2.944 -0.2811  0.2533  0.1630
  763SOL    HW1 2288   2.068   1.519   2.874  0.1471 -0.1789 -3.0866
  763SOL    HW2 2289   1.959   1.516   3.014 -4.0140  1.2100  0.6770
  764SOL     OW 2290   0.666   0.543   0.869  0.0071  0.6114 -0.2236
  764SOL    HW1 2291   0.694   0.523   0.771  0.0884  0.2769 -0.4728
  764SOL    HW2 2292   0.755   0.549   0.923  1.1180  0.4240  0.7495
  765SOL     OW 2293   0.655   0.200   0.804  0.2456 -0.2071  0.1579
  765SOL    HW1 2294   0.749   0.177   0.766  2.6870  0.8656  0.5919
  765SOL    HW2 2295   0.654   0.216   0.908 -1.9521  1.7957 -0.4112
  766SOL     OW 2296   2.949   2.025   3.052  0.3541 -0.4432 -0.3383
  766SOL    HW1 2297   2.850   2.047   3.038  0.6513 -1.0413 -1.8655
  766SOL    HW2 2298   3.016   2.101   3.023  0.3889  1.7121 -3.7159
  767SOL     OW 2299   2.853   1.576   0.503  0.3411  0.1286  0.2850
  767SOL    HW1 2300   2.760   1.540   0.540 -1.9066  1.0033  1.0984
  767SOL    HW2 2301   2.919   1.597   0.579  0.4815 -0.7355  1.4436
  768SOL     OW 2302   1.056   0.282   0.290 -0.1819  0.3407  0.3794
  768SOL    HW1 2303   0.989   0.220   0.335 -2.0653 -0.1567  0.7452
  768SOL    HW2 2304   1.149   0.241   0.277 -2.3164  0.5954  2.5829
  769SOL     OW 2305   1.239   1.825   2.314  0.4681  0.2077  0.1267
  769SOL    HW1 2306   1.319   1.786   2.361 -0.9774  1.3272 -1.8961
  769SOL    HW2 2307   1.166   1.747   2.305 -2.9318 -2.4486 -1.6892
  770SOL     OW 2308   0.144   1.142   2.347  0.4090  0.2266 -0.2318
  770SOL    HW1 2309   0.127   1.207   2.429  0.6045 -0.4832 -2.0574
  770SOL    HW2 2310   0.067   1.151   2.280  0.3060 -2.1989  5.4280
  771SOL     OW 2311   2.953   2.818   1.938  0.5352 -0.7900  0.0747
  771SOL    HW1 2312   2.969   2.886   1.864 -0.8691  3.2813  1.4950
  771SOL    HW2 2313   2.887   2.856   2.015 -0.2473 -0.5847  0.0137
  772SOL     OW 2314   2.120   0.107   2.991  0.1976  0.3172 -0.0094
  772SOL    HW1 2315   2.197   0.040   3.002  0.0889 -0.5885  0.9509
  772SOL    HW2 2316   2.139   0.199   3.038 -1.3684 -0.0947  1.5141
  773SOL     OW 2317   0.679   2.114   2.484  0.7769  0.5291 -0.0393
  773SOL    HW1 2318   0.649   2.187   2.417  0.8230  0.4653 -2.3978
  773SOL    HW2 2319   0.625   2.119   2.576 -1.3686 -2.2651 -0.2945
  774SOL     OW 2320   2.022   3.086   2.665 -0.0489  1.0482  0.6625
  774SOL    HW1 2321   2.005   3.171   2.718 -0.1465 -0.4023 -2.9655
  774SOL    HW2 2322   2.072   3.016   2.724  0.8193 -0.1823  1.8637
  775SOL     OW 2323   2.488   2.877   2.377  0.1190 -0.0154  0.5415
  775SOL    HW1 2324   2.447   2.969   2.355 -0.0168 -0.6757 -3.0083
  775SOL    HW2 2325   2.583   2.886   2.412 -2.0349  3.6286 -1.1301
  776SOL     OW 2326   0.012   1.211   0.244 -0.0183 -0.1930  0.3622
  776SOL    HW1 2327  -0.026   1.229   0.148 -1.5973  0.2271 -1.6130
  776SOL    HW2 2328  -0.045   1.242   0.325 -1.2305 -2.5980  0.8527
  777SOL     OW 2329   0.291   2.683   0.441  0.4632 -0.7969 -0.4807
  777SOL    HW1 2330   0.187   2.664   0.441  0.4153 -3.1045 -0.9969
  777SOL    HW2 2331   0.318   2.781   0.451 -0.1759 -0.4250 -1.7262
  778SOL     OW 2332   1.325   1.940   0.189 -0.2507 -0.4287 -0.2504
  778SOL    HW1 2333   1.260   1.963   0.270 -1.0363  0.1996  0.0657
  778SOL    HW2 2334   1.360   2.024   0.139  1.6805  1.7152  1.3511
  779SOL     OW 2335   0.178   0.820   0.537 -0.4444  0.6566  0.3018
  779SOL    HW1 2336   0.137   0.732   0.501 -0.3822  1.3503  1.2547
  779SOL    HW2 2337   0.111   0.872   0.593 -1.3165 -2.3221 -1.7033
  780SOL     OW 2338   0.007   0.311   2.360 -0.3171 -0.0084 -0.3837
  780SOL    HW1 2339  -0.028   0.409   2.366  0.6331  0.1078 -0.8312
  780SOL    HW2 2340   0.102   0.307   2.322  0.7426  1.4515  1.2371
  781SOL     OW 2341   0.589   1.761   1.612 -0.0453  0.4162 -0.0251
  781SOL    HW1 2342   0.597   1.742   1.717  0.7268 -0.9518  0.1911
  781SOL    HW2 2343   0.507   1.722   1.566 -3.2605  2.3391  1.3189
  782SOL     OW 2344   2.646   0.132   0.883 -0.0923  0.7123  0.4505
  782SOL    HW1 2345   2.571   0.158   0.812 -0.6243 -4.4577 -0.6443
  782SOL    HW2 2346   2.617   0.163   0.980  0.4659 -0.6529 -0.8566
  783SOL     OW 2347   2.810   0.668   2.501 -0.1814 -0.0099  0.1038
  783SOL    HW1 2348   2.777   0.704   2.590 -1.3339 -2.5455  1.0185
  783SOL    HW2 2349   2.758   0.581   2.470  0.3253  0.5753  4.0848
  784SOL     OW 2350   1.383   2.193   0.027 -0.1394  0.7348 -0.0571
  784SOL    HW1 2351   1.485   2.205   0.063  2.5257 -0.6792 -0.1733
  784SOL    HW2 2352   1.381   2.187  -0.075  1.8182 -3.6105 -0.5634
  785SOL     OW 2353   2.151   0.339   0.011  0.4464 -0.3856 -0.1640
  785SOL    HW1 2354   2.068   0.347   0.069  0.9474  2.1992 -2.0085
  785SOL    HW2 2355   2.175   0.430  -0.026 -0.4312 -3.4595  2.5299
  786SOL     OW 2356   2.044   2.179   2.286 -0.2514  0.5738 -0.9523
  786SOL    HW1 2357   1.974   2.110   2.236 -2.4191  2.1774  1.3015
  786SOL    HW2 2358   2.136   2.132   2.311  0.8174 -0.9396 -1.6134
  787SOL     OW 2359   1.421   0.613   0.777 -0.4119  0.4066 -0.0021
  787SOL    HW1 2360   1.435   0.716   0.777  3.0421 -2.1915 -1.4413
  787SOL    HW2 2361   1.451   0.582   0.682 -2.6213 -2.3278 -1.7081
  788SOL     OW 2362   1.212   0.470   2.990  0.2812  0.0006 -0.6479
  788SOL    HW1 2363   1.110   0.474   2.969 -2.8880  0.5199  4.0692
  788SOL    HW2 2364   1.269   0.535   2.939 -2.2867 -3.9423 -1.3078
  789SOL     OW 2365   2.670   0.083   1.877  0.2063 -0.4157  0.0979
  789SOL    HW1 2366   2.574   0.123   1.883 -1.9943  2.4417 -0.7328
  789SOL    HW2 2367   2.673  -0.017   1.888  0.4270  1.8533  0.2991
  790SOL     OW 2368   2.617   2.657   0.818  0.0400 -0.2874  0.1602
  790SOL    HW1 2369   2.684   2.653   0.736  3.2557 -0.5970 -0.9469
  790SOL    HW2 2370   2.618   2.744   0.875 -3.4902 -3.2831  1.0768
  791SOL     OW 2371   1.958   1.205   0.208 -0.3533 -0.1849 -0.6828
  791SOL    HW1 2372   1.873   1.170   0.252 -0.6674  0.2363 -1.7256
  791SOL    HW2 2373   2.041   1.136   0.203  1.5978  1.9555  0.1540
  792SOL     OW 2374   0.433   1.969   2.199  0.4268  0.0959  0.2650
  792SOL    HW1 2375   0.447   2.074   2.195 -0.5245  1.5914  0.8780
  792SOL    HW2 2376   0.354   1.941   2.259  0.3216  0.0695  2.3734
  793SOL     OW 2377   2.097   1.492   2.102 -0.2965  0.1806 -0.5341
  793SOL    HW1 2378   2.176   1.556   2.104  3.8561 -2.9938 -1.6188
  793SOL    HW2 2379   2.077   1.437   2.021 -0.3741  3.2096  4.1295
  794SOL     OW 2380   0.531   1.520   2.451  0.5392  0.1827 -0.2833
  794SOL    HW1 2381   0.622   1.475   2.430  0.3368 -1.3812 -0.2938
  794SOL    HW2 2382   0.464   1.539   2.374 -0.5312  2.9789  4.2474
  795SOL     OW 2383   2.492   2.293   1.802 -0.4231  0.0992  0.2573
  795SOL    HW1 2384   2.493   2.339   1.891 -1.1636 -0.6897 -1.1886
  795SOL    HW2 2385   2.424   2.210   1.807 -0.2066 -1.1917 -0.3537
  796SOL     OW 2386   3.049   1.092   2.706  0.1191  0.2255 -0.4432
  796SOL    HW1 2387   2.949   1.118   2.740 -0.7895  0.4456  1.8660
  796SOL    HW2 2388   3.120   1.119   2.780  1.7554  0.8895 -0.5244
  797SOL     OW 2389   0.658   0.643   1.362  0.2700 -0.2481  0.2453
  797SOL    HW1 2390   0.736   0.702   1.400  1.4446  0.4167  1.4029
  797SOL    HW2 2391   0.619   0.699   1.283 -0.7415  0.5556  0.2089
  798SOL     OW 2392   1.186   0.519   0.909  0.2543  0.1378  0.1294
  798SOL    HW1 2393   1.211   0.528   1.007  0.1491  0.2678  1.4245
  798SOL    HW2 2394   1.267   0.523   0.843 -1.0228 -0.6030  0.4968
  799SOL     OW 2395   1.833   2.698   0.983 -0.4133  0.2352  0.1147
  799SOL    HW1 2396   1.833   2.607   1.028  0.2683 -2.8259 -2.6710
  799SOL    HW2 2397   1.870   2.689   0.886  1.3320  0.2055  0.8015
  800SOL     OW 2398   3.010   0.844   1.858  0.2732 -0.0301 -0.1331
  800SOL    HW1 2399   3.029   0.946   1.861  2.3560  0.4657 -0.7965
  800SOL    HW2 2400   2.990   0.796   1.948  1.7372  0.3435  1.9423
  801SOL     OW 2401   1.955   2.170   0.104  0.1450 -0.2068  0.0121
  801SOL    HW1 2402   1.897   2.149   0.022 -0.6858 -0.0515 -0.8025
  801SOL    HW2 2403   2.030   2.098   0.113 -2.9017 -1.4716  3.0853
  802SOL     OW 2404   0.677   0.638   2.566 -0.1888  0.3223  0.9764
  802SOL    HW1 2405   0.733   0.637   2.479 -0.8084  1.5229 -1.1455
  802SOL    HW2 2406   0.575   0.642   2.549 -1.1295  1.1521  0.2608
  803SOL     OW 2407   0.932   0.078   0.892  0.4786  0.1772 -0.3869
  803SOL    HW1 2408   0.977   0.151   0.957 -2.7993  0.4739  2.2173
  803SOL    HW2 2409   0.937   0.105   0.791 -1.3585  0.4807  0.2109
  804SOL     OW 2410   0.280   0.053   2.175 -0.0980  0.4939  0.0836
  804SOL    HW1 2411   0.236   0.141   2.199  1.8076  0.5499 -0.7460
  804SOL    HW2 2412   0.238  -0.003   2.101 -1.6974  0.1773  1.4942
  805SOL     OW 2413   2.410   0.392   0.330 -0.0700  0.2622  0.0762
  805SOL    HW1 2414   2.456   0.356   0.417  1.7615 -1.2313  1.8626
  805SOL    HW2 2415   2.424   0.321   0.248 -0.1126 -0.4571 -2.9607
  806SOL     OW 2416   0.569   2.633   1.856  0.1793  0.1691  0.4349
  806SOL    HW1 2417   0.523   2.686   1.936 -0.7037  0.3774  1.0193
  806SOL    HW2 2418   0.630   2.690   1.799 -0.8216  1.3960 -1.8764
  807SOL     OW 2419   2.512   0.953   0.472  0.0679 -0.0757  0.2055
  807SOL    HW1 2420   2.597   0.896   0.480 -1.3155  0.7262 -2.7960
  807SOL    HW2 2421   2.504   1.002   0.376  0.3547 -0.4782 -0.6926
  808SOL     OW 2422   0.671   2.021   2.910  0.2496 -0.0759  0.5808
  808SOL    HW1 2423   0.633   2.074   2.991  0.3563  1.0113 -0.8883
  808SOL    HW2 2424   0.681   1.915   2.925  0.3167 -1.0460 -2.0763
  809SOL     OW 2425   2.580   1.975   1.919 -0.4816 -0.1316  0.2211
  809SOL    HW1 2426   2.675   2.013   1.932  0.9278  0.7178 -0.4378
  809SOL    HW2 2427   2.545   1.996   1.824  1.2936  2.5389 -2.8955
  810SOL     OW 2428   2.196   1.110   0.502 -0.1095 -0.1429 -0.0771
  810SOL    HW1 2429   2.138   1.025   0.510 -2.9936  0.1313  3.8921
  810SOL    HW2 2430   2.152   1.193   0.540  0.1996 -0.9252  0.2378
  811SOL     OW 2431   1.290   2.484   1.148 -0.1496 -0.3946  0.0511
  811SOL    HW1 2432   1.292   2.383   1.143  0.9505 -2.1263 -0.4476
  811SOL    HW2 2433   1.315   2.509   1.244  0.0610  3.3348  0.4175
  812SOL     OW 2434   1.495   0.741   1.972  0.6277 -0.2367  0.8729
  812SOL    HW1 2435   1.413   0.702   1.922  0.2326  1.3361 -0.2531
  812SOL    HW2 2436   1.525   0.834   1.941 -0.2829  2.6094 -0.2037
  813SOL     OW 2437   1.680   2.064   2.391  0.3248 -0.3597 -0.2093
  813SOL    HW1 2438   1.747   1.994   2.434  1.1915 -0.4367  1.5754
  813SOL    HW2 2439   1.660   2.047   2.291  1.0441  1.9576 -0.5879
  814SOL     OW 2440   2.974   1.667   2.898  0.1686  0.0335  0.0711
  814SOL    HW1 2441   3.045   1.639   2.969  1.9604  1.5106  0.6016
  814SOL    HW2 2442   3.005   1.747   2.847 -0.3188 -0.3811  0.5950
  815SOL     OW 2443   2.174   2.859   2.726 -0.2318 -0.2912 -0.2912
  815SOL    HW1 2444   2.129   2.796   2.795 -2.4123 -0.7798 -0.6092
  815SOL    HW2 2445   2.258   2.911   2.765 -0.4128 -2.3807  0.7362
  816SOL     OW 2446   1.487   0.389   1.636  0.0223  0.5390 -0.0528
  816SOL    HW1 2447   1.538   0.300   1.657  0.4187 -1.6824  2.9625
  816SOL    HW2 2448   1.438   0.430   1.718  2.3146  0.4569  0.8970
  817SOL     OW 2449   0.360   1.308   2.605 -0.5229 -0.0627 -0.2662
  817SOL    HW1 2450   0.256   1.302   2.598  0.4985  0.8919 -0.5240
  817SOL    HW2 2451   0.410   1.386   2.554  3.1766 -3.9563  0.2011
  818SOL     OW 2452   2.010   0.862   0.459  0.2908 -0.0678 -0.0747
  818SOL    HW1 2453   2.112   0.836   0.470 -1.9660 -1.7070 -0.6956
  818SOL    HW2 2454   1.963   0.881   0.552  1.4873 -1.5499 -0.6147
  819SOL     OW 2455   2.798   2.910   2.991 -0.1885  0.2026 -0.9010
  819SOL    HW1 2456   2.866   2.838   2.952  2.6107 -0.5952 -0.3130
  819SOL    HW2 2457   2.712   2.910   2.931  0.1708  1.5369  0.6059
  820SOL     OW 2458   1.247   1.032   0.531 -0.3151 -0.2274  0.3717
  820SOL    HW1 2459   1.275   1.126   0.570 -3.8136  0.3656 -1.6569
  820SOL    HW2 2460   1.221   0.958   0.604  0.4190 -0.0847 -2.7128
  821SOL     OW 2461   0.050   1.238   0.699 -0.6104  0.0783  0.3161
  821SOL    HW1 2462  -0.001   1.221   0.793  2.3044 -0.5413  2.6717
  821SOL    HW2 2463   0.123   1.305   0.718  1.4047 -0.0814 -1.0955
  822SOL     OW 2464   2.533   1.747   2.468 -0.0216  0.4358 -0.2494
  822SOL    HW1 2465   2.538   1.811   2.550  0.3603 -0.2079  1.9876
  822SOL    HW2 2466   2.437   1.728   2.431 -0.1459  1.9131  0.6265
  823SOL     OW 2467   2.028   0.901   1.203 -0.0780 -0.5026 -0.8218
  823SOL    HW1 2468   2.001   0.883   1.300  0.5755  0.7154 -0.4373
  823SOL    HW2 2469   1.965   0.865   1.130  0.3803  3.3844  2.0703
  824SOL     OW 2470   0.189   1.862   2.818  0.2383 -0.5044  0.4419
  824SOL    HW1 2471   0.213   1.830   2.917 -2.3570 -2.2862  1.0066
  824SOL    HW2 2472   0.274   1.893   2.761  1.7892  0.5842 -0.8738
  825SOL     OW 2473   1.300   1.072   0.274 -0.1506  0.4138  0.2162
  825SOL    HW1 2474   1.305   1.172   0.242 -2.0215 -0.1181 -2.2732
  825SOL    HW2 2475   1.270   1.059   0.369  2.0327 -0.9165 -1.4802
  826SOL     OW 2476   1.947   0.607   1.587  0.1213 -0.0883  0.4810
  826SOL    HW1 2477   2.028   0.551   1.614 -1.3470 -0.3863 -2.4263
  826SOL    HW2 2478   1.859   0.554   1.569  0.6968  0.3798  1.5556
  827SOL     OW 2479   0.710   1.197   0.479 -0.4099  1.2629 -0.3411
  827SOL    HW1 2480   0.802   1.142   0.474 -1.9357  1.4450  1.0868
  827SOL    HW2 2481   0.626   1.138   0.473  0.3004  2.0123  3.4541
  828SOL     OW 2482   2.658   0.188   1.552  0.6629  0.6456  0.3253
  828SOL    HW1 2483   2.580   0.127   1.537  0.7549  1.9698 -1.1292
  828SOL    HW2 2484   2.676   0.207   1.653  0.8588 -0.3150  2.0087
  829SOL     OW 2485   2.926   2.382   2.959 -0.4497  0.4477 -0.7819
  829SOL    HW1 2486   2.827   2.365   2.996 -2.6217  2.4762  2.0830
  829SOL    HW2 2487   2.937   2.484   2.949 -0.3913  0.6413  0.3823
  830SOL     OW 2488   2.925   0.923   2.998  0.0741 -0.1986 -0.1534
  830SOL    HW1 2489   2.946   1.016   3.038  0.9232 -2.0579  0.6038
  830SOL    HW2 2490   2.909   0.855   3.076 -0.9832 -0.6122 -0.1890
  831SOL     OW 2491   0.096   0.575   0.434 -0.6773  0.0267 -0.1923
  831SOL    HW1 2492   0.089   0.504   0.509 -2.2932  1.3254  0.2877
  831SOL    HW2 2493   0.116   0.533   0.342  0.1882  1.4387  0.0519
  832SOL     OW 2494   1.788   0.714   3.084  0.3659 -0.1958  0.6769
  832SOL    HW1 2495   1.699   0.761   3.067 -0.4160 -1.4997  1.4846
  832SOL    HW2 2496   1.780   0.610   3.100 -1.4231 -0.4578 -0.6601
  833SOL     OW 2497   2.357   2.122   0.542 -0.0033 -0.0304  0.6800
  833SOL    HW1 2498   2.255   2.112   0.545 -1.7642  1.2321  0.5889
  833SOL    HW2 2499   2.402   2.028   0.530 -1.0685 -0.9681  0.0641
  834SOL     OW 2500   0.122   0.056   0.555 -0.4222  0.0099  0.0864
  834SOL    HW1 2501   0.185  -0.024   0.554  0.9120 -0.9359 -0.9414
  834SOL    HW2 2502   0.144   0.124   0.482  0.5186  1.2232  3.7511
  835SOL     OW 2503   2.455   1.642   1.168  0.2098  0.5713  0.3112
  835SOL    HW1 2504   2.534   1.592   1.216  0.3409 -1.7717 -2.4182
  835SOL    HW2 2505   2.494   1.694   1.086  2.7903  0.1285 -2.9371
  836SOL     OW 2506   1.549   0.822   2.557  0.1451  0.2029 -0.0986
  836SOL    HW1 2507   1.453   0.855   2.523 -3.8745 -0.3733  1.5473
  836SOL    HW2 2508   1.628   0.852   2.496 -1.2671  1.2532 -2.1742
  837SOL     OW 2509   1.724   0.106   0.535 -0.0120 -0.3315  0.1007
  837SOL    HW1 2510   1.689   0.139   0.624 -0.5321 -1.2289 -1.5835
  837SOL    HW2 2511   1.655   0.090   0.462 -0.2601 -1.1176 -1.5375
  838SOL     OW 2512   1.199   1.474   2.697 -0.8188  0.3337 -0.1557
  838SOL    HW1 2513   1.181   1.577   2.687 -2.0325 -0.2742 -0.3084
  838SOL    HW2 2514   1.136   1.421   2.632  0.7211 -0.9480 -1.2598
  839SOL     OW 2515   1.671   0.378   0.965  0.0861  0.1158 -0.0804
  839SOL    HW1 2516   1.630   0.452   1.019  0.8418 -1.4272  1.3930
  839SOL    HW2 2517   1.589   0.312   0.955  1.4199 -1.1501  0.7723
  840SOL     OW 2518   2.642   2.958   1.665 -0.0963 -0.2759  0.0730
  840SOL    HW1 2519   2.562   3.010   1.617 -3.3001 -0.0162  1.9114
  840SOL    HW2 2520   2.604   2.901   1.746  0.9484 -2.9161 -0.9921
  841SOL     OW 2521   1.555   0.832   3.037  0.0482  0.2958  0.4438
  841SOL    HW1 2522   1.466   0.818   3.084 -0.2169 -0.6296 -0.0707
  841SOL    HW2 2523   1.540   0.900   2.968  0.4356  2.1335  5.0854
  842SOL     OW 2524   0.835   1.611   1.002  0.4144  0.0352  0.3626
  842SOL    HW1 2525   0.784   1.692   1.028 -1.1548 -1.4999 -1.3791
  842SOL    HW2 2526   0.786   1.547   0.933  1.0017 -1.7159  0.0375
  843SOL     OW 2527   0.158   0.059   1.473 -0.3495  0.5437 -0.2666
  843SOL    HW1 2528   0.245   0.097   1.515  2.0321 -0.6892  0.6410
  843SOL    HW2 2529   0.174  -0.042   1.444 -0.2778 -2.2991  2.1743
  844SOL     OW 2530   0.695   2.475   0.202  0.0759 -0.5578 -0.0946
  844SOL    HW1 2531   0.653   2.464   0.296 -0.3828  1.3318  0.0145
  844SOL    HW2 2532   0.635   2.451   0.121  0.9787  0.2621 -1.6960
  845SOL     OW 2533   1.751   3.094   1.243 -0.3116  0.4063  0.4125
  845SOL    HW1 2534   1.739   3.090   1.343 -0.9951  1.7540  1.9056
  845SOL    HW2 2535   1.727   3.185   1.200  3.5378  0.6193  0.0281
  846SOL     OW 2536   1.698   3.045   0.919 -0.3882  0.1876 -0.4730
  846SOL    HW1 2537   1.686   2.993   0.827 -0.6649 -0.8200  1.0177
  846SOL    HW2 2538   1.794   3.032   0.959 -0.9477  0.2851  2.2162
  847SOL     OW 2539   2.110   1.638   0.175  0.0964  0.1604 -0.4495
  847SOL    HW1 2540   2.071   1.570   0.241  0.3756  0.0013  0.5923
  847SOL    HW2 2541   2.061   1.635   0.079 -0.2176  1.0811 -1.1387
  848SOL     OW 2542   2.499   0.811   2.630  0.2561 -0.3788 -0.0003
  848SOL    HW1 2543   2.497   0.911   2.604  0.1325  2.8002  2.1457
  848SOL    HW2 2544   2.426   0.752   2.586  0.7683 -2.7027  1.2689
  849SOL     OW 2545   2.368   0.825   2.295  0.0486  0.0727  0.2358
  849SOL    HW1 2546   2.457   0.792   2.249 -0.7784  0.4077  0.6401
  849SOL    HW2 2547   2.351   0.776   2.381  3.1368 -0.3114  0.0480
  850SOL     OW 2548   1.529   0.224   1.260 -0.4477  0.2344  0.0892
  850SOL    HW1 2549   1.513   0.194   1.163  1.3302  0.5934  0.9500
  850SOL    HW2 2550   1.518   0.145   1.328  0.6849 -0.6609  1.0943
  851SOL     OW 2551   0.448   1.665   0.633 -0.1604 -0.5129 -0.1108
  851SOL    HW1 2552   0.457   1.736   0.705 -0.9276 -0.5568 -0.3840
  851SOL    HW2 2553   0.539   1.628   0.609 -1.2633  0.2819  1.6691
  852SOL     OW 2554   0.829   2.187   1.718  0.2199 -0.1942  0.6103
  852SOL    HW1 2555   0.804   2.281   1.682  0.9657  4.6165 -0.1075
  852SOL    HW2 2556   0.765   2.161   1.796  0.0998  0.2466 -2.0659
  853SOL     OW 2557   2.632   1.487   2.587  0.0678 -0.1868 -0.1379
  853SOL    HW1 2558   2.578   1.403   2.584  2.6138 -1.1345 -0.4371
  853SOL    HW2 2559   2.595   1.551   2.516 -0.4030  1.1019 -3.1307
  854SOL     OW 2560   2.455   1.411   1.770  0.6067 -0.0313 -0.3913
  854SOL    HW1 2561   2.500   1.360   1.689  1.7868 -2.3617 -0.3405
  854SOL    HW2 2562   2.387   1.357   1.828 -1.1523  0.1502 -1.6483
  855SOL     OW 2563   2.026   2.273   1.015  0.2549  0.2262 -0.0674
  855SOL    HW1 2564   2.058   2.364   0.988 -0.7597  0.1911  1.9989
  855SOL    HW2 2565   2.072   2.240   1.104  0.9522  0.0130  1.3056
  856SOL     OW 2566   1.415   1.410   0.875  0.0356  0.4642 -0.0851
  856SOL    HW1 2567   1.437   1.508   0.889  1.2108 -1.3860  1.0441
  856SOL    HW2 2568   1.403   1.369   0.969  1.2662  0.1092  1.0415
  857SOL     OW 2569   2.883   2.543   1.031  0.2212  0.4055  0.6560
  857SOL    HW1 2570   2.855   2.471   1.101 -4.7597 -1.3170  0.4255
  857SOL    HW2 2571   2.901   2.502   0.935  2.8097 -1.7499  0.9216
  858SOL     OW 2572   2.296   2.099   1.786  0.1559  0.6200  0.6684
  858SOL    HW1 2573   2.210   2.115   1.728  1.4633 -0.5871 -1.5165
  858SOL    HW2 2574   2.376   2.044   1.739 -0.4304 -2.0180 -0.7345
  859SOL     OW 2575   2.410   0.376   0.962  0.5243 -0.8610  0.2897
  859SOL    HW1 2576   2.489   0.436   0.935  1.6144  1.0491 -2.1969
  859SOL    HW2 2577   2.435   0.299   1.019 -2.3289  0.6102 -0.3051
  860SOL     OW 2578   1.947   2.838   0.514 -0.3926 -0.1231  0.3117
  860SOL    HW1 2579   1.939   2.775   0.428 -0.5557 -2.4661 -0.5701
  860SOL    HW2 2580   1.978   2.936   0.493  0.5303  2.5663 -0.8621
  861SOL     OW 2581   1.007   2.533   2.803 -0.3818 -0.3281 -0.1849
  861SOL    HW1 2582   1.046   2.628   2.803 -0.8584  1.4554  0.5209
  861SOL    HW2 2583   0.957   2.513   2.893  0.3525  0.2345  2.4003
  862SOL     OW 2584   2.984   2.612   1.559  0.2528  0.3415 -0.1925
  862SOL    HW1 2585   3.041   2.591   1.644 -0.4632 -1.2908  1.4959
  862SOL    HW2 2586   2.887   2.637   1.584 -0.0413 -1.8721  0.1372
  863SOL     OW 2587   1.858   2.658   0.279 -0.9574  0.8699 -0.1813
  863SOL    HW1 2588   1.935   2.590   0.269 -1.0080 -2.7827  1.8662
  863SOL    HW2 2589   1.762   2.615   0.276  0.5977 -0.8320  0.8424
  864SOL     OW 2590   1.918   1.134   2.946 -0.1065  0.0503 -0.4357
  864SOL    HW1 2591   1.938   1.104   2.850  3.2921  1.2844  0.6975
  864SOL    HW2 2592   1.991   1.098   3.008  0.4297  0.7341  1.3229
  865SOL     OW 2593   2.113   1.718   0.637  0.2726  1.0100 -0.2817
  865SOL    HW1 2594   2.151   1.747   0.730  0.6151  0.7908  1.6420
  865SOL    HW2 2595   2.047   1.644   0.640  1.8692 -1.0743 -3.6092
  866SOL     OW 2596   2.891   2.809   1.036  0.2352 -0.4234  0.0426
  866SOL    HW1 2597   2.945   2.836   0.949 -0.8141 -1.4259  1.1327
  866SOL    HW2 2598   2.885   2.705   1.043 -2.8484  0.2214 -0.0126
  867SOL     OW 2599   0.461   1.347   0.838  0.2215  0.4282  0.2563
  867SOL    HW1 2600   0.482   1.254   0.790  0.3153  0.8645  0.8471
  867SOL    HW2 2601   0.386   1.399   0.792 -0.3086  1.1432 -2.3910
  868SOL     OW 2602   0.847   1.920   1.989  0.0846 -0.5016  0.4731
  868SOL    HW1 2603   0.880   1.880   2.077  1.5863  1.2678 -2.8709
  868SOL    HW2 2604   0.785   2.001   1.991  1.9070  1.2998 -0.4429
  869SOL     OW 2605   2.512   2.023   1.660  0.2064 -0.3250 -0.3661
  869SOL    HW1 2606   2.540   2.122   1.639 -0.5456 -2.5430  0.9398
  869SOL    HW2 2607   2.482   1.969   1.576 -1.5099 -0.9838  2.2026
  870SOL     OW 2608   2.398   2.524   1.182  0.0958 -0.3986  0.0744
  870SOL    HW1 2609   2.340   2.437   1.169  1.4079  0.0823  0.6640
  870SOL    HW2 2610   2.478   2.502   1.243 -0.2098 -0.8944  0.4978
  871SOL     OW 2611   3.049   1.996   0.511  0.2855 -0.0313  0.3233
  871SOL    HW1 2612   2.953   2.045   0.500  0.6709  0.8880 -3.2924
  871SOL    HW2 2613   3.044   1.895   0.493 -1.3468 -0.6694 -0.2318
  872SOL     OW 2614   2.170   0.469   1.693  0.0283  0.1040  0.9583
  872SOL    HW1 2615   2.134   0.459   1.787 -0.5132 -2.4471 -1.6634
  872SOL    HW2 2616   2.272   0.461   1.690 -2.5400  0.7502  1.3990
  873SOL     OW 2617   1.725   2.069   2.865  0.2209 -0.3183  0.0616
  873SOL    HW1 2618   1.711   2.165   2.908 -0.2307  1.8603  0.3176
  873SOL    HW2 2619   1.658   2.043   2.785 -1.1075  1.4574 -1.8981
  874SOL     OW 2620   0.660   2.512   0.746 -0.7174  0.2738  0.1510
  874SOL    HW1 2621   0.631   2.611   0.770  2.2856 -0.2941 -4.7992
  874SOL    HW2 2622   0.762   2.489   0.750  0.7339  2.0179 -0.7097
  875SOL     OW 2623   2.314   1.570   1.426  0.1886  0.8264 -0.1750
  875SOL    HW1 2624   2.410   1.592   1.453 -0.4201 -1.8165 -0.2151
  875SOL    HW2 2625   2.275   1.630   1.351 -1.6169 -0.4607  0.6983
  876SOL     OW 2626   0.156   2.212   2.704 -0.3713  0.5155  0.4339
  876SOL    HW1 2627   0.205   2.150   2.775  1.9828 -2.4068  1.2746
  876SOL    HW2 2628   0.175   2.317   2.719  1.3753  1.9626  1.8727
  877SOL     OW 2629   2.781   2.662   0.583 -0.4860 -0.0907  0.3744
  877SOL    HW1 2630   2.812   2.762   0.607  1.6123  1.6605  1.7497
  877SOL    HW2 2631   2.841   2.586   0.617  1.0673  2.7383 -2.1915
  878SOL     OW 2632   2.763   1.527   2.272 -0.0228 -0.2752  0.2585
  878SOL    HW1 2633   2.739   1.611   2.319  0.5053 -1.5069  1.0049
  878SOL    HW2 2634   2.780   1.448   2.334  0.1728  1.2268  0.7234
  879SOL     OW 2635   2.397   3.106   1.247 -0.4116 -0.4261  0.1525
  879SOL    HW1 2636   2.450   3.015   1.248  0.0086  0.2054 -0.0146
  879SOL    HW2 2637   2.306   3.085   1.204 -0.3080 -0.9559  0.6267
  880SOL     OW 2638   0.622   0.437   2.193 -0.5920  0.7703  0.0546
  880SOL    HW1 2639   0.563   0.424   2.281 -3.6030  2.3712  2.8737
  880SOL    HW2 2640   0.639   0.346   2.139  2.7438 -2.7197 -1.9095
  881SOL     OW 2641   0.894   0.081   0.408 -0.5629  0.7588 -0.2230
  881SOL    HW1 2642   0.963   0.010   0.441 -1.0751  1.3034  0.5342
  881SOL    HW2 2643   0.838   0.048   0.325 -2.6710 -1.3485  0.9678
  882SOL     OW 2644   2.746   1.736   1.641  0.1013  0.7482 -0.3011
  882SOL    HW1 2645   2.838   1.698   1.658 -3.5210  1.2409  0.4498
  882SOL    HW2 2646   2.689   1.746   1.725 -1.2216 -0.3704  1.5997
  883SOL     OW 2647   0.912   0.618   0.963  0.0725 -0.2115 -0.2122
  883SOL    HW1 2648   0.936   0.705   1.008 -1.7909 -2.1593 -0.0063
  883SOL    HW2 2649   1.000   0.571   0.932 -0.5241 -2.0702  0.9649
  884SOL     OW 2650   1.171   1.843   1.078 -0.5451  0.2387  0.2258
  884SOL    HW1 2651   1.163   1.833   0.974  1.7627 -0.4156 -1.3907
  884SOL    HW2 2652   1.093   1.897   1.122 -2.7728 -0.2149  1.6161
  885SOL     OW 2653   2.283   1.759   2.349  0.3847  0.8418 -0.0100
  885SOL    HW1 2654   2.190   1.723   2.382  1.8585 -0.2493  1.2745
  885SOL    HW2 2655   2.299   1.862   2.350 -0.6222 -3.5289 -0.3592
  886SOL     OW 2656   2.675   0.459   1.806  0.0919 -0.5785  0.3297
  886SOL    HW1 2657   2.704   0.408   1.896  1.5161  0.6988  0.4618
  886SOL    HW2 2658   2.742   0.540   1.785  1.5112  2.8104  0.9435
  887SOL     OW 2659   0.190   2.013   1.316 -0.0967  0.0201 -0.4019
  887SOL    HW1 2660   0.132   1.955   1.250 -0.3725  0.6867 -3.0402
  887SOL    HW2 2661   0.184   2.112   1.293  0.4285  1.5431 -0.2285
  888SOL     OW 2662   0.594   1.312   1.486  0.2399 -0.5723  0.4204
  888SOL    HW1 2663   0.634   1.308   1.390 -0.9158  0.0629  0.4914
  888SOL    HW2 2664   0.509   1.247   1.501 -1.8287 -0.8443 -2.3396
  889SOL     OW 2665   0.856   2.480   2.121 -0.3986 -0.4301 -0.0404
  889SOL    HW1 2666   0.787   2.432   2.055 -1.8150 -0.5281 -3.2626
  889SOL    HW2 2667   0.951   2.505   2.081 -0.4576  1.6619  0.0461
  890SOL     OW 2668   2.303   2.388   0.113 -0.3393  0.1831  0.1598
  890SOL    HW1 2669   2.340   2.459   0.044 -1.6572 -0.3078 -1.5386
  890SOL    HW2 2670   2.221   2.427   0.163 -0.3165  2.6462  1.6318
  891SOL     OW 2671   2.613   1.560   0.634  0.0686  0.9572  0.0696
  891SOL    HW1 2672   2.589   1.500   0.719  2.5903 -0.2931 -0.9002
  891SOL    HW2 2673   2.531   1.596   0.581  0.1912  2.6817  3.0140
  892SOL     OW 2674   0.238   0.311   2.234  0.8070 -0.0443  0.0987
  892SOL    HW1 2675   0.248   0.321   2.127 -0.7047 -1.6668 -1.6429
  892SOL    HW2 2676   0.312   0.347   2.298 -1.6531 -1.1991  0.9051
  893SOL     OW 2677   1.636   0.227   2.714 -0.1172 -0.5542  0.0023
  893SOL    HW1 2678   1.701   0.296   2.758 -0.7573  2.1420  0.1054
  893SOL    HW2 2679   1.545   0.275   2.699  0.1184 -0.4092 -0.2142
  894SOL     OW 2680   2.145   1.962   0.069  0.3317  0.3424  0.6809
  894SOL    HW1 2681   2.128   1.888  -0.002  0.9358  1.4685 -1.1256
  894SOL    HW2 2682   2.186   1.930   0.156 -0.1658  1.9853  0.0063
  895SOL     OW 2683   2.885   1.428   0.822 -0.3750 -0.3237  0.2383
  895SOL    HW1 2684   2.956   1.368   0.864  0.5341  0.0258 -2.6319
  895SOL    HW2 2685   2.928   1.517   0.791  0.4227 -1.3134 -1.9704
  896SOL     OW 2686   1.765   1.775   1.202  0.3547  0.1247 -0.3852
  896SOL    HW1 2687   1.833   1.833   1.147 -0.0059 -0.5545  0.1133
  896SOL    HW2 2688   1.669   1.791   1.171 -0.5110  0.1919 -2.3350
  897SOL     OW 2689   0.308   0.501   3.075 -0.1014  0.0571  0.1038
  897SOL    HW1 2690   0.275   0.536   2.981 -0.3162  2.6429  0.6985
  897SOL    HW2 2691   0.374   0.570   3.117 -1.4918  0.0342  0.7446
  898SOL     OW 2692   0.554   2.854   1.121  0.5765  0.0881 -0.3507
  898SOL    HW1 2693   0.492   2.931   1.156  1.3879 -0.7572  0.7292
  898SOL    HW2 2694   0.653   2.881   1.131  0.0576 -0.0054 -2.5173
  899SOL     OW 2695   2.704   0.935   1.240 -0.1297  0.4281  0.4693
  899SOL    HW1 2696   2.616   0.946   1.184  1.4798  0.0924 -0.4008
  899SOL    HW2 2697   2.790   0.936   1.183 -0.2192 -1.1068 -2.2477
  900SOL     OW 2698   0.983   2.335   2.333  0.2755 -0.2807  0.3076
  900SOL    HW1 2699   0.930   2.382   2.254  0.3653 -1.3278 -1.2537
  900SOL    HW2 2700   0.935   2.340   2.431 -1.7625 -1.8877  1.5132
  901SOL     OW 2701   1.910   2.449   1.390  0.7644  0.7558 -0.1305
  901SOL    HW1 2702   1.899   2.467   1.285  0.3309 -0.0746 -0.8431
  901SOL    HW2 2703   2.002   2.412   1.422 -0.5907  1.1989 -0.7972
  902SOL     OW 2704   2.569   1.658   1.457  0.7447  0.8565  0.2199
  902SOL    HW1 2705   2.635   1.700   1.525 -0.0332  1.6884  0.8122
  902SOL    HW2 2706   2.617   1.597   1.383 -2.7336 -1.5459  0.7504
  903SOL     OW 2707   0.271   2.352   1.974  0.4748  0.5651  0.4862
  903SOL    HW1 2708   0.188   2.330   2.031 -2.8333 -1.7411  0.4882
  903SOL    HW2 2709   0.253   2.432   1.903 -0.3916  0.5074 -0.3552
  904SOL     OW 2710   1.978   0.790   2.585  0.5985 -0.1684 -0.0257
  904SOL    HW1 2711   1.897   0.736   2.622 -0.0233  2.9660 -1.0800
  904SOL    HW2 2712   1.979   0.783   2.486 -0.3144 -2.3203  1.5643
  905SOL     OW 2713   2.753   0.048   2.621  0.2945  0.1408 -0.7155
  905SOL    HW1 2714   2.823  -0.028   2.618 -1.7610  1.2674 -0.0327
  905SOL    HW2 2715   2.795   0.140   2.608  1.6875  1.2903 -1.7775
  906SOL     OW 2716   0.107   1.776   1.976  0.2024  0.6516  0.6033
  906SOL    HW1 2717   0.062   1.791   1.878 -1.7334 -0.1758 -2.1527
  906SOL    HW2 2718   0.213   1.795   1.977  0.9228  0.0048  0.5284
  907SOL     OW 2719   0.192   2.450   1.044  0.2779 -0.2806 -0.0670
  907SOL    HW1 2720   0.242   2.537   1.018 -1.5756  0.7341 -1.4918
  907SOL    HW2 2721   0.136   2.411   0.969 -0.7249 -2.8826  0.3865
  908SOL     OW 2722   2.626   2.856   0.406 -0.1103 -0.3439 -0.5948
  908SOL    HW1 2723   2.627   2.864   0.304  0.4292  2.4878 -0.5972
  908SOL    HW2 2724   2.630   2.764   0.450  2.2727  0.1629  0.8544
  909SOL     OW 2725   0.697   0.904   2.602 -0.8947  0.0790  0.1732
  909SOL    HW1 2726   0.711   0.802   2.600  2.6416  0.5018 -2.4562
  909SOL    HW2 2727   0.771   0.949   2.541  1.1171 -0.7104 -1.4058
  910SOL     OW 2728   1.742   1.773   2.018 -0.8785  0.3849 -0.2945
  910SOL    HW1 2729   1.810   1.807   1.948 -0.0535 -0.2093 -0.7742
  910SOL    HW2 2730   1.678   1.851   2.048  1.8080  2.6992 -0.8367
  911SOL     OW 2731   1.741   3.023   1.579 -0.5310  0.2027  0.0544
  911SOL    HW1 2732   1.819   2.983   1.522  1.7832 -0.6425 -0.1969
  911SOL    HW2 2733   1.721   2.976   1.669 -0.0254 -1.3805 -0.1351
  912SOL     OW 2734   2.810   0.958   0.773  0.1631 -0.8487 -0.4184
  912SOL    HW1 2735   2.817   0.953   0.876  1.0806 -0.5653 -1.3876
  912SOL    HW2 2736   2.780   1.054   0.742  3.0734  0.2734 -0.5306
  913SOL     OW 2737   2.541   1.290   1.561  0.1128  0.5241  0.2620
  913SOL    HW1 2738   2.582   1.207   1.606  0.1505 -1.9251  0.3206
  913SOL    HW2 2739   2.590   1.311   1.471  0.1726  1.7382  2.2464
  914SOL     OW 2740   2.811   0.529   1.265  0.7363 -0.3492  0.2642
  914SOL    HW1 2741   2.774   0.439   1.307 -2.5599 -4.0270  0.7170
  914SOL    HW2 2742   2.800   0.610   1.332 -0.6099  2.3214 -0.1911
  915SOL     OW 2743   1.195   0.857   1.033 -0.2935 -0.2285  0.2214
  915SOL    HW1 2744   1.264   0.927   1.063 -0.7717 -1.9081  1.6731
  915SOL    HW2 2745   1.105   0.858   1.086 -1.6180  0.1053  2.4034
  916SOL     OW 2746   0.542   0.062   0.599 -0.4524  0.1960 -0.4383
  916SOL    HW1 2747   0.556   0.127   0.677  1.7795  0.8570  0.2502
  916SOL    HW2 2748   0.556   0.098   0.503  0.9512 -1.0931 -1.3958
  917SOL     OW 2749   2.771   2.600   1.896 -0.2477  0.0459 -0.5570
  917SOL    HW1 2750   2.680   2.641   1.920 -0.3996  0.3302  1.2770
  917SOL    HW2 2751   2.849   2.676   1.905 -0.6593  1.4017  2.4076
  918SOL     OW 2752   0.988   2.205   0.001  0.1970 -0.2780  0.0939
  918SOL    HW1 2753   0.939   2.239   0.087 -0.0403 -1.0911  1.4634
  918SOL    HW2 2754   1.073   2.153   0.026  0.3460  0.5282  1.7224
  919SOL     OW 2755   0.911   1.614   2.800 -0.2595 -0.6656 -0.5012
  919SOL    HW1 2756   0.964   1.674   2.732 -0.7148 -0.1022  0.8177
  919SOL    HW2 2757   0.869   1.534   2.745  1.5450  1.3749 -3.9051
  920SOL     OW 2758   1.236   2.057   2.510 -0.4604  0.5976  0.2382
  920SOL    HW1 2759   1.190   2.074   2.416 -0.5787  0.4294 -3.3817
  920SOL    HW2 2760   1.278   1.965   2.509 -0.6635 -0.2381 -1.5422
  921SOL     OW 2761   1.041   0.142   2.588  0.2617  0.0629 -0.2501
  921SOL    HW1 2762   1.067   0.122   2.493  0.4870  0.1916  0.9017
  921SOL    HW2 2763   0.938   0.130   2.606 -2.5154 -3.0639  1.5460
  922SOL     OW 2764   2.087   2.411   2.774 -0.2665  0.0900  0.4144
  922SOL    HW1 2765   2.100   2.310   2.756  1.8437  0.0637 -1.0871
  922SOL    HW2 2766   2.091   2.458   2.680 -0.0317  1.9996 -1.9812
  923SOL     OW 2767   1.148   2.686   0.216  0.0688 -0.5438 -0.6283
  923SOL    HW1 2768   1.224   2.705   0.285  3.0947  0.9396  0.4104
  923SOL    HW2 2769   1.183   2.625   0.137  1.3530  1.0741 -1.8209
  924SOL     OW 2770   2.860   1.565   0.097 -0.2524  0.0476 -0.4518
  924SOL    HW1 2771   2.810   1.567   0.006 -1.3674  1.7351  0.2296
  924SOL    HW2 2772   2.930   1.643   0.107  0.1957 -0.0079  2.3860
  925SOL     OW 2773   0.086   2.863   1.633  0.5192  0.3777 -0.6917
  925SOL    HW1 2774   0.006   2.907   1.679  1.8176  0.0145 -0.9528
  925SOL    HW2 2775   0.108   2.892   1.536  0.6402 -1.5576  0.5477
  926SOL     OW 2776   1.449   2.881   1.309  0.2038  0.3922  0.0955
  926SOL    HW1 2777   1.451   2.891   1.206 -0.2798  1.4899 -0.4429
  926SOL    HW2 2778   1.445   2.977   1.353  1.5969  2.0120 -2.8934
  927SOL     OW 2779   0.255   2.537   1.777 -0.5143  0.3960 -0.3727
  927SOL    HW1 2780   0.206   2.505   1.688 -2.1044 -1.8419  0.0710
  927SOL    HW2 2781   0.333   2.602   1.759  0.2499  0.5836  0.1311
  928SOL     OW 2782   1.604   2.002   2.099 -0.1903  0.0469 -0.1019
  928SOL    HW1 2783   1.638   2.103   2.080  0.0941  2.6203  0.2726
  928SOL    HW2 2784   1.505   1.996   2.069  1.4494  3.4826 -2.9507
  929SOL     OW 2785   2.362   2.458   2.823 -0.6186 -0.6240 -0.0800
  929SOL    HW1 2786   2.259   2.432   2.809 -0.2310  0.6207 -0.8255
  929SOL    HW2 2787   2.414   2.452   2.731  0.1191 -0.4144 -3.2114
  930SOL     OW 2788   2.200   2.004   1.085  0.0572 -0.2908 -0.0524
  930SOL    HW1 2789   2.199   1.973   1.181  0.9369  0.7238 -1.2433
  930SOL    HW2 2790   2.278   2.068   1.068 -1.9399  0.7063  1.0786
  931SOL     OW 2791   0.580   1.738   2.639  0.2206 -0.0864  0.1820
  931SOL    HW1 2792   0.636   1.702   2.716 -0.8509  2.0381  4.1919
  931SOL    HW2 2793   0.573   1.676   2.560 -1.1447  1.4993 -0.2786
  932SOL     OW 2794   0.498   0.113   2.909  0.3783 -0.2032 -0.2142
  932SOL    HW1 2795   0.590   0.153   2.888 -1.4014  0.9680 -3.1504
  932SOL    HW2 2796   0.500   0.012   2.931 -0.9211 -0.5685  1.5858
  933SOL     OW 2797   1.069   0.777   3.018  0.0022 -0.4417 -0.1693
  933SOL    HW1 2798   1.144   0.809   3.086 -0.0406  0.0877  0.4721
  933SOL    HW2 2799   1.037   0.852   2.950 -0.0769 -0.9754 -1.1405
  934SOL     OW 2800   0.807   2.937   2.756  0.4470 -0.5145  0.2946
  934SOL    HW1 2801   0.870   2.879   2.703  2.8737  1.5098  1.0763
  934SOL    HW2 2802   0.819   2.927   2.859  0.3948 -3.3520 -2.1007
  935SOL     OW 2803   3.085   0.536   0.897 -0.0322  0.7959  0.5586
  935SOL    HW1 2804   3.091   0.484   0.811  0.9992  0.1296  0.4104
  935SOL    HW2 2805   2.999   0.585   0.913  2.2633 -0.7915  0.3303
  936SOL     OW 2806   1.100   2.961   0.126 -0.0884  0.8879 -0.0747
  936SOL    HW1 2807   1.169   3.011   0.059 -1.7537  1.5470 -1.9991
  936SOL    HW2 2808   1.129   2.865   0.144 -0.8920  1.6047  1.3313
  937SOL     OW 2809   1.943   2.626   2.079  0.1617  0.5159  0.2064
  937SOL    HW1 2810   1.874   2.685   2.125 -2.0207 -1.2159  0.6041
  937SOL    HW2 2811   1.968   2.662   1.982  0.9010  1.3433 -2.3565
  938SOL     OW 2812   2.781   2.177   1.504 -0.2758 -0.1031  0.6494
  938SOL    HW1 2813   2.728   2.260   1.537 -0.3609 -1.1544  0.5897
  938SOL    HW2 2814   2.832   2.127   1.582  1.0113  3.1945 -0.5494
  939SOL     OW 2815   2.733   1.064   2.516 -0.4655 -0.6957  0.1830
  939SOL    HW1 2816   2.810   0.997   2.519  0.5192 -0.3557 -0.0683
  939SOL    HW2 2817   2.730   1.118   2.607  1.4956 -0.5565  0.2074
  940SOL     OW 2818   1.067   0.456   2.620  0.0060  0.1110 -0.0315
  940SOL    HW1 2819   1.134   0.393   2.671  1.6448 -2.9663  2.0300
  940SOL    HW2 2820   0.966   0.415   2.621 -3.8073  0.5217  1.0634
  941SOL     OW 2821   0.071   2.849   2.212  0.2250  0.3839 -0.1256
  941SOL    HW1 2822   0.041   2.752   2.184  0.3058  1.2272  1.6279
  941SOL    HW2 2823   0.153   2.852   2.279  0.8256 -0.2241  0.5475
  942SOL     OW 2824   0.062   0.071   2.561  0.0633 -0.4523 -0.1245
  942SOL    HW1 2825   0.125   0.067   2.641  0.3179  2.8062  0.0134
  942SOL    HW2 2826   0.064   0.165   2.519  1.0397 -2.4532 -0.2851
  943SOL     OW 2827   2.058   1.596   2.431  0.1378  0.2435  0.0967
  943SOL    HW1 2828   2.068   1.510   2.371  1.0518 -1.7828 -2.3171
  943SOL    HW2 2829   2.062   1.583   2.531 -1.7777  2.0791  1.0586
  944SOL     OW 2830   2.158   2.380   1.477  0.3045 -0.5825  0.2935
  944SOL    HW1 2831   2.210   2.460   1.515  1.6786 -0.9593 -0.4257
  944SOL    HW2 2832   2.126   2.311   1.553 -2.4525 -3.6900  4.5935
  945SOL     OW 2833   0.618   1.440   0.391  0.3880 -0.4631 -0.0814
  945SOL    HW1 2834   0.662   1.461   0.301  0.6543 -2.6678  0.0421
  945SOL    HW2 2835   0.649   1.346   0.428 -0.4569 -0.5759  2.0652
  946SOL     OW 2836   0.356   1.014   2.581 -0.4138  0.2718  0.1672
  946SOL    HW1 2837   0.285   0.966   2.526  0.7077 -1.1475  3.6699
  946SOL    HW2 2838   0.360   1.120   2.575 -1.8886  1.5769 -0.1055
  947SOL     OW 2839   1.470   0.452   0.118  0.1118  0.1671  0.2953
  947SOL    HW1 2840   1.397   0.471   0.189 -1.9059 -0.2396  2.9566
  947SOL    HW2 2841   1.446   0.368   0.062  1.2628  1.3486  1.5959
  948SOL     OW 2842   1.955   0.007   2.188  0.1890  0.0652 -0.0275
  948SOL    HW1 2843   1.916   0.009   2.096 -0.5538  2.5014  2.7539
  948SOL    HW2 2844   1.942  -0.089   2.233 -0.0086 -0.2260  1.5049
  949SOL     OW 2845   0.606   2.507   0.471 -0.5089 -0.1040 -0.1874
  949SOL    HW1 2846   0.635   2.602   0.443 -0.5630  1.6484  1.6228
  949SOL    HW2 2847   0.634   2.482   0.569 -0.1781  1.0861  0.4441
  950SOL     OW 2848   0.310   2.114   3.017 -0.1506 -0.0029 -0.1221
  950SOL    HW1 2849   0.221   2.168   3.013  1.3723  0.6402  2.2830
  950SOL    HW2 2850   0.303   2.016   3.048  0.2555 -0.9276 -2.4530
  951SOL     OW 2851   1.164   2.775   2.766 -0.3989  0.2032 -0.0365
  951SOL    HW1 2852   1.199   2.814   2.673  0.4759  2.6179 -1.6060
  951SOL    HW2 2853   1.240   2.751   2.830 -0.2472 -0.4274  2.2123
  952SOL     OW 2854   0.076   1.662   0.484  0.1293  0.5670 -0.3785
  952SOL    HW1 2855   0.166   1.709   0.459 -2.8801  0.4831  3.0522
  952SOL    HW2 2856   0.046   1.669   0.585  2.4337 -0.7068  0.8113
  953SOL     OW 2857   2.564   1.729   0.170 -0.6479 -0.2249 -0.3001
  953SOL    HW1 2858   2.521   1.635   0.199 -1.6160 -0.5188  0.2531
  953SOL    HW2 2859   2.550   1.758   0.074 -2.8879  0.9252  1.1923
  954SOL     OW 2860   2.182   0.556   1.029  0.0261  0.1667  0.6436
  954SOL    HW1 2861   2.098   0.559   0.961 -1.1848  1.2695 -0.7281
  954SOL    HW2 2862   2.255   0.491   1.006 -1.9896  0.5562  0.8144
  955SOL     OW 2863   0.276   2.659   1.306 -0.5725 -0.1635  0.3335
  955SOL    HW1 2864   0.176   2.621   1.293 -1.4863 -1.4877 -4.1209
  955SOL    HW2 2865   0.336   2.650   1.222  1.8873  0.1370  0.1527
  956SOL     OW 2866   2.799   2.468   2.526 -0.4581 -0.0660  0.0111
  956SOL    HW1 2867   2.801   2.369   2.504  1.3923  1.6817 -1.3435
  956SOL    HW2 2868   2.809   2.529   2.439  1.5068  0.1983  1.9998
  957SOL     OW 2869   1.553   2.079   2.658 -0.0915  0.0986  0.3418
  957SOL    HW1 2870   1.474   2.014   2.638  0.9190  1.0543  3.6259
  957SOL    HW2 2871   1.613   2.109   2.574  1.5931 -0.0304 -1.9795
  958SOL     OW 2872   2.666   2.332   3.011 -0.1918 -0.0796 -0.1266
  958SOL    HW1 2873   2.578   2.382   2.990  0.0994 -0.2672  2.3304
  958SOL    HW2 2874   2.641   2.234   3.026 -0.7072 -1.3591  1.0792
  959SOL     OW 2875   0.254   2.823   0.005  0.1103  0.3856  0.4050
  959SOL    HW1 2876   0.152   2.817   0.028 -0.0599 -0.7796  0.2828
  959SOL    HW2 2877   0.301   2.729   0.026  0.9846 -0.4859 -2.1838
  960SOL     OW 2878   2.021   0.512   1.937  0.1377 -0.2718  0.0262
  960SOL    HW1 2879   1.963   0.582   1.887 -2.4977 -0.9014 -0.6116
  960SOL    HW2 2880   2.013   0.530   2.036 -0.9403  0.3405 -2.7876
  961SOL     OW 2881   2.611   1.864   1.041  0.3278  0.5625  0.0092
  961SOL    HW1 2882   2.563   1.933   0.979  1.4036 -2.2883 -1.2123
  961SOL    HW2 2883   2.598   1.887   1.139 -0.3755 -2.2072 -1.9233
  962SOL     OW 2884   1.246   0.947   0.040 -0.0753 -0.5780  0.4050
  962SOL    HW1 2885   1.256   1.007  -0.047  1.5138  0.2577  1.1543
  962SOL    HW2 2886   1.258   0.993   0.132  2.6213  0.7494  0.2899
  963SOL     OW 2887   2.308   2.648   1.884  0.1841  0.3770 -0.0701
  963SOL    HW1 2888   2.315   2.565   1.949  1.7289  1.7581 -0.6413
  963SOL    HW2 2889   2.342   2.735   1.926  1.7091 -2.1715 -0.1451
  964SOL     OW 2890   2.442   0.386   1.679  0.4672  0.1715  0.0355
  964SOL    HW1 2891   2.524   0.434   1.726 -0.6244  4.4860 -2.2393
  964SOL    HW2 2892   2.462   0.377   1.580  2.7032 -1.9024 -0.0510
  965SOL     OW 2893   2.644   3.012   0.112 -0.0698  0.1587 -0.1093
  965SOL    HW1 2894   2.680   2.936   0.061  3.1686 -0.2312 -0.3324
  965SOL    HW2 2895   2.562   3.066   0.076 -1.0409  1.7596  1.4689
  966SOL     OW 2896   2.555   2.590   2.156 -0.1264  0.0450 -0.2964
  966SOL    HW1 2897   2.469   2.537   2.128  0.2135  0.2840 -0.3107
  966SOL    HW2 2898   2.535   2.663   2.228 -1.3741  1.7431 -1.8531
  967SOL     OW 2899   2.768   2.841   2.451  0.5234  0.0428  0.3752
  967SOL    HW1 2900   2.784   2.763   2.388  1.1470 -1.1600 -0.2009
  967SOL    HW2 2901   2.854   2.903   2.466 -0.1744  2.6538 -0.1455
  968SOL     OW 2902   2.030   1.026   2.696 -0.6306  0.0074  0.3011
  968SOL    HW1 2903   2.000   1.108   2.642 -1.6046  3.2714 -0.5857
  968SOL    HW2 2904   1.994   0.941   2.648 -2.6384  0.8928 -1.9081
  969SOL     OW 2905   2.741   2.334   1.151 -0.0485 -0.3326  0.3700
  969SOL    HW1 2906   2.714   2.354   1.051  1.2438  1.5479 -0.7620
  969SOL    HW2 2907   2.792   2.245   1.163 -2.0791 -1.3636 -1.0834
  970SOL     OW 2908   1.122   2.228   1.752 -0.1064 -0.0106  0.2486
  970SOL    HW1 2909   1.020   2.219   1.741 -1.4030  0.5262 -1.6381
  970SOL    HW2 2910   1.141   2.266   1.846 -0.3682 -0.2599  2.1421
  971SOL     OW 2911   2.845   2.068   1.938  0.6371 -0.0353 -0.3583
  971SOL    HW1 2912   2.828   2.164   1.965  1.2148 -0.0665  0.8495
  971SOL    HW2 2913   2.898   2.060   1.852 -1.9389 -1.6403 -2.6399
  972SOL     OW 2914   2.048   2.404   0.246  0.6156  0.1457 -0.3442
  972SOL    HW1 2915   2.010   2.322   0.196 -0.1802  2.5935  3.3108
  972SOL    HW2 2916   2.041   2.399   0.347  2.7594  0.9168 -0.7202
  973SOL     OW 2917   1.263   1.071   1.958  0.4732 -0.4043 -0.1906
  973SOL    HW1 2918   1.176   1.056   1.900  0.3771 -0.8943 -1.8124
  973SOL    HW2 2919   1.273   1.175   1.983 -2.6014  5.0287  0.3027
  974SOL     OW 2920   1.658   0.541   1.897 -0.3611 -0.0512  0.0524
  974SOL    HW1 2921   1.753   0.567   1.873 -1.8089 -1.8062  3.0085
  974SOL    HW2 2922   1.596   0.618   1.913 -1.5994 -0.4551  0.4991
  975SOL     OW 2923   2.370   3.050   3.065  0.6099  0.1488 -0.1731
  975SOL    HW1 2924   2.316   2.989   3.129  2.6634  0.3524 -1.1100
  975SOL    HW2 2925   2.362   3.025   2.959 -0.6695 -0.4027  0.2016
  976SOL     OW 2926   1.911   2.881   2.325  0.1291  0.1710 -0.3631
  976SOL    HW1 2927   1.848   2.805   2.278 -1.6718  0.4482 -0.9481
  976SOL    HW2 2928   1.923   2.864   2.425  0.0206  0.4796  0.8304
  977SOL     OW 2929   0.496   0.682   1.018  0.1986 -0.3167 -0.3059
  977SOL    HW1 2930   0.397   0.664   1.000 -0.4604 -0.3076 -1.5538
  977SOL    HW2 2931   0.557   0.617   0.968 -3.2819  1.0543  1.6212
   3.10000   3.10000   3.10000
