1000 SPC/Fw water molecules t=   0.98000 step= 980
 2931
    1SOL     OW    1   2.555   0.308   2.656  0.7690  0.1796 -0.4120
    1SOL    HW1    2   2.567   0.205   2.639  1.5344 -2.4227  3.0102
    1SOL    HW2    3   2.565   0.334   2.754  0.1151  0.6308  0.1837
    2SOL     OW    4   2.698   3.043   1.427 -0.1238 -0.0870 -0.1435
    2SOL    HW1    5   2.777   3.064   1.364  2.0470  1.2858 -0.2488
    2SOL    HW2    6   2.655   3.131   1.466  0.4015  0.9684 -0.4879
    3SOL     OW    7   2.685   2.624   0.449 -0.2464  0.5420  0.2921
    3SOL    HW1    8   2.645   2.530   0.422  1.6400 -0.7150 -0.9491
    3SOL    HW2    9   2.770   2.614   0.516  0.4712  0.2034  1.2006
    4SOL     OW   10   1.238   1.543   2.313 -0.3184 -0.2527  0.1706
    4SOL    HW1   11   1.157   1.588   2.260 -1.6960  3.2459 -1.3677
    4SOL    HW2   12   1.217   1.446   2.333 -1.0159 -0.9691  2.2164
    5SOL     OW   13   1.164   1.486   3.070  0.3021 -0.1405  0.1319
    5SOL    HW1   14   1.223   1.567   3.100 -1.8438 -0.0785 -1.9110
    5SOL    HW2   15   1.075   1.484   3.125 -1.2924  1.8052 -0.3520
    6SOL     OW   16   0.140   1.773   2.973  0.4954 -0.4196  0.2796
    6SOL    HW1   17   0.039   1.785   3.003 -2.6085  1.1315  2.6986
    6SOL    HW2   18   0.211   1.736   3.043  1.3751  0.8590 -1.0696
    7SOL     OW   19   2.598   0.906   1.089 -0.4786 -0.1072 -0.3457
    7SOL    HW1   20   2.504   0.868   1.119 -1.6228 -1.6859 -2.5019
    7SOL    HW2   21   2.596   0.927   0.983  1.8375 -1.5565 -2.0925
    8SOL     OW   22   0.386   0.657   1.549  0.3292  0.1712 -0.5784
    8SOL    HW1   23   0.466   0.588   1.550  0.2932  1.7049 -0.6893
    8SOL    HW2   24   0.345   0.659   1.452 -0.2066  1.2716 -2.3652
    9SOL     OW   25   1.190   0.901   2.410 -0.2388  0.1515  0.0436
    9SOL    HW1   26   1.235   0.939   2.319  2.2982 -1.1312 -2.1886
    9SOL    HW2   27   1.158   0.801   2.393  0.4574 -3.4524  0.1870
   10SOL     OW   28   0.665   1.361   1.278 -0.0449  0.2100  0.2642
   10SOL    HW1   29   0.576   1.378   1.233  2.5707  0.5335  2.7323
   10SOL    HW2   30   0.721   1.449   1.296 -0.7654  0.5925 -1.3899
   11SOL     OW   31   2.321   2.784   0.838 -0.2403  0.9305 -0.1591
   11SOL    HW1   32   2.256   2.802   0.915  0.7156  0.5572  0.4472
   11SOL    HW2   33   2.420   2.778   0.860 -2.0539 -0.7055 -0.8484
   12SOL     OW   34   1.498   0.890   0.330  0.2783  0.3905  0.1280
   12SOL    HW1   35   1.414   0.952   0.343 -2.1421 -0.6213  0.0519
   12SOL    HW2   36   1.489   0.829   0.247 -0.9687 -1.5701 -0.0598
   13SOL     OW   37   2.501   0.720   1.767  0.0863  0.3991 -0.5191
   13SOL    HW1   38   2.417   0.684   1.815  2.4177  2.6965  0.5748
   13SOL    HW2   39   2.516   0.665   1.677 -0.9524 -1.1811  0.9516
   14SOL     OW   40   1.888   0.110   0.682  0.1695 -0.0020 -0.1419
   14SOL    HW1   41   1.797   0.106   0.631 -0.8684  0.0384 -0.0282
   14SOL    HW2   42   1.902   0.034   0.748  0.9391  0.9787 -0.4376
   15SOL     OW   43   1.980   2.094   2.720 -0.6832  0.2024  0.0588
   15SOL    HW1   44   1.914   2.163   2.754 -1.2351  1.2454 -2.2108
   15SOL    HW2   45   1.938   2.024   2.655  1.3411  0.8829 -3.3890
   16SOL     OW   46   1.612   1.712   2.979  0.2626 -0.3084 -0.2288
   16SOL    HW1   47   1.642   1.616   2.998  1.9632 -0.7324  2.0606
   16SOL    HW2   48   1.684   1.780   3.002 -2.2825  0.5892  0.8963
   17SOL     OW   49   0.113   0.495   0.186 -0.1548 -0.3530 -0.8810
   17SOL    HW1   50   0.211   0.525   0.156 -0.9334 -0.9374 -0.4917
   17SOL    HW2   51   0.055   0.495   0.104  1.2898 -0.7680 -0.1844
   18SOL     OW   52   0.962   2.889   2.148 -0.2511  0.1528  0.1868
   18SOL    HW1   53   0.863   2.854   2.151  1.3538 -1.0401  3.2711
   18SOL    HW2   54   1.012   2.871   2.060  0.7065 -0.5585 -2.9181
   19SOL     OW   55   0.551   0.827   1.896  0.5279  0.4373 -0.3625
   19SOL    HW1   56   0.557   0.782   1.987  0.0963  2.4654  3.1712
   19SOL    HW2   57   0.634   0.888   1.889 -0.6558  1.3951  0.1848
   20SOL     OW   58   0.183   2.703   0.820 -0.2948  0.4920  0.2337
   20SOL    HW1   59   0.107   2.772   0.804 -0.2592 -0.0497  0.2368
   20SOL    HW2   60   0.223   2.658   0.735  0.2519  1.6502  0.8689
   21SOL     OW   61   2.693   0.250   2.049  0.8495  0.4744 -0.1373
   21SOL    HW1   62   2.654   0.190   1.975  1.3092  1.5920  0.5551
   21SOL    HW2   63   2.777   0.212   2.092  1.7354 -1.4396  1.3028
   22SOL     OW   64   2.363   0.265   0.164 -0.4219  0.5420  0.0300
   22SOL    HW1   65   2.359   0.162   0.186  0.4752  1.7094 -3.1740
   22SOL    HW2   66   2.277   0.294   0.115  0.2562  1.0864 -1.1393
   23SOL     OW   67   2.790   0.609   0.628 -0.3024 -0.9882 -0.3456
   23SOL    HW1   68   2.814   0.517   0.654  3.3092  2.1324 -2.6264
   23SOL    HW2   69   2.729   0.620   0.546  0.1064 -1.5204  1.8650
   24SOL     OW   70   0.211   1.913   0.387 -0.5310 -0.0010 -0.1001
   24SOL    HW1   71   0.180   1.989   0.322  0.6654 -2.5884  2.1934
   24SOL    HW2   72   0.306   1.886   0.362 -1.6258  0.4907  1.7296
   25SOL     OW   73   2.226   0.617   0.239  0.1800 -0.5545 -0.3775
   25SOL    HW1   74   2.243   0.615   0.135  1.6798  1.8445  0.6676
   25SOL    HW2   75   2.239   0.526   0.276  2.7955  2.8965 -1.3045
   26SOL     OW   76   2.501   2.126   2.075  0.0547  0.3766  0.0398
   26SOL    HW1   77   2.576   2.189   2.102 -0.2321  0.1272 -0.3361
   26SOL    HW2   78   2.537   2.049   2.024 -3.3499  1.2063 -0.3909
   27SOL     OW   79   0.591   2.924   0.195 -0.4548 -0.6850  0.1377
   27SOL    HW1   80   0.695   2.949   0.203 -0.9076  0.2236  1.3297
   27SOL    HW2   81   0.551   2.978   0.117 -0.7141 -1.0260  0.4748
   28SOL     OW   82   1.578   0.204   0.289 -0.5616  0.5132 -0.1212
   28SOL    HW1   83   1.629   0.171   0.203  1.8336 -0.4574  0.5436
   28SOL    HW2   84   1.616   0.293   0.328 -2.0620 -2.0106  1.8192
   29SOL     OW   85   1.977   0.640   0.381 -0.1317 -0.3328 -0.3407
   29SOL    HW1   86   1.967   0.711   0.454  0.6925 -1.4606 -1.1340
   29SOL    HW2   87   2.074   0.654   0.339 -0.8090  2.1582 -0.6318
   30SOL     OW   88   0.155   1.974   0.886  0.0195  0.0656  0.5689
   30SOL    HW1   89   0.116   1.948   0.794  2.8483 -0.4836 -2.1193
   30SOL    HW2   90   0.108   2.051   0.935  2.0016  1.0490 -2.2917
   31SOL     OW   91   2.113   3.085   2.368  0.4275  0.0867 -0.2210
   31SOL    HW1   92   2.111   3.075   2.469  0.4329  0.6880  0.5427
   31SOL    HW2   93   2.030   3.040   2.322 -0.1410 -1.4993 -3.0425
   32SOL     OW   94   2.969   0.035   0.232  0.0375  0.1012  0.8003
   32SOL    HW1   95   2.973  -0.062   0.192  1.0805 -1.2786 -3.2495
   32SOL    HW2   96   3.051   0.087   0.203  0.3138 -3.1718  2.1947
   33SOL     OW   97   0.935   0.302   0.577 -0.5453  0.5663  0.3204
   33SOL    HW1   98   0.888   0.225   0.522 -2.2945  0.5843 -2.6899
   33SOL    HW2   99   1.036   0.313   0.553  0.5403 -1.3453 -0.6278
   34SOL     OW  100   0.322   2.760   1.097  0.5951  0.1598  0.0348
   34SOL    HW1  101   0.298   2.691   1.021  0.3854 -0.1477 -1.5991
   34SOL    HW2  102   0.411   2.802   1.073  1.0548  2.8313 -3.9928
   35SOL     OW  103   0.029   0.076   1.905  0.3824  0.2354 -0.0509
   35SOL    HW1  104   0.054  -0.023   1.928 -0.9129 -1.9644  0.3490
   35SOL    HW2  105  -0.021   0.088   1.811 -0.0555  1.6331 -1.9721
   36SOL     OW  106   1.922   1.260   1.706  0.1704  1.4986 -0.0276
   36SOL    HW1  107   1.975   1.193   1.643  0.0718  2.3608  1.4335
   36SOL    HW2  108   1.933   1.361   1.690  0.7366  1.4178 -4.1017
   37SOL     OW  109   1.169   0.219   0.985  0.1783  0.3083  0.0940
   37SOL    HW1  110   1.237   0.289   1.027 -0.1551  0.1198  1.0379
   37SOL    HW2  111   1.220   0.141   0.938  0.8493  1.6976  2.2828
   38SOL     OW  112   1.089   2.836   2.491  0.3204  1.2449 -0.4315
   38SOL    HW1  113   1.019   2.761   2.469  0.8962 -1.4140 -1.4717
   38SOL    HW2  114   1.069   2.925   2.444 -1.2917 -2.1690  0.5586
   39SOL     OW  115   2.306   1.446   3.065 -0.6178  0.6927  0.4212
   39SOL    HW1  116   2.365   1.364   3.053  0.0251  2.5733  1.3244
   39SOL    HW2  117   2.268   1.450   3.159 -0.0591  0.6077  0.7172
   40SOL     OW  118   2.016   2.431   2.541 -0.3302  0.2338  0.1404
   40SOL    HW1  119   1.996   2.532   2.519  1.7113  0.3394 -1.4066
   40SOL    HW2  120   1.975   2.361   2.475 -0.4312  1.1848  1.5770
   41SOL     OW  121   3.043   0.692   2.836 -0.2328  0.3193 -0.9547
   41SOL    HW1  122   3.023   0.783   2.784 -0.3090  1.8423 -0.5172
   41SOL    HW2  123   3.043   0.604   2.779  0.5266 -0.5271  2.4186
   42SOL     OW  124   1.789   1.753   0.507  0.0486  1.0783  0.3907
   42SOL    HW1  125   1.725   1.665   0.515 -0.9051 -2.7461  0.7502
   42SOL    HW2  126   1.800   1.777   0.405  1.0645  0.6926 -0.4723
   43SOL     OW  127   0.449   1.669   1.133 -1.0090  0.5693 -0.2161
   43SOL    HW1  128   0.446   1.589   1.204 -0.1895 -3.7306  0.0797
   43SOL    HW2  129   0.361   1.684   1.085  2.4905  0.2680  0.6968
   44SOL     OW  130   1.744   2.469   3.019 -0.0386 -0.6064 -0.0103
   44SOL    HW1  131   1.727   2.567   3.009 -1.6004 -2.4786  1.7642
   44SOL    HW2  132   1.745   2.423   2.927 -2.4822 -1.4445  0.8323
   45SOL     OW  133   0.384   1.915   2.624 -0.2544 -0.8408  0.1000
   45SOL    HW1  134   0.329   1.895   2.540 -1.2987  0.1249 -0.6473
   45SOL    HW2  135   0.457   1.841   2.649 -0.5618  0.4476  0.7384
   46SOL     OW  136   1.234   0.659   0.168 -0.4463 -0.8128 -0.5873
   46SOL    HW1  137   1.289   0.734   0.129  0.2214 -0.5550 -1.0765
   46SOL    HW2  138   1.137   0.686   0.197  1.5173  0.4187  2.3835
   47SOL     OW  139   0.197   2.507   1.547 -0.2633  0.0597  0.2905
   47SOL    HW1  140   0.232   2.419   1.581 -2.3946  2.0705 -2.3916
   47SOL    HW2  141   0.218   2.533   1.448  2.5169  1.3145  0.6841
   48SOL     OW  142   2.637   0.629   0.129 -0.2038 -0.3585  0.3244
   48SOL    HW1  143   2.596   0.617   0.223  1.0078  1.3692  2.9154
   48SOL    HW2  144   2.741   0.635   0.132 -1.2887 -0.6457 -0.2959
   49SOL     OW  145   0.291   0.789   1.777  0.4273 -0.6116 -0.1450
   49SOL    HW1  146   0.379   0.807   1.831  0.3787 -0.4844  0.8457
   49SOL    HW2  147   0.311   0.753   1.682  1.9936  1.2745 -0.0244
   50SOL     OW  148   1.677   1.134   0.344 -0.0956 -0.2735 -0.0271
   50SOL    HW1  149   1.637   1.057   0.289  0.1323  1.2834  0.7149
   50SOL    HW2  150   1.663   1.140   0.445  0.2708 -0.5454 -1.7539
   51SOL     OW  151   2.876   1.773   0.246  0.3862  0.0764 -0.4912
   51SOL    HW1  152   2.840   1.696   0.195 -0.1047 -0.6785  4.3669
   51SOL    HW2  153   2.969   1.759   0.296  0.5671  2.6319  2.3576
   52SOL     OW  154   0.781   2.035   0.530  0.5661  0.4357 -0.3113
   52SOL    HW1  155   0.689   2.056   0.567  3.7321 -0.7212  0.6684
   52SOL    HW2  156   0.840   1.974   0.590  2.2881  0.6259  0.7026
   53SOL     OW  157   0.190   0.421   1.594 -0.0019 -0.1665  0.1177
   53SOL    HW1  158   0.236   0.514   1.595  0.5452  0.0385  0.4248
   53SOL    HW2  159   0.105   0.428   1.536 -0.5972 -1.7933  0.9991
   54SOL     OW  160   1.791   0.517   3.086  0.6916  0.2592  0.2808
   54SOL    HW1  161   1.819   0.498   3.184 -3.4045  0.7534 -0.6186
   54SOL    HW2  162   1.696   0.476   3.077  1.0639 -2.4135  1.9253
   55SOL     OW  163   0.746   2.876   0.677  0.2849  0.9733  0.0344
   55SOL    HW1  164   0.680   2.955   0.662  0.8250 -2.1952  1.6786
   55SOL    HW2  165   0.827   2.911   0.732 -0.9585 -0.0141 -0.4027
   56SOL     OW  166   0.576   1.560   0.020  0.1243 -0.2614  0.0859
   56SOL    HW1  167   0.487   1.615   0.017 -0.0299  0.1079  1.9681
   56SOL    HW2  168   0.570   1.473  -0.032 -0.5793  2.5677  0.3497
   57SOL     OW  169   1.753   2.525   2.418 -0.1423  0.7021 -0.3313
   57SOL    HW1  170   1.778   2.423   2.394 -0.7854 -2.7242 -2.0412
   57SOL    HW2  171   1.670   2.543   2.471  1.9855  0.3510 -1.8653
   58SOL     OW  172   0.682   0.287   1.064  0.4911  0.2519 -0.0018
   58SOL    HW1  173   0.599   0.295   1.122 -1.1753  0.1537  3.2827
   58SOL    HW2  174   0.681   0.195   1.014 -0.5830 -1.4489 -2.7102
   59SOL     OW  175   0.441   2.382   2.732 -0.7378 -0.7262  0.2759
   59SOL    HW1  176   0.470   2.308   2.660 -0.0025 -1.6718 -2.2366
   59SOL    HW2  177   0.519   2.396   2.798  2.3401 -3.5956 -1.7331
   60SOL     OW  178   2.303   2.060   2.240  0.0949  0.2819  0.2867
   60SOL    HW1  179   2.370   2.093   2.168  0.7314  0.2702 -2.3958
   60SOL    HW2  180   2.319   2.088   2.335 -0.6301  1.3533  1.6182
   61SOL     OW  181   1.327   0.661   0.478 -0.1016  0.1241 -0.8476
   61SOL    HW1  182   1.225   0.682   0.473  1.6905 -2.0710 -1.9055
   61SOL    HW2  183   1.377   0.684   0.388 -1.2432  1.0705 -2.4978
   62SOL     OW  184   2.716   1.819   2.933 -0.6425  0.2002  0.2229
   62SOL    HW1  185   2.708   1.719   2.936 -1.3683  1.2876 -0.2640
   62SOL    HW2  186   2.817   1.843   2.929  0.0740 -0.4524  0.5408
   63SOL     OW  187   0.541   0.813   0.194 -0.3489 -0.3653  0.1423
   63SOL    HW1  188   0.592   0.877   0.124 -1.7460  0.5675 -0.0288
   63SOL    HW2  189   0.570   0.833   0.293 -2.9307 -0.9476  0.1566
   64SOL     OW  190   0.075   0.456   2.464  0.0752 -0.7564  0.5390
   64SOL    HW1  191   0.173   0.465   2.470 -2.0448 -0.2672  1.1572
   64SOL    HW2  192   0.029   0.499   2.384 -0.0960  1.8532  0.8200
   65SOL     OW  193   0.131   1.524   0.568 -0.1543 -0.0262  0.5350
   65SOL    HW1  194   0.193   1.553   0.644 -2.0026 -0.4357  2.7603
   65SOL    HW2  195   0.177   1.459   0.502  0.3786 -1.4320 -1.2863
   66SOL     OW  196   2.551   0.362   0.601 -0.0405  0.1186 -0.6687
   66SOL    HW1  197   2.653   0.338   0.614 -1.0855 -1.1727  1.9383
   66SOL    HW2  198   2.484   0.303   0.656  1.2333  0.7201  2.7404
   67SOL     OW  199   0.565   2.522   1.420  0.0325  0.1516 -0.0027
   67SOL    HW1  200   0.660   2.483   1.445  0.5545  1.5380  3.7144
   67SOL    HW2  201   0.498   2.443   1.419  0.5872 -2.2701 -0.1933
   68SOL     OW  202   1.012   1.088   2.472  0.5838  0.4527 -0.0267
   68SOL    HW1  203   1.076   1.007   2.468  0.5015  2.1007  3.8532
   68SOL    HW2  204   0.934   1.085   2.407  2.1255 -2.3349  2.6693
   69SOL     OW  205   0.721   2.730   2.134  0.3528  0.5020 -0.2863
   69SOL    HW1  206   0.756   2.636   2.148  0.4820 -1.2121  1.2221
   69SOL    HW2  207   0.617   2.731   2.113 -2.1473  1.7228 -1.1767
   70SOL     OW  208   0.506   0.256   2.669 -0.3269 -0.8912 -0.0028
   70SOL    HW1  209   0.424   0.300   2.717 -2.6386 -1.6756  2.0146
   70SOL    HW2  210   0.512   0.152   2.682 -0.7303 -0.6434  1.2369
   71SOL     OW  211   1.107   1.784   0.443  0.1543 -0.2372 -0.2378
   71SOL    HW1  212   1.046   1.707   0.484 -2.1398 -2.0151  0.9230
   71SOL    HW2  213   1.082   1.800   0.348 -2.0414 -2.7470  1.6694
   72SOL     OW  214   1.824   0.205   2.147 -0.2683  0.1201 -0.3552
   72SOL    HW1  215   1.900   0.261   2.171 -2.7395 -0.8802 -1.1231
   72SOL    HW2  216   1.851   0.101   2.156 -0.8493  1.8047 -0.6820
   73SOL     OW  217   2.810   2.156   2.406 -0.0013  0.5599 -0.1885
   73SOL    HW1  218   2.842   2.061   2.366 -0.1154  0.4665  0.6238
   73SOL    HW2  219   2.863   2.178   2.492 -0.2828  3.1492  2.5942
   74SOL     OW  220   2.698   2.877   2.135  0.2264 -0.0115  0.2725
   74SOL    HW1  221   2.688   2.849   2.229  1.4316 -3.5014 -1.1244
   74SOL    HW2  222   2.775   2.947   2.117 -1.0237 -1.1118  1.7440
   75SOL     OW  223   0.930   0.839   1.100  0.9965  0.5751  0.1301
   75SOL    HW1  224   0.866   0.903   1.047  2.0245  0.4308 -0.5470
   75SOL    HW2  225   0.928   0.845   1.202  2.5775 -2.9844 -0.4877
   76SOL     OW  226   1.727   1.190   2.506  0.3016  0.2909 -0.0817
   76SOL    HW1  227   1.625   1.187   2.483 -0.4225 -0.3020 -0.0657
   76SOL    HW2  228   1.756   1.269   2.573  2.8585 -1.8788  0.7631
   77SOL     OW  229   2.952   0.945   0.963 -0.3149 -0.1216  0.2768
   77SOL    HW1  230   2.922   0.844   0.960  2.0185 -1.2777  0.2391
   77SOL    HW2  231   2.986   0.968   1.059 -1.9599  3.5630  1.8295
   78SOL     OW  232   2.020   1.476   1.470 -0.6797 -0.2450 -0.6563
   78SOL    HW1  233   2.103   1.525   1.429  3.0997 -1.8582 -0.5803
   78SOL    HW2  234   1.941   1.460   1.404 -0.1524  0.3828 -2.5477
   79SOL     OW  235   0.627   1.376   0.832 -0.0524 -0.1427 -0.1315
   79SOL    HW1  236   0.540   1.436   0.833  1.3803 -1.3635 -1.5055
   79SOL    HW2  237   0.615   1.293   0.775  1.1740  1.6779  0.0095
   80SOL     OW  238   0.614   0.492   1.569  0.3792 -0.0803 -0.1052
   80SOL    HW1  239   0.696   0.538   1.527 -2.2781  1.0996 -1.1786
   80SOL    HW2  240   0.603   0.393   1.534  2.2167 -2.1939 -1.1185
   81SOL     OW  241   1.030   1.356   2.636  0.0059 -0.3891 -0.1732
   81SOL    HW1  242   1.030   1.258   2.664 -1.1226 -0.0085 -0.7442
   81SOL    HW2  243   0.961   1.383   2.561 -1.6155 -3.0993  0.7095
   82SOL     OW  244   0.979   2.993   1.504 -0.3173  0.2111  0.4401
   82SOL    HW1  245   0.905   3.014   1.437 -0.5310  0.4732  0.5655
   82SOL    HW2  246   1.046   2.920   1.469  2.0523  1.8430 -1.6004
   83SOL     OW  247   2.689   2.414   0.836 -0.9565 -0.4175 -0.5155
   83SOL    HW1  248   2.630   2.351   0.780 -0.9759 -1.0413  0.1242
   83SOL    HW2  249   2.650   2.514   0.829  0.3649  0.8732  0.7094
   84SOL     OW  250   0.647   3.041   2.344 -0.3481  0.2324 -0.0949
   84SOL    HW1  251   0.566   3.054   2.400 -0.4830  1.1507 -4.2936
   84SOL    HW2  252   0.700   2.957   2.378  1.2231  0.6832 -0.7588
   85SOL     OW  253   0.278   1.598   1.479  0.2341  0.5491 -0.2760
   85SOL    HW1  254   0.254   1.691   1.448  1.5121 -0.8306 -1.8506
   85SOL    HW2  255   0.343   1.586   1.558  0.1739 -0.2922  0.4024
   86SOL     OW  256   0.417   0.992   1.547 -0.0357  0.2858  0.0575
   86SOL    HW1  257   0.365   0.973   1.456 -0.6172  1.3852 -0.7030
   86SOL    HW2  258   0.454   0.908   1.596  2.4514  0.2309  0.1704
   87SOL     OW  259   1.560   0.649   0.208  0.2958  0.2659 -0.3860
   87SOL    HW1  260   1.650   0.702   0.187  0.2336  1.3641 -0.1923
   87SOL    HW2  261   1.527   0.587   0.128 -0.1513  1.4629  0.8478
   88SOL     OW  262   1.581   1.380   0.260  0.2047 -0.3292  0.5655
   88SOL    HW1  263   1.592   1.275   0.273 -0.3251 -0.2488 -0.3164
   88SOL    HW2  264   1.483   1.408   0.245  0.2744  0.4304 -1.1084
   89SOL     OW  265   3.084   0.460   0.582 -0.1644  0.2459  0.0480
   89SOL    HW1  266   3.154   0.389   0.550  2.4447 -1.5399  3.3582
   89SOL    HW2  267   2.995   0.410   0.610 -3.7753 -0.7161  0.0451
   90SOL     OW  268   0.908   1.565   0.087 -0.0540  0.2733  0.3419
   90SOL    HW1  269   0.848   1.531   0.166  1.2754 -1.8700 -0.4873
   90SOL    HW2  270   0.851   1.584   0.004 -2.3988 -0.1025  0.7796
   91SOL     OW  271   1.249   1.446   1.848 -0.2297  0.3737 -0.3954
   91SOL    HW1  272   1.231   1.544   1.861  1.7953  0.6820 -0.1912
   91SOL    HW2  273   1.349   1.437   1.823  0.2751 -0.1002 -0.2407
   92SOL     OW  274   3.077   0.952   1.228 -0.1252 -0.2037  0.0476
   92SOL    HW1  275   3.126   1.035   1.185  1.5140 -0.8443 -0.2989
   92SOL    HW2  276   3.085   0.954   1.333 -0.9334  1.8146  0.5027
   93SOL     OW  277   0.024   2.730   3.066 -0.2219  0.5008  0.8315
   93SOL    HW1  278  -0.044   2.741   2.988 -0.8089 -0.3446  0.5573
   93SOL    HW2  279   0.053   2.632   3.086  0.6030  1.0978 -0.6461
   94SOL     OW  280   1.491   1.468   1.741 -0.0223 -0.5463  0.4715
   94SOL    HW1  281   1.526   1.370   1.733  1.6929 -0.3628  1.3381
   94SOL    HW2  282   1.533   1.526   1.814  1.6432 -2.4874 -0.1343
   95SOL     OW  283   1.425   2.510   2.986  0.1922 -0.2276  0.4645
   95SOL    HW1  284   1.344   2.544   3.045  1.0019  0.1587 -1.6128
   95SOL    HW2  285   1.410   2.413   2.958  0.6218  0.3298  3.1436
   96SOL     OW  286   0.547   2.117   1.238  0.2501 -0.2924  0.5419
   96SOL    HW1  287   0.508   2.078   1.150 -0.5783 -0.5460 -0.3532
   96SOL    HW2  288   0.589   2.048   1.299 -0.9162 -1.5575 -1.1817
   97SOL     OW  289   0.448   1.646   2.453 -0.5074  0.7841 -1.2649
   97SOL    HW1  290   0.349   1.668   2.452 -0.7024 -1.2785 -0.6433
   97SOL    HW2  291   0.492   1.657   2.550  3.3259  0.6043  0.0534
   98SOL     OW  292   2.037   1.630   1.197  0.2578  1.2181 -0.1533
   98SOL    HW1  293   1.956   1.561   1.208 -0.5763 -0.1354 -0.7252
   98SOL    HW2  294   2.123   1.585   1.153  0.3093  0.7465  0.8126
   99SOL     OW  295   2.503   2.032   1.306  0.2526 -0.4786 -0.0024
   99SOL    HW1  296   2.486   2.026   1.409 -1.1690 -0.9371 -0.3808
   99SOL    HW2  297   2.474   1.941   1.262 -0.3401  0.2009 -0.2027
  100SOL     OW  298   2.374   0.320   2.121 -0.2366  0.8527 -0.3593
  100SOL    HW1  299   2.294   0.300   2.186 -0.0741 -0.4872 -2.5080
  100SOL    HW2  300   2.444   0.388   2.150 -0.0743 -1.6620 -4.8356
  101SOL     OW  301   0.403   1.453   0.444  0.5936 -0.0329  0.4630
  101SOL    HW1  302   0.395   1.550   0.481 -0.3375  0.5757 -2.5667
  101SOL    HW2  303   0.503   1.433   0.413  0.6329  0.7312  0.2524
  102SOL     OW  304   2.239   1.035   0.844 -0.0299  0.2088 -0.6108
  102SOL    HW1  305   2.179   0.952   0.833 -2.1760 -2.7444 -0.5287
  102SOL    HW2  306   2.221   1.098   0.764 -2.1608 -0.3393  1.1413
  103SOL     OW  307   2.253   0.084   0.406 -0.6535  0.0251 -0.4983
  103SOL    HW1  308   2.257   0.180   0.448 -0.2877 -0.6539 -1.1523
  103SOL    HW2  309   2.308   0.022   0.467  0.4419 -0.7321  1.1996
  104SOL     OW  310   0.096   1.774   2.190  0.4063  0.3048 -0.1484
  104SOL    HW1  311   0.124   1.746   2.095 -2.8678 -1.4084 -0.6726
  104SOL    HW2  312  -0.009   1.800   2.197 -0.3145 -0.7149  2.0772
  105SOL     OW  313   1.270   2.083   0.777  0.3485 -0.0673 -0.2908
  105SOL    HW1  314   1.170   2.063   0.759  0.5970 -0.8806 -0.9611
  105SOL    HW2  315   1.329   1.997   0.790  0.0248 -1.9895 -0.9855
  106SOL     OW  316   2.095   0.423   1.400  0.5603 -0.1303 -0.0598
  106SOL    HW1  317   2.075   0.327   1.434 -2.1114  0.7840 -0.3859
  106SOL    HW2  318   2.091   0.489   1.482  0.0860  2.3128 -0.9930
  107SOL     OW  319   1.827   2.953   1.213  0.3828 -0.4444  0.7232
  107SOL    HW1  320   1.846   3.047   1.256 -0.2977 -0.8267 -0.1579
  107SOL    HW2  321   1.745   2.906   1.254  1.2894 -0.1579 -2.6097
  108SOL     OW  322   0.766   2.765   1.269  0.0078  0.2588 -0.2037
  108SOL    HW1  323   0.764   2.740   1.367 -0.8954  0.5118 -0.2748
  108SOL    HW2  324   0.853   2.816   1.246  1.8920 -0.4848  1.8081
  109SOL     OW  325   2.133   0.093   0.814 -0.2539 -0.0646  0.2952
  109SOL    HW1  326   2.039   0.126   0.781 -0.0279  0.1263  2.3661
  109SOL    HW2  327   2.137   0.053   0.909  1.0542  0.5779 -1.0816
  110SOL     OW  328   0.470   2.850   2.783  0.6090  0.0558 -0.0482
  110SOL    HW1  329   0.438   2.825   2.689  0.5468 -0.4027  2.7273
  110SOL    HW2  330   0.547   2.788   2.809  1.0120 -1.9042  0.0174
  111SOL     OW  331   1.291   0.508   2.327 -0.5544 -0.2176  0.5803
  111SOL    HW1  332   1.204   0.542   2.375 -2.1294  0.6536  1.1101
  111SOL    HW2  333   1.346   0.441   2.390 -0.9492 -0.1749 -1.2454
  112SOL     OW  334   1.681   0.509   1.448  0.8623 -0.2594 -0.0289
  112SOL    HW1  335   1.711   0.463   1.361  0.1380  1.8542  1.1324
  112SOL    HW2  336   1.661   0.456   1.536 -0.9150  0.5366  0.1728
  113SOL     OW  337   2.303   1.689   1.767  0.2002  0.0326 -0.0967
  113SOL    HW1  338   2.391   1.642   1.737  0.4257  0.5041 -1.3708
  113SOL    HW2  339   2.299   1.693   1.872 -2.6148 -1.7887  1.2579
  114SOL     OW  340   0.389   0.549   1.281 -0.7036 -0.2481  0.3810
  114SOL    HW1  341   0.452   0.593   1.213  1.2131  0.8522  2.5508
  114SOL    HW2  342   0.290   0.551   1.265 -1.7755  0.9767 -1.4329
  115SOL     OW  343   2.717   1.623   1.206 -0.5059  0.0502  0.5383
  115SOL    HW1  344   2.746   1.527   1.227  3.2571  3.6563 -3.1187
  115SOL    HW2  345   2.737   1.649   1.103 -1.3990  2.1194 -2.1708
  116SOL     OW  346   1.800   1.061   0.639 -0.2681 -0.3130 -0.5361
  116SOL    HW1  347   1.712   1.005   0.631 -1.0365 -2.0867 -0.9913
  116SOL    HW2  348   1.793   1.136   0.712  3.2292  2.1916 -0.0920
  117SOL     OW  349   1.207   0.326   0.577  0.0678 -0.4727 -0.1147
  117SOL    HW1  350   1.262   0.388   0.641 -1.1771 -0.4770  0.3238
  117SOL    HW2  351   1.227   0.354   0.486 -0.9406  0.4614  3.6549
  118SOL     OW  352   1.165   1.071   1.128 -0.6410 -0.5125  0.4999
  118SOL    HW1  353   1.116   1.000   1.183 -0.7964 -0.0854 -1.8147
  118SOL    HW2  354   1.170   1.166   1.179  2.4426  2.8642  1.3769
  119SOL     OW  355   1.823   1.622   2.173  0.0951 -0.1786 -0.0645
  119SOL    HW1  356   1.805   1.723   2.172  0.0251 -1.5978  0.4298
  119SOL    HW2  357   1.923   1.598   2.151 -0.2252  0.3286 -1.8652
  120SOL     OW  358   2.952   2.860   0.130  0.0353 -0.5066  0.4281
  120SOL    HW1  359   3.031   2.821   0.080 -0.6277  2.1670 -0.3524
  120SOL    HW2  360   2.869   2.797   0.141 -2.6981 -1.3636  3.8039
  121SOL     OW  361   1.998   0.749   2.223 -0.6724  0.0000 -0.2460
  121SOL    HW1  362   2.010   0.793   2.129  0.6483 -0.6455 -1.7993
  121SOL    HW2  363   1.992   0.647   2.217 -0.4580  1.0358  0.3398
  122SOL     OW  364   2.572   2.612   1.294 -0.0472 -0.1857  0.7619
  122SOL    HW1  365   2.616   2.541   1.235  0.4360 -0.6741 -1.4054
  122SOL    HW2  366   2.468   2.603   1.285  1.3557 -1.9258 -1.4761
  123SOL     OW  367   1.742   0.073   1.690 -0.0979 -0.1742  0.4127
  123SOL    HW1  368   1.764  -0.016   1.637  0.0256 -2.0357 -1.8289
  123SOL    HW2  369   1.829   0.125   1.717 -1.8313 -0.9977 -2.6336
  124SOL     OW  370   0.070   0.456   1.109  0.0663 -0.1905  0.4104
  124SOL    HW1  371   0.081   0.538   1.167 -2.9043 -4.1407 -1.0360
  124SOL    HW2  372   0.062   0.473   1.006 -1.6712 -1.9927 -1.1898
  125SOL     OW  373   0.862   1.839   0.693  0.1460 -0.0530 -0.2293
  125SOL    HW1  374   0.961   1.828   0.714 -2.2303 -0.4090  0.8392
  125SOL    HW2  375   0.807   1.887   0.766 -0.9814  0.8899 -0.3693
  126SOL     OW  376   1.845   2.269   2.363 -0.3705 -0.2647 -0.1097
  126SOL    HW1  377   1.910   2.224   2.298  0.8611  1.1874 -0.3087
  126SOL    HW2  378   1.766   2.206   2.390 -2.6458 -0.5556  1.1669
  127SOL     OW  379   1.017   0.897   0.239 -0.3995  0.0207 -0.2728
  127SOL    HW1  380   1.021   0.964   0.316  0.4279 -0.4920 -0.2988
  127SOL    HW2  381   0.985   0.803   0.279 -2.4306 -1.2212  0.1417
  128SOL     OW  382   0.966   0.197   1.392 -0.3826 -0.2008 -0.2082
  128SOL    HW1  383   0.971   0.274   1.316 -0.7555  0.7131 -0.7260
  128SOL    HW2  384   0.925   0.107   1.365  0.3375 -3.9942  0.5139
  129SOL     OW  385   1.840   0.647   1.861  0.0470 -0.2183 -0.8032
  129SOL    HW1  386   1.820   0.657   1.760  0.8423  0.6240 -4.0077
  129SOL    HW2  387   1.885   0.729   1.899  0.5459 -3.2109 -0.3903
  130SOL     OW  388   1.382   2.173   1.004 -0.1607 -0.1535  0.4659
  130SOL    HW1  389   1.334   2.131   0.926 -0.4388  0.0829  1.4411
  130SOL    HW2  390   1.476   2.218   0.984  1.8155 -2.6333 -1.3950
  131SOL     OW  391   3.013   1.420   1.387 -0.0657 -0.1373 -0.4485
  131SOL    HW1  392   2.972   1.331   1.422  1.4832  0.0265 -0.2113
  131SOL    HW2  393   3.114   1.423   1.379 -0.4055 -0.3333 -1.6303
  132SOL     OW  394   2.055   2.432   0.508  0.0860 -0.2966 -0.5781
  132SOL    HW1  395   1.955   2.470   0.511 -0.8424  3.1381  3.9736
  132SOL    HW2  396   2.069   2.360   0.574  1.2616  2.0245 -3.0792
  133SOL     OW  397   1.829   2.327   2.768 -0.3297 -0.0087 -0.5884
  133SOL    HW1  398   1.790   2.355   2.677 -0.2372  2.0951  0.4163
  133SOL    HW2  399   1.906   2.380   2.806 -1.7672  0.1664 -0.7871
  134SOL     OW  400   2.657   2.328   1.585  0.0913 -0.5983 -0.0590
  134SOL    HW1  401   2.557   2.325   1.609 -0.4190  1.2044 -1.7565
  134SOL    HW2  402   2.705   2.421   1.594  0.5878 -0.4625 -1.2374
  135SOL     OW  403   0.682   1.472   2.632  0.9897  0.6351  0.2370
  135SOL    HW1  404   0.673   1.375   2.672 -2.6599 -1.3221 -1.2672
  135SOL    HW2  405   0.744   1.472   2.548 -3.0528  0.6267  1.8813
  136SOL     OW  406   1.195   2.028   0.430 -0.0643  0.7891  0.0177
  136SOL    HW1  407   1.126   2.107   0.447 -2.2249  1.7906  0.3291
  136SOL    HW2  408   1.159   1.935   0.456  0.8201 -0.5846 -0.5483
  137SOL     OW  409   0.402   1.197   2.170  0.1986  0.2619  0.8369
  137SOL    HW1  410   0.310   1.176   2.218 -0.6487  2.2542  0.1465
  137SOL    HW2  411   0.478   1.122   2.191  3.2960 -2.0464 -0.6148
  138SOL     OW  412   2.513   1.478   0.245  0.6225 -0.6188  0.3167
  138SOL    HW1  413   2.409   1.460   0.237 -1.2550  2.2259 -1.5070
  138SOL    HW2  414   2.566   1.427   0.319  1.9011  0.0192 -0.4252
  139SOL     OW  415   1.869   2.610   1.331  0.5643  0.5794  0.1673
  139SOL    HW1  416   1.776   2.606   1.288 -0.0607 -1.7302  0.6550
  139SOL    HW2  417   1.896   2.511   1.348 -0.7642 -0.3101  2.8061
  140SOL     OW  418   3.025   2.994   2.536 -0.4285 -0.9850 -0.4423
  140SOL    HW1  419   3.060   2.893   2.531 -0.3887 -2.4330 -0.9919
  140SOL    HW2  420   3.091   3.066   2.501 -0.0859  0.6751 -0.0409
  141SOL     OW  421   1.340   1.667   1.603  0.0836  0.5001 -0.4646
  141SOL    HW1  422   1.243   1.703   1.624 -1.7420 -3.5447 -1.3365
  141SOL    HW2  423   1.388   1.620   1.682 -0.3761  1.0536  0.7176
  142SOL     OW  424   1.566   0.621   2.255  0.1727  0.0364  0.1812
  142SOL    HW1  425   1.596   0.601   2.157 -1.8915  0.2190 -2.4016
  142SOL    HW2  426   1.476   0.585   2.278 -0.2126  0.5830 -2.0706
  143SOL     OW  427   2.689   0.885   0.491  0.2967  0.2832 -0.2056
  143SOL    HW1  428   2.753   0.925   0.414  1.4635  0.9939 -2.2475
  143SOL    HW2  429   2.730   0.902   0.587  0.9663 -1.6282 -1.3667
  144SOL     OW  430   2.928   1.199   1.470  0.1588 -0.3007  0.4205
  144SOL    HW1  431   2.868   1.190   1.552  1.4655 -1.2505  0.3873
  144SOL    HW2  432   2.987   1.118   1.471 -0.1418  1.2094 -1.3650
  145SOL     OW  433   0.982   1.827   0.216  0.5010 -0.2682 -0.7153
  145SOL    HW1  434   1.064   1.873   0.174  0.8364 -1.9663 -2.0541
  145SOL    HW2  435   0.955   1.731   0.183 -0.3472 -0.7421  1.0972
  146SOL     OW  436   2.502   0.637   1.489 -0.3283  0.4969  0.2158
  146SOL    HW1  437   2.457   0.557   1.443 -1.0828 -1.1527 -0.8805
  146SOL    HW2  438   2.458   0.725   1.464 -5.2776  0.0776 -1.0413
  147SOL     OW  439   1.120   2.476   0.599 -0.6452 -0.2392  0.0295
  147SOL    HW1  440   1.067   2.539   0.536  3.1298  2.4471 -0.3967
  147SOL    HW2  441   1.219   2.449   0.568  0.8949  4.0157 -1.5897
  148SOL     OW  442   1.634   1.467   0.000  0.4039 -0.1716  0.1942
  148SOL    HW1  443   1.616   1.385  -0.062 -0.9126  0.4079 -0.0119
  148SOL    HW2  444   1.617   1.458   0.101 -2.4419 -0.9889  0.4077
  149SOL     OW  445   0.685   1.412   1.996 -0.8860  0.5221 -0.1605
  149SOL    HW1  446   0.582   1.412   1.992  0.7638  0.6235 -0.9597
  149SOL    HW2  447   0.727   1.358   1.920  0.1406  1.0968  1.1348
  150SOL     OW  448   3.015   1.239   0.941  0.1484  0.4460  0.0306
  150SOL    HW1  449   3.111   1.213   0.978  0.5053  1.3976 -0.5662
  150SOL    HW2  450   2.969   1.152   0.901  2.1037 -0.1155 -2.3967
  151SOL     OW  451   0.138   0.694   2.077 -0.5226  0.9347  0.0600
  151SOL    HW1  452   0.145   0.784   2.025 -2.7304 -1.5081 -3.2771
  151SOL    HW2  453   0.196   0.619   2.031 -2.1432  0.4639  1.1743
  152SOL     OW  454   1.469   1.778   1.247 -0.3226 -0.3262 -0.8616
  152SOL    HW1  455   1.502   1.873   1.212  0.0686  0.7533 -1.5879
  152SOL    HW2  456   1.372   1.760   1.224 -0.7429 -0.3705  0.6009
  153SOL     OW  457   0.107   1.582   0.156  0.4226  0.0699  0.2070
  153SOL    HW1  458   0.078   1.482   0.146  1.8535  0.8115  1.0161
  153SOL    HW2  459   0.053   1.623   0.232 -0.6066 -0.0918 -0.5767
  154SOL     OW  460   2.379   1.833   2.829 -0.1965  0.9031 -0.1444
  154SOL    HW1  461   2.419   1.744   2.861 -1.4645 -1.6268  1.6823
  154SOL    HW2  462   2.435   1.875   2.757  0.7804 -0.9474  0.0986
  155SOL     OW  463   2.465   1.197   0.376  0.0754  0.1950 -0.6576
  155SOL    HW1  464   2.551   1.164   0.331 -0.7035  0.2572 -2.2679
  155SOL    HW2  465   2.374   1.152   0.345 -0.4497 -1.9403 -3.0377
  156SOL     OW  466   2.537   0.951   0.829 -0.3614 -0.6197  0.0603
  156SOL    HW1  467   2.432   0.948   0.818 -2.8201 -0.4904 -1.7009
  156SOL    HW2  468   2.579   1.039   0.794 -2.3749  0.2252  1.3612
  157SOL     OW  469   1.234   2.949   2.988 -0.2911  0.6171 -0.1841
  157SOL    HW1  470   1.318   2.900   2.965 -1.6848  0.7005 -2.0450
  157SOL    HW2  471   1.248   3.052   2.989  0.7511 -1.8686  0.6024
  158SOL     OW  472   0.976   1.853   1.893  0.2554 -0.3343 -0.3357
  158SOL    HW1  473   0.973   1.959   1.877 -0.1799  0.4757 -2.7840
  158SOL    HW2  474   0.904   1.825   1.964  1.2621  1.0448 -1.1043
  159SOL     OW  475   0.889   0.409   1.206  0.4795  0.3061 -0.3441
  159SOL    HW1  476   0.847   0.487   1.262 -1.5173  2.0290 -0.1045
  159SOL    HW2  477   0.825   0.364   1.141  1.3700 -1.3112  1.3103
  160SOL     OW  478   1.395   2.406   1.589 -0.6320  0.5938  0.3549
  160SOL    HW1  479   1.361   2.314   1.623 -0.3106  2.6574 -3.1329
  160SOL    HW2  480   1.497   2.409   1.567 -1.0437  0.7790 -2.3452
  161SOL     OW  481   0.060   2.961   0.402 -0.9993  0.5704 -0.0705
  161SOL    HW1  482  -0.011   2.886   0.384 -1.5773 -2.9453  2.6899
  161SOL    HW2  483   0.050   3.046   0.346 -0.4347  1.3975  2.6710
  162SOL     OW  484   2.578   1.872   0.514  0.2807 -0.1645  0.7337
  162SOL    HW1  485   2.575   1.835   0.416 -1.4088 -1.3629 -0.5360
  162SOL    HW2  486   2.569   1.788   0.581 -2.0545 -3.3160  2.2632
  163SOL     OW  487   1.931   2.784   0.713  0.2358 -0.7804 -0.2441
  163SOL    HW1  488   1.918   2.793   0.610 -0.6960 -1.4743  0.4083
  163SOL    HW2  489   1.999   2.713   0.745  0.3958 -1.5658  0.9694
  164SOL     OW  490   3.052   0.219   1.261  0.4429  0.0539  0.1887
  164SOL    HW1  491   3.088   0.299   1.206 -2.1354 -4.0296 -0.5600
  164SOL    HW2  492   3.121   0.181   1.329 -1.4893  2.4330 -1.5127
  165SOL     OW  493   0.953   1.363   0.719 -0.0650 -0.8360 -0.1576
  165SOL    HW1  494   0.880   1.387   0.787  2.2707  0.7048 -1.2484
  165SOL    HW2  495   0.969   1.434   0.640  1.4696  4.5831  0.1965
  166SOL     OW  496   1.524   1.067   1.734 -0.4806 -0.3841  0.1483
  166SOL    HW1  497   1.439   1.059   1.791 -1.1532 -0.8819  0.7542
  166SOL    HW2  498   1.596   1.132   1.770  0.3781  0.8842 -2.2887
  167SOL     OW  499   0.739   1.992   1.447  0.1007 -0.0599  0.6518
  167SOL    HW1  500   0.749   2.045   1.534  0.9859 -2.0606 -1.0236
  167SOL    HW2  501   0.696   1.900   1.462 -0.8304  0.9737 -1.1755
  168SOL     OW  502   1.635   2.371   0.143 -0.3434  0.3426 -0.4564
  168SOL    HW1  503   1.691   2.405   0.067  0.6540 -1.0452 -2.2436
  168SOL    HW2  504   1.679   2.364   0.234 -2.4083 -1.2990  1.6118
  169SOL     OW  505   0.219   2.560   2.225 -0.0931  0.2410  0.0929
  169SOL    HW1  506   0.227   2.531   2.128 -4.4122  0.6269 -0.0958
  169SOL    HW2  507   0.275   2.507   2.291  0.1137  1.3562  0.0045
  170SOL     OW  508   1.095   0.211   2.034 -0.6247  0.4829 -0.1245
  170SOL    HW1  509   1.174   0.194   2.090 -1.5355 -0.6735 -3.5685
  170SOL    HW2  510   1.099   0.171   1.941 -1.7358 -0.0928 -0.7684
  171SOL     OW  511   0.189   0.782   2.353  0.1892  0.2637 -0.0454
  171SOL    HW1  512   0.108   0.824   2.401 -0.5009 -0.5520 -4.2040
  171SOL    HW2  513   0.164   0.744   2.258 -2.8805 -0.5689 -0.0514
  172SOL     OW  514   0.954   1.009   2.868 -0.1601 -0.4345  0.1195
  172SOL    HW1  515   0.993   1.103   2.899 -0.7201  1.0702  0.2770
  172SOL    HW2  516   0.878   1.013   2.798 -0.2678 -1.7412  1.1621
  173SOL     OW  517   0.653   2.656   0.121 -0.5012 -0.5771  0.1277
  173SOL    HW1  518   0.645   2.754   0.161 -1.1749  2.1404 -0.6432
  173SOL    HW2  519   0.558   2.612   0.115 -3.4358 -4.5965  1.7882
  174SOL     OW  520   1.522   2.809   1.054  0.4040 -0.3562 -0.3757
  174SOL    HW1  521   1.531   2.851   0.961  1.3906  1.0412  2.7635
  174SOL    HW2  522   1.492   2.708   1.050 -1.4440 -4.7893 -0.0383
  175SOL     OW  523   0.457   3.039   1.679  0.5482 -0.7593  0.3530
  175SOL    HW1  524   0.519   3.053   1.759 -0.7384  0.8467 -1.5296
  175SOL    HW2  525   0.398   3.121   1.659  0.7315 -0.9249  0.2473
  176SOL     OW  526   2.583   0.386   0.013 -0.3097 -0.0189  0.2269
  176SOL    HW1  527   2.606   0.478   0.050 -3.9999  1.2195  1.6919
  176SOL    HW2  528   2.509   0.338   0.073 -1.6934 -1.7986  2.2915
  177SOL     OW  529   0.317   0.324   0.935 -0.3606  0.5301  0.2062
  177SOL    HW1  530   0.273   0.233   0.918 -3.7920  0.9431 -1.2075
  177SOL    HW2  531   0.270   0.387   1.002  2.4779  1.6755  2.3027
  178SOL     OW  532   0.027   2.728   2.574  0.1793  0.0897 -0.1076
  178SOL    HW1  533  -0.035   2.652   2.610  0.5704  0.1436  0.9820
  178SOL    HW2  534   0.103   2.752   2.644 -0.2854  0.2446 -0.1240
  179SOL     OW  535   3.065   1.562   1.134  0.1696  0.2607  0.2912
  179SOL    HW1  536   2.994   1.621   1.099 -2.6418 -2.8013 -0.0423
  179SOL    HW2  537   3.050   1.523   1.227  0.5926  0.4335 -1.0430
  180SOL     OW  538   0.190   1.236   1.845  0.1682  0.6322 -0.1179
  180SOL    HW1  539   0.282   1.191   1.864  1.9908 -2.2453  2.8186
  180SOL    HW2  540   0.182   1.330   1.893  1.3884  1.3089  0.7820
  181SOL     OW  541   3.037   1.861   2.499  0.6449  0.6095 -0.2738
  181SOL    HW1  542   3.120   1.925   2.485  1.9973 -0.0020 -2.3241
  181SOL    HW2  543   2.958   1.876   2.433  2.3905  1.9909  0.7095
  182SOL     OW  544   2.319   1.261   1.144 -0.3639 -0.4020 -0.2002
  182SOL    HW1  545   2.241   1.192   1.115  1.5124 -0.3918 -0.4752
  182SOL    HW2  546   2.303   1.353   1.102  1.1369 -3.1433  0.9609
  183SOL     OW  547   1.441   2.258   2.594 -0.1047  0.3356 -0.3824
  183SOL    HW1  548   1.346   2.219   2.604  1.6989  1.2783  2.4889
  183SOL    HW2  549   1.515   2.197   2.541  1.4167 -1.6736 -0.7398
  184SOL     OW  550   2.000   0.892   0.722  0.7436  0.6505 -0.4145
  184SOL    HW1  551   1.921   0.938   0.677 -0.5923  1.1721 -2.9516
  184SOL    HW2  552   1.980   0.797   0.759  0.2805 -0.6678  1.1052
  185SOL     OW  553   1.626   2.798   1.973  0.0882 -0.0778 -0.8677
  185SOL    HW1  554   1.548   2.866   1.979  0.6467  0.5676  1.0651
  185SOL    HW2  555   1.689   2.809   2.057  1.7311 -0.2957 -0.7836
  186SOL     OW  556   0.114   2.263   1.638  0.1294  0.1266 -0.5612
  186SOL    HW1  557   0.109   2.327   1.722  2.0705 -0.6256  2.3341
  186SOL    HW2  558   0.189   2.195   1.645  0.1083  0.2674  1.0244
  187SOL     OW  559   1.324   0.701   1.662  0.9480 -0.0082 -0.1657
  187SOL    HW1  560   1.406   0.758   1.622 -0.2920  0.4642 -1.1392
  187SOL    HW2  561   1.365   0.634   1.732 -0.3442 -1.7718 -0.5964
  188SOL     OW  562   2.772   2.771   1.434  0.0568 -0.0245  0.2371
  188SOL    HW1  563   2.718   2.861   1.460 -0.2945  0.2033 -0.3060
  188SOL    HW2  564   2.713   2.713   1.373 -0.4421  0.2108  0.9090
  189SOL     OW  565   0.947   1.199   1.447 -0.0370  0.0008  0.0270
  189SOL    HW1  566   1.022   1.237   1.504  0.5566 -1.6396 -1.0767
  189SOL    HW2  567   0.923   1.259   1.371  0.2169 -3.4879  0.6128
  190SOL     OW  568   1.435   1.940   1.625 -0.3082  0.5946  0.1564
  190SOL    HW1  569   1.381   1.848   1.621 -2.5869  0.2315 -1.0592
  190SOL    HW2  570   1.513   1.949   1.692  2.1107 -0.4765  0.4692
  191SOL     OW  571   0.947   0.710   1.561 -0.4017 -0.2601 -0.2392
  191SOL    HW1  572   1.007   0.625   1.571 -0.2048  1.1309  0.1514
  191SOL    HW2  573   0.966   0.784   1.629  3.8959 -0.2167 -3.0754
  192SOL     OW  574   1.850   2.292   1.079 -0.1636  0.6867 -0.4789
  192SOL    HW1  575   1.760   2.316   1.033  1.1173  1.6445  0.2206
  192SOL    HW2  576   1.929   2.301   1.016 -1.4514  0.3285 -0.0744
  193SOL     OW  577   0.560   0.577   0.449 -0.4355 -0.1611 -0.2429
  193SOL    HW1  578   0.494   0.504   0.492 -3.1869 -0.6674  3.0215
  193SOL    HW2  579   0.604   0.550   0.359  0.2041  1.7870  1.5778
  194SOL     OW  580   0.326   0.902   1.296  0.2716 -0.4067  0.4915
  194SOL    HW1  581   0.297   0.807   1.271  1.3544 -1.3510 -0.2327
  194SOL    HW2  582   0.352   0.959   1.210 -0.2197  2.5077 -0.2206
  195SOL     OW  583   1.001   2.946   0.527  0.3112  0.0480 -0.2738
  195SOL    HW1  584   0.965   2.851   0.499 -0.8017 -0.9026 -0.2077
  195SOL    HW2  585   1.104   2.941   0.511  2.9147 -1.7564 -0.8666
  196SOL     OW  586   0.191   1.326   1.374 -0.8364  0.5561  0.4234
  196SOL    HW1  587   0.227   1.416   1.408 -1.2612  0.3663 -0.6017
  196SOL    HW2  588   0.178   1.256   1.450 -0.1399  1.6462 -0.4458
  197SOL     OW  589   0.852   2.057   0.267  0.0415 -0.1025  0.4351
  197SOL    HW1  590   0.822   2.045   0.364 -0.6691  1.5410 -1.8077
  197SOL    HW2  591   0.905   1.975   0.234 -0.1561  0.8294 -1.0365
  198SOL     OW  592   0.272   1.276   0.287 -0.3371 -0.3232  0.1796
  198SOL    HW1  593   0.174   1.303   0.247 -3.6906 -1.6285 -0.4538
  198SOL    HW2  594   0.323   1.356   0.331 -1.7244  0.7944  3.2018
  199SOL     OW  595   2.291   0.358   2.493  0.9545  0.5165  0.3084
  199SOL    HW1  596   2.209   0.344   2.556 -0.0167 -1.8343 -0.0921
  199SOL    HW2  597   2.380   0.354   2.540 -2.8883 -1.5690 -2.1108
  200SOL     OW  598   0.014   2.947   0.718 -0.0642  0.1018 -0.0213
  200SOL    HW1  599  -0.075   2.949   0.666  1.3355  1.7701 -0.3151
  200SOL    HW2  600   0.053   3.040   0.714 -1.5769 -0.6141 -1.8270
  201SOL     OW  601   1.067   0.738   0.577 -0.7706 -0.3824 -0.6833
  201SOL    HW1  602   1.082   0.783   0.663  4.0801  0.2252 -0.8270
  201SOL    HW2  603   0.974   0.696   0.574 -1.3710 -0.9101 -0.7872
  202SOL     OW  604   0.410   1.081   1.909 -0.1796 -0.3474  0.1363
  202SOL    HW1  605   0.466   0.997   1.878 -1.4603  2.8918 -1.0557
  202SOL    HW2  606   0.454   1.138   1.986 -3.0024 -0.3308 -0.0830
  203SOL     OW  607   0.655   0.232   1.495  0.0622  0.3913 -0.3360
  203SOL    HW1  608   0.731   0.223   1.424 -1.9891 -1.7882 -0.6980
  203SOL    HW2  609   0.691   0.223   1.593 -0.0778 -1.8848 -0.5480
  204SOL     OW  610   2.098   1.808   2.879  0.3633  0.1833  0.3799
  204SOL    HW1  611   2.080   1.713   2.907  1.5266  1.4252 -3.0760
  204SOL    HW2  612   2.197   1.824   2.850  2.0848 -0.9106 -1.2991
  205SOL     OW  613   1.845   1.876   3.019  0.2261 -0.8864 -0.0658
  205SOL    HW1  614   1.927   1.856   2.955  0.9992  0.0950  0.0214
  205SOL    HW2  615   1.813   1.975   3.023  1.8145  1.7810 -0.8697
  206SOL     OW  616   2.489   2.815   0.327 -0.2135 -0.1925  0.1984
  206SOL    HW1  617   2.543   2.751   0.385  0.8193  0.4286 -1.3106
  206SOL    HW2  618   2.531   2.909   0.320 -1.4657 -1.4922  0.3817
  207SOL     OW  619   0.688   1.831   3.002  0.4230  0.0039 -0.0463
  207SOL    HW1  620   0.755   1.773   2.946 -3.1301  0.8549 -1.5553
  207SOL    HW2  621   0.645   1.770   3.073  1.7263 -0.8325 -1.5668
  208SOL     OW  622   1.106   1.576   1.391  0.4986 -0.1133  0.2062
  208SOL    HW1  623   1.068   1.653   1.334  1.5989 -3.0120 -0.4088
  208SOL    HW2  624   1.188   1.607   1.450  0.6816  1.9328  0.2087
  209SOL     OW  625   0.237   0.937   3.044  0.2961  0.2994  0.4384
  209SOL    HW1  626   0.236   0.843   2.994  3.0181 -0.8918 -0.6697
  209SOL    HW2  627   0.242   0.926   3.150  3.8440 -0.4648  1.1731
  210SOL     OW  628   1.769   0.477   1.188 -0.2276  0.0494 -0.2901
  210SOL    HW1  629   1.719   0.566   1.165  1.2760  1.1632 -0.9149
  210SOL    HW2  630   1.867   0.490   1.170 -0.7968 -2.3618  1.1774
  211SOL     OW  631   2.102   1.079   1.584 -0.0636 -0.5714  0.1377
  211SOL    HW1  632   2.132   1.038   1.676 -2.1428 -2.7890  0.1466
  211SOL    HW2  633   2.177   1.127   1.529  1.6180  0.9996  0.0403
  212SOL     OW  634   0.003   0.967   1.503 -0.6752  0.7357 -0.0465
  212SOL    HW1  635   0.087   1.026   1.523 -1.7093  0.1771  2.3198
  212SOL    HW2  636  -0.006   0.895   1.577 -1.6492 -0.4146 -1.3316
  213SOL     OW  637   2.820   0.210   0.375  0.2077 -0.8908  0.4619
  213SOL    HW1  638   2.876   0.153   0.309 -4.2350  0.6181 -0.5400
  213SOL    HW2  639   2.730   0.241   0.330  0.2163  0.0384 -4.0694
  214SOL     OW  640   2.178   0.237   2.281 -0.6426 -0.3103  0.2411
  214SOL    HW1  641   2.227   0.287   2.358 -0.6818  3.4028 -1.2407
  214SOL    HW2  642   2.151   0.143   2.310  0.2783 -1.8298 -0.3278
  215SOL     OW  643   1.589   2.291   2.119 -0.7874  0.9507  0.1111
  215SOL    HW1  644   1.689   2.303   2.088  0.8320  0.5055 -2.6157
  215SOL    HW2  645   1.541   2.386   2.126 -3.7239 -0.6072 -1.6482
  216SOL     OW  646   2.170   0.623   0.698 -0.4488  0.3532 -0.0074
  216SOL    HW1  647   2.148   0.529   0.661 -0.8372  0.8611 -0.7270
  216SOL    HW2  648   2.179   0.687   0.618  1.5666 -1.1775  1.9799
  217SOL     OW  649   0.757   2.774   2.423 -0.1018  0.1398 -0.0591
  217SOL    HW1  650   0.726   2.689   2.475  0.0435 -1.4721 -0.7617
  217SOL    HW2  651   0.762   2.760   2.322  1.1854 -2.0699  0.7142
  218SOL     OW  652   1.898   1.421   0.007 -0.3547 -0.0262 -0.0501
  218SOL    HW1  653   1.799   1.441  -0.000  3.6247 -1.0082  1.4947
  218SOL    HW2  654   1.921   1.376   0.097 -1.2933  0.1300 -1.3953
  219SOL     OW  655   2.435   1.287   2.511  0.2179  0.4421 -0.6779
  219SOL    HW1  656   2.477   1.253   2.422  2.5323  2.6892 -0.2297
  219SOL    HW2  657   2.432   1.210   2.580  1.0081 -0.8934 -0.7916
  220SOL     OW  658   1.493   1.049   1.249 -0.4737 -0.1881  0.2764
  220SOL    HW1  659   1.592   1.056   1.280 -0.2696  2.6044  0.8510
  220SOL    HW2  660   1.478   1.115   1.171  0.7947 -0.1986 -0.1015
  221SOL     OW  661   1.293   1.001   2.188 -0.5660 -0.4713 -0.3098
  221SOL    HW1  662   1.241   0.990   2.101 -0.0337  3.3684 -1.2856
  221SOL    HW2  663   1.380   0.942   2.184  0.0494  0.0186  0.1407
  222SOL     OW  664   1.103   0.033   1.176  0.2250  0.2917  0.6217
  222SOL    HW1  665   1.150   0.062   1.260 -1.2531  0.7936 -2.9316
  222SOL    HW2  666   1.118   0.097   1.093 -1.8584 -0.6303  1.6738
  223SOL     OW  667   2.745   0.947   2.108  0.1221  0.0371  1.0947
  223SOL    HW1  668   2.743   1.036   2.054  0.7796  1.0307 -0.7133
  223SOL    HW2  669   2.837   0.940   2.157  0.6008 -0.5308 -0.7193
  224SOL     OW  670   1.513   1.064   2.767 -0.3173  0.4634 -0.1006
  224SOL    HW1  671   1.556   0.980   2.734 -1.7168  3.3060  0.7738
  224SOL    HW2  672   1.471   1.115   2.687 -1.0537  0.9194 -2.3896
  225SOL     OW  673   2.932   2.769   2.875 -0.1298  0.0338  0.3290
  225SOL    HW1  674   2.843   2.738   2.828  0.7312  4.1263 -2.5212
  225SOL    HW2  675   2.980   2.847   2.824  1.9932  2.5803 -0.1371
  226SOL     OW  676   2.501   1.588   2.893 -0.3620  0.1909  0.4250
  226SOL    HW1  677   2.524   1.579   2.793 -1.4320  0.7343 -2.1208
  226SOL    HW2  678   2.416   1.532   2.927  1.9170  1.3284  2.5373
  227SOL     OW  679   0.865   0.135   0.029  0.1384 -0.1072 -0.4568
  227SOL    HW1  680   0.964   0.102   0.019  0.1166  1.4264  3.1373
  227SOL    HW2  681   0.800   0.119  -0.052  0.2901  0.1839  0.9446
  228SOL     OW  682   2.428   0.603   2.844  0.5256 -0.1951 -0.1386
  228SOL    HW1  683   2.389   0.622   2.750  1.1387 -1.1838  0.1558
  228SOL    HW2  684   2.526   0.553   2.843  0.1671 -3.1679  0.7995
  229SOL     OW  685   0.575   0.473   1.880 -0.2235 -0.0595 -0.0430
  229SOL    HW1  686   0.554   0.370   1.881  0.1679  0.3078  1.5049
  229SOL    HW2  687   0.598   0.487   1.781 -2.4433  0.3482 -0.8265
  230SOL     OW  688   1.871   1.146   2.075 -0.3307  0.2676  0.3785
  230SOL    HW1  689   1.950   1.195   2.031 -1.3814 -0.2755  1.0758
  230SOL    HW2  690   1.783   1.206   2.082 -1.5004 -2.5571  2.4381
  231SOL     OW  691   0.624   1.017   0.030  0.3326  0.0638  0.5660
  231SOL    HW1  692   0.708   1.077   0.027 -0.9078 -0.1062  1.6667
  231SOL    HW2  693   0.533   1.072   0.033 -2.0299 -1.0730 -1.7429
  232SOL     OW  694   2.379   3.088   2.867  0.8433  0.1829 -0.9588
  232SOL    HW1  695   2.415   2.989   2.884 -2.4939 -0.7062 -0.3589
  232SOL    HW2  696   2.419   3.128   2.781 -1.1802 -0.5268 -0.9576
  233SOL     OW  697   1.705   1.260   1.110  0.1367 -0.7465 -0.5092
  233SOL    HW1  698   1.720   1.207   1.028 -4.4285 -0.4548  0.1354
  233SOL    HW2  699   1.724   1.208   1.197  0.5377 -0.3919 -1.6703
  234SOL     OW  700   1.559   2.539   1.866 -0.1263 -0.2136 -0.0055
  234SOL    HW1  701   1.591   2.632   1.905 -0.7789  1.3329  0.5133
  234SOL    HW2  702   1.458   2.519   1.870  2.1308 -1.0969 -0.6818
  235SOL     OW  703   0.009   3.020   2.814  0.5773  0.1014  0.0960
  235SOL    HW1  704  -0.027   3.033   2.721 -1.6054  1.8969  2.0061
  235SOL    HW2  705  -0.055   3.068   2.882 -1.5124  0.5028  1.1341
  236SOL     OW  706   2.909   0.739   0.089  0.0217  0.1860  0.0752
  236SOL    HW1  707   2.972   0.803   0.139  0.5808  0.1477  0.0843
  236SOL    HW2  708   2.953   0.646   0.061 -2.0646 -3.0834  1.7944
  237SOL     OW  709   1.536   1.670   1.006  0.4011 -0.3482 -0.5974
  237SOL    HW1  710   1.638   1.660   0.983 -0.2521 -0.4275  1.2599
  237SOL    HW2  711   1.519   1.705   1.102  0.8250  1.8159  1.9039
  238SOL     OW  712   1.778   1.282   0.855 -0.3145  0.0257 -0.2127
  238SOL    HW1  713   1.824   1.359   0.910  0.6473 -0.5684  1.0391
  238SOL    HW2  714   1.688   1.307   0.816  2.9142  1.2940 -0.0618
  239SOL     OW  715   2.089   0.284   2.658  0.3997  0.0995  0.5653
  239SOL    HW1  716   2.132   0.287   2.751 -1.9128 -0.8134  0.4812
  239SOL    HW2  717   1.998   0.333   2.657  0.9162  2.2267  0.4072
  240SOL     OW  718   0.922   0.653   0.311  0.3561  0.3541 -0.4063
  240SOL    HW1  719   0.969   0.565   0.280 -0.1075  0.9834  0.3795
  240SOL    HW2  720   0.876   0.647   0.402  0.5865 -2.4148 -1.0495
  241SOL     OW  721   0.566   0.039   0.392  0.6324 -0.4083  0.3115
  241SOL    HW1  722   0.619   0.116   0.337  1.5031  0.3516 -2.4096
  241SOL    HW2  723   0.553  -0.043   0.330  0.3961  4.8483 -0.6899
  242SOL     OW  724   0.630   2.522   1.150 -0.6362 -0.5782  0.5446
  242SOL    HW1  725   0.591   2.545   1.242  1.2215  2.3734 -1.7735
  242SOL    HW2  726   0.694   2.595   1.120 -3.2397 -0.3399  0.3848
  243SOL     OW  727   1.083   0.627   2.469  0.1195  0.3960 -0.7547
  243SOL    HW1  728   0.990   0.639   2.419  1.0886 -0.1013  0.9138
  243SOL    HW2  729   1.082   0.606   2.572  2.6087  1.6143  1.2616
  244SOL     OW  730   2.833   1.889   2.321 -0.1842 -0.2514  0.1657
  244SOL    HW1  731   2.870   1.861   2.225  0.1465 -1.4264 -3.6984
  244SOL    HW2  732   2.735   1.849   2.349 -1.6998 -1.5883 -0.5133
  245SOL     OW  733   2.316   0.744   2.189 -0.1113  1.0552 -0.2000
  245SOL    HW1  734   2.387   0.709   2.246 -1.1648  0.4469 -2.0475
  245SOL    HW2  735   2.256   0.816   2.232 -0.9587 -1.5046  0.7459
  246SOL     OW  736   0.232   2.910   1.735 -0.0736  0.1763 -0.0899
  246SOL    HW1  737   0.170   2.923   1.652 -0.7123 -2.0358  0.4323
  246SOL    HW2  738   0.329   2.937   1.706  2.6475 -0.1046  1.8198
  247SOL     OW  739   2.256   0.612   3.057  0.4113  0.1983 -0.2553
  247SOL    HW1  740   2.326   0.600   2.979 -0.9543  6.0189  1.1975
  247SOL    HW2  741   2.208   0.707   3.053  2.1574 -0.6883  1.9944
  248SOL     OW  742   2.151   1.815   1.587  0.2216  0.1446 -0.0812
  248SOL    HW1  743   2.235   1.772   1.638  0.8243  0.1733  0.4049
  248SOL    HW2  744   2.063   1.794   1.638  1.2129  1.2295 -4.0860
  249SOL     OW  745   1.844   1.953   1.937  0.1390  0.1570  0.4583
  249SOL    HW1  746   1.843   1.877   1.862 -0.1458 -2.7936  1.5647
  249SOL    HW2  747   1.941   1.986   1.953  0.4026  0.8666 -3.7835
  250SOL     OW  748   1.125   0.698   1.905 -0.3079 -0.6245 -0.3899
  250SOL    HW1  749   1.152   0.615   1.964  0.8479 -2.1254 -1.0970
  250SOL    HW2  750   1.121   0.678   1.806 -1.6369  0.6395 -0.3732
  251SOL     OW  751   0.063   1.581   2.475  0.1019 -0.1210 -0.1790
  251SOL    HW1  752   0.047   1.666   2.415 -0.5652  2.2417  1.3042
  251SOL    HW2  753  -0.035   1.540   2.503 -0.4090 -1.6205  1.7500
  252SOL     OW  754   1.535   0.836   1.574  0.2928  0.0082  0.0616
  252SOL    HW1  755   1.598   0.859   1.492  1.0737 -1.3247  0.5132
  252SOL    HW2  756   1.532   0.915   1.650  0.2044  1.5311  3.1568
  253SOL     OW  757   0.960   1.566   0.524 -0.5627  0.2005  0.6209
  253SOL    HW1  758   1.002   1.511   0.447  0.3508 -0.2801 -0.7535
  253SOL    HW2  759   0.858   1.565   0.522  4.6468  2.1984 -1.0977
  254SOL     OW  760   2.050   2.175   1.641  0.3898  0.5638  0.5069
  254SOL    HW1  761   2.014   2.105   1.573 -1.3594  0.2305  1.1859
  254SOL    HW2  762   1.973   2.201   1.706 -1.7773  0.2401 -0.1583
  255SOL     OW  763   0.140   1.128   2.884  0.5479  0.1190  0.1949
  255SOL    HW1  764   0.195   1.218   2.888 -3.8737  1.1609 -2.1675
  255SOL    HW2  765   0.167   1.049   2.946 -3.4082  0.5481 -1.7021
  256SOL     OW  766   2.775   1.357   1.779 -0.3006  0.1823  0.1054
  256SOL    HW1  767   2.673   1.373   1.790 -0.1817  0.6628 -0.1520
  256SOL    HW2  768   2.797   1.256   1.748 -1.8620 -2.2597  0.4043
  257SOL     OW  769   0.772   0.193   1.760  0.1361 -0.7672  0.1431
  257SOL    HW1  770   0.827   0.275   1.725 -0.7836 -2.0796  0.0866
  257SOL    HW2  771   0.827   0.115   1.793 -0.8270  2.9983 -0.8965
  258SOL     OW  772   2.971   1.256   0.439  0.3115 -0.9762 -0.1226
  258SOL    HW1  773   2.886   1.319   0.434 -1.6926  0.3901 -1.0024
  258SOL    HW2  774   3.039   1.268   0.519 -0.8565  0.6921 -1.6017
  259SOL     OW  775   0.465   2.958   3.034 -0.0857 -0.3856 -0.0397
  259SOL    HW1  776   0.411   2.904   3.098  0.0688  0.3744 -0.1469
  259SOL    HW2  777   0.499   2.903   2.951 -2.7101  0.4498  1.2647
  260SOL     OW  778   2.710   0.827   2.814  0.0838  0.2086 -0.1687
  260SOL    HW1  779   2.609   0.824   2.776 -2.1054 -3.2416 -0.7024
  260SOL    HW2  780   2.706   0.841   2.918  1.8529 -0.2979  2.1022
  261SOL     OW  781   2.759   1.352   1.240  0.2512  0.3841  0.4952
  261SOL    HW1  782   2.703   1.304   1.171  0.7648 -0.6064  2.2913
  261SOL    HW2  783   2.855   1.319   1.250 -2.0953  1.4038 -1.1863
  262SOL     OW  784   1.421   2.968   2.032 -0.1302  0.3593 -0.2695
  262SOL    HW1  785   1.443   3.052   1.972  0.3120 -1.4066 -2.9607
  262SOL    HW2  786   1.330   2.920   2.018 -1.6150  2.1158 -0.8171
  263SOL     OW  787   0.851   0.696   2.366  0.2629 -0.1579  0.7096
  263SOL    HW1  788   0.804   0.606   2.341  0.7563 -1.9978 -1.8908
  263SOL    HW2  789   0.894   0.739   2.281 -0.6542 -2.3391 -3.1005
  264SOL     OW  790   2.205   0.820   0.421 -0.2128  0.2411  1.0013
  264SOL    HW1  791   2.213   0.792   0.319  0.1466 -0.0192 -2.0317
  264SOL    HW2  792   2.302   0.847   0.443  1.4822  0.4949  3.1052
  265SOL     OW  793   0.928   2.387   2.626  0.5660  0.3762 -0.3383
  265SOL    HW1  794   0.994   2.429   2.702  0.5040  1.7978 -1.4785
  265SOL    HW2  795   0.914   2.285   2.644  2.3472  0.3379  1.5353
  266SOL     OW  796   1.315   1.730   0.029 -0.4903  0.5772  0.2073
  266SOL    HW1  797   1.312   1.810   0.095 -0.9525  2.5280  1.9653
  266SOL    HW2  798   1.398   1.733  -0.037  1.6106 -0.7027 -2.2509
  267SOL     OW  799   1.003   3.081   2.359  0.6443 -0.0340 -0.0372
  267SOL    HW1  800   1.000   3.025   2.275  3.1665  1.6403  0.6017
  267SOL    HW2  801   0.975   3.179   2.343  0.1884 -0.4716  0.1652
  268SOL     OW  802   0.597   1.208   1.032 -0.1686 -0.4841 -0.5180
  268SOL    HW1  803   0.593   1.237   1.130  0.7775 -0.7621 -4.2049
  268SOL    HW2  804   0.615   1.282   0.959 -0.5148  3.6324 -0.5644
  269SOL     OW  805   2.354   2.540   1.605  0.0076  0.5627 -0.4833
  269SOL    HW1  806   2.416   2.468   1.649  1.2367  0.2688  2.0796
  269SOL    HW2  807   2.300   2.590   1.677 -0.3360  0.7102  1.4965
  270SOL     OW  808   0.191   2.920   2.011 -0.1447 -0.0429  0.2176
  270SOL    HW1  809   0.217   2.913   1.909  1.7200 -2.0985 -1.1778
  270SOL    HW2  810   0.107   2.861   2.035 -2.2761  0.6630  0.4827
  271SOL     OW  811   0.412   1.374   1.190  0.4150  0.5626  0.2384
  271SOL    HW1  812   0.371   1.359   1.095  2.0534 -2.7809 -2.5721
  271SOL    HW2  813   0.341   1.370   1.268 -1.8266  1.5975  0.4454
  272SOL     OW  814   2.005   2.882   1.946  0.0922  0.0435 -0.3713
  272SOL    HW1  815   1.941   2.832   1.885  0.5266  1.7926  2.0841
  272SOL    HW2  816   2.086   2.922   1.899  4.8823  1.0208 -1.7182
  273SOL     OW  817   1.481   1.435   2.719  0.4145 -0.2761 -0.3236
  273SOL    HW1  818   1.398   1.493   2.736  1.8603 -0.6080 -0.8839
  273SOL    HW2  819   1.514   1.382   2.800  0.8943  0.4483 -1.1796
  274SOL     OW  820   1.204   0.492   2.058 -0.7227  0.5403  0.2957
  274SOL    HW1  821   1.169   0.396   2.049  0.4387 -0.0721 -2.8055
  274SOL    HW2  822   1.233   0.506   2.159  2.2704 -1.3125 -1.5572
  275SOL     OW  823   0.601   2.094   1.904  0.3569 -0.3921 -0.3029
  275SOL    HW1  824   0.555   2.187   1.929  1.8689  1.3607  0.4304
  275SOL    HW2  825   0.525   2.025   1.893  0.5887  2.0398  0.8863
  276SOL     OW  826   2.190   0.947   2.753 -0.0517  0.5119  0.1345
  276SOL    HW1  827   2.110   0.950   2.691  1.8655  2.2407  0.0767
  276SOL    HW2  828   2.167   0.882   2.836 -3.1185 -3.2263 -0.0375
  277SOL     OW  829   3.089   0.883   0.226 -0.0424  0.0725 -0.1319
  277SOL    HW1  830   3.189   0.903   0.207  1.8663  0.0243  0.3992
  277SOL    HW2  831   3.074   0.804   0.291  0.5511 -0.3865  2.0471
  278SOL     OW  832   0.240   0.271   3.073 -0.0262 -0.1766  0.0557
  278SOL    HW1  833   0.317   0.200   3.054  0.4462  0.0190 -1.1773
  278SOL    HW2  834   0.269   0.367   3.092  2.2122 -0.9703 -0.0795
  279SOL     OW  835   0.211   0.071   0.872  0.0094 -0.5244  0.2918
  279SOL    HW1  836   0.158   0.025   0.951 -3.0634  0.5938 -0.7607
  279SOL    HW2  837   0.258  -0.002   0.818 -0.8279 -1.5291  1.1491
  280SOL     OW  838   1.600   2.944   2.422  0.3156  0.0607 -0.0890
  280SOL    HW1  839   1.663   2.996   2.488 -1.8174  1.4004  1.7554
  280SOL    HW2  840   1.539   3.005   2.367 -0.7029  2.2293  2.6506
  281SOL     OW  841   0.575   0.990   2.219 -0.1007 -0.0194 -0.5219
  281SOL    HW1  842   0.605   0.918   2.151 -1.3731  0.5899 -0.1551
  281SOL    HW2  843   0.513   0.960   2.299  1.0090  0.0119  2.2734
  282SOL     OW  844   1.775   2.497   0.526 -0.2891 -0.0894 -0.4154
  282SOL    HW1  845   1.754   2.414   0.464 -1.1159 -0.7952  0.1642
  282SOL    HW2  846   1.706   2.575   0.520  0.7599  1.0278 -0.8743
  283SOL     OW  847   1.159   0.907   0.824  0.4654  0.7381  0.0526
  283SOL    HW1  848   1.197   0.859   0.911 -1.6179 -1.7603  3.8453
  283SOL    HW2  849   1.070   0.955   0.846  0.8993  4.6987  3.9247
  284SOL     OW  850   2.285   2.772   2.550  0.3635  0.3394 -0.1204
  284SOL    HW1  851   2.386   2.797   2.531 -3.3400  4.1258 -0.6869
  284SOL    HW2  852   2.245   2.814   2.639  0.6554  2.0835  3.1065
  285SOL     OW  853   1.317   3.044   2.587  0.3493 -0.2098 -0.5256
  285SOL    HW1  854   1.310   3.053   2.480  2.5490  1.3613 -1.0869
  285SOL    HW2  855   1.222   3.047   2.627 -3.0278  0.3589  1.2868
  286SOL     OW  856   0.452   0.462   0.730  0.5132 -0.0870 -0.4302
  286SOL    HW1  857   0.411   0.412   0.808 -0.6286  0.0815 -2.6720
  286SOL    HW2  858   0.470   0.397   0.650  1.2269  0.5134  1.3394
  287SOL     OW  859   0.102   1.295   2.492  0.1147 -0.6176 -0.5079
  287SOL    HW1  860   0.038   1.252   2.557  1.2707  3.1592 -1.7005
  287SOL    HW2  861   0.102   1.395   2.500 -1.6187  2.4562  2.0405
  288SOL     OW  862   1.585   2.621   1.602  0.8561 -0.2503  0.1794
  288SOL    HW1  863   1.593   2.539   1.673 -2.2759  1.5882  2.6654
  288SOL    HW2  864   1.638   2.612   1.519  1.6786  1.1724 -0.4340
  289SOL     OW  865   0.660   2.705   0.894 -0.3862  0.5205  0.5699
  289SOL    HW1  866   0.699   2.749   0.810 -0.6974  1.3186  1.0310
  289SOL    HW2  867   0.615   2.771   0.963 -1.2829 -0.2363  1.0293
  290SOL     OW  868   2.816   1.103   1.724  0.1536  0.3218 -0.0081
  290SOL    HW1  869   2.727   1.048   1.743 -3.4336  1.6307 -0.8053
  290SOL    HW2  870   2.895   1.070   1.785 -0.1507  2.2410  0.9332
  291SOL     OW  871   1.993   0.047   0.031  0.2869 -0.2781  0.1031
  291SOL    HW1  872   1.985   0.059   0.137  0.5867 -0.2836  0.4717
  291SOL    HW2  873   2.053   0.132  -0.003  0.6088  1.9589 -0.0469
  292SOL     OW  874   3.000   1.148   3.034 -0.1708 -0.1196  1.0929
  292SOL    HW1  875   2.938   1.222   2.995 -2.3173  1.5414  0.2815
  292SOL    HW2  876   3.091   1.136   2.985  0.6594 -0.2353 -1.4658
  293SOL     OW  877   0.554   2.142   0.218 -0.5039  0.2286  0.2919
  293SOL    HW1  878   0.497   2.197   0.286  0.0996 -0.3682 -1.3873
  293SOL    HW2  879   0.652   2.114   0.252  4.1032  0.5308 -2.7202
  294SOL     OW  880   1.828   2.263   1.789  0.3712 -0.1205 -0.4886
  294SOL    HW1  881   1.814   2.299   1.890 -0.8229 -0.0390  0.8565
  294SOL    HW2  882   1.782   2.332   1.729  0.6900  0.4666 -1.3211
  295SOL     OW  883   0.977   1.068   0.472 -0.0349 -0.1739 -0.3608
  295SOL    HW1  884   1.077   1.060   0.518  4.2426  0.4468 -0.7571
  295SOL    HW2  885   0.903   1.077   0.547  1.9214  1.0813 -2.4267
  296SOL     OW  886   1.189   2.129   2.564 -0.7740 -0.2608 -0.1642
  296SOL    HW1  887   1.096   2.169   2.544  1.5835 -3.2815  1.0512
  296SOL    HW2  888   1.208   2.051   2.492  0.4988 -3.4357  0.6840
  297SOL     OW  889   1.425   0.615   1.346 -0.2758  0.0336  0.1337
  297SOL    HW1  890   1.393   0.513   1.359 -1.2276 -1.4421 -0.9995
  297SOL    HW2  891   1.526   0.614   1.359 -0.0837 -1.3596 -0.6074
  298SOL     OW  892   0.529   1.324   2.999 -0.2629 -0.3041  0.7433
  298SOL    HW1  893   0.491   1.263   3.070 -0.3676 -2.1669  1.2769
  298SOL    HW2  894   0.539   1.268   2.904 -0.1474 -0.2968 -1.0021
  299SOL     OW  895   0.474   0.268   1.281 -0.2663 -0.0006 -0.8460
  299SOL    HW1  896   0.458   0.372   1.276 -0.1666  1.6002 -1.6115
  299SOL    HW2  897   0.542   0.235   1.359  0.6527  1.7249 -1.1462
  300SOL     OW  898   1.239   1.788   2.733 -0.8968  0.0121 -0.1384
  300SOL    HW1  899   1.229   1.679   2.741 -1.6745 -1.7733 -0.8993
  300SOL    HW2  900   1.337   1.808   2.707 -0.2133 -3.2000 -0.4654
  301SOL     OW  901   0.437   0.292   0.496 -0.2616 -0.6037 -0.3541
  301SOL    HW1  902   0.334   0.304   0.495 -0.2732  2.5389  0.8930
  301SOL    HW2  903   0.476   0.210   0.448  1.1176  0.6866 -0.7189
  302SOL     OW  904   1.277   2.457   2.338  0.0706 -0.2685 -0.1050
  302SOL    HW1  905   1.208   2.525   2.362  0.1590 -1.1304 -0.9447
  302SOL    HW2  906   1.249   2.359   2.368  1.2324 -1.5331  1.5303
  303SOL     OW  907   0.940   2.407   0.821 -0.0248  0.0370 -0.5778
  303SOL    HW1  908   1.025   2.404   0.760  0.7257  2.3351  0.0469
  303SOL    HW2  909   0.954   2.464   0.906  1.2422  0.2539  0.9624
  304SOL     OW  910   0.055   1.941   0.636 -0.6588 -0.4999  0.7022
  304SOL    HW1  911   0.116   1.936   0.551  1.0113  1.3615 -0.4785
  304SOL    HW2  912   0.004   2.033   0.631 -0.7134  0.4017 -1.0288
  305SOL     OW  913   1.586   0.887   0.587 -0.9918  0.1523  0.0654
  305SOL    HW1  914   1.543   0.880   0.493  0.8801 -0.0582  0.7897
  305SOL    HW2  915   1.631   0.793   0.610  0.4608  0.0537 -0.0555
  306SOL     OW  916   0.409   1.845   1.919 -0.1363  0.1816 -0.1330
  306SOL    HW1  917   0.476   1.763   1.908 -2.5317 -4.3021 -0.8838
  306SOL    HW2  918   0.415   1.897   2.014 -0.7165  1.2892 -0.5450
  307SOL     OW  919   3.044   0.898   2.475 -0.4674  0.0108  0.3194
  307SOL    HW1  920   3.092   0.963   2.540  1.3036  1.3263 -0.2462
  307SOL    HW2  921   2.969   0.840   2.520 -0.6688 -0.8652  1.1534
  308SOL     OW  922   1.550   2.685   2.819  0.4439  0.5731  0.1655
  308SOL    HW1  923   1.566   2.647   2.723 -1.7344 -2.6098  0.8887
  308SOL    HW2  924   1.499   2.620   2.886  0.1410 -0.1845  2.9760
  309SOL     OW  925   1.276   0.198   1.730  0.4614  0.2873  0.0611
  309SOL    HW1  926   1.353   0.148   1.780 -0.7576 -0.3058  1.1870
  309SOL    HW2  927   1.233   0.148   1.650 -3.6711 -1.3841  0.1590
  310SOL     OW  928   1.506   2.570   0.705 -0.1811 -0.2931 -0.0710
  310SOL    HW1  929   1.504   2.601   0.807 -0.0450 -1.4352  2.7813
  310SOL    HW2  930   1.530   2.644   0.639 -0.5221 -1.0489 -0.7950
  311SOL     OW  931   1.182   0.963   1.658 -0.1253 -0.4501  0.0872
  311SOL    HW1  932   1.209   0.867   1.629 -2.8430  0.0653  2.2771
  311SOL    HW2  933   1.203   1.038   1.587 -0.2738 -1.7795 -1.1489
  312SOL     OW  934   1.661   0.731   1.119  0.2291 -0.2752  0.4948
  312SOL    HW1  935   1.667   0.807   1.048  0.2500  1.3961  0.6262
  312SOL    HW2  936   1.561   0.695   1.129 -3.2276 -1.2359  0.4043
  313SOL     OW  937   1.569   1.361   0.712  0.5194  0.0543 -0.3088
  313SOL    HW1  938   1.496   1.423   0.757  3.9440 -0.2287 -1.0468
  313SOL    HW2  939   1.533   1.268   0.680 -3.9604  0.0244  0.9873
  314SOL     OW  940   2.946   0.032   2.993 -0.1567 -0.2453 -0.0502
  314SOL    HW1  941   2.971   0.034   3.093 -0.6944 -1.8181 -0.2860
  314SOL    HW2  942   2.851  -0.004   2.966 -0.6425  0.1499  0.9846
  315SOL     OW  943   1.194   0.192   2.763 -0.8557  0.2145  0.3794
  315SOL    HW1  944   1.127   0.131   2.705  1.6853  1.0761 -1.6911
  315SOL    HW2  945   1.262   0.130   2.814 -1.3245 -2.7366  1.8583
  316SOL     OW  946   1.741   2.033   0.875  0.0503  0.1465  0.0742
  316SOL    HW1  947   1.700   2.014   0.971 -1.0220 -2.8448 -1.6728
  316SOL    HW2  948   1.727   2.127   0.843 -0.4775 -0.6277  1.3914
  317SOL     OW  949   1.158   0.619   2.868  0.6007  0.6570  0.0101
  317SOL    HW1  950   1.105   0.664   2.940  3.4205 -1.0964 -0.1757
  317SOL    HW2  951   1.096   0.547   2.816 -0.6122 -0.8508  0.6309
  318SOL     OW  952   1.353   3.041   2.296  0.4962 -0.6407  0.1885
  318SOL    HW1  953   1.340   3.146   2.292  0.0320  0.5054 -0.3200
  318SOL    HW2  954   1.384   3.002   2.204 -2.6558 -4.4033 -0.1447
  319SOL     OW  955   0.631   2.428   2.927 -0.5422  0.1247 -0.0714
  319SOL    HW1  956   0.567   2.373   2.993 -0.7107 -1.7022  2.8576
  319SOL    HW2  957   0.731   2.403   2.936 -0.6891  1.5027  2.0403
  320SOL     OW  958   1.684   2.245   0.436 -0.1858 -0.0498  0.4087
  320SOL    HW1  959   1.755   2.186   0.398 -0.2190  3.1597  0.0598
  320SOL    HW2  960   1.595   2.188   0.462 -1.8815 -1.8733  1.4532
  321SOL     OW  961   1.624   2.787   0.514  0.2309  0.8364  0.2446
  321SOL    HW1  962   1.561   2.787   0.432  2.0380 -1.1001  0.9620
  321SOL    HW2  963   1.709   2.839   0.510  0.1816 -0.8647 -0.7631
  322SOL     OW  964   2.598   1.116   2.347 -0.3056  0.4565 -0.9807
  322SOL    HW1  965   2.671   1.139   2.420 -2.6059 -0.3460  0.8387
  322SOL    HW2  966   2.584   1.011   2.337  3.3789 -1.0860 -2.0579
  323SOL     OW  967   1.189   2.678   0.829 -0.0902  0.5386  0.0870
  323SOL    HW1  968   1.156   2.620   0.752  0.6221  1.1410  0.1364
  323SOL    HW2  969   1.135   2.762   0.849 -0.8544  1.6380 -1.1678
  324SOL     OW  970   0.264   2.449   2.511  0.0965 -0.4130 -0.5367
  324SOL    HW1  971   0.304   2.436   2.602  0.1037 -2.0973  0.2838
  324SOL    HW2  972   0.171   2.489   2.522  0.1784  1.8804 -1.8957
  325SOL     OW  973   1.286   3.065   0.483 -0.4406 -0.2176 -0.4358
  325SOL    HW1  974   1.275   3.118   0.398 -0.6378  0.3705 -0.7227
  325SOL    HW2  975   1.328   3.122   0.560  0.0409  1.0014  0.2815
  326SOL     OW  976   2.467   0.812   3.095 -0.0655  0.0149  0.1342
  326SOL    HW1  977   2.449   0.779   3.002 -1.8371  0.0336  0.8244
  326SOL    HW2  978   2.525   0.748   3.151  0.1290 -0.4107  1.5013
  327SOL     OW  979   2.853   0.336   0.666 -0.0825 -0.1293  0.0204
  327SOL    HW1  980   2.860   0.256   0.600 -1.4735  2.5576 -2.2106
  327SOL    HW2  981   2.887   0.296   0.761 -0.9217 -2.0776  0.5109
  328SOL     OW  982   2.605   0.569   0.409  0.3082 -0.6286 -0.2059
  328SOL    HW1  983   2.535   0.642   0.419  2.6984 -1.7286 -0.8460
  328SOL    HW2  984   2.590   0.494   0.479 -0.8117  1.0955  0.7957
  329SOL     OW  985   2.941   2.986   2.145  0.1832 -0.0311 -0.1428
  329SOL    HW1  986   3.027   2.941   2.179 -1.5802 -0.1015 -0.8810
  329SOL    HW2  987   2.949   3.088   2.148  2.6829 -0.3542 -0.1799
  330SOL     OW  988   0.528   0.165   1.876 -0.5029  0.4404  0.6371
  330SOL    HW1  989   0.619   0.171   1.822 -1.0924 -0.4733  1.9544
  330SOL    HW2  990   0.542   0.112   1.966  2.4788  0.3898 -1.7849
  331SOL     OW  991   2.978   1.928   1.158 -0.3393  0.1537 -0.2162
  331SOL    HW1  992   2.995   2.022   1.115 -0.7127  2.8593  1.4935
  331SOL    HW2  993   2.904   1.920   1.230 -0.3321  1.2472 -1.3699
  332SOL     OW  994   0.380   1.158   0.053 -0.0576 -0.6006  0.4636
  332SOL    HW1  995   0.303   1.105   0.000 -2.4417  2.5933  0.4191
  332SOL    HW2  996   0.356   1.191   0.148 -0.4533  3.1184 -0.4228
  333SOL     OW  997   2.872   1.042   0.301  0.7625 -0.1561  0.1348
  333SOL    HW1  998   2.900   1.130   0.352 -1.1600  1.2467  4.1103
  333SOL    HW2  999   2.960   0.993   0.268  1.3373  0.4398 -0.3086
  334SOL     OW 1000   1.695   1.263   1.848  0.4631 -0.1637  0.1078
  334SOL    HW1 1001   1.791   1.262   1.806 -0.6438  2.2599  1.1050
  334SOL    HW2 1002   1.685   1.297   1.946 -0.7893 -0.5502 -2.6065
  335SOL     OW 1003   1.978   2.731   2.589 -0.2208 -0.2344 -0.3738
  335SOL    HW1 1004   1.926   2.787   2.661 -1.5822 -0.7363 -0.1174
  335SOL    HW2 1005   2.078   2.719   2.616  1.1298 -1.1835 -3.2822
  336SOL     OW 1006   0.237   0.141   2.760  0.1949 -0.4872 -0.3386
  336SOL    HW1 1007   0.299   0.142   2.846 -0.6916 -0.7019 -0.3539
  336SOL    HW2 1008   0.142   0.107   2.778  0.0274 -0.2573 -2.3252
  337SOL     OW 1009   0.929   2.872   2.856  0.6909  0.2798  0.3005
  337SOL    HW1 1010   0.903   2.806   2.931 -0.4737 -1.5495 -0.3420
  337SOL    HW2 1011   1.026   2.868   2.825  1.3335  0.4725  1.1725
  338SOL     OW 1012   0.027   1.014   0.633  0.5367 -0.2836  0.3900
  338SOL    HW1 1013  -0.072   0.988   0.630  1.3489  2.4151 -1.6394
  338SOL    HW2 1014   0.036   1.116   0.634 -0.0696 -2.0503  1.6304
  339SOL     OW 1015   1.681   1.347   2.104 -0.0087 -0.1259 -0.4388
  339SOL    HW1 1016   1.574   1.353   2.116 -0.1965  0.0135  1.7845
  339SOL    HW2 1017   1.722   1.424   2.167  0.6710 -1.6478 -0.1235
  340SOL     OW 1018   2.341   0.802   1.102  0.0682  0.4252  0.1909
  340SOL    HW1 1019   2.236   0.813   1.095  0.0455  0.2054 -1.5558
  340SOL    HW2 1020   2.372   0.708   1.077 -2.2683 -1.0836 -1.5167
  341SOL     OW 1021   1.882   2.110   0.315 -0.3842 -0.0659 -0.7490
  341SOL    HW1 1022   1.910   2.161   0.227  0.7927 -1.5633  0.3170
  341SOL    HW2 1023   1.969   2.083   0.371  0.2793 -0.9489  1.0708
  342SOL     OW 1024   2.257   2.136   2.756 -0.0372 -0.1127  0.5606
  342SOL    HW1 1025   2.298   2.056   2.806  4.5478  0.4156  0.1990
  342SOL    HW2 1026   2.157   2.121   2.740 -0.4463  0.5857  4.4120
  343SOL     OW 1027   0.360   0.844   2.731  0.1944 -0.4584  0.2919
  343SOL    HW1 1028   0.345   0.945   2.719  0.0536 -0.0961  0.7312
  343SOL    HW2 1029   0.448   0.819   2.791  3.1979 -0.5901 -0.7251
  344SOL     OW 1030   1.917   1.420   0.431  0.3170  0.0815  0.2522
  344SOL    HW1 1031   1.906   1.348   0.356  0.0657 -0.6534  0.7497
  344SOL    HW2 1032   1.823   1.464   0.449 -0.7088  0.5389 -0.6500
  345SOL     OW 1033   1.402   2.245   2.931 -0.2409 -0.1016  0.2809
  345SOL    HW1 1034   1.321   2.224   2.873 -0.3835 -2.9970 -0.5214
  345SOL    HW2 1035   1.490   2.218   2.881  0.4969  0.2109 -0.2041
  346SOL     OW 1036   2.363   0.879   1.362 -0.4558  0.1755  0.0220
  346SOL    HW1 1037   2.324   0.967   1.398  2.1625 -0.2022  1.2544
  346SOL    HW2 1038   2.337   0.864   1.260 -2.6002 -0.1173  2.2680
  347SOL     OW 1039   0.741   2.761   1.564 -0.0368 -0.4090  0.3139
  347SOL    HW1 1040   0.686   2.753   1.652  1.4525 -1.1912  0.5411
  347SOL    HW2 1041   0.745   2.857   1.524 -0.7220  1.3101 -1.5906
  348SOL     OW 1042   0.208   0.684   2.923 -0.2794 -0.0519  0.3680
  348SOL    HW1 1043   0.114   0.654   2.903  2.0264 -1.5100  2.6434
  348SOL    HW2 1044   0.246   0.732   2.840  0.5207  1.2752 -2.6688
  349SOL     OW 1045   1.875   0.474   2.818 -0.4727  0.0881 -0.0389
  349SOL    HW1 1046   1.896   0.544   2.748 -0.0223  0.5177  2.0008
  349SOL    HW2 1047   1.864   0.502   2.917 -1.4295 -0.6589 -1.8934
  350SOL     OW 1048   1.662   0.441   0.386  0.3384 -0.4802  0.2133
  350SOL    HW1 1049   1.740   0.444   0.454 -1.3857 -0.2998 -0.2597
  350SOL    HW2 1050   1.646   0.533   0.339  1.9203 -0.0699  0.2036
  351SOL     OW 1051   1.007   0.826   2.154 -0.0605 -0.5014  0.1577
  351SOL    HW1 1052   0.987   0.925   2.124 -1.0285 -2.3256 -2.7087
  351SOL    HW2 1053   1.049   0.771   2.079  2.6201  1.1495  0.4180
  352SOL     OW 1054   1.983   1.305   0.661 -0.5290  0.2233 -0.3291
  352SOL    HW1 1055   1.968   1.368   0.576  1.0475 -0.0174 -0.5631
  352SOL    HW2 1056   1.924   1.315   0.742  0.0965 -3.4736  1.2403
  353SOL     OW 1057   2.141   2.792   1.085 -0.3220 -0.7618  0.3381
  353SOL    HW1 1058   2.222   2.748   1.136  0.7689  0.3672 -0.1647
  353SOL    HW2 1059   2.050   2.742   1.072 -0.7135  0.8292  0.3561
  354SOL     OW 1060   0.267   1.377   2.907 -0.8435 -0.1023 -0.3586
  354SOL    HW1 1061   0.260   1.439   2.819  0.3601  1.0029 -1.0732
  354SOL    HW2 1062   0.368   1.368   2.935  0.4785 -1.0626 -0.7835
  355SOL     OW 1063   0.680   1.564   0.583  1.2033  0.2448 -0.1047
  355SOL    HW1 1064   0.695   1.621   0.669  1.9114  0.2606 -1.9854
  355SOL    HW2 1065   0.683   1.462   0.600 -0.3492  0.3351  1.9119
  356SOL     OW 1066   0.845   0.337   2.071 -0.0674  0.2763 -0.2629
  356SOL    HW1 1067   0.939   0.281   2.081  0.5807  0.9942 -0.3240
  356SOL    HW2 1068   0.812   0.337   1.973 -0.0755 -1.4223  0.8418
  357SOL     OW 1069   1.014   1.319   0.320 -0.2438  0.3516  0.0965
  357SOL    HW1 1070   1.018   1.286   0.221  1.8262  1.4797 -1.4339
  357SOL    HW2 1071   1.000   1.238   0.387  0.8136 -0.5310 -0.4553
  358SOL     OW 1072   1.665   1.504   0.495  0.3702  0.0665 -0.0708
  358SOL    HW1 1073   1.621   1.454   0.577 -1.1939 -1.4866  0.8771
  358SOL    HW2 1074   1.626   1.483   0.402  0.5283 -3.9974  0.3750
  359SOL     OW 1075   1.573   2.624   0.201 -0.3174 -0.2432  0.3699
  359SOL    HW1 1076   1.550   2.525   0.188  0.8551  1.5802  1.6565
  359SOL    HW2 1077   1.505   2.688   0.153 -2.4835  1.6500 -1.6925
  360SOL     OW 1078   0.845   0.571   0.552 -0.6781  0.2101 -0.5091
  360SOL    HW1 1079   0.748   0.594   0.548 -0.3727 -1.4404  2.2193
  360SOL    HW2 1080   0.865   0.470   0.558  1.2820 -0.7311 -1.7347
  361SOL     OW 1081   1.232   1.300   0.715 -0.6862 -0.0083 -0.3619
  361SOL    HW1 1082   1.282   1.380   0.757  1.1479  0.2871 -0.8363
  361SOL    HW2 1083   1.133   1.323   0.696 -1.9461 -1.0801 -0.2145
  362SOL     OW 1084   1.393   1.848   0.817 -0.0223 -0.1945  0.1525
  362SOL    HW1 1085   1.426   1.773   0.879  0.0291  0.7702  1.1393
  362SOL    HW2 1086   1.449   1.860   0.731  1.9785  1.8903  2.3447
  363SOL     OW 1087   1.233   1.249   2.038  0.2530  0.4269 -0.2853
  363SOL    HW1 1088   1.271   1.303   2.114 -3.2527 -0.5298  0.4286
  363SOL    HW2 1089   1.226   1.306   1.954  0.7883 -1.9092  0.0144
  364SOL     OW 1090   0.498   2.337   2.006 -0.0711  0.0831  0.0100
  364SOL    HW1 1091   0.395   2.343   2.005  0.9732 -1.3004 -0.4570
  364SOL    HW2 1092   0.539   2.405   1.944 -1.3634  2.3688  2.5129
  365SOL     OW 1093   0.997   1.922   1.393  0.1433  0.4142 -0.4540
  365SOL    HW1 1094   0.901   1.958   1.408 -0.3877 -0.7606  0.4823
  365SOL    HW2 1095   1.039   1.927   1.297 -1.7917  2.1482 -1.3309
  366SOL     OW 1096   2.821   2.026   0.403  0.2810 -0.6764 -0.6894
  366SOL    HW1 1097   2.727   2.015   0.445  2.6771  1.3913  1.2897
  366SOL    HW2 1098   2.845   1.942   0.356 -0.7358  0.3981 -0.4862
  367SOL     OW 1099   0.906   1.109   0.093 -0.5252 -0.0569 -1.1780
  367SOL    HW1 1100   0.932   1.038   0.166 -1.1266  0.1052  0.6931
  367SOL    HW2 1101   0.986   1.136   0.034  1.2331  0.2232 -0.7790
  368SOL     OW 1102   1.457   0.554   0.699  0.5682  0.0484  0.1380
  368SOL    HW1 1103   1.407   0.595   0.616  1.0267  4.4603 -0.7231
  368SOL    HW2 1104   1.552   0.596   0.700  3.8183  2.7309 -3.0910
  369SOL     OW 1105   0.331   1.692   0.067  0.2486 -0.4965 -0.0740
  369SOL    HW1 1106   0.350   1.781   0.119  2.5151  0.4511 -2.0466
  369SOL    HW2 1107   0.261   1.629   0.117 -2.4189  1.6518 -1.5556
  370SOL     OW 1108   0.455   2.074   0.982 -0.0500 -0.1728 -0.0741
  370SOL    HW1 1109   0.452   2.175   0.973 -1.7153 -3.1108  1.6081
  370SOL    HW2 1110   0.358   2.035   0.982  1.6682 -1.1704  0.1306
  371SOL     OW 1111   2.912   2.188   2.653 -0.2690  0.1609 -0.1333
  371SOL    HW1 1112   2.827   2.164   2.709  0.7675  0.9821 -0.5911
  371SOL    HW2 1113   2.988   2.205   2.717  1.9417  1.0326 -0.4429
  372SOL     OW 1114   1.123   2.030   1.087 -0.4032 -0.4097 -0.3642
  372SOL    HW1 1115   1.031   2.062   1.048  0.4728  1.4072 -1.4746
  372SOL    HW2 1116   1.201   2.074   1.032 -0.7747  0.6104 -0.8784
  373SOL     OW 1117   2.021   1.992   0.859  0.0311  0.0454  0.3039
  373SOL    HW1 1118   2.082   1.997   0.946  3.3468 -0.6297 -1.2540
  373SOL    HW2 1119   1.922   2.009   0.882  0.1379 -0.5768 -1.0677
  374SOL     OW 1120   1.848   0.387   0.570  0.0338 -0.1527 -0.1818
  374SOL    HW1 1121   1.834   0.309   0.634  2.6634  2.7397 -2.6283
  374SOL    HW2 1122   1.955   0.392   0.564  3.4927 -0.3089  1.7277
  375SOL     OW 1123   2.407   2.182   1.083 -1.0588  0.2925 -0.1141
  375SOL    HW1 1124   2.467   2.139   1.011 -1.4795  2.8125 -1.0050
  375SOL    HW2 1125   2.432   2.154   1.180 -1.3542 -0.5193 -0.4293
  376SOL     OW 1126   3.062   0.571   1.467  0.0805  0.0867  0.1048
  376SOL    HW1 1127   3.053   0.612   1.565 -0.5157  3.3117  1.0526
  376SOL    HW2 1128   2.974   0.531   1.434  0.1953  0.9556 -0.6483
  377SOL     OW 1129   2.218   2.887   0.322 -0.6262  0.5016 -0.2726
  377SOL    HW1 1130   2.193   2.987   0.335  0.6968 -0.4129  0.2719
  377SOL    HW2 1131   2.321   2.865   0.314  2.2015  1.6832 -0.4600
  378SOL     OW 1132   1.855   1.855   2.602  0.0008  0.1954  0.5776
  378SOL    HW1 1133   1.923   1.806   2.667 -0.7896  0.8022  3.6937
  378SOL    HW2 1134   1.834   1.785   2.526 -0.1112 -1.3518 -1.8972
  379SOL     OW 1135   0.742   0.142   2.901 -0.2888 -0.5217  0.6323
  379SOL    HW1 1136   0.714   0.058   2.848 -0.9428  2.3907  1.5851
  379SOL    HW2 1137   0.747   0.227   2.847 -2.7875 -1.4719 -0.5859
  380SOL     OW 1138   1.492   1.136   0.583  0.8881 -0.1015  0.4202
  380SOL    HW1 1139   1.395   1.135   0.543 -2.4333 -0.0276  0.4515
  380SOL    HW2 1140   1.529   1.046   0.613 -0.1880 -0.3684 -0.1272
  381SOL     OW 1141   1.380   1.173   1.553  0.1545 -0.1601  0.6315
  381SOL    HW1 1142   1.417   1.163   1.460 -1.0542 -1.1805  1.4027
  381SOL    HW2 1143   1.442   1.141   1.631 -0.3447 -0.4457  1.2779
  382SOL     OW 1144   1.770   0.830   0.178 -0.2652  0.0607  0.0032
  382SOL    HW1 1145   1.814   0.822   0.085 -2.0666 -2.4393  2.5919
  382SOL    HW2 1146   1.840   0.859   0.248 -0.6624 -1.0238 -0.9486
  383SOL     OW 1147   2.607   0.983   1.461  0.3453 -0.1847  0.7298
  383SOL    HW1 1148   2.512   0.966   1.423 -2.4438  1.9594 -2.6275
  383SOL    HW2 1149   2.681   0.961   1.387 -2.0245 -0.5306 -1.0389
  384SOL     OW 1150   0.900   2.299   0.136  0.4095 -0.3360  0.4467
  384SOL    HW1 1151   0.847   2.384   0.168 -2.9040 -2.2264  0.3439
  384SOL    HW2 1152   0.875   2.217   0.198  1.1061 -1.1056 -0.3139
  385SOL     OW 1153   3.049   2.042   1.658  0.0281  0.7586 -0.4329
  385SOL    HW1 1154   3.101   2.129   1.644 -2.1284  0.7505  1.9808
  385SOL    HW2 1155   3.110   1.957   1.655  0.4907 -2.8509  1.2773
  386SOL     OW 1156   0.485   1.101   0.393  0.2213  0.4297 -0.3763
  386SOL    HW1 1157   0.481   1.014   0.448 -0.1669  0.3656  2.4960
  386SOL    HW2 1158   0.390   1.124   0.357  1.6186 -1.0425 -0.2009
  387SOL     OW 1159   0.924   0.355   1.624  0.1751 -0.4760  0.1695
  387SOL    HW1 1160   1.011   0.412   1.637 -1.1236 -0.6887  0.8218
  387SOL    HW2 1161   0.931   0.302   1.536  2.9015 -1.7580 -1.0690
  388SOL     OW 1162   1.189   2.605   1.755 -0.2660  0.6305 -0.5010
  388SOL    HW1 1163   1.262   2.592   1.684  1.3375 -0.4248 -1.0497
  388SOL    HW2 1164   1.219   2.549   1.838  2.3969  0.4110  1.1550
  389SOL     OW 1165   0.148   3.000   1.077 -0.2696 -0.2736 -0.6552
  389SOL    HW1 1166   0.049   2.969   1.060  0.0537 -2.2136  3.0990
  389SOL    HW2 1167   0.204   2.919   1.107 -1.2630 -2.4268  2.6587
  390SOL     OW 1168   1.033   0.944   1.342  0.6404  0.1618  0.1637
  390SOL    HW1 1169   1.125   0.914   1.384  0.0767 -0.4174  1.3546
  390SOL    HW2 1170   0.984   1.028   1.387 -1.9756  1.8633 -0.6300
  391SOL     OW 1171   2.099   1.148   1.059 -0.0116 -0.9018  0.8981
  391SOL    HW1 1172   2.022   1.091   1.094  2.5750 -0.0302  0.1165
  391SOL    HW2 1173   2.159   1.103   0.985  1.9604 -3.6328  0.3209
  392SOL     OW 1174   0.886   2.687   3.065  0.4293  0.7569  0.0790
  392SOL    HW1 1175   0.827   2.625   3.122  0.8565 -1.7801  4.2962
  392SOL    HW2 1176   0.952   2.748   3.116 -1.3381  2.1033 -0.0515
  393SOL     OW 1177   0.296   0.506   1.983  0.0886 -0.3381 -0.3339
  393SOL    HW1 1178   0.274   0.412   1.945 -0.1355  1.6605 -1.1401
  393SOL    HW2 1179   0.372   0.543   1.918  2.0566  0.0887 -1.5700
  394SOL     OW 1180   3.019   1.864   2.756  0.8741 -0.2590  0.7070
  394SOL    HW1 1181   3.105   1.913   2.792  0.8850 -0.4169 -0.3199
  394SOL    HW2 1182   3.011   1.863   2.653 -2.1075  1.9795  0.3731
  395SOL     OW 1183   1.611   1.937   0.661  0.5801 -0.2455  0.9111
  395SOL    HW1 1184   1.663   1.881   0.588  1.8572  0.4832  2.0523
  395SOL    HW2 1185   1.666   1.973   0.744 -2.9557 -0.2194  3.0796
  396SOL     OW 1186   2.783   1.938   1.345  0.6539 -0.6385 -0.0616
  396SOL    HW1 1187   2.692   1.969   1.317  4.3766 -3.2855 -0.5621
  396SOL    HW2 1188   2.804   1.947   1.445  1.2263  2.1015  0.5385
  397SOL     OW 1189   1.005   2.200   0.501  0.4501 -0.1733 -0.1600
  397SOL    HW1 1190   0.921   2.146   0.523  3.1426  2.9439 -0.7386
  397SOL    HW2 1191   0.984   2.302   0.505  1.3834  2.5005  1.1726
  398SOL     OW 1192   2.114   3.063   1.074 -0.0428 -0.3982 -0.1986
  398SOL    HW1 1193   2.123   2.966   1.084  0.1010  1.3231 -2.0736
  398SOL    HW2 1194   2.022   3.106   1.103 -0.2444 -0.0456  0.2535
  399SOL     OW 1195   2.977   2.528   2.643  0.3463  0.2398 -1.6297
  399SOL    HW1 1196   2.909   2.480   2.573  2.5096 -0.1931 -2.3317
  399SOL    HW2 1197   2.980   2.489   2.737 -0.9509  2.1487 -0.8037
  400SOL     OW 1198   0.792   1.610   1.312 -0.2532  0.2922  0.1532
  400SOL    HW1 1199   0.788   1.649   1.409 -1.2147  0.3650 -2.4953
  400SOL    HW2 1200   0.765   1.671   1.234  1.1715  1.7097 -1.0844
  401SOL     OW 1201   1.811   0.107   1.365 -0.4748  0.0395 -0.2279
  401SOL    HW1 1202   1.863   0.148   1.447  0.2557 -1.7604  0.4909
  401SOL    HW2 1203   1.710   0.112   1.363 -0.1365  0.6730 -1.1231
  402SOL     OW 1204   1.330   0.146   3.033 -0.2536  0.6153 -0.0829
  402SOL    HW1 1205   1.424   0.136   2.978  2.0080 -0.2724 -0.5660
  402SOL    HW2 1206   1.296   0.242   3.053  0.2848 -0.4090 -1.2364
  403SOL     OW 1207   2.310   1.813   0.881  0.0096 -0.2413 -0.0655
  403SOL    HW1 1208   2.402   1.830   0.923 -3.2837 -0.6256 -1.1530
  403SOL    HW2 1209   2.240   1.863   0.939 -1.5475 -0.3879 -2.6013
  404SOL     OW 1210   0.179   2.503   2.817 -0.0043 -0.3157  0.2478
  404SOL    HW1 1211   0.277   2.494   2.794 -1.4114  2.7522 -1.3167
  404SOL    HW2 1212   0.157   2.604   2.836  2.6855 -0.6206  0.7508
  405SOL     OW 1213   0.168   2.428   0.628  0.4866 -0.0478  0.1881
  405SOL    HW1 1214   0.157   2.364   0.546  4.8402  1.2295 -1.2142
  405SOL    HW2 1215   0.212   2.525   0.608  0.0534  0.8088  2.7470
  406SOL     OW 1216   0.026   1.481   2.998 -0.1068 -0.1024  0.1253
  406SOL    HW1 1217   0.114   1.434   2.969 -0.6648 -1.1712 -0.4129
  406SOL    HW2 1218   0.045   1.547   3.084  0.3524  3.1262 -0.7642
  407SOL     OW 1219   1.580   0.928   0.910  0.1383  0.1024  0.4323
  407SOL    HW1 1220   1.544   0.871   0.835  1.4951  1.4277 -1.6652
  407SOL    HW2 1221   1.528   1.016   0.926  2.6914  0.1272 -0.7364
  408SOL     OW 1222   1.604   2.322   0.953  0.0643 -0.5072  0.2489
  408SOL    HW1 1223   1.632   2.294   0.855 -1.0174 -0.6328  1.6483
  408SOL    HW2 1224   1.549   2.406   0.957 -1.9877  0.8147  0.4626
  409SOL     OW 1225   0.659   0.859   0.714  0.5045 -0.3048 -0.2048
  409SOL    HW1 1226   0.568   0.883   0.663  2.4236  1.2512 -1.1498
  409SOL    HW2 1227   0.660   0.757   0.736 -0.4378 -1.3570 -2.4558
  410SOL     OW 1228   1.258   2.027   1.434 -0.4222  0.4752  0.1455
  410SOL    HW1 1229   1.329   1.993   1.512  1.6074 -3.2501  3.4623
  410SOL    HW2 1230   1.161   1.990   1.446  0.8874  1.2339 -1.9835
  411SOL     OW 1231   2.505   1.852   0.015  0.1957 -0.1430  0.0156
  411SOL    HW1 1232   2.416   1.857  -0.037 -0.5317 -1.2030  0.2069
  411SOL    HW2 1233   2.585   1.836  -0.048 -0.7070 -2.4774 -0.0871
  412SOL     OW 1234   1.487   2.530   2.178 -0.3730 -0.2669  0.3444
  412SOL    HW1 1235   1.553   2.608   2.197 -2.1401 -0.4112  0.2313
  412SOL    HW2 1236   1.410   2.517   2.245  0.9771 -3.2212  0.5715
  413SOL     OW 1237   3.097   0.274   2.927 -0.0470  0.6279  0.2685
  413SOL    HW1 1238   3.024   0.211   2.962 -0.0747  1.6793  1.3621
  413SOL    HW2 1239   3.192   0.234   2.951  1.4167 -1.3811 -0.8793
  414SOL     OW 1240   1.819   1.463   1.265  0.2736 -0.6730 -0.8840
  414SOL    HW1 1241   1.725   1.491   1.302  0.8087  0.2952  0.2163
  414SOL    HW2 1242   1.804   1.386   1.192 -0.8970 -0.3434  2.0297
  415SOL     OW 1243   0.289   2.176   0.736 -0.0963 -0.5086  0.4063
  415SOL    HW1 1244   0.245   2.271   0.722  2.0380  2.8475  2.9100
  415SOL    HW2 1245   0.226   2.108   0.772 -2.7331  2.2454 -2.7577
  416SOL     OW 1246   0.371   1.066   1.053 -0.2977 -0.0276 -0.1183
  416SOL    HW1 1247   0.351   1.000   0.975  1.7726 -1.7908 -0.5870
  416SOL    HW2 1248   0.458   1.118   1.046 -1.4644 -3.1350  1.3071
  417SOL     OW 1249   2.142   2.313   1.908 -0.0350 -0.1695  0.3339
  417SOL    HW1 1250   2.172   2.213   1.914  2.2389  1.2445 -2.3663
  417SOL    HW2 1251   2.041   2.319   1.886 -0.9237 -1.2059 -1.2858
  418SOL     OW 1252   1.132   0.494   1.310 -0.4072  0.0609  0.0139
  418SOL    HW1 1253   1.047   0.472   1.252  3.9370 -0.3272  1.0967
  418SOL    HW2 1254   1.186   0.573   1.269  0.6957  0.1808  0.1926
  419SOL     OW 1255   0.988   0.371   3.032 -0.4111 -0.0161  0.4652
  419SOL    HW1 1256   0.946   0.430   2.961 -1.2168 -1.3445 -0.2508
  419SOL    HW2 1257   0.932   0.283   3.053 -2.5068  1.7509 -3.3601
  420SOL     OW 1258   0.125   2.266   0.386 -0.6466 -0.2347  0.2123
  420SOL    HW1 1259   0.099   2.264   0.285 -2.0344  1.0691 -0.9929
  420SOL    HW2 1260   0.046   2.241   0.446 -0.5898 -1.4931  1.3286
  421SOL     OW 1261   0.312   2.975   0.708  0.1727 -1.1172 -0.2648
  421SOL    HW1 1262   0.302   2.876   0.720 -1.9778  1.0382  3.4658
  421SOL    HW2 1263   0.411   3.004   0.693  0.6930 -0.4814 -1.3808
  422SOL     OW 1264   0.995   2.574   1.030  0.0905 -0.5619  0.0221
  422SOL    HW1 1265   1.061   2.647   0.991  0.7593  0.9982 -2.7241
  422SOL    HW2 1266   0.979   2.578   1.134  1.2448  0.1858  2.0811
  423SOL     OW 1267   0.109   0.691   1.269  0.2656 -0.7605 -0.0511
  423SOL    HW1 1268   0.044   0.655   1.346  2.6294  0.5681 -2.3632
  423SOL    HW2 1269   0.086   0.791   1.244 -0.7958  0.0477 -0.9592
  424SOL     OW 1270   1.027   2.251   2.054  0.1350 -0.5318 -0.6381
  424SOL    HW1 1271   0.994   2.331   1.997  0.2427 -0.1210  0.0676
  424SOL    HW2 1272   1.026   2.274   2.154  0.2190  0.1658 -1.7537
  425SOL     OW 1273   1.984   1.436   0.964  0.4948  0.3102  0.2251
  425SOL    HW1 1274   2.020   1.365   1.032 -2.1458 -1.3001 -2.4879
  425SOL    HW2 1275   2.052   1.461   0.891 -0.4523 -2.3735  3.1544
  426SOL     OW 1276   1.536   1.549   1.386  0.5598  0.7198 -0.0321
  426SOL    HW1 1277   1.513   1.630   1.324  0.5271  0.5241  0.4557
  426SOL    HW2 1278   1.485   1.551   1.473  0.1783  1.0348 -3.8472
  427SOL     OW 1279   1.849   2.352   2.059 -0.0434 -0.2097  0.1184
  427SOL    HW1 1280   1.905   2.272   2.103  1.5490  1.1320  2.9803
  427SOL    HW2 1281   1.901   2.443   2.057 -1.6102 -0.9929 -2.1640
  428SOL     OW 1282   0.867   2.978   0.193  0.0234  0.8344  0.1542
  428SOL    HW1 1283   0.882   3.072   0.159 -0.3174 -1.6410 -2.1127
  428SOL    HW2 1284   0.943   2.908   0.177 -1.0735 -0.3458 -1.8665
  429SOL     OW 1285   1.333   0.090   0.219  0.3190  0.3710  0.1739
  429SOL    HW1 1286   1.424   0.133   0.248  1.0837 -0.7633 -1.5004
  429SOL    HW2 1287   1.321   0.102   0.117 -0.2868  0.2213 -0.6577
  430SOL     OW 1288   2.784   1.434   0.393  0.5225 -0.2666  0.0794
  430SOL    HW1 1289   2.824   1.500   0.321  3.4445 -1.1043 -0.6842
  430SOL    HW2 1290   2.783   1.475   0.487 -0.9908 -3.3934  0.5027
  431SOL     OW 1291   2.164   1.581   0.811 -0.2459 -0.1981 -0.1627
  431SOL    HW1 1292   2.222   1.663   0.849 -0.0598  0.7982  0.8956
  431SOL    HW2 1293   2.093   1.613   0.742 -1.5182  1.0668  1.0219
  432SOL     OW 1294   2.866   2.220   1.255  0.4097  0.6509 -0.7121
  432SOL    HW1 1295   2.818   2.141   1.298 -0.1664  0.9221  1.1792
  432SOL    HW2 1296   2.910   2.271   1.330 -0.3201  0.0684 -0.6134
  433SOL     OW 1297   1.931   0.396   0.864  0.1780  0.0049  0.2576
  433SOL    HW1 1298   1.857   0.335   0.905 -0.8777 -1.1690 -0.2545
  433SOL    HW2 1299   2.026   0.371   0.898  0.9865  1.8383 -0.4617
  434SOL     OW 1300   1.528   0.300   0.786  0.1396 -0.0630 -0.0247
  434SOL    HW1 1301   1.490   0.393   0.745 -1.1514  4.6351 -2.3594
  434SOL    HW2 1302   1.588   0.311   0.869  0.7353 -0.2263 -0.7637
  435SOL     OW 1303   1.424   1.435   2.125  0.4650 -0.4412  0.7746
  435SOL    HW1 1304   1.361   1.459   2.196  2.2637  2.7039 -2.0129
  435SOL    HW2 1305   1.451   1.522   2.075 -0.7291  0.8920 -1.8979
  436SOL     OW 1306   1.686   2.728   2.260  0.1474 -0.6563 -0.6179
  436SOL    HW1 1307   1.644   2.814   2.311 -0.8753  0.4116 -0.5368
  436SOL    HW2 1308   1.708   2.647   2.323 -1.2266  0.2936 -2.8329
  437SOL     OW 1309   1.056   2.909   0.915 -0.3257  0.0267 -0.0146
  437SOL    HW1 1310   1.047   2.994   0.855 -2.6403 -1.5205  1.6648
  437SOL    HW2 1311   1.012   2.916   1.007 -0.2512  1.1385 -3.4306
  438SOL     OW 1312   1.038   2.573   1.311 -0.4989 -0.3944  0.1383
  438SOL    HW1 1313   1.094   2.617   1.384  0.8349  1.4452 -1.9694
  438SOL    HW2 1314   1.008   2.471   1.327 -0.1195 -0.7459  0.3818
  439SOL     OW 1315   0.702   1.733   1.065  0.3488 -0.5928 -0.1796
  439SOL    HW1 1316   0.700   1.773   0.969  0.0597  1.4453 -0.9199
  439SOL    HW2 1317   0.605   1.714   1.102  0.1069 -0.4572  2.4441
  440SOL     OW 1318   0.976   2.488   1.935  0.2979  0.0861  1.1474
  440SOL    HW1 1319   0.939   2.512   1.840 -1.7196 -0.5119 -1.4575
  440SOL    HW2 1320   1.080   2.490   1.935 -0.0304  1.6277 -1.5439
  441SOL     OW 1321   0.401   2.770   1.396  0.1238 -0.4310  0.0772
  441SOL    HW1 1322   0.453   2.692   1.434  0.9765 -1.4435 -0.0343
  441SOL    HW2 1323   0.400   2.765   1.289  1.3647  0.0231  0.2892
  442SOL     OW 1324   2.304   0.663   2.507  0.2930  0.4079 -0.7136
  442SOL    HW1 1325   2.287   0.564   2.475  0.5652  0.1136  0.0575
  442SOL    HW2 1326   2.218   0.721   2.498  2.1341  0.1505  1.2374
  443SOL     OW 1327   1.211   2.727   2.194  0.1220  0.2803 -0.2078
  443SOL    HW1 1328   1.256   2.775   2.276 -3.5199 -1.6131  0.3486
  443SOL    HW2 1329   1.135   2.672   2.235  0.3278 -2.1424  1.0488
  444SOL     OW 1330   1.155   1.304   1.592 -0.3209  0.4562  0.3050
  444SOL    HW1 1331   1.247   1.259   1.565  0.8922 -0.2269 -0.4689
  444SOL    HW2 1332   1.174   1.366   1.671  0.9122  0.0979 -0.9818
  445SOL     OW 1333   0.022   2.407   1.893  0.2491  0.6085  0.1073
  445SOL    HW1 1334   0.013   2.501   1.843 -0.2924  1.8190 -2.5124
  445SOL    HW2 1335  -0.068   2.367   1.919 -0.2902 -1.8884  0.3240
  446SOL     OW 1336   0.268   1.914   2.341  0.1975 -0.0079 -0.0220
  446SOL    HW1 1337   0.227   2.006   2.364 -1.8419  4.2669  2.5099
  446SOL    HW2 1338   0.211   1.864   2.269  1.9765 -0.8284  0.3013
  447SOL     OW 1339   1.224   1.713   1.912  0.2592  0.0084  0.3481
  447SOL    HW1 1340   1.128   1.751   1.914 -1.5594 -0.8754  1.1247
  447SOL    HW2 1341   1.299   1.780   1.933  1.5827 -0.1815 -1.9597
  448SOL     OW 1342   0.119   1.458   2.011  0.2232  0.4532 -0.6426
  448SOL    HW1 1343   0.148   1.554   1.981 -0.4049  3.1920  0.0473
  448SOL    HW2 1344   0.071   1.460   2.101  3.0645 -1.3584  1.4760
  449SOL     OW 1345   1.831   3.000   0.863  0.7729  0.3635 -0.2707
  449SOL    HW1 1346   1.807   2.981   0.963  0.4293  2.7352 -0.0775
  449SOL    HW2 1347   1.888   2.925   0.819 -0.6235  1.9543  0.8933
  450SOL     OW 1348   2.389   1.454   0.719  0.5464  0.6355 -0.2583
  450SOL    HW1 1349   2.310   1.506   0.761  1.5523 -0.7705  1.8743
  450SOL    HW2 1350   2.395   1.476   0.619 -1.1262  1.2003 -2.1543
  451SOL     OW 1351   1.372   3.006   1.434  0.4595 -0.1731 -0.2532
  451SOL    HW1 1352   1.305   3.083   1.457 -1.5383 -1.4525  1.8283
  451SOL    HW2 1353   1.401   2.948   1.519  1.9898 -1.8693 -0.5759
  452SOL     OW 1354   2.702   2.279   2.180  0.3219 -0.0201  0.0109
  452SOL    HW1 1355   2.657   2.369   2.196  0.4426 -1.5703  0.3325
  452SOL    HW2 1356   2.731   2.227   2.267  0.3294 -1.5639  2.2384
  453SOL     OW 1357   2.469   2.630   3.093  0.0512  0.2617  0.7103
  453SOL    HW1 1358   2.399   2.690   3.131 -2.3565  1.9907 -1.6503
  453SOL    HW2 1359   2.432   2.579   3.010  2.0006 -0.3433  0.5094
  454SOL     OW 1360   0.954   1.145   2.089  0.0371  0.2604  0.0997
  454SOL    HW1 1361   0.934   1.124   1.991 -0.2245  0.0510  0.7750
  454SOL    HW2 1362   1.040   1.200   2.099 -0.0510 -0.2731  1.3564
  455SOL     OW 1363   0.651   2.681   2.878 -1.1655  0.5090  0.7295
  455SOL    HW1 1364   0.711   2.724   2.958  1.6529  1.0005 -1.4995
  455SOL    HW2 1365   0.617   2.587   2.909 -0.1949  0.9497  0.1183
  456SOL     OW 1366   0.460   1.883   0.263 -0.3717 -0.6134 -0.3626
  456SOL    HW1 1367   0.541   1.850   0.315 -0.3871  0.9032 -1.3029
  456SOL    HW2 1368   0.483   1.964   0.201  0.8759  0.6908  0.5600
  457SOL     OW 1369   0.335   2.641   0.592 -0.0821 -0.7339  0.6640
  457SOL    HW1 1370   0.323   2.706   0.512 -1.7157  1.1575 -1.6130
  457SOL    HW2 1371   0.420   2.582   0.589  0.4943  1.3830 -4.7074
  458SOL     OW 1372   2.911   3.087   1.272 -0.0396 -0.4127  0.0592
  458SOL    HW1 1373   2.951   3.179   1.250  1.0788 -0.2105 -0.4263
  458SOL    HW2 1374   2.917   3.023   1.189  0.2484 -0.1049 -3.1942
  459SOL     OW 1375   2.119   2.598   0.770  0.3472 -0.5716  1.0562
  459SOL    HW1 1376   2.196   2.655   0.800  1.1867 -1.2667 -0.0071
  459SOL    HW2 1377   2.144   2.545   0.684 -0.0694  1.0883 -1.2323
  460SOL     OW 1378   1.240   2.054   2.827  0.3657 -0.8992  0.0305
  460SOL    HW1 1379   1.206   2.062   2.731 -1.8104  0.9375  2.6638
  460SOL    HW2 1380   1.249   1.957   2.858  0.6668  1.9079  0.3285
  461SOL     OW 1381   0.549   2.140   2.633  0.0315 -0.2675 -0.0063
  461SOL    HW1 1382   0.472   2.071   2.604 -0.1419 -0.9089  3.2796
  461SOL    HW2 1383   0.593   2.105   2.720  0.4894 -2.2540 -0.1811
  462SOL     OW 1384   0.973   1.156   1.817 -0.1125  0.1555 -0.0047
  462SOL    HW1 1385   1.057   1.123   1.763 -1.0548 -0.5821  2.0559
  462SOL    HW2 1386   0.934   1.251   1.804 -0.0566 -0.6328  1.3786
  463SOL     OW 1387   0.475   0.848   0.497  0.4936  0.0449 -0.4230
  463SOL    HW1 1388   0.510   0.757   0.458 -2.1891  0.2574 -1.1543
  463SOL    HW2 1389   0.374   0.836   0.509 -2.4640  0.4509 -2.1067
  464SOL     OW 1390   0.613   2.296   2.238  0.8302 -0.0816  0.1336
  464SOL    HW1 1391   0.575   2.362   2.304 -0.5516 -1.5036 -0.5015
  464SOL    HW2 1392   0.562   2.304   2.146 -2.1231  0.4125 -0.1571
  465SOL     OW 1393   0.244   0.952   0.805  0.3627  0.0840 -0.5873
  465SOL    HW1 1394   0.162   0.974   0.749  0.1209  0.6332 -5.6895
  465SOL    HW2 1395   0.260   0.844   0.816  1.6324 -1.5186 -0.1283
  466SOL     OW 1396   1.403   1.157   0.995  0.2672 -0.0514  0.0902
  466SOL    HW1 1397   1.374   1.255   0.992  2.3540  0.8228 -0.7074
  466SOL    HW2 1398   1.327   1.099   1.029 -0.9672  0.5800  3.3375
  467SOL     OW 1399   0.514   0.371   2.402 -0.3587 -0.1454 -0.4428
  467SOL    HW1 1400   0.487   0.470   2.409  0.6964  0.8508 -1.7084
  467SOL    HW2 1401   0.512   0.321   2.492 -0.6736 -2.7095  0.9250
  468SOL     OW 1402   0.474   2.283   1.655 -0.2248  0.1201 -0.1054
  468SOL    HW1 1403   0.532   2.357   1.706  1.1949  1.8996  1.4722
  468SOL    HW2 1404   0.475   2.299   1.555  1.6791 -0.8790 -0.3752
  469SOL     OW 1405   1.452   1.391   1.157  0.5390  0.7995  0.2238
  469SOL    HW1 1406   1.526   1.327   1.120  2.0243 -2.0648  0.1968
  469SOL    HW2 1407   1.475   1.435   1.249 -3.1397  1.3008 -1.7221
  470SOL     OW 1408   3.006   1.736   0.710  0.5098 -0.7989 -0.5927
  470SOL    HW1 1409   3.074   1.802   0.665 -0.9730  0.0895  3.1593
  470SOL    HW2 1410   3.053   1.674   0.772 -0.9392  3.3323  1.6766
  471SOL     OW 1411   2.700   1.261   2.134  0.0657  0.0201  0.4662
  471SOL    HW1 1412   2.657   1.198   2.202  0.4719  2.4163 -1.9858
  471SOL    HW2 1413   2.727   1.353   2.173  1.2134 -0.3496  2.8299
  472SOL     OW 1414   1.146   2.455   0.039  0.7461  0.1722 -0.4346
  472SOL    HW1 1415   1.190   2.427   0.127 -0.5216 -1.3128 -0.3238
  472SOL    HW2 1416   1.051   2.414   0.035  0.8266  0.8216  1.9786
  473SOL     OW 1417   1.084   1.549   1.009 -0.3107 -0.3329  0.0639
  473SOL    HW1 1418   0.988   1.530   0.978 -2.8535  0.4080 -0.3988
  473SOL    HW2 1419   1.123   1.487   1.086  0.7295  0.3211 -0.3292
  474SOL     OW 1420   0.662   1.287   0.556  0.4668  0.1506  0.4902
  474SOL    HW1 1421   0.594   1.245   0.491  0.8829  1.6575  0.8406
  474SOL    HW2 1422   0.739   1.223   0.579 -1.4502  0.5202  1.6031
  475SOL     OW 1423   2.837   0.055   0.792  0.1195  0.3746 -0.3595
  475SOL    HW1 1424   2.919   0.111   0.815 -0.3684 -1.1982 -0.4492
  475SOL    HW2 1425   2.745   0.095   0.804  2.1889 -1.3070  0.7376
  476SOL     OW 1426   0.989   3.064   1.817  0.2298 -0.4150  0.4363
  476SOL    HW1 1427   1.060   2.998   1.854  0.1806  0.1154  0.7218
  476SOL    HW2 1428   0.971   3.049   1.714  0.2782 -0.7890  0.2457
  477SOL     OW 1429   1.421   0.329   2.471  0.8054 -0.1231  0.2176
  477SOL    HW1 1430   1.421   0.336   2.572 -1.1715  1.2096  1.3815
  477SOL    HW2 1431   1.503   0.281   2.435 -1.4838  1.3596 -1.0823
  478SOL     OW 1432   2.232   1.847   0.192 -0.0806  0.1767  0.4747
  478SOL    HW1 1433   2.170   1.765   0.199  0.1549  0.6471  4.6192
  478SOL    HW2 1434   2.333   1.823   0.202 -3.5430  0.4686  0.3639
  479SOL     OW 1435   1.261   1.014   2.914  0.6379  0.3425  0.2226
  479SOL    HW1 1436   1.344   1.052   2.867 -3.6946  0.2659  2.6698
  479SOL    HW2 1437   1.184   0.991   2.848 -0.1630  4.0141  0.1274
  480SOL     OW 1438   2.624   2.353   0.385 -0.8774  0.0146  0.2825
  480SOL    HW1 1439   2.592   2.269   0.433 -0.9935  1.0612  1.4921
  480SOL    HW2 1440   2.581   2.362   0.291 -1.5877  2.6257  1.2512
  481SOL     OW 1441   0.982   1.144   0.896  0.1094 -0.1780 -0.5749
  481SOL    HW1 1442   0.991   1.230   0.838 -1.4939 -1.1909  0.7356
  481SOL    HW2 1443   0.994   1.158   0.997  0.6377 -1.0830 -1.5586
  482SOL     OW 1444   1.581   0.301   2.038 -0.1548 -0.4958  0.1069
  482SOL    HW1 1445   1.588   0.391   1.991  0.5328 -4.0339 -0.3522
  482SOL    HW2 1446   1.675   0.263   2.059  2.4808 -2.4932  0.8278
  483SOL     OW 1447   0.130   2.330   1.270  0.0155 -0.0682 -0.0783
  483SOL    HW1 1448   0.046   2.305   1.327 -0.1947 -0.5186  0.3165
  483SOL    HW2 1449   0.147   2.435   1.269  3.1872  1.0461 -0.6080
  484SOL     OW 1450   1.758   1.091   1.342 -0.1258 -0.0142  0.0579
  484SOL    HW1 1451   1.823   1.008   1.344 -2.0220  0.2123  0.1134
  484SOL    HW2 1452   1.778   1.160   1.415 -1.9928  0.0402 -1.6679
  485SOL     OW 1453   0.715   1.022   1.803 -0.2012 -0.0446  0.6124
  485SOL    HW1 1454   0.701   1.023   1.701 -0.0378  2.4902 -0.5691
  485SOL    HW2 1455   0.807   1.057   1.834 -1.4110 -0.9847 -2.0204
  486SOL     OW 1456   0.823   1.913   2.435  0.0833  0.6379  0.4648
  486SOL    HW1 1457   0.848   1.888   2.535 -1.0400  0.1904  1.1591
  486SOL    HW2 1458   0.790   2.010   2.437 -0.0675 -2.9553 -1.1848
  487SOL     OW 1459   1.808   1.663   0.957  0.4549  0.5622 -0.3805
  487SOL    HW1 1460   1.886   1.609   0.998  0.0038 -2.1607  1.1261
  487SOL    HW2 1461   1.828   1.679   0.857 -5.0400 -1.2441  0.3062
  488SOL     OW 1462   2.983   0.882   2.208 -0.6441 -0.1205 -0.0485
  488SOL    HW1 1463   2.974   0.781   2.186  0.4271 -0.5544 -0.5846
  488SOL    HW2 1464   2.999   0.897   2.311  0.4173  0.8294  0.0178
  489SOL     OW 1465   2.773   0.309   1.270 -0.0956 -1.0384  0.1998
  489SOL    HW1 1466   2.783   0.329   1.369 -2.0716  0.0217 -4.0147
  489SOL    HW2 1467   2.864   0.275   1.233 -1.4074  0.1951  1.2348
  490SOL     OW 1468   1.527   2.962   2.768 -0.1806 -0.0779 -0.1810
  490SOL    HW1 1469   1.510   2.863   2.798 -1.6224 -0.5368  1.1994
  490SOL    HW2 1470   1.451   3.002   2.709  2.0164  0.5420  0.8213
  491SOL     OW 1471   1.742   1.435   2.627 -0.0050  1.0114  0.2795
  491SOL    HW1 1472   1.674   1.419   2.701 -0.0328 -1.1605  1.7650
  491SOL    HW2 1473   1.833   1.469   2.661 -0.4080 -0.6397 -1.5143
  492SOL     OW 1474   0.556   2.086   0.665 -0.6550 -0.7620  0.2955
  492SOL    HW1 1475   0.600   2.085   0.757 -0.4293  0.2414  2.3207
  492SOL    HW2 1476   0.456   2.122   0.662  0.2467 -0.6330 -1.5445
  493SOL     OW 1477   0.424   1.437   2.016  0.1862 -0.2999  0.1061
  493SOL    HW1 1478   0.333   1.476   2.015 -0.3316  0.3044 -0.0999
  493SOL    HW2 1479   0.428   1.343   2.065  0.0981 -1.6734  0.6107
  494SOL     OW 1480   2.730   2.693   0.154  0.2968 -0.4197 -0.1244
  494SOL    HW1 1481   2.705   2.678   0.253 -1.4363 -1.1976  0.3487
  494SOL    HW2 1482   2.658   2.690   0.085  0.4194  1.3927  2.0746
  495SOL     OW 1483   2.696   2.708   2.745  0.3593 -0.7200  0.5432
  495SOL    HW1 1484   2.669   2.604   2.729 -2.5238  0.4781 -2.6835
  495SOL    HW2 1485   2.711   2.753   2.651 -0.9873 -0.4041  0.9934
  496SOL     OW 1486   2.082   2.225   0.703  0.1082  0.1046 -0.1532
  496SOL    HW1 1487   2.113   2.250   0.796 -0.9705  1.3008  0.4457
  496SOL    HW2 1488   2.100   2.126   0.676  2.2827  0.4802 -2.0216
  497SOL     OW 1489   0.234   2.979   2.408  0.9105  0.0224  0.3390
  497SOL    HW1 1490   0.205   3.065   2.455 -0.7274 -0.7266 -0.4586
  497SOL    HW2 1491   0.279   2.996   2.319  0.0457 -2.4585 -0.5139
  498SOL     OW 1492   1.175   1.350   1.197 -0.0023  0.0514  0.5647
  498SOL    HW1 1493   1.278   1.343   1.208 -0.7473  1.0462  0.1292
  498SOL    HW2 1494   1.135   1.414   1.270  0.9994  1.1692  0.5574
  499SOL     OW 1495   0.667   1.785   0.400  0.3864  0.7672  0.9177
  499SOL    HW1 1496   0.715   1.695   0.413  0.4510  2.9733  1.9121
  499SOL    HW2 1497   0.713   1.866   0.449  3.1528  2.3130  0.5377
  500SOL     OW 1498   1.413   2.841   1.633 -0.1638  0.2318  0.2486
  500SOL    HW1 1499   1.338   2.822   1.707 -3.4719 -2.0089  0.2965
  500SOL    HW2 1500   1.469   2.753   1.635 -3.3823 -0.9956  2.8091
  501SOL     OW 1501   0.793   1.134   2.301 -0.2613  0.5696  0.1454
  501SOL    HW1 1502   0.716   1.080   2.269 -0.0790  1.6914  1.8529
  501SOL    HW2 1503   0.864   1.143   2.221 -1.0894 -0.7263 -0.7778
  502SOL     OW 1504   2.572   0.975   1.722 -0.0842  0.0829  0.4890
  502SOL    HW1 1505   2.585   0.992   1.618  0.1034  1.8970 -1.2105
  502SOL    HW2 1506   2.554   0.872   1.741  2.5158  1.8024 -0.7589
  503SOL     OW 1507   1.333   0.127   0.701 -0.4225  0.0252 -0.0561
  503SOL    HW1 1508   1.266   0.197   0.666  0.9716 -1.8691  0.9719
  503SOL    HW2 1509   1.407   0.174   0.759 -1.3035 -0.1714  2.7841
  504SOL     OW 1510   3.000   2.344   1.479 -0.3083 -0.3423  0.5589
  504SOL    HW1 1511   2.930   2.399   1.530 -2.1996  1.1639 -2.9211
  504SOL    HW2 1512   3.091   2.341   1.521  0.5734  1.0466  0.7932
  505SOL     OW 1513   2.320   1.194   1.431  0.2239 -0.0406  0.2731
  505SOL    HW1 1514   2.311   1.218   1.327 -0.1538 -0.2030  0.1823
  505SOL    HW2 1515   2.417   1.212   1.462 -3.9771 -0.1677 -3.1078
  506SOL     OW 1516   1.955   0.191   1.812  0.1508 -0.5165 -0.0545
  506SOL    HW1 1517   2.021   0.110   1.837  0.9893 -0.1958 -1.0895
  506SOL    HW2 1518   1.967   0.279   1.870 -0.0486 -1.3852 -0.7119
  507SOL     OW 1519   0.522   0.679   2.134  0.1257 -0.3091  0.1177
  507SOL    HW1 1520   0.447   0.650   2.070  0.2756  2.4324 -1.5523
  507SOL    HW2 1521   0.581   0.608   2.162 -2.4125  4.5733 -2.8320
  508SOL     OW 1522   0.301   1.615   0.786  0.1834  0.6236  1.0643
  508SOL    HW1 1523   0.350   1.689   0.732 -1.7451  2.0999  0.2505
  508SOL    HW2 1524   0.245   1.643   0.869 -2.1180 -0.9583  2.6386
  509SOL     OW 1525   1.182   1.263   2.353  0.2177  0.6381 -0.1261
  509SOL    HW1 1526   1.202   1.186   2.277 -0.4622  0.4035  0.3823
  509SOL    HW2 1527   1.101   1.230   2.410 -2.0809 -0.1611  2.1282
  510SOL     OW 1528   1.262   2.068   2.209  0.0399 -0.3357 -0.7058
  510SOL    HW1 1529   1.268   2.142   2.136 -1.0741 -1.6099  0.9793
  510SOL    HW2 1530   1.169   2.066   2.247  1.7253 -0.7133  0.2848
  511SOL     OW 1531   3.020   2.723   1.307  0.5515  0.5487 -0.0693
  511SOL    HW1 1532   3.035   2.677   1.210  0.6128 -0.8793 -3.0368
  511SOL    HW2 1533   2.919   2.732   1.336 -0.5536  0.3155 -1.4356
  512SOL     OW 1534   2.379   0.406   1.381  0.0479 -0.7126 -0.0128
  512SOL    HW1 1535   2.271   0.394   1.386 -1.9812  0.0925  3.5850
  512SOL    HW2 1536   2.411   0.427   1.285  2.1772 -0.7887 -2.0256
  513SOL     OW 1537   2.590   2.086   0.896 -0.0875 -0.5761 -0.5302
  513SOL    HW1 1538   2.552   2.160   0.834  0.9678  0.0046 -1.6240
  513SOL    HW2 1539   2.671   2.038   0.863 -2.5953  0.4606 -0.3655
  514SOL     OW 1540   0.617   2.738   0.457 -0.1369  0.1072 -0.7242
  514SOL    HW1 1541   0.604   2.780   0.365  1.1262 -0.3981 -2.4934
  514SOL    HW2 1542   0.679   2.787   0.525 -0.3833 -0.5228 -1.5471
  515SOL     OW 1543   1.962   1.237   2.373  0.5768 -0.1274  0.0721
  515SOL    HW1 1544   1.945   1.194   2.276 -0.4880 -0.7120 -1.7421
  515SOL    HW2 1545   1.884   1.220   2.447 -4.6415 -2.8931 -0.0995
  516SOL     OW 1546   0.251   0.249   1.902 -0.8806  0.5063 -0.5937
  516SOL    HW1 1547   0.344   0.209   1.866  3.1337  0.5238  0.3970
  516SOL    HW2 1548   0.167   0.189   1.894 -0.9585  0.6614 -1.2520
  517SOL     OW 1549   0.396   0.017   1.119 -0.0727 -0.1973 -0.4225
  517SOL    HW1 1550   0.400   0.120   1.145 -1.9448 -1.0165  0.8388
  517SOL    HW2 1551   0.298  -0.021   1.097 -0.9374 -0.7152  4.3381
  518SOL     OW 1552   2.177   3.043   1.820  0.2262  0.3332  0.6298
  518SOL    HW1 1553   2.254   3.115   1.824 -0.7024 -1.7880 -0.3597
  518SOL    HW2 1554   2.188   2.981   1.737 -2.6287  0.5046  0.8127
  519SOL     OW 1555   2.372   2.142   2.500 -0.9724  0.3642  0.3861
  519SOL    HW1 1556   2.318   2.129   2.585 -1.5102  2.0449 -0.4680
  519SOL    HW2 1557   2.389   2.245   2.487 -1.2501  0.2062  0.2260
  520SOL     OW 1558   1.837   2.741   1.787 -0.7507  0.0965 -0.2053
  520SOL    HW1 1559   1.758   2.721   1.847  1.2275  0.2270  2.2974
  520SOL    HW2 1560   1.878   2.659   1.735 -0.6210 -0.0186  0.6489
  521SOL     OW 1561   0.572   3.055   2.049  0.3825 -0.0583  0.1384
  521SOL    HW1 1562   0.470   3.070   2.067 -1.1155  1.8320 -0.9545
  521SOL    HW2 1563   0.617   3.046   2.143  0.6820  1.4817 -0.7231
  522SOL     OW 1564   0.242   1.875   1.467 -0.0269  0.0628  0.0545
  522SOL    HW1 1565   0.278   1.931   1.545 -0.9084  0.1053 -0.5935
  522SOL    HW2 1566   0.187   1.932   1.400  0.0400 -1.3959 -2.4923
  523SOL     OW 1567   2.216   2.941   1.548  0.1703  0.1726  0.1617
  523SOL    HW1 1568   2.292   2.885   1.584 -2.0483  0.9308  1.8387
  523SOL    HW2 1569   2.148   2.897   1.488  2.3217  2.4394  0.8952
  524SOL     OW 1570   0.176   2.791   2.811 -0.3018  0.4031 -0.0024
  524SOL    HW1 1571   0.114   2.856   2.856  2.8934 -0.9963 -0.7225
  524SOL    HW2 1572   0.275   2.818   2.812 -1.8324 -2.1038 -0.3630
  525SOL     OW 1573   2.167   2.033   0.385  0.3210 -0.0463 -0.0825
  525SOL    HW1 1574   2.180   1.964   0.464 -1.0140 -1.8127  1.2601
  525SOL    HW2 1575   2.181   1.994   0.293 -0.8927  3.3106 -0.2503
  526SOL     OW 1576   0.467   1.493   1.652 -0.7626  0.7995  0.1462
  526SOL    HW1 1577   0.532   1.536   1.721  0.9537 -2.1647 -1.3367
  526SOL    HW2 1578   0.496   1.405   1.607  0.2574  2.0068 -3.7624
  527SOL     OW 1579   1.018   2.873   1.237 -0.0520  0.4305  0.3779
  527SOL    HW1 1580   1.107   2.818   1.238  2.2757  0.8934 -2.4034
  527SOL    HW2 1581   1.038   2.972   1.216  1.7340  1.3592  0.3619
  528SOL     OW 1582   1.365   2.369   0.543  0.4965  0.3670  0.0528
  528SOL    HW1 1583   1.410   2.276   0.542  3.3397 -0.8273 -0.6706
  528SOL    HW2 1584   1.420   2.442   0.592  0.4435  1.1380 -1.5019
  529SOL     OW 1585   1.970   1.753   0.724  0.4007 -0.6687  0.3596
  529SOL    HW1 1586   1.911   1.740   0.639 -3.6843  0.5007  0.5007
  529SOL    HW2 1587   1.981   1.849   0.766  0.1833 -0.9068 -2.0817
  530SOL     OW 1588   0.323   2.621   0.261  0.1541  0.0953  0.3633
  530SOL    HW1 1589   0.318   2.703   0.321 -0.5842 -1.3270  0.7523
  530SOL    HW2 1590   0.369   2.534   0.296 -3.0015 -2.3183 -1.0232
  531SOL     OW 1591   1.828   1.019   1.025  0.3130 -0.3947 -0.2369
  531SOL    HW1 1592   1.867   1.095   0.964 -0.5384  2.1549  0.0644
  531SOL    HW2 1593   1.738   0.984   0.988 -0.2542  1.6614 -4.7734
  532SOL     OW 1594   0.380   1.192   0.682 -0.2527 -0.3206  0.3069
  532SOL    HW1 1595   0.413   1.181   0.589 -1.0955 -1.4175  0.9718
  532SOL    HW2 1596   0.339   1.103   0.711  1.5738  0.5102 -0.8299
  533SOL     OW 1597   1.768   0.025   2.573 -0.8429 -0.6036 -0.1749
  533SOL    HW1 1598   1.873   0.006   2.577  1.9029 -0.6556  2.1565
  533SOL    HW2 1599   1.728   0.056   2.665 -1.3304  1.9210  2.3843
  534SOL     OW 1600   0.325   0.176   1.583  0.3508  0.6485  1.0306
  534SOL    HW1 1601   0.420   0.191   1.551 -2.1890 -0.1631 -0.8498
  534SOL    HW2 1602   0.279   0.260   1.620  2.4828 -1.3601 -0.5577
  535SOL     OW 1603   1.915   0.418   0.236 -0.4062 -0.2638 -0.5357
  535SOL    HW1 1604   1.947   0.506   0.283  0.9923  1.5416  0.8067
  535SOL    HW2 1605   1.836   0.379   0.283  0.6547 -2.1479 -0.4477
  536SOL     OW 1606   1.420   2.563   0.974  0.6033 -0.2881  0.0376
  536SOL    HW1 1607   1.391   2.531   1.068  0.6266 -0.5701  1.3207
  536SOL    HW2 1608   1.336   2.598   0.922  2.1849  1.7125 -0.6447
  537SOL     OW 1609   0.819   0.185   2.322 -0.3393  0.4419  0.0107
  537SOL    HW1 1610   0.777   0.195   2.227  0.7609  1.8696  0.0787
  537SOL    HW2 1611   0.752   0.131   2.380 -0.4548 -1.3284 -1.7593
  538SOL     OW 1612   1.699   2.355   1.520 -0.4102  0.6637  0.3261
  538SOL    HW1 1613   1.666   2.261   1.494 -0.2688 -0.0033 -0.5504
  538SOL    HW2 1614   1.767   2.382   1.450  0.7877 -3.9627 -1.6566
  539SOL     OW 1615   0.196   1.554   2.712  0.2967 -0.0703  0.2975
  539SOL    HW1 1616   0.161   1.571   2.617  0.2703 -0.5755  2.1181
  539SOL    HW2 1617   0.190   1.638   2.771  0.7075 -2.0904 -0.2316
  540SOL     OW 1618   2.732   1.686   1.988 -0.1179 -0.1459 -0.3208
  540SOL    HW1 1619   2.723   1.616   2.062  1.7568  1.3206 -0.2706
  540SOL    HW2 1620   2.648   1.741   1.980 -1.5544 -2.4128  3.1967
  541SOL     OW 1621   0.457   2.295   3.085  0.0860 -0.1680  0.3640
  541SOL    HW1 1622   0.493   2.261   3.180 -2.9752 -3.0342  2.7527
  541SOL    HW2 1623   0.356   2.270   3.068  2.1509 -0.5903  1.6345
  542SOL     OW 1624   2.266   2.563   0.399  0.0383 -0.3329  0.3186
  542SOL    HW1 1625   2.247   2.665   0.401  1.4145  0.4213  1.2140
  542SOL    HW2 1626   2.181   2.507   0.423  0.6581 -1.4042 -0.0677
  543SOL     OW 1627   1.086   1.768   1.652 -0.5483  0.5940 -0.3442
  543SOL    HW1 1628   1.053   1.796   1.749 -2.4477  1.1118  0.8337
  543SOL    HW2 1629   1.032   1.809   1.578  0.9336  0.3805 -0.8487
  544SOL     OW 1630   1.026   0.404   0.213  0.2453 -0.2338 -0.0169
  544SOL    HW1 1631   1.039   0.297   0.233 -1.1324 -4.0696 -2.2459
  544SOL    HW2 1632   1.024   0.435   0.111 -0.6710  0.8914 -2.7941
  545SOL     OW 1633   1.103   1.812   0.817  0.3194  0.2375 -0.5747
  545SOL    HW1 1634   1.207   1.817   0.816 -0.3924  2.6946 -0.1637
  545SOL    HW2 1635   1.074   1.731   0.872  3.3034  1.0652 -1.1534
  546SOL     OW 1636   2.635   1.514   0.014 -0.3936 -0.6162  0.9277
  546SOL    HW1 1637   2.580   1.539  -0.066  0.4060  0.2311  1.6650
  546SOL    HW2 1638   2.570   1.507   0.097 -1.7106  1.0708 -2.1922
  547SOL     OW 1639   0.553   3.086   2.689 -0.0346 -0.2645  0.0893
  547SOL    HW1 1640   0.645   3.063   2.649 -1.6564  0.6009  0.7131
  547SOL    HW2 1641   0.516   3.006   2.733  1.8789  0.5913 -2.6873
  548SOL     OW 1642   2.103   0.837   2.984  0.2456  0.0307 -0.7291
  548SOL    HW1 1643   2.002   0.821   2.972 -0.5355  0.3066 -0.2288
  548SOL    HW2 1644   2.122   0.926   3.041 -0.6115  2.5342  0.6648
  549SOL     OW 1645   0.691   0.518   0.215  0.1218  0.0097 -0.1397
  549SOL    HW1 1646   0.640   0.543   0.132  2.2397  0.6921  0.8275
  549SOL    HW2 1647   0.773   0.579   0.247  1.8591 -0.3805  2.0652
  550SOL     OW 1648   2.485   2.841   2.900  0.6444  0.0893  0.1990
  550SOL    HW1 1649   2.452   2.788   2.985  0.3261 -2.1839  2.9689
  550SOL    HW2 1650   2.539   2.784   2.832  2.0991  0.5756 -0.3046
  551SOL     OW 1651   0.257   0.925   0.212 -0.3645  0.3753 -0.0755
  551SOL    HW1 1652   0.355   0.911   0.174  0.2346 -0.8319  2.1669
  551SOL    HW2 1653   0.249   0.908   0.314  0.4829  3.3880 -0.8703
  552SOL     OW 1654   0.724   2.976   1.845 -0.1973 -0.0177  0.5312
  552SOL    HW1 1655   0.669   3.017   1.924  1.6044  1.6374  0.1774
  552SOL    HW2 1656   0.824   3.007   1.842 -5.0440  1.1453 -4.0593
  553SOL     OW 1657   3.004   2.548   0.325 -0.2252 -0.2248  0.0393
  553SOL    HW1 1658   2.972   2.449   0.319  0.0122  0.3806  0.8418
  553SOL    HW2 1659   2.942   2.610   0.386  1.2616 -0.7106 -0.3427
  554SOL     OW 1660   2.140   0.351   0.592  0.3065 -0.3598  0.0720
  554SOL    HW1 1661   2.207   0.352   0.512  0.8082 -0.2677 -0.9834
  554SOL    HW2 1662   2.172   0.293   0.672 -1.8838 -0.8728  1.1870
  555SOL     OW 1663   0.399   2.780   2.527 -0.3091 -0.3066 -0.2924
  555SOL    HW1 1664   0.331   2.857   2.497 -3.6536  0.1434 -0.3138
  555SOL    HW2 1665   0.458   2.751   2.450 -2.0218 -0.3568  1.1228
  556SOL     OW 1666   0.801   2.399   1.508  0.6512 -0.4776 -0.1126
  556SOL    HW1 1667   0.853   2.479   1.551  4.7188 -0.6954 -1.2649
  556SOL    HW2 1668   0.858   2.345   1.443  0.1373  1.0148  0.7298
  557SOL     OW 1669   0.102   2.066   0.152 -0.4353  0.0466  0.6627
  557SOL    HW1 1670   0.049   1.994   0.100  1.9151 -0.2597  0.6421
  557SOL    HW2 1671   0.171   2.120   0.095 -1.2693 -0.7901 -1.2476
  558SOL     OW 1672   2.925   2.283   0.282 -0.4350 -0.2911 -0.2647
  558SOL    HW1 1673   2.825   2.262   0.304 -0.0095 -0.3586  1.8810
  558SOL    HW2 1674   2.972   2.206   0.234  2.0871  0.3454  3.4511
  559SOL     OW 1675   0.402   2.296   1.380 -0.0285  0.0228  0.8453
  559SOL    HW1 1676   0.306   2.295   1.348  0.3007  0.6522 -0.0903
  559SOL    HW2 1677   0.457   2.235   1.315 -5.1860 -0.1160  0.7304
  560SOL     OW 1678   2.095   1.151   3.075  0.0818  0.1529 -0.0379
  560SOL    HW1 1679   2.007   1.162   3.128  0.7595 -1.4982  1.6796
  560SOL    HW2 1680   2.153   1.233   3.069 -1.0286  0.3927  0.1870
  561SOL     OW 1681   3.026   1.863   0.012  0.5765 -0.6757  0.1523
  561SOL    HW1 1682   2.985   1.787   0.074 -0.8639  0.0387  0.5985
  561SOL    HW2 1683   2.962   1.949   0.007  2.4876  1.1058 -0.2028
  562SOL     OW 1684   1.025   2.276   2.329 -0.5872  0.3039 -0.0571
  562SOL    HW1 1685   0.967   2.196   2.351 -1.9684 -4.7777  2.9613
  562SOL    HW2 1686   0.986   2.359   2.377  0.2018  0.3527  1.0444
  563SOL     OW 1687   0.709   2.562   2.634 -0.2967  0.3772  0.2641
  563SOL    HW1 1688   0.790   2.498   2.628  0.5973 -0.0069 -1.2485
  563SOL    HW2 1689   0.694   2.596   2.727  0.9105 -0.5018 -0.5453
  564SOL     OW 1690   2.764   1.310   2.947  0.7720 -0.5270 -0.3811
  564SOL    HW1 1691   2.710   1.334   3.033  0.9504  2.7873 -3.1963
  564SOL    HW2 1692   2.786   1.393   2.892  1.0978  0.1966 -1.2748
  565SOL     OW 1693   2.554   1.972   2.623 -0.0478 -0.5312  0.7284
  565SOL    HW1 1694   2.493   2.043   2.573  1.0235  0.8485 -0.3645
  565SOL    HW2 1695   2.630   2.024   2.669 -0.0203 -0.1500 -1.0864
  566SOL     OW 1696   2.040   2.811   1.390  0.7049 -0.1970 -0.3413
  566SOL    HW1 1697   1.985   2.726   1.388  1.3672 -1.2523 -0.9312
  566SOL    HW2 1698   2.040   2.853   1.294  0.5612  0.2058  1.1350
  567SOL     OW 1699   2.465   0.078   2.296  0.0484 -0.5835  0.9355
  567SOL    HW1 1700   2.524   0.162   2.316 -4.1589  0.1257  2.0496
  567SOL    HW2 1701   2.471   0.043   2.201 -0.6493 -0.7058  1.0425
  568SOL     OW 1702   1.511   1.795   0.300 -0.2202 -0.0388 -0.3599
  568SOL    HW1 1703   1.437   1.851   0.254  0.9613 -1.2476 -1.4843
  568SOL    HW2 1704   1.606   1.802   0.259 -0.7225  1.6341  1.6889
  569SOL     OW 1705   0.261   0.679   0.777 -0.1428  0.4338  0.1842
  569SOL    HW1 1706   0.340   0.628   0.737 -2.1234 -1.7526 -2.2897
  569SOL    HW2 1707   0.173   0.621   0.784 -0.7147 -0.7844 -1.7573
  570SOL     OW 1708   0.585   0.873   2.876 -0.0867  0.6335  0.4765
  570SOL    HW1 1709   0.634   0.865   2.784 -0.2265 -1.0458 -1.0931
  570SOL    HW2 1710   0.626   0.943   2.947 -1.4860  0.3133  2.3127
  571SOL     OW 1711   0.765   3.072   1.003 -0.4863 -0.3116 -0.1905
  571SOL    HW1 1712   0.834   3.065   0.929  0.7403  0.6451 -0.5911
  571SOL    HW2 1713   0.689   3.007   0.991  2.7150 -0.5591  0.3231
  572SOL     OW 1714   1.584   2.628   1.302  0.5051 -0.0605  0.6324
  572SOL    HW1 1715   1.505   2.586   1.245 -0.6076  0.9524 -0.7284
  572SOL    HW2 1716   1.591   2.731   1.301  1.1242  2.3824 -0.2826
  573SOL     OW 1717   2.887   0.469   2.058 -0.1560  0.0130 -0.2994
  573SOL    HW1 1718   2.835   0.387   2.015 -1.4545  0.8474 -0.6177
  573SOL    HW2 1719   2.834   0.556   2.046 -2.1325  2.2252 -1.3095
  574SOL     OW 1720   0.194   1.699   1.026 -0.2110  0.0329 -0.2138
  574SOL    HW1 1721   0.170   1.796   1.000 -0.5313  0.0531  0.7179
  574SOL    HW2 1722   0.117   1.646   1.068  2.5588 -1.0815 -1.1990
  575SOL     OW 1723   0.887   2.153   0.955 -0.6809  0.0306 -0.0321
  575SOL    HW1 1724   0.839   2.201   1.036 -2.3242  2.0154 -0.3933
  575SOL    HW2 1725   0.937   2.215   0.889 -1.5902 -0.7941 -1.5422
  576SOL     OW 1726   2.916   3.027   1.708  0.9591  0.4497  0.1581
  576SOL    HW1 1727   2.827   2.985   1.677  1.4162  0.4707  1.1137
  576SOL    HW2 1728   2.925   3.129   1.686  2.5412  0.8868  0.7367
  577SOL     OW 1729   2.493   1.235   0.021 -0.0890 -0.1457  0.0527
  577SOL    HW1 1730   2.525   1.165  -0.051 -3.2612 -4.5361 -0.5604
  577SOL    HW2 1731   2.567   1.241   0.094 -2.4505  1.8354  0.6961
  578SOL     OW 1732   1.363   2.763   2.448  0.6373 -0.6082 -0.3225
  578SOL    HW1 1733   1.275   2.816   2.458 -0.5972  1.9647 -1.4334
  578SOL    HW2 1734   1.444   2.827   2.450  0.9643  0.3143  0.4483
  579SOL     OW 1735   0.089   2.519   0.130  0.1730 -0.1213  0.0856
  579SOL    HW1 1736   0.020   2.529   0.205 -1.9199  0.3515 -2.1180
  579SOL    HW2 1737   0.181   2.561   0.151 -0.1770  3.0666  2.1714
  580SOL     OW 1738   1.005   2.667   0.414 -1.2556  0.4734  0.0104
  580SOL    HW1 1739   1.097   2.686   0.366  1.9546  1.5399 -1.8160
  580SOL    HW2 1740   0.945   2.609   0.350 -0.3011  1.6616  1.2684
  581SOL     OW 1741   1.278   2.632   1.490  0.3587  0.2173  0.0412
  581SOL    HW1 1742   1.310   2.533   1.488 -0.6755 -1.3379 -1.9731
  581SOL    HW2 1743   1.354   2.698   1.500  0.2626  2.3650 -0.6494
  582SOL     OW 1744   1.504   0.090   1.864  0.1731 -0.0567  0.2295
  582SOL    HW1 1745   1.510   0.167   1.933  2.3571  1.5281 -1.4537
  582SOL    HW2 1746   1.588   0.086   1.801 -2.2077 -1.1945 -0.9308
  583SOL     OW 1747   2.482   3.085   0.539 -0.5291 -0.0973  0.7195
  583SOL    HW1 1748   2.566   3.045   0.489  1.1505 -2.4148  1.7429
  583SOL    HW2 1749   2.428   3.010   0.584  2.6160 -0.5467 -0.6482
  584SOL     OW 1750   1.581   0.900   2.097 -0.0383  0.2735  0.2448
  584SOL    HW1 1751   1.605   0.999   2.076  1.7257  1.3271 -0.1044
  584SOL    HW2 1752   1.632   0.861   2.173 -0.2596  2.9670  2.0526
  585SOL     OW 1753   2.111   2.656   2.891  0.1040 -0.0003  0.1099
  585SOL    HW1 1754   2.109   2.557   2.873 -2.7048  1.9455  1.9580
  585SOL    HW2 1755   2.016   2.696   2.918 -0.0338  1.5662  0.7813
  586SOL     OW 1756   2.840   0.390   1.535  0.1980 -0.0962  0.2240
  586SOL    HW1 1757   2.820   0.480   1.583 -2.5522  1.0888 -0.5627
  586SOL    HW2 1758   2.772   0.317   1.544  3.0666  0.4318 -0.8422
  587SOL     OW 1759   1.987   1.552   2.681  0.1306 -0.1827 -0.6083
  587SOL    HW1 1760   2.053   1.493   2.623  2.4258  0.3695  1.8550
  587SOL    HW2 1761   2.021   1.541   2.781 -0.1898 -3.1569 -2.2927
  588SOL     OW 1762   0.460   2.700   2.265 -0.2088 -0.3240  0.4202
  588SOL    HW1 1763   0.362   2.686   2.231 -2.6083 -1.2944  1.0063
  588SOL    HW2 1764   0.508   2.616   2.299  1.2229  0.1716 -0.6253
  589SOL     OW 1765   2.145   1.400   2.518 -0.0943 -0.4853 -0.2119
  589SOL    HW1 1766   2.091   1.328   2.467  2.6479 -0.6255  0.5480
  589SOL    HW2 1767   2.245   1.373   2.522 -0.1740 -2.6359  2.0864
  590SOL     OW 1768   2.346   1.673   2.036  0.3061  0.1296  0.3093
  590SOL    HW1 1769   2.420   1.601   2.019 -0.4559  0.5942  0.6842
  590SOL    HW2 1770   2.344   1.721   2.130  0.2155 -2.4638  0.2900
  591SOL     OW 1771   1.301   2.388   0.262 -0.3797  0.6230 -0.0737
  591SOL    HW1 1772   1.318   2.294   0.222 -0.7203  0.2666 -1.0225
  591SOL    HW2 1773   1.337   2.394   0.358 -3.0647 -0.8515 -1.3957
  592SOL     OW 1774   1.806   2.281   0.722 -0.2912 -0.5100 -0.0898
  592SOL    HW1 1775   1.780   2.355   0.652  2.3929  2.6266 -0.1406
  592SOL    HW2 1776   1.901   2.246   0.709 -0.4061 -0.6845  2.6248
  593SOL     OW 1777   0.696   0.226   0.258 -0.5318 -0.3672  0.4397
  593SOL    HW1 1778   0.751   0.200   0.173 -0.7379 -0.0726 -1.9977
  593SOL    HW2 1779   0.710   0.325   0.277  2.9744 -1.7040  1.6789
  594SOL     OW 1780   0.971   1.883   2.710  0.5422  0.1215  0.0723
  594SOL    HW1 1781   1.072   1.867   2.721  2.6343  0.8469 -1.6028
  594SOL    HW2 1782   0.937   1.980   2.735 -0.0941  1.4870  0.3854
  595SOL     OW 1783   1.553   0.071   1.080  0.0131 -0.1634  0.3610
  595SOL    HW1 1784   1.594  -0.007   1.136 -1.1331  1.9140  1.9888
  595SOL    HW2 1785   1.466   0.042   1.028 -1.5768 -2.6666  0.9076
  596SOL     OW 1786   3.087   1.436   2.253 -0.8638  0.3714  0.1853
  596SOL    HW1 1787   3.082   1.331   2.255 -2.7196 -1.4866  1.5251
  596SOL    HW2 1788   3.131   1.487   2.334 -0.9191 -0.2964  1.2742
  597SOL     OW 1789   1.995   2.550   1.653  0.3247  0.1551  0.6997
  597SOL    HW1 1790   2.058   2.506   1.585 -1.7603  1.8568  0.7680
  597SOL    HW2 1791   2.047   2.573   1.743 -5.3349 -0.0372  1.4410
  598SOL     OW 1792   2.514   2.960   1.241  0.2089 -0.0133 -0.8050
  598SOL    HW1 1793   2.596   2.992   1.300  0.0604  0.7561 -0.1719
  598SOL    HW2 1794   2.537   2.934   1.145 -2.9213 -0.1202 -0.2771
  599SOL     OW 1795   2.928   0.326   2.494 -0.1628  0.1841  0.2195
  599SOL    HW1 1796   3.021   0.370   2.476  1.6004 -1.4913 -3.1165
  599SOL    HW2 1797   2.852   0.403   2.486  0.0735  2.8347 -0.9606
  600SOL     OW 1798   2.814   1.110   2.759  0.0856 -0.9561 -0.7805
  600SOL    HW1 1799   2.783   1.013   2.788 -1.3098 -0.2967  1.7443
  600SOL    HW2 1800   2.779   1.192   2.818  3.4613  1.0050  0.6990
  601SOL     OW 1801   2.976   1.304   1.974 -0.1779  0.3097 -0.1753
  601SOL    HW1 1802   2.905   1.343   1.906 -0.0427 -1.3173  0.2957
  601SOL    HW2 1803   3.067   1.355   1.970  2.6198 -1.5093  1.9822
  602SOL     OW 1804   1.471   1.738   2.361  0.9598 -0.3538 -0.3000
  602SOL    HW1 1805   1.403   1.662   2.344 -0.1774 -0.1564 -1.6685
  602SOL    HW2 1806   1.557   1.702   2.396 -2.3252 -2.2022 -1.6861
  603SOL     OW 1807   0.591   1.207   2.721 -0.1476  0.0731 -0.0249
  603SOL    HW1 1808   0.496   1.193   2.674  0.3710  0.1492 -1.0058
  603SOL    HW2 1809   0.667   1.143   2.690  0.4076  0.4418  0.9235
  604SOL     OW 1810   2.394   1.020   0.152  0.0499  0.1228  0.0974
  604SOL    HW1 1811   2.421   1.113   0.115  1.9090  1.0166 -2.3055
  604SOL    HW2 1812   2.427   0.942   0.083  0.0482 -3.0507  0.5735
  605SOL     OW 1813   2.533   1.137   1.945 -0.1377  0.1288 -0.0865
  605SOL    HW1 1814   2.573   1.068   1.882  1.7925 -2.4116  1.1601
  605SOL    HW2 1815   2.605   1.194   1.990 -2.5214 -0.8088 -2.1841
  606SOL     OW 1816   1.501   2.526   2.551  0.6975  0.0584 -0.7637
  606SOL    HW1 1817   1.438   2.571   2.476 -2.5381 -0.8401 -0.7998
  606SOL    HW2 1818   1.477   2.424   2.555  2.0706 -0.9782 -0.8677
  607SOL     OW 1819   1.333   1.580   0.320 -0.5800 -0.1487  0.0093
  607SOL    HW1 1820   1.275   1.633   0.388  1.9514 -2.3477  0.6329
  607SOL    HW2 1821   1.411   1.644   0.287 -0.1122  0.4298 -1.6812
  608SOL     OW 1822   1.430   2.859   0.341  0.0670 -0.6463  0.1533
  608SOL    HW1 1823   1.508   2.910   0.289  1.6312 -1.6492  1.8817
  608SOL    HW2 1824   1.383   2.920   0.412  1.1360  1.2451  0.0382
  609SOL     OW 1825   1.275   1.342   0.190 -0.3044  0.0567 -0.2638
  609SOL    HW1 1826   1.283   1.432   0.249 -2.0454 -2.2042 -1.4464
  609SOL    HW2 1827   1.253   1.369   0.096 -0.7447 -0.4326  2.7860
  610SOL     OW 1828   3.009   1.158   2.212 -0.2107  0.1803  0.3502
  610SOL    HW1 1829   3.014   1.056   2.191 -0.5430  1.1406  1.0737
  610SOL    HW2 1830   2.999   1.217   2.126 -1.0938  0.3198  0.8640
  611SOL     OW 1831   2.540   0.297   1.126  0.1926  0.1946  0.2489
  611SOL    HW1 1832   2.468   0.227   1.160 -0.3610 -0.3378  1.5611
  611SOL    HW2 1833   2.630   0.288   1.178  0.2028  0.3178 -1.4450
  612SOL     OW 1834   0.753   2.279   1.163  0.3037 -0.0275 -0.4324
  612SOL    HW1 1835   0.680   2.221   1.202  0.8827 -1.2709 -2.4929
  612SOL    HW2 1836   0.734   2.384   1.162 -0.7578  1.9917  3.9396
  613SOL     OW 1837   0.827   1.373   2.423  0.2770  0.2019 -0.0119
  613SOL    HW1 1838   0.819   1.435   2.339  0.0851  1.3856  4.0022
  613SOL    HW2 1839   0.791   1.277   2.403 -0.8577  1.0359 -2.0441
  614SOL     OW 1840   1.547   1.635   1.990  0.0431  0.6884 -0.2337
  614SOL    HW1 1841   1.511   1.730   2.020  1.6615  1.7365  0.9448
  614SOL    HW2 1842   1.635   1.610   2.038  1.3225  3.0109  1.0347
  615SOL     OW 1843   0.778   1.362   1.740  0.3488  0.3212  0.3221
  615SOL    HW1 1844   0.720   1.300   1.677  2.8667 -1.0211 -0.7741
  615SOL    HW2 1845   0.819   1.431   1.680 -0.6978 -3.1434 -0.7345
  616SOL     OW 1846   1.008   1.626   2.160  0.3846 -0.3372 -0.1734
  616SOL    HW1 1847   0.913   1.583   2.175 -1.5803 -1.4474  0.4079
  616SOL    HW2 1848   1.001   1.723   2.121 -2.2147  0.1245 -3.7894
  617SOL     OW 1849   2.959   1.554   1.642  0.3218 -0.3637 -0.1189
  617SOL    HW1 1850   2.914   1.473   1.691 -2.0246 -1.6702  0.9948
  617SOL    HW2 1851   2.985   1.527   1.543  1.8116  0.9384  1.6129
  618SOL     OW 1852   1.897   1.977   1.456  0.4753 -0.4988  0.0853
  618SOL    HW1 1853   1.909   1.938   1.360  1.3216 -1.3609  0.3058
  618SOL    HW2 1854   1.872   1.909   1.533  1.1507 -0.9311  3.8819
  619SOL     OW 1855   1.764   0.488   2.428 -0.4778  0.7365  0.2653
  619SOL    HW1 1856   1.680   0.531   2.382  0.6134  0.0340 -1.6112
  619SOL    HW2 1857   1.742   0.386   2.439  1.6547  0.2378  1.8649
  620SOL     OW 1858   2.237   2.974   0.639  0.1738 -0.4297  0.5346
  620SOL    HW1 1859   2.155   3.026   0.678 -2.7926  3.2818  1.7302
  620SOL    HW2 1860   2.275   2.905   0.703 -0.7009  0.8108 -0.9246
  621SOL     OW 1861   2.165   1.830   1.300 -0.3945  0.2732 -0.4831
  621SOL    HW1 1862   2.172   1.843   1.407 -0.8562 -1.2162  0.9902
  621SOL    HW2 1863   2.115   1.743   1.280  3.1320  1.0196  1.8801
  622SOL     OW 1864   2.241   0.927   1.813 -0.3477  0.0110  0.0813
  622SOL    HW1 1865   2.337   0.961   1.832  0.4683 -1.4459 -0.0021
  622SOL    HW2 1866   2.243   0.823   1.832  1.9071 -1.5690 -3.6295
  623SOL     OW 1867   1.331   0.840   2.646 -0.1551 -0.2324  0.0430
  623SOL    HW1 1868   1.286   0.785   2.721 -0.1637  0.6132  0.6102
  623SOL    HW2 1869   1.276   0.862   2.561  0.5120  1.4510  0.4583
  624SOL     OW 1870   0.592   0.664   3.070 -0.2538 -0.6862 -0.2700
  624SOL    HW1 1871   0.597   0.726   2.985 -0.3151 -1.9758 -0.3758
  624SOL    HW2 1872   0.579   0.721   3.156  2.2091  2.4337  1.2357
  625SOL     OW 1873   2.838   1.699   0.952  0.5427  0.2254 -0.2645
  625SOL    HW1 1874   2.746   1.743   0.925  0.5816  0.0245  0.5441
  625SOL    HW2 1875   2.910   1.768   0.971 -1.0687  0.8910  1.5515
  626SOL     OW 1876   0.593   2.745   1.806 -0.1244 -0.5173  0.4283
  626SOL    HW1 1877   0.636   2.828   1.852  0.9679  0.2786  1.7326
  626SOL    HW2 1878   0.495   2.731   1.832 -1.1465 -1.0351  0.7148
  627SOL     OW 1879   0.740   1.018   1.531 -0.3970 -0.0826  0.4036
  627SOL    HW1 1880   0.768   0.918   1.511 -0.7646 -0.0290 -1.7568
  627SOL    HW2 1881   0.819   1.084   1.513 -2.3014  3.5102  1.8010
  628SOL     OW 1882   2.385   0.159   0.722  0.5404  0.3059  0.2019
  628SOL    HW1 1883   2.429   0.095   0.652 -1.4620  0.0252  1.1113
  628SOL    HW2 1884   2.293   0.114   0.741 -0.0938 -5.1303  0.5248
  629SOL     OW 1885   1.969   0.890   1.969  0.2785 -0.0989 -0.1796
  629SOL    HW1 1886   2.051   0.901   1.908  1.9769  0.6338  1.7515
  629SOL    HW2 1887   1.939   0.984   2.001 -1.4191  2.7184 -1.7012
  630SOL     OW 1888   2.903   2.234   0.847 -0.7525 -0.8385  0.1379
  630SOL    HW1 1889   2.828   2.309   0.848 -1.0677  0.6444  1.9999
  630SOL    HW2 1890   2.883   2.144   0.798 -0.6163 -2.4672 -1.3152
  631SOL     OW 1891   2.954   0.148   2.124 -0.3871  0.2874  0.2544
  631SOL    HW1 1892   3.026   0.185   2.191 -1.7258  1.5517 -2.0248
  631SOL    HW2 1893   2.994   0.139   2.033 -1.0275  2.5295  0.3746
  632SOL     OW 1894   2.402   2.512   0.649  0.8404 -0.4791 -0.3108
  632SOL    HW1 1895   2.355   2.591   0.698 -0.0246 -0.9960 -1.6112
  632SOL    HW2 1896   2.394   2.526   0.546  0.6261 -0.8861  3.4027
  633SOL     OW 1897   1.417   1.214   2.548 -0.2194  0.1000 -0.4360
  633SOL    HW1 1898   1.427   1.307   2.588 -0.2087 -1.4584 -0.3230
  633SOL    HW2 1899   1.330   1.218   2.489  1.3461  2.1214 -0.7446
  634SOL     OW 1900   0.714   1.958   0.889 -0.5934 -0.3780  0.7318
  634SOL    HW1 1901   0.621   1.979   0.929 -0.4120 -0.3113  2.3313
  634SOL    HW2 1902   0.787   2.029   0.916  1.0174 -1.2759 -0.7915
  635SOL     OW 1903   3.032   2.323   3.099  0.5802 -0.1757 -0.2135
  635SOL    HW1 1904   2.951   2.374   3.062  0.0045 -0.8425  1.9607
  635SOL    HW2 1905   3.096   2.391   3.146 -1.2698 -2.1405  1.5576
  636SOL     OW 1906   2.258   2.720   2.080 -0.6084 -0.1262 -0.0656
  636SOL    HW1 1907   2.269   2.826   2.089  0.0527  1.5831  0.7310
  636SOL    HW2 1908   2.226   2.676   2.167  4.3604  2.1857 -1.7228
  637SOL     OW 1909   2.639   0.701   2.059  0.1507  0.7276  0.1792
  637SOL    HW1 1910   2.587   0.699   1.967  0.7733  1.0432 -1.1675
  637SOL    HW2 1911   2.677   0.791   2.084 -1.3805 -1.0557  1.6161
  638SOL     OW 1912   2.433   1.781   1.258 -0.0129 -0.1170  0.0329
  638SOL    HW1 1913   2.333   1.805   1.284 -0.2793  0.0637  1.8074
  638SOL    HW2 1914   2.484   1.737   1.336  1.4989  1.4647 -0.9474
  639SOL     OW 1915   1.290   2.172   1.723 -0.1619 -0.0587 -0.0055
  639SOL    HW1 1916   1.332   2.105   1.652  2.5396 -0.0526 -0.8708
  639SOL    HW2 1917   1.186   2.167   1.732  0.2241  0.3742 -2.7813
  640SOL     OW 1918   0.200   1.157   1.589  0.6361 -0.4063  0.1580
  640SOL    HW1 1919   0.174   1.200   1.684 -1.5729 -0.1101  0.8541
  640SOL    HW2 1920   0.289   1.101   1.588 -0.3954 -0.4732 -1.9786
  641SOL     OW 1921   2.043   0.178   1.549  0.0404 -0.1617  0.1938
  641SOL    HW1 1922   2.011   0.164   1.648 -1.2132  2.4571  0.4888
  641SOL    HW2 1923   2.105   0.103   1.522 -1.1822 -2.9934  0.2716
  642SOL     OW 1924   1.988   0.085   0.305 -0.1562  0.4960 -0.3947
  642SOL    HW1 1925   2.073   0.115   0.353  1.2487  1.2701  1.5603
  642SOL    HW2 1926   1.905   0.077   0.368 -3.2237 -0.2040 -2.3822
  643SOL     OW 1927   2.932   1.848   2.070 -0.3735  0.3334  0.2853
  643SOL    HW1 1928   2.894   1.762   2.022  1.0712 -3.0158  0.3621
  643SOL    HW2 1929   2.896   1.937   2.029 -2.9362 -1.6740 -1.4089
  644SOL     OW 1930   2.259   2.387   1.207  0.6820  0.3408  0.2323
  644SOL    HW1 1931   2.305   2.309   1.168  1.6668  0.1513  1.3483
  644SOL    HW2 1932   2.224   2.360   1.301 -2.9976 -1.8173 -0.9110
  645SOL     OW 1933   0.632   0.815   1.254  0.2214  0.4316 -0.3239
  645SOL    HW1 1934   0.555   0.848   1.310  0.7931  1.1854 -4.5269
  645SOL    HW2 1935   0.652   0.870   1.167  0.6290  0.8944 -0.3329
  646SOL     OW 1936   1.447   1.893   2.006 -0.4901  0.1278 -0.6657
  646SOL    HW1 1937   1.520   1.949   1.957 -0.9581 -2.1982 -2.2403
  646SOL    HW2 1938   1.401   1.946   2.082  0.8940  2.7082 -2.5381
  647SOL     OW 1939   0.813   1.087   0.673 -0.2095  0.1389  0.1112
  647SOL    HW1 1940   0.865   1.118   0.753 -2.0942 -0.5391 -3.3165
  647SOL    HW2 1941   0.757   1.003   0.699  1.8853 -0.1766 -0.5962
  648SOL     OW 1942   0.099   0.205   0.205 -0.0142  0.0835  0.2891
  648SOL    HW1 1943   0.149   0.166   0.126  0.9653 -1.5713  0.1586
  648SOL    HW2 1944   0.114   0.307   0.206  3.3062 -2.9191 -0.0916
  649SOL     OW 1945   3.022   0.253   0.893 -0.0395  0.1117  0.2027
  649SOL    HW1 1946   3.121   0.253   0.859 -0.8722 -1.0824 -0.3883
  649SOL    HW2 1947   3.010   0.324   0.967 -0.1403 -0.3705 -0.7718
  650SOL     OW 1948   2.767   0.692   1.455 -0.1765 -0.5351 -0.3350
  650SOL    HW1 1949   2.663   0.679   1.446 -0.0689 -1.1891  1.1421
  650SOL    HW2 1950   2.792   0.781   1.403 -1.2891  1.5569  1.7195
  651SOL     OW 1951   0.915   1.562   1.609  0.3513  0.3947 -0.1531
  651SOL    HW1 1952   0.951   1.644   1.665 -1.2209  1.3385  0.3074
  651SOL    HW2 1953   0.972   1.547   1.529 -2.5887 -0.6273  2.2614
  652SOL     OW 1954   2.331   2.412   2.502  0.3756  0.0340 -0.0024
  652SOL    HW1 1955   2.230   2.386   2.511 -2.2898 -2.7921 -0.0596
  652SOL    HW2 1956   2.341   2.509   2.469 -0.2372  1.0615 -0.5214
  653SOL     OW 1957   2.723   1.243   0.191 -0.0582  0.4743  0.0896
  653SOL    HW1 1958   2.724   1.295   0.281  1.0884  0.4699 -2.4522
  653SOL    HW2 1959   2.790   1.163   0.194  0.6736  1.3854 -0.6382
  654SOL     OW 1960   1.240   2.237   1.261  0.7418  0.3881  0.0366
  654SOL    HW1 1961   1.250   2.163   1.336  0.9151 -0.9900  1.8555
  654SOL    HW2 1962   1.278   2.206   1.173 -1.0215 -0.7643 -0.9141
  655SOL     OW 1963   0.159   0.944   1.946  0.0370 -0.3084 -0.1216
  655SOL    HW1 1964   0.196   0.885   1.868  2.5872 -1.8685  1.9644
  655SOL    HW2 1965   0.231   1.005   1.987  0.5681 -0.5520 -1.7759
  656SOL     OW 1966   2.571   2.461   2.633 -0.0604  1.0295  0.2030
  656SOL    HW1 1967   2.659   2.442   2.575  1.1935 -4.2995 -1.7456
  656SOL    HW2 1968   2.489   2.410   2.604 -0.6866  2.2561 -0.7135
  657SOL     OW 1969   2.996   1.032   1.921  0.2189  0.6427  0.7040
  657SOL    HW1 1970   2.993   1.138   1.937 -3.5799  2.1742 -0.7355
  657SOL    HW2 1971   3.090   0.995   1.924 -0.0935  0.9624 -0.6557
  658SOL     OW 1972   1.664   0.208   2.379  0.4790  0.4111 -0.0164
  658SOL    HW1 1973   1.688   0.150   2.460  0.2753 -0.1198  0.4656
  658SOL    HW2 1974   1.708   0.182   2.291  2.8362  1.7672  0.7628
  659SOL     OW 1975   1.424   0.616   2.873 -0.0302  0.2468  0.6482
  659SOL    HW1 1976   1.481   0.698   2.906 -0.2107  1.2808  1.6328
  659SOL    HW2 1977   1.324   0.623   2.884  0.4649  2.7959 -1.1625
  660SOL     OW 1978   1.408   0.339   1.425  0.5859  0.2371  0.4430
  660SOL    HW1 1979   1.416   0.379   1.516 -0.0354  1.4811  0.2486
  660SOL    HW2 1980   1.494   0.280   1.404  0.7515 -1.2915 -1.1197
  661SOL     OW 1981   2.471   1.190   0.661 -0.1765 -0.0229  0.4208
  661SOL    HW1 1982   2.458   1.183   0.561  0.7818  0.1171  3.2344
  661SOL    HW2 1983   2.409   1.261   0.709 -1.8087 -0.2780 -0.1352
  662SOL     OW 1984   1.412   0.434   1.766 -0.5107  0.5283  0.5835
  662SOL    HW1 1985   1.356   0.346   1.762 -0.0130 -1.3734  0.7331
  662SOL    HW2 1986   1.404   0.486   1.855  0.5463 -0.6472  1.9632
  663SOL     OW 1987   0.733   1.534   2.218 -0.5051 -0.1935 -0.3896
  663SOL    HW1 1988   0.664   1.607   2.231  3.2153 -2.1532  0.5365
  663SOL    HW2 1989   0.727   1.468   2.132  0.7469 -1.1078  1.9154
  664SOL     OW 1990   1.634   2.084   1.448 -0.0839  0.0182  0.0433
  664SOL    HW1 1991   1.573   2.052   1.524 -1.0246  2.0348  0.8451
  664SOL    HW2 1992   1.729   2.048   1.452 -3.0127 -0.4199  0.0097
  665SOL     OW 1993   2.272   0.661   1.920 -0.0818  0.0572  0.2463
  665SOL    HW1 1994   2.180   0.612   1.906 -2.3288 -2.9462 -0.7006
  665SOL    HW2 1995   2.291   0.687   2.021  1.2252 -1.9139  1.2498
  666SOL     OW 1996   0.393   2.316   0.348 -0.7673  0.4796 -0.3137
  666SOL    HW1 1997   0.443   2.369   0.420  0.5261 -0.4437  2.8136
  666SOL    HW2 1998   0.292   2.299   0.368 -0.5064  0.1419  0.6427
  667SOL     OW 1999   1.986   0.206   1.196 -0.6262 -0.3730 -0.0569
  667SOL    HW1 2000   1.961   0.277   1.125 -1.5169  1.1851 -1.2250
  667SOL    HW2 2001   1.912   0.164   1.254  0.9450 -0.0757  2.6144
  668SOL     OW 2002   2.036   0.476   1.130 -1.2574  0.2453  0.3735
  668SOL    HW1 2003   2.111   0.527   1.067 -0.3114  1.6849  0.1216
  668SOL    HW2 2004   2.075   0.448   1.224 -1.9821  0.4236  2.6233
  669SOL     OW 2005   0.012   2.173   1.009 -0.1375  0.4476 -0.1013
  669SOL    HW1 2006  -0.059   2.200   0.936  1.2101 -1.3277  2.2886
  669SOL    HW2 2007   0.025   2.241   1.082  0.1513 -2.0062 -3.9460
  670SOL     OW 2008   2.852   2.351   1.954 -0.6272 -0.0851 -0.0264
  670SOL    HW1 2009   2.794   2.312   2.028  0.8824  0.9105 -2.0948
  670SOL    HW2 2010   2.839   2.456   1.940  0.7960  0.3610  0.7674
  671SOL     OW 2011   1.750   1.717   1.474 -0.0725  0.2581 -0.2893
  671SOL    HW1 2012   1.773   1.768   1.392  1.3084 -1.2769  1.1365
  671SOL    HW2 2013   1.669   1.654   1.458 -0.5088  1.3132  0.9466
  672SOL     OW 2014   0.409   0.614   2.398 -0.2770 -0.1494  0.1378
  672SOL    HW1 2015   0.437   0.635   2.301  0.8388 -0.7405  2.5991
  672SOL    HW2 2016   0.329   0.674   2.427 -0.6553  2.1587 -0.5485
  673SOL     OW 2017   0.128   1.156   1.149  0.0218 -0.4825 -0.3113
  673SOL    HW1 2018   0.140   1.222   1.228 -3.1640  1.2789  0.1304
  673SOL    HW2 2019   0.220   1.125   1.109 -1.4520 -1.8492  1.0575
  674SOL     OW 2020   1.658   2.966   0.221 -0.5719  0.7224 -0.1336
  674SOL    HW1 2021   1.654   3.041   0.145 -1.5320 -1.9134 -0.5199
  674SOL    HW2 2022   1.731   2.894   0.216 -1.2551 -0.7096 -1.7513
  675SOL     OW 2023   1.732   0.823   2.354 -0.5703  0.1287  0.1223
  675SOL    HW1 2024   1.821   0.818   2.306  0.2487 -1.6829 -0.1049
  675SOL    HW2 2025   1.665   0.752   2.323  2.0598  0.4041 -1.4551
  676SOL     OW 2026   2.512   1.454   1.985 -0.2871 -0.2317  0.1309
  676SOL    HW1 2027   2.494   1.438   1.885  2.1945  2.1607  2.6622
  676SOL    HW2 2028   2.526   1.368   2.041 -1.9941 -1.1046  3.1858
  677SOL     OW 2029   1.920   0.661   0.863  0.5503  0.4995 -0.5721
  677SOL    HW1 2030   1.948   0.685   0.964  3.0026  1.9207 -1.2134
  677SOL    HW2 2031   1.926   0.556   0.846  1.1930  1.4717 -0.0881
  678SOL     OW 2032   0.015   0.766   1.681 -0.1103 -0.0930 -0.0670
  678SOL    HW1 2033   0.112   0.776   1.711 -2.7805  0.5681  1.1766
  678SOL    HW2 2034  -0.053   0.743   1.760 -1.8297 -0.8538  0.9187
  679SOL     OW 2035   2.580   1.189   1.086  0.1925 -0.5384 -0.3013
  679SOL    HW1 2036   2.490   1.233   1.095  0.9442  1.2626 -1.8350
  679SOL    HW2 2037   2.586   1.088   1.107  1.6909 -0.4516 -0.4430
  680SOL     OW 2038   2.802   0.609   1.711 -0.5624  0.3177 -0.1147
  680SOL    HW1 2039   2.795   0.672   1.625 -1.0063  0.4020 -0.6979
  680SOL    HW2 2040   2.869   0.649   1.778  0.3386 -0.9341 -0.2286
  681SOL     OW 2041   3.004   0.191   1.655 -0.3301  0.1921  0.6323
  681SOL    HW1 2042   3.055   0.175   1.561  2.7775 -3.0654 -3.8231
  681SOL    HW2 2043   2.958   0.285   1.644  0.5751 -0.2190 -1.2777
  682SOL     OW 2044   0.808   3.077   1.316 -0.8201  0.0705  0.1364
  682SOL    HW1 2045   0.727   3.043   1.370 -4.0538 -2.1279 -0.3099
  682SOL    HW2 2046   0.792   3.087   1.216 -1.3310  1.2214 -0.0636
  683SOL     OW 2047   1.347   0.214   2.211 -0.1748 -0.2219  0.0752
  683SOL    HW1 2048   1.296   0.273   2.277  0.6913 -1.0285  1.5753
  683SOL    HW2 2049   1.434   0.254   2.164  1.7941 -1.0588 -1.2713
  684SOL     OW 2050   1.458   2.118   0.518 -0.3615  0.5234  0.2386
  684SOL    HW1 2051   1.504   2.055   0.589 -1.0604 -0.4240 -0.8258
  684SOL    HW2 2052   1.359   2.099   0.504 -1.2011  1.1976  0.4142
  685SOL     OW 2053   2.119   2.008   1.961  0.5036 -0.6449  0.5366
  685SOL    HW1 2054   2.201   1.990   1.898  0.0615 -0.2477  0.0733
  685SOL    HW2 2055   2.121   1.963   2.049 -1.6984  0.3248 -3.1649
  686SOL     OW 2056   1.510   1.794   2.715  0.2582 -0.0143  0.3929
  686SOL    HW1 2057   1.551   1.773   2.809 -1.1668  0.2549  2.0388
  686SOL    HW2 2058   1.571   1.779   2.634 -0.0978 -1.6850 -0.0924
  687SOL     OW 2059   1.282   2.478   1.993 -0.2120  0.3684  0.2930
  687SOL    HW1 2060   1.309   2.380   2.023 -0.5467 -3.1259  0.7768
  687SOL    HW2 2061   1.342   2.545   2.049 -0.4970  0.4415  0.6259
  688SOL     OW 2062   2.066   1.523   1.735 -0.5269  0.3631  0.1841
  688SOL    HW1 2063   2.154   1.569   1.764 -0.1153  0.5142  0.0555
  688SOL    HW2 2064   2.059   1.508   1.628  1.9675  3.2673  0.5352
  689SOL     OW 2065   2.436   1.067   2.703  0.2809 -0.2393 -0.1980
  689SOL    HW1 2066   2.342   1.031   2.713 -0.7762  2.0323 -1.9748
  689SOL    HW2 2067   2.487   1.077   2.791  0.2618  1.1538 -2.1925
  690SOL     OW 2068   2.246   2.808   0.016  0.7746 -0.3282  0.0792
  690SOL    HW1 2069   2.195   2.758  -0.063 -1.4607  2.4050 -0.6697
  690SOL    HW2 2070   2.184   2.849   0.085 -0.4987 -0.3363 -2.1836
  691SOL     OW 2071   2.589   0.479   2.207 -0.1826  0.3879  0.2603
  691SOL    HW1 2072   2.629   0.399   2.154  1.2919 -0.2431  2.6887
  691SOL    HW2 2073   2.613   0.565   2.166  0.9457 -1.9615  0.0795
  692SOL     OW 2074   2.744   1.227   0.733  0.8649 -0.1739 -0.2186
  692SOL    HW1 2075   2.648   1.231   0.692 -0.5094 -0.4582 -2.2588
  692SOL    HW2 2076   2.772   1.317   0.774 -0.7207 -0.7654 -1.6451
  693SOL     OW 2077   2.827   2.931   0.617 -0.7107 -0.0359  0.0696
  693SOL    HW1 2078   2.820   3.010   0.684 -3.9995  1.3129  0.8506
  693SOL    HW2 2079   2.775   2.962   0.529 -1.3228  2.4368 -0.6207
  694SOL     OW 2080   2.348   2.186   0.077 -0.0790 -0.0484 -0.3003
  694SOL    HW1 2081   2.343   2.277   0.122  0.2928 -1.9601  1.6629
  694SOL    HW2 2082   2.264   2.151   0.031 -2.4847  1.3331  0.7166
  695SOL     OW 2083   0.582   2.975   1.446  0.3565 -0.2394  0.4259
  695SOL    HW1 2084   0.527   2.894   1.420  2.1249 -1.3339  1.3496
  695SOL    HW2 2085   0.549   3.010   1.535 -2.8327  1.2584  0.1528
  696SOL     OW 2086   2.795   1.943   0.767  0.5931 -0.0934  0.7153
  696SOL    HW1 2087   2.881   1.898   0.725  0.3135  0.0344  0.3749
  696SOL    HW2 2088   2.712   1.936   0.708  0.0716  2.1364  1.4660
  697SOL     OW 2089   1.614   2.033   1.825 -0.1426  0.7319 -0.1045
  697SOL    HW1 2090   1.713   2.008   1.859  1.6743 -0.2408 -0.7053
  697SOL    HW2 2091   1.618   2.127   1.784  0.7782 -2.5910  0.4251
  698SOL     OW 2092   2.940   0.438   2.757  0.2190 -0.3663 -0.2852
  698SOL    HW1 2093   2.933   0.397   2.664 -4.8236  2.1377 -1.9260
  698SOL    HW2 2094   2.988   0.383   2.830 -2.4744  0.5258 -1.8566
  699SOL     OW 2095   1.578   0.078   2.927 -0.0345  0.1358  0.5902
  699SOL    HW1 2096   1.577  -0.010   2.879  0.5970  2.2620 -1.8777
  699SOL    HW2 2097   1.614   0.153   2.863  0.6947  1.7517 -0.5987
  700SOL     OW 2098   0.971   2.308   1.321  0.4324  0.2566  0.1741
  700SOL    HW1 2099   1.071   2.288   1.301 -0.9517  0.8011  1.6185
  700SOL    HW2 2100   0.911   2.261   1.250 -0.5026 -1.0848 -0.0102
  701SOL     OW 2101   1.930   2.842   3.057  0.4114 -0.3052  0.0566
  701SOL    HW1 2102   1.918   2.800   3.151 -0.1531  0.9606  0.2658
  701SOL    HW2 2103   1.947   2.945   3.071  0.0329 -1.5714 -0.7276
  702SOL     OW 2104   2.077   1.347   1.996  0.2163  0.3748 -0.8844
  702SOL    HW1 2105   2.171   1.309   1.980 -0.5407 -0.9689  1.8332
  702SOL    HW2 2106   2.040   1.400   1.910 -0.4665  0.2647 -1.1870
  703SOL     OW 2107   1.933   0.896   1.423  0.5911 -0.0434  0.0897
  703SOL    HW1 2108   1.914   0.793   1.443  0.6408  1.1012  0.3122
  703SOL    HW2 2109   1.995   0.944   1.491 -1.4354  0.8378  0.4782
  704SOL     OW 2110   0.317   2.054   1.666  0.3327 -0.0558 -0.2772
  704SOL    HW1 2111   0.322   1.985   1.743 -0.3234 -1.5663  0.3638
  704SOL    HW2 2112   0.376   2.139   1.678 -2.1389 -0.0551 -4.6883
  705SOL     OW 2113   2.495   1.474   0.966 -0.4984 -0.6627 -0.3055
  705SOL    HW1 2114   2.474   1.470   0.865 -1.0653  1.2618  1.4000
  705SOL    HW2 2115   2.573   1.410   0.994 -0.3794 -2.1919 -0.3717
  706SOL     OW 2116   0.647   1.655   1.826  0.4110  0.6536  0.0539
  706SOL    HW1 2117   0.679   1.565   1.861  1.3697  1.9005  1.6129
  706SOL    HW2 2118   0.690   1.736   1.875  0.5886  2.1363  1.4939
  707SOL     OW 2119   2.284   1.210   1.887  0.3698 -0.2901  0.1583
  707SOL    HW1 2120   2.379   1.174   1.917  1.0729 -0.9572  0.2099
  707SOL    HW2 2121   2.215   1.133   1.873  1.3892  2.4749  0.0713
  708SOL     OW 2122   3.053   0.546   3.074 -0.2841 -0.2665  0.2620
  708SOL    HW1 2123   3.038   0.600   2.987 -1.4996  2.4590  0.3585
  708SOL    HW2 2124   3.066   0.448   3.043 -2.1408 -0.8912  2.1830
  709SOL     OW 2125   1.822   1.851   0.214 -0.0764  0.1740 -0.6738
  709SOL    HW1 2126   1.807   1.942   0.261  0.9179 -0.9848  1.3484
  709SOL    HW2 2127   1.831   1.854   0.109 -0.3038 -0.7427  0.2020
  710SOL     OW 2128   1.746   1.648   2.443 -0.8427 -0.9614 -0.0857
  710SOL    HW1 2129   1.777   1.634   2.344 -2.0118  0.6580 -0.3541
  710SOL    HW2 2130   1.752   1.560   2.500  1.0334  3.6469  1.2207
  711SOL     OW 2131   2.665   2.981   0.967  0.5942  0.2487 -0.4155
  711SOL    HW1 2132   2.628   3.076   0.943  0.1726  2.3165 -0.9593
  711SOL    HW2 2133   2.767   2.979   0.948  1.7659 -0.1011 -0.0639
  712SOL     OW 2134   1.342   2.214   1.992 -0.2236 -0.4537  0.3044
  712SOL    HW1 2135   1.446   2.204   2.003 -1.3126 -0.1995  0.6158
  712SOL    HW2 2136   1.307   2.186   1.896  1.0391 -0.3439  0.4284
  713SOL     OW 2137   2.934   1.456   2.539  0.5817  0.0074  0.4297
  713SOL    HW1 2138   2.868   1.375   2.518  1.3124 -1.6365 -1.8197
  713SOL    HW2 2139   2.917   1.493   2.635  0.7120  0.9136  1.5807
  714SOL     OW 2140   2.720   0.496   2.482 -0.6772 -0.1203  0.2288
  714SOL    HW1 2141   2.655   0.454   2.554 -0.1047  0.3411  0.9646
  714SOL    HW2 2142   2.678   0.502   2.386  0.1799 -1.8486  1.6411
  715SOL     OW 2143   1.602   2.012   1.137  0.4368  0.0357  0.8911
  715SOL    HW1 2144   1.524   2.071   1.096  2.0895  2.6171  0.4626
  715SOL    HW2 2145   1.623   2.041   1.232 -0.6767  0.0017 -0.1329
  716SOL     OW 2146   1.206   0.129   1.464  0.3432 -1.1316  0.1767
  716SOL    HW1 2147   1.101   0.145   1.447  1.2066  1.5017  0.1148
  716SOL    HW2 2148   1.270   0.209   1.433  0.9937 -0.2494 -1.8638
  717SOL     OW 2149   1.143   0.514   1.598 -0.2908  0.3724  0.2462
  717SOL    HW1 2150   1.226   0.569   1.630 -2.3257 -0.4702 -0.5381
  717SOL    HW2 2151   1.135   0.497   1.493  2.1017  0.7836  0.9870
  718SOL     OW 2152   0.676   0.951   0.978 -0.1688 -0.1699  0.5661
  718SOL    HW1 2153   0.658   0.928   0.877  0.9651  0.0881 -1.5043
  718SOL    HW2 2154   0.665   1.057   0.992  0.2188  2.1651 -0.4293
  719SOL     OW 2155   0.627   1.772   2.296 -0.2250 -0.2626  1.2585
  719SOL    HW1 2156   0.708   1.805   2.351  0.8272 -1.7457  0.7050
  719SOL    HW2 2157   0.546   1.718   2.345  1.3554 -3.9856  1.1876
  720SOL     OW 2158   2.186   1.158   0.287 -0.1902  0.1895 -0.0340
  720SOL    HW1 2159   2.223   1.071   0.236  0.1953  1.0637  1.3098
  720SOL    HW2 2160   2.169   1.143   0.392 -0.7242  0.1734 -0.1023
  721SOL     OW 2161   2.251   2.992   2.125  0.0817 -0.2458 -0.2370
  721SOL    HW1 2162   2.215   3.054   2.054 -2.8184  1.2864  1.7789
  721SOL    HW2 2163   2.249   3.040   2.215  1.6990 -3.0575  0.7324
  722SOL     OW 2164   2.402   1.577   0.471  0.1644  0.2374  0.2154
  722SOL    HW1 2165   2.427   1.547   0.377  1.2140  1.1631 -0.5861
  722SOL    HW2 2166   2.372   1.674   0.478 -1.7619 -2.1890 -1.0673
  723SOL     OW 2167   2.528   2.710   1.963 -0.6617 -0.1053  0.2425
  723SOL    HW1 2168   2.580   2.784   2.015 -1.0979  1.0652  0.1517
  723SOL    HW2 2169   2.429   2.709   1.994  1.0918 -1.5439 -0.8578
  724SOL     OW 2170   0.529   2.479   2.416 -0.2237  0.1788 -0.0195
  724SOL    HW1 2171   0.430   2.454   2.429  1.2825 -0.4134  1.7875
  724SOL    HW2 2172   0.575   2.500   2.504 -0.8783  0.0274 -2.5387
  725SOL     OW 2173   2.479   2.807   1.512 -0.2919 -0.8357 -0.2609
  725SOL    HW1 2174   2.488   2.851   1.415 -1.3212  0.9597 -1.7077
  725SOL    HW2 2175   2.511   2.711   1.511  0.9043 -0.2968  0.6110
  726SOL     OW 2176   2.497   2.259   0.692 -0.5814 -0.5312 -0.6679
  726SOL    HW1 2177   2.463   2.359   0.689 -0.1551  2.6281  0.3737
  726SOL    HW2 2178   2.446   2.193   0.623 -1.0590  1.4092  0.2706
  727SOL     OW 2179   0.158   3.072   0.036  0.0432 -0.2038 -0.3829
  727SOL    HW1 2180   0.191   2.977   0.073 -1.0437 -0.7754  1.4027
  727SOL    HW2 2181   0.177   3.094  -0.061 -0.5839  1.9421 -1.3608
  728SOL     OW 2182   2.869   0.651   0.966  0.2941  0.3047 -0.0637
  728SOL    HW1 2183   2.767   0.671   0.948 -0.3022 -0.4895 -0.0090
  728SOL    HW2 2184   2.878   0.625   1.062 -0.2418 -0.1531 -0.6607
  729SOL     OW 2185   3.011   2.480   0.748 -0.1546  0.5635 -0.3446
  729SOL    HW1 2186   2.977   2.400   0.807 -1.9940  0.9146 -1.9310
  729SOL    HW2 2187   3.109   2.468   0.737  0.2944  2.7267 -0.6664
  730SOL     OW 2188   2.633   0.675   0.841  0.0677 -0.5229 -0.5772
  730SOL    HW1 2189   2.578   0.763   0.837  0.9117 -4.1360  2.4254
  730SOL    HW2 2190   2.685   0.659   0.752  2.6479  1.1520  1.5189
  731SOL     OW 2191   0.116   2.103   2.495  0.1610  0.1445 -0.9331
  731SOL    HW1 2192   0.047   2.125   2.572  0.7779  2.4673 -0.6946
  731SOL    HW2 2193   0.176   2.185   2.486  0.8794 -1.6221  1.0092
  732SOL     OW 2194   1.136   2.817   1.933 -0.1633  0.1144 -0.0425
  732SOL    HW1 2195   1.157   2.785   2.028 -0.6991  0.1209  1.0086
  732SOL    HW2 2196   1.137   2.742   1.864 -0.3048  0.3357  0.3382
  733SOL     OW 2197   3.051   0.580   2.231 -0.5200 -0.1608 -0.3222
  733SOL    HW1 2198   3.113   0.622   2.161  3.8569 -0.0062  0.5768
  733SOL    HW2 2199   2.991   0.509   2.190 -0.3140  5.1394 -1.7438
  734SOL     OW 2200   1.403   0.375   2.756 -0.4305  0.0830  0.8982
  734SOL    HW1 2201   1.395   0.473   2.787 -0.8498 -0.7684 -2.7069
  734SOL    HW2 2202   1.312   0.325   2.762 -1.3071 -0.0251 -1.2116
  735SOL     OW 2203   2.893   2.633   2.282 -0.0994 -0.5396 -0.1805
  735SOL    HW1 2204   2.855   2.618   2.187 -0.3116  2.3712  0.6469
  735SOL    HW2 2205   2.981   2.683   2.289 -0.2156  0.8851  0.6495
  736SOL     OW 2206   0.796   0.306   2.638 -0.2615 -0.0884  0.4926
  736SOL    HW1 2207   0.691   0.331   2.644 -2.0365  2.0414 -1.0079
  736SOL    HW2 2208   0.830   0.282   2.539  0.3717 -1.4917  2.8444
  737SOL     OW 2209   2.666   0.505   2.877 -0.2928 -0.1118 -0.4456
  737SOL    HW1 2210   2.662   0.447   2.963  0.3777  0.5068 -0.2292
  737SOL    HW2 2211   2.761   0.503   2.833  1.0832  0.6680  3.5304
  738SOL     OW 2212   1.637   1.271   2.908 -0.2669  0.7240  0.2919
  738SOL    HW1 2213   1.742   1.264   2.897 -0.3898  0.1277  3.3728
  738SOL    HW2 2214   1.590   1.189   2.858  1.2894 -2.9622 -0.3431
  739SOL     OW 2215   1.717   0.636   0.669  0.0295 -0.3837  0.6586
  739SOL    HW1 2216   1.781   0.658   0.743 -0.2587 -1.9154 -0.4585
  739SOL    HW2 2217   1.747   0.551   0.617 -4.0194 -3.9811  0.7090
  740SOL     OW 2218   1.968   1.900   2.234 -0.1168 -0.1979 -0.5747
  740SOL    HW1 2219   2.025   1.814   2.263  0.3081 -1.4247  0.0987
  740SOL    HW2 2220   1.866   1.888   2.226 -2.3662  2.3501 -1.4297
  741SOL     OW 2221   2.537   0.051   2.598 -0.3837  0.1901  0.2264
  741SOL    HW1 2222   2.639   0.031   2.595 -0.5845 -0.3900  1.3737
  741SOL    HW2 2223   2.486   0.057   2.504 -2.3339 -3.0036 -0.1461
  742SOL     OW 2224   2.238   1.439   0.221  0.1824 -0.2980 -0.0699
  742SOL    HW1 2225   2.146   1.484   0.223  2.0927 -3.9578  0.9668
  742SOL    HW2 2226   2.235   1.348   0.269 -0.7215  2.0972  1.0633
  743SOL     OW 2227   1.855   0.664   2.599 -0.3270  0.1020 -0.3461
  743SOL    HW1 2228   1.834   0.588   2.531  2.6081 -4.4009 -0.1754
  743SOL    HW2 2229   1.772   0.725   2.622  0.9807  0.8734 -0.8820
  744SOL     OW 2230   2.614   2.118   0.144 -0.1027 -0.5078 -0.3759
  744SOL    HW1 2231   2.508   2.132   0.123  1.4748  1.6342  1.1501
  744SOL    HW2 2232   2.648   2.028   0.171 -1.0373  1.9741 -1.1008
  745SOL     OW 2233   2.168   2.615   2.319  0.0882 -0.2294  1.0263
  745SOL    HW1 2234   2.084   2.575   2.272  1.3109  0.1657 -3.4091
  745SOL    HW2 2235   2.145   2.681   2.395 -0.1944  2.8872  0.9116
  746SOL     OW 2236   0.003   2.619   1.715  0.2507 -0.1417 -0.2259
  746SOL    HW1 2237   0.077   2.589   1.645 -0.7150 -1.5918 -1.4591
  746SOL    HW2 2238   0.010   2.718   1.754  0.0125  1.2815  0.4783
  747SOL     OW 2239   0.054   1.764   1.666 -0.2201  0.2239 -0.2465
  747SOL    HW1 2240  -0.021   1.691   1.667 -1.9072 -0.4701 -1.6589
  747SOL    HW2 2241   0.113   1.769   1.574  0.0674  0.1850 -0.5059
  748SOL     OW 2242   1.816   2.746   2.829 -0.5665 -0.0890  0.0498
  748SOL    HW1 2243   1.836   2.785   2.924  0.4000 -2.8733 -0.4242
  748SOL    HW2 2244   1.717   2.712   2.838  1.2717  0.9977  2.1082
  749SOL     OW 2245   1.338   3.048   0.964 -0.9258 -0.0055 -0.2460
  749SOL    HW1 2246   1.253   2.993   0.967  0.6415 -0.3932 -0.7137
  749SOL    HW2 2247   1.406   3.018   0.884 -0.3401 -0.7735  0.0793
  750SOL     OW 2248   2.300   0.181   1.890  0.1570  0.0249 -0.5210
  750SOL    HW1 2249   2.306   0.239   1.805 -0.3806  1.8276 -0.0845
  750SOL    HW2 2250   2.322   0.232   1.981  0.4327 -0.0524  2.5374
  751SOL     OW 2251   0.904   2.158   2.785 -0.1154 -0.5915 -0.8549
  751SOL    HW1 2252   0.962   2.165   2.871 -0.5218 -0.0667 -2.7446
  751SOL    HW2 2253   0.805   2.128   2.806 -0.9332 -1.3705 -0.1680
  752SOL     OW 2254   1.291   0.863   1.363 -0.3348  0.4781  0.2646
  752SOL    HW1 2255   1.367   0.927   1.346 -0.2483  0.3788  0.3425
  752SOL    HW2 2256   1.333   0.771   1.380 -3.5644 -1.2959 -0.4687
  753SOL     OW 2257   0.919   2.575   1.676 -0.1245 -0.5278  0.0147
  753SOL    HW1 2258   1.024   2.578   1.691 -2.1092  1.1920  0.1674
  753SOL    HW2 2259   0.883   2.656   1.619 -1.5604 -0.4720  0.6332
  754SOL     OW 2260   1.084   1.211   3.007  0.5284  0.3334  0.8612
  754SOL    HW1 2261   1.151   1.135   2.982 -0.8938  0.9985 -0.5142
  754SOL    HW2 2262   1.120   1.310   3.012 -2.8265 -0.4864  0.2286
  755SOL     OW 2263   1.981   0.468   2.235  0.0883 -0.3047 -0.1936
  755SOL    HW1 2264   2.057   0.399   2.250 -0.3434  1.8888  1.7909
  755SOL    HW2 2265   1.910   0.477   2.310 -1.0036 -2.0820 -2.7566
  756SOL     OW 2266   2.551   1.033   2.946 -0.1596 -0.2043  0.0513
  756SOL    HW1 2267   2.643   1.009   2.988  1.0256 -1.3634  1.2494
  756SOL    HW2 2268   2.472   0.981   2.980  3.2435 -1.0999 -1.5922
  757SOL     OW 2269   0.031   0.500   1.843 -0.5747 -0.9640 -1.1949
  757SOL    HW1 2270   0.092   0.439   1.789 -0.0470  2.8387 -2.3321
  757SOL    HW2 2271  -0.057   0.456   1.884  0.7755 -0.5987  4.0981
  758SOL     OW 2272   2.380   0.093   1.479  0.2326  0.2151 -0.6584
  758SOL    HW1 2273   2.354  -0.004   1.502 -1.0907  1.8474 -2.3770
  758SOL    HW2 2274   2.382   0.108   1.376 -2.0925 -2.6020  3.0387
  759SOL     OW 2275   1.702   0.069   0.063  0.0351 -0.5353  0.3570
  759SOL    HW1 2276   1.652   0.078  -0.030 -1.4519 -2.1636 -0.2394
  759SOL    HW2 2277   1.807   0.070   0.057 -0.3631  0.6036 -1.2102
  760SOL     OW 2278   2.718   2.108   2.808  0.5709 -0.5882 -0.4706
  760SOL    HW1 2279   2.734   2.009   2.831 -0.3364  0.9469 -1.5117
  760SOL    HW2 2280   2.682   2.162   2.890 -0.3981 -0.5671  0.5577
  761SOL     OW 2281   1.895   1.757   1.709  0.1412  0.1153  0.6067
  761SOL    HW1 2282   1.925   1.659   1.723 -0.1950 -1.2773 -0.1479
  761SOL    HW2 2283   1.823   1.760   1.640  1.0668  1.6146 -0.9061
  762SOL     OW 2284   0.478   2.368   0.992 -0.0148 -0.5674  0.1667
  762SOL    HW1 2285   0.529   2.389   0.898 -1.4060  1.4858 -0.7998
  762SOL    HW2 2286   0.534   2.399   1.076  2.2274  3.1922  0.6212
  763SOL     OW 2287   2.071   1.509   2.935 -0.7963 -0.2991 -0.5293
  763SOL    HW1 2288   2.170   1.485   2.967  3.7826 -1.2064 -0.7145
  763SOL    HW2 2289   2.000   1.467   3.003  0.5153 -4.6730  2.6459
  764SOL     OW 2290   0.660   0.608   0.841 -0.2625 -0.2502  0.5384
  764SOL    HW1 2291   0.600   0.536   0.799  0.3127  0.3893 -0.1127
  764SOL    HW2 2292   0.743   0.585   0.903 -1.0974  2.3313  1.0856
  765SOL     OW 2293   0.713   0.262   0.754  0.1089  0.0136  0.2194
  765SOL    HW1 2294   0.796   0.285   0.695 -0.0952 -0.0804  0.0781
  765SOL    HW2 2295   0.728   0.307   0.851  0.7119 -3.8677 -0.7043
  766SOL     OW 2296   2.866   2.100   0.017  0.3264  0.3421 -0.0420
  766SOL    HW1 2297   2.770   2.117   0.050 -0.6472 -0.4135 -0.8550
  766SOL    HW2 2298   2.923   2.182   0.029 -1.6950 -2.2125 -1.9744
  767SOL     OW 2299   2.813   1.574   0.611 -0.2867 -0.2268  0.0900
  767SOL    HW1 2300   2.730   1.613   0.661 -2.8326  0.4137 -3.3600
  767SOL    HW2 2301   2.901   1.607   0.652  3.3706  1.0124 -1.1529
  768SOL     OW 2302   1.052   0.154   0.270  0.8282  0.9706  0.5326
  768SOL    HW1 2303   1.006   0.101   0.350 -1.5809 -1.9662  0.9440
  768SOL    HW2 2304   1.153   0.147   0.259 -0.9268  2.7273 -1.6466
  769SOL     OW 2305   0.994   1.911   2.219 -0.3938 -0.2711  0.0405
  769SOL    HW1 2306   0.927   1.903   2.293  0.5175 -0.3399 -3.2154
  769SOL    HW2 2307   1.089   1.879   2.248  0.9596  0.8490 -2.1789
  770SOL     OW 2308   0.189   1.125   2.312 -0.0928  0.5212  0.0743
  770SOL    HW1 2309   0.144   1.191   2.382  1.4259 -0.7318  0.9286
  770SOL    HW2 2310   0.137   1.034   2.301 -0.7775 -2.1756 -0.9854
  771SOL     OW 2311   3.007   2.835   1.897  0.4604  0.3112  0.4249
  771SOL    HW1 2312   2.980   2.904   1.822 -0.0758  1.7512  0.3142
  771SOL    HW2 2313   2.974   2.856   1.991 -0.9155  1.3578 -0.1813
  772SOL     OW 2314   2.202   0.228   2.897  0.0871  0.0431  0.3752
  772SOL    HW1 2315   2.258   0.138   2.881  0.6822  1.0322 -1.9977
  772SOL    HW2 2316   2.205   0.268   2.991 -2.5701 -1.3885 -3.2376
  773SOL     OW 2317   0.748   2.182   2.452  0.3437  0.8619 -0.4502
  773SOL    HW1 2318   0.710   2.220   2.364  3.1469  0.3062  2.7000
  773SOL    HW2 2319   0.679   2.180   2.534  1.0482 -2.7847  0.4554
  774SOL     OW 2320   2.033   3.086   2.637  0.2711 -0.0455  0.6687
  774SOL    HW1 2321   2.068   3.189   2.648  1.2047  1.9910  1.2736
  774SOL    HW2 2322   2.089   3.018   2.689 -1.2492 -0.6254 -4.3058
  775SOL     OW 2323   2.528   2.843   2.404  0.3682 -0.0101  0.4914
  775SOL    HW1 2324   2.518   2.946   2.415 -1.6224 -0.4436  1.1633
  775SOL    HW2 2325   2.613   2.795   2.442 -0.8158 -3.0465 -2.0809
  776SOL     OW 2326   0.023   1.322   0.199  0.3245  0.4268 -0.3809
  776SOL    HW1 2327  -0.003   1.281   0.109  0.2059  3.1139  1.9492
  776SOL    HW2 2328  -0.034   1.295   0.280  0.8241  0.3030 -0.4803
  777SOL     OW 2329   0.303   2.838   0.412 -0.0945  0.1707 -0.2422
  777SOL    HW1 2330   0.211   2.887   0.433 -0.1796  1.4276  0.1755
  777SOL    HW2 2331   0.386   2.906   0.412  2.3711  1.5269 -0.3504
  778SOL     OW 2332   1.321   1.950   0.180 -0.3378  0.3620  0.1703
  778SOL    HW1 2333   1.254   1.970   0.259 -0.6163  0.6962 -0.0827
  778SOL    HW2 2334   1.377   2.032   0.155 -1.3740 -2.1130  2.6267
  779SOL     OW 2335   0.190   0.844   0.462  0.0072 -0.0095 -0.2494
  779SOL    HW1 2336   0.150   0.747   0.457 -2.9197 -0.4402  1.6145
  779SOL    HW2 2337   0.128   0.910   0.514  2.6756  1.6448 -2.1851
  780SOL     OW 2338   0.114   0.207   2.258 -0.6930  0.3744 -0.7519
  780SOL    HW1 2339   0.155   0.290   2.220  0.4739  1.2975  0.4199
  780SOL    HW2 2340   0.158   0.122   2.218  0.1855 -0.6355 -2.2386
  781SOL     OW 2341   0.664   1.773   1.565 -0.1246  0.2411  0.3544
  781SOL    HW1 2342   0.683   1.715   1.646  0.1850  2.1185 -2.2693
  781SOL    HW2 2343   0.563   1.773   1.550  0.2435  1.1086 -0.6344
  782SOL     OW 2344   2.600   0.172   0.885 -0.4902  1.0099  0.2649
  782SOL    HW1 2345   2.505   0.169   0.839 -1.0630 -0.2765  0.5309
  782SOL    HW2 2346   2.611   0.239   0.957  0.7527 -0.7364 -0.2504
  783SOL     OW 2347   2.844   0.748   2.598 -0.0167 -0.7531 -0.4856
  783SOL    HW1 2348   2.793   0.793   2.676  0.7482 -1.0378 -0.8683
  783SOL    HW2 2349   2.799   0.665   2.570  1.8784  1.4049  1.6917
  784SOL     OW 2350   1.468   2.174   0.082 -0.5966 -0.1398 -0.4082
  784SOL    HW1 2351   1.529   2.259   0.107  0.0189  0.8191  0.2062
  784SOL    HW2 2352   1.427   2.185  -0.017 -1.3435  0.5673  1.1202
  785SOL     OW 2353   2.134   0.355   0.050  0.1043 -0.1616 -0.2226
  785SOL    HW1 2354   2.055   0.366   0.118  0.9501  0.6702  0.1984
  785SOL    HW2 2355   2.145   0.446   0.001  0.1990  2.6900  0.0553
  786SOL     OW 2356   2.022   2.177   2.190  0.9340  0.4096  0.3511
  786SOL    HW1 2357   2.013   2.081   2.231  2.6764  1.5165  0.4789
  786SOL    HW2 2358   2.118   2.185   2.144 -1.2965 -3.9218  0.7484
  787SOL     OW 2359   1.402   0.618   0.998  0.2594  0.3430 -0.5654
  787SOL    HW1 2360   1.317   0.674   1.028  0.5457 -1.5436 -0.2327
  787SOL    HW2 2361   1.406   0.601   0.892 -2.2284  0.1961 -0.5903
  788SOL     OW 2362   1.239   0.412   0.008 -0.0837 -0.0666 -0.2260
  788SOL    HW1 2363   1.144   0.390  -0.030  1.1962 -1.6581  0.5479
  788SOL    HW2 2364   1.250   0.499   0.057  3.1944 -0.1846 -1.5744
  789SOL     OW 2365   2.565   0.106   1.847  0.0915 -0.7151 -0.5728
  789SOL    HW1 2366   2.468   0.128   1.876  4.0142 -2.0204 -3.4967
  789SOL    HW2 2367   2.576   0.010   1.810 -1.1398 -2.5935 -2.3337
  790SOL     OW 2368   2.624   2.744   0.814 -1.1116 -0.6930  0.1942
  790SOL    HW1 2369   2.706   2.756   0.745  2.6886 -0.0498 -0.8941
  790SOL    HW2 2370   2.620   2.832   0.869  3.6690 -1.1479  1.7819
  791SOL     OW 2371   1.915   1.238   0.221  0.2664  0.4784  0.6223
  791SOL    HW1 2372   1.818   1.206   0.242  0.6956  0.1990 -2.7011
  791SOL    HW2 2373   1.993   1.182   0.257 -1.1620 -3.5507 -1.2669
  792SOL     OW 2374   0.442   1.993   2.148 -0.0602 -0.2148 -0.0083
  792SOL    HW1 2375   0.462   2.097   2.160 -1.5848  3.1050  0.4395
  792SOL    HW2 2376   0.427   1.952   2.242  1.0871  0.0045  1.5821
  793SOL     OW 2377   2.101   1.554   2.156  0.0055  0.3579 -0.6652
  793SOL    HW1 2378   2.172   1.613   2.114 -2.0084 -2.7972  1.3022
  793SOL    HW2 2379   2.090   1.468   2.103  0.8434  0.1705  0.4756
  794SOL     OW 2380   0.438   1.332   2.427 -0.3580 -0.1141  0.1890
  794SOL    HW1 2381   0.431   1.278   2.338 -0.1280 -1.3289 -0.1307
  794SOL    HW2 2382   0.425   1.435   2.419 -0.7706  0.3759  0.6235
  795SOL     OW 2383   2.392   2.282   1.716 -0.5354 -0.1934 -0.8450
  795SOL    HW1 2384   2.346   2.332   1.792 -0.4084 -2.4141  2.0454
  795SOL    HW2 2385   2.379   2.179   1.727  1.1118 -1.5211  0.9620
  796SOL     OW 2386   3.069   1.117   2.662  0.2847 -0.2316 -0.0592
  796SOL    HW1 2387   2.979   1.134   2.705 -0.9234  1.5594 -2.1904
  796SOL    HW2 2388   3.147   1.133   2.724 -1.8308 -1.9434 -0.0196
  797SOL     OW 2389   0.789   0.605   1.348 -0.1830  0.0090 -0.2003
  797SOL    HW1 2390   0.855   0.633   1.420 -0.4473  1.2773 -0.1435
  797SOL    HW2 2391   0.734   0.682   1.308 -0.1139  0.4344 -0.4692
  798SOL     OW 2392   1.359   0.381   1.116 -0.2651  0.7890 -0.1320
  798SOL    HW1 2393   1.364   0.382   1.221  1.4574 -0.7685  0.6731
  798SOL    HW2 2394   1.378   0.468   1.071 -1.2261 -2.6147  0.5002
  799SOL     OW 2395   1.911   2.654   1.038  0.0991 -0.6959  0.3437
  799SOL    HW1 2396   1.888   2.611   1.130  1.9977 -1.2368 -0.3552
  799SOL    HW2 2397   1.842   2.652   0.966  2.7166  0.3208 -1.8295
  800SOL     OW 2398   2.958   0.744   1.909  0.4144  0.1640  0.9243
  800SOL    HW1 2399   2.940   0.848   1.919 -0.3194  0.9462 -0.5730
  800SOL    HW2 2400   3.050   0.715   1.954  0.1584 -0.2423  0.5746
  801SOL     OW 2401   1.957   2.215   0.068  0.4308 -0.2598 -0.0846
  801SOL    HW1 2402   1.871   2.214   0.009  0.3779  0.4985 -4.9264
  801SOL    HW2 2403   2.031   2.168   0.017 -0.9867 -0.5405  0.1421
  802SOL     OW 2404   0.634   0.808   2.570 -0.7921  0.1079  0.6708
  802SOL    HW1 2405   0.701   0.774   2.500 -1.0208  0.1358 -0.4383
  802SOL    HW2 2406   0.538   0.773   2.546 -0.0489  1.6120  0.8828
  803SOL     OW 2407   0.973   0.045   0.787 -0.2065  0.4820  0.2071
  803SOL    HW1 2408   1.005   0.140   0.807  0.0127 -0.6601 -3.0449
  803SOL    HW2 2409   0.941   0.035   0.690  1.0554  0.9278  0.2755
  804SOL     OW 2410   0.311   0.023   2.155 -0.1794 -0.8704  0.3719
  804SOL    HW1 2411   0.315   0.119   2.120 -1.7782 -2.3421  0.4678
  804SOL    HW2 2412   0.272  -0.043   2.084 -0.2333 -0.8039  1.9647
  805SOL     OW 2413   2.337   0.351   0.418 -0.0993  0.7256 -0.6927
  805SOL    HW1 2414   2.419   0.381   0.474  1.4826  1.5189  0.3993
  805SOL    HW2 2415   2.354   0.330   0.319 -1.0099  0.0420 -0.7321
  806SOL     OW 2416   0.654   2.456   1.778 -0.0036  0.2290 -0.1730
  806SOL    HW1 2417   0.644   2.556   1.802  0.6140 -1.3321  0.1284
  806SOL    HW2 2418   0.701   2.450   1.687 -0.5445  0.8887 -0.5961
  807SOL     OW 2419   2.480   0.814   0.359  0.5436 -0.0052  0.3101
  807SOL    HW1 2420   2.563   0.838   0.418  2.5135  2.3095 -2.8353
  807SOL    HW2 2421   2.458   0.888   0.287  0.1521  0.8897  2.2260
  808SOL     OW 2422   0.659   2.075   2.887 -0.0181  0.7233  0.1415
  808SOL    HW1 2423   0.607   2.132   2.957  0.2905  1.4872  1.3646
  808SOL    HW2 2424   0.702   1.991   2.931  1.1647  0.6818  1.9287
  809SOL     OW 2425   2.616   1.959   1.881 -0.6473 -0.1170  0.1593
  809SOL    HW1 2426   2.713   2.003   1.893 -1.2591  1.2241  1.3122
  809SOL    HW2 2427   2.576   1.994   1.791  0.0626 -2.7435  0.3200
  810SOL     OW 2428   2.134   1.096   0.578  0.6145  0.6561 -0.4658
  810SOL    HW1 2429   2.116   1.007   0.631  1.3628 -1.6845  3.0978
  810SOL    HW2 2430   2.060   1.171   0.598 -2.8317 -0.8423  0.5389
  811SOL     OW 2431   1.336   2.504   1.216 -0.3475 -0.0432  0.1126
  811SOL    HW1 2432   1.300   2.409   1.242  2.7626 -2.2259  1.7962
  811SOL    HW2 2433   1.282   2.580   1.253 -1.2725 -3.0184  0.6499
  812SOL     OW 2434   1.417   0.759   1.935  0.0663  0.0981  0.2042
  812SOL    HW1 2435   1.477   0.821   1.992 -1.3451 -0.5801  0.4549
  812SOL    HW2 2436   1.324   0.794   1.941  1.7750  2.1827 -0.5516
  813SOL     OW 2437   1.655   2.040   2.518 -0.2899 -0.0579  0.1308
  813SOL    HW1 2438   1.737   1.980   2.540  0.8015 -0.4258  0.2723
  813SOL    HW2 2439   1.604   2.006   2.429 -1.7698 -0.9509 -0.4159
  814SOL     OW 2440   2.931   1.526   2.820 -0.0236  0.7203 -0.4018
  814SOL    HW1 2441   2.997   1.493   2.892  1.9864 -1.5541 -2.5370
  814SOL    HW2 2442   2.953   1.623   2.792  2.0114  2.4792  0.7797
  815SOL     OW 2443   2.177   2.892   2.761  0.1145  0.4542  0.0892
  815SOL    HW1 2444   2.150   2.807   2.821  0.8623 -0.7763  2.0060
  815SOL    HW2 2445   2.237   2.960   2.806 -0.5122 -0.5617  0.9723
  816SOL     OW 2446   1.619   0.317   1.630 -0.2883 -0.0868  0.0319
  816SOL    HW1 2447   1.647   0.221   1.641  3.2833  1.1072  0.8250
  816SOL    HW2 2448   1.549   0.353   1.698  1.2885  1.4545 -0.1547
  817SOL     OW 2449   0.327   1.150   2.616 -0.0526 -0.2711  0.2860
  817SOL    HW1 2450   0.227   1.171   2.605  1.9107  1.5702 -2.5495
  817SOL    HW2 2451   0.385   1.215   2.561 -0.4658  2.0741  1.5660
  818SOL     OW 2452   1.959   0.966   0.333 -0.4950  0.9225 -0.1995
  818SOL    HW1 2453   2.057   0.938   0.367  1.8690  1.1884 -0.6237
  818SOL    HW2 2454   1.901   1.017   0.398  0.6204 -0.8205 -1.9415
  819SOL     OW 2455   2.712   2.971   2.960 -0.4235 -0.8669  0.0226
  819SOL    HW1 2456   2.774   2.888   2.963 -1.7947  0.9691  1.0817
  819SOL    HW2 2457   2.611   2.940   2.943  0.4882  0.8097  0.9235
  820SOL     OW 2458   1.218   1.063   0.597 -0.5730 -0.8661 -0.0868
  820SOL    HW1 2459   1.227   1.148   0.657  0.1406  1.5417 -1.2244
  820SOL    HW2 2460   1.220   0.980   0.655  1.3911  1.9718 -1.7624
  821SOL     OW 2461   0.034   1.284   0.669 -0.1368  0.3303 -0.0767
  821SOL    HW1 2462   0.023   1.274   0.776  0.2006 -2.1778  1.5403
  821SOL    HW2 2463   0.056   1.381   0.630 -1.7404 -1.1567 -1.0897
  822SOL     OW 2464   2.618   1.777   2.413  0.3444  0.6442  0.2241
  822SOL    HW1 2465   2.602   1.831   2.502  1.1094  2.9371 -0.1764
  822SOL    HW2 2466   2.527   1.766   2.365 -0.9435  1.0890 -0.5798
  823SOL     OW 2467   2.040   0.859   1.150 -0.4452 -0.5053 -0.4445
  823SOL    HW1 2468   2.021   0.877   1.251 -1.3819 -2.0705 -4.1588
  823SOL    HW2 2469   1.960   0.891   1.092  0.1356  0.1109 -1.4035
  824SOL     OW 2470   0.283   1.985   2.863 -0.2903 -0.7796  0.0191
  824SOL    HW1 2471   0.231   1.900   2.891 -1.5058  0.1104  1.1844
  824SOL    HW2 2472   0.336   1.974   2.773  0.0189  1.5665 -1.4903
  825SOL     OW 2473   1.283   1.105   0.295 -0.0050 -0.4343  0.4011
  825SOL    HW1 2474   1.264   1.196   0.249 -0.0371  1.9842  0.8290
  825SOL    HW2 2475   1.255   1.107   0.394  2.0972 -1.2347 -0.6122
  826SOL     OW 2476   1.883   0.636   1.561 -0.1892 -0.4914 -0.5923
  826SOL    HW1 2477   1.961   0.582   1.602  0.7079  2.1856  0.3700
  826SOL    HW2 2478   1.807   0.579   1.522 -0.8343  1.5132  0.2549
  827SOL     OW 2479   0.715   1.246   0.230  0.2665 -0.3712  0.7487
  827SOL    HW1 2480   0.800   1.212   0.172  2.2093  0.7204  0.4202
  827SOL    HW2 2481   0.646   1.169   0.255 -3.1069  0.5373  0.7869
  828SOL     OW 2482   2.626   0.195   1.557  0.1410  0.4712  0.7009
  828SOL    HW1 2483   2.528   0.171   1.527 -0.5298 -1.7090 -3.3617
  828SOL    HW2 2484   2.636   0.194   1.659  1.6940 -3.2264 -0.7839
  829SOL     OW 2485   2.830   2.453   2.972  0.4274 -0.3115 -0.2243
  829SOL    HW1 2486   2.752   2.388   2.981  0.6790  0.6727  0.9696
  829SOL    HW2 2487   2.808   2.555   2.982  0.5389 -0.0504 -1.6428
  830SOL     OW 2488   2.776   0.951   3.054  0.2012  0.2192 -0.3176
  830SOL    HW1 2489   2.860   1.016   3.052 -0.2172  1.1892  0.5539
  830SOL    HW2 2490   2.807   0.857   3.093 -1.9995  0.0532 -2.0997
  831SOL     OW 2491   3.079   0.652   0.373  0.4192 -0.7352  0.1365
  831SOL    HW1 2492   3.049   0.599   0.457  0.6165  2.1208  2.9626
  831SOL    HW2 2493   3.114   0.587   0.298 -0.4811 -0.7087  0.3613
  832SOL     OW 2494   1.820   0.783   3.010 -0.0171  0.4763  0.3979
  832SOL    HW1 2495   1.721   0.792   2.971 -0.2785 -0.1332  1.6628
  832SOL    HW2 2496   1.836   0.683   3.028 -0.8206  1.0946  0.7908
  833SOL     OW 2497   2.413   2.103   0.491  0.7420  0.3130 -0.0316
  833SOL    HW1 2498   2.328   2.075   0.436 -0.2963  0.7929  1.3551
  833SOL    HW2 2499   2.478   2.028   0.513  1.0213 -0.7095  3.3505
  834SOL     OW 2500   0.122   0.241   0.485 -0.7312  0.0691  0.1913
  834SOL    HW1 2501   0.190   0.171   0.499 -3.6421  1.9117 -0.3522
  834SOL    HW2 2502   0.073   0.234   0.393  2.0230  0.4871 -2.0053
  835SOL     OW 2503   2.285   1.548   1.121  0.2966 -0.1231  1.2099
  835SOL    HW1 2504   2.318   1.622   1.179  0.5865 -1.2095 -1.4293
  835SOL    HW2 2505   2.348   1.521   1.041 -0.6002  0.1074  1.0764
  836SOL     OW 2506   1.608   0.848   2.605  0.8079 -0.2343 -0.0727
  836SOL    HW1 2507   1.503   0.842   2.609 -2.2697 -1.6995 -0.2361
  836SOL    HW2 2508   1.640   0.853   2.505  2.8560 -1.4411 -2.9837
  837SOL     OW 2509   1.645   0.095   0.550 -0.5795 -0.1304  0.3196
  837SOL    HW1 2510   1.586   0.154   0.613 -2.0095 -1.3832  1.7422
  837SOL    HW2 2511   1.624   0.112   0.449 -0.9877  0.1609  2.6504
  838SOL     OW 2512   1.236   1.525   2.792  0.6881 -0.4193 -1.0338
  838SOL    HW1 2513   1.205   1.527   2.892 -0.5297 -0.5458 -0.7942
  838SOL    HW2 2514   1.169   1.482   2.728 -0.6107  0.8605  1.2070
  839SOL     OW 2515   1.743   0.249   1.024 -0.0843  0.1602  0.1025
  839SOL    HW1 2516   1.742   0.322   1.100  2.1565  2.0570 -0.4210
  839SOL    HW2 2517   1.666   0.179   1.031  1.6442 -2.0689 -0.4039
  840SOL     OW 2518   2.610   2.924   1.723 -0.7807 -0.3730  0.0578
  840SOL    HW1 2519   2.569   2.900   1.630 -1.0300 -0.8026 -1.1344
  840SOL    HW2 2520   2.602   2.844   1.795 -1.5345 -2.3577  2.9493
  841SOL     OW 2521   1.547   0.858   2.957  0.7450  0.2080 -0.4557
  841SOL    HW1 2522   1.532   0.872   3.060 -0.7911  1.3860  0.5423
  841SOL    HW2 2523   1.518   0.942   2.900  1.2295  2.4463 -3.3893
  842SOL     OW 2524   0.821   1.517   0.927  0.0159 -0.3041 -0.1633
  842SOL    HW1 2525   0.794   1.604   0.968 -0.5367 -1.0295 -1.3741
  842SOL    HW2 2526   0.742   1.456   0.904 -0.5045  1.7050  0.0910
  843SOL     OW 2527   0.091   0.089   1.443 -0.2773  0.7311 -0.3131
  843SOL    HW1 2528   0.182   0.106   1.487 -1.3712 -1.1374  2.0224
  843SOL    HW2 2529   0.073  -0.013   1.420  0.8737  1.0632  0.2626
  844SOL     OW 2530   0.798   2.499   0.297  0.4349  0.2961 -0.2140
  844SOL    HW1 2531   0.746   2.454   0.373 -1.1247  1.3069  0.1583
  844SOL    HW2 2532   0.736   2.570   0.251 -3.2154  1.3816  2.1705
  845SOL     OW 2533   1.602   2.890   1.359 -0.3097 -0.4842  0.3168
  845SOL    HW1 2534   1.668   2.920   1.435 -0.2443  3.5032 -2.9966
  845SOL    HW2 2535   1.503   2.919   1.373  0.2196 -1.3533  0.3909
  846SOL     OW 2536   1.534   2.951   0.806 -0.1246 -0.0083  0.8407
  846SOL    HW1 2537   1.511   2.940   0.705  0.3754  3.4546 -1.4158
  846SOL    HW2 2538   1.631   2.978   0.812  0.9952  0.4796  1.1603
  847SOL     OW 2539   2.025   1.622   0.279 -0.5821  0.0852 -0.2750
  847SOL    HW1 2540   1.990   1.553   0.346  0.6364  0.5390  1.0266
  847SOL    HW2 2541   1.969   1.708   0.263  0.8611 -2.5241  0.1603
  848SOL     OW 2542   2.501   0.802   2.612  0.2176 -0.7775  0.3283
  848SOL    HW1 2543   2.473   0.902   2.646  3.9790  0.0219  0.7741
  848SOL    HW2 2544   2.432   0.750   2.549 -0.9753  0.4412 -2.6708
  849SOL     OW 2545   2.568   0.849   2.347 -0.5533 -0.2787  0.1435
  849SOL    HW1 2546   2.633   0.821   2.271 -0.8759  2.0965  0.0007
  849SOL    HW2 2547   2.600   0.819   2.440  2.3934  0.0271  0.4886
  850SOL     OW 2548   1.547   0.110   1.348 -0.1511  0.4057 -0.1949
  850SOL    HW1 2549   1.535   0.114   1.243  0.4305  0.5235 -0.0580
  850SOL    HW2 2550   1.501   0.037   1.402  2.6385 -0.1104 -2.0803
  851SOL     OW 2551   0.453   1.764   0.619  0.2576 -0.5964  0.0334
  851SOL    HW1 2552   0.441   1.865   0.626  1.1845 -0.5911 -0.0913
  851SOL    HW2 2553   0.533   1.736   0.557  1.6331 -0.3099 -1.9561
  852SOL     OW 2554   0.776   2.161   1.680 -0.0367  0.9972 -0.3416
  852SOL    HW1 2555   0.767   2.254   1.647  1.2828 -1.7447  0.2308
  852SOL    HW2 2556   0.702   2.135   1.745 -1.5824 -1.8629 -1.6564
  853SOL     OW 2557   2.518   1.554   2.606 -0.2492  0.2836 -0.4707
  853SOL    HW1 2558   2.475   1.482   2.538 -2.0106 -0.1584 -1.6328
  853SOL    HW2 2559   2.567   1.636   2.566  0.4745 -1.6852 -0.4905
  854SOL     OW 2560   2.459   1.403   1.700  0.6397 -0.8186  0.1820
  854SOL    HW1 2561   2.523   1.380   1.618  2.8084 -1.5980 -0.1220
  854SOL    HW2 2562   2.362   1.374   1.690  1.2901 -0.0933  1.3129
  855SOL     OW 2563   2.108   2.363   0.975  0.0422 -0.4454  0.2041
  855SOL    HW1 2564   2.106   2.444   0.906  0.3645  2.2371 -0.8498
  855SOL    HW2 2565   2.170   2.384   1.056  2.7709  0.9936  0.4651
  856SOL     OW 2566   1.366   1.505   0.853  0.1576  0.3563 -0.0406
  856SOL    HW1 2567   1.448   1.549   0.892  3.0409 -0.4476  2.2852
  856SOL    HW2 2568   1.283   1.542   0.901  1.2454  0.8011 -0.5557
  857SOL     OW 2569   3.054   2.654   1.050 -0.9195  0.2551  0.0559
  857SOL    HW1 2570   3.006   2.564   1.034 -1.9623 -2.2384 -0.0098
  857SOL    HW2 2571   3.155   2.654   1.025 -1.6995 -1.5650  2.8021
  858SOL     OW 2572   2.312   2.016   1.769 -0.1050  0.0056 -0.6001
  858SOL    HW1 2573   2.226   2.038   1.714  1.0173  1.7887 -1.2036
  858SOL    HW2 2574   2.390   1.990   1.712 -3.4937 -0.0835 -0.7101
  859SOL     OW 2575   2.496   0.560   1.038  0.0611 -0.1931  0.0537
  859SOL    HW1 2576   2.549   0.599   0.956  0.1416 -1.9976 -1.0365
  859SOL    HW2 2577   2.516   0.464   1.068  0.1713 -2.0651 -1.4791
  860SOL     OW 2578   1.925   2.809   0.435 -0.2823 -0.3200 -0.6758
  860SOL    HW1 2579   1.898   2.743   0.362 -4.0955  3.6126  2.7000
  860SOL    HW2 2580   2.020   2.856   0.415  1.3930  1.6968 -1.2705
  861SOL     OW 2581   1.078   2.510   2.818 -0.7139  0.1672 -0.1887
  861SOL    HW1 2582   1.134   2.585   2.780  0.3032 -0.2461  0.4163
  861SOL    HW2 2583   1.115   2.473   2.904 -0.0273 -0.9622 -0.3946
  862SOL     OW 2584   2.861   2.535   1.615  0.4738 -0.3464  0.2604
  862SOL    HW1 2585   2.922   2.558   1.694  0.3760 -2.4623 -1.4307
  862SOL    HW2 2586   2.840   2.613   1.553 -1.0710 -1.7358 -1.0288
  863SOL     OW 2587   1.831   2.701   0.181  0.5374 -0.0033  0.5554
  863SOL    HW1 2588   1.890   2.619   0.207 -1.7587  0.5174  0.2771
  863SOL    HW2 2589   1.731   2.680   0.167 -0.3253  0.7174 -1.5497
  864SOL     OW 2590   1.908   1.179   2.848 -0.1263 -0.3215 -0.3435
  864SOL    HW1 2591   1.892   1.102   2.781  3.7901  0.3742 -1.8537
  864SOL    HW2 2592   1.970   1.151   2.923 -1.9381  0.1304  0.7160
  865SOL     OW 2593   2.252   1.859   0.589  0.0274 -0.1742 -0.0153
  865SOL    HW1 2594   2.289   1.899   0.676 -2.4414  0.9730  0.5849
  865SOL    HW2 2595   2.178   1.792   0.602 -0.0270  1.4951  0.3998
  866SOL     OW 2596   2.980   2.945   1.033  0.9540 -0.2382  0.0561
  866SOL    HW1 2597   2.985   2.962   0.930  0.2130  1.0756 -1.7756
  866SOL    HW2 2598   2.974   2.843   1.057 -2.5870  1.9888  1.4667
  867SOL     OW 2599   0.335   1.381   0.915  0.4443  0.2785 -0.2477
  867SOL    HW1 2600   0.318   1.300   0.859  0.9091  0.2885  1.6662
  867SOL    HW2 2601   0.299   1.472   0.872 -0.8350  1.2827 -0.5845
  868SOL     OW 2602   0.717   1.836   2.039 -0.0811 -0.1172 -0.5886
  868SOL    HW1 2603   0.679   1.811   2.134  0.2772 -0.3687  1.2654
  868SOL    HW2 2604   0.682   1.926   2.010 -1.5646 -2.1796 -2.2156
  869SOL     OW 2605   2.552   1.945   1.593 -0.8215 -0.0150  0.2100
  869SOL    HW1 2606   2.627   2.016   1.576  1.1697  1.0010 -0.8586
  869SOL    HW2 2607   2.586   1.858   1.632 -1.0538 -0.3761 -0.2152
  870SOL     OW 2608   2.308   2.649   1.274  0.4801 -0.0772  0.0090
  870SOL    HW1 2609   2.255   2.562   1.263  2.2995  0.7791 -2.5250
  870SOL    HW2 2610   2.303   2.675   1.379 -0.2971 -2.2601  2.7798
  871SOL     OW 2611   3.028   2.176   0.575 -0.1705 -0.5638  0.3266
  871SOL    HW1 2612   2.997   2.268   0.605 -0.2504 -0.4703 -1.5489
  871SOL    HW2 2613   2.955   2.129   0.517 -0.9295 -0.4325  0.4994
  872SOL     OW 2614   2.109   0.476   1.688 -0.0460 -0.1521  0.3410
  872SOL    HW1 2615   2.095   0.478   1.792  0.8651 -0.8912  1.2108
  872SOL    HW2 2616   2.212   0.461   1.664  1.8159  0.2779  2.2815
  873SOL     OW 2617   1.711   2.113   3.056 -0.3396 -0.1849 -0.2932
  873SOL    HW1 2618   1.633   2.127   3.120  0.2003  0.0147 -1.8892
  873SOL    HW2 2619   1.678   2.128   2.959 -0.3908 -0.5973  0.2076
  874SOL     OW 2620   0.653   2.443   0.771  0.6691 -0.6898  0.0712
  874SOL    HW1 2621   0.635   2.535   0.813  0.0035  0.2212  1.3600
  874SOL    HW2 2622   0.748   2.406   0.788 -2.2909 -1.1019  0.7116
  875SOL     OW 2623   2.287   1.577   1.421 -0.6404  0.1838 -0.0940
  875SOL    HW1 2624   2.388   1.599   1.456  0.6806  0.0530 -0.8585
  875SOL    HW2 2625   2.284   1.520   1.338 -1.9824 -0.4701  3.2002
  876SOL     OW 2626   0.090   2.224   2.750 -0.2328  0.0374  0.1348
  876SOL    HW1 2627   0.170   2.160   2.753 -0.1761  0.4992  0.2758
  876SOL    HW2 2628   0.118   2.320   2.767 -0.9719  3.8830 -0.2088
  877SOL     OW 2629   2.905   2.653   0.596 -0.2894  0.2330 -0.1254
  877SOL    HW1 2630   2.900   2.748   0.636 -1.5330 -1.0736 -0.6215
  877SOL    HW2 2631   2.967   2.585   0.652  0.5779 -1.2706  2.0438
  878SOL     OW 2632   2.816   1.523   2.201  0.8406  0.0201 -0.1616
  878SOL    HW1 2633   2.909   1.479   2.209  0.2317 -0.4504 -2.0803
  878SOL    HW2 2634   2.772   1.546   2.290  0.5224  1.1906  0.7524
  879SOL     OW 2635   2.360   0.074   1.167 -0.1606 -0.5278 -0.4681
  879SOL    HW1 2636   2.421  -0.010   1.184 -1.8499 -1.9852 -0.2730
  879SOL    HW2 2637   2.270   0.047   1.124  1.5861  1.0069 -1.9331
  880SOL     OW 2638   0.726   0.475   2.274  0.0753 -0.0224 -0.5445
  880SOL    HW1 2639   0.655   0.418   2.323 -0.8714  0.3250 -1.1943
  880SOL    HW2 2640   0.789   0.414   2.217 -1.7570 -0.6169  1.3967
  881SOL     OW 2641   0.861   0.061   0.475  0.2641  0.2385 -0.0488
  881SOL    HW1 2642   0.910  -0.031   0.486 -2.7696 -0.8380 -3.1307
  881SOL    HW2 2643   0.759   0.061   0.458  3.7200 -1.1360 -0.8179
  882SOL     OW 2644   2.713   1.717   1.687  0.1517  0.1703 -0.4320
  882SOL    HW1 2645   2.791   1.667   1.653 -2.1247  2.5588 -2.7081
  882SOL    HW2 2646   2.734   1.761   1.777 -0.5042  0.2855 -1.1250
  883SOL     OW 2647   0.883   0.568   0.993 -0.7619  0.0874 -0.0507
  883SOL    HW1 2648   0.925   0.665   1.003 -1.9460  0.4705 -0.5478
  883SOL    HW2 2649   0.908   0.503   1.071  2.4083  1.6894 -1.8919
  884SOL     OW 2650   1.210   1.769   1.171  0.3722  0.6382  0.6448
  884SOL    HW1 2651   1.161   1.693   1.108 -1.6972  0.7684 -2.0371
  884SOL    HW2 2652   1.196   1.867   1.139  2.6537 -1.4229 -0.7226
  885SOL     OW 2653   2.357   1.802   2.303  0.1945 -0.1419 -0.1159
  885SOL    HW1 2654   2.270   1.784   2.350  1.0557  2.6629 -1.3346
  885SOL    HW2 2655   2.356   1.901   2.280 -2.7484  1.3117  1.1365
  886SOL     OW 2656   2.632   0.425   1.788 -0.1315 -0.0301 -0.1324
  886SOL    HW1 2657   2.603   0.423   1.889 -0.2357 -1.2650  0.9274
  886SOL    HW2 2658   2.704   0.499   1.768  0.7114 -0.5254 -0.9505
  887SOL     OW 2659   0.102   2.048   1.323  0.0957 -0.1305 -0.1367
  887SOL    HW1 2660   0.046   1.986   1.264  3.1112  1.3891 -0.6576
  887SOL    HW2 2661   0.104   2.142   1.281 -1.9785 -0.2805 -0.0232
  888SOL     OW 2662   0.562   1.263   1.541 -0.1291 -0.1383  0.0061
  888SOL    HW1 2663   0.624   1.291   1.462  1.3676  3.6466 -0.3920
  888SOL    HW2 2664   0.533   1.165   1.531  2.5863 -0.3562  0.3569
  889SOL     OW 2665   0.816   2.481   2.148 -0.4671  0.2586 -0.3801
  889SOL    HW1 2666   0.785   2.393   2.197  1.2530 -1.6767 -0.1858
  889SOL    HW2 2667   0.874   2.468   2.063  0.1347 -4.3403 -0.9423
  890SOL     OW 2668   2.423   2.438   0.187  0.0496  0.7283  0.0085
  890SOL    HW1 2669   2.464   2.522   0.139 -1.6555  2.0389  1.7343
  890SOL    HW2 2670   2.362   2.460   0.271  0.1024 -1.3374  1.1085
  891SOL     OW 2671   2.550   1.685   0.717  0.5356 -0.3447  0.2183
  891SOL    HW1 2672   2.551   1.695   0.817 -0.9057  1.2380 -0.3325
  891SOL    HW2 2673   2.493   1.612   0.676 -0.7013  1.6778 -4.3569
  892SOL     OW 2674   0.377   0.308   2.175  0.2025 -0.6072 -0.5871
  892SOL    HW1 2675   0.355   0.383   2.108 -0.1179  0.4607  1.0994
  892SOL    HW2 2676   0.421   0.340   2.263 -0.9002  0.3887  2.3196
  893SOL     OW 2677   1.664   0.270   2.750  0.3013  0.2072 -0.2241
  893SOL    HW1 2678   1.743   0.332   2.784  2.2677 -1.8475  1.8764
  893SOL    HW2 2679   1.572   0.312   2.768  0.8151 -0.4668  0.0138
  894SOL     OW 2680   2.132   2.024   3.084  0.7602 -0.1825 -0.7723
  894SOL    HW1 2681   2.115   1.979   2.994 -0.3747 -1.2263  1.3763
  894SOL    HW2 2682   2.152   1.952   3.158 -1.6649 -0.4599  4.7145
  895SOL     OW 2683   2.803   1.426   0.933  0.7263 -0.1532  0.0657
  895SOL    HW1 2684   2.887   1.363   0.959  0.7713  1.3728  2.1901
  895SOL    HW2 2685   2.821   1.527   0.939 -0.7910  0.4225  1.7649
  896SOL     OW 2686   1.767   1.814   1.224  0.3015 -0.0559 -0.2504
  896SOL    HW1 2687   1.842   1.773   1.166 -0.4929  2.8255 -0.0565
  896SOL    HW2 2688   1.703   1.875   1.168  0.6851  1.0180  0.1313
  897SOL     OW 2689   0.331   0.569   0.027 -0.2776  0.9669  0.3276
  897SOL    HW1 2690   0.285   0.610  -0.053  2.5242  0.4058 -2.0113
  897SOL    HW2 2691   0.431   0.586   0.019 -0.6449  0.2787 -1.2973
  898SOL     OW 2692   0.568   2.883   1.094  0.4710  0.3057  0.4174
  898SOL    HW1 2693   0.520   2.976   1.113  0.1451  1.3875 -1.4177
  898SOL    HW2 2694   0.632   2.854   1.168  1.4848 -0.1333  1.3561
  899SOL     OW 2695   2.796   0.908   1.288 -0.0479 -0.0347 -0.1408
  899SOL    HW1 2696   2.735   0.904   1.200 -2.2975  2.4339 -0.1793
  899SOL    HW2 2697   2.887   0.952   1.261  1.0887 -1.9499 -0.9241
  900SOL     OW 2698   1.015   2.556   2.393  0.9250  0.3970 -0.3747
  900SOL    HW1 2699   0.934   2.600   2.342  0.9693 -2.4475 -0.4539
  900SOL    HW2 2700   0.991   2.516   2.485  0.4088 -0.3628 -0.6963
  901SOL     OW 2701   1.931   2.337   1.336  0.2577  0.1049 -0.6967
  901SOL    HW1 2702   1.922   2.307   1.241  1.0669  0.0489  1.8549
  901SOL    HW2 2703   2.026   2.335   1.377 -0.4128 -1.6487  0.9833
  902SOL     OW 2704   2.582   1.649   1.455 -0.0309 -0.1318 -0.6560
  902SOL    HW1 2705   2.632   1.667   1.548  1.5510  0.0582  1.2524
  902SOL    HW2 2706   2.651   1.635   1.376 -1.1442  0.3125 -1.4887
  903SOL     OW 2707   0.255   2.500   1.963  0.3441  0.1087 -0.4687
  903SOL    HW1 2708   0.157   2.460   1.939 -1.0210  1.5219  1.3988
  903SOL    HW2 2709   0.287   2.565   1.884 -1.2687  0.7487 -2.9063
  904SOL     OW 2710   2.064   0.795   2.478  0.4928 -0.1711  0.7616
  904SOL    HW1 2711   1.985   0.753   2.530  0.6085 -1.6748  1.3734
  904SOL    HW2 2712   2.048   0.791   2.372  2.9591  0.4910 -0.7539
  905SOL     OW 2713   2.826   0.079   2.558 -0.3112  0.0709  0.2585
  905SOL    HW1 2714   2.911   0.016   2.562 -0.7537 -3.1237 -1.8143
  905SOL    HW2 2715   2.849   0.181   2.543 -0.0974  0.3464 -2.5742
  906SOL     OW 2716   0.140   1.720   1.920  0.0155 -0.1461 -0.4104
  906SOL    HW1 2717   0.095   1.741   1.828  1.2267  3.8068  0.6708
  906SOL    HW2 2718   0.238   1.752   1.917 -0.2442  1.0777 -4.0581
  907SOL     OW 2719   0.215   2.453   0.999 -1.1277 -0.3562 -0.0842
  907SOL    HW1 2720   0.312   2.429   0.969  1.1750  1.6655  0.4894
  907SOL    HW2 2721   0.179   2.379   1.056 -2.0686 -0.3491  0.2026
  908SOL     OW 2722   2.731   2.996   0.378 -0.1042  0.0135  0.0728
  908SOL    HW1 2723   2.726   3.057   0.296  1.1634 -0.9819  1.4342
  908SOL    HW2 2724   2.770   2.902   0.350 -0.1608  0.0135  1.6402
  909SOL     OW 2725   0.789   1.021   2.640 -0.6463 -0.0057 -0.1619
  909SOL    HW1 2726   0.742   0.939   2.599 -0.2480 -1.9624 -0.9398
  909SOL    HW2 2727   0.875   1.052   2.591 -0.6096  0.9269 -0.3161
  910SOL     OW 2728   1.716   1.860   2.150 -0.2281 -0.2506 -0.1743
  910SOL    HW1 2729   1.747   1.915   2.066  1.8573  0.3002 -2.1175
  910SOL    HW2 2730   1.616   1.887   2.176 -1.6664  0.1425  1.1753
  911SOL     OW 2731   1.806   2.925   1.560  0.1584 -0.6775  0.1752
  911SOL    HW1 2732   1.895   2.937   1.512  0.3626 -0.1764  0.8544
  911SOL    HW2 2733   1.810   2.845   1.628  1.0194  1.4604 -1.1690
  912SOL     OW 2734   2.862   0.982   0.708  0.1732  0.1254  0.7310
  912SOL    HW1 2735   2.897   0.951   0.801  1.1948 -0.7228  0.8367
  912SOL    HW2 2736   2.832   1.081   0.707  1.8945 -1.6098 -4.5533
  913SOL     OW 2737   2.595   1.265   1.470 -0.1172  0.6702 -0.2878
  913SOL    HW1 2738   2.621   1.166   1.494 -1.1270  1.2960 -0.8517
  913SOL    HW2 2739   2.665   1.314   1.407  0.2228  2.0620  0.1194
  914SOL     OW 2740   2.877   0.545   1.230  0.9192  0.0591 -0.3697
  914SOL    HW1 2741   2.827   0.454   1.229  1.0175  2.5233  2.2275
  914SOL    HW2 2742   2.849   0.608   1.305  0.5164 -2.2868  0.7829
  915SOL     OW 2743   1.207   0.780   1.089 -0.2688  0.0666 -0.1969
  915SOL    HW1 2744   1.260   0.788   1.178 -0.8518  0.5676  1.0912
  915SOL    HW2 2745   1.099   0.799   1.100 -0.4826  0.7690  1.7268
  916SOL     OW 2746   0.585   0.024   0.663  0.3929  0.2870 -0.1634
  916SOL    HW1 2747   0.629   0.110   0.703 -1.3733  1.0084 -0.8151
  916SOL    HW2 2748   0.549   0.048   0.568  0.5955 -0.5183  1.1685
  917SOL     OW 2749   2.818   2.626   1.952  0.3435 -0.4625 -0.3466
  917SOL    HW1 2750   2.722   2.665   1.970  0.9474  0.7628 -1.9237
  917SOL    HW2 2751   2.889   2.696   1.925 -0.3747 -1.8567  2.3882
  918SOL     OW 2752   1.035   2.179   3.012  0.2700  0.1335 -0.3919
  918SOL    HW1 2753   1.020   2.217   3.105  3.1166  0.3033 -1.6705
  918SOL    HW2 2754   1.130   2.160   2.981 -0.4056  0.0546  1.4229
  919SOL     OW 2755   0.845   1.679   2.838  0.1748  0.0036 -0.9587
  919SOL    HW1 2756   0.895   1.752   2.780  1.1935  1.6093  2.7101
  919SOL    HW2 2757   0.793   1.608   2.783 -1.0799 -0.1488 -0.6200
  920SOL     OW 2758   1.213   1.889   2.429 -0.0486  0.6837 -0.0201
  920SOL    HW1 2759   1.291   1.900   2.364 -1.3237 -1.1140 -0.5313
  920SOL    HW2 2760   1.223   1.816   2.502  3.0746 -0.1264  0.5994
  921SOL     OW 2761   1.019   0.027   2.641 -0.1105 -0.1122  0.1078
  921SOL    HW1 2762   0.997   0.024   2.535 -0.0004 -1.8923 -3.8622
  921SOL    HW2 2763   0.961  -0.040   2.695  0.9641 -0.0380 -0.0178
  922SOL     OW 2764   2.161   2.393   2.794  0.4246 -0.4275 -0.3146
  922SOL    HW1 2765   2.204   2.297   2.789  0.3447  1.9877 -0.3364
  922SOL    HW2 2766   2.116   2.421   2.700 -1.5962 -2.2631  0.6475
  923SOL     OW 2767   1.235   2.680   0.264  0.0820 -0.5462 -0.5707
  923SOL    HW1 2768   1.302   2.759   0.279 -1.0111 -3.2856  2.6564
  923SOL    HW2 2769   1.280   2.588   0.272 -2.2676  0.9431 -1.7094
  924SOL     OW 2770   2.873   1.513   0.154  1.0881 -0.5566 -0.3942
  924SOL    HW1 2771   2.784   1.503   0.101  1.4335  2.7641 -0.6105
  924SOL    HW2 2772   2.952   1.458   0.114 -0.8710 -1.1926  0.9015
  925SOL     OW 2773   0.032   2.946   1.552  0.2692  0.4354  0.4110
  925SOL    HW1 2774  -0.051   3.001   1.582  0.7398  2.6119 -2.9589
  925SOL    HW2 2775   0.003   2.851   1.512  1.6088 -3.2331  2.8508
  926SOL     OW 2776   1.306   2.824   1.231 -0.1249  0.3770 -0.1483
  926SOL    HW1 2777   1.391   2.823   1.169  0.7279 -1.2470  0.8012
  926SOL    HW2 2778   1.322   2.892   1.308  1.2794 -0.3329 -1.8888
  927SOL     OW 2779   0.327   2.654   1.767  0.4091  0.0590  0.2882
  927SOL    HW1 2780   0.348   2.604   1.680  0.2923 -2.0218  2.0125
  927SOL    HW2 2781   0.266   2.742   1.750 -0.5621  0.8918 -1.3254
  928SOL     OW 2782   1.526   2.068   2.280  0.2797 -0.0702  0.2463
  928SOL    HW1 2783   1.560   2.155   2.237 -0.2418  1.3755 -2.7911
  928SOL    HW2 2784   1.422   2.054   2.281  1.6205  0.9647 -2.8027
  929SOL     OW 2785   2.390   2.496   2.878  0.1999  0.0119 -0.0419
  929SOL    HW1 2786   2.297   2.467   2.843 -0.1250 -2.0718 -0.3504
  929SOL    HW2 2787   2.467   2.471   2.810 -1.6766 -3.4072 -1.4393
  930SOL     OW 2788   2.186   1.990   1.065 -0.4640 -0.5269 -0.1122
  930SOL    HW1 2789   2.164   1.947   1.158 -0.5644 -1.0854  2.4311
  930SOL    HW2 2790   2.243   2.076   1.071  0.1596 -2.7746 -0.3115
  931SOL     OW 2791   0.554   1.714   2.712  0.3968 -0.1553 -0.2389
  931SOL    HW1 2792   0.602   1.764   2.796  0.1818  0.7889  2.1121
  931SOL    HW2 2793   0.583   1.610   2.715  0.0997 -2.1439  1.4584
  932SOL     OW 2794   0.439   0.107   2.939  0.0235 -0.3582 -0.3337
  932SOL    HW1 2795   0.529   0.159   2.941  0.5283  1.5980  1.6275
  932SOL    HW2 2796   0.453   0.015   2.970 -0.9036 -0.2696 -2.4632
  933SOL     OW 2797   0.999   0.820   3.048  0.3972 -0.4899 -0.2015
  933SOL    HW1 2798   1.022   0.856   3.141 -2.6939  0.9945  0.4966
  933SOL    HW2 2799   0.974   0.897   2.980  2.2772 -1.8250 -0.2469
  934SOL     OW 2800   0.785   2.961   2.630 -0.0546 -0.3829  0.0493
  934SOL    HW1 2801   0.791   2.895   2.544  1.2806 -0.7918 -0.1690
  934SOL    HW2 2802   0.831   2.926   2.719  0.4056  0.3899  0.4250
  935SOL     OW 2803   0.019   0.572   0.844 -0.5272 -0.1633 -0.1063
  935SOL    HW1 2804   0.012   0.549   0.739  1.1811  1.1267  0.0706
  935SOL    HW2 2805  -0.076   0.599   0.883 -4.1336  0.4622 -2.2388
  936SOL     OW 2806   1.088   2.825   0.092  0.6487 -0.1344  0.1170
  936SOL    HW1 2807   1.134   2.881   0.016 -0.2008  2.6262 -2.3091
  936SOL    HW2 2808   1.150   2.749   0.137  0.1161 -0.3431  0.1159
  937SOL     OW 2809   1.947   2.607   2.078  0.5942  0.5178 -0.2609
  937SOL    HW1 2810   1.845   2.626   2.086 -1.0890  0.5560  1.3209
  937SOL    HW2 2811   1.996   2.686   2.043  0.8644 -1.8623 -0.1898
  938SOL     OW 2812   2.791   2.091   1.568  0.0009 -0.2303 -0.6638
  938SOL    HW1 2813   2.755   2.187   1.550  1.6024  0.3354  2.3244
  938SOL    HW2 2814   2.892   2.092   1.571  0.3332  0.2565  0.9958
  939SOL     OW 2815   2.812   1.201   2.500 -0.0231 -0.0604  1.0349
  939SOL    HW1 2816   2.886   1.173   2.431 -2.2808 -0.6418  0.1460
  939SOL    HW2 2817   2.823   1.167   2.601 -3.9857 -2.0372  2.1556
  940SOL     OW 2818   1.032   0.421   2.721 -0.0150  0.2976 -0.0363
  940SOL    HW1 2819   1.107   0.352   2.733  1.7336 -1.7852 -1.8242
  940SOL    HW2 2820   0.938   0.381   2.708 -1.5496  0.4334 -2.5965
  941SOL     OW 2821   0.051   2.785   2.247  0.1046  0.2922  0.4672
  941SOL    HW1 2822   0.091   2.687   2.230  1.8060  1.5486  0.2726
  941SOL    HW2 2823   0.083   2.825   2.336 -0.9245  0.5360 -5.1403
  942SOL     OW 2824   0.106   0.114   2.506 -0.2761 -0.4134 -0.7635
  942SOL    HW1 2825   0.156   0.168   2.580  2.5046  2.3341  0.0233
  942SOL    HW2 2826   0.098   0.166   2.414 -1.5818 -1.0825 -4.5626
  943SOL     OW 2827   2.102   1.698   2.379  0.6063  0.6181 -0.0967
  943SOL    HW1 2828   2.093   1.622   2.308  0.8509 -1.4821  0.3347
  943SOL    HW2 2829   2.068   1.667   2.469 -0.8383  2.4561  2.8438
  944SOL     OW 2830   2.177   2.344   1.467 -0.1440  0.0740 -0.2189
  944SOL    HW1 2831   2.261   2.401   1.492  2.3237  0.7492 -0.0635
  944SOL    HW2 2832   2.148   2.265   1.534 -2.0026 -0.6519  1.9390
  945SOL     OW 2833   0.697   1.514   0.271  0.4726 -0.0374 -0.2426
  945SOL    HW1 2834   0.640   1.543   0.189 -0.4250  0.3097 -1.9921
  945SOL    HW2 2835   0.727   1.411   0.272 -1.4414 -3.1739  0.0037
  946SOL     OW 2836   0.405   0.952   2.435 -0.1987  0.2096  0.4706
  946SOL    HW1 2837   0.317   0.896   2.409 -2.8694  0.2878 -0.3205
  946SOL    HW2 2838   0.388   1.024   2.512 -0.9010  0.8721 -0.7079
  947SOL     OW 2839   1.528   0.459   3.083 -0.1274 -0.6189  0.3715
  947SOL    HW1 2840   1.501   0.512   2.994 -0.6837  1.7727  0.0466
  947SOL    HW2 2841   1.458   0.408   3.127  2.7482 -1.6007  0.9433
  948SOL     OW 2842   1.904   3.044   2.176  0.6392 -0.0226  0.0473
  948SOL    HW1 2843   1.928   2.987   2.090 -0.6908  1.5496  0.5261
  948SOL    HW2 2844   1.890   2.994   2.265 -0.3596 -0.5961 -0.6599
  949SOL     OW 2845   0.546   2.489   0.528 -0.4194  0.1189  0.4634
  949SOL    HW1 2846   0.592   2.565   0.475 -0.9146  0.8843 -0.4851
  949SOL    HW2 2847   0.587   2.449   0.615 -0.5840  0.8421  0.5740
  950SOL     OW 2848   0.188   2.194   3.033 -0.2950  0.4667 -0.4268
  950SOL    HW1 2849   0.088   2.224   3.030 -0.6255 -1.7459  2.3003
  950SOL    HW2 2850   0.213   2.117   2.967  1.7199 -1.1453 -1.2958
  951SOL     OW 2851   1.260   2.709   2.733  0.0966  0.4989 -0.0047
  951SOL    HW1 2852   1.337   2.652   2.780  1.4849 -3.6125 -0.8589
  951SOL    HW2 2853   1.281   2.737   2.636 -1.7987  0.0296  1.1931
  952SOL     OW 2854   0.006   1.714   0.386  0.3519  0.9137  0.2461
  952SOL    HW1 2855   0.082   1.775   0.400  0.5094 -0.9340  1.6041
  952SOL    HW2 2856   0.009   1.640   0.455 -0.1759 -1.0231  4.6810
  953SOL     OW 2857   2.502   1.748   0.262 -0.5925 -0.6743  0.4973
  953SOL    HW1 2858   2.521   1.647   0.250 -0.6854  0.8107  0.0207
  953SOL    HW2 2859   2.513   1.807   0.172 -1.4978  0.8174  1.4130
  954SOL     OW 2860   2.225   0.562   0.959 -0.2294  0.0269  0.1645
  954SOL    HW1 2861   2.194   0.579   0.860 -0.1844 -1.8549 -0.9681
  954SOL    HW2 2862   2.327   0.539   0.968  2.0859  0.6233  1.9927
  955SOL     OW 2863   0.178   2.588   1.282  0.4855  0.5040 -0.2744
  955SOL    HW1 2864   0.091   2.639   1.320 -2.6292  2.2420 -0.6879
  955SOL    HW2 2865   0.240   2.645   1.227 -0.4493 -0.9109  1.9781
  956SOL     OW 2866   2.780   2.459   2.458 -0.4615 -0.1052 -0.2435
  956SOL    HW1 2867   2.760   2.360   2.425  2.6430 -0.5113  1.6353
  956SOL    HW2 2868   2.806   2.528   2.390 -0.5976 -1.4895  0.1831
  957SOL     OW 2869   1.592   2.075   2.813 -0.1124  0.2653  0.4275
  957SOL    HW1 2870   1.559   1.980   2.841  0.7133 -1.3660 -0.2579
  957SOL    HW2 2871   1.596   2.089   2.708 -2.2641  2.2065 -1.2202
  958SOL     OW 2872   2.624   2.257   3.018  0.5051  0.0929  0.3735
  958SOL    HW1 2873   2.531   2.295   3.002  1.9964  1.0269  0.7831
  958SOL    HW2 2874   2.627   2.229   3.117  0.9954  0.9639 -0.9866
  959SOL     OW 2875   0.251   2.829   0.091  0.4633 -0.2118  0.1473
  959SOL    HW1 2876   0.159   2.798   0.053 -0.7133 -1.0565  2.4042
  959SOL    HW2 2877   0.302   2.755   0.147  0.9508 -0.3861  0.4778
  960SOL     OW 2878   2.033   0.485   1.947 -0.4719 -0.2595  0.2082
  960SOL    HW1 2879   1.941   0.528   1.931  1.0963  0.3218  0.7165
  960SOL    HW2 2880   2.052   0.477   2.050  1.7567 -0.2554 -2.0691
  961SOL     OW 2881   2.573   1.810   0.995  0.3562 -0.3110 -0.5476
  961SOL    HW1 2882   2.597   1.911   1.016  1.7169  1.1063  1.2765
  961SOL    HW2 2883   2.553   1.758   1.085  1.0797  2.3844 -0.2130
  962SOL     OW 2884   1.335   0.893   0.083  0.2947 -0.8304  0.6203
  962SOL    HW1 2885   1.347   0.930  -0.009  0.0396 -2.2073  1.0942
  962SOL    HW2 2886   1.305   0.967   0.149 -0.4561  4.4893 -3.0182
  963SOL     OW 2887   2.208   2.565   1.859 -0.2799 -0.0431  0.6463
  963SOL    HW1 2888   2.188   2.471   1.884  1.6811  2.8057  0.7053
  963SOL    HW2 2889   2.224   2.619   1.948  2.0615 -0.1822 -0.0766
  964SOL     OW 2890   2.361   0.342   1.683  0.0147 -0.1090 -0.2224
  964SOL    HW1 2891   2.459   0.365   1.708 -0.6654 -1.1381 -0.9858
  964SOL    HW2 2892   2.355   0.292   1.595  0.0874  0.4034  1.9739
  965SOL     OW 2893   2.641   3.064   0.124 -0.2276 -0.1768 -0.1158
  965SOL    HW1 2894   2.684   3.038   0.029 -1.5744  1.5682 -1.8366
  965SOL    HW2 2895   2.541   3.086   0.122  2.8986 -0.5259 -2.5880
  966SOL     OW 2896   2.565   2.535   2.214 -0.9502 -0.6216 -0.0273
  966SOL    HW1 2897   2.482   2.554   2.274 -0.3942 -0.0642  3.4511
  966SOL    HW2 2898   2.549   2.560   2.115 -0.2670  0.8281 -0.0179
  967SOL     OW 2899   2.805   2.802   2.493 -0.2380  0.0278 -0.0351
  967SOL    HW1 2900   2.848   2.725   2.434  2.0477  1.3286 -0.9187
  967SOL    HW2 2901   2.872   2.880   2.514 -0.2204  1.0525 -0.0982
  968SOL     OW 2902   1.896   1.009   2.638  0.3666 -0.6662 -0.0035
  968SOL    HW1 2903   1.803   1.049   2.607 -2.5248  0.6291 -0.8422
  968SOL    HW2 2904   1.965   0.989   2.567 -0.9729  1.4186  0.0555
  969SOL     OW 2905   2.825   2.450   1.101 -0.0430  0.0333 -0.1260
  969SOL    HW1 2906   2.748   2.443   1.028 -0.9961 -0.7308 -0.2174
  969SOL    HW2 2907   2.839   2.364   1.156  0.0855  0.9034 -1.2704
  970SOL     OW 2908   1.017   2.114   1.817  0.4656  0.6081  0.0941
  970SOL    HW1 2909   0.925   2.146   1.783  0.2898  1.5324  2.9929
  970SOL    HW2 2910   1.032   2.131   1.919 -1.1658 -0.4990 -0.3671
  971SOL     OW 2911   2.873   2.069   1.879  0.1700  0.0320 -0.6106
  971SOL    HW1 2912   2.850   2.177   1.884  0.5455  0.5975 -1.2128
  971SOL    HW2 2913   2.944   2.039   1.806  1.6138 -0.6466 -0.5713
  972SOL     OW 2914   2.005   2.487   0.216  0.1046 -0.4007 -0.1235
  972SOL    HW1 2915   2.034   2.432   0.136 -0.0107  2.2192 -0.1465
  972SOL    HW2 2916   2.004   2.439   0.302 -0.3260  2.3776  0.5272
  973SOL     OW 2917   1.304   1.050   1.889  0.5349  0.8063 -0.1068
  973SOL    HW1 2918   1.241   1.002   1.817  0.5272  0.7934 -0.4666
  973SOL    HW2 2919   1.261   1.123   1.948 -0.8233 -2.2433 -0.9819
  974SOL     OW 2920   1.596   0.561   1.960 -0.0356 -0.0019  0.2873
  974SOL    HW1 2921   1.674   0.609   1.906 -0.1622 -0.0299  1.5083
  974SOL    HW2 2922   1.508   0.621   1.948 -0.1936 -1.6921 -1.7025
  975SOL     OW 2923   2.368   3.087   0.062  0.1139  0.3134  0.4494
  975SOL    HW1 2924   2.308   3.003   0.075 -0.6689  0.9223  0.0039
  975SOL    HW2 2925   2.394   3.109  -0.034 -1.2853  0.2636  1.7976
  976SOL     OW 2926   1.909   2.857   2.361  0.0138  0.0397 -0.0589
  976SOL    HW1 2927   1.841   2.798   2.308 -0.4861 -0.6733 -1.6484
  976SOL    HW2 2928   1.957   2.799   2.437  0.5772 -0.1453 -1.8003
  977SOL     OW 2929   0.433   0.673   1.018  0.6240  0.5179  0.6994
  977SOL    HW1 2930   0.359   0.657   0.946  0.4494 -1.8176 -0.8374
  977SOL    HW2 2931   0.529   0.649   0.978  3.0640 -0.2778 -2.4564
   3.10000   3.10000   3.10000
