1000 SPC/Fw water molecules t=   1.68000 step= 1680
 2931
    1SOL     OW    1   2.488   0.385   2.655 -0.0778 -0.4163  0.0325
    1SOL    HW1    2   2.486   0.285   2.626  1.1030 -1.7843 -0.1836
    1SOL    HW2    3   2.568   0.418   2.716 -2.9542 -0.1351  1.2284
    2SOL     OW    4   2.708   2.974   1.383 -0.2679 -0.3822 -0.2835
    2SOL    HW1    5   2.803   2.954   1.337  0.0664 -1.3117  0.3147
    2SOL    HW2    6   2.705   2.949   1.486  0.1371 -0.0939  2.4995
    3SOL     OW    7   2.706   2.497   0.372  0.1851  0.0624 -0.2192
    3SOL    HW1    8   2.621   2.444   0.397  0.3736  0.6465 -0.3135
    3SOL    HW2    9   2.733   2.561   0.450  0.5503 -0.3016  0.6633
    4SOL     OW   10   1.326   1.587   2.442 -0.0929 -0.1877  0.1811
    4SOL    HW1   11   1.284   1.566   2.348 -0.2045 -0.6482 -1.9623
    4SOL    HW2   12   1.312   1.513   2.514  0.1532  0.5313  0.6815
    5SOL     OW   13   1.116   1.532   3.027  0.1782  0.5436 -0.0808
    5SOL    HW1   14   1.168   1.617   3.052 -2.1929 -0.6254  1.2353
    5SOL    HW2   15   1.043   1.558   2.959  0.7665  0.9284  0.3155
    6SOL     OW   16   0.262   1.806   3.082 -0.1762 -0.2864 -0.1606
    6SOL    HW1   17   0.192   1.839   3.148  2.6298 -0.0807 -0.5798
    6SOL    HW2   18   0.319   1.730   3.129 -1.5532  2.9409  3.5490
    7SOL     OW   19   2.496   0.916   1.035  0.3901 -0.1906  1.1167
    7SOL    HW1   20   2.393   0.897   1.056 -2.0379 -0.4533 -0.1249
    7SOL    HW2   21   2.518   0.877   0.939  0.7889 -0.1741  1.6529
    8SOL     OW   22   0.416   0.654   1.550  0.6832 -0.6732  0.0514
    8SOL    HW1   23   0.494   0.587   1.569 -0.7458 -0.5285  2.0995
    8SOL    HW2   24   0.433   0.709   1.463  1.3616 -1.4059  0.0465
    9SOL     OW   25   1.135   0.888   2.328 -0.2011  0.3812  0.0124
    9SOL    HW1   26   1.229   0.898   2.287 -1.1696  0.1229  2.5459
    9SOL    HW2   27   1.122   0.794   2.355 -0.9145  1.0450 -0.0406
   10SOL     OW   28   0.729   1.411   1.249 -0.6426 -0.4294  0.3351
   10SOL    HW1   29   0.639   1.378   1.200  0.1411  0.8797 -1.9601
   10SOL    HW2   30   0.718   1.507   1.285  0.5198  2.4683  2.2235
   11SOL     OW   31   2.340   2.884   0.919  0.1740 -0.0453  0.5830
   11SOL    HW1   32   2.296   2.826   0.990 -0.9620  0.4061 -0.0486
   11SOL    HW2   33   2.444   2.894   0.933 -2.4619 -1.2380  0.9731
   12SOL     OW   34   1.519   0.874   0.452  0.5867 -0.7368  0.2020
   12SOL    HW1   35   1.417   0.875   0.451 -0.2765 -0.5905  2.1842
   12SOL    HW2   36   1.559   0.794   0.401 -3.5283 -2.7409 -0.4630
   13SOL     OW   37   2.465   0.727   1.818 -0.3016 -0.3062 -0.1434
   13SOL    HW1   38   2.405   0.674   1.882 -2.1277  0.0205  0.6553
   13SOL    HW2   39   2.465   0.693   1.721  0.9996  2.0407  0.1299
   14SOL     OW   40   1.958   0.025   0.604  0.1428  0.1627 -0.3815
   14SOL    HW1   41   1.859   0.060   0.584  1.9548 -1.8535 -2.1390
   14SOL    HW2   42   1.960  -0.014   0.701  0.4472 -0.7090  1.8373
   15SOL     OW   43   1.917   2.090   2.673 -0.0670  0.3928 -0.0917
   15SOL    HW1   44   1.839   2.082   2.743  1.1903  3.0165  1.1010
   15SOL    HW2   45   1.920   2.005   2.607 -1.0121 -1.9178 -0.5294
   16SOL     OW   46   1.605   1.735   3.027 -0.5900  0.4825 -0.2901
   16SOL    HW1   47   1.586   1.639   3.067 -1.5424  0.9463  0.4313
   16SOL    HW2   48   1.702   1.771   3.045 -2.4240 -0.1366 -1.9551
   17SOL     OW   49   0.118   0.468   0.174 -0.0122  0.2231 -0.3158
   17SOL    HW1   50   0.201   0.481   0.114 -3.2449 -1.3523 -2.2644
   17SOL    HW2   51   0.034   0.492   0.124  2.3290 -0.2186  2.0445
   18SOL     OW   52   0.919   2.914   2.133  0.0068 -0.1117  0.1544
   18SOL    HW1   53   0.913   2.843   2.207 -0.1280  1.4334 -0.7001
   18SOL    HW2   54   0.987   2.879   2.065 -0.5599 -0.0228 -0.8052
   19SOL     OW   55   0.573   0.893   1.919 -0.4319  0.0566 -0.2377
   19SOL    HW1   56   0.615   0.876   2.011 -1.5109  0.0180  1.0780
   19SOL    HW2   57   0.626   0.962   1.858 -0.7554 -0.5660 -0.7458
   20SOL     OW   58   0.208   2.814   0.794  0.4040 -0.6662 -0.1528
   20SOL    HW1   59   0.104   2.823   0.784 -2.0150  0.6558 -0.5880
   20SOL    HW2   60   0.252   2.721   0.774 -1.9883  2.1874  2.0560
   21SOL     OW   61   2.740   0.298   2.048 -0.3956  0.1052 -0.4405
   21SOL    HW1   62   2.720   0.210   1.994  0.4647 -0.7613  1.0806
   21SOL    HW2   63   2.825   0.286   2.106 -0.2080 -0.2939  1.0061
   22SOL     OW   64   2.353   0.204   0.127  0.0128 -0.1046 -0.1247
   22SOL    HW1   65   2.405   0.135   0.067  2.0901 -0.8453  1.3980
   22SOL    HW2   66   2.279   0.260   0.086 -0.1918 -0.9780 -1.3312
   23SOL     OW   67   2.811   0.543   0.682  0.3123 -0.5933  0.3675
   23SOL    HW1   68   2.860   0.487   0.606  1.0825  1.6819 -2.2399
   23SOL    HW2   69   2.794   0.639   0.648 -1.8697 -0.9237 -0.7983
   24SOL     OW   70   0.310   1.888   0.453 -0.1985  0.7250  0.1235
   24SOL    HW1   71   0.287   1.972   0.393  0.5751 -1.9456  0.3336
   24SOL    HW2   72   0.404   1.849   0.439 -0.1963  1.3686  1.2359
   25SOL     OW   73   2.283   0.600   0.192 -0.3224  0.0437  0.6008
   25SOL    HW1   74   2.301   0.569   0.096  0.5041 -0.9739  0.0154
   25SOL    HW2   75   2.326   0.543   0.267 -0.8827  0.3822 -0.1305
   26SOL     OW   76   2.457   2.125   2.107  0.4170  0.1397  0.3792
   26SOL    HW1   77   2.538   2.173   2.150  0.2901  0.5450 -1.3408
   26SOL    HW2   78   2.483   2.059   2.029 -1.5193 -0.7100  1.2249
   27SOL     OW   79   0.611   2.995   0.152  0.2025  0.6457 -0.2771
   27SOL    HW1   80   0.706   3.030   0.123  0.6037  1.2092 -2.8184
   27SOL    HW2   81   0.548   2.982   0.067 -1.4059  0.0140 -4.0483
   28SOL     OW   82   1.572   0.138   0.293 -0.1425  0.0341 -0.0294
   28SOL    HW1   83   1.593   0.086   0.209 -0.0909  0.9940  1.1625
   28SOL    HW2   84   1.624   0.232   0.305  2.2559 -0.8649  1.8955
   29SOL     OW   85   2.027   0.588   0.288  0.2062 -0.4922 -0.1198
   29SOL    HW1   86   1.998   0.665   0.354  1.0712 -0.7991 -0.0873
   29SOL    HW2   87   2.125   0.596   0.256  1.1974 -1.3407  3.0005
   30SOL     OW   88   0.186   2.067   0.902 -0.2308  0.0334 -0.4066
   30SOL    HW1   89   0.184   1.996   0.822  0.5441 -2.5728  1.0209
   30SOL    HW2   90   0.087   2.091   0.928  0.4693 -1.5830 -2.0721
   31SOL     OW   91   2.130   0.059   2.406 -0.3314  0.3508  0.3727
   31SOL    HW1   92   2.094   0.022   2.496  1.0749 -0.5932  0.6685
   31SOL    HW2   93   2.064   0.052   2.324 -1.8755  1.5753  2.0267
   32SOL     OW   94   3.068   3.076   0.252 -0.7021  0.3364 -0.9041
   32SOL    HW1   95   3.033   2.978   0.274  0.0739  0.5366  1.6106
   32SOL    HW2   96   3.159   3.067   0.204 -2.8130 -1.2591  1.1530
   33SOL     OW   97   0.924   0.187   0.649  0.0422  0.0954 -0.1703
   33SOL    HW1   98   0.911   0.131   0.556 -3.5512 -0.9048 -0.3439
   33SOL    HW2   99   0.987   0.267   0.638 -1.2899 -0.4064  0.8782
   34SOL     OW  100   0.359   2.700   1.021  0.3975  0.2064 -0.2642
   34SOL    HW1  101   0.317   2.754   0.944 -2.4636  0.4015 -1.1358
   34SOL    HW2  102   0.447   2.749   1.047  0.5767  1.9821 -2.9581
   35SOL     OW  103   0.053   0.132   1.900  0.0758 -0.1202 -0.2772
   35SOL    HW1  104   0.092   0.038   1.931 -0.5099 -0.3621  2.1283
   35SOL    HW2  105  -0.007   0.135   1.815 -2.4223 -1.0798 -0.1649
   36SOL     OW  106   1.944   1.148   1.512 -0.2037  0.6331 -0.3123
   36SOL    HW1  107   2.041   1.110   1.516  0.6581 -1.9037 -1.1804
   36SOL    HW2  108   1.940   1.248   1.481 -1.1647 -0.5488  0.3399
   37SOL     OW  109   1.114   0.252   0.998 -0.1265  0.1717  0.4531
   37SOL    HW1  110   1.121   0.345   0.949  2.3239  2.7388  1.3927
   37SOL    HW2  111   1.203   0.196   0.974  0.2937  1.3625 -0.0915
   38SOL     OW  112   1.153   2.834   2.424 -0.0874 -0.5764 -0.2848
   38SOL    HW1  113   1.061   2.823   2.478 -2.1879  1.5405 -0.8431
   38SOL    HW2  114   1.184   2.929   2.435 -1.5576 -1.1289  2.9052
   39SOL     OW  115   2.478   1.425   3.011  0.1553  0.1914  0.0153
   39SOL    HW1  116   2.557   1.367   3.047  0.3615 -0.6738 -0.7314
   39SOL    HW2  117   2.402   1.433   3.079  1.5682  0.9842 -1.7651
   40SOL     OW  118   2.045   2.543   2.534  0.6425 -0.4585 -0.8298
   40SOL    HW1  119   2.015   2.639   2.523  2.4100 -3.4987 -1.4946
   40SOL    HW2  120   1.967   2.472   2.518 -0.1959  2.6159  0.1611
   41SOL     OW  121   3.057   0.736   2.778 -0.3113 -0.4912 -0.3355
   41SOL    HW1  122   3.021   0.824   2.824  2.4471  1.1141 -1.0999
   41SOL    HW2  123   2.981   0.699   2.723 -0.9299 -0.5881  0.3550
   42SOL     OW  124   1.779   1.731   0.524 -0.5070  0.1615 -0.2077
   42SOL    HW1  125   1.729   1.638   0.527 -0.4377 -1.2436  1.8527
   42SOL    HW2  126   1.800   1.763   0.428  0.2362  0.3015  0.6951
   43SOL     OW  127   0.465   1.673   1.121  0.1462  0.5036  0.1430
   43SOL    HW1  128   0.479   1.568   1.119 -2.9917 -1.4840 -0.2852
   43SOL    HW2  129   0.384   1.691   1.185 -0.8048 -1.5391 -2.0998
   44SOL     OW  130   1.664   2.335   2.950  0.1830 -0.3209 -0.9447
   44SOL    HW1  131   1.567   2.367   2.965  1.6150  2.1988  0.7144
   44SOL    HW2  132   1.706   2.392   2.875  0.2665  1.5726 -1.0058
   45SOL     OW  133   0.368   1.904   2.596  0.3766  0.2187  1.0162
   45SOL    HW1  134   0.353   1.896   2.497 -0.7662 -1.4394  0.9728
   45SOL    HW2  135   0.438   1.835   2.622 -1.9644 -0.6094 -0.3435
   46SOL     OW  136   1.291   0.742   0.254  0.9579 -0.4566 -0.6486
   46SOL    HW1  137   1.263   0.828   0.202  0.5311 -0.3922  1.6272
   46SOL    HW2  138   1.246   0.655   0.216  1.5382  2.0655  2.9759
   47SOL     OW  139   0.110   2.418   1.583  0.0059  0.0368  0.5165
   47SOL    HW1  140   0.092   2.334   1.641  1.9146 -1.6287  3.0092
   47SOL    HW2  141   0.146   2.402   1.486  0.8022 -0.8715 -1.4963
   48SOL     OW  142   2.637   0.673   0.116 -0.5813 -0.0350 -0.0233
   48SOL    HW1  143   2.606   0.658   0.214  0.8293 -1.6281  1.3319
   48SOL    HW2  144   2.737   0.699   0.103  1.2275  1.2343 -1.3911
   49SOL     OW  145   0.357   0.830   1.765 -0.4062  0.4341 -0.4707
   49SOL    HW1  146   0.440   0.838   1.828  0.8214 -1.2644 -1.7329
   49SOL    HW2  147   0.372   0.759   1.688 -3.0828 -0.0758  1.1072
   50SOL     OW  148   1.742   1.092   0.307 -0.2475 -0.2468 -0.0639
   50SOL    HW1  149   1.758   0.992   0.302  1.1960  1.0220  1.1565
   50SOL    HW2  150   1.673   1.121   0.380  0.1902  0.4923 -0.2849
   51SOL     OW  151   2.962   1.772   0.339 -0.5450 -0.7681 -0.2842
   51SOL    HW1  152   2.896   1.694   0.357  0.9566 -0.8809  1.7708
   51SOL    HW2  153   3.058   1.737   0.367 -1.5835 -1.0701  2.2198
   52SOL     OW  154   0.764   2.174   0.547  0.7169 -0.2924  0.0656
   52SOL    HW1  155   0.676   2.223   0.538  1.4314 -0.4339  0.9328
   52SOL    HW2  156   0.767   2.097   0.618  0.8731  0.1010  1.7440
   53SOL     OW  157   0.286   0.416   1.450  0.4591  0.3330 -0.5010
   53SOL    HW1  158   0.308   0.512   1.485 -1.7602  1.8605 -1.4128
   53SOL    HW2  159   0.262   0.416   1.351  1.5859  0.8177  0.3806
   54SOL     OW  160   1.713   0.423   0.003 -0.1769 -0.0278  0.1190
   54SOL    HW1  161   1.779   0.384   0.076  1.0250  0.1978  1.7259
   54SOL    HW2  162   1.613   0.422   0.025 -0.6258  0.9152 -0.4165
   55SOL     OW  163   0.749   2.968   0.614  0.8440 -0.3810  0.1643
   55SOL    HW1  164   0.681   3.048   0.608  2.1239 -0.5042 -0.4334
   55SOL    HW2  165   0.834   2.970   0.552  0.3877 -1.4706 -0.2498
   56SOL     OW  166   0.582   1.526   3.050 -0.2623 -0.2760 -0.4377
   56SOL    HW1  167   0.515   1.555   3.122  0.7114  1.3400 -1.7792
   56SOL    HW2  168   0.544   1.450   2.994 -0.4976 -0.8097 -1.1548
   57SOL     OW  169   1.684   2.469   2.332  0.3812  0.1696 -0.4306
   57SOL    HW1  170   1.769   2.412   2.350 -0.7364 -3.0338  0.0601
   57SOL    HW2  171   1.615   2.460   2.411  0.1564  0.2853 -1.6575
   58SOL     OW  172   0.653   0.220   1.071 -0.2637 -0.2017  0.0148
   58SOL    HW1  173   0.563   0.197   1.117 -0.1752 -1.1599  2.5711
   58SOL    HW2  174   0.711   0.134   1.072 -2.0539 -0.2248  0.0333
   59SOL     OW  175   0.448   2.373   2.655  0.1216  0.0945 -0.4821
   59SOL    HW1  176   0.462   2.268   2.678 -1.5515  0.2161 -2.1098
   59SOL    HW2  177   0.535   2.427   2.636  0.8192  0.2478  1.3338
   60SOL     OW  178   2.294   2.043   2.312  0.6664 -0.2522 -0.3952
   60SOL    HW1  179   2.347   2.080   2.231  0.5807  1.8700 -0.3922
   60SOL    HW2  180   2.324   2.092   2.399 -0.6811 -1.9564 -0.4402
   61SOL     OW  181   1.186   0.635   0.506  0.1523 -0.1106 -0.1296
   61SOL    HW1  182   1.100   0.686   0.523  2.0460  0.2157 -0.6399
   61SOL    HW2  183   1.225   0.677   0.421  0.3816  2.1732 -1.4078
   62SOL     OW  184   2.797   1.731   2.684  0.7912 -0.2813 -0.3560
   62SOL    HW1  185   2.707   1.679   2.687 -0.5431 -0.2197  0.9485
   62SOL    HW2  186   2.873   1.685   2.742 -0.3282 -0.0519 -1.0696
   63SOL     OW  187   0.543   0.922   0.208  0.2725 -0.4450 -0.1532
   63SOL    HW1  188   0.602   0.967   0.136 -1.3074 -1.3716 -0.9300
   63SOL    HW2  189   0.542   0.976   0.300 -0.3236 -0.5026  0.3847
   64SOL     OW  190   2.986   0.557   2.337  0.1975 -0.3491  0.2927
   64SOL    HW1  191   2.926   0.595   2.408  1.4151 -3.3109 -1.2709
   64SOL    HW2  192   3.004   0.614   2.252 -0.4314 -2.3738  2.4336
   65SOL     OW  193   0.240   1.440   0.714  0.1659  0.3493 -0.8577
   65SOL    HW1  194   0.229   1.536   0.760 -1.4325 -0.3069  1.8064
   65SOL    HW2  195   0.299   1.442   0.630  1.6947  1.2053 -1.5252
   66SOL     OW  196   2.573   0.338   0.567 -0.2031 -0.1505 -0.0502
   66SOL    HW1  197   2.681   0.336   0.573  1.4831  1.2345 -0.2951
   66SOL    HW2  198   2.526   0.267   0.627  3.0709  1.4703  1.1077
   67SOL     OW  199   0.602   2.528   1.461  0.1712  0.2925 -0.6213
   67SOL    HW1  200   0.674   2.499   1.534 -1.5428 -0.5709 -1.8382
   67SOL    HW2  201   0.513   2.476   1.464 -0.3340 -0.0397 -2.3506
   68SOL     OW  202   0.895   0.978   2.445  0.3854  0.3208 -0.2475
   68SOL    HW1  203   0.972   0.929   2.399 -0.8908 -1.7822  2.9234
   68SOL    HW2  204   0.858   1.058   2.385  0.7408  1.0613  1.2791
   69SOL     OW  205   0.777   2.655   2.356  0.0265 -0.3679  0.4820
   69SOL    HW1  206   0.815   2.635   2.261 -0.8147 -0.8713  0.1431
   69SOL    HW2  207   0.674   2.655   2.344  0.0666 -3.9093 -0.1938
   70SOL     OW  208   0.456   0.161   2.556  0.3701  0.0025  0.4167
   70SOL    HW1  209   0.374   0.128   2.608  1.5350 -0.4363 -2.4845
   70SOL    HW2  210   0.527   0.088   2.541 -3.0441  0.8855  1.4348
   71SOL     OW  211   1.044   1.753   0.310 -0.0619  0.1920 -0.3381
   71SOL    HW1  212   0.992   1.669   0.353 -2.2520 -2.3457  0.8523
   71SOL    HW2  213   0.990   1.783   0.225 -2.1771 -0.6502  0.3159
   72SOL     OW  214   1.851   0.264   2.163  0.0369  0.3633 -0.1750
   72SOL    HW1  215   1.908   0.344   2.181 -0.6609  0.2727  1.7729
   72SOL    HW2  216   1.898   0.173   2.179 -0.9243 -1.1833  1.5774
   73SOL     OW  217   2.769   2.199   2.492 -0.4279  0.2091 -0.5393
   73SOL    HW1  218   2.755   2.109   2.445  0.4574 -1.2648  1.2732
   73SOL    HW2  219   2.824   2.191   2.578 -1.5742 -1.0415 -1.1056
   74SOL     OW  220   2.702   2.914   2.121  0.2863  0.2700 -0.5911
   74SOL    HW1  221   2.613   2.905   2.171  2.3497  1.8203  1.9064
   74SOL    HW2  222   2.781   2.953   2.182 -2.4552  1.7510 -1.6662
   75SOL     OW  223   0.960   0.813   1.162 -0.3318  0.1000  0.2562
   75SOL    HW1  224   0.858   0.817   1.148 -0.8448  2.4828 -2.4062
   75SOL    HW2  225   0.987   0.849   1.253  0.8063 -1.8094  1.1195
   76SOL     OW  226   1.851   1.284   2.591 -0.1222  0.3365  1.1120
   76SOL    HW1  227   1.749   1.283   2.597  0.2897  1.9547  2.5995
   76SOL    HW2  228   1.885   1.371   2.628  1.0323 -0.3311  0.2569
   77SOL     OW  229   2.907   0.964   1.046 -0.2401 -0.5419  0.0137
   77SOL    HW1  230   2.871   0.866   1.057 -0.1901 -0.1480  2.1974
   77SOL    HW2  231   2.992   0.986   1.104  0.3464 -0.1323  2.9134
   78SOL     OW  232   1.995   1.417   1.338 -0.3638  0.7139  0.4978
   78SOL    HW1  233   2.066   1.374   1.274 -0.5502  1.5652  1.1029
   78SOL    HW2  234   1.909   1.441   1.288  1.7861  1.0105 -1.5850
   79SOL     OW  235   0.716   1.444   0.830  0.1978 -0.1118 -0.5826
   79SOL    HW1  236   0.621   1.400   0.824 -0.0259 -1.1562  1.2629
   79SOL    HW2  237   0.791   1.379   0.831 -1.6248  1.8242  3.1474
   80SOL     OW  238   0.589   0.458   1.567  0.5232 -0.0018 -0.4105
   80SOL    HW1  239   0.599   0.484   1.468  1.3592  1.3088  1.2193
   80SOL    HW2  240   0.614   0.361   1.586 -1.2296  3.1952  1.7390
   81SOL     OW  241   1.078   1.258   2.534  0.5169  0.2155 -0.3648
   81SOL    HW1  242   1.045   1.161   2.530 -1.4732 -1.2876 -0.1273
   81SOL    HW2  243   1.022   1.319   2.472 -2.2276 -0.6468 -0.3043
   82SOL     OW  244   0.899   2.936   1.506 -0.0531  1.0888  0.4092
   82SOL    HW1  245   0.956   2.868   1.454 -5.9261 -0.4341 -1.0262
   82SOL    HW2  246   0.848   2.999   1.440  0.0880  0.4068  1.6569
   83SOL     OW  247   2.636   2.368   0.856  0.5740  1.0825 -0.1726
   83SOL    HW1  248   2.541   2.334   0.841 -1.0815  0.6771  0.7496
   83SOL    HW2  249   2.638   2.472   0.843 -0.4611 -1.7504 -1.7465
   84SOL     OW  250   0.774   0.016   2.276  0.2067 -1.0472  0.3115
   84SOL    HW1  251   0.738  -0.034   2.359  3.1898 -0.2805  0.3858
   84SOL    HW2  252   0.825  -0.044   2.204 -0.1164  0.0709 -0.8417
   85SOL     OW  253   0.285   1.709   1.360  0.1184  0.5904 -0.0358
   85SOL    HW1  254   0.259   1.805   1.385  0.4674 -0.0329  0.8025
   85SOL    HW2  255   0.337   1.667   1.441  2.9695 -0.7489  1.0034
   86SOL     OW  256   0.421   1.047   1.489  0.5885 -0.3612 -0.4063
   86SOL    HW1  257   0.389   0.983   1.417  0.5361  1.5657  2.1003
   86SOL    HW2  258   0.506   1.011   1.536  1.5239  1.8927 -0.2991
   87SOL     OW  259   1.610   0.664   0.299 -0.4627 -0.2690 -0.3477
   87SOL    HW1  260   1.693   0.724   0.275 -0.4053  1.9127  2.6443
   87SOL    HW2  261   1.579   0.604   0.218  0.1970 -2.0326  3.4692
   88SOL     OW  262   1.584   1.332   0.262 -0.2582 -0.5201 -0.1306
   88SOL    HW1  263   1.646   1.250   0.232  0.4055  1.0367 -1.4547
   88SOL    HW2  264   1.482   1.319   0.234 -2.6697 -2.0301 -0.2682
   89SOL     OW  265   0.021   0.404   0.647 -0.1693 -0.1544  0.8292
   89SOL    HW1  266   0.118   0.363   0.647 -0.3129  1.4397 -1.2938
   89SOL    HW2  267  -0.049   0.338   0.601 -1.8474 -2.0162  1.8707
   90SOL     OW  268   0.760   1.538   0.153 -0.0272  0.2918  0.1619
   90SOL    HW1  269   0.831   1.461   0.162 -0.5706  1.4132  0.2968
   90SOL    HW2  270   0.696   1.525   0.071 -0.6984  1.3572 -0.7916
   91SOL     OW  271   1.287   1.498   1.747  0.6911  0.3616 -0.4217
   91SOL    HW1  272   1.217   1.552   1.798  1.9698 -0.6625 -1.3562
   91SOL    HW2  273   1.329   1.415   1.791 -0.1859  0.8828 -1.0085
   92SOL     OW  274   0.009   1.004   1.222 -0.0285 -0.1025  0.0508
   92SOL    HW1  275   0.081   1.059   1.173  0.4798 -1.1466  0.1338
   92SOL    HW2  276   0.027   1.001   1.321 -1.1177 -3.0742 -0.4394
   93SOL     OW  277   3.086   2.655   0.072 -0.4520 -1.2287 -0.4411
   93SOL    HW1  278   3.022   2.658  -0.009  3.0598  0.5409  1.0791
   93SOL    HW2  279   3.114   2.560   0.100 -3.3572  1.5344 -0.7394
   94SOL     OW  280   1.501   1.291   1.677 -0.2694  0.4746 -0.1164
   94SOL    HW1  281   1.569   1.216   1.694 -0.9069 -1.7731 -1.3028
   94SOL    HW2  282   1.539   1.386   1.661 -0.3444 -1.2392  0.6725
   95SOL     OW  283   1.338   2.468   2.919  0.4516  0.2046 -0.0779
   95SOL    HW1  284   1.250   2.479   2.977  0.7292 -2.3664 -0.3058
   95SOL    HW2  285   1.337   2.381   2.869 -0.7106  0.5600 -1.6819
   96SOL     OW  286   0.585   2.173   1.326 -0.3336 -0.1805 -0.2014
   96SOL    HW1  287   0.526   2.147   1.243 -2.6964  0.8547 -0.4858
   96SOL    HW2  288   0.602   2.091   1.387  1.1537  0.0701 -2.3475
   97SOL     OW  289   0.249   1.611   2.421  0.0811  0.0095 -0.6209
   97SOL    HW1  290   0.255   1.712   2.422 -1.1547  1.4523  0.7443
   97SOL    HW2  291   0.251   1.582   2.519  1.0048  1.0700 -1.5615
   98SOL     OW  292   2.164   1.663   1.203 -0.0063 -0.3230  0.0959
   98SOL    HW1  293   2.112   1.593   1.257 -2.6827  2.0528 -0.1903
   98SOL    HW2  294   2.246   1.630   1.143  1.4084  1.8269  0.6374
   99SOL     OW  295   2.631   2.044   1.271 -0.8558 -0.3285  0.5577
   99SOL    HW1  296   2.707   2.087   1.329 -1.1858 -3.4574  0.4425
   99SOL    HW2  297   2.554   1.997   1.322 -1.3206 -1.4253  1.2573
  100SOL     OW  298   2.323   0.373   2.136 -0.1134  0.1024 -0.1528
  100SOL    HW1  299   2.261   0.336   2.212  1.3304 -2.4876 -1.9661
  100SOL    HW2  300   2.415   0.403   2.172 -1.6600 -0.9257 -0.2322
  101SOL     OW  301   0.362   1.491   0.471  0.4161 -0.6208 -0.6880
  101SOL    HW1  302   0.379   1.562   0.549 -2.2837 -0.8106  0.2543
  101SOL    HW2  303   0.459   1.452   0.442  0.1214  0.3502  0.0461
  102SOL     OW  304   2.237   1.062   0.815  0.3155  0.1447  0.0530
  102SOL    HW1  305   2.208   0.967   0.802  0.9477 -2.1188  0.4409
  102SOL    HW2  306   2.326   1.085   0.762 -1.8413  1.3138 -1.7380
  103SOL     OW  307   2.276   0.083   0.376 -0.3563 -0.0718  0.6282
  103SOL    HW1  308   2.310   0.119   0.285 -0.9114  0.8460  0.8098
  103SOL    HW2  309   2.349   0.049   0.442 -1.4365  1.9959 -1.5820
  104SOL     OW  310   3.059   1.784   2.220 -0.3721 -0.2405 -0.8858
  104SOL    HW1  311   3.118   1.743   2.146  1.3502  1.6607  1.1220
  104SOL    HW2  312   2.971   1.820   2.186 -0.8512  2.5673  0.5143
  105SOL     OW  313   1.356   2.094   0.774 -0.4865 -0.0355 -0.1985
  105SOL    HW1  314   1.373   2.159   0.696 -0.7956 -0.6660  0.7081
  105SOL    HW2  315   1.343   1.991   0.750  1.2198 -1.2368  1.2415
  106SOL     OW  316   2.134   0.409   1.417 -0.2343  0.0403 -0.1170
  106SOL    HW1  317   2.073   0.321   1.424  0.5907 -1.5095 -0.6209
  106SOL    HW2  318   2.148   0.439   1.518 -0.0662  0.4566  2.3379
  107SOL     OW  319   1.900   2.898   1.163 -0.2438  0.9587  0.1874
  107SOL    HW1  320   1.831   2.969   1.197  1.6500 -1.6797 -0.3449
  107SOL    HW2  321   1.866   2.836   1.084 -0.8235  1.0957 -0.3063
  108SOL     OW  322   0.831   2.821   1.162  0.0040 -0.0963 -0.4247
  108SOL    HW1  323   0.841   2.749   1.088  0.7453 -1.0817 -0.4472
  108SOL    HW2  324   0.922   2.860   1.194  1.3778  2.1768 -1.5828
  109SOL     OW  325   2.167   0.173   0.710 -0.0162 -0.4538 -0.1527
  109SOL    HW1  326   2.095   0.112   0.661 -0.5360 -0.8723 -0.0798
  109SOL    HW2  327   2.140   0.205   0.806  1.2084 -0.3925  1.5775
  110SOL     OW  328   0.500   2.791   2.749 -0.1004  0.5951  0.0099
  110SOL    HW1  329   0.501   2.807   2.643 -0.1170  1.5322 -0.3897
  110SOL    HW2  330   0.577   2.729   2.774 -3.5247  2.4379  0.2776
  111SOL     OW  331   1.315   0.552   2.273  0.4638  0.5206 -0.0216
  111SOL    HW1  332   1.236   0.595   2.329  0.0747 -0.9092 -1.8135
  111SOL    HW2  333   1.371   0.478   2.316  1.3481 -0.5458 -2.1653
  112SOL     OW  334   1.731   0.441   1.524 -0.1900  0.3988  0.1069
  112SOL    HW1  335   1.705   0.490   1.432 -0.0508 -0.1420  2.1662
  112SOL    HW2  336   1.654   0.447   1.591 -3.2671  2.3771 -2.2317
  113SOL     OW  337   2.375   1.692   1.788 -0.4761 -0.7013  0.1914
  113SOL    HW1  338   2.404   1.594   1.776  0.8860  0.9357 -1.1921
  113SOL    HW2  339   2.350   1.715   1.883 -0.1637  1.1186 -0.1019
  114SOL     OW  340   0.307   0.412   1.161 -0.7136 -0.0101  0.0614
  114SOL    HW1  341   0.204   0.430   1.180  1.4415 -2.6245 -1.1560
  114SOL    HW2  342   0.334   0.424   1.061 -0.6111 -0.7406 -0.0737
  115SOL     OW  343   2.704   1.543   1.260 -0.6810 -0.3746  0.3739
  115SOL    HW1  344   2.689   1.439   1.274  1.5972 -0.0755 -0.7098
  115SOL    HW2  345   2.802   1.565   1.242 -1.6005 -0.8248  4.0530
  116SOL     OW  346   1.914   0.885   0.757 -0.0409  0.1040  0.0783
  116SOL    HW1  347   1.821   0.856   0.716  0.7408 -0.2897  0.8464
  116SOL    HW2  348   1.917   0.991   0.769  1.9268  0.6156 -0.3413
  117SOL     OW  349   1.144   0.366   0.559  0.1820  0.2578 -0.4107
  117SOL    HW1  350   1.156   0.468   0.572 -2.0818 -1.2734  0.3273
  117SOL    HW2  351   1.132   0.335   0.467 -1.7618 -0.0498  3.3860
  118SOL     OW  352   1.141   1.221   1.074  0.4871  0.0971 -0.2949
  118SOL    HW1  353   1.069   1.183   1.143 -1.0711 -0.2782  0.4894
  118SOL    HW2  354   1.166   1.321   1.093  2.0417 -2.4529  2.0373
  119SOL     OW  355   1.840   1.576   2.195  0.6681 -0.4150  0.0768
  119SOL    HW1  356   1.800   1.653   2.133 -2.3049  1.5100  1.9651
  119SOL    HW2  357   1.933   1.544   2.162 -0.6848  1.1185  1.5550
  120SOL     OW  358   2.968   2.814   0.267  0.0712 -0.3091  0.2619
  120SOL    HW1  359   3.020   2.757   0.196  0.4999 -0.8052 -0.1694
  120SOL    HW2  360   2.867   2.796   0.265  1.6940  1.0126  3.6545
  121SOL     OW  361   2.006   0.791   2.323  0.2101 -0.8010  0.0982
  121SOL    HW1  362   2.046   0.874   2.281 -0.1358 -1.6105  1.7277
  121SOL    HW2  363   2.029   0.705   2.267  2.6874 -0.3460  1.8521
  122SOL     OW  364   2.619   2.507   1.321  0.3259  0.0970  0.2063
  122SOL    HW1  365   2.660   2.457   1.233 -1.8221 -0.8458 -0.2608
  122SOL    HW2  366   2.652   2.461   1.408 -2.2505  0.7079  2.2382
  123SOL     OW  367   1.659   0.140   1.705  0.2056  0.2608 -0.1018
  123SOL    HW1  368   1.681   0.066   1.634 -0.2875  1.7694  0.3334
  123SOL    HW2  369   1.739   0.195   1.744 -2.1511  0.1938 -2.3657
  124SOL     OW  370   3.048   0.396   1.139 -0.2772  0.6827  0.3436
  124SOL    HW1  371   2.967   0.457   1.167 -1.8780  1.1929  1.8480
  124SOL    HW2  372   3.093   0.430   1.050  0.2537  0.9102  0.0835
  125SOL     OW  373   0.862   1.996   0.746  0.5743 -0.1968 -0.8057
  125SOL    HW1  374   0.959   1.981   0.770 -2.5019 -0.8701 -1.1418
  125SOL    HW2  375   0.800   2.039   0.816 -1.5650 -0.8652  1.8039
  126SOL     OW  376   1.882   2.319   2.452 -0.0565  0.2382 -0.5287
  126SOL    HW1  377   1.940   2.278   2.379 -1.4950 -1.3706  1.7679
  126SOL    HW2  378   1.871   2.257   2.537  2.1528 -1.0352  0.3378
  127SOL     OW  379   0.897   0.978   0.195 -0.2426  0.0409 -0.4352
  127SOL    HW1  380   0.908   0.999   0.296  1.3061 -0.1648 -1.6553
  127SOL    HW2  381   0.900   0.874   0.174  1.2452 -0.6434 -0.8583
  128SOL     OW  382   0.940   0.219   1.440 -0.2583 -0.4924 -0.3792
  128SOL    HW1  383   0.905   0.298   1.392  1.6068 -3.7950  1.0171
  128SOL    HW2  384   0.914   0.135   1.394 -1.8904  0.6618  2.1122
  129SOL     OW  385   1.863   0.711   1.842  0.0391 -0.0700  0.7289
  129SOL    HW1  386   1.868   0.690   1.738  0.2855  2.0852 -2.6154
  129SOL    HW2  387   1.893   0.808   1.861 -1.5231 -2.2104  0.1573
  130SOL     OW  388   1.356   2.246   1.004 -0.1622 -1.2155  0.4692
  130SOL    HW1  389   1.359   2.176   0.928  0.5217 -1.6212  3.3856
  130SOL    HW2  390   1.444   2.302   1.006  0.1500 -1.0883 -1.0622
  131SOL     OW  391   3.062   1.416   1.401  0.0082 -0.6566  0.4052
  131SOL    HW1  392   3.019   1.324   1.412 -2.7896  1.2555  0.3968
  131SOL    HW2  393   3.158   1.425   1.359 -2.7879 -2.3079 -1.2950
  132SOL     OW  394   2.070   2.429   0.561 -0.2550  0.1121 -0.0779
  132SOL    HW1  395   1.968   2.436   0.557  0.1791  0.7312  1.6059
  132SOL    HW2  396   2.104   2.336   0.600  0.7930 -1.4349 -1.7704
  133SOL     OW  397   1.752   2.513   2.757  0.1471  0.4751  0.1836
  133SOL    HW1  398   1.682   2.493   2.686  0.7836  0.4106 -1.6684
  133SOL    HW2  399   1.731   2.603   2.802 -1.8066 -2.6394 -0.4131
  134SOL     OW  400   2.653   2.398   1.598 -0.7119 -0.1844  0.1463
  134SOL    HW1  401   2.612   2.371   1.692 -0.4581  1.5620  1.3469
  134SOL    HW2  402   2.699   2.492   1.606 -0.8642 -0.3568  2.8457
  135SOL     OW  403   0.818   1.419   2.658  0.1878 -0.4916  0.2836
  135SOL    HW1  404   0.785   1.335   2.714  1.6245 -0.3180  1.8965
  135SOL    HW2  405   0.795   1.413   2.558 -0.6992  1.5795  2.2087
  136SOL     OW  406   1.167   2.013   0.403 -0.3104 -0.2505 -0.2053
  136SOL    HW1  407   1.122   2.089   0.458 -0.9671  0.7760  1.5891
  136SOL    HW2  408   1.105   1.930   0.396 -1.3619 -0.6553 -0.1934
  137SOL     OW  409   0.415   1.218   2.331 -0.1983  0.1977 -0.2923
  137SOL    HW1  410   0.314   1.187   2.323  1.1949  1.6761 -1.5404
  137SOL    HW2  411   0.475   1.150   2.380 -2.2144 -1.2505  1.0373
  138SOL     OW  412   2.448   1.498   0.233  0.2618 -0.3028  0.0211
  138SOL    HW1  413   2.367   1.460   0.178 -0.1812 -2.2237 -0.6927
  138SOL    HW2  414   2.466   1.452   0.329  1.6331  0.6277 -0.0091
  139SOL     OW  415   1.868   2.665   1.591 -0.1440 -0.2144 -0.2615
  139SOL    HW1  416   1.770   2.690   1.564  0.2667  0.3011 -2.6280
  139SOL    HW2  417   1.905   2.588   1.539 -3.5010 -0.4033  0.6139
  140SOL     OW  418   2.981   2.953   2.561  0.3430  0.4415 -0.0191
  140SOL    HW1  419   3.039   2.875   2.606  2.8623 -1.0119  0.7283
  140SOL    HW2  420   3.034   3.039   2.531  2.2607 -0.9084 -2.0241
  141SOL     OW  421   1.317   1.646   1.480  0.3290 -0.2740 -0.4594
  141SOL    HW1  422   1.252   1.719   1.519  0.0572  1.6020  0.4905
  141SOL    HW2  423   1.297   1.559   1.533  0.8753  0.8096  0.2516
  142SOL     OW  424   1.579   0.689   2.236  0.0574 -0.3549 -0.6580
  142SOL    HW1  425   1.550   0.719   2.141  1.4549 -0.0055  0.4690
  142SOL    HW2  426   1.499   0.667   2.297  3.2149  0.0841 -1.3256
  143SOL     OW  427   2.744   0.804   0.547 -0.0413 -0.2087 -0.1520
  143SOL    HW1  428   2.806   0.830   0.468  1.1267  1.2237  1.5454
  143SOL    HW2  429   2.765   0.869   0.630 -1.2946 -1.4559 -1.5814
  144SOL     OW  430   2.900   1.148   1.440 -0.1297 -0.2442 -0.7202
  144SOL    HW1  431   2.895   1.163   1.543 -2.3620  0.5890 -1.1491
  144SOL    HW2  432   2.966   1.072   1.425 -0.5514  1.2517 -0.4081
  145SOL     OW  433   0.886   1.762   0.106  0.3325 -0.5347 -0.0771
  145SOL    HW1  434   0.898   1.780   0.005 -1.0776 -0.4644 -0.9165
  145SOL    HW2  435   0.855   1.666   0.126  0.2567  1.6775 -0.4461
  146SOL     OW  436   2.458   0.652   1.508  0.6222 -0.5976  0.1186
  146SOL    HW1  437   2.459   0.567   1.454 -0.5630  1.2441  2.3202
  146SOL    HW2  438   2.393   0.724   1.468 -1.4350 -1.4085 -0.2763
  147SOL     OW  439   1.067   2.477   0.565  0.1647 -0.5572  0.1505
  147SOL    HW1  440   1.037   2.548   0.494 -3.2037 -0.6719  0.0829
  147SOL    HW2  441   1.168   2.455   0.555  0.4857  2.0691  0.1533
  148SOL     OW  442   1.580   1.447   0.003  0.2473 -0.5372  0.0296
  148SOL    HW1  443   1.599   1.346  -0.017 -0.0002  0.4594 -1.3143
  148SOL    HW2  444   1.562   1.471   0.102  0.6194  1.8313 -2.1266
  149SOL     OW  445   0.663   1.493   1.979  0.3004  0.0489  0.5081
  149SOL    HW1  446   0.579   1.467   2.034  1.6697  0.7334  0.2522
  149SOL    HW2  447   0.672   1.460   1.880  2.0669  1.9066 -1.3028
  150SOL     OW  448   3.029   1.186   0.933 -0.1676  0.2360  0.3422
  150SOL    HW1  449   3.117   1.186   0.980 -0.9317  0.0178 -0.9599
  150SOL    HW2  450   2.971   1.103   0.962 -0.5910 -0.0241 -0.4973
  151SOL     OW  451   0.133   0.901   2.098 -0.0931 -0.8225 -0.0260
  151SOL    HW1  452   0.160   0.985   2.046 -2.5180  1.1691  0.7871
  151SOL    HW2  453   0.206   0.827   2.090 -2.5484  0.0476  0.0201
  152SOL     OW  454   1.479   1.870   1.107  0.0008  0.2569  0.2468
  152SOL    HW1  455   1.544   1.954   1.091 -1.8587  1.2118  0.8180
  152SOL    HW2  456   1.376   1.891   1.099  1.6928 -0.8398 -0.1411
  153SOL     OW  457   0.137   1.496   0.255 -0.5146  0.0095  0.4616
  153SOL    HW1  458   0.090   1.404   0.242  0.6913 -1.7336  2.7914
  153SOL    HW2  459   0.114   1.536   0.350 -2.3231  0.8764  1.0640
  154SOL     OW  460   2.348   1.826   2.787  0.4057  0.4957  0.0914
  154SOL    HW1  461   2.380   1.734   2.762  0.0483  1.4182  0.2667
  154SOL    HW2  462   2.394   1.901   2.730 -0.9339  0.9976  2.5792
  155SOL     OW  463   2.476   1.321   0.436  0.6184 -0.3096  0.2271
  155SOL    HW1  464   2.575   1.302   0.414  2.9080  0.4155  2.3716
  155SOL    HW2  465   2.407   1.260   0.385  1.0055  0.4079 -1.3085
  156SOL     OW  466   2.452   0.807   0.765 -0.2748 -0.5174  0.0962
  156SOL    HW1  467   2.348   0.821   0.754  1.2310 -2.5152 -0.1559
  156SOL    HW2  468   2.515   0.867   0.712  2.6154 -1.0575  0.8889
  157SOL     OW  469   1.273   3.082   3.067  0.0115  0.3639 -0.0142
  157SOL    HW1  470   1.308   3.035   2.984  1.8836  3.6623 -1.7172
  157SOL    HW2  471   1.301   3.180   3.077  1.0749 -0.0216 -2.3528
  158SOL     OW  472   1.088   1.927   1.835 -0.4640 -0.2783  0.5312
  158SOL    HW1  473   1.135   2.017   1.835  0.7187 -0.7121 -1.9150
  158SOL    HW2  474   0.992   1.925   1.883 -3.0311  0.1229  2.2178
  159SOL     OW  475   0.771   0.419   1.272 -0.2419  0.0364 -0.5152
  159SOL    HW1  476   0.732   0.509   1.300 -0.5913  0.5318 -1.2836
  159SOL    HW2  477   0.726   0.373   1.190  1.0048  0.5648  0.1469
  160SOL     OW  478   1.427   2.474   1.443  0.0870  0.2619 -0.3559
  160SOL    HW1  479   1.368   2.391   1.471 -2.4747  1.5281 -1.4175
  160SOL    HW2  480   1.527   2.444   1.428 -0.1722  0.3979 -0.9279
  161SOL     OW  481   0.016   2.620   0.438  0.1337  0.2322 -0.5099
  161SOL    HW1  482  -0.024   2.526   0.413 -0.0478  3.0364  2.5020
  161SOL    HW2  483  -0.038   2.697   0.407  2.8440 -0.8804  0.3930
  162SOL     OW  484   2.512   1.884   0.491  0.0741  0.4087 -0.1001
  162SOL    HW1  485   2.566   1.898   0.404 -0.7705  0.5055  1.7235
  162SOL    HW2  486   2.458   1.793   0.507  2.4374  0.2269 -3.3004
  163SOL     OW  487   1.978   2.740   0.762  0.0704 -0.2826  0.0654
  163SOL    HW1  488   1.984   2.774   0.660  2.6001 -1.4061  1.1745
  163SOL    HW2  489   2.036   2.655   0.779 -0.5754 -0.3870 -0.2199
  164SOL     OW  490   3.098   0.136   1.223  0.2150 -0.4599  0.4856
  164SOL    HW1  491   3.072   0.238   1.198 -1.1556 -2.1149  0.5081
  164SOL    HW2  492   3.150   0.120   1.313  0.7935  1.7241 -2.1090
  165SOL     OW  493   1.109   1.451   0.615 -0.3228 -0.0536 -0.4477
  165SOL    HW1  494   1.105   1.520   0.691  1.4950 -2.8031  2.2225
  165SOL    HW2  495   1.041   1.463   0.537  0.2148 -0.1887 -2.5965
  166SOL     OW  496   1.511   1.003   1.833  0.1158  0.0523  0.3468
  166SOL    HW1  497   1.437   1.062   1.877  1.8760  1.3615 -0.9482
  166SOL    HW2  498   1.579   1.060   1.780 -1.9240 -0.7707 -0.3150
  167SOL     OW  499   0.668   2.017   1.530 -0.1057 -0.3438  0.3067
  167SOL    HW1  500   0.624   2.086   1.592  0.8331  1.4080 -1.5682
  167SOL    HW2  501   0.672   1.926   1.573 -0.2627  0.6564  0.6709
  168SOL     OW  502   1.626   2.292   0.139 -0.1723 -0.2214 -0.0781
  168SOL    HW1  503   1.716   2.309   0.086 -0.9017  0.5243 -2.4264
  168SOL    HW2  504   1.637   2.270   0.240 -1.1243  1.3338 -0.1672
  169SOL     OW  505   3.092   2.577   2.167 -0.5007  0.4345 -0.3347
  169SOL    HW1  506   3.101   2.498   2.103  1.3706  0.6502  1.3451
  169SOL    HW2  507   3.149   2.564   2.257 -0.0053 -0.9947  0.4263
  170SOL     OW  508   1.148   0.134   2.064  0.3058 -0.3469  0.3404
  170SOL    HW1  509   1.239   0.178   2.089 -1.8075  0.0510  0.9794
  170SOL    HW2  510   1.134   0.130   1.963 -0.3859 -0.5941 -1.3643
  171SOL     OW  511   0.165   0.862   2.422 -0.0339  0.0485  0.0505
  171SOL    HW1  512   0.083   0.849   2.479  0.0161  0.0168  0.2077
  171SOL    HW2  513   0.155   0.941   2.355  4.1859 -0.7827  0.0945
  172SOL     OW  514   1.007   0.988   2.834 -0.1204 -0.3201 -0.5271
  172SOL    HW1  515   0.946   1.034   2.905 -1.0443  0.2112 -1.8607
  172SOL    HW2  516   0.960   0.947   2.749 -1.4545  1.4623 -0.1317
  173SOL     OW  517   0.385   2.584   0.029 -0.7332  0.1308 -0.0308
  173SOL    HW1  518   0.370   2.547  -0.060  0.0472  1.8829  0.9546
  173SOL    HW2  519   0.362   2.528   0.107 -0.4450 -0.2218 -1.8410
  174SOL     OW  520   1.463   2.869   1.046  0.1571  0.2462  0.0056
  174SOL    HW1  521   1.544   2.917   1.005 -0.8342 -1.5272 -0.9337
  174SOL    HW2  522   1.445   2.774   1.002 -1.5891 -0.1528 -0.2811
  175SOL     OW  523   0.479   3.042   1.717  0.3452 -0.3970  0.0039
  175SOL    HW1  524   0.530   3.054   1.807  0.5472 -0.6196  2.1881
  175SOL    HW2  525   0.432   3.131   1.691  0.3275  1.7969  1.5462
  176SOL     OW  526   2.639   0.458   3.068 -0.6965  0.7356  0.3803
  176SOL    HW1  527   2.641   0.539   3.133  1.6987  1.5263  0.8812
  176SOL    HW2  528   2.703   0.385   3.106  0.6047  2.0653  1.5005
  177SOL     OW  529   0.393   0.260   0.867 -0.0533 -0.1993 -0.6652
  177SOL    HW1  530   0.359   0.166   0.895 -0.4268 -2.9549 -0.1497
  177SOL    HW2  531   0.497   0.250   0.860  0.3527 -1.8086 -1.4900
  178SOL     OW  532   0.004   2.739   2.669 -0.4101 -0.3233  0.4904
  178SOL    HW1  533  -0.017   2.636   2.662 -1.3269  1.5102  2.0009
  178SOL    HW2  534   0.080   2.753   2.738 -2.2083  1.4440  1.0774
  179SOL     OW  535   2.975   1.606   1.203 -0.2294  0.2852  0.4728
  179SOL    HW1  536   3.052   1.629   1.135  0.5001 -0.9845 -1.8144
  179SOL    HW2  537   3.013   1.538   1.269  0.8823  2.0247 -1.9419
  180SOL     OW  538   0.263   1.408   1.741  0.5850  0.6804 -0.0589
  180SOL    HW1  539   0.326   1.340   1.784 -2.1396  2.3997 -0.5738
  180SOL    HW2  540   0.180   1.434   1.801 -0.7860  2.2771 -0.0743
  181SOL     OW  541   2.984   1.793   2.482 -0.0823 -0.4532  0.3461
  181SOL    HW1  542   3.024   1.786   2.386  0.3821  1.0098  0.1089
  181SOL    HW2  543   2.884   1.791   2.474  1.8263 -0.0138 -1.6845
  182SOL     OW  544   2.238   1.371   1.190 -0.4298  0.3073 -0.2630
  182SOL    HW1  545   2.244   1.268   1.159 -0.4290  0.2060  0.4530
  182SOL    HW2  546   2.317   1.431   1.169 -1.1430 -1.3929  0.7235
  183SOL     OW  547   1.440   2.237   2.411  0.6429 -0.2432 -0.0625
  183SOL    HW1  548   1.383   2.167   2.465  1.6571 -0.9719  2.6896
  183SOL    HW2  549   1.535   2.199   2.393  1.7196 -1.8569 -1.0440
  184SOL     OW  550   2.179   0.790   0.743 -0.0058  0.3167 -0.1806
  184SOL    HW1  551   2.081   0.805   0.771 -2.8250 -0.6917 -3.1297
  184SOL    HW2  552   2.207   0.692   0.732  1.0576 -1.3152 -2.2681
  185SOL     OW  553   1.581   2.790   1.999 -0.0725 -0.0776 -0.1336
  185SOL    HW1  554   1.502   2.853   2.024  1.3860  1.6962 -0.1839
  185SOL    HW2  555   1.632   2.762   2.084 -0.1827  0.0987  1.4455
  186SOL     OW  556   0.077   2.204   1.776 -0.8248 -0.4840  0.3165
  186SOL    HW1  557   0.044   2.261   1.855  0.2511  2.6686  0.5716
  186SOL    HW2  558   0.147   2.143   1.815  0.8404  0.5066 -2.5032
  187SOL     OW  559   1.328   0.695   1.648 -0.6984  0.3493 -0.4434
  187SOL    HW1  560   1.430   0.723   1.623  0.9694  2.0941  2.9659
  187SOL    HW2  561   1.325   0.609   1.704  2.3928 -1.3178 -2.6111
  188SOL     OW  562   2.705   2.669   1.569 -0.5797  0.1189  0.4105
  188SOL    HW1  563   2.658   2.760   1.600  2.5406  1.0246 -0.1172
  188SOL    HW2  564   2.686   2.646   1.472  0.3630  2.2456  1.8117
  189SOL     OW  565   0.944   1.207   1.335 -0.4863  0.6926  0.1334
  189SOL    HW1  566   0.964   1.255   1.423  0.4401  0.3539 -0.5928
  189SOL    HW2  567   0.906   1.272   1.265  0.7880 -1.3732 -1.8729
  190SOL     OW  568   1.468   1.897   1.507 -0.6963  0.0909  0.4374
  190SOL    HW1  569   1.422   1.809   1.475 -0.0556  0.2013 -0.4976
  190SOL    HW2  570   1.452   1.908   1.613 -0.8703 -2.0455 -0.1167
  191SOL     OW  571   0.847   0.781   1.506  0.4677  0.3218 -0.1193
  191SOL    HW1  572   0.899   0.714   1.555 -1.5000  3.5297  0.3488
  191SOL    HW2  573   0.908   0.837   1.443 -2.4176  0.3206  0.1230
  192SOL     OW  574   1.816   2.438   1.100  0.0559  0.0951  0.4930
  192SOL    HW1  575   1.719   2.397   1.084  2.3382 -1.1430 -0.5235
  192SOL    HW2  576   1.885   2.363   1.057  0.4145 -2.0056 -2.0172
  193SOL     OW  577   0.542   0.581   0.429 -0.2613 -0.4433 -0.7837
  193SOL    HW1  578   0.482   0.493   0.429  0.0945 -0.5675 -1.4623
  193SOL    HW2  579   0.605   0.589   0.347 -0.5828  1.5380  2.9234
  194SOL     OW  580   0.388   0.820   1.301  0.1654  0.2034 -0.9301
  194SOL    HW1  581   0.299   0.797   1.254 -0.9227 -0.6091 -1.5713
  194SOL    HW2  582   0.465   0.828   1.238 -0.2740  0.4389  2.8645
  195SOL     OW  583   1.033   2.950   0.511  0.4072  0.0030  0.5897
  195SOL    HW1  584   1.009   2.850   0.498  1.1522  0.4326  1.6349
  195SOL    HW2  585   1.133   2.968   0.527 -0.3450 -1.9782 -0.1101
  196SOL     OW  586   0.239   1.416   1.312 -0.0816 -0.3765  0.2057
  196SOL    HW1  587   0.283   1.500   1.346  1.1598 -3.4327  2.7590
  196SOL    HW2  588   0.248   1.337   1.380 -0.7747 -2.3593 -1.5571
  197SOL     OW  589   0.846   1.968   0.286 -0.0842 -0.9988 -0.3824
  197SOL    HW1  590   0.868   1.921   0.377 -2.0969 -1.3539 -2.3967
  197SOL    HW2  591   0.869   1.909   0.204  0.9278 -1.7390 -1.4109
  198SOL     OW  592   0.269   1.207   0.345 -0.3272 -0.0812 -0.1278
  198SOL    HW1  593   0.170   1.175   0.335  1.8247 -0.0084  1.4175
  198SOL    HW2  594   0.278   1.303   0.388 -1.4787 -1.0746 -0.4146
  199SOL     OW  595   2.222   0.443   2.592  0.3519 -0.5942  0.0472
  199SOL    HW1  596   2.151   0.407   2.662 -0.3908  0.6103  3.1814
  199SOL    HW2  597   2.323   0.428   2.624  0.0491 -2.6461  0.8586
  200SOL     OW  598   3.033   2.884   0.804  0.2077 -0.1254 -0.4398
  200SOL    HW1  599   3.041   2.978   0.852  0.1004  0.5175  0.4880
  200SOL    HW2  600   2.988   2.894   0.710  4.5402  0.9977 -2.1677
  201SOL     OW  601   0.906   0.698   0.511  0.1231  0.1078  0.7175
  201SOL    HW1  602   0.918   0.786   0.557 -0.6874 -2.9869 -0.6148
  201SOL    HW2  603   0.854   0.627   0.566 -2.2041  1.9179 -0.5768
  202SOL     OW  604   0.472   1.219   1.870 -0.1174 -0.0199  0.5174
  202SOL    HW1  605   0.565   1.184   1.837  0.6686 -1.3331  2.4937
  202SOL    HW2  606   0.480   1.283   1.955 -0.0823  2.0125  2.3277
  203SOL     OW  607   0.687   0.187   1.573 -0.0717 -0.2125 -0.3017
  203SOL    HW1  608   0.709   0.100   1.517  1.1891 -1.9227 -0.5824
  203SOL    HW2  609   0.772   0.226   1.612  1.2674 -0.3855 -1.9793
  204SOL     OW  610   2.104   1.826   2.930 -0.5621  0.1871  0.4859
  204SOL    HW1  611   2.059   1.732   2.924 -1.6704 -1.9947 -1.7919
  204SOL    HW2  612   2.185   1.830   2.864  3.0028 -1.0464 -0.8542
  205SOL     OW  613   1.839   1.902   3.059  0.1321  0.1683 -0.4729
  205SOL    HW1  614   1.930   1.882   3.016 -1.5291 -0.5947  0.8743
  205SOL    HW2  615   1.770   1.956   3.002  0.5259 -0.3834  0.5201
  206SOL     OW  616   2.359   2.708   0.285  0.2326 -0.2598 -0.2331
  206SOL    HW1  617   2.305   2.670   0.371  2.5558 -0.6261  3.6811
  206SOL    HW2  618   2.422   2.630   0.253  0.5772  0.1255  0.9279
  207SOL     OW  619   0.690   1.745   2.931 -0.4698 -0.1092  0.4580
  207SOL    HW1  620   0.783   1.715   2.890  0.2585  0.9275  0.0087
  207SOL    HW2  621   0.649   1.668   2.986 -1.7245  2.0021  0.7952
  208SOL     OW  622   0.987   1.551   1.271  0.2060  0.2559  0.0432
  208SOL    HW1  623   0.917   1.601   1.216  1.3529 -0.8935 -0.7813
  208SOL    HW2  624   0.975   1.556   1.375 -3.4965 -0.6036 -0.9249
  209SOL     OW  625   0.246   0.975   3.044 -0.5583  0.7188  0.3877
  209SOL    HW1  626   0.281   0.946   2.953 -0.0275 -4.5879  0.8482
  209SOL    HW2  627   0.227   0.895   3.108 -1.9104  1.0639 -0.6332
  210SOL     OW  628   1.674   0.561   1.296 -0.3953 -0.0538  0.7552
  210SOL    HW1  629   1.623   0.569   1.207 -1.6985  1.1176 -1.0568
  210SOL    HW2  630   1.771   0.596   1.286 -1.6729 -0.8098  1.1718
  211SOL     OW  631   2.196   1.024   1.568 -0.1075 -0.1471  0.0788
  211SOL    HW1  632   2.200   1.024   1.671  1.8784 -1.6116 -2.3137
  211SOL    HW2  633   2.226   1.114   1.515  5.4364  1.3805 -0.1896
  212SOL     OW  634   0.031   1.041   1.494 -0.0769  0.2806  0.2421
  212SOL    HW1  635   0.107   1.112   1.514  1.8580  1.5797  0.0757
  212SOL    HW2  636   0.043   0.952   1.549 -1.0469 -2.0281 -0.8082
  213SOL     OW  637   2.830   0.055   0.371  0.3569 -0.5966  0.2021
  213SOL    HW1  638   2.915   0.024   0.317 -0.6147  0.7582 -0.3836
  213SOL    HW2  639   2.741   0.017   0.323  0.1852 -0.9165  1.0787
  214SOL     OW  640   2.165   0.348   2.356 -0.0706 -0.0253 -0.0207
  214SOL    HW1  641   2.186   0.386   2.456 -0.2598  1.0373  1.9765
  214SOL    HW2  642   2.150   0.246   2.362  2.2079  3.1277 -1.1449
  215SOL     OW  643   1.657   2.254   2.069  0.1206  0.3493  0.6275
  215SOL    HW1  644   1.748   2.293   2.081 -1.7143  1.5244 -1.6619
  215SOL    HW2  645   1.586   2.326   2.079  1.1346  1.1505 -0.6997
  216SOL     OW  646   2.234   0.522   0.745  0.8259 -0.0210  0.9636
  216SOL    HW1  647   2.216   0.484   0.646 -0.1917 -1.0407 -1.3050
  216SOL    HW2  648   2.268   0.454   0.811 -1.6589 -1.8408  1.2330
  217SOL     OW  649   0.943   2.740   2.563  0.2253  0.3620  0.0226
  217SOL    HW1  650   0.996   2.672   2.631  0.3078 -0.7054 -0.6651
  217SOL    HW2  651   0.890   2.689   2.491  0.3860  1.3823 -0.7303
  218SOL     OW  652   1.874   1.421   0.025  0.0750 -0.2674 -0.2939
  218SOL    HW1  653   1.770   1.434   0.015  0.2149 -2.8913  0.0042
  218SOL    HW2  654   1.901   1.327   0.061 -1.0089 -0.1169  3.5447
  219SOL     OW  655   2.451   1.287   2.516 -0.5283 -0.4655 -0.3840
  219SOL    HW1  656   2.495   1.257   2.426  2.2126 -0.3940  0.6902
  219SOL    HW2  657   2.442   1.206   2.580 -2.7606 -0.6073 -3.1858
  220SOL     OW  658   1.385   1.015   1.330  0.2926 -0.1748  0.1169
  220SOL    HW1  659   1.484   1.019   1.357  0.8586 -0.4215  0.3798
  220SOL    HW2  660   1.378   1.006   1.228 -1.4844  1.1058 -0.6959
  221SOL     OW  661   1.364   0.932   2.195 -0.9507 -0.5858  0.1929
  221SOL    HW1  662   1.320   0.965   2.111  0.7489 -0.3568  0.9861
  221SOL    HW2  663   1.453   0.988   2.220  0.9233  0.7040  0.9893
  222SOL     OW  664   1.170   0.070   1.218 -0.2490 -0.3910 -0.2636
  222SOL    HW1  665   1.198   0.131   1.295  0.9828 -1.3373 -1.1389
  222SOL    HW2  666   1.144   0.126   1.133 -0.7558  0.0817 -0.8616
  223SOL     OW  667   2.733   0.940   2.133  0.0591 -0.2811  0.2302
  223SOL    HW1  668   2.693   1.021   2.087 -1.4699 -0.7644 -0.8777
  223SOL    HW2  669   2.805   0.961   2.204 -1.0557  0.5133  0.7925
  224SOL     OW  670   1.529   0.996   2.800 -0.6359 -0.8063  0.6082
  224SOL    HW1  671   1.551   0.930   2.726  1.8366  2.8045  3.1239
  224SOL    HW2  672   1.535   1.099   2.775 -2.4485  1.8880  3.6539
  225SOL     OW  673   2.954   2.681   2.924  0.0565  0.0934 -0.0327
  225SOL    HW1  674   2.904   2.694   2.839  1.2695  0.6993 -0.3479
  225SOL    HW2  675   3.054   2.696   2.902  0.9545 -1.0824  0.0887
  226SOL     OW  676   2.426   1.555   2.765  0.1596  0.4072  0.2697
  226SOL    HW1  677   2.509   1.534   2.704 -1.5352  1.9219 -0.5055
  226SOL    HW2  678   2.444   1.525   2.864 -1.0499  3.6526 -0.4241
  227SOL     OW  679   0.873   0.267   3.071  0.7724  0.0757 -0.2879
  227SOL    HW1  680   0.919   0.363   3.060 -0.5452  2.3558  1.4246
  227SOL    HW2  681   0.826   0.237   2.979 -0.9144  1.0427 -1.7852
  228SOL     OW  682   2.441   0.669   2.852 -0.3461 -0.1609  0.1344
  228SOL    HW1  683   2.461   0.707   2.756 -0.7258 -0.2528  2.1398
  228SOL    HW2  684   2.495   0.589   2.885  0.6834  0.9729  2.2139
  229SOL     OW  685   0.518   0.580   1.824  1.3302  0.9620  0.0212
  229SOL    HW1  686   0.581   0.613   1.903 -0.6921  0.3960  1.8905
  229SOL    HW2  687   0.569   0.532   1.751  0.4594  0.2154  2.1250
  230SOL     OW  688   1.871   1.218   1.945  0.1701  0.5054  0.3354
  230SOL    HW1  689   1.934   1.285   1.893  2.4204 -0.6781 -1.8735
  230SOL    HW2  690   1.858   1.242   2.046 -0.1101  1.2015 -1.6119
  231SOL     OW  691   0.613   1.092   3.074  0.4270  0.1525 -0.3738
  231SOL    HW1  692   0.711   1.129   3.081 -1.5847 -0.9912  2.1724
  231SOL    HW2  693   0.536   1.147   3.114 -1.1809  3.1754  1.3586
  232SOL     OW  694   2.393   3.019   2.796  0.1193 -0.6591  0.4369
  232SOL    HW1  695   2.474   2.954   2.791  0.6607 -0.0776  1.2195
  232SOL    HW2  696   2.396   3.092   2.722  2.4279  0.8378 -0.5407
  233SOL     OW  697   1.794   1.166   1.086  0.3926  0.0802  0.2505
  233SOL    HW1  698   1.863   1.234   1.052 -2.1905  2.2648  2.1700
  233SOL    HW2  699   1.829   1.092   1.146 -0.5800 -0.1390 -0.6745
  234SOL     OW  700   1.634   2.521   1.838 -0.2073 -0.5080 -0.0666
  234SOL    HW1  701   1.626   2.572   1.925  2.3731  0.9460 -0.7118
  234SOL    HW2  702   1.562   2.443   1.835  0.6595  0.3441 -1.9717
  235SOL     OW  703   3.104   2.972   2.826  0.3444  0.3431  0.1666
  235SOL    HW1  704   3.054   3.008   2.742  1.0440 -1.3571  0.5508
  235SOL    HW2  705   3.076   3.018   2.915 -0.9152  1.2994 -0.6540
  236SOL     OW  706   2.916   0.692   0.073  0.1223  0.1910  0.0224
  236SOL    HW1  707   2.979   0.721   0.150 -0.7450 -1.5418  0.6267
  236SOL    HW2  708   2.959   0.629   0.009 -0.1761 -2.0225  2.9278
  237SOL     OW  709   1.501   1.681   0.882  0.8311  0.4501  0.0904
  237SOL    HW1  710   1.587   1.624   0.899  3.3123 -0.8276 -0.8023
  237SOL    HW2  711   1.477   1.735   0.968  1.5560 -0.8279 -1.8961
  238SOL     OW  712   1.884   1.198   0.761  0.1741 -0.3044  0.1255
  238SOL    HW1  713   1.942   1.233   0.833 -0.5927 -2.6810 -1.0937
  238SOL    HW2  714   1.781   1.216   0.770 -0.7023  1.6966  0.0863
  239SOL     OW  715   2.000   0.229   2.775 -0.3162  0.3687  0.4866
  239SOL    HW1  716   2.042   0.178   2.855 -0.7988  1.2163 -3.4787
  239SOL    HW2  717   1.931   0.305   2.803 -0.3862  3.5371 -1.0572
  240SOL     OW  718   0.945   0.698   0.240  0.0702  0.0957 -0.0881
  240SOL    HW1  719   1.022   0.637   0.220 -1.4462  0.6609 -0.3002
  240SOL    HW2  720   0.934   0.707   0.341  1.2367 -2.3199  0.0088
  241SOL     OW  721   0.572   0.132   0.312  0.3857 -0.2652 -0.1451
  241SOL    HW1  722   0.658   0.169   0.274 -0.6412 -2.2551  2.0366
  241SOL    HW2  723   0.559   0.032   0.283  0.4758 -0.1881  0.2598
  242SOL     OW  724   0.624   2.577   1.176 -0.6984  0.3792 -0.3678
  242SOL    HW1  725   0.613   2.556   1.280 -1.2465 -0.9129  3.7142
  242SOL    HW2  726   0.625   2.676   1.161 -0.0025  1.7202  3.5352
  243SOL     OW  727   1.074   0.630   2.396  0.3861  0.5686  0.7591
  243SOL    HW1  728   0.982   0.632   2.341 -3.4128 -2.7326 -2.9928
  243SOL    HW2  729   1.065   0.574   2.485  1.7635  0.1145 -1.0523
  244SOL     OW  730   2.679   1.963   2.359  0.4438  0.0534  0.1175
  244SOL    HW1  731   2.731   1.944   2.271 -1.7902 -0.0857  1.9212
  244SOL    HW2  732   2.624   1.880   2.385  0.5425  1.0204 -1.1887
  245SOL     OW  733   2.112   1.017   2.226 -0.4223  0.3754 -0.2110
  245SOL    HW1  734   2.214   1.010   2.245 -1.4805  0.5787  0.9404
  245SOL    HW2  735   2.069   1.104   2.262 -0.9462 -0.9172  2.8319
  246SOL     OW  736   0.312   2.837   1.798 -0.3179 -0.2340 -0.1717
  246SOL    HW1  737   0.247   2.826   1.716  1.4874  1.5819  0.5288
  246SOL    HW2  738   0.384   2.908   1.773  0.2992  1.2581 -1.7448
  247SOL     OW  739   2.238   0.573   3.009 -0.0398 -0.2413  0.1819
  247SOL    HW1  740   2.320   0.617   2.968  1.5311  0.0299  1.4365
  247SOL    HW2  741   2.160   0.648   3.022 -1.3204  2.9333 -0.3895
  248SOL     OW  742   2.199   1.807   1.598  0.1792  0.5056  0.2158
  248SOL    HW1  743   2.282   1.770   1.644  1.0367 -2.1485  2.5788
  248SOL    HW2  744   2.115   1.748   1.625  0.6036  0.3799  0.1331
  249SOL     OW  745   1.894   1.914   1.795  0.5138  0.4961  0.8084
  249SOL    HW1  746   1.898   1.850   1.715 -1.1017 -1.3605  3.0998
  249SOL    HW2  747   1.989   1.932   1.834  0.9500 -0.0426 -0.0928
  250SOL     OW  748   0.947   0.726   1.868 -0.3231 -0.1583 -0.3398
  250SOL    HW1  749   1.011   0.663   1.920  0.3338  1.3486  2.8982
  250SOL    HW2  750   0.892   0.672   1.806  1.9137  0.2118  1.8179
  251SOL     OW  751   3.023   1.517   2.561  0.0575 -0.2205  0.8227
  251SOL    HW1  752   3.005   1.608   2.517  1.7448 -1.0131 -0.4461
  251SOL    HW2  753   2.952   1.446   2.532  1.0744 -2.3867  1.5620
  252SOL     OW  754   1.572   0.848   1.580 -0.2639 -0.3207  0.1907
  252SOL    HW1  755   1.627   0.890   1.504  1.1177 -0.2390  0.4944
  252SOL    HW2  756   1.576   0.905   1.666  1.1285  0.0328 -0.6370
  253SOL     OW  757   0.932   1.522   0.405  0.6300 -0.2844 -0.1325
  253SOL    HW1  758   0.938   1.435   0.352 -0.8668 -2.6692 -0.4437
  253SOL    HW2  759   0.845   1.538   0.459 -0.5607 -2.9903 -0.4147
  254SOL     OW  760   2.066   2.178   1.641 -0.3161 -0.0516  0.0725
  254SOL    HW1  761   2.015   2.108   1.583 -1.5785 -0.7428  0.1141
  254SOL    HW2  762   2.002   2.235   1.695  0.2069 -0.4754  1.4955
  255SOL     OW  763   0.118   1.185   2.915 -0.1840  0.0375  0.0800
  255SOL    HW1  764   0.163   1.283   2.916  2.0163  2.1438  3.5992
  255SOL    HW2  765   0.167   1.119   2.977 -1.0605  2.8432 -1.3999
  256SOL     OW  766   2.814   1.425   1.765 -0.4628 -0.0175 -0.2796
  256SOL    HW1  767   2.734   1.475   1.733  1.7894 -1.6248  0.1208
  256SOL    HW2  768   2.806   1.322   1.739 -0.3702 -1.2981  0.7377
  257SOL     OW  769   0.879   0.244   1.877 -0.2752 -0.7224 -0.0754
  257SOL    HW1  770   0.946   0.291   1.813 -1.3699  2.1588 -1.0561
  257SOL    HW2  771   0.878   0.138   1.859  1.4612  3.3349  1.3559
  258SOL     OW  772   2.965   1.165   0.520  0.0635  0.4071  0.1073
  258SOL    HW1  773   2.868   1.200   0.536 -3.3608 -1.7131 -0.3533
  258SOL    HW2  774   3.042   1.223   0.565  0.7137  1.0174  1.8098
  259SOL     OW  775   0.473   2.935   3.010  0.0356  0.1171  0.3740
  259SOL    HW1  776   0.387   2.926   3.061  1.9093 -0.9199  0.2614
  259SOL    HW2  777   0.490   2.871   2.927 -0.9735 -0.7611 -0.6459
  260SOL     OW  778   2.740   0.752   2.743 -0.0123  0.1580  1.1258
  260SOL    HW1  779   2.642   0.753   2.709  2.6312  0.5950 -0.1133
  260SOL    HW2  780   2.754   0.688   2.825  1.9883 -0.2532 -1.9322
  261SOL     OW  781   2.690   1.276   1.315  0.0805 -0.6587 -0.2482
  261SOL    HW1  782   2.646   1.205   1.253 -0.6280 -1.4137  2.7965
  261SOL    HW2  783   2.781   1.249   1.352 -1.1783  2.3833  1.9374
  262SOL     OW  784   1.359   2.966   2.054  0.5122  0.4109 -0.1273
  262SOL    HW1  785   1.382   3.039   1.989  1.0016 -1.1374  0.8335
  262SOL    HW2  786   1.266   2.923   2.033 -0.8918 -1.7391  1.6580
  263SOL     OW  787   0.811   0.638   2.300  0.2443 -0.0915 -0.0923
  263SOL    HW1  788   0.757   0.569   2.250 -1.5015  0.1239 -0.2047
  263SOL    HW2  789   0.829   0.727   2.243 -0.2374  0.0394  0.1242
  264SOL     OW  790   2.278   0.817   0.403 -0.1711 -0.1285  0.2325
  264SOL    HW1  791   2.302   0.760   0.318  1.1916 -0.3333  1.2222
  264SOL    HW2  792   2.357   0.870   0.447  1.4313 -0.9385  0.1562
  265SOL     OW  793   0.921   2.398   2.597 -0.2645 -0.2864  0.8545
  265SOL    HW1  794   0.973   2.444   2.679 -0.2150  1.2127  1.8483
  265SOL    HW2  795   0.871   2.314   2.618  0.3136  2.2251 -1.3676
  266SOL     OW  796   1.297   1.784   3.058 -0.3537  0.1603 -0.0200
  266SOL    HW1  797   1.320   1.837   3.143  0.0304  3.2918  0.3104
  266SOL    HW2  798   1.376   1.772   2.990  2.3458 -1.7329 -0.3156
  267SOL     OW  799   1.080   0.029   2.333  0.4239 -0.5207  0.2683
  267SOL    HW1  800   0.984  -0.002   2.332  1.6903 -3.0337 -1.5530
  267SOL    HW2  801   1.126   0.042   2.239 -3.1406 -0.1270 -3.1232
  268SOL     OW  802   0.849   1.271   1.058  0.2854  0.2376  0.3075
  268SOL    HW1  803   0.813   1.349   1.113  0.0438 -0.1034  0.3012
  268SOL    HW2  804   0.924   1.297   0.988  0.3490  1.8319 -0.1587
  269SOL     OW  805   2.375   2.549   1.582  0.3539 -0.0314  0.1475
  269SOL    HW1  806   2.468   2.536   1.535 -0.2339  0.5069 -2.9102
  269SOL    HW2  807   2.371   2.522   1.685 -0.5849 -1.0974  1.3455
  270SOL     OW  808   0.165   2.989   1.976 -0.0513 -0.1059  0.2140
  270SOL    HW1  809   0.185   2.937   1.886 -1.0983  1.6475  0.8232
  270SOL    HW2  810   0.132   2.928   2.051 -1.6565 -2.2573 -1.6414
  271SOL     OW  811   0.465   1.384   1.122 -0.5880 -0.1996 -0.1575
  271SOL    HW1  812   0.457   1.356   1.025  1.9138  0.7427  2.2756
  271SOL    HW2  813   0.396   1.341   1.185 -0.7687 -2.9756 -1.0267
  272SOL     OW  814   1.893   3.097   1.928 -0.4256 -0.1386  0.2180
  272SOL    HW1  815   1.824   3.032   1.887  0.4514  0.6887 -0.2128
  272SOL    HW2  816   1.890   3.186   1.871 -0.3677 -0.5907 -1.5758
  273SOL     OW  817   1.462   1.479   2.824  0.2080 -0.4091  0.3112
  273SOL    HW1  818   1.371   1.447   2.788  0.2047 -1.1922  2.1908
  273SOL    HW2  819   1.487   1.447   2.920  0.5621 -0.3147  0.8470
  274SOL     OW  820   1.104   0.531   2.047  0.0389  0.2075  0.4110
  274SOL    HW1  821   1.021   0.474   2.081  1.4222 -0.1220  1.8523
  274SOL    HW2  822   1.178   0.539   2.124  0.3075  2.3325  3.6627
  275SOL     OW  823   0.646   2.118   1.920  0.1653 -0.4302  0.5168
  275SOL    HW1  824   0.619   2.220   1.932  0.6543 -0.4656 -0.8211
  275SOL    HW2  825   0.595   2.072   1.841 -0.8978 -0.9423 -0.8187
  276SOL     OW  826   2.221   0.932   2.850 -0.3982  0.2018  0.0925
  276SOL    HW1  827   2.146   0.979   2.788 -1.4943 -0.4156 -2.7139
  276SOL    HW2  828   2.240   0.832   2.823  3.3580 -0.4260  1.4974
  277SOL     OW  829   3.088   0.756   0.262  0.3730 -0.4890  0.1380
  277SOL    HW1  830   3.172   0.819   0.250 -0.2133 -0.8694 -1.4894
  277SOL    HW2  831   3.107   0.684   0.334 -0.1396  0.7616  0.6700
  278SOL     OW  832   0.252   0.235   3.032  0.2439 -0.1966 -0.4140
  278SOL    HW1  833   0.340   0.207   2.983  1.0529  0.5127  0.9847
  278SOL    HW2  834   0.257   0.331   3.066 -3.4799 -1.8415 -1.6734
  279SOL     OW  835   0.279   3.082   0.909  0.2884 -0.1951  0.7779
  279SOL    HW1  836   0.309   3.083   1.010 -1.6176 -1.0458  0.1790
  279SOL    HW2  837   0.268   2.982   0.877  1.5720 -3.5809  1.2812
  280SOL     OW  838   1.611   2.916   2.431 -1.0503  0.0091 -0.3931
  280SOL    HW1  839   1.691   2.975   2.471  2.3051 -0.7658 -0.4913
  280SOL    HW2  840   1.538   2.977   2.398 -0.0815 -1.9479  0.8071
  281SOL     OW  841   0.540   0.939   2.304  0.6778  0.2746  0.3803
  281SOL    HW1  842   0.489   0.871   2.244  0.3273 -1.4558  0.1434
  281SOL    HW2  843   0.559   0.898   2.397  1.1351 -2.9835  1.8453
  282SOL     OW  844   1.791   2.459   0.544 -0.1200 -0.0677 -0.0162
  282SOL    HW1  845   1.727   2.393   0.492  1.9877  3.2308 -0.1137
  282SOL    HW2  846   1.747   2.554   0.561 -1.6643 -0.5546  0.8273
  283SOL     OW  847   1.152   0.907   0.751 -0.1405  0.5467  0.3017
  283SOL    HW1  848   1.180   0.860   0.843  0.5791 -0.4446  1.3132
  283SOL    HW2  849   1.145   1.014   0.765 -1.7507  1.9048  0.5055
  284SOL     OW  850   2.238   2.806   2.457  0.2726  0.0990 -0.2646
  284SOL    HW1  851   2.338   2.796   2.430 -0.3670  1.4509  3.6274
  284SOL    HW2  852   2.229   2.837   2.557  1.6384  2.0863  0.6352
  285SOL     OW  853   1.322   3.050   2.621 -0.1339 -0.5341  0.1766
  285SOL    HW1  854   1.368   3.063   2.530  0.2152 -0.0377  0.3598
  285SOL    HW2  855   1.256   3.130   2.638  3.1396  1.1878 -0.4640
  286SOL     OW  856   0.302   0.440   0.659 -0.2548 -0.4854  0.0278
  286SOL    HW1  857   0.326   0.380   0.737  0.3145 -4.9087 -1.6306
  286SOL    HW2  858   0.343   0.410   0.568 -1.8867 -1.9159  1.7874
  287SOL     OW  859   0.089   1.309   2.580 -0.3205 -0.2141 -0.5519
  287SOL    HW1  860   0.035   1.251   2.641  1.7631 -2.7708 -2.0295
  287SOL    HW2  861   0.055   1.409   2.570  1.2800  0.0690 -2.2181
  288SOL     OW  862   1.532   2.736   1.678  0.0856 -0.6171  0.1252
  288SOL    HW1  863   1.552   2.651   1.739  0.4569 -0.3920  2.5603
  288SOL    HW2  864   1.566   2.729   1.581  0.4966 -0.5815 -0.6999
  289SOL     OW  865   0.637   2.781   0.805  0.3368  0.4717 -0.5679
  289SOL    HW1  866   0.662   2.823   0.714 -0.7076 -1.5312 -0.6539
  289SOL    HW2  867   0.636   2.842   0.891 -1.0388  0.5866  2.6633
  290SOL     OW  868   2.822   1.138   1.710  0.1674  0.0223 -0.0787
  290SOL    HW1  869   2.756   1.062   1.733 -0.5571 -2.7188 -1.1939
  290SOL    HW2  870   2.909   1.128   1.769 -0.5517  1.6469  1.5527
  291SOL     OW  871   1.943   3.072   0.035 -0.5787 -0.4381  0.1339
  291SOL    HW1  872   1.996   3.060   0.123  1.0628  2.3539 -0.7596
  291SOL    HW2  873   1.989   3.130  -0.042  0.8704  0.1560  0.5271
  292SOL     OW  874   2.993   1.173   3.059 -0.2853  0.4428  0.2375
  292SOL    HW1  875   2.919   1.234   3.022  2.5077  1.2373 -0.0288
  292SOL    HW2  876   3.080   1.188   3.013 -0.3372 -0.3363  0.5869
  293SOL     OW  877   0.578   2.075   0.280 -0.4251  0.0535 -0.0246
  293SOL    HW1  878   0.557   2.130   0.366  2.8869  1.7647  1.5834
  293SOL    HW2  879   0.680   2.044   0.276  1.1365 -0.8181  0.0800
  294SOL     OW  880   1.876   2.347   1.756 -0.3251  0.0253  0.3977
  294SOL    HW1  881   1.903   2.346   1.859  2.6769  0.5224 -0.4396
  294SOL    HW2  882   1.793   2.406   1.740  0.9627 -0.0469  1.2180
  295SOL     OW  883   0.944   1.069   0.458 -1.0384  0.6605  0.1041
  295SOL    HW1  884   1.041   1.061   0.434 -2.1280 -1.6479 -0.5469
  295SOL    HW2  885   0.918   1.023   0.550  0.4942 -1.2177  2.9598
  296SOL     OW  886   1.099   2.165   2.748  0.0856 -0.1269  0.1908
  296SOL    HW1  887   1.008   2.204   2.778  0.9724  1.6202 -1.3112
  296SOL    HW2  888   1.092   2.127   2.649 -0.7460 -2.2765  1.1367
  297SOL     OW  889   1.271   0.537   1.168  0.2278  0.1133  0.2771
  297SOL    HW1  890   1.311   0.463   1.233 -2.3313 -0.6461  1.5100
  297SOL    HW2  891   1.339   0.616   1.149 -0.8889 -0.1986 -2.2396
  298SOL     OW  892   0.464   1.320   2.936  0.3710  0.4328 -0.0124
  298SOL    HW1  893   0.434   1.268   3.026 -2.8177  0.5224  1.3919
  298SOL    HW2  894   0.511   1.261   2.865 -0.1119 -1.7559  0.6976
  299SOL     OW  895   0.444   0.185   1.249 -0.0456 -0.4982 -0.1890
  299SOL    HW1  896   0.408   0.277   1.217  0.4038  1.3684  0.2393
  299SOL    HW2  897   0.434   0.176   1.354 -0.5225  1.6861  1.1379
  300SOL     OW  898   1.357   1.820   2.585  0.1096  0.0453  0.0227
  300SOL    HW1  899   1.354   1.724   2.536  0.3198 -3.1784 -2.2790
  300SOL    HW2  900   1.432   1.826   2.659  1.2087  3.9607  0.1595
  301SOL     OW  901   0.414   0.325   0.397 -0.5915 -0.8259 -0.7625
  301SOL    HW1  902   0.315   0.304   0.380  1.2456 -1.4233  1.5510
  301SOL    HW2  903   0.479   0.253   0.358 -0.2956 -1.1178  0.8137
  302SOL     OW  904   1.266   2.430   2.311 -0.5775 -0.5470 -0.0693
  302SOL    HW1  905   1.165   2.408   2.301  0.8315  1.1927  3.0796
  302SOL    HW2  906   1.324   2.345   2.326 -1.2476 -1.4210 -1.2312
  303SOL     OW  907   0.933   2.444   0.823 -0.4677 -0.3271 -0.4421
  303SOL    HW1  908   0.979   2.451   0.729  1.0730  0.7890 -1.4633
  303SOL    HW2  909   0.979   2.513   0.883  1.3760 -2.0617 -0.5494
  304SOL     OW  910   0.143   1.932   0.680  0.0746  0.0674  0.2411
  304SOL    HW1  911   0.214   1.897   0.618 -0.9838 -1.1224 -0.7430
  304SOL    HW2  912   0.058   1.956   0.618 -0.7278 -0.6411 -0.5116
  305SOL     OW  913   1.652   0.874   0.694  0.6733 -0.5237 -0.1602
  305SOL    HW1  914   1.604   0.900   0.607 -0.5407  2.9529  1.1681
  305SOL    HW2  915   1.683   0.773   0.700 -0.8030 -3.0469  2.0739
  306SOL     OW  916   0.371   1.839   1.959 -0.6725 -0.2449 -0.2144
  306SOL    HW1  917   0.466   1.803   1.938 -0.2564  0.4883  1.0768
  306SOL    HW2  918   0.376   1.902   2.041 -2.7743 -1.8242 -0.7093
  307SOL     OW  919   3.011   0.884   2.517  0.1035  0.0184 -0.0916
  307SOL    HW1  920   3.005   0.947   2.600 -1.4381 -1.6801  0.2981
  307SOL    HW2  921   2.944   0.803   2.519  1.1804  0.3162  0.7208
  308SOL     OW  922   1.458   2.699   2.816 -0.3068  0.4609  0.1388
  308SOL    HW1  923   1.437   2.702   2.717 -1.9815 -0.0960  2.0777
  308SOL    HW2  924   1.417   2.616   2.864 -0.7194  0.0720  1.9857
  309SOL     OW  925   1.233   0.173   1.802 -0.5103  0.0581  0.3370
  309SOL    HW1  926   1.329   0.129   1.802  0.2583 -1.1280  0.9637
  309SOL    HW2  927   1.192   0.185   1.706 -0.6684  1.2926 -0.2675
  310SOL     OW  928   1.489   2.497   0.665  0.1066 -0.8880 -0.3636
  310SOL    HW1  929   1.436   2.521   0.752 -0.1002  0.3286  1.8936
  310SOL    HW2  930   1.525   2.580   0.622 -0.5354 -3.2651  0.3147
  311SOL     OW  931   1.045   0.965   1.768  0.4635 -0.3493  0.2212
  311SOL    HW1  932   0.990   0.880   1.795 -0.1902 -0.3276 -0.0019
  311SOL    HW2  933   1.083   0.954   1.672  1.2897 -0.6513 -1.1871
  312SOL     OW  934   1.529   0.618   1.049 -0.2742 -0.1699  0.0383
  312SOL    HW1  935   1.557   0.716   1.039 -0.7418 -0.2968 -1.8060
  312SOL    HW2  936   1.471   0.596   0.965 -1.3700 -0.0112 -0.6717
  313SOL     OW  937   1.621   1.257   0.785  0.0331  0.5336  0.3205
  313SOL    HW1  938   1.538   1.300   0.831  0.0676  0.1930 -3.5281
  313SOL    HW2  939   1.588   1.185   0.720 -0.2983 -0.4149  1.4432
  314SOL     OW  940   2.993   3.083   3.091  0.2414 -0.6655  0.4897
  314SOL    HW1  941   3.010   3.085   3.191  0.5985  0.4240  0.0681
  314SOL    HW2  942   2.907   3.030   3.064  1.0205  0.0259  0.8208
  315SOL     OW  943   1.190   0.206   2.811  0.2736  0.3227  0.3779
  315SOL    HW1  944   1.133   0.164   2.731 -0.7225  1.1886  0.0123
  315SOL    HW2  945   1.154   0.173   2.900 -0.8844 -2.2369 -0.0828
  316SOL     OW  946   1.777   2.075   0.891  0.3081  0.1712  0.2902
  316SOL    HW1  947   1.707   2.094   0.970  1.0731 -1.0719 -3.0190
  316SOL    HW2  948   1.816   2.159   0.841  1.7488  0.9790 -0.6627
  317SOL     OW  949   1.168   0.700   2.752  0.0277  0.1790  0.0118
  317SOL    HW1  950   1.112   0.746   2.826 -2.6253  0.7087 -1.8003
  317SOL    HW2  951   1.107   0.637   2.695  1.2952  0.2228 -2.6261
  318SOL     OW  952   1.409   3.082   2.342 -0.3815 -0.3899  0.3324
  318SOL    HW1  953   1.371   3.171   2.306  0.3751  0.7123  0.4840
  318SOL    HW2  954   1.417   3.006   2.271 -1.9945 -1.5158 -1.4583
  319SOL     OW  955   0.648   2.394   3.031 -0.5048 -0.6505  0.2267
  319SOL    HW1  956   0.586   2.309   3.047  1.0614  0.5360  0.7003
  319SOL    HW2  957   0.721   2.373   2.960 -1.9369  0.9479 -0.5803
  320SOL     OW  958   1.687   2.233   0.405  0.3074  0.0359  0.7347
  320SOL    HW1  959   1.777   2.184   0.424 -1.0591  2.6818  1.6825
  320SOL    HW2  960   1.598   2.181   0.420  1.7782 -0.1195 -1.7615
  321SOL     OW  961   1.654   2.714   0.549 -0.4219 -0.0534 -0.3137
  321SOL    HW1  962   1.604   2.766   0.473  3.1616 -0.9804 -1.4720
  321SOL    HW2  963   1.746   2.755   0.569 -0.4071  2.2741 -0.7053
  322SOL     OW  964   2.566   1.130   2.308 -0.1664 -0.0623  0.2449
  322SOL    HW1  965   2.641   1.111   2.379 -2.1062 -2.9540 -2.9768
  322SOL    HW2  966   2.529   1.042   2.264 -0.5323 -1.5620 -2.1932
  323SOL     OW  967   1.141   2.704   0.776  0.1377 -0.5261 -0.5699
  323SOL    HW1  968   1.068   2.699   0.706  0.8756  0.9044  1.0267
  323SOL    HW2  969   1.157   2.797   0.821 -0.5038  3.2011 -0.8233
  324SOL     OW  970   0.114   2.561   2.417 -0.9380  0.4603 -0.0183
  324SOL    HW1  971   0.046   2.500   2.469  1.2548 -2.6451  1.1018
  324SOL    HW2  972   0.145   2.636   2.478 -1.5958  0.2498  0.0213
  325SOL     OW  973   1.290   3.054   0.449  1.1120 -0.5991 -0.0821
  325SOL    HW1  974   1.271   3.105   0.360 -2.5738 -0.5464 -0.2967
  325SOL    HW2  975   1.311   3.111   0.534 -1.0794 -0.8579 -0.2094
  326SOL     OW  976   2.470   0.868   0.020 -0.2455 -0.0766 -0.2411
  326SOL    HW1  977   2.386   0.820  -0.019 -1.5818  2.3777  2.8932
  326SOL    HW2  978   2.535   0.797   0.058 -2.9309 -3.7664  0.2780
  327SOL     OW  979   2.871   0.288   0.548 -0.3581 -0.3934 -0.5975
  327SOL    HW1  980   2.853   0.227   0.465  2.1253  1.6524  1.3022
  327SOL    HW2  981   2.885   0.224   0.629 -0.4461  0.0962 -1.6755
  328SOL     OW  982   2.599   0.593   0.370  0.3997 -0.5110 -0.4463
  328SOL    HW1  983   2.639   0.624   0.461 -0.8840  0.0131  0.0192
  328SOL    HW2  984   2.525   0.523   0.386 -0.1495  0.8981 -0.5165
  329SOL     OW  985   2.920   3.025   2.237 -0.3734  0.1593  0.3217
  329SOL    HW1  986   3.000   2.962   2.231 -1.4269  1.3574 -0.2607
  329SOL    HW2  987   2.943   3.122   2.215 -1.5868  1.7256  1.8150
  330SOL     OW  988   0.533   0.234   1.886 -0.1336  0.6324  0.7088
  330SOL    HW1  989   0.629   0.240   1.840 -0.0543  1.1706 -0.3043
  330SOL    HW2  990   0.539   0.197   1.984 -0.9070  0.4830 -0.5055
  331SOL     OW  991   3.095   1.875   1.111  0.3843  0.2802 -0.5316
  331SOL    HW1  992   3.061   1.951   1.050  1.7365  2.4183  1.2834
  331SOL    HW2  993   3.025   1.828   1.171  2.2733 -1.5683  0.8697
  332SOL     OW  994   0.373   1.191   0.051 -0.2603 -0.2540  0.6640
  332SOL    HW1  995   0.328   1.101   0.027  0.1620 -1.9733  1.6004
  332SOL    HW2  996   0.364   1.218   0.153 -0.5072 -0.8676  0.0144
  333SOL     OW  997   2.913   0.947   0.356  0.0308 -0.8958 -0.3838
  333SOL    HW1  998   2.948   1.017   0.438  2.6291  0.0828  2.0777
  333SOL    HW2  999   2.987   0.880   0.323  2.0927  2.7872 -0.7679
  334SOL     OW 1000   1.731   1.125   1.714 -0.4956 -0.4524 -0.2415
  334SOL    HW1 1001   1.798   1.122   1.634  2.0861  1.6219 -1.3879
  334SOL    HW2 1002   1.775   1.171   1.795 -0.3278  0.4557 -0.0175
  335SOL     OW 1003   1.924   2.807   2.607  0.3420  0.2248  0.0013
  335SOL    HW1 1004   1.860   2.800   2.686  0.8906  0.0753 -1.7751
  335SOL    HW2 1005   2.015   2.847   2.637  0.5816  2.0889 -0.6990
  336SOL     OW 1006   0.258   0.062   2.748 -0.2650  0.4425  0.1357
  336SOL    HW1 1007   0.346   0.092   2.799  1.0310 -0.3732  0.5259
  336SOL    HW2 1008   0.194   0.011   2.813 -2.8080 -0.0164  1.5424
  337SOL     OW 1009   0.908   2.865   3.019 -0.5420 -0.4643  0.1713
  337SOL    HW1 1010   0.922   2.774   3.072 -0.5830  3.7974 -0.3903
  337SOL    HW2 1011   0.899   2.951   3.081 -0.4601  3.0452  1.9231
  338SOL     OW 1012   0.015   0.954   0.732  0.3574  0.3291 -0.0882
  338SOL    HW1 1013  -0.085   0.956   0.758  1.3635 -0.6707  1.6087
  338SOL    HW2 1014   0.046   1.044   0.698  0.6131 -0.2230 -1.0378
  339SOL     OW 1015   1.770   1.314   2.187  0.0544 -0.0404 -0.0189
  339SOL    HW1 1016   1.703   1.322   2.107  1.4434  0.9566  1.3658
  339SOL    HW2 1017   1.793   1.415   2.212 -2.0687 -0.3113 -2.8742
  340SOL     OW 1018   2.246   0.830   1.065  0.2236 -0.3001  0.1521
  340SOL    HW1 1019   2.172   0.867   1.125 -0.0864 -1.1367  0.3457
  340SOL    HW2 1020   2.224   0.729   1.040 -1.2101 -2.6479 -2.6469
  341SOL     OW 1021   1.923   2.097   0.386 -0.7452 -0.1538 -0.8820
  341SOL    HW1 1022   1.940   2.125   0.288  0.5709 -0.5877  2.0196
  341SOL    HW2 1023   2.005   2.044   0.427 -1.3493  2.0727  2.2027
  342SOL     OW 1024   2.190   2.128   2.731  0.2390  0.5142  0.3545
  342SOL    HW1 1025   2.207   2.081   2.822  3.0111  1.8517 -1.3386
  342SOL    HW2 1026   2.096   2.117   2.694  1.6391 -0.2123  3.0174
  343SOL     OW 1027   0.371   0.889   2.811  0.5363 -0.0683 -0.2058
  343SOL    HW1 1028   0.356   0.922   2.713  1.1701  0.4884 -1.6725
  343SOL    HW2 1029   0.471   0.873   2.825 -0.7706 -0.9893  1.7865
  344SOL     OW 1030   1.939   1.466   0.361  0.1250  0.0326  0.2473
  344SOL    HW1 1031   1.947   1.381   0.303 -0.0603  0.5693 -3.1284
  344SOL    HW2 1032   1.848   1.468   0.411  0.0069 -0.7841 -1.7156
  345SOL     OW 1033   1.345   2.197   2.854  0.6266 -0.3904  0.0492
  345SOL    HW1 1034   1.244   2.181   2.814 -3.5282  1.1634  1.3003
  345SOL    HW2 1035   1.423   2.173   2.789  1.4805  0.7030  1.9064
  346SOL     OW 1036   2.294   0.843   1.393 -0.3280  0.2974  0.0219
  346SOL    HW1 1037   2.258   0.910   1.467 -1.2587 -0.2850 -1.3132
  346SOL    HW2 1038   2.215   0.815   1.329  0.7636  2.8281 -1.5554
  347SOL     OW 1039   0.739   2.779   1.675  0.2139  0.5177  0.2236
  347SOL    HW1 1040   0.808   2.836   1.623 -2.2340 -0.2180  0.6250
  347SOL    HW2 1041   0.649   2.778   1.620 -1.5222  1.1597 -1.3158
  348SOL     OW 1042   0.186   0.656   2.881  0.6340 -0.2553 -0.3560
  348SOL    HW1 1043   0.103   0.665   2.814 -0.8579 -1.3447 -0.7859
  348SOL    HW2 1044   0.252   0.735   2.874  0.6370  0.6322 -1.0262
  349SOL     OW 1045   1.790   0.431   2.827 -0.2566 -0.4886 -0.3878
  349SOL    HW1 1046   1.772   0.523   2.788  1.0762 -0.3354  0.3397
  349SOL    HW2 1047   1.767   0.426   2.928  0.2778  0.0055 -1.6899
  350SOL     OW 1048   1.677   0.384   0.370  0.1501 -0.0290  0.3113
  350SOL    HW1 1049   1.772   0.362   0.410  1.0782 -1.6486 -1.0494
  350SOL    HW2 1050   1.653   0.483   0.343 -3.7864  2.0232  0.4059
  351SOL     OW 1051   0.847   0.844   2.121  0.2680 -0.0152 -0.2448
  351SOL    HW1 1052   0.871   0.947   2.115 -1.0980 -0.6277  0.3625
  351SOL    HW2 1053   0.888   0.788   2.043  2.8370 -3.3870 -0.7084
  352SOL     OW 1054   2.072   1.329   0.600 -0.0986  0.4707  0.1025
  352SOL    HW1 1055   2.043   1.402   0.529  2.6871  0.2565 -1.4092
  352SOL    HW2 1056   1.996   1.272   0.637  1.9740  0.0069  0.0577
  353SOL     OW 1057   2.214   2.705   1.113 -0.3741 -0.3961  0.1898
  353SOL    HW1 1058   2.295   2.647   1.147  2.8539  1.1477  1.2659
  353SOL    HW2 1059   2.178   2.781   1.173 -1.3852  1.8821 -0.9662
  354SOL     OW 1060   0.231   1.425   2.891 -0.2908  0.3197  0.1011
  354SOL    HW1 1061   0.216   1.488   2.810 -0.8195  1.9110  1.4104
  354SOL    HW2 1062   0.326   1.379   2.902 -1.1328 -1.3730 -1.9583
  355SOL     OW 1063   0.715   1.578   0.584  0.0569  0.0102  0.4944
  355SOL    HW1 1064   0.736   1.511   0.665  0.4594 -0.7805  1.8239
  355SOL    HW2 1065   0.657   1.537   0.503  0.1461  1.2604 -0.4293
  356SOL     OW 1066   0.950   0.319   2.129  0.5831  0.8135 -0.4699
  356SOL    HW1 1067   1.015   0.236   2.150  1.4655 -1.2042  0.0956
  356SOL    HW2 1068   0.893   0.299   2.044 -0.5982  1.8927  0.2018
  357SOL     OW 1069   0.992   1.374   0.162 -0.3443  0.4508  0.1457
  357SOL    HW1 1070   1.010   1.319   0.074  2.0248  1.6754 -0.1172
  357SOL    HW2 1071   1.063   1.451   0.168  0.5972 -0.6473 -1.2155
  358SOL     OW 1072   1.682   1.461   0.496 -0.1733  0.1518 -0.0956
  358SOL    HW1 1073   1.685   1.379   0.557 -1.1043  0.9069 -1.0025
  358SOL    HW2 1074   1.617   1.447   0.413  1.0085  1.6723  0.8060
  359SOL     OW 1075   1.606   2.584   0.210  0.6134 -0.2479  0.1367
  359SOL    HW1 1076   1.581   2.490   0.177 -0.0417  2.1081 -2.1316
  359SOL    HW2 1077   1.528   2.630   0.260 -0.6815 -1.1086 -0.7745
  360SOL     OW 1078   0.744   0.468   0.591 -0.6496  0.3245  0.0050
  360SOL    HW1 1079   0.662   0.507   0.543  4.4365  0.6908  1.2063
  360SOL    HW2 1080   0.751   0.363   0.583  1.5901  0.0918  0.8368
  361SOL     OW 1081   1.351   1.302   0.629  0.4057  0.6344  0.3846
  361SOL    HW1 1082   1.369   1.330   0.726 -1.1239  0.5501 -1.1141
  361SOL    HW2 1083   1.273   1.356   0.581 -2.4037 -0.6790 -0.1604
  362SOL     OW 1084   1.375   1.840   0.680 -0.0935  0.0993 -0.0015
  362SOL    HW1 1085   1.396   1.760   0.742 -1.2953 -0.1822 -0.5980
  362SOL    HW2 1086   1.459   1.880   0.635 -1.5984  2.3213  0.1305
  363SOL     OW 1087   1.296   1.350   2.011 -0.2839  0.3581 -0.5144
  363SOL    HW1 1088   1.396   1.360   2.039  1.1867 -1.3197 -1.3679
  363SOL    HW2 1089   1.240   1.433   2.034  1.2819  2.9493 -1.4760
  364SOL     OW 1090   0.550   2.371   1.967  0.6075 -0.3589 -0.2545
  364SOL    HW1 1091   0.446   2.362   1.981 -0.2699 -0.8720  0.0709
  364SOL    HW2 1092   0.584   2.464   1.933  0.5746  2.3500  2.8407
  365SOL     OW 1093   0.937   1.973   1.425 -0.1010  0.1686  0.3092
  365SOL    HW1 1094   0.852   2.013   1.467 -0.4313 -0.6373 -0.7041
  365SOL    HW2 1095   0.935   1.995   1.322 -2.2360  1.3627  1.2736
  366SOL     OW 1096   2.737   1.916   0.228 -0.2392 -0.1271  0.2622
  366SOL    HW1 1097   2.649   1.855   0.203 -0.0909  0.3090  2.5301
  366SOL    HW2 1098   2.817   1.852   0.254  0.2642  0.2208 -1.6179
  367SOL     OW 1099   0.902   1.130   3.065  0.6489 -0.3557 -0.5387
  367SOL    HW1 1100   0.911   1.069   3.153  3.3603 -0.1983  0.3089
  367SOL    HW2 1101   0.983   1.193   3.055  0.9791  0.1742 -0.7589
  368SOL     OW 1102   1.452   0.555   0.518 -0.1842 -0.2309  0.3651
  368SOL    HW1 1103   1.351   0.573   0.498  0.3716  1.1000 -3.1517
  368SOL    HW2 1104   1.521   0.593   0.444  0.4646  1.0445 -0.6982
  369SOL     OW 1105   0.408   1.582   0.154 -0.4402  0.3060 -0.3186
  369SOL    HW1 1106   0.468   1.655   0.200  1.8339  0.8280  0.1945
  369SOL    HW2 1107   0.321   1.568   0.207  1.5092  0.1275 -2.3780
  370SOL     OW 1108   0.438   2.198   1.088  0.6062  0.2703 -0.1617
  370SOL    HW1 1109   0.464   2.284   1.034 -1.1558  0.2058  0.2726
  370SOL    HW2 1110   0.348   2.158   1.057 -0.6573 -1.0419 -0.4092
  371SOL     OW 1111   2.903   2.213   2.749  0.0246 -0.1514  0.0165
  371SOL    HW1 1112   2.964   2.128   2.742 -1.3744  2.3500 -0.9402
  371SOL    HW2 1113   2.895   2.250   2.848 -1.7382 -1.7640  0.2822
  372SOL     OW 1114   1.002   2.038   1.173 -0.0345  0.0228 -0.1435
  372SOL    HW1 1115   0.937   2.096   1.113 -0.7122 -1.0289  0.4143
  372SOL    HW2 1116   1.083   2.095   1.196 -1.0257  1.8496 -1.3218
  373SOL     OW 1117   1.950   1.923   1.031  0.3816  0.1292  0.2885
  373SOL    HW1 1118   2.043   1.961   1.056 -1.3154 -0.3705  2.7743
  373SOL    HW2 1119   1.890   1.985   0.975 -1.7389 -2.6024 -2.5933
  374SOL     OW 1120   1.910   0.400   0.572 -0.1580 -0.0100 -0.3018
  374SOL    HW1 1121   1.898   0.326   0.637  2.8379  2.3472 -1.5243
  374SOL    HW2 1122   2.011   0.406   0.541  1.8003 -1.9987 -0.0204
  375SOL     OW 1123   2.429   2.178   1.121  0.0118  0.0748  0.1797
  375SOL    HW1 1124   2.470   2.228   1.042 -0.0608 -0.2301  1.9143
  375SOL    HW2 1125   2.496   2.159   1.193 -1.4235  2.1731  2.0881
  376SOL     OW 1126   0.011   0.633   1.432 -0.0262 -0.2986  0.8176
  376SOL    HW1 1127   0.059   0.676   1.510 -2.5693  0.1351 -2.2903
  376SOL    HW2 1128  -0.052   0.560   1.459 -1.0468  0.6566 -2.9438
  377SOL     OW 1129   2.193   2.918   0.203  0.2739  0.1820 -0.3580
  377SOL    HW1 1130   2.231   3.010   0.234  0.4828 -0.9354 -1.4311
  377SOL    HW2 1131   2.246   2.836   0.238 -0.6128  1.7009  2.0154
  378SOL     OW 1132   1.895   1.894   2.487  0.1269 -0.1910  0.6586
  378SOL    HW1 1133   1.976   1.914   2.422  2.2528  0.8117  2.7350
  378SOL    HW2 1134   1.843   1.802   2.472 -3.7858  0.1358 -2.1081
  379SOL     OW 1135   0.756   0.162   2.807 -0.5732 -0.5101 -0.3129
  379SOL    HW1 1136   0.787   0.070   2.772  2.1990  0.4387  2.7562
  379SOL    HW2 1137   0.760   0.248   2.747 -0.2390  3.8527 -0.4609
  380SOL     OW 1138   1.542   1.144   0.504 -0.3884 -0.7211  0.1692
  380SOL    HW1 1139   1.483   1.221   0.547 -1.1405 -1.0650 -0.5278
  380SOL    HW2 1140   1.488   1.073   0.460 -1.4451 -0.6540 -1.4603
  381SOL     OW 1141   1.265   1.293   1.520 -0.2853  0.4336 -0.1133
  381SOL    HW1 1142   1.276   1.214   1.458  0.7645  1.3444  0.3385
  381SOL    HW2 1143   1.348   1.304   1.586 -3.6880  2.3379  2.0804
  382SOL     OW 1144   1.830   0.835   0.252  0.6255  0.0900  0.1309
  382SOL    HW1 1145   1.867   0.814   0.157 -2.1484  1.1882 -2.1335
  382SOL    HW2 1146   1.909   0.863   0.316  1.4815  0.2541  0.2079
  383SOL     OW 1147   2.545   0.977   1.466 -0.6965 -0.2014  0.4761
  383SOL    HW1 1148   2.461   0.944   1.424 -1.3230 -0.4145 -1.0437
  383SOL    HW2 1149   2.628   0.983   1.404  0.8111 -0.1038  0.8474
  384SOL     OW 1150   0.930   2.290   0.242  0.6044 -0.3387  0.4086
  384SOL    HW1 1151   0.868   2.369   0.267  2.2422 -0.7368  2.5115
  384SOL    HW2 1152   0.958   2.234   0.328  0.7062 -0.2839 -0.9699
  385SOL     OW 1153   2.965   2.047   1.672 -0.2981 -0.5874  0.1796
  385SOL    HW1 1154   3.046   2.113   1.693  0.5525  1.2075 -1.9189
  385SOL    HW2 1155   3.004   1.953   1.666 -0.4450 -1.9819  0.7526
  386SOL     OW 1156   0.482   1.053   0.454  0.2165  0.7015  0.3039
  386SOL    HW1 1157   0.451   0.959   0.484 -0.8445 -0.2397  0.8561
  386SOL    HW2 1158   0.394   1.116   0.436 -3.3883 -1.4500 -0.6377
  387SOL     OW 1159   1.000   0.358   1.656 -0.1019  0.3692 -0.6210
  387SOL    HW1 1160   1.038   0.456   1.643  0.5929  0.5061 -0.2718
  387SOL    HW2 1161   1.003   0.295   1.572 -1.7559 -1.2027  0.7052
  388SOL     OW 1162   1.219   2.695   1.738  0.2286  0.2337  0.1690
  388SOL    HW1 1163   1.236   2.693   1.634 -0.8054 -0.2323  1.2901
  388SOL    HW2 1164   1.292   2.641   1.788  1.2207 -0.3813 -2.8971
  389SOL     OW 1165   0.149   2.914   1.347 -0.4173 -0.0201 -0.4576
  389SOL    HW1 1166   0.059   2.893   1.296 -0.4140 -0.1999  2.1563
  389SOL    HW2 1167   0.217   2.834   1.335 -2.1757 -2.0628  0.6815
  390SOL     OW 1168   1.024   0.947   1.379 -0.0004 -0.3946  0.2798
  390SOL    HW1 1169   1.113   0.928   1.431 -0.8303 -0.3310 -1.0432
  390SOL    HW2 1170   1.010   1.051   1.366 -1.9703 -0.1923  3.3935
  391SOL     OW 1171   2.198   1.110   1.114  0.0661  0.2185  0.6722
  391SOL    HW1 1172   2.111   1.066   1.156  1.2686 -0.1973 -0.7184
  391SOL    HW2 1173   2.211   1.072   1.016  2.0621 -1.8684 -0.0726
  392SOL     OW 1174   0.882   2.644   0.085 -0.1467  0.0758  0.1973
  392SOL    HW1 1175   0.961   2.585   0.047  0.1952 -2.0048 -0.2432
  392SOL    HW2 1176   0.807   2.590   0.126  2.0953  0.2436  0.6361
  393SOL     OW 1177   0.275   0.657   1.991 -0.1647  0.4078 -0.0600
  393SOL    HW1 1178   0.212   0.576   1.981  1.0123  0.7562 -0.3186
  393SOL    HW2 1179   0.322   0.687   1.900 -0.1648  0.1383 -2.1154
  394SOL     OW 1180   3.039   1.959   2.696  0.2351 -0.2023 -0.8022
  394SOL    HW1 1181   3.131   1.928   2.739 -1.6904 -1.0793 -1.5397
  394SOL    HW2 1182   3.009   1.894   2.624  0.0535 -1.9851 -0.0093
  395SOL     OW 1183   1.615   1.943   0.595 -0.0475  0.2483  0.7431
  395SOL    HW1 1184   1.675   1.870   0.548 -1.1250 -1.0224 -1.0021
  395SOL    HW2 1185   1.642   1.950   0.695 -1.5952 -1.1203  0.6407
  396SOL     OW 1186   2.859   1.837   1.296  0.9150  0.1333 -0.2751
  396SOL    HW1 1187   2.880   1.739   1.272  0.0373 -1.0492 -0.8674
  396SOL    HW2 1188   2.765   1.866   1.260  2.2099 -0.6343 -0.9664
  397SOL     OW 1189   1.022   2.217   0.498 -0.0508  0.2597 -0.4349
  397SOL    HW1 1190   0.920   2.192   0.511  1.6391  0.5727  0.4989
  397SOL    HW2 1191   1.044   2.317   0.518 -2.3296  1.2231  0.1776
  398SOL     OW 1192   2.136   3.067   1.103  0.3046 -0.7496  0.4143
  398SOL    HW1 1193   2.061   3.007   1.143  0.3327  1.5050 -0.7532
  398SOL    HW2 1194   2.110   3.165   1.082  1.2618  0.2475  0.4472
  399SOL     OW 1195   3.037   2.454   2.634 -0.6757  0.0605  0.1881
  399SOL    HW1 1196   2.953   2.449   2.577  0.6057 -1.5754  1.5329
  399SOL    HW2 1197   3.049   2.371   2.696  2.2276 -2.2710 -0.8970
  400SOL     OW 1198   0.690   1.656   1.375 -0.7554  0.0905 -0.1940
  400SOL    HW1 1199   0.650   1.708   1.456  1.7189 -3.1188  0.2970
  400SOL    HW2 1200   0.688   1.717   1.289  0.0816  1.7160  0.4258
  401SOL     OW 1201   1.845   0.252   1.166 -0.6222  0.3461  0.1846
  401SOL    HW1 1202   1.886   0.253   1.262  2.3182  2.9534  1.5948
  401SOL    HW2 1203   1.754   0.296   1.151 -0.2628  0.5874 -2.1107
  402SOL     OW 1204   1.356   0.244   3.085 -0.1383 -0.1570 -0.4488
  402SOL    HW1 1205   1.427   0.219   3.013 -0.5509 -1.3517  0.5116
  402SOL    HW2 1206   1.289   0.316   3.045 -0.1999  1.0835  1.5130
  403SOL     OW 1207   2.254   1.819   0.885 -0.9186  0.1449 -0.8676
  403SOL    HW1 1208   2.335   1.856   0.844 -2.1720 -1.8701 -0.4593
  403SOL    HW2 1209   2.233   1.874   0.968  1.2438  0.1563  0.8781
  404SOL     OW 1210   0.211   2.478   2.751  0.8008  0.0270 -0.0503
  404SOL    HW1 1211   0.306   2.446   2.727  0.8397 -3.1693  0.7223
  404SOL    HW2 1212   0.214   2.579   2.774  0.0195  0.5544 -4.0023
  405SOL     OW 1213   0.087   2.421   0.753 -0.1045 -1.0481  0.1505
  405SOL    HW1 1214   0.100   2.351   0.677 -0.0175 -3.3057 -1.6733
  405SOL    HW2 1215   0.171   2.484   0.755  1.7428  1.4162  2.2089
  406SOL     OW 1216   0.062   1.561   3.096  0.1198 -0.6942  0.1404
  406SOL    HW1 1217   0.139   1.538   3.030  2.1278  0.1023  0.3047
  406SOL    HW2 1218   0.089   1.527   3.192  1.6789 -2.1800 -0.3933
  407SOL     OW 1219   1.567   0.893   0.957  0.3278  0.4061  0.3753
  407SOL    HW1 1220   1.586   0.899   0.854  1.3568  1.5835 -0.3498
  407SOL    HW2 1221   1.504   0.972   0.988  0.3480 -0.8307 -2.6955
  408SOL     OW 1222   1.570   2.408   0.969 -1.1053  0.2185 -0.3270
  408SOL    HW1 1223   1.627   2.395   0.881  1.0336  0.6070 -1.2316
  408SOL    HW2 1224   1.505   2.490   0.962  1.7119 -0.1550 -1.1192
  409SOL     OW 1225   0.659   0.828   0.764 -0.0752  0.8051 -0.2212
  409SOL    HW1 1226   0.603   0.817   0.677  2.2869  1.0020 -2.5801
  409SOL    HW2 1227   0.645   0.747   0.831  1.0592  1.9544  1.3596
  410SOL     OW 1228   1.260   2.029   1.391  0.5105 -0.1596  0.2261
  410SOL    HW1 1229   1.342   1.984   1.434 -0.5935  1.3626 -1.1224
  410SOL    HW2 1230   1.172   1.979   1.416 -3.0384 -2.2637 -3.7258
  411SOL     OW 1231   2.508   1.829   2.989 -0.4659 -0.1741 -0.4202
  411SOL    HW1 1232   2.564   1.914   2.980 -1.5914 -0.2042 -0.5414
  411SOL    HW2 1233   2.416   1.838   2.941  0.0029  1.3794 -1.6186
  412SOL     OW 1234   1.479   2.454   2.142 -0.2566 -0.0516 -0.1470
  412SOL    HW1 1235   1.562   2.472   2.203  1.1753 -2.2521 -0.5361
  412SOL    HW2 1236   1.392   2.452   2.201 -2.5919  1.6012 -1.4474
  413SOL     OW 1237   0.001   0.196   2.955  0.3793  0.3506  0.4540
  413SOL    HW1 1238  -0.052   0.126   3.009 -0.5631  3.7723 -0.0644
  413SOL    HW2 1239   0.097   0.210   2.990 -0.8004  0.2357  1.7578
  414SOL     OW 1240   1.760   1.490   1.200 -0.2557 -0.4983 -0.4034
  414SOL    HW1 1241   1.755   1.592   1.227 -1.7767  1.1568 -1.4600
  414SOL    HW2 1242   1.756   1.473   1.097 -1.8048  0.6962  1.2261
  415SOL     OW 1243   0.317   2.209   0.708 -0.3483 -0.6358  0.2779
  415SOL    HW1 1244   0.272   2.200   0.807 -2.3528 -1.0442  3.6738
  415SOL    HW2 1245   0.241   2.213   0.637 -4.4842 -0.6617  0.4417
  416SOL     OW 1246   0.352   1.058   1.051  0.5112  0.9261  0.2292
  416SOL    HW1 1247   0.323   0.994   0.975 -0.1007  0.9151  1.8589
  416SOL    HW2 1248   0.452   1.084   1.055  0.8915 -0.9302  1.4923
  417SOL     OW 1249   2.327   2.443   2.060  0.5046  0.5364  0.3935
  417SOL    HW1 1250   2.340   2.346   2.084  1.7372  2.3840  1.1125
  417SOL    HW2 1251   2.276   2.484   2.141  1.3779  0.3418  0.0764
  418SOL     OW 1252   1.051   0.490   1.344 -0.3898 -0.4939  0.1479
  418SOL    HW1 1253   0.965   0.489   1.288 -2.2739 -0.0873  0.0518
  418SOL    HW2 1254   1.146   0.496   1.298  1.6019  1.4916 -0.6427
  419SOL     OW 1255   0.933   0.510   2.970  0.2891  0.5002  0.0434
  419SOL    HW1 1256   0.847   0.524   2.911  0.2454 -5.5223  3.1626
  419SOL    HW2 1257   0.977   0.595   3.006 -1.4449 -0.4691 -0.0554
  420SOL     OW 1258   0.120   2.208   0.501  0.0735  0.1611 -0.6385
  420SOL    HW1 1259   0.159   2.174   0.411 -0.7516 -1.6344 -1.0903
  420SOL    HW2 1260   0.065   2.131   0.537  2.0299  1.0202  2.0884
  421SOL     OW 1261   0.327   2.930   0.576  0.1156  0.5438 -0.4617
  421SOL    HW1 1262   0.289   2.887   0.662 -0.9086  0.4797 -1.4519
  421SOL    HW2 1263   0.406   2.995   0.596  0.9584  0.7722 -0.6772
  422SOL     OW 1264   1.007   2.622   1.039  0.3556  0.1189 -0.1244
  422SOL    HW1 1265   1.072   2.665   0.973 -0.5369 -1.0817  1.0593
  422SOL    HW2 1266   1.044   2.591   1.129  0.7227 -0.4946  2.7724
  423SOL     OW 1267   0.126   0.752   1.219 -0.0000 -0.4371  0.3764
  423SOL    HW1 1268   0.073   0.685   1.279 -1.3366  0.4598  1.0912
  423SOL    HW2 1269   0.069   0.837   1.202 -0.3640  3.2410  0.9132
  424SOL     OW 1270   1.185   2.218   2.032  0.3171  0.3436  0.0010
  424SOL    HW1 1271   1.141   2.307   2.009  0.0040 -0.6626 -0.3363
  424SOL    HW2 1272   1.165   2.176   2.124 -0.1924 -1.6798 -1.9524
  425SOL     OW 1273   2.009   1.306   0.972  0.3761  0.0585 -0.3978
  425SOL    HW1 1274   2.102   1.287   1.021 -0.5538  1.7764  0.8729
  425SOL    HW2 1275   1.999   1.407   0.950 -3.3987 -2.2377 -2.1499
  426SOL     OW 1276   1.426   1.612   1.236 -0.1700 -0.1993 -0.0583
  426SOL    HW1 1277   1.430   1.715   1.199  2.4150  1.8870 -1.1645
  426SOL    HW2 1278   1.397   1.598   1.334  1.0830  0.7025 -2.1526
  427SOL     OW 1279   1.926   2.344   2.068  0.3032 -0.1218  0.0974
  427SOL    HW1 1280   1.994   2.315   2.143  0.8974 -0.6983  2.1545
  427SOL    HW2 1281   1.922   2.444   2.063  0.8410 -2.1305  1.5730
  428SOL     OW 1282   0.857   0.015   0.104  0.1428  0.1104  0.3236
  428SOL    HW1 1283   0.861   0.102   0.047  2.7272 -0.8915 -0.0164
  428SOL    HW2 1284   0.954  -0.029   0.102  1.7241  2.2607 -0.4052
  429SOL     OW 1285   1.287   0.162   0.248 -0.3669  0.2650  0.3858
  429SOL    HW1 1286   1.378   0.159   0.301 -0.1741  0.0102  0.8047
  429SOL    HW2 1287   1.303   0.183   0.144 -1.6910  1.2448  0.0732
  430SOL     OW 1288   2.909   1.395   0.304 -0.2695  0.8827  0.4712
  430SOL    HW1 1289   2.895   1.447   0.218 -1.7135 -2.1217  0.2037
  430SOL    HW2 1290   2.907   1.454   0.387  0.1032 -3.5905 -3.2781
  431SOL     OW 1291   2.060   1.594   0.930  0.3254 -0.1984 -0.1275
  431SOL    HW1 1292   2.129   1.654   0.982 -1.3672 -1.7082  2.6328
  431SOL    HW2 1293   1.968   1.639   0.924  0.1635 -1.7182  0.0119
  432SOL     OW 1294   2.941   2.148   1.217 -0.2116 -0.1799 -0.0241
  432SOL    HW1 1295   2.940   2.046   1.240  0.7384 -0.9273  2.4073
  432SOL    HW2 1296   2.956   2.210   1.298 -1.1450 -0.6967 -1.2184
  433SOL     OW 1297   1.846   0.189   0.799  0.4952 -0.6711  0.3332
  433SOL    HW1 1298   1.785   0.231   0.870 -3.9079 -1.1152  0.8271
  433SOL    HW2 1299   1.902   0.110   0.826 -0.2668  2.1541 -2.3635
  434SOL     OW 1300   1.578   0.330   0.669 -0.7340  0.0656 -0.0581
  434SOL    HW1 1301   1.566   0.380   0.580 -2.0174 -1.9589 -4.4534
  434SOL    HW2 1302   1.633   0.381   0.737  0.3828 -0.6950 -1.1181
  435SOL     OW 1303   1.558   1.435   2.046 -0.3857 -0.2290  0.6854
  435SOL    HW1 1304   1.560   1.469   2.147 -2.6711  0.0650  1.2453
  435SOL    HW2 1305   1.555   1.516   1.983  2.1361  2.1546  0.8508
  436SOL     OW 1306   1.703   2.720   2.247 -0.2269 -0.1397  0.7019
  436SOL    HW1 1307   1.653   2.780   2.311 -0.0768  0.3214 -1.4552
  436SOL    HW2 1308   1.705   2.617   2.276  0.9245 -2.5501  2.9270
  437SOL     OW 1309   1.084   2.937   0.905 -0.1597  0.7192 -0.1134
  437SOL    HW1 1310   1.021   3.015   0.871  0.3807  1.0406  1.5252
  437SOL    HW2 1311   1.079   2.924   1.009 -1.8591  1.1086 -0.4426
  438SOL     OW 1312   1.001   2.670   1.422 -0.1473 -0.0264  0.5995
  438SOL    HW1 1313   1.102   2.645   1.436 -0.5473  0.7756  0.2637
  438SOL    HW2 1314   0.949   2.581   1.429 -1.8537 -2.2314 -0.7126
  439SOL     OW 1315   0.671   1.830   1.070 -0.1969  0.4074  0.0761
  439SOL    HW1 1316   0.651   1.919   1.022  0.6459  0.0558  1.1336
  439SOL    HW2 1317   0.587   1.769   1.076  0.6377  0.3005 -4.0334
  440SOL     OW 1318   1.082   2.481   1.967 -0.0002  0.2996 -0.2538
  440SOL    HW1 1319   1.008   2.511   1.901 -0.1517  1.0134  1.3823
  440SOL    HW2 1320   1.174   2.510   1.935 -2.0229 -0.0095 -0.7474
  441SOL     OW 1321   0.409   2.689   1.548 -0.3530 -0.4927  0.4189
  441SOL    HW1 1322   0.483   2.619   1.548 -0.8234 -0.3198 -0.1726
  441SOL    HW2 1323   0.354   2.685   1.457 -2.8276 -0.2436  1.5460
  442SOL     OW 1324   2.263   0.705   2.538  0.1485 -0.4432  0.6370
  442SOL    HW1 1325   2.239   0.605   2.556 -1.5389  1.6393 -0.2910
  442SOL    HW2 1326   2.187   0.771   2.552  1.6569 -1.1824 -1.7029
  443SOL     OW 1327   1.188   2.709   2.199  0.1240  0.1192  0.4520
  443SOL    HW1 1328   1.160   2.745   2.292  1.4525  0.1091 -1.0042
  443SOL    HW2 1329   1.263   2.639   2.212 -1.1148  0.0709  1.0089
  444SOL     OW 1330   0.997   1.322   1.591  0.2760  0.1972 -0.4400
  444SOL    HW1 1331   1.100   1.310   1.580 -0.3636  0.8839 -0.5620
  444SOL    HW2 1332   0.966   1.421   1.584 -0.0797  0.7219  0.5116
  445SOL     OW 1333   3.068   2.390   1.986 -0.0949  0.1982 -0.2654
  445SOL    HW1 1334   3.091   2.456   1.907  0.3469 -1.7330 -0.1747
  445SOL    HW2 1335   2.968   2.362   1.999  0.8096  1.0097  0.3511
  446SOL     OW 1336   0.211   1.913   2.344 -0.0654  0.2597  0.0454
  446SOL    HW1 1337   0.172   2.008   2.359  0.0286 -0.7297 -2.0745
  446SOL    HW2 1338   0.142   1.854   2.301  2.3786 -2.6071  2.7107
  447SOL     OW 1339   1.190   1.666   1.949  0.0794 -0.3626  0.0118
  447SOL    HW1 1340   1.129   1.732   1.900 -1.1227 -0.0092 -0.2079
  447SOL    HW2 1341   1.287   1.701   1.958 -0.0675 -3.8948 -0.6959
  448SOL     OW 1342   0.105   1.478   1.963  0.5690 -0.1272 -0.2754
  448SOL    HW1 1343   0.086   1.582   1.972 -3.0945  2.0817  0.3752
  448SOL    HW2 1344   0.133   1.431   2.053  0.7274 -0.3775 -1.2415
  449SOL     OW 1345   1.991   3.011   0.861 -0.1273  0.4516 -0.0627
  449SOL    HW1 1346   2.045   3.029   0.944 -0.0105  0.5357 -0.1676
  449SOL    HW2 1347   1.997   2.907   0.845  1.9564 -0.2010  1.2085
  450SOL     OW 1348   2.279   1.373   0.874  0.1215 -0.1788  0.3670
  450SOL    HW1 1349   2.244   1.276   0.858 -0.0260  1.6713  0.3172
  450SOL    HW2 1350   2.192   1.431   0.869 -1.3110  0.1120  2.3861
  451SOL     OW 1351   1.435   0.029   1.452 -0.0808 -0.1119 -0.1025
  451SOL    HW1 1352   1.350   0.086   1.440  0.4762  0.0241 -0.4520
  451SOL    HW2 1353   1.436  -0.021   1.541 -1.0244 -0.9086 -1.8827
  452SOL     OW 1354   2.657   2.304   2.258 -0.2864 -0.5227  0.0087
  452SOL    HW1 1355   2.600   2.380   2.293 -0.4365  1.2491  2.2328
  452SOL    HW2 1356   2.708   2.257   2.333 -1.4413 -0.0176 -2.3085
  453SOL     OW 1357   2.435   2.596   3.045 -0.0680 -0.2978 -0.2253
  453SOL    HW1 1358   2.351   2.655   3.064  2.0094  0.6480  0.3627
  453SOL    HW2 1359   2.418   2.545   2.955  0.3994 -1.6980 -0.4900
  454SOL     OW 1360   0.950   1.087   2.083  0.0698 -0.6482 -0.2284
  454SOL    HW1 1361   0.940   1.162   2.014  1.5743  0.7149  1.0113
  454SOL    HW2 1362   1.050   1.062   2.084  2.2116  1.1798 -2.3156
  455SOL     OW 1363   0.720   2.627   2.908 -0.2575  0.0014  0.1978
  455SOL    HW1 1364   0.766   2.699   2.964 -1.5570 -2.1064 -1.4771
  455SOL    HW2 1365   0.670   2.555   2.967 -0.6454 -1.0333  2.2743
  456SOL     OW 1366   0.554   1.784   0.285  0.3024  0.1818  0.2273
  456SOL    HW1 1367   0.643   1.744   0.259 -0.9474  4.1711 -0.7415
  456SOL    HW2 1368   0.561   1.892   0.285  0.7889  0.0090  2.2115
  457SOL     OW 1369   0.330   2.594   0.699  0.5156 -0.3746 -0.9971
  457SOL    HW1 1370   0.325   2.608   0.592 -1.7884  1.1646 -0.9319
  457SOL    HW2 1371   0.409   2.536   0.733 -0.0756 -0.4889 -0.0636
  458SOL     OW 1372   2.966   2.953   1.243 -0.0850 -1.0234 -0.2960
  458SOL    HW1 1373   2.983   3.055   1.218  2.6217 -1.6634  0.5955
  458SOL    HW2 1374   2.947   2.890   1.157 -3.7745 -0.4046 -1.9538
  459SOL     OW 1375   2.084   2.529   0.926  0.2005  0.4483 -0.0029
  459SOL    HW1 1376   2.064   2.616   0.981 -2.0607  2.8562 -0.7101
  459SOL    HW2 1377   2.183   2.530   0.885 -0.2967 -0.5120 -0.1304
  460SOL     OW 1378   1.071   1.923   2.894 -0.0455 -0.0192 -0.3224
  460SOL    HW1 1379   1.049   2.027   2.907 -0.3159  0.5620  1.7662
  460SOL    HW2 1380   1.138   1.887   2.965 -1.6290 -1.0247  0.8488
  461SOL     OW 1381   0.511   2.118   2.702  0.4592 -0.0884 -0.1270
  461SOL    HW1 1382   0.480   2.046   2.633  1.2350 -0.7000 -0.8748
  461SOL    HW2 1383   0.552   2.072   2.786  0.0027  0.6111  2.2408
  462SOL     OW 1384   0.952   1.207   1.833  0.4395 -0.0366 -0.4065
  462SOL    HW1 1385   0.985   1.110   1.812 -0.1428  4.2875  1.9639
  462SOL    HW2 1386   0.966   1.273   1.755 -1.8115  1.1395 -1.9109
  463SOL     OW 1387   0.452   0.797   0.558 -0.4790  0.4416 -0.3017
  463SOL    HW1 1388   0.497   0.711   0.510 -2.0519 -1.3287 -0.8944
  463SOL    HW2 1389   0.350   0.781   0.565  1.5606 -1.6388  1.8864
  464SOL     OW 1390   0.502   2.250   2.217 -0.1940  0.2532 -0.3156
  464SOL    HW1 1391   0.455   2.321   2.276 -0.3380 -0.8959  0.7875
  464SOL    HW2 1392   0.549   2.294   2.135 -0.5238  1.7716 -2.0360
  465SOL     OW 1393   0.225   0.888   0.878 -0.1443 -0.4467 -0.3048
  465SOL    HW1 1394   0.135   0.913   0.824 -0.7306  0.8373 -0.5534
  465SOL    HW2 1395   0.234   0.782   0.886  1.2156 -0.1592  1.6003
  466SOL     OW 1396   1.376   1.082   1.047  0.1427 -0.2215 -0.3946
  466SOL    HW1 1397   1.465   1.132   1.064 -0.5168 -1.5254 -1.2909
  466SOL    HW2 1398   1.291   1.144   1.058 -1.7186 -0.5944  1.1915
  467SOL     OW 1399   0.446   0.382   2.388 -0.2279  0.4887  0.4823
  467SOL    HW1 1400   0.422   0.474   2.436 -2.6445 -0.8597  0.6455
  467SOL    HW2 1401   0.445   0.303   2.457  1.1573  0.7387 -0.5826
  468SOL     OW 1402   0.486   2.243   1.688  0.5124  0.0188  0.2410
  468SOL    HW1 1403   0.490   2.324   1.754 -1.3789  0.5479  0.4039
  468SOL    HW2 1404   0.468   2.268   1.587 -0.1254  0.8290  0.4445
  469SOL     OW 1405   1.548   1.289   1.112  0.0036 -0.6790 -0.3095
  469SOL    HW1 1406   1.640   1.248   1.090 -0.4736 -0.7887 -1.9950
  469SOL    HW2 1407   1.570   1.379   1.163  0.0377 -1.9919 -1.0075
  470SOL     OW 1408   3.031   1.655   0.736  0.5667 -0.0990  0.1866
  470SOL    HW1 1409   3.122   1.655   0.786 -1.8149 -3.5563 -1.5751
  470SOL    HW2 1410   2.964   1.725   0.771  1.1045 -0.0895 -3.0349
  471SOL     OW 1411   2.693   1.297   2.136 -0.1069 -0.1166  0.4126
  471SOL    HW1 1412   2.632   1.234   2.195 -0.9292  0.4405  1.9581
  471SOL    HW2 1413   2.734   1.375   2.190 -0.2115  1.6165  1.0648
  472SOL     OW 1414   1.099   2.466   3.093  0.0378  0.1954  0.4493
  472SOL    HW1 1415   1.179   2.443   3.156 -1.4260  0.1011  2.2261
  472SOL    HW2 1416   1.031   2.390   3.094  1.6597  0.2956  0.3711
  473SOL     OW 1417   1.080   1.579   0.872 -0.6055  0.2528 -0.6152
  473SOL    HW1 1418   0.992   1.599   0.922  1.2911  1.2816  0.4676
  473SOL    HW2 1419   1.152   1.551   0.946 -0.6382  0.4738 -1.5993
  474SOL     OW 1420   0.809   1.206   0.721 -0.7166  0.4946 -0.0372
  474SOL    HW1 1421   0.764   1.225   0.630  2.5414 -0.1244 -0.4551
  474SOL    HW2 1422   0.825   1.106   0.738 -0.1571  0.8928  1.2906
  475SOL     OW 1423   2.868   0.094   0.732 -0.0740  0.2220  0.0627
  475SOL    HW1 1424   2.952   0.089   0.795 -2.3186 -1.4799  1.2398
  475SOL    HW2 1425   2.776   0.109   0.791 -0.1362  1.1358  2.3589
  476SOL     OW 1426   0.877   3.081   1.819 -0.3555 -0.0862  0.0750
  476SOL    HW1 1427   0.918   3.039   1.902  1.2344  1.1943  0.2676
  476SOL    HW2 1428   0.909   3.037   1.733 -0.0234 -0.8937  1.4928
  477SOL     OW 1429   1.442   0.326   2.422  0.1128  0.3651 -0.1476
  477SOL    HW1 1430   1.416   0.317   2.521 -0.6589 -0.1243 -0.7837
  477SOL    HW2 1431   1.542   0.291   2.402  0.8979  0.4847 -0.5063
  478SOL     OW 1432   2.308   1.821   0.233 -0.6208 -0.0530  0.1605
  478SOL    HW1 1433   2.261   1.731   0.219  0.3999  1.1896  0.0695
  478SOL    HW2 1434   2.412   1.813   0.209 -1.4687 -0.2965 -1.4026
  479SOL     OW 1435   1.258   1.097   2.901 -0.5049  0.6546 -0.9289
  479SOL    HW1 1436   1.341   1.089   2.846 -2.4558  0.0932  0.3460
  479SOL    HW2 1437   1.177   1.043   2.866 -1.5207 -0.9526  0.6838
  480SOL     OW 1438   2.458   2.340   0.384 -0.3339 -0.2312 -0.0768
  480SOL    HW1 1439   2.401   2.281   0.447  0.4818  0.6178  0.0803
  480SOL    HW2 1440   2.416   2.364   0.296  0.6860  0.8087 -1.3966
  481SOL     OW 1441   1.128   1.171   0.800 -0.4040  0.3768  0.7534
  481SOL    HW1 1442   1.078   1.233   0.734  0.9416 -0.5850  0.5658
  481SOL    HW2 1443   1.148   1.226   0.887 -0.7927  0.6413 -0.1886
  482SOL     OW 1444   1.611   0.300   2.030  0.0958 -0.1393 -0.4407
  482SOL    HW1 1445   1.623   0.384   1.969 -1.8402 -0.5826  3.2459
  482SOL    HW2 1446   1.697   0.281   2.081  1.6072  0.3017  0.0567
  483SOL     OW 1447   0.147   2.348   1.301  0.0042  0.3085  0.1639
  483SOL    HW1 1448   0.047   2.343   1.333 -0.6118  0.5315 -0.9036
  483SOL    HW2 1449   0.163   2.404   1.213 -0.0093 -0.6069  2.2788
  484SOL     OW 1450   1.725   0.985   1.379 -0.0942 -0.1030 -0.3625
  484SOL    HW1 1451   1.803   0.920   1.389  2.0220 -0.1673  0.2465
  484SOL    HW2 1452   1.747   1.075   1.427 -1.9624  1.7892  1.2020
  485SOL     OW 1453   0.696   1.117   1.774 -0.1578  0.3064  0.1533
  485SOL    HW1 1454   0.706   1.101   1.673  0.2131 -0.7214 -0.8692
  485SOL    HW2 1455   0.780   1.163   1.808 -3.2238 -0.8598 -0.5170
  486SOL     OW 1456   0.907   1.922   2.464 -0.3746 -0.2015 -0.2624
  486SOL    HW1 1457   0.944   1.872   2.547  1.2556  2.4485 -1.4909
  486SOL    HW2 1458   0.836   1.989   2.492 -0.4567 -3.7739 -0.7139
  487SOL     OW 1459   1.749   1.489   0.903 -0.1508  0.1853 -0.1362
  487SOL    HW1 1460   1.753   1.412   0.839 -0.1622  0.2364 -0.7378
  487SOL    HW2 1461   1.796   1.566   0.859 -1.9418 -0.1670 -2.6070
  488SOL     OW 1462   2.962   0.957   2.272 -0.2159  0.5033  0.9800
  488SOL    HW1 1463   3.009   0.902   2.194  0.0769  1.3215  2.0491
  488SOL    HW2 1464   2.988   0.926   2.368  0.6577  0.0220  2.0864
  489SOL     OW 1465   2.797   0.236   1.307  0.3456 -0.7432  0.0313
  489SOL    HW1 1466   2.745   0.209   1.394  1.3716  0.8249 -0.6121
  489SOL    HW2 1467   2.875   0.174   1.284  2.8331  0.3122 -2.4358
  490SOL     OW 1468   1.414   2.968   2.872  0.2158 -0.4180 -0.1209
  490SOL    HW1 1469   1.462   2.880   2.872 -1.1986  0.7026 -2.1756
  490SOL    HW2 1470   1.357   2.990   2.790  0.2088 -0.7866  2.9806
  491SOL     OW 1471   1.884   1.569   2.687  0.6746 -0.1554 -0.0712
  491SOL    HW1 1472   1.875   1.671   2.712 -1.8558 -0.6585 -1.1279
  491SOL    HW2 1473   1.974   1.525   2.713 -0.1238 -4.6575 -2.0282
  492SOL     OW 1474   0.464   1.958   0.739  0.2664  0.1385  0.0713
  492SOL    HW1 1475   0.551   2.004   0.776 -1.7081  0.5744 -0.2593
  492SOL    HW2 1476   0.385   2.022   0.735 -0.4863 -2.0615 -0.8565
  493SOL     OW 1477   0.423   1.407   2.109 -0.1156 -0.2665  0.2541
  493SOL    HW1 1478   0.323   1.424   2.119  0.0203 -2.4357  0.5260
  493SOL    HW2 1479   0.463   1.357   2.190 -0.2506  1.8805  1.0886
  494SOL     OW 1480   2.638   2.655   0.144  0.0714 -0.0802  0.5509
  494SOL    HW1 1481   2.673   2.571   0.188 -1.2382  1.0193  1.8769
  494SOL    HW2 1482   2.566   2.635   0.071 -0.3601  0.6191  0.6913
  495SOL     OW 1483   2.752   2.682   2.688  0.4140 -0.0188  0.1427
  495SOL    HW1 1484   2.784   2.590   2.654 -1.1760  2.2949 -1.3086
  495SOL    HW2 1485   2.768   2.752   2.611  1.1700  0.8844 -1.7794
  496SOL     OW 1486   2.095   2.194   0.731 -0.4511 -0.4972 -0.4701
  496SOL    HW1 1487   2.097   2.233   0.832 -0.0064  4.0118  3.6869
  496SOL    HW2 1488   2.066   2.098   0.730 -2.8313  0.3103 -0.8305
  497SOL     OW 1489   0.239   2.971   2.415  0.0077 -0.2037  0.4706
  497SOL    HW1 1490   0.193   3.031   2.486  3.2372 -0.7059 -1.1250
  497SOL    HW2 1491   0.263   3.017   2.325 -0.2687 -0.6260  1.9098
  498SOL     OW 1492   1.197   1.479   1.115  0.1487  0.2046 -0.2548
  498SOL    HW1 1493   1.280   1.528   1.151 -1.3408 -2.9110  0.2537
  498SOL    HW2 1494   1.110   1.488   1.180 -3.9602  0.5008 -2.2302
  499SOL     OW 1495   0.856   1.812   0.527  0.3257  0.9756 -0.1596
  499SOL    HW1 1496   0.811   1.722   0.556  0.8532  2.4670  0.3061
  499SOL    HW2 1497   0.888   1.869   0.611 -1.7859  1.0000 -0.6605
  500SOL     OW 1498   1.415   2.981   1.720  0.1398  0.0945 -1.0464
  500SOL    HW1 1499   1.464   3.036   1.794  0.7016 -0.2962  0.5010
  500SOL    HW2 1500   1.441   2.879   1.722  1.9386  1.8167 -1.4050
  501SOL     OW 1501   0.736   1.144   2.263 -0.1466  0.0276  0.6760
  501SOL    HW1 1502   0.658   1.068   2.268 -2.9031 -0.8402  1.7890
  501SOL    HW2 1503   0.805   1.126   2.187 -3.0866 -0.4156 -0.5464
  502SOL     OW 1504   2.622   0.974   1.722 -0.2294  0.0375 -0.5879
  502SOL    HW1 1505   2.579   0.969   1.628 -0.3994 -0.3345  2.4859
  502SOL    HW2 1506   2.605   0.882   1.773  3.4133  1.1348 -0.1965
  503SOL     OW 1507   1.338   0.181   0.615 -0.1631 -0.4614  0.2502
  503SOL    HW1 1508   1.260   0.251   0.602  1.7283  1.6581 -3.6747
  503SOL    HW2 1509   1.432   0.227   0.625  0.8830  2.1821  0.6161
  504SOL     OW 1510   2.962   2.378   1.402  0.1299  0.5050  0.5542
  504SOL    HW1 1511   2.971   2.468   1.455  1.0654 -2.6249 -3.2069
  504SOL    HW2 1512   2.875   2.331   1.435 -2.9791  3.8470  1.4432
  505SOL     OW 1513   2.302   1.239   1.436  0.5329 -0.0184  0.1594
  505SOL    HW1 1514   2.267   1.307   1.359 -0.3548  0.5934 -2.3144
  505SOL    HW2 1515   2.390   1.276   1.478 -0.4117  0.9619  1.0707
  506SOL     OW 1516   1.894   0.243   1.818 -0.0909 -0.6207 -0.4429
  506SOL    HW1 1517   1.966   0.234   1.741  1.2032  0.6707  1.2288
  506SOL    HW2 1518   1.929   0.313   1.884 -0.0700  1.3872 -1.7165
  507SOL     OW 1519   0.504   0.666   2.184 -0.3110  0.6547  0.1323
  507SOL    HW1 1520   0.424   0.663   2.119  0.9244  2.2435 -1.1010
  507SOL    HW2 1521   0.563   0.582   2.179 -1.9329  2.5244 -1.4897
  508SOL     OW 1522   0.188   1.673   0.858 -1.2424 -0.0467 -0.4049
  508SOL    HW1 1523   0.238   1.763   0.854  0.0328  0.3977 -0.5885
  508SOL    HW2 1524   0.197   1.625   0.947  1.7184 -0.6483 -0.9423
  509SOL     OW 1525   1.367   1.195   2.564  0.0442  0.2507  0.2264
  509SOL    HW1 1526   1.276   1.241   2.573 -0.5120 -1.3047  3.4393
  509SOL    HW2 1527   1.362   1.096   2.517 -0.2682 -4.6006  1.6963
  510SOL     OW 1528   1.337   1.986   2.030 -0.2849  0.4446 -0.6228
  510SOL    HW1 1529   1.297   2.086   2.031 -2.1318 -0.1916 -1.3023
  510SOL    HW2 1530   1.293   1.935   2.104  1.2091 -0.0351  1.5122
  511SOL     OW 1531   0.008   2.639   1.307 -0.6441 -0.0965 -0.1719
  511SOL    HW1 1532  -0.069   2.603   1.248 -0.9894 -1.3208 -0.0282
  511SOL    HW2 1533  -0.013   2.638   1.408  1.3803  0.5200 -2.1776
  512SOL     OW 1534   2.413   0.427   1.357 -0.0374  0.0183  0.5245
  512SOL    HW1 1535   2.310   0.419   1.355 -0.3199 -0.3577 -2.1229
  512SOL    HW2 1536   2.450   0.437   1.259 -0.6329 -0.0484 -2.3651
  513SOL     OW 1537   2.495   2.005   0.842 -0.0677 -0.0731 -0.3275
  513SOL    HW1 1538   2.448   2.098   0.846  1.0727  2.0362  0.3804
  513SOL    HW2 1539   2.548   1.996   0.753  0.1991  0.2029 -0.4471
  514SOL     OW 1540   0.674   2.795   0.393 -0.0189  0.6763  0.6034
  514SOL    HW1 1541   0.629   2.829   0.305 -0.5377 -1.1253  1.1852
  514SOL    HW2 1542   0.660   2.865   0.471 -1.6778  0.0171 -0.2982
  515SOL     OW 1543   1.971   1.216   2.348  0.4007  0.2407 -0.0122
  515SOL    HW1 1544   1.905   1.241   2.270 -0.0358 -1.9408 -0.4000
  515SOL    HW2 1545   1.937   1.226   2.449 -2.1354 -1.6728 -0.8146
  516SOL     OW 1546   0.262   0.300   1.963  0.2757  0.2696  0.3838
  516SOL    HW1 1547   0.363   0.291   1.932  1.0650  1.5221 -0.7401
  516SOL    HW2 1548   0.199   0.241   1.909 -0.2873 -0.6943 -0.6557
  517SOL     OW 1549   0.358   3.048   1.163 -0.1848  0.0267 -0.4128
  517SOL    HW1 1550   0.383   3.143   1.204  0.7462  1.0663 -2.3790
  517SOL    HW2 1551   0.264   3.020   1.189  2.4811  2.6580 -1.2643
  518SOL     OW 1552   2.149   0.166   1.672 -0.0855  0.4993 -0.6717
  518SOL    HW1 1553   2.225   0.200   1.726 -1.3841 -0.1796 -1.1715
  518SOL    HW2 1554   2.171   0.068   1.640  1.8553 -1.1838 -1.1586
  519SOL     OW 1555   2.367   2.174   2.538 -0.7490 -0.3554 -0.4175
  519SOL    HW1 1556   2.304   2.153   2.618 -1.4981 -1.1616 -3.0240
  519SOL    HW2 1557   2.418   2.260   2.561 -1.7848 -3.0534 -0.2882
  520SOL     OW 1558   1.770   2.876   1.792 -0.1418 -0.6084  0.1319
  520SOL    HW1 1559   1.696   2.838   1.855  1.9599 -0.1208 -1.3779
  520SOL    HW2 1560   1.835   2.801   1.758  1.0392  2.1668 -2.5000
  521SOL     OW 1561   0.569   0.147   2.136  0.1546 -0.0200  0.3834
  521SOL    HW1 1562   0.475   0.139   2.180 -0.0236  1.0237 -0.1891
  521SOL    HW2 1563   0.645   0.112   2.199  0.1163 -0.2365 -1.7872
  522SOL     OW 1564   0.204   1.899   1.556  0.3905 -0.3256 -0.3353
  522SOL    HW1 1565   0.256   1.940   1.637 -0.3316 -0.4112  0.2885
  522SOL    HW2 1566   0.204   1.957   1.471 -0.8644 -0.4893  1.0542
  523SOL     OW 1567   2.198   2.968   1.619  0.6477  0.8056 -0.0402
  523SOL    HW1 1568   2.226   2.877   1.576 -0.1379 -0.5260  1.2009
  523SOL    HW2 1569   2.097   2.991   1.601  1.5910  0.7483 -0.2787
  524SOL     OW 1570   0.249   2.743   2.827  0.0847  0.2242 -0.3893
  524SOL    HW1 1571   0.260   2.757   2.930  0.2388  1.3551 -2.1636
  524SOL    HW2 1572   0.334   2.776   2.781 -0.9604 -1.2959  3.7650
  525SOL     OW 1573   2.126   1.937   0.463 -0.0340 -0.3379  0.2294
  525SOL    HW1 1574   2.091   1.857   0.512 -0.2166  2.0170  1.7201
  525SOL    HW2 1575   2.202   1.916   0.394  0.6135 -1.1730 -0.9400
  526SOL     OW 1576   0.414   1.517   1.549 -0.1013  0.3385  0.5986
  526SOL    HW1 1577   0.360   1.491   1.635  1.9505 -1.0700 -1.2187
  526SOL    HW2 1578   0.468   1.437   1.512  0.1724  1.8596  0.8482
  527SOL     OW 1579   1.105   2.885   1.195  0.1735  0.2354  0.0829
  527SOL    HW1 1580   1.131   2.804   1.255  0.9509 -1.0122  1.8662
  527SOL    HW2 1581   1.143   2.973   1.233  0.2613 -2.3023 -0.0578
  528SOL     OW 1582   1.349   2.393   0.458  0.0613  0.2236  0.0624
  528SOL    HW1 1583   1.379   2.296   0.451  1.0748  1.4656 -0.1453
  528SOL    HW2 1584   1.407   2.444   0.531  0.5405  0.5839 -0.4010
  529SOL     OW 1585   1.831   1.739   0.793 -0.3410 -0.0577 -0.0354
  529SOL    HW1 1586   1.806   1.747   0.692  1.0826 -1.0513 -2.2761
  529SOL    HW2 1587   1.843   1.834   0.840  0.1979  0.2355 -2.5064
  530SOL     OW 1588   0.329   2.451   0.305  0.2038  0.4864 -0.5716
  530SOL    HW1 1589   0.305   2.524   0.377  1.9287 -1.0702 -3.7483
  530SOL    HW2 1590   0.406   2.382   0.330  0.6285 -3.0169 -0.4208
  531SOL     OW 1591   1.847   0.813   1.020  0.4539 -0.1383 -0.4259
  531SOL    HW1 1592   1.902   0.852   0.935  1.5828  1.1391 -1.2810
  531SOL    HW2 1593   1.762   0.871   1.026 -2.2866  2.1059  0.0242
  532SOL     OW 1594   0.490   1.091   0.740 -0.0056  0.1241  0.6380
  532SOL    HW1 1595   0.493   1.109   0.639 -0.0599  1.1626 -1.0053
  532SOL    HW2 1596   0.467   0.994   0.766 -0.1116 -0.2621 -0.5619
  533SOL     OW 1597   1.776   0.043   2.546 -0.1779 -0.1297  0.2925
  533SOL    HW1 1598   1.866   0.008   2.575 -0.4107  0.8143 -2.4418
  533SOL    HW2 1599   1.741   0.106   2.619  0.4976 -1.5556  0.9972
  534SOL     OW 1600   0.391   0.167   1.554 -0.0319  0.2219  0.2767
  534SOL    HW1 1601   0.494   0.169   1.561  0.2749 -1.0057  0.5571
  534SOL    HW2 1602   0.358   0.265   1.549 -0.7257 -0.1657  0.3255
  535SOL     OW 1603   1.930   0.340   0.196  0.4306  0.0921 -0.3892
  535SOL    HW1 1604   1.969   0.433   0.229  0.1465  1.5064 -1.6724
  535SOL    HW2 1605   1.957   0.254   0.250 -1.6154 -3.2892 -0.0691
  536SOL     OW 1606   1.370   2.625   0.931 -0.1371 -0.5646 -0.2604
  536SOL    HW1 1607   1.351   2.581   1.022 -0.5916  0.5191 -3.7213
  536SOL    HW2 1608   1.284   2.630   0.881  1.4037 -1.7041  0.2219
  537SOL     OW 1609   0.839   0.276   2.378  0.2209 -0.4762 -0.6934
  537SOL    HW1 1610   0.887   0.320   2.299  0.3642 -1.9483 -0.1160
  537SOL    HW2 1611   0.798   0.192   2.349 -1.3720  0.1017 -0.3007
  538SOL     OW 1612   1.653   2.349   1.370  0.2339  0.0062  0.4255
  538SOL    HW1 1613   1.653   2.247   1.376  2.1374  0.3591  1.7823
  538SOL    HW2 1614   1.749   2.385   1.381 -0.3121  2.1466 -0.9834
  539SOL     OW 1615   0.174   1.607   2.695  0.4434 -0.2798  0.1212
  539SOL    HW1 1616   0.070   1.595   2.684 -0.5595 -0.0150  1.3131
  539SOL    HW2 1617   0.198   1.698   2.734 -0.9825 -0.0116 -1.1939
  540SOL     OW 1618   2.658   1.712   1.909  0.2114 -0.2076 -0.1058
  540SOL    HW1 1619   2.620   1.640   1.974 -0.4464 -0.0316  1.6407
  540SOL    HW2 1620   2.611   1.804   1.908  0.8257  1.6896 -3.0320
  541SOL     OW 1621   0.561   2.159   0.029 -0.1906  0.4668 -0.1667
  541SOL    HW1 1622   0.569   2.121   0.127  1.1145 -1.8733  0.9016
  541SOL    HW2 1623   0.462   2.157  -0.007 -0.6860 -0.7561 -0.0127
  542SOL     OW 1624   2.235   2.628   0.511  0.0258  0.7609  0.5040
  542SOL    HW1 1625   2.215   2.727   0.528  0.9625  1.0300 -1.3529
  542SOL    HW2 1626   2.153   2.567   0.524  0.2398  1.4711  1.2588
  543SOL     OW 1627   1.083   1.812   1.566  0.3766 -0.4704  0.7488
  543SOL    HW1 1628   1.079   1.852   1.665 -0.0079 -0.7001 -0.7206
  543SOL    HW2 1629   1.030   1.868   1.497 -3.2158 -0.5702  0.8273
  544SOL     OW 1630   1.148   0.517   0.164  0.9341  0.0794 -0.2383
  544SOL    HW1 1631   1.132   0.444   0.234 -1.0166  1.0966 -1.0417
  544SOL    HW2 1632   1.161   0.475   0.069  1.0585  2.2553  1.8587
  545SOL     OW 1633   1.107   1.849   0.773  0.5447  0.2242 -0.1893
  545SOL    HW1 1634   1.190   1.849   0.711 -0.5678  0.4242 -0.2864
  545SOL    HW2 1635   1.074   1.753   0.790 -0.7267  0.2956  0.7743
  546SOL     OW 1636   2.691   1.592   2.973 -0.7733  0.1479  0.2261
  546SOL    HW1 1637   2.689   1.693   2.948  0.5579  2.2084  1.1849
  546SOL    HW2 1638   2.597   1.562   2.983  0.2716  1.6139 -0.3209
  547SOL     OW 1639   0.660   3.038   2.514 -0.2168  0.0791 -0.6614
  547SOL    HW1 1640   0.700   3.006   2.604  0.3215 -0.0558  3.6631
  547SOL    HW2 1641   0.587   2.965   2.481  0.9522 -0.2606  1.1984
  548SOL     OW 1642   2.062   0.769   3.054  0.3126 -0.4143 -0.3750
  548SOL    HW1 1643   1.958   0.755   3.056 -0.3145 -1.4198 -1.6564
  548SOL    HW2 1644   2.089   0.867   3.070  1.3427 -0.1382 -1.4665
  549SOL     OW 1645   0.703   0.559   0.211 -0.3233 -0.5263 -0.4561
  549SOL    HW1 1646   0.646   0.619   0.152  1.0792 -1.4365  1.0017
  549SOL    HW2 1647   0.803   0.595   0.203  0.4273 -0.2369  0.6094
  550SOL     OW 1648   2.562   2.807   2.843  0.2204 -0.3057  0.2271
  550SOL    HW1 1649   2.539   2.743   2.920 -0.6561  0.0763 -0.7239
  550SOL    HW2 1650   2.633   2.766   2.784 -2.2307  0.1225 -0.2070
  551SOL     OW 1651   0.229   0.876   0.270  0.1601 -0.2677 -0.0878
  551SOL    HW1 1652   0.323   0.904   0.231  0.5667  1.4666  1.4715
  551SOL    HW2 1653   0.218   0.874   0.373 -2.0273 -0.1370 -1.5959
  552SOL     OW 1654   0.589   3.027   1.979  0.4695  0.5998  0.1859
  552SOL    HW1 1655   0.563   3.111   2.032  0.6978  1.0574  0.4434
  552SOL    HW2 1656   0.689   3.025   1.947 -0.3000 -0.0469 -0.1757
  553SOL     OW 1657   2.977   2.399   0.378  0.5375  0.2008  0.2213
  553SOL    HW1 1658   2.979   2.306   0.419  0.2816 -1.6017  0.5268
  553SOL    HW2 1659   2.885   2.438   0.347  2.3947 -1.7456 -0.9553
  554SOL     OW 1660   2.207   0.384   0.521  0.3858 -0.2607  0.2391
  554SOL    HW1 1661   2.258   0.388   0.435  0.5063 -0.6548  0.2037
  554SOL    HW2 1662   2.215   0.289   0.565  0.3254 -2.1564 -0.6670
  555SOL     OW 1663   0.482   2.844   2.472  0.1995  0.2262 -0.2914
  555SOL    HW1 1664   0.384   2.872   2.463 -1.0767 -3.1579 -2.2053
  555SOL    HW2 1665   0.503   2.775   2.391 -0.6078  1.1997 -1.9537
  556SOL     OW 1666   0.809   2.468   1.606  0.0283 -0.0512 -0.2722
  556SOL    HW1 1667   0.870   2.528   1.663  1.0643  1.4162 -0.0709
  556SOL    HW2 1668   0.867   2.411   1.540  0.7269  0.0896  3.4061
  557SOL     OW 1669   0.241   2.094   0.291  0.9524  0.1350  0.6087
  557SOL    HW1 1670   0.153   2.053   0.256 -1.6091 -2.8736 -0.6878
  557SOL    HW2 1671   0.308   2.096   0.216 -0.7411  0.3928 -1.3120
  558SOL     OW 1672   2.834   2.147   0.404 -0.1534 -0.7604 -0.0886
  558SOL    HW1 1673   2.759   2.190   0.460  4.4286  1.6158 -0.9616
  558SOL    HW2 1674   2.799   2.082   0.334  3.1371  0.7378  0.5246
  559SOL     OW 1675   0.405   2.347   1.438 -0.4412 -0.5621  0.2010
  559SOL    HW1 1676   0.310   2.332   1.400  4.1980  0.5461  0.9646
  559SOL    HW2 1677   0.479   2.305   1.376 -0.5631 -1.4801 -0.0642
  560SOL     OW 1678   2.125   1.046   3.096 -0.1251 -0.4318 -0.0234
  560SOL    HW1 1679   2.182   1.069   3.178 -2.2010 -0.5147  1.4499
  560SOL    HW2 1680   2.184   1.037   3.014  0.7277 -0.6752 -1.6605
  561SOL     OW 1681   0.037   1.920   0.161 -0.5657  0.2740  1.0366
  561SOL    HW1 1682  -0.023   1.907   0.245  1.4818  0.7935  1.0955
  561SOL    HW2 1683  -0.027   1.927   0.078  1.7277  0.8626  2.1672
  562SOL     OW 1684   1.108   2.087   2.279 -0.3683 -0.5109 -0.3129
  562SOL    HW1 1685   1.029   2.152   2.299 -3.5741  0.5054  0.0282
  562SOL    HW2 1686   1.076   1.990   2.297  0.8942  1.2818  0.3432
  563SOL     OW 1687   0.663   2.531   2.652 -0.1975 -0.0414  0.3671
  563SOL    HW1 1688   0.747   2.525   2.590 -2.6157 -0.2763 -1.6487
  563SOL    HW2 1689   0.690   2.561   2.749 -0.3869 -0.0396  0.4157
  564SOL     OW 1690   2.858   1.394   2.886 -0.4777  0.1532 -0.0049
  564SOL    HW1 1691   2.780   1.458   2.913  1.8873 -0.7415  0.8494
  564SOL    HW2 1692   2.933   1.449   2.839  0.1352  2.1376 -2.5877
  565SOL     OW 1693   2.527   1.960   2.640  0.1116 -0.1405  0.0417
  565SOL    HW1 1694   2.474   2.042   2.600  0.4003  0.7248 -0.8197
  565SOL    HW2 1695   2.604   1.985   2.710 -0.8070  2.9527  1.1301
  566SOL     OW 1696   1.980   2.899   1.455 -0.2686 -0.4435 -0.5110
  566SOL    HW1 1697   1.968   2.816   1.511  0.5529  0.2603 -1.0489
  566SOL    HW2 1698   2.002   2.873   1.356  2.1805  1.7676 -1.2763
  567SOL     OW 1699   2.389   0.019   2.323 -0.2147 -0.2875  0.2497
  567SOL    HW1 1700   2.294   0.032   2.362  1.8801  0.9640 -1.2681
  567SOL    HW2 1701   2.399   0.052   2.225 -0.1147  0.1123  1.0040
  568SOL     OW 1702   1.497   1.718   0.276  0.2245 -0.2718 -0.4508
  568SOL    HW1 1703   1.440   1.805   0.251 -0.5545 -1.2629  0.4196
  568SOL    HW2 1704   1.596   1.744   0.297  0.0336  0.3615 -3.4716
  569SOL     OW 1705   0.266   0.595   0.894  0.0186 -0.1982  0.1489
  569SOL    HW1 1706   0.301   0.570   0.803 -2.3634  0.0182  0.8599
  569SOL    HW2 1707   0.160   0.575   0.897 -1.1132 -2.6035 -0.5894
  570SOL     OW 1708   0.635   0.876   2.906  0.0044 -0.2474  0.3285
  570SOL    HW1 1709   0.671   0.896   2.814 -0.7132 -1.6927 -0.0502
  570SOL    HW2 1710   0.621   0.962   2.963 -1.0871 -2.1572 -1.1578
  571SOL     OW 1711   0.760   3.069   1.074 -0.0228 -0.1048 -0.1408
  571SOL    HW1 1712   0.815   3.105   0.990 -2.3367  2.5120 -2.3474
  571SOL    HW2 1713   0.794   2.971   1.101 -0.0427 -1.9192 -2.2666
  572SOL     OW 1714   1.634   2.686   1.417  0.6292  0.1607  0.4029
  572SOL    HW1 1715   1.692   2.634   1.348 -0.5051  0.4075  2.4269
  572SOL    HW2 1716   1.573   2.761   1.373 -1.3714 -0.3693 -4.2090
  573SOL     OW 1717   3.067   0.490   1.945 -0.5273 -0.1506 -0.2395
  573SOL    HW1 1718   3.073   0.401   1.996  0.0808 -0.8808 -2.0066
  573SOL    HW2 1719   3.112   0.485   1.855 -2.2458  1.1227 -3.6172
  574SOL     OW 1720   0.151   1.650   1.123 -0.5936  0.6970 -0.8877
  574SOL    HW1 1721   0.227   1.663   1.194  0.9231 -0.0930 -1.5053
  574SOL    HW2 1722   0.089   1.734   1.122  0.1221  0.1480  1.1803
  575SOL     OW 1723   0.863   2.229   0.995  0.3822  0.1482 -0.3906
  575SOL    HW1 1724   0.838   2.299   1.072  1.8970  2.1191  1.2759
  575SOL    HW2 1725   0.896   2.277   0.909 -0.3553 -0.6271  0.8905
  576SOL     OW 1726   2.949   3.000   1.729  0.1254 -0.1588 -0.1386
  576SOL    HW1 1727   2.845   2.994   1.705 -2.3902  0.2162 -0.0243
  576SOL    HW2 1728   2.987   3.091   1.700 -0.4141  1.7836  0.7129
  577SOL     OW 1729   2.679   1.221   0.003  0.0809  0.1968 -0.6650
  577SOL    HW1 1730   2.671   1.127  -0.037  0.3492 -1.4551  0.0417
  577SOL    HW2 1731   2.673   1.208   0.108 -1.2394 -0.3061  0.3269
  578SOL     OW 1732   1.406   2.749   2.549 -0.2127 -0.1748 -0.3062
  578SOL    HW1 1733   1.322   2.759   2.494 -0.4463 -1.1820  0.5619
  578SOL    HW2 1734   1.487   2.801   2.507 -1.8202  0.3611 -2.0659
  579SOL     OW 1735   0.076   2.416   0.173  0.3443  0.1590 -0.2850
  579SOL    HW1 1736   0.001   2.374   0.230  1.4103 -1.0197 -0.1633
  579SOL    HW2 1737   0.164   2.435   0.230  1.5655  3.6140  0.0030
  580SOL     OW 1738   0.955   2.696   0.413 -0.3212 -0.4987 -0.4363
  580SOL    HW1 1739   1.025   2.713   0.339  0.9470  0.7301  1.5411
  580SOL    HW2 1740   0.854   2.699   0.387  1.0966  0.2196 -1.1620
  581SOL     OW 1741   1.284   2.702   1.440  0.6779  0.1439  0.5461
  581SOL    HW1 1742   1.348   2.618   1.454  1.0596  3.6532  0.2100
  581SOL    HW2 1743   1.336   2.779   1.389 -2.1449  2.5373 -0.7605
  582SOL     OW 1744   1.507   0.074   1.921  0.3068  0.0064 -0.0647
  582SOL    HW1 1745   1.539   0.143   1.990  1.4915 -2.5713 -0.1299
  582SOL    HW2 1746   1.559   0.095   1.827  0.2755  1.4747 -1.1228
  583SOL     OW 1747   2.448   3.042   0.547 -0.2461 -0.2094 -0.5009
  583SOL    HW1 1748   2.518   2.978   0.503 -1.4259 -4.3492 -1.8715
  583SOL    HW2 1749   2.373   2.987   0.588 -2.2633  1.9810 -2.0085
  584SOL     OW 1750   1.596   1.107   2.265 -0.7347  0.4885 -0.5138
  584SOL    HW1 1751   1.650   1.199   2.246  0.2584  0.6609 -1.4784
  584SOL    HW2 1752   1.653   1.029   2.309  3.2294 -2.6455 -1.2638
  585SOL     OW 1753   2.036   2.666   2.879 -0.4145  0.3020  0.1262
  585SOL    HW1 1754   2.052   2.569   2.840 -3.2688 -1.9051 -0.0073
  585SOL    HW2 1755   1.933   2.687   2.890 -0.0906 -0.5545  1.0036
  586SOL     OW 1756   2.950   0.379   1.605  0.1645  0.0692  0.2489
  586SOL    HW1 1757   2.926   0.468   1.659  0.0831 -2.9111  0.3830
  586SOL    HW2 1758   2.879   0.350   1.541  1.5043  0.8326  1.5656
  587SOL     OW 1759   2.150   1.454   2.734  0.1411  0.0269  1.0777
  587SOL    HW1 1760   2.153   1.393   2.649 -0.8539  1.5178 -0.6419
  587SOL    HW2 1761   2.243   1.504   2.748  0.0973  1.5458 -0.1462
  588SOL     OW 1762   0.520   2.649   2.303 -0.0268  0.2017  0.5204
  588SOL    HW1 1763   0.481   2.664   2.205  1.4674  0.1319 -0.6799
  588SOL    HW2 1764   0.484   2.566   2.343 -1.1849 -0.8191 -0.6276
  589SOL     OW 1765   2.178   1.335   2.491  0.1735  0.6201  0.1220
  589SOL    HW1 1766   2.134   1.293   2.408 -1.4762  0.0265 -0.3275
  589SOL    HW2 1767   2.286   1.322   2.496  0.0933 -0.8537  0.1718
  590SOL     OW 1768   2.309   1.694   2.083 -0.2824 -0.0399  0.1667
  590SOL    HW1 1769   2.372   1.608   2.071  0.6218  0.6492  2.0732
  590SOL    HW2 1770   2.310   1.733   2.179  2.0826 -0.8574  0.8355
  591SOL     OW 1771   1.320   2.431   0.169  0.6139  0.7942  0.0873
  591SOL    HW1 1772   1.359   2.342   0.137  2.1466 -1.1186 -0.7788
  591SOL    HW2 1773   1.338   2.444   0.269 -1.2244 -1.1105 -2.3952
  592SOL     OW 1774   1.774   2.362   0.805 -0.1119 -0.3734  0.2367
  592SOL    HW1 1775   1.771   2.385   0.703 -1.6089 -0.3093  0.2198
  592SOL    HW2 1776   1.840   2.419   0.861  1.2207  0.5531  1.8535
  593SOL     OW 1777   0.757   0.297   0.224 -0.4362  0.2543 -0.4497
  593SOL    HW1 1778   0.854   0.291   0.190 -1.7477  1.3616 -0.3490
  593SOL    HW2 1779   0.717   0.394   0.226 -1.1883  1.1296  1.5370
  594SOL     OW 1780   1.083   1.799   2.663  0.3450 -0.1097  0.0888
  594SOL    HW1 1781   1.161   1.847   2.620  1.0138  1.3876  2.2557
  594SOL    HW2 1782   1.059   1.836   2.757 -0.0913  0.3849  2.5526
  595SOL     OW 1783   1.514   0.133   0.990  0.4027  0.2997 -0.0118
  595SOL    HW1 1784   1.595   0.069   0.981  2.7388  1.5529  0.2198
  595SOL    HW2 1785   1.422   0.085   0.969 -2.9892  0.1641  2.7208
  596SOL     OW 1786   0.143   1.424   2.221  0.5903 -0.6270 -0.3057
  596SOL    HW1 1787   0.052   1.373   2.240  0.1344 -2.8518  0.3019
  596SOL    HW2 1788   0.165   1.496   2.293 -1.2853 -3.4099  0.1681
  597SOL     OW 1789   2.035   2.686   1.820 -0.5097  0.4768  0.2836
  597SOL    HW1 1790   1.997   2.657   1.731 -0.9101 -2.9297 -1.2955
  597SOL    HW2 1791   2.136   2.673   1.833 -2.2170  1.0146  1.2456
  598SOL     OW 1792   2.488   2.849   1.299 -0.3161  0.4496 -0.0956
  598SOL    HW1 1793   2.589   2.882   1.319  1.2179 -0.5631  1.7683
  598SOL    HW2 1794   2.482   2.777   1.224  0.8276 -3.8995  2.9605
  599SOL     OW 1795   2.879   0.268   2.515  0.0335  0.4259  0.3017
  599SOL    HW1 1796   2.956   0.255   2.449 -1.6481 -2.2871  2.9222
  599SOL    HW2 1797   2.820   0.352   2.509 -0.0947 -1.3952  1.0165
  600SOL     OW 1798   2.795   1.161   2.774 -0.2619 -0.1825  0.0768
  600SOL    HW1 1799   2.726   1.110   2.831 -0.4104  1.1919 -0.8447
  600SOL    HW2 1800   2.803   1.263   2.809  1.0251  1.1657 -0.4026
  601SOL     OW 1801   2.965   1.336   1.998 -0.0876 -0.0755 -0.4395
  601SOL    HW1 1802   2.881   1.353   1.938  2.2301  0.7759 -0.1465
  601SOL    HW2 1803   3.049   1.393   1.980  0.4202  2.6562  2.3092
  602SOL     OW 1804   1.556   1.549   2.300  0.1522 -0.3550 -0.1831
  602SOL    HW1 1805   1.486   1.560   2.377  1.7952  1.0084  0.8391
  602SOL    HW2 1806   1.653   1.571   2.339  0.2014  1.4281 -0.0166
  603SOL     OW 1807   0.601   1.215   2.698 -0.2197 -0.0235 -0.3141
  603SOL    HW1 1808   0.509   1.260   2.671 -0.9897 -1.1709  1.3948
  603SOL    HW2 1809   0.611   1.124   2.646 -1.1728 -0.9839 -0.4826
  604SOL     OW 1810   2.524   1.077   0.214  0.8901  0.1238  0.3309
  604SOL    HW1 1811   2.623   1.103   0.243  1.0849  1.4323  0.5082
  604SOL    HW2 1812   2.522   1.018   0.129 -0.3848  0.4321  2.2446
  605SOL     OW 1813   2.572   1.174   1.916 -0.0597  0.7587 -0.5186
  605SOL    HW1 1814   2.608   1.123   1.832  2.0768 -2.3095 -0.2835
  605SOL    HW2 1815   2.646   1.230   1.967  2.3099  2.2071 -0.4038
  606SOL     OW 1816   1.531   2.464   2.567  0.0582 -0.0621  0.6473
  606SOL    HW1 1817   1.483   2.537   2.623  0.7389  2.4906  2.0612
  606SOL    HW2 1818   1.468   2.394   2.524  1.9571 -0.2264  2.0256
  607SOL     OW 1819   1.251   1.587   0.248  0.1158 -0.2492  0.4167
  607SOL    HW1 1820   1.174   1.642   0.292  1.2884  0.7451 -0.0102
  607SOL    HW2 1821   1.342   1.633   0.262 -0.8239  2.5872  0.3611
  608SOL     OW 1822   1.371   2.810   0.344  0.0333 -0.0840 -0.0577
  608SOL    HW1 1823   1.424   2.838   0.259  0.7081  0.6962 -0.0751
  608SOL    HW2 1824   1.331   2.891   0.399 -1.2003  1.0589  0.5764
  609SOL     OW 1825   1.311   1.348   0.177 -0.7299 -0.0302 -0.2524
  609SOL    HW1 1826   1.295   1.445   0.220 -1.0207 -0.2874  1.2040
  609SOL    HW2 1827   1.248   1.335   0.099  2.4332  0.5266  2.6863
  610SOL     OW 1828   3.015   1.216   2.226  0.2393 -0.3710 -0.8747
  610SOL    HW1 1829   2.989   1.120   2.236  0.2407  2.8470  1.7926
  610SOL    HW2 1830   2.974   1.269   2.148  0.0552 -0.2755  0.7843
  611SOL     OW 1831   2.563   0.205   1.147 -0.1992 -0.6422  0.1994
  611SOL    HW1 1832   2.495   0.127   1.177 -0.6399 -1.9818 -0.9226
  611SOL    HW2 1833   2.634   0.225   1.225  1.4535  0.1150  0.2223
  612SOL     OW 1834   0.766   2.349   1.218 -0.4766  0.1640  0.7632
  612SOL    HW1 1835   0.705   2.278   1.256 -0.1750  3.5530  0.7855
  612SOL    HW2 1836   0.719   2.439   1.201  0.4037  0.0109  2.1200
  613SOL     OW 1837   0.779   1.389   2.387 -0.1071 -0.2699 -0.8602
  613SOL    HW1 1838   0.815   1.457   2.317  0.9568 -1.4895  0.4319
  613SOL    HW2 1839   0.741   1.304   2.340  0.1891  0.9890  1.3896
  614SOL     OW 1840   1.512   1.645   1.877 -0.4110 -0.1491  0.4032
  614SOL    HW1 1841   1.478   1.706   1.803  1.9648  0.2940  2.8061
  614SOL    HW2 1842   1.607   1.673   1.911 -2.6589 -2.7420 -0.6654
  615SOL     OW 1843   0.728   1.461   1.728 -0.0652  0.4334  0.0598
  615SOL    HW1 1844   0.679   1.408   1.647  1.0599 -0.2639 -2.5696
  615SOL    HW2 1845   0.812   1.507   1.697 -2.4080  1.0620  1.9182
  616SOL     OW 1846   1.120   1.553   2.211  0.1845  0.1811 -0.4147
  616SOL    HW1 1847   1.016   1.560   2.228  0.0239 -0.1377 -0.4493
  616SOL    HW2 1848   1.149   1.595   2.121  1.1118 -0.5989 -2.1594
  617SOL     OW 1849   3.016   1.570   1.642 -0.7319  0.2039  0.0686
  617SOL    HW1 1850   2.953   1.516   1.706  0.9836 -1.7569  2.4576
  617SOL    HW2 1851   3.050   1.518   1.557  0.0851  0.4137 -0.6922
  618SOL     OW 1852   1.898   1.979   1.479 -0.1688  0.4767 -0.2607
  618SOL    HW1 1853   1.973   2.004   1.408  1.9237  1.3827 -0.9929
  618SOL    HW2 1854   1.903   1.880   1.507 -0.3098 -0.4183 -0.8637
  619SOL     OW 1855   1.771   0.528   2.355  0.2366  0.7234  0.1583
  619SOL    HW1 1856   1.706   0.566   2.279 -0.2619 -1.9514  1.2501
  619SOL    HW2 1857   1.761   0.426   2.362  0.4518  1.2925 -1.8365
  620SOL     OW 1858   2.256   2.911   0.674 -0.5021 -0.6679  0.0793
  620SOL    HW1 1859   2.190   2.994   0.685 -1.2613  2.4878 -1.6889
  620SOL    HW2 1860   2.291   2.882   0.769  1.3962  2.3156 -0.1247
  621SOL     OW 1861   2.174   1.906   1.346 -0.0920 -0.0560  0.0814
  621SOL    HW1 1862   2.183   1.890   1.448 -2.1342 -0.4435  1.0522
  621SOL    HW2 1863   2.159   1.820   1.288 -3.5674 -1.4106 -0.5441
  622SOL     OW 1864   2.224   1.009   1.852  0.3609  0.0448  0.1921
  622SOL    HW1 1865   2.295   0.933   1.868 -0.5712  0.9045 -1.1988
  622SOL    HW2 1866   2.123   0.992   1.882 -2.1782  1.4497 -0.8025
  623SOL     OW 1867   1.290   0.904   2.568  0.4194  0.5391  0.1222
  623SOL    HW1 1868   1.253   0.837   2.641 -1.3195 -2.3383  0.4230
  623SOL    HW2 1869   1.235   0.886   2.480  1.0878  2.2936 -1.8507
  624SOL     OW 1870   0.534   0.698   0.030  0.5353  0.2765 -0.9676
  624SOL    HW1 1871   0.606   0.712  -0.045 -1.6440 -1.6733  1.4076
  624SOL    HW2 1872   0.496   0.781   0.084 -1.0593 -4.8194  3.5993
  625SOL     OW 1873   2.777   1.741   0.802  0.4912 -0.0134 -0.4574
  625SOL    HW1 1874   2.738   1.744   0.901 -2.5652  2.0512 -0.8147
  625SOL    HW2 1875   2.737   1.672   0.738 -0.4637  0.8180 -0.7813
  626SOL     OW 1876   0.432   2.767   2.035 -0.9746  0.3208  0.1961
  626SOL    HW1 1877   0.478   2.857   2.052 -2.3999 -1.2887  2.8701
  626SOL    HW2 1878   0.367   2.769   1.953  0.5677  2.3490  1.1798
  627SOL     OW 1879   0.745   1.034   1.508 -0.0920 -0.5027 -0.4248
  627SOL    HW1 1880   0.775   0.940   1.533 -0.5443  0.1855 -2.9807
  627SOL    HW2 1881   0.808   1.078   1.431 -1.5080 -2.0261 -0.9976
  628SOL     OW 1882   2.431   0.150   0.706 -0.1829 -0.4702 -0.6087
  628SOL    HW1 1883   2.462   0.070   0.641  1.2062 -0.2501  0.4753
  628SOL    HW2 1884   2.327   0.149   0.709  2.5567 -0.2723 -1.0646
  629SOL     OW 1885   1.977   0.956   1.973 -0.0847 -0.1661 -0.6577
  629SOL    HW1 1886   2.009   0.939   2.069 -2.1532  1.5266  1.7662
  629SOL    HW2 1887   1.916   1.039   1.960  2.9482  0.3250 -1.5952
  630SOL     OW 1888   2.821   2.201   0.745  0.6418  0.2910  0.2831
  630SOL    HW1 1889   2.742   2.261   0.791 -2.3862 -1.4751 -2.1049
  630SOL    HW2 1890   2.783   2.113   0.708  1.3471 -1.3956  0.4969
  631SOL     OW 1891   2.969   0.227   2.129  0.1081 -0.6628  0.3857
  631SOL    HW1 1892   3.001   0.261   2.219  0.3179  2.3661 -2.7025
  631SOL    HW2 1893   3.038   0.185   2.070  1.7631  0.3610  0.8472
  632SOL     OW 1894   2.340   2.510   0.764  0.8520 -0.2269  0.0786
  632SOL    HW1 1895   2.428   2.548   0.798  1.2767  2.2256 -3.0276
  632SOL    HW2 1896   2.297   2.560   0.681  1.6986  0.2294  0.9411
  633SOL     OW 1897   1.597   1.272   2.678 -0.0288  0.4869  0.2766
  633SOL    HW1 1898   1.562   1.365   2.708  1.1504  0.1697  1.6195
  633SOL    HW2 1899   1.530   1.220   2.618 -0.0110 -0.5853 -0.0352
  634SOL     OW 1900   0.649   2.092   0.940  0.0505  0.1050 -0.8648
  634SOL    HW1 1901   0.566   2.131   0.979 -2.1841 -0.8692 -2.1968
  634SOL    HW2 1902   0.740   2.145   0.959 -2.4050  0.3644  0.8767
  635SOL     OW 1903   0.057   2.246   3.018  0.0528  0.1275  0.1512
  635SOL    HW1 1904  -0.000   2.272   2.934 -0.8744  0.0581 -2.9885
  635SOL    HW2 1905   0.046   2.318   3.092 -1.3518  1.1277  1.8183
  636SOL     OW 1906   2.320   2.886   2.040 -0.1819 -0.1900 -0.2410
  636SOL    HW1 1907   2.284   2.986   2.053  0.2190  2.5976  0.5799
  636SOL    HW2 1908   2.290   2.828   2.118 -0.9916  1.2584  1.5030
  637SOL     OW 1909   2.610   0.716   2.065  0.1498  0.4066  0.1575
  637SOL    HW1 1910   2.584   0.713   1.964 -0.5981 -0.3127  2.5360
  637SOL    HW2 1911   2.665   0.804   2.086 -0.9329  0.6105 -1.8019
  638SOL     OW 1912   2.451   1.898   1.421 -0.3860  0.1751  0.1823
  638SOL    HW1 1913   2.350   1.903   1.392 -4.0118  1.8190 -0.6710
  638SOL    HW2 1914   2.482   1.794   1.430  2.5343  0.4970  0.0649
  639SOL     OW 1915   1.308   2.260   1.553 -0.4904 -0.6820  0.0406
  639SOL    HW1 1916   1.298   2.188   1.477 -2.2106  1.5659 -3.2678
  639SOL    HW2 1917   1.234   2.241   1.623  0.4697 -0.7583 -1.9612
  640SOL     OW 1918   0.219   1.246   1.507  0.0215  0.0128 -0.8330
  640SOL    HW1 1919   0.229   1.311   1.590 -0.9445  1.1714  2.8418
  640SOL    HW2 1920   0.285   1.165   1.503  1.4848  0.7783  0.7247
  641SOL     OW 1921   1.922   0.252   1.427 -0.3982  0.1010 -0.3965
  641SOL    HW1 1922   1.851   0.317   1.453 -0.0828 -1.0157 -1.4632
  641SOL    HW2 1923   1.915   0.164   1.482 -1.0387  2.7065 -0.9273
  642SOL     OW 1924   2.003   0.104   0.309  0.3689  0.0468  0.8377
  642SOL    HW1 1925   2.101   0.087   0.341  1.9973 -1.2829 -1.7566
  642SOL    HW2 1926   1.933   0.081   0.379  1.8722 -0.3486 -1.0430
  643SOL     OW 1927   2.811   1.877   2.130 -0.0522  0.5264  0.4214
  643SOL    HW1 1928   2.767   1.818   2.055 -1.4034  1.7133  0.0142
  643SOL    HW2 1929   2.822   1.974   2.090 -0.0356  0.3191 -0.6306
  644SOL     OW 1930   2.170   2.260   1.242  0.2219  0.2562 -0.1173
  644SOL    HW1 1931   2.259   2.233   1.195 -1.8231  0.8007  0.2527
  644SOL    HW2 1932   2.182   2.317   1.331  2.1300 -1.8823  0.1777
  645SOL     OW 1933   0.686   0.852   1.151  0.8409 -0.4840 -0.8654
  645SOL    HW1 1934   0.614   0.790   1.105 -1.7362 -1.3129  1.2668
  645SOL    HW2 1935   0.694   0.952   1.117  1.6993  2.5880  2.6602
  646SOL     OW 1936   1.448   1.934   1.783 -0.2213 -0.6295  0.1166
  646SOL    HW1 1937   1.533   1.991   1.774 -0.9509 -0.6642  2.6504
  646SOL    HW2 1938   1.396   1.955   1.870  0.7066  0.4295 -3.0004
  647SOL     OW 1939   0.896   0.924   0.694  0.4405 -0.1107  0.4914
  647SOL    HW1 1940   0.977   0.898   0.752 -2.9289 -1.8495  1.6989
  647SOL    HW2 1941   0.807   0.878   0.732  0.5615 -1.2023  1.8543
  648SOL     OW 1942   0.144   0.246   0.329 -0.8379  0.3591 -0.3343
  648SOL    HW1 1943   0.095   0.165   0.302 -1.8919  1.8823  1.8880
  648SOL    HW2 1944   0.109   0.325   0.270 -0.4319 -1.8679  1.8448
  649SOL     OW 1945   3.088   0.022   0.960  0.3315  0.0202  0.2012
  649SOL    HW1 1946   3.178   0.016   0.914 -2.0029 -3.3868 -1.9616
  649SOL    HW2 1947   3.089   0.080   1.047  0.3367 -0.7158  0.7140
  650SOL     OW 1948   2.719   0.728   1.442 -0.0554 -0.1740 -0.0786
  650SOL    HW1 1949   2.623   0.709   1.483 -1.3657 -2.1245  1.1578
  650SOL    HW2 1950   2.730   0.812   1.380 -0.6649  3.9021  1.1061
  651SOL     OW 1951   0.919   1.584   1.542  0.2862  0.2517 -0.5964
  651SOL    HW1 1952   0.988   1.657   1.569 -1.9453 -3.5312 -0.3163
  651SOL    HW2 1953   0.840   1.626   1.484 -0.5282 -0.1555 -0.0188
  652SOL     OW 1954   2.281   2.518   2.393 -0.4350 -0.0253  0.0533
  652SOL    HW1 1955   2.209   2.505   2.472 -2.9575  0.1588 -1.4506
  652SOL    HW2 1956   2.254   2.593   2.330 -1.0589 -0.7981  0.2296
  653SOL     OW 1957   2.767   1.176   0.272  0.6492  0.4889 -0.0644
  653SOL    HW1 1958   2.840   1.249   0.278  0.9181 -2.0757 -2.8098
  653SOL    HW2 1959   2.802   1.080   0.297  0.0423 -3.1826  0.0134
  654SOL     OW 1960   1.207   2.225   1.224 -0.2568 -0.3525 -0.0844
  654SOL    HW1 1961   1.244   2.160   1.294  3.9812  2.9950 -1.1677
  654SOL    HW2 1962   1.267   2.231   1.139  0.0305  2.5744  0.6209
  655SOL     OW 1963   0.246   1.059   1.861  0.0839  0.2038  0.5525
  655SOL    HW1 1964   0.270   0.963   1.836 -0.2041  2.3577  0.5978
  655SOL    HW2 1965   0.328   1.122   1.867  3.9301  1.2570  1.9863
  656SOL     OW 1966   2.492   2.430   2.578 -0.3601 -0.0018  0.0147
  656SOL    HW1 1967   2.588   2.414   2.538  0.8822  0.5800  1.2301
  656SOL    HW2 1968   2.432   2.488   2.516  1.1104 -2.6773  0.9922
  657SOL     OW 1969   3.053   1.120   1.864 -0.0834 -0.4897  0.1324
  657SOL    HW1 1970   3.029   1.201   1.923 -1.4854 -1.4494  1.3599
  657SOL    HW2 1971   3.156   1.105   1.852  0.0019  0.4004  2.1384
  658SOL     OW 1972   1.687   0.237   2.378  0.0243 -0.1553  0.0962
  658SOL    HW1 1973   1.712   0.154   2.434 -1.4959  1.3925 -4.2282
  658SOL    HW2 1974   1.722   0.227   2.279  0.9233 -4.1624 -2.3215
  659SOL     OW 1975   1.402   0.605   2.856 -0.1241  0.5438 -0.4783
  659SOL    HW1 1976   1.487   0.657   2.889 -1.7738  0.4777  1.5975
  659SOL    HW2 1977   1.326   0.666   2.824  0.3978  0.4189  0.9848
  660SOL     OW 1978   1.411   0.412   1.394  0.1217  0.3894 -0.6222
  660SOL    HW1 1979   1.457   0.413   1.487  0.1259  1.4456  0.6013
  660SOL    HW2 1980   1.479   0.391   1.317 -1.9037 -0.3075 -0.9860
  661SOL     OW 1981   2.465   1.138   0.671 -0.1090 -0.6233 -0.2064
  661SOL    HW1 1982   2.452   1.066   0.595  0.8110  1.1195 -1.3466
  661SOL    HW2 1983   2.468   1.234   0.629  1.0212  0.3912  0.2253
  662SOL     OW 1984   1.287   0.454   1.820  0.0935 -0.0886 -0.2824
  662SOL    HW1 1985   1.268   0.350   1.829 -0.5930 -2.9665  1.9184
  662SOL    HW2 1986   1.226   0.499   1.890 -2.6670  1.9172  1.2188
  663SOL     OW 1987   0.857   1.561   2.173 -0.1013 -0.3038  0.5405
  663SOL    HW1 1988   0.817   1.656   2.203 -0.1947  1.7775  1.2549
  663SOL    HW2 1989   0.799   1.525   2.095 -1.8497 -3.6295  0.6739
  664SOL     OW 1990   1.657   2.088   1.397 -0.0727  0.5378 -0.2787
  664SOL    HW1 1991   1.589   2.031   1.448  2.0647 -0.9996 -1.2894
  664SOL    HW2 1992   1.756   2.058   1.424  0.8193  1.3300 -1.3865
  665SOL     OW 1993   2.304   0.603   1.989  0.5419 -0.0487 -0.0090
  665SOL    HW1 1994   2.284   0.508   2.035 -0.2672  0.7380  0.1626
  665SOL    HW2 1995   2.255   0.675   2.046 -0.2274 -1.4985  1.0171
  666SOL     OW 1996   0.493   2.265   0.488 -0.7332  0.0844 -0.5284
  666SOL    HW1 1997   0.534   2.360   0.487 -0.7661 -0.3711 -1.5941
  666SOL    HW2 1998   0.429   2.247   0.572  1.3637  0.4485 -0.2454
  667SOL     OW 1999   2.092   0.247   0.992 -0.0661 -0.7425  0.3200
  667SOL    HW1 2000   2.157   0.324   1.027  0.0308  1.3266  1.8515
  667SOL    HW2 2001   1.997   0.264   1.028 -1.0971  2.7000 -3.5574
  668SOL     OW 2002   1.982   0.582   1.260  0.7588  1.1411  0.5740
  668SOL    HW1 2003   2.012   0.566   1.160  1.7693  3.0285 -1.8041
  668SOL    HW2 2004   2.038   0.528   1.327  2.9241  2.6647 -0.1247
  669SOL     OW 2005   2.996   2.079   0.950  0.2096  0.2762  0.3201
  669SOL    HW1 2006   2.946   2.119   0.868  3.8586 -1.4018  1.5353
  669SOL    HW2 2007   2.980   2.134   1.040 -1.5568  0.5296 -3.9900
  670SOL     OW 2008   2.774   2.329   2.011  0.0185 -0.4500  0.1481
  670SOL    HW1 2009   2.736   2.336   2.111  0.7248  0.0458  0.0075
  670SOL    HW2 2010   2.767   2.420   1.962 -1.8775 -0.4016 -0.5054
  671SOL     OW 2011   1.681   1.685   1.466 -0.7816  0.1499  0.1540
  671SOL    HW1 2012   1.710   1.710   1.369 -3.1532  0.8028 -3.1241
  671SOL    HW2 2013   1.592   1.716   1.492  0.5082  1.7578  2.2996
  672SOL     OW 2014   0.399   0.671   2.435 -0.1501 -0.6059 -0.2973
  672SOL    HW1 2015   0.444   0.669   2.340 -1.1983 -0.1869  1.3881
  672SOL    HW2 2016   0.329   0.746   2.439 -1.6815  1.9170  0.6462
  673SOL     OW 2017   0.148   1.228   1.128 -0.1284  0.4895 -0.7896
  673SOL    HW1 2018   0.180   1.321   1.170 -0.5578  2.4551 -3.0016
  673SOL    HW2 2019   0.231   1.167   1.092  3.5740 -0.0310  0.0065
  674SOL     OW 2020   1.538   2.886   0.151  0.3239  0.5133  0.0619
  674SOL    HW1 2021   1.574   2.972   0.107 -2.6109 -1.2929 -1.4868
  674SOL    HW2 2022   1.592   2.800   0.118  0.6170 -0.3771  0.5024
  675SOL     OW 2023   1.735   0.870   2.361 -0.8544  0.3336  0.9473
  675SOL    HW1 2024   1.835   0.852   2.351  0.1775  0.5172 -0.6161
  675SOL    HW2 2025   1.684   0.806   2.299 -0.1990  2.5334 -0.0143
  676SOL     OW 2026   2.497   1.508   2.041  0.0513  0.3320  0.0756
  676SOL    HW1 2027   2.499   1.480   1.938 -0.8874  1.8775  0.3573
  676SOL    HW2 2028   2.549   1.445   2.101 -2.6461  0.5183  0.5189
  677SOL     OW 2029   1.868   0.561   0.936  0.2166  0.1009 -0.4939
  677SOL    HW1 2030   1.839   0.648   0.975  0.4739 -0.1931 -2.6418
  677SOL    HW2 2031   1.809   0.481   0.964  0.6380  0.9724 -0.7089
  678SOL     OW 2032   0.089   0.833   1.655 -0.0304 -0.5994 -0.0238
  678SOL    HW1 2033   0.184   0.860   1.692 -1.4131 -0.5843 -0.3708
  678SOL    HW2 2034   0.014   0.834   1.730  0.2893  1.2164  1.5260
  679SOL     OW 2035   2.494   1.187   1.146 -0.9723  0.6230  0.1068
  679SOL    HW1 2036   2.415   1.174   1.211  2.9735  0.0105  0.8127
  679SOL    HW2 2037   2.512   1.100   1.091 -1.7242  1.7447  1.0801
  680SOL     OW 2038   2.862   0.654   1.682  0.4060  0.0879  0.4053
  680SOL    HW1 2039   2.846   0.686   1.587  1.8136 -1.4308 -0.1118
  680SOL    HW2 2040   2.900   0.726   1.744  1.0168 -2.5794 -1.7412
  681SOL     OW 2041   3.054   0.140   1.645  0.5803  0.5776 -0.4525
  681SOL    HW1 2042   3.126   0.101   1.583  0.3534  0.0213 -1.8999
  681SOL    HW2 2043   3.017   0.237   1.618  0.1933  0.9062  2.5343
  682SOL     OW 2044   0.732   3.089   1.377  0.1402 -0.4307 -0.0406
  682SOL    HW1 2045   0.663   3.023   1.414  3.6956 -0.7847  0.0072
  682SOL    HW2 2046   0.718   3.093   1.276 -0.8224 -1.1775  3.3004
  683SOL     OW 2047   1.383   0.241   2.173  0.3543  0.1660  0.2855
  683SOL    HW1 2048   1.385   0.280   2.272  2.7545 -0.1859 -0.4663
  683SOL    HW2 2049   1.464   0.272   2.115  1.0667 -0.2559  0.0134
  684SOL     OW 2050   1.429   2.110   0.462  0.7994  0.3721  0.1393
  684SOL    HW1 2051   1.496   2.045   0.506  0.7278  1.0934  1.3804
  684SOL    HW2 2052   1.336   2.066   0.445  0.4994  1.5236  1.5044
  685SOL     OW 2053   2.115   1.947   1.960  0.1533  0.1280 -0.1982
  685SOL    HW1 2054   2.169   2.019   1.911  1.4985  0.3905  0.0494
  685SOL    HW2 2055   2.172   1.874   2.005 -0.0527  0.3279 -1.3442
  686SOL     OW 2056   1.532   1.742   2.778 -0.0210 -0.4134  0.2052
  686SOL    HW1 2057   1.538   1.643   2.761 -0.3466  0.2119  1.9010
  686SOL    HW2 2058   1.563   1.766   2.875 -0.0068  0.6764  2.1386
  687SOL     OW 2059   1.354   2.515   1.902 -0.1936  0.1135 -0.0297
  687SOL    HW1 2060   1.400   2.426   1.873  1.6931 -2.5072  0.1099
  687SOL    HW2 2061   1.386   2.543   2.000 -0.4692  1.2729  1.0147
  688SOL     OW 2062   2.089   1.505   1.598 -0.8092  0.0797  0.0031
  688SOL    HW1 2063   2.190   1.511   1.573  0.0868  0.6559 -0.8264
  688SOL    HW2 2064   2.033   1.455   1.530  2.2240  0.0153  0.3028
  689SOL     OW 2065   2.433   1.089   2.703 -0.0539 -0.5217 -0.5758
  689SOL    HW1 2066   2.341   1.068   2.741  0.1995 -1.2949 -1.1131
  689SOL    HW2 2067   2.504   1.054   2.772  0.8782  0.1916  2.4376
  690SOL     OW 2068   2.212   2.751   3.073 -0.0552  0.2196 -0.1321
  690SOL    HW1 2069   2.130   2.726   3.016  2.2052 -2.8010 -0.0523
  690SOL    HW2 2070   2.191   2.806   3.155  1.3944  3.3300 -0.0275
  691SOL     OW 2071   2.579   0.476   2.172  0.4063 -0.3737 -0.7317
  691SOL    HW1 2072   2.655   0.409   2.147  1.3231  1.4715 -0.0340
  691SOL    HW2 2073   2.603   0.573   2.147 -0.1210 -1.4604  1.0160
  692SOL     OW 2074   2.742   1.207   0.681  0.2223  0.7376 -0.1990
  692SOL    HW1 2075   2.648   1.187   0.712  1.8683  0.3843 -1.0184
  692SOL    HW2 2076   2.773   1.298   0.722 -1.1282  0.5970 -1.7135
  693SOL     OW 2077   2.856   2.937   0.594 -0.0979 -0.6115  0.5634
  693SOL    HW1 2078   2.854   3.030   0.637  0.0458 -2.8552 -0.4723
  693SOL    HW2 2079   2.808   2.942   0.505  0.5924 -0.0719  2.0049
  694SOL     OW 2080   2.379   2.113   0.075  0.0955  0.2704  0.2345
  694SOL    HW1 2081   2.367   2.211   0.118  2.7805 -1.4619 -0.9316
  694SOL    HW2 2082   2.295   2.056   0.062  0.2751 -1.6386 -1.6089
  695SOL     OW 2083   0.548   2.909   1.483 -0.0043 -0.5795 -0.4339
  695SOL    HW1 2084   0.489   2.827   1.502  0.7839  3.2242 -1.1353
  695SOL    HW2 2085   0.520   2.985   1.546  2.1441  0.1361 -0.6630
  696SOL     OW 2086   2.727   1.963   0.665  0.0651 -0.0575 -0.5736
  696SOL    HW1 2087   2.763   1.890   0.737  1.4307  0.3755 -0.6468
  696SOL    HW2 2088   2.683   1.911   0.585  0.7292 -1.1965 -0.3927
  697SOL     OW 2089   1.676   2.077   1.737 -0.2240 -0.3690 -0.4561
  697SOL    HW1 2090   1.769   2.044   1.765  1.1812  1.2430  0.5215
  697SOL    HW2 2091   1.691   2.133   1.653 -0.2918 -1.4947 -0.4835
  698SOL     OW 2092   2.921   0.316   2.787 -0.5021  0.1477 -0.3197
  698SOL    HW1 2093   2.930   0.275   2.695 -1.0489 -2.3531 -2.6035
  698SOL    HW2 2094   2.986   0.277   2.861 -0.2202  1.6218  1.5987
  699SOL     OW 2095   1.530   0.120   2.931 -0.1528  0.0471  0.0844
  699SOL    HW1 2096   1.480   0.033   2.907 -3.1946  2.7150 -2.6012
  699SOL    HW2 2097   1.571   0.160   2.845  1.0222 -0.6477  0.2541
  700SOL     OW 2098   0.988   2.359   1.406  0.2454  0.4518  0.1226
  700SOL    HW1 2099   1.080   2.324   1.390 -1.7207 -2.0272  0.9879
  700SOL    HW2 2100   0.914   2.327   1.338 -1.1514 -1.2179 -0.0346
  701SOL     OW 2101   1.866   2.810   0.031  0.2969  0.4905 -0.5547
  701SOL    HW1 2102   1.857   2.769   0.125  0.0050 -2.2148 -0.8948
  701SOL    HW2 2103   1.893   2.911   0.028 -1.0583 -0.5827  3.3243
  702SOL     OW 2104   2.087   1.392   1.864 -0.0420 -0.2073 -0.4847
  702SOL    HW1 2105   2.173   1.350   1.897 -2.6304 -0.5955 -0.2119
  702SOL    HW2 2106   2.094   1.424   1.762 -4.0825 -0.7841 -0.1303
  703SOL     OW 2107   1.994   0.845   1.469  0.6238  0.5567  0.0887
  703SOL    HW1 2108   1.974   0.747   1.503  0.5146 -2.5449 -2.9379
  703SOL    HW2 2109   2.050   0.904   1.535  0.3004  0.3303 -0.9152
  704SOL     OW 2110   0.319   2.046   1.780 -0.5608  0.5568  0.5630
  704SOL    HW1 2111   0.366   1.995   1.857  0.5527 -1.0773 -1.1555
  704SOL    HW2 2112   0.373   2.134   1.749 -3.5503 -1.2416 -0.1754
  705SOL     OW 2113   2.541   1.417   0.838  0.0479  0.3474 -0.6627
  705SOL    HW1 2114   2.442   1.396   0.842  1.9215  1.5732 -0.1177
  705SOL    HW2 2115   2.588   1.397   0.926 -0.0588 -1.1099  0.2448
  706SOL     OW 2116   0.645   1.762   1.917  0.3065  0.0495 -0.0008
  706SOL    HW1 2117   0.655   1.659   1.928  0.9561  3.7345 -0.5350
  706SOL    HW2 2118   0.734   1.807   1.930 -1.0221  1.8960  0.3208
  707SOL     OW 2119   2.309   1.245   1.951  0.1426  0.2323  0.0246
  707SOL    HW1 2120   2.407   1.225   1.979  2.9160 -0.3695 -1.0377
  707SOL    HW2 2121   2.268   1.161   1.902 -0.2137  0.7088  0.1866
  708SOL     OW 2122   3.063   0.499   3.034  0.1543  0.4760  0.2138
  708SOL    HW1 2123   3.140   0.548   2.989 -1.5855 -1.1050  1.2779
  708SOL    HW2 2124   3.051   0.401   3.013 -2.0848  5.5461 -0.2398
  709SOL     OW 2125   1.768   1.860   0.283 -0.0535 -0.0995 -0.6766
  709SOL    HW1 2126   1.802   1.948   0.329  1.6738  2.3573 -2.1852
  709SOL    HW2 2127   1.767   1.871   0.181 -3.7353  0.2472  2.8444
  710SOL     OW 2128   1.760   1.652   2.454  0.0559  0.6278  0.0007
  710SOL    HW1 2129   1.807   1.630   2.369  0.7493  2.2015  0.4568
  710SOL    HW2 2130   1.800   1.601   2.535  2.3792 -1.4717 -0.5643
  711SOL     OW 2131   2.628   2.947   0.967 -0.7256 -0.4941  0.1839
  711SOL    HW1 2132   2.611   3.036   0.920  0.1380  0.8024 -1.6302
  711SOL    HW2 2133   2.718   2.939   1.012  0.0528 -0.5897 -1.2755
  712SOL     OW 2134   1.476   2.276   1.778  0.5191  0.1612  0.2590
  712SOL    HW1 2135   1.542   2.195   1.771  0.6164  1.2271 -0.2766
  712SOL    HW2 2136   1.410   2.284   1.699  1.4857 -2.0132 -1.2107
  713SOL     OW 2137   2.834   1.358   2.478  0.0421  0.5367  0.0182
  713SOL    HW1 2138   2.847   1.259   2.472 -0.6787  1.9972 -0.6198
  713SOL    HW2 2139   2.752   1.392   2.533  2.2052 -0.3188 -3.0529
  714SOL     OW 2140   2.656   0.443   2.459  1.1657 -0.2064  0.2579
  714SOL    HW1 2141   2.571   0.430   2.516  1.0437  2.0372 -0.7286
  714SOL    HW2 2142   2.633   0.458   2.359  2.2595 -2.2984  0.9924
  715SOL     OW 2143   1.623   2.128   1.116  0.7641  0.4446 -0.3753
  715SOL    HW1 2144   1.578   2.222   1.115 -1.2621 -1.1588 -0.1828
  715SOL    HW2 2145   1.657   2.113   1.212 -0.4270  0.5390 -0.1092
  716SOL     OW 2146   1.221   0.214   1.461 -0.0682  0.0732  0.1111
  716SOL    HW1 2147   1.126   0.236   1.426  0.7314 -0.9996 -1.5658
  716SOL    HW2 2148   1.293   0.290   1.438 -0.0469 -1.0329  0.1834
  717SOL     OW 2149   1.054   0.616   1.598 -0.4741 -0.3721  0.0975
  717SOL    HW1 2150   1.145   0.664   1.626  0.2534 -0.5261 -1.1263
  717SOL    HW2 2151   1.064   0.564   1.506 -2.1540 -1.7992 -2.1405
  718SOL     OW 2152   0.658   1.085   0.984 -0.0467 -0.2123  0.4428
  718SOL    HW1 2153   0.636   1.096   0.881 -0.8537 -1.2298 -1.9132
  718SOL    HW2 2154   0.742   1.142   1.015  1.4860  1.9463 -0.3247
  719SOL     OW 2155   0.749   1.838   2.245 -0.7162 -0.3854 -0.4711
  719SOL    HW1 2156   0.807   1.863   2.335  0.0383 -0.7249  2.4821
  719SOL    HW2 2157   0.653   1.878   2.238  3.2369  1.3558 -0.1139
  720SOL     OW 2158   2.256   1.128   0.231  0.1514  0.8106 -0.3750
  720SOL    HW1 2159   2.357   1.105   0.233 -1.5103  1.4337 -1.7190
  720SOL    HW2 2160   2.220   1.126   0.329  1.7631 -2.0294 -1.2436
  721SOL     OW 2161   2.213   0.037   2.046  0.4497 -0.6121 -0.6209
  721SOL    HW1 2162   2.237   0.109   1.976  1.2643  0.2327  0.0900
  721SOL    HW2 2163   2.115   0.032   2.078  0.3645 -2.0696 -2.6881
  722SOL     OW 2164   2.364   1.670   0.501  0.1511 -0.2056  0.1202
  722SOL    HW1 2165   2.350   1.662   0.400  1.3563 -1.8094 -2.2219
  722SOL    HW2 2166   2.277   1.659   0.559 -0.9799  1.6391 -0.0145
  723SOL     OW 2167   2.565   2.842   1.896  0.1623  0.1388  0.0940
  723SOL    HW1 2168   2.629   2.857   1.971 -1.4175 -1.1434 -1.7514
  723SOL    HW2 2169   2.463   2.833   1.925 -1.3608  1.5799 -1.0811
  724SOL     OW 2170   0.368   2.424   2.412 -0.5939 -0.1892 -0.7937
  724SOL    HW1 2171   0.270   2.456   2.410 -0.5551  0.2749  1.7148
  724SOL    HW2 2172   0.392   2.396   2.509 -1.8851 -0.5418  1.7094
  725SOL     OW 2173   2.271   2.762   1.451 -0.3448  0.5319  0.1584
  725SOL    HW1 2174   2.353   2.799   1.393  0.5146 -0.3839 -0.7320
  725SOL    HW2 2175   2.304   2.674   1.499 -2.3127 -1.8537  4.3236
  726SOL     OW 2176   2.382   2.249   0.800 -0.1086 -0.4662  0.2330
  726SOL    HW1 2177   2.331   2.334   0.779  2.1493 -1.2980  0.6614
  726SOL    HW2 2178   2.395   2.193   0.710 -0.9244  0.8122 -0.9523
  727SOL     OW 2179   0.227   3.080   0.156  0.4774 -0.5589  0.0998
  727SOL    HW1 2180   0.289   3.002   0.128 -1.5139 -0.1576  0.1132
  727SOL    HW2 2181   0.266   3.170   0.126  1.0201 -1.6629  0.0608
  728SOL     OW 2182   2.822   0.700   1.041  0.9758 -0.2883 -0.2964
  728SOL    HW1 2183   2.746   0.676   0.974  1.3906  1.2408 -1.2175
  728SOL    HW2 2184   2.837   0.627   1.113  0.7216 -2.9090 -2.6484
  729SOL     OW 2185   2.905   2.465   0.759  0.1631 -0.0973 -0.1395
  729SOL    HW1 2186   2.874   2.365   0.756 -2.0899  0.7371  0.3513
  729SOL    HW2 2187   3.009   2.476   0.758  4.1620 -2.1110  0.6506
  730SOL     OW 2188   2.612   0.575   0.877 -0.0119  0.6408 -0.0893
  730SOL    HW1 2189   2.542   0.644   0.855 -2.4841 -1.5318  1.0190
  730SOL    HW2 2190   2.677   0.544   0.803  5.0658  1.8658 -0.5573
  731SOL     OW 2191   0.058   2.125   2.465  0.5740 -0.3591 -0.0411
  731SOL    HW1 2192   0.120   2.138   2.547 -1.5645 -0.4640 -1.3357
  731SOL    HW2 2193  -0.034   2.093   2.482 -1.8749  1.7241  0.1890
  732SOL     OW 2194   1.130   2.830   1.977 -0.5763 -0.2465  0.2553
  732SOL    HW1 2195   1.144   2.762   2.056  0.2682  1.5116 -0.1315
  732SOL    HW2 2196   1.149   2.793   1.880 -0.9980 -1.0990  0.3579
  733SOL     OW 2197   3.031   0.721   2.106  0.3063 -0.1742  0.0644
  733SOL    HW1 2198   3.121   0.773   2.103 -0.5557  0.9841 -0.7237
  733SOL    HW2 2199   3.025   0.645   2.033  1.1152  2.5159 -1.7817
  734SOL     OW 2200   1.407   0.360   2.703 -0.0139  0.0345  0.0389
  734SOL    HW1 2201   1.394   0.460   2.738  2.2952 -1.4365  0.3417
  734SOL    HW2 2202   1.334   0.296   2.740 -0.1984 -1.2104  0.1794
  735SOL     OW 2203   2.821   2.595   2.275 -0.3937  0.3874 -0.1082
  735SOL    HW1 2204   2.751   2.561   2.209 -0.0475 -1.1519 -2.5249
  735SOL    HW2 2205   2.919   2.600   2.234  1.7443  0.1946  1.1234
  736SOL     OW 2206   0.788   0.368   2.647  0.0126  0.2838  0.4646
  736SOL    HW1 2207   0.755   0.467   2.672 -2.7278  3.4748  0.2336
  736SOL    HW2 2208   0.750   0.333   2.558 -0.8602  1.6094  0.5169
  737SOL     OW 2209   2.697   0.465   2.810  0.7967  0.3336 -0.0080
  737SOL    HW1 2210   2.669   0.459   2.914  0.1033 -0.7680 -0.5953
  737SOL    HW2 2211   2.795   0.420   2.799  1.4198 -2.1699  2.5902
  738SOL     OW 2212   1.657   1.204   3.027 -0.2229 -0.1975 -0.3247
  738SOL    HW1 2213   1.763   1.196   3.024 -1.2355 -0.8178  1.8234
  738SOL    HW2 2214   1.605   1.142   2.966  1.3309 -1.7616 -0.6835
  739SOL     OW 2215   1.746   0.617   0.690  0.0533 -0.2731 -0.2004
  739SOL    HW1 2216   1.795   0.599   0.781 -1.1607 -2.6141  0.4531
  739SOL    HW2 2217   1.776   0.557   0.614 -1.6568 -0.5205  0.7546
  740SOL     OW 2218   1.919   1.976   2.142 -0.5389  0.6563 -0.1620
  740SOL    HW1 2219   1.985   1.972   2.060 -0.3826  0.2243  0.8691
  740SOL    HW2 2220   1.845   1.905   2.141 -1.3583 -0.9049  2.3666
  741SOL     OW 2221   2.493   0.147   2.554 -0.0271  0.0618 -0.4230
  741SOL    HW1 2222   2.580   0.103   2.595 -0.8334  0.4534 -0.4442
  741SOL    HW2 2223   2.473   0.113   2.462 -0.4242 -0.3065  1.4860
  742SOL     OW 2224   2.263   1.372   0.085  0.2267 -0.3880 -0.3762
  742SOL    HW1 2225   2.165   1.419   0.086  0.4165  1.7254 -3.0086
  742SOL    HW2 2226   2.248   1.270   0.110 -4.2782 -0.7929 -3.0376
  743SOL     OW 2227   1.752   0.626   2.615  0.1509  0.4860  0.8283
  743SOL    HW1 2228   1.759   0.602   2.512 -0.7596  0.2528 -1.9309
  743SOL    HW2 2229   1.670   0.691   2.628 -0.7803 -0.2969 -0.1492
  744SOL     OW 2230   2.631   2.087   0.013  0.3875 -0.3156 -0.1330
  744SOL    HW1 2231   2.528   2.098   0.038 -1.6874 -1.5728 -0.3506
  744SOL    HW2 2232   2.686   2.030   0.083  1.3901  0.0049 -2.3318
  745SOL     OW 2233   2.183   2.719   2.206  0.8771  0.0964 -0.2551
  745SOL    HW1 2234   2.100   2.693   2.151  0.0344 -3.6989 -0.3443
  745SOL    HW2 2235   2.165   2.788   2.285 -0.3619  1.3013  0.2583
  746SOL     OW 2236   0.003   2.615   1.840  0.5093 -0.0200  0.5235
  746SOL    HW1 2237   0.103   2.627   1.821 -1.1196 -0.3149 -1.6602
  746SOL    HW2 2238  -0.039   2.686   1.903 -1.3448 -1.4096 -0.7846
  747SOL     OW 2239   0.015   1.814   1.728  0.6403  0.2695  0.4730
  747SOL    HW1 2240  -0.021   1.722   1.695  0.5968  0.8121 -1.3045
  747SOL    HW2 2241   0.098   1.842   1.672 -2.2321  1.2395 -0.3753
  748SOL     OW 2242   1.754   2.766   2.888  0.3380 -0.5283  0.1326
  748SOL    HW1 2243   1.809   2.790   2.975  1.8768 -0.6611 -1.0062
  748SOL    HW2 2244   1.654   2.797   2.892 -2.4360  0.9514 -2.6417
  749SOL     OW 2245   1.276   0.071   0.866  0.2106 -0.2663  0.4508
  749SOL    HW1 2246   1.245  -0.028   0.853 -0.8797  0.6813 -0.4957
  749SOL    HW2 2247   1.289   0.117   0.775  2.1414 -2.5615  0.8087
  750SOL     OW 2248   2.341   0.233   1.882 -1.0158  0.1055 -0.2278
  750SOL    HW1 2249   2.376   0.279   1.801 -1.3894 -0.9566  1.4974
  750SOL    HW2 2250   2.350   0.288   1.969 -1.5600  0.8376  2.5698
  751SOL     OW 2251   0.829   2.235   2.856 -0.3288  0.0372  0.3119
  751SOL    HW1 2252   0.871   2.235   2.953 -0.3763 -2.0697 -1.6145
  751SOL    HW2 2253   0.781   2.147   2.832 -0.3274  0.0117 -0.6909
  752SOL     OW 2254   1.235   0.940   1.540 -0.0315  0.1678 -0.2337
  752SOL    HW1 2255   1.294   0.976   1.463 -0.5912  0.4516 -1.2350
  752SOL    HW2 2256   1.279   0.854   1.580  1.1911 -0.2754 -0.4382
  753SOL     OW 2257   0.930   2.611   1.810  0.3490 -0.0212  0.3346
  753SOL    HW1 2258   1.018   2.645   1.765 -0.9176 -2.2632  1.4424
  753SOL    HW2 2259   0.858   2.682   1.788 -0.1216 -0.8267 -0.9874
  754SOL     OW 2260   1.152   1.274   3.053  0.3619  0.3353 -0.0215
  754SOL    HW1 2261   1.206   1.216   2.984  3.0347 -0.7913 -2.2185
  754SOL    HW2 2262   1.144   1.376   3.027 -0.0776 -0.3291  1.1774
  755SOL     OW 2263   2.010   0.539   2.209  0.3825  0.2168 -0.2908
  755SOL    HW1 2264   2.074   0.459   2.239 -0.6015 -0.1744 -1.2143
  755SOL    HW2 2265   1.925   0.539   2.267  0.4108  1.4176  0.2842
  756SOL     OW 2266   2.633   0.972   2.920 -0.0072 -0.0365 -0.1379
  756SOL    HW1 2267   2.714   0.908   2.904  2.1286 -2.6191  1.2620
  756SOL    HW2 2268   2.562   0.929   2.987  0.1207  1.5029  1.8407
  757SOL     OW 2269   0.100   0.544   1.687 -0.4630 -0.2694 -0.3205
  757SOL    HW1 2270   0.149   0.633   1.682  0.0902 -1.9817  1.4652
  757SOL    HW2 2271   0.119   0.482   1.604 -0.2383 -0.1064  0.6526
  758SOL     OW 2272   2.431   3.096   1.520  0.4964  0.0083 -0.5621
  758SOL    HW1 2273   2.342   3.068   1.566  0.2869  2.5379  0.0136
  758SOL    HW2 2274   2.418   3.112   1.421 -1.2600  1.9202  1.0571
  759SOL     OW 2275   1.660   0.022   0.068  0.0996  0.8868 -0.2749
  759SOL    HW1 2276   1.615   0.059  -0.020 -2.0133  1.9497 -1.7375
  759SOL    HW2 2277   1.762   0.012   0.053  1.9066  0.3472  1.5349
  760SOL     OW 2278   2.735   2.004   2.817  0.2604 -0.3366  0.0269
  760SOL    HW1 2279   2.787   1.917   2.817 -3.8245 -0.3203  2.4090
  760SOL    HW2 2280   2.784   2.089   2.788  1.4477  0.1198 -0.7338
  761SOL     OW 2281   1.908   1.729   1.599 -0.0768 -0.1771 -0.0583
  761SOL    HW1 2282   1.953   1.633   1.605  0.4067 -1.0097 -0.4839
  761SOL    HW2 2283   1.811   1.724   1.565  0.7355 -0.8906 -0.1042
  762SOL     OW 2284   0.537   2.415   0.963 -0.0145  0.0306  0.8186
  762SOL    HW1 2285   0.595   2.430   0.879  1.0832 -0.7623  1.9468
  762SOL    HW2 2286   0.560   2.490   1.038 -1.4146  4.0078 -0.3906
  763SOL     OW 2287   2.021   1.568   2.950 -0.5756  0.4537 -0.4990
  763SOL    HW1 2288   2.077   1.513   2.882 -1.1275  1.4105  1.3203
  763SOL    HW2 2289   1.958   1.502   2.995  3.4781 -0.2698 -0.4764
  764SOL     OW 2290   0.667   0.533   0.872 -0.2664  0.3197  0.0023
  764SOL    HW1 2291   0.672   0.485   0.779  2.4855  3.2596 -0.7815
  764SOL    HW2 2292   0.764   0.559   0.908 -0.6379 -1.3262 -0.5226
  765SOL     OW 2293   0.650   0.204   0.801  0.0954 -0.2086  0.1945
  765SOL    HW1 2294   0.742   0.187   0.754 -1.7998 -1.9806  0.0793
  765SOL    HW2 2295   0.665   0.224   0.902  0.3333 -2.3702  0.5001
  766SOL     OW 2296   2.943   2.032   3.063  0.2617 -0.2752 -0.6287
  766SOL    HW1 2297   2.845   2.069   3.060 -0.4469 -0.6081 -0.6772
  766SOL    HW2 2298   3.017   2.102   3.081 -0.5656 -2.4653 -1.9818
  767SOL     OW 2299   2.846   1.573   0.502  0.1522  0.2066 -0.1447
  767SOL    HW1 2300   2.754   1.564   0.550  2.5131 -2.5581 -0.9032
  767SOL    HW2 2301   2.927   1.584   0.566 -0.1036  1.2731 -0.0971
  768SOL     OW 2302   1.059   0.279   0.283  0.0157 -0.0111  0.1837
  768SOL    HW1 2303   0.984   0.211   0.320  0.0326 -0.8252  0.2660
  768SOL    HW2 2304   1.152   0.230   0.265  2.2301  0.6691 -1.2974
  769SOL     OW 2305   1.233   1.822   2.310  0.1259  0.1426  0.2369
  769SOL    HW1 2306   1.309   1.795   2.373  1.3033 -3.0173  0.6322
  769SOL    HW2 2307   1.168   1.742   2.296  3.1729  2.5123  3.2469
  770SOL     OW 2308   0.139   1.139   2.350  0.1524 -0.0012 -0.0976
  770SOL    HW1 2309   0.115   1.180   2.440 -1.4685  2.2524 -0.8435
  770SOL    HW2 2310   0.068   1.160   2.276 -1.2197  2.4831 -4.5055
  771SOL     OW 2311   2.943   2.830   1.936  0.3086 -0.4558  0.3662
  771SOL    HW1 2312   2.950   2.889   1.846  1.5425 -2.0720 -1.8981
  771SOL    HW2 2313   2.894   2.869   2.012  1.7739 -0.8451 -2.5533
  772SOL     OW 2314   2.119   0.101   2.988 -0.1075  0.2065  0.4972
  772SOL    HW1 2315   2.212   0.050   2.992 -0.2642 -1.4274 -0.7882
  772SOL    HW2 2316   2.126   0.197   3.030  1.0382  0.5942 -1.6775
  773SOL     OW 2317   0.670   2.105   2.485  0.2561  0.3835  0.1094
  773SOL    HW1 2318   0.624   2.161   2.411  0.5050  2.2450  2.4575
  773SOL    HW2 2319   0.615   2.114   2.571  0.8822  0.7996 -0.7676
  774SOL     OW 2320   2.022   3.073   2.653 -0.1767  0.2003  0.5169
  774SOL    HW1 2321   2.025   3.163   2.704  0.7578  1.1249  4.1470
  774SOL    HW2 2322   2.088   3.003   2.697 -1.0916  2.0003  0.9796
  775SOL     OW 2323   2.494   2.873   2.369 -0.6398  0.5685  0.2245
  775SOL    HW1 2324   2.468   2.977   2.368 -0.6375  1.3775  2.3362
  775SOL    HW2 2325   2.587   2.847   2.412  0.5124 -1.8036  1.1657
  776SOL     OW 2326   0.015   1.218   0.239 -0.2353 -0.5356  0.2090
  776SOL    HW1 2327  -0.021   1.188   0.145  1.4259  3.6887  0.2970
  776SOL    HW2 2328  -0.059   1.269   0.292  3.3948  0.4549  3.3486
  777SOL     OW 2329   0.283   2.701   0.450  0.2844 -0.7792 -0.3602
  777SOL    HW1 2330   0.181   2.686   0.438  0.8620  0.2970  0.3964
  777SOL    HW2 2331   0.303   2.799   0.486  2.4777 -0.0957 -1.4287
  778SOL     OW 2332   1.332   1.947   0.191 -0.4609 -0.2131  0.1371
  778SOL    HW1 2333   1.273   1.963   0.275  0.7712 -0.6211 -0.3935
  778SOL    HW2 2334   1.339   2.031   0.128 -0.1559 -2.0801 -0.6127
  779SOL     OW 2335   0.183   0.810   0.532  0.0441  0.2690 -0.1190
  779SOL    HW1 2336   0.156   0.710   0.517 -2.0706 -0.2355  0.5017
  779SOL    HW2 2337   0.142   0.861   0.615 -1.0864  3.2264  1.3927
  780SOL     OW 2338   0.009   0.309   2.373  0.2144  0.0981 -0.6068
  780SOL    HW1 2339  -0.034   0.404   2.373 -0.7400 -0.1192 -0.9007
  780SOL    HW2 2340   0.102   0.303   2.319 -0.2213 -1.4270 -2.5584
  781SOL     OW 2341   0.589   1.750   1.614  0.1240  0.8171 -0.0602
  781SOL    HW1 2342   0.607   1.773   1.710 -1.3681 -1.0954 -1.6211
  781SOL    HW2 2343   0.527   1.664   1.600 -0.9391  1.1097 -4.2398
  782SOL     OW 2344   2.643   0.121   0.880  0.1314  0.3455 -0.1633
  782SOL    HW1 2345   2.567   0.165   0.827  2.5276  3.6642  0.5169
  782SOL    HW2 2346   2.634   0.146   0.978 -1.3114  1.1226  0.2948
  783SOL     OW 2347   2.816   0.672   2.498 -0.2118 -0.5451  0.0804
  783SOL    HW1 2348   2.787   0.722   2.588 -0.8163  2.5434 -0.1001
  783SOL    HW2 2349   2.758   0.594   2.467 -0.1459 -0.1819 -3.4116
  784SOL     OW 2350   1.383   2.180   0.032  0.2929  0.5208 -0.4094
  784SOL    HW1 2351   1.475   2.211   0.064 -4.2842  0.2866  0.7358
  784SOL    HW2 2352   1.360   2.201  -0.070 -1.0359  3.1628 -0.6012
  785SOL     OW 2353   2.143   0.346   0.014  0.5448 -0.4463 -0.0907
  785SOL    HW1 2354   2.059   0.351   0.081 -1.1340 -0.0913  1.8531
  785SOL    HW2 2355   2.174   0.437  -0.033 -0.2325  3.7731 -1.4336
  786SOL     OW 2356   2.047   2.164   2.300 -0.1070  0.5568 -0.6291
  786SOL    HW1 2357   2.015   2.094   2.239  0.8261  1.4421  0.0532
  786SOL    HW2 2358   2.145   2.150   2.321 -1.8325  1.1309  1.0972
  787SOL     OW 2359   1.429   0.612   0.785 -0.1685 -0.2348 -0.5124
  787SOL    HW1 2360   1.370   0.692   0.790  2.4697  1.1842 -2.3019
  787SOL    HW2 2361   1.456   0.586   0.685 -0.4233  4.0433 -1.0949
  788SOL     OW 2362   1.212   0.472   3.002 -0.3642 -0.0572 -0.5932
  788SOL    HW1 2363   1.131   0.474   2.932  0.2576 -0.4343 -0.7797
  788SOL    HW2 2364   1.291   0.532   2.968  1.2669  3.9533 -0.7451
  789SOL     OW 2365   2.664   0.089   1.877  0.3698 -0.2019 -0.0820
  789SOL    HW1 2366   2.558   0.093   1.879  2.0489  1.4427  0.6143
  789SOL    HW2 2367   2.695  -0.008   1.872 -1.0924 -2.6544  0.6482
  790SOL     OW 2368   2.616   2.665   0.814  0.1637 -0.2813  0.2322
  790SOL    HW1 2369   2.641   2.677   0.714  0.1922 -3.0090  2.0080
  790SOL    HW2 2370   2.634   2.753   0.861  0.0837  1.1289  0.1169
  791SOL     OW 2371   1.964   1.212   0.223  0.0121 -0.6283 -0.7690
  791SOL    HW1 2372   1.874   1.164   0.257 -2.2494  0.3107  1.1876
  791SOL    HW2 2373   2.022   1.141   0.181 -0.8768 -0.2039  2.2592
  792SOL     OW 2374   0.426   1.967   2.190  0.2660  0.0077  0.5102
  792SOL    HW1 2375   0.474   2.058   2.198 -1.4664 -1.2758 -0.8034
  792SOL    HW2 2376   0.344   1.954   2.255 -0.2848 -0.1249 -0.9682
  793SOL     OW 2377   2.098   1.490   2.112  0.1644 -0.0433 -0.8210
  793SOL    HW1 2378   2.142   1.589   2.118 -1.5944  1.1257  2.5400
  793SOL    HW2 2379   2.110   1.447   2.018  0.2695 -5.0021 -2.4584
  794SOL     OW 2380   0.522   1.518   2.453  0.2403  0.0963 -0.1497
  794SOL    HW1 2381   0.614   1.469   2.444  1.4404  1.9090  1.3764
  794SOL    HW2 2382   0.468   1.493   2.370 -0.2066  1.2676 -1.9104
  795SOL     OW 2383   2.499   2.293   1.800 -0.3638 -0.2939 -0.1834
  795SOL    HW1 2384   2.526   2.342   1.888 -1.6708  1.5382  2.2837
  795SOL    HW2 2385   2.413   2.240   1.809  1.8709  0.5456  0.9074
  796SOL     OW 2386   3.048   1.087   2.715  0.0301  0.2157 -0.3680
  796SOL    HW1 2387   2.949   1.106   2.726  2.6984 -0.3162 -1.1757
  796SOL    HW2 2388   3.102   1.106   2.800 -2.2406  0.5995 -0.6585
  797SOL     OW 2389   0.652   0.648   1.355  0.1612 -0.3491  0.4814
  797SOL    HW1 2390   0.713   0.700   1.421  1.3195  1.2149 -4.2716
  797SOL    HW2 2391   0.641   0.699   1.266 -0.9682 -0.1782  2.4141
  798SOL     OW 2392   1.181   0.515   0.906  0.3333  0.1161  0.0217
  798SOL    HW1 2393   1.207   0.538   1.009  0.3868  0.3163  0.5118
  798SOL    HW2 2394   1.254   0.546   0.842  0.2355  0.0404  0.1367
  799SOL     OW 2395   1.834   2.698   0.988  0.1489  0.0012 -0.5644
  799SOL    HW1 2396   1.835   2.604   1.041  0.6220  1.2585  1.0744
  799SOL    HW2 2397   1.882   2.707   0.895 -0.8178 -2.6878 -0.8851
  800SOL     OW 2398   3.001   0.843   1.856  0.7111  0.1040  0.3923
  800SOL    HW1 2399   3.003   0.947   1.874 -0.1630 -0.2727 -0.9158
  800SOL    HW2 2400   2.975   0.789   1.943 -0.1602 -1.6357 -2.2309
  801SOL     OW 2401   1.960   2.172   0.104 -0.3517 -0.3482  0.1391
  801SOL    HW1 2402   1.874   2.157   0.045  1.3056  0.8255 -2.5015
  801SOL    HW2 2403   2.042   2.128   0.060  1.5004  1.9245  0.0663
  802SOL     OW 2404   0.681   0.629   2.548 -0.1570  0.5504  0.8126
  802SOL    HW1 2405   0.749   0.621   2.467  0.0362 -0.4405  2.2241
  802SOL    HW2 2406   0.580   0.624   2.523  0.2596  0.4345  2.1287
  803SOL     OW 2407   0.927   0.077   0.897  0.1175  0.1743  0.0358
  803SOL    HW1 2408   0.999   0.139   0.935 -0.1391 -1.6335 -0.9336
  803SOL    HW2 2409   0.916   0.106   0.798  1.2832 -1.5857 -1.4824
  804SOL     OW 2410   0.284   0.038   2.177 -0.3118  0.7980 -0.2799
  804SOL    HW1 2411   0.244   0.135   2.193 -1.8917  1.6659  1.7562
  804SOL    HW2 2412   0.257  -0.004   2.082  0.3995 -0.2187 -1.1726
  805SOL     OW 2413   2.412   0.387   0.333 -0.1311  0.1192 -0.4891
  805SOL    HW1 2414   2.483   0.356   0.404 -2.2266  1.5258 -0.4375
  805SOL    HW2 2415   2.402   0.321   0.257  2.7837  1.4307  2.9060
  806SOL     OW 2416   0.567   2.626   1.851 -0.1957  0.5487  0.2785
  806SOL    HW1 2417   0.510   2.690   1.906  1.4225 -0.8541 -0.1585
  806SOL    HW2 2418   0.648   2.677   1.803  0.8596  0.4565  0.9667
  807SOL     OW 2419   2.513   0.952   0.467 -0.1679  0.2521 -0.0089
  807SOL    HW1 2420   2.591   0.897   0.507  1.3313 -0.0620  1.9257
  807SOL    HW2 2421   2.526   0.997   0.378 -0.9385  0.3726  1.7453
  808SOL     OW 2422   0.662   2.022   2.905  0.5187 -0.0206  0.0591
  808SOL    HW1 2423   0.638   2.057   3.001 -0.6912  1.2019  0.7919
  808SOL    HW2 2424   0.669   1.920   2.911  1.6087  0.9350  0.8613
  809SOL     OW 2425   2.587   1.973   1.917 -0.1270  0.2713  0.0764
  809SOL    HW1 2426   2.687   2.008   1.924 -1.6162 -0.0245  0.8239
  809SOL    HW2 2427   2.539   1.975   1.820 -0.6999 -0.6407  1.3231
  810SOL     OW 2428   2.203   1.114   0.497 -0.4491 -0.2134  0.5494
  810SOL    HW1 2429   2.144   1.030   0.474  2.2100 -0.3889 -1.1853
  810SOL    HW2 2430   2.161   1.190   0.560 -2.1024  1.2178  0.2394
  811SOL     OW 2431   1.293   2.496   1.151 -0.1337 -0.6766 -0.3653
  811SOL    HW1 2432   1.255   2.401   1.124  2.8565 -2.0295  1.9285
  811SOL    HW2 2433   1.329   2.488   1.249 -1.9131 -0.9826 -0.4969
  812SOL     OW 2434   1.484   0.744   1.954  0.3333 -0.1331  0.8862
  812SOL    HW1 2435   1.394   0.698   1.934  2.2301 -0.9240 -0.6927
  812SOL    HW2 2436   1.496   0.846   1.919  3.2335 -1.1119  1.6039
  813SOL     OW 2437   1.670   2.067   2.392  0.5045 -0.0833  0.1639
  813SOL    HW1 2438   1.762   2.032   2.423 -1.6751 -2.2699 -0.5929
  813SOL    HW2 2439   1.660   2.042   2.293  0.1318 -0.6496 -0.1006
  814SOL     OW 2440   2.976   1.668   2.894 -0.4935 -0.2569  0.3075
  814SOL    HW1 2441   3.009   1.601   2.967  1.9015  2.0600 -0.1935
  814SOL    HW2 2442   3.031   1.758   2.889  0.4570  0.9948 -3.2023
  815SOL     OW 2443   2.180   2.869   2.734 -0.3726 -0.5709 -0.4007
  815SOL    HW1 2444   2.170   2.783   2.794  0.3601  0.7744  1.7249
  815SOL    HW2 2445   2.266   2.921   2.755 -1.2788  0.2441 -1.2889
  816SOL     OW 2446   1.485   0.380   1.641 -0.0244  0.4185 -0.3637
  816SOL    HW1 2447   1.541   0.290   1.643  0.4324  2.0582 -2.3342
  816SOL    HW2 2448   1.404   0.391   1.705  0.1450  1.6568 -0.3330
  817SOL     OW 2449   0.367   1.313   2.609 -0.1933 -0.1100 -0.4756
  817SOL    HW1 2450   0.263   1.304   2.619 -1.0828 -3.5161  1.0291
  817SOL    HW2 2451   0.386   1.404   2.571  0.0492  0.5200  0.3317
  818SOL     OW 2452   2.008   0.864   0.463 -0.1460 -0.2585 -0.2337
  818SOL    HW1 2453   2.108   0.837   0.462  1.9032  2.0928  2.2899
  818SOL    HW2 2454   1.971   0.877   0.556 -1.0937  1.7473 -1.0170
  819SOL     OW 2455   2.798   2.904   3.004  0.1940  0.5336 -0.5861
  819SOL    HW1 2456   2.854   2.818   3.008 -2.3177  1.4347 -3.7906
  819SOL    HW2 2457   2.714   2.885   2.951  0.2349 -1.1246  0.1855
  820SOL     OW 2458   1.254   1.036   0.533 -0.3991 -0.1437 -0.1675
  820SOL    HW1 2459   1.313   1.106   0.578  1.4032  0.2967 -0.9681
  820SOL    HW2 2460   1.202   0.990   0.607 -0.7408 -1.5935  0.1400
  821SOL     OW 2461   0.059   1.236   0.695 -0.6006 -0.1624  0.3361
  821SOL    HW1 2462  -0.006   1.240   0.772  0.1611  0.8213 -3.2859
  821SOL    HW2 2463   0.130   1.318   0.688 -0.7083  2.0136  2.5799
  822SOL     OW 2464   2.534   1.734   2.473 -0.1154  0.7582 -0.2102
  822SOL    HW1 2465   2.531   1.823   2.531  0.5319 -0.2104 -0.4745
  822SOL    HW2 2466   2.449   1.720   2.415  0.1745 -1.5430 -0.0191
  823SOL     OW 2467   2.027   0.910   1.213  0.0134 -0.3753 -0.3139
  823SOL    HW1 2468   2.026   0.877   1.316  0.9913 -0.6272  0.8933
  823SOL    HW2 2469   1.960   0.855   1.157  0.3768 -1.4095 -4.4245
  824SOL     OW 2470   0.184   1.871   2.810  0.3171 -0.3998  0.5360
  824SOL    HW1 2471   0.236   1.861   2.897 -0.7264 -0.1679 -0.2019
  824SOL    HW2 2472   0.251   1.898   2.735  0.0918 -1.4443  2.0828
  825SOL     OW 2473   1.299   1.068   0.270  0.0908  0.1789 -0.0305
  825SOL    HW1 2474   1.329   1.166   0.262  0.8111 -0.7583  1.2896
  825SOL    HW2 2475   1.282   1.045   0.375 -1.6732 -0.1541  3.2252
  826SOL     OW 2476   1.945   0.608   1.580  0.0814 -0.0417  0.0809
  826SOL    HW1 2477   2.021   0.564   1.637  1.1394  0.3348  2.1167
  826SOL    HW2 2478   1.873   0.541   1.546 -1.0645  0.3567 -0.2643
  827SOL     OW 2479   0.711   1.177   0.477  0.4612  0.2366  0.6655
  827SOL    HW1 2480   0.799   1.135   0.444  1.4680  1.8926 -0.1652
  827SOL    HW2 2481   0.623   1.124   0.449 -1.9003  1.4537 -2.5900
  828SOL     OW 2482   2.646   0.173   1.544  0.5600  0.7939  0.5203
  828SOL    HW1 2483   2.558   0.112   1.539 -0.7158 -1.0136  0.9319
  828SOL    HW2 2484   2.663   0.208   1.640  0.4612  0.6549 -1.3988
  829SOL     OW 2485   2.932   2.375   2.970  0.0265 -0.0012 -0.3615
  829SOL    HW1 2486   2.835   2.354   3.000  2.5848 -0.6282 -2.9956
  829SOL    HW2 2487   2.952   2.475   2.946 -1.9085  1.0769 -0.2710
  830SOL     OW 2488   2.922   0.926   3.000  0.1986 -0.0653 -0.1422
  830SOL    HW1 2489   2.946   1.024   3.032 -0.3477  0.7896  1.8451
  830SOL    HW2 2490   2.944   0.852   3.069 -0.7330  1.7131  1.6166
  831SOL     OW 2491   0.110   0.570   0.437 -0.5827  0.4536 -0.1707
  831SOL    HW1 2492   0.089   0.508   0.519  1.7181 -1.1665 -0.1353
  831SOL    HW2 2493   0.127   0.513   0.352 -1.8252 -0.5908 -0.9425
  832SOL     OW 2494   1.788   0.717   3.072 -0.3280 -0.2219  0.5593
  832SOL    HW1 2495   1.701   0.775   3.049 -0.4439  1.0917 -0.5135
  832SOL    HW2 2496   1.772   0.619   3.093  1.9990  1.1466  1.3143
  833SOL     OW 2497   2.357   2.123   0.530  0.0621  0.1042  0.4333
  833SOL    HW1 2498   2.265   2.074   0.523  0.4031  0.7481  1.0478
  833SOL    HW2 2499   2.435   2.058   0.512 -2.7132 -1.2657  1.5940
  834SOL     OW 2500   0.130   0.057   0.552 -0.4862  0.0562  0.1524
  834SOL    HW1 2501   0.198  -0.025   0.563 -0.7514 -0.5633 -0.0390
  834SOL    HW2 2502   0.126   0.094   0.456 -0.0587  0.1158 -0.6809
  835SOL     OW 2503   2.446   1.631   1.164  0.7019  0.5294  0.2889
  835SOL    HW1 2504   2.527   1.599   1.219 -0.6858  2.0905  1.6943
  835SOL    HW2 2505   2.466   1.713   1.100  0.1159 -1.6304  0.5512
  836SOL     OW 2506   1.554   0.815   2.565 -0.7111  0.3370 -0.6679
  836SOL    HW1 2507   1.461   0.859   2.549  3.0561  0.1249 -3.1855
  836SOL    HW2 2508   1.624   0.842   2.492  2.9787  0.2676  2.1701
  837SOL     OW 2509   1.722   0.110   0.536  0.3970 -0.2621 -0.0738
  837SOL    HW1 2510   1.715   0.191   0.601 -0.5875 -1.4524  3.4774
  837SOL    HW2 2511   1.653   0.119   0.453 -0.5666 -0.7873  0.7749
  838SOL     OW 2512   1.217   1.471   2.697 -0.6837  0.1190  0.0435
  838SOL    HW1 2513   1.190   1.565   2.721 -1.1790 -0.0265 -2.0379
  838SOL    HW2 2514   1.138   1.406   2.683 -2.0241  2.9198 -1.7589
  839SOL     OW 2515   1.662   0.381   0.968  0.9998 -0.3011 -0.1112
  839SOL    HW1 2516   1.602   0.467   0.988 -1.5034 -0.6945  1.2218
  839SOL    HW2 2517   1.605   0.295   0.961 -3.0690  4.2267 -1.4597
  840SOL     OW 2518   2.647   2.963   1.660 -0.3496 -0.2341  0.3605
  840SOL    HW1 2519   2.580   3.011   1.599  1.6668 -1.0983  1.0026
  840SOL    HW2 2520   2.608   2.931   1.751 -1.8698  2.3218 -0.1118
  841SOL     OW 2521   1.547   0.825   3.023  0.9784  0.2610  1.0833
  841SOL    HW1 2522   1.481   0.868   3.093 -3.6662 -2.1497 -1.8133
  841SOL    HW2 2523   1.532   0.868   2.923 -2.7660  0.3393 -2.2040
  842SOL     OW 2524   0.830   1.614   0.999  0.0957 -0.6174 -0.2440
  842SOL    HW1 2525   0.787   1.707   1.037  0.7346  1.8657  2.6893
  842SOL    HW2 2526   0.768   1.566   0.931  0.7048  0.5301  0.8836
  843SOL     OW 2527   0.162   0.052   1.474 -0.0562  0.0508  0.0918
  843SOL    HW1 2528   0.253   0.089   1.512 -1.3406  0.9834 -0.5192
  843SOL    HW2 2529   0.166  -0.028   1.407  1.5347  3.1767  0.4726
  844SOL     OW 2530   0.694   2.486   0.208 -0.1121 -0.5489 -0.3388
  844SOL    HW1 2531   0.645   2.465   0.297  1.3050 -1.0840  0.5887
  844SOL    HW2 2532   0.640   2.453   0.125 -1.1059  0.3397  0.1482
  845SOL     OW 2533   1.748   3.091   1.238  0.6982  0.0013 -0.1719
  845SOL    HW1 2534   1.733   3.062   1.339  1.4017 -0.0137  0.3998
  845SOL    HW2 2535   1.704   3.181   1.215 -1.1261 -1.3720 -1.2555
  846SOL     OW 2536   1.706   3.038   0.924 -0.2739  0.3864 -0.2094
  846SOL    HW1 2537   1.689   3.030   0.827  0.2593 -1.8886  1.0861
  846SOL    HW2 2538   1.806   3.029   0.944 -0.3499  1.0414 -0.0718
  847SOL     OW 2539   2.108   1.631   0.181  0.2331  0.6154 -0.5573
  847SOL    HW1 2540   2.053   1.603   0.266 -0.5470 -2.3650 -0.7936
  847SOL    HW2 2541   2.045   1.637   0.104  1.9274 -1.3531  1.8982
  848SOL     OW 2542   2.495   0.813   2.627  0.1445  0.0556  0.3082
  848SOL    HW1 2543   2.507   0.916   2.607 -0.3032 -1.4658 -1.8003
  848SOL    HW2 2544   2.400   0.788   2.590  0.1472 -0.5474 -0.3459
  849SOL     OW 2545   2.368   0.825   2.290  0.1870  0.0579  0.1129
  849SOL    HW1 2546   2.447   0.776   2.252  0.2761  1.0724  1.3268
  849SOL    HW2 2547   2.311   0.774   2.364 -0.3710 -1.0669  2.3422
  850SOL     OW 2548   1.540   0.214   1.254 -0.6520  0.6874  0.5759
  850SOL    HW1 2549   1.516   0.189   1.156 -1.4355  0.9510 -0.3925
  850SOL    HW2 2550   1.500   0.147   1.324  0.1849  0.4597 -0.5459
  851SOL     OW 2551   0.455   1.680   0.637 -0.6515 -1.0800 -0.4241
  851SOL    HW1 2552   0.451   1.775   0.685  2.5375 -1.6867  3.1847
  851SOL    HW2 2553   0.554   1.651   0.611  0.8170 -1.6741 -2.0813
  852SOL     OW 2554   0.827   2.189   1.712  0.0338 -0.1336  0.0700
  852SOL    HW1 2555   0.770   2.266   1.664  0.5221 -1.7589  1.9499
  852SOL    HW2 2556   0.785   2.156   1.796 -1.5853  0.7806 -0.5198
  853SOL     OW 2557   2.622   1.490   2.591  1.0436 -0.2071 -0.1927
  853SOL    HW1 2558   2.541   1.423   2.569 -1.3930  0.0792  2.3778
  853SOL    HW2 2559   2.605   1.586   2.549 -1.7289 -3.1497  0.3773
  854SOL     OW 2560   2.440   1.421   1.783  0.7049 -0.9678 -0.7028
  854SOL    HW1 2561   2.462   1.402   1.682  1.1897  0.3111  0.3600
  854SOL    HW2 2562   2.413   1.336   1.836 -0.0216  1.9060  1.3359
  855SOL     OW 2563   2.021   2.272   1.009  0.2399 -0.3208  0.6625
  855SOL    HW1 2564   2.049   2.370   0.973  0.9249  0.7524 -1.0793
  855SOL    HW2 2565   2.065   2.248   1.101 -0.4504 -0.0494 -1.4617
  856SOL     OW 2566   1.412   1.406   0.875  0.4283 -0.1275 -0.1675
  856SOL    HW1 2567   1.409   1.512   0.869 -0.4638  1.9727  2.2005
  856SOL    HW2 2568   1.402   1.368   0.974 -2.0554  0.7301 -0.4567
  857SOL     OW 2569   2.884   2.540   1.018 -0.3270 -0.1794  0.4590
  857SOL    HW1 2570   2.891   2.452   1.074  1.3097  1.9118  1.3528
  857SOL    HW2 2571   2.855   2.530   0.920  0.4481 -1.4159  2.0028
  858SOL     OW 2572   2.284   2.091   1.780  1.0623  0.1577 -0.2129
  858SOL    HW1 2573   2.202   2.125   1.728 -0.9623  0.1426  2.6798
  858SOL    HW2 2574   2.365   2.057   1.725  0.9734  0.5138  2.2987
  859SOL     OW 2575   2.400   0.391   0.961  0.2412 -0.7036 -0.2025
  859SOL    HW1 2576   2.477   0.464   0.938  0.1970 -1.1020  1.7538
  859SOL    HW2 2577   2.450   0.310   1.010  1.6127 -2.8680  1.6316
  860SOL     OW 2578   1.955   2.837   0.507 -0.4192  0.1817  0.2720
  860SOL    HW1 2579   1.929   2.802   0.415  0.9615  0.4769  3.3028
  860SOL    HW2 2580   1.965   2.941   0.507  1.0224 -2.2050 -0.2968
  861SOL     OW 2581   1.015   2.543   2.807 -0.4723 -0.6384 -0.1574
  861SOL    HW1 2582   1.089   2.620   2.814 -1.9990 -0.3372  0.0670
  861SOL    HW2 2583   0.954   2.530   2.890  0.6565 -1.6305 -1.7990
  862SOL     OW 2584   2.979   2.608   1.562  0.2105  0.0309 -0.0254
  862SOL    HW1 2585   3.049   2.608   1.639 -0.2414 -0.1481 -1.0861
  862SOL    HW2 2586   2.887   2.649   1.585  0.4976  0.4375  0.0261
  863SOL     OW 2587   1.880   2.647   0.281 -1.2097  0.1963  0.0498
  863SOL    HW1 2588   1.953   2.573   0.255  0.8902  2.9717 -0.6132
  863SOL    HW2 2589   1.783   2.629   0.256 -1.0791  1.9564  0.0405
  864SOL     OW 2590   1.915   1.132   2.952  0.3303  0.1598 -0.2755
  864SOL    HW1 2591   1.909   1.092   2.857 -0.3126 -0.6586 -0.3433
  864SOL    HW2 2592   2.002   1.100   3.008  0.3110 -1.8002 -0.9809
  865SOL     OW 2593   2.108   1.700   0.645  0.2039  0.7983 -0.4614
  865SOL    HW1 2594   2.165   1.736   0.726 -0.6394  0.6734 -1.0421
  865SOL    HW2 2595   2.029   1.639   0.683 -1.3162 -0.4564 -0.5871
  866SOL     OW 2596   2.884   2.816   1.022  0.3203 -0.2011  0.9192
  866SOL    HW1 2597   2.939   2.840   0.941  0.9788  0.4365  1.9569
  866SOL    HW2 2598   2.884   2.711   1.036  3.6878 -1.6394  1.3377
  867SOL     OW 2599   0.459   1.339   0.836  0.1134  0.3198 -0.2056
  867SOL    HW1 2600   0.467   1.238   0.829 -0.1133  1.4014 -1.1023
  867SOL    HW2 2601   0.363   1.377   0.806  0.1080  1.5700  0.6621
  868SOL     OW 2602   0.847   1.931   1.990  0.0750 -0.5680 -0.1873
  868SOL    HW1 2603   0.812   1.889   2.079  2.8875 -4.0534  1.8648
  868SOL    HW2 2604   0.774   2.002   1.953 -1.1065 -0.5812 -0.3656
  869SOL     OW 2605   2.512   2.032   1.658 -0.2921 -0.3262  0.3925
  869SOL    HW1 2606   2.566   2.114   1.651 -1.4085  1.2493 -0.2000
  869SOL    HW2 2607   2.514   1.978   1.569 -0.1706 -1.0700 -0.5579
  870SOL     OW 2608   2.393   2.530   1.180  0.0032 -0.2078  0.0257
  870SOL    HW1 2609   2.340   2.444   1.183  0.9295 -0.3134 -1.0058
  870SOL    HW2 2610   2.488   2.527   1.227  0.5407 -2.3831 -0.0290
  871SOL     OW 2611   3.041   1.992   0.511  0.6249  0.5931 -0.1217
  871SOL    HW1 2612   2.967   2.057   0.488 -1.3246 -4.4029  2.7521
  871SOL    HW2 2613   3.035   1.907   0.450  1.2333 -1.5312  1.6190
  872SOL     OW 2614   2.171   0.471   1.679 -0.1887 -0.4580  0.3438
  872SOL    HW1 2615   2.148   0.508   1.776  0.0596  0.5112  2.9720
  872SOL    HW2 2616   2.268   0.432   1.676  2.6239  1.2697 -0.3776
  873SOL     OW 2617   1.723   2.075   2.869 -0.1955 -0.1926 -0.4421
  873SOL    HW1 2618   1.698   2.171   2.900  2.5157 -1.8168  0.0603
  873SOL    HW2 2619   1.660   2.035   2.801  3.8283 -1.1376  0.8200
  874SOL     OW 2620   0.672   2.507   0.745 -0.3683  0.4712  0.0511
  874SOL    HW1 2621   0.653   2.599   0.782 -5.4465 -0.7946  2.4453
  874SOL    HW2 2622   0.765   2.465   0.772 -1.5457 -2.2205 -2.0267
  875SOL     OW 2623   2.310   1.556   1.433  0.1644  0.6474 -0.6013
  875SOL    HW1 2624   2.412   1.586   1.451  2.1456  2.4639  0.9750
  875SOL    HW2 2625   2.279   1.610   1.353  0.7540  1.9082  0.0671
  876SOL     OW 2626   0.160   2.205   2.695 -0.0645  0.2503  0.4279
  876SOL    HW1 2627   0.200   2.153   2.772 -1.9717  1.8953 -1.9331
  876SOL    HW2 2628   0.173   2.305   2.701 -1.2186 -2.1318 -0.6061
  877SOL     OW 2629   2.789   2.655   0.579 -0.1798  0.6594 -0.0666
  877SOL    HW1 2630   2.821   2.752   0.565 -2.9208 -1.4376  0.4755
  877SOL    HW2 2631   2.836   2.603   0.655 -1.3973 -2.5887  0.7160
  878SOL     OW 2632   2.761   1.531   2.267  0.0713 -0.1863  0.0708
  878SOL    HW1 2633   2.738   1.633   2.285 -0.7916  1.0502  3.0913
  878SOL    HW2 2634   2.831   1.486   2.334 -0.8355 -4.2019  1.5568
  879SOL     OW 2635   2.401   0.011   1.241  0.1130 -0.0133  0.5000
  879SOL    HW1 2636   2.432  -0.087   1.258 -0.1728 -0.2454 -1.6576
  879SOL    HW2 2637   2.310   0.016   1.190 -0.5053 -1.7591  0.6403
  880SOL     OW 2638   0.635   0.426   2.192 -0.7629  0.2201  0.0878
  880SOL    HW1 2639   0.580   0.400   2.275  1.9826  1.1145 -2.2986
  880SOL    HW2 2640   0.620   0.347   2.126 -0.2379  2.6053  2.9868
  881SOL     OW 2641   0.909   0.064   0.407 -0.8317  0.9101  0.2309
  881SOL    HW1 2642   0.953  -0.028   0.432  0.6638  1.4219 -0.0466
  881SOL    HW2 2643   0.874   0.065   0.311  0.1195  1.2210  1.7691
  882SOL     OW 2644   2.749   1.719   1.645 -0.2657  0.9995 -0.2257
  882SOL    HW1 2645   2.845   1.694   1.619  2.3082 -0.3748  1.4026
  882SOL    HW2 2646   2.727   1.719   1.751 -3.3188  2.5710 -1.0838
  883SOL     OW 2647   0.915   0.625   0.964 -0.3843 -0.4746 -0.2255
  883SOL    HW1 2648   0.936   0.678   1.053  2.6505  4.2879 -0.1128
  883SOL    HW2 2649   1.005   0.593   0.925 -0.0823  0.4810  1.1582
  884SOL     OW 2650   1.185   1.839   1.071 -0.8835  0.0210  0.4350
  884SOL    HW1 2651   1.150   1.839   0.973  0.0577 -0.0007  1.3541
  884SOL    HW2 2652   1.133   1.913   1.122  0.2740 -0.5074 -1.0588
  885SOL     OW 2653   2.277   1.751   2.352  0.1870  0.0157  0.0094
  885SOL    HW1 2654   2.189   1.697   2.366 -0.8618  0.4988 -1.1844
  885SOL    HW2 2655   2.261   1.851   2.332  3.4609  4.2306 -0.3924
  886SOL     OW 2656   2.672   0.464   1.800  0.1896  0.0070  0.4319
  886SOL    HW1 2657   2.696   0.428   1.890 -0.6347 -1.2256 -1.7667
  886SOL    HW2 2658   2.735   0.537   1.761 -0.0973 -2.2377  1.4287
  887SOL     OW 2659   0.189   2.014   1.323  0.1668 -0.3178 -0.1091
  887SOL    HW1 2660   0.137   1.949   1.264  0.4797  0.7992  2.0043
  887SOL    HW2 2661   0.182   2.114   1.292 -0.7123 -0.5720 -0.5132
  888SOL     OW 2662   0.588   1.326   1.482  0.4166 -0.7845  0.1226
  888SOL    HW1 2663   0.649   1.334   1.398 -1.3396 -2.5281 -2.5259
  888SOL    HW2 2664   0.571   1.233   1.514 -4.3454  3.6291  0.4319
  889SOL     OW 2665   0.866   2.489   2.128 -0.4983 -0.5778 -0.7992
  889SOL    HW1 2666   0.785   2.441   2.089  1.7402  1.0853  1.4174
  889SOL    HW2 2667   0.952   2.476   2.074  0.5169  0.6917  2.5449
  890SOL     OW 2668   2.313   2.383   0.112 -0.4682  0.2746 -0.2725
  890SOL    HW1 2669   2.358   2.467   0.078 -1.5944 -0.5985  1.2224
  890SOL    HW2 2670   2.212   2.394   0.138  0.4902  1.3615  0.6753
  891SOL     OW 2671   2.611   1.548   0.624  0.0423  0.3191  0.8617
  891SOL    HW1 2672   2.587   1.495   0.710 -1.7061  0.8100  1.2243
  891SOL    HW2 2673   2.532   1.544   0.559  0.3941  1.4591 -1.4368
  892SOL     OW 2674   0.228   0.316   2.232  0.3286 -0.1381  0.1542
  892SOL    HW1 2675   0.247   0.323   2.129 -1.2652 -0.6504  1.4139
  892SOL    HW2 2676   0.317   0.340   2.281  1.2040 -0.4973  2.4458
  893SOL     OW 2677   1.643   0.234   2.713 -0.5245 -0.3153  0.1487
  893SOL    HW1 2678   1.722   0.301   2.735 -1.2489 -0.3232  1.2688
  893SOL    HW2 2679   1.551   0.281   2.693 -0.1679  0.7514  0.9580
  894SOL     OW 2680   2.139   1.958   0.061 -0.0085  0.0712  0.2930
  894SOL    HW1 2681   2.118   1.911  -0.032 -0.5675 -2.3427  1.5195
  894SOL    HW2 2682   2.198   1.892   0.119  1.4423  0.2133  2.7848
  895SOL     OW 2683   2.892   1.432   0.819 -0.1831  0.1221  0.0314
  895SOL    HW1 2684   2.916   1.364   0.896  2.0624 -0.7907  0.7018
  895SOL    HW2 2685   2.946   1.520   0.816 -1.5808  0.5704  0.6470
  896SOL     OW 2686   1.755   1.773   1.208  0.6316 -0.0321 -0.2737
  896SOL    HW1 2687   1.842   1.806   1.161 -0.0754  2.3091 -1.0918
  896SOL    HW2 2688   1.669   1.828   1.180 -0.5833 -1.5815  0.6317
  897SOL     OW 2689   0.312   0.501   3.073 -0.2787  0.0397  0.1475
  897SOL    HW1 2690   0.262   0.539   2.990  0.8454 -3.2066 -1.7039
  897SOL    HW2 2691   0.403   0.544   3.093 -0.9587  1.5279  0.2432
  898SOL     OW 2692   0.546   2.855   1.128  0.0899 -0.2801 -0.5000
  898SOL    HW1 2693   0.476   2.931   1.139  1.3833  0.7746  1.3466
  898SOL    HW2 2694   0.628   2.867   1.191  1.7310  1.7977 -1.3403
  899SOL     OW 2695   2.700   0.930   1.238  0.3691  0.1348 -0.1842
  899SOL    HW1 2696   2.631   0.891   1.172 -2.6861  2.6494  1.4743
  899SOL    HW2 2697   2.789   0.969   1.196  1.5331 -1.3265  1.1046
  900SOL     OW 2698   0.976   2.342   2.329  0.2004 -0.3021  0.2408
  900SOL    HW1 2699   0.927   2.404   2.264  0.8160 -1.1799 -0.0820
  900SOL    HW2 2700   0.979   2.381   2.421 -0.7705 -2.0493 -2.3701
  901SOL     OW 2701   1.896   2.437   1.392  0.5008  0.3290 -0.1347
  901SOL    HW1 2702   1.890   2.449   1.291 -0.5346  1.9834  1.6239
  901SOL    HW2 2703   1.992   2.416   1.423  1.1923 -0.7361  1.4582
  902SOL     OW 2704   2.559   1.647   1.456  0.3473  0.3067 -0.3485
  902SOL    HW1 2705   2.619   1.663   1.542  1.3473  0.7929 -0.0844
  902SOL    HW2 2706   2.622   1.607   1.387  0.6246  1.1014  0.2201
  903SOL     OW 2707   0.269   2.341   1.965 -0.1763  0.6431  0.2271
  903SOL    HW1 2708   0.190   2.351   2.034  1.3690 -0.4199  0.0076
  903SOL    HW2 2709   0.269   2.414   1.895 -0.4896 -0.2116  2.4532
  904SOL     OW 2710   1.967   0.791   2.588  0.3408  0.0679  0.0374
  904SOL    HW1 2711   1.900   0.718   2.618  0.7546 -1.1724 -0.5690
  904SOL    HW2 2712   1.981   0.801   2.480 -0.2159  0.8546 -3.2665
  905SOL     OW 2713   2.747   0.041   2.636  0.2144  0.2771 -0.6346
  905SOL    HW1 2714   2.808  -0.036   2.610  2.1915  0.8508 -0.3487
  905SOL    HW2 2715   2.779   0.133   2.591  0.5889  1.3000  1.3562
  906SOL     OW 2716   0.104   1.761   1.971  0.1913  0.9602 -0.3271
  906SOL    HW1 2717   0.054   1.793   1.887  1.5256  0.5333  2.6434
  906SOL    HW2 2718   0.202   1.781   1.962 -1.2261  1.0658  1.2802
  907SOL     OW 2719   0.188   2.458   1.047  0.1764 -0.4147 -0.1243
  907SOL    HW1 2720   0.280   2.505   1.049 -1.4372  1.4013 -0.3630
  907SOL    HW2 2721   0.148   2.448   0.948 -0.3850 -1.1925 -0.0772
  908SOL     OW 2722   2.628   2.861   0.415 -0.0593 -0.2834 -0.3497
  908SOL    HW1 2723   2.610   2.848   0.311  1.4031  0.8511 -1.5950
  908SOL    HW2 2724   2.611   2.768   0.461 -0.1933 -0.3936  0.9559
  909SOL     OW 2725   0.710   0.904   2.608 -0.3768  0.1487 -0.7658
  909SOL    HW1 2726   0.667   0.809   2.600  0.8151 -1.4339  1.4844
  909SOL    HW2 2727   0.787   0.934   2.542 -0.5206 -0.3271  1.2027
  910SOL     OW 2728   1.757   1.766   2.024 -0.5440  0.2351 -0.1696
  910SOL    HW1 2729   1.810   1.820   1.952 -0.2466  0.3926  0.6140
  910SOL    HW2 2730   1.674   1.815   2.062 -0.8511 -0.1700 -1.1927
  911SOL     OW 2731   1.752   3.022   1.573 -0.4915 -0.2187  0.7009
  911SOL    HW1 2732   1.822   2.979   1.507 -2.8235  1.5123  0.0227
  911SOL    HW2 2733   1.741   2.969   1.663 -2.4761  2.0181  0.7289
  912SOL     OW 2734   2.803   0.972   0.782  0.4550 -0.4365 -0.5650
  912SOL    HW1 2735   2.827   0.973   0.883 -1.9337 -0.4600  0.5934
  912SOL    HW2 2736   2.780   1.068   0.747 -4.2977 -1.3977  0.7673
  913SOL     OW 2737   2.544   1.280   1.551 -0.3537  0.4396  0.4773
  913SOL    HW1 2738   2.581   1.204   1.614  0.6203  0.9832 -0.4871
  913SOL    HW2 2739   2.590   1.278   1.459 -0.6457  0.1419  0.1986
  914SOL     OW 2740   2.802   0.536   1.258  0.1127 -0.2353  0.3814
  914SOL    HW1 2741   2.786   0.437   1.286  0.4736  4.0858  1.3449
  914SOL    HW2 2742   2.760   0.598   1.330  3.8334 -0.8414  0.6600
  915SOL     OW 2743   1.204   0.860   1.022 -0.5560  0.0065  0.7646
  915SOL    HW1 2744   1.256   0.948   1.038  0.8247 -0.5181  1.0906
  915SOL    HW2 2745   1.123   0.840   1.086 -0.6606  0.6061 -1.0932
  916SOL     OW 2746   0.548   0.053   0.602 -0.2181  0.8054  0.0552
  916SOL    HW1 2747   0.568   0.116   0.685 -1.5908 -0.2576  0.3707
  916SOL    HW2 2748   0.530   0.106   0.515  1.1703 -0.9779 -0.7104
  917SOL     OW 2749   2.774   2.596   1.907  0.2638  0.3860 -0.4285
  917SOL    HW1 2750   2.685   2.651   1.897 -1.0622  0.1492  0.0472
  917SOL    HW2 2751   2.858   2.644   1.889 -3.6338  0.1984 -1.4169
  918SOL     OW 2752   0.985   2.211   3.093  0.1416 -0.2781  0.5941
  918SOL    HW1 2753   0.952   2.238   3.190 -0.4674  1.4417 -0.8781
  918SOL    HW2 2754   1.057   2.136   3.092  1.0805  0.3195  1.5030
  919SOL     OW 2755   0.916   1.630   2.814 -0.3269 -0.6991 -0.7759
  919SOL    HW1 2756   0.964   1.686   2.741 -0.1725 -2.5914 -2.9982
  919SOL    HW2 2757   0.878   1.537   2.786  0.3159 -1.3761  0.0181
  920SOL     OW 2758   1.247   2.050   2.511 -0.6933  0.2216 -0.3142
  920SOL    HW1 2759   1.200   2.063   2.418 -0.1196 -0.4020  3.0161
  920SOL    HW2 2760   1.286   1.952   2.534 -0.7930 -0.1930 -1.3325
  921SOL     OW 2761   1.038   0.142   2.591 -0.0640  0.0412  0.0070
  921SOL    HW1 2762   1.074   0.101   2.499  0.7355  1.0976 -2.5589
  921SOL    HW2 2763   0.948   0.192   2.573  0.6550 -4.1418  2.4854
  922SOL     OW 2764   2.095   2.408   2.767 -0.3993  0.1886  0.1895
  922SOL    HW1 2765   2.073   2.307   2.778 -0.1683  0.3353 -1.5453
  922SOL    HW2 2766   2.065   2.452   2.676  0.7009 -2.7252  1.2536
  923SOL     OW 2767   1.147   2.695   0.229 -0.1648 -0.5727 -0.7574
  923SOL    HW1 2768   1.238   2.737   0.268 -2.1379 -2.6411  1.7876
  923SOL    HW2 2769   1.160   2.614   0.170  0.4302  1.7414 -0.9545
  924SOL     OW 2770   2.864   1.565   0.103 -0.1389 -0.0058 -0.0907
  924SOL    HW1 2771   2.810   1.546   0.016  1.4219 -0.6694 -1.3740
  924SOL    HW2 2772   2.947   1.619   0.082 -2.4504  1.7861  0.8432
  925SOL     OW 2773   0.075   2.859   1.646  0.5898  0.1583 -0.5673
  925SOL    HW1 2774  -0.020   2.896   1.674 -0.9952  0.0962  1.8006
  925SOL    HW2 2775   0.101   2.892   1.552  1.0774  0.1902 -1.1208
  926SOL     OW 2776   1.443   2.873   1.312  0.2235  0.3368 -0.2503
  926SOL    HW1 2777   1.458   2.869   1.205  1.2556  1.1502 -0.8788
  926SOL    HW2 2778   1.445   2.965   1.360 -1.2991 -0.8207  0.6301
  927SOL     OW 2779   0.272   2.534   1.784 -1.0737 -0.0498 -0.2202
  927SOL    HW1 2780   0.221   2.502   1.699  0.3105  1.1971 -0.3511
  927SOL    HW2 2781   0.341   2.607   1.755  0.1534 -0.1400  0.4352
  928SOL     OW 2782   1.604   1.992   2.104  0.2024  0.8136 -0.5147
  928SOL    HW1 2783   1.640   2.089   2.088 -1.7702 -0.3971  0.2157
  928SOL    HW2 2784   1.502   1.977   2.095 -1.0947 -0.4723  1.4292
  929SOL     OW 2785   2.372   2.467   2.828 -0.5184 -0.2660 -0.2021
  929SOL    HW1 2786   2.275   2.447   2.824  1.1469 -1.7346 -0.2644
  929SOL    HW2 2787   2.423   2.452   2.739 -1.5492 -0.4393  2.2390
  930SOL     OW 2788   2.205   2.008   1.088 -0.5579 -0.0670 -0.3943
  930SOL    HW1 2789   2.186   1.987   1.192  0.2503 -1.6612  2.0859
  930SOL    HW2 2790   2.296   2.058   1.072  1.0839 -0.1017 -1.0030
  931SOL     OW 2791   0.577   1.733   2.629  0.1796  0.5929  0.6255
  931SOL    HW1 2792   0.651   1.703   2.700  0.4475 -1.9086 -0.0224
  931SOL    HW2 2793   0.561   1.647   2.567  1.1166 -0.4307 -1.8312
  932SOL     OW 2794   0.490   0.115   2.916  0.4186  0.0626 -0.3069
  932SOL    HW1 2795   0.587   0.136   2.881  2.7970  0.9865  2.0846
  932SOL    HW2 2796   0.488   0.015   2.947  0.5543 -0.4726 -2.9446
  933SOL     OW 2797   1.066   0.785   3.018  0.3695 -0.1815  0.0967
  933SOL    HW1 2798   1.139   0.824   3.077 -0.2203 -2.2760  0.0408
  933SOL    HW2 2799   1.016   0.859   2.971  1.6743 -1.1343 -0.5029
  934SOL     OW 2800   0.798   2.950   2.751  0.3639 -0.6506  0.3591
  934SOL    HW1 2801   0.818   2.866   2.688  1.7404 -2.1186 -0.9025
  934SOL    HW2 2802   0.836   2.943   2.846 -0.8487  1.8603  1.7550
  935SOL     OW 2803   3.081   0.520   0.890  0.2234  0.5897  0.2912
  935SOL    HW1 2804   3.089   0.484   0.787  0.5242  0.2261 -0.1487
  935SOL    HW2 2805   3.008   0.596   0.897 -2.6510  1.8743  1.5937
  936SOL     OW 2806   1.103   2.946   0.130  0.0338  0.7278 -0.3424
  936SOL    HW1 2807   1.182   2.980   0.077 -0.6556  0.1487  1.5609
  936SOL    HW2 2808   1.112   2.844   0.150  2.0927 -1.0175 -2.0228
  937SOL     OW 2809   1.942   2.617   2.079  0.0221  0.3005 -0.0125
  937SOL    HW1 2810   1.865   2.679   2.113  0.9591  2.4766 -0.0922
  937SOL    HW2 2811   1.964   2.638   1.979 -1.0825  0.2099  2.4658
  938SOL     OW 2812   2.782   2.177   1.492  0.1044  0.0903  0.5480
  938SOL    HW1 2813   2.740   2.250   1.555 -0.3444  2.0227  0.0510
  938SOL    HW2 2814   2.836   2.104   1.541 -2.0650 -1.4904  2.4713
  939SOL     OW 2815   2.742   1.079   2.513 -0.4931 -0.6443  0.2877
  939SOL    HW1 2816   2.803   0.996   2.494  0.8395 -1.0937  2.3870
  939SOL    HW2 2817   2.733   1.106   2.610 -2.0843 -0.0959 -1.5217
  940SOL     OW 2818   1.069   0.460   2.619 -0.3449 -0.5592  0.1092
  940SOL    HW1 2819   1.147   0.401   2.654 -2.7054  1.5195  0.1880
  940SOL    HW2 2820   0.984   0.407   2.611  4.1187  1.4496  0.0401
  941SOL     OW 2821   0.064   2.842   2.209  0.4523  0.2308  0.3843
  941SOL    HW1 2822   0.034   2.746   2.192  0.6841 -0.5436 -1.6105
  941SOL    HW2 2823   0.121   2.856   2.292  1.9511 -0.4174 -2.5249
  942SOL     OW 2824   0.062   0.081   2.560 -0.1402 -0.4797  0.1337
  942SOL    HW1 2825   0.136   0.077   2.638  0.4355 -2.3714  1.2616
  942SOL    HW2 2826   0.035   0.174   2.525  1.5152  1.3773  0.9503
  943SOL     OW 2827   2.057   1.597   2.429 -0.0349 -0.3274  0.1566
  943SOL    HW1 2828   2.060   1.516   2.362  0.0643  1.7944  1.8236
  943SOL    HW2 2829   2.080   1.560   2.525 -0.5001  1.0207  1.3299
  944SOL     OW 2830   2.154   2.395   1.473  0.0314 -0.9734  0.0338
  944SOL    HW1 2831   2.220   2.464   1.515 -2.4667  0.3397  0.6896
  944SOL    HW2 2832   2.142   2.311   1.535  0.9765  3.4539 -2.1086
  945SOL     OW 2833   0.616   1.446   0.387 -0.0568 -0.1893  0.6581
  945SOL    HW1 2834   0.645   1.501   0.302  1.1039 -0.5592  0.1405
  945SOL    HW2 2835   0.651   1.348   0.387  0.1362  1.0754  0.4321
  946SOL     OW 2836   0.365   1.011   2.573 -0.5313  0.1309  0.6848
  946SOL    HW1 2837   0.295   0.980   2.502 -1.0157 -0.9493 -1.6689
  946SOL    HW2 2838   0.367   1.113   2.580  2.0181 -1.6385  0.5517
  947SOL     OW 2839   1.469   0.448   0.110  0.1221  0.0687  0.3264
  947SOL    HW1 2840   1.405   0.504   0.172  0.8327 -2.5515  0.4060
  947SOL    HW2 2841   1.425   0.362   0.073  0.0637 -0.3276 -1.7982
  948SOL     OW 2842   1.949   0.006   2.185  0.1757  0.0981  0.2451
  948SOL    HW1 2843   1.926  -0.020   2.082  0.7930 -2.4788 -2.8582
  948SOL    HW2 2844   1.931  -0.077   2.244  1.5498  0.2751 -1.7437
  949SOL     OW 2845   0.618   2.508   0.475 -0.6461 -0.0734 -0.1903
  949SOL    HW1 2846   0.622   2.599   0.423  1.6254 -0.5573 -0.3897
  949SOL    HW2 2847   0.636   2.514   0.577 -0.2610 -2.8824 -0.6650
  950SOL     OW 2848   0.310   2.113   3.021  0.0926  0.0964 -0.3312
  950SOL    HW1 2849   0.221   2.167   3.008 -0.7146  0.2594 -2.7335
  950SOL    HW2 2850   0.292   2.016   3.054  1.4531  0.8631  2.1374
  951SOL     OW 2851   1.171   2.766   2.767 -0.4733  0.6662 -0.2768
  951SOL    HW1 2852   1.184   2.813   2.678  1.4577 -2.5382  2.3588
  951SOL    HW2 2853   1.257   2.777   2.825 -0.5016 -1.9317 -0.6707
  952SOL     OW 2854   0.075   1.657   0.484  0.0064  0.0274  0.1724
  952SOL    HW1 2855   0.170   1.687   0.481  0.5233  1.3135 -3.3937
  952SOL    HW2 2856   0.033   1.641   0.578 -0.6680  2.8619  0.4839
  953SOL     OW 2857   2.571   1.733   0.170 -0.0415 -0.2004  0.3044
  953SOL    HW1 2858   2.555   1.637   0.204 -0.0646  2.2986  0.1439
  953SOL    HW2 2859   2.593   1.733   0.067 -0.1308  1.8474 -1.4325
  954SOL     OW 2860   2.180   0.550   1.021  0.0343  0.2882  0.0249
  954SOL    HW1 2861   2.119   0.530   0.942  0.1012  0.5836  4.2569
  954SOL    HW2 2862   2.280   0.521   1.002  2.2408 -1.7421 -0.0708
  955SOL     OW 2863   0.285   2.664   1.303 -0.4235 -0.2774  0.0812
  955SOL    HW1 2864   0.187   2.646   1.323  2.8363 -0.0697  1.5889
  955SOL    HW2 2865   0.309   2.669   1.201  0.0068 -2.5682  0.9591
  956SOL     OW 2866   2.796   2.467   2.518  0.6736  0.3559  0.6029
  956SOL    HW1 2867   2.774   2.362   2.514 -0.8227 -2.4996  1.8612
  956SOL    HW2 2868   2.810   2.509   2.427 -0.9673  0.3869  0.8218
  957SOL     OW 2869   1.547   2.073   2.651  0.5846  0.3923  0.2075
  957SOL    HW1 2870   1.492   2.008   2.596 -1.8258 -0.1680  1.2951
  957SOL    HW2 2871   1.611   2.121   2.588 -1.3311 -0.7383  2.5190
  958SOL     OW 2872   2.670   2.336   3.009 -0.0940 -0.0370  0.2256
  958SOL    HW1 2873   2.589   2.375   2.962 -0.4770 -1.3948  1.4629
  958SOL    HW2 2874   2.648   2.243   3.061 -2.0223 -1.5363 -3.4614
  959SOL     OW 2875   0.247   2.817   0.000  0.5733  0.1616  0.0653
  959SOL    HW1 2876   0.149   2.822   0.031  0.9270  0.6921 -0.5065
  959SOL    HW2 2877   0.292   2.729   0.031 -0.9178  0.3522  1.5254
  960SOL     OW 2878   2.021   0.514   1.936 -0.1908 -0.0084 -0.0505
  960SOL    HW1 2879   1.966   0.602   1.912  3.0615  1.2192  0.1964
  960SOL    HW2 2880   2.034   0.500   2.040  0.2915  1.3444  2.7234
  961SOL     OW 2881   2.602   1.856   1.046  0.4500 -0.0503 -0.3222
  961SOL    HW1 2882   2.562   1.903   0.961  0.4060  5.3385  0.9007
  961SOL    HW2 2883   2.627   1.931   1.112  0.0017  0.1637  3.1713
  962SOL     OW 2884   1.247   0.955   0.031  0.0123 -0.1361  0.2374
  962SOL    HW1 2885   1.253   1.012  -0.053 -1.7332 -2.8100  0.1443
  962SOL    HW2 2886   1.264   1.009   0.122 -2.8722 -1.8639  2.0401
  963SOL     OW 2887   2.302   2.642   1.883  0.5243  0.0467  0.2014
  963SOL    HW1 2888   2.308   2.557   1.941 -0.9806 -0.9606 -0.1591
  963SOL    HW2 2889   2.280   2.731   1.932  1.2046  3.0371 -0.2832
  964SOL     OW 2890   2.433   0.382   1.681  0.3649  0.3840  0.1639
  964SOL    HW1 2891   2.527   0.394   1.725  0.9526 -3.0464 -0.7308
  964SOL    HW2 2892   2.427   0.398   1.576  1.6681  0.0485 -0.8903
  965SOL     OW 2893   2.640   3.008   0.118  0.0859  0.3498 -0.4589
  965SOL    HW1 2894   2.702   2.935   0.060 -0.4172 -3.7526 -0.4169
  965SOL    HW2 2895   2.566   3.041   0.053  1.0739  2.2292  2.0965
  966SOL     OW 2896   2.559   2.588   2.164 -0.1488  0.2538 -0.5195
  966SOL    HW1 2897   2.479   2.560   2.104 -2.0244 -1.6580  1.7586
  966SOL    HW2 2898   2.531   2.651   2.240  0.8312 -1.2839  0.2608
  967SOL     OW 2899   2.756   2.836   2.444  0.7391  0.5977  0.3990
  967SOL    HW1 2900   2.781   2.774   2.360 -0.5607 -0.9632  0.5813
  967SOL    HW2 2901   2.837   2.890   2.474  0.0199 -1.6234 -0.7418
  968SOL     OW 2902   2.040   1.026   2.688 -0.2604 -0.1394  0.6713
  968SOL    HW1 2903   1.994   1.106   2.633  0.8064 -1.9680 -0.9923
  968SOL    HW2 2904   2.009   0.929   2.659  1.3708  1.4049  0.0974
  969SOL     OW 2905   2.741   2.338   1.144  0.0715  0.0451  0.2939
  969SOL    HW1 2906   2.705   2.324   1.048 -0.2902  0.7548  1.8143
  969SOL    HW2 2907   2.813   2.268   1.175  0.6862 -0.3899 -0.2421
  970SOL     OW 2908   1.121   2.226   1.746  0.1980  0.2292  0.2784
  970SOL    HW1 2909   1.017   2.207   1.744  0.6668 -0.2698  2.2987
  970SOL    HW2 2910   1.155   2.251   1.842 -1.6878  1.8074 -0.7743
  971SOL     OW 2911   2.833   2.073   1.944  0.4032 -0.6280 -0.2259
  971SOL    HW1 2912   2.808   2.177   1.960  0.1260 -0.0937 -0.2319
  971SOL    HW2 2913   2.914   2.065   1.875  1.2909  1.0851 -0.0151
  972SOL     OW 2914   2.034   2.399   0.249  0.7245  0.3281 -0.0312
  972SOL    HW1 2915   2.010   2.322   0.186  1.4401 -1.0685 -1.9641
  972SOL    HW2 2916   2.010   2.381   0.351 -0.4660 -0.2911  1.3749
  973SOL     OW 2917   1.254   1.075   1.965  0.4350 -0.1486 -0.5022
  973SOL    HW1 2918   1.185   1.055   1.892 -1.3778  2.4457  2.9046
  973SOL    HW2 2919   1.275   1.176   1.988  1.5756 -4.3304 -0.8593
  974SOL     OW 2920   1.667   0.540   1.893 -0.2524  0.1159  0.1055
  974SOL    HW1 2921   1.748   0.598   1.861  2.1744 -0.5613 -2.6318
  974SOL    HW2 2922   1.596   0.607   1.940 -0.2072  1.8448 -0.0434
  975SOL     OW 2923   2.355   3.049   3.072  0.8283  0.0422 -0.5342
  975SOL    HW1 2924   2.304   2.969   3.109 -1.4975  0.5159  1.6524
  975SOL    HW2 2925   2.394   3.034   2.982 -1.6242 -0.5230  0.4026
  976SOL     OW 2926   1.912   2.875   2.333 -0.3198  0.2821 -0.6942
  976SOL    HW1 2927   1.834   2.823   2.302  4.0776 -0.7974  0.2013
  976SOL    HW2 2928   1.928   2.861   2.438 -0.3214 -0.0991  0.0508
  977SOL     OW 2929   0.498   0.688   1.024 -0.3113 -0.2994 -0.3058
  977SOL    HW1 2930   0.396   0.667   1.002 -1.1964  0.0593  0.4015
  977SOL    HW2 2931   0.565   0.627   0.974  2.3167 -0.6065 -2.6131
   3.10000   3.10000   3.10000
