1000 SPC/Fw water molecules t=   0.88000 step= 880
 2931
    1SOL     OW    1   2.501   0.356   2.663  0.0326 -0.0855  0.0759
    1SOL    HW1    2   2.533   0.261   2.635 -3.2951 -2.1002 -1.6688
    1SOL    HW2    3   2.570   0.407   2.722 -1.3783 -0.6811  1.9906
    2SOL     OW    4   2.728   3.052   1.437 -0.3901 -0.1487  0.4482
    2SOL    HW1    5   2.811   3.072   1.377 -0.4583 -2.1756 -0.5180
    2SOL    HW2    6   2.710   3.123   1.514 -0.4441  0.8009  0.2518
    3SOL     OW    7   2.689   2.608   0.381 -0.3169 -0.1262  0.5648
    3SOL    HW1    8   2.694   2.505   0.369 -0.2594  2.1495 -0.0586
    3SOL    HW2    9   2.746   2.644   0.463 -0.4402  0.8194 -0.3671
    4SOL     OW   10   1.252   1.522   2.315 -0.4795  0.7329 -0.5630
    4SOL    HW1   11   1.163   1.578   2.284 -2.6413  0.3157  0.7465
    4SOL    HW2   12   1.227   1.425   2.345 -3.2066  2.7746 -0.9239
    5SOL     OW   13   1.152   1.488  -0.001  0.1471  0.0149  0.3743
    5SOL    HW1   14   1.224   1.566  -0.006 -0.9545 -0.3739 -0.3884
    5SOL    HW2   15   1.063   1.520   0.040 -1.4151  0.4462  0.8044
    6SOL     OW   16   0.132   1.822   2.944  0.2381 -0.3997 -0.3879
    6SOL    HW1   17   0.044   1.835   2.998  0.2031 -0.8735  2.0881
    6SOL    HW2   18   0.197   1.776   3.015 -0.9532 -0.5036  0.9260
    7SOL     OW   19   2.613   0.922   1.104  0.1714 -0.0067 -0.0322
    7SOL    HW1   20   2.534   0.860   1.133  1.2315  2.5740  0.2990
    7SOL    HW2   21   2.617   0.945   0.999 -1.4108  1.7967  0.4878
    8SOL     OW   22   0.376   0.617   1.559 -0.3840  0.0406  0.4325
    8SOL    HW1   23   0.462   0.562   1.589 -2.4612 -2.6105 -1.9901
    8SOL    HW2   24   0.384   0.659   1.465 -0.5085  1.2176 -0.2263
    9SOL     OW   25   1.181   0.868   2.406 -0.0784  0.4112  0.1856
    9SOL    HW1   26   1.258   0.892   2.334  1.3992  1.2800  0.6492
    9SOL    HW2   27   1.110   0.793   2.381  0.3446 -1.0342  2.5433
   10SOL     OW   28   0.653   1.344   1.307  0.1448  0.1049 -0.2875
   10SOL    HW1   29   0.570   1.354   1.250  2.1907 -0.3697  0.5652
   10SOL    HW2   30   0.693   1.440   1.314  1.2052  1.8976 -1.5350
   11SOL     OW   31   2.343   2.727   0.849 -0.0845  0.4090  0.2945
   11SOL    HW1   32   2.293   2.785   0.921 -2.9850 -1.7115  2.5391
   11SOL    HW2   33   2.442   2.758   0.839  0.4338  0.9021  0.0411
   12SOL     OW   34   1.490   0.897   0.346 -0.0216  0.1913  0.2509
   12SOL    HW1   35   1.410   0.958   0.317  0.3946  3.4641  0.0845
   12SOL    HW2   36   1.517   0.818   0.282  1.5934 -0.7571  1.2401
   13SOL     OW   37   2.491   0.672   1.782  0.1853  0.5788  0.4620
   13SOL    HW1   38   2.401   0.649   1.825  1.9191 -0.1708 -2.3183
   13SOL    HW2   39   2.501   0.649   1.681  2.5886 -0.5198  0.7212
   14SOL     OW   40   1.869   0.047   0.731  0.3185  0.5299 -0.3151
   14SOL    HW1   41   1.811   0.074   0.648 -1.4575  1.9953 -1.7187
   14SOL    HW2   42   1.808   0.037   0.812 -0.4273 -0.1821 -1.3390
   15SOL     OW   43   1.983   2.082   2.738 -0.2345 -0.4629 -0.0690
   15SOL    HW1   44   1.905   2.146   2.754  0.3414  0.2342 -2.1382
   15SOL    HW2   45   1.961   2.008   2.665 -2.2322 -2.6645  0.1579
   16SOL     OW   46   1.594   1.735   2.964 -0.4833  0.3612  0.4157
   16SOL    HW1   47   1.620   1.638   2.996  1.7511 -0.7571 -1.8226
   16SOL    HW2   48   1.672   1.805   2.977 -0.2217  1.1875 -1.4910
   17SOL     OW   49   0.126   0.512   0.209 -0.3988 -0.1479 -0.3268
   17SOL    HW1   50   0.225   0.526   0.176  1.5787  0.5756  0.2014
   17SOL    HW2   51   0.054   0.522   0.139  1.0011 -0.5391  0.4587
   18SOL     OW   52   0.954   2.908   2.128 -0.7554 -0.5320  0.6152
   18SOL    HW1   53   0.882   2.827   2.136 -0.8254 -1.1375 -1.5596
   18SOL    HW2   54   1.025   2.886   2.059 -0.1417 -1.9033  0.0964
   19SOL     OW   55   0.530   0.824   1.899 -0.2494  0.2578 -0.4290
   19SOL    HW1   56   0.557   0.750   1.967 -0.0722 -3.7557 -0.0125
   19SOL    HW2   57   0.610   0.889   1.863  1.4252  4.0509  1.2661
   20SOL     OW   58   0.187   2.711   0.830 -0.5552  0.7184  0.1804
   20SOL    HW1   59   0.103   2.770   0.811  0.7832  1.6852 -1.6028
   20SOL    HW2   60   0.221   2.671   0.740 -1.8323 -2.7714  2.1822
   21SOL     OW   61   2.727   0.219   2.098 -0.8225  0.5888 -0.0337
   21SOL    HW1   62   2.669   0.161   2.032 -1.3287  0.8628 -1.8032
   21SOL    HW2   63   2.827   0.189   2.102  0.5240 -0.4231 -0.7875
   22SOL     OW   64   2.383   0.227   0.148 -0.0882  0.0021  0.3623
   22SOL    HW1   65   2.393   0.121   0.147 -0.9191  0.4810  0.5821
   22SOL    HW2   66   2.292   0.259   0.116  1.4613 -1.1597  0.1910
   23SOL     OW   67   2.783   0.659   0.654 -0.0445 -0.1116  0.0552
   23SOL    HW1   68   2.779   0.561   0.639  0.9032  0.7329  2.7304
   23SOL    HW2   69   2.796   0.711   0.568 -0.2479 -0.5296 -2.1125
   24SOL     OW   70   0.199   1.892   0.363 -0.1400  0.2496 -0.0540
   24SOL    HW1   71   0.167   1.964   0.296 -1.3994  0.0259  1.7030
   24SOL    HW2   72   0.295   1.866   0.355 -0.8715  2.6370 -0.6364
   25SOL     OW   73   2.203   0.569   0.271  0.1546  0.5729 -0.8429
   25SOL    HW1   74   2.174   0.558   0.174 -1.4332 -3.1116  0.5496
   25SOL    HW2   75   2.268   0.500   0.308 -3.2333  1.8684 -2.2437
   26SOL     OW   76   2.512   2.090   2.081 -0.2695 -0.1301 -0.3881
   26SOL    HW1   77   2.572   2.168   2.123  2.6460  0.6188  1.5185
   26SOL    HW2   78   2.558   2.024   2.018  0.5419  1.1045  0.7335
   27SOL     OW   79   0.593   2.962   0.206 -0.0276 -0.0828 -0.3770
   27SOL    HW1   80   0.697   2.973   0.214  0.4895  1.2690  1.1005
   27SOL    HW2   81   0.549   2.976   0.114 -0.2794  0.2976  0.7742
   28SOL     OW   82   1.565   0.163   0.272  0.3844  0.4161  0.1198
   28SOL    HW1   83   1.602   0.135   0.179  1.1590 -1.0403 -0.6980
   28SOL    HW2   84   1.600   0.256   0.299  0.0217 -0.4639 -2.1370
   29SOL     OW   85   1.955   0.621   0.422 -0.0907  0.5622 -0.4668
   29SOL    HW1   86   1.897   0.709   0.433  2.5228  1.1731  1.1890
   29SOL    HW2   87   2.052   0.632   0.388  1.8518 -0.8816  1.5326
   30SOL     OW   88   0.179   1.971   0.887 -0.2476 -0.0880 -0.1074
   30SOL    HW1   89   0.136   1.974   0.790 -2.8156 -0.9599 -2.8130
   30SOL    HW2   90   0.123   2.030   0.953 -0.0758  1.5264  0.0105
   31SOL     OW   91   2.095   3.066   2.345  0.0234  0.2511  0.1532
   31SOL    HW1   92   2.074   3.070   2.447 -3.3781  0.2115 -0.8181
   31SOL    HW2   93   2.019   3.012   2.297 -2.1251 -0.9602 -0.1222
   32SOL     OW   94   2.948   0.078   0.188  0.6806 -0.6348 -0.7595
   32SOL    HW1   95   2.954  -0.026   0.197 -0.4727 -4.7888 -4.1754
   32SOL    HW2   96   3.034   0.132   0.211  0.0805  0.9271 -1.5843
   33SOL     OW   97   0.942   0.300   0.608 -0.0537  0.2546 -0.2069
   33SOL    HW1   98   0.903   0.211   0.567 -2.0086  0.0470  0.3404
   33SOL    HW2   99   1.048   0.308   0.595  0.9676  0.0078 -0.5692
   34SOL     OW  100   0.263   2.765   1.096 -0.3947 -0.4154 -0.5888
   34SOL    HW1  101   0.238   2.729   0.997  0.3907 -6.9821 -2.6179
   34SOL    HW2  102   0.365   2.779   1.110 -0.1659  1.5813  3.7718
   35SOL     OW  103   0.028   0.088   1.884 -0.2233 -0.4723  0.1670
   35SOL    HW1  104   0.077  -0.001   1.913 -0.6743 -0.6773  1.2383
   35SOL    HW2  105  -0.003   0.082   1.782  2.2860 -3.1403 -0.7895
   36SOL     OW  106   1.909   1.178   1.736  0.0968  0.2844 -0.2849
   36SOL    HW1  107   1.960   1.100   1.682  0.4185 -0.7100  0.1489
   36SOL    HW2  108   1.978   1.248   1.763 -3.6541  1.0117  0.0838
   37SOL     OW  109   1.183   0.170   0.933  0.1815  0.3293 -0.3390
   37SOL    HW1  110   1.242   0.239   0.982  0.3783 -0.2085  1.6831
   37SOL    HW2  111   1.240   0.092   0.896 -1.6093  0.2476  2.3331
   38SOL     OW  112   1.054   2.796   2.484  0.0355  0.7426  0.1010
   38SOL    HW1  113   0.970   2.738   2.490 -2.1981  0.9133 -0.6732
   38SOL    HW2  114   1.035   2.892   2.449  0.8806 -0.0732  2.9817
   39SOL     OW  115   2.308   1.407   3.030  0.6295  0.0940 -0.1255
   39SOL    HW1  116   2.367   1.321   3.028 -0.4703 -0.9903 -1.1953
   39SOL    HW2  117   2.251   1.412   3.114 -1.4738 -1.0086 -0.3914
   40SOL     OW  118   2.034   2.446   2.527 -0.0035 -0.6006 -0.2246
   40SOL    HW1  119   1.991   2.540   2.528 -0.5135 -0.8278 -1.1142
   40SOL    HW2  120   1.978   2.384   2.467  1.8952 -0.2138  0.4472
   41SOL     OW  121   3.040   0.697   2.843  0.0473  0.3449  0.0619
   41SOL    HW1  122   3.003   0.788   2.814 -3.9223 -0.9872 -0.6236
   41SOL    HW2  123   2.962   0.633   2.825  2.0776 -0.4081 -1.1662
   42SOL     OW  124   1.788   1.726   0.490  0.0918  0.5999 -0.0351
   42SOL    HW1  125   1.736   1.634   0.472  2.2893 -0.5067  0.5398
   42SOL    HW2  126   1.795   1.792   0.408 -0.1973  0.8845  2.6020
   43SOL     OW  127   0.464   1.647   1.140 -0.6607 -0.4090 -0.0528
   43SOL    HW1  128   0.463   1.549   1.175  0.4416 -2.2571  0.3847
   43SOL    HW2  129   0.372   1.671   1.094  0.1265  0.5073  4.5233
   44SOL     OW  130   1.782   2.512   3.025 -0.5300  0.1159 -0.4205
   44SOL    HW1  131   1.799   2.596   2.966  2.2983 -3.0220 -3.1645
   44SOL    HW2  132   1.780   2.423   2.971  0.7711  0.0592 -1.7042
   45SOL     OW  133   0.422   1.940   2.595 -0.2792  0.0622 -0.0183
   45SOL    HW1  134   0.379   1.920   2.505 -0.8390 -0.9379  2.2681
   45SOL    HW2  135   0.460   1.856   2.643 -2.3243  1.1189 -1.4109
   46SOL     OW  136   1.252   0.686   0.193  0.0822 -0.3651 -0.1354
   46SOL    HW1  137   1.274   0.749   0.116 -0.3023  1.0697 -0.9436
   46SOL    HW2  138   1.192   0.734   0.266 -2.9698 -0.7106  1.5326
   47SOL     OW  139   0.220   2.508   1.562  0.1116  0.3476 -0.4815
   47SOL    HW1  140   0.283   2.436   1.521 -1.6459 -0.8078  3.1696
   47SOL    HW2  141   0.171   2.554   1.489 -0.5144 -1.5160 -1.9360
   48SOL     OW  142   2.631   0.636   0.135  0.1940  0.0763  0.1359
   48SOL    HW1  143   2.612   0.615   0.233  1.6667  1.8703  0.6246
   48SOL    HW2  144   2.711   0.708   0.124  2.3479 -0.5806 -1.7404
   49SOL     OW  145   0.295   0.817   1.751 -0.4343 -0.1712  0.3105
   49SOL    HW1  146   0.383   0.827   1.809  1.5948  0.2645  0.4773
   49SOL    HW2  147   0.309   0.741   1.682  0.1394  0.2134  1.4648
   50SOL     OW  148   1.675   1.142   0.325  0.0313  0.1632  0.5752
   50SOL    HW1  149   1.644   1.056   0.273  0.6120  0.2607 -0.6548
   50SOL    HW2  150   1.612   1.149   0.410  1.0667  0.4126  2.0539
   51SOL     OW  151   2.878   1.819   0.290 -0.6120 -0.4241 -0.8693
   51SOL    HW1  152   2.797   1.770   0.255  1.0163 -1.3517  0.5577
   51SOL    HW2  153   2.951   1.750   0.322  1.1112 -3.2638  3.2987
   52SOL     OW  154   0.763   2.007   0.505 -0.1220  0.4896  0.1845
   52SOL    HW1  155   0.670   2.042   0.542 -1.1424 -0.5934 -0.8556
   52SOL    HW2  156   0.801   1.939   0.578  0.1383 -3.7364  2.5935
   53SOL     OW  157   0.191   0.409   1.586  0.4721  0.0184 -0.2222
   53SOL    HW1  158   0.263   0.484   1.579  0.5194 -1.1677 -0.5142
   53SOL    HW2  159   0.094   0.442   1.559  1.7986  3.3920 -2.5005
   54SOL     OW  160   1.810   0.483   3.063 -0.4529  0.4366  0.5946
   54SOL    HW1  161   1.862   0.431   3.137  1.4774 -1.0164 -1.0112
   54SOL    HW2  162   1.710   0.491   3.081 -2.2715  0.3481 -1.6238
   55SOL     OW  163   0.763   2.903   0.683 -0.2514 -0.2600 -0.2852
   55SOL    HW1  164   0.713   2.990   0.701 -1.0685 -2.9459  0.5112
   55SOL    HW2  165   0.858   2.905   0.642 -0.2064  2.9383  2.1368
   56SOL     OW  166   0.535   1.591   0.017  1.1054 -0.1027  0.1682
   56SOL    HW1  167   0.445   1.644   0.022 -1.3571  0.5508  0.8051
   56SOL    HW2  168   0.532   1.506  -0.040  0.4748  0.3125  2.8338
   57SOL     OW  169   1.721   2.516   2.473 -0.5009  0.6113 -0.3715
   57SOL    HW1  170   1.740   2.413   2.458 -0.1233 -3.7574 -2.8927
   57SOL    HW2  171   1.635   2.522   2.532  0.9204  0.0513 -3.3814
   58SOL     OW  172   0.661   0.244   1.042  0.4126 -0.1133  0.7509
   58SOL    HW1  173   0.557   0.236   1.038 -0.4229 -0.5953 -1.4577
   58SOL    HW2  174   0.709   0.146   1.047 -0.8820 -4.5834 -2.5137
   59SOL     OW  175   0.460   2.444   2.730  0.5922 -0.3402 -0.4428
   59SOL    HW1  176   0.493   2.355   2.683  0.1710 -2.0078 -1.7098
   59SOL    HW2  177   0.522   2.486   2.799 -4.7964  0.8055  0.4891
   60SOL     OW  178   2.289   2.044   2.213 -0.3479  0.2136  0.4054
   60SOL    HW1  179   2.376   2.076   2.152  3.7219  2.8906  0.5392
   60SOL    HW2  180   2.301   2.079   2.313  2.1244  2.6938  0.5996
   61SOL     OW  181   1.325   0.635   0.498 -0.5437  0.4273 -0.0072
   61SOL    HW1  182   1.230   0.665   0.524  2.8727  0.4559  2.3823
   61SOL    HW2  183   1.368   0.688   0.423 -0.9234 -0.3563  0.1675
   62SOL     OW  184   2.740   1.817   2.934 -0.7472  0.4312  0.6306
   62SOL    HW1  185   2.674   1.742   2.914 -0.1167  2.0424 -0.4493
   62SOL    HW2  186   2.826   1.824   2.871  0.8751  0.8718 -2.1848
   63SOL     OW  187   0.576   0.887   0.198 -0.4687 -0.6210  0.0802
   63SOL    HW1  188   0.646   0.941   0.146 -2.1749 -1.2404  3.3341
   63SOL    HW2  189   0.608   0.860   0.293 -0.3311  0.2674 -1.1730
   64SOL     OW  190   0.103   0.475   2.471 -0.2151 -0.2442  0.0496
   64SOL    HW1  191   0.120   0.541   2.548 -0.4024  0.3022 -0.7253
   64SOL    HW2  192   0.083   0.526   2.382 -0.9372  0.1905 -4.8378
   65SOL     OW  193   0.151   1.504   0.533 -0.5023  0.3111 -0.2858
   65SOL    HW1  194   0.168   1.564   0.621  0.3099  0.1816  0.9822
   65SOL    HW2  195   0.243   1.479   0.490  1.8433  1.7057  1.0320
   66SOL     OW  196   2.570   0.380   0.618  0.2576 -0.7481  0.3213
   66SOL    HW1  197   2.671   0.354   0.617 -2.8092  0.0126  0.1866
   66SOL    HW2  198   2.514   0.314   0.677 -1.3753  0.6096 -1.7546
   67SOL     OW  199   0.531   2.548   1.380 -0.3872  0.3317  0.4449
   67SOL    HW1  200   0.610   2.519   1.446  4.4792 -1.0206 -1.8559
   67SOL    HW2  201   0.452   2.479   1.368 -1.5670 -1.4446 -1.0618
   68SOL     OW  202   1.014   1.083   2.472  0.0702 -0.4304  0.1610
   68SOL    HW1  203   1.075   1.000   2.462 -0.0565 -0.4891 -0.0370
   68SOL    HW2  204   0.933   1.078   2.409 -0.3408  1.0853 -0.3627
   69SOL     OW  205   0.736   2.735   2.172  0.3350  0.4376 -0.0867
   69SOL    HW1  206   0.748   2.632   2.184  1.0578  0.5709 -3.6070
   69SOL    HW2  207   0.635   2.756   2.140 -2.6946 -0.5815 -1.1543
   70SOL     OW  208   0.524   0.300   2.693  0.6965 -0.8116  0.0613
   70SOL    HW1  209   0.487   0.305   2.791 -2.4598  0.2527 -0.5629
   70SOL    HW2  210   0.547   0.201   2.662  0.9878  0.8116 -1.6582
   71SOL     OW  211   1.121   1.747   0.465  0.1148  0.3175  0.1369
   71SOL    HW1  212   1.073   1.676   0.520 -1.6611 -1.9654  1.7750
   71SOL    HW2  213   1.087   1.753   0.367  2.9439  2.1942  0.8978
   72SOL     OW  214   1.809   0.210   2.173  0.0283  0.1084  0.3349
   72SOL    HW1  215   1.883   0.273   2.198 -2.6864 -1.2644 -0.7328
   72SOL    HW2  216   1.838   0.116   2.134  2.1213 -0.8831 -0.5556
   73SOL     OW  217   2.810   2.187   2.415 -0.1103 -0.2915 -0.4520
   73SOL    HW1  218   2.805   2.092   2.363 -0.5674  0.6122  1.4546
   73SOL    HW2  219   2.850   2.180   2.510 -2.2169 -0.3205 -1.2964
   74SOL     OW  220   2.657   2.914   2.139  0.0189 -0.1320  0.1625
   74SOL    HW1  221   2.596   2.910   2.219  0.6939 -1.2189 -0.2783
   74SOL    HW2  222   2.757   2.898   2.167  2.9691  1.5360  0.1528
   75SOL     OW  223   0.907   0.792   1.113 -0.4675  0.2350 -0.1940
   75SOL    HW1  224   0.835   0.833   1.054  2.3482  2.5198 -0.0129
   75SOL    HW2  225   0.931   0.850   1.192 -0.2588  1.3860 -3.1212
   76SOL     OW  226   1.682   1.164   2.504 -0.1440 -0.3063  0.0498
   76SOL    HW1  227   1.584   1.152   2.489  2.2367  1.3536  1.2927
   76SOL    HW2  228   1.696   1.268   2.518 -1.6783 -0.5969  0.0322
   77SOL     OW  229   2.968   0.916   0.947 -0.2222 -0.5079 -0.0972
   77SOL    HW1  230   2.947   0.811   0.959  1.2977 -1.1675  0.1110
   77SOL    HW2  231   3.034   0.956   1.017 -3.6072 -0.2806  3.3685
   78SOL     OW  232   2.059   1.487   1.513 -0.3757  0.1088 -1.0318
   78SOL    HW1  233   2.132   1.518   1.447 -0.2381  1.5870 -0.4201
   78SOL    HW2  234   1.968   1.463   1.466 -0.5105 -0.0280 -0.4365
   79SOL     OW  235   0.586   1.374   0.854 -0.2711  0.3785 -1.1031
   79SOL    HW1  236   0.482   1.391   0.855 -0.8352  1.8537 -2.2650
   79SOL    HW2  237   0.613   1.304   0.788 -0.8815  0.2042  3.3679
   80SOL     OW  238   0.635   0.509   1.593 -0.5215  0.1282  0.2991
   80SOL    HW1  239   0.717   0.554   1.545 -1.6392  0.7299  0.6083
   80SOL    HW2  240   0.634   0.407   1.577  2.8809 -0.7714  2.3051
   81SOL     OW  241   1.026   1.398   2.633  0.4457 -0.1657  0.0873
   81SOL    HW1  242   1.099   1.333   2.604  0.4016  2.0316  3.9651
   81SOL    HW2  243   0.939   1.388   2.576 -0.4241 -0.6396  2.1887
   82SOL     OW  244   1.008   2.957   1.521  0.3564  0.5123  0.3562
   82SOL    HW1  245   1.025   2.989   1.425 -2.0310  0.9316  0.5499
   82SOL    HW2  246   0.911   2.918   1.530 -0.7051 -0.5766  1.7398
   83SOL     OW  247   2.738   2.456   0.860 -0.1451 -0.3351  0.1574
   83SOL    HW1  248   2.656   2.407   0.826  2.7704  2.1102  0.9138
   83SOL    HW2  249   2.732   2.562   0.847 -0.7360  0.9992  0.7090
   84SOL     OW  250   0.648   3.025   2.353 -0.0257 -0.3632 -0.4124
   84SOL    HW1  251   0.578   3.039   2.425  5.3852  0.9232 -0.5142
   84SOL    HW2  252   0.704   2.939   2.370 -0.7531 -1.8040  1.5878
   85SOL     OW  253   0.258   1.574   1.489  0.1259 -0.8668 -0.3556
   85SOL    HW1  254   0.239   1.677   1.498  0.3142  1.6654  1.6372
   85SOL    HW2  255   0.320   1.545   1.570 -0.2626 -2.7353  2.7243
   86SOL     OW  256   0.391   0.996   1.533  0.0578 -0.0373 -0.0356
   86SOL    HW1  257   0.380   0.942   1.443 -1.3019  0.4597  0.3513
   86SOL    HW2  258   0.394   0.933   1.613 -2.4380 -1.2174 -2.2224
   87SOL     OW  259   1.576   0.677   0.210 -0.1358 -0.2262 -0.1586
   87SOL    HW1  260   1.646   0.748   0.191  0.2083 -2.9001  1.1077
   87SOL    HW2  261   1.553   0.620   0.123  0.4233  0.8532  1.1928
   88SOL     OW  262   1.598   1.376   0.227 -0.6539  0.2380  0.4324
   88SOL    HW1  263   1.633   1.283   0.262 -2.5332 -0.0797  0.6499
   88SOL    HW2  264   1.498   1.375   0.208  0.2055 -1.1149  2.2555
   89SOL     OW  265   0.003   0.459   0.585 -0.0435  0.2830  0.0321
   89SOL    HW1  266   0.073   0.398   0.534  0.2016  1.1820 -3.3891
   89SOL    HW2  267  -0.096   0.420   0.595  0.2928 -1.6148  2.6709
   90SOL     OW  268   0.893   1.587   0.058  0.6351 -0.3446  0.0704
   90SOL    HW1  269   0.794   1.583   0.095  0.4544 -1.6740  1.6279
   90SOL    HW2  270   0.900   1.600  -0.044  0.5559 -0.2462  0.1680
   91SOL     OW  271   1.212   1.452   1.818 -0.1887 -0.6945  0.3387
   91SOL    HW1  272   1.189   1.548   1.849 -1.2328 -0.1069  1.8724
   91SOL    HW2  273   1.308   1.442   1.776  3.5633  0.4249  0.1193
   92SOL     OW  274   3.090   0.981   1.207 -0.0243 -0.0638  0.7726
   92SOL    HW1  275   3.126   1.071   1.167  1.2115 -1.3361 -1.6957
   92SOL    HW2  276   3.114   0.974   1.309 -0.5330  1.9671  0.4680
   93SOL     OW  277   0.019   2.708   3.050  0.2683  0.0127 -0.5813
   93SOL    HW1  278  -0.060   2.720   2.982  0.1375  0.8143 -0.4520
   93SOL    HW2  279   0.014   2.618   3.104 -0.1514  1.8633  2.8533
   94SOL     OW  280   1.508   1.494   1.743  0.8261 -0.2058  0.3022
   94SOL    HW1  281   1.569   1.410   1.750  1.2861 -0.7296  2.2611
   94SOL    HW2  282   1.545   1.564   1.809 -3.6375  1.5005 -1.9495
   95SOL     OW  283   1.354   2.542   2.980  0.4103 -0.4479 -0.1942
   95SOL    HW1  284   1.292   2.534   3.064 -1.0561  1.6223 -0.4972
   95SOL    HW2  285   1.384   2.454   2.941  0.8864  0.3504  3.4943
   96SOL     OW  286   0.551   2.113   1.246  0.1081 -0.3441 -0.1074
   96SOL    HW1  287   0.498   2.069   1.170 -0.7600 -0.5787 -2.4194
   96SOL    HW2  288   0.599   2.044   1.311  0.3578 -0.7105  1.9935
   97SOL     OW  289   0.422   1.605   2.470  0.2417 -0.0811  0.0524
   97SOL    HW1  290   0.330   1.612   2.519  2.8051 -3.3234  0.8380
   97SOL    HW2  291   0.500   1.616   2.538  0.9159  1.0734  0.1606
   98SOL     OW  292   2.022   1.605   1.212  0.3297 -0.1040 -0.3814
   98SOL    HW1  293   1.932   1.582   1.257  2.0276 -0.7523  0.7594
   98SOL    HW2  294   2.044   1.549   1.126  0.6440 -0.5770  0.3330
   99SOL     OW  295   2.463   2.047   1.381  0.7622 -0.0100 -0.8144
   99SOL    HW1  296   2.497   2.014   1.474 -0.4047 -0.8894 -0.8658
   99SOL    HW2  297   2.414   1.973   1.327 -1.7450  1.0656 -0.1373
  100SOL     OW  298   2.377   0.309   2.114  0.4803  0.1268 -0.1718
  100SOL    HW1  299   2.311   0.287   2.186  1.5957  1.0782 -1.5554
  100SOL    HW2  300   2.435   0.387   2.139 -1.3272 -2.2073  1.3904
  101SOL     OW  301   0.402   1.499   0.403  0.2937 -0.5769  1.0048
  101SOL    HW1  302   0.479   1.497   0.473 -0.9516 -0.0382 -0.4281
  101SOL    HW2  303   0.369   1.597   0.387  0.4542 -0.5240 -0.0591
  102SOL     OW  304   2.255   1.029   0.853 -0.6554  0.2567  0.3590
  102SOL    HW1  305   2.206   0.939   0.841  2.9327 -2.7703 -0.0600
  102SOL    HW2  306   2.304   1.063   0.761  3.1346 -0.9046  0.5793
  103SOL     OW  307   2.272   0.069   0.403 -0.3839  0.0701  0.1300
  103SOL    HW1  308   2.275   0.176   0.395 -0.9721  0.6424  1.2596
  103SOL    HW2  309   2.360   0.021   0.431  0.7575 -0.6810  0.1418
  104SOL     OW  310   0.079   1.751   2.209 -0.2608  0.0484  0.0892
  104SOL    HW1  311   0.144   1.706   2.147  0.3537  3.2643  3.0619
  104SOL    HW2  312  -0.002   1.789   2.150 -0.3984  0.1933 -0.2508
  105SOL     OW  313   1.220   2.097   0.793  0.2042 -0.2202 -0.1803
  105SOL    HW1  314   1.164   2.104   0.705  1.0137  0.6418 -0.5785
  105SOL    HW2  315   1.256   2.000   0.812 -0.2199 -0.6733  2.0178
  106SOL     OW  316   2.101   0.428   1.400 -0.3044 -0.0378 -0.2382
  106SOL    HW1  317   2.058   0.335   1.414  0.9891  1.4131  0.8635
  106SOL    HW2  318   2.107   0.483   1.488  0.3340 -1.8944 -0.2779
  107SOL     OW  319   1.826   3.018   1.175 -0.5719  0.2736 -0.6702
  107SOL    HW1  320   1.846   3.104   1.229 -0.8606  0.9346  0.0408
  107SOL    HW2  321   1.756   2.963   1.222  1.5057  1.4103 -2.5868
  108SOL     OW  322   0.762   2.801   1.242 -0.2816 -0.4755  1.0100
  108SOL    HW1  323   0.759   2.785   1.345 -0.3782 -1.9732  1.1210
  108SOL    HW2  324   0.861   2.813   1.203  1.0118 -1.2272 -1.8275
  109SOL     OW  325   2.139   0.106   0.773 -0.2800 -0.3556  0.8471
  109SOL    HW1  326   2.041   0.070   0.757 -0.9498 -0.3440  2.6103
  109SOL    HW2  327   2.167   0.086   0.873  0.8350  0.2797  0.3249
  110SOL     OW  328   0.466   2.826   2.799  0.1150 -0.4978  0.3694
  110SOL    HW1  329   0.453   2.856   2.699 -0.6564  1.3340 -0.9780
  110SOL    HW2  330   0.552   2.770   2.811  2.6964 -1.2093  0.1552
  111SOL     OW  331   1.312   0.562   2.328 -0.0969 -0.4079 -0.4984
  111SOL    HW1  332   1.238   0.587   2.394  2.6285 -1.5991  2.2539
  111SOL    HW2  333   1.340   0.461   2.339  2.1065  0.9472 -0.4940
  112SOL     OW  334   1.712   0.545   1.440 -1.2588 -0.3326 -0.1195
  112SOL    HW1  335   1.746   0.527   1.343  0.6267 -3.0959  0.2552
  112SOL    HW2  336   1.710   0.455   1.493  1.7860 -2.8039  2.2554
  113SOL     OW  337   2.288   1.675   1.765  0.5531 -0.6343 -0.2577
  113SOL    HW1  338   2.343   1.599   1.716  3.1003  0.9920 -0.3085
  113SOL    HW2  339   2.324   1.701   1.860  0.6993  0.9763 -0.6725
  114SOL     OW  340   0.391   0.528   1.257  0.5883  0.4517  0.0440
  114SOL    HW1  341   0.416   0.567   1.159  1.6728  0.0224 -2.7187
  114SOL    HW2  342   0.292   0.550   1.278  0.0441  1.5732  2.3138
  115SOL     OW  343   2.737   1.590   1.261 -0.5147  0.2051 -0.2745
  115SOL    HW1  344   2.751   1.489   1.259 -1.2772  3.1123  0.1705
  115SOL    HW2  345   2.760   1.636   1.172 -0.2321  1.6872 -1.7188
  116SOL     OW  346   1.827   1.047   0.703 -0.7616  0.2247 -0.4091
  116SOL    HW1  347   1.756   0.987   0.655  0.3994  3.1444 -0.6499
  116SOL    HW2  348   1.788   1.141   0.731 -1.5450  0.6384 -4.5351
  117SOL     OW  349   1.230   0.377   0.554  0.1581 -0.2025 -0.4829
  117SOL    HW1  350   1.233   0.433   0.639  1.6064  2.9202  0.7916
  117SOL    HW2  351   1.246   0.428   0.468  1.0414 -0.2954  3.5773
  118SOL     OW  352   1.137   1.112   1.108  0.2075 -0.4432  0.2060
  118SOL    HW1  353   1.132   1.040   1.185  2.6782  3.5020 -1.8823
  118SOL    HW2  354   1.156   1.209   1.145  1.4644 -0.4470  1.8520
  119SOL     OW  355   1.818   1.602   2.153 -0.2101 -0.6436  0.3171
  119SOL    HW1  356   1.789   1.699   2.171 -0.2275 -2.6185 -0.0823
  119SOL    HW2  357   1.919   1.592   2.136  2.3621  0.4537  2.3405
  120SOL     OW  358   2.957   2.881   0.114  0.1740  0.1833 -0.0589
  120SOL    HW1  359   3.024   2.817   0.063 -1.7938 -1.2254  2.1791
  120SOL    HW2  360   2.862   2.838   0.112 -1.1684 -1.5476 -3.5859
  121SOL     OW  361   1.992   0.749   2.216  0.4759 -0.0926 -0.9195
  121SOL    HW1  362   2.026   0.804   2.132  0.6446  1.7393 -2.4377
  121SOL    HW2  363   2.017   0.649   2.214 -0.8550  1.0336 -0.1683
  122SOL     OW  364   2.583   2.653   1.239  0.2824 -0.3234  0.6815
  122SOL    HW1  365   2.644   2.587   1.195 -0.1563 -0.0398 -1.7081
  122SOL    HW2  366   2.480   2.639   1.225 -1.5186  0.4831  2.3359
  123SOL     OW  367   1.732   0.077   1.715  0.1172 -0.0646 -0.6284
  123SOL    HW1  368   1.745  -0.018   1.677 -0.1789 -2.3859  0.5640
  123SOL    HW2  369   1.820   0.119   1.753 -2.7818  0.2053  0.5660
  124SOL     OW  370   0.092   0.478   1.106 -0.2624  0.1769  0.2219
  124SOL    HW1  371   0.073   0.555   1.168 -1.6262  0.1181 -3.4577
  124SOL    HW2  372   0.084   0.508   1.010  0.9545  0.4920 -3.5788
  125SOL     OW  373   0.860   1.825   0.695  0.3571 -0.3982 -0.3078
  125SOL    HW1  374   0.952   1.796   0.735 -0.1253 -1.6643 -0.4416
  125SOL    HW2  375   0.808   1.886   0.761 -0.4717  0.6194  0.9191
  126SOL     OW  376   1.861   2.266   2.441 -0.3468 -0.3526 -0.5282
  126SOL    HW1  377   1.910   2.240   2.353 -0.3722 -1.5356  0.8086
  126SOL    HW2  378   1.809   2.184   2.487  0.3485 -1.9109  0.8624
  127SOL     OW  379   1.005   0.894   0.267  0.4301 -0.1041  0.4160
  127SOL    HW1  380   0.984   0.954   0.349  2.1688  0.5452 -1.5086
  127SOL    HW2  381   0.974   0.793   0.279  1.0280 -2.1264  1.6616
  128SOL     OW  382   0.912   0.220   1.404  0.3604 -0.3023  0.5889
  128SOL    HW1  383   0.892   0.285   1.317 -1.6139 -2.8349 -1.5683
  128SOL    HW2  384   0.898   0.122   1.373  3.5140  1.6510 -1.3566
  129SOL     OW  385   1.828   0.691   1.880  0.2719 -0.1398 -0.2336
  129SOL    HW1  386   1.830   0.690   1.775 -0.8061  2.5269 -4.3723
  129SOL    HW2  387   1.873   0.780   1.917 -1.3502  0.4890 -0.1902
  130SOL     OW  388   1.365   2.207   1.020  0.1817 -0.9397 -0.0856
  130SOL    HW1  389   1.294   2.183   0.945 -2.0660  1.2703  1.7515
  130SOL    HW2  390   1.421   2.291   0.987  0.3062  2.7579  1.1612
  131SOL     OW  391   3.065   1.456   1.407 -0.2456 -0.0535  0.2515
  131SOL    HW1  392   3.001   1.374   1.417 -2.1817  0.2213  0.2177
  131SOL    HW2  393   3.164   1.426   1.405  0.3208  2.4559  0.2158
  132SOL     OW  394   2.061   2.446   0.517  0.4138 -0.2982  0.2379
  132SOL    HW1  395   1.958   2.470   0.532 -2.1842  1.0909  2.6190
  132SOL    HW2  396   2.090   2.364   0.572  0.5549  1.7225 -1.3044
  133SOL     OW  397   1.869   2.322   2.839  0.1993  0.2560 -0.4041
  133SOL    HW1  398   1.836   2.390   2.768 -2.5189  1.7800  0.3297
  133SOL    HW2  399   1.972   2.308   2.833 -1.2120 -2.8183  0.0559
  134SOL     OW  400   2.660   2.362   1.626 -0.1591 -0.0741 -0.6305
  134SOL    HW1  401   2.593   2.350   1.705  0.2752 -0.2462 -0.7107
  134SOL    HW2  402   2.721   2.448   1.637 -0.6108  1.3652 -1.7643
  135SOL     OW  403   0.645   1.463   2.664  0.0739 -0.0999 -0.6571
  135SOL    HW1  404   0.606   1.377   2.696  2.2155 -0.5923  0.4934
  135SOL    HW2  405   0.699   1.448   2.576 -3.9794  0.6228  0.2540
  136SOL     OW  406   1.192   2.025   0.417  0.4719  0.1227 -0.1951
  136SOL    HW1  407   1.130   2.099   0.467 -0.5234  1.2859  1.7657
  136SOL    HW2  408   1.173   1.927   0.455  0.7237 -0.1208  1.3479
  137SOL     OW  409   0.417   1.183   2.167 -0.5370  0.3582 -0.5878
  137SOL    HW1  410   0.326   1.172   2.216  4.8806 -1.2472  0.4943
  137SOL    HW2  411   0.462   1.089   2.160 -1.0170  0.6077 -0.6434
  138SOL     OW  412   2.476   1.520   0.215  0.3165 -0.2818 -0.3411
  138SOL    HW1  413   2.398   1.458   0.231  0.7860 -1.2558  2.8581
  138SOL    HW2  414   2.549   1.505   0.290  0.5235 -0.8360  0.5873
  139SOL     OW  415   1.848   2.602   1.289 -0.6588 -0.0027  0.1816
  139SOL    HW1  416   1.744   2.611   1.276 -0.1829  2.4967  0.5427
  139SOL    HW2  417   1.877   2.514   1.342  2.5882 -1.8846  1.2854
  140SOL     OW  418   3.016   2.994   2.545  0.2833  0.5522 -0.0160
  140SOL    HW1  419   3.051   2.895   2.553  0.9798  0.6069  0.0099
  140SOL    HW2  420   3.098   3.057   2.532  0.5599 -2.2324  2.0757
  141SOL     OW  421   1.338   1.664   1.601  0.2897 -0.4897 -0.4210
  141SOL    HW1  422   1.238   1.686   1.630  1.5680  2.4112  0.4240
  141SOL    HW2  423   1.386   1.602   1.669 -0.3334 -0.0816 -0.5051
  142SOL     OW  424   1.588   0.588   2.251 -0.0017  0.5363 -0.0954
  142SOL    HW1  425   1.588   0.564   2.147  1.6456 -3.4123 -1.8546
  142SOL    HW2  426   1.490   0.607   2.280  1.0064  0.7859  0.5225
  143SOL     OW  427   2.702   0.898   0.501 -0.3281  0.1706 -0.5761
  143SOL    HW1  428   2.760   0.951   0.431 -0.3223 -0.0217  0.7874
  143SOL    HW2  429   2.745   0.909   0.596 -1.0190 -0.5419 -3.4127
  144SOL     OW  430   2.907   1.163   1.445 -0.1032  0.2163  0.0371
  144SOL    HW1  431   2.827   1.149   1.508  0.3707 -1.0893  2.4323
  144SOL    HW2  432   2.979   1.089   1.450 -1.1966 -1.3644  1.6106
  145SOL     OW  433   0.976   1.815   0.183 -0.3350  0.0140  0.1633
  145SOL    HW1  434   1.059   1.848   0.130  1.4616 -1.6633  1.4725
  145SOL    HW2  435   0.938   1.727   0.138 -1.2782 -1.1689  1.7614
  146SOL     OW  436   2.515   0.664   1.498 -0.1052 -0.3240 -0.2094
  146SOL    HW1  437   2.493   0.568   1.462  1.7332 -2.4937 -0.4067
  146SOL    HW2  438   2.447   0.732   1.459  2.2123  2.8365 -0.8201
  147SOL     OW  439   1.093   2.471   0.641  0.1676  0.6205  0.0786
  147SOL    HW1  440   1.061   2.513   0.553 -0.2445 -1.0641  4.4360
  147SOL    HW2  441   1.180   2.413   0.617 -0.9877  0.0979  0.9180
  148SOL     OW  442   1.621   1.481   3.044 -0.3131 -0.3186  0.2832
  148SOL    HW1  443   1.630   1.393   2.981  0.5597  0.0673 -2.6998
  148SOL    HW2  444   1.611   1.447   3.143  0.2791 -2.1203  1.4228
  149SOL     OW  445   0.700   1.387   1.980  0.2058 -0.1273  0.1487
  149SOL    HW1  446   0.598   1.382   2.005  0.7752 -1.2951  2.0083
  149SOL    HW2  447   0.733   1.319   1.911 -0.3372  0.0764 -2.2233
  150SOL     OW  448   3.016   1.218   0.943 -0.0683 -0.3678  0.1141
  150SOL    HW1  449   3.096   1.231   1.009 -2.3426 -0.1340  0.8424
  150SOL    HW2  450   2.949   1.141   0.965 -0.7108  1.7024 -2.4755
  151SOL     OW  451   0.172   0.737   2.119 -0.3952 -0.0746 -0.2554
  151SOL    HW1  452   0.160   0.835   2.084 -0.5654 -0.3357  0.4571
  151SOL    HW2  453   0.212   0.670   2.050 -2.7333 -0.2624 -0.3402
  152SOL     OW  454   1.430   1.766   1.293  0.3841 -0.2010  0.2325
  152SOL    HW1  455   1.444   1.868   1.318  0.9760  3.6025 -1.5005
  152SOL    HW2  456   1.342   1.752   1.239  1.7230 -0.7439  0.6311
  153SOL     OW  457   0.048   1.533   0.162  0.5897  0.2501 -0.2090
  153SOL    HW1  458   0.043   1.430   0.177 -1.1295  0.0340  0.8807
  153SOL    HW2  459   0.042   1.597   0.243  0.9389  2.2854 -0.7630
  154SOL     OW  460   2.389   1.843   2.806 -0.2976 -0.4401  0.6941
  154SOL    HW1  461   2.392   1.739   2.827  1.0947 -3.0865  1.6956
  154SOL    HW2  462   2.451   1.870   2.725  0.8311 -0.8335  0.0884
  155SOL     OW  463   2.465   1.197   0.378 -0.2137 -0.1926 -0.1660
  155SOL    HW1  464   2.538   1.227   0.310 -1.0494  1.4265  1.0732
  155SOL    HW2  465   2.392   1.135   0.338 -1.1731 -0.5254  2.5006
  156SOL     OW  466   2.536   0.993   0.845  0.5489  0.3803 -1.0728
  156SOL    HW1  467   2.440   0.973   0.880  1.4823 -0.5185  2.2142
  156SOL    HW2  468   2.532   1.064   0.769 -0.1043 -0.0623  1.0587
  157SOL     OW  469   1.277   2.936   3.027 -0.3153  0.2830 -0.3043
  157SOL    HW1  470   1.305   2.908   2.937  0.3818 -1.8036  2.8629
  157SOL    HW2  471   1.292   3.037   3.048 -1.8901  0.8441 -1.1957
  158SOL     OW  472   0.999   1.833   1.898 -0.6655 -0.0523  0.3653
  158SOL    HW1  473   1.035   1.930   1.905  0.6659 -1.0084  1.3617
  158SOL    HW2  474   0.898   1.826   1.919  2.5358  1.4534  0.3771
  159SOL     OW  475   0.838   0.416   1.217  0.2528 -0.6070 -0.0888
  159SOL    HW1  476   0.811   0.495   1.282  0.7406  1.9772  1.5383
  159SOL    HW2  477   0.755   0.375   1.168  0.9264  0.4894 -0.2774
  160SOL     OW  478   1.412   2.350   1.564  0.3881  0.4117  0.0659
  160SOL    HW1  479   1.374   2.265   1.611 -0.7193  2.9556 -0.8741
  160SOL    HW2  480   1.513   2.346   1.550 -0.1641 -1.2565 -0.1474
  161SOL     OW  481   0.069   2.952   0.341 -0.2010  0.0597  0.8318
  161SOL    HW1  482   0.052   2.859   0.308  0.6118 -0.9160 -0.4642
  161SOL    HW2  483   0.070   3.014   0.258 -0.1899  0.5311  0.3712
  162SOL     OW  484   2.577   1.881   0.490  0.7191 -0.1656 -0.0021
  162SOL    HW1  485   2.564   1.826   0.399  2.3472  2.9385 -0.3545
  162SOL    HW2  486   2.547   1.831   0.580 -0.6857 -0.3680  1.5070
  163SOL     OW  487   1.908   2.841   0.726  0.2095 -0.2705 -0.1545
  163SOL    HW1  488   1.925   2.866   0.627  0.7671 -1.9508 -1.0812
  163SOL    HW2  489   1.957   2.752   0.748  1.8142 -2.1305  0.2057
  164SOL     OW  490   3.067   0.258   1.232 -0.0323 -0.2219  0.5197
  164SOL    HW1  491   3.111   0.338   1.188 -0.0074 -1.6663 -0.5916
  164SOL    HW2  492   3.126   0.208   1.293 -0.2581  0.6614 -1.8532
  165SOL     OW  493   0.976   1.442   0.751  0.4366 -0.7242  0.2072
  165SOL    HW1  494   0.912   1.493   0.822 -0.0109 -3.2972 -0.6891
  165SOL    HW2  495   0.964   1.489   0.657 -0.1580  0.3602 -1.4366
  166SOL     OW  496   1.513   1.051   1.741  0.9572 -0.3202 -0.5166
  166SOL    HW1  497   1.426   1.031   1.795 -0.8185  0.5833  0.6227
  166SOL    HW2  498   1.565   1.131   1.784 -1.0612  1.9609  1.5862
  167SOL     OW  499   0.724   1.978   1.432  0.2230  1.0692 -0.5128
  167SOL    HW1  500   0.706   2.040   1.513 -2.1475  1.3166 -1.2371
  167SOL    HW2  501   0.692   1.882   1.447 -1.1570  0.2940 -1.0157
  168SOL     OW  502   1.665   2.369   0.154 -0.0329 -1.0090  0.2260
  168SOL    HW1  503   1.726   2.422   0.091  3.4175  1.2408  2.1206
  168SOL    HW2  504   1.702   2.363   0.252  1.6752  2.9732  2.5353
  169SOL     OW  505   0.222   2.554   2.259  0.4116  0.5235 -0.2535
  169SOL    HW1  506   0.241   2.490   2.183 -1.4699 -0.9525  1.4017
  169SOL    HW2  507   0.233   2.513   2.356  1.5245 -1.9049 -0.1297
  170SOL     OW  508   1.128   0.215   2.019 -0.0262 -0.4682  0.7816
  170SOL    HW1  509   1.209   0.199   2.083  0.9926  0.2950  0.9338
  170SOL    HW2  510   1.154   0.188   1.923 -2.1611  1.0100 -2.9807
  171SOL     OW  511   0.183   0.780   2.391  0.0928 -0.0365 -0.9127
  171SOL    HW1  512   0.104   0.828   2.438  3.7067 -0.3904  0.1182
  171SOL    HW2  513   0.176   0.788   2.290  0.4998 -1.3050  0.4605
  172SOL     OW  514   0.931   1.004   2.887  0.3231 -0.2537 -0.3962
  172SOL    HW1  515   0.974   1.096   2.910 -1.0284  1.4409 -1.1362
  172SOL    HW2  516   0.857   1.013   2.814 -0.8582 -1.8847  1.3738
  173SOL     OW  517   0.665   2.689   0.136  0.2921 -0.0089 -0.4257
  173SOL    HW1  518   0.671   2.797   0.157 -1.5089  1.5323  0.6523
  173SOL    HW2  519   0.567   2.650   0.148  0.4025 -0.9850  0.1886
  174SOL     OW  520   1.489   2.825   1.047  0.5532 -0.3073 -0.1161
  174SOL    HW1  521   1.445   2.908   0.995 -0.6078 -2.5408 -1.9508
  174SOL    HW2  522   1.526   2.755   0.983  0.4218 -0.8899 -2.3877
  175SOL     OW  523   0.417   3.088   1.645  0.6347 -0.3703  0.5654
  175SOL    HW1  524   0.481   3.126   1.718 -0.5149 -1.7996  2.7459
  175SOL    HW2  525   0.384   3.161   1.580 -1.1696  0.8548  1.3311
  176SOL     OW  526   2.617   0.394   0.008 -0.1221 -0.1832  0.0071
  176SOL    HW1  527   2.626   0.482   0.065  3.5831 -0.6025 -1.4626
  176SOL    HW2  528   2.527   0.340   0.022 -3.0099 -1.5589  0.5712
  177SOL     OW  529   0.350   0.309   0.983 -0.2243  0.2110 -0.9347
  177SOL    HW1  530   0.286   0.248   0.927 -1.0847 -1.8381 -2.2182
  177SOL    HW2  531   0.299   0.358   1.062 -0.7855 -0.2349  2.8728
  178SOL     OW  532   0.006   2.741   2.581  0.4662  0.3595  0.3740
  178SOL    HW1  533  -0.054   2.659   2.589  2.4113  0.3103 -2.1998
  178SOL    HW2  534   0.085   2.743   2.650  1.4853  1.1005  0.1297
  179SOL     OW  535   3.074   1.607   1.140 -0.6960 -0.7065 -0.2004
  179SOL    HW1  536   2.982   1.638   1.114  1.6952  0.5188 -2.9835
  179SOL    HW2  537   3.079   1.585   1.244  0.8135 -2.4563  2.5315
  180SOL     OW  538   0.179   1.199   1.866  0.0234 -0.4838 -0.0331
  180SOL    HW1  539   0.279   1.171   1.856  0.3042 -0.9703 -3.0326
  180SOL    HW2  540   0.168   1.307   1.887 -0.7072  0.2492  1.5147
  181SOL     OW  541   3.043   1.856   2.493  0.3712  0.0485 -0.6117
  181SOL    HW1  542   3.118   1.925   2.495  0.1424 -0.3988 -0.0343
  181SOL    HW2  543   2.980   1.869   2.412  0.4946 -1.2676  1.8904
  182SOL     OW  544   2.276   1.317   1.172  0.9789  0.2559 -0.0454
  182SOL    HW1  545   2.194   1.277   1.122  1.3033  1.4033 -0.4105
  182SOL    HW2  546   2.290   1.416   1.154  0.0838 -2.1383  2.9813
  183SOL     OW  547   1.480   2.251   2.600 -0.6036  0.3450  0.4224
  183SOL    HW1  548   1.401   2.190   2.579  1.9969  1.9510 -0.2196
  183SOL    HW2  549   1.562   2.212   2.550  1.7330 -1.1768 -1.4433
  184SOL     OW  550   2.007   0.848   0.761 -0.4659  0.2875 -0.4057
  184SOL    HW1  551   1.947   0.936   0.760 -0.9331  1.3677 -0.2643
  184SOL    HW2  552   1.971   0.776   0.832 -2.2923  0.0262  0.6898
  185SOL     OW  553   1.632   2.765   2.050  0.1004 -0.0296 -0.1092
  185SOL    HW1  554   1.574   2.850   2.045  0.4552 -1.5976 -1.5200
  185SOL    HW2  555   1.640   2.718   2.143 -0.7178 -0.9057 -0.1072
  186SOL     OW  556   0.097   2.212   1.649  0.4402  0.6998  0.4979
  186SOL    HW1  557   0.080   2.275   1.734 -3.0085  1.9361  1.3266
  186SOL    HW2  558   0.183   2.156   1.660 -1.2452  0.6975 -2.1261
  187SOL     OW  559   1.293   0.761   1.677 -0.0064 -0.4662  0.2007
  187SOL    HW1  560   1.367   0.764   1.603 -2.6247  1.1324  1.0865
  187SOL    HW2  561   1.328   0.773   1.773  0.1190 -4.1134  0.3611
  188SOL     OW  562   2.764   2.779   1.423 -0.0538 -0.8426 -0.1150
  188SOL    HW1  563   2.760   2.884   1.437  2.7098 -0.3236  1.1924
  188SOL    HW2  564   2.712   2.742   1.343  0.7926  0.0419  0.9814
  189SOL     OW  565   0.943   1.208   1.419 -0.1624 -0.0699  0.4168
  189SOL    HW1  566   1.005   1.238   1.494  0.4856  2.2554  1.9429
  189SOL    HW2  567   0.908   1.287   1.364  1.0222  0.0315 -0.7780
  190SOL     OW  568   1.465   1.908   1.591  0.2972  0.5772  0.0026
  190SOL    HW1  569   1.407   1.817   1.599  1.0221 -1.4782  0.8964
  190SOL    HW2  570   1.514   1.920   1.682 -3.5612 -0.8343  1.6068
  191SOL     OW  571   0.970   0.724   1.583 -0.1868 -0.0021  0.4176
  191SOL    HW1  572   1.031   0.656   1.629 -1.2041 -1.9283 -2.6354
  191SOL    HW2  573   0.935   0.800   1.641 -1.6425 -2.4355 -0.5936
  192SOL     OW  574   1.869   2.245   1.113 -0.0296 -0.0191 -0.2098
  192SOL    HW1  575   1.774   2.246   1.075 -1.0810  0.7258 -0.6675
  192SOL    HW2  576   1.937   2.294   1.053  0.3367 -1.7100 -1.1696
  193SOL     OW  577   0.596   0.576   0.471  0.3864  0.4005 -0.0602
  193SOL    HW1  578   0.525   0.504   0.487 -1.4117 -1.3373 -1.1574
  193SOL    HW2  579   0.633   0.562   0.376 -1.7743 -1.0179  2.4424
  194SOL     OW  580   0.331   0.891   1.288 -0.3458  0.8214  0.2495
  194SOL    HW1  581   0.260   0.816   1.281  4.4054 -0.5070 -1.9358
  194SOL    HW2  582   0.343   0.942   1.196  0.5130  0.3003 -1.6582
  195SOL     OW  583   1.005   2.886   0.547 -0.1162  0.5855  0.1381
  195SOL    HW1  584   0.981   2.781   0.530 -3.0716 -0.8908 -1.8257
  195SOL    HW2  585   1.101   2.913   0.513  1.6498 -2.1139 -1.6451
  196SOL     OW  586   0.209   1.322   1.375  0.0704  0.0256  0.3325
  196SOL    HW1  587   0.244   1.414   1.410  0.8393  0.5001 -0.2008
  196SOL    HW2  588   0.182   1.259   1.453  0.3116  1.4263  1.1069
  197SOL     OW  589   0.814   2.071   0.237  0.0078  0.6106  0.2840
  197SOL    HW1  590   0.797   2.061   0.340  0.7193 -1.0307 -0.5192
  197SOL    HW2  591   0.864   1.990   0.199 -1.7596  0.6427  0.9106
  198SOL     OW  592   0.291   1.251   0.246  0.2922  0.4390  0.7012
  198SOL    HW1  593   0.185   1.268   0.233 -1.7313 -0.0377 -2.2205
  198SOL    HW2  594   0.341   1.338   0.271 -2.4764 -1.0249 -1.4007
  199SOL     OW  595   2.254   0.363   2.529  1.3137  0.0583 -0.3107
  199SOL    HW1  596   2.191   0.311   2.589 -1.3124 -0.0154  0.9361
  199SOL    HW2  597   2.351   0.362   2.567 -0.3585 -1.8862 -0.5436
  200SOL     OW  598   0.032   2.924   0.758  0.2875 -0.6466  0.4160
  200SOL    HW1  599  -0.056   2.919   0.704 -1.5994 -1.7436 -0.1670
  200SOL    HW2  600   0.082   3.012   0.758  1.4995 -1.1866 -2.3902
  201SOL     OW  601   1.071   0.743   0.605  0.2265 -0.4337 -0.4117
  201SOL    HW1  602   1.070   0.812   0.683 -0.7937  0.6317  0.2907
  201SOL    HW2  603   0.985   0.676   0.593 -2.6022 -1.5329 -0.0826
  202SOL     OW  604   0.434   1.124   1.866 -0.5228 -0.9203  1.0768
  202SOL    HW1  605   0.522   1.096   1.821 -2.4390  0.1996  0.1905
  202SOL    HW2  606   0.450   1.139   1.964  0.1584 -0.0388 -2.5801
  203SOL     OW  607   0.655   0.204   1.527  0.0282  0.1477 -0.2615
  203SOL    HW1  608   0.721   0.166   1.456 -0.3223  0.4588  1.4811
  203SOL    HW2  609   0.704   0.205   1.616 -0.3929  0.5284 -1.8685
  204SOL     OW  610   2.072   1.843   2.902  0.2312 -0.8128 -0.7455
  204SOL    HW1  611   2.095   1.751   2.947  0.3664  2.6863  0.8563
  204SOL    HW2  612   2.133   1.854   2.821  1.4738  0.6502 -1.3384
  205SOL     OW  613   1.830   1.856   3.062  0.2007  0.1431 -0.3448
  205SOL    HW1  614   1.923   1.864   3.009  0.4169  0.6387 -0.9540
  205SOL    HW2  615   1.791   1.952   3.079 -3.1308 -1.5622 -2.0408
  206SOL     OW  616   2.503   2.799   0.324 -0.1004  0.3941  0.1222
  206SOL    HW1  617   2.548   2.712   0.350 -0.6958  1.0747 -0.1571
  206SOL    HW2  618   2.571   2.870   0.293  0.2691  0.1648  0.2088
  207SOL     OW  619   0.647   1.803   2.994 -0.0551  0.0989  0.8369
  207SOL    HW1  620   0.745   1.775   2.980 -1.3204  0.4090 -2.1468
  207SOL    HW2  621   0.592   1.739   3.052  0.9587  0.3621  1.7619
  208SOL     OW  622   1.107   1.556   1.367 -0.2230 -0.3407 -0.2862
  208SOL    HW1  623   1.140   1.625   1.296 -2.4637 -1.6322 -0.0813
  208SOL    HW2  624   1.163   1.553   1.452 -1.8936  2.6403  0.9693
  209SOL     OW  625   0.215   0.942   3.058 -0.3967 -0.3685 -0.5951
  209SOL    HW1  626   0.215   0.844   3.019  0.2788 -0.8975 -0.1071
  209SOL    HW2  627   0.236   0.937   3.161  0.3516 -0.0769 -0.5411
  210SOL     OW  628   1.801   0.512   1.183 -0.0086 -0.9467  0.1510
  210SOL    HW1  629   1.771   0.603   1.139 -0.5526  1.8045 -1.0603
  210SOL    HW2  630   1.899   0.490   1.171 -0.6618  0.7483  0.9060
  211SOL     OW  631   2.129   1.043   1.553 -0.4913  0.8139 -0.1544
  211SOL    HW1  632   2.191   0.989   1.620  2.1759  2.2265  0.4992
  211SOL    HW2  633   2.182   1.121   1.514  0.1513 -0.0307 -0.4890
  212SOL     OW  634   0.025   0.955   1.470  0.4187 -0.0268  0.0913
  212SOL    HW1  635   0.056   1.045   1.514  0.9528 -0.0045  0.6637
  212SOL    HW2  636   0.020   0.874   1.532  0.4200 -1.0111 -1.2565
  213SOL     OW  637   2.839   0.263   0.392 -0.3561 -0.4984 -0.4072
  213SOL    HW1  638   2.870   0.181   0.341 -0.9204  1.4663  1.5587
  213SOL    HW2  639   2.795   0.335   0.342  0.3200  1.1340  2.7473
  214SOL     OW  640   2.153   0.248   2.296 -0.6332  0.0607 -0.5346
  214SOL    HW1  641   2.211   0.299   2.367  2.0611 -0.7473 -1.0099
  214SOL    HW2  642   2.142   0.147   2.320  2.6499  0.3637  3.4262
  215SOL     OW  643   1.630   2.264   2.130  0.1538 -0.4526 -0.3929
  215SOL    HW1  644   1.714   2.294   2.078  0.2494  2.4283  1.9612
  215SOL    HW2  645   1.578   2.350   2.167 -1.3363  0.1621 -1.4734
  216SOL     OW  646   2.199   0.645   0.650  0.0486 -0.4556  0.3349
  216SOL    HW1  647   2.165   0.564   0.599  1.8281 -1.6257  1.3989
  216SOL    HW2  648   2.137   0.730   0.658 -1.0489 -1.3584 -0.9747
  217SOL     OW  649   0.761   2.797   2.437  0.0396 -0.4415  0.1581
  217SOL    HW1  650   0.759   2.707   2.488 -1.3758 -0.5213 -0.5923
  217SOL    HW2  651   0.776   2.785   2.335 -2.7795  3.2671  0.5620
  218SOL     OW  652   1.917   1.437   0.026 -0.4279 -0.2452 -0.1870
  218SOL    HW1  653   1.829   1.462  -0.018  2.0923 -2.2555 -1.2253
  218SOL    HW2  654   1.909   1.359   0.085  0.3069  1.2346  1.5338
  219SOL     OW  655   2.394   1.303   2.541  0.6396 -0.2509  0.2282
  219SOL    HW1  656   2.447   1.253   2.463  1.9465 -1.6906  1.3325
  219SOL    HW2  657   2.352   1.237   2.608 -0.4755 -0.0722  0.8877
  220SOL     OW  658   1.512   1.055   1.253 -0.4714 -0.1036  0.4618
  220SOL    HW1  659   1.609   1.035   1.278 -1.1148 -3.0450  2.0962
  220SOL    HW2  660   1.495   1.102   1.161 -2.5580 -0.5564 -0.9234
  221SOL     OW  661   1.356   0.991   2.206 -0.2279  0.3361 -0.2892
  221SOL    HW1  662   1.286   0.973   2.133  1.6816  2.4057  0.7134
  221SOL    HW2  663   1.456   0.986   2.171 -0.6094 -0.8713 -0.7537
  222SOL     OW  664   1.113   0.011   1.168 -0.2686 -0.0692 -0.1266
  222SOL    HW1  665   1.172   0.041   1.245 -3.2151 -1.9575 -0.2523
  222SOL    HW2  666   1.138   0.070   1.089  0.0483  0.2910  0.3233
  223SOL     OW  667   2.743   0.910   2.033  0.1721  0.4866  0.3899
  223SOL    HW1  668   2.709   0.963   2.114 -0.1598  1.4097  1.0006
  223SOL    HW2  669   2.846   0.924   2.010  1.3616 -0.6433  0.2694
  224SOL     OW  670   1.527   1.028   2.785 -0.1272  0.3026 -0.0740
  224SOL    HW1  671   1.570   0.947   2.736 -0.3676  1.7464  1.6949
  224SOL    HW2  672   1.470   1.085   2.720 -1.9065  2.3256 -1.5142
  225SOL     OW  673   2.922   2.773   2.871  0.2591 -0.3717 -0.1754
  225SOL    HW1  674   2.931   2.689   2.806  1.5305 -0.2518  1.3521
  225SOL    HW2  675   2.990   2.849   2.851 -2.9575  3.8138  2.2197
  226SOL     OW  676   2.449   1.570   2.845  0.9916 -0.0640  0.5009
  226SOL    HW1  677   2.500   1.547   2.758  1.0440 -2.9096  2.2922
  226SOL    HW2  678   2.412   1.481   2.896  0.1049 -0.7307  1.9913
  227SOL     OW  679   0.840   0.153   0.011  0.4077  0.0148  0.4012
  227SOL    HW1  680   0.910   0.078   0.014  0.3142 -0.5152  2.6091
  227SOL    HW2  681   0.788   0.138  -0.076  3.4456  0.0337 -0.3170
  228SOL     OW  682   2.394   0.634   2.854  0.0113  0.3310 -0.0057
  228SOL    HW1  683   2.320   0.630   2.783  1.1307 -0.6765  3.9991
  228SOL    HW2  684   2.478   0.578   2.825 -0.1734 -0.6082  0.3871
  229SOL     OW  685   0.616   0.437   1.848 -0.8376  0.8073  0.1777
  229SOL    HW1  686   0.616   0.328   1.853 -0.3257 -1.3994  0.4526
  229SOL    HW2  687   0.631   0.489   1.752 -0.6832  1.5446 -0.6744
  230SOL     OW  688   1.868   1.147   2.096  0.4773 -0.3582 -0.6772
  230SOL    HW1  689   1.928   1.204   2.041 -3.3783 -1.2960  1.2452
  230SOL    HW2  690   1.783   1.200   2.124  1.3194 -0.5704 -2.6595
  231SOL     OW  691   0.661   1.019   3.057 -0.2797  0.0135  0.8309
  231SOL    HW1  692   0.744   1.079   3.058 -3.7293  2.1560 -0.1888
  231SOL    HW2  693   0.577   1.065   3.095 -0.3141 -2.3340  0.4972
  232SOL     OW  694   2.360   3.086   2.850 -0.2524 -0.0935  0.6959
  232SOL    HW1  695   2.422   3.001   2.859 -0.6055 -0.8572  0.9628
  232SOL    HW2  696   2.383   3.141   2.769 -0.6602 -2.3173  1.0572
  233SOL     OW  697   1.707   1.293   1.146 -0.3578  0.0909  0.0518
  233SOL    HW1  698   1.759   1.286   1.061  1.0912  1.1619  1.7210
  233SOL    HW2  699   1.724   1.212   1.209  0.0251 -1.6302  1.7874
  234SOL     OW  700   1.582   2.576   1.856 -0.4947 -0.5762  0.3819
  234SOL    HW1  701   1.582   2.648   1.930 -1.4351  0.9558 -1.0863
  234SOL    HW2  702   1.490   2.527   1.858  1.4312 -0.2873  1.7064
  235SOL     OW  703   0.007   2.979   2.852  0.1059  0.3014 -0.8173
  235SOL    HW1  704   0.022   3.019   2.757  1.2989 -2.1350 -2.4248
  235SOL    HW2  705  -0.051   3.038   2.915  0.7039  2.3964  2.4610
  236SOL     OW  706   2.922   0.719   0.076 -0.3815  0.3769  0.1043
  236SOL    HW1  707   2.992   0.774   0.129 -0.2157 -2.2028  0.2033
  236SOL    HW2  708   2.967   0.632   0.039 -0.2441 -0.6507  0.8462
  237SOL     OW  709   1.523   1.700   1.012 -0.0244 -0.4896 -0.3996
  237SOL    HW1  710   1.622   1.657   1.002 -0.7640 -2.0326 -0.9617
  237SOL    HW2  711   1.500   1.718   1.111 -1.7795 -0.7104  0.0719
  238SOL     OW  712   1.760   1.278   0.857  0.1374 -0.5562 -0.4623
  238SOL    HW1  713   1.827   1.356   0.861  2.2824  1.9402  1.7753
  238SOL    HW2  714   1.680   1.296   0.794  1.0425 -0.3232 -1.1669
  239SOL     OW  715   2.054   0.267   2.686 -0.0447 -0.2153 -0.3823
  239SOL    HW1  716   2.105   0.241   2.772  1.9078 -1.1876 -1.5517
  239SOL    HW2  717   1.989   0.348   2.706 -2.5902  0.6189  0.4693
  240SOL     OW  718   0.893   0.647   0.321  0.3379  0.5603 -0.3989
  240SOL    HW1  719   0.936   0.560   0.278 -0.1174  3.4917 -0.7075
  240SOL    HW2  720   0.907   0.636   0.424 -1.6789  1.4967 -0.7002
  241SOL     OW  721   0.573   0.084   0.375 -0.9007 -0.5411 -0.8754
  241SOL    HW1  722   0.622   0.158   0.322  0.2921  0.9014  0.6795
  241SOL    HW2  723   0.545   0.010   0.314  1.3412  0.9311  4.0001
  242SOL     OW  724   0.666   2.512   1.132  0.2710  0.1869  0.5562
  242SOL    HW1  725   0.635   2.551   1.221 -0.4865 -1.4689 -1.0968
  242SOL    HW2  726   0.719   2.575   1.072 -0.6441 -0.3787  1.0063
  243SOL     OW  727   1.084   0.591   2.500 -0.1895  0.1841  0.2120
  243SOL    HW1  728   0.998   0.588   2.438  0.8790  0.2983 -1.0567
  243SOL    HW2  729   1.070   0.519   2.572 -1.2661 -1.0210 -0.9810
  244SOL     OW  730   2.796   1.885   2.301  0.5189  0.0162 -0.5824
  244SOL    HW1  731   2.835   1.897   2.206 -0.2937 -2.5072  0.9246
  244SOL    HW2  732   2.742   1.791   2.311  1.1067 -0.2120  2.2148
  245SOL     OW  733   2.346   0.682   2.201 -0.3206  0.4796 -0.6080
  245SOL    HW1  734   2.418   0.749   2.220 -2.1045 -0.8316 -1.5000
  245SOL    HW2  735   2.345   0.614   2.278 -4.4353  0.3869  2.5483
  246SOL     OW  736   0.204   2.914   1.697  0.0047  0.0296  0.3831
  246SOL    HW1  737   0.136   2.885   1.620  2.4664 -0.5170 -0.3393
  246SOL    HW2  738   0.268   2.995   1.676 -1.3043 -0.2240 -0.1539
  247SOL     OW  739   2.173   0.589   3.045  1.1191  0.2677  0.1197
  247SOL    HW1  740   2.256   0.611   2.991 -2.0046 -1.4690  3.9247
  247SOL    HW2  741   2.126   0.673   3.078  0.2674 -2.5376 -1.0133
  248SOL     OW  742   2.147   1.838   1.590 -0.4654 -0.1897 -0.3108
  248SOL    HW1  743   2.186   1.766   1.651 -1.4634  1.3193 -0.4844
  248SOL    HW2  744   2.044   1.837   1.596  2.5221  0.6123  3.3046
  249SOL     OW  745   1.857   1.911   1.908  0.1808  0.1883 -0.5208
  249SOL    HW1  746   1.850   1.832   1.836  0.4112 -1.5046 -0.4526
  249SOL    HW2  747   1.953   1.950   1.910 -1.1763 -0.8254  2.7763
  250SOL     OW  748   1.129   0.718   1.963  0.2806  0.4460 -0.2376
  250SOL    HW1  749   1.156   0.616   1.980 -0.0287 -1.9580 -1.8176
  250SOL    HW2  750   1.101   0.735   1.865 -0.2561  0.7195 -0.2130
  251SOL     OW  751   0.022   1.575   2.493  0.0655  0.4570 -0.6140
  251SOL    HW1  752   0.024   1.677   2.475  2.3716 -1.1993  0.1570
  251SOL    HW2  753  -0.074   1.533   2.519  0.8523  0.8706 -1.4232
  252SOL     OW  754   1.518   0.860   1.551  0.1995 -0.0345  0.0588
  252SOL    HW1  755   1.606   0.824   1.507 -1.1388  2.8727  2.4216
  252SOL    HW2  756   1.542   0.925   1.628  0.0777 -2.5363  0.2891
  253SOL     OW  757   0.928   1.510   0.492  0.5832 -0.2655 -0.3365
  253SOL    HW1  758   0.943   1.448   0.414  2.6246 -2.0361  1.0380
  253SOL    HW2  759   0.826   1.514   0.522  2.8070 -0.3526 -2.2888
  254SOL     OW  760   2.028   2.147   1.613 -0.1522 -0.2529 -0.3099
  254SOL    HW1  761   1.980   2.087   1.543  2.8593 -2.1241  0.4811
  254SOL    HW2  762   1.964   2.197   1.677  1.1984  0.7342 -1.2358
  255SOL     OW  763   0.151   1.159   2.870  0.3500  0.0812  0.1551
  255SOL    HW1  764   0.216   1.236   2.875  1.6909 -2.0232  1.2416
  255SOL    HW2  765   0.180   1.079   2.920  0.7721  1.0442 -3.0836
  256SOL     OW  766   2.807   1.374   1.761 -0.0175  0.1187  0.3582
  256SOL    HW1  767   2.710   1.405   1.778  1.1357  0.2935 -0.6548
  256SOL    HW2  768   2.816   1.280   1.715  0.5979  0.9718  0.2888
  257SOL     OW  769   0.816   0.202   1.782 -0.3551  0.1834 -0.4023
  257SOL    HW1  770   0.862   0.282   1.739  1.1063  0.0247 -1.3931
  257SOL    HW2  771   0.883   0.124   1.779 -3.1874 -0.7350 -2.1920
  258SOL     OW  772   2.944   1.288   0.450  0.7067  0.0611 -0.3759
  258SOL    HW1  773   2.881   1.369   0.447  0.2242  1.7878  1.6781
  258SOL    HW2  774   3.005   1.303   0.537 -0.7623 -0.2073  0.3280
  259SOL     OW  775   0.462   2.955   3.062 -0.3696 -0.3069  0.5782
  259SOL    HW1  776   0.379   2.909   3.097 -1.9175  1.6604 -0.7121
  259SOL    HW2  777   0.482   2.923   2.961  0.4560 -1.6177 -0.7960
  260SOL     OW  778   2.725   0.844   2.800 -0.4527 -0.1633  0.4692
  260SOL    HW1  779   2.621   0.849   2.770 -1.6443 -0.3351  2.4693
  260SOL    HW2  780   2.735   0.873   2.899 -3.1529 -0.1439 -2.1260
  261SOL     OW  781   2.760   1.310   1.282 -0.2279  0.5252 -0.9537
  261SOL    HW1  782   2.699   1.270   1.213 -0.7922 -0.5958 -0.7858
  261SOL    HW2  783   2.823   1.236   1.327  1.2114  1.4022  1.8385
  262SOL     OW  784   1.397   2.971   2.015 -0.3689 -0.2067  0.1959
  262SOL    HW1  785   1.426   3.052   1.954  1.4153 -2.1454 -1.4027
  262SOL    HW2  786   1.303   2.934   1.988  1.0052 -0.9160  1.5902
  263SOL     OW  787   0.863   0.738   2.324 -0.3123  0.5299 -0.5173
  263SOL    HW1  788   0.823   0.647   2.290  1.5813 -0.0855  3.1464
  263SOL    HW2  789   0.905   0.791   2.243  1.2531  1.7707  2.8180
  264SOL     OW  790   2.204   0.847   0.362  0.1912  0.2046  0.8935
  264SOL    HW1  791   2.176   0.765   0.295 -0.3324 -1.6802 -3.9074
  264SOL    HW2  792   2.303   0.841   0.404  1.2073 -2.5804  2.1689
  265SOL     OW  793   0.918   2.383   2.667  0.6015 -0.1006 -0.3444
  265SOL    HW1  794   1.002   2.429   2.719 -1.0717  1.4026  0.4208
  265SOL    HW2  795   0.896   2.291   2.705 -0.0204  3.2771 -0.2784
  266SOL     OW  796   1.353   1.679   3.092  0.2046 -0.3461  0.0178
  266SOL    HW1  797   1.331   1.755   3.161 -0.5199  1.4114 -0.9653
  266SOL    HW2  798   1.431   1.713   3.025  1.4654  2.9087 -1.1630
  267SOL     OW  799   0.969   3.029   2.368  0.5740 -0.4085  0.2297
  267SOL    HW1  800   0.953   2.969   2.285  1.2219 -0.0685  0.0512
  267SOL    HW2  801   0.954   3.128   2.344 -0.6855  0.7961  0.5736
  268SOL     OW  802   0.659   1.195   1.057 -0.2445 -0.3666  0.0733
  268SOL    HW1  803   0.688   1.248   1.144 -2.1910 -0.8616 -0.8810
  268SOL    HW2  804   0.628   1.266   0.990 -1.7432 -0.6891 -1.6396
  269SOL     OW  805   2.362   2.532   1.573 -0.2495  0.0619  0.4355
  269SOL    HW1  806   2.437   2.457   1.566 -0.7650 -2.9251  1.3900
  269SOL    HW2  807   2.324   2.553   1.669 -2.4461  3.1415  0.2062
  270SOL     OW  808   0.181   2.976   1.979  0.1035 -0.3785  0.5664
  270SOL    HW1  809   0.205   2.943   1.881  1.7790 -1.3642  1.0049
  270SOL    HW2  810   0.119   2.907   2.029  1.7015 -2.9185  0.7366
  271SOL     OW  811   0.414   1.380   1.164  0.0004  0.3181  0.2976
  271SOL    HW1  812   0.398   1.376   1.058 -0.8832  0.4347 -1.1710
  271SOL    HW2  813   0.329   1.344   1.220 -0.8037 -1.1522  0.9194
  272SOL     OW  814   1.991   2.872   1.943 -0.0436  0.0231  1.1047
  272SOL    HW1  815   1.934   2.817   1.870 -0.1985  0.8814 -1.0386
  272SOL    HW2  816   2.059   2.936   1.899  1.7989  2.3462 -1.4500
  273SOL     OW  817   1.459   1.435   2.761  0.1418  0.0712 -0.3140
  273SOL    HW1  818   1.381   1.468   2.817 -1.1349 -0.7389 -0.2494
  273SOL    HW2  819   1.525   1.378   2.817  1.3710 -0.8062  0.4469
  274SOL     OW  820   1.230   0.483   2.019 -0.2555 -0.2884  0.5741
  274SOL    HW1  821   1.187   0.389   2.006  1.5541 -0.9593  0.2264
  274SOL    HW2  822   1.288   0.498   2.108  1.2302 -0.6432 -0.2514
  275SOL     OW  823   0.592   2.087   1.891 -0.0126 -0.1911 -0.0562
  275SOL    HW1  824   0.593   2.167   1.959  2.5698  1.1698  1.5182
  275SOL    HW2  825   0.503   2.026   1.888 -1.3338  2.0950  2.1399
  276SOL     OW  826   2.176   0.887   2.749  0.1052  0.6549 -0.3075
  276SOL    HW1  827   2.100   0.861   2.680  3.2433  0.0510 -0.8011
  276SOL    HW2  828   2.151   0.874   2.850 -0.0025 -0.6410  1.7930
  277SOL     OW  829   3.067   0.900   0.221 -0.0323  0.0631  0.1116
  277SOL    HW1  830   3.155   0.944   0.185  0.0736  0.9970 -1.9558
  277SOL    HW2  831   3.085   0.834   0.302 -0.3690 -0.0642  1.2972
  278SOL     OW  832   0.232   0.284   3.072 -0.2188 -0.1242 -1.0183
  278SOL    HW1  833   0.287   0.200   3.034  0.7769 -0.6802 -2.5218
  278SOL    HW2  834   0.295   0.368   3.083 -1.7152 -0.4631  0.4231
  279SOL     OW  835   0.152   0.090   0.878 -0.2256  0.5861 -0.3511
  279SOL    HW1  836   0.137   0.040   0.972  0.3437 -2.3843 -0.2021
  279SOL    HW2  837   0.228   0.047   0.822 -0.6810  2.2344 -0.4716
  280SOL     OW  838   1.561   2.960   2.435 -0.0903  0.5241 -0.3606
  280SOL    HW1  839   1.619   3.013   2.503  0.4026 -1.5353 -1.0038
  280SOL    HW2  840   1.484   3.017   2.395 -1.5999 -1.7052  0.2579
  281SOL     OW  841   0.564   0.955   2.200  0.2607  0.7128  0.0854
  281SOL    HW1  842   0.572   0.858   2.162  2.0638 -1.0754  1.6194
  281SOL    HW2  843   0.517   0.950   2.294 -1.8594  1.1336 -0.1696
  282SOL     OW  844   1.795   2.481   0.546 -0.1278  0.1392 -0.0777
  282SOL    HW1  845   1.733   2.410   0.497  0.0540  1.1039 -0.3451
  282SOL    HW2  846   1.752   2.575   0.532  0.1621 -0.8259 -0.7059
  283SOL     OW  847   1.126   0.909   0.865  0.0437 -0.7008 -0.0274
  283SOL    HW1  848   1.168   0.852   0.941  2.2253 -2.2029 -1.4437
  283SOL    HW2  849   1.077   0.996   0.891  1.8006  0.9491 -5.3770
  284SOL     OW  850   2.324   2.695   2.486 -0.8164 -0.2352  0.8661
  284SOL    HW1  851   2.368   2.771   2.425 -3.3257 -1.4526  2.1762
  284SOL    HW2  852   2.377   2.677   2.570 -2.5212 -0.1962  0.1394
  285SOL     OW  853   1.300   3.037   2.594  0.3801 -0.0683  0.6790
  285SOL    HW1  854   1.335   3.044   2.490 -0.4154  1.5564 -0.1839
  285SOL    HW2  855   1.201   3.062   2.605  1.9336  1.2228 -0.5035
  286SOL     OW  856   0.455   0.469   0.764 -0.1548 -0.4362 -0.5743
  286SOL    HW1  857   0.431   0.407   0.843 -0.2031 -1.0171  0.0116
  286SOL    HW2  858   0.443   0.427   0.669 -1.8158 -0.9538 -1.9062
  287SOL     OW  859   0.104   1.286   2.525 -0.4778  0.6030 -0.1587
  287SOL    HW1  860   0.056   1.251   2.612  1.5229 -3.9574 -0.3618
  287SOL    HW2  861   0.075   1.377   2.502  0.6752  0.2131 -1.2800
  288SOL     OW  862   1.589   2.635   1.579 -0.0511 -0.3736 -0.7249
  288SOL    HW1  863   1.597   2.603   1.679  1.5332 -1.4134  0.6683
  288SOL    HW2  864   1.679   2.651   1.542 -3.1451 -0.0256  4.2964
  289SOL     OW  865   0.652   2.713   0.877  0.4844 -0.0304  0.1406
  289SOL    HW1  866   0.692   2.783   0.813 -0.3088  0.2176  0.3757
  289SOL    HW2  867   0.602   2.760   0.960 -0.5302 -0.4699  1.6373
  290SOL     OW  868   2.797   1.092   1.701  0.3139 -0.3779  0.1637
  290SOL    HW1  869   2.709   1.040   1.690  1.6251  0.2128  1.7321
  290SOL    HW2  870   2.860   1.044   1.769 -1.8923 -0.2327 -0.1112
  291SOL     OW  871   1.982   0.055   0.066 -0.3962 -0.5879  0.1013
  291SOL    HW1  872   1.976   0.050   0.172 -0.8466 -0.7273 -2.2082
  291SOL    HW2  873   2.046   0.124   0.018 -1.6368  0.5811 -2.5203
  292SOL     OW  874   2.987   1.159   3.020 -0.3436 -0.8972 -0.3505
  292SOL    HW1  875   2.907   1.228   3.005 -2.3388 -0.7091 -1.8384
  292SOL    HW2  876   3.074   1.187   2.964  1.2931 -0.3157 -1.6975
  293SOL     OW  877   0.567   2.144   0.165 -0.0891  0.7348 -0.1202
  293SOL    HW1  878   0.519   2.197   0.242  1.2114 -1.9948 -3.0890
  293SOL    HW2  879   0.661   2.106   0.192  0.7595  0.7453  1.0715
  294SOL     OW  880   1.813   2.247   1.765  0.0547  0.6153  0.5886
  294SOL    HW1  881   1.808   2.317   1.848 -3.0972  2.4497  0.9157
  294SOL    HW2  882   1.756   2.268   1.679  0.1502 -1.0133  1.3763
  295SOL     OW  883   0.986   1.058   0.489  0.1887  0.7018 -0.6914
  295SOL    HW1  884   1.082   1.047   0.525  0.5238 -1.5488 -2.1591
  295SOL    HW2  885   0.917   1.075   0.565  4.2600 -2.6914 -2.3920
  296SOL     OW  886   1.216   2.142   2.518 -0.8104  0.6829  0.2043
  296SOL    HW1  887   1.137   2.213   2.503  1.2393  0.1419 -2.7351
  296SOL    HW2  888   1.193   2.045   2.497 -2.3898  1.2486 -0.3617
  297SOL     OW  889   1.431   0.623   1.350 -0.0537 -0.0924 -0.0518
  297SOL    HW1  890   1.399   0.521   1.337 -1.4061 -2.4761 -2.1361
  297SOL    HW2  891   1.528   0.636   1.388 -0.5338 -1.6513  0.0198
  298SOL     OW  892   0.556   1.370   2.964  0.2425 -0.6438 -0.2309
  298SOL    HW1  893   0.528   1.303   3.035 -1.1636  0.5821 -2.3601
  298SOL    HW2  894   0.582   1.325   2.867  0.8233 -0.4885 -2.5652
  299SOL     OW  895   0.476   0.275   1.312 -0.5411 -0.2048  0.1874
  299SOL    HW1  896   0.455   0.365   1.267  1.7829 -0.8025  2.6013
  299SOL    HW2  897   0.570   0.279   1.361 -2.7914 -3.2841  0.8768
  300SOL     OW  898   1.219   1.805   2.748  0.7585 -0.1496 -0.9676
  300SOL    HW1  899   1.208   1.703   2.778 -0.9449  0.6795  1.9177
  300SOL    HW2  900   1.314   1.839   2.744 -2.6756  1.6476 -1.3043
  301SOL     OW  901   0.439   0.351   0.510 -0.3051 -0.1253  0.4756
  301SOL    HW1  902   0.343   0.312   0.499 -0.7635 -3.0766 -1.7479
  301SOL    HW2  903   0.502   0.287   0.462 -0.3113 -0.1656  1.0129
  302SOL     OW  904   1.264   2.486   2.346  0.4456  0.3063 -0.0395
  302SOL    HW1  905   1.189   2.512   2.410  2.6489 -3.3574 -0.7861
  302SOL    HW2  906   1.257   2.383   2.319  1.2317 -3.2641 -0.5886
  303SOL     OW  907   0.929   2.402   0.834 -0.1203  0.2335 -0.2852
  303SOL    HW1  908   0.991   2.438   0.758 -0.9219 -2.0657 -0.7054
  303SOL    HW2  909   0.938   2.458   0.921 -1.3222 -1.2764  0.0464
  304SOL     OW  910   0.084   1.996   0.619 -0.1304 -0.1417 -0.8919
  304SOL    HW1  911   0.118   1.948   0.532  2.3710 -2.6661  0.1152
  304SOL    HW2  912   0.011   2.070   0.602 -1.3258 -0.5588 -0.0019
  305SOL     OW  913   1.642   0.895   0.571 -0.3144  0.0743 -0.3313
  305SOL    HW1  914   1.586   0.878   0.486 -1.4984  1.5344  2.6972
  305SOL    HW2  915   1.675   0.804   0.613  0.8438 -0.0880  0.4536
  306SOL     OW  916   0.427   1.857   1.915 -0.4229 -0.3352  0.0026
  306SOL    HW1  917   0.509   1.798   1.903 -1.7130 -1.6009  2.3959
  306SOL    HW2  918   0.425   1.886   2.016  1.3969 -1.7780 -2.2161
  307SOL     OW  919   3.085   0.917   2.512 -0.1690 -0.1880 -0.3491
  307SOL    HW1  920   3.079   1.000   2.579 -1.3064  1.7388  0.1583
  307SOL    HW2  921   2.997   0.858   2.519 -1.4414 -0.9407  1.3462
  308SOL     OW  922   1.571   2.680   2.797 -0.4366  0.3288 -0.3714
  308SOL    HW1  923   1.552   2.606   2.720  2.7753 -0.7917  0.8637
  308SOL    HW2  924   1.518   2.658   2.883  1.7409  0.1546  1.5460
  309SOL     OW  925   1.238   0.162   1.780  0.4347  0.2737 -0.5437
  309SOL    HW1  926   1.335   0.122   1.804  1.3602 -0.4458 -2.0352
  309SOL    HW2  927   1.211   0.151   1.680 -1.1385  1.2413 -0.7213
  310SOL     OW  928   1.507   2.536   0.681  0.0419  0.1691  0.0263
  310SOL    HW1  929   1.465   2.556   0.776 -0.3381  3.0014 -0.2727
  310SOL    HW2  930   1.547   2.620   0.637 -2.7410 -0.3133 -0.5468
  311SOL     OW  931   1.191   1.008   1.624 -0.0487 -0.4888  0.0171
  311SOL    HW1  932   1.218   0.909   1.629  0.5231  2.2051  0.1086
  311SOL    HW2  933   1.242   1.055   1.550  0.1738  0.1984  2.3369
  312SOL     OW  934   1.634   0.711   1.062  0.7265  0.4800  0.1483
  312SOL    HW1  935   1.626   0.802   1.005  0.3675 -0.2724  1.2699
  312SOL    HW2  936   1.537   0.669   1.077 -0.0529  0.8124  0.1999
  313SOL     OW  937   1.536   1.378   0.738  0.1695 -0.2894 -0.2297
  313SOL    HW1  938   1.467   1.427   0.804 -0.1785 -0.3769 -1.1657
  313SOL    HW2  939   1.488   1.298   0.696  1.8931  0.1621  0.5127
  314SOL     OW  940   2.956   0.062   3.010  0.0342  0.0661  0.3523
  314SOL    HW1  941   2.934   0.083   3.113  1.2170  1.2639  1.8381
  314SOL    HW2  942   2.881  -0.000   2.974 -1.2162  0.5273  2.4990
  315SOL     OW  943   1.221   0.204   2.770 -0.0837 -0.4573 -0.6078
  315SOL    HW1  944   1.224   0.147   2.680 -0.9632  2.1384  0.8490
  315SOL    HW2  945   1.236   0.152   2.856 -0.8977  0.7490 -0.4325
  316SOL     OW  946   1.723   2.043   0.851  0.3653  0.4375  0.2226
  316SOL    HW1  947   1.681   2.054   0.947  0.3281  0.0393  1.8217
  316SOL    HW2  948   1.749   2.131   0.808  1.4188 -0.6345  0.4885
  317SOL     OW  949   1.132   0.650   2.892  0.1080 -0.2190  0.0844
  317SOL    HW1  950   1.079   0.712   2.955  1.2402 -0.4935 -3.1444
  317SOL    HW2  951   1.096   0.552   2.876 -2.2001 -3.0619 -0.4621
  318SOL     OW  952   1.361   3.091   2.319 -0.0259 -0.3809 -0.0652
  318SOL    HW1  953   1.359   3.195   2.328  1.3865  0.1662 -2.6345
  318SOL    HW2  954   1.355   3.070   2.220  1.0502  1.5992  1.5465
  319SOL     OW  955   0.698   2.395   2.919 -0.7448 -0.4476  0.2105
  319SOL    HW1  956   0.617   2.347   2.966 -1.4371 -0.4838  1.0169
  319SOL    HW2  957   0.786   2.392   2.977  0.9477 -0.2366 -1.5898
  320SOL     OW  958   1.701   2.266   0.406 -0.0591  0.0006 -0.1420
  320SOL    HW1  959   1.780   2.205   0.385 -4.6043  0.5548  0.7685
  320SOL    HW2  960   1.613   2.213   0.436 -2.7025 -0.4916  0.6229
  321SOL     OW  961   1.619   2.747   0.507 -0.3438  0.1853  0.3339
  321SOL    HW1  962   1.572   2.771   0.416 -1.6157 -1.2278 -0.8882
  321SOL    HW2  963   1.709   2.795   0.510  0.3900 -2.1958  2.3127
  322SOL     OW  964   2.585   1.154   2.372  0.1716 -0.3384 -0.4099
  322SOL    HW1  965   2.673   1.183   2.418 -2.4092  0.7765  0.0728
  322SOL    HW2  966   2.580   1.056   2.345 -2.3039 -0.2125  2.7663
  323SOL     OW  967   1.172   2.645   0.857 -0.1538  0.4966 -0.6998
  323SOL    HW1  968   1.150   2.606   0.762 -1.7949 -1.7347  0.1861
  323SOL    HW2  969   1.158   2.747   0.860 -2.0518  1.5250 -0.9362
  324SOL     OW  970   0.262   2.479   2.520  0.0223 -0.4023  0.1039
  324SOL    HW1  971   0.317   2.428   2.594  0.6681 -0.8234  2.1827
  324SOL    HW2  972   0.177   2.528   2.557 -0.6834  1.5973  3.0622
  325SOL     OW  973   1.283   3.060   0.491  0.3174 -0.0364 -0.0432
  325SOL    HW1  974   1.310   3.133   0.418  0.5996  0.0467 -1.5194
  325SOL    HW2  975   1.308   3.090   0.589  0.2248  2.1660  2.0377
  326SOL     OW  976   2.470   0.800   3.055  0.0142 -0.0089 -0.3166
  326SOL    HW1  977   2.415   0.743   2.989 -1.2923 -0.0080  1.5108
  326SOL    HW2  978   2.525   0.741   3.120  1.5060 -1.2535  0.3677
  327SOL     OW  979   2.847   0.348   0.637 -0.2502 -0.1619  0.2474
  327SOL    HW1  980   2.848   0.319   0.535  1.3967 -0.0399  3.0686
  327SOL    HW2  981   2.878   0.276   0.708 -0.7290  0.0236  1.1015
  328SOL     OW  982   2.575   0.572   0.395  0.0214  0.3130  0.0374
  328SOL    HW1  983   2.534   0.665   0.376  1.4318  2.2349  1.0630
  328SOL    HW2  984   2.549   0.530   0.484 -0.4642 -1.1010  1.4796
  329SOL     OW  985   2.967   2.924   2.134 -0.2727  0.5340  0.0812
  329SOL    HW1  986   3.050   2.870   2.166  0.4488 -1.0838 -2.5193
  329SOL    HW2  987   2.952   3.012   2.180 -0.7963 -1.3117  4.3401
  330SOL     OW  988   0.558   0.134   1.885 -0.5152  0.1537 -0.5144
  330SOL    HW1  989   0.650   0.124   1.847 -2.1404  0.3403 -0.0486
  330SOL    HW2  990   0.546   0.079   1.970 -0.7884  2.5552 -2.4241
  331SOL     OW  991   2.996   1.900   1.165  0.2027  0.2144  0.2190
  331SOL    HW1  992   3.036   1.983   1.114  1.5815  1.0569  0.7505
  331SOL    HW2  993   2.899   1.923   1.203 -0.0571 -3.3277  0.7514
  332SOL     OW  994   0.421   1.170   3.096 -0.4176  0.1901  0.7513
  332SOL    HW1  995   0.351   1.108   3.044 -0.8470  0.4363 -2.7622
  332SOL    HW2  996   0.382   1.196   3.189 -0.0068 -1.0185 -0.7705
  333SOL     OW  997   2.856   1.034   0.333 -0.9232 -0.7982 -0.0188
  333SOL    HW1  998   2.895   1.109   0.393 -1.6318 -0.4942 -1.3246
  333SOL    HW2  999   2.930   0.965   0.292  0.7162  2.7113 -1.8470
  334SOL     OW 1000   1.678   1.286   1.839 -0.3104  0.4749 -0.0083
  334SOL    HW1 1001   1.757   1.238   1.795 -2.3108 -1.4474 -0.7660
  334SOL    HW2 1002   1.694   1.290   1.940  0.4273  0.9564 -1.6308
  335SOL     OW 1003   1.999   2.728   2.602 -0.2452  0.0646  0.1565
  335SOL    HW1 1004   1.932   2.746   2.679  2.7957 -0.0400  0.6399
  335SOL    HW2 1005   2.089   2.778   2.614 -2.5851  0.2383  0.3244
  336SOL     OW 1006   0.252   0.182   2.800 -0.7525 -0.0740  0.6459
  336SOL    HW1 1007   0.342   0.174   2.851  0.6973  0.2309 -1.5607
  336SOL    HW2 1008   0.187   0.257   2.830  0.6678 -1.0809 -0.9510
  337SOL     OW 1009   0.926   2.821   2.841 -0.3663  0.5492  0.1820
  337SOL    HW1 1010   0.925   2.762   2.929 -1.5726 -1.4107  0.6426
  337SOL    HW2 1011   1.020   2.818   2.798  0.3683  2.1742  1.6345
  338SOL     OW 1012   0.008   1.025   0.613  0.1008 -0.4056 -0.3018
  338SOL    HW1 1013  -0.089   0.999   0.630 -0.8829 -0.9368 -0.6569
  338SOL    HW2 1014   0.022   1.126   0.630  2.6470  0.2770 -0.5535
  339SOL     OW 1015   1.697   1.341   2.123  0.3091  0.5989  0.3398
  339SOL    HW1 1016   1.598   1.364   2.143  1.1510 -0.9214 -1.0364
  339SOL    HW2 1017   1.770   1.417   2.132 -0.2951 -1.1167  0.4928
  340SOL     OW 1018   2.355   0.794   1.117 -0.2924 -0.2761 -0.3207
  340SOL    HW1 1019   2.255   0.828   1.116 -1.8859 -0.4365  3.0620
  340SOL    HW2 1020   2.371   0.706   1.069  1.6413  0.9623  1.0412
  341SOL     OW 1021   1.901   2.101   0.337  0.0327  0.3658 -0.4630
  341SOL    HW1 1022   1.913   2.157   0.248  1.5467  2.0241  2.8368
  341SOL    HW2 1023   1.988   2.054   0.372 -0.3747 -1.0250  1.4530
  342SOL     OW 1024   2.264   2.119   2.708  0.2840  0.3830 -0.0372
  342SOL    HW1 1025   2.303   2.041   2.766 -1.8644 -0.8171  1.9247
  342SOL    HW2 1026   2.159   2.119   2.703 -0.2742 -1.1772  1.3859
  343SOL     OW 1027   0.343   0.881   2.732 -0.4858 -0.3142 -0.4956
  343SOL    HW1 1028   0.356   0.897   2.630 -1.4043  3.0837  2.6897
  343SOL    HW2 1029   0.435   0.900   2.786 -0.2518  1.1513 -0.3430
  344SOL     OW 1030   1.900   1.436   0.396 -0.0299 -0.5594  0.3913
  344SOL    HW1 1031   1.898   1.384   0.305  1.4815 -0.3121 -0.0101
  344SOL    HW2 1032   1.807   1.448   0.444 -0.8649  0.4113  0.4866
  345SOL     OW 1033   1.432   2.235   2.923  0.0577  0.2675 -0.1055
  345SOL    HW1 1034   1.343   2.188   2.901 -1.3242 -0.5351 -0.9835
  345SOL    HW2 1035   1.514   2.196   2.871  1.5472 -1.0124 -0.3809
  346SOL     OW 1036   2.369   0.867   1.394  0.2202 -0.2764 -0.5314
  346SOL    HW1 1037   2.322   0.952   1.427  0.3307 -0.3651 -3.4455
  346SOL    HW2 1038   2.356   0.843   1.293  0.3771 -2.0271  0.1588
  347SOL     OW 1039   0.757   2.820   1.522 -0.0198 -0.7512  0.0578
  347SOL    HW1 1040   0.700   2.766   1.594  0.2581  0.5364  0.8090
  347SOL    HW2 1041   0.723   2.918   1.512 -0.4968  0.9237  1.2654
  348SOL     OW 1042   0.222   0.671   2.868  0.3600  0.0433  0.3309
  348SOL    HW1 1043   0.116   0.672   2.849  0.1725  0.3678 -0.2709
  348SOL    HW2 1044   0.282   0.730   2.805  1.1765  3.6263 -1.7214
  349SOL     OW 1045   1.885   0.445   2.801  0.1134 -0.3180 -0.1707
  349SOL    HW1 1046   1.868   0.528   2.743 -0.2466 -1.6965 -0.3030
  349SOL    HW2 1047   1.861   0.470   2.902  1.2472 -1.1108  1.2871
  350SOL     OW 1048   1.647   0.403   0.353 -0.1495  0.1116  0.0707
  350SOL    HW1 1049   1.708   0.396   0.434 -1.5209  0.2545  0.1619
  350SOL    HW2 1050   1.595   0.491   0.344 -1.2567  0.9232  0.4691
  351SOL     OW 1051   0.995   0.864   2.140 -0.2188  0.0926  0.2753
  351SOL    HW1 1052   0.983   0.964   2.110  0.5549  2.5779  5.1044
  351SOL    HW2 1053   1.042   0.803   2.073 -5.5348  0.5474 -0.7350
  352SOL     OW 1054   2.046   1.311   0.659 -0.5542 -0.2183  0.5552
  352SOL    HW1 1055   2.062   1.351   0.564 -0.8951  4.1059 -0.3502
  352SOL    HW2 1056   1.953   1.289   0.670  1.6509 -0.4528 -1.8955
  353SOL     OW 1057   2.163   2.812   1.039  0.0231 -0.0607  0.1709
  353SOL    HW1 1058   2.202   2.777   1.132  0.6232 -1.7521  2.2630
  353SOL    HW2 1059   2.064   2.775   1.034 -1.8832 -2.5375  2.4321
  354SOL     OW 1060   0.286   1.398   2.875 -0.3888 -0.3427  0.6135
  354SOL    HW1 1061   0.251   1.471   2.809 -2.0888  0.5961  1.0504
  354SOL    HW2 1062   0.388   1.391   2.891 -1.8758 -1.0849  1.4326
  355SOL     OW 1063   0.598   1.522   0.597  0.5329  0.5562  0.3093
  355SOL    HW1 1064   0.570   1.532   0.697  2.0763  1.0307  1.1750
  355SOL    HW2 1065   0.621   1.426   0.569 -0.1899  0.1429  0.9553
  356SOL     OW 1066   0.879   0.293   2.095 -0.5067  0.5056 -0.6159
  356SOL    HW1 1067   0.984   0.280   2.096 -1.0406  0.2681  0.2790
  356SOL    HW2 1068   0.835   0.264   2.008  1.2786  2.0105  3.0907
  357SOL     OW 1069   0.993   1.285   0.328 -0.0388  0.6199  0.3364
  357SOL    HW1 1070   0.978   1.244   0.231 -0.3681 -0.7748  0.8833
  357SOL    HW2 1071   1.000   1.213   0.403 -2.0210  1.5008 -1.3817
  358SOL     OW 1072   1.642   1.489   0.486 -0.5138 -0.0008  0.2291
  358SOL    HW1 1073   1.582   1.472   0.572  0.6827  1.9688  2.2049
  358SOL    HW2 1074   1.588   1.468   0.398  0.5001  0.0003  1.2932
  359SOL     OW 1075   1.572   2.640   0.180 -0.3182  0.0303  0.5155
  359SOL    HW1 1076   1.563   2.536   0.155  0.2316  0.2353 -0.9338
  359SOL    HW2 1077   1.515   2.699   0.119 -1.4376  0.3203 -1.3981
  360SOL     OW 1078   0.876   0.571   0.591  0.3193  0.1970  0.0664
  360SOL    HW1 1079   0.791   0.597   0.643 -0.4466  1.0163 -1.0769
  360SOL    HW2 1080   0.901   0.468   0.600 -0.9016 -2.9577 -0.4150
  361SOL     OW 1081   1.216   1.312   0.746 -0.2552 -0.1690 -0.6261
  361SOL    HW1 1082   1.291   1.378   0.785  1.3320  0.5093  0.0998
  361SOL    HW2 1083   1.126   1.361   0.721  0.9241  0.1358  1.6756
  362SOL     OW 1084   1.381   1.845   0.782  0.1279 -0.2268  0.2778
  362SOL    HW1 1085   1.445   1.818   0.857 -0.4024 -0.2395  0.1828
  362SOL    HW2 1086   1.431   1.853   0.692  2.4033 -0.8776  0.2885
  363SOL     OW 1087   1.220   1.253   2.048 -0.2746 -0.2401  0.1973
  363SOL    HW1 1088   1.309   1.272   2.094 -0.0447  0.1616  0.8951
  363SOL    HW2 1089   1.185   1.336   2.000  0.3822  1.3929  2.6275
  364SOL     OW 1090   0.502   2.330   1.991  0.0083  0.2922 -0.5631
  364SOL    HW1 1091   0.406   2.369   2.007  0.4719  2.7409  0.4627
  364SOL    HW2 1092   0.546   2.367   1.906  0.9047  0.3190 -0.9862
  365SOL     OW 1093   1.013   1.881   1.415 -0.1026 -0.2191  0.4005
  365SOL    HW1 1094   0.934   1.943   1.392  1.1700  1.6524  2.9758
  365SOL    HW2 1095   1.041   1.825   1.329  1.7717  0.9180 -1.4306
  366SOL     OW 1096   2.780   2.057   0.455  0.4041 -0.5934  0.0526
  366SOL    HW1 1097   2.691   2.011   0.491 -0.3037 -1.5020 -1.9378
  366SOL    HW2 1098   2.832   2.005   0.388  0.3970  0.1436  2.2345
  367SOL     OW 1099   0.953   1.145   0.112 -0.4004 -0.2638  0.8926
  367SOL    HW1 1100   0.989   1.061   0.164  1.6328 -1.2323 -0.2682
  367SOL    HW2 1101   1.014   1.171   0.033 -0.7596  0.3301  0.8663
  368SOL     OW 1102   1.461   0.538   0.748 -0.7246 -0.0862 -0.3003
  368SOL    HW1 1103   1.390   0.560   0.675 -2.5572 -2.0166  3.6449
  368SOL    HW2 1104   1.551   0.585   0.736 -0.4396 -1.4568  3.1164
  369SOL     OW 1105   0.312   1.736   0.072  0.7838  0.1352  0.3302
  369SOL    HW1 1106   0.363   1.802   0.132 -0.2635 -3.4878  1.0268
  369SOL    HW2 1107   0.244   1.679   0.126  2.0815 -1.8065 -0.3628
  370SOL     OW 1108   0.457   2.080   0.965  0.7239  0.3055  0.0772
  370SOL    HW1 1109   0.456   2.180   0.962  3.5729 -2.2165  0.0901
  370SOL    HW2 1110   0.371   2.033   0.931 -0.9007  0.9520 -1.3667
  371SOL     OW 1111   2.933   2.175   2.660  0.4194  0.1248 -0.2036
  371SOL    HW1 1112   2.863   2.121   2.723  0.5642  1.0365  1.7574
  371SOL    HW2 1113   3.019   2.210   2.709 -0.7739  1.1804  1.5667
  372SOL     OW 1114   1.123   1.997   1.097 -0.0644  0.4391 -0.5869
  372SOL    HW1 1115   1.060   2.015   1.018  0.6017 -1.9262 -1.1661
  372SOL    HW2 1116   1.148   2.076   1.157 -0.9061  0.2865 -0.0996
  373SOL     OW 1117   2.015   1.994   0.863 -0.1266  0.2291 -0.3653
  373SOL    HW1 1118   2.085   2.010   0.939 -1.4035  1.2097 -0.7221
  373SOL    HW2 1119   1.916   1.994   0.893  2.2201  0.5506  0.1606
  374SOL     OW 1120   1.821   0.422   0.582  0.5263 -0.3574  0.2788
  374SOL    HW1 1121   1.860   0.378   0.673 -1.9824  1.4466  2.3819
  374SOL    HW2 1122   1.889   0.465   0.521  1.9201  2.9628 -0.6476
  375SOL     OW 1123   2.442   2.194   1.124 -0.3684 -0.2730 -0.4726
  375SOL    HW1 1124   2.537   2.197   1.085  0.4328 -0.2716  0.5500
  375SOL    HW2 1125   2.446   2.163   1.224  0.7840 -0.5799  0.8087
  376SOL     OW 1126   3.075   0.549   1.482  0.0679 -0.3571 -0.2083
  376SOL    HW1 1127   3.089   0.634   1.542  0.7811  0.6877  0.7945
  376SOL    HW2 1128   2.975   0.530   1.466  0.1346  2.1396  0.5884
  377SOL     OW 1129   2.235   2.846   0.334  0.4207  0.3056 -0.5574
  377SOL    HW1 1130   2.209   2.939   0.379 -1.0429 -1.6782  0.4044
  377SOL    HW2 1131   2.337   2.828   0.352  0.9591 -1.9105 -0.4879
  378SOL     OW 1132   1.883   1.862   2.590  0.1583  0.4004 -0.4486
  378SOL    HW1 1133   1.888   1.811   2.685 -0.0900 -0.4803  0.2793
  378SOL    HW2 1134   1.849   1.800   2.509  1.6602 -1.5647  0.6401
  379SOL     OW 1135   0.768   0.150   2.815 -0.5891  0.3131  0.2972
  379SOL    HW1 1136   0.695   0.089   2.770 -2.5345  0.9660 -0.6915
  379SOL    HW2 1137   0.801   0.217   2.750  0.8065 -0.8727  4.2053
  380SOL     OW 1138   1.501   1.140   0.555  0.2946 -0.3430 -0.3807
  380SOL    HW1 1139   1.397   1.125   0.547 -3.8641  2.0981 -0.0985
  380SOL    HW2 1140   1.551   1.045   0.544 -1.2332 -1.6206 -1.2060
  381SOL     OW 1141   1.380   1.170   1.470  0.6181  0.0489 -0.5227
  381SOL    HW1 1142   1.406   1.136   1.375  0.6174 -0.5946 -0.1994
  381SOL    HW2 1143   1.443   1.125   1.540  0.9223 -1.8725  2.0482
  382SOL     OW 1144   1.790   0.824   0.162 -0.4450 -0.0769  0.1841
  382SOL    HW1 1145   1.826   0.816   0.065  0.0966  0.6269  0.8777
  382SOL    HW2 1146   1.845   0.872   0.230  0.0822 -2.8290  0.5077
  383SOL     OW 1147   2.625   0.988   1.450 -0.5234 -0.2491 -0.6558
  383SOL    HW1 1148   2.532   0.961   1.426 -0.6761 -1.1015  1.6270
  383SOL    HW2 1149   2.694   0.980   1.369  0.9310 -0.6225  1.5967
  384SOL     OW 1150   0.880   2.328   0.138 -0.1675 -0.0978  0.0493
  384SOL    HW1 1151   0.885   2.393   0.221  2.1824  1.5813 -0.5995
  384SOL    HW2 1152   0.853   2.230   0.161 -2.0259  1.1179 -0.6495
  385SOL     OW 1153   3.028   2.000   1.707 -0.1136  0.0078 -0.1913
  385SOL    HW1 1154   3.101   2.059   1.663  0.7163 -3.0451  0.8012
  385SOL    HW2 1155   3.059   1.902   1.714  1.3543 -0.2184 -1.5618
  386SOL     OW 1156   0.454   1.086   0.425  0.4023  0.5281 -0.4236
  386SOL    HW1 1157   0.435   0.986   0.442  1.1148 -1.6297  1.1418
  386SOL    HW2 1158   0.403   1.129   0.341  0.0999 -0.4520 -0.8601
  387SOL     OW 1159   0.910   0.403   1.610 -0.0474 -0.3069 -0.3225
  387SOL    HW1 1160   0.997   0.462   1.594 -0.3297  0.3590  0.4692
  387SOL    HW2 1161   0.905   0.327   1.538 -1.4571 -0.9852 -2.3710
  388SOL     OW 1162   1.180   2.631   1.767  0.3483 -0.5433 -0.2653
  388SOL    HW1 1163   1.239   2.619   1.680 -1.0647 -0.0934 -2.5279
  388SOL    HW2 1164   1.218   2.585   1.855 -1.9403 -3.9830  1.9679
  389SOL     OW 1165   0.177   3.020   1.094 -0.4370 -0.2864 -0.0243
  389SOL    HW1 1166   0.089   3.043   1.145 -0.7720 -0.9689 -0.9806
  389SOL    HW2 1167   0.211   2.921   1.102  3.5844  0.9246 -0.0716
  390SOL     OW 1168   0.993   0.955   1.295  0.2944 -0.5161  0.0494
  390SOL    HW1 1169   0.975   0.882   1.368 -0.8222  1.6019  0.4961
  390SOL    HW2 1170   0.976   1.048   1.340  0.6551 -0.2241  1.7140
  391SOL     OW 1171   2.094   1.187   1.002 -0.3727  0.1994  0.2571
  391SOL    HW1 1172   2.010   1.129   1.025  2.3122 -0.6969 -1.3333
  391SOL    HW2 1173   2.151   1.136   0.932  3.3014 -1.1524  0.8300
  392SOL     OW 1174   0.903   2.659   3.052 -0.2581  0.2177 -0.5408
  392SOL    HW1 1175   0.821   2.638   3.115 -1.2150  0.3409  0.6409
  392SOL    HW2 1176   0.987   2.693   3.109  0.4451  0.7685 -2.2451
  393SOL     OW 1177   0.384   0.479   1.998 -0.5786  0.3022 -0.4619
  393SOL    HW1 1178   0.318   0.403   1.971 -0.2786  1.0605  1.9417
  393SOL    HW2 1179   0.467   0.496   1.934  1.4743  2.2545 -0.2331
  394SOL     OW 1180   2.975   1.835   2.773 -0.7951  0.5996  0.3449
  394SOL    HW1 1181   3.063   1.873   2.818  0.6916 -0.3048  1.2782
  394SOL    HW2 1182   2.979   1.837   2.671  0.0008  1.6274  1.9868
  395SOL     OW 1183   1.613   1.894   0.628  0.2949 -0.2344 -0.5283
  395SOL    HW1 1184   1.672   1.835   0.568  1.2828  1.3345 -0.3075
  395SOL    HW2 1185   1.670   1.920   0.708  2.2064 -2.5062 -0.8167
  396SOL     OW 1186   2.762   1.965   1.297 -0.4278  0.0818  0.0821
  396SOL    HW1 1187   2.665   1.998   1.305  0.1792  0.5880 -1.0907
  396SOL    HW2 1188   2.790   1.922   1.383  1.3265  0.8388  2.5772
  397SOL     OW 1189   1.004   2.178   0.533 -0.5704  0.5470 -0.6492
  397SOL    HW1 1190   0.921   2.117   0.508  2.5052 -0.2611 -0.6269
  397SOL    HW2 1191   0.994   2.231   0.618 -2.6055 -1.4292  0.9216
  398SOL     OW 1192   2.193   0.027   1.026 -1.0857 -0.5397  0.3601
  398SOL    HW1 1193   2.181  -0.073   1.020 -2.7383  1.7579 -1.4046
  398SOL    HW2 1194   2.118   0.071   1.092 -3.0337  1.3088  4.4691
  399SOL     OW 1195   2.923   2.526   2.752  0.4668 -0.4079 -0.3325
  399SOL    HW1 1196   2.893   2.467   2.670  1.2470 -1.1905 -0.8790
  399SOL    HW2 1197   2.856   2.514   2.826  1.7536 -0.7741 -4.3898
  400SOL     OW 1198   0.764   1.598   1.306  0.3578  0.1313  0.2578
  400SOL    HW1 1199   0.720   1.622   1.401  2.4962 -1.5661  1.5819
  400SOL    HW2 1200   0.758   1.680   1.247 -0.4831 -0.1457  0.8404
  401SOL     OW 1201   1.848   0.104   1.359 -0.0843 -0.5359 -0.1916
  401SOL    HW1 1202   1.895   0.112   1.454 -0.2013  3.7729  2.9469
  401SOL    HW2 1203   1.746   0.102   1.370  0.4479 -2.4995 -0.6143
  402SOL     OW 1204   1.325   0.099   3.062 -0.0890 -0.1899 -0.1151
  402SOL    HW1 1205   1.409   0.095   2.997  1.0952  0.1462 -0.3693
  402SOL    HW2 1206   1.323   0.193   3.107  0.2191 -3.1824 -1.8554
  403SOL     OW 1207   2.293   1.833   0.898  0.1833 -0.4602  0.0725
  403SOL    HW1 1208   2.393   1.831   0.924 -1.6936  1.1208 -2.3078
  403SOL    HW2 1209   2.234   1.901   0.948 -0.2347  0.4667 -0.0161
  404SOL     OW 1210   0.183   2.484   2.824 -0.2180  0.1089 -0.5211
  404SOL    HW1 1211   0.283   2.470   2.817 -2.2806 -1.0504 -0.8577
  404SOL    HW2 1212   0.150   2.576   2.854 -1.8167  1.1738 -0.7422
  405SOL     OW 1213   0.175   2.421   0.584 -0.3374 -0.2636  0.4912
  405SOL    HW1 1214   0.161   2.386   0.487  2.3626 -0.4398  2.3140
  405SOL    HW2 1215   0.242   2.504   0.579  0.0457 -0.6518 -0.6691
  406SOL     OW 1216   0.029   1.463   2.973  0.4786  0.2348  0.2635
  406SOL    HW1 1217   0.119   1.447   2.930 -3.6279  1.9610  2.3854
  406SOL    HW2 1218   0.036   1.500   3.074  0.2273  0.4467  0.1202
  407SOL     OW 1219   1.577   0.915   0.901 -0.6269 -0.0549  0.3295
  407SOL    HW1 1220   1.581   0.887   0.805  1.5130  3.4757  0.3119
  407SOL    HW2 1221   1.510   0.995   0.919 -0.0485  2.5181 -0.2220
  408SOL     OW 1222   1.609   2.384   0.942 -0.0474  0.1413 -0.8105
  408SOL    HW1 1223   1.678   2.366   0.858  1.2826  0.3600 -1.0655
  408SOL    HW2 1224   1.563   2.471   0.933  2.6287 -0.0057 -0.9479
  409SOL     OW 1225   0.594   0.883   0.738  0.5634 -0.0995 -0.4442
  409SOL    HW1 1226   0.541   0.879   0.645 -0.1363 -0.6195 -0.0521
  409SOL    HW2 1227   0.609   0.791   0.779  0.3111  1.6844  0.7291
  410SOL     OW 1228   1.273   2.013   1.406 -0.3653 -0.4082  0.1267
  410SOL    HW1 1229   1.345   1.978   1.473  0.9471  1.0166 -0.2823
  410SOL    HW2 1230   1.180   1.965   1.414  4.9719  2.8121  1.1469
  411SOL     OW 1231   2.515   1.886   3.053  1.2563 -0.4284 -0.2927
  411SOL    HW1 1232   2.449   1.894   2.972 -0.3702 -0.8306 -0.5577
  411SOL    HW2 1233   2.610   1.861   3.021  1.2234 -0.8772 -0.5735
  412SOL     OW 1234   1.484   2.518   2.198  0.3980  0.9943 -0.3377
  412SOL    HW1 1235   1.544   2.596   2.222 -0.6658  1.1898 -0.4266
  412SOL    HW2 1236   1.408   2.510   2.267 -0.8451  0.8548 -0.8697
  413SOL     OW 1237   3.095   0.272   2.935  0.0981  0.1790  0.2498
  413SOL    HW1 1238   3.019   0.205   2.955  0.7128  2.3190  0.7843
  413SOL    HW2 1239   3.176   0.266   3.003  2.9923  0.4655 -1.2485
  414SOL     OW 1240   1.784   1.485   1.350 -0.3382  0.3008 -0.4578
  414SOL    HW1 1241   1.702   1.519   1.399  1.1810 -0.9394  0.2780
  414SOL    HW2 1242   1.771   1.435   1.258 -0.2955  0.6916 -0.1347
  415SOL     OW 1243   0.285   2.216   0.704  0.1111 -0.3643  0.0687
  415SOL    HW1 1244   0.236   2.294   0.654 -1.9191  1.4244 -0.4140
  415SOL    HW2 1245   0.265   2.124   0.669  2.2845  0.6312  1.8360
  416SOL     OW 1246   0.351   1.066   1.063  0.2554 -0.0841 -0.2372
  416SOL    HW1 1247   0.337   1.006   0.980  0.1405 -2.3796 -0.0112
  416SOL    HW2 1248   0.449   1.098   1.063 -1.3465  0.7002  0.8210
  417SOL     OW 1249   2.113   2.322   1.884  0.1979 -0.3773  0.1407
  417SOL    HW1 1250   2.123   2.217   1.891  1.0418 -1.6389  3.4683
  417SOL    HW2 1251   2.025   2.354   1.927 -0.3369 -0.6927  0.5717
  418SOL     OW 1252   1.131   0.506   1.264  0.4270 -0.2793  0.6314
  418SOL    HW1 1253   1.042   0.460   1.231  1.2182 -0.7969  3.2136
  418SOL    HW2 1254   1.162   0.590   1.220 -2.3686 -1.8847  0.0047
  419SOL     OW 1255   1.010   0.363   3.035 -0.8175 -0.0657  0.0027
  419SOL    HW1 1256   1.018   0.388   2.938  2.3646  0.1116  3.3118
  419SOL    HW2 1257   0.924   0.313   3.058  0.5229  2.2332  1.3410
  420SOL     OW 1258   0.152   2.248   0.360 -0.1574  0.6136  0.2209
  420SOL    HW1 1259   0.181   2.204   0.270  0.1620 -1.6737 -0.4227
  420SOL    HW2 1260   0.062   2.209   0.396 -0.5914  0.8558 -0.5234
  421SOL     OW 1261   0.318   3.043   0.689  0.2863 -0.3888 -0.1856
  421SOL    HW1 1262   0.297   2.948   0.723  3.0746  0.7439 -0.4829
  421SOL    HW2 1263   0.416   3.054   0.658  1.7248 -2.8917 -0.3078
  422SOL     OW 1264   0.979   2.582   1.035  0.4026  0.8633  0.0516
  422SOL    HW1 1265   1.053   2.611   0.960  1.0181  0.6995 -0.9460
  422SOL    HW2 1266   1.003   2.616   1.133 -0.0493  1.2558 -0.5940
  423SOL     OW 1267   0.107   0.701   1.268 -0.3752  0.1405  0.3996
  423SOL    HW1 1268   0.073   0.653   1.354 -0.0483  3.7403 -1.1878
  423SOL    HW2 1269   0.044   0.766   1.226  1.0437 -0.3472 -0.8404
  424SOL     OW 1270   1.017   2.227   2.049  0.0746  0.1423 -0.0584
  424SOL    HW1 1271   0.973   2.312   2.012  1.3375 -0.1496 -2.0157
  424SOL    HW2 1272   1.065   2.236   2.141  0.7434  0.9133  0.5373
  425SOL     OW 1273   1.983   1.455   0.940  0.2595 -0.0929 -0.2070
  425SOL    HW1 1274   2.031   1.365   0.947  0.4199  0.6958  1.5123
  425SOL    HW2 1275   2.052   1.519   0.901 -0.9200 -1.7145  1.4099
  426SOL     OW 1276   1.493   1.526   1.407  0.0459  0.1158 -0.1540
  426SOL    HW1 1277   1.467   1.613   1.361  0.1285  0.2227 -1.3372
  426SOL    HW2 1278   1.458   1.524   1.501  2.3479 -1.2238 -1.8020
  427SOL     OW 1279   1.864   2.360   2.026 -0.1001 -0.6776  0.0089
  427SOL    HW1 1280   1.901   2.293   2.093 -0.9914  0.5825 -0.6877
  427SOL    HW2 1281   1.885   2.457   2.059  2.1497 -2.2489 -1.6098
  428SOL     OW 1282   0.876   2.948   0.194  0.4142  0.9744  0.3726
  428SOL    HW1 1283   0.936   3.027   0.226  0.0800  0.0039  3.4961
  428SOL    HW2 1284   0.942   2.876   0.157  1.7301 -0.3098 -0.8432
  429SOL     OW 1285   1.311   0.091   0.258  0.5253 -0.1344 -0.4736
  429SOL    HW1 1286   1.404   0.142   0.258  0.5463  2.7888  0.4887
  429SOL    HW2 1287   1.294   0.032   0.177  1.5495  0.4162 -1.3888
  430SOL     OW 1288   2.705   1.459   0.392  0.1098 -0.4440  0.1065
  430SOL    HW1 1289   2.769   1.503   0.320  0.5822  0.6321 -0.1750
  430SOL    HW2 1290   2.722   1.490   0.489  2.5385  0.7730 -2.0337
  431SOL     OW 1291   2.140   1.628   0.824 -0.1584 -0.1887 -0.5680
  431SOL    HW1 1292   2.195   1.716   0.840  0.0389 -0.0941  0.2459
  431SOL    HW2 1293   2.063   1.647   0.757  1.2717  0.1723  0.1809
  432SOL     OW 1294   2.863   2.229   1.264 -0.2820 -0.0709 -0.0228
  432SOL    HW1 1295   2.814   2.137   1.289 -2.3167 -3.9097  1.6071
  432SOL    HW2 1296   2.915   2.275   1.344  1.6970  2.3259 -0.2588
  433SOL     OW 1297   1.923   0.362   0.842  0.1997  0.1003  0.0939
  433SOL    HW1 1298   1.853   0.331   0.911  1.8680 -1.2463  1.0796
  433SOL    HW2 1299   2.010   0.305   0.843 -0.1040 -0.1572  1.4264
  434SOL     OW 1300   1.565   0.259   0.790 -0.0538  0.2341  0.7356
  434SOL    HW1 1301   1.541   0.361   0.765 -0.4549  3.0061  1.3090
  434SOL    HW2 1302   1.610   0.252   0.886 -1.7015  0.2199 -2.2565
  435SOL     OW 1303   1.428   1.417   2.130 -1.2144  0.0042  0.1301
  435SOL    HW1 1304   1.371   1.451   2.208  2.5264 -1.0988  1.3041
  435SOL    HW2 1305   1.465   1.496   2.074  1.5453  0.5560 -4.5610
  436SOL     OW 1306   1.677   2.734   2.325  0.2069 -0.9021 -0.8659
  436SOL    HW1 1307   1.626   2.815   2.365  1.0787  0.1582 -2.0812
  436SOL    HW2 1308   1.685   2.657   2.393  0.0764  3.9105 -0.6135
  437SOL     OW 1309   1.115   2.898   0.912 -0.1616 -0.6560  0.4402
  437SOL    HW1 1310   1.060   2.966   0.862  1.2359 -1.2202  0.4449
  437SOL    HW2 1311   1.068   2.876   1.002  1.9899 -1.0352  0.2196
  438SOL     OW 1312   1.063   2.577   1.313  0.1333 -0.3079  0.0705
  438SOL    HW1 1313   1.113   2.619   1.390  0.6116 -2.6844 -0.5674
  438SOL    HW2 1314   1.031   2.482   1.346  0.4595 -0.7541  1.3357
  439SOL     OW 1315   0.724   1.767   1.091  0.1653 -0.0863 -0.0885
  439SOL    HW1 1316   0.749   1.850   1.034 -0.9225 -1.7898 -3.0006
  439SOL    HW2 1317   0.622   1.735   1.078 -0.2977  0.1834 -0.0461
  440SOL     OW 1318   0.970   2.489   1.928 -0.3257 -0.1637 -0.6164
  440SOL    HW1 1319   0.943   2.518   1.832  0.9486  1.9780 -1.2916
  440SOL    HW2 1320   1.073   2.503   1.952  0.8956 -0.1957  1.2761
  441SOL     OW 1321   0.409   2.788   1.372  0.3423 -0.4656  0.4039
  441SOL    HW1 1322   0.478   2.711   1.375 -0.4044  1.0135  0.9192
  441SOL    HW2 1323   0.317   2.765   1.321 -2.1739 -0.7641  0.0709
  442SOL     OW 1324   2.273   0.644   2.595  0.0900 -0.2581 -1.2117
  442SOL    HW1 1325   2.251   0.547   2.570 -0.9666 -0.5225 -2.3545
  442SOL    HW2 1326   2.195   0.710   2.583  1.6953 -1.2387  0.6660
  443SOL     OW 1327   1.213   2.726   2.201  0.0758  0.3739 -0.2491
  443SOL    HW1 1328   1.223   2.628   2.244 -0.3450 -2.7886  0.6001
  443SOL    HW2 1329   1.221   2.807   2.261 -0.8123  0.8114 -0.1599
  444SOL     OW 1330   1.147   1.300   1.592  0.1164  0.1519  0.7243
  444SOL    HW1 1331   1.236   1.261   1.548  0.1633 -1.2160 -2.7455
  444SOL    HW2 1332   1.153   1.336   1.692 -0.8981  0.4255  0.0387
  445SOL     OW 1333   0.009   2.376   1.868  0.4879 -0.1570 -0.2229
  445SOL    HW1 1334  -0.008   2.466   1.810 -0.5347  0.2273  0.3876
  445SOL    HW2 1335  -0.073   2.356   1.927  1.1536  1.3178 -0.3413
  446SOL     OW 1336   0.248   1.895   2.379 -0.0300  0.0498 -0.2892
  446SOL    HW1 1337   0.187   1.959   2.435 -3.6172  1.5570 -1.3956
  446SOL    HW2 1338   0.194   1.844   2.299 -0.0198  2.2387 -0.2098
  447SOL     OW 1339   1.240   1.697   1.955 -0.2538  0.5556 -0.5700
  447SOL    HW1 1340   1.143   1.734   1.949 -0.5270  3.7993 -0.3056
  447SOL    HW2 1341   1.303   1.768   2.001 -0.3246  1.4530  1.9926
  448SOL     OW 1342   0.109   1.446   1.968  0.3121  0.2599  0.1434
  448SOL    HW1 1343   0.131   1.548   1.945 -0.1253  2.5018 -0.8813
  448SOL    HW2 1344   0.060   1.432   2.059  1.5126 -1.7606  0.1125
  449SOL     OW 1345   1.754   2.976   0.914  0.2690  0.4128  0.3225
  449SOL    HW1 1346   1.816   3.003   0.991  0.1551  1.2706  1.0714
  449SOL    HW2 1347   1.800   2.908   0.851  0.2894  1.3363  1.9149
  450SOL     OW 1348   2.333   1.432   0.742  0.5665 -0.2081 -0.6191
  450SOL    HW1 1349   2.237   1.459   0.781 -0.1426 -0.2446  0.2105
  450SOL    HW2 1350   2.358   1.476   0.649 -1.4351  0.1466 -2.8608
  451SOL     OW 1351   1.321   3.022   1.428  0.0710  0.0606 -0.2166
  451SOL    HW1 1352   1.239   3.078   1.457  2.8420  0.9600  1.6251
  451SOL    HW2 1353   1.350   2.953   1.504  2.4584  0.1758  1.1554
  452SOL     OW 1354   2.670   2.291   2.196  0.5625  0.2787 -0.6819
  452SOL    HW1 1355   2.662   2.396   2.198  0.0752 -0.5604  2.1043
  452SOL    HW2 1356   2.718   2.256   2.283  1.3527 -0.7010  1.7278
  453SOL     OW 1357   2.463   2.655   0.012  0.4431 -0.5433  0.1384
  453SOL    HW1 1358   2.385   2.708   0.050  0.3641  1.3379  0.2550
  453SOL    HW2 1359   2.434   2.575  -0.054 -2.3022 -1.6335 -3.0981
  454SOL     OW 1360   0.980   1.116   2.049 -0.1567 -0.6430  0.9416
  454SOL    HW1 1361   0.977   1.110   1.944  1.9868 -0.7371  0.7089
  454SOL    HW2 1362   1.061   1.174   2.076  0.8711 -0.1934  0.4914
  455SOL     OW 1363   0.682   2.676   2.808 -0.4797  0.0688 -0.0828
  455SOL    HW1 1364   0.762   2.748   2.821 -0.9976  2.3892  1.9299
  455SOL    HW2 1365   0.694   2.587   2.863  1.1228  2.3606 -4.2017
  456SOL     OW 1366   0.460   1.903   0.236  0.2417 -0.2528  0.4192
  456SOL    HW1 1367   0.548   1.863   0.273 -0.2498 -0.8235  1.3924
  456SOL    HW2 1368   0.479   1.988   0.176 -1.3911  3.1831  1.0169
  457SOL     OW 1369   0.333   2.632   0.604 -0.1988 -0.1661 -0.0985
  457SOL    HW1 1370   0.372   2.703   0.539 -0.4333  0.4898  1.2404
  457SOL    HW2 1371   0.404   2.582   0.663 -3.5038 -2.2351 -0.1089
  458SOL     OW 1372   2.918   3.082   1.233 -0.1064  0.3890  0.5373
  458SOL    HW1 1373   2.923   3.183   1.212 -0.2283  0.3679  0.6949
  458SOL    HW2 1374   2.909   3.017   1.147 -1.6354 -3.1868 -0.0982
  459SOL     OW 1375   2.078   2.624   0.738  0.2603  0.1865 -0.1519
  459SOL    HW1 1376   2.167   2.645   0.786  1.5826 -2.2250 -0.7397
  459SOL    HW2 1377   2.086   2.561   0.650 -1.4577 -1.6822 -2.6962
  460SOL     OW 1378   1.220   2.097   2.823 -0.0295 -0.4485  0.2757
  460SOL    HW1 1379   1.229   2.145   2.735 -2.5195 -2.6120  0.0312
  460SOL    HW2 1380   1.207   1.996   2.817  0.4329  0.5224 -0.7883
  461SOL     OW 1381   0.538   2.192   2.655  0.0027 -0.2821  0.2687
  461SOL    HW1 1382   0.492   2.109   2.611 -0.3133  1.7629 -1.1917
  461SOL    HW2 1383   0.579   2.173   2.745 -1.9308  0.6386 -0.5684
  462SOL     OW 1384   0.955   1.145   1.783  0.1279  0.2857  0.2734
  462SOL    HW1 1385   1.034   1.165   1.718  1.0695  2.3405 -0.1303
  462SOL    HW2 1386   0.884   1.217   1.761 -0.9835  0.5657 -0.4932
  463SOL     OW 1387   0.450   0.816   0.510  0.2534 -0.2204  0.2606
  463SOL    HW1 1388   0.504   0.723   0.520 -0.4540 -1.9234 -0.4739
  463SOL    HW2 1389   0.350   0.816   0.531 -1.1527  3.2764 -1.3019
  464SOL     OW 1390   0.601   2.300   2.234 -0.3553 -0.4048  0.3274
  464SOL    HW1 1391   0.554   2.369   2.295  0.8550  0.5384  1.0147
  464SOL    HW2 1392   0.558   2.290   2.138  0.0731 -3.7127 -2.8911
  465SOL     OW 1393   0.232   0.964   0.822 -0.0249  0.2549  0.7970
  465SOL    HW1 1394   0.133   0.989   0.820  0.5804 -0.5185 -3.6164
  465SOL    HW2 1395   0.246   0.857   0.796 -0.8307 -2.2040  0.5537
  466SOL     OW 1396   1.401   1.123   0.979  0.2538 -0.0955 -0.0594
  466SOL    HW1 1397   1.418   1.222   0.950 -0.6978  1.8854 -1.1300
  466SOL    HW2 1398   1.300   1.102   0.994 -1.3725  0.6342 -3.8926
  467SOL     OW 1399   0.544   0.400   2.431 -0.3919 -0.4384 -0.9508
  467SOL    HW1 1400   0.497   0.497   2.416 -2.1200 -0.5624 -0.8277
  467SOL    HW2 1401   0.538   0.369   2.534 -3.2855  1.4148  1.9751
  468SOL     OW 1402   0.460   2.269   1.622  0.2959 -0.1455  0.4626
  468SOL    HW1 1403   0.508   2.355   1.662  0.1159  3.4955  1.1167
  468SOL    HW2 1404   0.447   2.266   1.519 -2.3682  0.1855  1.2352
  469SOL     OW 1405   1.437   1.356   1.195 -0.0355  0.1606 -0.1909
  469SOL    HW1 1406   1.532   1.367   1.161  1.0419 -0.0794 -2.2310
  469SOL    HW2 1407   1.432   1.380   1.298  2.9611  0.4778 -1.5032
  470SOL     OW 1408   3.000   1.822   0.747 -0.1228 -0.8707  0.1379
  470SOL    HW1 1409   3.071   1.878   0.697 -0.7421 -1.0720 -1.5103
  470SOL    HW2 1410   3.039   1.771   0.823  0.3441 -2.1421 -3.9722
  471SOL     OW 1411   2.659   1.260   2.132  0.5371 -0.3409 -0.0229
  471SOL    HW1 1412   2.623   1.213   2.218  4.0752 -2.3515 -1.0827
  471SOL    HW2 1413   2.703   1.349   2.160  0.5741  1.5956 -0.3775
  472SOL     OW 1414   1.126   2.460   0.057 -0.3438 -0.0413  0.1107
  472SOL    HW1 1415   1.173   2.469   0.147 -0.0496  1.0227  0.4786
  472SOL    HW2 1416   1.028   2.426   0.064 -0.7612 -1.0110 -0.9130
  473SOL     OW 1417   1.096   1.542   0.996  0.3206  0.4735 -0.3358
  473SOL    HW1 1418   0.993   1.542   0.984 -0.4386 -2.2783 -1.5051
  473SOL    HW2 1419   1.122   1.471   1.072 -2.0164 -0.0116 -1.2840
  474SOL     OW 1420   0.673   1.267   0.538 -0.5815 -0.0922 -0.5374
  474SOL    HW1 1421   0.600   1.205   0.499  0.7273 -2.8315 -0.3422
  474SOL    HW2 1422   0.746   1.213   0.587  0.3201  1.2282  1.2019
  475SOL     OW 1423   2.875   0.017   0.833  0.0100  0.0650 -0.4040
  475SOL    HW1 1424   2.934   0.103   0.840  1.6896  2.9530 -1.3915
  475SOL    HW2 1425   2.778   0.043   0.858 -1.9848  2.8006 -1.8897
  476SOL     OW 1426   0.970   3.086   1.754  0.5387 -0.1883  0.2147
  476SOL    HW1 1427   1.056   3.101   1.807  0.5498 -3.4835 -1.7941
  476SOL    HW2 1428   0.985   3.026   1.670 -1.5676  1.3531 -1.1048
  477SOL     OW 1429   1.405   0.324   2.422 -0.2390 -0.5158 -0.1720
  477SOL    HW1 1430   1.393   0.357   2.519  2.6186 -0.3212  1.7275
  477SOL    HW2 1431   1.502   0.282   2.403  0.5407 -0.3176  0.4175
  478SOL     OW 1432   2.226   1.825   0.156  0.1548  0.0783  0.1600
  478SOL    HW1 1433   2.174   1.743   0.183  1.7916  1.2767  1.5179
  478SOL    HW2 1434   2.325   1.799   0.131 -0.4624  1.0083 -2.2433
  479SOL     OW 1435   1.217   0.982   2.872  0.9168 -0.1087  0.5745
  479SOL    HW1 1436   1.290   0.960   2.802  1.3516  0.1544  3.3622
  479SOL    HW2 1437   1.125   0.967   2.836  1.7581  1.3828 -0.7429
  480SOL     OW 1438   2.670   2.332   0.351  0.1462  0.0557 -0.0282
  480SOL    HW1 1439   2.681   2.250   0.411 -0.8985  0.5742 -0.1258
  480SOL    HW2 1440   2.578   2.333   0.305  0.6927 -3.2861 -0.7900
  481SOL     OW 1441   0.969   1.143   0.901 -0.0360  0.0179  0.4949
  481SOL    HW1 1442   1.014   1.226   0.861 -0.8794  0.5410  0.9437
  481SOL    HW2 1443   1.010   1.117   0.991  0.4061 -0.3436  0.0029
  482SOL     OW 1444   1.589   0.280   2.048 -0.5594  0.4538  0.5643
  482SOL    HW1 1445   1.593   0.383   2.024 -1.8209 -0.4000 -1.5584
  482SOL    HW2 1446   1.680   0.243   2.083  4.5854 -0.7074 -0.5142
  483SOL     OW 1447   0.102   2.311   1.236  0.1605 -0.0644  0.6131
  483SOL    HW1 1448   0.032   2.329   1.313 -1.8474  2.1817 -2.1313
  483SOL    HW2 1449   0.131   2.401   1.191 -1.2207  1.5442  2.7605
  484SOL     OW 1450   1.766   1.106   1.353 -0.3698  0.1328 -0.2145
  484SOL    HW1 1451   1.823   1.024   1.380  0.8951  0.8317 -1.2418
  484SOL    HW2 1452   1.789   1.184   1.413  1.1987 -1.5349 -2.1542
  485SOL     OW 1453   0.725   0.952   1.765 -0.2127  0.8944  0.6067
  485SOL    HW1 1454   0.751   0.944   1.666 -1.6593 -2.1368  0.3871
  485SOL    HW2 1455   0.813   0.971   1.822  0.3744  1.6557  0.8122
  486SOL     OW 1456   0.813   1.878   2.433 -0.2907  0.4954 -0.3978
  486SOL    HW1 1457   0.870   1.855   2.519  3.5105 -1.1658  0.5805
  486SOL    HW2 1458   0.770   1.974   2.426 -0.3566 -0.0418  3.3396
  487SOL     OW 1459   1.796   1.650   0.975  0.1128  0.0406 -0.0143
  487SOL    HW1 1460   1.865   1.580   0.991 -1.0303  1.2029 -0.4877
  487SOL    HW2 1461   1.790   1.681   0.875  2.4115 -3.0865  0.3979
  488SOL     OW 1462   3.006   0.871   2.213  0.1836  0.2782 -0.4714
  488SOL    HW1 1463   2.972   0.773   2.214  0.4248  0.2926  1.6122
  488SOL    HW2 1464   3.060   0.888   2.301 -0.2441  0.6922  0.9045
  489SOL     OW 1465   2.775   0.293   1.265 -0.4858 -0.2550  0.3351
  489SOL    HW1 1466   2.789   0.309   1.366  2.0859  1.7405 -0.6371
  489SOL    HW2 1467   2.858   0.285   1.209 -0.9297 -0.1927 -0.8133
  490SOL     OW 1468   1.497   2.949   2.770  0.2509 -0.1986 -0.6164
  490SOL    HW1 1469   1.518   2.850   2.760  0.5378  0.3643 -0.1878
  490SOL    HW2 1470   1.416   2.986   2.712  0.4736 -2.9659  0.6210
  491SOL     OW 1471   1.729   1.445   2.606  0.4561 -0.0732 -0.1298
  491SOL    HW1 1472   1.654   1.439   2.674  0.2785 -2.4492  1.3249
  491SOL    HW2 1473   1.817   1.481   2.647  0.2231  2.6798  0.1668
  492SOL     OW 1474   0.569   2.137   0.652 -0.2535  0.0690  0.3573
  492SOL    HW1 1475   0.625   2.112   0.732 -0.6274  0.7029 -0.0758
  492SOL    HW2 1476   0.479   2.189   0.680 -2.1779 -0.5278  0.6444
  493SOL     OW 1477   0.432   1.424   2.020 -0.3964  0.7248 -0.0415
  493SOL    HW1 1478   0.349   1.482   2.024 -0.4725 -1.7540 -2.8565
  493SOL    HW2 1479   0.421   1.336   2.082 -0.0616 -1.1504  1.5171
  494SOL     OW 1480   2.714   2.735   0.126 -0.2779 -0.4685  0.7465
  494SOL    HW1 1481   2.742   2.665   0.199  0.5881  0.3266  2.1830
  494SOL    HW2 1482   2.621   2.702   0.085  1.1991 -0.4668 -1.6245
  495SOL     OW 1483   2.613   2.711   2.674  1.2245  0.6736  1.2570
  495SOL    HW1 1484   2.623   2.608   2.676 -1.5246  1.2061  0.9932
  495SOL    HW2 1485   2.687   2.760   2.627 -3.7970 -1.0720  1.1660
  496SOL     OW 1486   2.069   2.242   0.721  0.1475 -0.1515  0.2083
  496SOL    HW1 1487   2.075   2.322   0.788 -1.3020 -1.2368  2.2307
  496SOL    HW2 1488   2.056   2.151   0.772  0.7433 -3.1215  1.1503
  497SOL     OW 1489   0.199   2.997   2.360 -0.0289 -0.3814  0.5254
  497SOL    HW1 1490   0.196   3.064   2.442  0.8481  1.4927  0.9411
  497SOL    HW2 1491   0.251   3.036   2.282 -1.7507  1.5195  0.0533
  498SOL     OW 1492   1.166   1.377   1.195 -0.3016  0.2481 -0.1551
  498SOL    HW1 1493   1.269   1.380   1.200 -1.9165  3.8985 -2.0223
  498SOL    HW2 1494   1.119   1.414   1.278 -0.6902 -0.6681 -1.5077
  499SOL     OW 1495   0.642   1.758   0.366  0.1274 -0.1610 -0.0874
  499SOL    HW1 1496   0.639   1.659   0.329 -0.1485  1.2992  0.9635
  499SOL    HW2 1497   0.733   1.784   0.403  0.2621  1.9305  1.2827
  500SOL     OW 1498   1.412   2.869   1.633  0.0453 -0.8554  0.0851
  500SOL    HW1 1499   1.372   2.904   1.720 -0.7313  6.1777  1.5840
  500SOL    HW2 1500   1.468   2.785   1.634  1.0821  0.4340 -1.0010
  501SOL     OW 1501   0.813   1.105   2.271 -0.3501 -0.3384  0.0373
  501SOL    HW1 1502   0.723   1.063   2.253 -0.0226  0.5605  1.1877
  501SOL    HW2 1503   0.867   1.136   2.182  2.1835  1.1813 -3.6191
  502SOL     OW 1504   2.550   0.930   1.712  0.2524  0.0521  0.2964
  502SOL    HW1 1505   2.532   0.916   1.613  2.3335  1.1667 -0.4618
  502SOL    HW2 1506   2.562   0.842   1.767  1.2941  1.2846 -2.1738
  503SOL     OW 1507   1.329   0.157   0.693 -0.0446 -0.2874  0.4815
  503SOL    HW1 1508   1.286   0.228   0.633 -0.9836 -0.9186  3.7847
  503SOL    HW2 1509   1.424   0.181   0.730 -0.0510 -0.3103  0.8207
  504SOL     OW 1510   3.028   2.345   1.473  0.1247  0.1603 -0.9343
  504SOL    HW1 1511   2.970   2.404   1.537 -2.2713  0.3852  2.3809
  504SOL    HW2 1512   3.100   2.290   1.528  1.2551 -1.1858  1.3130
  505SOL     OW 1513   2.338   1.178   1.410  0.0759  0.5703  0.1989
  505SOL    HW1 1514   2.310   1.217   1.323  0.0925  0.3012 -0.1649
  505SOL    HW2 1515   2.429   1.207   1.443 -3.6013 -0.8865 -0.1902
  506SOL     OW 1516   1.966   0.222   1.823 -0.0054  0.2354  0.3306
  506SOL    HW1 1517   2.023   0.143   1.857 -3.0246 -0.1756 -0.5290
  506SOL    HW2 1518   1.991   0.306   1.878  0.3807 -2.5910 -0.6147
  507SOL     OW 1519   0.551   0.653   2.132 -0.0094 -0.3019  0.5706
  507SOL    HW1 1520   0.480   0.594   2.090 -0.0234 -3.6999 -2.8038
  507SOL    HW2 1521   0.630   0.597   2.160 -0.6825  0.8794  1.5250
  508SOL     OW 1522   0.279   1.626   0.759  0.2203 -0.4816 -0.3373
  508SOL    HW1 1523   0.350   1.696   0.720  1.0453  0.4067  1.8230
  508SOL    HW2 1524   0.263   1.648   0.862  0.7673 -1.3687  2.1550
  509SOL     OW 1525   1.233   1.231   2.386 -1.0399  0.1456 -0.6538
  509SOL    HW1 1526   1.311   1.160   2.349 -0.0456 -1.2331 -3.1475
  509SOL    HW2 1527   1.142   1.188   2.405  0.7249  1.8064 -1.4596
  510SOL     OW 1528   1.261   2.117   2.208 -0.6223 -0.3303  0.0300
  510SOL    HW1 1529   1.306   2.136   2.117  1.6117 -0.7596  0.0649
  510SOL    HW2 1530   1.198   2.040   2.217 -0.6148  0.3406 -2.0743
  511SOL     OW 1531   3.010   2.697   1.329 -0.0346  0.0836  0.9454
  511SOL    HW1 1532   3.005   2.656   1.232  3.3553  1.4276 -0.2603
  511SOL    HW2 1533   2.911   2.712   1.363  3.2702  3.7786 -4.4990
  512SOL     OW 1534   2.370   0.435   1.369 -0.3689 -0.1825 -0.0427
  512SOL    HW1 1535   2.265   0.416   1.367  0.0761  3.1752 -2.3567
  512SOL    HW2 1536   2.400   0.454   1.273 -2.6525 -2.2061  2.0177
  513SOL     OW 1537   2.629   2.099   0.885  0.2735 -0.3783  0.2753
  513SOL    HW1 1538   2.574   2.172   0.831 -2.2132  1.1897 -1.1214
  513SOL    HW2 1539   2.669   2.030   0.819 -0.0554 -1.9344  1.9566
  514SOL     OW 1540   0.626   2.743   0.466 -0.4628 -0.6051  0.3960
  514SOL    HW1 1541   0.613   2.779   0.371  0.9910 -0.9086 -1.5448
  514SOL    HW2 1542   0.666   2.814   0.531 -2.2939  1.6172 -0.1736
  515SOL     OW 1543   1.954   1.279   2.365 -0.2916 -0.3876 -0.0092
  515SOL    HW1 1544   1.985   1.246   2.268  4.1187 -0.3403  2.4247
  515SOL    HW2 1545   1.860   1.248   2.399  0.9654 -1.5420 -0.2072
  516SOL     OW 1546   0.264   0.232   1.919  0.0400 -0.3890  0.3101
  516SOL    HW1 1547   0.343   0.208   1.858  0.3583 -1.2802 -3.3499
  516SOL    HW2 1548   0.176   0.186   1.887  1.5739  0.8899 -0.4560
  517SOL     OW 1549   0.476   0.023   1.168 -0.4974  0.3225  0.0301
  517SOL    HW1 1550   0.499   0.093   1.242 -2.6074 -1.0754 -3.0455
  517SOL    HW2 1551   0.375   0.036   1.150  0.6045  0.3777 -2.5620
  518SOL     OW 1552   2.161   3.033   1.819  0.2537 -0.1905 -0.6293
  518SOL    HW1 1553   2.219   3.121   1.842 -0.7993 -1.1512  1.0631
  518SOL    HW2 1554   2.182   2.985   1.731  0.4676  0.5418  0.8892
  519SOL     OW 1555   2.376   2.162   2.458  0.2503  0.0160  0.2524
  519SOL    HW1 1556   2.339   2.136   2.551  0.9464  2.0583 -0.2397
  519SOL    HW2 1557   2.345   2.261   2.432  0.1088  0.3569 -1.8438
  520SOL     OW 1558   1.855   2.724   1.746  0.4433  0.3640  0.1653
  520SOL    HW1 1559   1.774   2.699   1.802  0.0446  1.7510 -0.6219
  520SOL    HW2 1560   1.893   2.642   1.695 -0.7939  0.5043 -3.2281
  521SOL     OW 1561   0.576   3.060   2.097 -0.4390 -0.3465 -0.1238
  521SOL    HW1 1562   0.478   3.076   2.125  0.6961 -0.0730  2.2505
  521SOL    HW2 1563   0.640   3.054   2.182 -0.1250  0.2053 -0.1479
  522SOL     OW 1564   0.237   1.847   1.521  0.4193  0.1778 -0.7125
  522SOL    HW1 1565   0.279   1.923   1.577  0.4437 -0.1976 -0.2505
  522SOL    HW2 1566   0.191   1.885   1.436 -1.7101  3.3900 -0.5486
  523SOL     OW 1567   2.211   2.958   1.551  0.5778  0.0799 -0.1094
  523SOL    HW1 1568   2.300   2.908   1.535  3.2772 -1.9785 -1.5518
  523SOL    HW2 1569   2.133   2.905   1.513 -0.4927 -1.6546 -0.0975
  524SOL     OW 1570   0.189   2.782   2.779 -0.2799  0.1611 -0.3219
  524SOL    HW1 1571   0.138   2.852   2.830 -1.1891 -2.7931 -0.4802
  524SOL    HW2 1572   0.288   2.806   2.763  0.6855  2.7646  1.7785
  525SOL     OW 1573   2.184   1.967   0.387 -0.6379  0.7178 -0.2878
  525SOL    HW1 1574   2.195   1.918   0.480 -2.0161 -2.8179  1.7504
  525SOL    HW2 1575   2.196   1.903   0.308 -0.0308  1.2753  1.4173
  526SOL     OW 1576   0.478   1.509   1.645 -0.4063 -0.2053 -0.3301
  526SOL    HW1 1577   0.534   1.560   1.723 -0.3957  0.5606 -0.4006
  526SOL    HW2 1578   0.521   1.417   1.628 -3.1913 -1.1446  1.3520
  527SOL     OW 1579   1.018   2.849   1.161  0.0402  0.0261  0.3469
  527SOL    HW1 1580   1.079   2.781   1.216 -0.3830 -3.5188  0.5611
  527SOL    HW2 1581   1.049   2.949   1.162 -0.9975  1.4622  0.9883
  528SOL     OW 1582   1.352   2.372   0.554  0.3823  0.2448  0.4050
  528SOL    HW1 1583   1.411   2.289   0.537  0.0452 -1.3894 -3.3389
  528SOL    HW2 1584   1.413   2.450   0.596  1.8324  0.3373 -1.1715
  529SOL     OW 1585   1.963   1.760   0.686  0.0279 -0.5338  0.2137
  529SOL    HW1 1586   1.905   1.736   0.602 -0.8825  0.2779  0.5875
  529SOL    HW2 1587   1.923   1.851   0.724  3.2617  0.8571  0.2096
  530SOL     OW 1588   0.356   2.601   0.212 -0.5643  0.3411  0.1777
  530SOL    HW1 1589   0.343   2.660   0.295  1.0191  0.5901 -0.2888
  530SOL    HW2 1590   0.386   2.506   0.247 -0.9345 -3.4702  1.6684
  531SOL     OW 1591   1.862   1.017   1.029 -0.4126 -0.0912  0.0849
  531SOL    HW1 1592   1.817   1.076   0.957 -1.9649  2.3337 -0.0346
  531SOL    HW2 1593   1.837   0.919   1.030 -0.8006 -0.3047  3.2895
  532SOL     OW 1594   0.368   1.167   0.698  0.1065  1.2858  0.1776
  532SOL    HW1 1595   0.408   1.160   0.604  0.4628  1.2870 -1.4155
  532SOL    HW2 1596   0.343   1.079   0.748  1.3310 -1.9262  1.1819
  533SOL     OW 1597   1.756   0.045   2.573  0.3166  0.3859 -0.4986
  533SOL    HW1 1598   1.860   0.019   2.590 -0.3222 -3.1037 -1.1751
  533SOL    HW2 1599   1.723   0.122   2.638  0.1577 -0.9800  0.7289
  534SOL     OW 1600   0.313   0.201   1.500  0.8631  0.4113  0.3956
  534SOL    HW1 1601   0.384   0.237   1.437  1.2104  0.1320  0.4231
  534SOL    HW2 1602   0.254   0.281   1.531 -0.1167  0.2750 -0.5230
  535SOL     OW 1603   1.911   0.427   0.222  0.4159  0.1119  0.0797
  535SOL    HW1 1604   1.945   0.508   0.278  0.5334  1.1161  3.4004
  535SOL    HW2 1605   1.823   0.391   0.263  2.2644  1.3233  3.2638
  536SOL     OW 1606   1.424   2.582   0.945 -0.0264  0.0451  0.2041
  536SOL    HW1 1607   1.415   2.539   1.041  0.2086 -0.1981  0.8534
  536SOL    HW2 1608   1.329   2.623   0.909 -1.0555 -1.2709  0.5797
  537SOL     OW 1609   0.810   0.166   2.342  0.0746  0.4444 -0.0535
  537SOL    HW1 1610   0.824   0.210   2.248 -1.5425 -0.2795  0.4726
  537SOL    HW2 1611   0.760   0.075   2.341 -0.5361  1.9165 -1.0538
  538SOL     OW 1612   1.685   2.310   1.537  0.5954  0.4390 -0.1421
  538SOL    HW1 1613   1.646   2.229   1.484 -4.7157 -0.3754  1.6651
  538SOL    HW2 1614   1.781   2.334   1.505  1.4463  0.0817  2.0553
  539SOL     OW 1615   0.179   1.602   2.731  0.1472 -0.9192 -0.2006
  539SOL    HW1 1616   0.104   1.591   2.666  1.7695  0.8258  1.3924
  539SOL    HW2 1617   0.180   1.687   2.786  0.2067 -1.7329  1.0472
  540SOL     OW 1618   2.724   1.716   1.988  0.1727 -0.0824 -0.1638
  540SOL    HW1 1619   2.665   1.653   2.044 -0.7541 -0.0857  1.9863
  540SOL    HW2 1620   2.689   1.811   1.970  1.1507  0.9050  2.6498
  541SOL     OW 1621   0.493   2.287   3.060 -0.6379 -0.1760  1.2520
  541SOL    HW1 1622   0.518   2.247   3.151  0.3696 -3.0499 -1.8193
  541SOL    HW2 1623   0.391   2.300   3.056  4.0577 -0.7872  1.0520
  542SOL     OW 1624   2.259   2.569   0.391 -0.0948  0.4853 -0.1683
  542SOL    HW1 1625   2.227   2.656   0.347 -1.1926 -0.8295 -0.2607
  542SOL    HW2 1626   2.185   2.522   0.447 -0.3018  0.8458 -1.6505
  543SOL     OW 1627   1.075   1.743   1.648  0.1904  0.7720 -0.2354
  543SOL    HW1 1628   1.047   1.758   1.748 -1.6449  0.6157  1.0005
  543SOL    HW2 1629   1.021   1.806   1.582 -0.3616  0.6217  0.2548
  544SOL     OW 1630   0.997   0.405   0.203  0.6965 -0.0853 -0.2434
  544SOL    HW1 1631   0.986   0.312   0.254 -1.4114  0.7686  0.8741
  544SOL    HW2 1632   1.003   0.393   0.096  1.8206  1.9327  0.5097
  545SOL     OW 1633   1.096   1.766   0.836 -0.1005  0.1526  0.7854
  545SOL    HW1 1634   1.190   1.800   0.810  1.3646  1.2342  3.5473
  545SOL    HW2 1635   1.087   1.671   0.878 -0.8078 -2.1675 -1.8912
  546SOL     OW 1636   2.628   1.588   0.011  0.0006 -0.4324 -0.4101
  546SOL    HW1 1637   2.577   1.589  -0.072  1.1605  3.1252  1.1662
  546SOL    HW2 1638   2.577   1.539   0.089  0.5847 -1.5551  1.8049
  547SOL     OW 1639   0.563   0.022   2.661 -0.2414 -0.0292  0.4448
  547SOL    HW1 1640   0.648  -0.033   2.648  1.9306 -0.4128 -2.3734
  547SOL    HW2 1641   0.480  -0.029   2.678  1.1510  0.6913  1.4697
  548SOL     OW 1642   2.075   0.854   3.051  0.1348 -0.0621 -0.1549
  548SOL    HW1 1643   1.987   0.821   3.006  4.2827 -1.8044 -1.2816
  548SOL    HW2 1644   2.078   0.959   3.073  0.3720  1.6653 -0.2125
  549SOL     OW 1645   0.689   0.528   0.194 -0.5443 -0.1692 -0.4772
  549SOL    HW1 1646   0.667   0.565   0.099 -1.0140 -1.4580  0.1577
  549SOL    HW2 1647   0.784   0.565   0.223  3.0992  1.1485  0.0074
  550SOL     OW 1648   2.485   2.860   2.873 -0.4204 -0.1395 -0.5910
  550SOL    HW1 1649   2.471   2.792   2.952 -3.1365 -0.8374  2.1403
  550SOL    HW2 1650   2.520   2.811   2.785  0.2184 -0.7572  0.6081
  551SOL     OW 1651   0.288   0.870   0.235  0.1672  0.3006  0.3379
  551SOL    HW1 1652   0.382   0.830   0.222  0.0774  2.1919 -1.5570
  551SOL    HW2 1653   0.251   0.845   0.326  1.4724  1.9233 -1.8465
  552SOL     OW 1654   0.699   2.984   1.836  0.7274  0.4549 -0.0433
  552SOL    HW1 1655   0.665   2.998   1.929 -0.2969  0.6191 -2.2482
  552SOL    HW2 1656   0.802   3.002   1.837 -0.9465 -1.4019  0.5533
  553SOL     OW 1657   3.025   2.569   0.350 -0.7655 -0.3781 -0.3050
  553SOL    HW1 1658   2.991   2.475   0.332  0.9107  0.5163  2.9079
  553SOL    HW2 1659   2.990   2.600   0.445  0.9279  0.0447 -0.2871
  554SOL     OW 1660   2.117   0.366   0.586 -0.8696  0.3353  0.5852
  554SOL    HW1 1661   2.175   0.354   0.499  0.9203 -1.5980  1.2701
  554SOL    HW2 1662   2.114   0.277   0.642 -0.3740 -0.6505 -0.9239
  555SOL     OW 1663   0.408   2.872   2.501  0.2763 -1.3601  0.2157
  555SOL    HW1 1664   0.315   2.906   2.469 -2.2378 -1.7605 -1.1926
  555SOL    HW2 1665   0.453   2.817   2.424 -0.6959  2.7085 -0.8584
  556SOL     OW 1666   0.786   2.392   1.546  0.0283  0.1988 -0.5259
  556SOL    HW1 1667   0.841   2.471   1.588 -2.6356  1.1829  3.2464
  556SOL    HW2 1668   0.841   2.350   1.469  0.4225  1.0365  0.6408
  557SOL     OW 1669   0.092   2.049   0.150  0.0927 -0.4733  0.5691
  557SOL    HW1 1670   0.001   2.007   0.130  3.2946 -0.9796 -0.2498
  557SOL    HW2 1671   0.116   2.117   0.076  1.9632 -1.8284  0.6376
  558SOL     OW 1672   2.939   2.314   0.279 -0.1885 -0.0611  0.0404
  558SOL    HW1 1673   2.846   2.295   0.318 -0.5654  0.7955 -0.0466
  558SOL    HW2 1674   2.943   2.289   0.178 -0.6269 -0.3448  0.8856
  559SOL     OW 1675   0.370   2.304   1.355  0.3745  0.2609 -0.1209
  559SOL    HW1 1676   0.281   2.315   1.312 -0.0210  0.0240  2.2495
  559SOL    HW2 1677   0.438   2.245   1.302  1.8523 -0.2929  0.3986
  560SOL     OW 1678   2.103   1.122   3.080  0.2193  0.3170 -0.3077
  560SOL    HW1 1679   2.041   1.160   3.154 -2.3874 -0.6956 -0.6329
  560SOL    HW2 1680   2.169   1.191   3.043  2.9020 -0.6291  2.4046
  561SOL     OW 1681   3.025   1.877   0.019 -0.4117  0.0131  0.0165
  561SOL    HW1 1682   2.999   1.798   0.085  0.5020 -1.2322 -2.3931
  561SOL    HW2 1683   2.948   1.948   0.011  0.6471 -2.3300  0.9160
  562SOL     OW 1684   1.022   2.272   2.370  0.9967  0.1969  0.3094
  562SOL    HW1 1685   0.935   2.224   2.355 -0.2517  1.8776 -0.2042
  562SOL    HW2 1686   1.011   2.381   2.370 -1.0445  1.5711 -1.8577
  563SOL     OW 1687   0.729   2.560   2.575 -0.1602  0.7417  0.6660
  563SOL    HW1 1688   0.799   2.486   2.603  2.9587 -0.3054  3.1698
  563SOL    HW2 1689   0.691   2.605   2.659 -2.4499  1.1625 -1.0583
  564SOL     OW 1690   2.761   1.311   2.955 -0.0319  0.4420  0.2114
  564SOL    HW1 1691   2.703   1.363   3.025 -2.1305  0.3670 -1.9979
  564SOL    HW2 1692   2.813   1.376   2.892 -1.6497 -1.2990 -2.0372
  565SOL     OW 1693   2.580   1.935   2.605  0.1870  0.4366  0.0745
  565SOL    HW1 1694   2.559   1.998   2.525 -0.5666  1.1835 -0.2266
  565SOL    HW2 1695   2.655   1.970   2.668  0.1409 -0.7043  0.0388
  566SOL     OW 1696   1.951   2.841   1.370  0.6627 -0.5976  0.8219
  566SOL    HW1 1697   1.918   2.745   1.360  0.3236 -0.5795 -0.2471
  566SOL    HW2 1698   1.956   2.893   1.276 -1.1472 -0.0963 -1.7748
  567SOL     OW 1699   2.506   0.060   2.280  0.1266  0.4366 -0.2742
  567SOL    HW1 1700   2.573   0.087   2.205 -3.3485  3.2221 -5.1252
  567SOL    HW2 1701   2.418   0.034   2.238 -0.7194  1.7503  5.0775
  568SOL     OW 1702   1.557   1.789   0.303 -0.2094 -0.0694  0.4093
  568SOL    HW1 1703   1.489   1.853   0.263  1.5705 -0.2053 -0.1728
  568SOL    HW2 1704   1.644   1.785   0.247  1.8254  1.8151  2.9061
  569SOL     OW 1705   0.270   0.695   0.771  0.1794 -0.4690 -0.3792
  569SOL    HW1 1706   0.336   0.625   0.740  0.3747  2.0299  0.6630
  569SOL    HW2 1707   0.175   0.656   0.790  0.9971  1.9061 -0.2801
  570SOL     OW 1708   0.608   0.822   2.848 -0.0368  0.4760  0.0385
  570SOL    HW1 1709   0.616   0.811   2.749  0.0506  0.4990  2.2498
  570SOL    HW2 1710   0.673   0.898   2.876 -0.6302  1.0097 -1.4536
  571SOL     OW 1711   0.794   0.012   1.031 -0.4143  0.4755 -0.0493
  571SOL    HW1 1712   0.877   0.019   0.969 -0.4337  0.1459 -1.9037
  571SOL    HW2 1713   0.719  -0.051   0.995  0.8092 -0.1794  0.4279
  572SOL     OW 1714   1.575   2.610   1.267  0.1565 -0.0581  0.2129
  572SOL    HW1 1715   1.479   2.565   1.240 -0.7102 -1.9987 -0.2592
  572SOL    HW2 1716   1.569   2.715   1.272 -1.0792  0.0193  3.2213
  573SOL     OW 1717   2.870   0.473   2.048  0.4035 -0.0953  0.6521
  573SOL    HW1 1718   2.821   0.380   2.066  0.2608 -2.5134 -2.1309
  573SOL    HW2 1719   2.806   0.553   2.027  0.8752 -0.2228  1.0005
  574SOL     OW 1720   0.206   1.705   0.993  0.4002 -0.3000  0.2017
  574SOL    HW1 1721   0.194   1.807   0.981 -0.7299  1.0241  0.2944
  574SOL    HW2 1722   0.127   1.661   1.044  0.9652 -1.3375  1.3717
  575SOL     OW 1723   0.936   2.160   0.983  0.2318 -0.0516  0.2684
  575SOL    HW1 1724   0.866   2.194   1.055 -0.9955 -0.7824  0.7487
  575SOL    HW2 1725   0.949   2.233   0.909 -0.5272  0.2308  0.5383
  576SOL     OW 1726   2.910   3.008   1.678  0.0295  0.2990 -0.1747
  576SOL    HW1 1727   2.810   3.009   1.660  1.8226  1.2238  2.4093
  576SOL    HW2 1728   2.947   3.105   1.673 -0.5584 -0.9270  1.5848
  577SOL     OW 1729   2.506   1.236   0.032  0.1469  0.1045 -0.3618
  577SOL    HW1 1730   2.525   1.164  -0.044  0.1720 -2.3447 -0.2514
  577SOL    HW2 1731   2.582   1.256   0.103 -1.5694  1.0412 -0.7889
  578SOL     OW 1732   1.336   2.752   2.485  0.0331  0.4251 -0.1908
  578SOL    HW1 1733   1.234   2.775   2.498 -1.5988  0.6816 -0.9068
  578SOL    HW2 1734   1.401   2.834   2.475  1.7649 -0.5218 -3.2045
  579SOL     OW 1735   0.080   2.506   0.130 -0.1925 -0.1788 -0.0536
  579SOL    HW1 1736   0.040   2.539   0.221  1.4933  1.8052  1.2075
  579SOL    HW2 1737   0.179   2.474   0.143  3.4485  0.6958 -1.3821
  580SOL     OW 1738   1.021   2.629   0.426  0.2929  0.0958  0.2125
  580SOL    HW1 1739   1.092   2.642   0.354 -0.5118  0.7730 -1.8136
  580SOL    HW2 1740   0.935   2.570   0.394  0.9099  0.9613  0.4533
  581SOL     OW 1741   1.276   2.570   1.515 -0.8327  0.7432 -0.1758
  581SOL    HW1 1742   1.314   2.473   1.541  0.5358 -1.7512  1.1803
  581SOL    HW2 1743   1.337   2.607   1.441  3.1684 -0.9204  1.0362
  582SOL     OW 1744   1.499   0.084   1.867  0.1341  0.2900 -0.0841
  582SOL    HW1 1745   1.537   0.162   1.921 -0.7409  0.8188  0.4538
  582SOL    HW2 1746   1.560   0.055   1.788 -0.0570 -0.6857  1.9511
  583SOL     OW 1747   2.507   3.060   0.499  0.0947  0.3478 -0.0506
  583SOL    HW1 1748   2.601   3.039   0.469  1.2990 -0.1674 -0.9039
  583SOL    HW2 1749   2.448   2.985   0.546 -0.1187  1.9608  2.0151
  584SOL     OW 1750   1.604   0.919   2.099 -0.5516 -0.3802  0.2431
  584SOL    HW1 1751   1.640   0.870   2.014 -0.8868 -0.8179 -3.2198
  584SOL    HW2 1752   1.676   0.929   2.172 -1.6156  2.0242 -0.2098
  585SOL     OW 1753   2.089   2.662   2.904  0.0788 -0.0898 -0.5020
  585SOL    HW1 1754   2.114   2.570   2.872  1.2116  3.6787  2.0874
  585SOL    HW2 1755   1.985   2.675   2.907 -2.0454  0.7822 -0.7447
  586SOL     OW 1756   2.808   0.344   1.538 -0.0117  0.7208 -0.3458
  586SOL    HW1 1757   2.811   0.426   1.605  0.1227  2.6403  3.6990
  586SOL    HW2 1758   2.729   0.281   1.564 -0.4831 -0.3360  0.0996
  587SOL     OW 1759   1.968   1.540   2.718  0.1460  0.2785 -0.3406
  587SOL    HW1 1760   2.023   1.489   2.653 -1.7847  0.3189 -1.3879
  587SOL    HW2 1761   2.007   1.553   2.812  0.6562  1.9220 -1.2867
  588SOL     OW 1762   0.459   2.697   2.254  0.1485 -0.5909  0.3512
  588SOL    HW1 1763   0.375   2.700   2.193 -1.9378 -1.5270 -0.1891
  588SOL    HW2 1764   0.468   2.602   2.299 -0.1732 -0.1942  1.4886
  589SOL     OW 1765   2.129   1.417   2.523  0.1231  0.3611 -0.6154
  589SOL    HW1 1766   2.064   1.361   2.465 -0.3856  1.5200  1.2061
  589SOL    HW2 1767   2.225   1.382   2.523  1.5550  0.8277 -1.3607
  590SOL     OW 1768   2.341   1.652   2.047  0.0169 -0.0850  0.1186
  590SOL    HW1 1769   2.432   1.613   2.015  0.0918  1.1980  1.0204
  590SOL    HW2 1770   2.357   1.711   2.132 -0.0057  0.2856  0.4770
  591SOL     OW 1771   1.330   2.388   0.258  0.0513 -0.7395  0.1899
  591SOL    HW1 1772   1.361   2.306   0.204 -0.4345 -1.1901  0.3756
  591SOL    HW2 1773   1.332   2.377   0.361  1.2988  0.5974 -0.4365
  592SOL     OW 1774   1.803   2.311   0.748 -0.0697 -0.3820  0.2167
  592SOL    HW1 1775   1.784   2.372   0.666 -1.1883  0.4243 -0.9099
  592SOL    HW2 1776   1.905   2.288   0.755 -0.9300 -2.7501 -2.0155
  593SOL     OW 1777   0.703   0.264   0.229  0.0609 -0.3448  0.5736
  593SOL    HW1 1778   0.748   0.209   0.151  0.1691 -1.8489 -1.3684
  593SOL    HW2 1779   0.708   0.369   0.216 -0.7570 -0.6355  0.8400
  594SOL     OW 1780   0.945   1.876   2.700  0.2097  0.0348 -0.1883
  594SOL    HW1 1781   1.043   1.850   2.722  0.0861  0.4316 -0.8081
  594SOL    HW2 1782   0.915   1.968   2.747 -0.9327  1.0870  1.8060
  595SOL     OW 1783   1.587   0.053   1.087  0.6654 -0.4254 -0.1340
  595SOL    HW1 1784   1.643  -0.037   1.097 -0.0193 -0.4137  1.0012
  595SOL    HW2 1785   1.497   0.037   1.040  0.6361  0.8413 -0.2696
  596SOL     OW 1786   0.008   1.416   2.234 -0.1509 -0.3127  0.4929
  596SOL    HW1 1787   0.015   1.323   2.281 -0.4580 -1.8933  0.7766
  596SOL    HW2 1788   0.003   1.493   2.308  0.1571 -0.5105  0.0524
  597SOL     OW 1789   2.003   2.535   1.611 -0.2345 -0.1240  0.0407
  597SOL    HW1 1790   2.044   2.484   1.537 -0.9864  3.1203  4.0408
  597SOL    HW2 1791   2.074   2.550   1.681 -1.0927 -1.0736 -1.9413
  598SOL     OW 1792   2.509   2.972   1.286 -0.0723 -0.3157 -0.8631
  598SOL    HW1 1793   2.587   3.014   1.340  0.8696  0.3858 -3.3409
  598SOL    HW2 1794   2.538   2.949   1.188 -0.7170 -1.1309  1.3561
  599SOL     OW 1795   2.957   0.347   2.515  0.0627 -0.3815 -0.4289
  599SOL    HW1 1796   3.049   0.371   2.470  0.7275 -1.7360 -0.1855
  599SOL    HW2 1797   2.878   0.418   2.499 -0.8833  0.4515  0.5578
  600SOL     OW 1798   2.784   1.122   2.739  0.3555  0.2814  0.7557
  600SOL    HW1 1799   2.720   1.037   2.739  0.1295  1.2652  1.3694
  600SOL    HW2 1800   2.751   1.192   2.810  2.3180  0.7030 -0.2449
  601SOL     OW 1801   2.984   1.265   1.957  0.0195 -0.1036 -0.0545
  601SOL    HW1 1802   2.904   1.313   1.911  1.9378  0.1889  3.0186
  601SOL    HW2 1803   3.069   1.316   1.941 -3.0207  1.4304 -1.0824
  602SOL     OW 1804   1.428   1.728   2.374  0.1018  0.5634  0.2926
  602SOL    HW1 1805   1.369   1.656   2.329 -0.7911 -0.4164 -2.0695
  602SOL    HW2 1806   1.522   1.699   2.397 -0.5104  2.4104 -0.3802
  603SOL     OW 1807   0.587   1.196   2.742  0.3117 -0.5552 -0.4809
  603SOL    HW1 1808   0.504   1.155   2.692  0.6667  1.0785  0.3008
  603SOL    HW2 1809   0.672   1.143   2.718 -3.1179  0.1336 -1.0061
  604SOL     OW 1810   2.386   1.001   0.142  0.0850  0.1216  0.1788
  604SOL    HW1 1811   2.434   1.081   0.097 -2.5871 -0.9126  0.6029
  604SOL    HW2 1812   2.394   0.906   0.091  1.6491 -1.5075  0.5353
  605SOL     OW 1813   2.523   1.153   1.915 -0.4383 -0.3253  0.1719
  605SOL    HW1 1814   2.592   1.126   1.850  0.0837 -1.5957 -0.7726
  605SOL    HW2 1815   2.561   1.177   2.009 -0.7041  1.2548  1.5715
  606SOL     OW 1816   1.473   2.514   2.578  0.4126 -0.1084 -0.0430
  606SOL    HW1 1817   1.404   2.565   2.514 -1.6433  0.3320 -1.4237
  606SOL    HW2 1818   1.462   2.412   2.592  4.6984  0.7740 -0.0503
  607SOL     OW 1819   1.338   1.611   0.374 -0.2372 -0.1429 -0.5506
  607SOL    HW1 1820   1.249   1.655   0.410  1.5536 -1.6317  0.5440
  607SOL    HW2 1821   1.421   1.672   0.367 -0.7030  0.4835 -1.4502
  608SOL     OW 1822   1.443   2.887   0.322 -0.2437  0.5763 -0.0679
  608SOL    HW1 1823   1.531   2.930   0.282 -0.6691 -1.4885 -0.9975
  608SOL    HW2 1824   1.400   2.947   0.394  0.5719  0.9526 -0.3189
  609SOL     OW 1825   1.317   1.387   0.195 -0.3934 -0.0623 -0.9176
  609SOL    HW1 1826   1.340   1.464   0.262  0.0284 -0.5615  0.1155
  609SOL    HW2 1827   1.245   1.406   0.129  3.4831 -0.1476 -1.6743
  610SOL     OW 1828   3.016   1.131   2.207 -0.3650  0.3375  0.6699
  610SOL    HW1 1829   2.979   1.036   2.187  0.5061  1.2262 -0.1154
  610SOL    HW2 1830   3.022   1.191   2.124 -1.9203  1.1426  2.7447
  611SOL     OW 1831   2.552   0.293   1.111 -0.2211  0.2911  0.0079
  611SOL    HW1 1832   2.490   0.228   1.167 -2.1627  0.4449 -0.2129
  611SOL    HW2 1833   2.649   0.296   1.151 -0.8869 -1.1377  0.4706
  612SOL     OW 1834   0.755   2.267   1.141 -0.0195  0.6514 -0.2448
  612SOL    HW1 1835   0.677   2.205   1.179 -0.4980  0.8051 -1.7962
  612SOL    HW2 1836   0.722   2.369   1.141 -0.8121  2.6808 -1.2399
  613SOL     OW 1837   0.832   1.364   2.453  0.0384  0.2030 -0.3687
  613SOL    HW1 1838   0.846   1.438   2.385  1.7767 -2.5745 -1.7062
  613SOL    HW2 1839   0.802   1.279   2.409 -0.4942  0.1392  1.1409
  614SOL     OW 1840   1.585   1.640   1.973 -0.3594 -0.3740 -0.2659
  614SOL    HW1 1841   1.515   1.717   1.988 -1.6555 -1.6734 -2.2940
  614SOL    HW2 1842   1.676   1.650   2.020 -0.7555 -1.5004 -0.7945
  615SOL     OW 1843   0.766   1.314   1.711 -0.0348  0.4029 -0.1276
  615SOL    HW1 1844   0.693   1.263   1.652 -2.3248 -1.6573 -1.3917
  615SOL    HW2 1845   0.821   1.384   1.662  1.6251  1.9665  1.2205
  616SOL     OW 1846   1.047   1.661   2.212 -0.3283 -0.3131 -0.4918
  616SOL    HW1 1847   0.949   1.616   2.206  0.2052 -2.4605  1.7982
  616SOL    HW2 1848   1.046   1.758   2.254  0.7718 -0.5258 -0.8536
  617SOL     OW 1849   2.951   1.578   1.620 -0.2446 -0.1571  0.1830
  617SOL    HW1 1850   2.887   1.512   1.665  2.9257 -2.5196  0.6366
  617SOL    HW2 1851   2.985   1.545   1.522 -0.3576 -1.5131  0.8216
  618SOL     OW 1852   1.887   1.976   1.409  0.2257  0.4384  0.8512
  618SOL    HW1 1853   1.928   2.010   1.318  0.5631  0.3273  0.5996
  618SOL    HW2 1854   1.824   1.895   1.393  0.6026 -2.2812 -0.0928
  619SOL     OW 1855   1.765   0.437   2.375 -0.3473  0.0648  0.4320
  619SOL    HW1 1856   1.698   0.508   2.330  0.6705  0.0382  0.0779
  619SOL    HW2 1857   1.733   0.336   2.377 -1.2835  0.6299 -0.2315
  620SOL     OW 1858   2.281   2.942   0.627 -0.2815  0.4738 -0.1841
  620SOL    HW1 1859   2.201   2.994   0.662 -3.0641  1.7463  1.2728
  620SOL    HW2 1860   2.295   2.850   0.677 -2.8785 -0.1949 -1.4834
  621SOL     OW 1861   2.154   1.827   1.302 -0.1710 -0.2233  0.5119
  621SOL    HW1 1862   2.154   1.831   1.404  0.1823 -2.5321  2.2208
  621SOL    HW2 1863   2.086   1.761   1.263  2.2039  4.0031 -1.0892
  622SOL     OW 1864   2.271   0.931   1.789 -0.0931  0.4299  0.9411
  622SOL    HW1 1865   2.370   0.938   1.765 -3.3931  1.9346 -2.6256
  622SOL    HW2 1866   2.250   0.845   1.846 -0.6088 -3.3414 -2.5173
  623SOL     OW 1867   1.322   0.825   2.649 -0.2802  0.0143 -0.1142
  623SOL    HW1 1868   1.315   0.736   2.700 -2.0028  1.1804  1.4651
  623SOL    HW2 1869   1.249   0.830   2.576  0.0550  1.6410  1.1648
  624SOL     OW 1870   0.570   0.667   3.091  0.0755 -0.6498  0.0096
  624SOL    HW1 1871   0.587   0.704   2.991  0.7943  0.5870  0.0291
  624SOL    HW2 1872   0.559   0.744   3.158 -1.3822 -2.0786  2.4811
  625SOL     OW 1873   2.803   1.703   0.975  0.1351 -0.2688 -0.6209
  625SOL    HW1 1874   2.703   1.735   0.984 -1.2017 -2.1278  0.8007
  625SOL    HW2 1875   2.866   1.781   0.990 -1.1115 -1.6222 -0.5387
  626SOL     OW 1876   0.596   2.733   1.738 -0.0087 -0.9471  0.6215
  626SOL    HW1 1877   0.624   2.826   1.781 -0.5538  1.1860  1.4747
  626SOL    HW2 1878   0.494   2.711   1.747 -0.5412 -0.6224  2.0058
  627SOL     OW 1879   0.788   0.966   1.495  0.3934  0.7500  0.0030
  627SOL    HW1 1880   0.705   0.939   1.434 -0.7385  2.2381 -0.3069
  627SOL    HW2 1881   0.826   1.060   1.475  0.2492 -1.9504 -2.3658
  628SOL     OW 1882   2.407   0.158   0.698 -0.5166  0.2846  0.0396
  628SOL    HW1 1883   2.421   0.100   0.611  0.3870 -0.8712  0.5400
  628SOL    HW2 1884   2.313   0.162   0.735  0.7806  0.9242  6.4383
  629SOL     OW 1885   1.969   0.912   1.973 -0.5865 -0.3361  0.0992
  629SOL    HW1 1886   2.047   0.949   1.911  1.9646 -0.1387  0.8340
  629SOL    HW2 1887   1.921   0.984   2.033 -2.2708  0.0536  2.2076
  630SOL     OW 1888   2.895   2.209   0.839  0.2777  0.1030  0.1678
  630SOL    HW1 1889   2.838   2.296   0.829 -1.2579 -0.3216 -2.4565
  630SOL    HW2 1890   2.833   2.130   0.813 -1.9125 -0.0162  0.6825
  631SOL     OW 1891   2.987   0.168   2.127 -0.1924 -0.3143 -0.1804
  631SOL    HW1 1892   3.055   0.210   2.197 -0.0223  1.4227  0.5514
  631SOL    HW2 1893   3.030   0.135   2.042 -2.5753  0.1066  0.2465
  632SOL     OW 1894   2.380   2.528   0.648 -0.3039 -0.1395 -0.1534
  632SOL    HW1 1895   2.408   2.602   0.711 -1.3843 -0.4484  0.5770
  632SOL    HW2 1896   2.348   2.552   0.554  1.6141 -1.6875  1.3593
  633SOL     OW 1897   1.417   1.217   2.597  0.4206 -0.0142 -0.2768
  633SOL    HW1 1898   1.444   1.298   2.654  1.9086 -0.0704 -0.7998
  633SOL    HW2 1899   1.352   1.234   2.514 -0.2634  0.6722 -1.5201
  634SOL     OW 1900   0.712   2.028   0.876 -0.5248 -0.4284  0.0899
  634SOL    HW1 1901   0.618   2.039   0.923 -1.9997  0.4333 -2.0311
  634SOL    HW2 1902   0.791   2.078   0.928 -2.3747  2.4121  1.3143
  635SOL     OW 1903   2.998   2.348   3.096  0.1720 -0.5851 -0.1137
  635SOL    HW1 1904   2.923   2.411   3.065  0.5220  0.7190 -0.7291
  635SOL    HW2 1905   3.071   2.390   3.159  2.2870  0.0569 -0.6344
  636SOL     OW 1906   2.306   2.734   2.048  0.3957 -0.2198  0.3096
  636SOL    HW1 1907   2.293   2.834   2.068 -2.9324  1.5731 -0.9821
  636SOL    HW2 1908   2.263   2.681   2.127  3.0698  0.3034 -1.2367
  637SOL     OW 1909   2.659   0.642   2.005 -0.6118  0.7186  0.4782
  637SOL    HW1 1910   2.596   0.635   1.920 -3.7928  1.9330 -2.4123
  637SOL    HW2 1911   2.684   0.742   2.020  1.1984  0.0873 -0.2170
  638SOL     OW 1912   2.448   1.804   1.248  0.0486 -0.4063  0.1230
  638SOL    HW1 1913   2.349   1.774   1.254 -1.8245  1.0886  0.1121
  638SOL    HW2 1914   2.506   1.766   1.323 -0.7076 -2.6297 -1.2342
  639SOL     OW 1915   1.287   2.134   1.729 -0.4145  0.7102  0.2338
  639SOL    HW1 1916   1.261   2.087   1.642  0.3448 -1.8318  0.6168
  639SOL    HW2 1917   1.204   2.133   1.793 -0.2864  1.0985 -0.8748
  640SOL     OW 1918   0.183   1.156   1.597  0.0916 -0.2987 -0.3558
  640SOL    HW1 1919   0.193   1.192   1.692  3.1650  0.4057 -1.2864
  640SOL    HW2 1920   0.262   1.094   1.581 -0.4715  0.8798  0.5394
  641SOL     OW 1921   2.051   0.161   1.548 -0.0795  0.1543 -0.5109
  641SOL    HW1 1922   2.029   0.205   1.644  0.5718 -1.4170  1.8057
  641SOL    HW2 1923   2.151   0.136   1.534 -0.4505 -1.3959  0.9762
  642SOL     OW 1924   2.001   0.020   0.319 -0.1660  0.8398 -0.6745
  642SOL    HW1 1925   2.104   0.029   0.336  1.2572  0.3655 -0.3538
  642SOL    HW2 1926   1.952  -0.009   0.406  1.8703  1.4149  2.1662
  643SOL     OW 1927   2.953   1.854   2.055 -0.0109  0.3706 -0.1411
  643SOL    HW1 1928   2.878   1.786   2.026 -0.3224 -0.2686  0.0526
  643SOL    HW2 1929   2.952   1.940   1.995 -0.0117 -0.7548  2.1371
  644SOL     OW 1930   2.222   2.357   1.185  0.3089 -0.2195  0.0077
  644SOL    HW1 1931   2.308   2.315   1.145  1.6441 -0.5628 -1.6186
  644SOL    HW2 1932   2.186   2.309   1.272  0.0210 -2.1295  3.2327
  645SOL     OW 1933   0.609   0.801   1.287 -0.3191 -0.2337 -0.3349
  645SOL    HW1 1934   0.508   0.790   1.271  2.5014 -0.5388  0.0212
  645SOL    HW2 1935   0.656   0.848   1.210  2.6221 -0.3268  2.7119
  646SOL     OW 1936   1.433   1.853   2.055  0.0240  0.2979 -0.2075
  646SOL    HW1 1937   1.466   1.941   2.011 -0.0264 -1.2083 -0.4306
  646SOL    HW2 1938   1.435   1.855   2.157  0.0532  1.5113 -0.9603
  647SOL     OW 1939   0.788   1.086   0.696  0.1727  0.0970  0.1469
  647SOL    HW1 1940   0.846   1.113   0.774 -0.1300 -0.3111  0.4554
  647SOL    HW2 1941   0.734   0.999   0.706 -1.5246 -2.7103  0.6520
  648SOL     OW 1942   0.083   0.236   0.229 -0.4444 -0.1477 -0.3557
  648SOL    HW1 1943   0.119   0.190   0.146  1.6966 -1.2097 -0.5932
  648SOL    HW2 1944   0.096   0.342   0.235 -0.8335  2.3490 -1.6825
  649SOL     OW 1945   3.036   0.232   0.853  0.4088 -0.4458  0.7984
  649SOL    HW1 1946   3.111   0.160   0.857 -0.4103  0.9999  1.0732
  649SOL    HW2 1947   3.068   0.326   0.882  0.8880 -2.5816 -0.3705
  650SOL     OW 1948   2.792   0.735   1.487  0.0055 -0.2940 -0.3318
  650SOL    HW1 1949   2.689   0.719   1.503  1.1932 -1.9509 -0.5046
  650SOL    HW2 1950   2.813   0.827   1.441 -1.3926 -1.6578 -1.2705
  651SOL     OW 1951   0.910   1.518   1.587  0.0248 -0.1299  0.1534
  651SOL    HW1 1952   0.976   1.580   1.636 -0.2218  3.7744  1.6995
  651SOL    HW2 1953   0.930   1.515   1.487  1.3304  2.8786  2.5684
  652SOL     OW 1954   2.326   2.426   2.489 -0.2391  0.0546  0.3588
  652SOL    HW1 1955   2.222   2.418   2.511 -2.1662 -1.4399  0.3046
  652SOL    HW2 1956   2.346   2.512   2.431 -4.7543 -0.9976 -2.7654
  653SOL     OW 1957   2.714   1.232   0.224  0.4967 -0.0137 -0.6007
  653SOL    HW1 1958   2.712   1.296   0.305 -2.1536 -4.8544  0.4606
  653SOL    HW2 1959   2.776   1.152   0.238 -0.7533  0.6350 -2.0652
  654SOL     OW 1960   1.242   2.250   1.255 -0.0676  0.4309 -0.0723
  654SOL    HW1 1961   1.280   2.199   1.340 -0.5324  0.3204  2.2884
  654SOL    HW2 1962   1.302   2.236   1.169 -0.0817 -2.0551 -0.2234
  655SOL     OW 1963   0.173   0.962   1.971 -0.1037  0.5525  0.3780
  655SOL    HW1 1964   0.225   0.907   1.898 -2.7554 -1.6877 -1.3924
  655SOL    HW2 1965   0.198   1.062   1.964 -0.7709 -0.4010 -0.4060
  656SOL     OW 1966   2.570   2.424   2.642 -0.3464 -0.4381  0.4537
  656SOL    HW1 1967   2.658   2.403   2.588  2.7386  1.2519  0.7880
  656SOL    HW2 1968   2.484   2.416   2.584  0.8552  3.2414  3.2320
  657SOL     OW 1969   3.002   1.015   1.890 -0.0853  0.0239 -0.1971
  657SOL    HW1 1970   2.974   1.117   1.903  1.3601  1.3418  1.5922
  657SOL    HW2 1971   3.096   1.000   1.923 -2.2566  1.2652  0.5975
  658SOL     OW 1972   1.634   0.183   2.361  0.0447  0.3698  0.3170
  658SOL    HW1 1973   1.687   0.147   2.446  1.6315 -0.0399  1.6955
  658SOL    HW2 1974   1.684   0.153   2.277 -0.0129  0.0883 -1.0927
  659SOL     OW 1975   1.383   0.626   2.835  0.2487 -0.2602 -0.1370
  659SOL    HW1 1976   1.428   0.709   2.888  1.2319  1.0556  1.3477
  659SOL    HW2 1977   1.280   0.636   2.847  1.4730 -1.2974 -0.1762
  660SOL     OW 1978   1.420   0.349   1.389 -0.2017  0.5517  0.1815
  660SOL    HW1 1979   1.437   0.378   1.487 -1.3005 -0.3195 -2.1833
  660SOL    HW2 1980   1.486   0.269   1.359 -0.2964 -1.5862  2.4543
  661SOL     OW 1981   2.439   1.177   0.667  0.9545  0.0398 -0.0625
  661SOL    HW1 1982   2.440   1.182   0.566 -0.8766 -1.6867  3.7310
  661SOL    HW2 1983   2.404   1.267   0.709  0.0987  1.2289  0.3638
  662SOL     OW 1984   1.412   0.390   1.741  0.1836  0.4669  0.1273
  662SOL    HW1 1985   1.337   0.317   1.743 -0.3534  0.2122 -1.4031
  662SOL    HW2 1986   1.376   0.478   1.783 -0.8314  0.3620  1.6263
  663SOL     OW 1987   0.781   1.550   2.215 -0.2900  0.1940  0.6785
  663SOL    HW1 1988   0.701   1.603   2.242  0.4050 -1.3798  0.1732
  663SOL    HW2 1989   0.741   1.481   2.150 -0.9793 -1.3054 -3.7734
  664SOL     OW 1990   1.600   2.062   1.425  0.1298  0.6160  0.5294
  664SOL    HW1 1991   1.552   2.006   1.499 -0.4553  0.1628  3.0710
  664SOL    HW2 1992   1.700   2.037   1.412 -0.6313 -0.6396  0.8395
  665SOL     OW 1993   2.250   0.690   1.935  0.5516 -0.3320  0.1472
  665SOL    HW1 1994   2.178   0.616   1.925 -3.2911  0.8482  0.9331
  665SOL    HW2 1995   2.289   0.693   2.037 -0.1652 -1.8539  1.3006
  666SOL     OW 1996   0.443   2.295   0.348 -0.1495  0.1069  0.2954
  666SOL    HW1 1997   0.514   2.323   0.418  0.1704 -0.5355  1.9152
  666SOL    HW2 1998   0.350   2.262   0.391 -0.5873  0.0234  0.3382
  667SOL     OW 1999   2.050   0.196   1.204 -0.1962  0.0781 -0.1602
  667SOL    HW1 2000   2.045   0.297   1.177 -3.6431  0.4113 -0.3292
  667SOL    HW2 2001   1.984   0.176   1.284 -1.3805  1.7361  0.6765
  668SOL     OW 2002   2.060   0.475   1.125  0.4042 -0.1501  0.3101
  668SOL    HW1 2003   2.124   0.508   1.044 -0.9264  0.1813  2.1526
  668SOL    HW2 2004   2.091   0.501   1.219 -0.5006 -2.5515 -0.6215
  669SOL     OW 2005   3.100   2.135   1.053  0.3647  0.8215  0.0857
  669SOL    HW1 2006   3.039   2.169   0.982  1.6705  1.4532 -0.6252
  669SOL    HW2 2007   3.126   2.210   1.114 -2.5483 -2.3945  0.0449
  670SOL     OW 2008   2.863   2.352   1.994 -0.4107 -0.1108 -0.0060
  670SOL    HW1 2009   2.774   2.323   2.030  1.8268  1.0170 -2.2485
  670SOL    HW2 2010   2.857   2.454   1.972 -1.6157  0.8886 -1.5808
  671SOL     OW 2011   1.711   1.738   1.492  0.6894 -1.0347 -0.2536
  671SOL    HW1 2012   1.731   1.706   1.398  0.3819 -1.1311 -0.5139
  671SOL    HW2 2013   1.609   1.760   1.506 -2.5568 -1.3360  0.3470
  672SOL     OW 2014   0.415   0.630   2.392 -0.1758 -0.1406  0.1129
  672SOL    HW1 2015   0.452   0.668   2.301  0.3041  1.6439  0.8591
  672SOL    HW2 2016   0.329   0.677   2.426 -0.4147  0.1058  1.6715
  673SOL     OW 2017   0.116   1.207   1.137  0.2704 -0.5683  0.4562
  673SOL    HW1 2018   0.117   1.252   1.228 -0.2605  0.9836 -0.7493
  673SOL    HW2 2019   0.210   1.169   1.106  0.5564  0.6727  2.5693
  674SOL     OW 2020   1.700   2.936   0.242 -0.2523 -0.4305 -0.0273
  674SOL    HW1 2021   1.735   3.035   0.230 -1.8483 -0.1213 -2.1310
  674SOL    HW2 2022   1.772   2.869   0.209 -2.0885 -0.9526 -0.4573
  675SOL     OW 2023   1.732   0.807   2.326 -0.1297 -0.1557 -0.0617
  675SOL    HW1 2024   1.829   0.787   2.308  0.0466  2.0373  0.4862
  675SOL    HW2 2025   1.667   0.740   2.276 -2.4236 -0.5706  1.5705
  676SOL     OW 2026   2.525   1.481   1.951 -0.6211  0.0685  0.2961
  676SOL    HW1 2027   2.508   1.468   1.849  2.1867  0.1294  1.2571
  676SOL    HW2 2028   2.558   1.397   1.993  0.1600 -1.4409 -1.2919
  677SOL     OW 2029   1.838   0.658   0.911 -0.1172 -0.0979  0.1352
  677SOL    HW1 2030   1.752   0.657   0.972 -0.3154 -2.7985 -1.6543
  677SOL    HW2 2031   1.897   0.573   0.921 -1.0043  3.4458 -0.2837
  678SOL     OW 2032   0.035   0.747   1.661  0.0455  0.3595  0.2908
  678SOL    HW1 2033   0.130   0.763   1.701 -0.8045  0.2246 -2.8861
  678SOL    HW2 2034  -0.035   0.752   1.737  1.3009 -0.9192  2.5827
  679SOL     OW 2035   2.541   1.196   1.108  0.7161 -0.0513 -0.4952
  679SOL    HW1 2036   2.447   1.231   1.115 -1.4287 -2.6145 -0.5272
  679SOL    HW2 2037   2.543   1.092   1.092 -0.6682 -2.7978 -0.3396
  680SOL     OW 2038   2.843   0.566   1.705  0.2103  0.6887 -0.2134
  680SOL    HW1 2039   2.810   0.632   1.627 -1.3764  1.1455 -0.8671
  680SOL    HW2 2040   2.876   0.610   1.792 -1.1448 -2.2821  0.1963
  681SOL     OW 2041   3.003   0.140   1.632 -0.0084  0.0947  0.3154
  681SOL    HW1 2042   3.087   0.124   1.569  1.1323 -1.5807 -0.2680
  681SOL    HW2 2043   2.947   0.235   1.617  0.7682  0.3587  2.1513
  682SOL     OW 2044   0.811   3.090   1.307  0.2984  0.4144 -0.1757
  682SOL    HW1 2045   0.715   3.053   1.340 -0.9004 -3.3486  3.5884
  682SOL    HW2 2046   0.820   3.086   1.200  1.7296  0.8444 -1.9022
  683SOL     OW 2047   1.356   0.233   2.173  0.0448  0.2290  0.8475
  683SOL    HW1 2048   1.381   0.275   2.268  2.7042  1.8942  0.5041
  683SOL    HW2 2049   1.447   0.235   2.115  3.2770 -1.6429 -0.0559
  684SOL     OW 2050   1.483   2.121   0.463 -0.2641  0.1232  0.2700
  684SOL    HW1 2051   1.537   2.045   0.514  0.1266  0.2895 -0.3458
  684SOL    HW2 2052   1.384   2.092   0.451 -0.4805  1.2278  0.4250
  685SOL     OW 2053   2.150   2.044   1.944 -0.8153 -0.0461  0.2673
  685SOL    HW1 2054   2.216   2.033   1.868  1.1054  1.6000 -1.7154
  685SOL    HW2 2055   2.199   2.029   2.034 -1.4207 -2.1756 -1.4303
  686SOL     OW 2056   1.540   1.805   2.717  0.1504  0.2210 -0.3565
  686SOL    HW1 2057   1.551   1.768   2.816  1.9329 -0.2943  1.1374
  686SOL    HW2 2058   1.537   1.727   2.650 -0.4412 -1.1677  0.3229
  687SOL     OW 2059   1.297   2.479   1.986 -0.0336  0.0287 -0.2951
  687SOL    HW1 2060   1.302   2.376   1.965 -1.2691 -0.4329  4.1955
  687SOL    HW2 2061   1.358   2.506   2.072 -0.9047  1.6621  0.8926
  688SOL     OW 2062   2.067   1.496   1.785  0.6633 -0.3741  0.0295
  688SOL    HW1 2063   2.147   1.557   1.805 -2.2837  0.5013  1.2979
  688SOL    HW2 2064   2.068   1.479   1.681  2.1763 -1.7814  2.5175
  689SOL     OW 2065   2.381   1.085   2.749  0.4967  0.1857 -0.7243
  689SOL    HW1 2066   2.302   1.019   2.750  0.2704 -1.1991 -1.4929
  689SOL    HW2 2067   2.451   1.073   2.826  0.6528 -3.8113 -0.1697
  690SOL     OW 2068   2.222   2.802   0.062 -0.4306  0.5834 -0.2142
  690SOL    HW1 2069   2.159   2.750  -0.003  2.8272 -1.0979 -2.5347
  690SOL    HW2 2070   2.178   2.835   0.149  1.1909 -1.1730 -1.8692
  691SOL     OW 2071   2.614   0.466   2.210  0.1215  0.3240  0.5190
  691SOL    HW1 2072   2.655   0.370   2.182  1.8541 -5.0403  0.3176
  691SOL    HW2 2073   2.612   0.531   2.131 -0.9415  1.3992  0.5997
  692SOL     OW 2074   2.725   1.239   0.745  0.1498 -0.4589  0.4538
  692SOL    HW1 2075   2.625   1.253   0.723 -2.8050 -1.0729 -0.7588
  692SOL    HW2 2076   2.755   1.280   0.836 -0.7124  0.8772 -0.5828
  693SOL     OW 2077   2.877   2.939   0.618 -0.3146  0.5189 -0.1629
  693SOL    HW1 2078   2.871   3.007   0.696  5.0285 -1.4536  2.8022
  693SOL    HW2 2079   2.838   2.971   0.526 -0.8774 -1.3687 -0.7250
  694SOL     OW 2080   2.362   2.157   0.081  0.0277  0.1818 -0.0163
  694SOL    HW1 2081   2.360   2.239   0.145 -0.0258  0.8400  0.0952
  694SOL    HW2 2082   2.270   2.110   0.076 -0.9518 -1.6974  0.1739
  695SOL     OW 2083   0.591   3.000   1.426  0.3417 -0.2461 -0.4462
  695SOL    HW1 2084   0.535   2.944   1.354 -1.2759  0.7491 -2.2075
  695SOL    HW2 2085   0.531   3.043   1.500 -0.7754  1.6896  1.5606
  696SOL     OW 2086   2.778   1.963   0.707 -0.6143 -0.3087  0.0406
  696SOL    HW1 2087   2.854   1.891   0.724 -1.5108 -1.5800  1.7039
  696SOL    HW2 2088   2.782   2.003   0.612  0.4563 -1.0086  0.1129
  697SOL     OW 2089   1.599   2.025   1.836 -0.1539  0.3496 -0.3673
  697SOL    HW1 2090   1.688   1.983   1.864  0.2829  1.3300 -1.0512
  697SOL    HW2 2091   1.606   2.123   1.801 -1.7336 -2.5007  0.4963
  698SOL     OW 2092   2.940   0.423   2.773 -0.0999  0.0947  0.4196
  698SOL    HW1 2093   2.955   0.413   2.676  2.0160 -1.6349  0.5440
  698SOL    HW2 2094   3.013   0.371   2.823  0.2813 -0.7780 -0.2428
  699SOL     OW 2095   1.557   0.075   2.913  0.2835 -0.1848  0.3509
  699SOL    HW1 2096   1.551  -0.012   2.857 -1.0890  1.2138  1.0629
  699SOL    HW2 2097   1.621   0.148   2.870  1.7525  3.2939  0.5834
  700SOL     OW 2098   0.956   2.330   1.344  0.2868  0.0046 -0.1306
  700SOL    HW1 2099   1.048   2.286   1.323 -2.3673 -2.2504  0.1797
  700SOL    HW2 2100   0.884   2.318   1.271 -1.2839  0.3832  0.3328
  701SOL     OW 2101   1.889   2.916   3.052  0.4443 -0.1674  0.4534
  701SOL    HW1 2102   1.872   2.841   3.122 -1.6212  0.7264  1.1872
  701SOL    HW2 2103   1.956   2.993   3.076  1.7241 -2.0033 -0.8278
  702SOL     OW 2104   2.071   1.336   1.994  0.1001 -0.2717  0.1410
  702SOL    HW1 2105   2.146   1.272   1.967 -0.0294  2.0616 -2.1732
  702SOL    HW2 2106   2.060   1.409   1.917  0.3995  1.1881 -1.4239
  703SOL     OW 2107   1.939   0.897   1.454 -0.0269 -0.4131 -0.3257
  703SOL    HW1 2108   1.938   0.810   1.511  0.0223 -0.2820  0.7972
  703SOL    HW2 2109   2.008   0.960   1.495 -1.6543 -0.1664  0.0279
  704SOL     OW 2110   0.318   2.045   1.738 -0.3684  0.3713 -0.5011
  704SOL    HW1 2111   0.343   1.981   1.809  2.7875  1.2429 -1.4982
  704SOL    HW2 2112   0.387   2.120   1.720 -1.0864 -0.5812  0.8200
  705SOL     OW 2113   2.528   1.512   0.933 -0.1187 -0.1755  0.8306
  705SOL    HW1 2114   2.466   1.462   0.865  0.9799  1.2014  0.8013
  705SOL    HW2 2115   2.613   1.457   0.954  1.6770  0.0854 -0.4674
  706SOL     OW 2116   0.644   1.633   1.869 -0.0795 -0.5828 -0.3621
  706SOL    HW1 2117   0.676   1.537   1.899  0.4005 -1.6342 -1.5244
  706SOL    HW2 2118   0.700   1.709   1.916  2.3979  1.2271 -1.1579
  707SOL     OW 2119   2.266   1.205   1.862 -0.2210  0.2394  0.2871
  707SOL    HW1 2120   2.368   1.214   1.879  0.7324 -0.4838  0.7250
  707SOL    HW2 2121   2.242   1.104   1.845  0.7520  0.5715  2.9563
  708SOL     OW 2122   3.084   0.499   3.080  0.0892 -0.5484 -0.0374
  708SOL    HW1 2123   3.092   0.554   2.991  1.3922 -1.1984 -0.0779
  708SOL    HW2 2124   3.141   0.407   3.079  2.2661  0.1144 -1.4800
  709SOL     OW 2125   1.845   1.853   0.231 -0.3382 -0.2545  0.2884
  709SOL    HW1 2126   1.849   1.949   0.261  1.0717 -1.7929 -0.8733
  709SOL    HW2 2127   1.827   1.848   0.129 -2.3869  0.9427  0.7547
  710SOL     OW 2128   1.732   1.648   2.430  0.7042 -0.0815  0.3494
  710SOL    HW1 2129   1.779   1.631   2.343  0.6674  2.3988  1.9125
  710SOL    HW2 2130   1.737   1.567   2.497  2.0901 -0.5868 -3.3242
  711SOL     OW 2131   2.622   2.954   1.040 -0.3786  0.6474 -0.2246
  711SOL    HW1 2132   2.585   3.031   0.978 -0.4555  3.3280  0.3504
  711SOL    HW2 2133   2.727   2.958   1.053  1.5860 -1.0536 -2.2586
  712SOL     OW 2134   1.390   2.207   1.975 -0.0830  0.2611  0.1956
  712SOL    HW1 2135   1.491   2.222   1.986 -1.6401 -2.8507  0.8533
  712SOL    HW2 2136   1.360   2.185   1.880 -0.2115 -0.0122  3.0192
  713SOL     OW 2137   2.883   1.482   2.538  0.8632  0.1003 -0.0106
  713SOL    HW1 2138   2.857   1.396   2.485 -1.8527  1.0118  1.0310
  713SOL    HW2 2139   2.857   1.474   2.638 -0.8757 -0.3022 -2.2331
  714SOL     OW 2140   2.719   0.520   2.452 -0.1575 -0.4488 -0.4183
  714SOL    HW1 2141   2.671   0.477   2.532 -0.5270  1.0616 -0.9225
  714SOL    HW2 2142   2.663   0.511   2.365  0.7230 -0.2563  0.8773
  715SOL     OW 2143   1.579   2.026   1.118 -0.2125 -0.2834 -0.2165
  715SOL    HW1 2144   1.489   2.058   1.074  0.3512  1.6402 -2.7855
  715SOL    HW2 2145   1.591   2.060   1.213  0.9457  0.1151 -3.3772
  716SOL     OW 2146   1.170   0.170   1.477  0.2897  0.0278 -0.4394
  716SOL    HW1 2147   1.067   0.181   1.450  2.5949 -0.0438  2.2274
  716SOL    HW2 2148   1.219   0.252   1.439 -0.8446 -1.3748 -1.0685
  717SOL     OW 2149   1.165   0.514   1.559 -0.0506 -0.6542  0.3488
  717SOL    HW1 2150   1.232   0.591   1.573 -1.5070 -0.1070  0.2113
  717SOL    HW2 2151   1.184   0.483   1.464  0.3331  0.5081 -0.8702
  718SOL     OW 2152   0.683   0.915   1.006  0.1702  0.9646 -0.4408
  718SOL    HW1 2153   0.654   0.892   0.910  0.2903  0.0478  1.4308
  718SOL    HW2 2154   0.687   1.018   1.031  1.2666  0.4354  1.5631
  719SOL     OW 2155   0.599   1.783   2.282  0.7196  0.0969 -0.1495
  719SOL    HW1 2156   0.669   1.808   2.355  0.0787  0.1210 -0.1496
  719SOL    HW2 2157   0.517   1.734   2.333 -2.8437  1.0741  0.9465
  720SOL     OW 2158   2.188   1.159   0.327  0.2754  0.0802  0.1331
  720SOL    HW1 2159   2.229   1.082   0.270  1.0108  2.1715  2.5801
  720SOL    HW2 2160   2.161   1.126   0.422  0.8844  2.0973 -3.0296
  721SOL     OW 2161   2.269   3.012   2.117  0.1147 -0.2025 -0.0084
  721SOL    HW1 2162   2.269   3.090   2.052 -1.4411  1.2697  0.6821
  721SOL    HW2 2163   2.182   3.005   2.177 -1.1481  1.8645  1.6929
  722SOL     OW 2164   2.361   1.588   0.512  0.3839 -0.4387 -0.3929
  722SOL    HW1 2165   2.416   1.611   0.429  2.3057 -0.3688  1.3426
  722SOL    HW2 2166   2.266   1.634   0.513 -0.8259 -2.8733  0.8322
  723SOL     OW 2167   2.561   2.735   1.928 -0.7970 -0.5237  0.3609
  723SOL    HW1 2168   2.611   2.793   1.998 -1.1728 -1.1525  3.6312
  723SOL    HW2 2169   2.459   2.723   1.950 -0.0211 -0.0054 -1.2906
  724SOL     OW 2170   0.515   2.483   2.413 -0.0707  0.6046  0.1452
  724SOL    HW1 2171   0.417   2.491   2.444 -0.9935 -1.4550  1.8527
  724SOL    HW2 2172   0.579   2.532   2.477  0.8675  1.3634 -1.4724
  725SOL     OW 2173   2.469   2.832   1.522 -0.0008  0.1879  0.1249
  725SOL    HW1 2174   2.475   2.857   1.419 -0.2659 -0.7066 -1.2327
  725SOL    HW2 2175   2.503   2.735   1.541  0.5625  2.1656 -2.8911
  726SOL     OW 2176   2.515   2.314   0.718 -0.1305 -0.5469 -0.3170
  726SOL    HW1 2177   2.461   2.396   0.690  0.3411 -0.2053  0.3738
  726SOL    HW2 2178   2.493   2.237   0.644 -2.0064  0.5726  0.7674
  727SOL     OW 2179   0.136   3.104   0.053  0.4895  0.2183 -0.4175
  727SOL    HW1 2180   0.194   3.017   0.067 -0.3897 -0.8957 -0.4491
  727SOL    HW2 2181   0.051   3.079   0.008  1.9020 -2.0400  1.0753
  728SOL     OW 2182   2.902   0.649   0.959  0.6021  0.3877  0.1578
  728SOL    HW1 2183   2.818   0.652   0.894 -2.7996  1.1946 -1.1968
  728SOL    HW2 2184   2.877   0.637   1.060  0.3859 -0.0137  0.9917
  729SOL     OW 2185   3.052   2.509   0.780  0.1094 -0.2859 -0.0810
  729SOL    HW1 2186   3.021   2.406   0.800  1.2787 -2.8950  2.5119
  729SOL    HW2 2187   3.139   2.525   0.729 -0.3398 -1.4565  1.6715
  730SOL     OW 2188   2.633   0.730   0.863 -0.4824 -0.0074 -0.4615
  730SOL    HW1 2189   2.594   0.825   0.863  1.3147 -1.9912 -1.3038
  730SOL    HW2 2190   2.687   0.703   0.781  1.0996  0.4757 -0.2971
  731SOL     OW 2191   0.083   2.081   2.511  0.7241 -0.6787 -0.1709
  731SOL    HW1 2192   0.091   2.105   2.614 -0.6772 -0.3067  0.8318
  731SOL    HW2 2193   0.002   2.123   2.460  1.6314 -3.0350 -0.7733
  732SOL     OW 2194   1.187   2.834   1.943 -0.2053 -0.2216 -0.0428
  732SOL    HW1 2195   1.206   2.784   2.036  1.7530 -1.7163  1.3463
  732SOL    HW2 2196   1.167   2.765   1.863 -0.9657 -1.6601  0.2860
  733SOL     OW 2197   3.041   0.589   2.214 -0.2026 -0.1664  0.0968
  733SOL    HW1 2198   3.124   0.633   2.174  3.8119 -1.4308  0.5621
  733SOL    HW2 2199   2.988   0.519   2.153 -0.4578  0.0803  0.5813
  734SOL     OW 2200   1.433   0.386   2.692 -0.1859 -0.1063  0.6446
  734SOL    HW1 2201   1.415   0.483   2.726 -1.4793  0.5464 -1.7786
  734SOL    HW2 2202   1.363   0.318   2.725 -2.0413  0.8454 -0.2721
  735SOL     OW 2203   2.888   2.670   2.277  0.1210 -0.1545 -0.1425
  735SOL    HW1 2204   2.848   2.615   2.195 -1.0180 -0.3888 -1.9729
  735SOL    HW2 2205   2.980   2.708   2.254  2.0794 -0.4707  1.4728
  736SOL     OW 2206   0.822   0.307   2.575 -0.8013 -0.0953  0.6534
  736SOL    HW1 2207   0.728   0.349   2.588  1.3250  1.2468 -2.8058
  736SOL    HW2 2208   0.838   0.288   2.470  0.9316 -0.3716  3.2515
  737SOL     OW 2209   2.659   0.474   2.839  0.8714  0.5018  0.6506
  737SOL    HW1 2210   2.650   0.440   2.936  0.5152  1.5572 -0.0530
  737SOL    HW2 2211   2.758   0.487   2.813  0.2007  0.4564 -2.4276
  738SOL     OW 2212   1.639   1.262   2.893  0.0770  0.2611  0.1415
  738SOL    HW1 2213   1.744   1.242   2.882 -1.4813  0.3846  2.2737
  738SOL    HW2 2214   1.583   1.177   2.863 -0.6504  0.2420  0.4254
  739SOL     OW 2215   1.735   0.663   0.667  0.5812 -0.6502 -0.2494
  739SOL    HW1 2216   1.784   0.673   0.757  1.2602 -0.0561 -0.9272
  739SOL    HW2 2217   1.762   0.573   0.618  1.6996 -3.7580 -0.7873
  740SOL     OW 2218   1.990   1.903   2.311 -0.2387 -0.0136 -1.0603
  740SOL    HW1 2219   2.022   1.820   2.373 -3.3783 -1.9259  1.1984
  740SOL    HW2 2220   1.907   1.882   2.257  1.2835 -1.7035  1.6175
  741SOL     OW 2221   2.555   0.063   2.535  0.0190 -0.6397  0.5335
  741SOL    HW1 2222   2.658   0.071   2.546 -1.2685 -2.2574  2.0743
  741SOL    HW2 2223   2.536   0.051   2.432  3.2690 -0.4996 -2.0213
  742SOL     OW 2224   2.215   1.412   0.194 -0.0055  0.5509  0.6810
  742SOL    HW1 2225   2.171   1.486   0.247  1.1910  1.0798 -0.5861
  742SOL    HW2 2226   2.209   1.321   0.234  0.6283  0.9453 -1.8894
  743SOL     OW 2227   1.836   0.675   2.642  0.3112  0.0494  0.0210
  743SOL    HW1 2228   1.807   0.634   2.557 -0.8973  4.5079  0.6249
  743SOL    HW2 2229   1.759   0.745   2.670 -0.1113  1.3992 -1.5152
  744SOL     OW 2230   2.622   2.119   0.173  0.2473  0.2361 -0.3051
  744SOL    HW1 2231   2.522   2.115   0.138 -2.8635 -2.8609 -0.8588
  744SOL    HW2 2232   2.632   2.032   0.225 -0.7729  4.9214  3.2690
  745SOL     OW 2233   2.143   2.634   2.275  0.1778 -0.7172  0.5450
  745SOL    HW1 2234   2.041   2.638   2.291  0.4863  0.7081  3.6962
  745SOL    HW2 2235   2.194   2.646   2.364 -1.4272  5.0880  0.4763
  746SOL     OW 2236   3.065   2.615   1.750  0.3626  0.0845  0.0794
  746SOL    HW1 2237   3.140   2.624   1.679 -0.3981 -0.1147  1.5496
  746SOL    HW2 2238   3.046   2.710   1.787  3.1558  0.3062 -1.1872
  747SOL     OW 2239   0.045   1.748   1.699  0.0333  0.0741 -0.7362
  747SOL    HW1 2240  -0.018   1.680   1.654  0.6840  3.8079  0.7428
  747SOL    HW2 2241   0.130   1.773   1.636  1.0062 -0.1859 -0.5350
  748SOL     OW 2242   1.826   2.729   2.868 -0.0759 -0.1986 -0.5751
  748SOL    HW1 2243   1.847   2.810   2.929  4.5128  1.4475 -0.7729
  748SOL    HW2 2244   1.735   2.723   2.818 -0.9434  2.0443 -1.8391
  749SOL     OW 2245   1.345   3.032   0.915 -0.8543  0.3269  1.2523
  749SOL    HW1 2246   1.263   2.977   0.919  0.5697  5.1992 -0.1022
  749SOL    HW2 2247   1.410   3.014   0.831 -0.7620  2.7637 -1.5011
  750SOL     OW 2248   2.273   0.179   1.884 -0.0552 -0.3093  0.4601
  750SOL    HW1 2249   2.280   0.249   1.808  1.2251  0.7082  1.4114
  750SOL    HW2 2250   2.287   0.228   1.977 -0.4155  1.6989  3.1969
  751SOL     OW 2251   0.873   2.130   2.808  0.1450  0.7470 -0.2325
  751SOL    HW1 2252   0.932   2.133   2.893  0.4016  3.2802 -1.4887
  751SOL    HW2 2253   0.774   2.110   2.835 -0.3469  0.3675  1.3090
  752SOL     OW 2254   1.321   0.860   1.292  0.0751 -0.0202  0.6452
  752SOL    HW1 2255   1.399   0.931   1.293  1.4414 -0.1926  3.4734
  752SOL    HW2 2256   1.346   0.758   1.316  1.3068 -0.8307  1.6943
  753SOL     OW 2257   0.920   2.608   1.652  0.2671 -0.0047 -0.2307
  753SOL    HW1 2258   1.027   2.609   1.651 -0.7979  1.3272 -0.5877
  753SOL    HW2 2259   0.881   2.698   1.628  0.2783 -2.0340  1.3624
  754SOL     OW 2260   1.101   1.236   2.996 -0.1185 -0.1862 -0.4128
  754SOL    HW1 2261   1.180   1.206   2.944  0.2943  0.8898  0.9258
  754SOL    HW2 2262   1.128   1.327   3.038 -0.2571  0.0318 -0.9830
  755SOL     OW 2263   2.006   0.464   2.229  0.0050 -0.2313  0.5084
  755SOL    HW1 2264   2.064   0.384   2.262  1.6699 -1.8569 -3.0153
  755SOL    HW2 2265   1.917   0.461   2.280  1.5974 -1.6664  0.5881
  756SOL     OW 2266   2.559   1.030   2.968  0.1014  0.7024  0.0384
  756SOL    HW1 2267   2.659   1.024   2.995  0.0716  2.4051  1.1210
  756SOL    HW2 2268   2.516   0.934   2.993 -3.5635  3.1527  0.2865
  757SOL     OW 2269   0.052   0.536   1.915 -0.5516 -0.0086 -0.8335
  757SOL    HW1 2270   0.060   0.487   1.827  1.4082  0.9146  2.3372
  757SOL    HW2 2271   0.029   0.468   1.986 -0.1038 -2.2041 -1.5049
  758SOL     OW 2272   2.319   0.098   1.500  0.6498 -0.7651 -0.9118
  758SOL    HW1 2273   2.294   0.002   1.519  1.9143 -1.0764  0.0883
  758SOL    HW2 2274   2.343   0.111   1.402  0.5072 -0.2820  1.4127
  759SOL     OW 2275   1.709   0.126   0.041  0.1619  0.0577  0.4094
  759SOL    HW1 2276   1.648   0.067  -0.018 -0.1256 -0.8371  0.5114
  759SOL    HW2 2277   1.807   0.092   0.039 -2.4080 -0.1368  0.1939
  760SOL     OW 2278   2.693   2.070   2.827 -0.0646  0.0654 -0.0303
  760SOL    HW1 2279   2.729   2.003   2.899  0.0145  0.7996 -0.5190
  760SOL    HW2 2280   2.656   2.156   2.867 -1.6608  0.4509  0.0452
  761SOL     OW 2281   1.895   1.717   1.705 -0.0866  1.2834  0.0780
  761SOL    HW1 2282   1.932   1.623   1.733  0.5558 -1.5491  1.7119
  761SOL    HW2 2283   1.833   1.718   1.621 -1.5440 -2.9856 -1.9730
  762SOL     OW 2284   0.512   2.352   0.961 -0.5036  0.0119 -0.1063
  762SOL    HW1 2285   0.576   2.321   0.881  0.3866  0.3111 -0.9275
  762SOL    HW2 2286   0.565   2.420   1.019  0.8870 -2.1433  0.2607
  763SOL     OW 2287   2.101   1.573   2.974  0.3266 -0.5387 -0.2299
  763SOL    HW1 2288   2.191   1.518   2.955  2.6509 -1.4057 -1.1029
  763SOL    HW2 2289   2.047   1.536   3.060 -2.1204  2.0342  0.3281
  764SOL     OW 2290   0.668   0.624   0.824 -0.1297  0.1317 -0.0865
  764SOL    HW1 2291   0.594   0.562   0.787 -1.3244  0.1909 -0.2483
  764SOL    HW2 2292   0.751   0.566   0.853 -0.6653 -3.5881  1.1999
  765SOL     OW 2293   0.708   0.227   0.755 -0.2979  0.1237 -0.7714
  765SOL    HW1 2294   0.772   0.268   0.688 -2.9085 -2.3003  0.6826
  765SOL    HW2 2295   0.689   0.282   0.847  2.3126  1.4074 -0.3521
  766SOL     OW 2296   2.847   2.116   0.013  0.0598  0.4119  0.4252
  766SOL    HW1 2297   2.752   2.127   0.054 -1.5978  1.9907  3.3094
  766SOL    HW2 2298   2.901   2.200  -0.016 -1.3143  0.7529  0.3329
  767SOL     OW 2299   2.775   1.604   0.619  0.6755 -0.6392  0.5880
  767SOL    HW1 2300   2.706   1.654   0.682  2.8296  3.4405  0.8004
  767SOL    HW2 2301   2.844   1.667   0.585 -3.8004  1.1639 -0.7961
  768SOL     OW 2302   1.035   0.057   0.271 -0.4530 -0.0621 -0.2357
  768SOL    HW1 2303   0.991   0.064   0.362  1.1132  0.0580  1.6589
  768SOL    HW2 2304   1.134   0.028   0.281 -3.2999 -2.2479  0.8198
  769SOL     OW 2305   1.050   1.942   2.267 -0.2848 -0.2067 -0.7014
  769SOL    HW1 2306   0.949   1.937   2.277  2.1893 -3.2226  0.7074
  769SOL    HW2 2307   1.103   1.905   2.347  1.2068 -0.9179  0.6722
  770SOL     OW 2308   0.182   1.133   2.299  0.3078 -0.3811  0.1822
  770SOL    HW1 2309   0.187   1.173   2.398  0.6441 -5.2039  1.8041
  770SOL    HW2 2310   0.085   1.108   2.276  0.1224 -0.3733  0.9156
  771SOL     OW 2311   2.965   2.831   1.881  0.1977 -0.0710 -0.1160
  771SOL    HW1 2312   2.953   2.903   1.802  1.6823 -0.2781 -1.8445
  771SOL    HW2 2313   2.967   2.881   1.972  0.0163 -0.9905 -0.4068
  772SOL     OW 2314   2.190   0.220   2.910 -0.0312  0.3526 -0.7516
  772SOL    HW1 2315   2.220   0.125   2.930 -1.8565 -0.0903 -0.0231
  772SOL    HW2 2316   2.176   0.268   2.998  0.6535 -0.9071 -4.0935
  773SOL     OW 2317   0.721   2.141   2.427  0.1918 -0.0988 -0.1175
  773SOL    HW1 2318   0.681   2.187   2.345 -0.4193  0.3404  2.8811
  773SOL    HW2 2319   0.675   2.167   2.512  0.8023  2.0517 -0.6182
  774SOL     OW 2320   2.049  -0.001   2.618  0.2240 -0.0315  0.7866
  774SOL    HW1 2321   2.046   0.093   2.661  1.2839  0.3256  2.6541
  774SOL    HW2 2322   2.096  -0.069   2.678 -3.4262  2.3391 -2.3992
  775SOL     OW 2323   2.522   2.868   2.374 -0.1969 -0.5356 -0.0340
  775SOL    HW1 2324   2.505   2.967   2.379  1.0526 -0.1554 -0.1175
  775SOL    HW2 2325   2.574   2.843   2.458  0.7292  0.3431  0.1776
  776SOL     OW 2326   3.101   1.257   0.193 -0.3477  0.5082  0.0548
  776SOL    HW1 2327   3.072   1.180   0.130  0.5486  0.7027  1.1762
  776SOL    HW2 2328   3.058   1.247   0.283  0.2124  2.3812  0.4029
  777SOL     OW 2329   0.358   2.854   0.410 -0.2755  0.2974  0.2658
  777SOL    HW1 2330   0.271   2.908   0.439  0.3755 -1.6207  0.3642
  777SOL    HW2 2331   0.445   2.914   0.400  1.2086  0.6316 -0.0454
  778SOL     OW 2332   1.353   1.940   0.183 -0.2780  0.4393 -0.1011
  778SOL    HW1 2333   1.276   1.983   0.237 -1.9027  1.0272  0.3006
  778SOL    HW2 2334   1.406   2.014   0.142 -1.6590 -1.9784  1.4079
  779SOL     OW 2335   0.171   0.839   0.487 -0.0380  0.0622  0.0973
  779SOL    HW1 2336   0.103   0.761   0.470 -0.7830 -1.4316  1.9259
  779SOL    HW2 2337   0.121   0.922   0.529 -0.9100 -0.4922  0.3202
  780SOL     OW 2338   0.105   0.208   2.297  0.4910  0.0532 -0.2903
  780SOL    HW1 2339   0.157   0.298   2.288  1.5181 -0.0112 -0.1535
  780SOL    HW2 2340   0.150   0.130   2.244  0.9477 -1.5744 -2.6230
  781SOL     OW 2341   0.655   1.707   1.524  0.1002  0.6631  0.3730
  781SOL    HW1 2342   0.737   1.681   1.583 -1.8777  0.2732  0.9138
  781SOL    HW2 2343   0.569   1.655   1.542  1.7735 -0.8633  0.2524
  782SOL     OW 2344   2.587   0.093   0.902  0.1728  0.2563 -0.3178
  782SOL    HW1 2345   2.513   0.093   0.825 -2.9812  3.2814 -2.5187
  782SOL    HW2 2346   2.563   0.160   0.974  0.3826  0.8755 -2.9713
  783SOL     OW 2347   2.860   0.751   2.556  0.0491  0.3879  0.5172
  783SOL    HW1 2348   2.792   0.775   2.628 -2.4565 -0.9451  1.1760
  783SOL    HW2 2349   2.840   0.663   2.511  2.6340  1.5876  0.1226
  784SOL     OW 2350   1.466   2.201   0.084  0.1467 -0.3836  0.0186
  784SOL    HW1 2351   1.541   2.249   0.140  0.1878 -0.9430  1.2923
  784SOL    HW2 2352   1.443   2.253  -0.005  2.2286 -0.9562  1.9663
  785SOL     OW 2353   2.133   0.324   0.068  0.0651  0.5191  0.1933
  785SOL    HW1 2354   2.069   0.327   0.155 -0.4061 -0.8937  2.2723
  785SOL    HW2 2355   2.131   0.409   0.009 -1.4349  2.0223 -0.6025
  786SOL     OW 2356   2.004   2.173   2.214  0.0355 -0.3122 -0.5565
  786SOL    HW1 2357   2.005   2.088   2.265 -1.8485  3.5740 -3.5680
  786SOL    HW2 2358   2.071   2.170   2.135 -2.4223  1.0284 -1.3577
  787SOL     OW 2359   1.400   0.568   1.016  0.6061  1.1037 -0.4346
  787SOL    HW1 2360   1.324   0.635   1.030  1.7325 -2.5954 -0.3446
  787SOL    HW2 2361   1.426   0.561   0.916 -1.2545 -0.9403 -0.3043
  788SOL     OW 2362   1.261   0.400   0.057  0.2469  0.3700 -0.5503
  788SOL    HW1 2363   1.173   0.391   0.003 -3.7793 -1.6266  0.8359
  788SOL    HW2 2364   1.251   0.457   0.140 -1.8798  1.5085 -0.5813
  789SOL     OW 2365   2.562   0.101   1.849 -0.5638 -0.0690 -0.3372
  789SOL    HW1 2366   2.460   0.118   1.870  1.5012  2.3736 -0.9312
  789SOL    HW2 2367   2.580   0.004   1.834  0.4192  0.2472  1.3024
  790SOL     OW 2368   2.672   2.778   0.789 -0.5290  0.0549  0.1478
  790SOL    HW1 2369   2.736   2.827   0.723  2.3380 -0.5207 -1.8512
  790SOL    HW2 2370   2.663   2.816   0.887 -0.4505 -4.3191  0.2079
  791SOL     OW 2371   1.920   1.195   0.208 -0.3069  0.2026  0.0071
  791SOL    HW1 2372   1.828   1.157   0.251 -3.6006  0.5809 -0.9604
  791SOL    HW2 2373   1.995   1.184   0.278 -0.8532  2.5345  0.7703
  792SOL     OW 2374   0.435   1.981   2.165 -0.0712  1.1217 -0.3772
  792SOL    HW1 2375   0.505   1.917   2.215  1.8061  0.0354  0.0020
  792SOL    HW2 2376   0.367   2.031   2.229  0.8593  0.1622  0.3986
  793SOL     OW 2377   2.086   1.573   2.148  0.6462 -0.1680  0.2716
  793SOL    HW1 2378   2.182   1.609   2.130  0.2715  0.2658 -0.6876
  793SOL    HW2 2379   2.070   1.485   2.104 -0.0551  1.0983 -3.6201
  794SOL     OW 2380   0.463   1.340   2.406 -0.2813  0.0833  0.6514
  794SOL    HW1 2381   0.453   1.297   2.311 -1.8110 -0.1033 -0.0225
  794SOL    HW2 2382   0.434   1.440   2.403  0.4332  0.4936 -0.8616
  795SOL     OW 2383   2.459   2.281   1.807 -0.7448  0.1872 -0.6732
  795SOL    HW1 2384   2.423   2.330   1.890 -1.4481  0.8034 -1.2811
  795SOL    HW2 2385   2.410   2.193   1.782 -0.0396 -0.7531 -3.5168
  796SOL     OW 2386   3.049   1.118   2.681  0.2937 -0.0309 -0.2397
  796SOL    HW1 2387   2.948   1.115   2.709 -1.8904  1.3386  1.5731
  796SOL    HW2 2388   3.110   1.112   2.765  2.9000 -2.1436  1.3962
  797SOL     OW 2389   0.780   0.616   1.401  0.5253 -0.4407 -0.1908
  797SOL    HW1 2390   0.856   0.657   1.461  0.9384  0.3225  0.2990
  797SOL    HW2 2391   0.719   0.692   1.359 -2.6609 -1.0326 -0.8442
  798SOL     OW 2392   1.339   0.308   1.118  0.3701  0.6770 -0.0964
  798SOL    HW1 2393   1.358   0.313   1.221  2.7787 -1.2120  4.3457
  798SOL    HW2 2394   1.369   0.391   1.071 -0.3149 -0.3790  2.9285
  799SOL     OW 2395   1.913   2.719   1.043 -0.0712 -0.7768 -0.3040
  799SOL    HW1 2396   1.900   2.691   1.144 -1.4573  2.2895  2.4366
  799SOL    HW2 2397   1.823   2.734   1.004  1.3610  0.1184  0.5922
  800SOL     OW 2398   2.950   0.735   1.887 -0.1382  0.3740  0.3109
  800SOL    HW1 2399   2.976   0.834   1.901  1.0910 -1.6168 -0.5640
  800SOL    HW2 2400   3.024   0.671   1.927 -1.8738  1.3593  1.6952
  801SOL     OW 2401   1.941   2.240   0.093 -0.0581  0.4752  0.4314
  801SOL    HW1 2402   1.873   2.235   0.016 -3.1744  1.3835 -0.4560
  801SOL    HW2 2403   2.021   2.173   0.080 -0.9160 -0.5818  3.8240
  802SOL     OW 2404   0.693   0.807   2.535  0.4016  0.2725  0.1518
  802SOL    HW1 2405   0.760   0.798   2.457  1.0415  1.2597  0.7093
  802SOL    HW2 2406   0.598   0.763   2.520  0.5134 -0.2110 -1.2363
  803SOL     OW 2407   0.969   0.032   0.833  0.1272 -0.0109 -0.9116
  803SOL    HW1 2408   1.037   0.105   0.860 -1.2394  1.3393  0.2071
  803SOL    HW2 2409   0.909   0.057   0.756 -2.4156 -1.9867  0.7133
  804SOL     OW 2410   0.313   0.037   2.161  0.4972  0.3292 -0.3914
  804SOL    HW1 2411   0.321   0.141   2.161 -0.4432 -0.2595 -1.8503
  804SOL    HW2 2412   0.274  -0.007   2.074  0.9194  1.1748 -0.6236
  805SOL     OW 2413   2.362   0.334   0.414 -0.0185  0.0975  0.4060
  805SOL    HW1 2414   2.436   0.345   0.487  1.9890 -1.0063  1.1454
  805SOL    HW2 2415   2.404   0.303   0.324  1.2569  1.4736 -0.2065
  806SOL     OW 2416   0.638   2.456   1.795 -0.3471  0.5816 -0.1867
  806SOL    HW1 2417   0.621   2.560   1.809  0.8581  0.7949  3.3367
  806SOL    HW2 2418   0.721   2.433   1.739  1.4678  1.0595  3.4085
  807SOL     OW 2419   2.491   0.842   0.351  0.0800 -0.2113  0.0915
  807SOL    HW1 2420   2.572   0.871   0.407 -0.7304 -1.6178 -2.5105
  807SOL    HW2 2421   2.468   0.917   0.281 -1.4962 -0.1209  0.6693
  808SOL     OW 2422   0.609   2.061   2.903  0.5933 -0.2688 -0.9339
  808SOL    HW1 2423   0.573   2.133   2.972  0.7121  0.1087  0.5036
  808SOL    HW2 2424   0.597   1.963   2.940  4.8141 -1.9971  0.1724
  809SOL     OW 2425   2.655   1.957   1.878 -0.4237  0.0974 -0.0903
  809SOL    HW1 2426   2.736   2.021   1.880 -2.8723  0.2777 -1.1838
  809SOL    HW2 2427   2.599   1.953   1.789  1.0415 -3.2837 -0.3505
  810SOL     OW 2428   2.108   1.066   0.558  0.3021 -0.0596  0.0970
  810SOL    HW1 2429   2.088   0.981   0.613 -3.0175 -1.0393 -2.8266
  810SOL    HW2 2430   2.096   1.156   0.614 -0.8588  1.1484 -2.2680
  811SOL     OW 2431   1.328   2.507   1.200 -0.0919  0.3380  0.9274
  811SOL    HW1 2432   1.288   2.413   1.230 -2.6940 -1.6412 -0.1676
  811SOL    HW2 2433   1.266   2.585   1.223  1.1422 -0.5624 -0.4004
  812SOL     OW 2434   1.413   0.745   1.939  0.1252 -0.1740 -0.4508
  812SOL    HW1 2435   1.450   0.839   1.957  1.3661  2.4214 -0.4039
  812SOL    HW2 2436   1.322   0.722   1.981 -1.1594 -0.6722 -0.0077
  813SOL     OW 2437   1.705   2.075   2.517  0.0515  0.3106  0.3762
  813SOL    HW1 2438   1.782   2.009   2.545 -2.7029  1.4263 -0.0121
  813SOL    HW2 2439   1.645   2.036   2.438 -0.7185  1.6008  1.2330
  814SOL     OW 2440   2.908   1.509   2.833 -0.0752 -0.8741  0.2299
  814SOL    HW1 2441   2.998   1.488   2.884  0.3350 -1.5439  0.0947
  814SOL    HW2 2442   2.883   1.611   2.837 -1.4026  1.6410  0.9830
  815SOL     OW 2443   2.163   2.900   2.778  0.6309  0.1208 -0.0589
  815SOL    HW1 2444   2.148   2.825   2.851 -0.6258 -1.8398  0.2929
  815SOL    HW2 2445   2.241   2.960   2.806 -1.0918 -1.1504 -0.9779
  816SOL     OW 2446   1.647   0.323   1.597  0.0409 -0.0304  0.0265
  816SOL    HW1 2447   1.679   0.231   1.625 -2.3911  0.3281  1.3328
  816SOL    HW2 2448   1.561   0.352   1.651 -0.5540 -0.5122  0.6183
  817SOL     OW 2449   0.384   1.151   2.577 -0.2293 -0.2466  0.3620
  817SOL    HW1 2450   0.281   1.161   2.579  0.8709 -3.2369 -0.2923
  817SOL    HW2 2451   0.423   1.234   2.530  1.1921 -1.4931  1.9166
  818SOL     OW 2452   1.908   0.906   0.394  0.5568  0.5249 -0.6015
  818SOL    HW1 2453   2.012   0.925   0.399  1.8953 -0.9906 -0.0355
  818SOL    HW2 2454   1.859   0.965   0.460  4.8404 -1.6640 -1.9067
  819SOL     OW 2455   2.754   2.967   2.957  0.0932  0.2108  0.0021
  819SOL    HW1 2456   2.822   2.893   2.955 -2.3558  3.4290 -1.0294
  819SOL    HW2 2457   2.670   2.952   2.898  1.5134  0.8362  0.5052
  820SOL     OW 2458   1.232   1.064   0.626 -0.4294  0.1916 -0.4499
  820SOL    HW1 2459   1.242   1.156   0.673  0.3552 -0.1762  0.1031
  820SOL    HW2 2460   1.231   0.981   0.691 -3.1626  1.8451 -2.5940
  821SOL     OW 2461   0.012   1.279   0.688  0.4368  0.0170 -0.1444
  821SOL    HW1 2462  -0.022   1.268   0.782  0.4815  1.9031  0.2793
  821SOL    HW2 2463   0.077   1.359   0.690  0.8384 -1.4276  2.2235
  822SOL     OW 2464   2.570   1.724   2.425  0.5269  0.2939  0.1259
  822SOL    HW1 2465   2.598   1.783   2.509 -1.7722  0.8870 -0.1697
  822SOL    HW2 2466   2.488   1.762   2.373 -1.0885 -0.8040  0.5073
  823SOL     OW 2467   2.058   0.908   1.189 -0.3966 -0.1436 -0.2571
  823SOL    HW1 2468   2.018   0.866   1.275  1.5712  0.3480 -0.6128
  823SOL    HW2 2469   1.995   0.957   1.129 -1.2769 -1.1846 -0.3665
  824SOL     OW 2470   0.267   2.036   2.819  0.1502 -0.3748  0.9842
  824SOL    HW1 2471   0.233   1.956   2.877  2.7136 -0.8146 -0.8336
  824SOL    HW2 2472   0.338   2.006   2.749 -0.7386 -0.5095  0.6223
  825SOL     OW 2473   1.293   1.100   0.285 -0.0564 -0.8841 -0.1925
  825SOL    HW1 2474   1.328   1.186   0.241  1.6274  0.1757 -0.2871
  825SOL    HW2 2475   1.228   1.121   0.366  0.3506 -0.4856  1.8002
  826SOL     OW 2476   1.878   0.673   1.619  0.0565  0.0929  0.3426
  826SOL    HW1 2477   1.967   0.625   1.632 -0.2085 -1.0364 -0.8770
  826SOL    HW2 2478   1.811   0.620   1.561  2.1701 -1.2471  1.3002
  827SOL     OW 2479   0.677   1.218   0.199  0.1340  1.0940  0.0744
  827SOL    HW1 2480   0.765   1.168   0.180 -2.4397  3.0260  0.7699
  827SOL    HW2 2481   0.614   1.155   0.251  3.8929  0.7907 -0.4501
  828SOL     OW 2482   2.593   0.168   1.596  0.9076  1.1252 -0.2102
  828SOL    HW1 2483   2.496   0.151   1.566 -0.7041  0.0915  1.9998
  828SOL    HW2 2484   2.602   0.163   1.700  0.3674 -1.4635 -0.8903
  829SOL     OW 2485   2.772   2.480   3.014  0.2504 -0.5071 -0.2788
  829SOL    HW1 2486   2.689   2.419   3.026 -0.3104  0.2195  0.0990
  829SOL    HW2 2487   2.744   2.579   2.988  0.4572  1.8861 -2.5293
  830SOL     OW 2488   2.798   0.972   3.058  0.1363  0.4405  0.2803
  830SOL    HW1 2489   2.863   1.053   3.050 -0.8004 -1.5968  1.1534
  830SOL    HW2 2490   2.840   0.891   3.107 -1.2143  2.1699 -1.6205
  831SOL     OW 2491   3.090   0.668   0.408 -0.4838  0.2688 -0.2634
  831SOL    HW1 2492   3.071   0.629   0.501  1.2483 -0.8984 -1.8397
  831SOL    HW2 2493   3.130   0.594   0.344 -1.9355 -0.2083  0.3832
  832SOL     OW 2494   1.820   0.751   2.977  0.3916  0.2429 -0.0629
  832SOL    HW1 2495   1.729   0.797   2.950 -1.5611 -0.1295 -0.1475
  832SOL    HW2 2496   1.816   0.655   3.014  1.1691 -0.0646 -1.6631
  833SOL     OW 2497   2.434   2.146   0.515 -0.6391 -0.1615 -0.3437
  833SOL    HW1 2498   2.333   2.151   0.487 -1.8578 -2.0435 -1.0231
  833SOL    HW2 2499   2.466   2.050   0.520  0.2721  0.6113 -2.2581
  834SOL     OW 2500   0.202   0.221   0.474 -0.1309 -0.1498  0.2192
  834SOL    HW1 2501   0.212   0.139   0.537 -2.7675  4.7885  1.3890
  834SOL    HW2 2502   0.153   0.196   0.386  0.1866  0.3359 -2.0889
  835SOL     OW 2503   2.306   1.569   1.083 -0.6159 -0.2131 -0.1144
  835SOL    HW1 2504   2.258   1.616   1.007 -0.4150 -1.6824  0.4254
  835SOL    HW2 2505   2.407   1.567   1.057  3.3737 -0.2540  0.3350
  836SOL     OW 2506   1.621   0.828   2.596  0.0398  0.0096  0.4110
  836SOL    HW1 2507   1.513   0.817   2.601 -1.1159  1.6867 -1.0797
  836SOL    HW2 2508   1.658   0.827   2.494  0.4680  0.7380 -0.5165
  837SOL     OW 2509   1.700   0.130   0.531 -0.5276 -0.2289 -0.1993
  837SOL    HW1 2510   1.650   0.182   0.603 -1.4180 -0.8655 -1.7543
  837SOL    HW2 2511   1.647   0.121   0.442  2.3656  0.0760  0.3489
  838SOL     OW 2512   1.175   1.555   2.816 -0.1197 -0.7981 -0.2800
  838SOL    HW1 2513   1.159   1.528   2.915  2.0880  0.6450  1.0564
  838SOL    HW2 2514   1.119   1.496   2.752 -1.1908  1.4742  0.9657
  839SOL     OW 2515   1.699   0.304   1.026  0.4033 -0.5634 -0.6907
  839SOL    HW1 2516   1.724   0.389   1.082  0.4890 -1.6392  1.3578
  839SOL    HW2 2517   1.689   0.219   1.081 -0.4752  2.0643 -0.3311
  840SOL     OW 2518   2.573   2.953   1.766  1.0198  0.4979 -0.3328
  840SOL    HW1 2519   2.531   2.913   1.676  2.5643  0.9173 -0.1692
  840SOL    HW2 2520   2.593   2.870   1.831  3.3774 -2.6970 -0.7753
  841SOL     OW 2521   1.512   0.825   2.984 -0.1324 -0.2235  0.3614
  841SOL    HW1 2522   1.465   0.857   3.076  2.0332 -0.0604  0.1412
  841SOL    HW2 2523   1.532   0.907   2.918 -0.0868  0.6903  0.9571
  842SOL     OW 2524   0.832   1.547   0.952  0.8518 -0.0287 -0.3182
  842SOL    HW1 2525   0.798   1.633   1.001  0.8333  0.6767  0.6822
  842SOL    HW2 2526   0.750   1.497   0.914  0.4448 -3.6487  0.6701
  843SOL     OW 2527   0.073   0.060   1.438  0.4025  0.0445  0.4278
  843SOL    HW1 2528   0.168   0.094   1.447 -1.9689  1.6716  1.2432
  843SOL    HW2 2529   0.059  -0.040   1.468 -0.0403 -1.4981 -1.5847
  844SOL     OW 2530   0.794   2.519   0.306 -0.7025 -1.0879  0.0273
  844SOL    HW1 2531   0.723   2.502   0.377  1.4549 -1.9595  1.0779
  844SOL    HW2 2532   0.761   2.568   0.223  3.1377  0.2881 -0.0173
  845SOL     OW 2533   1.623   2.900   1.364 -0.3192  0.0025 -0.0973
  845SOL    HW1 2534   1.684   2.899   1.445 -0.0966  2.3028 -1.1293
  845SOL    HW2 2535   1.525   2.904   1.392 -0.1072  1.7497  0.2489
  846SOL     OW 2536   1.535   2.928   0.738  0.3196 -0.1862  0.5110
  846SOL    HW1 2537   1.557   2.893   0.642  1.2433  2.2086 -3.6257
  846SOL    HW2 2538   1.619   2.949   0.798  1.0613  2.1094  0.9630
  847SOL     OW 2539   2.052   1.660   0.300 -0.0541 -0.0590 -0.0876
  847SOL    HW1 2540   2.004   1.586   0.350 -0.9507 -1.6873 -2.0650
  847SOL    HW2 2541   1.983   1.741   0.292 -0.6076  0.8700 -1.8638
  848SOL     OW 2542   2.471   0.854   2.587  0.5593 -0.2875  0.1860
  848SOL    HW1 2543   2.426   0.946   2.613 -0.7917  0.4833 -1.5462
  848SOL    HW2 2544   2.393   0.787   2.587 -0.5577  2.0327  1.7433
  849SOL     OW 2545   2.593   0.810   2.346 -0.1932  0.2821  0.1922
  849SOL    HW1 2546   2.687   0.761   2.344  0.9261  0.1711 -2.3627
  849SOL    HW2 2547   2.557   0.827   2.440  1.4819  1.4155  0.7262
  850SOL     OW 2548   1.533   0.108   1.352 -0.1772  0.2460  0.4549
  850SOL    HW1 2549   1.550   0.093   1.246 -1.5704  0.3457 -2.9718
  850SOL    HW2 2550   1.459   0.034   1.373  0.7661 -1.3535  0.8536
  851SOL     OW 2551   0.447   1.805   0.603 -0.0728  0.0593  0.1772
  851SOL    HW1 2552   0.478   1.903   0.625 -1.6549  0.7394 -1.4090
  851SOL    HW2 2553   0.523   1.744   0.566  0.5208 -1.6624  0.8176
  852SOL     OW 2554   0.764   2.132   1.671  0.2722 -0.1822  0.6053
  852SOL    HW1 2555   0.752   2.228   1.632 -4.6340 -1.4535 -0.9513
  852SOL    HW2 2556   0.690   2.102   1.736 -2.6509  1.4140  0.9767
  853SOL     OW 2557   2.566   1.500   2.587 -0.5815  0.8954  0.1622
  853SOL    HW1 2558   2.498   1.422   2.560  0.8324 -0.8188 -0.8505
  853SOL    HW2 2559   2.557   1.577   2.516 -0.9394 -2.2999  1.0883
  854SOL     OW 2560   2.408   1.417   1.699  0.3090  0.5996 -0.0436
  854SOL    HW1 2561   2.407   1.428   1.597  0.8602 -0.4745 -2.0069
  854SOL    HW2 2562   2.382   1.322   1.721  0.3015  2.6825 -1.6585
  855SOL     OW 2563   2.055   2.408   0.942  0.6177 -0.5957 -0.3876
  855SOL    HW1 2564   2.054   2.503   0.892  1.0953 -0.0696 -2.9010
  855SOL    HW2 2565   2.103   2.407   1.039 -0.6673 -1.5779  1.6471
  856SOL     OW 2566   1.355   1.499   0.902 -0.3049  0.6695  0.1073
  856SOL    HW1 2567   1.409   1.580   0.936  0.0765  1.3596 -0.3775
  856SOL    HW2 2568   1.251   1.505   0.933 -0.8990  0.2844  1.0837
  857SOL     OW 2569   3.065   2.682   1.023  0.9006 -1.0356 -0.0679
  857SOL    HW1 2570   3.019   2.607   0.974  0.3788  0.0168  0.4106
  857SOL    HW2 2571   3.163   2.697   0.985 -0.4422  1.9616 -1.2362
  858SOL     OW 2572   2.323   2.010   1.730  0.0919 -0.2475  0.7631
  858SOL    HW1 2573   2.247   1.960   1.684 -2.3173  1.4553  1.4389
  858SOL    HW2 2574   2.409   2.011   1.675 -1.3471  0.2086  2.1927
  859SOL     OW 2575   2.494   0.558   1.031 -0.0388  0.1250  0.3758
  859SOL    HW1 2576   2.570   0.608   0.975  0.3502  1.1415 -0.2125
  859SOL    HW2 2577   2.526   0.459   1.057 -1.6758 -0.5073  1.1642
  860SOL     OW 2578   1.954   2.817   0.423 -0.3246 -0.1672  0.2358
  860SOL    HW1 2579   1.895   2.815   0.338  2.9535  0.8411  3.8667
  860SOL    HW2 2580   2.050   2.804   0.393 -0.2345 -0.4696 -1.3050
  861SOL     OW 2581   1.102   2.467   2.843 -0.3481  0.2472 -0.7914
  861SOL    HW1 2582   1.152   2.550   2.805  2.7408  0.4896 -0.3375
  861SOL    HW2 2583   1.100   2.466   2.946  1.1000 -1.7975  1.6205
  862SOL     OW 2584   2.827   2.574   1.606 -0.1527 -0.2156 -0.2313
  862SOL    HW1 2585   2.913   2.604   1.655 -0.4277  1.7613 -0.9915
  862SOL    HW2 2586   2.783   2.646   1.551  0.4230  0.5214  0.6742
  863SOL     OW 2587   1.852   2.714   0.175  0.3203 -0.1235 -0.2375
  863SOL    HW1 2588   1.924   2.636   0.174  1.1064 -0.8020 -1.1476
  863SOL    HW2 2589   1.757   2.674   0.161 -0.4642 -3.0547  3.0700
  864SOL     OW 2590   1.909   1.193   2.854 -0.0911  0.1120  0.2310
  864SOL    HW1 2591   1.931   1.140   2.767  1.0443  1.1303 -0.7719
  864SOL    HW2 2592   1.963   1.166   2.936 -0.0256 -0.9384  0.1354
  865SOL     OW 2593   2.222   1.818   0.612  0.4806  0.7305 -0.2424
  865SOL    HW1 2594   2.276   1.874   0.679  2.1885  1.4689 -1.1632
  865SOL    HW2 2595   2.129   1.794   0.650  1.0115  0.1609 -2.0627
  866SOL     OW 2596   2.917   2.916   1.022  0.7642  0.5460 -0.0498
  866SOL    HW1 2597   2.943   2.971   0.941  1.6459 -1.4202 -0.4026
  866SOL    HW2 2598   2.979   2.830   1.031 -0.7323  1.7434 -1.3427
  867SOL     OW 2599   0.321   1.350   0.905  0.4980 -0.8594 -0.1705
  867SOL    HW1 2600   0.311   1.265   0.847 -0.4924  1.7594 -0.2877
  867SOL    HW2 2601   0.253   1.427   0.880 -0.4273  2.1131 -1.0191
  868SOL     OW 2602   0.725   1.870   1.981 -0.2852  0.1693  0.5351
  868SOL    HW1 2603   0.709   1.871   2.085  1.7513  1.0404  2.6624
  868SOL    HW2 2604   0.695   1.954   1.931  0.9364 -2.1061  1.1845
  869SOL     OW 2605   2.573   1.939   1.603  0.0095  0.0301 -0.0576
  869SOL    HW1 2606   2.661   2.003   1.590  1.4963  2.5924 -1.2983
  869SOL    HW2 2607   2.599   1.839   1.609 -0.0067  0.4002 -2.1938
  870SOL     OW 2608   2.230   2.645   1.261  0.7417  0.5328 -0.0625
  870SOL    HW1 2609   2.232   2.538   1.254  0.5147  2.5097  0.8223
  870SOL    HW2 2610   2.230   2.687   1.358 -2.6663 -0.2222  2.8247
  871SOL     OW 2611   3.030   2.207   0.532  0.2592 -0.4187  0.5743
  871SOL    HW1 2612   2.980   2.210   0.622 -0.2829  3.2594 -0.0600
  871SOL    HW2 2613   2.977   2.249   0.452 -0.7810 -0.8738 -0.7729
  872SOL     OW 2614   2.118   0.502   1.679  0.1245 -0.7268 -0.2994
  872SOL    HW1 2615   2.083   0.492   1.775  1.7614 -0.2255 -1.0288
  872SOL    HW2 2616   2.216   0.465   1.664  0.0749 -0.2112 -4.8105
  873SOL     OW 2617   1.714   2.131   3.028 -0.2149  0.2596  0.1291
  873SOL    HW1 2618   1.624   2.151   3.074  0.0220 -0.9902  0.2083
  873SOL    HW2 2619   1.710   2.113   2.926  0.5332  1.2222 -0.9877
  874SOL     OW 2620   0.687   2.447   0.750 -0.5592 -0.2685 -0.5491
  874SOL    HW1 2621   0.682   2.536   0.799  0.4960 -0.6539  2.4416
  874SOL    HW2 2622   0.776   2.397   0.783 -2.2254 -1.7302 -0.6421
  875SOL     OW 2623   2.341   1.510   1.410 -0.5188  0.6367  0.1183
  875SOL    HW1 2624   2.423   1.574   1.424  1.1942 -2.1127  0.4644
  875SOL    HW2 2625   2.305   1.513   1.315  2.0678  1.4540  4.4370
  876SOL     OW 2626   0.085   2.233   2.760  0.0951 -0.1025  0.3950
  876SOL    HW1 2627   0.161   2.161   2.790  2.5927 -0.8261 -2.1544
  876SOL    HW2 2628   0.112   2.335   2.777  3.0256  2.2977  2.7799
  877SOL     OW 2629   2.914   2.661   0.577 -0.0714  0.0416 -0.0690
  877SOL    HW1 2630   2.902   2.762   0.589  2.2599 -2.8843  0.7680
  877SOL    HW2 2631   2.948   2.617   0.665  1.1319 -0.3895 -0.3191
  878SOL     OW 2632   2.764   1.490   2.241  0.1963  0.2781 -0.6137
  878SOL    HW1 2633   2.868   1.486   2.229  0.7194 -1.0388  2.1314
  878SOL    HW2 2634   2.738   1.546   2.324 -0.3520  0.3510  1.4409
  879SOL     OW 2635   2.376   0.099   1.236 -0.3145 -0.2133  0.0953
  879SOL    HW1 2636   2.413   0.005   1.259  2.5263  0.4042 -1.1925
  879SOL    HW2 2637   2.310   0.098   1.155 -1.1020 -0.1060  2.3296
  880SOL     OW 2638   0.741   0.497   2.235 -0.6355  0.0372  0.5669
  880SOL    HW1 2639   0.672   0.458   2.300 -2.0096  0.0924  1.3657
  880SOL    HW2 2640   0.791   0.427   2.178 -0.2886  0.1207  1.1479
  881SOL     OW 2641   0.862   0.052   0.483 -0.4746 -0.1470 -0.5117
  881SOL    HW1 2642   0.876  -0.047   0.514  0.8379  2.5990 -0.5781
  881SOL    HW2 2643   0.756   0.063   0.471  0.4255  0.8753 -0.5306
  882SOL     OW 2644   2.709   1.689   1.708  0.0901  0.4941 -0.1771
  882SOL    HW1 2645   2.803   1.674   1.674 -0.7951 -1.4935  2.6107
  882SOL    HW2 2646   2.704   1.707   1.810  0.8490 -0.9242  2.8484
  883SOL     OW 2647   0.918   0.562   0.954  0.3758  0.3749  0.7006
  883SOL    HW1 2648   0.942   0.645   1.011 -0.8997 -0.1811  0.9442
  883SOL    HW2 2649   0.893   0.483   1.016  0.1740  1.3571 -1.2273
  884SOL     OW 2650   1.200   1.742   1.175  0.3309  1.1536 -0.6098
  884SOL    HW1 2651   1.169   1.680   1.094 -0.3214  0.1593 -1.0007
  884SOL    HW2 2652   1.166   1.835   1.154 -0.0658 -4.1107  1.5199
  885SOL     OW 2653   2.315   1.775   2.296  0.2535 -0.2101  0.0633
  885SOL    HW1 2654   2.245   1.730   2.357  1.3639 -2.9085 -1.9788
  885SOL    HW2 2655   2.295   1.875   2.282  0.9571  1.7320 -2.1217
  886SOL     OW 2656   2.603   0.397   1.791  0.0449  0.3922 -0.2817
  886SOL    HW1 2657   2.615   0.301   1.831  2.4481 -0.8390  0.1921
  886SOL    HW2 2658   2.693   0.450   1.790 -1.5981  0.4419  0.1557
  887SOL     OW 2659   0.099   2.005   1.345 -0.3384  0.7091 -0.7182
  887SOL    HW1 2660   0.037   1.949   1.285 -1.8178  0.7781  2.0612
  887SOL    HW2 2661   0.137   2.090   1.303 -1.4924  1.2534 -1.1080
  888SOL     OW 2662   0.577   1.219   1.532  0.2541  0.3544  0.3821
  888SOL    HW1 2663   0.605   1.255   1.437  1.2051  0.0853 -1.3791
  888SOL    HW2 2664   0.492   1.153   1.532 -0.3853  1.9185 -0.8601
  889SOL     OW 2665   0.823   2.469   2.177  0.5044  0.1712 -0.2535
  889SOL    HW1 2666   0.742   2.401   2.186  1.8421 -0.4033  2.3747
  889SOL    HW2 2667   0.867   2.475   2.084  2.3468  0.7186  4.2596
  890SOL     OW 2668   2.418   2.426   0.218  0.0800 -0.0593 -0.5338
  890SOL    HW1 2669   2.463   2.476   0.140  1.8955  1.1526  2.0601
  890SOL    HW2 2670   2.373   2.495   0.284 -1.5503 -1.2820 -0.8619
  891SOL     OW 2671   2.556   1.718   0.727  0.3213 -0.2952  0.1043
  891SOL    HW1 2672   2.566   1.698   0.827 -2.7636  0.4440  2.0498
  891SOL    HW2 2673   2.468   1.677   0.699 -2.2638 -0.4076  0.9232
  892SOL     OW 2674   0.356   0.320   2.234  0.2335  0.2835 -0.4378
  892SOL    HW1 2675   0.388   0.389   2.161  0.0882 -1.4811 -1.0364
  892SOL    HW2 2676   0.414   0.327   2.322  1.9986  0.5256  0.7995
  893SOL     OW 2677   1.702   0.256   2.740 -0.0482  0.8455  0.5227
  893SOL    HW1 2678   1.788   0.315   2.756  0.2350  1.7310 -1.4843
  893SOL    HW2 2679   1.615   0.308   2.716  1.7915 -1.0444 -0.5290
  894SOL     OW 2680   2.112   2.034   0.014  0.0873 -0.0362 -0.2938
  894SOL    HW1 2681   2.095   1.987  -0.082 -1.3495 -2.9868  0.6702
  894SOL    HW2 2682   2.163   1.969   0.079  2.5693 -1.6927  0.0837
  895SOL     OW 2683   2.805   1.426   0.934 -0.7695  0.0350 -0.5572
  895SOL    HW1 2684   2.904   1.384   0.941  0.0264 -0.9214  1.8684
  895SOL    HW2 2685   2.809   1.524   0.910 -0.4233 -1.9551 -0.5044
  896SOL     OW 2686   1.778   1.808   1.204  0.4015  0.2067  0.5782
  896SOL    HW1 2687   1.821   1.748   1.131 -0.7639  0.4409  0.9024
  896SOL    HW2 2688   1.721   1.885   1.165 -1.7706 -0.2843  1.1693
  897SOL     OW 2689   0.344   0.535   3.082  0.6499 -0.3429  0.6654
  897SOL    HW1 2690   0.275   0.570   3.016 -2.3087  0.4318  2.7783
  897SOL    HW2 2691   0.437   0.584   3.066  2.6440 -0.1707  0.9113
  898SOL     OW 2692   0.555   2.865   1.085 -0.2723 -0.3138 -0.4911
  898SOL    HW1 2693   0.521   2.964   1.107  2.2706  0.3310 -0.0481
  898SOL    HW2 2694   0.634   2.838   1.148 -0.4183  1.8311 -0.2159
  899SOL     OW 2695   2.831   0.924   1.285 -0.0401  0.0813 -0.0399
  899SOL    HW1 2696   2.762   0.931   1.206 -1.6244 -2.8455  1.4055
  899SOL    HW2 2697   2.932   0.936   1.265 -0.1223 -1.0829  0.3079
  900SOL     OW 2698   0.962   2.530   2.421 -0.6780 -0.5048  0.0451
  900SOL    HW1 2699   0.888   2.517   2.347 -2.0059 -0.0113  1.0746
  900SOL    HW2 2700   0.938   2.497   2.511  2.2954  3.0731 -1.5298
  901SOL     OW 2701   1.917   2.343   1.376 -0.0445 -0.0421 -0.0199
  901SOL    HW1 2702   1.896   2.303   1.284 -0.3854 -0.5775  0.3095
  901SOL    HW2 2703   2.021   2.346   1.397  2.6164 -0.3151 -0.7950
  902SOL     OW 2704   2.581   1.650   1.454  0.4131  0.0071 -0.2543
  902SOL    HW1 2705   2.621   1.645   1.551  0.5625 -2.7239  0.0454
  902SOL    HW2 2706   2.648   1.619   1.378 -2.0206  0.0233  0.8050
  903SOL     OW 2707   0.241   2.467   1.962  0.0882  0.1930 -0.0905
  903SOL    HW1 2708   0.148   2.424   1.935  1.4144 -0.6771  1.5801
  903SOL    HW2 2709   0.274   2.547   1.906  1.8953 -2.4552 -0.1058
  904SOL     OW 2710   2.037   0.815   2.515  0.1118  0.2519 -0.3894
  904SOL    HW1 2711   1.959   0.761   2.554  0.5370  3.1492 -0.8542
  904SOL    HW2 2712   2.037   0.825   2.409 -3.0073 -1.2890 -1.5299
  905SOL     OW 2713   2.848   0.096   2.561 -0.4847 -0.3906 -0.2344
  905SOL    HW1 2714   2.914   0.016   2.550 -0.3576 -0.0199  0.6037
  905SOL    HW2 2715   2.896   0.183   2.538  1.1131 -3.7409 -0.2580
  906SOL     OW 2716   0.197   1.698   1.928 -0.0446  0.6580  0.1918
  906SOL    HW1 2717   0.142   1.739   1.852  0.2381 -2.7020  1.4514
  906SOL    HW2 2718   0.292   1.732   1.921 -0.8054 -3.3930  0.8173
  907SOL     OW 2719   0.256   2.456   1.032 -0.5306  0.3016 -0.0652
  907SOL    HW1 2720   0.357   2.426   1.022  0.7262  2.7827 -1.9895
  907SOL    HW2 2721   0.196   2.413   0.961  2.1873 -1.8653  0.4760
  908SOL     OW 2722   2.768   2.983   0.364 -0.6338  0.0682  0.3112
  908SOL    HW1 2723   2.717   3.043   0.299 -1.0881 -3.0843  1.9151
  908SOL    HW2 2724   2.824   2.911   0.315  0.0677  0.0291 -0.5028
  909SOL     OW 2725   0.781   1.037   2.646 -0.6387 -0.2601  0.2375
  909SOL    HW1 2726   0.766   0.942   2.601 -2.3574 -1.2255 -2.1372
  909SOL    HW2 2727   0.861   1.089   2.601  0.4296  0.8869 -1.2071
  910SOL     OW 2728   1.755   1.884   2.174 -0.2776  0.1114  0.2297
  910SOL    HW1 2729   1.772   1.899   2.071 -0.4181  1.2205  1.3066
  910SOL    HW2 2730   1.664   1.932   2.211 -1.7135  1.6433 -1.4031
  911SOL     OW 2731   1.810   2.938   1.596  0.0698 -0.0968 -0.3993
  911SOL    HW1 2732   1.850   2.915   1.505 -0.4923  0.2375  0.4958
  911SOL    HW2 2733   1.846   2.875   1.672 -1.4164 -0.7247 -0.3581
  912SOL     OW 2734   2.853   0.997   0.709 -0.4197  0.3452 -0.6174
  912SOL    HW1 2735   2.899   0.970   0.797 -3.7615  2.5116  2.1977
  912SOL    HW2 2736   2.801   1.087   0.713 -0.1792 -1.3954 -0.2071
  913SOL     OW 2737   2.576   1.277   1.502  0.3055 -0.6708 -0.2557
  913SOL    HW1 2738   2.633   1.194   1.515  0.5033  1.5460 -0.1612
  913SOL    HW2 2739   2.613   1.330   1.422  2.7863  0.9212  0.2667
  914SOL     OW 2740   2.807   0.619   1.221  0.3344  0.0394  0.5528
  914SOL    HW1 2741   2.777   0.522   1.249  1.0658 -0.8427 -2.0443
  914SOL    HW2 2742   2.815   0.676   1.307  2.2843  0.2296 -0.4043
  915SOL     OW 2743   1.177   0.752   1.093  0.3167  0.8514  0.2372
  915SOL    HW1 2744   1.212   0.822   1.162  2.0220 -1.4913 -2.8418
  915SOL    HW2 2745   1.069   0.762   1.089  0.5608  3.8353 -1.0725
  916SOL     OW 2746   0.603   0.015   0.646  0.0252 -0.1611  1.3276
  916SOL    HW1 2747   0.643   0.092   0.699 -0.2673 -0.2557  1.3854
  916SOL    HW2 2748   0.580   0.036   0.546  0.2758 -0.8764 -0.3076
  917SOL     OW 2749   2.830   2.615   1.978 -0.5847  0.1881 -0.0355
  917SOL    HW1 2750   2.736   2.654   1.988  0.0102  0.5139  0.9123
  917SOL    HW2 2751   2.893   2.682   1.932 -2.1500 -2.5025  0.0773
  918SOL     OW 2752   1.022   2.135   3.057  0.5454  0.8331  0.0631
  918SOL    HW1 2753   0.986   2.198   3.129 -2.3981 -2.4309  0.1301
  918SOL    HW2 2754   1.105   2.176   3.012  1.0901 -1.9618  1.1163
  919SOL     OW 2755   0.851   1.642   2.889 -0.0627  0.4134 -0.0822
  919SOL    HW1 2756   0.891   1.702   2.815 -1.7087 -2.3376 -1.1941
  919SOL    HW2 2757   0.799   1.566   2.847  1.3736  0.7489  0.4755
  920SOL     OW 2758   1.196   1.847   2.491  0.0858 -0.1798 -0.3402
  920SOL    HW1 2759   1.289   1.821   2.447 -0.3155 -0.9665 -0.3537
  920SOL    HW2 2760   1.205   1.836   2.595 -2.7555 -1.9955 -0.4010
  921SOL     OW 2761   1.046   0.024   2.617 -0.3945  0.0735  0.4859
  921SOL    HW1 2762   1.014  -0.022   2.527 -0.9172  1.2610 -2.3973
  921SOL    HW2 2763   0.965   0.070   2.667  0.9778 -1.5780  0.0755
  922SOL     OW 2764   2.135   2.389   2.783 -0.9412  0.0292 -0.0885
  922SOL    HW1 2765   2.195   2.304   2.778  1.3457  3.7314  0.9553
  922SOL    HW2 2766   2.096   2.403   2.690  1.7151 -0.9016 -0.1473
  923SOL     OW 2767   1.267   2.675   0.270  0.1324  0.5267  0.0527
  923SOL    HW1 2768   1.336   2.746   0.288 -1.0424 -0.9006  0.4478
  923SOL    HW2 2769   1.306   2.582   0.263 -1.1873  1.3328  0.2056
  924SOL     OW 2770   2.859   1.548   0.160 -0.1303 -0.6334 -0.4843
  924SOL    HW1 2771   2.788   1.563   0.088  1.8995  0.7241 -1.5157
  924SOL    HW2 2772   2.953   1.533   0.120  0.5621  1.3066  0.4893
  925SOL     OW 2773   3.091   2.879   1.519 -0.5100  0.5024  0.5044
  925SOL    HW1 2774   3.004   2.891   1.575  1.3215  1.6248 -2.5340
  925SOL    HW2 2775   3.073   2.845   1.421 -0.7409  0.0191  1.3558
  926SOL     OW 2776   1.305   2.799   1.263 -0.2009  0.1893 -0.3063
  926SOL    HW1 2777   1.365   2.804   1.179  2.7622 -0.3671  1.8337
  926SOL    HW2 2778   1.288   2.887   1.315  1.5744 -0.8830  0.3448
  927SOL     OW 2779   0.332   2.663   1.771 -0.2049 -0.4868 -0.4926
  927SOL    HW1 2780   0.319   2.600   1.691  0.0022  1.8593  0.4893
  927SOL    HW2 2781   0.298   2.762   1.753  1.2852  0.6480  0.1240
  928SOL     OW 2782   1.537   2.049   2.283 -0.4596  0.0375  0.0486
  928SOL    HW1 2783   1.569   2.129   2.223 -0.4870  0.7230 -0.3943
  928SOL    HW2 2784   1.433   2.069   2.303 -0.5540 -0.4018  0.6913
  929SOL     OW 2785   2.414   2.492   2.866  0.2724 -0.7565 -0.1486
  929SOL    HW1 2786   2.313   2.472   2.860  2.3701  1.6553  0.6253
  929SOL    HW2 2787   2.466   2.472   2.777  2.5205  0.5035  1.9144
  930SOL     OW 2788   2.215   2.016   1.081  0.5458  0.3237 -0.0745
  930SOL    HW1 2789   2.173   1.985   1.169 -1.3505 -0.8422  0.8109
  930SOL    HW2 2790   2.282   2.097   1.097 -1.2072  1.4087 -1.4033
  931SOL     OW 2791   0.541   1.712   2.737  0.4462 -0.1868  0.0540
  931SOL    HW1 2792   0.590   1.772   2.808 -1.9998  2.0453  0.3567
  931SOL    HW2 2793   0.571   1.612   2.724 -1.4430  1.3972 -0.6525
  932SOL     OW 2794   0.476   0.146   2.990 -0.7811 -0.1960 -0.8142
  932SOL    HW1 2795   0.549   0.211   3.032  2.2618  1.9116  1.7612
  932SOL    HW2 2796   0.467   0.054   3.036  1.0924  1.4578  0.5130
  933SOL     OW 2797   1.005   0.801   3.060 -0.1098  0.5170 -0.5504
  933SOL    HW1 2798   1.012   0.828   3.156 -0.2585 -0.2047  0.2057
  933SOL    HW2 2799   0.969   0.878   2.999 -1.1749 -0.1265 -1.3422
  934SOL     OW 2800   0.781   2.970   2.644  0.0281  0.0564 -0.3806
  934SOL    HW1 2801   0.790   2.910   2.557  1.1301 -0.7313  0.6593
  934SOL    HW2 2802   0.830   2.919   2.719 -0.7377  0.4675 -2.2022
  935SOL     OW 2803   0.024   0.571   0.828 -0.5697  0.2024  0.3605
  935SOL    HW1 2804   0.027   0.527   0.729  1.2922  1.4186  2.2098
  935SOL    HW2 2805  -0.073   0.597   0.856  0.1340 -2.0225 -0.9690
  936SOL     OW 2806   1.108   2.786   0.078 -0.6593  0.6881  0.1074
  936SOL    HW1 2807   1.160   2.847   0.012  1.3440  0.8697  1.3319
  936SOL    HW2 2808   1.174   2.755   0.155 -0.9662  2.0121 -1.2977
  937SOL     OW 2809   1.901   2.630   2.100  0.2875 -0.4042 -0.0287
  937SOL    HW1 2810   1.828   2.694   2.133  0.8156  5.4954 -2.8107
  937SOL    HW2 2811   1.980   2.682   2.058  0.2648 -2.0710  1.1158
  938SOL     OW 2812   2.785   2.112   1.613  0.2421  0.3123  0.1148
  938SOL    HW1 2813   2.745   2.212   1.617  1.7952  3.1350 -1.4849
  938SOL    HW2 2814   2.882   2.099   1.644  0.4578 -0.7907 -1.1490
  939SOL     OW 2815   2.884   1.208   2.424 -0.1173 -0.1805 -0.0467
  939SOL    HW1 2816   2.930   1.175   2.338 -2.4425  0.0956 -1.3944
  939SOL    HW2 2817   2.923   1.152   2.499  1.6023 -1.9309 -2.1219
  940SOL     OW 2818   1.032   0.397   2.722  0.0888  0.1800 -0.1603
  940SOL    HW1 2819   1.103   0.320   2.723  0.6460 -2.8181 -1.2340
  940SOL    HW2 2820   0.943   0.362   2.675 -1.6199 -1.5066  1.1176
  941SOL     OW 2821   0.057   2.783   2.262 -0.2178 -0.2115 -0.2112
  941SOL    HW1 2822   0.118   2.703   2.280 -0.1432 -0.1500  1.1440
  941SOL    HW2 2823   0.096   2.864   2.309 -2.4820 -3.6607 -1.3765
  942SOL     OW 2824   0.141   0.082   2.558 -0.3198  0.5859  0.2530
  942SOL    HW1 2825   0.190   0.138   2.636 -0.3566  1.7211 -0.7496
  942SOL    HW2 2826   0.107   0.147   2.480  0.8735  2.4634 -1.3508
  943SOL     OW 2827   2.096   1.678   2.412 -0.3566  0.3269  0.6040
  943SOL    HW1 2828   2.084   1.644   2.309  2.3936 -2.5517 -1.3949
  943SOL    HW2 2829   2.106   1.598   2.479  0.9443 -1.2265 -1.0987
  944SOL     OW 2830   2.175   2.327   1.467  0.1836  0.3452  0.2430
  944SOL    HW1 2831   2.254   2.387   1.506 -0.4366  0.1633  1.9433
  944SOL    HW2 2832   2.149   2.255   1.543  2.8108 -0.1347  1.3747
  945SOL     OW 2833   0.670   1.497   0.238 -0.1720 -0.2805  0.1900
  945SOL    HW1 2834   0.614   1.521   0.154  0.2811  1.6132  0.2713
  945SOL    HW2 2835   0.672   1.391   0.250 -1.9487 -0.0638  0.2909
  946SOL     OW 2836   0.414   0.921   2.450 -0.5896  0.1800 -0.0336
  946SOL    HW1 2837   0.321   0.880   2.431  1.5026  1.1603 -2.2888
  946SOL    HW2 2838   0.406   1.016   2.498 -0.6071 -1.7412 -1.3199
  947SOL     OW 2839   1.533   0.522   3.074 -0.2209 -0.7549  0.2925
  947SOL    HW1 2840   1.519   0.577   2.983 -2.5432  1.3184 -4.0751
  947SOL    HW2 2841   1.446   0.475   3.097 -0.8586  0.3384 -0.0410
  948SOL     OW 2842   1.843   3.046   2.147  0.4979  0.0137  0.2907
  948SOL    HW1 2843   1.898   3.000   2.067  0.1317 -2.3103 -1.9514
  948SOL    HW2 2844   1.840   2.978   2.220  1.5308  0.3118 -0.7569
  949SOL     OW 2845   0.611   2.471   0.496  0.2392  0.2422  0.1022
  949SOL    HW1 2846   0.570   2.566   0.494 -1.9619  0.4868  0.6833
  949SOL    HW2 2847   0.635   2.444   0.595 -4.8584  2.0384  3.1348
  950SOL     OW 2848   0.203   2.214   3.061  0.3702 -0.1217 -0.3988
  950SOL    HW1 2849   0.134   2.289   3.034 -0.1885 -1.1234 -0.3661
  950SOL    HW2 2850   0.224   2.147   2.986 -0.3080  1.3756 -2.0328
  951SOL     OW 2851   1.245   2.693   2.748  0.2594  0.3678 -0.7411
  951SOL    HW1 2852   1.305   2.633   2.809  2.1131 -1.4845 -2.6063
  951SOL    HW2 2853   1.302   2.733   2.667 -1.8914  0.2605 -0.9878
  952SOL     OW 2854   0.015   1.715   0.378 -0.1189  0.3362 -0.0777
  952SOL    HW1 2855   0.082   1.799   0.386  1.0096  2.0254 -0.5524
  952SOL    HW2 2856   0.056   1.628   0.428  2.7643 -7.1514 -0.2485
  953SOL     OW 2857   2.538   1.783   0.215 -0.2196 -0.4880  0.4627
  953SOL    HW1 2858   2.518   1.689   0.183  1.8559  0.8008  0.5131
  953SOL    HW2 2859   2.541   1.841   0.127 -0.4871  1.1666 -0.4882
  954SOL     OW 2860   2.233   0.545   0.923  0.1299  0.3356  0.0991
  954SOL    HW1 2861   2.236   0.558   0.821  1.8515 -0.3338  1.6166
  954SOL    HW2 2862   2.327   0.527   0.964 -0.3338 -0.1303  0.1183
  955SOL     OW 2863   0.168   2.590   1.298 -0.2106 -0.0248 -0.6054
  955SOL    HW1 2864   0.082   2.645   1.322 -0.9612  1.3267  1.6957
  955SOL    HW2 2865   0.202   2.620   1.203 -3.2410 -0.3649  0.9692
  956SOL     OW 2866   2.827   2.444   2.501 -0.2532  0.4007 -0.4827
  956SOL    HW1 2867   2.807   2.351   2.454 -2.7178 -0.1660 -1.3960
  956SOL    HW2 2868   2.881   2.498   2.437 -1.7650 -1.2413 -0.1176
  957SOL     OW 2869   1.648   2.059   2.786 -0.7475 -0.0261  0.2150
  957SOL    HW1 2870   1.597   1.977   2.741 -0.1743  0.4362 -0.5918
  957SOL    HW2 2871   1.682   2.123   2.712 -1.0743 -0.6719 -0.0910
  958SOL     OW 2872   2.556   2.312   2.996  0.3973  0.1730 -0.1905
  958SOL    HW1 2873   2.523   2.393   2.941 -1.1465 -0.8471 -2.9821
  958SOL    HW2 2874   2.483   2.247   3.029 -0.2184  1.2413  1.5452
  959SOL     OW 2875   0.251   2.812   0.052  0.1788  0.3518 -0.0942
  959SOL    HW1 2876   0.157   2.776   0.018  0.6243  0.1617 -0.6491
  959SOL    HW2 2877   0.301   2.730   0.100  0.2023  0.4687  3.5666
  960SOL     OW 2878   2.027   0.489   1.940  0.6242 -0.1503  0.1268
  960SOL    HW1 2879   1.950   0.552   1.920  2.5879 -0.8687  1.3240
  960SOL    HW2 2880   2.021   0.446   2.036  1.9283  3.2818  1.3976
  961SOL     OW 2881   2.569   1.851   0.997  0.0675 -0.2621  0.2097
  961SOL    HW1 2882   2.580   1.944   0.956  2.5403  0.0098  0.6812
  961SOL    HW2 2883   2.525   1.840   1.092 -1.3093 -3.9705 -2.0805
  962SOL     OW 2884   1.316   0.951   0.040 -0.1002  0.5869  0.0483
  962SOL    HW1 2885   1.284   0.983  -0.054 -1.1678 -2.9000 -0.2704
  962SOL    HW2 2886   1.292   1.017   0.116 -1.6364  0.4156  2.8322
  963SOL     OW 2887   2.219   2.570   1.833  0.1997  0.0072 -0.0905
  963SOL    HW1 2888   2.181   2.479   1.858  1.0322 -0.2356  0.2362
  963SOL    HW2 2889   2.238   2.635   1.913 -0.3600  2.1577  2.6906
  964SOL     OW 2890   2.354   0.377   1.678  0.0570 -0.1340  0.1215
  964SOL    HW1 2891   2.440   0.391   1.732  0.6654 -0.5138  0.5316
  964SOL    HW2 2892   2.368   0.362   1.579  0.5139 -1.2021  2.5350
  965SOL     OW 2893   2.633   3.072   0.134 -0.6490  0.3407 -0.4675
  965SOL    HW1 2894   2.673   3.040   0.045  1.2422  0.4343  0.3036
  965SOL    HW2 2895   2.533   3.064   0.130  2.4729  0.4607  0.3186
  966SOL     OW 2896   2.632   2.574   2.192  0.0431 -0.3863 -0.1903
  966SOL    HW1 2897   2.681   2.658   2.229 -1.6370  1.4280  0.5592
  966SOL    HW2 2898   2.540   2.599   2.152  0.3815 -0.0604 -0.7271
  967SOL     OW 2899   2.805   2.830   2.496  0.5349 -0.2568  0.1903
  967SOL    HW1 2900   2.834   2.755   2.428  0.7807  0.1129 -0.1018
  967SOL    HW2 2901   2.879   2.901   2.513 -1.2276 -0.4179  0.5373
  968SOL     OW 2902   1.902   1.035   2.626  0.1985 -0.7064 -0.0771
  968SOL    HW1 2903   1.809   1.060   2.581 -3.1912  0.1568 -0.9872
  968SOL    HW2 2904   1.956   0.966   2.564  0.3496  0.0802  0.5929
  969SOL     OW 2905   2.851   2.446   1.128 -0.2705 -0.7795  0.2630
  969SOL    HW1 2906   2.828   2.425   1.029  0.0788 -1.3011  0.1843
  969SOL    HW2 2907   2.858   2.358   1.184  0.3114  1.2194  0.0292
  970SOL     OW 2908   1.023   2.092   1.820  0.0449  0.5923  0.4623
  970SOL    HW1 2909   0.934   2.106   1.771  1.1859 -2.2923 -1.3582
  970SOL    HW2 2910   1.021   2.131   1.917 -0.4972 -0.5498  0.3397
  971SOL     OW 2911   2.924   2.089   1.937 -0.2509 -0.4385 -0.8882
  971SOL    HW1 2912   2.909   2.191   1.959  0.0900 -0.4522 -2.8602
  971SOL    HW2 2913   2.967   2.085   1.845 -0.8276 -0.6756  2.3610
  972SOL     OW 2914   1.979   2.481   0.229  0.0562  0.2752 -0.3775
  972SOL    HW1 2915   1.972   2.393   0.172 -1.7045 -2.7984 -0.6124
  972SOL    HW2 2916   2.014   2.466   0.320  0.4765 -2.6493 -1.9811
  973SOL     OW 2917   1.279   1.025   1.909  0.0736 -0.6291  0.1064
  973SOL    HW1 2918   1.223   0.993   1.827 -0.9407 -0.8533  0.3206
  973SOL    HW2 2919   1.254   1.122   1.934  1.7504 -1.5046  0.9144
  974SOL     OW 2920   1.610   0.564   1.992 -0.4721  0.7138  0.0218
  974SOL    HW1 2921   1.697   0.608   1.951 -0.9090 -1.6536  0.4385
  974SOL    HW2 2922   1.518   0.611   1.975 -1.2982 -1.9678 -0.8805
  975SOL     OW 2923   2.362   3.050   0.066  0.3816  0.0772 -0.0655
  975SOL    HW1 2924   2.320   2.956   0.056 -0.4294 -0.4866  0.6754
  975SOL    HW2 2925   2.371   3.091  -0.027  1.6807  0.8053  0.7482
  976SOL     OW 2926   1.918   2.860   2.373  0.3118  0.2107  0.5258
  976SOL    HW1 2927   1.845   2.794   2.346  1.5158 -0.0290 -1.0961
  976SOL    HW2 2928   1.966   2.834   2.464 -0.7780  0.3866 -0.6796
  977SOL     OW 2929   0.442   0.646   1.000 -0.6967  0.0305 -0.3739
  977SOL    HW1 2930   0.368   0.692   0.942 -2.3664 -1.4132  3.0403
  977SOL    HW2 2931   0.543   0.663   0.977  0.3935 -1.4597  2.9661
   3.10000   3.10000   3.10000
