1000 SPC/Fw water molecules t=   1.81000 step= 1810
 2931
    1SOL     OW    1   2.521   0.348   2.657 -0.1389 -0.4197 -0.1175
    1SOL    HW1    2   2.525   0.243   2.656  0.0532 -1.4475  2.6669
    1SOL    HW2    3   2.596   0.388   2.717 -0.9244 -1.3568 -2.2385
    2SOL     OW    4   2.715   2.883   1.371  0.2173 -0.9828 -0.5588
    2SOL    HW1    5   2.810   2.904   1.349 -0.3044 -0.7430  0.5190
    2SOL    HW2    6   2.693   2.895   1.470 -2.1756  1.8985 -1.1132
    3SOL     OW    7   2.727   2.443   0.406  0.4028 -0.3952  0.4750
    3SOL    HW1    8   2.627   2.405   0.404 -0.7041  1.0727 -0.7589
    3SOL    HW2    9   2.749   2.522   0.473  0.6380  2.0135 -0.6284
    4SOL     OW   10   1.271   1.533   2.452 -0.6617  0.0934  0.1716
    4SOL    HW1   11   1.220   1.556   2.365 -0.1026 -0.9103 -0.2869
    4SOL    HW2   12   1.212   1.481   2.517 -2.1530  1.7243 -3.2994
    5SOL     OW   13   1.130   1.578   2.947  0.3700  0.0780 -1.1744
    5SOL    HW1   14   1.180   1.661   2.994  1.7418 -1.0407  1.2685
    5SOL    HW2   15   1.028   1.599   2.916 -0.9600  1.9230 -1.6737
    6SOL     OW   16   0.200   1.849   0.022 -1.1022 -0.0135  0.9072
    6SOL    HW1   17   0.109   1.871   0.060 -3.5190  1.2915 -0.6476
    6SOL    HW2   18   0.238   1.767   0.073  0.0920  0.3012  1.4793
    7SOL     OW   19   2.518   0.923   1.065  0.3316 -0.2499 -0.8413
    7SOL    HW1   20   2.431   0.870   1.082  1.1717 -1.7803  1.4886
    7SOL    HW2   21   2.556   0.923   0.970  0.0638 -1.4250  0.2987
    8SOL     OW   22   0.414   0.699   1.504  0.4330  0.8593 -0.4700
    8SOL    HW1   23   0.505   0.660   1.536  0.1344  0.8331  0.9939
    8SOL    HW2   24   0.414   0.752   1.413  0.8631 -1.0151 -1.9050
    9SOL     OW   25   1.106   0.900   2.343 -0.6730  0.3098  0.0959
    9SOL    HW1   26   1.184   0.907   2.263 -2.0297 -1.8202 -0.7296
    9SOL    HW2   27   1.055   0.809   2.346 -0.5071  0.2688 -1.8194
   10SOL     OW   28   0.654   1.419   1.272 -0.6566  0.8814 -0.0446
   10SOL    HW1   29   0.581   1.406   1.200 -0.5370  2.5177  2.9998
   10SOL    HW2   30   0.667   1.516   1.303  1.2786  2.7765  0.7780
   11SOL     OW   31   2.315   2.840   0.922  0.2517 -0.5064  0.3650
   11SOL    HW1   32   2.251   2.826   1.006 -2.3665 -0.9559  3.0221
   11SOL    HW2   33   2.411   2.878   0.951 -0.1995 -1.7253 -0.0225
   12SOL     OW   34   1.478   0.844   0.485 -0.0087 -0.2314 -0.3382
   12SOL    HW1   35   1.385   0.881   0.463 -0.3844  0.9366  4.2612
   12SOL    HW2   36   1.513   0.786   0.410 -1.0760 -0.3830  2.0271
   13SOL     OW   37   2.446   0.744   1.798 -0.2460  0.4748  0.0666
   13SOL    HW1   38   2.391   0.683   1.859  0.6816 -0.8724  1.8519
   13SOL    HW2   39   2.482   0.695   1.714 -1.9958  0.1657  2.2751
   14SOL     OW   40   1.941   3.057   0.593 -0.1297  0.0139  0.0911
   14SOL    HW1   41   1.851   3.099   0.566  1.4150 -1.4681  2.6389
   14SOL    HW2   42   1.950   3.037   0.693 -1.3096 -3.1388  0.5194
   15SOL     OW   43   1.912   2.137   2.675 -0.4303 -0.4904  0.2372
   15SOL    HW1   44   1.841   2.139   2.746  0.7566  0.6306 -1.1546
   15SOL    HW2   45   1.904   2.052   2.618 -2.9446 -0.0204 -1.5923
   16SOL     OW   46   1.551   1.781   3.039 -0.4428  0.0848 -0.5332
   16SOL    HW1   47   1.537   1.714   3.118  1.0544 -3.8244 -0.5730
   16SOL    HW2   48   1.653   1.795   3.024  0.9603  2.0048  0.0819
   17SOL     OW   49   0.104   0.469   0.172 -0.3395 -0.2013  0.1689
   17SOL    HW1   50   0.201   0.508   0.169  0.9635  0.8640  1.1747
   17SOL    HW2   51   0.059   0.476   0.077 -2.7901 -0.4571 -1.4136
   18SOL     OW   52   0.883   2.859   2.170 -0.4421 -0.6357  0.5335
   18SOL    HW1   53   0.871   2.772   2.225 -0.2292  1.4270 -0.3130
   18SOL    HW2   54   0.971   2.864   2.112 -1.6728 -1.3048 -1.3408
   19SOL     OW   55   0.521   0.958   1.913 -0.2554  0.0969  0.3903
   19SOL    HW1   56   0.561   0.909   1.993  0.2201  0.1342  2.1298
   19SOL    HW2   57   0.589   1.021   1.866  0.8836 -0.3128  0.3108
   20SOL     OW   58   0.248   2.791   0.731  0.2184 -0.7134 -0.8449
   20SOL    HW1   59   0.143   2.789   0.745 -2.0883 -0.4267  0.2368
   20SOL    HW2   60   0.280   2.699   0.701 -0.5903  3.2093  0.6795
   21SOL     OW   61   2.782   0.284   2.013  0.0092  0.2822 -0.3845
   21SOL    HW1   62   2.723   0.211   1.969 -2.5715  1.9098 -1.1291
   21SOL    HW2   63   2.866   0.241   2.060 -0.5574 -2.2772  1.5633
   22SOL     OW   64   2.402   0.177   0.129  0.6445  0.0424 -0.1279
   22SOL    HW1   65   2.426   0.090   0.065  1.5471  0.1766 -4.1773
   22SOL    HW2   66   2.322   0.228   0.081 -1.7982 -0.9224 -1.1123
   23SOL     OW   67   2.822   0.520   0.671 -0.1931 -0.2077 -0.2751
   23SOL    HW1   68   2.861   0.424   0.675  0.6531 -1.1541  2.8427
   23SOL    HW2   69   2.829   0.563   0.579  1.5139  0.7753 -2.4764
   24SOL     OW   70   0.307   1.898   0.450 -0.3056  1.1388 -0.0520
   24SOL    HW1   71   0.289   1.991   0.404 -3.1603 -2.0765 -1.7014
   24SOL    HW2   72   0.381   1.847   0.394  0.1576 -0.8729 -0.9951
   25SOL     OW   73   2.302   0.601   0.231 -0.2132  0.2948  0.5697
   25SOL    HW1   74   2.293   0.591   0.128 -0.5527  0.5743  0.0402
   25SOL    HW2   75   2.342   0.515   0.276 -1.3324 -0.6368 -0.4646
   26SOL     OW   76   2.444   2.158   2.084  0.0815 -0.2882  0.5393
   26SOL    HW1   77   2.533   2.204   2.112 -0.2100  0.7767 -0.3609
   26SOL    HW2   78   2.465   2.090   2.006  0.8378 -1.0299 -1.3535
   27SOL     OW   79   0.640   3.017   0.124  0.3816 -0.2336  0.2670
   27SOL    HW1   80   0.729   3.052   0.099 -3.4037 -1.7492 -0.8714
   27SOL    HW2   81   0.570   3.013   0.050 -1.0746 -0.5994  1.6071
   28SOL     OW   82   1.574   0.169   0.333 -0.0331  0.1491  0.4740
   28SOL    HW1   83   1.604   0.145   0.238 -4.1586  1.5004  1.1815
   28SOL    HW2   84   1.636   0.250   0.364 -1.0395  2.4574  0.6269
   29SOL     OW   85   2.014   0.547   0.318  0.0122  0.0124  0.1468
   29SOL    HW1   86   1.980   0.635   0.364  1.8517  1.2332 -2.9701
   29SOL    HW2   87   2.114   0.560   0.289  1.4975  1.6375 -0.4008
   30SOL     OW   88   0.186   2.118   0.903 -0.3352  0.7566 -0.7531
   30SOL    HW1   89   0.170   2.047   0.830 -0.8776 -1.3230 -0.2586
   30SOL    HW2   90   0.096   2.147   0.945 -0.8554 -0.7556 -0.1521
   31SOL     OW   91   2.089   0.093   2.400  0.1516  0.2613 -0.4407
   31SOL    HW1   92   2.045   0.068   2.490 -0.0785 -0.4295 -0.7296
   31SOL    HW2   93   2.042   0.038   2.324 -0.6894  2.8555 -1.0259
   32SOL     OW   94   3.077   3.060   0.251 -0.2308  0.3408 -0.2010
   32SOL    HW1   95   3.038   2.965   0.278 -0.3589 -1.1871  0.8635
   32SOL    HW2   96   3.180   3.063   0.236  0.3334  0.0538 -1.2845
   33SOL     OW   97   0.870   0.274   0.634 -0.8671  0.7263 -0.0336
   33SOL    HW1   98   0.853   0.204   0.557 -0.9292 -0.4295 -1.1783
   33SOL    HW2   99   0.959   0.319   0.627  1.2711 -0.5896 -1.1036
   34SOL     OW  100   0.319   2.663   1.035  0.1572 -0.2419  0.3555
   34SOL    HW1  101   0.302   2.702   0.940 -0.7569 -1.3901  0.5764
   34SOL    HW2  102   0.398   2.701   1.087 -1.8906  0.3953 -1.0288
   35SOL     OW  103   0.081   0.187   1.894  0.6175  0.8649 -0.2522
   35SOL    HW1  104   0.098   0.090   1.932  0.7732  1.4665 -2.0597
   35SOL    HW2  105   0.039   0.176   1.799 -0.7297  2.1501 -0.6356
   36SOL     OW  106   1.879   1.216   1.503 -0.2060 -0.2107  0.0056
   36SOL    HW1  107   1.967   1.170   1.539  2.9383  1.4044 -1.2081
   36SOL    HW2  108   1.897   1.281   1.425 -3.3089 -1.8293 -0.2577
   37SOL     OW  109   1.150   0.269   1.010  0.3059  0.0273  0.2108
   37SOL    HW1  110   1.163   0.360   0.965  0.6882  1.4141 -2.1008
   37SOL    HW2  111   1.215   0.193   0.979  0.6740  0.2155  1.6597
   38SOL     OW  112   1.142   2.816   2.455 -0.5859 -0.7770 -0.1671
   38SOL    HW1  113   1.059   2.781   2.512 -1.9991 -2.3994  0.4332
   38SOL    HW2  114   1.131   2.910   2.419  1.2481 -1.3209 -1.6385
   39SOL     OW  115   2.467   1.400   2.985 -0.2611 -0.5132  0.1588
   39SOL    HW1  116   2.547   1.332   2.990 -0.6036 -2.6386 -0.9536
   39SOL    HW2  117   2.380   1.369   3.032 -0.8205  0.9305  0.8724
   40SOL     OW  118   2.047   2.518   2.513  0.3483 -0.6256 -0.0878
   40SOL    HW1  119   1.996   2.605   2.530  1.9117  1.0187  2.1165
   40SOL    HW2  120   1.986   2.456   2.451 -0.7716  0.1343 -2.2604
   41SOL     OW  121   3.027   0.707   2.824 -0.1048  0.0280  0.2000
   41SOL    HW1  122   3.001   0.795   2.878  1.6095 -0.5713  0.0124
   41SOL    HW2  123   2.949   0.657   2.778 -0.7170 -1.7069  0.4512
   42SOL     OW  124   1.708   1.767   0.486 -0.3175  0.2489 -0.0102
   42SOL    HW1  125   1.684   1.666   0.485 -0.3660  0.4387 -2.2526
   42SOL    HW2  126   1.742   1.796   0.395  1.2923  0.0939  2.0506
   43SOL     OW  127   0.488   1.686   1.121 -0.4060  0.2554 -0.0710
   43SOL    HW1  128   0.475   1.586   1.094 -1.6285 -2.5799 -1.0100
   43SOL    HW2  129   0.429   1.721   1.198  0.8660  2.7165 -0.1203
   44SOL     OW  130   1.680   2.350   2.934  0.2993  0.4475  0.2848
   44SOL    HW1  131   1.608   2.416   2.963  0.1364 -1.2839  0.2219
   44SOL    HW2  132   1.729   2.377   2.846 -0.9618  0.0756 -1.0692
   45SOL     OW  133   0.359   1.906   2.646 -0.3381  0.1594  0.0692
   45SOL    HW1  134   0.287   1.892   2.568 -1.0599  3.9093 -1.5808
   45SOL    HW2  135   0.427   1.827   2.666  1.6785 -0.0214  0.0715
   46SOL     OW  136   1.335   0.724   0.237  0.2068 -0.3750 -0.0181
   46SOL    HW1  137   1.313   0.808   0.181  0.3195  2.5556 -1.0992
   46SOL    HW2  138   1.278   0.640   0.211 -3.6686  0.5782 -1.5721
   47SOL     OW  139   0.139   2.373   1.607  0.1867 -0.1123 -0.3492
   47SOL    HW1  140   0.074   2.297   1.636  3.1189 -1.2814 -2.3848
   47SOL    HW2  141   0.137   2.384   1.504 -1.5182  0.0565  0.6836
   48SOL     OW  142   2.631   0.745   0.140  0.0635 -0.4113  0.3360
   48SOL    HW1  143   2.633   0.696   0.231  1.3772  2.0249 -0.8880
   48SOL    HW2  144   2.728   0.747   0.101 -1.1469 -0.8872 -0.0800
   49SOL     OW  145   0.333   0.850   1.742 -0.5960 -0.3219 -0.2318
   49SOL    HW1  146   0.389   0.901   1.813 -0.0028  1.0461  0.5878
   49SOL    HW2  147   0.396   0.796   1.677 -0.3080  0.3505 -1.8584
   50SOL     OW  148   1.693   1.100   0.314 -0.1429  0.0916  0.1845
   50SOL    HW1  149   1.749   1.012   0.302  0.1550  0.1551  0.1899
   50SOL    HW2  150   1.647   1.102   0.411 -2.1224 -0.8781 -0.5222
   51SOL     OW  151   2.993   1.751   0.305  0.2378  0.3901  0.0424
   51SOL    HW1  152   2.962   1.659   0.271  2.5283 -1.0658 -2.3691
   51SOL    HW2  153   3.078   1.745   0.366  0.8929  1.9517 -0.6950
   52SOL     OW  154   0.775   2.154   0.580  0.4233 -0.0492  0.2781
   52SOL    HW1  155   0.680   2.191   0.594 -1.2809 -0.9152 -1.1229
   52SOL    HW2  156   0.801   2.083   0.654 -0.3078  1.1327  1.2465
   53SOL     OW  157   0.299   0.452   1.441 -0.4646  0.5419  0.3074
   53SOL    HW1  158   0.346   0.543   1.455  0.8169  0.7545  1.3505
   53SOL    HW2  159   0.263   0.443   1.344  0.3560 -1.2947 -0.2600
   54SOL     OW  160   1.734   0.417   0.002 -0.4595 -0.1665  0.0435
   54SOL    HW1  161   1.804   0.379   0.071 -0.6966  0.2156  0.6316
   54SOL    HW2  162   1.640   0.420   0.046  0.5252  0.3346  1.7333
   55SOL     OW  163   0.790   2.955   0.620 -0.3943 -0.3131 -0.1133
   55SOL    HW1  164   0.762   3.053   0.600  0.8888  0.5663  0.2265
   55SOL    HW2  165   0.893   2.948   0.606  0.8685 -0.8745  2.1241
   56SOL     OW  166   0.528   1.544   3.028 -0.1639  0.5217 -0.6332
   56SOL    HW1  167   0.444   1.577   3.083  1.9112 -0.5371 -1.6955
   56SOL    HW2  168   0.513   1.451   2.980 -1.2702 -1.4427  2.9306
   57SOL     OW  169   1.689   2.471   2.349  0.6713 -0.2351  0.2487
   57SOL    HW1  170   1.762   2.398   2.365  3.0763  1.3126  0.1232
   57SOL    HW2  171   1.614   2.467   2.420 -0.6270 -1.8759 -2.8851
   58SOL     OW  172   0.623   0.203   1.101 -0.2726 -0.3366 -0.5847
   58SOL    HW1  173   0.525   0.170   1.127 -1.2299 -0.4731 -1.2806
   58SOL    HW2  174   0.698   0.132   1.094  0.3223  1.7848  2.1717
   59SOL     OW  175   0.464   2.375   2.561 -0.1639  0.1995 -0.5772
   59SOL    HW1  176   0.491   2.278   2.594 -1.1739  1.3916  0.6803
   59SOL    HW2  177   0.529   2.445   2.600  0.2355  1.4902 -0.3777
   60SOL     OW  178   2.297   2.049   2.303  0.4364 -0.0469  0.5640
   60SOL    HW1  179   2.348   2.096   2.222  0.2005  2.1444 -0.5420
   60SOL    HW2  180   2.305   2.098   2.398  2.5919 -0.5923  0.3934
   61SOL     OW  181   1.205   0.644   0.477  0.0897 -0.4183  0.5118
   61SOL    HW1  182   1.102   0.646   0.496  1.4919 -0.6344 -0.0913
   61SOL    HW2  183   1.237   0.685   0.384  2.9002 -0.6703 -1.0922
   62SOL     OW  184   2.800   1.683   2.706  0.1460 -0.1721  0.0166
   62SOL    HW1  185   2.763   1.592   2.675  0.2106 -3.7497  0.3179
   62SOL    HW2  186   2.840   1.685   2.802 -0.8093  1.2056 -0.0780
   63SOL     OW  187   0.546   0.877   0.165  0.3281 -0.5675 -0.2579
   63SOL    HW1  188   0.583   0.946   0.100  1.5373 -1.9944 -0.2619
   63SOL    HW2  189   0.613   0.844   0.238 -0.8647 -1.7909  0.3909
   64SOL     OW  190   3.009   0.541   2.372  0.6554 -0.4235  0.4061
   64SOL    HW1  191   2.945   0.582   2.448 -2.3628  0.5267  1.3775
   64SOL    HW2  192   3.016   0.611   2.289 -1.2387  0.9287 -1.1472
   65SOL     OW  193   0.204   1.422   0.647 -0.7819 -0.0426 -0.5545
   65SOL    HW1  194   0.202   1.504   0.707  0.2986 -2.6632 -1.4130
   65SOL    HW2  195   0.253   1.443   0.561  0.6546  0.8540 -0.0130
   66SOL     OW  196   2.595   0.326   0.518 -0.2235 -0.0047 -0.4774
   66SOL    HW1  197   2.691   0.287   0.515  1.9072 -0.2400  0.1662
   66SOL    HW2  198   2.537   0.258   0.559 -1.0421 -0.2086 -1.3062
   67SOL     OW  199   0.585   2.495   1.504  0.0395  0.0081  0.5174
   67SOL    HW1  200   0.677   2.455   1.534 -1.9780  1.1512  0.4531
   67SOL    HW2  201   0.510   2.422   1.494 -1.8318 -0.7388  0.7745
   68SOL     OW  202   0.910   1.049   2.506 -0.1313 -0.5038  0.1327
   68SOL    HW1  203   0.993   1.000   2.466  1.4768 -0.0038 -0.7282
   68SOL    HW2  204   0.858   1.107   2.437 -0.4919 -1.4544 -1.4626
   69SOL     OW  205   0.782   2.592   2.359 -0.5050  0.1096 -0.2814
   69SOL    HW1  206   0.791   2.529   2.272  0.5830 -2.4168  0.4016
   69SOL    HW2  207   0.693   2.643   2.368 -1.1054  0.6461  1.3423
   70SOL     OW  208   0.497   0.152   2.588  0.7294 -0.2302  0.0335
   70SOL    HW1  209   0.413   0.119   2.643 -0.4052  2.3953 -1.1137
   70SOL    HW2  210   0.566   0.073   2.580  0.1855 -0.4930 -0.0592
   71SOL     OW  211   1.061   1.757   0.293  0.0986 -0.1335 -0.2449
   71SOL    HW1  212   0.992   1.793   0.360 -1.2953 -0.6572  1.2530
   71SOL    HW2  213   1.041   1.773   0.194  1.1784  0.3791 -0.2970
   72SOL     OW  214   1.862   0.256   2.143 -0.1515 -0.5399  0.3807
   72SOL    HW1  215   1.915   0.335   2.105 -2.6450 -2.3784 -1.3222
   72SOL    HW2  216   1.922   0.174   2.157 -0.4839  3.9879 -1.6096
   73SOL     OW  217   2.743   2.203   2.485 -0.0188 -0.2542 -0.0796
   73SOL    HW1  218   2.707   2.117   2.439  0.4309 -0.8142 -3.2342
   73SOL    HW2  219   2.814   2.184   2.559  0.5539  1.9001  0.3261
   74SOL     OW  220   2.704   2.963   2.146 -0.8120  0.3085  0.2499
   74SOL    HW1  221   2.632   2.950   2.215 -2.0785 -0.1908  1.2013
   74SOL    HW2  222   2.792   2.996   2.193  1.5179 -0.6888 -0.5967
   75SOL     OW  223   0.929   0.790   1.170  0.0747 -0.4537 -0.0441
   75SOL    HW1  224   0.828   0.807   1.148  1.2334  2.3812  1.6596
   75SOL    HW2  225   0.964   0.847   1.248 -2.5188 -1.1900 -1.2709
   76SOL     OW  226   1.847   1.262   2.633 -0.5829  0.2714 -0.0800
   76SOL    HW1  227   1.744   1.246   2.653  0.3298  1.5126 -3.7053
   76SOL    HW2  228   1.882   1.359   2.649  2.7738 -1.9983  1.2077
   77SOL     OW  229   2.926   0.914   1.032  0.1219 -0.4299 -0.3909
   77SOL    HW1  230   2.882   0.821   1.039  1.3143 -0.0840 -0.7466
   77SOL    HW2  231   3.010   0.924   1.094 -0.9325  1.5713  1.2725
   78SOL     OW  232   1.944   1.428   1.340  0.2803  0.3481  0.1467
   78SOL    HW1  233   2.032   1.435   1.280  0.4338  0.7513 -0.7748
   78SOL    HW2  234   1.861   1.458   1.286 -1.1872  0.9161  0.3888
   79SOL     OW  235   0.689   1.465   0.841 -0.8052 -0.0691 -0.2156
   79SOL    HW1  236   0.591   1.436   0.808  0.3925  1.1701 -0.7114
   79SOL    HW2  237   0.753   1.382   0.834 -2.1836  1.0708 -0.9603
   80SOL     OW  238   0.679   0.479   1.606  0.4108  0.2463  0.0161
   80SOL    HW1  239   0.683   0.517   1.507  0.5230 -1.7958 -1.6641
   80SOL    HW2  240   0.690   0.378   1.617 -1.8355  0.9445 -1.8431
   81SOL     OW  241   1.074   1.290   2.501 -0.4190  0.5652 -0.1561
   81SOL    HW1  242   1.013   1.222   2.546  0.1605  2.2553 -0.6096
   81SOL    HW2  243   1.031   1.334   2.420  2.7490 -3.1474 -2.1488
   82SOL     OW  244   0.942   2.950   1.615  0.1425 -0.3709  0.0911
   82SOL    HW1  245   0.979   2.856   1.590  0.4980 -1.4318 -0.7766
   82SOL    HW2  246   0.916   3.006   1.528  1.5469  2.3535  1.4043
   83SOL     OW  247   2.629   2.341   0.901 -0.3997 -0.0104  0.6192
   83SOL    HW1  248   2.543   2.283   0.880 -3.7711 -1.1697 -2.3158
   83SOL    HW2  249   2.622   2.439   0.869  0.8019 -0.9230  2.9321
   84SOL     OW  250   0.761   3.076   2.315 -0.1472 -0.0225  0.7125
   84SOL    HW1  251   0.742   3.059   2.414 -1.4197 -0.1369  0.7834
   84SOL    HW2  252   0.779   2.985   2.259  1.2110 -2.3818  1.5571
   85SOL     OW  253   0.311   1.701   1.347 -0.3791 -0.3866  0.1971
   85SOL    HW1  254   0.297   1.786   1.398  2.8059 -0.7327 -2.1302
   85SOL    HW2  255   0.356   1.628   1.405 -1.7770 -0.8905  0.1484
   86SOL     OW  256   0.455   1.047   1.404  0.2815  0.4726 -0.2360
   86SOL    HW1  257   0.421   0.982   1.330  1.2958  0.9602  0.3573
   86SOL    HW2  258   0.549   1.021   1.448  3.5480 -1.8734 -0.5199
   87SOL     OW  259   1.650   0.631   0.321 -0.3599  0.3916  0.9155
   87SOL    HW1  260   1.712   0.711   0.306 -0.1800  0.0261 -1.5363
   87SOL    HW2  261   1.587   0.609   0.246  1.7444  0.3261  1.4699
   88SOL     OW  262   1.570   1.324   0.245 -0.2591 -0.1866 -0.1911
   88SOL    HW1  263   1.631   1.243   0.251 -0.8169  0.9895 -1.9409
   88SOL    HW2  264   1.471   1.302   0.248 -3.9421 -1.5535  0.3473
   89SOL     OW  265   3.092   0.384   0.696 -0.3439 -0.3665  0.1835
   89SOL    HW1  266   3.195   0.389   0.702 -0.7751  0.9030 -0.2220
   89SOL    HW2  267   3.052   0.288   0.680  0.9599 -1.7374 -3.0962
   90SOL     OW  268   0.753   1.540   0.119  0.1466  0.4187 -0.1604
   90SOL    HW1  269   0.838   1.488   0.093 -0.6273 -0.2119 -0.8340
   90SOL    HW2  270   0.682   1.548   0.043 -0.6754 -0.3890 -0.4324
   91SOL     OW  271   1.310   1.506   1.699 -0.1217 -0.1012 -0.0585
   91SOL    HW1  272   1.279   1.574   1.775  1.5521  0.4872  0.3302
   91SOL    HW2  273   1.402   1.455   1.724  1.5820  1.4919 -1.4784
   92SOL     OW  274   0.050   1.001   1.192  0.6813 -0.1802 -0.2512
   92SOL    HW1  275   0.118   1.063   1.140  0.9749 -3.3698  0.5363
   92SOL    HW2  276   0.070   0.995   1.295 -0.8871  0.2806 -3.1792
   93SOL     OW  277   3.039   2.643   0.062  0.0802  0.2003 -0.0239
   93SOL    HW1  278   3.000   2.656  -0.037  0.5187  0.4954 -1.4045
   93SOL    HW2  279   3.082   2.547   0.081 -1.8142 -4.0545  0.0916
   94SOL     OW  280   1.524   1.350   1.675 -0.0798  1.2081 -0.2352
   94SOL    HW1  281   1.561   1.252   1.687 -0.8745 -1.2739 -2.2348
   94SOL    HW2  282   1.571   1.396   1.594 -0.0971 -0.1140 -0.2762
   95SOL     OW  283   1.363   2.462   2.936  0.0294  0.4863  0.2766
   95SOL    HW1  284   1.274   2.469   2.993  1.8800 -0.4964 -0.0873
   95SOL    HW2  285   1.370   2.377   2.880  3.4518  0.5638 -0.2921
   96SOL     OW  286   0.571   2.161   1.280  0.2312  0.0559 -0.6086
   96SOL    HW1  287   0.522   2.133   1.191 -1.7508  0.0472 -0.7027
   96SOL    HW2  288   0.605   2.084   1.339  0.3029  0.0054 -1.6476
   97SOL     OW  289   0.252   1.588   2.390  0.5249 -0.0036  0.1277
   97SOL    HW1  290   0.240   1.685   2.345 -2.2735  2.4073 -0.6447
   97SOL    HW2  291   0.269   1.589   2.494 -1.9888 -4.0131  0.5107
   98SOL     OW  292   2.220   1.673   1.186  0.1605  0.1956  0.4255
   98SOL    HW1  293   2.189   1.576   1.182  1.4876 -1.0004  0.4270
   98SOL    HW2  294   2.321   1.678   1.155  1.5219 -1.6341 -1.7644
   99SOL     OW  295   2.626   2.060   1.306  0.4921  0.4275  0.1232
   99SOL    HW1  296   2.685   2.099   1.388 -0.5309 -2.0241 -0.7921
   99SOL    HW2  297   2.537   2.014   1.341 -2.8168  2.5587 -2.5837
  100SOL     OW  298   2.329   0.353   2.123 -0.1780  0.1925 -0.4043
  100SOL    HW1  299   2.284   0.350   2.218 -0.9346  0.6220 -0.4461
  100SOL    HW2  300   2.429   0.380   2.127  1.4081  0.8913  0.9191
  101SOL     OW  301   0.348   1.507   0.432 -0.3066  1.0098 -0.1674
  101SOL    HW1  302   0.362   1.588   0.493  1.1853 -0.4731  1.1571
  101SOL    HW2  303   0.432   1.456   0.406 -1.4402  1.2856 -0.2545
  102SOL     OW  304   2.271   1.068   0.882  0.6971 -0.0917 -0.0622
  102SOL    HW1  305   2.262   0.966   0.880 -0.3547 -1.0024  0.7665
  102SOL    HW2  306   2.356   1.097   0.828 -0.7846 -2.9864  2.0330
  103SOL     OW  307   2.260   0.078   0.381 -0.2602 -0.6234  0.2394
  103SOL    HW1  308   2.292   0.145   0.303 -0.5630  3.9975 -1.6236
  103SOL    HW2  309   2.337   0.014   0.414 -1.6996 -1.1897 -1.4053
  104SOL     OW  310   3.071   1.811   2.212  0.3404  0.2307 -0.2584
  104SOL    HW1  311   3.119   1.781   2.122 -1.1570 -0.2045 -1.0703
  104SOL    HW2  312   2.978   1.846   2.187 -2.3982 -1.3628 -2.6010
  105SOL     OW  313   1.292   2.093   0.766 -0.4892  0.0509  0.6872
  105SOL    HW1  314   1.283   2.155   0.685  0.4290 -0.0009 -0.7034
  105SOL    HW2  315   1.366   2.019   0.751  0.7083 -1.0406 -0.8948
  106SOL     OW  316   2.127   0.407   1.439 -0.2335 -0.0363  0.0177
  106SOL    HW1  317   2.049   0.336   1.424  1.6571  0.4996 -1.5497
  106SOL    HW2  318   2.139   0.448   1.535 -1.1524  1.9448  0.0546
  107SOL     OW  319   1.921   2.918   1.162 -0.2900  0.7048  0.0879
  107SOL    HW1  320   1.854   2.982   1.210  0.5623 -1.6533  1.9322
  107SOL    HW2  321   1.863   2.842   1.119 -0.2086 -0.9668 -2.0549
  108SOL     OW  322   0.867   2.793   1.099  0.0598 -0.4541 -0.6409
  108SOL    HW1  323   0.857   2.722   1.028  2.2751  0.7524  0.5482
  108SOL    HW2  324   0.964   2.797   1.134 -0.7840 -0.6591 -0.3002
  109SOL     OW  325   2.185   0.153   0.733  0.2878 -0.1504  0.0525
  109SOL    HW1  326   2.107   0.100   0.694  1.1446 -0.2442  1.0427
  109SOL    HW2  327   2.166   0.179   0.831 -1.3373  0.9010  0.2294
  110SOL     OW  328   0.500   2.821   2.748 -0.2338 -0.1185  0.1099
  110SOL    HW1  329   0.497   2.797   2.646  0.3371  0.3658 -2.1859
  110SOL    HW2  330   0.563   2.761   2.803 -0.5556 -0.6954 -2.1001
  111SOL     OW  331   1.328   0.604   2.314  0.0908  0.7308  0.4254
  111SOL    HW1  332   1.226   0.614   2.335  0.9258 -0.2996  3.3341
  111SOL    HW2  333   1.365   0.523   2.367  1.7262  0.8074  2.6172
  112SOL     OW  334   1.736   0.512   1.534  0.1753  0.7924 -0.3638
  112SOL    HW1  335   1.714   0.548   1.437  0.2250 -2.0522 -0.2678
  112SOL    HW2  336   1.673   0.544   1.608 -0.9388  2.5884  3.4116
  113SOL     OW  337   2.266   1.689   1.799 -0.6740 -0.0042 -0.1086
  113SOL    HW1  338   2.332   1.627   1.748 -0.7195  2.4496  1.2120
  113SOL    HW2  339   2.282   1.685   1.901  2.0584 -1.3502 -0.5201
  114SOL     OW  340   0.268   0.392   1.159  0.7838  0.1981  0.1815
  114SOL    HW1  341   0.164   0.403   1.168  1.9222  1.3686 -0.2702
  114SOL    HW2  342   0.303   0.450   1.076  2.8810  2.5908 -1.6372
  115SOL     OW  343   2.666   1.544   1.249 -0.1546 -0.3842 -0.1127
  115SOL    HW1  344   2.657   1.438   1.253 -0.8932 -1.3080 -0.6943
  115SOL    HW2  345   2.765   1.572   1.240  1.0559  1.8017  4.0398
  116SOL     OW  346   1.912   0.916   0.697 -0.3862  0.0059 -0.6738
  116SOL    HW1  347   1.814   0.881   0.687 -2.1906  1.9677 -1.8521
  116SOL    HW2  348   1.925   1.020   0.699 -0.3154  2.7858 -3.6044
  117SOL     OW  349   1.136   0.357   0.574  0.0922  0.1537  0.3080
  117SOL    HW1  350   1.182   0.450   0.602 -0.8389  1.0693 -2.4573
  117SOL    HW2  351   1.105   0.347   0.476  0.3063  0.0060  0.6145
  118SOL     OW  352   1.141   1.219   1.079 -0.0731 -0.1134 -0.1137
  118SOL    HW1  353   1.057   1.239   1.141 -0.6510  0.8704  0.4488
  118SOL    HW2  354   1.202   1.299   1.075 -0.5705  1.3864 -1.8054
  119SOL     OW  355   1.883   1.606   2.178  0.2935  0.1648 -0.1806
  119SOL    HW1  356   1.841   1.690   2.128  0.2373  1.9340 -0.4515
  119SOL    HW2  357   1.971   1.574   2.138 -1.3873  2.1319 -3.2126
  120SOL     OW  358   2.959   2.816   0.275 -0.3458  0.0163  0.4627
  120SOL    HW1  359   2.982   2.758   0.191 -0.9898  0.0567 -1.7512
  120SOL    HW2  360   2.863   2.819   0.302  0.9619 -0.4165 -1.1968
  121SOL     OW  361   1.983   0.784   2.333 -0.3080  0.2513  0.1534
  121SOL    HW1  362   2.014   0.869   2.282  0.5274 -0.0642 -0.2535
  121SOL    HW2  363   2.000   0.693   2.280 -0.6089  0.5705 -0.3686
  122SOL     OW  364   2.627   2.487   1.364 -0.5452 -0.0196  0.1474
  122SOL    HW1  365   2.684   2.423   1.304 -0.9921  0.6676  0.3346
  122SOL    HW2  366   2.620   2.456   1.460 -0.4628 -2.0381  1.1032
  123SOL     OW  367   1.648   0.181   1.647 -0.2671  0.3962 -0.1215
  123SOL    HW1  368   1.675   0.086   1.615  0.0158 -0.2579 -2.2577
  123SOL    HW2  369   1.731   0.225   1.691  1.1597  0.3505 -1.9328
  124SOL     OW  370   3.053   0.396   1.165 -0.7233 -0.0162 -0.6113
  124SOL    HW1  371   2.999   0.452   1.233 -1.1558  0.5176  0.8460
  124SOL    HW2  372   3.062   0.442   1.077 -2.4849  0.6819  1.9459
  125SOL     OW  373   0.888   1.990   0.753  0.1829 -0.1549 -0.4718
  125SOL    HW1  374   0.971   1.936   0.781 -2.2654 -0.8967 -1.1082
  125SOL    HW2  375   0.812   1.987   0.829 -1.5885 -2.1481  1.5943
  126SOL     OW  376   1.897   2.290   2.428  0.0097  0.0957 -0.7306
  126SOL    HW1  377   1.963   2.240   2.370  0.8201  3.3437 -0.2408
  126SOL    HW2  378   1.886   2.245   2.520 -0.2088  0.9242  0.5514
  127SOL     OW  379   0.911   0.962   0.173  0.4514 -0.0802  0.1575
  127SOL    HW1  380   0.928   0.989   0.271 -0.3100 -0.9326  1.2010
  127SOL    HW2  381   0.904   0.857   0.164 -2.9969 -0.4824 -2.0520
  128SOL     OW  382   0.925   0.184   1.375 -0.6309 -0.0057 -0.2435
  128SOL    HW1  383   0.885   0.273   1.332  0.8707  0.7875  2.2612
  128SOL    HW2  384   0.861   0.100   1.357  0.7374 -0.7932  1.1978
  129SOL     OW  385   1.892   0.711   1.871  0.0316 -0.2179  0.4503
  129SOL    HW1  386   1.926   0.707   1.770  0.6271  1.5207 -2.2003
  129SOL    HW2  387   1.914   0.801   1.914  0.0804 -3.6328  2.8522
  130SOL     OW  388   1.395   2.158   1.021 -0.2935 -0.0445 -0.2072
  130SOL    HW1  389   1.336   2.115   0.949  0.1188 -0.2834  0.4943
  130SOL    HW2  390   1.447   2.241   0.983  0.6390  0.3494 -0.4027
  131SOL     OW  391   3.028   1.395   1.446  0.6053  0.0730 -0.0121
  131SOL    HW1  392   2.966   1.306   1.434 -0.6305 -3.7116  0.1073
  131SOL    HW2  393   3.128   1.367   1.424 -0.4819 -0.6394  1.8572
  132SOL     OW  394   2.064   2.429   0.545  0.0482  0.1232  0.2571
  132SOL    HW1  395   1.969   2.461   0.563 -0.5845 -0.0597  0.4391
  132SOL    HW2  396   2.080   2.336   0.592  0.4610  1.7811 -0.4311
  133SOL     OW  397   1.776   2.496   2.712 -0.2139 -0.0460 -0.1369
  133SOL    HW1  398   1.689   2.472   2.655  0.0210 -2.6695 -1.2598
  133SOL    HW2  399   1.779   2.591   2.754 -2.4130 -1.5203 -2.6394
  134SOL     OW  400   2.613   2.417   1.648 -0.1505  0.0750  0.3555
  134SOL    HW1  401   2.561   2.390   1.732 -1.7558 -1.4921 -1.2811
  134SOL    HW2  402   2.652   2.512   1.651 -0.4456  0.0296  0.1875
  135SOL     OW  403   0.810   1.335   2.683  0.3368  0.2954  0.6268
  135SOL    HW1  404   0.732   1.272   2.715 -1.1980 -1.4769 -1.0877
  135SOL    HW2  405   0.799   1.363   2.587  0.2830 -0.6299 -0.8273
  136SOL     OW  406   1.217   2.004   0.422 -0.1855 -0.0834  0.2142
  136SOL    HW1  407   1.144   2.068   0.455  1.2563 -1.1873 -0.1751
  136SOL    HW2  408   1.190   1.905   0.428  0.4278  1.8516  0.6876
  137SOL     OW  409   0.469   1.165   2.297  0.3372  0.1016 -0.5467
  137SOL    HW1  410   0.365   1.141   2.294 -0.4930  1.7122  0.8705
  137SOL    HW2  411   0.520   1.083   2.340  0.1686 -1.4517  2.2025
  138SOL     OW  412   2.431   1.482   0.279 -0.1969 -0.0700  0.3150
  138SOL    HW1  413   2.395   1.451   0.188 -0.3515  0.2102 -1.9542
  138SOL    HW2  414   2.517   1.428   0.299 -2.0623  0.6783 -0.9613
  139SOL     OW  415   1.901   2.650   1.559 -0.0280 -0.1199 -0.5035
  139SOL    HW1  416   1.800   2.676   1.540  0.9551  0.8900  1.2977
  139SOL    HW2  417   1.930   2.575   1.495 -0.4147  1.1984  1.2784
  140SOL     OW  418   3.008   2.967   2.615  0.9285  0.3645  0.4969
  140SOL    HW1  419   3.059   2.877   2.621 -0.5116  1.2420 -0.8341
  140SOL    HW2  420   3.049   3.023   2.543 -0.9890  0.2380  4.5062
  141SOL     OW  421   1.290   1.639   1.425 -0.4238 -0.1679 -0.6293
  141SOL    HW1  422   1.194   1.673   1.397  0.2231  1.5681 -0.5931
  141SOL    HW2  423   1.297   1.581   1.511 -1.6566  3.0730  0.8462
  142SOL     OW  424   1.591   0.663   2.242  0.0001 -0.7311  0.5393
  142SOL    HW1  425   1.580   0.663   2.137 -3.5250  2.5889 -1.6177
  142SOL    HW2  426   1.498   0.656   2.291 -0.5994 -1.1501  0.8093
  143SOL     OW  427   2.782   0.776   0.548  0.7854 -0.0006  0.7170
  143SOL    HW1  428   2.842   0.817   0.476  2.9184 -0.0901  0.2935
  143SOL    HW2  429   2.790   0.826   0.641 -0.3354 -0.1808  0.2841
  144SOL     OW  430   2.913   1.132   1.432  0.0075 -0.6585 -0.0787
  144SOL    HW1  431   2.870   1.127   1.529  2.7828  1.5099  0.1257
  144SOL    HW2  432   2.994   1.069   1.421 -0.6832 -0.5065  1.4339
  145SOL     OW  433   0.931   1.782   0.061  0.7915  0.4146  0.2259
  145SOL    HW1  434   0.961   1.816  -0.034  0.2908  0.0766 -0.7003
  145SOL    HW2  435   0.857   1.710   0.057  0.9040  3.1969  0.7948
  146SOL     OW  436   2.478   0.657   1.518  0.8010 -0.9759  0.4256
  146SOL    HW1  437   2.453   0.560   1.528  0.6788  1.5998 -0.4412
  146SOL    HW2  438   2.411   0.706   1.450  0.6054  2.5132 -1.6001
  147SOL     OW  439   1.115   2.522   0.541 -0.0100  0.0757 -0.1223
  147SOL    HW1  440   1.068   2.577   0.464  1.3456  0.3726 -1.4774
  147SOL    HW2  441   1.201   2.470   0.517 -0.8236  0.0824  2.2160
  148SOL     OW  442   1.596   1.403   3.093 -0.9430 -0.0781 -0.1630
  148SOL    HW1  443   1.617   1.307   3.053  2.3025 -0.8887 -0.2710
  148SOL    HW2  444   1.592   1.402   3.195  1.2536 -0.8999 -0.8052
  149SOL     OW  445   0.689   1.497   1.980  0.5348 -0.1811  0.3441
  149SOL    HW1  446   0.595   1.464   2.014 -0.1268 -0.0559 -1.9007
  149SOL    HW2  447   0.711   1.468   1.881  2.6915 -1.2902 -2.0893
  150SOL     OW  448   2.970   1.206   1.008 -0.2342 -0.2247  0.5248
  150SOL    HW1  449   3.058   1.242   1.048 -2.4204  0.5337  1.1913
  150SOL    HW2  450   2.945   1.108   1.045  2.5178  0.8191  0.4382
  151SOL     OW  451   0.150   0.850   2.098  0.2365 -0.9359 -0.0473
  151SOL    HW1  452   0.175   0.944   2.062  1.0082 -1.3945 -1.5676
  151SOL    HW2  453   0.213   0.775   2.069  1.0648  1.4866 -0.7919
  152SOL     OW  454   1.443   1.872   1.100  0.0812  0.0665 -0.0005
  152SOL    HW1  455   1.467   1.972   1.119  0.5421  0.9639 -0.6942
  152SOL    HW2  456   1.338   1.867   1.103 -2.1608 -0.0772 -0.1186
  153SOL     OW  457   0.062   1.490   0.259 -0.2292  0.3980  0.2419
  153SOL    HW1  458  -0.033   1.449   0.255 -1.6167 -1.0108 -1.1694
  153SOL    HW2  459   0.075   1.571   0.323  1.1021  0.5249 -0.0286
  154SOL     OW  460   2.271   1.856   2.778 -0.4813  0.1330  0.3873
  154SOL    HW1  461   2.301   1.757   2.780  0.6693 -0.7584 -0.5503
  154SOL    HW2  462   2.335   1.912   2.714  0.1171 -1.9805 -0.0813
  155SOL     OW  463   2.604   1.300   0.391  0.5755  0.0579 -1.3041
  155SOL    HW1  464   2.636   1.299   0.489 -1.4953  2.9045  0.6060
  155SOL    HW2  465   2.625   1.217   0.336  2.0985 -0.0802  1.1037
  156SOL     OW  466   2.475   0.806   0.769  0.4067  0.0346  0.4082
  156SOL    HW1  467   2.374   0.795   0.791 -0.2063  1.4337 -1.3903
  156SOL    HW2  468   2.496   0.833   0.669 -0.7703  2.9387 -3.1383
  157SOL     OW  469   1.231   3.087   3.025 -0.2077  0.1631 -0.2749
  157SOL    HW1  470   1.293   3.031   2.966 -1.4785 -2.8920 -1.0818
  157SOL    HW2  471   1.279   3.165   3.070 -2.9277 -0.7982  1.6833
  158SOL     OW  472   1.097   1.884   1.869 -0.1289  0.2049  0.1361
  158SOL    HW1  473   1.120   1.976   1.840 -0.1916 -0.6520 -1.0043
  158SOL    HW2  474   1.012   1.887   1.931 -0.8038  2.2680 -2.4363
  159SOL     OW  475   0.807   0.379   1.238  0.2204  0.2052 -0.0575
  159SOL    HW1  476   0.757   0.453   1.295  1.3552  2.4569  0.7738
  159SOL    HW2  477   0.735   0.330   1.175  0.0187 -1.3324  2.4539
  160SOL     OW  478   1.381   2.461   1.414 -0.1104  0.1737  0.1810
  160SOL    HW1  479   1.332   2.376   1.447 -1.4901 -0.1372  0.9904
  160SOL    HW2  480   1.484   2.456   1.416 -0.2520 -0.6057  1.0515
  161SOL     OW  481   0.062   2.639   0.425  0.2992  0.1379 -0.1077
  161SOL    HW1  482   0.006   2.547   0.411 -0.1766 -0.8992 -2.1216
  161SOL    HW2  483   0.005   2.724   0.401 -2.5168  0.9805 -0.5435
  162SOL     OW  484   2.521   1.935   0.434  0.1957 -0.0159  0.2540
  162SOL    HW1  485   2.598   1.942   0.367 -1.4740  1.3377  1.5315
  162SOL    HW2  486   2.496   1.834   0.440 -0.2211  3.4144 -0.5627
  163SOL     OW  487   1.954   2.738   0.788 -0.2842 -0.4274  0.5876
  163SOL    HW1  488   1.914   2.732   0.692 -2.0152  0.1324 -1.0197
  163SOL    HW2  489   2.010   2.656   0.809 -0.0598 -1.7101  0.4758
  164SOL     OW  490   3.049   0.140   1.237 -0.5891  0.2960  0.1562
  164SOL    HW1  491   3.058   0.242   1.218 -0.1090 -0.9386 -2.2792
  164SOL    HW2  492   3.120   0.121   1.311  0.7505  0.1152 -0.2015
  165SOL     OW  493   1.104   1.409   0.652  0.4373 -0.0679  0.1258
  165SOL    HW1  494   1.087   1.482   0.723 -4.6732  1.6011 -0.2899
  165SOL    HW2  495   1.033   1.423   0.576  1.2229 -0.6634 -0.9538
  166SOL     OW  496   1.558   0.994   1.818  0.3242 -0.2248 -0.0575
  166SOL    HW1  497   1.485   1.042   1.876 -2.8621  0.0414  0.7052
  166SOL    HW2  498   1.629   1.057   1.776  0.6173 -0.7039 -1.0426
  167SOL     OW  499   0.671   2.027   1.514 -0.1662  0.2195  0.0423
  167SOL    HW1  500   0.674   2.096   1.591  2.2112 -2.4275  0.2912
  167SOL    HW2  501   0.646   1.931   1.546 -0.5890  0.8990  0.7684
  168SOL     OW  502   1.641   2.295   0.128 -0.0476  0.1364 -0.5785
  168SOL    HW1  503   1.726   2.277   0.071  0.3433 -1.4601 -0.3335
  168SOL    HW2  504   1.651   2.273   0.228  0.8462 -0.2664  1.9082
  169SOL     OW  505   3.056   2.617   2.183 -0.0493 -0.3370 -0.1215
  169SOL    HW1  506   3.083   2.573   2.097 -0.6267  2.8316 -1.5500
  169SOL    HW2  507   3.110   2.578   2.264 -0.6465 -1.0651 -0.5220
  170SOL     OW  508   1.186   0.135   2.099  0.0655  0.0204 -0.0645
  170SOL    HW1  509   1.274   0.167   2.144 -1.8787  0.0814 -1.5136
  170SOL    HW2  510   1.194   0.139   1.995  1.2509  1.2553 -1.1084
  171SOL     OW  511   0.189   0.857   2.449  0.5380  0.2426  0.1100
  171SOL    HW1  512   0.100   0.868   2.503 -1.3006  1.8743 -0.9695
  171SOL    HW2  513   0.181   0.906   2.360 -2.0276 -3.1391  2.5206
  172SOL     OW  514   0.953   0.952   2.772  0.2528  0.3973 -0.0480
  172SOL    HW1  515   0.893   1.008   2.834  0.1067  0.1426 -1.3639
  172SOL    HW2  516   0.941   0.991   2.675  2.5433 -0.2052  1.4293
  173SOL     OW  517   0.358   2.569   3.057  0.2479 -0.3253 -0.6559
  173SOL    HW1  518   0.411   2.511   2.990 -0.6051 -0.6663  1.9550
  173SOL    HW2  519   0.349   2.523   3.153  2.1177 -0.3588 -1.6222
  174SOL     OW  520   1.469   2.862   1.021 -0.3365 -0.1768 -0.2880
  174SOL    HW1  521   1.545   2.910   0.972  0.1873 -0.3971 -1.1106
  174SOL    HW2  522   1.440   2.772   0.975  0.9455 -1.9239  0.8508
  175SOL     OW  523   0.489   3.041   1.721 -0.4103  0.8648  0.2829
  175SOL    HW1  524   0.545   3.040   1.807 -0.5620 -0.8561 -1.3743
  175SOL    HW2  525   0.446   3.129   1.699 -2.2955 -1.0854  0.6975
  176SOL     OW  526   2.549   0.478  -0.005 -1.0919  0.2833  0.7326
  176SOL    HW1  527   2.570   0.564   0.049  0.7522  2.9269 -0.5961
  176SOL    HW2  528   2.509   0.402   0.053  1.9508 -1.8344  1.1063
  177SOL     OW  529   0.377   0.172   0.805  0.2975 -0.2349 -0.4691
  177SOL    HW1  530   0.365   0.073   0.846 -1.2176 -0.8278  0.5201
  177SOL    HW2  531   0.475   0.214   0.799 -2.6877  0.8850  0.2731
  178SOL     OW  532   0.025   2.722   2.646  0.1547 -0.3372 -0.2024
  178SOL    HW1  533   0.001   2.620   2.652  4.0809 -0.2010 -1.6153
  178SOL    HW2  534   0.112   2.751   2.696  1.0853  0.3640  0.6594
  179SOL     OW  535   2.964   1.601   1.243  0.0313  0.6575 -0.2429
  179SOL    HW1  536   3.054   1.612   1.187  1.3614  2.9087 -1.5549
  179SOL    HW2  537   2.975   1.557   1.336 -0.0381  1.3453  0.8971
  180SOL     OW  538   0.280   1.412   1.741 -0.6081 -0.2137  0.2086
  180SOL    HW1  539   0.332   1.353   1.807 -0.9510  1.7462  0.2958
  180SOL    HW2  540   0.206   1.465   1.799  1.4899  4.3395  2.4734
  181SOL     OW  541   3.010   1.743   2.491 -0.2382  0.0159  0.4320
  181SOL    HW1  542   3.018   1.750   2.384  3.2486 -0.6875 -0.2304
  181SOL    HW2  543   2.915   1.761   2.526 -0.5532 -0.4477  1.2383
  182SOL     OW  544   2.173   1.423   1.178  0.4467  0.4448 -0.0565
  182SOL    HW1  545   2.186   1.323   1.209  2.0686  0.1493 -1.9365
  182SOL    HW2  546   2.180   1.424   1.076  0.6579  1.4034 -0.8176
  183SOL     OW  547   1.439   2.245   2.443 -0.2726 -0.1914  0.1484
  183SOL    HW1  548   1.357   2.190   2.474 -0.8386  2.1105  0.2321
  183SOL    HW2  549   1.519   2.189   2.420 -0.5668 -0.3766  0.7119
  184SOL     OW  550   2.202   0.775   0.780  0.6716 -0.1297  0.9640
  184SOL    HW1  551   2.119   0.806   0.727  2.1180 -1.6651  2.0860
  184SOL    HW2  552   2.227   0.677   0.756 -1.6087  2.5625  0.9699
  185SOL     OW  553   1.580   2.732   2.002 -0.2724 -0.6116 -0.0600
  185SOL    HW1  554   1.490   2.781   2.012  1.2713  0.8192 -2.2779
  185SOL    HW2  555   1.628   2.710   2.091  0.5792  1.0173 -0.0210
  186SOL     OW  556   0.023   2.172   1.778  0.1325 -0.5039  0.2050
  186SOL    HW1  557   0.013   2.236   1.861  3.4921 -2.3315  0.7713
  186SOL    HW2  558   0.111   2.118   1.780 -1.4631  2.4930  1.0529
  187SOL     OW  559   1.317   0.662   1.639  0.0786  0.2558  0.3388
  187SOL    HW1  560   1.413   0.701   1.646 -0.3374  1.6728 -0.4963
  187SOL    HW2  561   1.311   0.564   1.666 -0.3136 -1.8850  0.3955
  188SOL     OW  562   2.703   2.666   1.580 -0.2299 -0.2168 -0.0773
  188SOL    HW1  563   2.687   2.762   1.625 -1.0647  0.7583 -0.9289
  188SOL    HW2  564   2.684   2.667   1.480 -0.5923 -1.2679 -2.1810
  189SOL     OW  565   0.853   1.204   1.380 -0.0828 -0.1484  0.4564
  189SOL    HW1  566   0.895   1.276   1.441 -3.1883  1.2896  0.0113
  189SOL    HW2  567   0.836   1.231   1.281 -0.4599 -0.3439  0.9098
  190SOL     OW  568   1.445   1.868   1.522  0.2541 -0.3481 -0.3531
  190SOL    HW1  569   1.378   1.790   1.502 -1.6940 -1.7264 -0.0423
  190SOL    HW2  570   1.444   1.892   1.626 -2.4972  0.2146  0.3548
  191SOL     OW  571   0.870   0.784   1.504  0.1933 -0.3083 -0.0771
  191SOL    HW1  572   0.914   0.707   1.553  1.4977  0.4023  0.4911
  191SOL    HW2  573   0.940   0.859   1.477  3.1175 -1.5977  1.7346
  192SOL     OW  574   1.832   2.445   1.125 -0.1146 -0.1591 -0.0698
  192SOL    HW1  575   1.730   2.441   1.127 -2.1705  0.6248  0.8844
  192SOL    HW2  576   1.887   2.379   1.059  3.3704 -1.6665 -4.3860
  193SOL     OW  577   0.506   0.499   0.385 -0.0915  0.1620 -0.1679
  193SOL    HW1  578   0.435   0.422   0.390 -1.2310 -3.3731 -0.0746
  193SOL    HW2  579   0.559   0.499   0.296  0.7029 -2.0775 -0.6873
  194SOL     OW  580   0.400   0.806   1.265  0.2734 -0.7621 -0.5815
  194SOL    HW1  581   0.299   0.768   1.279 -0.6090 -1.1397 -0.9340
  194SOL    HW2  582   0.442   0.774   1.177 -1.3381 -0.7105  1.2271
  195SOL     OW  583   1.062   2.916   0.520 -0.1993 -0.4664 -0.2761
  195SOL    HW1  584   1.033   2.837   0.460 -2.1678 -0.9124  0.0144
  195SOL    HW2  585   1.158   2.950   0.495  0.4700 -1.3536 -0.3960
  196SOL     OW  586   0.225   1.378   1.313 -0.2048 -0.3183  0.8535
  196SOL    HW1  587   0.240   1.478   1.335  1.6793 -0.8011 -2.0470
  196SOL    HW2  588   0.267   1.316   1.385  1.1500  0.0173 -0.8712
  197SOL     OW  589   0.788   1.955   0.234 -0.3865  0.6309  0.1284
  197SOL    HW1  590   0.808   1.910   0.326 -0.5414  0.5648 -0.8380
  197SOL    HW2  591   0.813   1.895   0.153 -2.5358 -2.0476 -1.4195
  198SOL     OW  592   0.271   1.215   0.345  0.3719 -0.0085 -0.2330
  198SOL    HW1  593   0.188   1.182   0.293  0.3354 -0.5996 -2.1536
  198SOL    HW2  594   0.265   1.316   0.368 -0.7341  1.6208  0.5571
  199SOL     OW  595   2.220   0.404   2.636  0.5791 -0.0417 -0.0092
  199SOL    HW1  596   2.150   0.366   2.701  1.4265 -1.4040  0.9978
  199SOL    HW2  597   2.313   0.395   2.671  0.9891  1.1624 -2.2262
  200SOL     OW  598   3.078   2.878   0.803  0.1539  0.1565 -0.3414
  200SOL    HW1  599   3.126   2.969   0.821  1.5156 -0.5303 -2.1093
  200SOL    HW2  600   3.006   2.882   0.732 -0.8623 -0.2061  1.5555
  201SOL     OW  601   0.938   0.683   0.534 -0.1869 -0.1047 -0.2694
  201SOL    HW1  602   0.927   0.771   0.588  0.8880 -0.3019 -0.1129
  201SOL    HW2  603   0.847   0.624   0.539 -1.7221 -2.9855 -0.7124
  202SOL     OW  604   0.453   1.243   1.899  0.4647  0.2111  0.0709
  202SOL    HW1  605   0.547   1.219   1.870 -0.5499 -1.3210  1.6417
  202SOL    HW2  606   0.452   1.280   1.996  0.2814 -1.4598  0.8434
  203SOL     OW  607   0.663   0.164   1.548 -0.2968 -0.1700  0.0181
  203SOL    HW1  608   0.694   0.123   1.458  0.4690  0.8309 -0.2379
  203SOL    HW2  609   0.702   0.115   1.627 -0.3047  0.5064  1.2453
  204SOL     OW  610   2.082   1.843   2.969  0.2681  0.1010  0.1043
  204SOL    HW1  611   2.039   1.749   2.969 -2.4972  3.2932  1.3654
  204SOL    HW2  612   2.153   1.861   2.896 -1.7327 -0.7585  1.1908
  205SOL     OW  613   1.806   1.873   3.040  0.1524 -0.1615 -0.4384
  205SOL    HW1  614   1.899   1.853   2.996  0.4680  1.6548 -2.3652
  205SOL    HW2  615   1.764   1.961   2.994 -2.9566  0.8332 -1.4055
  206SOL     OW  616   2.352   2.714   0.298 -0.2677  0.1121  0.3693
  206SOL    HW1  617   2.321   2.678   0.391 -0.9159 -0.4509  2.1075
  206SOL    HW2  618   2.433   2.671   0.252  1.6766  1.2188  2.3032
  207SOL     OW  619   0.722   1.736   2.911 -0.1472  0.0349  0.1063
  207SOL    HW1  620   0.804   1.688   2.865 -1.5062 -2.7086 -2.4001
  207SOL    HW2  621   0.652   1.672   2.951 -0.6551 -1.2998 -2.0429
  208SOL     OW  622   1.012   1.560   1.217  0.3086  0.1765  0.1357
  208SOL    HW1  623   0.942   1.576   1.146  1.6005 -1.6763 -0.4669
  208SOL    HW2  624   0.972   1.581   1.311  0.6071  0.9472  0.5816
  209SOL     OW  625   0.227   0.997   3.060  0.3936  0.4771  0.1261
  209SOL    HW1  626   0.261   0.947   2.975 -4.2805 -0.3218 -1.8651
  209SOL    HW2  627   0.246   0.944   3.146 -3.0530  2.2762 -1.4561
  210SOL     OW  628   1.714   0.597   1.276  0.5906  0.6185 -0.1867
  210SOL    HW1  629   1.624   0.618   1.228 -1.7072  0.1595  1.0407
  210SOL    HW2  630   1.773   0.677   1.293  0.6691 -0.9475 -1.6403
  211SOL     OW  631   2.136   1.089   1.570 -0.7204  0.8981 -0.0957
  211SOL    HW1  632   2.182   1.068   1.656 -1.2896  0.4320 -2.5382
  211SOL    HW2  633   2.197   1.164   1.523 -0.9299 -0.4117 -0.4089
  212SOL     OW  634   0.077   0.990   1.465  0.8650 -0.1210 -0.7678
  212SOL    HW1  635   0.139   1.061   1.509 -0.9528 -1.4294 -0.3474
  212SOL    HW2  636   0.094   0.896   1.500  0.6391  1.4918  0.7138
  213SOL     OW  637   2.803   0.029   0.334 -0.0067  0.3214 -0.1970
  213SOL    HW1  638   2.904   0.007   0.337  4.0928  0.6870  1.1746
  213SOL    HW2  639   2.745  -0.018   0.261  0.1845  0.1952 -2.2854
  214SOL     OW  640   2.203   0.346   2.369  0.3500  0.1051  0.1506
  214SOL    HW1  641   2.240   0.395   2.454  0.6380  1.7963  1.4589
  214SOL    HW2  642   2.164   0.254   2.385  3.1477  1.2169  0.8475
  215SOL     OW  643   1.693   2.286   2.075  0.1790  0.4346 -0.1219
  215SOL    HW1  644   1.790   2.330   2.078  1.6747 -0.0177 -0.5432
  215SOL    HW2  645   1.614   2.357   2.092 -1.5603 -0.0238  0.6402
  216SOL     OW  646   2.305   0.521   0.761  0.0953  0.2608 -0.0725
  216SOL    HW1  647   2.254   0.455   0.697  1.0273  1.2312  2.3845
  216SOL    HW2  648   2.386   0.478   0.801 -0.7321  0.0159 -0.5443
  217SOL     OW  649   0.915   2.726   2.575  0.5762 -0.3992  0.4201
  217SOL    HW1  650   0.925   2.674   2.666  0.0550 -1.0750 -0.5335
  217SOL    HW2  651   0.892   2.664   2.498 -3.9438 -1.3133 -1.9943
  218SOL     OW  652   1.871   1.431   0.033  0.1062  0.2069  0.0414
  218SOL    HW1  653   1.773   1.441   0.004  1.0484  2.6613  0.7777
  218SOL    HW2  654   1.888   1.332   0.058  1.1315 -1.0181 -2.4013
  219SOL     OW  655   2.420   1.264   2.518 -0.2181 -0.0530 -0.2311
  219SOL    HW1  656   2.429   1.227   2.421 -0.7090 -0.1006 -1.2235
  219SOL    HW2  657   2.455   1.198   2.586  1.2447  2.5794 -0.0036
  220SOL     OW  658   1.458   1.029   1.360  0.3620  0.1988  0.4389
  220SOL    HW1  659   1.538   0.969   1.389 -1.6968  1.4814  1.7133
  220SOL    HW2  660   1.452   1.048   1.258  0.6173 -1.0273  1.3245
  221SOL     OW  661   1.305   0.955   2.168 -0.2726 -0.1512  0.0116
  221SOL    HW1  662   1.309   0.996   2.076  0.3329 -1.3252 -0.3088
  221SOL    HW2  663   1.391   0.983   2.224  0.0920  0.4058  1.1707
  222SOL     OW  664   1.156   0.060   1.216  0.1573 -0.3725 -0.2025
  222SOL    HW1  665   1.156   0.092   1.315 -0.2205 -0.7635 -1.0587
  222SOL    HW2  666   1.161   0.139   1.149 -2.0378  0.5243  0.2123
  223SOL     OW  667   2.712   0.977   2.109  0.1371 -0.2502 -0.0059
  223SOL    HW1  668   2.642   1.028   2.164 -0.1615  0.0705 -1.2480
  223SOL    HW2  669   2.802   0.971   2.159 -1.7316  2.0449  0.2371
  224SOL     OW  670   1.499   0.991   2.866 -0.2755 -0.3961  0.1138
  224SOL    HW1  671   1.497   0.925   2.791 -0.0033  2.4322 -1.5316
  224SOL    HW2  672   1.549   1.083   2.840  2.1829 -0.4263 -0.6478
  225SOL     OW  673   2.946   2.685   2.892  0.2645  0.3160 -0.0986
  225SOL    HW1  674   2.867   2.666   2.829 -2.2239 -3.2548  2.7765
  225SOL    HW2  675   3.024   2.736   2.842 -0.1655 -1.5925 -1.5831
  226SOL     OW  676   2.425   1.622   2.793  0.0331  0.7310 -0.6618
  226SOL    HW1  677   2.478   1.585   2.712  2.4042 -1.0656  1.5134
  226SOL    HW2  678   2.438   1.571   2.880 -1.4693  0.5054  0.0901
  227SOL     OW  679   0.928   0.252   3.015  0.3550  0.8584 -0.2110
  227SOL    HW1  680   0.936   0.352   3.034 -0.9216  1.3593  0.6279
  227SOL    HW2  681   0.868   0.223   2.937  1.1623 -0.8887 -0.4449
  228SOL     OW  682   2.445   0.654   2.895 -0.1035  0.0829  0.2788
  228SOL    HW1  683   2.460   0.663   2.789 -1.6051 -1.8808  0.3008
  228SOL    HW2  684   2.497   0.570   2.934  2.1484  0.5420  1.9281
  229SOL     OW  685   0.658   0.634   1.823  1.0289  0.6008 -0.0532
  229SOL    HW1  686   0.749   0.689   1.828  1.1171 -1.4692  1.2427
  229SOL    HW2  687   0.645   0.572   1.743  2.2849 -0.1908 -1.2294
  230SOL     OW  688   1.869   1.231   1.912  0.1141  0.2807  0.1788
  230SOL    HW1  689   1.956   1.282   1.878  2.9794  2.2213  1.8504
  230SOL    HW2  690   1.826   1.273   1.994 -0.4124  0.3872 -0.9255
  231SOL     OW  691   0.658   1.048   0.000  0.4811 -0.2765  0.3804
  231SOL    HW1  692   0.754   1.067   0.025 -3.8815 -0.6517 -0.1202
  231SOL    HW2  693   0.593   1.123   0.036  0.7537  1.8306 -0.2428
  232SOL     OW  694   2.414   2.957   2.799  0.1069 -0.3521  0.2415
  232SOL    HW1  695   2.480   2.883   2.834 -0.0524 -0.5725  1.2904
  232SOL    HW2  696   2.456   3.030   2.735  0.0520 -0.1503 -3.8174
  233SOL     OW  697   1.812   1.116   1.148 -0.0241 -0.5503  0.8735
  233SOL    HW1  698   1.846   1.180   1.074 -1.7811  0.1937  1.0337
  233SOL    HW2  699   1.882   1.045   1.181  1.7592  0.9083 -1.6833
  234SOL     OW  700   1.665   2.537   1.834 -0.4169  0.2139 -0.2051
  234SOL    HW1  701   1.635   2.587   1.917 -0.0297 -0.5983 -0.5235
  234SOL    HW2  702   1.610   2.456   1.798  2.2517  1.3896  3.1568
  235SOL     OW  703   0.073   2.996   2.851 -0.2004 -0.0739  0.1411
  235SOL    HW1  704  -0.017   2.982   2.802 -0.6340  0.9323  1.0024
  235SOL    HW2  705   0.053   3.032   2.947 -0.1690 -2.1265  1.5677
  236SOL     OW  706   2.914   0.722   0.060  0.0944  0.1782  0.0704
  236SOL    HW1  707   2.984   0.737   0.140  0.8826  2.7083 -0.5478
  236SOL    HW2  708   2.945   0.643  -0.004  0.7709  0.6264 -1.2258
  237SOL     OW  709   1.533   1.701   0.916 -0.1585  0.0374  0.3025
  237SOL    HW1  710   1.623   1.645   0.931  1.4973 -2.7535  1.4240
  237SOL    HW2  711   1.497   1.756   0.994  0.6055 -0.2003 -2.4367
  238SOL     OW  712   1.919   1.203   0.745  0.3391 -0.2126 -0.0441
  238SOL    HW1  713   1.958   1.221   0.838 -1.6675 -1.1580 -1.5901
  238SOL    HW2  714   1.811   1.221   0.742 -0.1502  0.8218 -1.0781
  239SOL     OW  715   2.038   0.310   2.821  0.5277  0.3856  0.4767
  239SOL    HW1  716   2.041   0.258   2.905 -1.5144  2.1676 -0.1500
  239SOL    HW2  717   1.960   0.381   2.816 -1.0618  1.3390  0.2917
  240SOL     OW  718   0.953   0.692   0.259  0.2112 -0.4205 -0.0435
  240SOL    HW1  719   1.033   0.633   0.228  1.7661  1.3650 -1.2328
  240SOL    HW2  720   0.926   0.684   0.362 -1.4282  1.8024  1.2562
  241SOL     OW  721   0.565   0.131   0.310 -0.5002  0.6297 -0.1378
  241SOL    HW1  722   0.644   0.197   0.300  0.6767 -0.8945  0.1406
  241SOL    HW2  723   0.568   0.051   0.239 -2.7180  1.2775 -0.7542
  242SOL     OW  724   0.601   2.607   1.222  0.3903 -0.1407  0.9917
  242SOL    HW1  725   0.602   2.578   1.322 -0.8764 -0.5937 -0.3212
  242SOL    HW2  726   0.643   2.693   1.204 -0.4303 -4.4179 -0.8372
  243SOL     OW  727   1.064   0.614   2.398 -0.2299 -0.5012 -0.2763
  243SOL    HW1  728   0.961   0.610   2.385 -3.6414  0.0314  0.8929
  243SOL    HW2  729   1.091   0.554   2.476 -0.0928 -0.3303 -1.2606
  244SOL     OW  730   2.751   1.944   2.377  0.5650  0.0834  0.3956
  244SOL    HW1  731   2.776   1.903   2.281  3.4792 -0.6483 -0.6642
  244SOL    HW2  732   2.681   1.888   2.430 -0.9797 -1.4454  0.6622
  245SOL     OW  733   2.100   1.021   2.207  0.3180  0.1647  0.5745
  245SOL    HW1  734   2.202   1.029   2.225 -1.2727  0.9107  1.3192
  245SOL    HW2  735   2.044   1.099   2.253  0.0628  2.0011 -0.8326
  246SOL     OW  736   0.272   2.886   1.817 -0.2151  0.5145 -0.2425
  246SOL    HW1  737   0.221   2.886   1.726  0.5988 -2.1901 -0.2101
  246SOL    HW2  738   0.370   2.927   1.813  2.7057  2.2638  1.4929
  247SOL     OW  739   2.247   0.594   3.068  0.0070 -0.0670 -0.1398
  247SOL    HW1  740   2.322   0.607   3.000 -1.0750  0.6771  1.8921
  247SOL    HW2  741   2.169   0.666   3.063  1.2607 -1.4430  0.3641
  248SOL     OW  742   2.140   1.866   1.633 -0.0294  0.6878 -0.1417
  248SOL    HW1  743   2.203   1.815   1.697  2.6053  2.0587  0.6284
  248SOL    HW2  744   2.039   1.834   1.641  1.3629 -0.3756 -0.4757
  249SOL     OW  745   1.904   1.905   1.853  0.0620  0.2460  0.6534
  249SOL    HW1  746   1.899   1.845   1.768  2.2180 -2.9562  2.2270
  249SOL    HW2  747   2.000   1.902   1.899 -1.0449  0.4850  2.8371
  250SOL     OW  748   1.011   0.674   1.849  0.7868  0.2800 -0.3909
  250SOL    HW1  749   1.088   0.635   1.910 -0.4891 -0.7067 -2.1991
  250SOL    HW2  750   1.006   0.635   1.754 -0.5363  0.6392  2.7022
  251SOL     OW  751   3.037   1.506   2.614  0.6717  0.2912  0.1960
  251SOL    HW1  752   3.033   1.592   2.557 -0.2649 -1.4361 -2.0882
  251SOL    HW2  753   2.958   1.442   2.594 -0.5260  0.6400 -0.3180
  252SOL     OW  754   1.545   0.825   1.600  0.0644 -0.3164 -0.4107
  252SOL    HW1  755   1.609   0.865   1.530  1.4680 -1.4235 -0.4424
  252SOL    HW2  756   1.530   0.889   1.681 -1.6434 -2.2891 -0.2278
  253SOL     OW  757   0.937   1.479   0.453 -0.2151  0.0374 -0.0194
  253SOL    HW1  758   0.932   1.498   0.354  1.6372 -0.6849  1.2227
  253SOL    HW2  759   0.891   1.547   0.511  1.6000 -3.3651 -1.2447
  254SOL     OW  760   2.021   2.172   1.658 -0.4913  0.1571 -0.4760
  254SOL    HW1  761   1.984   2.104   1.589  1.7507 -1.7588  2.3337
  254SOL    HW2  762   1.950   2.217   1.716 -1.8223 -1.2563 -2.2466
  255SOL     OW  763   0.079   1.193   2.943 -0.2118 -0.1134  0.6366
  255SOL    HW1  764   0.127   1.289   2.930  1.8493  4.0013 -0.2760
  255SOL    HW2  765   0.140   1.124   2.988 -2.1734 -0.1097  0.7282
  256SOL     OW  766   2.749   1.420   1.756 -0.0146  0.2714  0.7979
  256SOL    HW1  767   2.654   1.451   1.746  0.4842 -0.5475 -0.4326
  256SOL    HW2  768   2.760   1.314   1.747  0.5444  1.2175 -0.1140
  257SOL     OW  769   0.807   0.232   1.864  0.1121 -0.7374 -0.0401
  257SOL    HW1  770   0.856   0.274   1.785  1.6297 -0.9202 -5.1067
  257SOL    HW2  771   0.835   0.136   1.892 -0.4714  2.4444 -0.3379
  258SOL     OW  772   2.965   1.182   0.518 -0.0499  0.3742  0.5567
  258SOL    HW1  773   2.874   1.222   0.524 -1.0140  0.2620 -0.2471
  258SOL    HW2  774   3.021   1.212   0.597 -4.4845 -0.0812  1.4212
  259SOL     OW  775   0.474   2.934   3.013 -0.6685 -0.1287  0.4409
  259SOL    HW1  776   0.385   2.902   3.052  1.1284  2.3699  0.1072
  259SOL    HW2  777   0.498   2.878   2.925  0.2852 -0.5619  0.5458
  260SOL     OW  778   2.721   0.748   2.783 -0.2326 -0.6562  0.0949
  260SOL    HW1  779   2.629   0.754   2.734 -1.3108  2.4405  0.0927
  260SOL    HW2  780   2.727   0.665   2.846  0.0861 -0.6996  1.1628
  261SOL     OW  781   2.670   1.259   1.294  0.0803  0.7058 -0.2077
  261SOL    HW1  782   2.593   1.208   1.243 -0.2091 -2.0822  0.6328
  261SOL    HW2  783   2.744   1.200   1.332 -0.4949  0.4329  0.8948
  262SOL     OW  784   1.393   2.957   2.046  0.0430 -0.3068 -0.5833
  262SOL    HW1  785   1.431   3.029   1.985 -0.7445 -4.4158 -2.1321
  262SOL    HW2  786   1.292   2.929   2.027 -0.2386 -0.1865 -0.4392
  263SOL     OW  787   0.800   0.637   2.321 -0.0615  0.7648 -0.2697
  263SOL    HW1  788   0.744   0.568   2.271 -0.4658 -0.0082  0.1010
  263SOL    HW2  789   0.837   0.707   2.257 -0.4334 -3.0762  1.2936
  264SOL     OW  790   2.280   0.798   0.419 -0.3249  0.0628 -0.0324
  264SOL    HW1  791   2.297   0.723   0.347 -2.3730 -2.5151  1.9713
  264SOL    HW2  792   2.369   0.826   0.462 -1.1853 -0.6206  2.5659
  265SOL     OW  793   0.869   2.351   2.628 -0.2875  0.0471  0.3015
  265SOL    HW1  794   0.887   2.343   2.734 -0.7966 -2.2087  1.6364
  265SOL    HW2  795   0.807   2.280   2.593  0.5650 -1.3312 -0.2232
  266SOL     OW  796   1.288   1.802   3.039 -0.1558  0.0204 -0.3333
  266SOL    HW1  797   1.285   1.861   3.120 -0.3033 -1.4478 -1.9844
  266SOL    HW2  798   1.387   1.782   3.016 -1.1166  1.3253  0.4487
  267SOL     OW  799   1.046   3.068   2.325 -0.5911 -0.1700 -0.5061
  267SOL    HW1  800   0.958   3.037   2.291  2.6851  2.1740 -1.9408
  267SOL    HW2  801   1.083   3.137   2.259 -1.4958 -3.5800  3.4307
  268SOL     OW  802   0.850   1.325   1.120 -0.2182  0.0256  0.7865
  268SOL    HW1  803   0.773   1.363   1.177  0.8130  0.3529 -0.9578
  268SOL    HW2  804   0.873   1.389   1.041  0.2141 -0.8659  1.0001
  269SOL     OW  805   2.332   2.535   1.589 -0.1503 -0.0531 -0.3594
  269SOL    HW1  806   2.432   2.527   1.587 -0.3679 -1.7411 -0.2174
  269SOL    HW2  807   2.290   2.567   1.675  1.8598  0.0397 -0.1258
  270SOL     OW  808   0.139   3.034   2.017  0.0488  0.6344  0.5883
  270SOL    HW1  809   0.154   2.974   1.933  1.0466  1.6534  2.2198
  270SOL    HW2  810   0.077   2.986   2.085 -0.7459  1.0190  2.9024
  271SOL     OW  811   0.422   1.439   1.097 -0.4665  0.5050  0.0803
  271SOL    HW1  812   0.411   1.423   0.994  2.6577 -0.5213  1.0912
  271SOL    HW2  813   0.336   1.416   1.155 -2.1515 -1.1061  0.0455
  272SOL     OW  814   1.876   0.016   1.922 -0.0820  0.8047 -0.8177
  272SOL    HW1  815   1.822  -0.068   1.891 -1.0554  0.1294  1.9922
  272SOL    HW2  816   1.868   0.104   1.865  0.4890  1.5893 -0.5589
  273SOL     OW  817   1.437   1.456   2.880 -0.1329 -0.3856  0.3262
  273SOL    HW1  818   1.341   1.493   2.886  0.1299 -0.8405  0.7619
  273SOL    HW2  819   1.480   1.446   2.975  0.3381 -1.2059  0.1149
  274SOL     OW  820   1.186   0.605   2.059 -0.0008 -0.1792  0.1754
  274SOL    HW1  821   1.113   0.558   2.109  0.0348  0.6395 -1.2850
  274SOL    HW2  822   1.267   0.630   2.119  2.4710 -0.4948  0.5533
  275SOL     OW  823   0.647   2.099   1.962 -0.3174  0.0269  0.2405
  275SOL    HW1  824   0.575   2.059   1.905 -1.0077 -1.1215  3.2423
  275SOL    HW2  825   0.617   2.192   2.000 -0.9056  1.6077 -1.8745
  276SOL     OW  826   2.235   0.955   2.845  0.3180 -0.2233  0.0924
  276SOL    HW1  827   2.158   1.000   2.788  0.0247 -0.7780 -2.5369
  276SOL    HW2  828   2.229   0.854   2.842 -1.2496  0.4283  1.8945
  277SOL     OW  829   0.008   0.778   0.250  0.0579  0.0783  0.2395
  277SOL    HW1  830   0.092   0.839   0.228  0.5973  0.0131  0.8228
  277SOL    HW2  831   0.024   0.710   0.327  1.3027 -0.9866 -0.6099
  278SOL     OW  832   0.287   0.251   3.088 -0.2001 -0.0872  0.9538
  278SOL    HW1  833   0.371   0.221   3.031  1.2847 -1.3730  0.5976
  278SOL    HW2  834   0.288   0.352   3.107  0.6492  0.0500 -0.8473
  279SOL     OW  835   0.269   3.009   0.909  0.1080 -0.7695  0.7387
  279SOL    HW1  836   0.287   2.978   1.004  1.4704  1.3025 -0.5565
  279SOL    HW2  837   0.292   2.943   0.832 -0.1448 -1.8577 -0.9601
  280SOL     OW  838   1.570   2.895   2.444 -0.1747 -0.3439 -0.3335
  280SOL    HW1  839   1.649   2.939   2.506  0.8195  0.1025  1.7065
  280SOL    HW2  840   1.513   2.965   2.395  0.4141  1.5767  2.6500
  281SOL     OW  841   0.549   0.929   2.367 -0.1073 -0.3208  0.4516
  281SOL    HW1  842   0.516   0.861   2.302  2.6987  1.8650 -0.2656
  281SOL    HW2  843   0.540   0.908   2.467  0.9689  1.3711  0.7676
  282SOL     OW  844   1.790   2.482   0.559  0.2887 -0.2344 -0.4646
  282SOL    HW1  845   1.759   2.408   0.494 -0.6875 -0.4252  0.1594
  282SOL    HW2  846   1.727   2.563   0.547 -1.3418  2.2768  0.2974
  283SOL     OW  847   1.182   0.958   0.813 -0.1640 -0.0667  0.0060
  283SOL    HW1  848   1.181   0.899   0.897  0.3366 -0.5771 -0.8583
  283SOL    HW2  849   1.123   1.043   0.820  0.2952 -0.2187  0.4176
  284SOL     OW  850   2.258   2.817   2.452  0.4554  0.3702  0.3422
  284SOL    HW1  851   2.357   2.830   2.428 -0.3396 -0.9324 -2.3175
  284SOL    HW2  852   2.238   2.830   2.552  0.9374 -0.2835  2.1183
  285SOL     OW  853   1.293   3.073   2.608  0.3337 -0.0360 -0.3094
  285SOL    HW1  854   1.342   3.071   2.517  1.5864  2.2396 -3.1411
  285SOL    HW2  855   1.205   3.129   2.598  0.4124  1.1370  2.1336
  286SOL     OW  856   0.265   0.354   0.652 -0.0734 -0.6388  0.0370
  286SOL    HW1  857   0.292   0.276   0.715  1.5130  0.5902  2.4601
  286SOL    HW2  858   0.269   0.326   0.550 -1.2900  2.5521  2.0819
  287SOL     OW  859   0.086   1.277   2.539  0.4936 -0.3302 -0.4453
  287SOL    HW1  860   0.035   1.210   2.599 -2.5769  0.9798  1.9465
  287SOL    HW2  861   0.048   1.376   2.545 -0.1934 -0.8133 -0.0006
  288SOL     OW  862   1.509   2.694   1.658 -0.1829 -0.4485  0.1550
  288SOL    HW1  863   1.574   2.649   1.727 -0.4003 -0.8385 -0.3758
  288SOL    HW2  864   1.551   2.697   1.566  0.3813  0.5569  0.7603
  289SOL     OW  865   0.639   2.788   0.819 -0.1817 -0.6223 -0.1268
  289SOL    HW1  866   0.701   2.848   0.765  2.2600 -0.5874  2.1816
  289SOL    HW2  867   0.591   2.842   0.896 -1.7223  3.8135 -0.6080
  290SOL     OW  868   2.842   1.111   1.694  0.1139 -0.2570  0.0901
  290SOL    HW1  869   2.757   1.056   1.715 -1.6196 -1.8865 -3.0745
  290SOL    HW2  870   2.920   1.107   1.762 -3.5308 -1.7964  0.4306
  291SOL     OW  871   1.926   0.003   0.077  0.0248 -0.0779 -0.4479
  291SOL    HW1  872   1.963   0.029   0.171 -1.3039 -0.3883 -2.1475
  291SOL    HW2  873   1.998   0.028   0.004 -2.2832 -0.6698 -1.4063
  292SOL     OW  874   2.980   1.280   0.014  0.1754  0.9217  0.2404
  292SOL    HW1  875   2.907   1.346  -0.024  0.4436 -2.8983  0.3275
  292SOL    HW2  876   3.059   1.271  -0.054  0.2609 -1.7577  0.8625
  293SOL     OW  877   0.537   2.072   0.290  0.0037 -0.3755 -0.0855
  293SOL    HW1  878   0.518   2.148   0.354 -1.6114 -0.5200 -4.1170
  293SOL    HW2  879   0.638   2.061   0.272 -2.2822  0.7530 -1.0894
  294SOL     OW  880   1.868   2.342   1.817 -0.4812  0.2056  0.0984
  294SOL    HW1  881   1.909   2.340   1.915  1.3353  0.4256  1.4176
  294SOL    HW2  882   1.808   2.424   1.801 -0.7386  0.8771  1.8460
  295SOL     OW  883   0.958   1.030   0.430  0.4097 -0.4426  0.0838
  295SOL    HW1  884   1.036   1.078   0.473 -2.3908 -1.6263 -1.0977
  295SOL    HW2  885   0.917   0.963   0.496 -0.4210  1.0467 -1.3519
  296SOL     OW  886   1.148   2.135   2.761  0.2051 -0.4134 -0.4034
  296SOL    HW1  887   1.084   2.213   2.760  0.3101  0.7413  2.2940
  296SOL    HW2  888   1.177   2.100   2.667  0.3654  0.2736 -0.3894
  297SOL     OW  889   1.278   0.577   1.228  0.1678 -0.2561  1.0810
  297SOL    HW1  890   1.311   0.547   1.321  2.0636 -1.9299  1.7514
  297SOL    HW2  891   1.354   0.578   1.159  0.2365  0.9367  0.4587
  298SOL     OW  892   0.468   1.291   2.945 -0.1020  0.1816  0.8692
  298SOL    HW1  893   0.461   1.218   3.021  1.1013 -0.7848  0.0462
  298SOL    HW2  894   0.505   1.251   2.859 -0.7226 -0.4071  1.1069
  299SOL     OW  895   0.391   0.185   1.253  0.1071 -0.8999 -0.1777
  299SOL    HW1  896   0.344   0.262   1.205  0.3981 -1.3857 -2.8947
  299SOL    HW2  897   0.404   0.206   1.351  0.1004 -0.1225 -2.4879
  300SOL     OW  898   1.349   1.819   2.574 -0.4188 -0.2513  0.4050
  300SOL    HW1  899   1.339   1.769   2.484  0.9142 -2.1866 -0.8163
  300SOL    HW2  900   1.416   1.771   2.633 -0.6178 -0.1488 -3.0021
  301SOL     OW  901   0.315   0.278   0.388 -0.1572 -0.2746  0.3005
  301SOL    HW1  902   0.212   0.257   0.375 -2.3487  0.8722 -0.6940
  301SOL    HW2  903   0.378   0.210   0.339 -0.2070 -1.2947 -2.8377
  302SOL     OW  904   1.248   2.387   2.294 -0.2826  0.1706  0.0994
  302SOL    HW1  905   1.147   2.359   2.310 -0.8205  0.4206 -0.2123
  302SOL    HW2  906   1.313   2.335   2.358  0.4038 -2.9095  0.0393
  303SOL     OW  907   0.875   2.460   0.783 -1.0614  0.3073 -0.6350
  303SOL    HW1  908   0.939   2.436   0.702 -0.7700 -0.3449 -2.3923
  303SOL    HW2  909   0.922   2.517   0.859  0.0975 -4.7949  2.2453
  304SOL     OW  910   0.133   1.933   0.723  0.0746  0.1559  0.0123
  304SOL    HW1  911   0.229   1.931   0.693  1.1900  2.3972  1.2104
  304SOL    HW2  912   0.060   1.963   0.652 -0.3601 -0.1955  1.3976
  305SOL     OW  913   1.659   0.798   0.708 -0.1971 -0.0706  0.0197
  305SOL    HW1  914   1.592   0.827   0.638  0.0592 -1.8779  0.3632
  305SOL    HW2  915   1.690   0.701   0.684  1.5474  0.6893 -0.8183
  306SOL     OW  916   0.397   1.895   1.969 -0.0548  0.7599 -0.4418
  306SOL    HW1  917   0.484   1.853   1.928  1.4153 -0.9028  0.6152
  306SOL    HW2  918   0.406   1.914   2.070  0.4521  1.3985  0.0172
  307SOL     OW  919   3.063   0.892   2.565 -0.0794 -0.0163  0.3944
  307SOL    HW1  920   3.039   0.976   2.625 -0.0205  2.8717  0.4798
  307SOL    HW2  921   3.057   0.803   2.616 -0.5829  0.0529  0.8525
  308SOL     OW  922   1.471   2.695   2.812  0.4568 -0.4005  0.1261
  308SOL    HW1  923   1.424   2.706   2.719 -0.4775  2.7671  1.9895
  308SOL    HW2  924   1.439   2.604   2.859 -1.2211 -1.4669 -1.2233
  309SOL     OW  925   1.178   0.175   1.822 -0.6066  0.2260  0.1342
  309SOL    HW1  926   1.242   0.102   1.789 -0.3559 -0.2728  1.3908
  309SOL    HW2  927   1.105   0.198   1.753 -1.1011  0.2764  0.6080
  310SOL     OW  928   1.460   2.531   0.646 -0.6132  0.9528 -0.1888
  310SOL    HW1  929   1.425   2.554   0.744 -2.8175  1.5609  0.8439
  310SOL    HW2  930   1.507   2.611   0.601 -2.0747 -1.1466 -0.8179
  311SOL     OW  931   1.117   0.943   1.768  0.2009 -0.5531 -0.4649
  311SOL    HW1  932   1.075   0.857   1.810 -1.4371  0.1768 -0.3823
  311SOL    HW2  933   1.163   0.931   1.675 -0.9363 -1.1154 -2.3630
  312SOL     OW  934   1.493   0.634   1.024 -0.2422 -0.2195 -0.3146
  312SOL    HW1  935   1.546   0.720   1.031 -0.7950 -0.8308  2.2983
  312SOL    HW2  936   1.428   0.639   0.945 -0.7746  0.9988  2.2628
  313SOL     OW  937   1.656   1.283   0.723  0.0554  0.4029 -0.1092
  313SOL    HW1  938   1.609   1.284   0.817  0.7086  1.4054  0.4006
  313SOL    HW2  939   1.604   1.228   0.647 -1.1728 -0.3957 -0.8572
  314SOL     OW  940   3.001   3.091   3.076  0.2881  0.2769 -0.0320
  314SOL    HW1  941   3.008   3.104   3.180  0.9842  3.8495  2.0379
  314SOL    HW2  942   2.907   3.052   3.047 -0.0185  2.0219  1.9119
  315SOL     OW  943   1.201   0.197   2.804 -0.0802  0.1646 -0.0984
  315SOL    HW1  944   1.179   0.131   2.729  0.7708  0.9766  0.9552
  315SOL    HW2  945   1.165   0.169   2.895  0.6961  1.4717  1.4904
  316SOL     OW  946   1.765   2.059   0.862 -0.5719 -0.3555 -0.0158
  316SOL    HW1  947   1.721   2.054   0.958  0.2391 -0.0831  0.2403
  316SOL    HW2  948   1.784   2.160   0.842  0.2932  3.0149 -0.8501
  317SOL     OW  949   1.166   0.710   2.720 -0.0833  0.0443  0.2300
  317SOL    HW1  950   1.124   0.717   2.815  2.4169 -2.5844  1.5913
  317SOL    HW2  951   1.130   0.629   2.664  2.3281 -1.7300 -0.3407
  318SOL     OW  952   1.390   3.061   2.320  0.6525 -0.0594  0.0814
  318SOL    HW1  953   1.427   3.157   2.304  0.2446 -1.0112 -3.3739
  318SOL    HW2  954   1.377   3.018   2.223 -1.1911  0.6889 -0.2644
  319SOL     OW  955   0.613   2.381   3.029 -0.3168 -0.1401  0.1360
  319SOL    HW1  956   0.558   2.293   3.048 -0.8596  0.0117 -0.5521
  319SOL    HW2  957   0.714   2.363   3.004  2.4670 -0.0158  1.3019
  320SOL     OW  958   1.693   2.257   0.396  0.1855  0.0149  0.3360
  320SOL    HW1  959   1.763   2.179   0.408  1.9177 -1.3689 -2.8427
  320SOL    HW2  960   1.603   2.230   0.446 -0.3641 -4.0135  1.1399
  321SOL     OW  961   1.610   2.701   0.504 -0.4200  0.1258 -0.2987
  321SOL    HW1  962   1.543   2.739   0.437 -1.6362  0.3278  3.9939
  321SOL    HW2  963   1.686   2.769   0.524  3.3229 -0.5038 -1.0886
  322SOL     OW  964   2.544   1.056   2.326  0.5149 -0.0204  0.4168
  322SOL    HW1  965   2.605   1.030   2.404 -1.1474  2.2389 -0.2514
  322SOL    HW2  966   2.468   0.984   2.313 -2.5165 -0.1945 -1.4239
  323SOL     OW  967   1.138   2.706   0.761  0.3171 -0.1112 -0.2389
  323SOL    HW1  968   1.134   2.654   0.672 -1.8316  2.4145  2.3115
  323SOL    HW2  969   1.095   2.803   0.747  1.0129  0.1758 -0.8669
  324SOL     OW  970   0.066   2.553   2.419  0.1843 -0.4460 -0.1700
  324SOL    HW1  971   0.022   2.508   2.503 -0.5350  1.7745 -0.3627
  324SOL    HW2  972   0.102   2.649   2.437 -2.4431  1.7530 -1.9179
  325SOL     OW  973   1.300   3.028   0.443 -0.1631 -0.2937 -0.4848
  325SOL    HW1  974   1.271   3.073   0.352 -0.5784  3.0593 -0.2843
  325SOL    HW2  975   1.328   3.105   0.509 -1.3807 -0.7857 -0.4901
  326SOL     OW  976   2.434   0.907   0.028 -0.0843 -0.1876 -0.6721
  326SOL    HW1  977   2.365   0.870  -0.040 -1.4985  0.9809  1.5891
  326SOL    HW2  978   2.485   0.834   0.086  1.9843  0.0018  1.6098
  327SOL     OW  979   2.832   0.198   0.567 -0.0144 -0.9389  0.1413
  327SOL    HW1  980   2.831   0.134   0.485  1.3697  0.8576 -0.7796
  327SOL    HW2  981   2.863   0.155   0.657 -0.0877 -0.9668  0.5489
  328SOL     OW  982   2.646   0.607   0.373  0.2294 -0.1463 -0.0328
  328SOL    HW1  983   2.690   0.651   0.458 -0.8836  0.9383  0.8384
  328SOL    HW2  984   2.629   0.506   0.384 -1.5301  0.0671 -0.3925
  329SOL     OW  985   2.940   3.036   2.248 -0.5016  0.5415  0.3005
  329SOL    HW1  986   3.015   2.965   2.258 -0.6193  1.0261 -0.6995
  329SOL    HW2  987   2.974   3.124   2.202  1.0570  1.8349  0.6868
  330SOL     OW  988   0.546   0.298   1.957 -0.3751  0.6619  1.0936
  330SOL    HW1  989   0.627   0.301   1.891  0.9963  0.1958 -0.5702
  330SOL    HW2  990   0.557   0.232   2.035 -1.9290 -3.7723 -0.3601
  331SOL     OW  991   0.029   1.925   1.109  0.0098 -0.1099  0.0807
  331SOL    HW1  992   0.015   1.987   1.027 -2.7719  4.1163  1.2213
  331SOL    HW2  993  -0.059   1.923   1.166 -1.2378  0.3273 -0.0868
  332SOL     OW  994   0.422   1.161   0.076  0.7008 -0.3665 -0.3360
  332SOL    HW1  995   0.345   1.107   0.033 -0.7229  1.6077 -1.5347
  332SOL    HW2  996   0.395   1.191   0.172  1.9116  0.4333 -1.8505
  333SOL     OW  997   2.921   0.935   0.378  0.1765  0.5315 -0.1622
  333SOL    HW1  998   2.962   1.019   0.421  1.2857 -1.3894 -1.2613
  333SOL    HW2  999   2.986   0.888   0.324 -3.5988 -0.9454 -0.2440
  334SOL     OW 1000   1.723   1.149   1.692  0.0909  0.1875  0.0730
  334SOL    HW1 1001   1.773   1.178   1.604 -0.9259 -1.4358  0.4278
  334SOL    HW2 1002   1.772   1.175   1.777 -2.8680 -1.9247 -0.9797
  335SOL     OW 1003   1.938   2.758   2.586  0.0401 -0.2393  0.4839
  335SOL    HW1 1004   1.842   2.759   2.618  1.4696 -0.8954  0.6052
  335SOL    HW2 1005   2.008   2.799   2.653 -0.6787  0.5137  0.7514
  336SOL     OW 1006   0.286   0.103   2.732  0.7129  0.2696 -0.1233
  336SOL    HW1 1007   0.370   0.124   2.788 -1.2752  3.1396 -2.3629
  336SOL    HW2 1008   0.211   0.051   2.778  0.7298  0.4223  0.9451
  337SOL     OW 1009   0.798   2.855   3.042 -0.2917 -0.2095  0.3340
  337SOL    HW1 1010   0.865   2.796   3.088 -1.4802  1.4602 -1.8999
  337SOL    HW2 1011   0.736   2.888   3.123 -3.0953  1.7048  1.4066
  338SOL     OW 1012   0.033   0.961   0.704  0.8821 -0.6521 -0.1436
  338SOL    HW1 1013  -0.066   0.926   0.712  1.5093  1.3640 -0.7969
  338SOL    HW2 1014   0.037   1.065   0.690 -0.7995 -0.2687  0.9685
  339SOL     OW 1015   1.771   1.339   2.145 -0.0065  0.3740 -0.1757
  339SOL    HW1 1016   1.677   1.340   2.100 -0.3327 -2.3522 -2.5350
  339SOL    HW2 1017   1.807   1.436   2.161 -0.3271  3.3109  0.7508
  340SOL     OW 1018   2.256   0.772   1.099 -0.4323 -0.4135 -0.2379
  340SOL    HW1 1019   2.175   0.823   1.124  3.2738  0.5758  0.3557
  340SOL    HW2 1020   2.238   0.672   1.069  0.6514  0.1059 -1.2446
  341SOL     OW 1021   1.876   2.048   0.339 -0.5518  0.0715 -0.5916
  341SOL    HW1 1022   1.888   2.111   0.258  0.0388  2.2350 -0.2382
  341SOL    HW2 1023   1.966   2.028   0.390  1.1708 -1.6355 -0.2569
  342SOL     OW 1024   2.175   2.157   2.775  0.0490 -0.0693 -0.1136
  342SOL    HW1 1025   2.199   2.064   2.822 -0.2830 -0.2373 -1.3175
  342SOL    HW2 1026   2.077   2.155   2.736 -1.0390 -0.2770  0.0911
  343SOL     OW 1027   0.352   0.866   2.860  0.1579 -0.2013  0.7970
  343SOL    HW1 1028   0.337   0.921   2.769  2.0440  1.4804  1.0493
  343SOL    HW2 1029   0.450   0.860   2.891 -1.4116 -1.6657 -2.2709
  344SOL     OW 1030   1.946   1.423   0.343 -0.5401 -0.1318 -0.0190
  344SOL    HW1 1031   1.940   1.330   0.296  1.1655 -0.8826 -2.2958
  344SOL    HW2 1032   1.857   1.465   0.374  0.6445 -0.8287  0.1496
  345SOL     OW 1033   1.398   2.191   2.848  0.3098 -0.1051  0.3563
  345SOL    HW1 1034   1.310   2.150   2.815  0.1819 -1.2514 -2.2522
  345SOL    HW2 1035   1.465   2.187   2.775 -0.9992 -1.1287  0.8685
  346SOL     OW 1036   2.304   0.814   1.374 -0.6179  0.3102  0.3193
  346SOL    HW1 1037   2.230   0.760   1.424 -1.8636 -0.7178  1.4535
  346SOL    HW2 1038   2.308   0.795   1.269  0.5249 -0.8864 -1.0132
  347SOL     OW 1039   0.702   2.799   1.706  0.2823 -0.1888  0.0199
  347SOL    HW1 1040   0.768   2.873   1.693  0.8443  1.0100  2.6825
  347SOL    HW2 1041   0.640   2.786   1.623 -1.1572 -0.1927 -2.0391
  348SOL     OW 1042   0.194   0.612   2.838 -0.2820 -0.3143 -0.0479
  348SOL    HW1 1043   0.102   0.625   2.792  0.4147 -0.2781 -1.5719
  348SOL    HW2 1044   0.241   0.703   2.850 -0.8834  0.8557  1.0450
  349SOL     OW 1045   1.761   0.426   2.826  0.0248 -0.1334  0.1522
  349SOL    HW1 1046   1.744   0.514   2.772 -0.6091 -0.8684 -1.4134
  349SOL    HW2 1047   1.744   0.432   2.930  1.2747 -1.2872 -0.8961
  350SOL     OW 1048   1.726   0.385   0.382  0.5093 -0.3482 -0.1363
  350SOL    HW1 1049   1.805   0.379   0.447  0.2715 -1.1925 -1.7011
  350SOL    HW2 1050   1.729   0.488   0.358  0.6577  0.4962  2.0109
  351SOL     OW 1051   0.841   0.796   2.082 -0.0419 -0.1377  0.0754
  351SOL    HW1 1052   0.861   0.894   2.090 -0.7513 -1.3460 -3.0505
  351SOL    HW2 1053   0.899   0.750   2.008  2.4790 -0.7067 -0.3463
  352SOL     OW 1054   2.071   1.375   0.599  0.4943  0.6631  0.0113
  352SOL    HW1 1055   2.035   1.417   0.512 -0.0842  0.5338 -0.4813
  352SOL    HW2 1056   2.000   1.327   0.655 -2.2577  0.7592 -2.0677
  353SOL     OW 1057   2.174   2.692   1.125  0.0254 -0.1397 -0.1979
  353SOL    HW1 1058   2.255   2.636   1.158 -0.8213  3.1549 -0.5272
  353SOL    HW2 1059   2.132   2.743   1.202  2.3850 -2.5821  0.7458
  354SOL     OW 1060   0.241   1.429   2.893 -0.3145 -0.0048 -0.0953
  354SOL    HW1 1061   0.264   1.487   2.810 -1.3650 -3.5284 -2.7583
  354SOL    HW2 1062   0.322   1.364   2.908  0.2422  1.3364 -0.4805
  355SOL     OW 1063   0.717   1.612   0.603 -0.0532  0.0249  0.6089
  355SOL    HW1 1064   0.707   1.559   0.692  2.6364 -2.1281  0.4954
  355SOL    HW2 1065   0.677   1.557   0.528 -0.8581  0.0378  3.0037
  356SOL     OW 1066   0.992   0.345   2.094  0.1803  0.3563  0.0572
  356SOL    HW1 1067   1.072   0.284   2.116 -0.0011 -0.4792 -0.0542
  356SOL    HW2 1068   0.941   0.326   2.008 -1.5227 -0.4666  0.9273
  357SOL     OW 1069   1.016   1.452   0.140  0.5511  0.6868 -0.2475
  357SOL    HW1 1070   1.063   1.401   0.063  0.1045  0.8098 -1.7479
  357SOL    HW2 1071   1.085   1.514   0.182  0.6932 -0.1593 -0.0431
  358SOL     OW 1072   1.683   1.480   0.449  0.4123  0.7917  0.1647
  358SOL    HW1 1073   1.702   1.419   0.531  1.4131 -0.5365  1.3558
  358SOL    HW2 1074   1.635   1.428   0.371  1.8389 -0.4216 -0.5734
  359SOL     OW 1075   1.620   2.566   0.205  0.4872  0.2351  0.0146
  359SOL    HW1 1076   1.615   2.468   0.171  1.7197  0.0447  0.6329
  359SOL    HW2 1077   1.527   2.611   0.212  1.2457  0.8937 -1.3126
  360SOL     OW 1078   0.716   0.509   0.564  0.4576  0.1708 -0.3109
  360SOL    HW1 1079   0.624   0.517   0.524  0.3628 -1.5204  0.6649
  360SOL    HW2 1080   0.757   0.414   0.571 -0.3699 -1.9922 -0.4859
  361SOL     OW 1081   1.374   1.309   0.625 -0.1349  0.0602  0.1000
  361SOL    HW1 1082   1.392   1.360   0.715 -0.1499 -2.5301 -0.9340
  361SOL    HW2 1083   1.298   1.362   0.573  0.1812  1.1920  0.1020
  362SOL     OW 1084   1.390   1.818   0.720  0.1867  0.1182  0.3573
  362SOL    HW1 1085   1.434   1.767   0.799  2.0378 -0.0836 -0.3050
  362SOL    HW2 1086   1.456   1.843   0.646  1.7504  0.2736  1.3654
  363SOL     OW 1087   1.262   1.337   1.932 -0.2711  0.3452 -0.0863
  363SOL    HW1 1088   1.307   1.386   2.008 -0.6869  1.9425 -0.8971
  363SOL    HW2 1089   1.250   1.392   1.844  2.4623 -1.4650 -2.4453
  364SOL     OW 1090   0.554   2.383   1.962 -0.2324  0.1959  0.4573
  364SOL    HW1 1091   0.450   2.386   1.970  0.4392  0.5247 -1.0250
  364SOL    HW2 1092   0.588   2.479   1.952  0.7076 -2.1598 -1.8844
  365SOL     OW 1093   0.942   1.947   1.417 -0.1212  0.0912 -0.5431
  365SOL    HW1 1094   0.863   1.994   1.466 -1.9683 -0.1097  0.6330
  365SOL    HW2 1095   0.952   1.975   1.314  0.6767 -0.7140 -1.5960
  366SOL     OW 1096   2.742   1.873   0.255 -0.1595  0.0585 -0.1571
  366SOL    HW1 1097   2.673   1.804   0.219  0.8640 -1.9077 -1.7880
  366SOL    HW2 1098   2.823   1.824   0.293  0.6472 -1.4430  3.2296
  367SOL     OW 1099   0.957   1.088   3.029 -0.3513 -0.1469  0.1951
  367SOL    HW1 1100   0.954   1.037   3.120  2.2582 -3.3695 -1.3226
  367SOL    HW2 1101   1.014   1.172   3.035 -0.0745 -0.3185 -1.0288
  368SOL     OW 1102   1.435   0.513   0.481  0.0590 -0.3402 -0.5594
  368SOL    HW1 1103   1.354   0.570   0.465  0.1555 -0.9355  1.3358
  368SOL    HW2 1104   1.525   0.550   0.445  2.4536 -1.3648  4.5149
  369SOL     OW 1105   0.348   1.653   0.146 -0.8188 -0.6752 -0.0799
  369SOL    HW1 1106   0.418   1.703   0.207  0.3662  0.1522  2.2703
  369SOL    HW2 1107   0.286   1.594   0.199 -1.0253  2.5369 -1.1119
  370SOL     OW 1108   0.454   2.138   1.026  0.4850  0.0762  0.0925
  370SOL    HW1 1109   0.487   2.236   1.025  1.3417 -3.2496  1.5778
  370SOL    HW2 1110   0.355   2.129   0.998  0.2672  1.5683  0.9447
  371SOL     OW 1111   2.921   2.162   2.700  0.0347 -0.3282 -0.5021
  371SOL    HW1 1112   2.992   2.086   2.713  0.8137 -1.0821  3.0319
  371SOL    HW2 1113   2.925   2.244   2.769  0.1552  3.7143 -1.0364
  372SOL     OW 1114   0.966   2.052   1.185 -0.0709  0.2068  0.1954
  372SOL    HW1 1115   0.876   2.077   1.138  0.9150 -0.9438  0.3981
  372SOL    HW2 1116   1.036   2.128   1.183  1.4912  1.0494 -1.1230
  373SOL     OW 1117   1.918   1.896   1.035 -0.2647 -0.6779 -0.0442
  373SOL    HW1 1118   2.010   1.938   1.034 -3.6059  1.7834 -0.8434
  373SOL    HW2 1119   1.847   1.958   0.993 -0.8975  0.5313 -1.0255
  374SOL     OW 1120   1.929   0.322   0.564  0.0181 -1.2333  0.6059
  374SOL    HW1 1121   1.910   0.265   0.645 -1.9432 -0.2635 -0.1257
  374SOL    HW2 1122   2.033   0.347   0.551  0.4551  0.8486 -0.3095
  375SOL     OW 1123   2.437   2.174   1.121 -0.4359 -0.3711 -0.6385
  375SOL    HW1 1124   2.444   2.248   1.049  0.0869 -0.4642  2.9574
  375SOL    HW2 1125   2.520   2.167   1.186 -2.2977 -0.4668  1.1866
  376SOL     OW 1126   3.060   0.624   1.435 -0.1672  0.0491 -0.2313
  376SOL    HW1 1127   3.084   0.681   1.517  0.3786 -3.6747  1.0250
  376SOL    HW2 1128   3.056   0.522   1.453  1.3094 -0.7850  2.4586
  377SOL     OW 1129   2.257   2.941   0.160  0.2976  0.1802  0.1083
  377SOL    HW1 1130   2.283   3.026   0.215 -2.1645 -0.9227  0.9226
  377SOL    HW2 1131   2.291   2.857   0.212 -0.7610 -0.5763 -0.4067
  378SOL     OW 1132   1.907   1.918   2.522  0.0826  0.1111 -0.3386
  378SOL    HW1 1133   1.996   1.878   2.490  0.9303 -2.1562  0.5527
  378SOL    HW2 1134   1.838   1.843   2.541 -0.3791 -0.3954  0.5148
  379SOL     OW 1135   0.768   0.150   2.794 -0.0202  0.0956 -0.7124
  379SOL    HW1 1136   0.841   0.077   2.785 -1.1332  0.4587 -3.4594
  379SOL    HW2 1137   0.785   0.225   2.717  2.8069 -0.8961 -3.7199
  380SOL     OW 1138   1.555   1.100   0.550  0.0478 -0.4732  0.0362
  380SOL    HW1 1139   1.467   1.157   0.539  2.7683  0.4878 -1.5197
  380SOL    HW2 1140   1.539   0.998   0.551  0.5315 -2.0380 -1.6286
  381SOL     OW 1141   1.264   1.299   1.456  0.1550 -0.2020 -0.3703
  381SOL    HW1 1142   1.315   1.254   1.378  0.8108  0.0098 -1.3926
  381SOL    HW2 1143   1.310   1.300   1.551 -1.1872 -1.1376 -1.5120
  382SOL     OW 1144   1.807   0.854   0.282  0.0740  0.4004  0.6609
  382SOL    HW1 1145   1.826   0.816   0.186 -2.3746  2.2694 -0.1793
  382SOL    HW2 1146   1.880   0.839   0.357 -0.5414 -0.2400 -2.1041
  383SOL     OW 1147   2.511   1.013   1.488 -0.1474  0.0800 -0.0468
  383SOL    HW1 1148   2.419   0.977   1.463  1.2218 -3.2067  1.1863
  383SOL    HW2 1149   2.582   0.985   1.416 -1.7808  0.7479  1.4402
  384SOL     OW 1150   0.963   2.299   0.211  0.3703 -0.4661 -0.0142
  384SOL    HW1 1151   0.878   2.355   0.225 -1.8731  0.5526  0.7853
  384SOL    HW2 1152   1.017   2.275   0.297  2.4425 -0.6596 -0.6028
  385SOL     OW 1153   2.924   2.026   1.642 -0.1151  0.3787 -0.5748
  385SOL    HW1 1154   3.013   2.078   1.663 -1.5080 -1.6360 -1.0023
  385SOL    HW2 1155   2.922   1.927   1.668 -2.3896  0.5788  1.0325
  386SOL     OW 1156   0.473   1.066   0.485 -0.3363 -0.2036  0.3274
  386SOL    HW1 1157   0.482   0.967   0.478  2.3212 -0.3483 -0.5678
  386SOL    HW2 1158   0.425   1.123   0.412  2.9103  0.6927  1.2178
  387SOL     OW 1159   0.953   0.287   1.633 -0.4147 -0.6600  0.1777
  387SOL    HW1 1160   0.988   0.383   1.630  1.3099 -0.1072 -1.6300
  387SOL    HW2 1161   0.941   0.249   1.537  0.6361  0.2175 -0.0011
  388SOL     OW 1162   1.213   2.719   1.746  0.3327  0.0428  0.5728
  388SOL    HW1 1163   1.278   2.740   1.668 -0.9682  1.5380 -0.5826
  388SOL    HW2 1164   1.250   2.639   1.800  1.8463 -1.4913 -0.3791
  389SOL     OW 1165   0.155   2.913   1.323 -0.0661  0.1874  0.2866
  389SOL    HW1 1166   0.057   2.943   1.307 -0.6367  1.6397  0.9418
  389SOL    HW2 1167   0.172   2.813   1.297 -0.7120 -2.3623  0.6364
  390SOL     OW 1168   1.025   0.962   1.363  0.0275 -0.0174 -0.4360
  390SOL    HW1 1169   1.121   0.950   1.407  1.2058 -0.9715  1.9990
  390SOL    HW2 1170   0.989   1.061   1.357  0.5230  1.9353 -0.7528
  391SOL     OW 1171   2.153   1.148   1.112 -0.2221  0.0133  0.4822
  391SOL    HW1 1172   2.090   1.083   1.161 -4.0410  2.6232 -1.2183
  391SOL    HW2 1173   2.203   1.112   1.028 -1.8491 -2.3903 -1.1940
  392SOL     OW 1174   0.894   2.607   0.067  0.3408 -0.4789 -0.1274
  392SOL    HW1 1175   0.982   2.548   0.051  2.0465 -0.0109  0.4234
  392SOL    HW2 1176   0.816   2.551   0.098  0.6991 -0.3578 -1.3323
  393SOL     OW 1177   0.301   0.654   1.956  0.2317  0.3785  0.1586
  393SOL    HW1 1178   0.284   0.554   1.942 -0.6883  0.9821  1.6137
  393SOL    HW2 1179   0.322   0.700   1.865  0.1027 -0.1335 -0.7285
  394SOL     OW 1180   3.071   1.932   2.690 -0.2191  0.0432 -0.2618
  394SOL    HW1 1181   3.143   1.905   2.761 -0.2889  0.6202  0.2461
  394SOL    HW2 1182   3.073   1.878   2.602 -2.3414 -2.5427 -2.5945
  395SOL     OW 1183   1.621   1.989   0.644 -0.1371  0.4187 -0.2754
  395SOL    HW1 1184   1.659   1.918   0.577 -0.4897  2.1526 -2.2589
  395SOL    HW2 1185   1.671   2.001   0.732  0.3104 -3.2973 -1.1904
  396SOL     OW 1186   2.907   1.865   1.291 -0.1283 -0.2204  0.5765
  396SOL    HW1 1187   2.922   1.775   1.242  0.3546 -1.0793 -1.4757
  396SOL    HW2 1188   2.848   1.853   1.372  1.1260  0.5667 -1.5531
  397SOL     OW 1189   1.041   2.207   0.512 -0.1375  0.0476 -0.1633
  397SOL    HW1 1190   0.944   2.178   0.534  1.2018 -0.1696 -0.7964
  397SOL    HW2 1191   1.057   2.301   0.550  1.9946  0.8897  0.3396
  398SOL     OW 1192   2.154   3.043   1.152  0.2872 -0.4540  0.4878
  398SOL    HW1 1193   2.062   2.992   1.146  2.4231 -1.3773  0.2407
  398SOL    HW2 1194   2.145   3.132   1.102  0.7868 -0.0752 -0.4641
  399SOL     OW 1195   3.044   2.453   2.655 -0.1776 -0.0755 -0.1938
  399SOL    HW1 1196   2.995   2.450   2.743  0.4433  4.2317  0.5870
  399SOL    HW2 1197   3.115   2.373   2.653 -1.4419 -0.4127  0.1430
  400SOL     OW 1198   0.654   1.703   1.354 -0.1814  0.3897 -0.3882
  400SOL    HW1 1199   0.610   1.753   1.432  2.2407  0.6466  0.5602
  400SOL    HW2 1200   0.649   1.746   1.258 -2.3447  0.0897  0.1667
  401SOL     OW 1201   1.863   0.287   1.143 -0.1836  0.2992  0.1654
  401SOL    HW1 1202   1.862   0.284   1.251 -3.6927  0.0518  1.3195
  401SOL    HW2 1203   1.786   0.344   1.108  0.8558  1.5933  2.5832
  402SOL     OW 1204   1.358   0.261   3.083 -0.0044 -0.1106 -0.1342
  402SOL    HW1 1205   1.442   0.225   3.033 -1.0237  1.8845 -1.7546
  402SOL    HW2 1206   1.303   0.326   3.028 -0.1073 -1.7995 -0.0479
  403SOL     OW 1207   2.237   1.886   0.832  0.5207  0.3046 -0.0667
  403SOL    HW1 1208   2.331   1.917   0.799 -3.2688  1.1446 -2.7862
  403SOL    HW2 1209   2.219   1.909   0.935 -2.8006 -0.1299 -1.2840
  404SOL     OW 1210   0.263   2.485   2.757  0.3781 -0.0168  0.0176
  404SOL    HW1 1211   0.340   2.477   2.690  1.4824  0.4944  0.6641
  404SOL    HW2 1212   0.258   2.574   2.808  0.4585 -0.3460 -1.8784
  405SOL     OW 1213   0.139   2.376   0.737  0.4089 -0.2301 -0.3110
  405SOL    HW1 1214   0.105   2.300   0.676 -0.8382  2.4512  0.8251
  405SOL    HW2 1215   0.215   2.435   0.706 -4.0524  0.1953  2.0387
  406SOL     OW 1216   0.046   1.538   3.088  0.1646 -0.3169 -0.2619
  406SOL    HW1 1217   0.130   1.530   3.025  0.7078  1.8867 -1.2097
  406SOL    HW2 1218   0.055   1.512   3.189 -1.6559  0.3260 -0.3231
  407SOL     OW 1219   1.587   0.887   0.961  0.1740  0.0913 -0.2891
  407SOL    HW1 1220   1.593   0.879   0.857  1.1849 -0.8476 -2.3221
  407SOL    HW2 1221   1.500   0.933   0.995  0.1689 -2.1936  1.4516
  408SOL     OW 1222   1.558   2.371   0.964  0.6498 -0.0418  0.0418
  408SOL    HW1 1223   1.638   2.366   0.897  2.5152 -0.2124 -1.5997
  408SOL    HW2 1224   1.504   2.457   0.952  0.5369 -0.6994 -0.0287
  409SOL     OW 1225   0.618   0.829   0.740  0.2397  0.3308 -0.5529
  409SOL    HW1 1226   0.557   0.818   0.660 -2.3802 -1.1063  0.8401
  409SOL    HW2 1227   0.643   0.742   0.788 -3.0306  0.9419 -1.3390
  410SOL     OW 1228   1.232   2.012   1.390 -0.3535  0.5414  0.6346
  410SOL    HW1 1229   1.311   1.961   1.424 -3.0328 -1.5756 -0.6312
  410SOL    HW2 1230   1.139   1.975   1.421 -1.1900 -0.0602  0.7824
  411SOL     OW 1231   2.512   1.852   3.009 -0.0326 -0.0173 -0.2445
  411SOL    HW1 1232   2.571   1.931   3.031 -0.3410 -0.8711  1.7354
  411SOL    HW2 1233   2.518   1.818   2.911 -0.6404 -1.8295 -0.1442
  412SOL     OW 1234   1.486   2.467   2.156  0.4222 -0.0332 -0.0925
  412SOL    HW1 1235   1.567   2.476   2.220 -0.3093 -1.2928 -1.2875
  412SOL    HW2 1236   1.403   2.426   2.201  1.7399 -2.1212 -0.3026
  413SOL     OW 1237   0.023   0.261   3.027  0.2823  0.4941  0.1773
  413SOL    HW1 1238  -0.033   0.171   3.040 -1.1138  1.0722  3.3250
  413SOL    HW2 1239   0.127   0.247   3.053  2.4601 -0.5686  1.8840
  414SOL     OW 1240   1.772   1.506   1.141 -0.3880  0.0526 -0.7982
  414SOL    HW1 1241   1.718   1.593   1.146 -2.0287  0.7676  1.5758
  414SOL    HW2 1242   1.777   1.474   1.043 -1.0360 -0.7408  0.8192
  415SOL     OW 1243   0.347   2.145   0.668 -0.2016  0.1080 -0.1631
  415SOL    HW1 1244   0.304   2.159   0.762  1.0570 -1.5148  0.2606
  415SOL    HW2 1245   0.297   2.170   0.584  3.2137  0.5154 -0.8767
  416SOL     OW 1246   0.364   1.096   1.068 -0.1420 -0.1210  0.2967
  416SOL    HW1 1247   0.346   1.024   0.996  0.1676 -0.5288  2.5265
  416SOL    HW2 1248   0.463   1.128   1.063 -1.8594 -0.1501 -1.7865
  417SOL     OW 1249   2.365   2.413   2.112  0.2942  0.3456  0.2562
  417SOL    HW1 1250   2.382   2.309   2.095 -0.3698 -0.9686  0.9736
  417SOL    HW2 1251   2.327   2.435   2.211 -0.0078  2.4364 -0.3840
  418SOL     OW 1252   1.036   0.515   1.337  0.3244  0.4173 -0.2498
  418SOL    HW1 1253   0.956   0.488   1.278  1.9527  1.3388 -1.6479
  418SOL    HW2 1254   1.122   0.531   1.276 -1.4713 -0.5785 -0.4482
  419SOL     OW 1255   0.895   0.540   2.970 -0.4518 -0.2495 -0.1624
  419SOL    HW1 1256   0.802   0.559   2.933  0.1086 -0.5671  0.7407
  419SOL    HW2 1257   0.949   0.619   3.009 -2.1831  3.5605  1.4912
  420SOL     OW 1258   0.123   2.195   0.503  0.2651 -0.6011  0.0331
  420SOL    HW1 1259   0.157   2.147   0.416 -1.9811  2.6615  0.7448
  420SOL    HW2 1260   0.039   2.149   0.548  1.5354  0.6141 -2.5213
  421SOL     OW 1261   0.311   2.980   0.535 -0.3165 -0.1604 -0.1757
  421SOL    HW1 1262   0.285   2.916   0.613  1.4169  0.1482 -0.4359
  421SOL    HW2 1263   0.399   3.028   0.551  0.4848 -2.0052 -0.8182
  422SOL     OW 1264   1.046   2.562   0.965 -0.2704 -0.0219 -0.9026
  422SOL    HW1 1265   1.083   2.645   0.915  0.0145 -0.0662  4.6324
  422SOL    HW2 1266   1.117   2.532   1.037  1.3407  1.2357  1.0993
  423SOL     OW 1267   0.146   0.735   1.262 -0.4162  0.0618  0.2562
  423SOL    HW1 1268   0.064   0.692   1.311  1.8093 -0.1437  0.2166
  423SOL    HW2 1269   0.125   0.814   1.196 -0.0161  0.8559 -0.0757
  424SOL     OW 1270   1.163   2.216   2.049 -0.4042  0.0148  0.0282
  424SOL    HW1 1271   1.134   2.316   2.052 -0.1036  0.4056 -0.2348
  424SOL    HW2 1272   1.109   2.165   2.124  0.0267 -1.4156  0.0207
  425SOL     OW 1273   1.972   1.308   0.993 -0.9925  0.0861 -0.0479
  425SOL    HW1 1274   2.049   1.255   1.043 -0.5081  0.6191 -0.6719
  425SOL    HW2 1275   1.989   1.407   0.961  0.4487  1.0786  0.0734
  426SOL     OW 1276   1.434   1.595   1.197 -0.4265 -0.4638  0.1530
  426SOL    HW1 1277   1.470   1.693   1.182 -0.2246  1.6966  0.0877
  426SOL    HW2 1278   1.397   1.594   1.292  1.8716 -1.1726 -0.5252
  427SOL     OW 1279   1.959   2.388   2.095 -0.0458 -0.0496  0.4761
  427SOL    HW1 1280   2.018   2.324   2.159  1.1613 -2.3702  0.0746
  427SOL    HW2 1281   1.965   2.487   2.113  0.2034 -0.2034  1.0728
  428SOL     OW 1282   0.901   0.037   0.106  0.3330  0.1452 -0.3620
  428SOL    HW1 1283   0.930   0.101   0.032 -0.8542 -1.2209 -1.6370
  428SOL    HW2 1284   0.974  -0.032   0.140 -0.5868 -1.4600  1.4510
  429SOL     OW 1285   1.302   0.171   0.245 -0.1862  0.0739  0.1049
  429SOL    HW1 1286   1.387   0.158   0.297  0.1570 -0.0311 -1.6184
  429SOL    HW2 1287   1.313   0.190   0.144 -0.6908 -0.5206  0.3332
  430SOL     OW 1288   2.904   1.402   0.284  0.0899 -0.8858 -0.1087
  430SOL    HW1 1289   2.862   1.454   0.206 -4.2061  1.0193 -2.0457
  430SOL    HW2 1290   2.851   1.407   0.373 -3.0617 -0.5329 -1.2176
  431SOL     OW 1291   2.061   1.579   0.905  0.3809 -0.3553 -0.1176
  431SOL    HW1 1292   2.120   1.646   0.957 -3.4888  1.8628  1.0173
  431SOL    HW2 1293   2.021   1.619   0.818 -1.3433  1.1699 -0.0278
  432SOL     OW 1294   2.916   2.159   1.214 -0.2070  0.1048  0.1748
  432SOL    HW1 1295   2.861   2.073   1.234 -1.0573 -0.8173 -0.4853
  432SOL    HW2 1296   2.936   2.209   1.301  0.0751 -2.9576  0.9994
  433SOL     OW 1297   1.850   0.236   0.802  0.0700  0.6635 -0.4422
  433SOL    HW1 1298   1.763   0.274   0.847 -1.9048 -0.5705  2.1588
  433SOL    HW2 1299   1.931   0.227   0.861 -3.0468  4.0735 -0.7203
  434SOL     OW 1300   1.546   0.300   0.666 -0.0315 -0.1824 -0.0329
  434SOL    HW1 1301   1.506   0.370   0.602  2.4530  1.4110  2.9928
  434SOL    HW2 1302   1.627   0.337   0.711 -3.2158 -2.0592 -1.8434
  435SOL     OW 1303   1.497   1.415   2.102 -0.4997 -0.0507  1.0141
  435SOL    HW1 1304   1.499   1.461   2.195  0.0267 -2.4095 -0.1899
  435SOL    HW2 1305   1.516   1.477   2.024  1.0499 -0.5108  0.6628
  436SOL     OW 1306   1.721   2.724   2.268  0.2241  0.5486  0.3423
  436SOL    HW1 1307   1.650   2.787   2.306  0.6309 -2.3101  1.0981
  436SOL    HW2 1308   1.701   2.621   2.296  0.9488 -0.6698  0.1292
  437SOL     OW 1309   1.115   2.960   0.923  0.3386  0.2767 -0.2165
  437SOL    HW1 1310   1.056   3.044   0.922 -0.8476 -0.2808 -0.8533
  437SOL    HW2 1311   1.103   2.913   1.012  0.7905 -1.3795  0.0096
  438SOL     OW 1312   1.022   2.691   1.492  0.1203  0.4177  0.3030
  438SOL    HW1 1313   1.127   2.704   1.479 -0.9604 -0.3625  2.6134
  438SOL    HW2 1314   0.977   2.602   1.452 -2.4454  0.1050  1.3838
  439SOL     OW 1315   0.682   1.853   1.061  0.1633  0.9581  0.1391
  439SOL    HW1 1316   0.691   1.947   1.018  1.0991 -0.3337  1.4106
  439SOL    HW2 1317   0.594   1.804   1.038  0.1925  1.4478 -1.5961
  440SOL     OW 1318   1.044   2.499   1.970 -0.1220 -0.0156 -0.3459
  440SOL    HW1 1319   1.004   2.541   1.877 -1.6737  3.5330  0.1587
  440SOL    HW2 1320   1.147   2.511   1.980 -0.7045  1.8267  1.1754
  441SOL     OW 1321   0.377   2.686   1.519  0.0345  0.6122 -0.6120
  441SOL    HW1 1322   0.430   2.610   1.561  0.8167  0.8271  0.6353
  441SOL    HW2 1323   0.328   2.661   1.429 -0.0196 -1.3510 -1.2494
  442SOL     OW 1324   2.282   0.666   2.556 -0.0547 -0.4892 -0.2457
  442SOL    HW1 1325   2.260   0.564   2.574  0.5533  0.5633  2.1951
  442SOL    HW2 1326   2.193   0.720   2.567  0.7231  0.4762 -0.0118
  443SOL     OW 1327   1.206   2.667   2.210 -0.0881  0.1470  0.5074
  443SOL    HW1 1328   1.214   2.701   2.308 -0.3020 -0.6607  3.0006
  443SOL    HW2 1329   1.173   2.567   2.205  0.2456 -1.1674 -1.1677
  444SOL     OW 1330   0.998   1.373   1.552  0.3724 -0.3820  0.0199
  444SOL    HW1 1331   1.098   1.358   1.530 -1.3882 -1.0717 -2.1378
  444SOL    HW2 1332   0.967   1.467   1.520  1.0207  0.3482 -3.0794
  445SOL     OW 1333   3.077   2.372   1.982  0.2402  0.2721  0.4036
  445SOL    HW1 1334   3.077   2.459   1.922  0.4776  2.6552 -0.1477
  445SOL    HW2 1335   2.980   2.350   2.016 -0.6371 -1.5643  1.0656
  446SOL     OW 1336   0.198   1.880   2.340  0.6512  0.2243  0.2709
  446SOL    HW1 1337   0.194   1.979   2.379 -1.3649  1.2375 -1.2132
  446SOL    HW2 1338   0.109   1.856   2.291 -0.2544  1.4451 -0.3291
  447SOL     OW 1339   1.221   1.646   1.942 -0.3911 -1.0172 -0.0935
  447SOL    HW1 1340   1.177   1.734   1.908  1.5687  1.8972  3.6683
  447SOL    HW2 1341   1.323   1.663   1.953 -0.6855  0.6715  2.0746
  448SOL     OW 1342   0.110   1.543   1.933  0.1640  0.2959 -0.6473
  448SOL    HW1 1343   0.142   1.640   1.934  1.2528  1.1661 -0.6713
  448SOL    HW2 1344   0.137   1.499   2.021 -0.9704  2.4289 -2.1826
  449SOL     OW 1345   2.010   2.998   0.859  0.0519 -0.4708  0.3838
  449SOL    HW1 1346   2.073   3.004   0.941  1.9494  3.6933 -0.2749
  449SOL    HW2 1347   1.981   2.898   0.832 -0.5971 -0.6927  1.6069
  450SOL     OW 1348   2.271   1.365   0.908  0.1391 -0.2856  0.4850
  450SOL    HW1 1349   2.288   1.260   0.908  0.5408 -0.4068  1.5211
  450SOL    HW2 1350   2.219   1.411   0.823 -2.1600  0.3909 -1.6429
  451SOL     OW 1351   1.415   0.024   1.442 -0.0710  0.0848  0.1978
  451SOL    HW1 1352   1.317   0.063   1.452 -2.3124 -1.7848  0.9800
  451SOL    HW2 1353   1.441  -0.034   1.525  1.2195  1.2622 -0.5001
  452SOL     OW 1354   2.666   2.343   2.242 -0.0351  0.3579 -0.1009
  452SOL    HW1 1355   2.636   2.445   2.245  0.5832  3.0851  0.8639
  452SOL    HW2 1356   2.674   2.298   2.334  1.4918  0.0261 -4.1889
  453SOL     OW 1357   2.428   2.585   3.045  0.1809 -0.1200  0.6094
  453SOL    HW1 1358   2.359   2.661   3.054  0.3372 -1.7133  1.1517
  453SOL    HW2 1359   2.407   2.519   2.964 -3.1672 -0.9534 -1.1062
  454SOL     OW 1360   0.958   1.088   2.070  0.5119 -0.2471 -0.6647
  454SOL    HW1 1361   0.959   1.133   1.977 -4.0085 -1.1592 -2.5277
  454SOL    HW2 1362   1.052   1.066   2.110  1.1174  0.8604  1.5398
  455SOL     OW 1363   0.639   2.671   2.904 -0.5183 -0.1927 -0.2046
  455SOL    HW1 1364   0.707   2.731   2.953 -1.8979 -1.2777 -1.6746
  455SOL    HW2 1365   0.609   2.591   2.964 -2.1235 -1.0114  1.8783
  456SOL     OW 1366   0.520   1.783   0.329  0.1119 -0.3190  0.5578
  456SOL    HW1 1367   0.598   1.728   0.359  1.4458 -0.8350  0.9287
  456SOL    HW2 1368   0.553   1.880   0.306 -1.2433  0.2304  1.0407
  457SOL     OW 1369   0.348   2.538   0.654  0.5725  0.5610 -0.4664
  457SOL    HW1 1370   0.352   2.567   0.554 -1.7676  0.2793 -1.1194
  457SOL    HW2 1371   0.438   2.534   0.704  3.2382  1.1703 -3.7366
  458SOL     OW 1372   2.992   2.977   1.250  0.0043  0.3815 -0.7603
  458SOL    HW1 1373   2.988   3.079   1.237  0.6313  0.9537  0.3760
  458SOL    HW2 1374   2.960   2.923   1.169  2.0782 -0.3186 -3.5548
  459SOL     OW 1375   2.162   2.550   0.901  0.0098  0.6193 -0.1826
  459SOL    HW1 1376   2.146   2.615   0.980 -1.6756  1.3428 -0.0287
  459SOL    HW2 1377   2.259   2.540   0.875 -1.4385  2.9809  4.0989
  460SOL     OW 1378   1.069   1.927   2.918 -0.0202  0.0667 -0.1562
  460SOL    HW1 1379   1.078   2.010   2.852  0.9751  0.2604 -1.2389
  460SOL    HW2 1380   1.158   1.898   2.958 -1.2337 -0.9848  2.7773
  461SOL     OW 1381   0.565   2.115   2.694  0.1367 -0.1128 -0.7130
  461SOL    HW1 1382   0.487   2.052   2.672  1.2851  0.6540 -1.4971
  461SOL    HW2 1383   0.610   2.090   2.785 -0.0334 -0.2963  0.0024
  462SOL     OW 1384   0.960   1.180   1.790  0.3426 -0.3424  0.2760
  462SOL    HW1 1385   1.023   1.095   1.773  0.7298  0.3871 -0.4117
  462SOL    HW2 1386   0.978   1.259   1.718 -0.6589  1.7477 -6.0056
  463SOL     OW 1387   0.440   0.777   0.515  0.2924 -0.6970 -0.6096
  463SOL    HW1 1388   0.473   0.684   0.476 -0.6766 -2.0958 -0.5935
  463SOL    HW2 1389   0.338   0.777   0.531  2.4183  1.3400  2.6144
  464SOL     OW 1390   0.503   2.251   2.227 -0.1107  0.4649  0.0225
  464SOL    HW1 1391   0.432   2.285   2.294  1.2733 -0.0582 -0.3237
  464SOL    HW2 1392   0.515   2.309   2.142  1.8310  0.2442 -0.1503
  465SOL     OW 1393   0.303   0.908   0.887  0.4623  0.4425 -0.4421
  465SOL    HW1 1394   0.205   0.915   0.853 -0.1570  0.9075  1.3288
  465SOL    HW2 1395   0.333   0.827   0.939  0.0499  2.6329  1.0038
  466SOL     OW 1396   1.394   1.068   1.086  0.2015  0.5618  0.9649
  466SOL    HW1 1397   1.467   1.142   1.080 -0.0371  1.0166  3.0323
  466SOL    HW2 1398   1.299   1.109   1.074 -0.6490  2.2221 -1.8910
  467SOL     OW 1399   0.463   0.378   2.449  0.1601 -0.0831 -0.0476
  467SOL    HW1 1400   0.441   0.468   2.498 -1.7033  0.3030 -0.0927
  467SOL    HW2 1401   0.470   0.291   2.507  0.5297 -2.5984  1.0650
  468SOL     OW 1402   0.492   2.216   1.725  0.0089 -0.2709  0.3549
  468SOL    HW1 1403   0.536   2.288   1.783 -0.1679 -0.4427  0.5870
  468SOL    HW2 1404   0.449   2.259   1.641 -0.0900 -0.3106 -0.1667
  469SOL     OW 1405   1.578   1.266   1.103  0.0044  0.1817  0.0238
  469SOL    HW1 1406   1.669   1.217   1.127  0.7743 -2.1510 -1.1663
  469SOL    HW2 1407   1.576   1.370   1.112  1.7364 -0.8747  0.1549
  470SOL     OW 1408   3.030   1.633   0.736 -0.4484 -0.3417 -0.0345
  470SOL    HW1 1409   3.113   1.644   0.797 -0.5395 -0.5446  0.7452
  470SOL    HW2 1410   2.943   1.677   0.772 -2.2926  0.0303  3.8794
  471SOL     OW 1411   2.642   1.301   2.172 -0.5302 -0.0634  0.6461
  471SOL    HW1 1412   2.605   1.223   2.229 -2.6052  2.9935 -1.1896
  471SOL    HW2 1413   2.687   1.375   2.225 -1.5176 -0.5432 -1.5948
  472SOL     OW 1414   1.129   2.462   0.008  0.1711 -0.0615 -0.7184
  472SOL    HW1 1415   1.197   2.468   0.089  1.0782  1.9095 -0.7009
  472SOL    HW2 1416   1.067   2.381   0.011 -0.3201  0.0209  0.0055
  473SOL     OW 1417   1.041   1.565   0.879 -0.1188 -0.5187  0.5279
  473SOL    HW1 1418   0.956   1.592   0.933 -1.4694  2.3435 -0.5269
  473SOL    HW2 1419   1.129   1.553   0.938 -0.4624  1.5745  2.0352
  474SOL     OW 1420   0.801   1.232   0.782 -0.2493  0.7261  0.1194
  474SOL    HW1 1421   0.769   1.236   0.681  0.7251  0.3256  0.5017
  474SOL    HW2 1422   0.906   1.207   0.787  1.1894 -1.7532  0.1175
  475SOL     OW 1423   2.896   0.071   0.786  0.1592 -0.3190  0.4927
  475SOL    HW1 1424   2.970   0.048   0.848 -0.5730 -1.1632 -0.6120
  475SOL    HW2 1425   2.809   0.081   0.842 -1.7768 -1.1014  0.8950
  476SOL     OW 1426   0.905   3.050   1.876  0.7137  0.5289  1.0641
  476SOL    HW1 1427   0.991   3.015   1.923  1.4418  0.9368  1.7922
  476SOL    HW2 1428   0.918   3.045   1.773  1.4087 -2.0157  0.5732
  477SOL     OW 1429   1.466   0.395   2.431  0.4515  0.2521  0.1408
  477SOL    HW1 1430   1.430   0.371   2.523  2.3791  2.1127  0.9658
  477SOL    HW2 1431   1.561   0.354   2.420  0.9125  0.3815  0.5941
  478SOL     OW 1432   2.229   1.799   0.254 -1.1163  0.4504 -0.6236
  478SOL    HW1 1433   2.185   1.713   0.212 -2.5000 -1.5548 -0.3173
  478SOL    HW2 1434   2.334   1.791   0.266 -1.1985 -1.9577 -0.6622
  479SOL     OW 1435   1.188   1.127   2.856 -0.5124  0.2679 -0.1614
  479SOL    HW1 1436   1.269   1.099   2.801 -1.3719  2.3145  3.0528
  479SOL    HW2 1437   1.104   1.062   2.847  0.7735  0.1757 -0.1156
  480SOL     OW 1438   2.479   2.347   0.364  0.2839 -0.1860  0.5149
  480SOL    HW1 1439   2.447   2.258   0.409  1.0230  0.8448 -0.8233
  480SOL    HW2 1440   2.411   2.376   0.290 -0.1550 -1.8511 -1.5526
  481SOL     OW 1441   1.073   1.195   0.827 -0.3182 -0.3468  0.5623
  481SOL    HW1 1442   1.119   1.270   0.771  0.9590 -0.3385  2.1112
  481SOL    HW2 1443   1.086   1.197   0.933 -0.6834 -0.6383  1.5085
  482SOL     OW 1444   1.630   0.279   2.013  0.0242 -0.0770 -0.7224
  482SOL    HW1 1445   1.628   0.370   1.959  1.6458 -1.5426 -0.1959
  482SOL    HW2 1446   1.726   0.263   2.059  0.4278 -1.8146  1.2912
  483SOL     OW 1447   0.139   2.331   1.316  0.0836 -0.5301  0.2979
  483SOL    HW1 1448   0.035   2.330   1.326 -2.7562  1.7176 -0.3160
  483SOL    HW2 1449   0.160   2.339   1.214  1.1919 -1.8252  0.5174
  484SOL     OW 1450   1.719   0.946   1.395 -0.2398 -0.1446  0.0703
  484SOL    HW1 1451   1.811   0.929   1.438 -2.3317 -2.7639 -0.9596
  484SOL    HW2 1452   1.707   1.041   1.355 -0.9224 -0.6968  1.7043
  485SOL     OW 1453   0.691   1.120   1.777 -0.2479  0.2921  0.0267
  485SOL    HW1 1454   0.673   1.092   1.676  0.1713  2.9791 -2.5335
  485SOL    HW2 1455   0.793   1.136   1.796 -1.9808 -0.7706  0.1962
  486SOL     OW 1456   0.897   1.917   2.418  0.4173 -0.2566  0.2337
  486SOL    HW1 1457   0.929   1.863   2.503 -0.4159  0.5466  0.6411
  486SOL    HW2 1458   0.826   1.995   2.439 -0.9810  1.2916 -1.2109
  487SOL     OW 1459   1.737   1.497   0.875  0.1937  0.1614 -0.5132
  487SOL    HW1 1460   1.731   1.414   0.806 -0.6329 -1.8433 -0.2747
  487SOL    HW2 1461   1.785   1.584   0.834 -0.7482  2.6151  1.1251
  488SOL     OW 1462   2.974   0.952   2.270  0.3529 -0.3583 -0.6581
  488SOL    HW1 1463   2.993   0.865   2.217 -1.9312  2.7094 -0.6282
  488SOL    HW2 1464   3.015   0.940   2.365  3.3890 -0.8793  0.6862
  489SOL     OW 1465   2.783   0.192   1.312 -0.2227  0.2956  0.3241
  489SOL    HW1 1466   2.771   0.223   1.407  0.2040 -2.5413 -0.4564
  489SOL    HW2 1467   2.877   0.156   1.293  0.9527 -1.5072  2.2179
  490SOL     OW 1468   1.413   2.973   2.830 -0.2540  0.2246 -0.0486
  490SOL    HW1 1469   1.449   2.872   2.823  0.4830 -0.3105  1.2410
  490SOL    HW2 1470   1.376   3.003   2.732 -2.1284  2.7866 -1.1932
  491SOL     OW 1471   1.909   1.562   2.660 -0.1904  0.0805  0.2023
  491SOL    HW1 1472   1.925   1.563   2.759 -1.4424 -2.0574 -0.7326
  491SOL    HW2 1473   1.988   1.587   2.602  2.1438  0.3944  0.9140
  492SOL     OW 1474   0.476   1.908   0.713  0.4767 -0.4107  0.3102
  492SOL    HW1 1475   0.555   1.945   0.774 -0.0004 -0.4038 -1.0481
  492SOL    HW2 1476   0.423   1.984   0.669 -0.3960 -0.3451 -0.8028
  493SOL     OW 1477   0.466   1.407   2.161  0.3981 -0.2190  0.5531
  493SOL    HW1 1478   0.374   1.453   2.163  0.7135  0.3273  0.0899
  493SOL    HW2 1479   0.467   1.324   2.225 -2.3037 -1.8120 -1.5401
  494SOL     OW 1480   2.611   2.642   0.170 -0.3264 -0.8619 -0.1086
  494SOL    HW1 1481   2.658   2.562   0.211  1.3240 -0.8830 -2.8091
  494SOL    HW2 1482   2.558   2.618   0.082 -0.4635  0.6994  0.8015
  495SOL     OW 1483   2.749   2.683   2.681 -0.4680 -0.4086 -0.0503
  495SOL    HW1 1484   2.743   2.595   2.625  2.9258  1.1529  0.3816
  495SOL    HW2 1485   2.753   2.771   2.619 -0.5549  3.5952 -1.2371
  496SOL     OW 1486   2.028   2.200   0.707  0.2496  0.2709  0.3113
  496SOL    HW1 1487   2.059   2.235   0.798 -0.3125 -0.8174 -0.5939
  496SOL    HW2 1488   2.038   2.107   0.690 -1.0236  1.4348 -1.7050
  497SOL     OW 1489   0.242   2.967   2.407  0.4082 -0.4426  0.1660
  497SOL    HW1 1490   0.200   3.047   2.462 -0.1140 -1.7764  0.6994
  497SOL    HW2 1491   0.280   3.009   2.318  1.6113 -1.8459 -0.7270
  498SOL     OW 1492   1.222   1.500   1.057  0.8873 -0.0877 -0.1793
  498SOL    HW1 1493   1.310   1.531   1.094 -0.4722  0.8153  0.1068
  498SOL    HW2 1494   1.150   1.533   1.128 -0.3902 -0.3142  2.1441
  499SOL     OW 1495   0.864   1.838   0.476  0.4582  0.3035 -0.2729
  499SOL    HW1 1496   0.804   1.778   0.533 -2.9716 -0.0426  0.6006
  499SOL    HW2 1497   0.918   1.903   0.536  2.7213 -0.0422 -0.6913
  500SOL     OW 1498   1.458   2.958   1.654 -0.2671 -0.2801 -0.0131
  500SOL    HW1 1499   1.426   2.995   1.745 -0.9211  0.3457  1.9067
  500SOL    HW2 1500   1.470   2.856   1.653  2.8344  2.0316 -1.4666
  501SOL     OW 1501   0.780   1.116   2.263  0.5275  0.1613  0.3626
  501SOL    HW1 1502   0.694   1.061   2.251 -0.2610 -0.7765  1.6978
  501SOL    HW2 1503   0.841   1.107   2.184 -1.1448 -0.5163  1.8031
  502SOL     OW 1504   2.618   0.978   1.732 -0.1476  0.0164  0.2158
  502SOL    HW1 1505   2.576   0.987   1.635 -2.3851 -1.8563  0.0114
  502SOL    HW2 1506   2.583   0.893   1.787  0.5159 -2.0448  1.1844
  503SOL     OW 1507   1.308   0.156   0.643  0.0500  0.2508 -0.1352
  503SOL    HW1 1508   1.241   0.226   0.604 -1.8559 -0.7121  0.8604
  503SOL    HW2 1509   1.402   0.194   0.654 -0.3506  0.2112  0.1164
  504SOL     OW 1510   2.968   2.328   1.435  0.1063 -0.0426  0.6790
  504SOL    HW1 1511   2.938   2.421   1.469 -0.5648 -0.3788 -1.3849
  504SOL    HW2 1512   2.896   2.250   1.453 -2.6368 -3.6884 -1.4168
  505SOL     OW 1513   2.312   1.269   1.445  0.0325  0.3584  0.6523
  505SOL    HW1 1514   2.306   1.372   1.428 -1.8877  1.7048  1.5406
  505SOL    HW2 1515   2.397   1.238   1.489  0.2975 -0.5253  1.2308
  506SOL     OW 1516   1.876   0.251   1.779 -0.4671  0.4576  0.3598
  506SOL    HW1 1517   1.942   0.237   1.702 -1.2836 -1.2184  1.6488
  506SOL    HW2 1518   1.914   0.318   1.848  0.4610  1.2364  2.7439
  507SOL     OW 1519   0.475   0.750   2.177 -0.0705  0.3059 -0.3088
  507SOL    HW1 1520   0.412   0.732   2.097 -0.5202 -1.0262  0.0351
  507SOL    HW2 1521   0.543   0.669   2.187 -1.3765 -0.9854  2.9754
  508SOL     OW 1522   0.187   1.636   0.831  0.1805 -0.3751  0.6276
  508SOL    HW1 1523   0.211   1.736   0.810  2.6839 -1.8475  1.2265
  508SOL    HW2 1524   0.181   1.623   0.931 -1.0180  1.5587  0.6174
  509SOL     OW 1525   1.340   1.190   2.584 -0.1944  0.3370  0.0229
  509SOL    HW1 1526   1.272   1.248   2.543  0.0537 -1.4984  1.4490
  509SOL    HW2 1527   1.300   1.093   2.593 -0.1520  0.2950 -0.7016
  510SOL     OW 1528   1.318   1.993   2.042  0.0829  0.4998  0.1381
  510SOL    HW1 1529   1.253   2.075   2.023 -0.8570 -1.4716  1.2924
  510SOL    HW2 1530   1.293   1.935   2.123  0.7951 -3.2824  0.0989
  511SOL     OW 1531   3.047   2.626   1.285  0.1100  0.2354  0.8878
  511SOL    HW1 1532   2.984   2.591   1.207 -1.0832 -0.9333 -1.0396
  511SOL    HW2 1533   3.006   2.620   1.379 -1.2800  1.1814  0.2319
  512SOL     OW 1534   2.422   0.390   1.426 -0.0939 -0.1422  0.5986
  512SOL    HW1 1535   2.321   0.375   1.427 -0.6854 -1.0608  2.9010
  512SOL    HW2 1536   2.473   0.354   1.341  2.0955 -2.1480  2.1331
  513SOL     OW 1537   2.497   1.973   0.813 -0.1684  0.2216  0.3151
  513SOL    HW1 1538   2.450   2.066   0.815 -0.7416 -0.2544  0.5720
  513SOL    HW2 1539   2.580   1.967   0.749 -1.1637 -0.0595 -0.8515
  514SOL     OW 1540   0.682   2.792   0.420  0.2987  0.2471 -0.0147
  514SOL    HW1 1541   0.652   2.860   0.348 -1.2258  0.0149 -1.6094
  514SOL    HW2 1542   0.707   2.838   0.512  1.2829  1.8434  2.1114
  515SOL     OW 1543   1.945   1.228   2.360 -0.4693 -0.3685 -0.2821
  515SOL    HW1 1544   1.880   1.258   2.284  2.4503  0.2932 -2.5474
  515SOL    HW2 1545   1.886   1.195   2.441  1.4869 -0.3518 -2.8642
  516SOL     OW 1546   0.281   0.392   1.973  0.5085  0.2870  0.1421
  516SOL    HW1 1547   0.382   0.370   1.951 -1.2951 -0.2189  2.4696
  516SOL    HW2 1548   0.213   0.347   1.911  0.9428  2.3000 -1.1519
  517SOL     OW 1549   0.381   3.024   1.205  0.4389  0.0306 -0.3124
  517SOL    HW1 1550   0.398   3.130   1.214  0.5083  2.4626 -1.2073
  517SOL    HW2 1551   0.306   2.988   1.267  0.8465 -2.4121 -0.6838
  518SOL     OW 1552   2.126   0.186   1.621  0.1664  0.1066  0.1481
  518SOL    HW1 1553   2.155   0.205   1.716 -2.9332  0.2156  0.2900
  518SOL    HW2 1554   2.171   0.102   1.576 -0.1660 -0.8356 -0.3074
  519SOL     OW 1555   2.338   2.166   2.544 -0.3180 -0.0510  0.3582
  519SOL    HW1 1556   2.269   2.162   2.627  0.9974  0.0917  1.7861
  519SOL    HW2 1557   2.419   2.230   2.552 -0.8931  0.3676  1.5124
  520SOL     OW 1558   1.765   2.870   1.830 -0.1566  0.4152  0.0345
  520SOL    HW1 1559   1.691   2.831   1.892  0.1184 -0.6056 -0.5105
  520SOL    HW2 1560   1.856   2.819   1.823  0.0142 -1.0066  0.2075
  521SOL     OW 1561   0.571   0.125   2.151  0.5630 -0.3504 -0.4703
  521SOL    HW1 1562   0.474   0.089   2.162 -0.3216  3.6650 -0.5411
  521SOL    HW2 1563   0.630   0.113   2.235  0.0195 -1.9107  0.0271
  522SOL     OW 1564   0.226   1.926   1.534 -0.3739 -0.3286 -0.1725
  522SOL    HW1 1565   0.263   1.983   1.614  0.1172  0.7960  0.9553
  522SOL    HW2 1566   0.221   1.981   1.446 -0.6559 -1.6502 -0.0928
  523SOL     OW 1567   2.243   3.029   1.588  0.3724  0.2242  0.3286
  523SOL    HW1 1568   2.261   2.942   1.533  2.0006 -0.0210 -1.5342
  523SOL    HW2 1569   2.223   3.004   1.686 -1.2791  0.0147 -0.9969
  524SOL     OW 1570   0.247   2.797   2.798  0.4195  0.1962 -0.3889
  524SOL    HW1 1571   0.192   2.882   2.822 -3.1068  1.3484  1.7182
  524SOL    HW2 1572   0.347   2.817   2.783  3.9170 -1.8581  0.6540
  525SOL     OW 1573   2.131   1.985   0.458 -0.2240  0.0617  0.3979
  525SOL    HW1 1574   2.122   1.915   0.528  1.8837 -0.7012 -1.2408
  525SOL    HW2 1575   2.151   1.938   0.365 -0.1477 -0.7517  0.5403
  526SOL     OW 1576   0.436   1.540   1.550 -0.4637  0.5753 -0.3209
  526SOL    HW1 1577   0.375   1.495   1.624 -1.9380  1.0760  1.2661
  526SOL    HW2 1578   0.522   1.481   1.538 -0.1731 -0.4298 -3.4151
  527SOL     OW 1579   1.124   2.880   1.194  0.6881  0.4172  0.0618
  527SOL    HW1 1580   1.192   2.852   1.270  0.0030 -1.3889  2.6252
  527SOL    HW2 1581   1.127   2.982   1.181 -0.4176 -1.1524  0.7048
  528SOL     OW 1582   1.340   2.384   0.468  0.1079 -0.1571  0.3312
  528SOL    HW1 1583   1.375   2.286   0.478  0.7693 -1.5913 -2.1998
  528SOL    HW2 1584   1.384   2.452   0.540  1.2816  0.7658  2.1960
  529SOL     OW 1585   1.862   1.715   0.750  0.6710  0.2996 -0.6350
  529SOL    HW1 1586   1.813   1.743   0.663 -0.6847  0.7180 -2.1010
  529SOL    HW2 1587   1.880   1.797   0.810 -1.4260 -0.1845 -1.8046
  530SOL     OW 1588   0.365   2.433   0.243 -0.2665  0.1374 -0.5018
  530SOL    HW1 1589   0.408   2.509   0.298  0.5298  1.4462 -0.4525
  530SOL    HW2 1590   0.390   2.336   0.286  4.7651 -4.3142 -1.0857
  531SOL     OW 1591   1.877   0.817   0.953  0.4125 -0.3516 -0.6575
  531SOL    HW1 1592   1.918   0.863   0.868 -1.6288 -2.7262  1.7054
  531SOL    HW2 1593   1.779   0.840   0.978  2.0573 -0.7087  0.8072
  532SOL     OW 1594   0.447   1.099   0.765 -0.4073 -0.3201 -0.3723
  532SOL    HW1 1595   0.455   1.074   0.665  1.6096 -2.0634  1.7367
  532SOL    HW2 1596   0.406   1.020   0.816  1.9873  0.3185 -2.7706
  533SOL     OW 1597   1.722   3.088   2.559 -0.2467  0.0307  0.1640
  533SOL    HW1 1598   1.824   3.070   2.568 -1.2002  0.5510  0.9850
  533SOL    HW2 1599   1.687   3.169   2.621 -0.6383  1.1810 -0.3189
  534SOL     OW 1600   0.388   0.195   1.556 -0.1516 -0.2055 -0.2775
  534SOL    HW1 1601   0.492   0.186   1.560 -1.3220  0.4258 -0.1752
  534SOL    HW2 1602   0.351   0.292   1.542  1.0255 -1.4077  0.2994
  535SOL     OW 1603   1.951   0.330   0.168  0.4338  0.0504 -0.0400
  535SOL    HW1 1604   1.954   0.411   0.236  1.1417 -1.9947  1.5057
  535SOL    HW2 1605   1.945   0.247   0.228 -1.1630 -0.5406  1.9697
  536SOL     OW 1606   1.367   2.590   0.904  0.1856 -0.1268  0.2901
  536SOL    HW1 1607   1.329   2.572   1.003  0.9060  0.7830  2.3245
  536SOL    HW2 1608   1.291   2.633   0.843 -1.8815 -2.3399 -2.9009
  537SOL     OW 1609   0.862   0.268   2.361  0.5350  0.2897 -0.6979
  537SOL    HW1 1610   0.887   0.319   2.271 -1.9466 -0.5301  2.3365
  537SOL    HW2 1611   0.819   0.173   2.346  0.2480  0.5273  2.1251
  538SOL     OW 1612   1.661   2.403   1.410 -0.1048  0.0710  0.0984
  538SOL    HW1 1613   1.646   2.301   1.407 -0.2740  1.3545  1.3932
  538SOL    HW2 1614   1.762   2.429   1.414 -1.1035  0.0462 -0.0117
  539SOL     OW 1615   0.205   1.612   2.659 -0.1243 -0.2736  0.2804
  539SOL    HW1 1616   0.107   1.573   2.655  0.0191 -1.2478 -0.4265
  539SOL    HW2 1617   0.208   1.696   2.717  0.6387  0.1569 -0.1823
  540SOL     OW 1618   2.668   1.736   1.930 -0.3365  0.0106 -0.0709
  540SOL    HW1 1619   2.611   1.657   1.964 -1.7170  2.6219 -1.0462
  540SOL    HW2 1620   2.605   1.810   1.897 -1.5739 -0.3618  0.0209
  541SOL     OW 1621   0.513   2.143   0.017 -0.5650  0.4834 -0.6161
  541SOL    HW1 1622   0.516   2.110   0.114 -1.7379 -0.3773 -1.8249
  541SOL    HW2 1623   0.420   2.129  -0.029  0.5905 -0.5102  0.0207
  542SOL     OW 1624   2.272   2.634   0.543 -0.0308 -0.3910 -0.4086
  542SOL    HW1 1625   2.242   2.730   0.570 -1.6826 -1.3247 -0.0927
  542SOL    HW2 1626   2.197   2.563   0.549  3.8567 -2.1458 -0.0009
  543SOL     OW 1627   1.080   1.788   1.584  0.1785  0.2539  0.1572
  543SOL    HW1 1628   1.072   1.831   1.677  0.3940 -1.9142 -2.0221
  543SOL    HW2 1629   1.036   1.848   1.514 -0.5081  0.1887 -1.1486
  544SOL     OW 1630   1.155   0.537   0.139 -0.3105  0.6906 -0.6517
  544SOL    HW1 1631   1.119   0.447   0.176 -2.7354 -0.1918 -0.7914
  544SOL    HW2 1632   1.186   0.536   0.039 -0.7882  0.5179  0.3425
  545SOL     OW 1633   1.137   1.821   0.810  0.2744 -0.3432  0.3016
  545SOL    HW1 1634   1.229   1.819   0.759 -2.1319  0.8555 -1.0045
  545SOL    HW2 1635   1.095   1.726   0.827  0.1203 -2.7458 -1.8230
  546SOL     OW 1636   2.671   1.597   2.985 -0.0469  0.0264 -0.0576
  546SOL    HW1 1637   2.628   1.696   2.995  0.4538  1.0210  0.8194
  546SOL    HW2 1638   2.603   1.518   2.989  0.2512 -0.1167 -0.0240
  547SOL     OW 1639   0.663   3.044   2.573 -0.5362 -0.3119 -0.3872
  547SOL    HW1 1640   0.719   3.042   2.657 -1.5901  1.5535  1.6903
  547SOL    HW2 1641   0.591   2.970   2.566  0.2016  3.9058  0.3026
  548SOL     OW 1642   2.039   0.765   3.021 -0.1146  0.1983  0.1822
  548SOL    HW1 1643   1.935   0.749   3.029 -0.4297  0.3925 -0.7223
  548SOL    HW2 1644   2.066   0.854   3.069 -3.3618  0.7679 -1.3396
  549SOL     OW 1645   0.692   0.571   0.185 -0.3045 -0.3152 -0.1591
  549SOL    HW1 1646   0.643   0.600   0.101  0.0904  1.0968 -0.9562
  549SOL    HW2 1647   0.787   0.617   0.202 -0.2072  0.5044  0.7702
  550SOL     OW 1648   2.580   2.756   2.884 -0.1529  0.4002  0.1105
  550SOL    HW1 1649   2.531   2.680   2.941  2.0139 -0.6729 -1.0119
  550SOL    HW2 1650   2.638   2.717   2.805  1.7787  0.5652  1.2177
  551SOL     OW 1651   0.255   0.877   0.198 -0.2456 -0.1657 -0.5350
  551SOL    HW1 1652   0.331   0.813   0.159  0.1770 -1.6943  1.5306
  551SOL    HW2 1653   0.264   0.885   0.301  0.2154  1.2854  1.3382
  552SOL     OW 1654   0.630   3.045   1.954 -0.3792 -0.0241 -0.1932
  552SOL    HW1 1655   0.615   3.123   2.021 -1.0436  1.1959  0.8145
  552SOL    HW2 1656   0.732   3.022   1.939 -1.1184  1.2822  1.6545
  553SOL     OW 1657   3.003   2.422   0.361 -0.2493  0.4984  0.0440
  553SOL    HW1 1658   3.024   2.318   0.367  0.4248 -2.8466  1.0152
  553SOL    HW2 1659   2.903   2.437   0.386  1.8431 -0.7984  3.3901
  554SOL     OW 1660   2.199   0.364   0.540  0.6051 -0.4720  0.2056
  554SOL    HW1 1661   2.251   0.368   0.452 -0.2269  4.2930 -0.1437
  554SOL    HW2 1662   2.210   0.276   0.595  1.3613 -0.4181 -2.3905
  555SOL     OW 1663   0.472   2.847   2.477  0.2194 -0.4390 -0.3987
  555SOL    HW1 1664   0.379   2.885   2.471 -1.2425  2.1873  1.6670
  555SOL    HW2 1665   0.499   2.778   2.403 -0.3628 -0.3586 -0.8466
  556SOL     OW 1666   0.823   2.424   1.609  0.1995 -0.8408 -0.5507
  556SOL    HW1 1667   0.874   2.497   1.667  0.5972  2.9676  2.4076
  556SOL    HW2 1668   0.868   2.403   1.519  1.2371 -0.6603  0.7535
  557SOL     OW 1669   0.236   2.085   0.255 -0.5855  0.0354  0.1356
  557SOL    HW1 1670   0.143   2.037   0.240 -3.2794  1.5129  3.1996
  557SOL    HW2 1671   0.311   2.067   0.191 -0.6555  3.3182  0.2001
  558SOL     OW 1672   2.838   2.178   0.395  0.3060  0.6438  0.2990
  558SOL    HW1 1673   2.799   2.270   0.394 -3.2804 -2.5555 -0.8060
  558SOL    HW2 1674   2.805   2.113   0.326 -1.9885  1.2072 -2.0188
  559SOL     OW 1675   0.405   2.303   1.458 -0.0572 -0.3339 -0.0772
  559SOL    HW1 1676   0.314   2.309   1.413  1.5373  0.2191  1.1481
  559SOL    HW2 1677   0.472   2.250   1.393  1.8348 -5.0442  0.4309
  560SOL     OW 1678   2.138   1.014   0.023 -0.1602  0.2501 -0.0125
  560SOL    HW1 1679   2.209   1.047   0.093 -2.0060 -1.3769 -2.4226
  560SOL    HW2 1680   2.172   1.013  -0.074 -0.7135  2.9072  1.9564
  561SOL     OW 1681   3.099   1.974   0.186 -0.0187 -0.1683 -0.1638
  561SOL    HW1 1682   3.043   1.910   0.247 -1.2954 -0.0435 -0.9688
  561SOL    HW2 1683   3.075   1.976   0.084  0.1671 -2.8506  0.0061
  562SOL     OW 1684   1.025   2.081   2.248 -0.6090  0.0006  0.1111
  562SOL    HW1 1685   0.987   2.169   2.294  1.3795  3.6651  1.3939
  562SOL    HW2 1686   0.984   1.993   2.281  1.5317  1.6603  2.4283
  563SOL     OW 1687   0.672   2.531   2.650 -0.2005 -0.4354 -0.3166
  563SOL    HW1 1688   0.760   2.492   2.613 -0.2049  2.6351 -0.3331
  563SOL    HW2 1689   0.679   2.564   2.746  1.5866  1.0040 -0.3716
  564SOL     OW 1690   2.852   1.434   2.843 -0.1760  0.0845 -0.2418
  564SOL    HW1 1691   2.786   1.510   2.855  1.1591 -0.2837  0.5345
  564SOL    HW2 1692   2.947   1.461   2.804  2.0932 -0.2811 -3.1149
  565SOL     OW 1693   2.490   1.955   2.655 -0.0753 -0.2154  0.3150
  565SOL    HW1 1694   2.445   2.044   2.632  1.1070  1.2518 -0.3091
  565SOL    HW2 1695   2.574   1.969   2.709 -0.2340 -1.1790  0.5730
  566SOL     OW 1696   1.914   2.897   1.450  0.1518 -0.0084  0.5004
  566SOL    HW1 1697   1.928   2.805   1.498 -1.9959  2.1235  3.2290
  566SOL    HW2 1698   1.954   2.909   1.353 -2.4518 -2.6540 -0.9504
  567SOL     OW 1699   2.348   0.033   2.303  0.0955 -0.0313  0.1433
  567SOL    HW1 1700   2.262   0.027   2.361 -1.1609 -0.2176 -0.0610
  567SOL    HW2 1701   2.317   0.041   2.202  2.1544 -0.5200 -0.9813
  568SOL     OW 1702   1.489   1.757   0.224 -0.5968  0.4506 -0.3304
  568SOL    HW1 1703   1.433   1.841   0.200 -1.2409  2.1567 -1.2715
  568SOL    HW2 1704   1.587   1.766   0.201  0.9072  0.5942  0.3218
  569SOL     OW 1705   0.258   0.559   0.861  0.2295 -0.8034 -0.8644
  569SOL    HW1 1706   0.279   0.485   0.794  2.3076 -0.1279 -1.6321
  569SOL    HW2 1707   0.155   0.573   0.881  0.1674 -0.3425  0.7458
  570SOL     OW 1708   0.666   0.865   2.899  0.0737 -0.0424  0.3306
  570SOL    HW1 1709   0.684   0.892   2.799 -0.5224  1.7238 -1.8624
  570SOL    HW2 1710   0.687   0.940   2.970 -2.1723 -0.0609 -0.5800
  571SOL     OW 1711   0.802   3.063   1.071  0.0454 -0.4757  0.0740
  571SOL    HW1 1712   0.854   3.105   0.992 -0.9509  0.3717 -0.8773
  571SOL    HW2 1713   0.826   2.965   1.093  1.4559 -0.2965  0.9802
  572SOL     OW 1714   1.665   2.730   1.437  0.7361 -0.2012  0.0990
  572SOL    HW1 1715   1.664   2.720   1.337 -0.3817  1.9405  1.3240
  572SOL    HW2 1716   1.668   2.834   1.460 -1.3314  2.0824  0.3042
  573SOL     OW 1717   3.020   0.460   1.926  0.0157 -0.7319 -0.1405
  573SOL    HW1 1718   2.948   0.389   1.933  0.2890  3.3157  0.4015
  573SOL    HW2 1719   3.094   0.442   1.860 -0.6893 -1.3765 -0.6556
  574SOL     OW 1720   0.111   1.660   1.106  0.1361 -0.2042  0.2046
  574SOL    HW1 1721   0.164   1.655   1.195 -0.1371  1.1783  1.0277
  574SOL    HW2 1722   0.079   1.757   1.087 -2.2222 -0.6911  0.0554
  575SOL     OW 1723   0.829   2.259   0.995 -0.3584  0.6553  0.0008
  575SOL    HW1 1724   0.798   2.312   1.083 -3.2485  4.0311 -0.1497
  575SOL    HW2 1725   0.880   2.320   0.933  0.5195 -1.4050 -1.1642
  576SOL     OW 1726   2.932   2.991   1.698  0.0609  0.1567 -0.4105
  576SOL    HW1 1727   2.832   2.994   1.665  1.1404  1.1093  0.3917
  576SOL    HW2 1728   2.982   3.070   1.668  0.0906  1.4307  1.7516
  577SOL     OW 1729   2.675   1.223   3.058  0.4827  0.1033  0.5693
  577SOL    HW1 1730   2.640   1.132   3.019 -5.7093  0.3552  0.6445
  577SOL    HW2 1731   2.727   1.218   3.151 -2.0960  0.7980  1.0779
  578SOL     OW 1732   1.390   2.713   2.541 -0.4171  0.5502 -0.2688
  578SOL    HW1 1733   1.304   2.761   2.513 -1.0948 -0.7990 -0.6678
  578SOL    HW2 1734   1.478   2.759   2.501  0.3339  0.2437  0.1663
  579SOL     OW 1735   0.088   2.406   0.171 -0.2630  0.3106 -0.2654
  579SOL    HW1 1736   0.010   2.415   0.237  1.6249  2.0072 -2.8830
  579SOL    HW2 1737   0.177   2.441   0.207  1.0508  0.2503 -0.4011
  580SOL     OW 1738   0.949   2.683   0.395  0.0335  0.4115 -0.3070
  580SOL    HW1 1739   0.979   2.681   0.294  2.3290  1.2373 -1.0037
  580SOL    HW2 1740   0.845   2.666   0.404  0.0273 -0.2253 -3.3865
  581SOL     OW 1741   1.289   2.762   1.465  0.3785 -0.2019 -0.6663
  581SOL    HW1 1742   1.333   2.669   1.472  3.5644  1.1485  0.0352
  581SOL    HW2 1743   1.338   2.830   1.399  0.6346  2.9795 -3.2375
  582SOL     OW 1744   1.505   0.071   1.856 -0.1217  0.3694  0.0516
  582SOL    HW1 1745   1.544   0.125   1.932 -1.1373  2.0209  0.2190
  582SOL    HW2 1746   1.545   0.101   1.763 -0.8049  1.9555 -2.0468
  583SOL     OW 1747   2.428   2.980   0.489  0.1036  0.2694  0.1223
  583SOL    HW1 1748   2.498   2.907   0.462 -0.9778 -0.0197 -1.6221
  583SOL    HW2 1749   2.361   2.953   0.563 -1.3423  2.2916 -2.7014
  584SOL     OW 1750   1.551   1.084   2.252 -0.3168 -0.0074  0.0215
  584SOL    HW1 1751   1.561   1.184   2.244  0.2412 -1.8791  2.0155
  584SOL    HW2 1752   1.632   1.048   2.299  0.1959  0.7792 -0.6773
  585SOL     OW 1753   2.033   2.665   2.906 -0.2177  0.1634  0.6043
  585SOL    HW1 1754   2.043   2.567   2.875  0.2969 -0.3995 -2.5429
  585SOL    HW2 1755   1.937   2.691   2.917  1.8263  2.6888  0.6756
  586SOL     OW 1756   2.915   0.387   1.572  0.4462  0.3060 -0.5112
  586SOL    HW1 1757   2.906   0.474   1.637 -0.0131  0.4428 -0.1415
  586SOL    HW2 1758   2.839   0.319   1.582 -1.1229 -1.9319 -0.7272
  587SOL     OW 1759   2.176   1.484   2.784  0.2479 -0.0157 -0.0534
  587SOL    HW1 1760   2.170   1.430   2.700  2.4507 -0.9935  0.3910
  587SOL    HW2 1761   2.272   1.517   2.802 -0.3553  2.2540  1.6053
  588SOL     OW 1762   0.465   2.643   2.279 -0.5363  0.1266  0.3693
  588SOL    HW1 1763   0.441   2.691   2.185  1.0008  0.9676  1.6133
  588SOL    HW2 1764   0.423   2.553   2.293 -0.1033  0.4105  0.7056
  589SOL     OW 1765   2.169   1.392   2.515 -0.0874  0.3923  0.0496
  589SOL    HW1 1766   2.099   1.340   2.460 -1.0140  0.6934 -4.0902
  589SOL    HW2 1767   2.261   1.342   2.515 -0.7537 -0.2864  0.2747
  590SOL     OW 1768   2.331   1.690   2.073  0.7036 -0.5388 -0.2050
  590SOL    HW1 1769   2.401   1.617   2.044  0.2379 -1.1857 -1.1479
  590SOL    HW2 1770   2.341   1.721   2.170  0.6766  2.4059 -1.2544
  591SOL     OW 1771   1.327   2.442   0.199 -0.6502 -0.1493  0.7729
  591SOL    HW1 1772   1.370   2.354   0.161  0.9352 -2.4052 -1.0683
  591SOL    HW2 1773   1.336   2.453   0.301 -1.1653 -1.6022 -2.0360
  592SOL     OW 1774   1.790   2.365   0.818 -0.2477  0.2214  0.4787
  592SOL    HW1 1775   1.808   2.390   0.723  1.1616 -1.7211  1.9454
  592SOL    HW2 1776   1.878   2.365   0.870 -0.6781  1.5385 -1.3127
  593SOL     OW 1777   0.751   0.307   0.180  0.2383  0.0952 -0.2908
  593SOL    HW1 1778   0.785   0.279   0.088 -0.1053  2.9002 -0.3369
  593SOL    HW2 1779   0.714   0.406   0.182 -1.8029  1.0817  1.3050
  594SOL     OW 1780   1.058   1.801   2.663 -0.4546  0.4086 -0.0280
  594SOL    HW1 1781   1.158   1.787   2.644 -4.2629  3.7653 -0.0384
  594SOL    HW2 1782   1.040   1.828   2.762 -0.2887 -0.8044 -1.3211
  595SOL     OW 1783   1.547   0.153   1.001  0.5784  0.1058  0.4146
  595SOL    HW1 1784   1.606   0.073   0.977 -1.4377  0.8963 -0.2028
  595SOL    HW2 1785   1.448   0.124   0.983  2.5050 -1.2438 -2.2860
  596SOL     OW 1786   0.180   1.436   2.179  0.5106  0.1934 -0.1950
  596SOL    HW1 1787   0.106   1.362   2.200 -2.1041 -1.5026 -0.3026
  596SOL    HW2 1788   0.212   1.479   2.266 -1.4374  3.0708 -0.1798
  597SOL     OW 1789   1.994   2.686   1.830  0.4554 -0.0887  0.3636
  597SOL    HW1 1790   1.941   2.654   1.745 -0.7171  0.4231 -0.2155
  597SOL    HW2 1791   2.093   2.654   1.830 -3.5790 -1.9805  0.8108
  598SOL     OW 1792   2.486   2.792   1.273  0.1681 -0.5855 -0.3932
  598SOL    HW1 1793   2.587   2.813   1.281  0.6762 -2.8611 -1.0361
  598SOL    HW2 1794   2.465   2.693   1.252 -2.6385 -0.3593 -0.0872
  599SOL     OW 1795   2.898   0.268   2.519 -0.2968 -0.0343  0.3121
  599SOL    HW1 1796   2.991   0.301   2.484  0.3114  3.8806 -1.6295
  599SOL    HW2 1797   2.825   0.344   2.506 -1.4089  2.8331  0.3350
  600SOL     OW 1798   2.762   1.184   2.755 -0.6816  0.5344 -0.0395
  600SOL    HW1 1799   2.732   1.109   2.816  0.8522  0.8573  0.2162
  600SOL    HW2 1800   2.766   1.281   2.798  0.1618  1.3409  1.1465
  601SOL     OW 1801   3.006   1.373   1.907 -0.3427 -0.0066 -0.5045
  601SOL    HW1 1802   2.915   1.416   1.881  2.9783  0.5574 -1.8932
  601SOL    HW2 1803   3.084   1.441   1.888  3.0495 -1.1289  0.1127
  602SOL     OW 1804   1.513   1.552   2.331 -0.6008 -0.0850 -0.1624
  602SOL    HW1 1805   1.429   1.538   2.388 -0.8512  0.0127  1.6097
  602SOL    HW2 1806   1.600   1.560   2.390  1.6128  1.7138 -2.6784
  603SOL     OW 1807   0.574   1.177   2.727 -0.4145 -0.0173  0.4391
  603SOL    HW1 1808   0.489   1.204   2.676  1.0821  2.6621 -1.5118
  603SOL    HW2 1809   0.605   1.078   2.712 -1.0226 -2.3511  2.0084
  604SOL     OW 1810   2.534   1.057   0.241 -0.1532 -0.1310  0.8290
  604SOL    HW1 1811   2.622   1.107   0.214 -0.2449  1.3110 -1.9230
  604SOL    HW2 1812   2.490   1.005   0.162  0.6379 -0.0116 -0.7833
  605SOL     OW 1813   2.600   1.198   1.901  0.0218  0.1194  0.1880
  605SOL    HW1 1814   2.609   1.103   1.862 -0.0133  0.6416 -0.5323
  605SOL    HW2 1815   2.640   1.214   1.993 -0.7939  0.9842 -0.9407
  606SOL     OW 1816   1.516   2.455   2.582  0.0689 -0.5765  0.5559
  606SOL    HW1 1817   1.456   2.541   2.570 -1.2082  1.3568  0.1409
  606SOL    HW2 1818   1.476   2.374   2.535 -1.0938  3.1169 -0.2820
  607SOL     OW 1819   1.293   1.583   0.297 -0.0652  0.4571  0.2855
  607SOL    HW1 1820   1.224   1.646   0.337 -1.3057 -2.4499 -0.2354
  607SOL    HW2 1821   1.383   1.623   0.271  1.0602 -1.0512 -0.2562
  608SOL     OW 1822   1.441   2.795   0.324  0.6765  0.3587 -0.3230
  608SOL    HW1 1823   1.503   2.829   0.250 -0.1996  2.1013  0.6703
  608SOL    HW2 1824   1.394   2.877   0.369 -0.9920  0.3432 -1.0093
  609SOL     OW 1825   1.293   1.293   0.185  0.0875 -0.6306 -0.2746
  609SOL    HW1 1826   1.301   1.381   0.244 -0.1675  1.1350 -0.0301
  609SOL    HW2 1827   1.232   1.300   0.102  0.2480 -1.4414  2.5881
  610SOL     OW 1828   3.071   1.247   2.164  0.5392  0.0668 -0.0231
  610SOL    HW1 1829   3.002   1.169   2.156 -0.3786  0.7596 -2.4204
  610SOL    HW2 1830   3.057   1.323   2.088 -0.1385 -1.0439 -2.9500
  611SOL     OW 1831   2.545   0.189   1.173 -0.1449  0.5285 -0.0937
  611SOL    HW1 1832   2.491   0.108   1.203  0.3390  1.2436 -0.5428
  611SOL    HW2 1833   2.642   0.181   1.203 -1.4630 -0.7784 -1.5823
  612SOL     OW 1834   0.757   2.367   1.229 -0.3488  0.1743 -0.4125
  612SOL    HW1 1835   0.679   2.303   1.256  0.4754 -0.5068  0.5977
  612SOL    HW2 1836   0.719   2.463   1.210  2.9765  1.4602  0.0366
  613SOL     OW 1837   0.773   1.375   2.381 -0.2789 -0.1200 -0.1021
  613SOL    HW1 1838   0.820   1.448   2.321  2.1372 -0.7343 -0.7835
  613SOL    HW2 1839   0.771   1.281   2.333  2.0342 -0.7767 -0.5568
  614SOL     OW 1840   1.501   1.658   1.951  0.2671  0.5141  0.0683
  614SOL    HW1 1841   1.478   1.729   1.878 -0.8283  1.2492 -2.9918
  614SOL    HW2 1842   1.588   1.696   2.004  2.8871 -1.6277 -0.5451
  615SOL     OW 1843   0.694   1.468   1.718  0.0676  0.0042  0.5136
  615SOL    HW1 1844   0.667   1.372   1.681 -1.3915 -1.4821  1.4328
  615SOL    HW2 1845   0.752   1.521   1.655  1.5409  0.1295 -0.8651
  616SOL     OW 1846   1.125   1.604   2.196 -0.1345  0.2084  0.1126
  616SOL    HW1 1847   1.024   1.578   2.185  1.6870 -0.3853 -0.4029
  616SOL    HW2 1848   1.168   1.612   2.101 -1.8481  0.6587 -1.5449
  617SOL     OW 1849   2.914   1.568   1.610 -0.7201  0.0855 -0.3831
  617SOL    HW1 1850   2.872   1.519   1.688  1.8205  0.6029 -0.6452
  617SOL    HW2 1851   2.965   1.499   1.549 -2.0138 -0.3864  0.0080
  618SOL     OW 1852   1.889   2.005   1.475 -0.5673  0.0841  0.2905
  618SOL    HW1 1853   1.974   1.992   1.414  0.0940  1.5098  1.9412
  618SOL    HW2 1854   1.888   1.935   1.547 -0.6560  0.4689  0.4132
  619SOL     OW 1855   1.790   0.513   2.389  0.0582 -0.3523  0.4153
  619SOL    HW1 1856   1.718   0.565   2.335 -0.2377  0.7747 -0.1040
  619SOL    HW2 1857   1.759   0.417   2.401  1.4148 -1.0982  0.8560
  620SOL     OW 1858   2.238   2.913   0.670  0.4547 -0.2437 -0.6310
  620SOL    HW1 1859   2.155   2.971   0.644 -1.4327  0.6619 -0.8681
  620SOL    HW2 1860   2.262   2.912   0.769 -0.9627  0.6142  0.1862
  621SOL     OW 1861   2.135   1.855   1.352 -0.0518 -0.2151  0.1154
  621SOL    HW1 1862   2.144   1.842   1.455  0.2642 -1.4033 -3.7437
  621SOL    HW2 1863   2.157   1.765   1.300  0.6109  1.2459  1.1804
  622SOL     OW 1864   2.257   0.967   1.836  0.6273 -0.1776 -0.8150
  622SOL    HW1 1865   2.293   0.874   1.807 -1.5418 -2.4899  1.3728
  622SOL    HW2 1866   2.165   0.956   1.891 -2.7506  0.1572  2.0158
  623SOL     OW 1867   1.269   0.932   2.584  0.4028 -0.3445 -0.0953
  623SOL    HW1 1868   1.224   0.850   2.632 -1.0996  0.6314  1.0454
  623SOL    HW2 1869   1.230   0.960   2.493 -3.3961  1.1390  3.7418
  624SOL     OW 1870   0.545   0.697   3.063  0.1606 -0.4165 -0.0662
  624SOL    HW1 1871   0.606   0.737   2.988  4.5368  2.7807 -0.0951
  624SOL    HW2 1872   0.520   0.768   3.136  0.5551  3.1514  3.0610
  625SOL     OW 1873   2.797   1.776   0.827  0.5639  0.6254  0.1347
  625SOL    HW1 1874   2.741   1.803   0.913 -0.5218 -0.7733 -0.9269
  625SOL    HW2 1875   2.730   1.717   0.772  1.5603 -1.3032  1.1295
  626SOL     OW 1876   0.402   2.817   2.068  0.4410  0.4600 -0.5810
  626SOL    HW1 1877   0.438   2.909   2.103  0.1880  1.7161 -0.1814
  626SOL    HW2 1878   0.332   2.832   1.990 -1.8610 -0.2811  0.3049
  627SOL     OW 1879   0.720   1.023   1.523 -0.8139 -0.0343  0.4535
  627SOL    HW1 1880   0.765   0.932   1.533  0.8582 -2.9752  2.5944
  627SOL    HW2 1881   0.774   1.088   1.456 -0.3022  1.1568  1.5000
  628SOL     OW 1882   2.457   0.111   0.654  0.0209 -0.1395 -0.3031
  628SOL    HW1 1883   2.476   0.027   0.592  2.3025 -1.2981  2.2393
  628SOL    HW2 1884   2.365   0.116   0.702 -1.2165 -2.4398 -1.6536
  629SOL     OW 1885   1.993   0.964   1.945 -0.0726 -0.2566 -0.2432
  629SOL    HW1 1886   2.026   0.963   2.043 -0.6571 -0.1148  0.4715
  629SOL    HW2 1887   1.937   1.049   1.930  2.0825 -2.4791 -1.3368
  630SOL     OW 1888   2.845   2.220   0.758  0.4312  0.5158 -0.1190
  630SOL    HW1 1889   2.775   2.278   0.809  1.1403 -0.2661 -1.4149
  630SOL    HW2 1890   2.804   2.147   0.706  0.4712 -0.8702  0.3617
  631SOL     OW 1891   3.011   0.182   2.128  0.9263  0.4774  0.6332
  631SOL    HW1 1892   3.040   0.233   2.214 -0.9200  0.5372 -2.3662
  631SOL    HW2 1893   3.076   0.202   2.046  0.0157  0.1783  0.5840
  632SOL     OW 1894   2.411   2.522   0.765  0.1742 -0.3792 -0.8120
  632SOL    HW1 1895   2.497   2.578   0.781 -0.0638  0.3729  0.5370
  632SOL    HW2 1896   2.362   2.548   0.675 -0.3033 -4.2540  1.8042
  633SOL     OW 1897   1.592   1.251   2.704 -0.3510 -0.3096  0.3734
  633SOL    HW1 1898   1.569   1.331   2.768 -2.9074 -0.8147 -0.1936
  633SOL    HW2 1899   1.502   1.217   2.664 -0.6384  0.9120 -0.3680
  634SOL     OW 1900   0.675   2.075   0.911  0.6640 -0.3825 -0.1102
  634SOL    HW1 1901   0.575   2.090   0.944 -1.4579 -0.1463 -1.1060
  634SOL    HW2 1902   0.732   2.162   0.935 -0.5851 -3.3789  2.2123
  635SOL     OW 1903   0.033   2.229   3.045 -0.3015  0.1966 -0.0829
  635SOL    HW1 1904  -0.044   2.277   2.996 -2.6854 -3.9456  1.2786
  635SOL    HW2 1905   0.064   2.274   3.129 -0.2068  0.9832 -3.1779
  636SOL     OW 1906   2.339   2.843   2.005  0.1641 -0.1684 -0.5021
  636SOL    HW1 1907   2.312   2.946   2.005  1.3236 -1.1882  1.9028
  636SOL    HW2 1908   2.291   2.787   2.076  2.5021 -0.5642 -2.1036
  637SOL     OW 1909   2.575   0.739   2.105 -0.4593  0.1721  0.5611
  637SOL    HW1 1910   2.514   0.721   2.021  0.8469 -1.4522 -0.7304
  637SOL    HW2 1911   2.639   0.825   2.101 -0.7753  3.6076  0.8768
  638SOL     OW 1912   2.417   1.931   1.403  0.6478  0.5047 -0.6155
  638SOL    HW1 1913   2.323   1.904   1.377 -0.8472 -0.3082  1.1077
  638SOL    HW2 1914   2.478   1.854   1.429 -2.6046  2.5083 -0.1416
  639SOL     OW 1915   1.289   2.234   1.579 -0.1502 -0.0255 -0.3318
  639SOL    HW1 1916   1.287   2.158   1.508 -0.2300 -1.2845 -0.0501
  639SOL    HW2 1917   1.207   2.233   1.640  2.0296 -2.2345  0.2125
  640SOL     OW 1918   0.257   1.186   1.562 -0.2935 -0.5208 -0.5942
  640SOL    HW1 1919   0.303   1.239   1.638 -1.2035 -1.7115  1.2209
  640SOL    HW2 1920   0.327   1.133   1.510 -1.1526 -0.5014  2.4276
  641SOL     OW 1921   1.879   0.272   1.419 -0.0166  0.0524 -0.2219
  641SOL    HW1 1922   1.809   0.343   1.453 -1.0238  2.5319 -0.3901
  641SOL    HW2 1923   1.873   0.181   1.471  1.6792  3.3211 -1.1438
  642SOL     OW 1924   2.003   0.121   0.337 -0.1212  0.1307  0.5233
  642SOL    HW1 1925   2.108   0.098   0.347  0.6177 -0.8368  1.5958
  642SOL    HW2 1926   1.958   0.128   0.427  2.8836  1.7553  0.0439
  643SOL     OW 1927   2.807   1.870   2.134  0.6599  0.1467  0.3367
  643SOL    HW1 1928   2.776   1.792   2.074  2.2250 -1.3330  1.9778
  643SOL    HW2 1929   2.801   1.962   2.088  1.9028  1.3115 -0.3605
  644SOL     OW 1930   2.213   2.291   1.229  0.6058  0.3801 -0.6809
  644SOL    HW1 1931   2.288   2.233   1.187  0.4978 -0.4915 -1.4257
  644SOL    HW2 1932   2.196   2.277   1.330 -2.3492 -1.4687  2.1022
  645SOL     OW 1933   0.670   0.834   1.091 -0.3866  0.4803  0.0842
  645SOL    HW1 1934   0.608   0.770   1.039  2.5036  0.2167 -0.8418
  645SOL    HW2 1935   0.648   0.929   1.055  0.1624 -1.6437  0.0979
  646SOL     OW 1936   1.452   1.899   1.811 -0.2766 -0.0668  0.2639
  646SOL    HW1 1937   1.538   1.957   1.804  3.7591 -0.0931 -1.2512
  646SOL    HW2 1938   1.388   1.923   1.891 -3.1568 -0.8674 -0.3557
  647SOL     OW 1939   0.885   0.900   0.683 -0.1848 -0.7410 -0.0779
  647SOL    HW1 1940   0.938   0.923   0.765  0.7274  1.5489  0.0418
  647SOL    HW2 1941   0.782   0.889   0.705 -2.9819  2.2780 -3.3574
  648SOL     OW 1942   0.039   0.223   0.325 -0.5888 -0.3702 -0.2960
  648SOL    HW1 1943  -0.013   0.133   0.312 -2.6265 -2.9723  0.1198
  648SOL    HW2 1944   0.044   0.287   0.238 -0.7378  0.3347  0.5535
  649SOL     OW 1945   0.001   0.034   0.953  0.0023  0.5080  0.2637
  649SOL    HW1 1946   0.096   0.019   0.924 -0.0826 -1.5572  1.9023
  649SOL    HW2 1947  -0.008   0.101   1.032  3.5475 -1.1770  0.5226
  650SOL     OW 1948   2.744   0.716   1.462 -0.3077  0.0772 -0.0244
  650SOL    HW1 1949   2.645   0.704   1.487  1.3450  2.1427  0.6376
  650SOL    HW2 1950   2.747   0.799   1.401 -1.6380 -2.2737 -1.0414
  651SOL     OW 1951   0.881   1.608   1.487 -0.2889 -0.6162 -0.1799
  651SOL    HW1 1952   0.961   1.652   1.532 -0.0820 -0.5466 -1.0652
  651SOL    HW2 1953   0.801   1.675   1.459 -0.3165  3.5124 -4.1731
  652SOL     OW 1954   2.284   2.516   2.354 -0.7662 -0.0529  0.1250
  652SOL    HW1 1955   2.220   2.516   2.437 -0.8128  0.0941 -1.2588
  652SOL    HW2 1956   2.258   2.597   2.302 -0.6692  0.6785  0.3321
  653SOL     OW 1957   2.781   1.150   0.211 -0.1066 -0.0594 -0.6635
  653SOL    HW1 1958   2.844   1.227   0.197 -1.5719 -2.8149 -1.4607
  653SOL    HW2 1959   2.831   1.068   0.253  3.0211  0.9488  1.4383
  654SOL     OW 1960   1.191   2.228   1.237  0.3709 -0.3769 -0.2744
  654SOL    HW1 1961   1.212   2.148   1.300  0.6282  1.8621  1.3142
  654SOL    HW2 1962   1.229   2.210   1.142 -1.0236  1.5157 -0.7232
  655SOL     OW 1963   0.234   1.055   1.920 -0.0776 -0.3510 -0.2168
  655SOL    HW1 1964   0.226   0.979   1.855 -0.5311  3.5964  3.7382
  655SOL    HW2 1965   0.321   1.111   1.903 -0.2631 -0.9098  0.5266
  656SOL     OW 1966   2.490   2.406   2.586 -0.0970  0.1092  0.4420
  656SOL    HW1 1967   2.587   2.442   2.560  2.9582  1.7015 -2.0967
  656SOL    HW2 1968   2.410   2.444   2.531 -2.1880 -2.1027 -1.5684
  657SOL     OW 1969   3.044   1.102   1.877 -0.0646 -0.1965 -0.0884
  657SOL    HW1 1970   3.018   1.201   1.901  0.8579  1.0453 -0.3040
  657SOL    HW2 1971   3.149   1.091   1.877 -0.3916 -1.9646 -1.1621
  658SOL     OW 1972   1.702   0.268   2.378  0.4239  0.1433  0.2595
  658SOL    HW1 1973   1.710   0.181   2.425 -2.0007  2.9685  1.2657
  658SOL    HW2 1974   1.757   0.267   2.288 -0.1545  0.6553 -3.7989
  659SOL     OW 1975   1.408   0.621   2.825 -0.2085  0.2109  0.0829
  659SOL    HW1 1976   1.488   0.686   2.840  0.8922 -1.3266 -1.3764
  659SOL    HW2 1977   1.322   0.669   2.790 -0.9447 -0.6948 -1.9435
  660SOL     OW 1978   1.364   0.418   1.415 -0.3681 -0.4027  0.2103
  660SOL    HW1 1979   1.420   0.430   1.501  2.5583 -0.4771  0.3603
  660SOL    HW2 1980   1.415   0.359   1.347 -2.6047  1.0717  1.4002
  661SOL     OW 1981   2.441   1.116   0.673 -0.2906 -0.0223 -0.0676
  661SOL    HW1 1982   2.465   1.026   0.626  0.6872 -0.1862 -0.9433
  661SOL    HW2 1983   2.436   1.197   0.608 -1.8761  1.5328 -1.4943
  662SOL     OW 1984   1.271   0.455   1.850 -0.0028 -0.3570  0.0832
  662SOL    HW1 1985   1.218   0.366   1.859  2.3703  1.0448 -0.8168
  662SOL    HW2 1986   1.252   0.535   1.911  5.7587  0.1510 -2.1923
  663SOL     OW 1987   0.862   1.568   2.211 -0.6325 -0.0216 -0.4394
  663SOL    HW1 1988   0.804   1.643   2.251  0.6235 -1.0077 -2.0924
  663SOL    HW2 1989   0.833   1.535   2.123 -0.4982 -0.2432  2.0846
  664SOL     OW 1990   1.652   2.064   1.384 -0.0976  0.0806  0.3250
  664SOL    HW1 1991   1.590   2.000   1.436 -2.0446 -0.4756  0.3737
  664SOL    HW2 1992   1.753   2.049   1.411 -0.7389 -1.2620  0.3301
  665SOL     OW 1993   2.289   0.619   1.982 -0.4694 -0.3294 -0.1531
  665SOL    HW1 1994   2.325   0.529   2.028  1.1385 -2.3234  1.5777
  665SOL    HW2 1995   2.207   0.665   2.026 -3.1665  2.1399 -0.9944
  666SOL     OW 1996   0.489   2.287   0.468  0.6834  0.2124  0.1834
  666SOL    HW1 1997   0.542   2.376   0.459  0.1076  2.8093  0.0479
  666SOL    HW2 1998   0.440   2.272   0.559  2.5316 -0.2141 -0.1739
  667SOL     OW 1999   2.082   0.215   1.008  0.1947  0.5271 -0.3731
  667SOL    HW1 2000   2.152   0.285   1.045  0.7783 -0.4560 -1.7155
  667SOL    HW2 2001   1.991   0.228   1.051  0.0880  0.1118 -1.3879
  668SOL     OW 2002   2.056   0.644   1.283  0.5798 -0.5776  0.0881
  668SOL    HW1 2003   2.097   0.584   1.207  0.3468 -0.9349  1.0866
  668SOL    HW2 2004   2.045   0.589   1.367  1.1029  1.5286  1.3876
  669SOL     OW 2005   3.038   2.176   0.971  0.8282  0.9708 -0.2307
  669SOL    HW1 2006   2.975   2.178   0.890 -0.7199 -0.4659 -2.5015
  669SOL    HW2 2007   2.980   2.169   1.060  1.2770  2.9545  1.9607
  670SOL     OW 2008   2.790   2.349   2.012  0.1035  0.1217  0.4259
  670SOL    HW1 2009   2.757   2.340   2.111  0.2095  0.1409 -0.2323
  670SOL    HW2 2010   2.781   2.444   1.973 -0.1069  1.4147  0.4877
  671SOL     OW 2011   1.694   1.740   1.468 -0.1813  0.7096 -0.7871
  671SOL    HW1 2012   1.711   1.736   1.363  0.7393  0.1104  2.0617
  671SOL    HW2 2013   1.600   1.767   1.493  1.9920 -2.5899  1.4104
  672SOL     OW 2014   0.400   0.685   2.454 -0.1367  0.1685 -0.4667
  672SOL    HW1 2015   0.423   0.679   2.356 -0.2644 -1.1873  2.3922
  672SOL    HW2 2016   0.306   0.723   2.476 -0.8216  2.6658 -1.0274
  673SOL     OW 2017   0.138   1.251   1.072 -0.5664 -0.1289  0.2974
  673SOL    HW1 2018   0.153   1.297   1.162 -0.2806 -1.0277 -0.1717
  673SOL    HW2 2019   0.214   1.185   1.048  1.1426 -0.5636 -1.3894
  674SOL     OW 2020   1.601   2.914   0.147  0.3446  0.3873  0.2980
  674SOL    HW1 2021   1.594   3.015   0.136 -0.6277  0.5237 -3.3530
  674SOL    HW2 2022   1.690   2.875   0.100  0.6657  0.4685 -1.1652
  675SOL     OW 2023   1.734   0.874   2.330  0.2453 -0.4751  0.0923
  675SOL    HW1 2024   1.827   0.850   2.371  0.7295  0.5369  0.5202
  675SOL    HW2 2025   1.680   0.792   2.295 -0.5781  2.8584 -0.9455
  676SOL     OW 2026   2.534   1.524   2.021 -0.0022 -0.2874 -0.1473
  676SOL    HW1 2027   2.514   1.479   1.930  1.7423  0.5981 -0.4360
  676SOL    HW2 2028   2.596   1.472   2.083  1.4286 -0.9078 -1.5687
  677SOL     OW 2029   1.947   0.555   0.921  0.1288  0.1148  0.3595
  677SOL    HW1 2030   1.923   0.656   0.941 -3.4804  0.5027  1.0372
  677SOL    HW2 2031   1.874   0.486   0.956  1.1993  1.4350  1.5325
  678SOL     OW 2032   0.080   0.756   1.656 -0.0135 -0.6235  0.6623
  678SOL    HW1 2033   0.170   0.798   1.686 -0.1179 -0.0197 -0.5476
  678SOL    HW2 2034   0.006   0.774   1.726 -1.6488  2.2273 -0.3916
  679SOL     OW 2035   2.449   1.166   1.141  0.3150 -0.0572  0.0022
  679SOL    HW1 2036   2.345   1.172   1.140  0.0946  1.5389 -1.9230
  679SOL    HW2 2037   2.482   1.068   1.111  0.8730 -2.9580  2.2103
  680SOL     OW 2038   2.863   0.649   1.694  0.1048 -0.1083 -0.1104
  680SOL    HW1 2039   2.809   0.676   1.605 -4.9141  0.1011 -0.7742
  680SOL    HW2 2040   2.874   0.733   1.758 -1.1373  0.8807  0.3360
  681SOL     OW 2041   3.055   0.157   1.648 -0.1833  0.1429 -0.3262
  681SOL    HW1 2042   3.127   0.116   1.587  0.0712  1.5838 -1.6124
  681SOL    HW2 2043   3.020   0.249   1.612  0.0682 -0.7156  0.0286
  682SOL     OW 2044   0.717   3.085   1.339  0.3437 -0.0161  0.4813
  682SOL    HW1 2045   0.648   3.008   1.374 -2.7084 -0.2133  0.4114
  682SOL    HW2 2046   0.748   3.081   1.238 -0.7501 -1.2464 -0.9945
  683SOL     OW 2047   1.424   0.228   2.226 -0.1134 -0.3893  0.6968
  683SOL    HW1 2048   1.418   0.311   2.290  0.6238  0.3781  0.3759
  683SOL    HW2 2049   1.502   0.235   2.159  0.9035 -1.2345 -1.3500
  684SOL     OW 2050   1.433   2.135   0.481  0.3885  0.2973  0.3670
  684SOL    HW1 2051   1.500   2.079   0.539  1.4004  0.2487 -0.1600
  684SOL    HW2 2052   1.345   2.084   0.456  1.4443 -0.3296  0.1146
  685SOL     OW 2053   2.142   1.912   1.995 -0.4894 -0.3424  0.1447
  685SOL    HW1 2054   2.196   1.990   1.951 -1.3129  1.0923  2.1582
  685SOL    HW2 2055   2.206   1.838   2.027 -0.8504  2.2917  2.1525
  686SOL     OW 2056   1.534   1.713   2.763 -0.3323  0.0056 -0.5583
  686SOL    HW1 2057   1.540   1.613   2.754 -1.4894  3.3619  0.3626
  686SOL    HW2 2058   1.509   1.741   2.862  0.5931 -0.0659 -1.0075
  687SOL     OW 2059   1.343   2.495   1.908 -0.5962  0.1712  0.3867
  687SOL    HW1 2060   1.392   2.456   1.829  0.4715 -0.8607 -0.0247
  687SOL    HW2 2061   1.395   2.476   1.994 -0.3857 -1.4266 -1.9279
  688SOL     OW 2062   2.058   1.522   1.579 -0.8670  0.1730 -0.2891
  688SOL    HW1 2063   2.154   1.550   1.553 -0.7866  1.3517  1.6686
  688SOL    HW2 2064   2.010   1.485   1.498 -0.7259  0.9821  1.8331
  689SOL     OW 2065   2.475   1.067   2.724  0.3456 -0.0749  0.9451
  689SOL    HW1 2066   2.378   1.070   2.752  1.1941  2.0575 -1.2361
  689SOL    HW2 2067   2.541   1.036   2.799  1.9929  0.1064 -0.4851
  690SOL     OW 2068   2.246   2.783   3.027  0.0762  0.2139 -0.6320
  690SOL    HW1 2069   2.162   2.732   2.997  1.8843  2.8702  1.1458
  690SOL    HW2 2070   2.236   2.831   3.120 -1.7992 -2.1720  1.3367
  691SOL     OW 2071   2.601   0.448   2.143  0.2515 -0.0217 -0.7666
  691SOL    HW1 2072   2.675   0.391   2.096 -0.8425 -1.2642 -2.4836
  691SOL    HW2 2073   2.617   0.551   2.143  1.2720  1.2212  0.7986
  692SOL     OW 2074   2.720   1.245   0.652  0.4813 -0.4795  0.1495
  692SOL    HW1 2075   2.627   1.218   0.686 -0.2515  0.0261 -1.4140
  692SOL    HW2 2076   2.773   1.313   0.717  0.1457 -1.9093  0.6327
  693SOL     OW 2077   2.812   2.959   0.631 -0.0343  0.0808  0.2167
  693SOL    HW1 2078   2.829   3.048   0.687  0.7205 -0.2287  0.4030
  693SOL    HW2 2079   2.760   2.976   0.541 -1.5771 -1.5296 -0.8128
  694SOL     OW 2080   2.410   2.159   0.058  0.1339  0.3866 -0.1712
  694SOL    HW1 2081   2.381   2.255   0.095 -0.8444 -0.6145  1.2217
  694SOL    HW2 2082   2.340   2.092   0.089 -3.8389 -1.5225 -1.0837
  695SOL     OW 2083   0.543   2.896   1.478 -0.3055 -0.3111 -0.3634
  695SOL    HW1 2084   0.475   2.815   1.485  0.0649  0.9502 -0.4617
  695SOL    HW2 2085   0.522   2.974   1.548  0.6604  0.8432  2.1735
  696SOL     OW 2086   2.733   1.984   0.658 -0.1236  0.0720 -0.0123
  696SOL    HW1 2087   2.784   1.901   0.698 -0.9375  0.0570  3.0628
  696SOL    HW2 2088   2.696   1.977   0.562  0.8548 -0.1861 -2.5080
  697SOL     OW 2089   1.677   2.036   1.734  0.5779  0.2055  0.2904
  697SOL    HW1 2090   1.758   1.996   1.790 -0.1503  1.5899  2.5310
  697SOL    HW2 2091   1.706   2.096   1.656 -0.5484 -0.8832  0.4069
  698SOL     OW 2092   2.931   0.340   2.804  0.5910  0.0323 -0.0185
  698SOL    HW1 2093   2.931   0.289   2.717  0.3049 -0.0732 -0.3340
  698SOL    HW2 2094   3.014   0.316   2.859 -0.9405 -1.4114 -5.1707
  699SOL     OW 2095   1.534   0.132   2.931  0.2310 -0.0903  0.0730
  699SOL    HW1 2096   1.502   0.031   2.915 -1.4039 -0.3088 -1.7224
  699SOL    HW2 2097   1.556   0.174   2.839  1.0304  0.3749  0.9682
  700SOL     OW 2098   1.008   2.426   1.368 -0.1330  0.3706 -0.4154
  700SOL    HW1 2099   1.080   2.364   1.331  0.1864  1.0206 -0.1531
  700SOL    HW2 2100   0.921   2.414   1.308  0.6078  0.1574 -1.4166
  701SOL     OW 2101   1.821   2.851   0.018 -0.4156  1.0339 -0.5269
  701SOL    HW1 2102   1.848   2.772   0.080 -0.8257 -1.5424 -1.0823
  701SOL    HW2 2103   1.870   2.939   0.046 -2.9152  0.1302  3.1755
  702SOL     OW 2104   2.091   1.353   1.818 -0.1316 -0.0455 -0.1402
  702SOL    HW1 2105   2.184   1.311   1.819 -0.3183 -0.6067 -2.9567
  702SOL    HW2 2106   2.065   1.392   1.722  1.3488 -1.9173  0.3404
  703SOL     OW 2107   1.966   0.896   1.482 -0.1990  0.5667 -0.1971
  703SOL    HW1 2108   1.959   0.816   1.550 -0.9929  1.5097  2.9228
  703SOL    HW2 2109   2.029   0.972   1.517 -0.4785 -0.7478 -0.0868
  704SOL     OW 2110   0.282   2.069   1.794  0.0416 -0.0637 -0.1645
  704SOL    HW1 2111   0.319   2.011   1.873  2.8719 -1.8617  0.9243
  704SOL    HW2 2112   0.340   2.147   1.757 -1.1623  0.4100  2.8946
  705SOL     OW 2113   2.547   1.421   0.858 -0.1398  0.0956  0.4107
  705SOL    HW1 2114   2.475   1.392   0.926  0.0089  0.5502 -0.7815
  705SOL    HW2 2115   2.643   1.398   0.893  1.4762  0.1239 -1.1587
  706SOL     OW 2116   0.643   1.752   1.889 -0.1263  0.5536 -0.1591
  706SOL    HW1 2117   0.638   1.650   1.921  0.8468  1.5933 -1.5667
  706SOL    HW2 2118   0.728   1.802   1.928  1.7898 -1.8212  1.1517
  707SOL     OW 2119   2.337   1.220   1.844  0.4625 -0.6395 -1.4436
  707SOL    HW1 2120   2.434   1.219   1.876 -2.3455  2.6959 -0.1584
  707SOL    HW2 2121   2.292   1.127   1.858  2.3320  0.9786 -0.9738
  708SOL     OW 2122   3.043   0.522   3.030 -0.4079 -0.2372  0.6664
  708SOL    HW1 2123   3.076   0.586   2.946  1.9231 -0.3468 -1.9111
  708SOL    HW2 2124   3.058   0.416   3.013  1.6702 -1.2586  0.9617
  709SOL     OW 2125   1.759   1.834   0.204  0.0814 -0.3174  0.0820
  709SOL    HW1 2126   1.785   1.927   0.248  0.3708  2.4247  1.7114
  709SOL    HW2 2127   1.780   1.831   0.104  0.2297 -1.9976  2.3682
  710SOL     OW 2128   1.769   1.668   2.451  0.1605 -0.0407  0.3804
  710SOL    HW1 2129   1.823   1.623   2.378 -3.0048  3.9190 -0.4416
  710SOL    HW2 2130   1.771   1.622   2.544 -2.0427  1.7884 -0.2341
  711SOL     OW 2131   2.624   2.910   0.968 -0.0569  0.5339  0.1643
  711SOL    HW1 2132   2.636   3.015   0.961 -2.8107  0.1162 -1.3001
  711SOL    HW2 2133   2.710   2.867   1.005 -0.1788  4.7273 -0.3506
  712SOL     OW 2134   1.496   2.291   1.743  0.3918  0.1631 -0.1748
  712SOL    HW1 2135   1.560   2.211   1.740 -0.4980  2.0445  0.2869
  712SOL    HW2 2136   1.415   2.273   1.683 -0.4919  1.3398  1.3205
  713SOL     OW 2137   2.852   1.326   2.512 -0.6719 -0.3695  0.3743
  713SOL    HW1 2138   2.901   1.246   2.464  0.2942 -1.1407 -1.8064
  713SOL    HW2 2139   2.791   1.292   2.590  1.9195 -1.5911 -0.8861
  714SOL     OW 2140   2.668   0.435   2.452  0.2466  0.3549  0.4840
  714SOL    HW1 2141   2.584   0.418   2.513 -0.0072 -0.9149  0.9504
  714SOL    HW2 2142   2.645   0.440   2.349 -0.1555 -2.1131 -0.1502
  715SOL     OW 2143   1.658   2.084   1.117  0.0372 -1.0013 -0.0775
  715SOL    HW1 2144   1.582   2.151   1.091  2.0430  0.2000 -1.5368
  715SOL    HW2 2145   1.668   2.061   1.219  2.2560  1.7003  2.2314
  716SOL     OW 2146   1.184   0.210   1.442 -0.0708 -0.1230  0.2974
  716SOL    HW1 2147   1.080   0.219   1.423 -2.2089  2.0030 -3.6799
  716SOL    HW2 2148   1.239   0.298   1.425  1.5797  0.1315  0.5363
  717SOL     OW 2149   1.050   0.574   1.595 -0.2687 -0.7084  0.0960
  717SOL    HW1 2150   1.146   0.613   1.597 -1.3662 -3.5978  2.4727
  717SOL    HW2 2151   1.019   0.545   1.499  1.6661 -0.0871 -0.8912
  718SOL     OW 2152   0.661   1.107   1.001 -0.1693  0.0342  0.1163
  718SOL    HW1 2153   0.647   1.130   0.904  0.8790  2.2949 -0.1789
  718SOL    HW2 2154   0.748   1.143   1.039 -0.3896 -0.8866  1.1188
  719SOL     OW 2155   0.684   1.817   2.247 -0.8973  0.1531  0.2718
  719SOL    HW1 2156   0.746   1.861   2.318  1.6846 -0.7611  0.5661
  719SOL    HW2 2157   0.593   1.851   2.261  2.0313 -2.6288  0.7447
  720SOL     OW 2158   2.275   1.149   0.223  0.0842  0.6123 -0.2497
  720SOL    HW1 2159   2.367   1.099   0.216 -0.8903 -2.0661 -0.6814
  720SOL    HW2 2160   2.234   1.155   0.322 -0.2045 -2.3796  0.2186
  721SOL     OW 2161   2.239   0.011   2.002  0.0509 -0.2371  0.0345
  721SOL    HW1 2162   2.233   0.104   1.951 -2.1791 -0.3075 -0.7783
  721SOL    HW2 2163   2.149  -0.008   2.051  0.4248 -0.1842  1.0655
  722SOL     OW 2164   2.401   1.657   0.482  0.3424  0.6385  0.1824
  722SOL    HW1 2165   2.403   1.585   0.409  0.9095  2.1033 -1.1225
  722SOL    HW2 2166   2.304   1.685   0.501  1.4758 -1.3494 -0.8044
  723SOL     OW 2167   2.612   2.854   1.898  0.5397  0.1961 -0.1088
  723SOL    HW1 2168   2.661   2.878   1.986 -0.3279 -2.5373  1.5004
  723SOL    HW2 2169   2.516   2.815   1.927 -1.0570  0.0009 -0.1367
  724SOL     OW 2170   0.293   2.414   2.361  0.0358 -0.1847  0.1663
  724SOL    HW1 2171   0.203   2.466   2.371  1.7574 -0.6009 -2.3782
  724SOL    HW2 2172   0.346   2.398   2.450  3.6632 -0.6165 -0.2958
  725SOL     OW 2173   2.297   2.787   1.474  0.6836 -0.1903 -0.4415
  725SOL    HW1 2174   2.372   2.809   1.407 -3.3738 -0.9468  2.1849
  725SOL    HW2 2175   2.291   2.693   1.512  0.0716  2.8194  1.2770
  726SOL     OW 2176   2.400   2.244   0.806  0.1467 -0.1995  0.0722
  726SOL    HW1 2177   2.387   2.345   0.818  0.6840  0.1459 -2.8757
  726SOL    HW2 2178   2.378   2.213   0.705  0.6574 -5.2971 -0.2511
  727SOL     OW 2179   0.243   3.082   0.158  0.1431  0.5581 -0.2018
  727SOL    HW1 2180   0.271   2.992   0.112  0.5888 -1.3072  0.3086
  727SOL    HW2 2181   0.275   3.171   0.115 -0.0244  1.3073 -2.1700
  728SOL     OW 2182   2.830   0.645   1.066 -0.2606  0.2481  0.9808
  728SOL    HW1 2183   2.754   0.609   1.006  1.3428  1.4347  1.3895
  728SOL    HW2 2184   2.831   0.598   1.161 -2.0960 -1.6249  0.8325
  729SOL     OW 2185   2.968   2.473   0.728  0.3111 -0.4483 -0.0004
  729SOL    HW1 2186   2.941   2.378   0.748  0.7753  2.9971 -2.2537
  729SOL    HW2 2187   3.066   2.488   0.752 -0.2280 -1.6156 -0.0885
  730SOL     OW 2188   2.621   0.564   0.867 -0.0809  0.1326 -0.2723
  730SOL    HW1 2189   2.564   0.644   0.834  1.8816 -2.5237 -4.1567
  730SOL    HW2 2190   2.688   0.541   0.785 -1.5430 -1.8206 -1.9628
  731SOL     OW 2191   0.113   2.131   2.468  0.8968 -0.1167  0.4500
  731SOL    HW1 2192   0.106   2.145   2.573 -1.0498 -1.4695 -2.0016
  731SOL    HW2 2193   0.034   2.179   2.418 -1.6872  2.3698 -0.5496
  732SOL     OW 2194   1.150   2.841   2.021  0.3015  0.1268  0.6155
  732SOL    HW1 2195   1.179   2.759   2.081  2.2912  0.8315  1.6783
  732SOL    HW2 2196   1.145   2.815   1.922  1.9330 -0.5470 -0.3543
  733SOL     OW 2197   3.036   0.689   2.115 -0.1506 -0.0128  0.4673
  733SOL    HW1 2198   3.119   0.747   2.139  0.3858  1.8355  3.0499
  733SOL    HW2 2199   3.049   0.620   2.038  0.7622  0.5019 -0.9338
  734SOL     OW 2200   1.383   0.379   2.694 -0.1173 -0.2552 -0.3461
  734SOL    HW1 2201   1.384   0.480   2.732 -1.5912 -0.8475 -0.0480
  734SOL    HW2 2202   1.321   0.319   2.747 -1.9306  1.1611  0.5576
  735SOL     OW 2203   2.805   2.633   2.292  0.3569 -0.1596 -0.1443
  735SOL    HW1 2204   2.730   2.629   2.223 -1.0793 -1.0487  1.6331
  735SOL    HW2 2205   2.899   2.630   2.248 -2.0744 -0.6023 -0.2498
  736SOL     OW 2206   0.801   0.382   2.587  0.0115 -0.3104 -0.3389
  736SOL    HW1 2207   0.741   0.466   2.587 -0.3701 -0.1103 -1.2719
  736SOL    HW2 2208   0.807   0.346   2.492  2.0495  0.2969  2.2914
  737SOL     OW 2209   2.691   0.469   2.858 -0.5463 -0.1238  0.5744
  737SOL    HW1 2210   2.646   0.474   2.950 -1.3459 -0.5775  0.3167
  737SOL    HW2 2211   2.777   0.414   2.850  0.2423  1.5134  1.2635
  738SOL     OW 2212   1.644   1.156   3.025  0.6092 -0.2766  0.8986
  738SOL    HW1 2213   1.742   1.133   2.995 -1.6682 -1.2957  0.9677
  738SOL    HW2 2214   1.596   1.065   3.040 -0.9659 -0.3946 -2.2270
  739SOL     OW 2215   1.781   0.542   0.680  0.3721 -0.6092  0.2388
  739SOL    HW1 2216   1.832   0.557   0.773  2.0947  1.3366 -0.2156
  739SOL    HW2 2217   1.834   0.476   0.621  0.6953 -0.4760  1.7165
  740SOL     OW 2218   1.898   2.030   2.142  0.4165  0.6272  0.0016
  740SOL    HW1 2219   1.971   1.981   2.088  0.2405  1.6734  0.3263
  740SOL    HW2 2220   1.805   2.034   2.091 -1.8422 -0.6195 -0.9802
  741SOL     OW 2221   2.505   0.077   2.586 -0.0054 -0.7381  0.5611
  741SOL    HW1 2222   2.595   0.022   2.575  0.7606 -0.0371 -0.2978
  741SOL    HW2 2223   2.460   0.100   2.496  0.4711  3.2352  0.4847
  742SOL     OW 2224   2.245   1.397   0.054  0.2032  0.4085  0.5060
  742SOL    HW1 2225   2.163   1.463   0.055 -2.4818 -0.5523  0.0329
  742SOL    HW2 2226   2.233   1.308   0.108  2.7341 -3.7014  1.9945
  743SOL     OW 2227   1.743   0.646   2.646  0.0672  0.0757 -0.2106
  743SOL    HW1 2228   1.766   0.595   2.558  0.2705  1.2871 -2.2517
  743SOL    HW2 2229   1.671   0.718   2.642  1.5568  0.8253  3.4839
  744SOL     OW 2230   2.664   2.080   0.056  0.5324  0.1046  0.7707
  744SOL    HW1 2231   2.565   2.110   0.066  0.6125  1.0715  1.7801
  744SOL    HW2 2232   2.683   2.021   0.136 -2.2982  1.1846  0.0051
  745SOL     OW 2233   2.195   2.724   2.204 -0.0617  0.3569  0.0637
  745SOL    HW1 2234   2.102   2.692   2.176  0.3033  0.9169 -0.1513
  745SOL    HW2 2235   2.196   2.767   2.299 -1.6201 -0.6266 -3.1344
  746SOL     OW 2236   3.069   2.600   1.828 -0.2093  0.1751 -0.3454
  746SOL    HW1 2237   3.171   2.597   1.816  0.3142 -0.7055 -0.6232
  746SOL    HW2 2238   3.034   2.690   1.869  1.7798  2.7820 -1.2253
  747SOL     OW 2239   0.023   1.793   1.688  0.2829 -0.0499 -0.3803
  747SOL    HW1 2240  -0.034   1.709   1.662 -1.6334 -0.3407 -2.2906
  747SOL    HW2 2241   0.093   1.822   1.616 -1.2891  1.3962 -1.8503
  748SOL     OW 2242   1.733   2.748   2.870  0.1771 -0.5751 -0.1277
  748SOL    HW1 2243   1.747   2.788   2.961 -0.4955  1.1841 -1.6757
  748SOL    HW2 2244   1.632   2.739   2.846 -2.0582  1.3917  0.6793
  749SOL     OW 2245   1.298   0.067   0.900 -0.1443 -0.3845 -0.1638
  749SOL    HW1 2246   1.261  -0.031   0.914 -0.4221  0.3596  0.6584
  749SOL    HW2 2247   1.298   0.092   0.800  1.5004 -0.8608  0.3536
  750SOL     OW 2248   2.267   0.252   1.866 -0.0868 -0.4865  0.4213
  750SOL    HW1 2249   2.348   0.281   1.807 -3.0527 -0.3189 -0.2264
  750SOL    HW2 2250   2.283   0.288   1.967  2.0298  1.2241  0.5163
  751SOL     OW 2251   0.848   2.252   2.901  0.0834  0.2629  0.1546
  751SOL    HW1 2252   0.919   2.223   2.972  1.1482  0.2151 -1.0573
  751SOL    HW2 2253   0.790   2.170   2.872 -2.4722 -1.2133 -0.1166
  752SOL     OW 2254   1.258   0.936   1.527  0.6004 -0.5368 -0.3802
  752SOL    HW1 2255   1.320   0.998   1.473 -2.2671 -0.6495 -1.1626
  752SOL    HW2 2256   1.301   0.844   1.546  0.4186  0.4617 -0.0627
  753SOL     OW 2257   0.929   2.614   1.766 -0.0642 -0.3571 -0.0862
  753SOL    HW1 2258   1.008   2.656   1.711 -2.4892  0.5652 -0.7111
  753SOL    HW2 2259   0.841   2.669   1.774 -0.0847  0.0073  3.9927
  754SOL     OW 2260   1.141   1.322   3.020 -0.2160  0.2673  0.2585
  754SOL    HW1 2261   1.169   1.244   2.955 -0.4983 -1.0992 -0.7443
  754SOL    HW2 2262   1.150   1.415   2.973  1.3046 -1.7117  0.6064
  755SOL     OW 2263   2.017   0.525   2.223  0.1724  0.0583  0.7063
  755SOL    HW1 2264   2.100   0.480   2.270 -1.8559 -1.2438  0.0618
  755SOL    HW2 2265   1.928   0.513   2.274 -1.3430  0.2489 -0.5154
  756SOL     OW 2266   2.638   0.963   2.937 -0.2400 -0.2893 -0.3435
  756SOL    HW1 2267   2.697   0.897   2.884  1.2705  0.0502 -0.5545
  756SOL    HW2 2268   2.569   0.919   2.996  1.2662 -1.0439 -1.8088
  757SOL     OW 2269   0.150   0.487   1.719  0.5477 -0.4826 -0.0046
  757SOL    HW1 2270   0.098   0.567   1.681  0.9741  1.0341  0.4692
  757SOL    HW2 2271   0.215   0.443   1.648 -1.1344  0.0413  1.0214
  758SOL     OW 2272   2.497   0.057   1.518  0.2247  0.6036 -0.1184
  758SOL    HW1 2273   2.412   0.093   1.568  1.5532  0.5537  1.1261
  758SOL    HW2 2274   2.473   0.013   1.427  1.1450 -0.9155  0.5369
  759SOL     OW 2275   1.663   0.090   0.077  0.2823 -0.1116  0.2020
  759SOL    HW1 2276   1.631   0.088  -0.022  2.8964  1.0355  0.6475
  759SOL    HW2 2277   1.762   0.061   0.085 -2.0253 -1.7818 -1.5735
  760SOL     OW 2278   2.745   1.932   2.775 -0.4723 -0.1897 -0.4855
  760SOL    HW1 2279   2.792   1.855   2.729  1.4529  2.5183  0.3650
  760SOL    HW2 2280   2.799   2.021   2.771  1.8744  0.4064 -0.7965
  761SOL     OW 2281   1.901   1.761   1.619 -0.2295 -0.7312 -0.1635
  761SOL    HW1 2282   1.959   1.670   1.621  0.2267 -1.4613 -0.1825
  761SOL    HW2 2283   1.807   1.742   1.575 -0.9410  0.2684  1.1046
  762SOL     OW 2284   0.519   2.399   0.994 -0.2278 -0.4985 -0.0467
  762SOL    HW1 2285   0.532   2.432   0.899 -1.2998 -1.0034 -2.1824
  762SOL    HW2 2286   0.510   2.478   1.062  0.3471  0.4017 -1.1534
  763SOL     OW 2287   2.021   1.586   2.964 -0.1358 -0.0063  0.3131
  763SOL    HW1 2288   2.092   1.544   2.893  0.1549 -1.2079 -0.6162
  763SOL    HW2 2289   1.962   1.514   3.017 -2.2752 -1.2076 -2.0558
  764SOL     OW 2290   0.692   0.593   0.848  0.1662  0.1811 -0.2176
  764SOL    HW1 2291   0.699   0.566   0.749 -2.3371 -2.5764 -0.4869
  764SOL    HW2 2292   0.783   0.594   0.900 -0.8203 -1.6302  1.0705
  765SOL     OW 2293   0.647   0.224   0.798 -0.4832  0.1617 -0.1397
  765SOL    HW1 2294   0.732   0.264   0.750 -1.9814  1.4830 -0.5717
  765SOL    HW2 2295   0.648   0.228   0.903 -0.8747  0.1660  1.4271
  766SOL     OW 2296   3.020   1.986   3.034  0.5884 -0.6442 -0.3652
  766SOL    HW1 2297   2.917   1.982   3.009 -1.8892  1.7051 -3.2903
  766SOL    HW2 2298   3.066   2.077   3.010  0.4688 -0.2189  2.6839
  767SOL     OW 2299   2.781   1.569   0.486 -0.9733 -0.0453 -0.3847
  767SOL    HW1 2300   2.687   1.582   0.526 -1.1944  0.1978 -0.2388
  767SOL    HW2 2301   2.857   1.591   0.555  1.6499  2.6070  0.6718
  768SOL     OW 2302   1.047   0.310   0.270 -0.0437 -0.4281  0.1193
  768SOL    HW1 2303   0.958   0.259   0.262  0.7320 -0.0614  0.1662
  768SOL    HW2 2304   1.128   0.253   0.246  1.8124 -2.3994 -2.0576
  769SOL     OW 2305   1.288   1.842   2.252  0.6953 -0.1256 -0.3926
  769SOL    HW1 2306   1.375   1.788   2.277  3.3373 -1.3946  2.9307
  769SOL    HW2 2307   1.210   1.777   2.236  2.2571  2.4195 -1.3882
  770SOL     OW 2308   0.176   1.099   2.309  0.3239  0.1179 -0.0713
  770SOL    HW1 2309   0.144   1.154   2.386  1.5476 -0.7669 -3.1273
  770SOL    HW2 2310   0.114   1.114   2.225 -0.2093  1.8549 -0.0991
  771SOL     OW 2311   2.963   2.838   1.912  0.0291 -0.3465 -0.3033
  771SOL    HW1 2312   2.973   2.906   1.827  0.3689  1.8604 -1.3395
  771SOL    HW2 2313   2.924   2.889   1.992 -0.2583  2.9471 -0.1208
  772SOL     OW 2314   2.123   0.069   3.004  0.2519 -0.0454  0.2122
  772SOL    HW1 2315   2.191  -0.012   2.999 -1.0514 -1.7140  0.3759
  772SOL    HW2 2316   2.164   0.156   3.045  0.1676  1.6657 -0.7183
  773SOL     OW 2317   0.732   2.138   2.474 -0.1519  0.1159  0.3699
  773SOL    HW1 2318   0.716   2.218   2.405  0.0722 -0.8331 -2.1401
  773SOL    HW2 2319   0.656   2.128   2.546  0.5994 -0.2555  2.6400
  774SOL     OW 2320   1.986   0.024   2.670 -0.3741 -0.5491  0.2195
  774SOL    HW1 2321   1.991   0.117   2.716 -3.7204  2.5283  0.4365
  774SOL    HW2 2322   2.052  -0.044   2.705 -1.9167  1.5906 -1.4187
  775SOL     OW 2323   2.514   2.902   2.368 -0.2342  0.2840 -0.4963
  775SOL    HW1 2324   2.478   2.998   2.365  1.2632  0.0795 -3.5612
  775SOL    HW2 2325   2.604   2.895   2.416 -1.1077  1.7997  0.8618
  776SOL     OW 2326   0.004   1.156   0.262 -0.1273 -0.7533 -0.2139
  776SOL    HW1 2327  -0.015   1.202   0.171 -0.2923  0.6523  0.5266
  776SOL    HW2 2328  -0.027   1.209   0.344  0.9730  1.3222 -0.0965
  777SOL     OW 2329   0.330   2.702   0.402  0.0387  0.4127 -0.0109
  777SOL    HW1 2330   0.230   2.674   0.408 -0.2472 -2.2552  0.8535
  777SOL    HW2 2331   0.355   2.801   0.423 -1.0473  0.9033  1.5029
  778SOL     OW 2332   1.337   1.982   0.163  0.0409  0.2687  0.1759
  778SOL    HW1 2333   1.300   2.000   0.258 -0.1252  1.8093  0.1355
  778SOL    HW2 2334   1.357   2.074   0.110  0.7599  2.2500  0.7688
  779SOL     OW 2335   0.166   0.816   0.506 -0.3503 -0.4708 -0.5134
  779SOL    HW1 2336   0.102   0.735   0.506 -0.7191  1.2464 -1.7102
  779SOL    HW2 2337   0.127   0.885   0.578 -0.7840 -3.2061  0.6055
  780SOL     OW 2338   0.036   0.312   2.363 -0.1946  0.2975 -0.0211
  780SOL    HW1 2339  -0.002   0.408   2.367 -1.7176  2.0497 -1.2115
  780SOL    HW2 2340   0.130   0.312   2.317 -0.2364  1.1688 -1.6402
  781SOL     OW 2341   0.553   1.781   1.607 -0.0350  0.2524 -0.2167
  781SOL    HW1 2342   0.583   1.794   1.704 -1.9242 -0.5288  1.7711
  781SOL    HW2 2343   0.488   1.696   1.594  0.4222 -2.3844 -0.7699
  782SOL     OW 2344   2.647   0.095   0.889 -0.1857 -0.5624  0.1698
  782SOL    HW1 2345   2.605   0.124   0.798  0.2989 -2.8748  0.2489
  782SOL    HW2 2346   2.612   0.144   0.973  1.1548 -2.9859 -0.4614
  783SOL     OW 2347   2.816   0.647   2.543  0.2176 -0.5122  0.0589
  783SOL    HW1 2348   2.773   0.701   2.624  0.2628 -0.7789  2.3654
  783SOL    HW2 2349   2.751   0.569   2.522 -1.7120 -0.7824  2.0323
  784SOL     OW 2350   1.396   2.204   0.043  1.0564  0.1830 -0.2109
  784SOL    HW1 2351   1.486   2.234   0.080  0.3348 -2.0424 -0.1703
  784SOL    HW2 2352   1.407   2.188  -0.062 -0.3653  1.4027 -2.7731
  785SOL     OW 2353   2.185   0.314   0.025 -0.1902  0.1229 -0.0443
  785SOL    HW1 2354   2.089   0.327   0.068  2.6693  1.8209 -1.1585
  785SOL    HW2 2355   2.213   0.408  -0.010 -1.7395 -0.9507  0.6611
  786SOL     OW 2356   2.079   2.194   2.236 -0.2389 -0.1755 -0.3278
  786SOL    HW1 2357   2.002   2.136   2.189 -0.8442  0.7760  0.1140
  786SOL    HW2 2358   2.161   2.135   2.273 -0.3051 -0.0834  0.4733
  787SOL     OW 2359   1.387   0.633   0.744 -0.7755 -0.2451 -0.8508
  787SOL    HW1 2360   1.303   0.668   0.702 -0.9283  1.0201  0.7178
  787SOL    HW2 2361   1.440   0.591   0.670 -2.2224  0.8018  3.7222
  788SOL     OW 2362   1.226   0.476   2.966  0.0638  0.0556  0.3319
  788SOL    HW1 2363   1.146   0.537   2.956  2.1825  0.0299 -0.9188
  788SOL    HW2 2364   1.317   0.516   2.943  3.2227 -0.7954 -1.1198
  789SOL     OW 2365   2.639   0.059   1.872 -0.1826  0.3269  0.3965
  789SOL    HW1 2366   2.545   0.085   1.842  2.6282  3.6555  1.1488
  789SOL    HW2 2367   2.642  -0.032   1.926 -1.3253 -3.6005  1.6488
  790SOL     OW 2368   2.620   2.673   0.837  0.9412 -0.0369 -0.0726
  790SOL    HW1 2369   2.657   2.673   0.738  0.6127 -0.7659  2.2221
  790SOL    HW2 2370   2.603   2.769   0.882 -1.7669  0.8623  0.4737
  791SOL     OW 2371   1.937   1.184   0.204 -0.2085 -0.4883  0.4838
  791SOL    HW1 2372   1.842   1.166   0.249 -0.1088 -1.2923 -2.0470
  791SOL    HW2 2373   2.008   1.116   0.222 -1.3321  0.3975  0.1491
  792SOL     OW 2374   0.461   1.966   2.235 -0.0678 -0.4133  0.5990
  792SOL    HW1 2375   0.489   2.066   2.230  0.9596 -0.2056 -0.3505
  792SOL    HW2 2376   0.364   1.949   2.279 -0.7814  0.4557  4.0341
  793SOL     OW 2377   2.093   1.514   2.042 -0.3228  0.7172 -0.1708
  793SOL    HW1 2378   2.178   1.562   2.063 -1.6957 -1.1529 -1.5546
  793SOL    HW2 2379   2.103   1.473   1.950  3.9605 -1.5119 -1.6128
  794SOL     OW 2380   0.560   1.545   2.474  0.8042 -0.2175 -0.3025
  794SOL    HW1 2381   0.631   1.486   2.427 -1.3783  1.3109 -0.1709
  794SOL    HW2 2382   0.503   1.607   2.414 -1.9524  0.4378  3.2280
  795SOL     OW 2383   2.456   2.335   1.852 -0.7145  0.1491  0.2080
  795SOL    HW1 2384   2.438   2.353   1.955 -1.5625  3.7425  0.9177
  795SOL    HW2 2385   2.381   2.282   1.809  2.1659  1.5037 -0.8857
  796SOL     OW 2386   3.024   1.123   2.720  0.2308  0.4728  0.1122
  796SOL    HW1 2387   2.924   1.151   2.739  1.5273  0.9814  0.6801
  796SOL    HW2 2388   3.083   1.140   2.808  1.9871 -0.7858 -0.2353
  797SOL     OW 2389   0.677   0.612   1.340  0.2316 -0.6282 -0.3717
  797SOL    HW1 2390   0.733   0.696   1.359  2.3504 -1.6918  0.8133
  797SOL    HW2 2391   0.605   0.639   1.276 -1.0191  0.0026  0.7500
  798SOL     OW 2392   1.202   0.513   0.907  0.8083  0.1719 -0.0957
  798SOL    HW1 2393   1.217   0.548   1.003 -0.0901  0.2338 -1.4447
  798SOL    HW2 2394   1.269   0.547   0.841  0.1431  2.4147  1.6210
  799SOL     OW 2395   1.795   2.710   1.031 -0.1364  0.0634  0.3821
  799SOL    HW1 2396   1.809   2.621   1.082  2.4132  0.5160 -1.4762
  799SOL    HW2 2397   1.830   2.693   0.937 -3.9778 -0.0673 -0.1189
  800SOL     OW 2398   2.997   0.825   1.863 -0.2753  0.1738 -0.2685
  800SOL    HW1 2399   3.008   0.927   1.868  2.0355  1.2670  0.0889
  800SOL    HW2 2400   3.009   0.776   1.952 -1.5145  1.4617  1.3016
  801SOL     OW 2401   1.963   2.220   0.101  0.4177  0.8003  0.0170
  801SOL    HW1 2402   1.933   2.232   0.003 -0.6865  0.6914  1.6069
  801SOL    HW2 2403   2.039   2.151   0.112  0.7415  0.0250  1.0543
  802SOL     OW 2404   0.645   0.657   2.544  0.8381  0.2644 -0.3136
  802SOL    HW1 2405   0.713   0.663   2.463  2.2476  1.6504 -0.6953
  802SOL    HW2 2406   0.547   0.649   2.512  0.1166 -0.6251 -1.1669
  803SOL     OW 2407   0.955   0.116   0.890  0.2399  0.1836 -0.1118
  803SOL    HW1 2408   1.017   0.171   0.953 -2.0607 -0.9976 -1.6289
  803SOL    HW2 2409   0.923   0.164   0.803  0.7175 -0.6529  1.0575
  804SOL     OW 2410   0.325   0.035   2.186  0.2133 -0.1986 -0.5939
  804SOL    HW1 2411   0.304   0.128   2.226 -1.8451 -1.0079  0.2194
  804SOL    HW2 2412   0.264   0.008   2.108 -0.6330 -0.5539 -0.1475
  805SOL     OW 2413   2.394   0.370   0.325 -0.0461 -0.3064  0.4923
  805SOL    HW1 2414   2.455   0.362   0.412  1.6311 -0.4854  3.8033
  805SOL    HW2 2415   2.398   0.285   0.262 -0.1407 -0.5916 -2.2214
  806SOL     OW 2416   0.616   2.657   1.931  0.3745  0.1668  1.1668
  806SOL    HW1 2417   0.559   2.706   2.000  1.7719  2.1454  1.7694
  806SOL    HW2 2418   0.658   2.723   1.858 -0.9855 -0.2668 -2.3847
  807SOL     OW 2419   2.520   0.911   0.499  0.2130  0.1191  0.1967
  807SOL    HW1 2420   2.602   0.844   0.510  1.4085 -0.6520 -0.3937
  807SOL    HW2 2421   2.522   0.948   0.403  0.9350 -2.0809  1.9564
  808SOL     OW 2422   0.697   2.026   2.932  0.2171 -0.0826 -0.3151
  808SOL    HW1 2423   0.647   2.066   3.016  2.7013 -1.1541  0.7153
  808SOL    HW2 2424   0.729   1.926   2.937 -0.5903  1.7590 -1.8280
  809SOL     OW 2425   2.568   2.001   1.914 -0.4941  0.1647 -0.2601
  809SOL    HW1 2426   2.655   2.056   1.930 -0.6133  3.1352  1.1779
  809SOL    HW2 2427   2.544   2.016   1.812 -0.1609 -2.1106 -1.2239
  810SOL     OW 2428   2.186   1.161   0.474  0.0837  0.4733 -0.2281
  810SOL    HW1 2429   2.173   1.087   0.544 -0.2343  2.1255  2.3175
  810SOL    HW2 2430   2.164   1.254   0.518 -0.9798  3.4333  0.9556
  811SOL     OW 2431   1.246   2.509   1.139 -0.2069  0.3518 -0.1001
  811SOL    HW1 2432   1.280   2.409   1.137  2.1773 -2.9444 -1.6102
  811SOL    HW2 2433   1.259   2.551   1.234 -2.0560  1.6118  4.3884
  812SOL     OW 2434   1.461   0.745   1.991 -0.4470  0.0107  0.1551
  812SOL    HW1 2435   1.412   0.804   2.058 -3.2453  2.5910 -0.4050
  812SOL    HW2 2436   1.497   0.806   1.913  0.5131  1.4399 -1.1772
  813SOL     OW 2437   1.659   2.050   2.397 -0.7362  0.1073  0.1723
  813SOL    HW1 2438   1.752   2.007   2.421 -0.8746 -0.3360  0.0070
  813SOL    HW2 2439   1.642   2.059   2.291 -2.7766  0.7598 -0.9161
  814SOL     OW 2440   3.017   1.705   2.907 -0.6073  0.0941 -0.2739
  814SOL    HW1 2441   3.053   1.637   2.973 -0.9425  0.6079 -0.6081
  814SOL    HW2 2442   3.058   1.799   2.926  0.1422  1.8077  0.7939
  815SOL     OW 2443   2.172   2.854   2.714 -0.1191  0.2330 -0.4704
  815SOL    HW1 2444   2.124   2.791   2.781 -0.0150  3.7119  0.0347
  815SOL    HW2 2445   2.260   2.891   2.754  0.6987 -0.9773 -2.2155
  816SOL     OW 2446   1.474   0.408   1.670 -0.0013  0.1980  0.2499
  816SOL    HW1 2447   1.548   0.332   1.677 -1.1835 -1.3491 -1.1708
  816SOL    HW2 2448   1.424   0.414   1.761  0.5141 -2.0393  2.3472
  817SOL     OW 2449   0.363   1.268   2.559  0.0015 -0.4534 -0.5514
  817SOL    HW1 2450   0.261   1.287   2.546  1.4472 -3.0954  2.1449
  817SOL    HW2 2451   0.428   1.336   2.516 -1.7245 -0.2712  1.3760
  818SOL     OW 2452   2.004   0.809   0.454  0.1665 -0.8203 -0.1701
  818SOL    HW1 2453   2.106   0.816   0.428 -1.7119  2.0520  2.7166
  818SOL    HW2 2454   1.989   0.825   0.554 -2.6403 -0.2978 -2.3411
  819SOL     OW 2455   2.787   2.913   2.984  0.0772 -0.3703  0.7245
  819SOL    HW1 2456   2.861   2.841   2.979  1.6470  0.4499  2.7944
  819SOL    HW2 2457   2.695   2.878   2.945 -4.7181  1.7642 -2.6467
  820SOL     OW 2458   1.219   1.074   0.559 -0.3543  0.9198  0.7108
  820SOL    HW1 2459   1.219   1.175   0.583  1.7862 -2.7636 -2.4404
  820SOL    HW2 2460   1.209   1.010   0.641 -0.1769  1.7336 -3.1492
  821SOL     OW 2461   0.020   1.239   0.731 -0.1696  0.0275  0.4179
  821SOL    HW1 2462  -0.025   1.250   0.821 -1.9775  0.1094 -0.7489
  821SOL    HW2 2463   0.094   1.314   0.713  0.2920 -0.4451 -2.5230
  822SOL     OW 2464   2.555   1.766   2.465  0.3976  0.3540 -0.1543
  822SOL    HW1 2465   2.529   1.829   2.543 -0.1253 -1.9598  0.5563
  822SOL    HW2 2466   2.477   1.762   2.395 -0.3903  2.7997 -0.0247
  823SOL     OW 2467   1.987   0.928   1.187 -0.3405 -0.1599  0.3380
  823SOL    HW1 2468   1.986   0.875   1.278  1.2723  1.3024 -1.8146
  823SOL    HW2 2469   1.949   0.876   1.110  0.2399 -0.7211  2.5302
  824SOL     OW 2470   0.184   1.831   2.839  0.8792 -0.1641  0.0567
  824SOL    HW1 2471   0.211   1.821   2.940  1.2368 -0.9154  2.0178
  824SOL    HW2 2472   0.254   1.885   2.779  1.6938  1.3550  0.7128
  825SOL     OW 2473   1.275   1.040   0.293 -0.4539 -0.1530 -0.4299
  825SOL    HW1 2474   1.290   1.134   0.254  1.1635 -1.8172  2.3622
  825SOL    HW2 2475   1.253   1.037   0.395  2.8091 -1.7727  1.1578
  826SOL     OW 2476   1.974   0.656   1.597  0.0415  0.3957 -0.1879
  826SOL    HW1 2477   2.047   0.590   1.626 -3.1136 -0.9756 -2.3036
  826SOL    HW2 2478   1.892   0.605   1.563  2.4475  0.1358 -0.4735
  827SOL     OW 2479   0.731   1.193   0.508  0.1193  0.3259  0.1935
  827SOL    HW1 2480   0.811   1.136   0.480 -0.9128  2.6093  0.3182
  827SOL    HW2 2481   0.640   1.139   0.504  1.3427 -1.4927  1.6940
  828SOL     OW 2482   2.718   0.196   1.610 -0.1889 -0.6142  0.7469
  828SOL    HW1 2483   2.644   0.136   1.563 -0.5613 -1.5255 -1.4900
  828SOL    HW2 2484   2.725   0.178   1.709 -0.3233 -2.5585  0.1800
  829SOL     OW 2485   2.892   2.367   2.886 -0.3674 -0.3308 -0.3872
  829SOL    HW1 2486   2.792   2.363   2.917  0.8514 -2.8402 -0.3304
  829SOL    HW2 2487   2.923   2.467   2.896 -0.1840  0.2123  1.6685
  830SOL     OW 2488   2.949   0.925   2.968  0.5345  0.1456 -0.2155
  830SOL    HW1 2489   3.005   1.001   3.006  0.3335  1.8266 -2.0267
  830SOL    HW2 2490   2.934   0.853   3.044  0.5577  0.8593  0.1010
  831SOL     OW 2491   0.027   0.573   0.466 -0.6156  0.4664 -0.1522
  831SOL    HW1 2492   0.014   0.520   0.554  0.5499  2.8186  1.3204
  831SOL    HW2 2493   0.050   0.514   0.384 -0.6076  0.6953 -0.3067
  832SOL     OW 2494   1.777   0.726   0.035  0.0152  0.4902 -0.0993
  832SOL    HW1 2495   1.679   0.769   0.019 -2.3833 -1.5391 -2.4622
  832SOL    HW2 2496   1.774   0.625   0.014 -1.3677  0.6239  1.0688
  833SOL     OW 2497   2.343   2.121   0.567  0.2532  0.2106 -0.3686
  833SOL    HW1 2498   2.255   2.080   0.525 -0.8931 -2.2154  2.4808
  833SOL    HW2 2499   2.422   2.069   0.524  2.1710  0.4985 -1.1786
  834SOL     OW 2500   0.088   0.066   0.569 -0.4512  0.1490  0.2266
  834SOL    HW1 2501   0.164  -0.004   0.563 -1.6576 -0.4167  2.0485
  834SOL    HW2 2502   0.089   0.133   0.493  1.5583  1.3528 -1.3635
  835SOL     OW 2503   2.486   1.692   1.125  0.5228  0.1473 -0.5195
  835SOL    HW1 2504   2.533   1.625   1.191  1.8132 -1.6407  1.1858
  835SOL    HW2 2505   2.562   1.749   1.081 -1.6076  1.0239 -0.5421
  836SOL     OW 2506   1.539   0.841   2.611 -0.0026  0.2532  0.1237
  836SOL    HW1 2507   1.440   0.867   2.588  1.0067  2.4143 -2.5694
  836SOL    HW2 2508   1.606   0.886   2.538  3.4417  0.4280 -0.4039
  837SOL     OW 2509   1.701   0.077   0.550 -0.5554 -0.1171  0.2961
  837SOL    HW1 2510   1.653   0.117   0.632 -3.4998  1.9260  0.9619
  837SOL    HW2 2511   1.649   0.090   0.460 -0.3884 -0.2141 -0.6295
  838SOL     OW 2512   1.156   1.458   2.691  0.0685 -0.4424  0.3996
  838SOL    HW1 2513   1.107   1.500   2.770  1.7841  0.2247  0.8066
  838SOL    HW2 2514   1.095   1.399   2.631  2.2863  0.6261 -1.9340
  839SOL     OW 2515   1.651   0.407   0.955  0.1754 -0.1813 -0.1539
  839SOL    HW1 2516   1.608   0.501   0.962  1.6854  2.1470 -0.9003
  839SOL    HW2 2517   1.588   0.334   0.978  2.6642 -2.1277  0.8617
  840SOL     OW 2518   2.673   2.953   1.627  0.1057  0.0755  0.0354
  840SOL    HW1 2519   2.583   3.000   1.602  0.5319 -1.0350 -1.6795
  840SOL    HW2 2520   2.678   2.931   1.730  0.5277  0.8750  1.7888
  841SOL     OW 2521   1.553   0.840   3.072  0.3176 -0.2386  0.3001
  841SOL    HW1 2522   1.471   0.842   3.127  1.4295  1.4299 -1.0941
  841SOL    HW2 2523   1.533   0.896   2.990 -0.9335 -1.4136 -0.8632
  842SOL     OW 2524   0.825   1.624   1.015 -0.0499 -0.3628 -0.2504
  842SOL    HW1 2525   0.780   1.719   1.027 -2.0839  1.6261 -1.4965
  842SOL    HW2 2526   0.766   1.565   0.956  1.2815 -0.1518  0.2936
  843SOL     OW 2527   0.163   0.081   1.430 -0.6288  0.3665 -0.0575
  843SOL    HW1 2528   0.249   0.113   1.485 -0.9808  1.5235  1.9270
  843SOL    HW2 2529   0.184  -0.008   1.382 -0.2803 -1.9126  2.3019
  844SOL     OW 2530   0.707   2.440   0.207 -0.1976  0.2318  0.1452
  844SOL    HW1 2531   0.652   2.462   0.292 -0.2324 -1.5677  0.9877
  844SOL    HW2 2532   0.653   2.424   0.120  0.4782 -1.1538  0.3827
  845SOL     OW 2533   1.760  -0.004   1.272  0.4083 -0.3789  0.2104
  845SOL    HW1 2534   1.734  -0.011   1.372 -0.5172 -0.0363  0.1447
  845SOL    HW2 2535   1.736   0.087   1.229 -2.5814  1.5705 -1.5932
  846SOL     OW 2536   1.673   3.012   0.896  0.4432 -0.3891 -0.2020
  846SOL    HW1 2537   1.705   3.097   0.848 -0.8299 -0.4038  1.1296
  846SOL    HW2 2538   1.753   2.948   0.920 -2.4031  0.7338 -1.0960
  847SOL     OW 2539   2.071   1.596   0.151  0.3353 -0.3799  0.3442
  847SOL    HW1 2540   2.028   1.525   0.220  0.4046  0.9931  1.5922
  847SOL    HW2 2541   2.023   1.596   0.062 -2.2494  1.7378  1.0360
  848SOL     OW 2542   2.491   0.795   2.648 -0.3804  0.1935 -0.0023
  848SOL    HW1 2543   2.498   0.891   2.611 -2.2906 -0.3732 -1.5959
  848SOL    HW2 2544   2.418   0.729   2.609 -3.3482  0.4690 -0.6337
  849SOL     OW 2545   2.380   0.852   2.288 -0.1438 -0.3551 -0.2781
  849SOL    HW1 2546   2.431   0.784   2.236 -0.6622 -1.1594  1.1032
  849SOL    HW2 2547   2.323   0.806   2.364 -0.8973  0.5862 -1.9114
  850SOL     OW 2548   1.501   0.244   1.260  0.0110  0.3995 -0.1390
  850SOL    HW1 2549   1.514   0.236   1.158  2.0819  0.9009 -1.4593
  850SOL    HW2 2550   1.473   0.154   1.305 -1.2839  1.3714  0.3092
  851SOL     OW 2551   0.445   1.666   0.609 -0.0912 -0.1431 -0.1712
  851SOL    HW1 2552   0.421   1.757   0.645  0.0299  0.3815 -3.0619
  851SOL    HW2 2553   0.546   1.657   0.606  0.6504  0.6574 -3.4542
  852SOL     OW 2554   0.838   2.184   1.778  0.2082  0.0612  0.3114
  852SOL    HW1 2555   0.822   2.278   1.733  3.0329 -0.9287  3.2186
  852SOL    HW2 2556   0.767   2.163   1.845 -1.0763 -1.6534  0.9504
  853SOL     OW 2557   2.548   1.509   2.580 -0.5797  0.1480  0.6928
  853SOL    HW1 2558   2.490   1.428   2.552 -2.6534 -3.5944  2.1838
  853SOL    HW2 2559   2.557   1.579   2.508 -1.3854 -0.2673 -0.0919
  854SOL     OW 2560   2.466   1.449   1.745 -0.2502  0.1649 -0.4400
  854SOL    HW1 2561   2.517   1.403   1.666 -1.0372 -0.7539 -2.0827
  854SOL    HW2 2562   2.397   1.387   1.789 -0.5682 -2.2401 -0.5840
  855SOL     OW 2563   2.043   2.326   0.965 -0.1589  0.4653 -0.3239
  855SOL    HW1 2564   2.098   2.408   0.938  0.8498 -0.2549 -1.7643
  855SOL    HW2 2565   2.083   2.288   1.047  1.8235  0.5874 -2.8620
  856SOL     OW 2566   1.422   1.448   0.839 -0.4501 -0.1201 -0.7512
  856SOL    HW1 2567   1.486   1.530   0.837  0.1906  0.5600 -2.7727
  856SOL    HW2 2568   1.357   1.465   0.916  2.4469  1.7553 -0.8823
  857SOL     OW 2569   2.923   2.517   1.076  0.1117 -0.1430 -0.4849
  857SOL    HW1 2570   2.828   2.470   1.091 -1.7180  1.6851 -0.7590
  857SOL    HW2 2571   2.989   2.451   1.030  0.3177 -3.0116  0.8517
  858SOL     OW 2572   2.262   2.137   1.777  0.8342 -0.0604  0.2401
  858SOL    HW1 2573   2.162   2.154   1.744 -1.8300 -1.4648 -3.2014
  858SOL    HW2 2574   2.317   2.076   1.714 -0.1929  0.9608 -1.5591
  859SOL     OW 2575   2.453   0.411   1.004 -0.1599  0.5040  0.6708
  859SOL    HW1 2576   2.523   0.451   0.938 -2.3959 -0.8662  1.4617
  859SOL    HW2 2577   2.473   0.327   1.062 -0.6363 -1.1359  2.1052
  860SOL     OW 2578   1.875   2.794   0.531 -0.6273 -0.5327  0.6116
  860SOL    HW1 2579   1.870   2.756   0.433 -0.6687  0.3010 -1.6525
  860SOL    HW2 2580   1.913   2.892   0.543 -0.5982  0.2889  1.6384
  861SOL     OW 2581   0.994   2.567   2.802 -0.5355  0.1060 -0.1385
  861SOL    HW1 2582   1.084   2.616   2.783  2.5874  0.5937  0.4666
  861SOL    HW2 2583   0.983   2.556   2.902 -0.9414 -0.3312  0.3447
  862SOL     OW 2584   2.962   2.607   1.547  0.4831 -0.7700 -0.5971
  862SOL    HW1 2585   3.011   2.621   1.637  0.5243 -2.8202  0.0787
  862SOL    HW2 2586   2.858   2.619   1.560 -1.7530  0.5149 -0.0072
  863SOL     OW 2587   1.865   2.666   0.242  0.3008 -0.7047 -0.3850
  863SOL    HW1 2588   1.925   2.580   0.261  0.4773 -0.8521 -2.2928
  863SOL    HW2 2589   1.768   2.629   0.219 -0.8545 -4.0370 -3.3115
  864SOL     OW 2590   1.920   1.124   2.972 -0.0000 -0.3771  0.7541
  864SOL    HW1 2591   1.951   1.103   2.877  1.0528  0.2642 -1.2057
  864SOL    HW2 2592   1.998   1.103   3.037  0.7136 -0.7675  0.0548
  865SOL     OW 2593   2.149   1.694   0.594  0.4455 -0.1012 -0.5107
  865SOL    HW1 2594   2.173   1.759   0.672  1.7540  0.7808 -0.4452
  865SOL    HW2 2595   2.090   1.607   0.610  0.3014 -1.9825  1.9188
  866SOL     OW 2596   2.890   2.828   1.011  0.6438 -0.2859  0.3878
  866SOL    HW1 2597   2.967   2.863   0.954 -0.4361  0.4551  2.4344
  866SOL    HW2 2598   2.892   2.723   1.021 -0.1424  1.0448  0.7498
  867SOL     OW 2599   0.421   1.367   0.829 -0.0459  0.2898  0.1629
  867SOL    HW1 2600   0.427   1.267   0.802  0.1240 -0.6475 -2.5080
  867SOL    HW2 2601   0.339   1.414   0.779  0.1686  0.7944 -0.1530
  868SOL     OW 2602   0.839   1.882   2.009 -0.0563  0.0019 -0.0732
  868SOL    HW1 2603   0.807   1.860   2.101 -0.2202 -1.2399 -1.9131
  868SOL    HW2 2604   0.808   1.971   1.970  0.6941 -1.9220  2.0081
  869SOL     OW 2605   2.535   1.986   1.652  0.2412 -0.6541 -0.4467
  869SOL    HW1 2606   2.623   1.930   1.644  1.5736  1.5192  2.5262
  869SOL    HW2 2607   2.479   2.002   1.566 -0.2467 -1.0143  2.4693
  870SOL     OW 2608   2.394   2.532   1.219 -0.1364  0.2594  0.9303
  870SOL    HW1 2609   2.327   2.457   1.231  1.2397  0.2380 -0.5352
  870SOL    HW2 2610   2.476   2.516   1.281 -0.7373  0.9469 -1.8169
  871SOL     OW 2611   3.039   1.993   0.529 -0.5586 -0.0492  0.0573
  871SOL    HW1 2612   2.956   2.054   0.514 -0.5996 -0.1134 -1.3443
  871SOL    HW2 2613   3.031   1.894   0.492 -1.1881 -0.0089  0.8370
  872SOL     OW 2614   2.183   0.504   1.697  0.4467  0.6084  0.2666
  872SOL    HW1 2615   2.138   0.474   1.783  0.4356  0.1046 -3.0886
  872SOL    HW2 2616   2.282   0.510   1.706 -0.5584 -1.5018 -0.6160
  873SOL     OW 2617   1.727   2.074   2.856 -0.0802  0.0543  0.1802
  873SOL    HW1 2618   1.688   2.161   2.896 -4.3146  0.9396 -0.2683
  873SOL    HW2 2619   1.664   2.018   2.796 -0.8759  1.0523 -2.2819
  874SOL     OW 2620   0.606   2.523   0.743 -0.1080 -0.3398  0.2471
  874SOL    HW1 2621   0.622   2.622   0.769  1.5152  0.6889  2.1131
  874SOL    HW2 2622   0.697   2.473   0.762  1.0492  4.1281  0.7250
  875SOL     OW 2623   2.329   1.563   1.463  0.5850 -0.3059 -0.3722
  875SOL    HW1 2624   2.431   1.585   1.472  0.3834 -0.2139 -0.3034
  875SOL    HW2 2625   2.289   1.577   1.373 -0.4888 -0.6321  1.2473
  876SOL     OW 2626   0.128   2.229   2.739  0.4013 -0.1645  0.0819
  876SOL    HW1 2627   0.128   2.150   2.809 -0.0317 -0.2165  0.7811
  876SOL    HW2 2628   0.188   2.317   2.769  0.3399  2.8676  3.0669
  877SOL     OW 2629   2.783   2.655   0.609 -0.0141  0.5623 -0.2593
  877SOL    HW1 2630   2.809   2.757   0.626  2.6398  0.7054  3.5770
  877SOL    HW2 2631   2.853   2.594   0.658  1.0996 -1.5748  3.5904
  878SOL     OW 2632   2.748   1.520   2.277 -0.2038 -0.4409  0.3427
  878SOL    HW1 2633   2.716   1.612   2.304  1.9952  1.3589  0.9612
  878SOL    HW2 2634   2.818   1.484   2.343  1.6459  0.7449  1.3882
  879SOL     OW 2635   2.427   3.059   1.261  0.4098 -0.6817  0.0583
  879SOL    HW1 2636   2.472   2.968   1.259  1.1497  1.8093  1.3706
  879SOL    HW2 2637   2.323   3.051   1.248  0.2654  0.6709  1.4919
  880SOL     OW 2638   0.581   0.504   2.231  0.1504  0.4485 -0.1534
  880SOL    HW1 2639   0.528   0.453   2.312 -1.7629 -1.0925  2.5541
  880SOL    HW2 2640   0.569   0.469   2.133 -0.0909 -3.1910  0.8605
  881SOL     OW 2641   0.854   0.080   0.446 -0.1467 -0.1296  0.8006
  881SOL    HW1 2642   0.933   0.016   0.428  0.6924  1.3977  0.1715
  881SOL    HW2 2643   0.780   0.071   0.377  1.7326  1.9677 -0.2599
  882SOL     OW 2644   2.766   1.790   1.686 -0.4133  0.0414 -0.0140
  882SOL    HW1 2645   2.830   1.718   1.653  0.4814 -2.7176  1.2971
  882SOL    HW2 2646   2.746   1.772   1.786 -1.0817 -1.6185 -2.3955
  883SOL     OW 2647   0.925   0.601   0.972  0.1720 -0.1379  0.3395
  883SOL    HW1 2648   0.916   0.640   1.069 -1.5959  1.4917  0.3855
  883SOL    HW2 2649   1.021   0.578   0.944 -0.2262  2.4697 -0.6686
  884SOL     OW 2650   1.186   1.897   1.068  0.1070  0.7512  0.0166
  884SOL    HW1 2651   1.165   1.865   0.970  1.0243 -2.0766 -0.9008
  884SOL    HW2 2652   1.107   1.945   1.121 -1.7061  0.3593 -0.7950
  885SOL     OW 2653   2.327   1.774   2.326  0.0638  0.7219 -0.4807
  885SOL    HW1 2654   2.257   1.748   2.399  3.4320  1.1338 -2.0475
  885SOL    HW2 2655   2.320   1.874   2.302 -1.9162 -0.3655  1.9209
  886SOL     OW 2656   2.696   0.461   1.803 -0.4260 -0.1252  0.0384
  886SOL    HW1 2657   2.725   0.402   1.887  2.3465 -1.7100  0.7754
  886SOL    HW2 2658   2.761   0.547   1.789 -0.9120 -0.2323  0.6412
  887SOL     OW 2659   0.187   2.075   1.317  0.0671  0.9682  0.0259
  887SOL    HW1 2660   0.146   2.025   1.236  0.9255 -2.4334  1.0074
  887SOL    HW2 2661   0.156   2.177   1.316  0.7355  2.1217 -2.7179
  888SOL     OW 2662   0.583   1.307   1.518  0.0158 -0.5014 -0.0950
  888SOL    HW1 2663   0.624   1.359   1.435 -1.2197 -0.5771 -1.8731
  888SOL    HW2 2664   0.573   1.209   1.498  3.0739 -0.4130 -2.2973
  889SOL     OW 2665   0.842   2.418   2.139 -0.2607 -0.5483 -0.1519
  889SOL    HW1 2666   0.772   2.376   2.077  0.7693  1.3788 -1.5519
  889SOL    HW2 2667   0.927   2.459   2.090  1.6105 -1.3278 -1.8203
  890SOL     OW 2668   2.339   2.423   0.143  0.3511  0.7791  0.3391
  890SOL    HW1 2669   2.387   2.481   0.071 -2.1993  1.3399 -2.1979
  890SOL    HW2 2670   2.241   2.461   0.157  0.0364 -1.3959  0.8269
  891SOL     OW 2671   2.583   1.631   0.708 -0.3426  0.3276  0.5717
  891SOL    HW1 2672   2.571   1.551   0.776 -0.0315  0.2813 -1.0753
  891SOL    HW2 2673   2.505   1.636   0.640 -0.3020 -0.2982  2.1471
  892SOL     OW 2674   0.288   0.297   2.235  0.8905 -0.2950 -0.4123
  892SOL    HW1 2675   0.294   0.338   2.142  1.1395  1.1508  5.4074
  892SOL    HW2 2676   0.354   0.335   2.306  0.9696  0.1399 -2.5409
  893SOL     OW 2677   1.617   0.240   2.690 -0.0127  0.3742 -0.0630
  893SOL    HW1 2678   1.695   0.303   2.721  0.8806 -0.6027 -2.7728
  893SOL    HW2 2679   1.532   0.297   2.697 -1.0207  0.9426 -0.6982
  894SOL     OW 2680   2.173   1.996   0.076  0.3943  0.0258 -0.1141
  894SOL    HW1 2681   2.136   1.948  -0.007 -1.7693  1.3411  3.8039
  894SOL    HW2 2682   2.185   1.936   0.160  0.5262  2.1265  0.6065
  895SOL     OW 2683   2.861   1.414   0.823 -0.4265  0.2815 -0.2530
  895SOL    HW1 2684   2.908   1.353   0.893  0.1017 -1.0525  0.9435
  895SOL    HW2 2685   2.921   1.486   0.787 -1.0631  0.2985  0.1408
  896SOL     OW 2686   1.702   1.774   1.195 -0.6968  0.8133 -0.0140
  896SOL    HW1 2687   1.782   1.815   1.144 -1.9933  1.4448 -2.2432
  896SOL    HW2 2688   1.616   1.833   1.187  0.2924  1.6704  1.9019
  897SOL     OW 2689   0.332   0.510   3.052 -0.2059  0.0875 -0.3233
  897SOL    HW1 2690   0.274   0.528   2.967  0.7629  0.2476  0.4044
  897SOL    HW2 2691   0.409   0.579   3.056  1.2162 -0.1923 -1.5369
  898SOL     OW 2692   0.541   2.896   1.037  0.0281  0.7702 -0.4489
  898SOL    HW1 2693   0.484   2.940   1.113 -0.5247  0.8336 -1.5157
  898SOL    HW2 2694   0.640   2.922   1.041 -1.1721 -1.1684 -1.7945
  899SOL     OW 2695   2.721   0.932   1.286  0.4529 -0.5195  0.2057
  899SOL    HW1 2696   2.655   0.940   1.205  0.2840 -0.8461 -2.6243
  899SOL    HW2 2697   2.803   0.999   1.276 -2.4230  2.8724 -1.3112
  900SOL     OW 2698   0.961   2.323   2.363  0.4762 -0.0845  0.4410
  900SOL    HW1 2699   0.914   2.384   2.288 -0.8382 -1.4354 -0.2682
  900SOL    HW2 2700   0.931   2.339   2.462 -0.6681  1.8158 -0.9936
  901SOL     OW 2701   1.987   2.487   1.369  0.5055  0.0486 -0.2713
  901SOL    HW1 2702   1.949   2.478   1.274  3.0260 -0.1132  0.4191
  901SOL    HW2 2703   2.080   2.435   1.383 -0.1070 -2.6669 -0.5983
  902SOL     OW 2704   2.581   1.690   1.470  0.1173 -0.0199  0.5356
  902SOL    HW1 2705   2.627   1.709   1.564 -0.6493  1.2380 -0.3875
  902SOL    HW2 2706   2.637   1.643   1.395 -0.5971  1.2717  0.7226
  903SOL     OW 2707   0.288   2.415   2.007 -0.0045  0.3656  0.3608
  903SOL    HW1 2708   0.194   2.369   2.030  0.0364  0.0618  0.2838
  903SOL    HW2 2709   0.284   2.476   1.922 -1.7124  0.6055 -2.0277
  904SOL     OW 2710   2.019   0.782   2.602  0.0333 -0.3486 -0.0264
  904SOL    HW1 2711   1.947   0.734   2.647  0.9705  0.1701 -2.4968
  904SOL    HW2 2712   2.003   0.775   2.499  0.5911  1.1875  0.7985
  905SOL     OW 2713   2.791   0.022   2.540 -0.1401  0.0672 -0.5446
  905SOL    HW1 2714   2.857  -0.030   2.591 -0.0176 -0.1095 -1.6375
  905SOL    HW2 2715   2.822   0.122   2.528  0.7052  1.1184  1.3636
  906SOL     OW 2716   0.130   1.818   1.950 -0.0170  0.5656 -0.0362
  906SOL    HW1 2717   0.085   1.818   1.854  1.3670  0.1716 -1.1613
  906SOL    HW2 2718   0.233   1.840   1.955  2.1408  1.7202 -1.0264
  907SOL     OW 2719   0.202   2.405   1.050 -0.2281 -0.4012  0.0002
  907SOL    HW1 2720   0.242   2.500   1.049 -0.1316  1.0842 -1.8511
  907SOL    HW2 2721   0.205   2.353   0.958 -0.6386 -3.2138  0.2275
  908SOL     OW 2722   2.691   2.862   0.382  0.3976 -0.5460  0.0808
  908SOL    HW1 2723   2.631   2.868   0.296  1.4519  1.6968 -0.3247
  908SOL    HW2 2724   2.696   2.772   0.433 -0.2290 -0.4009  0.8951
  909SOL     OW 2725   0.710   0.917   2.636  0.2422 -0.4208 -0.4686
  909SOL    HW1 2726   0.676   0.816   2.621 -1.4721 -1.3372 -0.4987
  909SOL    HW2 2727   0.769   0.940   2.554  0.2500 -4.0721  0.3014
  910SOL     OW 2728   1.725   1.788   2.041  0.3900 -0.1100  0.9153
  910SOL    HW1 2729   1.800   1.819   1.976  1.0972 -0.2397  0.9857
  910SOL    HW2 2730   1.676   1.872   2.079  0.0492  0.0024  2.8571
  911SOL     OW 2731   1.742   3.042   1.584  0.2811  0.2092 -0.1003
  911SOL    HW1 2732   1.819   2.990   1.541  1.1556  0.8397  0.5647
  911SOL    HW2 2733   1.696   2.994   1.663 -0.3610 -3.6705  0.9771
  912SOL     OW 2734   2.852   0.940   0.764  0.0209  0.0910  0.2453
  912SOL    HW1 2735   2.866   0.940   0.867 -1.5418 -0.8206  0.7916
  912SOL    HW2 2736   2.844   1.037   0.726  1.4767  0.7185  0.6508
  913SOL     OW 2737   2.575   1.279   1.575 -0.2450  0.0383  0.1039
  913SOL    HW1 2738   2.579   1.191   1.633 -2.6967  1.6339  0.5430
  913SOL    HW2 2739   2.613   1.271   1.480  1.4103  2.3237 -0.9243
  914SOL     OW 2740   2.837   0.497   1.283 -0.2432 -0.5390 -0.0553
  914SOL    HW1 2741   2.791   0.405   1.302 -2.1912  0.2615  0.1747
  914SOL    HW2 2742   2.830   0.563   1.368  1.4346  3.0058  1.2008
  915SOL     OW 2743   1.202   0.815   1.046 -0.3122  0.2004 -0.4362
  915SOL    HW1 2744   1.282   0.833   1.111  1.6833 -0.8821  1.9391
  915SOL    HW2 2745   1.112   0.799   1.100  0.6133 -0.2768 -0.9836
  916SOL     OW 2746   0.575   0.036   0.601  0.8891 -0.2929  0.2672
  916SOL    HW1 2747   0.605   0.098   0.679  2.0502  0.7157 -0.6599
  916SOL    HW2 2748   0.546   0.084   0.515 -0.3307 -1.5941 -0.9563
  917SOL     OW 2749   2.737   2.580   1.888 -0.1482  0.1651 -0.1584
  917SOL    HW1 2750   2.637   2.621   1.877  1.1275  0.4559  1.2134
  917SOL    HW2 2751   2.807   2.653   1.873 -2.4779  0.1218 -2.5039
  918SOL     OW 2752   1.036   2.178   3.090  0.8836  0.0279  0.3115
  918SOL    HW1 2753   0.995   2.204   3.182 -1.1063 -1.3119  1.4069
  918SOL    HW2 2754   1.082   2.086   3.096  1.1136 -1.0703  1.5072
  919SOL     OW 2755   0.914   1.580   2.772 -0.0670 -1.0079 -0.3790
  919SOL    HW1 2756   0.975   1.623   2.700 -1.9689 -0.2232  1.7891
  919SOL    HW2 2757   0.879   1.487   2.739 -1.0513  0.5238 -0.3275
  920SOL     OW 2758   1.226   2.074   2.475 -0.0388 -0.4183 -0.5453
  920SOL    HW1 2759   1.154   2.058   2.401 -1.2495 -2.4413  1.7078
  920SOL    HW2 2760   1.274   1.980   2.488  0.8570 -2.7881 -0.8425
  921SOL     OW 2761   1.059   0.084   2.564 -0.2238  0.0257 -0.3730
  921SOL    HW1 2762   1.051   0.016   2.480 -3.8876 -4.3580 -1.4695
  921SOL    HW2 2763   1.004   0.168   2.551  0.0866 -0.4733 -0.2978
  922SOL     OW 2764   2.081   2.421   2.779  0.3293  0.0243 -0.1535
  922SOL    HW1 2765   2.107   2.320   2.783 -0.3547 -1.9079  1.6624
  922SOL    HW2 2766   2.052   2.443   2.683  0.9785  0.4298  0.9312
  923SOL     OW 2767   1.179   2.723   0.210  0.4187  0.0321  0.4088
  923SOL    HW1 2768   1.274   2.717   0.259  1.2096 -1.4929  0.8322
  923SOL    HW2 2769   1.183   2.692   0.113  0.8983 -0.1969 -0.8865
  924SOL     OW 2770   2.856   1.576   0.082  0.6428 -0.0440 -0.3679
  924SOL    HW1 2771   2.781   1.594   0.010 -1.0250 -1.4749  0.1815
  924SOL    HW2 2772   2.953   1.582   0.049 -0.2110  2.8350  0.4477
  925SOL     OW 2773   0.082   2.891   1.607 -0.2893  0.2019  0.2300
  925SOL    HW1 2774  -0.017   2.913   1.618  2.0061  1.9113 -0.4724
  925SOL    HW2 2775   0.121   2.906   1.516 -0.8603 -1.4917 -0.0335
  926SOL     OW 2776   1.434   2.901   1.280 -0.8638 -0.0274 -0.3002
  926SOL    HW1 2777   1.454   2.886   1.177  0.6921 -0.1208 -0.1912
  926SOL    HW2 2778   1.434   3.001   1.298  0.3018 -1.2289 -0.2636
  927SOL     OW 2779   0.249   2.547   1.764 -0.2014  0.2989 -0.2536
  927SOL    HW1 2780   0.201   2.473   1.703 -0.9065 -0.6659  0.1207
  927SOL    HW2 2781   0.304   2.621   1.710 -0.7003  2.1200 -0.5767
  928SOL     OW 2782   1.588   2.031   2.103  0.2472  0.1915  0.3691
  928SOL    HW1 2783   1.616   2.132   2.094  0.7340 -0.6676  3.3832
  928SOL    HW2 2784   1.491   2.022   2.066 -0.8032 -1.5448 -1.1429
  929SOL     OW 2785   2.371   2.430   2.827  0.5583 -0.4589 -0.2221
  929SOL    HW1 2786   2.268   2.436   2.811 -0.2619  2.6943  1.0656
  929SOL    HW2 2787   2.426   2.421   2.736 -0.0423  0.4833 -0.3135
  930SOL     OW 2788   2.203   1.972   1.110 -0.1058  0.0551  0.2992
  930SOL    HW1 2789   2.181   1.925   1.201  0.5360  0.0741  1.6503
  930SOL    HW2 2790   2.298   2.008   1.114  1.4479 -0.8238 -1.1874
  931SOL     OW 2791   0.572   1.752   2.669  0.1394  0.4532  0.5141
  931SOL    HW1 2792   0.620   1.740   2.761 -1.4293 -0.3742  2.6009
  931SOL    HW2 2793   0.565   1.671   2.599 -3.7305 -3.0617 -1.4096
  932SOL     OW 2794   0.496   0.100   2.898 -0.1229  0.0277  0.1752
  932SOL    HW1 2795   0.586   0.135   2.858  1.8392 -0.5765  0.5536
  932SOL    HW2 2796   0.498   0.008   2.947 -0.2062  1.0282  1.3545
  933SOL     OW 2797   1.082   0.807   2.964  0.0291 -0.1537 -0.0515
  933SOL    HW1 2798   1.152   0.850   3.028 -1.8439 -1.3351  0.7421
  933SOL    HW2 2799   1.015   0.875   2.918  2.2182  0.2663 -0.0219
  934SOL     OW 2800   0.859   2.963   2.767  0.7190  0.3335  0.6320
  934SOL    HW1 2801   0.877   2.873   2.715 -0.1049  2.0273  1.9997
  934SOL    HW2 2802   0.866   2.940   2.864 -0.4251 -2.7664 -0.6445
  935SOL     OW 2803   3.083   0.538   0.915 -0.7378 -0.6388  0.1842
  935SOL    HW1 2804   3.068   0.491   0.826  0.9716  1.6634  0.6949
  935SOL    HW2 2805   3.007   0.592   0.950 -0.6144 -0.7826  0.9619
  936SOL     OW 2806   1.101   2.988   0.155  0.1776  0.8590 -0.0832
  936SOL    HW1 2807   1.142   3.021   0.067 -1.5710  1.0002  1.4191
  936SOL    HW2 2808   1.132   2.891   0.185 -0.2639 -1.1002  2.1024
  937SOL     OW 2809   1.947   2.662   2.102  0.0113  0.9862 -0.1349
  937SOL    HW1 2810   1.863   2.697   2.157 -3.2432  0.1004  2.2153
  937SOL    HW2 2811   1.943   2.694   2.000 -0.5217  1.2606 -0.2249
  938SOL     OW 2812   2.738   2.183   1.511 -0.2341  0.1039 -0.0652
  938SOL    HW1 2813   2.673   2.251   1.554  1.7176  1.9022 -1.0887
  938SOL    HW2 2814   2.784   2.121   1.580 -3.6025  0.0171  0.0991
  939SOL     OW 2815   2.725   1.004   2.513  0.0302 -0.7284 -0.1540
  939SOL    HW1 2816   2.797   0.929   2.487  1.6992  0.1324  0.4246
  939SOL    HW2 2817   2.726   1.028   2.612  1.4385  0.5764 -0.2480
  940SOL     OW 2818   1.065   0.471   2.657 -0.0622 -0.0471  0.1366
  940SOL    HW1 2819   1.109   0.401   2.730  0.9927  1.7184  2.8257
  940SOL    HW2 2820   0.961   0.447   2.640 -1.0313 -2.0824 -2.3579
  941SOL     OW 2821   0.049   2.864   2.223  0.4439 -0.7160 -0.2949
  941SOL    HW1 2822   0.032   2.763   2.203  2.4526 -1.1386  0.3354
  941SOL    HW2 2823   0.125   2.883   2.294 -0.2977 -2.3812  0.2125
  942SOL     OW 2824   0.098   0.082   2.525  0.0088  0.2388 -0.1036
  942SOL    HW1 2825   0.177   0.100   2.593 -0.2854  0.5088 -2.3764
  942SOL    HW2 2826   0.079   0.171   2.476  0.2210  0.8982  0.1984
  943SOL     OW 2827   2.096   1.645   2.471  0.3525  0.0754 -0.0045
  943SOL    HW1 2828   2.134   1.552   2.501  0.6926  1.5755  0.2131
  943SOL    HW2 2829   2.038   1.656   2.381 -2.2881 -2.5711  0.5002
  944SOL     OW 2830   2.195   2.323   1.494 -0.1921 -0.8719 -0.3071
  944SOL    HW1 2831   2.253   2.408   1.521  1.2204  4.1126  0.9064
  944SOL    HW2 2832   2.139   2.281   1.573  0.8032 -1.9688 -1.1236
  945SOL     OW 2833   0.636   1.471   0.374  0.4113 -0.9700 -0.4312
  945SOL    HW1 2834   0.684   1.493   0.284 -1.2439  3.0777 -1.3945
  945SOL    HW2 2835   0.666   1.384   0.418  0.6329  0.4042 -1.6204
  946SOL     OW 2836   0.328   1.004   2.639 -0.3808 -0.2706 -0.0169
  946SOL    HW1 2837   0.275   0.948   2.565 -1.6253  1.3006 -2.1028
  946SOL    HW2 2838   0.341   1.104   2.614 -0.1667 -2.8169  1.6110
  947SOL     OW 2839   1.497   0.433   0.159  0.7483 -0.4060  0.4589
  947SOL    HW1 2840   1.519   0.395   0.253  2.2368 -0.5795 -2.3235
  947SOL    HW2 2841   1.437   0.366   0.105  0.6561 -2.7853 -1.1549
  948SOL     OW 2842   1.986   3.104   2.160  0.4695 -0.4368 -0.5504
  948SOL    HW1 2843   1.942   3.118   2.066  1.1843 -0.5107 -3.3279
  948SOL    HW2 2844   1.960   3.015   2.207 -0.5131  0.8114 -3.3224
  949SOL     OW 2845   0.585   2.534   0.453  0.2193 -0.4082 -0.2177
  949SOL    HW1 2846   0.603   2.632   0.420  2.1837  1.3635  1.4843
  949SOL    HW2 2847   0.578   2.538   0.557  0.5381  0.9841  0.6752
  950SOL     OW 2848   0.269   2.081   3.012 -0.3154  0.6173  0.1353
  950SOL    HW1 2849   0.198   2.155   3.024  0.3905 -0.0122 -1.7544
  950SOL    HW2 2850   0.241   1.989   3.054 -3.4640  1.2862 -2.4148
  951SOL     OW 2851   1.164   2.802   2.782  0.3914  0.4768 -0.0676
  951SOL    HW1 2852   1.170   2.884   2.720  1.0072  1.9858 -0.1015
  951SOL    HW2 2853   1.237   2.804   2.860 -1.1200 -0.9246  3.4143
  952SOL     OW 2854   0.103   1.723   0.455 -0.6145 -0.4976 -0.1189
  952SOL    HW1 2855   0.180   1.795   0.453  1.4330  2.9109  2.1628
  952SOL    HW2 2856   0.102   1.686   0.552  4.1961  1.0490 -1.2792
  953SOL     OW 2857   2.502   1.748   0.196 -0.3841 -0.4488  0.1310
  953SOL    HW1 2858   2.477   1.652   0.200 -1.0660  0.2877 -1.6363
  953SOL    HW2 2859   2.486   1.788   0.101 -1.1572 -2.5473 -1.8190
  954SOL     OW 2860   2.175   0.480   1.062  0.4061 -0.6131 -0.1193
  954SOL    HW1 2861   2.101   0.506   0.999  1.9343 -2.4096  2.0974
  954SOL    HW2 2862   2.273   0.472   1.020  2.2683 -0.2026 -1.6660
  955SOL     OW 2863   0.216   2.650   1.282 -0.3952 -0.0065  0.0039
  955SOL    HW1 2864   0.115   2.620   1.285 -2.0418 -0.4555 -0.7939
  955SOL    HW2 2865   0.257   2.641   1.184 -1.4565  2.0583 -1.7886
  956SOL     OW 2866   2.728   2.480   2.514 -0.3530 -0.2054 -0.4520
  956SOL    HW1 2867   2.742   2.375   2.499 -0.5993 -1.0167 -1.7424
  956SOL    HW2 2868   2.740   2.532   2.428 -1.8654 -1.5679  1.5502
  957SOL     OW 2869   1.535   2.004   2.650  0.3508 -0.5353 -0.1801
  957SOL    HW1 2870   1.437   1.962   2.653  0.0478 -0.2491  0.4773
  957SOL    HW2 2871   1.589   1.989   2.562 -2.1869  0.3290  2.4850
  958SOL     OW 2872   2.666   2.316   3.011  0.2317  0.0275 -0.2432
  958SOL    HW1 2873   2.571   2.299   2.981 -0.7543 -1.6570  0.1992
  958SOL    HW2 2874   2.697   2.232   3.064  0.9545  0.9848 -0.4756
  959SOL     OW 2875   0.229   2.808   0.031  0.0791 -0.2076  0.1872
  959SOL    HW1 2876   0.131   2.774   0.039 -1.4993  0.4259  0.9434
  959SOL    HW2 2877   0.291   2.731  -0.010 -0.3087 -0.2276 -3.2180
  960SOL     OW 2878   1.969   0.457   1.954 -0.4556 -0.2341  0.1167
  960SOL    HW1 2879   1.911   0.532   1.915 -0.4132 -3.5458  1.2915
  960SOL    HW2 2880   2.008   0.490   2.042 -1.2664  0.5367  0.2751
  961SOL     OW 2881   2.655   1.878   1.031  0.2278  0.9839 -0.1066
  961SOL    HW1 2882   2.593   1.920   0.959  2.7587  0.2459 -0.8469
  961SOL    HW2 2883   2.668   1.928   1.121  2.9763  1.4226 -0.7633
  962SOL     OW 2884   1.282   0.914   0.036  0.0955  0.2935 -0.3514
  962SOL    HW1 2885   1.303   0.969  -0.046 -0.0638  2.1239  0.1653
  962SOL    HW2 2886   1.272   0.976   0.121  0.2983  3.1957 -0.1911
  963SOL     OW 2887   2.265   2.610   1.878 -1.0898 -0.3217  0.9368
  963SOL    HW1 2888   2.315   2.530   1.922  0.7698  0.6748  0.3261
  963SOL    HW2 2889   2.300   2.702   1.917 -0.5420 -2.1399  0.6734
  964SOL     OW 2890   2.454   0.390   1.697  0.1682  0.3678  0.0169
  964SOL    HW1 2891   2.553   0.415   1.727  2.6161 -2.3155 -1.4210
  964SOL    HW2 2892   2.457   0.360   1.596 -2.9230  0.4264 -0.1089
  965SOL     OW 2893   2.672   3.007   0.121  0.6532 -0.2623 -0.0107
  965SOL    HW1 2894   2.726   2.942   0.055  1.0032  0.0296  0.7908
  965SOL    HW2 2895   2.616   3.082   0.085  0.2284 -1.4853  0.1277
  966SOL     OW 2896   2.553   2.637   2.160 -0.6879  0.1560  0.1134
  966SOL    HW1 2897   2.493   2.570   2.106  0.3451  1.1866 -1.6643
  966SOL    HW2 2898   2.497   2.707   2.209  0.1349 -2.0672  2.1009
  967SOL     OW 2899   2.771   2.855   2.474 -0.3134  0.2626  0.2571
  967SOL    HW1 2900   2.807   2.778   2.412 -0.3500  0.2138 -0.5984
  967SOL    HW2 2901   2.802   2.949   2.452 -2.3200  0.6384  0.6813
  968SOL     OW 2902   2.025   1.023   2.722 -0.0644 -0.0450  0.1181
  968SOL    HW1 2903   1.976   1.094   2.665  3.1018  1.5977  1.1802
  968SOL    HW2 2904   2.010   0.932   2.680 -1.3404 -0.5445  1.4752
  969SOL     OW 2905   2.709   2.337   1.157 -0.0483  0.2469 -0.0800
  969SOL    HW1 2906   2.664   2.348   1.065 -0.9750 -0.9791  0.1863
  969SOL    HW2 2907   2.771   2.253   1.162  0.0107 -0.6934  1.1039
  970SOL     OW 2908   1.120   2.172   1.787  0.0984 -0.9824  0.3040
  970SOL    HW1 2909   1.016   2.162   1.786 -1.9643 -2.0973 -1.7029
  970SOL    HW2 2910   1.149   2.204   1.880  0.0372  0.2444  0.4754
  971SOL     OW 2911   2.827   2.098   1.940 -0.1769  0.3108 -0.2025
  971SOL    HW1 2912   2.804   2.198   1.948 -1.8338  0.8442  0.4289
  971SOL    HW2 2913   2.905   2.072   1.881  1.5798 -0.1485  1.7671
  972SOL     OW 2914   2.053   2.444   0.273 -0.2040  0.4358 -0.1226
  972SOL    HW1 2915   2.013   2.359   0.237 -1.1001 -0.0272  0.8039
  972SOL    HW2 2916   2.045   2.446   0.376  0.1187 -0.5330 -2.0873
  973SOL     OW 2917   1.313   1.069   1.911  0.6090  0.0176 -0.8283
  973SOL    HW1 2918   1.255   1.011   1.846 -0.8441 -1.9014 -2.4944
  973SOL    HW2 2919   1.272   1.170   1.922  0.3490  0.3025  0.6124
  974SOL     OW 2920   1.665   0.541   1.897 -0.1655  0.4147  0.4348
  974SOL    HW1 2921   1.734   0.616   1.882  2.0295 -0.9992 -0.6671
  974SOL    HW2 2922   1.565   0.561   1.910  0.5711 -0.5659 -0.7823
  975SOL     OW 2923   2.415   3.051   3.073  0.8145 -0.2572 -0.7846
  975SOL    HW1 2924   2.361   2.992   3.144 -1.5332 -1.3622 -1.5309
  975SOL    HW2 2925   2.432   2.999   2.987 -3.6425 -0.5654  0.6501
  976SOL     OW 2926   1.930   2.897   2.314  0.1774 -0.0693 -0.0894
  976SOL    HW1 2927   1.848   2.839   2.288  1.3379 -0.3345 -1.3228
  976SOL    HW2 2928   1.982   2.857   2.403  0.5590  1.1825  2.9535
  977SOL     OW 2929   0.481   0.639   1.024  0.4168 -0.2388  0.3699
  977SOL    HW1 2930   0.386   0.616   0.982  1.7874  0.3835  2.5945
  977SOL    HW2 2931   0.548   0.582   0.972 -2.1271 -2.1463 -1.6148
   3.10000   3.10000   3.10000
