1000 SPC/Fw water molecules t=   0.77000 step= 770
 2931
    1SOL     OW    1   2.486   0.397   2.601 -0.2670 -0.6423 -0.1827
    1SOL    HW1    2   2.485   0.293   2.601  0.9266 -1.2736  0.1628
    1SOL    HW2    3   2.541   0.426   2.688 -1.5745  1.4369  1.1603
    2SOL     OW    4   2.760   3.063   1.411 -0.1045  0.8258  0.2436
    2SOL    HW1    5   2.822   3.101   1.330  0.8920  0.6854 -0.0987
    2SOL    HW2    6   2.715   3.139   1.463  0.1441  0.6359  1.8469
    3SOL     OW    7   2.743   2.625   0.340  0.3512 -0.0105  0.1745
    3SOL    HW1    8   2.700   2.532   0.367  0.0881  0.4588 -0.0169
    3SOL    HW2    9   2.813   2.658   0.409 -1.2792  1.4702 -1.2826
    4SOL     OW   10   1.277   1.481   2.364  0.1495 -0.1417  0.0721
    4SOL    HW1   11   1.188   1.533   2.336  0.3466 -1.0314  0.5426
    4SOL    HW2   12   1.266   1.372   2.368 -0.2652 -0.6950 -2.7166
    5SOL     OW   13   1.144   1.517   3.089 -0.6419 -0.4207 -0.0203
    5SOL    HW1   14   1.217   1.581   3.128  1.1028  0.3108  1.9215
    5SOL    HW2   15   1.049   1.545   3.118  0.9968  1.3408 -2.1569
    6SOL     OW   16   0.092   1.882   2.946  0.4002 -0.2519 -0.3341
    6SOL    HW1   17   0.011   1.907   3.007  3.1229 -3.5559 -0.0364
    6SOL    HW2   18   0.157   1.822   2.997 -1.1360  0.3869  1.3658
    7SOL     OW   19   2.568   0.956   1.154  0.5566 -0.6591 -0.3578
    7SOL    HW1   20   2.495   0.882   1.181 -0.4865 -1.0935 -0.0065
    7SOL    HW2   21   2.575   0.979   1.053  3.1958  2.4241  0.7044
    8SOL     OW   22   0.379   0.598   1.508  0.3242  0.6418  0.3701
    8SOL    HW1   23   0.471   0.560   1.540  1.8318  3.7771  2.1451
    8SOL    HW2   24   0.353   0.569   1.412  0.9865  0.5542  1.3171
    9SOL     OW   25   1.176   0.881   2.387  0.1011 -0.3108  0.0436
    9SOL    HW1   26   1.251   0.908   2.321 -1.4553  1.9316  0.4629
    9SOL    HW2   27   1.103   0.820   2.347 -2.3974 -0.1240  2.9132
   10SOL     OW   28   0.636   1.320   1.298  0.2648 -0.2478 -0.1193
   10SOL    HW1   29   0.544   1.334   1.245  0.2449  0.3942 -0.6137
   10SOL    HW2   30   0.692   1.402   1.305 -3.1896 -0.9745 -1.8695
   11SOL     OW   31   2.372   2.734   0.866 -0.3841  0.0831 -0.5028
   11SOL    HW1   32   2.349   2.809   0.938 -2.4220  0.7542  2.1006
   11SOL    HW2   33   2.472   2.704   0.883  1.3684  1.3988  0.8517
   12SOL     OW   34   1.473   0.901   0.361  0.0851  0.3600 -0.5097
   12SOL    HW1   35   1.396   0.957   0.324 -0.8209 -1.6152  3.8638
   12SOL    HW2   36   1.501   0.823   0.301  1.6492  0.5345  2.7966
   13SOL     OW   37   2.460   0.663   1.783  0.0662 -0.0663 -0.2330
   13SOL    HW1   38   2.368   0.631   1.823 -1.0493  0.0859 -0.1403
   13SOL    HW2   39   2.477   0.640   1.683  0.0177  0.1310  1.6831
   14SOL     OW   40   1.902   0.061   0.736  0.0701 -0.2876  0.0545
   14SOL    HW1   41   1.837   0.078   0.659  0.4034  0.7765  0.5931
   14SOL    HW2   42   1.862   0.002   0.810 -3.6313 -0.8308 -0.3993
   15SOL     OW   43   1.983   2.067   2.731  0.0975  0.5523  0.1416
   15SOL    HW1   44   1.949   2.158   2.774 -1.6543  0.2820 -0.8553
   15SOL    HW2   45   1.906   2.008   2.698  1.1605  0.2905  0.4147
   16SOL     OW   46   1.608   1.707   2.955  0.4185  0.3238  0.3370
   16SOL    HW1   47   1.626   1.611   2.998  1.9124 -0.4722 -2.5351
   16SOL    HW2   48   1.666   1.781   2.999 -1.8441  2.0463  0.8382
   17SOL     OW   49   0.151   0.527   0.181  0.2912 -0.3452  0.3133
   17SOL    HW1   50   0.225   0.524   0.113 -1.4145  0.0976  0.8941
   17SOL    HW2   51   0.055   0.548   0.142 -1.5764  0.4094  1.6636
   18SOL     OW   52   0.935   2.961   2.097  0.6957 -0.1975  0.1963
   18SOL    HW1   53   0.859   2.892   2.110 -0.9716 -0.9516 -3.2276
   18SOL    HW2   54   1.002   2.937   2.018 -0.0209 -0.1772  0.9234
   19SOL     OW   55   0.521   0.826   1.890  0.2120 -0.0006  0.1491
   19SOL    HW1   56   0.541   0.776   1.981 -2.2242  0.4352  3.0106
   19SOL    HW2   57   0.612   0.835   1.834  3.0727 -1.7020 -3.7978
   20SOL     OW   58   0.225   2.714   0.832  0.3091 -0.2369  1.1270
   20SOL    HW1   59   0.170   2.794   0.794 -0.3174 -2.3152 -2.5045
   20SOL    HW2   60   0.305   2.693   0.768 -1.0667 -0.7588 -0.0937
   21SOL     OW   61   2.753   0.217   2.093 -0.3545  0.0370  0.1854
   21SOL    HW1   62   2.683   0.159   2.039 -1.9147 -0.4027 -1.4053
   21SOL    HW2   63   2.836   0.163   2.129 -0.1647 -1.6498  1.5622
   22SOL     OW   64   2.372   0.227   0.091  0.4229  0.2167  1.0931
   22SOL    HW1   65   2.372   0.123   0.081 -0.7710  0.1456 -1.5363
   22SOL    HW2   66   2.272   0.272   0.091  1.0841  0.4670 -1.3933
   23SOL     OW   67   2.770   0.645   0.636  0.2105 -0.1280  0.2267
   23SOL    HW1   68   2.781   0.543   0.626 -1.6843 -1.2763 -1.1339
   23SOL    HW2   69   2.750   0.690   0.551  0.1680  1.5019  3.3616
   24SOL     OW   70   0.168   1.912   0.381  0.4252  0.4209 -0.3766
   24SOL    HW1   71   0.109   1.956   0.311  2.3039  2.1856  1.4006
   24SOL    HW2   72   0.273   1.924   0.373  0.7252 -1.1502  2.1619
   25SOL     OW   73   2.210   0.546   0.328 -0.1965  0.3171  0.2199
   25SOL    HW1   74   2.225   0.640   0.280 -0.0655 -1.0100 -0.7172
   25SOL    HW2   75   2.285   0.473   0.331 -0.3467 -2.8617  0.1051
   26SOL     OW   76   2.533   2.103   2.096 -0.0500 -0.1490 -0.4253
   26SOL    HW1   77   2.587   2.163   2.160 -0.7269  0.2253 -0.7367
   26SOL    HW2   78   2.591   2.037   2.031 -0.5139 -1.8438 -1.0285
   27SOL     OW   79   0.602   2.974   0.216  0.0132 -0.2412  0.2319
   27SOL    HW1   80   0.696   2.944   0.191 -0.1725  0.6489  1.6057
   27SOL    HW2   81   0.538   2.978   0.135 -0.7714  1.9731  1.1996
   28SOL     OW   82   1.590   0.158   0.289 -0.3904 -0.0598 -0.2638
   28SOL    HW1   83   1.615   0.137   0.192 -0.7184  0.6901  1.2972
   28SOL    HW2   84   1.614   0.256   0.315  2.1054  0.9836 -0.8260
   29SOL     OW   85   1.952   0.596   0.418  0.4864  0.2105 -0.1527
   29SOL    HW1   86   1.925   0.692   0.448 -2.7356  1.8949  1.8093
   29SOL    HW2   87   2.053   0.584   0.392  0.6474 -0.9159  3.2927
   30SOL     OW   88   0.197   1.993   0.907 -0.0839 -0.3046  0.2824
   30SOL    HW1   89   0.213   2.018   0.808 -0.3487  0.8469 -1.1386
   30SOL    HW2   90   0.111   2.041   0.943 -5.1435 -0.0579 -0.1448
   31SOL     OW   91   2.114   3.067   2.317  0.2112 -0.0621 -0.4730
   31SOL    HW1   92   2.149   3.069   2.416 -0.5298  1.9401  0.2168
   31SOL    HW2   93   2.031   3.007   2.308  1.4283 -0.2500  4.3872
   32SOL     OW   94   2.961   0.105   0.205 -0.1006 -0.5669 -0.8930
   32SOL    HW1   95   2.945   0.014   0.251 -1.1659  1.2887 -0.8879
   32SOL    HW2   96   3.053   0.145   0.234  1.8332  1.7940  0.8640
   33SOL     OW   97   0.943   0.288   0.616  0.1419 -0.7639  0.1269
   33SOL    HW1   98   0.960   0.186   0.587 -0.6859 -1.1078 -0.2645
   33SOL    HW2   99   1.032   0.340   0.633 -1.7550  0.8901 -1.0150
   34SOL     OW  100   0.310   2.790   1.088 -0.5725 -0.5997 -0.4839
   34SOL    HW1  101   0.274   2.759   0.997 -1.8703  0.2137 -1.9258
   34SOL    HW2  102   0.409   2.829   1.074  0.7132 -0.2532  0.1695
   35SOL     OW  103   0.028   0.172   1.858 -0.0484 -0.1687  0.0639
   35SOL    HW1  104   0.064   0.077   1.886 -0.7611  0.4057 -2.1070
   35SOL    HW2  105  -0.029   0.168   1.770  1.5679 -1.0437  0.1225
   36SOL     OW  106   1.967   1.158   1.753 -0.1006 -0.0860 -0.7002
   36SOL    HW1  107   2.011   1.120   1.666 -0.0978  1.7779 -2.1323
   36SOL    HW2  108   2.043   1.214   1.809  1.3494  1.6691  2.6591
   37SOL     OW  109   1.204   0.153   0.908  0.1011  0.0186  0.4792
   37SOL    HW1  110   1.254   0.217   0.970 -0.2298  1.0792 -0.8848
   37SOL    HW2  111   1.261   0.071   0.879  1.2994 -1.5662  1.3683
   38SOL     OW  112   1.083   2.811   2.460 -0.5192 -0.6588  0.4468
   38SOL    HW1  113   1.020   2.739   2.497  1.0263  2.4476  0.7434
   38SOL    HW2  114   1.038   2.900   2.429 -1.9490  0.4882 -3.1353
   39SOL     OW  115   2.310   1.398   3.025 -0.0912 -0.2273 -0.0078
   39SOL    HW1  116   2.407   1.378   3.048 -0.0423 -2.1676  2.1615
   39SOL    HW2  117   2.241   1.372   3.098 -1.9836  0.6567 -2.0807
   40SOL     OW  118   2.095   2.489   2.562  0.2787  0.1831 -0.1657
   40SOL    HW1  119   2.050   2.579   2.569 -1.1505 -2.8012  1.3510
   40SOL    HW2  120   2.024   2.423   2.525 -0.5063 -1.7599  2.7754
   41SOL     OW  121   3.000   0.691   2.818  0.4508 -0.2358  0.4550
   41SOL    HW1  122   2.944   0.770   2.786  1.2374 -1.4713  2.7825
   41SOL    HW2  123   2.947   0.609   2.797 -3.0795  3.0610 -1.5390
   42SOL     OW  124   1.749   1.754   0.517  0.0281 -0.3595 -0.7739
   42SOL    HW1  125   1.722   1.650   0.516  0.6602  0.3335  1.3294
   42SOL    HW2  126   1.786   1.785   0.425 -0.9854 -0.5909 -0.1003
   43SOL     OW  127   0.462   1.690   1.088 -0.1963 -0.0214  0.4118
   43SOL    HW1  128   0.466   1.616   1.163 -0.4983 -1.0037 -2.7154
   43SOL    HW2  129   0.361   1.714   1.066 -2.1867 -0.1262 -1.0790
   44SOL     OW  130   1.839   2.494   3.065 -0.2613 -0.0839  0.0286
   44SOL    HW1  131   1.816   2.581   3.008 -0.3285  0.3229 -1.3931
   44SOL    HW2  132   1.915   2.431   3.029 -1.7660  0.5916 -2.1829
   45SOL     OW  133   0.415   1.944   2.592  0.8378 -0.3740  0.2659
   45SOL    HW1  134   0.333   1.931   2.528  2.0118  1.3997  0.7910
   45SOL    HW2  135   0.469   1.863   2.621  0.3868 -0.2358  0.3862
   46SOL     OW  136   1.251   0.697   0.210 -0.1848  0.2721 -0.0772
   46SOL    HW1  137   1.290   0.777   0.156  1.7387  1.3700 -0.6231
   46SOL    HW2  138   1.151   0.695   0.211 -0.7187 -1.3029 -3.1663
   47SOL     OW  139   0.228   2.487   1.597  0.1716  0.2719  0.2874
   47SOL    HW1  140   0.225   2.387   1.605  1.8211  0.7401 -2.6754
   47SOL    HW2  141   0.191   2.518   1.503  0.9252  2.4874  3.1393
   48SOL     OW  142   2.637   0.638   0.128  0.4268  0.4504 -0.0097
   48SOL    HW1  143   2.584   0.609   0.218  0.1766  1.6966  2.5286
   48SOL    HW2  144   2.732   0.673   0.147  2.9391 -2.3621  0.0954
   49SOL     OW  145   0.322   0.786   1.702  0.1284  0.4856  0.1373
   49SOL    HW1  146   0.390   0.797   1.783  0.8001 -3.4763  0.7403
   49SOL    HW2  147   0.353   0.714   1.630 -1.7565  0.0284  0.4653
   50SOL     OW  148   1.679   1.116   0.277 -0.2041  0.6623  0.2676
   50SOL    HW1  149   1.701   1.015   0.246 -1.1263 -1.7306 -1.0212
   50SOL    HW2  150   1.626   1.115   0.370 -2.2433  0.8106  2.8295
   51SOL     OW  151   2.904   1.885   0.321  0.2518  0.1266 -0.2140
   51SOL    HW1  152   2.830   1.838   0.268 -2.3239 -0.5238  0.3252
   51SOL    HW2  153   2.965   1.821   0.366 -2.5062  0.0393 -2.4842
   52SOL     OW  154   0.786   2.006   0.488  0.1168 -0.3988  0.0956
   52SOL    HW1  155   0.700   2.061   0.519 -2.8099  0.6075  2.8439
   52SOL    HW2  156   0.826   1.947   0.565 -0.7197  0.2476  1.8246
   53SOL     OW  157   0.183   0.420   1.605 -0.3655 -0.3003  0.5479
   53SOL    HW1  158   0.258   0.496   1.601 -0.0080  1.6028 -1.2599
   53SOL    HW2  159   0.085   0.454   1.597 -0.6554 -0.0961 -0.2747
   54SOL     OW  160   1.782   0.482   3.056  0.3074  0.0952 -0.0841
   54SOL    HW1  161   1.821   0.457   3.148  1.4088 -0.1367 -0.0826
   54SOL    HW2  162   1.677   0.476   3.062  0.2174  0.6803 -0.5002
   55SOL     OW  163   0.783   2.894   0.683 -0.2630 -0.3149  0.0822
   55SOL    HW1  164   0.713   2.973   0.687 -0.1900  0.1018  0.8948
   55SOL    HW2  165   0.885   2.913   0.666  0.3305 -0.5379 -0.5212
   56SOL     OW  166   0.479   1.612   0.036  0.3186  0.5210 -0.0175
   56SOL    HW1  167   0.394   1.662   0.019  3.3663 -1.0137 -0.3243
   56SOL    HW2  168   0.486   1.520  -0.015  1.4425 -1.9302 -0.2182
   57SOL     OW  169   1.734   2.522   2.539  0.0339  0.0359 -0.8646
   57SOL    HW1  170   1.778   2.432   2.519 -3.2839 -0.5070  0.5910
   57SOL    HW2  171   1.646   2.508   2.597 -4.5187 -2.5658 -0.2756
   58SOL     OW  172   0.638   0.303   1.040  0.4273 -0.1531  0.0718
   58SOL    HW1  173   0.533   0.292   1.016 -2.0432 -1.7232  1.2195
   58SOL    HW2  174   0.678   0.216   1.078 -2.3966 -1.4542  1.2138
   59SOL     OW  175   0.454   2.437   2.750  0.1534  0.3947 -0.1928
   59SOL    HW1  176   0.470   2.357   2.688 -3.3192  3.3661  1.6130
   59SOL    HW2  177   0.522   2.444   2.827 -0.0524  2.3554  0.8750
   60SOL     OW  178   2.291   2.056   2.196 -0.1308 -0.2056  0.0332
   60SOL    HW1  179   2.389   2.074   2.153  0.9341  1.7688 -0.6793
   60SOL    HW2  180   2.287   2.074   2.305 -0.2406  2.3048  0.4925
   61SOL     OW  181   1.326   0.635   0.506  0.2340 -0.0703  0.3042
   61SOL    HW1  182   1.256   0.703   0.549  0.2697 -1.6292 -0.3972
   61SOL    HW2  183   1.353   0.659   0.408 -0.3239 -0.7315  3.0932
   62SOL     OW  184   2.773   1.812   2.910  0.0182  0.3872 -0.2166
   62SOL    HW1  185   2.768   1.708   2.907 -0.6888 -2.2724  0.1767
   62SOL    HW2  186   2.843   1.854   2.849 -1.6787 -0.2859  0.0820
   63SOL     OW  187   0.617   0.921   0.167 -0.3774  0.3269 -0.4687
   63SOL    HW1  188   0.616   0.952   0.067  2.3026 -0.9485  1.4445
   63SOL    HW2  189   0.703   0.943   0.220 -1.2784 -2.6870 -1.9446
   64SOL     OW  190   0.121   0.499   2.468 -0.5368 -0.3513 -0.1330
   64SOL    HW1  191   0.199   0.460   2.521  2.1668 -3.0054 -0.5870
   64SOL    HW2  192   0.124   0.602   2.471 -2.7228 -1.3180  1.2489
   65SOL     OW  193   0.178   1.484   0.556 -1.1249 -0.2187  0.0216
   65SOL    HW1  194   0.220   1.555   0.625  4.2181  0.6772 -2.2211
   65SOL    HW2  195   0.242   1.471   0.474  0.0210 -2.2268  1.1114
   66SOL     OW  196   2.549   0.387   0.595  0.2744  0.1742  0.3181
   66SOL    HW1  197   2.644   0.394   0.642  0.8140 -0.0123  3.0310
   66SOL    HW2  198   2.488   0.319   0.647  0.4026  0.5001 -1.4129
   67SOL     OW  199   0.530   2.533   1.364  0.3360 -0.3099 -0.0394
   67SOL    HW1  200   0.616   2.509   1.411  0.3491 -0.0852 -0.6982
   67SOL    HW2  201   0.459   2.459   1.371 -3.4220  2.2829 -2.1502
   68SOL     OW  202   1.012   1.090   2.448  0.4838 -0.3267 -0.0262
   68SOL    HW1  203   1.056   0.999   2.428  1.4404  1.1967  0.5843
   68SOL    HW2  204   0.934   1.104   2.382  0.9457 -0.9297  0.4981
   69SOL     OW  205   0.749   2.773   2.162  0.0276 -0.6096 -0.0953
   69SOL    HW1  206   0.792   2.681   2.130 -2.5840 -2.0482 -0.3839
   69SOL    HW2  207   0.649   2.763   2.179  0.2369 -0.5332 -0.8948
   70SOL     OW  208   0.541   0.331   2.695 -0.7809 -0.0131  0.4627
   70SOL    HW1  209   0.456   0.372   2.744 -0.1772  0.2969  0.7260
   70SOL    HW2  210   0.560   0.229   2.716  2.4841 -0.3502 -1.5334
   71SOL     OW  211   1.075   1.735   0.386  0.0137  0.2352  0.7126
   71SOL    HW1  212   0.997   1.677   0.423  4.4232  1.7265  1.3617
   71SOL    HW2  213   1.051   1.777   0.292 -0.7462  1.6774 -0.4582
   72SOL     OW  214   1.833   0.174   2.127  0.3144  0.3095  0.3050
   72SOL    HW1  215   1.926   0.209   2.166  3.3066  0.8896  0.3119
   72SOL    HW2  216   1.829   0.072   2.109  1.0413  0.6087  0.1430
   73SOL     OW  217   2.823   2.163   2.418  0.0088 -0.4514 -0.0146
   73SOL    HW1  218   2.808   2.075   2.366 -1.8897 -0.6283 -1.2354
   73SOL    HW2  219   2.837   2.152   2.527 -1.5277  2.1745 -2.3374
   74SOL     OW  220   2.720   2.906   2.109 -0.6246  0.4819  0.3728
   74SOL    HW1  221   2.661   2.914   2.195 -2.0492  0.2456  2.6633
   74SOL    HW2  222   2.815   2.939   2.126  1.7949 -1.9802  2.2146
   75SOL     OW  223   0.908   0.756   1.095  0.2731  0.3343  0.0517
   75SOL    HW1  224   0.829   0.783   1.034 -1.0106 -1.0474  0.7000
   75SOL    HW2  225   0.916   0.801   1.186  0.2874 -1.6881  0.5480
   76SOL     OW  226   1.700   1.232   2.498  0.2989 -0.4619  0.1627
   76SOL    HW1  227   1.612   1.179   2.519 -0.4159  0.8270  0.7474
   76SOL    HW2  228   1.688   1.322   2.539 -2.8784 -2.3466 -1.1050
   77SOL     OW  229   2.997   0.914   0.974  0.0065  0.1971 -0.2184
   77SOL    HW1  230   2.946   0.825   0.991 -2.1009 -1.4357 -2.7550
   77SOL    HW2  231   3.069   0.942   1.049  1.5559 -0.9287  0.9553
   78SOL     OW  232   2.097   1.439   1.524  0.0518  0.7248 -0.7684
   78SOL    HW1  233   2.199   1.459   1.516 -1.2055  0.4254 -0.4645
   78SOL    HW2  234   2.058   1.428   1.430 -0.1757 -1.9140 -0.7599
   79SOL     OW  235   0.610   1.340   0.871 -0.4650  0.9213  0.1085
   79SOL    HW1  236   0.519   1.377   0.902 -0.0409 -2.5733 -0.6107
   79SOL    HW2  237   0.598   1.290   0.779  1.4087 -0.9209 -1.4546
   80SOL     OW  238   0.620   0.476   1.574 -0.2026 -0.4545  0.0206
   80SOL    HW1  239   0.680   0.536   1.513  1.4039 -1.7022 -0.3913
   80SOL    HW2  240   0.636   0.372   1.564 -0.9142  1.0584  2.9083
   81SOL     OW  241   1.042   1.385   2.624 -0.0624  0.4604  0.0741
   81SOL    HW1  242   1.050   1.296   2.569  0.6400 -1.3351  1.4340
   81SOL    HW2  243   0.971   1.449   2.586  1.7470 -0.6649  2.7686
   82SOL     OW  244   1.011   2.940   1.499  0.4052 -0.1351  0.2033
   82SOL    HW1  245   1.024   2.993   1.410 -0.9372  0.2541 -1.2445
   82SOL    HW2  246   0.923   2.884   1.497 -1.6667  1.6634  0.4353
   83SOL     OW  247   2.743   2.489   0.843  0.0973 -0.3745  0.0549
   83SOL    HW1  248   2.669   2.428   0.793  0.3202 -1.0825  1.1537
   83SOL    HW2  249   2.731   2.587   0.827  0.4177 -2.0401  0.5233
   84SOL     OW  250   0.653   3.059   2.355 -0.3699  0.1213  0.4649
   84SOL    HW1  251   0.579   3.070   2.430 -1.3872 -0.3099  0.9378
   84SOL    HW2  252   0.708   2.974   2.367 -3.4819  3.1197  0.1571
   85SOL     OW  253   0.309   1.579   1.510 -0.3868 -0.5400 -0.2506
   85SOL    HW1  254   0.273   1.675   1.514  2.4560  0.8212  1.7062
   85SOL    HW2  255   0.369   1.551   1.593  0.8891  1.8696  1.0361
   86SOL     OW  256   0.382   0.988   1.518  0.0881  0.3035  0.1619
   86SOL    HW1  257   0.364   0.937   1.429 -1.2042 -0.5897  2.8421
   86SOL    HW2  258   0.368   0.924   1.600 -1.8001  1.8024 -0.2269
   87SOL     OW  259   1.613   0.657   0.219 -0.1067 -0.0433  0.2878
   87SOL    HW1  260   1.680   0.736   0.200  0.0961 -3.0580  0.6538
   87SOL    HW2  261   1.587   0.613   0.130  1.4915 -0.5156 -1.7828
   88SOL     OW  262   1.604   1.357   0.205 -0.1726 -0.0105  0.2857
   88SOL    HW1  263   1.632   1.261   0.239 -0.4203 -0.3537 -0.8970
   88SOL    HW2  264   1.504   1.391   0.217  1.8382  0.5021  1.5978
   89SOL     OW  265   0.031   0.425   0.576 -0.2464 -0.0257 -0.3441
   89SOL    HW1  266   0.094   0.347   0.610 -0.1886  1.0538  1.3389
   89SOL    HW2  267  -0.065   0.395   0.554 -0.8166  0.1903 -0.7837
   90SOL     OW  268   0.901   1.625   0.042 -0.0157 -0.0601  0.6035
   90SOL    HW1  269   0.830   1.588   0.107 -0.3397  1.6314  2.4390
   90SOL    HW2  270   0.878   1.601  -0.058  1.0459 -1.6869  0.8389
   91SOL     OW  271   1.221   1.441   1.761  0.0192 -0.4419  0.4211
   91SOL    HW1  272   1.191   1.503   1.837 -1.4108  0.5276  1.5387
   91SOL    HW2  273   1.318   1.415   1.761 -0.6375 -2.4733 -0.8537
   92SOL     OW  274   0.034   0.979   1.210 -0.5232  0.1151  0.2878
   92SOL    HW1  275   0.072   1.068   1.171  0.2208 -0.5537  0.9994
   92SOL    HW2  276   0.051   0.971   1.312  0.4198  0.4698  0.8768
   93SOL     OW  277   0.015   2.734   3.091 -0.3545 -0.5563 -0.3647
   93SOL    HW1  278  -0.070   2.750   3.028 -0.4153  0.1522 -0.2776
   93SOL    HW2  279   0.013   2.635   3.128 -0.8001  0.2916  1.4718
   94SOL     OW  280   1.511   1.462   1.763 -0.2520  0.8490  0.2154
   94SOL    HW1  281   1.587   1.393   1.770 -1.9771  1.3626  0.4490
   94SOL    HW2  282   1.542   1.551   1.814 -1.1898  0.9145  2.0551
   95SOL     OW  283   1.388   2.544   3.019 -0.2442  0.7336 -0.5003
   95SOL    HW1  284   1.300   2.524   3.068  1.3199  1.0652 -1.2736
   95SOL    HW2  285   1.425   2.463   2.965  1.4213 -1.0289  1.3161
   96SOL     OW  286   0.525   2.088   1.281 -0.1498  0.2661 -0.9447
   96SOL    HW1  287   0.519   2.081   1.175 -0.4457  0.4408 -1.7955
   96SOL    HW2  288   0.564   2.004   1.325 -0.9063 -1.2132  0.7972
   97SOL     OW  289   0.383   1.651   2.444  0.2295 -0.1822 -0.1724
   97SOL    HW1  290   0.285   1.686   2.429 -2.4541 -0.8992  1.3366
   97SOL    HW2  291   0.407   1.651   2.546  0.3382 -0.8429 -1.5437
   98SOL     OW  292   1.983   1.602   1.240  0.0544  0.0452  0.1305
   98SOL    HW1  293   1.916   1.575   1.317  0.6698 -0.6171 -0.4157
   98SOL    HW2  294   1.968   1.547   1.154  0.7422 -0.1971 -0.3269
   99SOL     OW  295   2.443   2.083   1.391 -0.1123 -0.4637 -0.4077
   99SOL    HW1  296   2.402   2.088   1.487 -1.6636 -0.3140 -0.1151
   99SOL    HW2  297   2.456   1.985   1.357 -2.0050 -1.3653  0.5106
  100SOL     OW  298   2.331   0.306   2.093  0.0430 -0.3821  0.3007
  100SOL    HW1  299   2.275   0.281   2.176  2.0090  0.4806 -2.4798
  100SOL    HW2  300   2.418   0.360   2.111 -2.3220  2.9777 -1.5327
  101SOL     OW  301   0.350   1.512   0.307  0.2053  0.6126  0.7909
  101SOL    HW1  302   0.417   1.513   0.390 -0.1762 -0.6611  0.5254
  101SOL    HW2  303   0.388   1.564   0.225  1.2419 -2.6609  0.8337
  102SOL     OW  304   2.263   1.021   0.842 -0.5276  0.4840 -0.6220
  102SOL    HW1  305   2.210   0.929   0.819 -0.6331 -0.4779 -2.6795
  102SOL    HW2  306   2.273   1.085   0.761 -2.2365  3.0053 -1.7601
  103SOL     OW  307   2.280   0.036   0.397 -0.1277  0.2310  0.1509
  103SOL    HW1  308   2.275   0.134   0.364 -2.9545  1.8642 -2.0620
  103SOL    HW2  309   2.378   0.004   0.423 -0.0785 -1.2892 -1.7468
  104SOL     OW  310   0.130   1.775   2.182 -0.1720 -0.1888  0.1309
  104SOL    HW1  311   0.175   1.742   2.090 -1.5547 -0.8093 -0.5876
  104SOL    HW2  312   0.030   1.771   2.166  1.2740 -1.1702 -0.6393
  105SOL     OW  313   1.243   2.124   0.798 -0.5609 -0.2581 -0.0039
  105SOL    HW1  314   1.185   2.140   0.713  1.7949  0.3863 -2.2775
  105SOL    HW2  315   1.288   2.029   0.797 -1.0036 -0.7424  1.2730
  106SOL     OW  316   2.150   0.432   1.430 -0.5988 -0.4271  0.0431
  106SOL    HW1  317   2.095   0.343   1.435 -0.2263  0.0192  1.8663
  106SOL    HW2  318   2.144   0.485   1.519  0.5306 -0.0385 -2.1370
  107SOL     OW  319   1.758   3.047   1.167  0.9705 -0.5463  0.4787
  107SOL    HW1  320   1.788   3.122   1.229  0.6758 -2.1621 -1.0979
  107SOL    HW2  321   1.724   2.964   1.220  0.5890 -0.2869  1.6252
  108SOL     OW  322   0.795   2.779   1.199 -0.1308  0.1160  0.0676
  108SOL    HW1  323   0.805   2.769   1.304 -0.6167  0.5509  1.4154
  108SOL    HW2  324   0.886   2.798   1.155 -0.2511 -0.7193 -0.9274
  109SOL     OW  325   2.178   0.130   0.714 -1.0436  0.3929 -0.4105
  109SOL    HW1  326   2.081   0.106   0.686 -1.6219 -0.6730  0.7428
  109SOL    HW2  327   2.195   0.095   0.812 -0.6151 -2.8441 -0.8058
  110SOL     OW  328   0.475   2.860   2.771  0.1134  0.1582 -0.0986
  110SOL    HW1  329   0.445   2.886   2.676 -1.1057 -1.3357 -2.5779
  110SOL    HW2  330   0.561   2.798   2.769  0.7783 -0.2523  1.1986
  111SOL     OW  331   1.298   0.551   2.324 -0.1519  0.6718  0.5475
  111SOL    HW1  332   1.209   0.567   2.378  1.6786  1.1325 -0.3240
  111SOL    HW2  333   1.358   0.482   2.373 -1.4210 -0.2272 -0.3552
  112SOL     OW  334   1.716   0.554   1.481  0.2160 -0.2696 -0.3618
  112SOL    HW1  335   1.736   0.547   1.377 -2.3087 -1.2852 -3.4002
  112SOL    HW2  336   1.702   0.465   1.532  0.6066 -0.5877 -0.9606
  113SOL     OW  337   2.259   1.668   1.775  0.4010 -0.2008  0.3091
  113SOL    HW1  338   2.285   1.573   1.744 -0.5507 -1.6207  1.0999
  113SOL    HW2  339   2.294   1.685   1.872  0.4215  1.6801  0.7058
  114SOL     OW  340   0.359   0.539   1.257 -0.3776  0.1491 -0.6280
  114SOL    HW1  341   0.412   0.591   1.182  0.7764  1.7771 -1.5969
  114SOL    HW2  342   0.256   0.554   1.248 -1.9748 -1.0287 -0.0392
  115SOL     OW  343   2.772   1.584   1.291 -0.5639  0.1075 -0.4060
  115SOL    HW1  344   2.793   1.482   1.283 -2.3159 -0.4732  0.2874
  115SOL    HW2  345   2.754   1.625   1.201 -0.9843 -1.3306  2.6959
  116SOL     OW  346   1.860   1.043   0.730  0.1404 -0.4555  0.4788
  116SOL    HW1  347   1.784   1.000   0.671  0.0766 -0.3655 -0.8308
  116SOL    HW2  348   1.836   1.136   0.777  1.6627  0.6082 -0.9593
  117SOL     OW  349   1.189   0.417   0.610  0.1250 -0.4939 -0.7851
  117SOL    HW1  350   1.231   0.427   0.706 -1.2246  1.0968 -3.2374
  117SOL    HW2  351   1.215   0.489   0.538  1.4487  1.4904 -2.3281
  118SOL     OW  352   1.117   1.108   1.069 -0.1060 -0.1912  0.0605
  118SOL    HW1  353   1.085   1.029   1.136 -2.1220 -3.3834  1.4435
  118SOL    HW2  354   1.155   1.193   1.116 -2.3252 -2.9956 -1.6939
  119SOL     OW  355   1.809   1.616   2.157  0.1870 -0.3208 -0.3065
  119SOL    HW1  356   1.806   1.720   2.172 -0.7636  1.8463  0.9415
  119SOL    HW2  357   1.899   1.575   2.152 -2.2597  1.2233  1.3400
  120SOL     OW  358   2.940   2.862   0.156 -0.1354  1.0831  0.2087
  120SOL    HW1  359   3.022   2.809   0.119  0.5123 -1.0195 -0.6659
  120SOL    HW2  360   2.847   2.816   0.138  2.1432  2.0755 -0.0919
  121SOL     OW  361   2.004   0.759   2.293 -0.1282 -0.0587 -0.4689
  121SOL    HW1  362   2.000   0.824   2.216 -0.2777  0.3914  2.3022
  121SOL    HW2  363   2.024   0.660   2.260 -1.7069 -1.8013 -0.6515
  122SOL     OW  364   2.631   2.675   1.221 -0.4700 -0.3331  0.0513
  122SOL    HW1  365   2.710   2.613   1.192 -0.8125 -0.4331  1.2425
  122SOL    HW2  366   2.594   2.728   1.146  0.0852 -0.3640  0.4876
  123SOL     OW  367   1.762   0.093   1.707 -0.2558 -0.3538  0.3714
  123SOL    HW1  368   1.780  -0.002   1.674 -0.0329  2.1722  0.1740
  123SOL    HW2  369   1.837   0.126   1.771  0.3561  0.7949  1.1221
  124SOL     OW  370   0.123   0.452   1.081 -0.0634  0.1599 -0.1554
  124SOL    HW1  371   0.097   0.516   1.155  0.2108  3.0835  0.3765
  124SOL    HW2  372   0.099   0.484   0.988  1.1737 -0.4916  3.0722
  125SOL     OW  373   0.850   1.857   0.701  0.0741  0.2887 -0.0516
  125SOL    HW1  374   0.940   1.799   0.712  1.3470 -2.3784  1.1695
  125SOL    HW2  375   0.818   1.895   0.793  0.3419  0.5951  0.4177
  126SOL     OW  376   1.874   2.291   2.463 -0.1510 -0.1097 -0.4528
  126SOL    HW1  377   1.934   2.269   2.381 -0.0565  0.7295 -1.6582
  126SOL    HW2  378   1.821   2.207   2.496  0.3159 -0.1960  0.8681
  127SOL     OW  379   0.924   0.895   0.285  0.9872 -0.2268 -0.0891
  127SOL    HW1  380   0.948   0.963   0.362  3.3857  1.9699 -1.5168
  127SOL    HW2  381   0.951   0.800   0.312 -2.2582  0.3056 -0.2901
  128SOL     OW  382   0.908   0.257   1.391 -0.0670 -0.0892 -0.5646
  128SOL    HW1  383   0.900   0.322   1.312 -1.1695 -2.5677  0.1184
  128SOL    HW2  384   0.871   0.157   1.364 -0.3616  2.3146 -0.2029
  129SOL     OW  385   1.825   0.726   1.891  0.5374 -0.0005 -0.2933
  129SOL    HW1  386   1.830   0.729   1.789  0.5615  0.1051  1.9215
  129SOL    HW2  387   1.882   0.798   1.942  2.1679  4.3402  0.5969
  130SOL     OW  388   1.360   2.217   1.018 -0.0303  0.5113 -0.1329
  130SOL    HW1  389   1.317   2.179   0.926 -0.7077  0.3282 -2.2180
  130SOL    HW2  390   1.444   2.277   0.999  0.2876 -0.5411 -1.7539
  131SOL     OW  391   3.029   1.433   1.354  0.0584  0.5484  0.1409
  131SOL    HW1  392   2.968   1.346   1.367  0.4940  0.2007  0.7975
  131SOL    HW2  393   3.131   1.406   1.339  1.8599  3.0783 -1.4663
  132SOL     OW  394   2.040   2.445   0.518 -0.7006 -0.0902 -0.3793
  132SOL    HW1  395   1.938   2.459   0.521  0.8159  0.2721 -0.0229
  132SOL    HW2  396   2.070   2.364   0.579  0.1318 -1.0392  2.9479
  133SOL     OW  397   1.890   2.334   2.830 -0.3006  0.3496  0.6016
  133SOL    HW1  398   1.802   2.377   2.865  0.9679 -1.3356  1.4357
  133SOL    HW2  399   1.921   2.367   2.736  2.5093 -0.3152  0.3997
  134SOL     OW  400   2.685   2.337   1.671 -0.1908  0.3162 -0.5130
  134SOL    HW1  401   2.614   2.331   1.750  0.2845 -0.9125  1.5264
  134SOL    HW2  402   2.739   2.427   1.675 -0.5984  0.6092  0.8182
  135SOL     OW  403   0.692   1.477   2.669 -0.6460  0.0626  0.9102
  135SOL    HW1  404   0.654   1.392   2.711  0.4406  5.3700  0.0597
  135SOL    HW2  405   0.729   1.457   2.577  0.0187 -1.4749  0.2361
  136SOL     OW  406   1.225   1.976   0.416  0.5595  0.4723 -0.4058
  136SOL    HW1  407   1.165   2.040   0.474 -2.9108  0.0255 -1.4179
  136SOL    HW2  408   1.183   1.878   0.408 -1.0425 -1.8053  1.4020
  137SOL     OW  409   0.432   1.144   2.154  0.0020  0.2246  0.3102
  137SOL    HW1  410   0.336   1.143   2.198  0.6960  1.8103 -0.9710
  137SOL    HW2  411   0.488   1.059   2.172 -3.6406  0.7677  0.6369
  138SOL     OW  412   2.427   1.544   0.256  0.6867  0.6943 -0.4466
  138SOL    HW1  413   2.329   1.512   0.242  2.0224 -0.6979  1.1335
  138SOL    HW2  414   2.494   1.471   0.276 -0.8629  0.2494  0.0641
  139SOL     OW  415   1.864   2.621   1.283  0.0856 -0.5236 -0.3963
  139SOL    HW1  416   1.757   2.633   1.258 -2.1114  1.4438  0.5377
  139SOL    HW2  417   1.880   2.521   1.310 -0.1861 -0.2229 -0.2216
  140SOL     OW  418   3.013   2.963   2.550  0.3407  0.4240 -0.2762
  140SOL    HW1  419   3.050   2.868   2.557  1.1609  3.3763 -0.2473
  140SOL    HW2  420   3.084   3.036   2.573 -0.2469 -0.9397 -0.4959
  141SOL     OW  421   1.319   1.680   1.636 -0.1211 -0.3772 -0.1023
  141SOL    HW1  422   1.229   1.710   1.679  0.4553  0.4325  0.4155
  141SOL    HW2  423   1.381   1.640   1.709  0.5758  1.8742 -1.5947
  142SOL     OW  424   1.581   0.585   2.252  0.3106  0.2176  0.6317
  142SOL    HW1  425   1.588   0.568   2.151  0.4820  0.6989  0.5927
  142SOL    HW2  426   1.478   0.600   2.276 -2.3311  0.1746 -0.4553
  143SOL     OW  427   2.750   0.905   0.488 -0.2593 -0.2405  0.4767
  143SOL    HW1  428   2.809   0.952   0.415 -1.3395 -0.0599  2.2370
  143SOL    HW2  429   2.768   0.946   0.582  0.5476  2.0641 -1.3480
  144SOL     OW  430   2.921   1.184   1.474  0.2717 -0.2668 -0.2087
  144SOL    HW1  431   2.878   1.151   1.565 -0.5468 -0.3590  0.9310
  144SOL    HW2  432   2.965   1.111   1.415  2.1985 -1.8546 -1.1871
  145SOL     OW  433   1.026   1.846   0.147 -0.4832 -0.5184  0.7447
  145SOL    HW1  434   1.071   1.908   0.076  0.5348 -0.9235  0.3354
  145SOL    HW2  435   0.988   1.760   0.098 -0.1821 -1.5329 -0.4966
  146SOL     OW  436   2.507   0.677   1.508  0.4824 -0.2252  0.0082
  146SOL    HW1  437   2.479   0.607   1.435 -2.4844  1.2692 -0.2234
  146SOL    HW2  438   2.465   0.770   1.473 -0.7990  2.2124 -0.3905
  147SOL     OW  439   1.114   2.464   0.618 -0.6224 -0.5838 -0.0130
  147SOL    HW1  440   1.101   2.527   0.535  0.5033 -1.9920 -0.1495
  147SOL    HW2  441   1.181   2.395   0.588 -0.7856  2.9747 -2.3867
  148SOL     OW  442   1.685   1.457   3.036 -0.1806  0.0288 -0.1035
  148SOL    HW1  443   1.677   1.374   2.968 -0.2874 -3.1299  0.3885
  148SOL    HW2  444   1.650   1.426   3.130 -0.4099 -2.0527 -0.0390
  149SOL     OW  445   0.709   1.417   1.963  0.4900 -0.4307  0.0999
  149SOL    HW1  446   0.615   1.392   1.998 -1.0525 -1.1802  1.1673
  149SOL    HW2  447   0.727   1.380   1.866  0.0775  3.1514 -1.9247
  150SOL     OW  448   3.036   1.254   0.941 -0.4234 -0.1138 -0.2519
  150SOL    HW1  449   3.116   1.273   1.008 -0.0010 -0.4887 -2.2659
  150SOL    HW2  450   2.970   1.181   0.977  0.0109 -1.7975 -0.9221
  151SOL     OW  451   0.226   0.724   2.145 -0.2845 -0.0864  0.3073
  151SOL    HW1  452   0.217   0.804   2.080 -1.4357  0.5660  1.4037
  151SOL    HW2  453   0.238   0.633   2.099 -1.2976 -0.3733  1.2725
  152SOL     OW  454   1.409   1.765   1.285  0.5178  0.3044  0.1088
  152SOL    HW1  455   1.447   1.858   1.300 -0.0552 -0.6910 -1.4288
  152SOL    HW2  456   1.308   1.764   1.258 -1.6652 -0.5233 -0.3015
  153SOL     OW  457   3.095   1.508   0.155  0.3912 -0.3345 -0.2807
  153SOL    HW1  458   3.121   1.409   0.171  0.4916 -0.2039 -0.7973
  153SOL    HW2  459   3.105   1.566   0.243 -0.4083  1.9935 -0.5498
  154SOL     OW  460   2.371   1.860   2.764 -0.0422 -0.2099  0.5666
  154SOL    HW1  461   2.371   1.756   2.783  1.3127 -1.2339  2.0460
  154SOL    HW2  462   2.428   1.886   2.680  1.6030  0.8001 -0.9938
  155SOL     OW  463   2.442   1.213   0.404  0.4214 -0.2464  0.1320
  155SOL    HW1  464   2.537   1.203   0.373 -0.7971  2.3241  2.0258
  155SOL    HW2  465   2.372   1.177   0.336  1.0915 -0.8058  1.6719
  156SOL     OW  466   2.533   0.967   0.872 -0.4291  0.0311  0.2511
  156SOL    HW1  467   2.435   1.009   0.862  0.9382 -1.1681  0.0709
  156SOL    HW2  468   2.601   1.007   0.806 -0.3584 -0.5411 -0.0942
  157SOL     OW  469   1.294   2.939   3.041  0.2581 -0.4158 -0.5880
  157SOL    HW1  470   1.340   2.910   2.953 -0.8194  0.2085  0.5004
  157SOL    HW2  471   1.345   3.015   3.079 -1.6313 -1.8742 -2.3539
  158SOL     OW  472   1.033   1.828   1.912 -0.1866 -0.2025 -0.2682
  158SOL    HW1  473   1.069   1.921   1.878 -1.1380 -2.0947  0.1301
  158SOL    HW2  474   0.934   1.837   1.950 -2.7838 -1.1524 -3.2887
  159SOL     OW  475   0.820   0.441   1.206 -0.1207  0.2255 -0.1124
  159SOL    HW1  476   0.795   0.517   1.275  1.8177  1.0107 -1.7477
  159SOL    HW2  477   0.754   0.443   1.121 -1.1638  0.1289 -3.3954
  160SOL     OW  478   1.397   2.314   1.590  0.0887 -0.4344 -0.2698
  160SOL    HW1  479   1.398   2.380   1.669  0.8181  0.3082 -0.0446
  160SOL    HW2  480   1.493   2.302   1.550 -2.7284  1.4803 -2.9126
  161SOL     OW  481   0.085   2.934   0.303  0.5305  0.0599  0.0274
  161SOL    HW1  482   0.006   2.870   0.281  3.0379 -0.8975 -0.8653
  161SOL    HW2  483   0.113   2.977   0.218 -0.5153  0.8562  0.1040
  162SOL     OW  484   2.493   1.903   0.470  0.2610 -0.1753  0.1453
  162SOL    HW1  485   2.507   1.836   0.386  0.2689 -1.0628 -2.4546
  162SOL    HW2  486   2.492   1.846   0.560 -0.1612  1.3557 -0.0410
  163SOL     OW  487   1.887   2.816   0.714  0.3254  0.3677 -0.5139
  163SOL    HW1  488   1.871   2.813   0.612 -0.6931  1.9140 -1.1021
  163SOL    HW2  489   1.951   2.740   0.745  0.4747 -1.2654 -3.5672
  164SOL     OW  490   3.079   0.227   1.186 -0.2739  0.2098  0.6148
  164SOL    HW1  491   3.127   0.310   1.159 -0.3526 -3.2073 -0.8651
  164SOL    HW2  492   3.121   0.171   1.261  1.0989  0.4202 -1.2448
  165SOL     OW  493   0.941   1.435   0.739  0.5693  0.3597  0.4514
  165SOL    HW1  494   0.881   1.487   0.810 -3.0057  1.3737  0.2454
  165SOL    HW2  495   0.900   1.449   0.644 -2.2328  1.3104  3.8183
  166SOL     OW  496   1.493   1.099   1.720 -0.1142  0.0422 -0.6081
  166SOL    HW1  497   1.435   1.040   1.782 -1.0802 -0.7577 -0.3032
  166SOL    HW2  498   1.569   1.158   1.764  0.7995 -0.5581  1.7241
  167SOL     OW  499   0.727   1.937   1.444 -0.0833 -0.0459  0.2518
  167SOL    HW1  500   0.745   1.994   1.528 -0.4129  0.9214  1.0142
  167SOL    HW2  501   0.719   1.837   1.464  1.3236  1.7738 -0.9037
  168SOL     OW  502   1.635   2.377   0.160  0.1065  0.0017 -0.0187
  168SOL    HW1  503   1.704   2.437   0.103  0.4978  1.6027  1.2329
  168SOL    HW2  504   1.668   2.332   0.250  1.9847  1.4965 -0.1899
  169SOL     OW  505   0.165   2.550   2.223  0.3741 -0.1633 -0.2851
  169SOL    HW1  506   0.206   2.514   2.133  1.2619 -1.9872  0.7637
  169SOL    HW2  507   0.184   2.500   2.309 -0.0332 -1.3366  0.2104
  170SOL     OW  508   1.137   0.229   1.989 -0.5915  0.1961 -0.0871
  170SOL    HW1  509   1.201   0.224   2.072  0.9464 -1.4531  1.6001
  170SOL    HW2  510   1.175   0.170   1.913 -0.8687  0.0055 -0.5182
  171SOL     OW  511   0.209   0.779   2.426  0.2788 -0.5206 -0.4675
  171SOL    HW1  512   0.128   0.831   2.461  2.4129  0.2225  1.1062
  171SOL    HW2  513   0.209   0.784   2.323 -3.5329 -0.2865  2.1957
  172SOL     OW  514   0.928   1.052   2.904  0.1255 -0.1789 -0.0826
  172SOL    HW1  515   1.001   1.125   2.923 -1.4267  0.7912  0.4606
  172SOL    HW2  516   0.896   1.052   2.802  0.9420  0.1485 -2.5234
  173SOL     OW  517   0.648   2.680   0.098 -0.1039  0.3939  0.5217
  173SOL    HW1  518   0.641   2.759   0.031 -0.0284  2.4344  0.1863
  173SOL    HW2  519   0.550   2.639   0.128 -3.5937 -1.1590  0.0656
  174SOL     OW  520   1.446   2.834   1.098  0.1885 -0.2327 -0.0663
  174SOL    HW1  521   1.411   2.917   1.049  0.0611  0.7463 -0.5368
  174SOL    HW2  522   1.464   2.752   1.031  2.8668  2.1944 -2.1816
  175SOL     OW  523   0.383   0.040   1.683  0.0679 -0.9119 -0.4893
  175SOL    HW1  524   0.449   0.067   1.757  0.7559 -0.2287 -0.2582
  175SOL    HW2  525   0.380   0.109   1.606 -0.6639 -1.9045 -2.0344
  176SOL     OW  526   2.586   0.382   0.005  0.0326 -0.2815  0.2357
  176SOL    HW1  527   2.578   0.474   0.057  3.2190  3.7765 -2.9791
  176SOL    HW2  528   2.512   0.315   0.032  3.1376  1.9089  0.5014
  177SOL     OW  529   0.361   0.313   1.002  0.1959 -0.2334  0.4766
  177SOL    HW1  530   0.310   0.225   1.024 -1.9108 -2.2344 -2.4800
  177SOL    HW2  531   0.311   0.393   1.041 -0.5226  1.6340  0.1845
  178SOL     OW  532   3.078   2.661   2.633  0.0207  0.4261 -0.6465
  178SOL    HW1  533   3.003   2.609   2.687 -1.2349  0.7914 -0.8517
  178SOL    HW2  534   3.152   2.693   2.695 -0.9233  0.0759 -0.1811
  179SOL     OW  535   0.013   1.661   1.191 -0.3181 -1.1588 -0.1222
  179SOL    HW1  536  -0.052   1.748   1.179 -1.7425  0.8279 -0.1122
  179SOL    HW2  537  -0.045   1.581   1.224  3.3075 -1.6622 -1.1156
  180SOL     OW  538   0.231   1.202   1.846 -0.2394  0.2624  0.1157
  180SOL    HW1  539   0.338   1.211   1.849 -1.9275 -0.1181  0.9297
  180SOL    HW2  540   0.183   1.287   1.883 -2.0949  3.0071  1.8461
  181SOL     OW  541   3.008   1.846   2.491 -0.6170 -0.0494 -0.1852
  181SOL    HW1  542   3.032   1.947   2.478 -1.4592 -1.9001  1.8813
  181SOL    HW2  543   2.912   1.831   2.461  1.5489 -0.2152 -0.0707
  182SOL     OW  544   2.245   1.312   1.165 -0.1082 -0.1094  0.3111
  182SOL    HW1  545   2.171   1.271   1.108  1.3557 -0.0051  1.2711
  182SOL    HW2  546   2.290   1.398   1.124  2.1064 -1.5692 -0.7880
  183SOL     OW  547   1.519   2.235   2.554  0.0326 -0.0931  0.3383
  183SOL    HW1  548   1.424   2.206   2.524 -1.0783 -1.6463  0.4155
  183SOL    HW2  549   1.585   2.162   2.537 -2.8825  2.5216  0.3081
  184SOL     OW  550   2.037   0.855   0.787  0.0409 -0.1712  0.3882
  184SOL    HW1  551   1.969   0.937   0.785 -0.8058  0.3790  2.1561
  184SOL    HW2  552   1.998   0.773   0.838  1.5749 -1.3614  0.2759
  185SOL     OW  553   1.593   2.767   2.095 -0.1209  0.5540 -0.1484
  185SOL    HW1  554   1.542   2.857   2.082  1.2712  1.3488 -2.9992
  185SOL    HW2  555   1.605   2.740   2.194  1.0909  0.6804 -1.0606
  186SOL     OW  556   0.103   2.222   1.665  0.0974  0.0483  0.0694
  186SOL    HW1  557   0.084   2.279   1.751  0.5260  1.2511 -2.3125
  186SOL    HW2  558   0.177   2.147   1.689 -1.1497 -2.0396  1.1495
  187SOL     OW  559   1.329   0.759   1.657 -0.6098  0.1101  0.4044
  187SOL    HW1  560   1.425   0.793   1.633 -1.8973 -0.2309  0.1171
  187SOL    HW2  561   1.326   0.707   1.746 -2.2831 -0.0296 -1.9320
  188SOL     OW  562   2.747   2.775   1.432 -0.4562  0.1040 -0.3488
  188SOL    HW1  563   2.759   2.873   1.404  0.3174 -0.8624  0.5328
  188SOL    HW2  564   2.705   2.716   1.355  2.1203 -1.6971  0.8434
  189SOL     OW  565   0.899   1.209   1.398  0.5970  0.6925  0.2489
  189SOL    HW1  566   0.974   1.245   1.457 -0.7988  2.1995 -0.2867
  189SOL    HW2  567   0.830   1.277   1.372  1.3828  1.4357 -0.7802
  190SOL     OW  568   1.476   1.907   1.571 -0.3448  0.3103  0.3605
  190SOL    HW1  569   1.420   1.820   1.562 -0.2182  0.7662  1.7849
  190SOL    HW2  570   1.469   1.950   1.668 -2.0044 -0.8739  1.4718
  191SOL     OW  571   0.980   0.758   1.539  0.0139 -0.2224  0.3751
  191SOL    HW1  572   1.048   0.679   1.539 -1.4905  0.9557 -0.0930
  191SOL    HW2  573   1.028   0.849   1.561 -1.5075 -0.2133 -1.0431
  192SOL     OW  574   1.851   2.252   1.113 -0.3996  0.5874 -0.4837
  192SOL    HW1  575   1.751   2.258   1.088  1.0007  0.1316 -0.7406
  192SOL    HW2  576   1.915   2.300   1.048  0.8883 -0.8761 -0.8655
  193SOL     OW  577   0.560   0.580   0.459  0.4542  0.1605 -0.0152
  193SOL    HW1  578   0.521   0.486   0.467 -0.0188  4.2319 -0.9121
  193SOL    HW2  579   0.611   0.598   0.368  1.2601 -1.4008 -2.6591
  194SOL     OW  580   0.341   0.857   1.285  0.6270 -0.4955  0.4395
  194SOL    HW1  581   0.296   0.763   1.265 -0.5475 -0.6350 -4.5671
  194SOL    HW2  582   0.330   0.924   1.205  1.9917  0.5701  3.1408
  195SOL     OW  583   1.019   2.888   0.551 -0.1783  0.5294 -0.3013
  195SOL    HW1  584   1.001   2.793   0.509 -0.0952 -0.6741 -1.6854
  195SOL    HW2  585   1.125   2.914   0.552  2.9826 -1.5870 -1.2771
  196SOL     OW  586   0.209   1.350   1.378  0.5208 -0.2476  0.1008
  196SOL    HW1  587   0.240   1.443   1.417  1.0783 -0.8963  2.1405
  196SOL    HW2  588   0.190   1.282   1.454 -1.8516 -0.6952 -1.3404
  197SOL     OW  589   0.828   2.050   0.223  0.1605 -0.4278  0.1639
  197SOL    HW1  590   0.817   2.036   0.326  0.7657 -0.1769  0.2866
  197SOL    HW2  591   0.893   1.983   0.175 -0.7169  0.6052  0.1966
  198SOL     OW  592   0.317   1.251   0.229 -0.4571 -0.5011 -0.3620
  198SOL    HW1  593   0.213   1.242   0.228  1.9556  0.0358 -0.3959
  198SOL    HW2  594   0.346   1.341   0.283  0.1919  0.8231  1.4627
  199SOL     OW  595   2.196   0.378   2.554  0.5078  0.5775  0.0576
  199SOL    HW1  596   2.135   0.318   2.612  2.5354  1.9666 -0.3966
  199SOL    HW2  597   2.296   0.376   2.582  3.6413 -0.1404 -0.5408
  200SOL     OW  598   0.038   2.932   0.743 -0.4468  0.4731 -0.0243
  200SOL    HW1  599  -0.055   2.934   0.705  0.1180  1.5249  0.9092
  200SOL    HW2  600   0.081   3.025   0.744  0.6874  0.6662  1.2547
  201SOL     OW  601   1.133   0.751   0.625 -0.1306  0.6803  0.2837
  201SOL    HW1  602   1.124   0.814   0.708  1.2370  0.2138  3.0766
  201SOL    HW2  603   1.052   0.687   0.611 -0.8770 -2.0207 -2.4349
  202SOL     OW  604   0.506   1.190   1.805 -0.5038 -0.3250  0.5680
  202SOL    HW1  605   0.512   1.192   1.703 -0.3420  1.0663  2.6179
  202SOL    HW2  606   0.530   1.092   1.835  1.3991 -0.6536 -1.5179
  203SOL     OW  607   0.689   0.209   1.556 -0.7486 -0.0052 -0.0407
  203SOL    HW1  608   0.755   0.189   1.480 -0.0923  1.5611  1.8507
  203SOL    HW2  609   0.741   0.202   1.647 -1.2940  1.0237 -1.4122
  204SOL     OW  610   2.058   1.868   2.926 -0.1000  0.2271 -0.1174
  204SOL    HW1  611   2.070   1.765   2.906 -3.1067 -1.6810 -0.4135
  204SOL    HW2  612   2.021   1.915   2.838  1.5153 -1.9896 -0.1707
  205SOL     OW  613   1.820   1.870   3.089  0.1738 -0.1170 -0.5203
  205SOL    HW1  614   1.902   1.862   3.025 -0.1767  0.0646 -1.0986
  205SOL    HW2  615   1.771   1.965   3.076  1.2685  1.5917 -2.3327
  206SOL     OW  616   2.511   2.797   0.315 -0.3912 -0.3177  0.3842
  206SOL    HW1  617   2.569   2.713   0.325 -1.6875  0.7313 -0.8412
  206SOL    HW2  618   2.540   2.863   0.244 -1.6409 -1.8335  0.0425
  207SOL     OW  619   0.620   1.790   2.959  0.3999 -0.2868 -0.0228
  207SOL    HW1  620   0.720   1.772   2.941  1.0797  2.2636  1.7243
  207SOL    HW2  621   0.585   1.735   3.036  0.1807  1.0065 -0.3489
  208SOL     OW  622   1.139   1.582   1.414 -0.4329 -0.0821  0.0951
  208SOL    HW1  623   1.133   1.651   1.341 -0.2978 -0.4625  1.1427
  208SOL    HW2  624   1.209   1.609   1.486 -1.8042 -0.6655 -0.3918
  209SOL     OW  625   0.257   0.956   3.034 -0.2149  0.6045  0.9076
  209SOL    HW1  626   0.249   0.894   2.952 -0.2572 -1.7838  1.2875
  209SOL    HW2  627   0.281   0.901   3.119 -1.7201 -0.4169  1.5189
  210SOL     OW  628   1.783   0.526   1.196  0.3181  0.4843 -0.3537
  210SOL    HW1  629   1.723   0.580   1.135 -0.1842  0.7620 -0.2080
  210SOL    HW2  630   1.883   0.517   1.163 -0.5363  1.0985 -2.1189
  211SOL     OW  631   2.129   1.054   1.572 -0.4131 -0.7494 -0.4047
  211SOL    HW1  632   2.182   0.984   1.626  3.3062 -0.5326 -1.6644
  211SOL    HW2  633   2.186   1.115   1.506 -0.9847  0.9363 -0.7991
  212SOL     OW  634   0.027   0.967   1.470 -0.1178 -0.4293 -0.0638
  212SOL    HW1  635   0.080   1.047   1.505  0.3510  0.2164 -1.2777
  212SOL    HW2  636   0.016   0.893   1.542 -1.5463 -1.0965 -1.5014
  213SOL     OW  637   2.800   0.342   0.362  0.4842 -0.7345  0.2828
  213SOL    HW1  638   2.823   0.277   0.293  0.6611  0.5381  2.8450
  213SOL    HW2  639   2.732   0.417   0.345  2.1503 -3.2288  1.4702
  214SOL     OW  640   2.168   0.255   2.315  0.1593 -0.4325 -0.0875
  214SOL    HW1  641   2.172   0.307   2.408  1.3173 -1.5506  1.2421
  214SOL    HW2  642   2.179   0.150   2.317  1.1685 -0.0779  0.8955
  215SOL     OW  643   1.638   2.292   2.100  0.1856 -0.5331  0.6987
  215SOL    HW1  644   1.740   2.312   2.075 -0.4535  0.2789  0.9773
  215SOL    HW2  645   1.594   2.368   2.153 -0.1668  1.9929 -2.7263
  216SOL     OW  646   2.205   0.627   0.638 -0.3107  0.2003  0.2290
  216SOL    HW1  647   2.196   0.525   0.610 -1.7472  2.1420 -0.9553
  216SOL    HW2  648   2.120   0.676   0.662  0.7233  2.8143  1.0664
  217SOL     OW  649   0.748   2.779   2.468  0.2984  0.2111 -0.4248
  217SOL    HW1  650   0.732   2.678   2.490  1.8224  1.2001  1.3620
  217SOL    HW2  651   0.794   2.787   2.374 -0.0044  1.7188  0.1692
  218SOL     OW  652   1.925   1.452   0.064 -0.3512 -0.5265 -0.0589
  218SOL    HW1  653   1.834   1.481   0.029  0.2236 -1.1699  0.6822
  218SOL    HW2  654   1.912   1.364   0.115 -0.6099  2.0262 -3.5238
  219SOL     OW  655   2.364   1.256   2.555 -0.0802  0.0791 -0.1754
  219SOL    HW1  656   2.438   1.210   2.502 -0.3913 -2.7097 -1.0975
  219SOL    HW2  657   2.342   1.201   2.644 -0.7216  0.4470  1.3284
  220SOL     OW  658   1.522   1.034   1.257 -0.0912  0.4885 -1.0207
  220SOL    HW1  659   1.605   1.091   1.289 -0.9346 -2.5577  2.6204
  220SOL    HW2  660   1.483   1.078   1.171  1.1911 -0.0253 -0.7530
  221SOL     OW  661   1.365   0.984   2.203  0.3502 -0.3613  0.3935
  221SOL    HW1  662   1.335   1.045   2.121 -0.5691 -0.4276 -0.5264
  221SOL    HW2  663   1.460   0.941   2.189 -2.0202 -2.7030 -0.1909
  222SOL     OW  664   1.184   0.025   1.221 -0.6475 -0.2869 -0.4088
  222SOL    HW1  665   1.262  -0.008   1.280  0.8124 -1.0953 -1.2755
  222SOL    HW2  666   1.212   0.114   1.176 -0.6447 -0.9887  1.2796
  223SOL     OW  667   2.730   0.886   2.017 -0.3002  0.0871 -0.0772
  223SOL    HW1  668   2.701   0.926   2.109 -0.6884  0.1753  0.2339
  223SOL    HW2  669   2.817   0.927   1.979  1.3909 -1.2743 -0.1530
  224SOL     OW  670   1.578   1.015   2.765 -0.5632  0.1040 -0.1663
  224SOL    HW1  671   1.629   0.951   2.696  0.9646 -1.0777  0.4565
  224SOL    HW2  672   1.502   1.062   2.716  2.7613 -0.5934  0.2112
  225SOL     OW  673   2.922   2.800   2.898 -0.2645 -0.0478 -0.4780
  225SOL    HW1  674   2.872   2.720   2.856 -0.4766 -0.3016 -0.2466
  225SOL    HW2  675   2.996   2.826   2.829  0.0439 -1.0836  1.4148
  226SOL     OW  676   2.391   1.595   2.799  0.0351  0.6001 -0.2247
  226SOL    HW1  677   2.444   1.540   2.721  2.7864  1.6578 -0.2539
  226SOL    HW2  678   2.361   1.534   2.873  2.8967 -1.4030 -0.8284
  227SOL     OW  679   0.820   0.155   3.035 -0.1799 -0.1153  0.5610
  227SOL    HW1  680   0.868   0.074   3.073  1.2706 -0.7855 -1.7710
  227SOL    HW2  681   0.820   0.146   2.933 -3.4059 -1.1379 -0.5102
  228SOL     OW  682   2.390   0.585   2.880  0.7017  0.0198 -0.2562
  228SOL    HW1  683   2.351   0.606   2.783  0.9509 -0.3472 -0.9717
  228SOL    HW2  684   2.481   0.540   2.871 -0.9557  1.6837  0.6987
  229SOL     OW  685   0.640   0.448   1.890 -0.0191 -0.6342 -0.5294
  229SOL    HW1  686   0.616   0.350   1.869 -1.6591 -1.4638  6.2409
  229SOL    HW2  687   0.672   0.507   1.811  0.5860  1.8835  0.3414
  230SOL     OW  688   1.925   1.145   2.143 -0.2485 -0.1631 -0.2033
  230SOL    HW1  689   2.014   1.198   2.116 -0.9964 -0.5070 -2.1062
  230SOL    HW2  690   1.834   1.194   2.140  0.8745 -2.8493 -2.1401
  231SOL     OW  691   0.656   0.999   3.000  0.2152 -0.0921  0.7838
  231SOL    HW1  692   0.750   1.035   2.976 -1.4313  0.4513  1.8814
  231SOL    HW2  693   0.587   1.075   3.021 -0.0995 -2.1971 -0.7567
  232SOL     OW  694   2.419   3.094   2.809 -0.5714 -0.2060  0.2617
  232SOL    HW1  695   2.438   2.993   2.821 -2.9457  0.2869  0.1752
  232SOL    HW2  696   2.483   3.133   2.736  1.3201 -1.1480  1.1747
  233SOL     OW  697   1.736   1.289   1.160  0.2000  0.1071  0.5765
  233SOL    HW1  698   1.738   1.257   1.061  0.1649 -0.7375 -1.5716
  233SOL    HW2  699   1.767   1.219   1.226 -0.8941 -1.1079 -0.9232
  234SOL     OW  700   1.604   2.601   1.883  0.1287  0.3318 -0.4345
  234SOL    HW1  701   1.601   2.667   1.964  0.5949 -1.9570 -0.4548
  234SOL    HW2  702   1.540   2.524   1.902  1.1089 -0.7132  3.3322
  235SOL     OW  703   0.041   2.996   2.862 -0.4221 -0.1017  0.4299
  235SOL    HW1  704   0.108   3.066   2.827  0.5697 -2.2427 -1.2171
  235SOL    HW2  705  -0.011   3.037   2.941 -1.3719 -1.4230 -0.6543
  236SOL     OW  706   2.881   0.748   0.110 -0.3979 -0.3117 -0.2237
  236SOL    HW1  707   2.939   0.802   0.178 -0.1383 -2.6804 -0.0016
  236SOL    HW2  708   2.937   0.669   0.076  0.2456  1.4169 -0.0065
  237SOL     OW  709   1.489   1.712   0.988  0.1913  0.0873  0.5565
  237SOL    HW1  710   1.586   1.682   0.966  1.0381 -2.0168  1.8865
  237SOL    HW2  711   1.476   1.724   1.093 -1.9513 -0.3961  0.6683
  238SOL     OW  712   1.763   1.265   0.871 -0.2884  0.4228  0.0944
  238SOL    HW1  713   1.840   1.327   0.891  0.8694 -1.9331  2.7071
  238SOL    HW2  714   1.693   1.311   0.809 -0.9170  2.2864 -1.9545
  239SOL     OW  715   2.044   0.231   2.736 -0.3441  0.0937 -0.3780
  239SOL    HW1  716   2.091   0.206   2.827  1.8891 -1.4538  1.4897
  239SOL    HW2  717   1.981   0.312   2.751  0.0405  3.3337  0.9499
  240SOL     OW  718   0.964   0.628   0.339 -0.5254  0.7966  0.2988
  240SOL    HW1  719   0.991   0.532   0.304 -1.9899 -1.5016  3.6057
  240SOL    HW2  720   0.916   0.611   0.430  1.4170 -0.6599 -0.7225
  241SOL     OW  721   0.623   0.109   0.375 -0.2211  0.0660 -0.1496
  241SOL    HW1  722   0.664   0.181   0.317 -2.0814 -1.8320  0.0736
  241SOL    HW2  723   0.613   0.025   0.310  0.6412 -1.9064 -1.8385
  242SOL     OW  724   0.670   2.497   1.122 -0.1534  1.1515  0.1568
  242SOL    HW1  725   0.619   2.553   1.191  0.0105 -0.0870 -0.8657
  242SOL    HW2  726   0.753   2.543   1.079 -1.2461 -0.8032  0.8784
  243SOL     OW  727   1.078   0.577   2.490 -0.1297  0.1945 -0.2829
  243SOL    HW1  728   0.996   0.613   2.443 -2.7339  0.8286  2.9030
  243SOL    HW2  729   1.048   0.523   2.575 -0.2659 -1.9183 -1.7053
  244SOL     OW  730   2.778   1.897   2.338  0.3950  0.6815  0.1089
  244SOL    HW1  731   2.842   1.843   2.266  1.4428  0.4119 -0.5499
  244SOL    HW2  732   2.695   1.840   2.366  1.8893 -1.7281 -0.2282
  245SOL     OW  733   2.414   0.646   2.192 -0.3429  0.0249  0.4697
  245SOL    HW1  734   2.491   0.715   2.212  0.6895  1.5353  0.9312
  245SOL    HW2  735   2.455   0.552   2.203 -1.6105  2.2408  2.6363
  246SOL     OW  736   0.222   2.903   1.669  0.0043  0.1525  0.1358
  246SOL    HW1  737   0.161   2.880   1.587 -0.4900 -0.8265  1.7356
  246SOL    HW2  738   0.292   2.981   1.654 -0.7020  0.5825  1.3127
  247SOL     OW  739   2.158   0.572   3.026 -0.5499  0.0435  0.6150
  247SOL    HW1  740   2.245   0.566   2.969 -0.9104 -2.0584  3.3280
  247SOL    HW2  741   2.135   0.670   3.054 -0.4689 -2.5931 -4.5835
  248SOL     OW  742   2.123   1.824   1.572  0.4908  0.4982 -0.1411
  248SOL    HW1  743   2.192   1.777   1.636 -3.3622 -0.1012 -0.0359
  248SOL    HW2  744   2.027   1.824   1.611 -0.8256 -1.1965 -2.1405
  249SOL     OW  745   1.907   1.889   1.931 -0.9921 -0.2477 -0.6689
  249SOL    HW1  746   1.895   1.834   1.842 -0.9261  2.2548 -1.8766
  249SOL    HW2  747   2.000   1.939   1.937 -0.2417 -1.0944  1.2178
  250SOL     OW  748   1.120   0.719   1.904  0.0377 -0.0283  0.2815
  250SOL    HW1  749   1.159   0.627   1.938  1.9321 -0.6738 -0.0093
  250SOL    HW2  750   1.055   0.715   1.822 -0.7824 -1.9973  0.0271
  251SOL     OW  751   3.086   1.574   2.532  0.0617 -0.2841 -0.1000
  251SOL    HW1  752   3.062   1.674   2.542  3.9197 -1.0710 -1.9968
  251SOL    HW2  753   3.007   1.511   2.520  2.4244 -0.2014 -1.6280
  252SOL     OW  754   1.560   0.879   1.561 -0.5001 -0.1636  0.0079
  252SOL    HW1  755   1.571   0.924   1.470 -0.5168  0.8084  0.9847
  252SOL    HW2  756   1.529   0.953   1.630  0.0725 -0.8288 -3.0367
  253SOL     OW  757   0.851   1.538   0.464  0.3186  0.1633  0.2542
  253SOL    HW1  758   0.905   1.454   0.425 -0.9958  2.3573  0.0595
  253SOL    HW2  759   0.753   1.526   0.453 -1.1369  0.4123  3.8654
  254SOL     OW  760   2.041   2.130   1.586 -0.2406  0.2973  0.5010
  254SOL    HW1  761   2.003   2.074   1.506 -1.2938  2.1444  0.6748
  254SOL    HW2  762   1.998   2.095   1.676 -0.4608  0.4063 -0.4947
  255SOL     OW  763   0.121   1.168   2.914  0.2221 -0.3609 -0.2028
  255SOL    HW1  764   0.167   1.250   2.875 -2.0613  0.0534  0.4900
  255SOL    HW2  765   0.179   1.097   2.965  0.8567  0.7084 -1.0785
  256SOL     OW  766   2.779   1.381   1.727  0.4050  0.0378  0.1939
  256SOL    HW1  767   2.696   1.416   1.775 -0.1972 -0.7301 -0.8271
  256SOL    HW2  768   2.769   1.289   1.682  3.1647  1.0997  1.3272
  257SOL     OW  769   0.842   0.183   1.794 -0.0499  0.9226  0.3055
  257SOL    HW1  770   0.904   0.252   1.753 -0.1569 -0.1939  1.5690
  257SOL    HW2  771   0.887   0.092   1.799  0.2063  0.4699 -1.0049
  258SOL     OW  772   2.903   1.301   0.450  0.2050 -0.0821  0.3968
  258SOL    HW1  773   2.839   1.382   0.431  1.8942 -1.0469  2.9171
  258SOL    HW2  774   2.969   1.317   0.525 -0.0992  3.3838  0.6344
  259SOL     OW  775   0.468   2.961   3.030 -0.2272 -0.2816  0.1949
  259SOL    HW1  776   0.395   2.904   3.083 -0.8695  2.0717 -0.3681
  259SOL    HW2  777   0.483   2.927   2.937 -1.2119 -0.1578 -0.7656
  260SOL     OW  778   2.768   0.830   2.761  0.6862  0.2965  0.5100
  260SOL    HW1  779   2.671   0.804   2.776  2.7177  2.5206  1.3455
  260SOL    HW2  780   2.800   0.895   2.839 -3.8123 -0.0204  0.5104
  261SOL     OW  781   2.750   1.312   1.301 -0.1668 -0.6062 -0.1968
  261SOL    HW1  782   2.657   1.284   1.259 -0.8102  0.4825 -2.1194
  261SOL    HW2  783   2.791   1.233   1.347 -0.9187 -1.3965  0.4798
  262SOL     OW  784   1.434   2.998   2.041  0.2115 -0.1803  0.6462
  262SOL    HW1  785   1.466   3.066   1.969 -1.8954 -0.2222  2.1152
  262SOL    HW2  786   1.342   2.954   2.009 -0.8578  0.4208 -0.0990
  263SOL     OW  787   0.873   0.701   2.348  0.5205 -0.4012  0.4250
  263SOL    HW1  788   0.861   0.613   2.291 -0.6367  0.5230 -2.9953
  263SOL    HW2  789   0.897   0.774   2.273 -1.1490 -0.7551 -1.7187
  264SOL     OW  790   2.197   0.819   0.296 -0.4532  0.3260 -0.0717
  264SOL    HW1  791   2.108   0.806   0.348 -1.0193 -1.1573  3.2944
  264SOL    HW2  792   2.282   0.829   0.357  4.4818 -0.5562  2.6675
  265SOL     OW  793   0.899   2.306   2.674 -0.0001  1.0385  0.2188
  265SOL    HW1  794   0.958   2.361   2.740  1.7185 -0.2851  0.0309
  265SOL    HW2  795   0.891   2.202   2.710 -0.7956  0.2740 -0.5724
  266SOL     OW  796   1.325   1.729   0.024 -0.0122 -0.6219 -0.1285
  266SOL    HW1  797   1.316   1.820   0.080  2.2710  1.0072  0.2428
  266SOL    HW2  798   1.417   1.720  -0.022  0.3867  1.2129 -0.0560
  267SOL     OW  799   0.965   3.033   2.357  0.0450 -0.3164  0.0372
  267SOL    HW1  800   0.966   3.014   2.253  1.9584  0.7772 -1.2466
  267SOL    HW2  801   0.930   3.126   2.376 -1.4275 -2.1709  0.0666
  268SOL     OW  802   0.689   1.146   1.106 -0.2223 -0.2671 -0.3468
  268SOL    HW1  803   0.681   1.205   1.189  1.1603  1.2048  2.3092
  268SOL    HW2  804   0.689   1.206   1.020  0.6409  1.7118  2.2789
  269SOL     OW  805   2.385   2.499   1.550  0.1904  0.4737  0.0142
  269SOL    HW1  806   2.485   2.478   1.534 -0.1753 -0.1332 -0.7893
  269SOL    HW2  807   2.358   2.520   1.651 -2.3273  0.0904  1.0613
  270SOL     OW  808   0.139   3.033   1.921  0.4144 -0.8944  0.3606
  270SOL    HW1  809   0.156   2.985   1.828  0.5016 -1.6992  0.1380
  270SOL    HW2  810   0.130   2.968   2.000  2.2778 -0.9683  0.4502
  271SOL     OW  811   0.398   1.380   1.157 -0.2172 -0.3048  0.1370
  271SOL    HW1  812   0.356   1.376   1.059 -1.2259 -2.1748 -1.1443
  271SOL    HW2  813   0.326   1.378   1.234  0.4533 -1.2880  3.8772
  272SOL     OW  814   1.947   2.871   1.927 -0.1636 -0.1551  0.6559
  272SOL    HW1  815   1.887   2.817   1.859 -3.3507 -0.7873 -4.0334
  272SOL    HW2  816   2.036   2.910   1.881  0.4075 -2.5076 -0.6132
  273SOL     OW  817   1.447   1.466   2.779  0.2234 -0.3180 -0.2903
  273SOL    HW1  818   1.347   1.496   2.782 -1.7080 -1.7305  0.5551
  273SOL    HW2  819   1.479   1.439   2.871  1.2349 -0.0623 -0.7752
  274SOL     OW  820   1.274   0.499   2.005 -0.0439 -0.4154  0.3902
  274SOL    HW1  821   1.219   0.407   1.998 -1.7239 -0.7851 -2.3792
  274SOL    HW2  822   1.294   0.536   2.098  1.1952  0.9900  0.4845
  275SOL     OW  823   0.617   2.090   1.862 -0.3374  0.8918 -0.2416
  275SOL    HW1  824   0.556   2.174   1.870  0.2977  0.5391 -0.5851
  275SOL    HW2  825   0.563   2.000   1.865  2.0019 -3.8573  0.9137
  276SOL     OW  826   2.156   0.914   2.808  0.3164 -0.6357  0.3652
  276SOL    HW1  827   2.109   0.896   2.717 -1.2177  1.0756 -1.7340
  276SOL    HW2  828   2.100   0.869   2.885 -0.3587  2.5381 -0.2444
  277SOL     OW  829   3.087   0.851   0.252  0.4427  0.1367 -0.2784
  277SOL    HW1  830   3.186   0.849   0.222 -0.5747  0.8465 -1.0503
  277SOL    HW2  831   3.074   0.779   0.327 -1.7003  0.5725 -0.0736
  278SOL     OW  832   0.240   0.273   3.100 -0.3269 -0.2438  0.6572
  278SOL    HW1  833   0.321   0.209   3.081  2.2241  1.4084  2.9795
  278SOL    HW2  834   0.272   0.376   3.085 -0.1096  2.2372 -1.3763
  279SOL     OW  835   0.151   0.111   0.907 -0.0519 -0.3474 -0.2460
  279SOL    HW1  836   0.155   0.049   0.990 -0.3580 -0.0213  0.3544
  279SOL    HW2  837   0.215   0.088   0.826  1.9416  0.3974 -0.4445
  280SOL     OW  838   1.550   2.918   2.512 -0.2273  0.5595 -0.3658
  280SOL    HW1  839   1.638   2.974   2.525  0.8224  0.0151 -2.8141
  280SOL    HW2  840   1.470   2.983   2.505  1.8903  0.6987 -0.8215
  281SOL     OW  841   0.587   0.932   2.248 -0.5537  0.1877 -0.5794
  281SOL    HW1  842   0.607   0.837   2.219 -3.1768 -1.9271  0.1591
  281SOL    HW2  843   0.544   0.940   2.342 -0.1002  0.6839 -0.0029
  282SOL     OW  844   1.786   2.481   0.516  0.4427  0.6732  0.0016
  282SOL    HW1  845   1.724   2.412   0.470 -1.4229  4.1382  0.3093
  282SOL    HW2  846   1.744   2.576   0.517 -1.0440  0.0193 -1.3880
  283SOL     OW  847   1.130   0.910   0.857 -0.2481  0.1004 -0.0456
  283SOL    HW1  848   1.143   0.831   0.923  0.5513  1.9955 -2.7925
  283SOL    HW2  849   1.064   0.982   0.894  1.8964 -0.1580 -1.7826
  284SOL     OW  850   2.349   2.702   2.401  0.3875 -0.7119  1.4870
  284SOL    HW1  851   2.404   2.770   2.346 -1.9617  0.2736 -0.9546
  284SOL    HW2  852   2.388   2.684   2.499  0.9757 -0.7443 -1.5728
  285SOL     OW  853   1.306   3.045   2.549 -0.1636 -0.5388  0.6203
  285SOL    HW1  854   1.312   3.050   2.445  2.5524  0.7019  0.1894
  285SOL    HW2  855   1.210   3.071   2.593  0.2217 -1.1623 -0.0922
  286SOL     OW  856   0.455   0.431   0.772 -0.4897  0.8980  0.0330
  286SOL    HW1  857   0.423   0.376   0.854  2.8854 -0.0525  3.4645
  286SOL    HW2  858   0.466   0.380   0.683  2.5934 -1.7253  0.4857
  287SOL     OW  859   0.124   1.295   2.544  0.1924 -0.2852  0.0758
  287SOL    HW1  860   0.052   1.238   2.592 -0.6880 -1.4921 -0.8898
  287SOL    HW2  861   0.095   1.399   2.561 -0.5099 -0.7302  0.3156
  288SOL     OW  862   1.577   2.687   1.564  0.0085 -0.0003  0.1099
  288SOL    HW1  863   1.574   2.632   1.649  0.5652  4.2183 -3.2949
  288SOL    HW2  864   1.667   2.682   1.508  2.7911 -1.2198  0.0416
  289SOL     OW  865   0.585   2.733   0.833  0.6824  0.0335  0.5338
  289SOL    HW1  866   0.647   2.810   0.796  2.0976 -0.7327  0.2534
  289SOL    HW2  867   0.556   2.752   0.928  2.2615  0.1948  2.0209
  290SOL     OW  868   2.811   1.096   1.707 -0.4498 -0.0565 -0.0069
  290SOL    HW1  869   2.711   1.084   1.740  0.4042  0.5904  0.2584
  290SOL    HW2  870   2.878   1.051   1.772 -3.5825 -3.4680 -1.3239
  291SOL     OW  871   1.975   0.087   0.089  0.7146  0.2994 -0.1569
  291SOL    HW1  872   1.998   0.027   0.171 -1.1984 -1.1751  0.0988
  291SOL    HW2  873   2.043   0.155   0.057 -2.5756  0.2971 -2.5252
  292SOL     OW  874   2.987   1.187   3.080  0.7217  0.2164  0.0142
  292SOL    HW1  875   2.902   1.234   3.041 -2.1258 -0.8903 -1.7067
  292SOL    HW2  876   3.072   1.198   3.023  0.5798  1.9988 -1.8139
  293SOL     OW  877   0.575   2.144   0.130  0.1356  0.2422 -0.0175
  293SOL    HW1  878   0.523   2.180   0.215 -1.4048  0.1276  0.8144
  293SOL    HW2  879   0.664   2.100   0.154 -4.4880 -0.2874 -0.8197
  294SOL     OW  880   1.775   2.225   1.766  0.3477 -0.5530  0.2551
  294SOL    HW1  881   1.833   2.280   1.830 -0.3585 -1.7789  2.4710
  294SOL    HW2  882   1.745   2.265   1.672 -0.7308  0.5451 -2.5179
  295SOL     OW  883   0.994   1.021   0.502  0.1747  0.2603 -0.0760
  295SOL    HW1  884   1.083   0.999   0.555 -3.9422 -1.0920 -1.2306
  295SOL    HW2  885   0.909   1.029   0.563 -2.1062 -0.8366 -1.8481
  296SOL     OW  886   1.244   2.108   2.523  0.1598  0.1058 -0.2105
  296SOL    HW1  887   1.211   2.125   2.429 -2.7517 -0.1678  0.9465
  296SOL    HW2  888   1.266   2.006   2.546 -1.3744  1.0899  1.2764
  297SOL     OW  889   1.441   0.624   1.362 -0.0107 -0.1876 -0.0230
  297SOL    HW1  890   1.416   0.523   1.362 -2.6741  0.8258 -2.5973
  297SOL    HW2  891   1.536   0.646   1.401  2.5600  0.4429  0.8248
  298SOL     OW  892   0.506   1.387   2.986  0.7539 -0.6635  0.1308
  298SOL    HW1  893   0.472   1.295   3.029 -1.0411  1.2066  1.9012
  298SOL    HW2  894   0.575   1.382   2.914 -0.8059  0.9170  0.0219
  299SOL     OW  895   0.515   0.255   1.338  0.3332  0.3325 -0.8421
  299SOL    HW1  896   0.536   0.358   1.319 -0.2453  0.2921 -1.0801
  299SOL    HW2  897   0.567   0.226   1.423 -0.2371  2.4880 -0.4869
  300SOL     OW  898   1.223   1.841   2.817  0.4694 -0.0235 -0.2984
  300SOL    HW1  899   1.212   1.750   2.864  1.4219  2.1944 -1.0101
  300SOL    HW2  900   1.327   1.866   2.809  0.6245 -1.4474 -3.7530
  301SOL     OW  901   0.472   0.310   0.516 -0.3378  0.5923 -0.3011
  301SOL    HW1  902   0.371   0.305   0.505  0.7384  0.4934 -1.5484
  301SOL    HW2  903   0.525   0.241   0.463 -2.4413 -0.2745 -1.6867
  302SOL     OW  904   1.223   2.396   2.329  0.7376  0.6774  0.2161
  302SOL    HW1  905   1.142   2.453   2.370 -1.4089  1.6152  0.8117
  302SOL    HW2  906   1.194   2.310   2.288 -0.8526  3.2188  2.1490
  303SOL     OW  907   0.971   2.348   0.824  0.1310  0.5470 -0.0513
  303SOL    HW1  908   1.034   2.375   0.748 -1.7614  0.2187  0.8482
  303SOL    HW2  909   0.983   2.419   0.898  0.9554 -0.1429 -1.3152
  304SOL     OW  910   0.133   2.029   0.619 -0.2809 -0.1417  0.1035
  304SOL    HW1  911   0.163   1.967   0.539  1.7700 -0.0728  1.2482
  304SOL    HW2  912   0.070   2.104   0.578  0.4557  3.5081  0.9239
  305SOL     OW  913   1.642   0.919   0.572 -0.1101 -0.2585 -0.0674
  305SOL    HW1  914   1.562   0.896   0.506  0.6224 -0.8741  0.8822
  305SOL    HW2  915   1.658   0.839   0.636 -0.8060  1.7083  0.0361
  306SOL     OW  916   0.450   1.875   1.899 -0.1437 -0.4695 -0.4041
  306SOL    HW1  917   0.495   1.785   1.876 -2.0164  2.7650  1.7292
  306SOL    HW2  918   0.433   1.887   2.000 -0.7437 -0.5826 -2.2568
  307SOL     OW  919   3.074   0.923   2.510 -0.3100 -0.0372 -0.3874
  307SOL    HW1  920   3.084   0.997   2.585 -2.6901  1.4240  2.0481
  307SOL    HW2  921   2.996   0.855   2.532 -2.0423 -1.3141  1.3597
  308SOL     OW  922   1.556   2.667   2.839 -0.0410 -0.3795 -0.1135
  308SOL    HW1  923   1.519   2.622   2.753 -0.7532 -1.1927 -2.1595
  308SOL    HW2  924   1.503   2.635   2.928 -1.0496 -0.2144 -0.7644
  309SOL     OW  925   1.220   0.087   1.764  0.4429  0.6601 -0.2196
  309SOL    HW1  926   1.323   0.074   1.776  1.1627 -0.9935  1.2000
  309SOL    HW2  927   1.196   0.115   1.664 -0.7726  0.6922 -0.2453
  310SOL     OW  928   1.496   2.534   0.651  0.3823  0.3208  0.1353
  310SOL    HW1  929   1.505   2.538   0.756  1.2329 -0.5682 -0.2440
  310SOL    HW2  930   1.548   2.611   0.601 -0.9044  1.0754  1.7272
  311SOL     OW  931   1.165   0.969   1.605  0.3398  0.6914  0.5076
  311SOL    HW1  932   1.222   0.884   1.622  0.4947  3.0074  0.0478
  311SOL    HW2  933   1.202   1.028   1.527 -1.3266 -0.4921  0.7262
  312SOL     OW  934   1.600   0.687   1.018 -0.3455 -0.1892  1.1909
  312SOL    HW1  935   1.598   0.786   0.977 -1.2242  1.7926 -0.8579
  312SOL    HW2  936   1.515   0.629   0.992  0.5955 -1.0884  0.1451
  313SOL     OW  937   1.573   1.393   0.709 -0.4134 -0.4649 -0.0638
  313SOL    HW1  938   1.514   1.465   0.747 -0.6954 -2.5582 -0.1440
  313SOL    HW2  939   1.509   1.318   0.669 -2.8074  0.5238  2.9638
  314SOL     OW  940   2.963   0.052   3.046 -0.6319 -0.1516  0.3007
  314SOL    HW1  941   2.968   0.080   3.147 -1.5968  0.2514  1.9896
  314SOL    HW2  942   2.875  -0.001   3.022 -1.1587  0.2096  0.3182
  315SOL     OW  943   1.243   0.219   2.806  0.6437  0.1079 -0.0537
  315SOL    HW1  944   1.219   0.130   2.762 -2.6145 -0.3095 -0.2474
  315SOL    HW2  945   1.275   0.208   2.907 -1.3459  1.5539 -1.7632
  316SOL     OW  946   1.718   2.050   0.865  0.0630 -0.1017  0.1520
  316SOL    HW1  947   1.675   2.040   0.957 -1.3873 -1.5827 -0.6429
  316SOL    HW2  948   1.703   2.147   0.829  1.4720  0.3946  0.9320
  317SOL     OW  949   1.121   0.660   2.880 -0.5156 -0.3750 -0.1806
  317SOL    HW1  950   1.065   0.707   2.955 -1.0835 -0.0293  1.8866
  317SOL    HW2  951   1.073   0.593   2.823  1.8362  1.3290 -1.9161
  318SOL     OW  952   1.347   3.072   2.285  0.2671  0.1367  0.0829
  318SOL    HW1  953   1.344   3.173   2.284  0.9259 -2.3576 -2.4377
  318SOL    HW2  954   1.377   3.042   2.188  0.7460  1.8018  0.7918
  319SOL     OW  955   0.727   2.430   2.942  0.5201 -0.4931  0.0278
  319SOL    HW1  956   0.652   2.400   3.007  0.8712  0.6762 -1.1980
  319SOL    HW2  957   0.811   2.465   2.986  1.1314 -0.9111 -1.0220
  320SOL     OW  958   1.709   2.248   0.383 -0.0725  0.7821  0.1945
  320SOL    HW1  959   1.788   2.175   0.372  2.2021 -0.2882  2.2873
  320SOL    HW2  960   1.621   2.211   0.417  1.9074  2.0193 -2.6815
  321SOL     OW  961   1.678   2.740   0.472 -0.2841  0.2146  0.3378
  321SOL    HW1  962   1.591   2.786   0.430 -1.3679  0.0877 -0.3913
  321SOL    HW2  963   1.762   2.788   0.426  1.6075 -0.4383 -0.0621
  322SOL     OW  964   2.586   1.162   2.423  0.7522 -0.0001 -0.2978
  322SOL    HW1  965   2.690   1.172   2.417 -0.6548  0.9559 -2.2475
  322SOL    HW2  966   2.553   1.063   2.430 -0.2174  2.1419  2.9819
  323SOL     OW  967   1.143   2.638   0.843  0.4383  0.3613  0.3920
  323SOL    HW1  968   1.122   2.585   0.756  0.1644 -0.4044  0.2113
  323SOL    HW2  969   1.120   2.740   0.832 -0.5085  0.3867 -0.2533
  324SOL     OW  970   0.248   2.515   2.538 -0.0373 -0.3214 -0.4009
  324SOL    HW1  971   0.309   2.511   2.621  2.2994 -2.3943  0.9844
  324SOL    HW2  972   0.159   2.568   2.553 -0.9691  1.3441  4.0472
  325SOL     OW  973   1.259   3.015   0.492 -0.5448 -0.2381  0.7702
  325SOL    HW1  974   1.220   3.038   0.398 -1.1297  1.1680 -1.3017
  325SOL    HW2  975   1.277   3.101   0.549 -0.1909  0.6894  0.1399
  326SOL     OW  976   2.421   0.784   3.088 -0.0063 -0.1059  0.1243
  326SOL    HW1  977   2.384   0.730   3.006  1.7418 -0.8664 -1.2703
  326SOL    HW2  978   2.507   0.743   3.129  0.9440  2.4322 -0.3944
  327SOL     OW  979   2.830   0.384   0.635  0.1724 -0.2789  0.0939
  327SOL    HW1  980   2.824   0.361   0.534  0.7438  1.6248  0.2768
  327SOL    HW2  981   2.894   0.326   0.689 -1.5180  2.1108  0.6337
  328SOL     OW  982   2.546   0.587   0.378  0.2030 -0.1545  0.1100
  328SOL    HW1  983   2.508   0.679   0.394 -1.0830  0.1614 -1.1813
  328SOL    HW2  984   2.552   0.534   0.462  0.2711 -0.7256 -0.9666
  329SOL     OW  985   2.963   2.980   2.154 -0.1744 -0.0565 -0.0691
  329SOL    HW1  986   3.018   2.925   2.217 -0.2615  2.3985  0.7499
  329SOL    HW2  987   2.989   3.082   2.158  2.7285 -0.0854 -6.1857
  330SOL     OW  988   0.572   0.157   1.878  0.0518  0.0318  0.5458
  330SOL    HW1  989   0.665   0.158   1.834 -1.5366 -1.4703  1.7922
  330SOL    HW2  990   0.560   0.097   1.964 -0.8589 -0.9561 -1.3833
  331SOL     OW  991   2.978   1.911   1.149 -0.1519 -0.3038 -0.4285
  331SOL    HW1  992   3.011   1.999   1.102  1.7962 -0.6168  1.3663
  331SOL    HW2  993   2.904   1.938   1.220 -0.3326  1.6940  1.6503
  332SOL     OW  994   0.450   1.145   0.009 -0.1431  0.3044 -0.3787
  332SOL    HW1  995   0.376   1.077  -0.013 -0.0360  0.9790 -0.8342
  332SOL    HW2  996   0.419   1.195   0.099 -0.8762  0.0960 -0.2542
  333SOL     OW  997   2.895   1.047   0.322 -0.0797  0.1127  0.4092
  333SOL    HW1  998   2.904   1.134   0.382 -0.0477 -1.3599  1.8797
  333SOL    HW2  999   2.985   0.998   0.300 -0.5153 -1.6107 -0.6522
  334SOL     OW 1000   1.696   1.235   1.834 -0.7224  0.1583  0.1565
  334SOL    HW1 1001   1.785   1.194   1.802 -1.8352  0.6717  0.6934
  334SOL    HW2 1002   1.709   1.269   1.931 -0.5085 -0.5419  0.6391
  335SOL     OW 1003   1.980   2.775   2.598  0.6402 -0.2774  0.1865
  335SOL    HW1 1004   1.902   2.752   2.667  0.7970 -1.6933  0.1659
  335SOL    HW2 1005   2.065   2.817   2.644  0.2814 -0.5135  0.6499
  336SOL     OW 1006   0.274   0.141   2.788  0.0470  0.7107 -0.4289
  336SOL    HW1 1007   0.374   0.126   2.808 -2.1393 -0.0740 -2.1423
  336SOL    HW2 1008   0.221   0.186   2.868  0.1125  0.6839 -0.2177
  337SOL     OW 1009   0.939   2.759   2.836  0.6581  0.0261  0.0095
  337SOL    HW1 1010   0.935   2.695   2.919  0.8529  0.0938 -0.2899
  337SOL    HW2 1011   1.034   2.757   2.792  1.4445 -1.9727 -0.3324
  338SOL     OW 1012   0.016   1.045   0.636  0.0951 -0.2577 -0.4735
  338SOL    HW1 1013  -0.087   1.044   0.651 -0.2379 -0.4033  0.7524
  338SOL    HW2 1014   0.042   1.144   0.636  2.7370 -0.9326  0.4285
  339SOL     OW 1015   1.716   1.346   2.088  0.0159 -0.0580  0.3934
  339SOL    HW1 1016   1.616   1.349   2.118  0.6416 -1.0240 -1.4497
  339SOL    HW2 1017   1.763   1.436   2.090  0.7121  0.2646 -2.4594
  340SOL     OW 1018   2.338   0.772   1.168  0.1422  0.9100 -0.2957
  340SOL    HW1 1019   2.244   0.814   1.177  2.5630  1.3252 -1.8808
  340SOL    HW2 1020   2.332   0.681   1.113  1.1554 -0.4664  1.2361
  341SOL     OW 1021   1.969   2.088   0.327  0.5430  0.1824 -0.2636
  341SOL    HW1 1022   1.964   2.162   0.253  0.2996  0.6535 -0.6964
  341SOL    HW2 1023   2.066   2.067   0.356 -1.5906 -1.3954  0.0252
  342SOL     OW 1024   2.252   2.111   2.714  0.5437 -0.0195 -0.1734
  342SOL    HW1 1025   2.301   2.029   2.760  2.0387  1.2060  0.0977
  342SOL    HW2 1026   2.148   2.098   2.701 -0.5225  0.2444 -0.3087
  343SOL     OW 1027   0.386   0.874   2.768 -0.4039 -0.6830 -0.3161
  343SOL    HW1 1028   0.415   0.974   2.738 -0.0365  2.2029 -0.7600
  343SOL    HW2 1029   0.461   0.803   2.751  0.9807  1.3399 -0.3925
  344SOL     OW 1030   1.935   1.404   0.383 -0.1619  0.5190 -0.2700
  344SOL    HW1 1031   1.915   1.335   0.306  1.1280 -2.6086  0.1627
  344SOL    HW2 1032   1.847   1.446   0.423  1.5251  2.0419  0.0971
  345SOL     OW 1033   1.428   2.253   2.897  0.1636 -0.4754  0.1445
  345SOL    HW1 1034   1.334   2.222   2.872 -0.4569 -0.4050 -0.0100
  345SOL    HW2 1035   1.497   2.239   2.824  1.1615  0.0072 -0.2812
  346SOL     OW 1036   2.394   0.906   1.396 -0.1540 -0.4691  0.0400
  346SOL    HW1 1037   2.363   1.006   1.408 -1.3029 -0.4760  1.0787
  346SOL    HW2 1038   2.360   0.855   1.313  0.8460 -2.0442  0.1320
  347SOL     OW 1039   0.754   2.803   1.492  0.2329  0.7467  0.5331
  347SOL    HW1 1040   0.725   2.730   1.562 -1.0043 -0.6083  1.5674
  347SOL    HW2 1041   0.698   2.893   1.493 -0.2476  0.6485 -1.7388
  348SOL     OW 1042   0.196   0.669   2.840  0.7446  0.4657 -0.0362
  348SOL    HW1 1043   0.100   0.688   2.808 -3.4841 -1.3370 -3.2129
  348SOL    HW2 1044   0.267   0.746   2.821  0.5428  0.2027  0.0166
  349SOL     OW 1045   1.859   0.437   2.780  0.5513 -0.4291  0.0791
  349SOL    HW1 1046   1.868   0.529   2.729 -1.2715  1.9093  0.3722
  349SOL    HW2 1047   1.863   0.455   2.883 -1.6961  3.0188  1.1032
  350SOL     OW 1048   1.635   0.422   0.339  0.5612  0.0734 -0.5228
  350SOL    HW1 1049   1.661   0.417   0.438 -0.3270 -0.3700  0.2966
  350SOL    HW2 1050   1.614   0.514   0.298  1.2391 -1.3804 -2.4886
  351SOL     OW 1051   0.994   0.875   2.162  0.3638  0.4260  0.1305
  351SOL    HW1 1052   1.011   0.975   2.151 -0.3512 -2.5599 -0.2894
  351SOL    HW2 1053   1.021   0.829   2.072 -0.3721 -0.7517  0.7387
  352SOL     OW 1054   2.040   1.336   0.620 -0.1772  0.3405  0.2806
  352SOL    HW1 1055   1.974   1.356   0.549  1.0631 -2.6590  3.8482
  352SOL    HW2 1056   2.136   1.351   0.583 -0.4121  0.4410 -2.4758
  353SOL     OW 1057   2.199   2.847   1.050  0.3730 -0.3721 -0.2541
  353SOL    HW1 1058   2.214   2.769   1.119 -2.0974 -4.6806 -4.2476
  353SOL    HW2 1059   2.100   2.861   1.026  0.5106  0.3517  1.8794
  354SOL     OW 1060   0.259   1.411   2.821  0.5583  0.4308 -0.2533
  354SOL    HW1 1061   0.253   1.503   2.780 -0.9537 -2.5916 -1.3061
  354SOL    HW2 1062   0.347   1.399   2.875  1.2648 -0.1067  0.0092
  355SOL     OW 1063   0.510   1.508   0.526  0.9231  0.2195  0.7955
  355SOL    HW1 1064   0.502   1.594   0.582  3.4853  0.1145  0.6486
  355SOL    HW2 1065   0.532   1.422   0.579 -2.0696 -0.3992  1.1967
  356SOL     OW 1066   0.849   0.246   2.060  0.4011 -0.0025  0.4948
  356SOL    HW1 1067   0.953   0.247   2.057 -1.4598  1.6022  0.8808
  356SOL    HW2 1068   0.801   0.230   1.965 -2.8839  0.6577  0.0977
  357SOL     OW 1069   0.983   1.272   0.374  0.2984 -0.3527 -0.4668
  357SOL    HW1 1070   0.961   1.241   0.276  0.9637 -0.2121 -0.6119
  357SOL    HW2 1071   0.985   1.196   0.448  0.0390 -0.2816 -0.0398
  358SOL     OW 1072   1.690   1.469   0.463 -0.9639 -0.4576  0.0728
  358SOL    HW1 1073   1.632   1.445   0.549 -0.3697  1.2712  0.5444
  358SOL    HW2 1074   1.651   1.426   0.375 -3.1174  0.5565 -1.2258
  359SOL     OW 1075   1.582   2.690   0.126  0.0508 -0.6852  0.2271
  359SOL    HW1 1076   1.545   2.596   0.117 -2.4478 -1.7455  2.1238
  359SOL    HW2 1077   1.504   2.761   0.135 -0.0360 -1.9288  1.3709
  360SOL     OW 1078   0.871   0.561   0.589 -0.2844 -0.2188  0.3795
  360SOL    HW1 1079   0.779   0.599   0.625 -2.8851  0.3243 -0.6369
  360SOL    HW2 1080   0.875   0.457   0.589  0.6766 -1.4546 -0.3098
  361SOL     OW 1081   1.207   1.339   0.763 -0.0680 -0.6096  0.1451
  361SOL    HW1 1082   1.262   1.364   0.847 -0.0582 -4.2370 -0.8794
  361SOL    HW2 1083   1.116   1.396   0.756 -1.3901  1.5221  0.1016
  362SOL     OW 1084   1.348   1.863   0.803 -0.0398  0.0479 -0.6150
  362SOL    HW1 1085   1.368   1.789   0.875  0.0243  0.3237  0.7197
  362SOL    HW2 1086   1.419   1.868   0.731  0.7158 -1.3559  1.6060
  363SOL     OW 1087   1.215   1.301   2.016  0.7223  0.6491 -0.0929
  363SOL    HW1 1088   1.269   1.371   2.068 -1.8940  1.4647 -1.1186
  363SOL    HW2 1089   1.205   1.324   1.916  1.8432 -0.2346 -0.9715
  364SOL     OW 1090   0.485   2.313   1.961 -0.2253  0.0405  0.4594
  364SOL    HW1 1091   0.403   2.366   1.987 -0.4633  2.1120 -1.7942
  364SOL    HW2 1092   0.546   2.365   1.892  1.5606 -2.0938 -0.1035
  365SOL     OW 1093   0.997   1.864   1.427  0.3892  0.1949 -0.6866
  365SOL    HW1 1094   0.895   1.892   1.429 -1.8292 -3.2545 -1.0742
  365SOL    HW2 1095   1.031   1.868   1.331  0.3519  2.1883  0.0424
  366SOL     OW 1096   2.744   2.084   0.437 -0.1163  0.1400 -0.3118
  366SOL    HW1 1097   2.651   2.045   0.451  1.0612 -0.7618  1.5776
  366SOL    HW2 1098   2.808   2.034   0.368  1.2283  0.2677 -0.4199
  367SOL     OW 1099   0.914   1.123   0.123 -0.1236  0.0678 -0.8857
  367SOL    HW1 1100   0.933   1.034   0.172  2.9739  0.9716 -0.7268
  367SOL    HW2 1101   0.964   1.134   0.034  0.3558 -1.0817 -0.3123
  368SOL     OW 1102   1.458   0.529   0.727  0.2659 -0.2312  0.6644
  368SOL    HW1 1103   1.410   0.574   0.645  1.7689  0.4794  1.1773
  368SOL    HW2 1104   1.550   0.581   0.737 -0.5106 -1.9051  1.9823
  369SOL     OW 1105   0.216   1.732   0.052  0.1436  0.2831  0.0987
  369SOL    HW1 1106   0.283   1.789   0.114 -0.1202  2.6207 -0.7782
  369SOL    HW2 1107   0.136   1.693   0.103  1.7783  0.4329  0.6637
  370SOL     OW 1108   0.467   2.077   1.022 -0.3685 -0.2719 -0.3388
  370SOL    HW1 1109   0.475   2.176   0.984  1.0737 -0.2717 -0.3954
  370SOL    HW2 1110   0.384   2.030   0.990  0.1828  1.3666  1.8807
  371SOL     OW 1111   2.903   2.170   2.674  0.0448 -0.3159  0.1816
  371SOL    HW1 1112   2.828   2.147   2.743 -2.0997  0.0044  0.7689
  371SOL    HW2 1113   2.996   2.212   2.714  0.2886  0.4305  1.1377
  372SOL     OW 1114   1.126   1.990   1.136 -0.0076  0.5613 -0.4200
  372SOL    HW1 1115   1.051   2.034   1.086  0.6845 -3.1022 -0.7157
  372SOL    HW2 1116   1.189   2.050   1.186 -2.9396 -1.0289  0.6134
  373SOL     OW 1117   1.984   2.000   0.874  0.1332 -0.0534  0.3150
  373SOL    HW1 1118   2.036   2.052   0.950  0.5735 -0.8496 -0.1210
  373SOL    HW2 1119   1.879   2.018   0.869  0.3190 -0.6356  0.7932
  374SOL     OW 1120   1.777   0.461   0.576  0.5716 -0.3718 -0.1490
  374SOL    HW1 1121   1.821   0.423   0.659 -1.2774 -1.8445  3.8539
  374SOL    HW2 1122   1.854   0.501   0.513 -0.2642  1.0797  1.1772
  375SOL     OW 1123   2.417   2.208   1.148 -0.0574  0.3677  0.7879
  375SOL    HW1 1124   2.486   2.198   1.070  0.5477  0.7267  0.1529
  375SOL    HW2 1125   2.447   2.159   1.235  1.5052 -1.8192 -1.7605
  376SOL     OW 1126   3.042   0.566   1.469  0.6623 -0.2917 -0.1601
  376SOL    HW1 1127   3.097   0.616   1.540 -0.8440 -0.8219  0.3824
  376SOL    HW2 1128   2.943   0.596   1.473  0.6741  1.6550 -0.4642
  377SOL     OW 1129   2.233   2.850   0.364  0.0195 -0.0573  0.2253
  377SOL    HW1 1130   2.225   2.955   0.368  0.8758  3.2718 -0.4237
  377SOL    HW2 1131   2.334   2.829   0.341 -0.0607  0.5304 -2.7058
  378SOL     OW 1132   1.846   1.811   2.642 -0.0978  0.5068 -0.4128
  378SOL    HW1 1133   1.773   1.739   2.667 -0.6182 -1.0400 -0.0028
  378SOL    HW2 1134   1.945   1.772   2.641  3.7224 -0.6411 -0.8055
  379SOL     OW 1135   0.845   0.140   2.761 -0.4509 -0.0527  0.6475
  379SOL    HW1 1136   0.800   0.055   2.734 -1.2026  4.9155  1.7304
  379SOL    HW2 1137   0.829   0.217   2.689  1.8994  0.6476  2.1292
  380SOL     OW 1138   1.506   1.153   0.573 -0.4901  0.3184  0.4420
  380SOL    HW1 1139   1.408   1.129   0.604 -0.8647 -2.1138 -2.4467
  380SOL    HW2 1140   1.565   1.066   0.572  1.7290 -3.6296 -1.3615
  381SOL     OW 1141   1.353   1.169   1.498  0.7315 -0.2879  0.8780
  381SOL    HW1 1142   1.388   1.146   1.404  0.4378 -0.1586 -1.5981
  381SOL    HW2 1143   1.417   1.139   1.574  1.2711 -2.4818  0.9192
  382SOL     OW 1144   1.788   0.866   0.200  0.2942 -0.6411 -0.6174
  382SOL    HW1 1145   1.841   0.839   0.120  0.0575  0.3581  0.0598
  382SOL    HW2 1146   1.838   0.865   0.291  0.0926 -0.3062 -2.7520
  383SOL     OW 1147   2.618   1.029   1.451 -0.2565 -0.2045 -0.1094
  383SOL    HW1 1148   2.533   0.968   1.427  0.5442  1.0463  1.0983
  383SOL    HW2 1149   2.698   1.000   1.397 -0.9300  1.6033 -1.9164
  384SOL     OW 1150   0.931   2.291   0.130 -0.6125  0.2916 -0.1612
  384SOL    HW1 1151   0.877   2.363   0.178  0.2005  0.5033 -2.3359
  384SOL    HW2 1152   0.909   2.195   0.172  1.9560  0.1626  2.9385
  385SOL     OW 1153   2.999   2.014   1.732 -0.0807 -0.5740 -0.3640
  385SOL    HW1 1154   3.055   2.093   1.697  0.2510 -0.7870  2.4714
  385SOL    HW2 1155   3.039   1.917   1.734  0.1878  2.5980 -0.7248
  386SOL     OW 1156   0.443   1.114   0.434 -0.1275 -0.7552  0.0640
  386SOL    HW1 1157   0.475   1.014   0.435  1.4090  0.0586 -0.3038
  386SOL    HW2 1158   0.390   1.139   0.348  0.2046 -0.2344 -3.7933
  387SOL     OW 1159   0.988   0.378   1.630 -0.9612  0.0227  0.2406
  387SOL    HW1 1160   1.061   0.452   1.613  0.8997  2.9474 -1.1083
  387SOL    HW2 1161   0.934   0.358   1.543 -2.0896 -0.1444  0.8887
  388SOL     OW 1162   1.198   2.645   1.768  0.0586 -0.4705  0.1843
  388SOL    HW1 1163   1.226   2.612   1.670  0.2959 -0.3325 -1.7514
  388SOL    HW2 1164   1.237   2.575   1.837  0.5536  0.5840 -0.8422
  389SOL     OW 1165   0.207   3.076   1.173 -0.3544 -0.3393  0.4611
  389SOL    HW1 1166   0.139   3.101   1.246  0.9164  2.3173  0.7272
  389SOL    HW2 1167   0.227   2.974   1.168  0.9766  1.1204  0.4444
  390SOL     OW 1168   1.040   0.952   1.296 -0.8272  0.1795  0.1334
  390SOL    HW1 1169   1.118   0.913   1.354  0.0727  1.7723  1.0788
  390SOL    HW2 1170   0.997   1.037   1.336  2.3775  0.0870 -0.6882
  391SOL     OW 1171   2.093   1.180   0.966  0.2905  0.2012 -0.2558
  391SOL    HW1 1172   2.009   1.119   0.962  0.0124 -4.6962 -1.7103
  391SOL    HW2 1173   2.172   1.134   0.916 -1.6537  0.6255  0.1154
  392SOL     OW 1174   0.880   2.655   3.064 -0.0014 -0.1217 -0.0060
  392SOL    HW1 1175   0.800   2.672   3.134  0.1241 -0.8241  1.4255
  392SOL    HW2 1176   0.975   2.682   3.105  1.7585 -0.9354 -0.3108
  393SOL     OW 1177   0.402   0.454   2.059  0.3013 -0.1183 -0.5013
  393SOL    HW1 1178   0.344   0.379   2.009  1.7535 -0.8124 -1.3455
  393SOL    HW2 1179   0.493   0.459   2.005 -0.4928  1.9953  0.4331
  394SOL     OW 1180   3.022   1.774   2.750  0.4459  0.0888  0.1641
  394SOL    HW1 1181   3.080   1.818   2.822  0.8585 -0.3927  1.1440
  394SOL    HW2 1182   3.034   1.811   2.650  0.5026  0.4865 -0.6185
  395SOL     OW 1183   1.582   1.916   0.640 -0.0709 -0.1106 -0.5259
  395SOL    HW1 1184   1.626   1.849   0.575  2.8594  2.3051  0.1658
  395SOL    HW2 1185   1.642   1.953   0.712 -1.4752 -1.5835 -2.1982
  396SOL     OW 1186   2.748   1.969   1.325 -0.0573 -0.3824 -0.3856
  396SOL    HW1 1187   2.734   2.028   1.408 -1.6879  1.9511 -0.8764
  396SOL    HW2 1188   2.753   1.870   1.356  1.1022  0.8413  0.5056
  397SOL     OW 1189   1.039   2.134   0.613 -0.0002  0.8096 -0.0336
  397SOL    HW1 1190   0.956   2.098   0.563 -0.5061 -0.3887 -1.4154
  397SOL    HW2 1191   1.021   2.182   0.707  0.4925 -0.6935 -0.8983
  398SOL     OW 1192   2.245   0.041   0.992 -0.0931  0.5127  0.3330
  398SOL    HW1 1193   2.244  -0.066   1.009  0.0239 -2.7982  1.5146
  398SOL    HW2 1194   2.175   0.089   1.047 -1.3638 -0.7758 -1.2978
  399SOL     OW 1195   2.871   2.548   2.772  0.4661 -0.2735 -0.3168
  399SOL    HW1 1196   2.853   2.488   2.691 -0.5968  2.7037  2.2718
  399SOL    HW2 1197   2.838   2.504   2.863  0.6197 -2.9460 -0.1617
  400SOL     OW 1198   0.764   1.573   1.268  0.1792 -0.1490  0.0172
  400SOL    HW1 1199   0.723   1.627   1.344  1.4185  2.2087  0.7825
  400SOL    HW2 1200   0.745   1.624   1.176 -1.9330  0.9956  0.7183
  401SOL     OW 1201   1.834   0.159   1.325  0.0315 -0.1501  0.8134
  401SOL    HW1 1202   1.889   0.185   1.407  0.9316 -0.0913  0.6133
  401SOL    HW2 1203   1.733   0.140   1.351 -2.2698  0.5494  4.2997
  402SOL     OW 1204   1.330   0.147   3.076  0.2194 -0.1051 -0.2259
  402SOL    HW1 1205   1.413   0.136   3.013 -1.0787  1.6391  1.5776
  402SOL    HW2 1206   1.322   0.245   3.117  1.1218  1.0117  0.3766
  403SOL     OW 1207   2.310   1.842   0.895  0.0454 -0.1456 -0.2450
  403SOL    HW1 1208   2.412   1.857   0.902  1.6920 -0.6760 -0.8162
  403SOL    HW2 1209   2.255   1.910   0.947 -0.6928 -0.2988 -3.7833
  404SOL     OW 1210   0.193   2.475   2.882  0.0675  0.1598 -0.2230
  404SOL    HW1 1211   0.291   2.457   2.861 -0.3558 -0.3645  0.4297
  404SOL    HW2 1212   0.167   2.572   2.877 -0.9053 -2.1562 -3.1518
  405SOL     OW 1213   0.193   2.503   0.584 -0.0804 -1.0770 -0.4815
  405SOL    HW1 1214   0.137   2.528   0.500  1.5175  1.5951 -0.4185
  405SOL    HW2 1215   0.278   2.561   0.589 -2.3124 -1.4498 -3.0931
  406SOL     OW 1216   0.037   1.471   2.970 -0.2696 -0.2427 -0.1299
  406SOL    HW1 1217   0.125   1.453   2.907 -1.9605 -2.0377 -1.4655
  406SOL    HW2 1218   0.054   1.485   3.070 -1.0820  0.2529 -2.7910
  407SOL     OW 1219   1.568   0.931   0.886  0.3754 -0.0064 -0.1749
  407SOL    HW1 1220   1.581   0.931   0.782  0.9694  1.0428 -0.9184
  407SOL    HW2 1221   1.495   0.992   0.926  1.0466  0.3943 -1.0239
  408SOL     OW 1222   1.608   2.327   1.013  0.8488 -0.6195 -0.1097
  408SOL    HW1 1223   1.659   2.329   0.925  0.5936  0.8335 -1.6423
  408SOL    HW2 1224   1.607   2.423   1.067 -0.6595 -0.1367 -0.0217
  409SOL     OW 1225   0.550   0.877   0.774  0.8815  0.2063 -0.1661
  409SOL    HW1 1226   0.484   0.884   0.697 -0.0576  1.4022 -0.2176
  409SOL    HW2 1227   0.579   0.776   0.792 -0.5376 -0.3820  0.8919
  410SOL     OW 1228   1.246   2.000   1.404  0.3930 -0.3832  0.6270
  410SOL    HW1 1229   1.319   1.996   1.480 -1.3390  1.8031 -4.4402
  410SOL    HW2 1230   1.149   1.960   1.427 -1.2803  1.1501  0.6910
  411SOL     OW 1231   2.449   1.866   3.053  0.1907  0.5705 -0.1751
  411SOL    HW1 1232   2.375   1.934   3.028 -0.3491  1.5975  0.5964
  411SOL    HW2 1233   2.534   1.881   2.995  1.7085  1.5996 -1.2644
  412SOL     OW 1234   1.479   2.497   2.240 -0.5444 -0.2902  0.0710
  412SOL    HW1 1235   1.522   2.582   2.285  1.2045 -0.7157  2.1861
  412SOL    HW2 1236   1.397   2.469   2.296 -0.2858  0.4634 -1.7358
  413SOL     OW 1237   0.021   0.248   2.938  0.1441  0.0639 -0.7152
  413SOL    HW1 1238  -0.057   0.176   2.955 -0.3363 -0.1656  0.7777
  413SOL    HW2 1239   0.092   0.237   3.013  0.5756 -0.1617 -3.2084
  414SOL     OW 1240   1.769   1.455   1.368  0.1952  0.1644 -0.4006
  414SOL    HW1 1241   1.688   1.501   1.415  0.4081 -1.7871  0.4140
  414SOL    HW2 1242   1.750   1.412   1.278  2.0251 -2.8451 -1.0243
  415SOL     OW 1243   0.338   2.229   0.669 -0.5544 -0.5145  0.5695
  415SOL    HW1 1244   0.309   2.326   0.676  0.9059 -2.3407  0.7024
  415SOL    HW2 1245   0.254   2.168   0.651 -1.2319 -1.2165 -0.0711
  416SOL     OW 1246   0.331   1.039   1.055 -0.0566  0.6958  0.3061
  416SOL    HW1 1247   0.278   1.014   0.967  0.3660  0.3244 -0.1584
  416SOL    HW2 1248   0.424   1.070   1.022  2.6785 -0.4258 -1.9396
  417SOL     OW 1249   2.110   2.331   1.872 -0.1915 -0.0498 -0.0676
  417SOL    HW1 1250   2.145   2.235   1.867  0.3196 -1.7235  0.1926
  417SOL    HW2 1251   2.048   2.345   1.955 -0.9222 -1.3440  0.2822
  418SOL     OW 1252   1.086   0.502   1.271  0.0339 -0.0142  0.1601
  418SOL    HW1 1253   0.990   0.483   1.239  0.6853 -0.4199 -1.4183
  418SOL    HW2 1254   1.166   0.489   1.203  3.1835  2.3815  1.2259
  419SOL     OW 1255   1.047   0.336   3.049 -0.3128  0.3388 -0.4333
  419SOL    HW1 1256   1.026   0.389   2.961  0.7016 -1.0868  1.2686
  419SOL    HW2 1257   0.980   0.259   3.058  2.4352  2.7678  0.0615
  420SOL     OW 1258   0.189   2.239   0.377 -0.1295 -0.0819 -0.0445
  420SOL    HW1 1259   0.131   2.189   0.307  1.1008 -0.9943  0.4890
  420SOL    HW2 1260   0.136   2.256   0.466 -2.9376 -2.0026  0.1630
  421SOL     OW 1261   0.314   3.097   0.667  0.0981 -0.3500  0.0236
  421SOL    HW1 1262   0.295   2.994   0.663  3.3108 -1.4319  0.0066
  421SOL    HW2 1263   0.416   3.124   0.673 -2.4856 -0.6177  1.9122
  422SOL     OW 1264   0.979   2.547   1.060 -0.4006  0.0651  0.4728
  422SOL    HW1 1265   1.040   2.592   0.987 -0.6540 -1.7015 -1.9989
  422SOL    HW2 1266   1.003   2.574   1.161 -0.3444 -0.6247  2.0409
  423SOL     OW 1267   0.090   0.667   1.244  0.0597  0.3148  0.7173
  423SOL    HW1 1268   0.055   0.626   1.331  1.0196 -0.4751 -0.3109
  423SOL    HW2 1269   0.036   0.751   1.209  2.9459 -0.9435  1.4419
  424SOL     OW 1270   1.007   2.208   2.054  0.1249  0.0866  0.1674
  424SOL    HW1 1271   1.009   2.306   2.021 -1.1621  1.4822 -0.6057
  424SOL    HW2 1272   0.969   2.195   2.149  1.9179 -0.5977  0.2584
  425SOL     OW 1273   1.971   1.438   0.986  0.0788 -0.0623 -0.4911
  425SOL    HW1 1274   2.004   1.342   0.978  2.1040  1.5097 -1.1522
  425SOL    HW2 1275   2.038   1.505   0.951 -0.3960 -1.8130 -2.1498
  426SOL     OW 1276   1.522   1.556   1.435 -0.5179 -0.5185 -0.4857
  426SOL    HW1 1277   1.486   1.625   1.368  1.6047 -0.7818  1.3966
  426SOL    HW2 1278   1.473   1.576   1.525 -0.9626 -1.3624  0.3537
  427SOL     OW 1279   1.892   2.373   2.072 -0.5896 -0.2235 -0.6558
  427SOL    HW1 1280   1.947   2.335   2.150 -3.5212  1.6548  0.2643
  427SOL    HW2 1281   1.884   2.475   2.079  0.2775 -1.7145 -0.7292
  428SOL     OW 1282   0.865   2.918   0.154 -0.1580 -0.4590  0.1499
  428SOL    HW1 1283   0.896   3.015   0.174  3.1212  0.9245  2.2509
  428SOL    HW2 1284   0.948   2.860   0.144 -2.0994 -2.8049 -1.3895
  429SOL     OW 1285   1.297   0.079   0.254  0.0984  0.4565  0.2398
  429SOL    HW1 1286   1.371   0.131   0.299  0.7247  0.3903 -1.2995
  429SOL    HW2 1287   1.304   0.079   0.149 -1.9132 -0.7495 -0.0788
  430SOL     OW 1288   2.708   1.488   0.384 -0.2242 -0.3955  0.2482
  430SOL    HW1 1289   2.737   1.532   0.297  0.7342  0.6961  0.2331
  430SOL    HW2 1290   2.724   1.548   0.471 -1.9474 -0.7660  1.2205
  431SOL     OW 1291   2.108   1.638   0.875  0.2460 -0.2481 -0.0523
  431SOL    HW1 1292   2.165   1.707   0.926 -2.5099  0.0382  0.7306
  431SOL    HW2 1293   2.044   1.687   0.807  1.6469  1.3137 -0.6838
  432SOL     OW 1294   2.898   2.251   1.254 -0.3359 -0.7191  0.4674
  432SOL    HW1 1295   2.862   2.156   1.247  0.6948 -0.8083 -0.8241
  432SOL    HW2 1296   2.936   2.272   1.355  3.6607  2.9231  2.9120
  433SOL     OW 1297   1.857   0.395   0.837  0.4488 -0.1605  0.4206
  433SOL    HW1 1298   1.798   0.365   0.920  0.7251  0.1763 -0.6528
  433SOL    HW2 1299   1.897   0.317   0.781 -0.9668 -2.2892  0.8470
  434SOL     OW 1300   1.577   0.289   0.728  0.1464  0.0874  0.0577
  434SOL    HW1 1301   1.506   0.362   0.702  0.8751 -2.0134 -0.0307
  434SOL    HW2 1302   1.610   0.300   0.829  0.8704  1.1472  4.0607
  435SOL     OW 1303   1.434   1.450   2.124 -0.0111  0.5145 -0.6127
  435SOL    HW1 1304   1.380   1.488   2.206 -2.1289  1.2314  1.5566
  435SOL    HW2 1305   1.453   1.527   2.062 -2.8801 -1.5481 -0.7329
  436SOL     OW 1306   1.636   2.699   2.347  0.2917  0.3242 -0.1967
  436SOL    HW1 1307   1.631   2.790   2.390  0.7810 -1.7850 -4.6522
  436SOL    HW2 1308   1.672   2.626   2.414  1.5092  1.6170  1.7913
  437SOL     OW 1309   1.105   2.907   0.861 -0.1878 -0.1244  0.3110
  437SOL    HW1 1310   1.039   2.981   0.831  1.4702 -1.5564 -1.8030
  437SOL    HW2 1311   1.094   2.888   0.961  0.9051  1.6469  0.2696
  438SOL     OW 1312   1.047   2.605   1.336  0.1411  0.2237 -0.3495
  438SOL    HW1 1313   1.120   2.623   1.407  0.5983 -1.8745 -1.2289
  438SOL    HW2 1314   1.023   2.507   1.340  1.9897  2.5844  0.7837
  439SOL     OW 1315   0.726   1.801   1.100  0.1047  0.0960  0.0224
  439SOL    HW1 1316   0.753   1.901   1.114 -0.1024  0.8048 -0.2259
  439SOL    HW2 1317   0.621   1.787   1.094 -0.4838  1.2779  0.1003
  440SOL     OW 1318   0.999   2.484   1.966 -0.4928  0.5606  0.0536
  440SOL    HW1 1319   0.955   2.475   1.871 -0.4764 -3.8130 -0.4466
  440SOL    HW2 1320   1.099   2.493   1.965 -0.6040 -2.0463  0.2991
  441SOL     OW 1321   0.403   2.790   1.337 -0.4571  0.3133  0.0561
  441SOL    HW1 1322   0.469   2.713   1.373  2.1283 -0.2938  3.5350
  441SOL    HW2 1323   0.363   2.775   1.242  2.2417  1.8492 -0.6692
  442SOL     OW 1324   2.269   0.655   2.611 -0.5556 -0.4755 -0.1960
  442SOL    HW1 1325   2.268   0.579   2.542 -0.7753  1.6187  0.3908
  442SOL    HW2 1326   2.182   0.707   2.609  0.4599  0.8664 -0.3457
  443SOL     OW 1327   1.217   2.703   2.200 -0.0760  0.0299 -0.1403
  443SOL    HW1 1328   1.265   2.625   2.235 -0.9696  1.1337  0.1921
  443SOL    HW2 1329   1.214   2.786   2.263  0.9112  4.3145 -1.9141
  444SOL     OW 1330   1.114   1.306   1.529  0.8081  0.9461  0.8128
  444SOL    HW1 1331   1.212   1.266   1.517 -1.1609 -0.3530  0.7637
  444SOL    HW2 1332   1.117   1.404   1.568 -2.8294  2.9539 -0.4174
  445SOL     OW 1333   3.100   2.384   1.845  0.2875 -0.9423 -0.1957
  445SOL    HW1 1334   3.088   2.470   1.787  1.8124 -1.3273 -1.6367
  445SOL    HW2 1335   3.020   2.371   1.914 -1.1894  1.4423 -2.8419
  446SOL     OW 1336   0.209   1.887   2.407  0.7828 -0.2829  0.0058
  446SOL    HW1 1337   0.147   1.972   2.431  0.7841 -1.3712 -2.6987
  446SOL    HW2 1338   0.177   1.836   2.318 -0.4784 -4.0161 -0.2803
  447SOL     OW 1339   1.233   1.659   1.976  0.0275 -0.2104  0.3732
  447SOL    HW1 1340   1.151   1.720   1.951  0.7537  1.2185 -0.2352
  447SOL    HW2 1341   1.314   1.711   2.015  0.7001  1.4129 -1.0070
  448SOL     OW 1342   0.087   1.445   1.978  0.0810  0.7873 -0.4635
  448SOL    HW1 1343   0.130   1.525   1.931 -1.7156 -0.1352 -1.0187
  448SOL    HW2 1344   0.067   1.469   2.081 -0.3776  0.6600  0.6502
  449SOL     OW 1345   1.726   2.931   0.902 -0.3587  0.0067  0.4187
  449SOL    HW1 1346   1.766   2.970   0.988 -1.9127 -1.4352 -1.6767
  449SOL    HW2 1347   1.796   2.882   0.841  1.8744  1.4677 -0.4493
  450SOL     OW 1348   2.307   1.449   0.752  0.2961 -0.4951 -0.3908
  450SOL    HW1 1349   2.218   1.467   0.799 -1.5627  1.6763  1.1584
  450SOL    HW2 1350   2.315   1.489   0.653  2.2422 -0.0370 -1.4905
  451SOL     OW 1351   1.310   3.051   1.434 -0.6331 -0.4167 -0.1995
  451SOL    HW1 1352   1.275   3.145   1.475 -0.5077  0.9742 -0.4731
  451SOL    HW2 1353   1.346   2.990   1.509 -1.3517  0.0127 -0.0836
  452SOL     OW 1354   2.655   2.288   2.240 -0.2210  0.1970 -0.8242
  452SOL    HW1 1355   2.620   2.384   2.265  0.5936  1.8331  0.9265
  452SOL    HW2 1356   2.699   2.235   2.319 -1.9917  2.4188 -1.4645
  453SOL     OW 1357   2.463   2.679   3.082  0.1253 -0.1204 -0.3446
  453SOL    HW1 1358   2.389   2.736   3.133  0.3602  1.6492  0.9516
  453SOL    HW2 1359   2.428   2.623   3.005  0.9429 -0.1444 -2.7764
  454SOL     OW 1360   0.980   1.164   2.048 -0.1007 -0.4213  0.1575
  454SOL    HW1 1361   0.956   1.145   1.948  0.5639  3.6631 -2.7242
  454SOL    HW2 1362   1.065   1.224   2.062 -0.0609  0.2443  0.0045
  455SOL     OW 1363   0.679   2.691   2.797  0.7826  0.0620  0.0511
  455SOL    HW1 1364   0.774   2.736   2.795 -1.8499  0.6366 -2.7364
  455SOL    HW2 1365   0.678   2.591   2.842 -0.2847 -2.3934 -0.3224
  456SOL     OW 1366   0.423   1.856   0.189  0.4544 -0.0523  0.1123
  456SOL    HW1 1367   0.505   1.817   0.242  1.9942 -1.8825 -0.3926
  456SOL    HW2 1368   0.449   1.950   0.159  0.4788 -0.1343  0.6812
  457SOL     OW 1369   0.393   2.697   0.608  0.1840 -0.5547 -0.5815
  457SOL    HW1 1370   0.377   2.713   0.506 -2.2945 -0.3793  2.5535
  457SOL    HW2 1371   0.487   2.726   0.639 -0.8792  0.9607 -0.2386
  458SOL     OW 1372   2.905   0.020   1.204  0.9247 -0.7985  0.5273
  458SOL    HW1 1373   2.978   0.091   1.173  0.7937  2.9970  1.5928
  458SOL    HW2 1374   2.885  -0.049   1.129 -0.5813  1.0484 -0.4674
  459SOL     OW 1375   2.096   2.619   0.787 -0.7240  0.2533 -0.0875
  459SOL    HW1 1376   2.190   2.655   0.823  2.6917 -0.1614  0.7143
  459SOL    HW2 1377   2.104   2.542   0.718 -2.2483  0.6710 -2.3930
  460SOL     OW 1378   1.192   2.128   2.818  0.0466 -0.0269 -0.1487
  460SOL    HW1 1379   1.162   2.148   2.720  1.0485 -2.2354 -1.0654
  460SOL    HW2 1380   1.220   2.032   2.845 -0.1725  0.9660  2.4221
  461SOL     OW 1381   0.559   2.187   2.653  0.3770 -0.2536 -0.2386
  461SOL    HW1 1382   0.516   2.113   2.599  0.1321 -0.0963  1.5807
  461SOL    HW2 1383   0.562   2.163   2.755  0.8772  1.0942 -0.6308
  462SOL     OW 1384   0.936   1.078   1.760 -0.1580 -0.3074 -0.3602
  462SOL    HW1 1385   1.004   1.050   1.689  0.6525  0.6193 -0.7492
  462SOL    HW2 1386   0.881   1.162   1.734 -1.4634 -1.5436 -4.3777
  463SOL     OW 1387   0.466   0.840   0.506 -0.2304 -0.5097 -0.0186
  463SOL    HW1 1388   0.501   0.743   0.497  1.4941 -1.6513 -1.4110
  463SOL    HW2 1389   0.360   0.843   0.513 -0.1184  0.5282 -1.1776
  464SOL     OW 1390   0.603   2.272   2.218  0.5020  0.0872 -0.0597
  464SOL    HW1 1391   0.572   2.369   2.246 -0.1692  2.0987  1.5193
  464SOL    HW2 1392   0.567   2.253   2.123 -0.5808 -0.9223  0.0227
  465SOL     OW 1393   0.212   0.942   0.838 -0.1581  0.3072 -0.2985
  465SOL    HW1 1394   0.122   0.963   0.778 -3.4992 -1.1795 -1.7080
  465SOL    HW2 1395   0.248   0.845   0.827 -0.3301 -1.1059 -0.0337
  466SOL     OW 1396   1.399   1.110   0.998  0.1562 -0.2554  0.1528
  466SOL    HW1 1397   1.420   1.204   0.959  0.0451 -0.4019 -0.5628
  466SOL    HW2 1398   1.303   1.072   0.979 -1.9725  1.4283 -1.1442
  467SOL     OW 1399   0.618   0.432   2.448 -0.0426  0.0523 -0.6086
  467SOL    HW1 1400   0.558   0.522   2.439 -3.8217  0.6026 -1.5561
  467SOL    HW2 1401   0.591   0.374   2.534  1.0343  0.3101  0.0667
  468SOL     OW 1402   0.434   2.260   1.611  0.0772 -0.4354  0.1495
  468SOL    HW1 1403   0.456   2.336   1.676 -3.1486 -1.5070  1.5027
  468SOL    HW2 1404   0.419   2.294   1.511 -0.3625 -1.0583 -2.4120
  469SOL     OW 1405   1.478   1.352   1.251 -0.0908  0.0608 -0.5693
  469SOL    HW1 1406   1.570   1.324   1.211 -1.5614  0.1351  0.7187
  469SOL    HW2 1407   1.488   1.423   1.325 -1.2067 -0.3506  3.8325
  470SOL     OW 1408   3.038   1.852   0.771  0.2051 -0.0922  0.1252
  470SOL    HW1 1409   3.112   1.904   0.729 -2.9547 -1.9418  0.4263
  470SOL    HW2 1410   3.072   1.769   0.824  0.3009 -1.0111 -0.0967
  471SOL     OW 1411   2.586   1.319   2.149  0.5561 -0.4997 -0.1885
  471SOL    HW1 1412   2.517   1.289   2.218 -1.5153 -0.4694 -0.0274
  471SOL    HW2 1413   2.677   1.335   2.193 -0.0879 -0.0578  1.0480
  472SOL     OW 1414   1.159   2.405   0.045 -0.1637  0.6835  0.2269
  472SOL    HW1 1415   1.229   2.391   0.122  1.0716 -0.8038 -1.0827
  472SOL    HW2 1416   1.068   2.366   0.074 -0.9735  0.6533  0.2330
  473SOL     OW 1417   1.069   1.513   1.035  0.0774  0.3295 -0.5183
  473SOL    HW1 1418   0.976   1.532   0.989  0.4263 -0.1261 -0.8549
  473SOL    HW2 1419   1.078   1.418   1.080  0.4503 -1.9250 -0.3574
  474SOL     OW 1420   0.672   1.250   0.553  0.2758  0.1973 -0.4172
  474SOL    HW1 1421   0.617   1.226   0.468 -0.4200  0.3931 -0.6942
  474SOL    HW2 1422   0.717   1.169   0.599 -0.5360 -2.3399  0.5541
  475SOL     OW 1423   2.841   0.035   0.825  0.3454 -0.1122  0.3637
  475SOL    HW1 1424   2.900   0.117   0.809 -1.3218  1.6951  0.8833
  475SOL    HW2 1425   2.742   0.049   0.847 -2.0592  1.2123 -1.0450
  476SOL     OW 1426   0.966   3.046   1.749 -0.2358  0.5994 -0.1796
  476SOL    HW1 1427   1.066   3.078   1.760 -0.2437  0.6724  0.1870
  476SOL    HW2 1428   0.956   2.991   1.662  1.8834 -1.5491  2.4799
  477SOL     OW 1429   1.440   0.334   2.423 -0.8157  0.1683 -0.5344
  477SOL    HW1 1430   1.424   0.367   2.522  0.0265  0.8696 -1.1895
  477SOL    HW2 1431   1.517   0.262   2.413  1.4281 -1.2269 -1.0793
  478SOL     OW 1432   2.245   1.808   0.174 -0.1759  0.0848 -0.2666
  478SOL    HW1 1433   2.179   1.748   0.231  1.0404 -1.8665 -0.0632
  478SOL    HW2 1434   2.271   1.757   0.093 -2.6168 -0.7694  0.6903
  479SOL     OW 1435   1.213   0.984   2.813 -0.7280 -0.0366  0.2576
  479SOL    HW1 1436   1.279   0.948   2.745 -0.5030  0.9024  2.3555
  479SOL    HW2 1437   1.127   0.929   2.817  0.3147  1.9448 -2.2226
  480SOL     OW 1438   2.663   2.354   0.365 -0.1505 -0.4038 -0.1702
  480SOL    HW1 1439   2.688   2.254   0.370 -0.0530  0.4910 -1.1004
  480SOL    HW2 1440   2.568   2.376   0.331  0.6480 -0.9062  1.5484
  481SOL     OW 1441   0.957   1.179   0.862  0.8973 -0.1698  0.3492
  481SOL    HW1 1442   0.959   1.272   0.822  0.0028 -0.6765  0.0003
  481SOL    HW2 1443   1.021   1.165   0.940 -0.8182 -0.1334 -0.8225
  482SOL     OW 1444   1.602   0.287   2.005  0.0289 -0.3354 -0.0294
  482SOL    HW1 1445   1.608   0.389   1.983 -1.5297  4.0440 -0.6514
  482SOL    HW2 1446   1.693   0.249   2.037 -1.3106 -0.4428  0.2510
  483SOL     OW 1447   0.122   2.272   1.198 -0.1148  0.3469 -0.0691
  483SOL    HW1 1448   0.037   2.306   1.247  0.2610 -0.1960  0.5942
  483SOL    HW2 1449   0.178   2.346   1.146 -3.2635  2.0767  1.8157
  484SOL     OW 1450   1.776   1.122   1.367 -0.0874  0.1725 -0.3145
  484SOL    HW1 1451   1.814   1.031   1.393  1.6753  1.9210 -1.4760
  484SOL    HW2 1452   1.806   1.200   1.432  1.5641  0.2273  0.5594
  485SOL     OW 1453   0.750   0.886   1.767  0.0256  0.8150  0.2976
  485SOL    HW1 1454   0.736   0.862   1.664  0.3108  0.7737  0.0656
  485SOL    HW2 1455   0.830   0.951   1.773  2.2145  0.6156 -0.1618
  486SOL     OW 1456   0.796   1.873   2.467 -0.1448  0.2172 -0.5532
  486SOL    HW1 1457   0.854   1.841   2.547 -1.5669 -1.9770 -1.4619
  486SOL    HW2 1458   0.762   1.973   2.470 -1.3392  3.4160  1.8492
  487SOL     OW 1459   1.776   1.666   0.931  0.4563 -0.0839  0.0450
  487SOL    HW1 1460   1.841   1.587   0.962 -0.3619  1.2570  0.6995
  487SOL    HW2 1461   1.809   1.725   0.853 -0.2777 -0.8987 -0.9541
  488SOL     OW 1462   2.957   0.870   2.261  0.2068 -0.2253  0.3837
  488SOL    HW1 1463   2.988   0.771   2.253  3.1922  0.7810 -0.1005
  488SOL    HW2 1464   2.994   0.915   2.346  2.8691 -1.2481 -0.3769
  489SOL     OW 1465   2.814   0.338   1.295 -0.4016  0.3470 -0.9304
  489SOL    HW1 1466   2.795   0.321   1.395 -1.4935  1.1062  0.2678
  489SOL    HW2 1467   2.895   0.291   1.254  0.6569  1.1807  1.1199
  490SOL     OW 1468   1.427   2.928   2.798  0.4820  0.3243 -0.2034
  490SOL    HW1 1469   1.506   2.861   2.811 -1.4115  1.2690  2.0711
  490SOL    HW2 1470   1.386   2.940   2.705 -0.7548 -2.4285  0.4327
  491SOL     OW 1471   1.682   1.487   2.631  0.4300 -0.9609 -0.1612
  491SOL    HW1 1472   1.607   1.472   2.701  0.5272 -3.2072  0.9839
  491SOL    HW2 1473   1.775   1.498   2.672  1.0976  1.7837  0.4831
  492SOL     OW 1474   0.560   2.092   0.623  0.4061  0.8855  0.3022
  492SOL    HW1 1475   0.637   2.089   0.699 -0.7253 -0.0029  1.1085
  492SOL    HW2 1476   0.484   2.153   0.652 -0.7561 -1.2395  1.8909
  493SOL     OW 1477   0.423   1.397   2.044 -0.0605 -0.3882 -0.0514
  493SOL    HW1 1478   0.343   1.467   2.033 -1.7005  1.0947 -2.1630
  493SOL    HW2 1479   0.390   1.300   2.047 -0.6673 -0.1032  0.4274
  494SOL     OW 1480   2.707   2.706   0.095  0.4230  0.2505  0.0870
  494SOL    HW1 1481   2.704   2.672   0.197 -3.0169  1.4286  1.5411
  494SOL    HW2 1482   2.610   2.702   0.050 -2.5057 -0.1686 -0.9270
  495SOL     OW 1483   2.572   2.710   2.650 -0.3546  0.1654  0.2459
  495SOL    HW1 1484   2.578   2.611   2.638 -0.7663  4.8205  0.5803
  495SOL    HW2 1485   2.657   2.753   2.608 -3.4061  0.0642  1.1638
  496SOL     OW 1486   2.085   2.266   0.737  0.2114 -0.4927 -0.8600
  496SOL    HW1 1487   2.103   2.316   0.826 -0.7399 -0.2309  0.6756
  496SOL    HW2 1488   2.082   2.164   0.748  3.0409  1.3749 -0.3586
  497SOL     OW 1489   0.206   2.989   2.350  0.1553 -0.1349  0.2499
  497SOL    HW1 1490   0.170   3.055   2.418 -1.0694 -0.0344  0.9467
  497SOL    HW2 1491   0.267   3.033   2.277  0.4126  0.6438  2.5503
  498SOL     OW 1492   1.198   1.340   1.232 -0.2732  0.3597 -0.0703
  498SOL    HW1 1493   1.298   1.335   1.256 -2.1180 -0.3893 -0.2562
  498SOL    HW2 1494   1.159   1.424   1.277  1.5336  0.2246 -2.7756
  499SOL     OW 1495   0.619   1.748   0.357  0.2397  0.1304  0.2803
  499SOL    HW1 1496   0.641   1.648   0.352 -1.5696 -0.5498 -1.3505
  499SOL    HW2 1497   0.694   1.803   0.408 -2.4702 -1.6660  1.1155
  500SOL     OW 1498   1.384   2.900   1.629  0.5610 -0.3169  0.1082
  500SOL    HW1 1499   1.349   2.907   1.724 -0.3763 -0.9488 -3.8197
  500SOL    HW2 1500   1.458   2.830   1.633  1.7828  1.4702 -1.4719
  501SOL     OW 1501   0.807   1.126   2.267  0.6569  0.2240  0.0479
  501SOL    HW1 1502   0.720   1.063   2.262 -2.7774 -1.3757  1.1287
  501SOL    HW2 1503   0.831   1.162   2.177 -0.2947  1.4960  0.4930
  502SOL     OW 1504   2.570   0.925   1.719 -0.5516 -0.2954 -0.3352
  502SOL    HW1 1505   2.574   0.944   1.618  0.9601  0.7928  2.4877
  502SOL    HW2 1506   2.574   0.827   1.748  1.4508  0.4355 -0.7903
  503SOL     OW 1507   1.337   0.144   0.641 -0.1315  0.3029  0.8323
  503SOL    HW1 1508   1.273   0.223   0.652 -0.0867 -0.7974 -2.2820
  503SOL    HW2 1509   1.436   0.166   0.654 -1.5939 -0.7598 -1.6416
  504SOL     OW 1510   3.012   2.332   1.498  0.1078 -0.0053 -0.3400
  504SOL    HW1 1511   2.945   2.399   1.537 -0.2306  0.1001 -0.4171
  504SOL    HW2 1512   3.080   2.294   1.566 -1.1470 -1.3552  3.3644
  505SOL     OW 1513   2.306   1.170   1.405  0.4017 -0.1892 -0.5232
  505SOL    HW1 1514   2.257   1.203   1.326  2.7977  0.4610  4.3173
  505SOL    HW2 1515   2.378   1.234   1.437 -0.7322 -0.9671  1.5254
  506SOL     OW 1516   1.979   0.217   1.844  0.3032  0.2218 -0.3442
  506SOL    HW1 1517   2.026   0.165   1.921  0.2740  2.1614  0.9234
  506SOL    HW2 1518   1.977   0.318   1.875  2.2628  0.4300  1.1938
  507SOL     OW 1519   0.589   0.664   2.134 -0.8536 -0.4589 -0.5344
  507SOL    HW1 1520   0.506   0.617   2.101  0.8736  0.8661 -0.2450
  507SOL    HW2 1521   0.669   0.606   2.161  0.2907 -2.2478  2.0901
  508SOL     OW 1522   0.289   1.655   0.748 -0.2743 -0.1052  0.2339
  508SOL    HW1 1523   0.352   1.719   0.689  1.0787  2.1929  1.7964
  508SOL    HW2 1524   0.251   1.701   0.835 -0.3112  1.5631 -1.4360
  509SOL     OW 1525   1.278   1.185   2.405 -0.7133  0.2778 -0.2489
  509SOL    HW1 1526   1.318   1.134   2.328  1.7756  0.4720  2.7661
  509SOL    HW2 1527   1.176   1.156   2.431 -2.3212  1.5701  0.8892
  510SOL     OW 1528   1.300   2.126   2.230  0.2370  0.0613 -0.0227
  510SOL    HW1 1529   1.283   2.171   2.142 -0.4476 -0.2919 -0.0073
  510SOL    HW2 1530   1.253   2.035   2.249  0.7446 -2.0901  0.2277
  511SOL     OW 1531   3.008   2.661   1.288  0.4892  0.1536 -0.3834
  511SOL    HW1 1532   2.959   2.651   1.195 -2.9757 -2.5642  2.6744
  511SOL    HW2 1533   2.933   2.664   1.361 -2.2852 -0.0551  1.5580
  512SOL     OW 1534   2.413   0.446   1.373 -0.0073  0.4690  0.1365
  512SOL    HW1 1535   2.313   0.419   1.383  2.8176  2.2551 -0.7701
  512SOL    HW2 1536   2.461   0.379   1.307 -2.6296 -1.9813  0.9653
  513SOL     OW 1537   2.574   2.109   0.894 -0.1190 -0.3822 -0.1199
  513SOL    HW1 1538   2.555   2.203   0.857  0.4312  2.1380  1.4381
  513SOL    HW2 1539   2.651   2.064   0.838  2.0217  0.3316 -2.1809
  514SOL     OW 1540   0.672   2.755   0.472 -0.2733 -0.0981 -0.0202
  514SOL    HW1 1541   0.706   2.796   0.383  1.0103 -0.1205  1.2441
  514SOL    HW2 1542   0.710   2.800   0.558  1.9239 -0.0327  0.5338
  515SOL     OW 1543   1.927   1.300   2.375  0.0857 -0.4155 -0.6525
  515SOL    HW1 1544   1.930   1.222   2.309  4.3379 -0.6636  0.7205
  515SOL    HW2 1545   1.845   1.300   2.441  0.4199  1.2565 -0.5353
  516SOL     OW 1546   0.267   0.276   1.908  0.2535 -0.4401  0.2229
  516SOL    HW1 1547   0.347   0.249   1.850 -4.4246 -0.4318  1.0941
  516SOL    HW2 1548   0.173   0.249   1.869 -1.4198  1.3531 -0.2380
  517SOL     OW 1549   0.455   0.050   1.154 -0.0741 -0.9468  0.2649
  517SOL    HW1 1550   0.468   0.128   1.222 -0.5685  0.8278 -0.5110
  517SOL    HW2 1551   0.354   0.031   1.155  0.8307  6.1763  0.2470
  518SOL     OW 1552   2.166   3.070   1.832 -0.0951 -0.3747  0.0213
  518SOL    HW1 1553   2.199   3.168   1.836 -0.0549 -0.6773  0.0611
  518SOL    HW2 1554   2.154   3.038   1.730 -1.4712 -3.6512  2.1555
  519SOL     OW 1555   2.339   2.127   2.450  0.1300 -0.3113 -0.1640
  519SOL    HW1 1556   2.306   2.117   2.551  1.5531  1.9097 -0.2984
  519SOL    HW2 1557   2.337   2.226   2.422 -0.3315 -1.0785  1.9502
  520SOL     OW 1558   1.849   2.687   1.749  0.1623 -0.4604  0.4275
  520SOL    HW1 1559   1.761   2.634   1.774 -0.3719 -0.4295  2.0460
  520SOL    HW2 1560   1.915   2.626   1.700 -0.7822  0.6231 -0.4736
  521SOL     OW 1561   0.558   3.061   2.090  0.7425 -0.0405  0.1447
  521SOL    HW1 1562   0.455   3.060   2.113  0.7260  0.3851 -0.3768
  521SOL    HW2 1563   0.621   3.065   2.170 -1.1644 -2.6213  0.7842
  522SOL     OW 1564   0.195   1.823   1.577  0.5094  0.2616  0.2225
  522SOL    HW1 1565   0.236   1.908   1.622  1.6621  2.3650  2.0647
  522SOL    HW2 1566   0.149   1.844   1.486  1.6447 -0.2308 -0.7398
  523SOL     OW 1567   2.180   2.974   1.574 -0.0754 -0.3602 -0.2409
  523SOL    HW1 1568   2.258   2.910   1.576 -1.3689 -1.7892  0.5585
  523SOL    HW2 1569   2.102   2.941   1.515 -0.7497 -2.1104 -3.0026
  524SOL     OW 1570   0.174   2.736   2.798  0.1684 -0.1170 -0.2323
  524SOL    HW1 1571   0.104   2.806   2.831  0.0096  2.0055 -0.6149
  524SOL    HW2 1572   0.270   2.766   2.812 -1.5078 -1.1457 -1.1315
  525SOL     OW 1573   2.204   1.990   0.399 -1.0111 -0.0914 -0.1149
  525SOL    HW1 1574   2.226   1.950   0.489  0.1964 -1.5415 -2.9745
  525SOL    HW2 1575   2.272   1.967   0.322  0.7161 -0.3932 -1.7755
  526SOL     OW 1576   0.477   1.490   1.694 -0.1382  0.4443 -1.2670
  526SOL    HW1 1577   0.523   1.542   1.773  1.2110  1.6946 -0.0646
  526SOL    HW2 1578   0.502   1.385   1.702  0.9918 -0.5581  0.4070
  527SOL     OW 1579   1.063   2.875   1.135 -0.0979 -0.0283  0.4734
  527SOL    HW1 1580   1.123   2.812   1.187 -0.4160 -0.8519 -0.5580
  527SOL    HW2 1581   1.090   2.975   1.158 -3.7604  1.7315 -0.5498
  528SOL     OW 1582   1.367   2.329   0.523 -0.4377 -0.3583 -0.5169
  528SOL    HW1 1583   1.399   2.230   0.503 -1.2750  0.5414  0.2759
  528SOL    HW2 1584   1.430   2.377   0.588 -0.1437  0.0375  1.0519
  529SOL     OW 1585   1.927   1.779   0.735  0.1542 -0.1255 -0.6449
  529SOL    HW1 1586   1.867   1.782   0.648 -0.0769  1.9368 -0.2246
  529SOL    HW2 1587   1.932   1.872   0.781  0.4364  0.2154 -0.7210
  530SOL     OW 1588   0.409   2.587   0.225  0.0577 -0.2617 -0.0830
  530SOL    HW1 1589   0.382   2.651   0.304 -2.3096  0.0363  2.5162
  530SOL    HW2 1590   0.416   2.490   0.255  1.1911  1.4977  1.3163
  531SOL     OW 1591   1.874   1.001   1.032 -0.0300  0.6323 -0.6779
  531SOL    HW1 1592   1.798   1.018   0.972  1.7890  1.6099  0.5283
  531SOL    HW2 1593   1.850   0.956   1.121  2.0246 -3.5819 -2.7371
  532SOL     OW 1594   0.379   1.182   0.724  0.2171 -0.3161 -0.1359
  532SOL    HW1 1595   0.426   1.156   0.636 -0.1070  0.7916 -2.8057
  532SOL    HW2 1596   0.312   1.115   0.758 -1.4144  0.8496  0.9715
  533SOL     OW 1597   1.760   0.012   2.581  0.6183 -0.3226 -0.0219
  533SOL    HW1 1598   1.864   0.001   2.570  0.1969 -0.5955 -2.0140
  533SOL    HW2 1599   1.732   0.102   2.636 -0.5471 -0.8441  0.2493
  534SOL     OW 1600   0.260   0.215   1.444  0.1584 -0.0844  0.0817
  534SOL    HW1 1601   0.356   0.222   1.407 -0.1841 -2.7630  1.1049
  534SOL    HW2 1602   0.240   0.301   1.494  1.6265  1.7247 -1.7644
  535SOL     OW 1603   1.892   0.380   0.220 -0.2318  0.3213 -0.4129
  535SOL    HW1 1604   1.927   0.428   0.310  0.3539 -0.8768 -0.2125
  535SOL    HW2 1605   1.818   0.305   0.230 -1.0918 -1.0747  2.5948
  536SOL     OW 1606   1.438   2.573   0.930  0.2938 -0.1456  0.3011
  536SOL    HW1 1607   1.412   2.543   1.029  1.0025  0.2572  1.3886
  536SOL    HW2 1608   1.358   2.615   0.878 -0.1537  3.6147 -1.0325
  537SOL     OW 1609   0.816   0.168   2.346 -0.6415 -0.7127 -0.1920
  537SOL    HW1 1610   0.829   0.187   2.244  0.7714 -1.6688  0.5588
  537SOL    HW2 1611   0.745   0.097   2.371 -0.4430  0.8538 -0.3961
  538SOL     OW 1612   1.662   2.293   1.501  0.1942 -0.5761 -0.1621
  538SOL    HW1 1613   1.650   2.205   1.442 -0.7705 -1.0279  0.2708
  538SOL    HW2 1614   1.749   2.340   1.463 -0.0181  0.0358 -2.4299
  539SOL     OW 1615   0.206   1.659   2.723 -0.6153  0.1417  0.4967
  539SOL    HW1 1616   0.134   1.618   2.664  0.5883  0.3048 -0.2538
  539SOL    HW2 1617   0.192   1.751   2.757 -0.9479 -2.2709 -0.5722
  540SOL     OW 1618   2.721   1.704   1.980 -0.0687 -0.0099  0.1015
  540SOL    HW1 1619   2.658   1.624   1.965 -1.0865 -0.5172 -0.2340
  540SOL    HW2 1620   2.694   1.798   1.942 -3.8130  1.2202  1.3337
  541SOL     OW 1621   0.481   2.324   3.055  0.3592 -0.4144 -0.4839
  541SOL    HW1 1622   0.533   2.265   3.126 -1.6603  2.7059 -0.8752
  541SOL    HW2 1623   0.384   2.292   3.065 -0.2722 -2.6842  1.7439
  542SOL     OW 1624   2.249   2.568   0.409  0.2192 -0.1777 -0.0914
  542SOL    HW1 1625   2.237   2.672   0.403 -0.0853 -0.9169  0.5845
  542SOL    HW2 1626   2.163   2.520   0.440  1.5192  1.3498  0.4925
  543SOL     OW 1627   1.014   1.704   1.660  0.4821 -0.5360 -0.1870
  543SOL    HW1 1628   1.039   1.734   1.758 -0.0790 -1.0833 -0.0198
  543SOL    HW2 1629   1.034   1.771   1.584  2.0433  2.7457 -0.0313
  544SOL     OW 1630   0.989   0.391   0.201 -0.0200 -0.0313 -0.2409
  544SOL    HW1 1631   0.886   0.374   0.192 -0.4011 -0.1616  0.9257
  544SOL    HW2 1632   1.038   0.387   0.105  1.1946  0.0037  0.6795
  545SOL     OW 1633   1.085   1.740   0.739 -0.0700  0.7376  0.3566
  545SOL    HW1 1634   1.165   1.794   0.773 -0.1626  0.3597  3.1599
  545SOL    HW2 1635   1.111   1.664   0.677 -0.4503 -1.5697  3.3521
  546SOL     OW 1636   2.616   1.551   3.059 -0.0217  0.3015  0.5038
  546SOL    HW1 1637   2.594   1.571   2.957  0.9830  1.7527  0.1565
  546SOL    HW2 1638   2.537   1.517   3.105  3.1560 -0.2265 -0.9278
  547SOL     OW 1639   0.567   0.054   2.681 -0.3253 -0.4568 -0.7293
  547SOL    HW1 1640   0.634  -0.017   2.688 -0.9585  3.7160 -0.4718
  547SOL    HW2 1641   0.476   0.013   2.656 -0.8930 -1.1514 -1.4248
  548SOL     OW 1642   2.028   0.838   3.040  0.3953  0.0851 -0.3705
  548SOL    HW1 1643   1.927   0.819   3.009  0.5650 -0.7377 -0.2044
  548SOL    HW2 1644   2.047   0.938   3.051  1.1088 -2.1796  0.1702
  549SOL     OW 1645   0.667   0.578   0.201 -0.3821 -0.3825  0.0431
  549SOL    HW1 1646   0.618   0.633   0.127 -0.3356  4.2635  0.6300
  549SOL    HW2 1647   0.763   0.610   0.209 -2.1796 -1.9771 -1.2102
  550SOL     OW 1648   2.500   2.864   2.857  0.4814 -0.4191 -0.2522
  550SOL    HW1 1649   2.464   2.791   2.922 -0.6747  1.1591  1.8738
  550SOL    HW2 1650   2.552   2.819   2.778  4.6312 -1.3721 -0.9060
  551SOL     OW 1651   0.289   0.861   0.218  0.0101 -0.4081  0.0316
  551SOL    HW1 1652   0.383   0.821   0.202 -1.6851 -1.0722  2.8094
  551SOL    HW2 1653   0.269   0.851   0.321 -0.6202  1.8335  0.4630
  552SOL     OW 1654   0.705   2.936   1.875 -0.5385  0.4858  0.0815
  552SOL    HW1 1655   0.690   2.967   1.974  1.7989  0.4050 -0.2617
  552SOL    HW2 1656   0.794   2.977   1.848  0.1145  1.5594 -0.3416
  553SOL     OW 1657   3.085   2.548   0.375 -0.8229  0.5939 -0.3833
  553SOL    HW1 1658   3.036   2.455   0.379 -1.1625  1.8545  1.7784
  553SOL    HW2 1659   3.036   2.614   0.435  0.9003 -0.0643 -0.6080
  554SOL     OW 1660   2.173   0.366   0.570 -0.1409  0.0243 -0.3355
  554SOL    HW1 1661   2.238   0.350   0.490  0.5976 -2.2733  0.8674
  554SOL    HW2 1662   2.162   0.282   0.634 -0.4126 -0.7705  0.6369
  555SOL     OW 1663   0.434   2.926   2.495  0.0136  0.8143  0.2381
  555SOL    HW1 1664   0.337   2.940   2.459  2.6034  0.9953 -1.8846
  555SOL    HW2 1665   0.489   2.863   2.430 -1.6768 -3.1467 -0.5718
  556SOL     OW 1666   0.842   2.392   1.553 -0.6491  0.0827 -0.2458
  556SOL    HW1 1667   0.886   2.481   1.584 -0.4563 -2.2594  1.0583
  556SOL    HW2 1668   0.907   2.349   1.483  1.1108 -0.5700  1.0564
  557SOL     OW 1669   0.097   2.075   0.157 -0.3691  0.0509  0.0624
  557SOL    HW1 1670   0.033   2.000   0.117 -0.9393 -1.0276  1.2537
  557SOL    HW2 1671   0.114   2.145   0.083  1.1854 -4.8974 -1.5193
  558SOL     OW 1672   2.918   2.341   0.287  0.0301 -0.1541 -0.2269
  558SOL    HW1 1673   2.823   2.368   0.319  1.0895  0.7294 -0.5595
  558SOL    HW2 1674   2.925   2.326   0.185  1.7382 -0.7289 -0.5856
  559SOL     OW 1675   0.370   2.310   1.351 -0.2452  0.0169  0.0299
  559SOL    HW1 1676   0.277   2.331   1.305  0.6515  1.7103  0.7212
  559SOL    HW2 1677   0.410   2.227   1.310 -0.4829  0.7076 -0.8345
  560SOL     OW 1678   2.073   1.121   3.073 -0.0102  0.5016 -0.3983
  560SOL    HW1 1679   2.020   1.178   3.143 -1.2413 -0.2320  0.3800
  560SOL    HW2 1680   2.156   1.171   3.039  0.2337 -0.2114  0.4332
  561SOL     OW 1681   3.002   1.883   0.046  0.2130 -0.4328 -0.0769
  561SOL    HW1 1682   2.950   1.820   0.111  0.9057  0.5305  0.7623
  561SOL    HW2 1683   2.939   1.968   0.021  0.1272  0.8752  1.1080
  562SOL     OW 1684   0.949   2.229   2.343  0.0216  0.1578  0.1740
  562SOL    HW1 1685   0.858   2.199   2.394 -0.0563 -0.2848  0.6663
  562SOL    HW2 1686   1.021   2.259   2.406  0.0544 -0.4149  1.9259
  563SOL     OW 1687   0.719   2.511   2.585  0.0381  0.5056  0.1054
  563SOL    HW1 1688   0.780   2.452   2.636 -2.8451  0.1775  0.6477
  563SOL    HW2 1689   0.678   2.584   2.649 -1.5039  0.1692  0.7693
  564SOL     OW 1690   2.774   1.320   2.919  0.3563  0.5891  0.3747
  564SOL    HW1 1691   2.713   1.334   3.000 -0.3710 -0.1395 -0.4061
  564SOL    HW2 1692   2.821   1.410   2.885  0.4786  0.1292  0.0587
  565SOL     OW 1693   2.576   1.966   2.564  0.2597 -0.4184  0.1119
  565SOL    HW1 1694   2.540   2.034   2.494  1.5782 -0.6216  0.8474
  565SOL    HW2 1695   2.628   2.012   2.643  0.4504 -1.0118  0.5087
  566SOL     OW 1696   2.002   2.855   1.411 -0.2572  0.3265  0.0065
  566SOL    HW1 1697   1.965   2.755   1.399 -2.6730 -1.3649  0.3621
  566SOL    HW2 1698   2.002   2.911   1.327 -1.9401 -0.4215 -1.7424
  567SOL     OW 1699   2.485   0.075   2.223  0.6607 -0.2833  0.3552
  567SOL    HW1 1700   2.539   0.149   2.181 -2.0016 -3.1154 -2.1726
  567SOL    HW2 1701   2.442   0.019   2.147 -1.5197 -4.0107  0.8431
  568SOL     OW 1702   1.553   1.761   0.245  0.0641 -0.1609  0.5130
  568SOL    HW1 1703   1.505   1.844   0.207  0.6539  1.1269  1.3138
  568SOL    HW2 1704   1.650   1.747   0.220  0.4366  1.8003  2.5116
  569SOL     OW 1705   0.304   0.659   0.844 -0.2949  0.1999 -1.0231
  569SOL    HW1 1706   0.340   0.581   0.784 -0.9665  1.5898  1.4015
  569SOL    HW2 1707   0.210   0.632   0.880  3.0632  0.1381 -0.7302
  570SOL     OW 1708   0.649   0.773   2.825 -0.4347  0.7033 -0.0506
  570SOL    HW1 1709   0.689   0.775   2.727 -1.2107  2.9629 -0.5800
  570SOL    HW2 1710   0.648   0.868   2.861  0.3084 -0.8225 -0.9298
  571SOL     OW 1711   0.775   3.063   1.045 -0.5391  0.1830 -0.0680
  571SOL    HW1 1712   0.849   3.086   0.972 -0.1218  0.3388  1.0470
  571SOL    HW2 1713   0.782   2.970   1.089  0.1619 -1.7729 -1.2881
  572SOL     OW 1714   1.593   2.619   1.224  0.0438  0.1581  0.1955
  572SOL    HW1 1715   1.503   2.566   1.236 -0.2770 -1.1309  1.0326
  572SOL    HW2 1716   1.575   2.725   1.221 -1.1032  0.5375  1.0931
  573SOL     OW 1717   2.921   0.430   2.017 -0.4610  0.1534  0.1667
  573SOL    HW1 1718   2.877   0.336   2.021 -0.9208  0.9688  0.1010
  573SOL    HW2 1719   2.857   0.502   1.972 -0.4831  1.0286 -3.1110
  574SOL     OW 1720   0.214   1.718   0.993  0.3015 -0.0699 -0.0309
  574SOL    HW1 1721   0.232   1.821   0.992  1.0177 -0.0126 -0.9328
  574SOL    HW2 1722   0.149   1.691   1.072 -0.1009 -0.6669 -0.0270
  575SOL     OW 1723   0.942   2.112   0.993  0.9161  0.2828 -0.1443
  575SOL    HW1 1724   0.886   2.160   1.068  0.1474  1.6579  0.0849
  575SOL    HW2 1725   0.995   2.181   0.933  2.8076 -1.1439 -0.5757
  576SOL     OW 1726   2.886   2.971   1.654 -0.4342  0.2232  0.1250
  576SOL    HW1 1727   2.809   2.968   1.583 -0.4471  0.4752  1.0834
  576SOL    HW2 1728   2.925   3.067   1.647 -1.0066 -2.2142 -1.5473
  577SOL     OW 1729   2.527   1.228   0.005 -0.2140 -0.4195  0.2463
  577SOL    HW1 1730   2.546   1.144  -0.053  0.3680  2.8145 -0.6294
  577SOL    HW2 1731   2.577   1.231   0.095 -0.4897  1.9893  1.0211
  578SOL     OW 1732   1.348   2.733   2.540  0.0316  0.3723 -0.6118
  578SOL    HW1 1733   1.270   2.782   2.491 -2.0055 -0.2607  0.7738
  578SOL    HW2 1734   1.443   2.762   2.505  1.3186  1.5941  0.8281
  579SOL     OW 1735   0.095   2.496   0.113 -0.1816  0.0164 -0.0294
  579SOL    HW1 1736   0.061   2.507   0.211  0.0699  0.6412  2.4657
  579SOL    HW2 1737   0.175   2.434   0.104  0.3239  0.9575  2.1340
  580SOL     OW 1738   1.032   2.656   0.434  0.8444  0.0266  0.3551
  580SOL    HW1 1739   1.128   2.661   0.395 -2.1137  0.0152 -0.4845
  580SOL    HW2 1740   0.965   2.607   0.372 -0.1866 -1.0565 -1.1016
  581SOL     OW 1741   1.278   2.581   1.517 -0.1166  0.0629  0.1064
  581SOL    HW1 1742   1.333   2.496   1.525  0.8439  1.4768 -0.4121
  581SOL    HW2 1743   1.304   2.638   1.434  2.7097 -0.2011 -0.3765
  582SOL     OW 1744   1.500   0.086   1.820 -0.0456  0.2208  0.2969
  582SOL    HW1 1745   1.512   0.159   1.892 -3.0043 -2.9517  1.3144
  582SOL    HW2 1746   1.586   0.072   1.764 -0.0093  0.5051 -0.5025
  583SOL     OW 1747   2.521   3.021   0.497 -0.3410  0.0274  0.3901
  583SOL    HW1 1748   2.545   2.951   0.423 -0.3585  2.9143 -1.0981
  583SOL    HW2 1749   2.459   2.985   0.572 -3.9664  0.6630  2.0550
  584SOL     OW 1750   1.618   0.943   2.100  0.5613 -0.1716 -0.0329
  584SOL    HW1 1751   1.679   1.019   2.070 -1.5535  0.7223  1.8440
  584SOL    HW2 1752   1.668   0.882   2.170  1.6481 -1.4045  1.8926
  585SOL     OW 1753   2.096   2.674   2.963 -0.0082 -0.2346 -0.2994
  585SOL    HW1 1754   2.157   2.595   2.924  1.8802 -2.5026 -1.3213
  585SOL    HW2 1755   2.004   2.673   2.919 -0.3823 -0.3274  3.3747
  586SOL     OW 1756   2.756   0.277   1.543  0.2670  0.3856  0.3545
  586SOL    HW1 1757   2.764   0.361   1.602 -0.7657  1.3719 -0.5834
  586SOL    HW2 1758   2.663   0.226   1.549 -2.4958  0.6492  0.7558
  587SOL     OW 1759   1.917   1.529   2.749  0.4384 -0.3788 -0.1772
  587SOL    HW1 1760   1.977   1.465   2.696  0.8196  2.0030 -0.2801
  587SOL    HW2 1761   1.960   1.551   2.838  0.2946  0.5131  0.1059
  588SOL     OW 1762   0.473   2.741   2.264 -0.2639 -0.2126 -0.2213
  588SOL    HW1 1763   0.380   2.739   2.216  0.2195  0.5092 -1.3299
  588SOL    HW2 1764   0.487   2.651   2.318 -1.6333 -4.1821 -1.4722
  589SOL     OW 1765   2.103   1.411   2.551  0.3396 -0.2442  0.0625
  589SOL    HW1 1766   2.051   1.384   2.465 -0.3497  1.3346 -0.9363
  589SOL    HW2 1767   2.185   1.352   2.559 -2.0965 -0.4688 -0.3654
  590SOL     OW 1768   2.342   1.648   2.048 -0.3877  0.3180  0.3304
  590SOL    HW1 1769   2.431   1.598   2.030 -0.0064 -0.0075  2.3904
  590SOL    HW2 1770   2.340   1.688   2.144  0.4702  1.0234  0.0034
  591SOL     OW 1771   1.325   2.395   0.256  0.1252 -0.1775 -0.0384
  591SOL    HW1 1772   1.376   2.319   0.209  1.4517  0.8466  1.1846
  591SOL    HW2 1773   1.333   2.387   0.359 -1.0527  1.2223  0.5072
  592SOL     OW 1774   1.765   2.312   0.773  0.0887  0.0634  0.6684
  592SOL    HW1 1775   1.743   2.374   0.691 -1.2526 -0.1245  1.4793
  592SOL    HW2 1776   1.868   2.298   0.781  2.1992 -2.4044 -1.0611
  593SOL     OW 1777   0.690   0.304   0.132  0.4345 -0.3802  0.5144
  593SOL    HW1 1778   0.737   0.249   0.056 -2.9849 -2.7991 -0.0945
  593SOL    HW2 1779   0.677   0.407   0.111  1.5658  3.6091  1.1549
  594SOL     OW 1780   0.946   1.832   2.718 -0.7498  0.1970  0.1219
  594SOL    HW1 1781   1.052   1.840   2.737  1.8542 -1.5266 -2.3265
  594SOL    HW2 1782   0.896   1.917   2.754  0.8162  1.5543  3.7768
  595SOL     OW 1783   1.549   0.078   1.038 -0.5588 -0.3720 -0.0114
  595SOL    HW1 1784   1.625   0.008   1.053 -0.0021 -1.2429 -0.2328
  595SOL    HW2 1785   1.465   0.041   0.987  0.0378  1.1401 -1.3033
  596SOL     OW 1786   3.086   1.463   2.260  0.6832 -0.4700 -0.2391
  596SOL    HW1 1787   2.979   1.460   2.257  0.1952 -1.7482  1.1771
  596SOL    HW2 1788   3.116   1.541   2.320 -0.3282  3.3888 -0.8885
  597SOL     OW 1789   2.039   2.554   1.607 -0.1133  0.0149  0.6583
  597SOL    HW1 1790   2.034   2.467   1.549  1.4449  0.5550  1.5417
  597SOL    HW2 1791   2.124   2.556   1.658 -3.3983 -0.5170 -1.8866
  598SOL     OW 1792   2.513   2.974   1.322  0.3592  0.1072  0.0832
  598SOL    HW1 1793   2.604   3.009   1.359 -2.6874  0.7856  0.5372
  598SOL    HW2 1794   2.519   2.925   1.230  1.6893  0.7129 -0.5129
  599SOL     OW 1795   2.947   0.395   2.495 -0.0201 -0.2659  0.0829
  599SOL    HW1 1796   3.014   0.475   2.472  3.9992 -0.8507 -1.4198
  599SOL    HW2 1797   2.848   0.424   2.489 -0.0185  0.3703 -0.8455
  600SOL     OW 1798   2.756   1.127   2.682 -0.2456 -0.3284 -0.0136
  600SOL    HW1 1799   2.749   1.024   2.708 -1.2661 -0.6464  0.0793
  600SOL    HW2 1800   2.720   1.193   2.758  0.8669 -0.2113  1.3130
  601SOL     OW 1801   2.969   1.275   1.922 -0.1086  0.2101  0.3195
  601SOL    HW1 1802   2.895   1.315   1.861  0.3379 -0.9877 -0.4543
  601SOL    HW2 1803   3.053   1.335   1.936 -3.3029 -0.4384 -0.7500
  602SOL     OW 1804   1.420   1.709   2.333 -0.1291  0.1269  0.6012
  602SOL    HW1 1805   1.355   1.631   2.342  0.8990  1.7794 -2.3272
  602SOL    HW2 1806   1.517   1.679   2.359  0.3688  0.9983  4.3764
  603SOL     OW 1807   0.613   1.221   2.732 -0.6085 -0.3372  0.3769
  603SOL    HW1 1808   0.537   1.180   2.675 -0.0231  2.5169  0.9893
  603SOL    HW2 1809   0.705   1.168   2.727 -0.7595 -2.0269  0.7251
  604SOL     OW 1810   2.388   1.006   0.149 -0.4642 -0.0303 -0.2010
  604SOL    HW1 1811   2.446   1.071   0.087  1.5999  0.9049 -0.9551
  604SOL    HW2 1812   2.357   0.919   0.107 -2.2290 -0.2606  3.1521
  605SOL     OW 1813   2.551   1.171   1.878  0.1099  0.0961 -0.0041
  605SOL    HW1 1814   2.538   1.068   1.866  0.5040  0.2017 -0.2191
  605SOL    HW2 1815   2.604   1.187   1.961  0.3485  0.7459  0.9932
  606SOL     OW 1816   1.478   2.497   2.617 -0.6212  0.3758 -0.5179
  606SOL    HW1 1817   1.400   2.561   2.596  3.5823  2.1699  0.6668
  606SOL    HW2 1818   1.463   2.396   2.589 -1.0495  0.1932 -3.9838
  607SOL     OW 1819   1.387   1.638   0.433 -0.0373 -0.2378 -0.6861
  607SOL    HW1 1820   1.288   1.664   0.428 -2.2397 -0.5811 -0.0241
  607SOL    HW2 1821   1.453   1.699   0.381  0.7367 -1.3354  0.0459
  608SOL     OW 1822   1.464   2.867   0.376 -0.2529 -0.8041 -0.4958
  608SOL    HW1 1823   1.538   2.920   0.324  0.4844  0.6140  0.9561
  608SOL    HW2 1824   1.399   2.933   0.426 -1.4313 -1.3244 -0.9025
  609SOL     OW 1825   1.340   1.402   0.259  0.5972  0.0899  0.0256
  609SOL    HW1 1826   1.340   1.476   0.323  1.3005 -1.6111 -2.2502
  609SOL    HW2 1827   1.259   1.403   0.194  1.2873 -1.6333 -0.3430
  610SOL     OW 1828   3.018   1.139   2.184  0.1459 -0.1229 -0.7826
  610SOL    HW1 1829   3.013   1.038   2.183  1.3229  0.6104  0.5363
  610SOL    HW2 1830   2.943   1.188   2.133  1.0741 -1.0355  0.4385
  611SOL     OW 1831   2.602   0.293   1.114 -0.4879 -0.1920 -0.2206
  611SOL    HW1 1832   2.541   0.231   1.172  0.4908  0.1190  0.6795
  611SOL    HW2 1833   2.687   0.321   1.168  0.4725 -0.4579 -0.1014
  612SOL     OW 1834   0.768   2.247   1.184  0.2207 -0.2351 -0.1983
  612SOL    HW1 1835   0.690   2.201   1.239 -2.2014 -0.1752  2.7178
  612SOL    HW2 1836   0.744   2.346   1.161 -0.1236 -0.0108 -0.4652
  613SOL     OW 1837   0.793   1.409   2.424  0.0180 -0.8895 -0.2470
  613SOL    HW1 1838   0.819   1.451   2.334 -0.2680 -0.1294  0.9428
  613SOL    HW2 1839   0.707   1.353   2.414  1.1454  0.2318 -1.3195
  614SOL     OW 1840   1.572   1.647   1.964 -0.2434 -0.5008  0.2671
  614SOL    HW1 1841   1.519   1.722   2.013 -0.4275 -1.1450 -1.6257
  614SOL    HW2 1842   1.667   1.635   2.005 -0.3271 -0.5753  0.8418
  615SOL     OW 1843   0.778   1.315   1.713 -0.4459  0.1570 -0.1453
  615SOL    HW1 1844   0.693   1.276   1.669 -3.1213 -0.6708  1.0919
  615SOL    HW2 1845   0.837   1.363   1.638  1.2158 -0.3191  0.0413
  616SOL     OW 1846   1.074   1.646   2.292 -0.1596  0.5973 -0.9077
  616SOL    HW1 1847   0.978   1.601   2.293 -1.6064 -0.2261 -1.9636
  616SOL    HW2 1848   1.075   1.740   2.239  2.1913  2.3563 -1.0035
  617SOL     OW 1849   2.942   1.557   1.601  0.0981  0.0529  0.2356
  617SOL    HW1 1850   2.902   1.480   1.663 -2.1609  2.8509 -1.3829
  617SOL    HW2 1851   2.951   1.533   1.502 -0.3507  0.5859  0.1558
  618SOL     OW 1852   1.911   1.995   1.384 -0.4234 -0.0911  0.1519
  618SOL    HW1 1853   1.916   2.032   1.289 -0.1874 -0.7035 -1.7361
  618SOL    HW2 1854   1.936   1.893   1.389 -2.8528 -1.7240  0.2783
  619SOL     OW 1855   1.780   0.448   2.380  0.0164  0.0468  0.2185
  619SOL    HW1 1856   1.711   0.495   2.317  1.2120  2.8254 -0.2466
  619SOL    HW2 1857   1.752   0.356   2.419  3.2785 -1.1046 -0.2298
  620SOL     OW 1858   2.325   2.931   0.654  0.2260 -0.1146 -0.8621
  620SOL    HW1 1859   2.227   2.968   0.637  1.8223 -1.2617 -0.3222
  620SOL    HW2 1860   2.330   2.851   0.721 -0.2355 -2.7219  1.3925
  621SOL     OW 1861   2.168   1.798   1.295 -0.1053  0.5304 -0.0048
  621SOL    HW1 1862   2.181   1.792   1.396 -0.4583  3.9382 -3.6278
  621SOL    HW2 1863   2.095   1.729   1.266 -0.3650 -1.5805  1.2701
  622SOL     OW 1864   2.282   0.903   1.785  0.1895 -0.4129 -0.0073
  622SOL    HW1 1865   2.385   0.888   1.764  0.6037 -0.3409  0.8605
  622SOL    HW2 1866   2.255   0.838   1.860  0.1974  1.7329 -0.2176
  623SOL     OW 1867   1.325   0.828   2.595  0.0764  0.0954  0.3578
  623SOL    HW1 1868   1.284   0.740   2.632  1.4305  0.2763 -0.6286
  623SOL    HW2 1869   1.267   0.852   2.510 -0.5317  0.3393  0.9380
  624SOL     OW 1870   0.533   0.705   3.084  0.7752  0.1487  0.7965
  624SOL    HW1 1871   0.550   0.706   2.982  0.9880 -1.9983 -0.5820
  624SOL    HW2 1872   0.558   0.799   3.126  1.2212 -0.5739  0.2467
  625SOL     OW 1873   2.794   1.697   1.043 -0.0136  0.5843  0.1973
  625SOL    HW1 1874   2.706   1.737   1.011  0.5842 -0.7306  0.6326
  625SOL    HW2 1875   2.866   1.773   1.051  0.2077  2.0062 -1.2591
  626SOL     OW 1876   0.576   2.710   1.716  0.1163  0.3077 -0.2604
  626SOL    HW1 1877   0.613   2.800   1.756 -0.6987  1.3790 -0.6759
  626SOL    HW2 1878   0.477   2.686   1.746 -1.8598  0.7247 -1.1050
  627SOL     OW 1879   0.731   0.967   1.501  0.2339 -0.6390 -0.6790
  627SOL    HW1 1880   0.676   0.928   1.423  1.4818 -1.7990  1.2007
  627SOL    HW2 1881   0.809   1.030   1.464  3.3476 -1.6844 -2.5476
  628SOL     OW 1882   2.486   0.138   0.687 -0.6244  0.0599 -0.1876
  628SOL    HW1 1883   2.516   0.076   0.611  1.2299  0.9624 -0.3401
  628SOL    HW2 1884   2.379   0.129   0.694  1.3178  1.2624  0.5016
  629SOL     OW 1885   1.996   0.932   1.988 -0.4111  0.1475 -0.1040
  629SOL    HW1 1886   1.983   0.965   1.892  0.2673 -0.4216 -1.9878
  629SOL    HW2 1887   1.955   0.999   2.057 -0.2269 -0.4540  0.7837
  630SOL     OW 1888   2.927   2.283   0.829  0.3122 -1.3484  0.4056
  630SOL    HW1 1889   2.857   2.358   0.850 -1.2775 -3.5502  3.1984
  630SOL    HW2 1890   2.890   2.198   0.784 -2.7725  0.4099 -0.8186
  631SOL     OW 1891   3.024   0.135   2.120 -0.5073 -0.2443 -0.0262
  631SOL    HW1 1892   3.075   0.180   2.197  0.4111 -0.8935 -0.2529
  631SOL    HW2 1893   3.053   0.179   2.026 -2.1141 -0.9893 -0.3489
  632SOL     OW 1894   2.409   2.555   0.648 -0.0225 -0.5874  0.1029
  632SOL    HW1 1895   2.404   2.629   0.715 -1.9817 -2.9803 -0.9666
  632SOL    HW2 1896   2.363   2.571   0.560  2.3909 -1.7172 -0.8236
  633SOL     OW 1897   1.397   1.207   2.660  0.1992 -0.1078  0.0732
  633SOL    HW1 1898   1.401   1.294   2.717  1.6513 -1.0773  2.5678
  633SOL    HW2 1899   1.349   1.215   2.570 -1.0849 -0.7818 -1.2419
  634SOL     OW 1900   0.684   2.049   0.874  0.1548 -0.1893 -0.2172
  634SOL    HW1 1901   0.610   2.070   0.944  1.3211  1.2419  0.2433
  634SOL    HW2 1902   0.782   2.067   0.907  1.3473 -1.7517 -0.2536
  635SOL     OW 1903   2.972   2.340   0.016  0.1466  0.2463 -0.0883
  635SOL    HW1 1904   2.894   2.401  -0.021 -1.0280  0.7203 -0.3087
  635SOL    HW2 1905   3.065   2.382   0.007  1.5852 -0.5789 -0.8162
  636SOL     OW 1906   2.338   2.745   1.997  0.2528  0.0061  0.3060
  636SOL    HW1 1907   2.310   2.845   2.005 -1.4920 -2.3194  0.3853
  636SOL    HW2 1908   2.290   2.693   2.073 -0.4980  0.1498  3.0207
  637SOL     OW 1909   2.669   0.602   1.963 -0.6256  0.3174 -0.2452
  637SOL    HW1 1910   2.594   0.611   1.895  1.3085 -0.5438 -0.1683
  637SOL    HW2 1911   2.712   0.698   1.985  0.8721  4.1456 -1.6702
  638SOL     OW 1912   2.430   1.827   1.266  0.7002  0.0445 -0.1947
  638SOL    HW1 1913   2.328   1.827   1.270  2.1806  1.0991 -0.9613
  638SOL    HW2 1914   2.474   1.761   1.334  0.5623  1.3778  1.9695
  639SOL     OW 1915   1.272   2.064   1.707 -0.0360 -0.0440 -0.6250
  639SOL    HW1 1916   1.296   2.139   1.641 -1.2828 -1.0425  0.8767
  639SOL    HW2 1917   1.176   2.072   1.742 -0.4517 -0.6458 -0.5742
  640SOL     OW 1918   0.186   1.160   1.571 -0.2489 -0.4331  0.0956
  640SOL    HW1 1919   0.197   1.190   1.668 -1.2424  1.5060 -2.2835
  640SOL    HW2 1920   0.269   1.113   1.538  0.1043  1.7652  4.0394
  641SOL     OW 1921   2.010   0.218   1.554 -0.0160 -0.7289  0.3212
  641SOL    HW1 1922   1.993   0.184   1.649 -1.6927 -1.8164  0.9303
  641SOL    HW2 1923   2.104   0.189   1.516  1.8294 -0.5597  0.0769
  642SOL     OW 1924   2.014   3.076   0.331 -0.0879  0.0134  0.4593
  642SOL    HW1 1925   2.104   3.108   0.371 -0.1933  1.9812  0.5659
  642SOL    HW2 1926   1.945   3.040   0.398  2.5863 -2.4642  1.5293
  643SOL     OW 1927   2.927   1.807   2.135  0.1988  0.3327 -0.6063
  643SOL    HW1 1928   2.876   1.752   2.063  1.4069  0.9905  0.3633
  643SOL    HW2 1929   2.961   1.896   2.092  0.7030 -0.5145 -2.9797
  644SOL     OW 1930   2.201   2.358   1.171  0.4606 -0.3072 -0.3161
  644SOL    HW1 1931   2.294   2.312   1.151  1.2637 -1.5679  0.3671
  644SOL    HW2 1932   2.159   2.317   1.255  0.0565  0.6433  1.0133
  645SOL     OW 1933   0.611   0.832   1.277  0.0039  0.3304 -0.2947
  645SOL    HW1 1934   0.508   0.814   1.286  0.0504  2.2030  0.1322
  645SOL    HW2 1935   0.628   0.874   1.182 -2.6228  0.8020  2.7614
  646SOL     OW 1936   1.437   1.824   2.100  0.3423  0.2617 -0.1682
  646SOL    HW1 1937   1.506   1.899   2.117 -0.4998  0.9247 -1.7895
  646SOL    HW2 1938   1.412   1.774   2.189  0.4298  2.2242  0.1981
  647SOL     OW 1939   0.782   1.049   0.709 -0.5463 -0.2409  0.5338
  647SOL    HW1 1940   0.834   1.089   0.789 -0.0689  2.4493  1.1426
  647SOL    HW2 1941   0.697   1.004   0.733  0.1801 -1.1422  0.3249
  648SOL     OW 1942   0.094   0.249   0.270 -0.4415 -0.3552 -0.1658
  648SOL    HW1 1943   0.126   0.207   0.177  1.8822  1.2677 -1.7188
  648SOL    HW2 1944   0.083   0.348   0.269 -1.4799  0.6406  1.7839
  649SOL     OW 1945   3.010   0.234   0.826 -0.0935  0.1366 -0.4728
  649SOL    HW1 1946   3.088   0.182   0.877 -0.0011 -0.4324 -1.4239
  649SOL    HW2 1947   3.006   0.338   0.846 -1.7258  0.5047  0.8441
  650SOL     OW 1948   2.767   0.721   1.521 -0.0560  0.2091  0.3597
  650SOL    HW1 1949   2.662   0.715   1.536 -0.1307  0.4261  0.4478
  650SOL    HW2 1950   2.799   0.794   1.453  1.2843 -0.7395  0.4437
  651SOL     OW 1951   0.889   1.500   1.547 -0.9195  0.5571  0.6308
  651SOL    HW1 1952   0.943   1.570   1.601 -0.8511 -0.3825 -1.9057
  651SOL    HW2 1953   0.922   1.483   1.450 -0.0155  0.9505 -1.1774
  652SOL     OW 1954   2.343   2.400   2.434 -0.4431  0.8649  0.6388
  652SOL    HW1 1955   2.244   2.428   2.455 -0.9192  0.5724  0.9552
  652SOL    HW2 1956   2.400   2.475   2.387 -0.7709  2.1410 -0.3315
  653SOL     OW 1957   2.688   1.233   0.243  0.4852  0.0191  0.0630
  653SOL    HW1 1958   2.727   1.302   0.309 -1.9745 -0.4226 -1.2223
  653SOL    HW2 1959   2.751   1.151   0.235 -0.8277  2.5052  1.9624
  654SOL     OW 1960   1.225   2.234   1.244 -0.2492  0.1845  0.0694
  654SOL    HW1 1961   1.253   2.166   1.317  0.4551  2.1000 -0.5911
  654SOL    HW2 1962   1.283   2.221   1.154 -0.7998 -1.5895 -1.6666
  655SOL     OW 1963   0.169   0.926   1.891  0.3693 -0.0808  0.6174
  655SOL    HW1 1964   0.211   0.880   1.810  0.5971  0.5784  1.8539
  655SOL    HW2 1965   0.192   1.030   1.885  0.5580  0.7657  1.1189
  656SOL     OW 1966   2.573   2.448   2.611  0.2988 -0.4074  0.2669
  656SOL    HW1 1967   2.670   2.432   2.575 -1.7280  2.2931  0.3791
  656SOL    HW2 1968   2.508   2.373   2.574 -1.1881 -1.2899 -0.9204
  657SOL     OW 1969   2.984   0.996   1.904  0.2181  0.4572 -0.0459
  657SOL    HW1 1970   2.968   1.093   1.928  0.6717 -0.2285 -1.2450
  657SOL    HW2 1971   3.086   0.965   1.901  0.4349 -1.2376 -0.3306
  658SOL     OW 1972   1.660   0.168   2.375 -0.7855 -0.1883  0.2302
  658SOL    HW1 1973   1.690   0.096   2.442 -0.7360 -1.3866 -0.5362
  658SOL    HW2 1974   1.699   0.147   2.280 -1.2110 -0.3963 -0.1776
  659SOL     OW 1975   1.392   0.622   2.834  0.5978 -0.2107 -0.3547
  659SOL    HW1 1976   1.442   0.710   2.856 -1.3032  0.2488  0.0060
  659SOL    HW2 1977   1.286   0.631   2.847 -0.9996  0.1108  2.3895
  660SOL     OW 1978   1.395   0.318   1.422  0.2040 -0.0979 -0.6042
  660SOL    HW1 1979   1.384   0.362   1.520 -1.5452  2.7951  0.1359
  660SOL    HW2 1980   1.475   0.249   1.417  1.4595 -0.5176 -1.0836
  661SOL     OW 1981   2.351   1.193   0.662  0.4996 -0.1444 -0.0056
  661SOL    HW1 1982   2.388   1.208   0.564  0.4366  0.1229  1.0920
  661SOL    HW2 1983   2.350   1.277   0.720  1.3997 -2.8605 -0.1566
  662SOL     OW 1984   1.392   0.369   1.720  0.6446  0.0327 -0.0463
  662SOL    HW1 1985   1.323   0.294   1.746 -0.3488 -0.6567 -1.2360
  662SOL    HW2 1986   1.394   0.444   1.791 -2.5907 -1.9975  2.2914
  663SOL     OW 1987   0.811   1.553   2.198 -0.5531 -0.2106  0.2798
  663SOL    HW1 1988   0.726   1.603   2.239 -4.7653  3.5421  1.4482
  663SOL    HW2 1989   0.785   1.506   2.114 -2.6399  0.2445  0.2385
  664SOL     OW 1990   1.615   2.044   1.387  0.2141 -0.0285  0.3827
  664SOL    HW1 1991   1.561   1.990   1.457  1.3202  0.9257 -1.2172
  664SOL    HW2 1992   1.715   2.017   1.385  3.1260  1.6234  1.9477
  665SOL     OW 1993   2.242   0.688   1.981 -0.1845  0.0528 -1.1459
  665SOL    HW1 1994   2.155   0.744   2.005 -0.3135  1.1602 -0.7740
  665SOL    HW2 1995   2.301   0.668   2.066 -0.1411 -0.1581  1.9659
  666SOL     OW 1996   0.435   2.338   0.302 -0.2697 -0.2990  0.1069
  666SOL    HW1 1997   0.499   2.323   0.386  1.0506  0.2383 -0.1837
  666SOL    HW2 1998   0.335   2.309   0.318 -1.6325 -2.4496  0.0948
  667SOL     OW 1999   2.075   0.190   1.149  0.5523 -0.3360  0.4872
  667SOL    HW1 2000   2.089   0.294   1.136 -0.9710 -0.6042  1.1050
  667SOL    HW2 2001   1.978   0.171   1.184  0.0443  1.7682  0.9447
  668SOL     OW 2002   2.059   0.469   1.113 -0.0960  0.4397 -0.0945
  668SOL    HW1 2003   2.110   0.497   1.026 -0.0070  0.4456  1.3177
  668SOL    HW2 2004   2.107   0.497   1.203 -0.9949 -2.0365 -1.1527
  669SOL     OW 2005   3.069   2.137   1.016 -0.0782 -0.0129 -0.2539
  669SOL    HW1 2006   3.010   2.189   0.955  2.7661 -0.4462  2.0215
  669SOL    HW2 2007   3.112   2.202   1.084  0.9031 -0.2849 -1.5841
  670SOL     OW 2008   2.868   2.337   2.060 -0.2771  0.3926 -0.3732
  670SOL    HW1 2009   2.788   2.314   2.124 -0.9351  1.2807  0.9492
  670SOL    HW2 2010   2.856   2.422   2.012 -0.3828 -2.2174  2.0134
  671SOL     OW 2011   1.717   1.780   1.472 -0.3790  0.2526  0.6646
  671SOL    HW1 2012   1.693   1.752   1.375 -0.2362 -3.0178 -0.1591
  671SOL    HW2 2013   1.636   1.821   1.518 -0.7899 -0.3597 -0.3109
  672SOL     OW 2014   0.437   0.610   2.357 -0.1720  0.4868  0.0592
  672SOL    HW1 2015   0.475   0.653   2.272  1.8607 -1.1540 -1.7990
  672SOL    HW2 2016   0.342   0.647   2.385  0.4921  1.0121 -0.4154
  673SOL     OW 2017   0.138   1.223   1.139 -0.0050  0.4467 -0.2249
  673SOL    HW1 2018   0.150   1.274   1.229  0.1477  0.3127 -1.8583
  673SOL    HW2 2019   0.222   1.172   1.106 -0.1684 -2.0169 -1.4433
  674SOL     OW 2020   1.694   2.983   0.289  0.6816 -0.1517 -0.6051
  674SOL    HW1 2021   1.661   3.081   0.301  1.6594  0.5950 -0.8683
  674SOL    HW2 2022   1.768   2.977   0.213  2.0505 -1.9333 -2.2068
  675SOL     OW 2023   1.715   0.808   2.315 -0.4053 -0.1658  0.6104
  675SOL    HW1 2024   1.819   0.788   2.327 -1.0695  0.9361 -1.0217
  675SOL    HW2 2025   1.669   0.722   2.277 -1.1522 -1.3085  2.6198
  676SOL     OW 2026   2.558   1.489   1.928  0.2823 -0.1822 -0.0002
  676SOL    HW1 2027   2.498   1.477   1.847  0.9910 -1.5377 -2.2584
  676SOL    HW2 2028   2.579   1.406   1.988 -0.1485  2.7405  0.0766
  677SOL     OW 2029   1.899   0.655   0.915 -0.0048 -0.0050 -0.0046
  677SOL    HW1 2030   1.815   0.682   0.973  1.9661  0.3153 -2.1520
  677SOL    HW2 2031   1.903   0.552   0.889 -1.5079  0.9041 -3.1084
  678SOL     OW 2032   0.061   0.750   1.634 -0.6737  0.5745 -0.0782
  678SOL    HW1 2033   0.160   0.777   1.657  0.7872  0.4105  1.3891
  678SOL    HW2 2034   0.006   0.733   1.719  1.2225 -0.9798 -1.7719
  679SOL     OW 2035   2.510   1.222   1.188  0.3469  0.4387 -0.6128
  679SOL    HW1 2036   2.413   1.264   1.182 -0.8628 -0.7850  2.4269
  679SOL    HW2 2037   2.518   1.121   1.177 -1.9787  0.7400 -0.1723
  680SOL     OW 2038   2.801   0.511   1.695  0.3612  0.4143 -0.2162
  680SOL    HW1 2039   2.789   0.585   1.625 -1.4708 -2.3777  0.0281
  680SOL    HW2 2040   2.870   0.541   1.770 -1.5307 -0.7368  1.6967
  681SOL     OW 2041   3.000   0.133   1.604  0.6020  0.4029  0.1843
  681SOL    HW1 2042   3.061   0.100   1.521  3.0581  0.7647  3.8437
  681SOL    HW2 2043   2.918   0.194   1.578 -2.2723  0.3202  3.0857
  682SOL     OW 2044   0.779   0.025   1.337  0.0760 -0.8306  0.0702
  682SOL    HW1 2045   0.689  -0.015   1.380 -0.1669  2.9166  3.3236
  682SOL    HW2 2046   0.772   0.016   1.231  0.9627 -0.1335 -0.8992
  683SOL     OW 2047   1.356   0.229   2.175 -0.2410  0.0186 -0.2626
  683SOL    HW1 2048   1.358   0.290   2.260  2.9371 -0.2602  0.6680
  683SOL    HW2 2049   1.452   0.212   2.137  0.7915  4.7101  0.8161
  684SOL     OW 2050   1.460   2.092   0.463 -0.3954  0.1953  0.1697
  684SOL    HW1 2051   1.517   2.032   0.527  0.7938 -1.8227 -0.6664
  684SOL    HW2 2052   1.382   2.030   0.422 -0.7274 -0.3669 -0.3673
  685SOL     OW 2053   2.174   2.070   1.923  0.1409 -0.3433  0.0511
  685SOL    HW1 2054   2.247   2.048   1.858 -1.9052  3.2361  2.0496
  685SOL    HW2 2055   2.204   2.044   2.019  3.3089 -1.9887  1.1033
  686SOL     OW 2056   1.484   1.833   2.737 -0.3740 -0.1604 -0.2832
  686SOL    HW1 2057   1.508   1.775   2.819  0.5695 -2.1341 -1.9360
  686SOL    HW2 2058   1.459   1.774   2.656  1.2056 -0.7956 -1.1736
  687SOL     OW 2059   1.324   2.473   1.941 -0.4735  0.3408  0.0183
  687SOL    HW1 2060   1.325   2.365   1.951  0.4527 -0.6506 -1.9632
  687SOL    HW2 2061   1.368   2.522   2.021  0.4025  0.0493  1.2229
  688SOL     OW 2062   2.022   1.497   1.794  0.1731  0.0403  0.7763
  688SOL    HW1 2063   2.061   1.594   1.808 -0.0056  0.2289 -0.7314
  688SOL    HW2 2064   2.045   1.470   1.695  6.0140  1.1512  1.6253
  689SOL     OW 2065   2.358   1.083   2.747 -0.4407 -0.0244 -0.2528
  689SOL    HW1 2066   2.267   1.041   2.779 -3.0368  4.1496  0.9338
  689SOL    HW2 2067   2.442   1.060   2.802  0.0354  0.1023  1.4609
  690SOL     OW 2068   2.218   2.779   0.078 -0.5800 -0.4439 -0.2352
  690SOL    HW1 2069   2.162   2.744  -0.004  0.9545 -0.0334  2.7452
  690SOL    HW2 2070   2.168   2.761   0.170  0.2518  2.4433  2.4420
  691SOL     OW 2071   2.582   0.421   2.162  0.1894 -0.2494  0.6911
  691SOL    HW1 2072   2.665   0.360   2.155 -0.3833 -1.8088 -0.4305
  691SOL    HW2 2073   2.596   0.500   2.090 -1.8530  4.6081 -1.0960
  692SOL     OW 2074   2.712   1.263   0.741  0.2561 -0.7141 -0.4830
  692SOL    HW1 2075   2.712   1.277   0.639 -2.0987  1.1196  1.5618
  692SOL    HW2 2076   2.762   1.334   0.796  1.7531  0.6760  0.3007
  693SOL     OW 2077   2.847   2.937   0.638  0.2243  0.4760 -0.2139
  693SOL    HW1 2078   2.832   3.018   0.704  0.1874 -1.1014  1.0293
  693SOL    HW2 2079   2.839   2.977   0.540  1.3712 -0.1082  0.2971
  694SOL     OW 2080   2.389   2.202   0.091 -0.5753  0.1087  0.1590
  694SOL    HW1 2081   2.369   2.274   0.165 -1.8592  2.2812  0.8845
  694SOL    HW2 2082   2.303   2.163   0.048 -1.2513 -1.2559 -0.0117
  695SOL     OW 2083   0.561   3.015   1.455  0.2883  0.0174 -0.4971
  695SOL    HW1 2084   0.504   2.940   1.411 -0.0017 -1.9573 -3.1066
  695SOL    HW2 2085   0.516   3.061   1.536  0.8630 -1.6129  1.5294
  696SOL     OW 2086   2.817   2.056   0.712 -0.2484 -0.7468 -0.1943
  696SOL    HW1 2087   2.872   1.969   0.723 -0.7391 -1.3525  0.4168
  696SOL    HW2 2088   2.782   2.065   0.612 -0.4442  0.1259 -0.7926
  697SOL     OW 2089   1.602   2.004   1.851  0.5352  0.1935 -0.4265
  697SOL    HW1 2090   1.673   1.927   1.856 -0.2995  2.2921  0.3851
  697SOL    HW2 2091   1.641   2.099   1.823  0.2535  1.9916  1.7119
  698SOL     OW 2092   2.917   0.425   2.789 -0.0845  0.8685  0.4199
  698SOL    HW1 2093   2.935   0.417   2.687 -0.0726 -0.6117  1.6065
  698SOL    HW2 2094   2.977   0.374   2.851 -0.5682 -0.0801 -1.6330
  699SOL     OW 2095   1.540   0.093   2.914 -0.1347  0.3589  0.0746
  699SOL    HW1 2096   1.535  -0.008   2.883 -0.5450 -2.1618  1.3356
  699SOL    HW2 2097   1.596   0.149   2.851 -1.7743 -0.3126  0.1729
  700SOL     OW 2098   1.001   2.336   1.346 -0.5892 -0.2704 -0.3180
  700SOL    HW1 2099   1.093   2.309   1.300  1.0508  0.2702  1.5271
  700SOL    HW2 2100   0.920   2.307   1.289  1.0937 -0.4928  0.8701
  701SOL     OW 2101   1.867   2.933   3.063 -0.0651  0.3177 -0.1455
  701SOL    HW1 2102   1.874   2.878   3.152 -1.3091 -2.0849  0.3192
  701SOL    HW2 2103   1.846   3.033   3.072  0.9666  2.2159  1.2141
  702SOL     OW 2104   2.090   1.304   1.976 -0.5582  0.3669  0.6964
  702SOL    HW1 2105   2.167   1.243   1.938 -0.9915  0.2531 -2.5673
  702SOL    HW2 2106   2.058   1.377   1.912 -0.7155 -0.1230  1.7234
  703SOL     OW 2107   1.927   0.910   1.446  0.2186  0.0586  0.5556
  703SOL    HW1 2108   1.898   0.833   1.507  3.0554 -0.7191  1.3257
  703SOL    HW2 2109   1.993   0.973   1.493  1.2009 -0.7944  1.4341
  704SOL     OW 2110   0.322   2.034   1.730  0.4547 -0.1354  0.0442
  704SOL    HW1 2111   0.366   1.957   1.782 -0.7532  3.2313 -0.4663
  704SOL    HW2 2112   0.384   2.103   1.684  0.0125  2.5552  0.7028
  705SOL     OW 2113   2.562   1.542   0.904  0.4270 -0.3265  0.2123
  705SOL    HW1 2114   2.488   1.484   0.855 -1.4768 -1.7400 -1.0148
  705SOL    HW2 2115   2.650   1.488   0.915 -0.6654 -1.0032 -0.5895
  706SOL     OW 2116   0.602   1.661   1.883 -0.2515 -0.1822 -0.4174
  706SOL    HW1 2117   0.631   1.586   1.951  1.2679 -1.6332  0.3959
  706SOL    HW2 2118   0.671   1.735   1.878 -0.3992  0.7992  0.3859
  707SOL     OW 2119   2.265   1.158   1.850 -0.2853  0.3963 -0.3157
  707SOL    HW1 2120   2.364   1.167   1.881 -1.2951  0.8358  1.3117
  707SOL    HW2 2121   2.240   1.064   1.814 -0.0361 -0.6342 -0.0937
  708SOL     OW 2122   3.065   0.551   3.081  0.5973 -0.1304  0.1600
  708SOL    HW1 2123   3.039   0.617   3.002 -2.0376  0.1430 -1.4230
  708SOL    HW2 2124   3.093   0.457   3.045 -1.4001 -1.7716 -1.4013
  709SOL     OW 2125   1.853   1.833   0.253  0.2010 -0.2273 -0.3093
  709SOL    HW1 2126   1.919   1.905   0.290  1.0037 -1.4721 -1.5498
  709SOL    HW2 2127   1.840   1.848   0.153  1.2995 -0.4049  1.7153
  710SOL     OW 2128   1.668   1.629   2.406  0.0679  0.4659 -0.1495
  710SOL    HW1 2129   1.719   1.618   2.314 -1.4538  1.0408  0.2348
  710SOL    HW2 2130   1.685   1.559   2.480  1.0986  2.1713  0.3128
  711SOL     OW 2131   2.561   2.899   1.057  0.3768 -0.0743 -0.1600
  711SOL    HW1 2132   2.523   2.978   1.001  0.3988  1.5190 -1.1455
  711SOL    HW2 2133   2.664   2.914   1.070  1.2539 -0.3914 -0.4168
  712SOL     OW 2134   1.392   2.207   1.956  0.3413 -0.0196  0.3825
  712SOL    HW1 2135   1.484   2.212   2.004 -0.1434  0.8497 -2.9828
  712SOL    HW2 2136   1.392   2.137   1.876 -1.5798  1.5917  1.0782
  713SOL     OW 2137   2.832   1.463   2.522  0.0833  0.2210 -0.0541
  713SOL    HW1 2138   2.834   1.364   2.485 -1.1237  0.5545  0.8882
  713SOL    HW2 2139   2.795   1.471   2.621  1.1374  0.0892  0.8694
  714SOL     OW 2140   2.681   0.495   2.446  0.2441  0.4570  0.7743
  714SOL    HW1 2141   2.593   0.458   2.492  1.7636 -0.4501  0.2216
  714SOL    HW2 2142   2.669   0.516   2.344  0.1823  1.3341  0.3869
  715SOL     OW 2143   1.589   2.053   1.094  0.3517  0.2438 -0.1179
  715SOL    HW1 2144   1.497   2.080   1.060  2.4489  0.5608  0.2028
  715SOL    HW2 2145   1.612   2.104   1.183  1.3374 -0.7522  1.2074
  716SOL     OW 2146   1.180   0.192   1.493  0.1815 -0.3943  0.5136
  716SOL    HW1 2147   1.095   0.234   1.454  2.6114  0.6735 -2.6027
  716SOL    HW2 2148   1.257   0.246   1.448 -2.7936 -2.6325  0.1603
  717SOL     OW 2149   1.161   0.571   1.528  0.0533 -0.0451 -0.2758
  717SOL    HW1 2150   1.244   0.627   1.527  1.4248 -0.8626 -1.2638
  717SOL    HW2 2151   1.147   0.531   1.434  2.7735 -0.8136  0.6381
  718SOL     OW 2152   0.674   0.891   1.010 -0.2381  0.5817  0.6181
  718SOL    HW1 2153   0.618   0.891   0.920  0.2437 -0.7880  2.1902
  718SOL    HW2 2154   0.688   0.985   1.046 -1.1215 -0.7298  2.1518
  719SOL     OW 2155   0.634   1.698   2.322 -0.1594  0.3366 -0.4491
  719SOL    HW1 2156   0.691   1.771   2.381 -0.8379  3.7862  1.5464
  719SOL    HW2 2157   0.540   1.685   2.363  0.2339  0.5913  1.0703
  720SOL     OW 2158   2.189   1.121   0.289  0.1171 -0.4789  0.3593
  720SOL    HW1 2159   2.236   1.048   0.234  0.2187  1.1740  2.8576
  720SOL    HW2 2160   2.154   1.083   0.381  2.2921  1.8511 -1.6126
  721SOL     OW 2161   2.288   3.012   2.084 -0.0227 -0.1735  0.5462
  721SOL    HW1 2162   2.233   3.049   2.000  2.1196  4.5916 -0.0238
  721SOL    HW2 2163   2.238   3.018   2.175 -5.4421  1.9960 -1.9709
  722SOL     OW 2164   2.323   1.590   0.518  0.7746 -0.1219  0.7848
  722SOL    HW1 2165   2.384   1.572   0.433  0.6989  2.0295 -0.9516
  722SOL    HW2 2166   2.251   1.663   0.491  0.6173  1.8818  3.8117
  723SOL     OW 2167   2.596   2.736   1.946 -0.1783 -0.2798  0.2592
  723SOL    HW1 2168   2.640   2.807   2.009  1.0853  0.6583 -0.8759
  723SOL    HW2 2169   2.491   2.731   1.956 -2.2533  1.0324 -0.6147
  724SOL     OW 2170   0.492   2.501   2.385  0.0380 -0.1244  0.0609
  724SOL    HW1 2171   0.399   2.468   2.417  0.8998 -0.0421  1.5005
  724SOL    HW2 2172   0.558   2.497   2.464  0.4859 -0.0339  0.7424
  725SOL     OW 2173   2.366   2.797   1.514  1.2185  0.5331  0.3847
  725SOL    HW1 2174   2.432   2.829   1.437 -1.4301 -1.6634 -2.3466
  725SOL    HW2 2175   2.350   2.690   1.521 -1.4139 -1.8361  0.3079
  726SOL     OW 2176   2.551   2.336   0.743 -0.7848  0.1522 -0.5975
  726SOL    HW1 2177   2.496   2.417   0.704  1.9142 -2.4898 -0.6458
  726SOL    HW2 2178   2.568   2.262   0.671 -0.2809 -1.4679 -3.1504
  727SOL     OW 2179   0.120   3.074   0.038 -0.1238  0.1212  0.5168
  727SOL    HW1 2180   0.189   3.024  -0.016 -3.0713 -0.5547  1.0867
  727SOL    HW2 2181   0.020   3.041   0.021  0.0529  0.8654 -0.1390
  728SOL     OW 2182   2.912   0.640   0.950  0.0131 -0.0974 -0.2243
  728SOL    HW1 2183   2.831   0.637   0.891 -0.0828 -0.9693  0.3876
  728SOL    HW2 2184   2.892   0.610   1.049 -0.1320 -3.2425  1.5006
  729SOL     OW 2185   3.035   2.510   0.750 -0.7896  0.0504  0.5575
  729SOL    HW1 2186   2.986   2.421   0.759 -0.6495 -1.2701  2.3747
  729SOL    HW2 2187   3.137   2.504   0.715  2.9554  1.9216 -1.1741
  730SOL     OW 2188   2.639   0.701   0.868  0.4552  0.2743 -0.3054
  730SOL    HW1 2189   2.599   0.798   0.874 -0.6952  2.1899  0.2886
  730SOL    HW2 2190   2.687   0.677   0.782 -0.1689 -1.0963  0.6919
  731SOL     OW 2191   0.035   2.105   2.446  0.4802  0.4013  0.8402
  731SOL    HW1 2192   0.061   2.166   2.526  0.3271  0.5032  1.4146
  731SOL    HW2 2193  -0.020   2.150   2.370 -0.1691  0.8987 -0.2674
  732SOL     OW 2194   1.207   2.847   1.962 -0.6150  0.3130  0.0938
  732SOL    HW1 2195   1.200   2.789   2.050 -0.0926 -0.9608  1.1325
  732SOL    HW2 2196   1.213   2.790   1.872 -0.8387  0.4122 -2.2663
  733SOL     OW 2197   3.048   0.585   2.223  0.7784 -0.0673 -0.2889
  733SOL    HW1 2198   3.143   0.628   2.209 -1.1442 -0.0300  0.9692
  733SOL    HW2 2199   3.011   0.538   2.138 -1.4217 -1.4415 -2.1822
  734SOL     OW 2200   1.423   0.389   2.696  0.2286 -0.1758  0.3814
  734SOL    HW1 2201   1.420   0.486   2.732 -0.4573  0.5339 -1.7563
  734SOL    HW2 2202   1.344   0.328   2.724  1.5677  0.6958 -0.1493
  735SOL     OW 2203   2.889   2.650   2.300  0.0590  0.3743  0.1271
  735SOL    HW1 2204   2.886   2.586   2.222  0.2611  1.8698 -1.2102
  735SOL    HW2 2205   2.973   2.710   2.286 -0.5009  2.9719  1.2668
  736SOL     OW 2206   0.855   0.338   2.581 -0.1339 -0.4162 -0.1868
  736SOL    HW1 2207   0.763   0.390   2.595 -0.7662 -2.5783 -1.0198
  736SOL    HW2 2208   0.852   0.299   2.483 -1.9437  1.0755  0.0305
  737SOL     OW 2209   2.630   0.452   2.832  0.2608  0.4019  0.2178
  737SOL    HW1 2210   2.611   0.400   2.921  1.0629  0.1466  0.6384
  737SOL    HW2 2211   2.732   0.454   2.820 -0.9405 -1.4555 -3.0290
  738SOL     OW 2212   1.654   1.237   2.890 -0.3269  0.4295  0.0988
  738SOL    HW1 2213   1.760   1.219   2.904  0.9125 -0.1510 -1.3571
  738SOL    HW2 2214   1.610   1.148   2.848  0.5626  0.6248  0.1180
  739SOL     OW 2215   1.734   0.711   0.686 -0.4163 -0.1610 -0.3553
  739SOL    HW1 2216   1.811   0.710   0.755 -0.7005 -0.3856  1.1634
  739SOL    HW2 2217   1.734   0.628   0.628 -0.0255 -0.3053 -1.7384
  740SOL     OW 2218   1.973   1.931   2.376 -0.1326 -0.0738 -0.3944
  740SOL    HW1 2219   2.009   1.849   2.420  0.9915  1.7273 -2.1231
  740SOL    HW2 2220   1.906   1.919   2.292  0.8407 -0.1598 -0.0038
  741SOL     OW 2221   2.560   0.095   2.576  0.2362  0.2007 -0.2682
  741SOL    HW1 2222   2.661   0.117   2.588  0.7694  0.4123 -1.7876
  741SOL    HW2 2223   2.532   0.093   2.479  2.1764 -1.0116  1.5107
  742SOL     OW 2224   2.199   1.385   0.214 -0.6547 -0.1905  0.0618
  742SOL    HW1 2225   2.122   1.437   0.249  1.2116  0.1208 -1.0485
  742SOL    HW2 2226   2.195   1.292   0.253  0.8042  2.1495 -1.7881
  743SOL     OW 2227   1.792   0.634   2.570  0.3066  0.5901  0.1127
  743SOL    HW1 2228   1.800   0.547   2.506 -1.3617  0.3022  3.0983
  743SOL    HW2 2229   1.714   0.692   2.550  2.7215 -3.3088 -0.4713
  744SOL     OW 2230   2.637   2.054   0.122 -0.0840  0.0774  0.8545
  744SOL    HW1 2231   2.564   2.121   0.107 -1.0205 -4.0013 -0.1780
  744SOL    HW2 2232   2.597   1.971   0.165 -1.6701 -1.3413  4.1005
  745SOL     OW 2233   2.142   2.658   2.205 -1.0447 -0.1374  0.2729
  745SOL    HW1 2234   2.047   2.699   2.207  0.8891 -0.6900  2.9153
  745SOL    HW2 2235   2.192   2.646   2.296 -0.4676  1.8109 -1.1929
  746SOL     OW 2236   3.094   2.632   1.718 -0.2891  0.0624  0.4178
  746SOL    HW1 2237   3.190   2.639   1.682 -0.4462  1.4783  0.8841
  746SOL    HW2 2238   3.079   2.708   1.787  2.0207 -0.2080 -1.4060
  747SOL     OW 2239   3.097   1.753   1.760  0.4978  0.3842 -0.2653
  747SOL    HW1 2240   3.036   1.672   1.720 -0.4372 -0.2213 -0.9922
  747SOL    HW2 2241   3.177   1.768   1.696  0.3508 -2.1867  0.7427
  748SOL     OW 2242   1.825   2.716   2.875  0.1306  0.0943 -0.1637
  748SOL    HW1 2243   1.838   2.794   2.939  1.0727  0.8613 -2.3837
  748SOL    HW2 2244   1.725   2.694   2.866 -0.9546 -0.5401 -1.1238
  749SOL     OW 2245   1.375   3.012   0.868  0.5261  0.4247  0.4860
  749SOL    HW1 2246   1.278   2.989   0.827 -0.1204 -0.8766  2.7941
  749SOL    HW2 2247   1.450   2.984   0.807 -0.8991  4.0930  2.7460
  750SOL     OW 2248   2.301   0.210   1.842 -0.2547  0.3293  0.3399
  750SOL    HW1 2249   2.304   0.281   1.764  1.9292  3.3808  0.3141
  750SOL    HW2 2250   2.321   0.249   1.936 -0.1520  1.4598 -0.3905
  751SOL     OW 2251   0.847   2.062   2.813 -0.1681  0.1983  0.2432
  751SOL    HW1 2252   0.892   2.083   2.906 -1.9742  0.0557 -0.4510
  751SOL    HW2 2253   0.749   2.095   2.811 -0.0682  0.5402  1.4802
  752SOL     OW 2254   1.322   0.845   1.244  0.1791  0.9847 -0.0381
  752SOL    HW1 2255   1.390   0.925   1.243 -1.2058  2.6509 -1.5036
  752SOL    HW2 2256   1.362   0.756   1.282 -0.3154 -0.9414  0.5723
  753SOL     OW 2257   0.931   2.631   1.680 -0.2749 -0.0271 -0.5834
  753SOL    HW1 2258   1.031   2.653   1.703 -1.3849 -1.4956  1.5172
  753SOL    HW2 2259   0.862   2.707   1.710 -0.6329  0.6656 -2.1794
  754SOL     OW 2260   1.125   1.201   2.985 -0.0744  0.3948  0.0763
  754SOL    HW1 2261   1.175   1.147   2.914 -1.5524  1.3707 -0.4516
  754SOL    HW2 2262   1.159   1.294   2.987 -1.0117 -0.4689 -3.1549
  755SOL     OW 2263   2.015   0.467   2.215  0.0477 -0.1108 -0.6272
  755SOL    HW1 2264   2.075   0.388   2.235 -1.1511  1.9412  2.5628
  755SOL    HW2 2265   1.935   0.462   2.283  0.0896  1.3233 -0.1831
  756SOL     OW 2266   2.566   0.992   2.974 -0.2812  1.0396 -0.1287
  756SOL    HW1 2267   2.672   0.985   2.985 -0.4069 -0.0861  0.4295
  756SOL    HW2 2268   2.521   0.904   3.015 -0.5439 -2.8289 -0.4744
  757SOL     OW 2269   0.106   0.503   1.967 -0.5992  0.6493 -0.2021
  757SOL    HW1 2270   0.159   0.427   1.923 -0.2592 -0.3737  1.6279
  757SOL    HW2 2271   0.027   0.462   2.014  1.6939  1.8469 -3.7955
  758SOL     OW 2272   2.280   0.115   1.487  0.7963  0.2997  0.3367
  758SOL    HW1 2273   2.239   0.023   1.500  0.5952  1.5676  0.7234
  758SOL    HW2 2274   2.326   0.123   1.396 -0.3594 -0.5750 -0.3847
  759SOL     OW 2275   1.705   0.115   0.055  0.1153  0.0497 -0.5941
  759SOL    HW1 2276   1.663   0.130  -0.039  1.0528  0.5659  1.0999
  759SOL    HW2 2277   1.808   0.134   0.063  1.2331 -1.9109 -1.8746
  760SOL     OW 2278   2.669   2.053   2.824  1.1048  0.0358  0.2933
  760SOL    HW1 2279   2.695   1.954   2.841  0.5723 -1.3648 -0.9224
  760SOL    HW2 2280   2.669   2.110   2.913 -0.3086 -1.3535 -0.1472
  761SOL     OW 2281   1.855   1.755   1.693  0.2185 -0.3434  0.7460
  761SOL    HW1 2282   1.882   1.655   1.702 -0.8412 -1.8162 -2.6988
  761SOL    HW2 2283   1.803   1.778   1.602 -1.0554 -0.0794 -1.7738
  762SOL     OW 2284   0.510   2.333   0.948 -0.1842  0.0237 -0.0683
  762SOL    HW1 2285   0.538   2.351   0.852  2.3275 -0.5840  0.1789
  762SOL    HW2 2286   0.576   2.383   1.015 -0.4989  1.4798 -0.6698
  763SOL     OW 2287   2.079   1.587   2.985  0.2105  0.1500  0.1800
  763SOL    HW1 2288   2.163   1.523   2.983 -0.5720 -1.3305 -2.7175
  763SOL    HW2 2289   2.006   1.550   3.056 -2.7596  1.4033  1.1452
  764SOL     OW 2290   0.657   0.615   0.809  0.3048  0.8254  0.1164
  764SOL    HW1 2291   0.568   0.562   0.797 -1.0503 -0.0366  2.3304
  764SOL    HW2 2292   0.726   0.567   0.864  0.8566  0.6015 -1.5779
  765SOL     OW 2293   0.734   0.216   0.768  0.1093 -0.0119 -0.2285
  765SOL    HW1 2294   0.820   0.249   0.707  1.1738 -1.8697 -0.1304
  765SOL    HW2 2295   0.703   0.277   0.841 -2.5302 -1.9069 -1.5972
  766SOL     OW 2296   2.848   2.104   3.075  0.0353 -0.1073 -0.0602
  766SOL    HW1 2297   2.767   2.077   3.135  0.0992 -0.1160 -0.2517
  766SOL    HW2 2298   2.887   2.201   3.087  1.6818  2.9652 -1.3018
  767SOL     OW 2299   2.781   1.650   0.598 -0.2625 -0.5046 -0.2230
  767SOL    HW1 2300   2.692   1.648   0.650  1.4072  0.7650 -1.5425
  767SOL    HW2 2301   2.855   1.721   0.633 -1.3658 -0.1221  1.9360
  768SOL     OW 2302   0.964   0.060   0.241  0.5188  0.2055  0.4635
  768SOL    HW1 2303   0.945   0.040   0.342  1.6353 -2.3737 -2.3865
  768SOL    HW2 2304   1.050   0.113   0.223  1.8327  0.3385  2.3685
  769SOL     OW 2305   1.093   1.942   2.306 -0.5080  0.5110 -0.2602
  769SOL    HW1 2306   0.997   1.973   2.328 -2.6507  0.7383  0.0920
  769SOL    HW2 2307   1.147   1.899   2.385 -0.6772  2.8405 -1.0565
  770SOL     OW 2308   0.181   1.192   2.278  0.0127 -0.4222 -0.0760
  770SOL    HW1 2309   0.175   1.226   2.373 -0.2094 -1.2743  0.3065
  770SOL    HW2 2310   0.093   1.208   2.223  0.8827  0.5526  0.9005
  771SOL     OW 2311   3.003   2.848   1.867 -0.3713 -0.4054  0.0214
  771SOL    HW1 2312   2.949   2.887   1.789 -1.9314  1.6638  1.5010
  771SOL    HW2 2313   2.976   2.892   1.958 -1.1028 -0.3244  0.6258
  772SOL     OW 2314   2.222   0.148   2.941 -0.4573  0.5756 -0.1187
  772SOL    HW1 2315   2.288   0.092   2.889 -1.7459  0.4351  2.8268
  772SOL    HW2 2316   2.278   0.198   3.012  0.1828  0.7908  1.6371
  773SOL     OW 2317   0.716   2.131   2.453  0.3987 -0.1555  0.2520
  773SOL    HW1 2318   0.673   2.149   2.361  1.5064  1.6459 -1.4219
  773SOL    HW2 2319   0.678   2.172   2.541  0.8644 -2.6572 -1.1694
  774SOL     OW 2320   2.036   0.013   2.594 -0.7942  0.4570  0.1487
  774SOL    HW1 2321   2.028   0.099   2.651  0.3378 -3.6481 -1.7283
  774SOL    HW2 2322   2.060  -0.067   2.658 -0.7663  0.1331  1.1872
  775SOL     OW 2323   2.543   2.919   2.343  0.1705 -0.2429  0.4575
  775SOL    HW1 2324   2.527   3.018   2.326  1.0037 -0.8485  1.9009
  775SOL    HW2 2325   2.598   2.901   2.425 -0.1415  0.1315  0.8386
  776SOL     OW 2326   0.044   1.238   0.223 -0.0615  0.0016 -0.1582
  776SOL    HW1 2327  -0.019   1.190   0.157 -1.5303  2.2109 -2.4115
  776SOL    HW2 2328   0.011   1.218   0.322 -1.6927 -2.4957 -1.4838
  777SOL     OW 2329   0.338   2.804   0.356 -0.7240  0.8269  0.1692
  777SOL    HW1 2330   0.248   2.862   0.338 -2.9540  0.3977 -0.7968
  777SOL    HW2 2331   0.426   2.858   0.332 -0.1223 -0.2199  2.9724
  778SOL     OW 2332   1.352   1.960   0.163  0.0085  0.0896  0.3042
  778SOL    HW1 2333   1.310   1.972   0.254  2.7079 -3.2940 -0.5986
  778SOL    HW2 2334   1.400   2.049   0.135 -1.0470  2.3647  2.5689
  779SOL     OW 2335   0.180   0.854   0.483 -0.0883 -0.1016 -0.3864
  779SOL    HW1 2336   0.146   0.756   0.492 -0.4234  0.9924 -1.3292
  779SOL    HW2 2337   0.136   0.924   0.546 -0.4808  1.4494  2.5777
  780SOL     OW 2338   0.073   0.228   2.378  0.6333 -0.2884 -0.5929
  780SOL    HW1 2339   0.005   0.294   2.425 -2.0819 -0.1106  0.0494
  780SOL    HW2 2340   0.164   0.273   2.358 -1.1328  2.9297 -1.2310
  781SOL     OW 2341   0.659   1.664   1.527  0.2820 -0.1093  0.2402
  781SOL    HW1 2342   0.746   1.609   1.542  0.9267  0.0026  1.4305
  781SOL    HW2 2343   0.573   1.628   1.579  0.5226  1.3086  0.8643
  782SOL     OW 2344   2.588   0.066   0.936  0.6357 -0.1082 -0.3874
  782SOL    HW1 2345   2.530   0.091   0.855 -0.6698  0.7986  1.9590
  782SOL    HW2 2346   2.599   0.141   1.013 -0.2428  0.7677  3.6469
  783SOL     OW 2347   2.835   0.718   2.521  0.5946  0.6181  0.3567
  783SOL    HW1 2348   2.810   0.761   2.607  0.3168 -1.4084 -0.7981
  783SOL    HW2 2349   2.786   0.629   2.510  1.6665  0.0078 -0.5388
  784SOL     OW 2350   1.437   2.204   0.068 -0.1760 -0.1536  1.0034
  784SOL    HW1 2351   1.506   2.266   0.118 -1.7397 -1.8766 -0.0131
  784SOL    HW2 2352   1.416   2.240  -0.030 -0.7535  1.1883 -1.4105
  785SOL     OW 2353   2.134   0.339   0.086 -0.1611  0.3631 -0.2898
  785SOL    HW1 2354   2.065   0.337   0.161 -3.1303 -0.5793  0.4720
  785SOL    HW2 2355   2.133   0.426   0.032  0.3589 -0.1932 -0.4598
  786SOL     OW 2356   2.047   2.200   2.237 -0.0764 -0.2525 -0.0120
  786SOL    HW1 2357   2.024   2.105   2.277 -0.2643  2.6797 -0.1489
  786SOL    HW2 2358   2.147   2.207   2.239 -4.0452 -1.8788 -0.0005
  787SOL     OW 2359   1.362   0.505   0.970  0.3472  0.4116 -0.1662
  787SOL    HW1 2360   1.317   0.597   0.985  0.3263  0.3888 -0.1378
  787SOL    HW2 2361   1.405   0.502   0.877  0.3277  1.1179  4.1952
  788SOL     OW 2362   1.293   0.418   0.061  0.2397 -0.8675 -0.3584
  788SOL    HW1 2363   1.217   0.410  -0.005 -0.0805  1.3957  0.9276
  788SOL    HW2 2364   1.273   0.445   0.161 -1.0416  0.4505  0.9437
  789SOL     OW 2365   2.563   0.086   1.946  0.5243 -0.0446 -0.4726
  789SOL    HW1 2366   2.473   0.116   1.908  0.3394  1.9157 -1.2356
  789SOL    HW2 2367   2.589  -0.003   1.889 -0.2164  0.3268  0.6364
  790SOL     OW 2368   2.675   2.748   0.827  0.3683  0.8534 -0.4345
  790SOL    HW1 2369   2.699   2.800   0.741 -1.5180 -1.5731  1.2149
  790SOL    HW2 2370   2.675   2.806   0.912 -1.1375 -0.9049  2.2308
  791SOL     OW 2371   1.917   1.204   0.203 -0.1203  0.4546 -0.0471
  791SOL    HW1 2372   1.832   1.166   0.249 -0.7542 -1.0498  0.0783
  791SOL    HW2 2373   2.006   1.157   0.241  2.0996 -0.2213 -0.9405
  792SOL     OW 2374   0.427   1.870   2.192 -0.1328  1.1623 -0.0174
  792SOL    HW1 2375   0.520   1.831   2.220 -0.5173 -0.5382  0.3653
  792SOL    HW2 2376   0.354   1.872   2.268 -2.2827  2.3901  0.4972
  793SOL     OW 2377   2.082   1.549   2.117  0.0477  0.2446  0.2073
  793SOL    HW1 2378   2.141   1.615   2.068 -1.2251  1.6220 -1.2696
  793SOL    HW2 2379   2.102   1.451   2.092 -2.0435  0.4498 -1.7545
  794SOL     OW 2380   0.508   1.368   2.373 -0.1749 -0.3390  0.2236
  794SOL    HW1 2381   0.489   1.356   2.275  0.7622  1.1999  1.4061
  794SOL    HW2 2382   0.489   1.463   2.401 -0.4191 -0.4769 -1.3539
  795SOL     OW 2383   2.503   2.251   1.872 -0.1456 -0.0262  0.2927
  795SOL    HW1 2384   2.498   2.220   1.971  0.7163  1.4833  0.4944
  795SOL    HW2 2385   2.444   2.197   1.807 -0.3665  1.1296  1.1448
  796SOL     OW 2386   3.046   1.135   2.692 -0.2068 -0.0855 -0.5333
  796SOL    HW1 2387   2.949   1.151   2.726 -1.7035  1.2502  1.5707
  796SOL    HW2 2388   3.114   1.143   2.766  0.2894  2.1019  1.0868
  797SOL     OW 2389   0.771   0.640   1.385  0.4557 -0.0334 -0.0765
  797SOL    HW1 2390   0.844   0.702   1.431  0.0918  1.8799  1.3534
  797SOL    HW2 2391   0.702   0.701   1.336 -0.3025 -1.1245 -1.4689
  798SOL     OW 2392   1.311   0.293   1.158  0.2764 -0.1185 -0.2402
  798SOL    HW1 2393   1.313   0.301   1.256 -0.9660 -0.7021 -3.0469
  798SOL    HW2 2394   1.359   0.372   1.111  1.2717  1.5830 -0.3951
  799SOL     OW 2395   1.924   2.738   1.034 -0.5278 -0.0216  0.2190
  799SOL    HW1 2396   1.899   2.688   1.117 -3.4814  2.1562 -1.7783
  799SOL    HW2 2397   1.883   2.697   0.948 -1.6225 -0.9771  0.1282
  800SOL     OW 2398   2.993   0.681   1.853 -0.5465  0.4694  0.2778
  800SOL    HW1 2399   2.988   0.775   1.896  1.9859 -0.1445 -0.3791
  800SOL    HW2 2400   3.073   0.630   1.889 -0.4791  2.0137  0.2972
  801SOL     OW 2401   1.953   2.239   0.104 -0.6089 -0.2719  0.1097
  801SOL    HW1 2402   1.866   2.190   0.075 -0.6608  1.4307  0.0694
  801SOL    HW2 2403   2.034   2.172   0.093  0.4408 -3.4719  0.9016
  802SOL     OW 2404   0.689   0.819   2.570 -0.4692 -0.9116 -0.2509
  802SOL    HW1 2405   0.744   0.766   2.497 -0.4916 -0.3610 -0.1599
  802SOL    HW2 2406   0.599   0.855   2.539  0.2425  2.0206  0.0416
  803SOL     OW 2407   0.941   0.043   0.825  0.0905  0.3155 -0.4870
  803SOL    HW1 2408   1.016   0.102   0.856  0.0086 -1.2151 -1.2543
  803SOL    HW2 2409   0.855   0.101   0.814  0.3659  0.0499 -0.6207
  804SOL     OW 2410   0.307   0.044   2.130  0.0867 -0.0896  0.2033
  804SOL    HW1 2411   0.336   0.133   2.177 -0.0278  0.3735 -0.9350
  804SOL    HW2 2412   0.275   0.054   2.031  0.4422  0.4226 -0.0103
  805SOL     OW 2413   2.379   0.325   0.358 -0.3910  0.4295 -0.2179
  805SOL    HW1 2414   2.465   0.348   0.411 -2.4083  0.6279 -0.3219
  805SOL    HW2 2415   2.398   0.306   0.258  2.3713  0.3689  0.8646
  806SOL     OW 2416   0.615   2.456   1.773  0.3617 -0.1399  0.4443
  806SOL    HW1 2417   0.614   2.557   1.749 -1.3169  0.1288 -1.8706
  806SOL    HW2 2418   0.675   2.398   1.712  0.3284 -2.0389  1.5674
  807SOL     OW 2419   2.487   0.844   0.377  0.1966 -0.3110 -0.1432
  807SOL    HW1 2420   2.556   0.901   0.434  0.5536  2.1321 -3.3806
  807SOL    HW2 2421   2.460   0.898   0.295 -0.9266 -1.1446  0.4877
  808SOL     OW 2422   0.564   2.073   2.909  0.5561  0.5156 -0.5121
  808SOL    HW1 2423   0.537   2.137   2.985 -0.5923 -0.2604  1.2095
  808SOL    HW2 2424   0.574   1.975   2.941  2.2002 -0.5620 -0.7782
  809SOL     OW 2425   2.691   1.984   1.913  0.1986  0.5901 -0.1468
  809SOL    HW1 2426   2.788   2.012   1.938  0.7194 -0.0604  0.2450
  809SOL    HW2 2427   2.656   2.005   1.817 -0.0564 -2.0760 -0.2615
  810SOL     OW 2428   2.083   1.032   0.528  0.4321 -0.0699  0.0824
  810SOL    HW1 2429   2.115   0.963   0.602 -0.2596 -0.6428  0.1487
  810SOL    HW2 2430   2.069   1.126   0.568  1.0818  0.5669 -2.9699
  811SOL     OW 2431   1.340   2.508   1.208 -0.2408 -0.3377 -1.0361
  811SOL    HW1 2432   1.326   2.405   1.202  0.9791  0.8387  2.1537
  811SOL    HW2 2433   1.257   2.557   1.249 -0.4693  1.1243  2.0147
  812SOL     OW 2434   1.427   0.771   1.971  0.0004 -0.8243 -0.0599
  812SOL    HW1 2435   1.498   0.840   1.987  0.6615 -2.2074 -0.1950
  812SOL    HW2 2436   1.335   0.808   1.959 -1.8081 -2.7449  0.9072
  813SOL     OW 2437   1.718   2.038   2.498 -0.4131  0.0577 -0.3975
  813SOL    HW1 2438   1.753   1.939   2.528 -0.0934  0.0975  2.0747
  813SOL    HW2 2439   1.681   2.033   2.399 -0.7169 -1.8658  1.6404
  814SOL     OW 2440   2.916   1.522   2.857 -0.3613 -0.0915 -0.2577
  814SOL    HW1 2441   3.000   1.485   2.908 -0.6028  0.9664  1.8962
  814SOL    HW2 2442   2.947   1.600   2.799 -0.6248  0.0884  1.0580
  815SOL     OW 2443   2.134   2.915   2.781 -0.3654 -0.2142  0.0110
  815SOL    HW1 2444   2.147   2.865   2.868  0.9237 -1.0589 -2.9527
  815SOL    HW2 2445   2.221   2.972   2.767  2.2325 -1.0134  0.0821
  816SOL     OW 2446   1.653   0.328   1.612  0.0763  0.4364 -0.4728
  816SOL    HW1 2447   1.712   0.245   1.647 -1.8951  0.1841 -0.4598
  816SOL    HW2 2448   1.574   0.356   1.671 -1.1419  0.4679 -0.2379
  817SOL     OW 2449   0.394   1.203   2.558 -0.3840 -0.6814  0.0959
  817SOL    HW1 2450   0.305   1.252   2.574 -0.1063 -0.3698 -1.6087
  817SOL    HW2 2451   0.440   1.259   2.482 -1.7237 -1.0201 -1.2152
  818SOL     OW 2452   1.909   0.860   0.447 -0.2396  0.5105 -0.1364
  818SOL    HW1 2453   1.967   0.941   0.479 -2.1775 -0.9264 -1.0056
  818SOL    HW2 2454   1.814   0.868   0.492 -1.7010  2.9343 -0.2491
  819SOL     OW 2455   2.725   2.976   2.995  0.1286 -0.3467 -0.6268
  819SOL    HW1 2456   2.797   2.901   2.986 -1.5403  0.6663  1.3945
  819SOL    HW2 2457   2.652   2.975   2.926 -0.3045  0.5678  2.7721
  820SOL     OW 2458   1.272   1.086   0.684  0.0795 -0.1394 -0.2253
  820SOL    HW1 2459   1.251   1.184   0.714  2.4391 -2.5689 -2.0418
  820SOL    HW2 2460   1.227   1.014   0.740 -0.3981 -1.6478 -1.0215
  821SOL     OW 2461   3.081   1.317   0.677 -0.0982  0.0856 -0.1915
  821SOL    HW1 2462   3.046   1.303   0.774  5.2633 -0.7501 -1.8616
  821SOL    HW2 2463   3.154   1.385   0.667  0.3461 -1.5237  1.0367
  822SOL     OW 2464   2.574   1.720   2.440 -0.4380 -0.5484 -0.4631
  822SOL    HW1 2465   2.576   1.795   2.514  0.7333  1.0479 -1.0410
  822SOL    HW2 2466   2.493   1.729   2.372  1.1018 -0.2363  0.0363
  823SOL     OW 2467   2.106   0.896   1.221 -0.0637  0.3206 -0.1109
  823SOL    HW1 2468   2.070   0.912   1.314 -0.9045 -1.8555  0.6436
  823SOL    HW2 2469   2.066   0.959   1.150 -1.2699 -2.0408  0.9405
  824SOL     OW 2470   0.231   2.059   2.784  0.5841 -0.5345  0.0123
  824SOL    HW1 2471   0.182   1.983   2.837  0.4995  1.3393  0.2268
  824SOL    HW2 2472   0.311   2.029   2.724 -3.5231 -1.6278 -0.4163
  825SOL     OW 2473   1.296   1.108   0.263  0.1394  0.6220  0.1811
  825SOL    HW1 2474   1.327   1.207   0.277 -2.0034  2.9346 -0.7860
  825SOL    HW2 2475   1.214   1.086   0.318 -0.0136 -1.6971  1.9579
  826SOL     OW 2476   1.894   0.709   1.633  0.2565  0.1676  0.3764
  826SOL    HW1 2477   1.990   0.666   1.640  0.3603 -0.1832  0.8843
  826SOL    HW2 2478   1.822   0.656   1.577 -0.3279 -0.1320 -2.0723
  827SOL     OW 2479   0.687   1.204   0.234  0.1019 -1.2025 -0.6076
  827SOL    HW1 2480   0.754   1.157   0.171 -2.3026 -1.8662 -0.2630
  827SOL    HW2 2481   0.595   1.159   0.227  2.9649  0.0737 -1.1513
  828SOL     OW 2482   2.548   0.096   1.586  0.7627  0.5908 -0.7616
  828SOL    HW1 2483   2.450   0.117   1.561  1.2255  0.1092  1.7529
  828SOL    HW2 2484   2.552   0.024   1.663  0.4251 -1.6616 -1.4359
  829SOL     OW 2485   2.759   2.490   3.028 -0.3373  0.8002  0.5185
  829SOL    HW1 2486   2.676   2.428   3.017 -1.4275  0.3740  1.0908
  829SOL    HW2 2487   2.748   2.560   3.103 -0.6054 -0.3866  0.8992
  830SOL     OW 2488   2.851   0.952   2.979 -0.3967 -0.7374  0.1547
  830SOL    HW1 2489   2.907   1.038   2.998 -0.6148 -2.6118 -0.6052
  830SOL    HW2 2490   2.859   0.883   3.056 -2.2384  0.9359 -2.5371
  831SOL     OW 2491   0.036   0.632   0.408 -0.6817  0.4333 -0.1435
  831SOL    HW1 2492   0.028   0.565   0.490 -0.8633  0.8759 -0.5688
  831SOL    HW2 2493   0.085   0.592   0.325 -2.6263 -1.3302  1.1073
  832SOL     OW 2494   1.786   0.742   2.993  0.0810 -0.0180 -0.2979
  832SOL    HW1 2495   1.690   0.776   2.985  0.7421  0.6852  2.1366
  832SOL    HW2 2496   1.795   0.640   3.006  1.2089 -0.3177  1.6077
  833SOL     OW 2497   2.470   2.163   0.550  0.5179 -0.3524  0.1908
  833SOL    HW1 2498   2.388   2.217   0.524  2.9415  1.1021  0.7799
  833SOL    HW2 2499   2.473   2.070   0.498 -1.2607  0.9519  0.1878
  834SOL     OW 2500   0.205   0.214   0.542 -0.1138  0.2544 -0.7139
  834SOL    HW1 2501   0.245   0.116   0.548  3.9923 -3.0207 -2.3695
  834SOL    HW2 2502   0.144   0.221   0.456  0.3399 -0.2130 -0.7385
  835SOL     OW 2503   2.355   1.548   1.110 -0.6454  0.4168 -0.2659
  835SOL    HW1 2504   2.357   1.633   1.170 -1.7730  3.0034  0.4795
  835SOL    HW2 2505   2.427   1.558   1.038 -2.8560 -1.6249 -0.8176
  836SOL     OW 2506   1.596   0.831   2.565  0.1852  0.2586  0.2543
  836SOL    HW1 2507   1.491   0.809   2.577 -0.8966 -1.6801  0.1720
  836SOL    HW2 2508   1.623   0.856   2.464  1.3384  1.0379 -0.3218
  837SOL     OW 2509   1.709   0.117   0.552  0.0153  0.2685  0.0277
  837SOL    HW1 2510   1.665   0.189   0.617  1.5612 -0.6810 -1.6531
  837SOL    HW2 2511   1.670   0.120   0.458 -1.2318 -1.1477  0.6299
  838SOL     OW 2512   1.194   1.552   2.804 -0.4500 -0.0565  0.1350
  838SOL    HW1 2513   1.181   1.533   2.904 -1.2620  0.1287 -0.5331
  838SOL    HW2 2514   1.136   1.487   2.747  0.2409 -0.0335 -0.3440
  839SOL     OW 2515   1.681   0.317   1.019  0.4652  0.1823  0.4397
  839SOL    HW1 2516   1.724   0.357   1.104 -0.2894  0.2822 -1.5513
  839SOL    HW2 2517   1.619   0.232   1.033  0.1678  1.2936  1.1686
  840SOL     OW 2518   2.504   2.974   1.746  0.1240  0.2231  0.2821
  840SOL    HW1 2519   2.430   2.934   1.682 -0.0081 -1.9251 -1.7324
  840SOL    HW2 2520   2.557   2.898   1.792 -2.2497 -0.0053 -0.7388
  841SOL     OW 2521   1.539   0.831   2.957  0.2946 -0.1717 -0.1721
  841SOL    HW1 2522   1.463   0.864   3.027  0.1789  1.9316  3.2047
  841SOL    HW2 2523   1.558   0.899   2.872 -0.9637 -1.3659 -1.3788
  842SOL     OW 2524   0.812   1.551   0.944 -0.2710 -0.2478 -0.0603
  842SOL    HW1 2525   0.782   1.648   0.963 -2.8119  0.5684  0.1353
  842SOL    HW2 2526   0.738   1.484   0.974  1.0963 -1.3789  1.6834
  843SOL     OW 2527   0.062   0.037   1.381 -0.3659 -0.3970 -0.5474
  843SOL    HW1 2528   0.152   0.083   1.414 -0.0406 -0.0785 -1.3516
  843SOL    HW2 2529   0.046  -0.052   1.425 -2.5004  2.2024 -1.2435
  844SOL     OW 2530   0.827   2.520   0.274 -0.0793  0.5380  0.4073
  844SOL    HW1 2531   0.765   2.476   0.345  0.4785  0.8036 -0.9393
  844SOL    HW2 2532   0.759   2.571   0.211 -0.0404 -1.1256  0.9279
  845SOL     OW 2533   1.627   2.887   1.375  0.1512 -0.2275 -0.0129
  845SOL    HW1 2534   1.658   2.965   1.434  1.6350 -0.0561 -2.3282
  845SOL    HW2 2535   1.538   2.848   1.402  0.8969  2.8147 -0.6168
  846SOL     OW 2536   1.566   2.899   0.680  0.1259 -0.3078 -0.1954
  846SOL    HW1 2537   1.625   2.843   0.616  0.5164 -0.9299 -1.0790
  846SOL    HW2 2538   1.625   2.936   0.758  0.7152  4.3879  0.2675
  847SOL     OW 2539   2.070   1.641   0.315  0.2183  0.5018 -0.3298
  847SOL    HW1 2540   2.026   1.563   0.372 -1.7870  0.1446 -1.4481
  847SOL    HW2 2541   1.998   1.683   0.261 -1.4169  1.7647 -0.8420
  848SOL     OW 2542   2.435   0.874   2.580  0.0547 -0.1171 -0.2144
  848SOL    HW1 2543   2.403   0.964   2.616  0.8008 -2.8564  3.8356
  848SOL    HW2 2544   2.378   0.797   2.616  0.4269  1.7954  1.6646
  849SOL     OW 2545   2.593   0.821   2.358 -0.0654 -0.4832 -0.2324
  849SOL    HW1 2546   2.687   0.796   2.382  0.3396  2.0200  0.1077
  849SOL    HW2 2547   2.531   0.826   2.443 -1.5965 -0.8700 -0.9635
  850SOL     OW 2548   1.558   0.098   1.332  0.4801 -0.1136  0.4102
  850SOL    HW1 2549   1.535   0.107   1.233 -2.9019 -3.2613  2.0121
  850SOL    HW2 2550   1.488   0.044   1.383 -2.7083  0.2902 -2.7327
  851SOL     OW 2551   0.474   1.813   0.590 -0.3238 -0.4129  0.0687
  851SOL    HW1 2552   0.480   1.910   0.627 -2.2505  0.9213 -0.2751
  851SOL    HW2 2553   0.530   1.801   0.502  0.4515 -1.9404  1.2633
  852SOL     OW 2554   0.797   2.111   1.651 -0.2649 -0.0571  0.4379
  852SOL    HW1 2555   0.795   2.201   1.598 -0.9031  1.5965 -1.8668
  852SOL    HW2 2556   0.740   2.100   1.742 -1.3009 -0.6406  1.4176
  853SOL     OW 2557   2.547   1.479   2.606  0.8977 -0.2367 -0.1376
  853SOL    HW1 2558   2.475   1.417   2.565  1.3631  2.5909  2.0340
  853SOL    HW2 2559   2.560   1.563   2.544 -1.5455 -1.1994 -1.4059
  854SOL     OW 2560   2.373   1.424   1.735 -0.0347  0.0945 -0.0267
  854SOL    HW1 2561   2.435   1.395   1.657  1.0363  2.1765  3.7940
  854SOL    HW2 2562   2.340   1.344   1.792 -0.2244 -1.7451 -1.0606
  855SOL     OW 2563   2.020   2.436   0.984 -0.0073  0.3668  0.2785
  855SOL    HW1 2564   2.026   2.531   0.934 -3.1714  0.2692 -2.5016
  855SOL    HW2 2565   2.087   2.426   1.066  0.1159 -2.7785  0.8213
  856SOL     OW 2566   1.334   1.492   0.938  0.7150  0.3874 -0.1743
  856SOL    HW1 2567   1.406   1.568   0.963  0.9981 -0.9963  0.1294
  856SOL    HW2 2568   1.241   1.515   0.977  0.1268  1.4521  0.9874
  857SOL     OW 2569   3.084   2.689   0.970 -0.5252 -0.1035  0.7860
  857SOL    HW1 2570   3.036   2.601   0.933  0.0415 -0.5131  1.4398
  857SOL    HW2 2571   3.167   2.706   0.915 -0.3840 -1.3448  3.0300
  858SOL     OW 2572   2.344   2.080   1.692 -0.2718 -0.6177 -0.0421
  858SOL    HW1 2573   2.256   2.050   1.648  2.3200 -0.9283  1.8174
  858SOL    HW2 2574   2.417   2.006   1.684  1.7041  0.1219  0.3032
  859SOL     OW 2575   2.476   0.539   1.012 -0.1878  0.2901 -0.0938
  859SOL    HW1 2576   2.529   0.599   0.941  1.7977 -0.3538 -0.7131
  859SOL    HW2 2577   2.524   0.446   1.025  0.1908 -1.9571 -0.1588
  860SOL     OW 2578   1.937   2.799   0.440 -0.1659  0.2785  0.5089
  860SOL    HW1 2579   1.900   2.765   0.350  0.5140  0.5333 -0.7894
  860SOL    HW2 2580   2.040   2.811   0.427 -4.7661 -2.8869 -1.3272
  861SOL     OW 2581   1.032   2.430   2.885  1.1066  0.1208 -0.1558
  861SOL    HW1 2582   1.064   2.517   2.841 -2.4022  2.5395 -0.8155
  861SOL    HW2 2583   1.070   2.417   2.979 -0.0295  1.9167  1.1322
  862SOL     OW 2584   2.818   2.567   1.606 -0.3182  0.2314 -0.1918
  862SOL    HW1 2585   2.906   2.601   1.648 -0.0490 -1.5406  0.3119
  862SOL    HW2 2586   2.771   2.631   1.539 -0.0639  1.6322  0.3081
  863SOL     OW 2587   1.853   2.746   0.184 -0.2262  0.1417  0.0608
  863SOL    HW1 2588   1.897   2.655   0.165  0.6401  0.3096 -0.5942
  863SOL    HW2 2589   1.748   2.744   0.170 -0.1737 -1.2246  0.9934
  864SOL     OW 2590   1.915   1.193   2.861  0.1022 -0.1356  0.7254
  864SOL    HW1 2591   1.923   1.163   2.762 -0.2501  0.9718  1.1245
  864SOL    HW2 2592   1.965   1.132   2.928 -2.1992 -0.2010 -0.0256
  865SOL     OW 2593   2.207   1.847   0.635  0.4025 -0.4766  0.1908
  865SOL    HW1 2594   2.242   1.875   0.728 -0.7361 -0.0626 -0.5729
  865SOL    HW2 2595   2.116   1.797   0.645 -0.8341 -0.5844 -0.1552
  866SOL     OW 2596   2.880   2.910   1.025 -0.0198  0.1293  0.3642
  866SOL    HW1 2597   2.873   2.984   0.950  0.4131 -0.7161  1.5903
  866SOL    HW2 2598   2.935   2.824   0.997  2.1591  1.9303 -0.0119
  867SOL     OW 2599   0.341   1.394   0.868 -0.3475 -0.3192  0.2932
  867SOL    HW1 2600   0.342   1.318   0.791 -1.6485 -2.9003 -2.2058
  867SOL    HW2 2601   0.316   1.488   0.837 -3.2041 -2.7882  1.8966
  868SOL     OW 2602   0.783   1.897   2.009 -0.0496 -0.2568 -0.1316
  868SOL    HW1 2603   0.797   1.900   2.108  0.4088 -0.5925 -2.9666
  868SOL    HW2 2604   0.737   1.979   1.961 -1.6754 -0.9023 -2.3646
  869SOL     OW 2605   2.561   1.909   1.651  0.1370 -0.3020 -0.5078
  869SOL    HW1 2606   2.621   1.982   1.603  1.0047  0.8486 -0.3377
  869SOL    HW2 2607   2.625   1.824   1.676  2.8222 -0.7485  1.1072
  870SOL     OW 2608   2.225   2.663   1.239 -0.5270 -0.2104  0.2122
  870SOL    HW1 2609   2.245   2.561   1.211  1.3568 -4.9834 -0.4531
  870SOL    HW2 2610   2.251   2.689   1.340  0.3774  0.6491 -0.1637
  871SOL     OW 2611   3.046   2.206   0.522 -0.5076 -0.3301 -0.4915
  871SOL    HW1 2612   3.011   2.253   0.610  1.0115  2.4382 -0.3910
  871SOL    HW2 2613   2.985   2.218   0.437 -1.9561  1.3123  0.4475
  872SOL     OW 2614   2.121   0.534   1.700  0.0208  0.0518 -0.1584
  872SOL    HW1 2615   2.065   0.513   1.786 -1.3668 -1.1813 -1.3585
  872SOL    HW2 2616   2.217   0.503   1.711 -1.1385 -0.2190 -0.8843
  873SOL     OW 2617   1.695   2.129   3.064  0.4071 -0.1633  0.1787
  873SOL    HW1 2618   1.610   2.157   3.113  1.1841  0.4201  0.8469
  873SOL    HW2 2619   1.683   2.121   2.963  1.9466  0.4028  1.7119
  874SOL     OW 2620   0.677   2.466   0.759  0.0115  0.1830  0.1658
  874SOL    HW1 2621   0.678   2.562   0.803 -0.7158 -0.5975 -1.6279
  874SOL    HW2 2622   0.767   2.418   0.762  1.7547  1.8370  2.1093
  875SOL     OW 2623   2.343   1.478   1.404  0.1521  0.0562  0.2045
  875SOL    HW1 2624   2.443   1.507   1.407 -3.3416 -1.9465 -0.5021
  875SOL    HW2 2625   2.310   1.453   1.305 -1.2137 -1.9659 -0.6631
  876SOL     OW 2626   0.051   2.264   2.743  0.3161  0.0748  0.3849
  876SOL    HW1 2627   0.119   2.181   2.758  2.4425 -3.7830  0.9314
  876SOL    HW2 2628   0.088   2.358   2.770 -0.6760  0.6921  1.4271
  877SOL     OW 2629   2.903   2.678   0.556 -0.0536 -0.6215  0.2781
  877SOL    HW1 2630   2.888   2.777   0.589  0.7184 -1.9194 -0.4473
  877SOL    HW2 2631   2.931   2.616   0.633 -2.8106  1.6882 -0.0789
  878SOL     OW 2632   2.793   1.487   2.258 -0.2030 -0.2613  0.3591
  878SOL    HW1 2633   2.742   1.567   2.223 -1.0122  1.6848  0.6754
  878SOL    HW2 2634   2.798   1.489   2.362 -1.3802 -0.4098  0.3438
  879SOL     OW 2635   2.408   0.124   1.247 -0.2160 -0.2743 -0.0501
  879SOL    HW1 2636   2.468   0.053   1.291 -1.8647  1.3856 -0.3196
  879SOL    HW2 2637   2.340   0.082   1.182 -1.2751 -0.4287  0.6918
  880SOL     OW 2638   0.766   0.474   2.228 -0.1959 -0.0458  0.2334
  880SOL    HW1 2639   0.715   0.445   2.313  2.3889 -1.2060 -0.8611
  880SOL    HW2 2640   0.769   0.407   2.151 -0.6776  2.0783 -0.8548
  881SOL     OW 2641   0.901   0.038   0.520  0.3142  0.2216  0.6185
  881SOL    HW1 2642   0.942  -0.060   0.505  0.0267 -3.2540 -0.0409
  881SOL    HW2 2643   0.801   0.037   0.495  0.8017 -1.2983 -0.9036
  882SOL     OW 2644   2.706   1.677   1.683 -0.2779  0.2922  0.3260
  882SOL    HW1 2645   2.784   1.629   1.630  0.2265 -1.0572 -1.5754
  882SOL    HW2 2646   2.698   1.660   1.782  0.8192 -0.6071 -1.5651
  883SOL     OW 2647   0.900   0.506   0.925  0.1571  0.2565  0.3687
  883SOL    HW1 2648   0.912   0.601   0.968 -2.0046 -0.8406  0.7161
  883SOL    HW2 2649   0.908   0.429   0.994 -0.6004 -1.2262  0.2397
  884SOL     OW 2650   1.159   1.728   1.192  0.2019 -0.1915  0.1053
  884SOL    HW1 2651   1.113   1.659   1.137  0.7622  3.5405  1.7644
  884SOL    HW2 2652   1.132   1.827   1.163 -1.3476 -1.0329 -0.4866
  885SOL     OW 2653   2.328   1.773   2.296  0.3143 -0.0877 -0.4779
  885SOL    HW1 2654   2.227   1.755   2.326 -2.8963 -0.7978 -2.5109
  885SOL    HW2 2655   2.326   1.873   2.265 -0.7621  0.0511  0.6043
  886SOL     OW 2656   2.598   0.345   1.794 -0.0653  0.2870  0.2952
  886SOL    HW1 2657   2.615   0.274   1.868  3.7277  0.1018 -2.6486
  886SOL    HW2 2658   2.680   0.406   1.773  0.8797  2.4632  0.4325
  887SOL     OW 2659   0.105   1.953   1.348 -0.2437  0.5241 -0.0639
  887SOL    HW1 2660   0.051   1.893   1.284  2.9750 -1.4049 -0.8459
  887SOL    HW2 2661   0.141   2.038   1.303  0.4947 -0.0986  1.8308
  888SOL     OW 2662   0.557   1.213   1.550  0.5157  0.0822  0.0078
  888SOL    HW1 2663   0.581   1.250   1.454  0.9937  0.1146  0.2831
  888SOL    HW2 2664   0.525   1.110   1.547 -1.6923 -2.4285  1.3269
  889SOL     OW 2665   0.817   2.489   2.190  0.2306 -0.3327  0.5327
  889SOL    HW1 2666   0.775   2.407   2.240  2.0988  1.1474  1.1600
  889SOL    HW2 2667   0.853   2.458   2.093  0.8439 -1.2509  0.9438
  890SOL     OW 2668   2.420   2.434   0.240  0.3839 -1.1882 -0.4374
  890SOL    HW1 2669   2.398   2.506   0.168  1.8455  1.8710  1.1557
  890SOL    HW2 2670   2.371   2.461   0.328 -0.8809 -0.5046 -1.5292
  891SOL     OW 2671   2.519   1.721   0.681 -0.1564  0.3085  0.1625
  891SOL    HW1 2672   2.525   1.703   0.779 -1.1627 -3.0171 -1.4769
  891SOL    HW2 2673   2.439   1.683   0.635  1.4601 -0.0746  1.1364
  892SOL     OW 2674   0.366   0.287   2.269 -0.2123  0.4364 -0.3941
  892SOL    HW1 2675   0.356   0.363   2.194  1.4408 -0.0149 -3.2401
  892SOL    HW2 2676   0.456   0.299   2.318 -0.5244 -0.2471 -1.5111
  893SOL     OW 2677   1.671   0.256   2.709  0.3542  0.7167  0.3545
  893SOL    HW1 2678   1.748   0.314   2.750  0.3182 -2.6072  1.9269
  893SOL    HW2 2679   1.578   0.305   2.697 -1.8182 -1.1536  0.1689
  894SOL     OW 2680   2.173   2.040   0.035 -0.0870  0.1536 -0.0131
  894SOL    HW1 2681   2.120   1.999  -0.047 -2.7554 -1.7507 -0.9011
  894SOL    HW2 2682   2.210   1.966   0.101  0.1455 -0.8002  0.1221
  895SOL     OW 2683   2.809   1.454   0.934  0.1896 -0.1515  0.4470
  895SOL    HW1 2684   2.877   1.386   0.961 -0.4312  0.8872  1.2642
  895SOL    HW2 2685   2.836   1.552   0.973  0.5972 -0.2782  1.5547
  896SOL     OW 2686   1.704   1.811   1.195  0.1874  0.1801 -0.1469
  896SOL    HW1 2687   1.762   1.743   1.146  0.4481 -0.9850  1.4794
  896SOL    HW2 2688   1.650   1.873   1.134  1.1438 -1.3468 -0.1177
  897SOL     OW 2689   0.320   0.555   3.059  0.0683  0.0255 -0.0460
  897SOL    HW1 2690   0.264   0.594   2.976 -0.4492  1.0870 -0.9251
  897SOL    HW2 2691   0.407   0.608   3.068  0.0257  1.4051  0.0789
  898SOL     OW 2692   0.570   2.875   1.070 -0.2846  0.1446 -0.0064
  898SOL    HW1 2693   0.584   2.979   1.065  0.4947 -1.2248 -0.3251
  898SOL    HW2 2694   0.642   2.823   1.130 -1.1494  1.5113  0.5920
  899SOL     OW 2695   2.833   0.894   1.308  0.3770  0.4677 -1.0107
  899SOL    HW1 2696   2.760   0.921   1.242 -0.5331  0.5910  4.1543
  899SOL    HW2 2697   2.928   0.897   1.272 -1.3212 -2.0474 -2.0891
  900SOL     OW 2698   0.968   2.524   2.426 -0.3844  0.1557 -1.3764
  900SOL    HW1 2699   0.935   2.530   2.332  2.7430  0.4020  1.8846
  900SOL    HW2 2700   0.891   2.522   2.501  0.5291 -0.1932 -0.1951
  901SOL     OW 2701   1.903   2.348   1.366 -0.1066 -0.2555  0.3745
  901SOL    HW1 2702   1.866   2.297   1.282 -0.8666  0.1664 -1.1978
  901SOL    HW2 2703   1.998   2.324   1.392 -0.5695 -0.5627  0.9121
  902SOL     OW 2704   2.567   1.634   1.421  0.5911  0.3160 -0.0638
  902SOL    HW1 2705   2.578   1.662   1.519 -0.2262 -0.7649 -0.3919
  902SOL    HW2 2706   2.660   1.606   1.374  1.2308 -0.5566 -0.9144
  903SOL     OW 2707   0.233   2.477   1.962  0.0509  0.1649  0.3099
  903SOL    HW1 2708   0.147   2.437   1.925  0.6685  0.9042  3.1146
  903SOL    HW2 2709   0.272   2.554   1.903 -0.1104 -0.0950  3.7859
  904SOL     OW 2710   2.027   0.790   2.577  0.5990 -0.1769 -0.7137
  904SOL    HW1 2711   1.939   0.740   2.616  0.8579  1.4549  0.7625
  904SOL    HW2 2712   2.040   0.786   2.474 -1.5981  0.4039 -0.4074
  905SOL     OW 2713   2.847   0.137   2.562 -0.2893 -0.1691  0.1194
  905SOL    HW1 2714   2.921   0.070   2.571 -2.3461  2.1853 -1.0440
  905SOL    HW2 2715   2.883   0.228   2.527  0.1961 -1.7559  1.0147
  906SOL     OW 2716   0.225   1.696   1.936  0.2422 -0.5809  0.1693
  906SOL    HW1 2717   0.157   1.726   1.865  1.4872  1.3835  0.4539
  906SOL    HW2 2718   0.297   1.767   1.928 -0.7117 -0.6496 -0.5909
  907SOL     OW 2719   0.259   2.440   1.027  0.2509 -0.1828  0.3214
  907SOL    HW1 2720   0.355   2.402   1.007 -0.2459 -0.7990 -0.3755
  907SOL    HW2 2721   0.215   2.491   0.948  0.3484 -0.3163 -0.0183
  908SOL     OW 2722   2.820   2.987   0.369  0.0698 -0.8817 -0.7454
  908SOL    HW1 2723   2.746   3.024   0.306  0.1283  0.5418  0.0548
  908SOL    HW2 2724   2.882   2.920   0.327  0.0056  1.0077 -0.0756
  909SOL     OW 2725   0.830   1.044   2.648  0.2352  0.2029  0.5321
  909SOL    HW1 2726   0.772   0.967   2.607 -2.0052  0.6005  0.1089
  909SOL    HW2 2727   0.918   1.055   2.593  1.6336  0.0393 -1.0653
  910SOL     OW 2728   1.794   1.908   2.178 -0.5773  0.2981  0.4672
  910SOL    HW1 2729   1.833   1.909   2.076 -0.3016 -1.6211  1.2165
  910SOL    HW2 2730   1.703   1.958   2.190  0.5065  0.6597 -1.9461
  911SOL     OW 2731   1.808   2.935   1.601 -0.1173  0.1285 -0.3258
  911SOL    HW1 2732   1.888   2.914   1.536  1.0333  0.6813  0.3576
  911SOL    HW2 2733   1.783   2.857   1.657 -0.3496  2.0021 -0.0695
  912SOL     OW 2734   2.857   1.019   0.743  0.0933 -0.1252  0.2539
  912SOL    HW1 2735   2.913   0.966   0.815 -0.8274  1.8279  1.4648
  912SOL    HW2 2736   2.809   1.108   0.767 -4.0639 -0.1214 -2.7668
  913SOL     OW 2737   2.541   1.283   1.541  0.3063 -0.0132 -0.4447
  913SOL    HW1 2738   2.575   1.192   1.510  2.1356  0.1441 -0.2709
  913SOL    HW2 2739   2.582   1.355   1.484  0.4559 -2.8179 -0.7272
  914SOL     OW 2740   2.786   0.588   1.189  0.1542 -0.0893  0.4231
  914SOL    HW1 2741   2.794   0.495   1.242  0.7514 -2.7179 -0.9028
  914SOL    HW2 2742   2.682   0.614   1.180 -1.4677  0.6543  1.2755
  915SOL     OW 2743   1.172   0.723   1.050 -0.2664 -0.2492  0.3696
  915SOL    HW1 2744   1.225   0.776   1.126 -3.6236  0.0518  1.0514
  915SOL    HW2 2745   1.077   0.719   1.076  3.5136  0.3424  2.0126
  916SOL     OW 2746   0.595   0.025   0.651 -0.2742  0.1265 -0.0033
  916SOL    HW1 2747   0.648   0.101   0.700  1.8896 -1.2322  0.3565
  916SOL    HW2 2748   0.584   0.051   0.556 -1.9118 -1.3289  0.7108
  917SOL     OW 2749   2.830   2.615   2.011  0.0508  0.0736 -0.7967
  917SOL    HW1 2750   2.730   2.631   1.988  1.2005 -0.3902 -0.1851
  917SOL    HW2 2751   2.882   2.705   2.009 -0.0867  1.2094  0.1754
  918SOL     OW 2752   1.016   2.100   3.027 -0.2275  0.2968  0.3549
  918SOL    HW1 2753   1.012   2.179   3.098  2.0068  0.3604  0.3287
  918SOL    HW2 2754   1.106   2.112   2.972 -0.2494 -2.6998 -1.0779
  919SOL     OW 2755   0.834   1.616   2.849  0.4768  0.1286 -0.4884
  919SOL    HW1 2756   0.894   1.682   2.796 -0.9508 -1.1273 -0.7632
  919SOL    HW2 2757   0.775   1.558   2.788 -0.8523  3.4518  0.9381
  920SOL     OW 2758   1.247   1.837   2.506  0.1393  0.4975 -0.4454
  920SOL    HW1 2759   1.324   1.801   2.445  0.4829 -3.8157 -1.2452
  920SOL    HW2 2760   1.202   1.755   2.552 -0.4611 -1.5135 -1.3305
  921SOL     OW 2761   1.055   0.028   2.626 -0.3972  0.0957 -0.4210
  921SOL    HW1 2762   1.015  -0.013   2.538 -1.0901  1.0071  0.5047
  921SOL    HW2 2763   0.996   0.103   2.668 -3.6747  0.3280  1.9465
  922SOL     OW 2764   2.212   2.362   2.792 -0.6820  0.1456 -0.3242
  922SOL    HW1 2765   2.247   2.269   2.767 -0.1871  1.1356 -2.4501
  922SOL    HW2 2766   2.164   2.398   2.712  2.1342 -2.0597  0.7255
  923SOL     OW 2767   1.283   2.669   0.289 -0.0881 -0.0754  0.3382
  923SOL    HW1 2768   1.352   2.726   0.335 -1.6119  0.1807 -1.8063
  923SOL    HW2 2769   1.310   2.575   0.270  0.2150  2.0908  0.2767
  924SOL     OW 2770   2.834   1.643   0.145  0.3477 -0.8763  0.7951
  924SOL    HW1 2771   2.759   1.620   0.077  0.2735 -0.2850  1.7142
  924SOL    HW2 2772   2.918   1.584   0.132 -0.6841 -1.8133 -1.0311
  925SOL     OW 2773   0.012   2.883   1.472 -0.0457 -0.1699  0.1651
  925SOL    HW1 2774  -0.073   2.880   1.535  2.1449 -2.4208  2.8976
  925SOL    HW2 2775   0.012   2.814   1.391  2.1407 -0.2953  2.0992
  926SOL     OW 2776   1.279   2.790   1.319  0.0032  0.1294 -0.7146
  926SOL    HW1 2777   1.356   2.803   1.251  0.4591 -1.5063  0.4981
  926SOL    HW2 2778   1.244   2.872   1.369 -0.5554 -1.3191  1.7380
  927SOL     OW 2779   0.314   2.667   1.790  0.1933 -0.0128 -0.3990
  927SOL    HW1 2780   0.286   2.595   1.719 -2.7622 -0.6401  1.9911
  927SOL    HW2 2781   0.291   2.763   1.761  0.1466 -1.1871  0.8938
  928SOL     OW 2782   1.571   2.061   2.245  0.3108 -0.6728  0.3478
  928SOL    HW1 2783   1.602   2.144   2.186 -2.3016  1.5618  2.8046
  928SOL    HW2 2784   1.476   2.080   2.277 -1.5468  1.2958 -0.5879
  929SOL     OW 2785   2.417   2.523   2.856 -0.6036  0.1988  0.2022
  929SOL    HW1 2786   2.336   2.459   2.824 -2.0667  1.7299  1.5087
  929SOL    HW2 2787   2.487   2.538   2.779 -2.5254  1.1173 -0.5059
  930SOL     OW 2788   2.177   2.031   1.073 -0.1618 -0.1282  0.1208
  930SOL    HW1 2789   2.159   1.949   1.135 -0.0573 -0.8358 -0.6297
  930SOL    HW2 2790   2.260   2.078   1.108  3.6387  0.4312  0.5494
  931SOL     OW 2791   0.526   1.702   2.705  0.1943  0.4171  0.7622
  931SOL    HW1 2792   0.555   1.744   2.792 -1.3466 -2.0428 -1.1327
  931SOL    HW2 2793   0.599   1.636   2.671 -2.4393  0.9726 -2.4871
  932SOL     OW 2794   0.473   0.141   3.049  0.2868  0.5023 -0.2414
  932SOL    HW1 2795   0.554   0.178   3.099 -0.0376 -0.2389 -3.4740
  932SOL    HW2 2796   0.471   0.033   3.038  2.4729 -3.3494  0.7661
  933SOL     OW 2797   0.975   0.800   3.093  0.2311 -0.0369  0.6137
  933SOL    HW1 2798   0.957   0.817   3.193 -0.2337 -0.7558 -0.6632
  933SOL    HW2 2799   0.973   0.887   3.042  2.7810  1.1959  0.7114
  934SOL     OW 2800   0.788   2.946   2.685 -0.1754 -0.1152 -0.1696
  934SOL    HW1 2801   0.761   2.882   2.610  2.2486 -0.4276  0.4239
  934SOL    HW2 2802   0.870   2.907   2.739 -0.8764 -2.2021  0.3817
  935SOL     OW 2803   0.037   0.535   0.835 -0.3252  0.6737  0.6309
  935SOL    HW1 2804   0.036   0.508   0.733 -1.0777  1.4452 -0.7700
  935SOL    HW2 2805  -0.055   0.580   0.867  1.0725 -1.5959 -0.4494
  936SOL     OW 2806   1.126   2.771   0.072  0.1857  0.0786 -0.2370
  936SOL    HW1 2807   1.175   2.829  -0.001  0.5561 -1.8350  1.9699
  936SOL    HW2 2808   1.187   2.736   0.150  0.5287  1.2757  1.6312
  937SOL     OW 2809   1.847   2.660   2.097  1.1804 -0.1119  0.2186
  937SOL    HW1 2810   1.745   2.678   2.109  4.3902  0.5283 -0.4751
  937SOL    HW2 2811   1.896   2.722   2.029  0.7806  2.9709  2.5353
  938SOL     OW 2812   2.759   2.084   1.604  0.4414  0.3311  0.3434
  938SOL    HW1 2813   2.742   2.187   1.620 -0.2991  0.7610  0.0118
  938SOL    HW2 2814   2.856   2.049   1.629  1.6884 -0.9704 -1.3637
  939SOL     OW 2815   2.854   1.193   2.430  0.2084  0.3246  0.3672
  939SOL    HW1 2816   2.937   1.149   2.397  0.4388  0.6432  1.0982
  939SOL    HW2 2817   2.826   1.148   2.517  0.3254  0.5975 -0.2908
  940SOL     OW 2818   1.049   0.422   2.747 -0.2688  0.0861 -0.0668
  940SOL    HW1 2819   1.120   0.356   2.784 -0.4467 -0.1007 -2.0082
  940SOL    HW2 2820   0.981   0.376   2.683 -2.4769 -3.7321  2.5190
  941SOL     OW 2821   0.029   2.786   2.252  0.3451 -0.5721 -0.0436
  941SOL    HW1 2822   0.069   2.695   2.235  0.3013  3.0347 -0.1946
  941SOL    HW2 2823   0.096   2.852   2.297  0.7294 -0.2272  1.6486
  942SOL     OW 2824   0.116   0.048   2.579  0.5097 -0.0639  0.0992
  942SOL    HW1 2825   0.186   0.097   2.646  0.2877  3.0802  0.6637
  942SOL    HW2 2826   0.089   0.108   2.495  1.6610  0.5411 -0.3210
  943SOL     OW 2827   2.093   1.646   2.391 -0.2067 -0.0978  0.4345
  943SOL    HW1 2828   2.088   1.603   2.294  1.5572  1.0752 -2.6809
  943SOL    HW2 2829   2.099   1.575   2.475  1.0430 -2.6607  1.2225
  944SOL     OW 2830   2.163   2.338   1.450 -0.0980 -0.5987 -0.2492
  944SOL    HW1 2831   2.252   2.387   1.474 -0.7153 -1.8729  0.6910
  944SOL    HW2 2832   2.146   2.260   1.520  4.8543  2.5687  1.0433
  945SOL     OW 2833   0.677   1.502   0.186  0.0165  0.1385  0.5179
  945SOL    HW1 2834   0.599   1.552   0.133 -0.8461 -0.3369  0.4902
  945SOL    HW2 2835   0.650   1.404   0.211 -0.0417 -1.5745 -0.8514
  946SOL     OW 2836   0.438   0.945   2.480 -0.2882 -0.2342 -0.2911
  946SOL    HW1 2837   0.351   0.886   2.479  0.6391  2.1523  0.0640
  946SOL    HW2 2838   0.412   1.045   2.497 -0.2622 -1.8419  2.8195
  947SOL     OW 2839   1.516   0.501   3.068  0.6704  0.5572  0.2567
  947SOL    HW1 2840   1.495   0.545   2.980 -0.8472 -1.3748  1.8524
  947SOL    HW2 2841   1.429   0.469   3.120 -2.9366 -0.3135  1.1470
  948SOL     OW 2842   1.830   3.013   2.116  0.0727  0.1275 -0.1544
  948SOL    HW1 2843   1.863   2.964   2.034 -1.2776 -2.9048  0.4078
  948SOL    HW2 2844   1.856   2.962   2.204  0.2395 -1.7926  0.2602
  949SOL     OW 2845   0.628   2.496   0.492 -0.5139 -0.1402  0.2024
  949SOL    HW1 2846   0.637   2.599   0.465  1.5976  2.5730  0.7574
  949SOL    HW2 2847   0.616   2.474   0.594  0.6860 -0.6668  1.4098
  950SOL     OW 2848   0.212   2.244   3.016 -0.4531  0.2312  0.3560
  950SOL    HW1 2849   0.221   2.338   2.977  2.2239  1.5203  0.3130
  950SOL    HW2 2850   0.193   2.169   2.945 -0.5464  0.5215  0.6796
  951SOL     OW 2851   1.224   2.685   2.792 -0.4396  0.1669 -0.1928
  951SOL    HW1 2852   1.273   2.681   2.887 -1.0805 -0.8378  0.5911
  951SOL    HW2 2853   1.283   2.729   2.718  1.1187  4.2472  0.9659
  952SOL     OW 2854   0.042   1.652   0.393 -0.5800 -0.3232  0.5986
  952SOL    HW1 2855   0.106   1.736   0.395  2.5528  4.6180 -4.2104
  952SOL    HW2 2856   0.067   1.585   0.469 -0.8077 -1.6331 -0.5141
  953SOL     OW 2857   2.524   1.784   0.227  0.0059  0.5009  0.3447
  953SOL    HW1 2858   2.490   1.686   0.242 -2.0930  0.4315 -2.1647
  953SOL    HW2 2859   2.508   1.803   0.130 -0.2146 -0.6451  0.3123
  954SOL     OW 2860   2.222   0.535   0.892  0.4075  0.1338 -0.3981
  954SOL    HW1 2861   2.232   0.560   0.790  0.3099 -1.5879  0.9033
  954SOL    HW2 2862   2.311   0.522   0.944 -1.2287  0.6186 -0.9530
  955SOL     OW 2863   0.166   2.597   1.354  0.0277  0.0399 -0.5780
  955SOL    HW1 2864   0.070   2.614   1.317  2.7695  0.8909 -0.9181
  955SOL    HW2 2865   0.237   2.636   1.291  0.9312  0.6632 -2.8482
  956SOL     OW 2866   2.840   2.446   2.484  0.3752 -0.1346  0.7005
  956SOL    HW1 2867   2.856   2.355   2.445  1.7230  1.9354  0.4209
  956SOL    HW2 2868   2.884   2.518   2.423 -1.5073  1.1006 -1.2918
  957SOL     OW 2869   1.684   2.056   2.792  0.2893 -0.0612 -0.6179
  957SOL    HW1 2870   1.634   1.966   2.793  0.1108 -0.7989 -2.2596
  957SOL    HW2 2871   1.714   2.075   2.691  1.8533 -2.8448  0.3328
  958SOL     OW 2872   2.562   2.292   2.993 -0.3563 -0.4423  0.3125
  958SOL    HW1 2873   2.504   2.353   2.936  2.0625  1.8277  2.1178
  958SOL    HW2 2874   2.516   2.242   3.072 -2.4210  0.3291  1.3880
  959SOL     OW 2875   0.277   2.808   0.030 -0.0042  0.5139  0.0901
  959SOL    HW1 2876   0.179   2.783  -0.004 -0.6502 -2.1660 -0.2033
  959SOL    HW2 2877   0.314   2.734   0.091 -0.1581 -0.4395  0.7924
  960SOL     OW 2878   1.946   0.470   1.931  0.3231  0.2234  0.2588
  960SOL    HW1 2879   1.880   0.543   1.894 -1.1979 -2.6540 -1.5005
  960SOL    HW2 2880   1.961   0.472   2.032 -0.3460 -0.1088 -0.8677
  961SOL     OW 2881   2.575   1.857   1.020  0.2564  0.5956 -0.6064
  961SOL    HW1 2882   2.587   1.959   1.006  2.2031 -1.4864 -1.5998
  961SOL    HW2 2883   2.530   1.837   1.110 -0.5345 -0.7162 -1.6619
  962SOL     OW 2884   1.310   0.920   0.036  0.0256  0.0923  0.0273
  962SOL    HW1 2885   1.274   0.968  -0.050 -1.3449 -1.2444 -1.2669
  962SOL    HW2 2886   1.323   0.989   0.114  0.9505 -1.7076 -0.3047
  963SOL     OW 2887   2.270   2.575   1.780 -0.7356  0.3999  0.0456
  963SOL    HW1 2888   2.233   2.490   1.828 -2.6221 -1.7715  1.3568
  963SOL    HW2 2889   2.309   2.639   1.846 -0.4471  0.5108 -0.0046
  964SOL     OW 2890   2.361   0.417   1.670  0.0633 -0.2113  0.4207
  964SOL    HW1 2891   2.439   0.418   1.735 -0.3776  2.3326 -2.7506
  964SOL    HW2 2892   2.385   0.403   1.570 -1.6397 -2.8378 -0.7512
  965SOL     OW 2893   2.610   2.992   0.141  0.8411  0.8969 -0.5482
  965SOL    HW1 2894   2.671   2.963   0.065 -1.1023  2.1929 -0.5974
  965SOL    HW2 2895   2.517   3.011   0.100  0.3679  0.7797 -0.5635
  966SOL     OW 2896   2.588   2.558   2.263  0.3004  0.0485 -0.9208
  966SOL    HW1 2897   2.658   2.630   2.288  0.8636 -0.0389 -2.6656
  966SOL    HW2 2898   2.500   2.601   2.234  1.1758  2.0634 -0.8748
  967SOL     OW 2899   2.785   2.832   2.493 -0.2792  0.0559 -0.4322
  967SOL    HW1 2900   2.828   2.759   2.436 -0.8459 -1.5495  2.2608
  967SOL    HW2 2901   2.856   2.902   2.525 -0.6038 -0.2834 -0.6444
  968SOL     OW 2902   1.918   1.067   2.614 -0.5146  0.0410 -0.1090
  968SOL    HW1 2903   1.836   1.106   2.559 -0.5607  1.0658 -0.9438
  968SOL    HW2 2904   1.946   0.972   2.578  0.7673 -4.5358 -1.1341
  969SOL     OW 2905   2.799   2.516   1.112  0.4789  0.5268 -0.7609
  969SOL    HW1 2906   2.790   2.507   1.010  0.7506 -1.2829  1.5528
  969SOL    HW2 2907   2.831   2.425   1.153  2.1795 -0.1783 -0.0186
  970SOL     OW 2908   1.031   2.093   1.798 -0.0494  0.1339 -0.4305
  970SOL    HW1 2909   0.955   2.107   1.728  0.7535 -2.2797 -0.9482
  970SOL    HW2 2910   1.009   2.139   1.888  0.4667  3.0532 -2.1533
  971SOL     OW 2911   2.954   2.059   2.006 -0.6324  0.2713 -0.6479
  971SOL    HW1 2912   2.921   2.150   2.028 -2.6795 -2.2187 -4.5110
  971SOL    HW2 2913   2.987   2.060   1.910 -1.5358  0.7736  0.7760
  972SOL     OW 2914   1.966   2.486   0.231  0.0480 -0.3386  0.0544
  972SOL    HW1 2915   1.963   2.413   0.163  1.8369  0.3309  0.8081
  972SOL    HW2 2916   1.983   2.457   0.332  0.1283 -2.7727  0.4332
  973SOL     OW 2917   1.263   1.054   1.909 -0.2779 -0.2462 -0.3968
  973SOL    HW1 2918   1.188   1.032   1.843  1.1045  1.9009 -1.3948
  973SOL    HW2 2919   1.252   1.150   1.949  0.0101  0.8847 -0.2626
  974SOL     OW 2920   1.602   0.569   1.975 -0.4205  0.0758 -0.2182
  974SOL    HW1 2921   1.683   0.618   1.926  1.6274 -3.4530  0.7229
  974SOL    HW2 2922   1.512   0.620   1.965  0.8645 -3.1173  0.6631
  975SOL     OW 2923   2.370   3.059   0.026 -0.3197 -0.1291  0.5582
  975SOL    HW1 2924   2.303   2.982   0.042  1.3898 -0.2227  0.5740
  975SOL    HW2 2925   2.385   3.070  -0.076  0.1718  2.0754  0.4645
  976SOL     OW 2926   1.901   2.860   2.342  0.0520  0.0792 -0.3401
  976SOL    HW1 2927   1.860   2.791   2.275 -0.2229  0.5238  2.4316
  976SOL    HW2 2928   1.936   2.815   2.428  1.6844  0.9079  0.1513
  977SOL     OW 2929   0.475   0.674   1.061 -0.1023 -0.1582 -0.5122
  977SOL    HW1 2930   0.415   0.667   0.976  0.7121 -1.2156  3.3583
  977SOL    HW2 2931   0.541   0.755   1.065 -0.0080 -3.4642  2.7180
   3.10000   3.10000   3.10000
