1000 SPC/Fw water molecules t=   1.26000 step= 1260
 2931
    1SOL     OW    1   2.551   0.345   2.607  0.2263  0.2007 -0.0183
    1SOL    HW1    2   2.534   0.244   2.608 -1.1874 -1.0959 -1.8846
    1SOL    HW2    3   2.575   0.376   2.705 -0.2181 -0.7388  0.9725
    2SOL     OW    4   2.762   2.986   1.373 -0.1965  0.2636 -0.2460
    2SOL    HW1    5   2.846   3.001   1.314 -0.7610 -0.6583  1.7102
    2SOL    HW2    6   2.744   3.064   1.434 -0.1785 -1.1943 -0.5879
    3SOL     OW    7   2.617   2.580   0.431 -0.4209 -0.8391 -0.4207
    3SOL    HW1    8   2.592   2.478   0.431 -1.8810  0.4381  1.4095
    3SOL    HW2    9   2.673   2.606   0.516  0.8731  1.0649  0.2465
    4SOL     OW   10   1.253   1.523   2.385 -0.1553 -0.1617  0.7702
    4SOL    HW1   11   1.179   1.551   2.320 -1.2073 -0.5595  0.2908
    4SOL    HW2   12   1.268   1.421   2.384 -0.4894  2.2170  0.4237
    5SOL     OW   13   1.181   1.579   2.961  0.3830 -0.0895 -1.1056
    5SOL    HW1   14   1.246   1.661   2.970 -0.5164 -0.1165 -1.2927
    5SOL    HW2   15   1.084   1.607   2.973 -0.5976  0.2900 -0.3205
    6SOL     OW   16   0.273   1.822   3.033  0.4028  0.1860  0.0519
    6SOL    HW1   17   0.177   1.823   3.061  0.2560  2.5871  0.3618
    6SOL    HW2   18   0.330   1.817   3.121  2.1578  0.5024  3.6387
    7SOL     OW   19   2.526   0.834   1.067 -0.2440 -0.1898 -0.0978
    7SOL    HW1   20   2.434   0.807   1.109  0.4575 -1.9485  0.1406
    7SOL    HW2   21   2.537   0.809   0.965 -0.5136  1.9559 -2.0995
    8SOL     OW   22   0.418   0.605   1.464 -0.7871  0.1659  0.7404
    8SOL    HW1   23   0.512   0.563   1.495  1.1502 -0.7031 -0.0542
    8SOL    HW2   24   0.399   0.587   1.363 -1.4717  1.8121  0.1996
    9SOL     OW   25   1.173   0.839   2.417  0.2411  0.0595  0.4365
    9SOL    HW1   26   1.170   0.888   2.325  0.7179  0.8661  0.1859
    9SOL    HW2   27   1.125   0.751   2.417  1.9058  0.7969  0.9537
   10SOL     OW   28   0.657   1.369   1.304  0.2682  0.4366  0.0530
   10SOL    HW1   29   0.574   1.384   1.234 -0.1289 -1.4229 -1.3262
   10SOL    HW2   30   0.726   1.446   1.306  0.1952 -0.4380  3.3343
   11SOL     OW   31   2.310   2.821   0.819 -0.0373  0.6421 -0.1694
   11SOL    HW1   32   2.285   2.834   0.915  1.3040 -0.9570 -2.2477
   11SOL    HW2   33   2.407   2.774   0.813 -1.5323 -2.0409  1.6012
   12SOL     OW   34   1.484   0.811   0.438  0.0663 -0.2727 -0.1222
   12SOL    HW1   35   1.444   0.863   0.359  0.9814  1.9562 -0.9765
   12SOL    HW2   36   1.546   0.733   0.408  1.1961 -0.1389 -0.9592
   13SOL     OW   37   2.422   0.740   1.752 -0.4977 -0.2076  0.1672
   13SOL    HW1   38   2.376   0.671   1.817  2.2679  1.3202  2.5924
   13SOL    HW2   39   2.431   0.704   1.652 -0.3364  1.5916 -3.3071
   14SOL     OW   40   1.893   0.064   0.670  0.5771 -0.0136 -0.6480
   14SOL    HW1   41   1.796   0.074   0.635 -0.1479 -0.9350  0.5033
   14SOL    HW2   42   1.914  -0.024   0.723  2.9465 -0.2534 -0.2026
   15SOL     OW   43   1.892   2.100   2.681  0.4751  0.2446 -0.5096
   15SOL    HW1   44   1.832   2.175   2.720  0.1260 -2.1102 -0.4054
   15SOL    HW2   45   1.858   2.007   2.708  0.0714 -0.0665 -0.5810
   16SOL     OW   46   1.589   1.701   3.002  0.4037  0.1331 -0.0373
   16SOL    HW1   47   1.583   1.602   3.026  0.9024  1.9422 -0.9447
   16SOL    HW2   48   1.687   1.737   3.006 -1.4495 -2.1124  1.3145
   17SOL     OW   49   0.116   0.461   0.170  0.3774 -0.1774  0.6273
   17SOL    HW1   50   0.187   0.493   0.097 -0.6779 -3.4171 -1.5428
   17SOL    HW2   51   0.019   0.488   0.139  2.7845 -1.2872 -0.4390
   18SOL     OW   52   0.934   2.948   2.159 -0.0902 -0.1664  0.0256
   18SOL    HW1   53   0.853   2.876   2.165  1.2779 -1.4827 -0.9983
   18SOL    HW2   54   0.957   2.977   2.065 -2.2890 -2.6172  0.9659
   19SOL     OW   55   0.495   0.839   1.893  0.5611 -0.0696  0.0737
   19SOL    HW1   56   0.519   0.814   1.991 -1.8405 -2.0708 -0.4703
   19SOL    HW2   57   0.550   0.922   1.852 -0.0585  1.4548 -0.0727
   20SOL     OW   58   0.206   2.821   0.854  0.3561 -0.0890 -0.3692
   20SOL    HW1   59   0.162   2.908   0.820  0.3309 -1.2774 -0.3080
   20SOL    HW2   60   0.236   2.758   0.776 -0.2166  1.8995  0.0826
   21SOL     OW   61   2.738   0.252   1.957 -0.3176 -0.0313 -0.3735
   21SOL    HW1   62   2.691   0.190   1.886 -0.7646  1.0013 -0.4706
   21SOL    HW2   63   2.824   0.209   1.991 -1.1079 -0.8419 -2.1314
   22SOL     OW   64   2.333   0.192   0.140  0.3283 -0.1704 -0.5878
   22SOL    HW1   65   2.330   0.099   0.084 -2.7670 -0.1398 -0.2870
   22SOL    HW2   66   2.300   0.275   0.084  0.2730 -2.6710  0.8605
   23SOL     OW   67   2.818   0.569   0.676  0.0344 -0.5574 -0.1768
   23SOL    HW1   68   2.800   0.486   0.612  1.2629  0.2284 -1.0021
   23SOL    HW2   69   2.817   0.664   0.631 -0.4642 -0.7694  0.2534
   24SOL     OW   70   0.244   1.915   0.463  0.8398 -0.3010  0.4306
   24SOL    HW1   71   0.213   2.005   0.412 -1.2019  0.2720  0.0149
   24SOL    HW2   72   0.347   1.905   0.461 -1.4351 -1.8212  1.7831
   25SOL     OW   73   2.217   0.629   0.190  0.0204  0.1792 -0.5793
   25SOL    HW1   74   2.242   0.643   0.090  1.1654  2.5211 -2.0951
   25SOL    HW2   75   2.269   0.552   0.239  0.2101  1.8735 -0.5649
   26SOL     OW   76   2.462   2.149   2.057 -0.5436  0.0661  0.4890
   26SOL    HW1   77   2.543   2.208   2.090 -1.6806 -1.1330  3.2784
   26SOL    HW2   78   2.488   2.068   1.993  0.0892 -0.9262  3.7644
   27SOL     OW   79   0.654   2.909   0.288 -0.1005  0.1124 -0.0537
   27SOL    HW1   80   0.741   2.967   0.265 -0.0751  2.7074  0.3031
   27SOL    HW2   81   0.599   2.878   0.206 -0.6615  0.0510 -0.0575
   28SOL     OW   82   1.565   0.135   0.312 -0.2652 -0.5689  0.3769
   28SOL    HW1   83   1.614   0.094   0.231 -2.1048 -0.9256 -0.4744
   28SOL    HW2   84   1.597   0.232   0.337  1.2744  0.9552  0.3971
   29SOL     OW   85   1.956   0.564   0.287 -0.8232 -0.1502 -0.3260
   29SOL    HW1   86   1.892   0.604   0.361  1.0022  1.9899  1.9352
   29SOL    HW2   87   2.053   0.609   0.284  1.9485 -1.6281  3.6944
   30SOL     OW   88   0.191   2.079   0.894  0.0644 -0.1074 -0.2030
   30SOL    HW1   89   0.137   2.011   0.839 -0.5102  2.2152 -2.4364
   30SOL    HW2   90   0.135   2.158   0.930 -2.4309 -0.2889 -0.9020
   31SOL     OW   91   2.120   0.092   2.394  0.6327  0.4811  0.6006
   31SOL    HW1   92   2.088   0.081   2.489  0.7587  1.6996  0.4768
   31SOL    HW2   93   2.060   0.047   2.322 -0.9040 -1.4664  0.2627
   32SOL     OW   94   2.944   0.046   0.246 -0.3738  0.2984  0.4547
   32SOL    HW1   95   2.926  -0.051   0.273  0.1249  0.0191 -0.6495
   32SOL    HW2   96   3.039   0.077   0.284 -2.1746  0.4191  0.0915
   33SOL     OW   97   0.877   0.311   0.610  0.2985 -0.3247 -0.1525
   33SOL    HW1   98   0.898   0.216   0.567  1.1656 -2.5323 -0.7025
   33SOL    HW2   99   0.962   0.371   0.614 -1.7345  0.3719 -0.5635
   34SOL     OW  100   0.335   2.715   1.115  0.0457  0.3398  0.0625
   34SOL    HW1  101   0.280   2.767   1.042 -0.2246 -0.4601 -0.7091
   34SOL    HW2  102   0.434   2.747   1.116 -1.1427 -0.5408 -2.8085
   35SOL     OW  103   0.007   0.126   1.874 -0.0462 -0.4139 -0.7495
   35SOL    HW1  104   0.069   0.043   1.885  0.5529 -0.1310 -1.3402
   35SOL    HW2  105  -0.040   0.117   1.783  0.4939  0.0993  1.2245
   36SOL     OW  106   1.862   1.234   1.564 -0.4417  0.4268  0.1159
   36SOL    HW1  107   1.919   1.148   1.558  0.8860 -0.7729 -0.6808
   36SOL    HW2  108   1.916   1.311   1.518  3.4207 -2.3936  2.1776
   37SOL     OW  109   1.199   0.233   0.949  0.0682 -0.4292  0.0302
   37SOL    HW1  110   1.253   0.316   0.990  0.1587  2.6301  2.0961
   37SOL    HW2  111   1.259   0.146   0.951 -0.8012 -1.1850  0.2742
   38SOL     OW  112   1.160   2.851   2.358  0.0811  0.3198 -1.1933
   38SOL    HW1  113   1.102   2.780   2.406 -2.5624  1.7642  3.7441
   38SOL    HW2  114   1.108   2.940   2.332  0.0116  0.3584  2.3112
   39SOL     OW  115   2.334   1.366   3.027  0.4772 -0.4985  0.0738
   39SOL    HW1  116   2.396   1.282   3.024  0.6605  1.6689 -0.2050
   39SOL    HW2  117   2.300   1.388   3.122  1.3374 -2.0185 -2.0484
   40SOL     OW  118   1.981   2.468   2.619  0.1729 -0.0925 -0.6153
   40SOL    HW1  119   1.991   2.564   2.585 -0.7146 -1.7780 -1.8038
   40SOL    HW2  120   1.949   2.400   2.544 -0.8536 -1.1569 -0.3379
   41SOL     OW  121   3.026   0.645   2.814  0.2524 -0.0816 -0.2512
   41SOL    HW1  122   2.931   0.693   2.811 -0.0046  2.1641  1.1788
   41SOL    HW2  123   3.026   0.556   2.757  0.0590  1.0061 -0.1895
   42SOL     OW  124   1.737   1.797   0.501  0.4514 -0.1248  0.7497
   42SOL    HW1  125   1.673   1.716   0.494 -1.9912 -1.4972 -0.7119
   42SOL    HW2  126   1.762   1.839   0.409 -0.4450 -0.0104  2.4156
   43SOL     OW  127   0.452   1.663   1.199  0.3622 -0.3590  0.5664
   43SOL    HW1  128   0.433   1.567   1.174  1.5650 -1.9034  2.3064
   43SOL    HW2  129   0.414   1.690   1.292  0.5719 -1.5722 -0.9756
   44SOL     OW  130   1.696   2.360   3.010 -0.0460  0.6591  0.0570
   44SOL    HW1  131   1.600   2.406   3.014  1.2091  0.2596 -2.8565
   44SOL    HW2  132   1.733   2.367   2.913 -0.6405  0.6115  1.1643
   45SOL     OW  133   0.348   1.898   2.577  0.4144  0.3527 -0.1090
   45SOL    HW1  134   0.322   1.886   2.479  1.6518  0.4791  0.5323
   45SOL    HW2  135   0.417   1.827   2.609 -1.5770 -0.7908 -1.9786
   46SOL     OW  136   1.274   0.644   0.140  0.6057  0.3656 -0.1331
   46SOL    HW1  137   1.273   0.738   0.098 -0.6518  0.1998  0.2372
   46SOL    HW2  138   1.180   0.610   0.173  0.8519  0.0360  0.0802
   47SOL     OW  139   0.195   2.495   1.588 -0.4549 -0.2458  0.2072
   47SOL    HW1  140   0.199   2.392   1.594  0.9070  0.0454 -3.8181
   47SOL    HW2  141   0.198   2.524   1.488  1.2697 -0.7973 -1.9285
   48SOL     OW  142   2.638   0.610   0.140  0.2752  0.0939  0.1029
   48SOL    HW1  143   2.625   0.623   0.244 -0.5039 -0.0056 -2.0211
   48SOL    HW2  144   2.729   0.659   0.108  1.1927  0.3916  0.5973
   49SOL     OW  145   0.315   0.762   1.665  0.0374  0.2771  0.8286
   49SOL    HW1  146   0.387   0.758   1.740  0.5244  1.4657  0.5665
   49SOL    HW2  147   0.363   0.728   1.577  0.2345  1.3212  1.6297
   50SOL     OW  148   1.697   1.114   0.317  0.2060 -0.0191 -0.0378
   50SOL    HW1  149   1.737   1.021   0.296 -2.2029  2.4842  1.0594
   50SOL    HW2  150   1.656   1.124   0.411  1.5548  1.1225 -1.8033
   51SOL     OW  151   2.997   1.730   0.249  0.1482 -0.0836 -0.3562
   51SOL    HW1  152   2.919   1.661   0.245  2.6340 -0.2884  0.8507
   51SOL    HW2  153   3.071   1.706   0.318 -0.5166  1.3598  2.4310
   52SOL     OW  154   0.806   2.149   0.623 -0.0509  0.3330  0.1048
   52SOL    HW1  155   0.818   2.228   0.691 -1.1296 -0.7650 -1.9705
   52SOL    HW2  156   0.849   2.062   0.659 -0.5185 -0.3285  2.5354
   53SOL     OW  157   0.185   0.457   1.575 -0.1168  0.2091 -0.4050
   53SOL    HW1  158   0.248   0.531   1.547  0.3155 -1.7031 -1.2204
   53SOL    HW2  159   0.088   0.490   1.575  1.6710 -0.2111 -1.4118
   54SOL     OW  160   1.809   0.499   3.050  0.4543 -0.2126  0.4137
   54SOL    HW1  161   1.860   0.431   3.116  1.8695 -1.4664  0.4319
   54SOL    HW2  162   1.706   0.497   3.072  0.9036  1.0335 -0.1828
   55SOL     OW  163   0.766   2.875   0.709  0.0011  0.2127  0.6008
   55SOL    HW1  164   0.731   2.973   0.730 -4.0961  1.4610  1.4424
   55SOL    HW2  165   0.855   2.870   0.654  0.3635 -0.1790 -1.6034
   56SOL     OW  166   0.569   1.609   0.033 -0.0094  0.9108  0.0779
   56SOL    HW1  167   0.491   1.659   0.083 -1.6607 -0.9800  0.0801
   56SOL    HW2  168   0.533   1.517  -0.008 -0.7991  0.7744 -0.0994
   57SOL     OW  169   1.747   2.515   2.380 -0.1135 -0.0785  0.5200
   57SOL    HW1  170   1.807   2.435   2.368 -0.4900  0.0578  1.9383
   57SOL    HW2  171   1.672   2.500   2.448  3.3337  2.0603 -1.2474
   58SOL     OW  172   0.664   0.242   1.120 -0.1306 -0.6944  0.3554
   58SOL    HW1  173   0.580   0.261   1.176 -1.4568 -1.0206 -0.8295
   58SOL    HW2  174   0.685   0.142   1.094  1.4217 -2.1814 -1.5842
   59SOL     OW  175   0.404   2.371   2.737  0.8982  0.5279  0.4549
   59SOL    HW1  176   0.390   2.272   2.703 -0.9827 -1.1114  0.9997
   59SOL    HW2  177   0.452   2.364   2.826 -1.5514 -0.1626 -1.4110
   60SOL     OW  178   2.329   2.106   2.323  0.5191  0.1199  0.3479
   60SOL    HW1  179   2.408   2.123   2.255 -0.4766  1.9322  0.8738
   60SOL    HW2  180   2.334   2.165   2.410 -1.6024 -0.6840 -2.1257
   61SOL     OW  181   1.242   0.598   0.422 -0.6842  0.1581  0.2278
   61SOL    HW1  182   1.136   0.611   0.448  0.8614  1.9113  0.2953
   61SOL    HW2  183   1.266   0.627   0.325 -2.7522  1.2374 -0.9021
   62SOL     OW  184   2.723   1.718   2.868 -0.6327 -0.6360 -0.3588
   62SOL    HW1  185   2.715   1.798   2.804  1.1475 -0.6225  1.2902
   62SOL    HW2  186   2.823   1.684   2.865 -0.6789 -1.2482 -1.8338
   63SOL     OW  187   0.578   0.874   0.214 -0.0570  0.6363  0.0643
   63SOL    HW1  188   0.615   0.945   0.147  2.2966 -1.0744 -0.4610
   63SOL    HW2  189   0.632   0.868   0.304  1.2084  1.2084 -0.2557
   64SOL     OW  190   3.045   0.547   2.445 -1.0114  0.6348 -1.0155
   64SOL    HW1  191   2.953   0.589   2.482  0.5450 -1.4740  2.0061
   64SOL    HW2  192   3.080   0.578   2.351 -0.2385 -0.6618 -1.3528
   65SOL     OW  193   0.224   1.470   0.675 -0.1153 -1.0149  0.3688
   65SOL    HW1  194   0.234   1.545   0.753 -1.3514  1.9222 -0.3350
   65SOL    HW2  195   0.301   1.445   0.616 -1.0292 -1.1491 -1.7687
   66SOL     OW  196   2.508   0.388   0.537 -0.4681  0.2093 -0.6751
   66SOL    HW1  197   2.604   0.357   0.513  3.1313 -1.1001 -0.9669
   66SOL    HW2  198   2.462   0.325   0.607  1.7829  0.6399  0.6563
   67SOL     OW  199   0.618   2.469   1.416  0.1462  0.4477 -0.2430
   67SOL    HW1  200   0.701   2.433   1.473  0.6844 -2.5782 -0.4532
   67SOL    HW2  201   0.538   2.404   1.417 -1.5190  2.6030  3.0193
   68SOL     OW  202   0.983   1.011   2.529  0.6010 -0.3320 -0.1767
   68SOL    HW1  203   1.072   0.967   2.502 -1.5415  4.4322 -0.4245
   68SOL    HW2  204   0.926   1.040   2.445  2.6495 -1.0352  1.7715
   69SOL     OW  205   0.739   2.769   2.214  0.6679 -0.4055  0.3263
   69SOL    HW1  206   0.764   2.675   2.180  0.3309  2.4309 -3.0063
   69SOL    HW2  207   0.639   2.783   2.229 -0.7642  1.6998  1.7953
   70SOL     OW  208   0.456   0.122   2.560  0.1996  0.0829 -0.7403
   70SOL    HW1  209   0.380   0.107   2.628 -2.0652  0.0067  0.3068
   70SOL    HW2  210   0.539   0.055   2.573  0.3417 -2.4008 -1.8233
   71SOL     OW  211   1.134   1.791   0.360  0.8914 -0.1008 -0.7342
   71SOL    HW1  212   1.088   1.711   0.407  0.2380 -2.1398 -0.7887
   71SOL    HW2  213   1.074   1.823   0.278  0.9032  1.8282  2.7213
   72SOL     OW  214   1.820   0.169   2.171 -0.3817  0.4632 -0.0531
   72SOL    HW1  215   1.873   0.259   2.188 -3.9076  0.8869 -1.9247
   72SOL    HW2  216   1.884   0.088   2.143  0.1632 -4.9242  0.7247
   73SOL     OW  217   2.806   2.147   2.359  0.0661 -0.2825  0.0244
   73SOL    HW1  218   2.810   2.041   2.348 -1.9620 -1.7107 -0.5594
   73SOL    HW2  219   2.865   2.184   2.438 -2.5795 -3.0454  1.8846
   74SOL     OW  220   2.635   2.863   2.192  0.1621  0.0420  0.2047
   74SOL    HW1  221   2.603   2.853   2.287  1.3658  1.3212 -1.7848
   74SOL    HW2  222   2.733   2.909   2.178  2.0999 -0.6644 -1.6640
   75SOL     OW  223   0.967   0.854   1.069 -0.5050  0.0322  0.2560
   75SOL    HW1  224   0.893   0.900   1.017 -0.9318  1.9876  1.4685
   75SOL    HW2  225   0.980   0.901   1.157 -0.8627  2.8938 -2.1982
   76SOL     OW  226   1.802   1.217   2.464  0.4942 -0.1523 -0.2039
   76SOL    HW1  227   1.699   1.210   2.486  1.1389  1.9467 -0.1997
   76SOL    HW2  228   1.838   1.317   2.469 -0.8592  0.5352 -0.4727
   77SOL     OW  229   2.947   0.917   1.031  0.0059 -0.3446  0.1673
   77SOL    HW1  230   2.930   0.817   1.017 -1.8234 -0.1426  1.4408
   77SOL    HW2  231   3.024   0.927   1.101 -1.9273 -2.5935  1.6285
   78SOL     OW  232   1.991   1.431   1.442  0.2910 -0.6137  0.0490
   78SOL    HW1  233   2.093   1.419   1.442  0.1988 -0.1218 -1.0654
   78SOL    HW2  234   1.943   1.461   1.354 -0.2412 -2.2104 -0.3129
   79SOL     OW  235   0.620   1.428   0.797  0.4500  0.2772  0.3736
   79SOL    HW1  236   0.517   1.432   0.819 -2.6987 -1.6555 -0.7629
   79SOL    HW2  237   0.644   1.355   0.729 -3.3453 -1.7194  1.2389
   80SOL     OW  238   0.661   0.466   1.536  0.0322  0.3930 -0.2573
   80SOL    HW1  239   0.720   0.536   1.485  1.9991  0.8088 -1.2956
   80SOL    HW2  240   0.681   0.370   1.507  0.0313 -0.4679 -1.3283
   81SOL     OW  241   0.999   1.304   2.608 -0.0932  0.5931  0.2897
   81SOL    HW1  242   1.006   1.201   2.598  0.5275 -1.3648 -1.4991
   81SOL    HW2  243   0.929   1.342   2.542 -0.2513  0.0359 -1.8784
   82SOL     OW  244   0.945   2.929   1.498  0.8437 -1.0419  0.4425
   82SOL    HW1  245   0.851   2.926   1.454 -0.3236 -3.6868  0.7258
   82SOL    HW2  246   1.020   2.929   1.427  2.2713 -1.2080 -0.9158
   83SOL     OW  247   2.588   2.372   0.859  0.1744 -0.1803  0.1698
   83SOL    HW1  248   2.554   2.362   0.953 -0.3821 -1.0315  0.0731
   83SOL    HW2  249   2.515   2.349   0.784 -1.6191  0.8548 -2.9447
   84SOL     OW  250   0.728   3.095   2.391 -0.4112  0.5331 -0.0995
   84SOL    HW1  251   0.676   3.049   2.467 -1.2242  2.5103 -1.1898
   84SOL    HW2  252   0.811   3.040   2.354  2.2987  0.1864 -1.4908
   85SOL     OW  253   0.254   1.614   1.454  0.1149 -0.2657 -0.3768
   85SOL    HW1  254   0.218   1.715   1.443 -0.0508 -1.2897  1.6745
   85SOL    HW2  255   0.318   1.599   1.536 -0.7518  1.1226  0.2640
   86SOL     OW  256   0.453   1.081   1.488 -0.3695 -0.5385  0.4526
   86SOL    HW1  257   0.394   1.016   1.436  0.6522  0.4946 -1.1528
   86SOL    HW2  258   0.547   1.045   1.491 -0.1821 -2.0252 -0.1812
   87SOL     OW  259   1.656   0.681   0.285  0.2064  0.4279  0.0419
   87SOL    HW1  260   1.707   0.763   0.259 -0.6285  1.2133  1.8359
   87SOL    HW2  261   1.640   0.622   0.201  0.3307 -1.6087 -1.5446
   88SOL     OW  262   1.556   1.342   0.268 -0.9464 -0.0915 -0.0171
   88SOL    HW1  263   1.593   1.243   0.267 -0.5667 -0.8075  1.1828
   88SOL    HW2  264   1.450   1.343   0.278 -2.5032  1.5757 -1.2542
   89SOL     OW  265   3.087   0.362   0.606 -0.3175 -1.1748  0.0481
   89SOL    HW1  266   3.147   0.282   0.582 -0.6434 -0.2214  0.1283
   89SOL    HW2  267   2.991   0.350   0.587  0.0757 -2.1045  1.2350
   90SOL     OW  268   0.847   1.563   0.102 -0.0509  0.1228  0.3310
   90SOL    HW1  269   0.886   1.485   0.042  0.0191  0.3537 -0.0929
   90SOL    HW2  270   0.749   1.584   0.072 -0.7173 -0.0597 -2.3489
   91SOL     OW  271   1.208   1.452   1.770 -0.4518 -0.1219 -0.5382
   91SOL    HW1  272   1.175   1.545   1.806  1.8779  0.0659 -1.9359
   91SOL    HW2  273   1.313   1.447   1.764  0.9444  1.5097  2.3970
   92SOL     OW  274   0.014   0.947   1.248  0.0058  0.1601  0.0389
   92SOL    HW1  275   0.062   1.029   1.207  0.7754 -1.8200 -1.6500
   92SOL    HW2  276   0.029   0.955   1.349  0.9379  0.3515 -1.5879
   93SOL     OW  277   3.065   2.703   0.054  0.6113 -0.3157 -0.1465
   93SOL    HW1  278   3.022   2.684  -0.036  1.1386 -2.1995  0.9341
   93SOL    HW2  279   3.078   2.613   0.104 -2.8673  0.5955 -0.0006
   94SOL     OW  280   1.492   1.449   1.784  0.1257 -0.1100 -0.1259
   94SOL    HW1  281   1.565   1.376   1.797  0.8301  0.3564 -1.5186
   94SOL    HW2  282   1.543   1.540   1.784 -0.0171 -0.0029 -0.0969
   95SOL     OW  283   1.443   2.507   2.969 -0.9029 -0.1975 -0.1551
   95SOL    HW1  284   1.360   2.565   3.002 -1.6836  2.2681  0.0478
   95SOL    HW2  285   1.415   2.425   2.912 -0.8951  1.0752  3.1715
   96SOL     OW  286   0.562   2.097   1.315  0.1991 -0.1909 -0.0196
   96SOL    HW1  287   0.521   2.036   1.243 -0.0711 -1.3737 -0.8996
   96SOL    HW2  288   0.637   2.048   1.372  0.7001  0.4190  1.2208
   97SOL     OW  289   0.306   1.599   2.461 -0.2727  0.2956 -0.1620
   97SOL    HW1  290   0.263   1.666   2.397 -0.9715 -0.5946  1.6577
   97SOL    HW2  291   0.267   1.616   2.558 -0.4902 -0.7069  1.6069
   98SOL     OW  292   2.136   1.595   1.215  0.5475 -0.1269 -0.2592
   98SOL    HW1  293   2.049   1.545   1.185 -0.1347 -0.6677 -0.9192
   98SOL    HW2  294   2.218   1.561   1.160  3.5778 -0.2482 -0.2767
   99SOL     OW  295   2.575   2.081   1.280 -0.0635  0.4436 -0.4304
   99SOL    HW1  296   2.576   2.115   1.382  0.1050  0.9620  1.0052
   99SOL    HW2  297   2.523   1.992   1.274 -0.0970  0.0675  0.4868
  100SOL     OW  298   2.285   0.408   2.088  0.5183  0.0740  0.3442
  100SOL    HW1  299   2.249   0.422   2.188  1.6629  0.8349  3.4182
  100SOL    HW2  300   2.390   0.401   2.085  1.5953 -1.8778 -2.9356
  101SOL     OW  301   0.411   1.515   0.464 -0.5921  0.1839  0.9400
  101SOL    HW1  302   0.435   1.588   0.530 -2.2556  0.6078 -2.4381
  101SOL    HW2  303   0.491   1.496   0.402 -0.4099  2.8570 -0.9712
  102SOL     OW  304   2.287   1.072   0.840  0.1627 -0.6151 -0.0795
  102SOL    HW1  305   2.216   1.009   0.801  0.4675  2.2183  1.2709
  102SOL    HW2  306   2.381   1.063   0.792 -1.3334  1.0996  0.7907
  103SOL     OW  307   2.211   0.128   0.387  0.0161  0.2951 -0.1510
  103SOL    HW1  308   2.253   0.157   0.294 -0.0053  2.0548  1.1729
  103SOL    HW2  309   2.281   0.072   0.435  0.3232 -0.4120 -1.8782
  104SOL     OW  310   0.053   1.905   2.100  0.0923  0.1977 -0.2280
  104SOL    HW1  311   0.091   1.850   2.021 -0.9929 -0.2692  2.9035
  104SOL    HW2  312  -0.051   1.906   2.101 -0.6343 -0.9606 -2.3790
  105SOL     OW  313   1.250   2.119   0.818 -0.3694 -0.1936  0.6501
  105SOL    HW1  314   1.197   2.167   0.743 -1.0991 -0.2165 -1.0418
  105SOL    HW2  315   1.283   2.025   0.792  0.7794 -0.8305 -0.4845
  106SOL     OW  316   2.092   0.356   1.444 -0.5670  0.1775 -0.1260
  106SOL    HW1  317   2.048   0.265   1.458 -2.2677  1.8093 -2.3744
  106SOL    HW2  318   2.090   0.409   1.530 -0.8612 -2.9397 -0.0951
  107SOL     OW  319   1.940   2.947   1.191  0.5626  0.1031 -0.5072
  107SOL    HW1  320   1.879   3.026   1.232 -0.8221 -0.1887 -1.0600
  107SOL    HW2  321   1.887   2.861   1.170  2.6935 -0.6260 -2.2403
  108SOL     OW  322   0.856   2.819   1.209 -0.0914  0.3952 -0.5248
  108SOL    HW1  323   0.884   2.729   1.251  1.7784  0.5111 -5.1744
  108SOL    HW2  324   0.942   2.869   1.181 -1.3896  1.4552 -0.7790
  109SOL     OW  325   2.134   0.143   0.763  0.2162 -0.0710  0.3049
  109SOL    HW1  326   2.047   0.125   0.707 -0.3003  1.2206  0.3412
  109SOL    HW2  327   2.125   0.111   0.863  1.1421 -0.6827 -0.2226
  110SOL     OW  328   0.460   2.796   2.764  0.7926 -0.2119 -0.0161
  110SOL    HW1  329   0.445   2.798   2.657 -0.9613  0.7420 -3.5195
  110SOL    HW2  330   0.507   2.713   2.799 -0.4290  0.5844 -0.6799
  111SOL     OW  331   1.273   0.478   2.327  0.1265  0.5125  0.4687
  111SOL    HW1  332   1.196   0.528   2.374  0.7469  0.1017  0.1805
  111SOL    HW2  333   1.330   0.419   2.396  1.0123 -2.6244  3.0419
  112SOL     OW  334   1.763   0.453   1.478  0.2317 -0.1309 -0.0261
  112SOL    HW1  335   1.723   0.451   1.378 -1.1313 -1.1310  0.6808
  112SOL    HW2  336   1.704   0.405   1.548  0.3274 -0.5229 -2.0034
  113SOL     OW  337   2.360   1.681   1.727  0.2467  0.9482  0.2515
  113SOL    HW1  338   2.422   1.600   1.730 -0.7368 -0.9979 -0.7952
  113SOL    HW2  339   2.400   1.764   1.772  3.1245  1.9543 -0.3091
  114SOL     OW  340   0.320   0.537   1.214 -0.4550 -0.6873 -0.3003
  114SOL    HW1  341   0.373   0.585   1.136  0.9459 -0.7764  0.9147
  114SOL    HW2  342   0.224   0.569   1.227  4.1828 -0.0726 -0.4179
  115SOL     OW  343   2.806   1.575   1.286  0.1297 -0.1998 -0.0576
  115SOL    HW1  344   2.790   1.468   1.305 -0.6625 -2.6589  1.8479
  115SOL    HW2  345   2.893   1.587   1.230  1.1033 -0.9142 -1.6779
  116SOL     OW  346   1.851   0.996   0.647  0.1382 -0.5265  0.2424
  116SOL    HW1  347   1.766   0.947   0.666  2.3677 -1.7825  2.6694
  116SOL    HW2  348   1.846   1.096   0.649  3.2576 -0.2375  2.4934
  117SOL     OW  349   1.174   0.365   0.557 -0.0726 -0.0357 -0.4529
  117SOL    HW1  350   1.245   0.440   0.534  2.7472  2.0343 -0.6406
  117SOL    HW2  351   1.134   0.319   0.474  1.3694 -0.4125  2.0852
  118SOL     OW  352   1.065   1.207   1.095  0.3340  0.0709 -0.2265
  118SOL    HW1  353   1.023   1.148   1.168 -1.2223 -1.2928  0.3274
  118SOL    HW2  354   1.063   1.309   1.110 -1.1003  2.1916 -0.8408
  119SOL     OW  355   1.842   1.598   2.199  0.4749 -0.1721  0.0275
  119SOL    HW1  356   1.803   1.687   2.157  1.1516  2.5146  0.0129
  119SOL    HW2  357   1.933   1.570   2.152  1.2744  0.2778  0.9951
  120SOL     OW  358   2.895   2.821   0.234  0.0697 -0.3445  0.5147
  120SOL    HW1  359   2.963   2.777   0.163  0.9612 -1.2779  0.0800
  120SOL    HW2  360   2.801   2.770   0.235 -0.2708 -1.5832 -2.4257
  121SOL     OW  361   1.869   0.713   2.166 -0.3256 -0.4993 -0.3593
  121SOL    HW1  362   1.910   0.790   2.108 -1.3601  1.1633  2.4382
  121SOL    HW2  363   1.913   0.619   2.150  2.8325  1.4332 -3.5605
  122SOL     OW  364   2.648   2.555   1.349 -0.5503 -0.3513  0.1073
  122SOL    HW1  365   2.645   2.522   1.251  1.5582 -3.8646  1.5231
  122SOL    HW2  366   2.585   2.495   1.408  0.3718  1.8230  0.5914
  123SOL     OW  367   1.728   0.120   1.712  0.3118  0.7207  0.2026
  123SOL    HW1  368   1.727   0.049   1.639  0.2853 -0.7145 -2.6651
  123SOL    HW2  369   1.826   0.137   1.755  2.3937  1.0054  1.2480
  124SOL     OW  370   3.086   0.455   1.082 -0.4067  0.5391  0.1797
  124SOL    HW1  371   2.989   0.493   1.106 -1.8901  0.3881 -1.2937
  124SOL    HW2  372   3.117   0.491   0.990 -1.4695  1.5297 -1.9261
  125SOL     OW  373   0.909   1.924   0.768 -0.0352 -0.3468  0.0969
  125SOL    HW1  374   0.992   1.858   0.790 -0.6032  0.4909  2.7446
  125SOL    HW2  375   0.826   1.903   0.822 -1.0120  0.1123 -0.9356
  126SOL     OW  376   1.901   2.291   2.403  1.1462 -0.0171 -0.1358
  126SOL    HW1  377   1.981   2.282   2.339 -1.0976  0.1266  0.9412
  126SOL    HW2  378   1.845   2.206   2.426  1.1396  1.1995  1.9585
  127SOL     OW  379   0.904   0.956   0.197 -0.0527  0.3874  0.2039
  127SOL    HW1  380   0.949   0.994   0.281 -1.4649  0.5706 -2.1872
  127SOL    HW2  381   0.900   0.853   0.201 -1.1171  0.7900  0.4617
  128SOL     OW  382   0.956   0.258   1.426  0.9854  0.2466  0.4935
  128SOL    HW1  383   0.942   0.336   1.353  0.2707 -3.2969 -1.1834
  128SOL    HW2  384   0.902   0.175   1.394  3.2099  3.4993 -1.6593
  129SOL     OW  385   1.856   0.689   1.847  0.1947 -0.2799  0.3737
  129SOL    HW1  386   1.882   0.670   1.753 -0.0961  1.6237  0.8090
  129SOL    HW2  387   1.889   0.780   1.883 -0.8992 -1.6143  1.5204
  130SOL     OW  388   1.436   2.199   1.019 -0.4641  0.6851 -0.2834
  130SOL    HW1  389   1.368   2.176   0.942  0.1417  2.8468  1.6493
  130SOL    HW2  390   1.508   2.269   0.987  0.4846  0.7420  1.9512
  131SOL     OW  391   3.013   1.346   1.354  0.0332 -0.0362 -0.4299
  131SOL    HW1  392   2.983   1.266   1.418  2.1482 -1.7146 -0.0925
  131SOL    HW2  393   3.117   1.364   1.356  1.9425 -0.0761  2.8705
  132SOL     OW  394   2.039   2.383   0.481 -0.2321 -0.6935  0.4707
  132SOL    HW1  395   1.957   2.446   0.485 -0.5903  0.5926  1.1459
  132SOL    HW2  396   2.029   2.309   0.552  1.1757  2.5538 -0.0507
  133SOL     OW  397   1.751   2.348   2.748  0.0066 -0.1413  0.4977
  133SOL    HW1  398   1.680   2.398   2.693  1.4921 -0.9294  1.9985
  133SOL    HW2  399   1.848   2.378   2.722  0.5861 -4.7913  2.5761
  134SOL     OW  400   2.673   2.325   1.596  0.0066  0.4969 -0.5275
  134SOL    HW1  401   2.600   2.372   1.653  0.9561 -0.3648  2.5546
  134SOL    HW2  402   2.759   2.384   1.602  0.6174  1.6255  2.6551
  135SOL     OW  403   0.711   1.468   2.643 -0.4800 -0.1501 -0.3973
  135SOL    HW1  404   0.644   1.399   2.677  0.1040 -1.0300  0.7241
  135SOL    HW2  405   0.734   1.436   2.545 -0.8026 -0.0775  0.6970
  136SOL     OW  406   1.244   2.031   0.498 -0.8027 -0.2301 -0.5140
  136SOL    HW1  407   1.165   2.097   0.496 -1.9534 -2.3385  1.0061
  136SOL    HW2  408   1.217   1.931   0.484 -0.3189  0.1477  1.0049
  137SOL     OW  409   0.434   1.216   2.259 -0.0189  0.2613  0.3748
  137SOL    HW1  410   0.330   1.198   2.261  0.8225  2.8348 -0.8612
  137SOL    HW2  411   0.496   1.140   2.240 -1.9854 -0.2672 -2.1867
  138SOL     OW  412   2.488   1.511   0.283 -0.2653  0.6388  0.0956
  138SOL    HW1  413   2.410   1.443   0.262 -3.1385  0.5524 -0.7066
  138SOL    HW2  414   2.577   1.470   0.322  0.4049 -1.0835  3.7293
  139SOL     OW  415   1.887   2.630   1.495 -0.1887  0.0241 -0.0739
  139SOL    HW1  416   1.789   2.657   1.471  0.6828 -2.0556  1.0844
  139SOL    HW2  417   1.898   2.526   1.489  0.1042  1.6144  1.2178
  140SOL     OW  418   3.026   2.985   2.569  0.2314  0.4343  0.4796
  140SOL    HW1  419   3.072   2.895   2.576  1.2217  1.8612  1.6813
  140SOL    HW2  420   3.089   3.060   2.542 -1.9740 -0.4575  1.5897
  141SOL     OW  421   1.308   1.661   1.587  0.0245 -0.5977 -0.4671
  141SOL    HW1  422   1.241   1.742   1.592  0.1030 -0.7067 -0.1657
  141SOL    HW2  423   1.266   1.573   1.622  0.1367  0.5542 -0.2849
  142SOL     OW  424   1.532   0.590   2.273  0.2464  0.4840  0.3157
  142SOL    HW1  425   1.551   0.587   2.172  0.8974 -1.2093 -0.7915
  142SOL    HW2  426   1.433   0.563   2.287  0.4942 -1.2034 -1.7649
  143SOL     OW  427   2.785   0.878   0.526 -0.3205 -0.7416  0.5756
  143SOL    HW1  428   2.836   0.913   0.449 -0.0321 -0.4143  2.0792
  143SOL    HW2  429   2.831   0.903   0.618 -0.8970 -2.3547  3.4173
  144SOL     OW  430   2.879   1.152   1.515  0.2838  0.1864 -0.6699
  144SOL    HW1  431   2.863   1.174   1.616  0.7088 -0.7551 -0.2351
  144SOL    HW2  432   2.942   1.071   1.508 -1.3296  1.5511  1.4820
  145SOL     OW  433   0.977   1.826   0.118 -0.6077  0.4694  0.0157
  145SOL    HW1  434   1.027   1.818   0.030 -1.1167 -2.8324  2.4292
  145SOL    HW2  435   0.921   1.741   0.140 -0.3161  1.0069  2.3876
  146SOL     OW  436   2.445   0.680   1.476 -0.0502  0.0725 -0.1513
  146SOL    HW1  437   2.422   0.598   1.422  0.4255  0.6859  0.7605
  146SOL    HW2  438   2.391   0.761   1.445 -0.3934 -1.7881 -1.4508
  147SOL     OW  439   1.078   2.499   0.589  0.2312 -0.6720 -0.0344
  147SOL    HW1  440   1.042   2.539   0.504  1.3902 -2.2993  1.2853
  147SOL    HW2  441   1.179   2.477   0.580  0.6837 -2.2274 -1.8965
  148SOL     OW  442   1.636   1.432   3.097  0.3422  0.1942 -0.0079
  148SOL    HW1  443   1.620   1.354   3.030 -0.3116 -0.7028 -0.1643
  148SOL    HW2  444   1.612   1.405   3.194 -2.1894  2.6915  0.4993
  149SOL     OW  445   0.643   1.502   1.970  0.7761  0.7494 -0.0403
  149SOL    HW1  446   0.545   1.481   2.003  0.1334  2.4227 -0.4759
  149SOL    HW2  447   0.680   1.436   1.896 -1.7383  0.5810 -0.5005
  150SOL     OW  448   3.009   1.225   0.986  0.1214 -0.1033 -0.4039
  150SOL    HW1  449   3.098   1.219   1.036  0.7405  0.7533 -2.5256
  150SOL    HW2  450   2.962   1.135   0.986 -1.7804 -0.1269 -0.8615
  151SOL     OW  451   0.192   0.785   2.075  0.2874  0.5966  0.2700
  151SOL    HW1  452   0.210   0.851   1.997 -2.6623 -1.7455 -0.3476
  151SOL    HW2  453   0.266   0.710   2.072 -1.4690  0.1287 -0.9298
  152SOL     OW  454   1.437   1.800   1.184 -0.8708 -0.5661  0.2366
  152SOL    HW1  455   1.489   1.890   1.171  1.1231  0.0940 -1.5774
  152SOL    HW2  456   1.342   1.801   1.147  0.9441  0.6924  1.0269
  153SOL     OW  457   0.181   1.500   0.212  0.2775  0.2338 -0.5193
  153SOL    HW1  458   0.134   1.405   0.205 -0.2712  0.3518 -2.6847
  153SOL    HW2  459   0.166   1.544   0.309  2.4632 -1.4789  1.1353
  154SOL     OW  460   2.336   1.903   2.813 -0.5852  0.0929 -0.3814
  154SOL    HW1  461   2.330   1.803   2.815  1.5192  0.8832 -2.0115
  154SOL    HW2  462   2.403   1.941   2.740 -1.1571  1.2487  0.7006
  155SOL     OW  463   2.528   1.236   0.382 -0.0616  0.6824 -0.6708
  155SOL    HW1  464   2.605   1.218   0.319 -0.3203  0.0925  0.9515
  155SOL    HW2  465   2.435   1.200   0.352 -1.9353  0.0344  0.6138
  156SOL     OW  466   2.477   0.824   0.753 -0.4185  0.1890 -0.1434
  156SOL    HW1  467   2.375   0.811   0.763 -1.9517  0.1321 -1.9864
  156SOL    HW2  468   2.513   0.873   0.672  1.9281 -0.6206  1.3512
  157SOL     OW  469   1.238   3.009   2.974 -0.0578 -0.3196  0.0574
  157SOL    HW1  470   1.327   2.978   2.937 -3.3916  3.6400  0.1725
  157SOL    HW2  471   1.243   3.105   3.020  0.1060  1.7769 -0.3874
  158SOL     OW  472   0.984   1.881   1.828  0.4198 -0.0984 -0.1205
  158SOL    HW1  473   1.013   1.978   1.805  1.7499 -0.1000 -0.0217
  158SOL    HW2  474   0.913   1.881   1.905  1.3244 -2.2244  0.9087
  159SOL     OW  475   0.850   0.433   1.218  0.1895  0.1492  0.1381
  159SOL    HW1  476   0.813   0.522   1.252  0.4194 -2.2901 -0.2523
  159SOL    HW2  477   0.771   0.369   1.187 -2.6110  2.3842  0.1120
  160SOL     OW  478   1.379   2.457   1.537  0.2447 -0.0479 -0.2931
  160SOL    HW1  479   1.323   2.400   1.602  3.7245 -0.1071 -0.0806
  160SOL    HW2  480   1.480   2.433   1.543 -0.8748 -2.9544  0.6411
  161SOL     OW  481   3.059   2.772   0.448  0.1834 -0.3572 -0.0795
  161SOL    HW1  482   3.017   2.703   0.518  1.6937 -4.3100  2.3420
  161SOL    HW2  483   2.998   2.798   0.362 -3.7515  0.9883 -0.3916
  162SOL     OW  484   2.566   1.818   0.472  0.0383 -0.4340 -0.1632
  162SOL    HW1  485   2.526   1.794   0.381  1.4423  1.7236  0.6630
  162SOL    HW2  486   2.546   1.744   0.538 -1.5255  1.6176  1.4359
  163SOL     OW  487   1.968   2.684   0.743  0.0227  0.0207  0.2739
  163SOL    HW1  488   1.938   2.660   0.646 -1.4576 -2.2512 -0.1175
  163SOL    HW2  489   2.048   2.631   0.782 -1.2960  0.7553 -0.1275
  164SOL     OW  490   3.068   0.260   1.268 -0.3827 -0.2507  0.2037
  164SOL    HW1  491   3.097   0.338   1.203 -2.6644 -0.2527 -0.9555
  164SOL    HW2  492   3.140   0.246   1.345 -0.9320 -1.6624  1.0057
  165SOL     OW  493   1.070   1.428   0.687  0.1624  0.2774 -0.7998
  165SOL    HW1  494   1.025   1.453   0.776  1.0347  0.8685 -2.1177
  165SOL    HW2  495   1.036   1.479   0.604 -2.3950  2.6464  0.0254
  166SOL     OW  496   1.590   1.019   1.782 -0.2055 -0.1323 -0.2784
  166SOL    HW1  497   1.501   1.036   1.827  3.8610  1.2775  1.3225
  166SOL    HW2  498   1.651   1.100   1.779 -0.5924 -1.5833  0.9896
  167SOL     OW  499   0.774   1.959   1.447  0.4186 -0.2476 -0.3976
  167SOL    HW1  500   0.769   2.024   1.536  0.1541  0.5143  0.7544
  167SOL    HW2  501   0.742   1.860   1.469  2.2705  0.0633  2.2703
  168SOL     OW  502   1.592   2.348   0.164  0.0803  0.0402 -0.2745
  168SOL    HW1  503   1.653   2.347   0.077 -0.1940  3.6650  0.3626
  168SOL    HW2  504   1.635   2.314   0.254 -1.6732 -0.9008 -0.1438
  169SOL     OW  505   0.137   2.574   2.224 -0.7913  0.1490 -0.5600
  169SOL    HW1  506   0.168   2.532   2.134 -0.2529  0.4502  2.3706
  169SOL    HW2  507   0.184   2.540   2.311  0.1445  2.0395  0.2657
  170SOL     OW  508   1.105   0.237   2.016  0.3960 -0.3097  0.3104
  170SOL    HW1  509   1.180   0.197   2.074 -1.7848 -1.6334 -0.5099
  170SOL    HW2  510   1.138   0.231   1.919  1.3743 -1.7212 -1.5779
  171SOL     OW  511   0.204   0.822   2.377  0.0498  0.0754  0.1468
  171SOL    HW1  512   0.118   0.814   2.432  0.1569  0.9925 -1.4929
  171SOL    HW2  513   0.183   0.829   2.277 -0.9528  2.3834 -2.4275
  172SOL     OW  514   0.976   0.992   2.921 -0.2852 -0.0912  0.1804
  172SOL    HW1  515   0.952   1.071   2.987  0.7271  1.1269  0.0218
  172SOL    HW2  516   0.905   0.979   2.843 -0.6250  0.5025  1.5176
  173SOL     OW  517   0.514   2.454   0.139 -0.3392 -0.5733  0.6832
  173SOL    HW1  518   0.489   2.384   0.064  0.0651  0.7850  2.2939
  173SOL    HW2  519   0.428   2.500   0.173  1.0680 -2.3012 -1.4032
  174SOL     OW  520   1.482   2.833   1.051 -0.3634  0.0750  0.4391
  174SOL    HW1  521   1.569   2.882   1.010 -1.0275  0.2762  1.9112
  174SOL    HW2  522   1.451   2.752   0.996  1.8954  0.8084 -2.0244
  175SOL     OW  523   0.474   3.047   1.684  0.2048  0.4543 -0.3147
  175SOL    HW1  524   0.514   2.996   1.768 -0.5339 -0.3370 -0.7791
  175SOL    HW2  525   0.438   3.143   1.709 -1.4799 -1.3420  1.9927
  176SOL     OW  526   2.573   0.376   0.012  0.3476 -0.0286 -0.1983
  176SOL    HW1  527   2.588   0.457   0.077  3.1220 -0.1010  1.3929
  176SOL    HW2  528   2.542   0.295   0.066 -0.2222 -1.7276  2.4215
  177SOL     OW  529   0.301   0.275   0.949 -0.0026  0.1045  0.3361
  177SOL    HW1  530   0.254   0.183   0.927  3.0032  0.5597 -0.1978
  177SOL    HW2  531   0.335   0.292   1.046 -0.7521 -1.0299  0.9361
  178SOL     OW  532   0.001   2.725   2.607 -0.2916 -0.0046 -0.3176
  178SOL    HW1  533  -0.015   2.633   2.557 -0.9390  0.2598 -0.2590
  178SOL    HW2  534   0.085   2.730   2.670  1.8494 -1.0110  0.9126
  179SOL     OW  535   3.027   1.557   1.147  0.2346  0.1779 -0.4175
  179SOL    HW1  536   3.121   1.575   1.181 -1.1460 -0.9436  3.2920
  179SOL    HW2  537   2.999   1.455   1.149  0.7021 -0.2133 -1.0222
  180SOL     OW  538   0.190   1.337   1.799 -0.1184  0.5583 -0.0746
  180SOL    HW1  539   0.254   1.278   1.847 -2.9947  2.2256 -2.2803
  180SOL    HW2  540   0.150   1.407   1.862 -2.5031  0.1741 -0.1066
  181SOL     OW  541   3.011   1.953   2.496 -0.5641 -0.4160 -0.1644
  181SOL    HW1  542   3.086   2.018   2.463 -0.6693  2.6288 -1.7836
  181SOL    HW2  543   2.938   1.946   2.421  1.5946  0.7851  0.8741
  182SOL     OW  544   2.339   1.245   1.250 -0.0271  0.8058  0.6602
  182SOL    HW1  545   2.266   1.209   1.181 -0.8808 -2.4334 -3.1328
  182SOL    HW2  546   2.356   1.344   1.237  1.3171  0.1697  0.2049
  183SOL     OW  547   1.426   2.246   2.527 -0.5450  0.0917 -0.5975
  183SOL    HW1  548   1.362   2.197   2.593  1.0010 -0.4257 -0.4259
  183SOL    HW2  549   1.496   2.179   2.488  0.2054 -1.9399 -0.9910
  184SOL     OW  550   2.104   0.909   0.715  0.3620 -0.6422  0.1096
  184SOL    HW1  551   2.012   0.941   0.689  5.1000 -0.3610 -1.5151
  184SOL    HW2  552   2.108   0.825   0.778  1.0515  0.0754 -2.8895
  185SOL     OW  553   1.554   2.736   1.997 -0.5124 -0.1303  0.2025
  185SOL    HW1  554   1.488   2.813   1.977  0.4566  0.7969 -1.4332
  185SOL    HW2  555   1.592   2.740   2.094 -0.9741  0.8086  1.9810
  186SOL     OW  556   0.075   2.210   1.636 -0.3661 -0.2037 -0.1110
  186SOL    HW1  557   0.071   2.259   1.729 -0.5171 -1.5407  1.9018
  186SOL    HW2  558   0.158   2.146   1.634 -1.3845  2.7131  0.5414
  187SOL     OW  559   1.381   0.622   1.639 -0.4001 -0.3522  0.0879
  187SOL    HW1  560   1.470   0.673   1.652  1.1303 -0.2133 -2.3339
  187SOL    HW2  561   1.370   0.532   1.684  0.0798  1.9470 -2.0890
  188SOL     OW  562   2.823   2.705   1.443 -0.2657 -0.4706 -0.8738
  188SOL    HW1  563   2.804   2.804   1.433  2.6563  1.3782 -1.1354
  188SOL    HW2  564   2.752   2.643   1.395  1.6758 -0.4375 -0.2574
  189SOL     OW  565   0.882   1.173   1.422  0.3146 -0.0632 -0.0392
  189SOL    HW1  566   0.968   1.195   1.476  0.1265 -3.3151  0.9144
  189SOL    HW2  567   0.803   1.242   1.424  2.2552 -0.7092 -0.0710
  190SOL     OW  568   1.503   1.894   1.582  0.0876 -0.5574  0.0092
  190SOL    HW1  569   1.450   1.812   1.552  0.8299  0.7399 -0.9326
  190SOL    HW2  570   1.485   1.922   1.677 -0.9482 -2.8597 -3.2962
  191SOL     OW  571   0.933   0.793   1.499  0.3192  0.6772  0.3771
  191SOL    HW1  572   0.998   0.765   1.576 -0.8443 -0.1630  0.6773
  191SOL    HW2  573   0.988   0.840   1.425 -1.7699  1.5174  0.5857
  192SOL     OW  574   1.854   2.411   1.112 -0.0717  0.8640  0.0757
  192SOL    HW1  575   1.755   2.411   1.072 -0.4798  1.8537 -4.2085
  192SOL    HW2  576   1.921   2.379   1.042 -0.0123  2.6356 -1.2296
  193SOL     OW  577   0.519   0.527   0.406  0.2528  0.4879 -0.0060
  193SOL    HW1  578   0.446   0.451   0.415 -2.4603 -2.5069  2.4022
  193SOL    HW2  579   0.585   0.509   0.326 -3.0320  0.4143 -0.3658
  194SOL     OW  580   0.303   0.911   1.296 -0.0481  0.0737  0.3665
  194SOL    HW1  581   0.249   0.825   1.282 -1.8668  0.0677  0.1311
  194SOL    HW2  582   0.330   0.957   1.204 -1.3409  0.0254 -0.7239
  195SOL     OW  583   0.984   2.890   0.512  0.1473 -0.4857 -0.4096
  195SOL    HW1  584   0.950   2.820   0.440 -1.7088 -0.1173  0.2140
  195SOL    HW2  585   1.087   2.907   0.514 -0.2006  1.8807  3.6096
  196SOL     OW  586   0.200   1.372   1.344 -0.0173  0.1868 -0.2534
  196SOL    HW1  587   0.204   1.462   1.396 -1.1565 -1.3405  0.0866
  196SOL    HW2  588   0.237   1.291   1.398  2.0819  1.4153  0.3969
  197SOL     OW  589   0.812   2.002   0.278  0.1391 -0.6326  0.5324
  197SOL    HW1  590   0.788   1.953   0.369 -1.5251 -0.0306  1.8179
  197SOL    HW2  591   0.888   1.956   0.223  1.4614 -1.3225 -1.8465
  198SOL     OW  592   0.334   1.254   0.343 -0.2045 -0.2126 -0.0238
  198SOL    HW1  593   0.245   1.255   0.285 -4.2629 -1.8559  0.1796
  198SOL    HW2  594   0.360   1.349   0.380  0.0560  0.6509  1.1308
  199SOL     OW  595   2.284   0.437   2.589 -0.4249 -0.4432 -0.2609
  199SOL    HW1  596   2.221   0.381   2.650  2.4062  2.5527  2.1720
  199SOL    HW2  597   2.385   0.401   2.585 -2.3453 -0.3264  1.1608
  200SOL     OW  598   3.094   3.009   0.754  0.2352 -0.2003  0.5007
  200SOL    HW1  599   3.107   3.115   0.755 -1.6350  1.0144  2.5510
  200SOL    HW2  600   2.998   2.986   0.710 -0.9768  0.1147  0.7917
  201SOL     OW  601   0.979   0.704   0.504 -0.3024  0.1978  0.1708
  201SOL    HW1  602   1.019   0.757   0.582 -0.0231  0.6233 -3.6318
  201SOL    HW2  603   0.884   0.653   0.519 -1.5414  0.1005  0.2090
  202SOL     OW  604   0.427   1.201   1.880 -0.0841  0.1612 -0.4030
  202SOL    HW1  605   0.516   1.143   1.871  1.1546 -0.3444  0.4065
  202SOL    HW2  606   0.416   1.269   1.958 -1.1360 -0.4482  0.4515
  203SOL     OW  607   0.569   0.179   1.526 -0.4652  0.0060  0.6683
  203SOL    HW1  608   0.550   0.086   1.480 -1.9819 -0.2211 -1.0100
  203SOL    HW2  609   0.632   0.171   1.610 -0.9984  1.2234  3.1050
  204SOL     OW  610   2.119   1.805   2.975 -0.1660 -0.0654  0.6555
  204SOL    HW1  611   2.111   1.699   2.951  2.5837  1.7276  0.6639
  204SOL    HW2  612   2.186   1.847   2.906 -1.5602 -1.7314 -1.3392
  205SOL     OW  613   1.838   1.818   3.041  0.2047 -0.2810  0.2718
  205SOL    HW1  614   1.944   1.822   3.036  0.3505  0.1480  1.7917
  205SOL    HW2  615   1.796   1.908   3.013 -2.0561 -0.7629  0.7837
  206SOL     OW  616   2.423   2.815   0.372  0.1698 -0.0294  0.1190
  206SOL    HW1  617   2.413   2.726   0.417 -1.3280  1.8721 -0.4197
  206SOL    HW2  618   2.504   2.820   0.310  1.2059 -2.0421  1.7947
  207SOL     OW  619   0.681   1.778   2.940  0.1057 -0.8881 -0.3146
  207SOL    HW1  620   0.740   1.716   2.880 -0.1922 -0.8604  1.2742
  207SOL    HW2  621   0.659   1.737   3.032 -1.3810  1.1863 -1.8137
  208SOL     OW  622   1.161   1.663   1.343 -0.3711  0.2218 -0.6220
  208SOL    HW1  623   1.157   1.716   1.254  0.6296  0.5111  0.2719
  208SOL    HW2  624   1.137   1.720   1.425 -1.9996  0.0534 -1.1835
  209SOL     OW  625   0.248   0.979   3.089 -0.3997 -0.1261  0.1008
  209SOL    HW1  626   0.218   0.912   3.019 -3.0087 -0.2624  0.8993
  209SOL    HW2  627   0.248   0.941   3.185 -0.8960  0.4499  1.7129
  210SOL     OW  628   1.710   0.496   1.223  0.3222  0.3718 -0.3029
  210SOL    HW1  629   1.650   0.576   1.193 -1.3712  0.3134  0.5085
  210SOL    HW2  630   1.815   0.504   1.211 -1.9075 -1.4804  0.3934
  211SOL     OW  631   2.037   1.043   1.579 -0.6344  0.3928 -0.2733
  211SOL    HW1  632   2.083   0.985   1.651 -0.5924  2.1504  0.1626
  211SOL    HW2  633   2.102   1.111   1.541  1.7350  2.3091 -0.1211
  212SOL     OW  634   0.017   0.986   1.526 -0.4349  0.4338 -0.4724
  212SOL    HW1  635   0.099   1.048   1.547 -1.2736  0.2995 -0.2385
  212SOL    HW2  636   0.017   0.898   1.583 -1.2937  0.8815 -0.8989
  213SOL     OW  637   2.719   0.171   0.329  0.9355  0.5588 -0.4887
  213SOL    HW1  638   2.808   0.131   0.285  0.1180 -1.1785 -2.6457
  213SOL    HW2  639   2.633   0.123   0.287 -4.2487 -1.4343 -2.3107
  214SOL     OW  640   2.185   0.390   2.335 -0.5903  0.3722 -0.0234
  214SOL    HW1  641   2.223   0.435   2.423  1.7779  1.3979  0.9049
  214SOL    HW2  642   2.172   0.289   2.340 -0.3422  1.1911  0.3474
  215SOL     OW  643   1.639   2.283   2.106  0.4066 -0.0792  0.0508
  215SOL    HW1  644   1.732   2.326   2.112  0.2706 -0.3057 -0.5118
  215SOL    HW2  645   1.562   2.347   2.139 -0.2355  0.2873  0.1847
  216SOL     OW  646   2.219   0.595   0.714 -0.4350 -0.1660 -0.6049
  216SOL    HW1  647   2.222   0.497   0.680 -0.8396 -1.4833  2.4070
  216SOL    HW2  648   2.202   0.666   0.640 -1.1943 -0.3387  2.3601
  217SOL     OW  649   0.818   2.805   2.485  0.3588 -0.7557  0.3049
  217SOL    HW1  650   0.755   2.737   2.529 -2.7183 -0.1316 -0.7171
  217SOL    HW2  651   0.818   2.792   2.383  3.5111 -3.8987  3.3589
  218SOL     OW  652   1.901   1.484   0.045 -0.4600  0.2676  0.1991
  218SOL    HW1  653   1.803   1.475   0.002  0.1833 -0.9723 -0.3358
  218SOL    HW2  654   1.913   1.409   0.117 -1.1651 -1.3593 -2.1566
  219SOL     OW  655   2.443   1.280   2.519  0.5736 -0.2351  0.5615
  219SOL    HW1  656   2.512   1.271   2.443  1.8559 -0.0287  0.3404
  219SOL    HW2  657   2.469   1.218   2.597 -0.1806  1.1404  1.6397
  220SOL     OW  658   1.440   1.000   1.341 -0.2443  0.0467  0.5470
  220SOL    HW1  659   1.542   0.975   1.348 -1.7044 -1.8297 -0.0450
  220SOL    HW2  660   1.425   1.081   1.274  0.5569 -0.1029  0.4755
  221SOL     OW  661   1.275   0.975   2.191 -0.0664 -0.3223 -0.0332
  221SOL    HW1  662   1.247   0.970   2.094  0.2993 -4.5858  1.8893
  221SOL    HW2  663   1.370   1.014   2.212  0.8172  0.5007  2.1633
  222SOL     OW  664   1.126   0.135   1.190 -0.3230  0.2057  0.1123
  222SOL    HW1  665   1.105   0.193   1.272  0.1525  1.0965 -1.9401
  222SOL    HW2  666   1.121   0.191   1.101 -0.4775  3.1025  0.0280
  223SOL     OW  667   2.703   0.926   2.148 -0.2175 -0.1714  0.0139
  223SOL    HW1  668   2.660   1.004   2.197 -1.5552  0.1872 -3.2227
  223SOL    HW2  669   2.798   0.904   2.186  1.2420  0.6390 -0.0327
  224SOL     OW  670   1.459   1.093   2.724 -0.1059 -0.2355 -0.0607
  224SOL    HW1  671   1.511   1.005   2.698 -2.0662  1.2029 -2.1980
  224SOL    HW2  672   1.481   1.160   2.654 -0.2936 -0.2759 -0.4398
  225SOL     OW  673   2.971   2.724   2.875  0.2646 -0.0905  0.0134
  225SOL    HW1  674   2.913   2.715   2.786 -1.5667  0.5478 -0.6950
  225SOL    HW2  675   3.056   2.779   2.859  1.7974  2.5391 -1.0017
  226SOL     OW  676   2.354   1.619   2.856 -0.3486 -0.2766 -0.7389
  226SOL    HW1  677   2.439   1.587   2.807 -0.4939 -1.5187  2.5292
  226SOL    HW2  678   2.313   1.549   2.927  0.3577 -2.4276  1.2150
  227SOL     OW  679   0.844   0.206   3.080  0.0534 -0.1220  0.5173
  227SOL    HW1  680   0.886   0.303   3.066  1.6459  0.1882 -0.8473
  227SOL    HW2  681   0.771   0.180   3.006 -0.8956  1.0712  0.8366
  228SOL     OW  682   2.431   0.588   2.844 -0.3924  0.0270 -0.1216
  228SOL    HW1  683   2.431   0.674   2.781 -1.0484  0.5988 -1.5737
  228SOL    HW2  684   2.501   0.512   2.823  2.6704 -3.1605  0.1196
  229SOL     OW  685   0.568   0.441   1.818 -0.1555  0.5800 -0.3689
  229SOL    HW1  686   0.583   0.351   1.871 -1.5398 -1.3082  2.3326
  229SOL    HW2  687   0.598   0.447   1.719 -0.8090  0.0212  1.2129
  230SOL     OW  688   1.889   1.172   2.036 -0.4496 -0.0585 -0.3101
  230SOL    HW1  689   1.963   1.222   1.983 -1.4740 -0.3789  0.9663
  230SOL    HW2  690   1.813   1.237   2.071 -0.5777 -0.3723  0.1748
  231SOL     OW  691   0.635   1.066   0.020  0.4056  0.3405 -0.1620
  231SOL    HW1  692   0.721   1.126  -0.003  1.6866 -0.2720  2.1496
  231SOL    HW2  693   0.548   1.113   0.027  0.3162 -1.4971 -1.1036
  232SOL     OW  694   2.433   3.038   2.841  0.2221 -0.4535 -0.4894
  232SOL    HW1  695   2.488   2.947   2.837  0.6752  0.5440 -0.1613
  232SOL    HW2  696   2.477   3.116   2.786 -1.6925 -2.3169 -2.2258
  233SOL     OW  697   1.776   1.254   1.208 -0.2943 -0.3406  0.6880
  233SOL    HW1  698   1.863   1.243   1.158 -0.0237  0.0642  2.0965
  233SOL    HW2  699   1.757   1.180   1.279 -0.2335 -0.0997  1.4439
  234SOL     OW  700   1.591   2.515   1.855  0.0748  0.7912 -0.0622
  234SOL    HW1  701   1.579   2.590   1.922 -1.8548  1.4525 -0.8402
  234SOL    HW2  702   1.518   2.441   1.855  1.4874 -0.9803  0.5378
  235SOL     OW  703   0.025   3.038   2.827 -0.1612 -0.2523  0.0319
  235SOL    HW1  704  -0.019   3.044   2.729  0.3775  2.1018  2.2757
  235SOL    HW2  705  -0.044   3.062   2.902  2.0839  1.5225  1.8174
  236SOL     OW  706   2.866   0.736   0.069 -0.0493 -0.2839  0.6319
  236SOL    HW1  707   2.926   0.733   0.156 -1.7466  0.0849 -1.1529
  236SOL    HW2  708   2.898   0.665   0.002 -1.1805 -0.0821  0.8430
  237SOL     OW  709   1.526   1.631   0.956 -0.1943  0.2596  0.1077
  237SOL    HW1  710   1.628   1.608   0.970  0.7177 -0.0448 -0.5446
  237SOL    HW2  711   1.491   1.689   1.031  0.5755 -3.1646 -0.7147
  238SOL     OW  712   1.870   1.270   0.763  0.3574 -0.7696 -0.3765
  238SOL    HW1  713   1.895   1.300   0.860  0.4498  0.2625  1.0755
  238SOL    HW2  714   1.772   1.314   0.739 -0.2998  0.8854  0.1471
  239SOL     OW  715   2.098   0.303   2.739  0.1428  0.0601  0.1741
  239SOL    HW1  716   2.153   0.306   2.828  0.0432  0.1976 -1.5961
  239SOL    HW2  717   2.003   0.344   2.757 -1.0987  1.5799 -0.8520
  240SOL     OW  718   0.928   0.670   0.245 -0.0028 -0.3153  0.1448
  240SOL    HW1  719   0.967   0.572   0.226 -1.2409  2.2213 -1.8440
  240SOL    HW2  720   0.956   0.701   0.343 -0.4591  0.2098 -1.8817
  241SOL     OW  721   0.599   0.095   0.402  0.1370  0.4422 -0.2666
  241SOL    HW1  722   0.638   0.160   0.333  3.0846 -0.7853  1.3333
  241SOL    HW2  723   0.567   0.004   0.360 -1.7853 -1.4490 -1.8943
  242SOL     OW  724   0.611   2.528   1.139  0.4525  0.4513  0.5097
  242SOL    HW1  725   0.628   2.519   1.240  0.6286  2.1230  0.6919
  242SOL    HW2  726   0.601   2.625   1.106  0.6695 -0.4603  1.1496
  243SOL     OW  727   1.057   0.602   2.467 -0.2567 -0.8983 -0.7336
  243SOL    HW1  728   0.977   0.624   2.400 -0.8738  0.0850  0.2036
  243SOL    HW2  729   1.015   0.572   2.560 -0.7878 -0.4340 -1.1135
  244SOL     OW  730   2.802   1.886   2.343 -0.2643  0.5616 -0.7235
  244SOL    HW1  731   2.836   1.865   2.250 -0.2361 -1.6129  1.0630
  244SOL    HW2  732   2.714   1.839   2.360  0.5169 -1.4819  0.6272
  245SOL     OW  733   2.213   0.902   2.181 -0.1420  0.3442  0.7329
  245SOL    HW1  734   2.302   0.904   2.228  0.7451 -2.4037 -1.9165
  245SOL    HW2  735   2.138   0.970   2.215 -1.4646  0.9474 -0.5508
  246SOL     OW  736   0.202   2.902   1.695 -0.1213 -0.5584  0.1645
  246SOL    HW1  737   0.130   2.901   1.620 -1.5948  1.3141  1.4364
  246SOL    HW2  738   0.276   2.966   1.678 -1.1102  1.0156  2.7167
  247SOL     OW  739   2.224   0.646   2.986  0.1822 -0.0723  0.5411
  247SOL    HW1  740   2.304   0.621   2.926  0.2918  0.0283  0.5512
  247SOL    HW2  741   2.171   0.726   2.947 -3.2780  1.2086  2.8274
  248SOL     OW  742   2.180   1.825   1.556  0.1293 -0.0719 -0.1850
  248SOL    HW1  743   2.259   1.797   1.613  2.5288 -1.0754 -1.9382
  248SOL    HW2  744   2.086   1.820   1.610 -0.5742  0.5479 -1.2814
  249SOL     OW  745   1.934   1.900   1.896  0.8127 -0.3944 -0.1590
  249SOL    HW1  746   1.936   1.834   1.813  0.0966 -1.1191 -0.1383
  249SOL    HW2  747   2.029   1.943   1.912 -0.5346 -0.3727  1.5988
  250SOL     OW  748   1.081   0.705   1.890 -0.0339  0.7828 -0.6297
  250SOL    HW1  749   1.109   0.632   1.955  2.6576  1.0576 -0.4777
  250SOL    HW2  750   1.072   0.665   1.795 -0.6009 -0.9850  0.8654
  251SOL     OW  751   3.082   1.671   2.517 -0.3197  0.4599  0.1423
  251SOL    HW1  752   3.049   1.769   2.526 -0.4109 -1.5125  0.1046
  251SOL    HW2  753   3.007   1.599   2.514 -1.2017  0.9422 -1.7869
  252SOL     OW  754   1.625   0.754   1.680 -0.1052 -0.5796  0.3665
  252SOL    HW1  755   1.719   0.715   1.705  0.7085 -0.5952  2.8481
  252SOL    HW2  756   1.606   0.852   1.708  0.7075  1.9185 -2.3662
  253SOL     OW  757   0.991   1.578   0.459 -0.5811  0.6521  0.0811
  253SOL    HW1  758   0.989   1.484   0.419  0.3374  0.4117  2.9617
  253SOL    HW2  759   0.897   1.609   0.497  1.7409  1.5972  0.5075
  254SOL     OW  760   2.038   2.181   1.647 -0.2924 -0.0070 -0.2184
  254SOL    HW1  761   2.005   2.105   1.584 -0.3031  0.0069 -1.8426
  254SOL    HW2  762   1.959   2.230   1.695  0.9409  1.3716 -0.3980
  255SOL     OW  763   0.142   1.182   2.915 -0.0462  0.2989 -0.3211
  255SOL    HW1  764   0.193   1.269   2.905 -0.0077  1.1847  2.0932
  255SOL    HW2  765   0.189   1.109   2.977  1.2960  1.0026  0.6410
  256SOL     OW  766   2.879   1.419   1.805 -0.3053 -0.1166  0.1985
  256SOL    HW1  767   2.790   1.465   1.820  2.3381  0.2144  0.9375
  256SOL    HW2  768   2.864   1.317   1.804 -2.0548 -1.4119  1.2781
  257SOL     OW  769   0.786   0.172   1.739  0.4875  0.0909  0.0167
  257SOL    HW1  770   0.816   0.267   1.713  0.4547  2.2826 -1.8738
  257SOL    HW2  771   0.866   0.107   1.721  0.7028  0.5431 -0.4837
  258SOL     OW  772   2.998   1.232   0.473  0.0651  0.0936  0.1771
  258SOL    HW1  773   2.911   1.281   0.497 -2.0269 -2.2105 -1.1230
  258SOL    HW2  774   3.044   1.211   0.565 -2.0955  1.6553  1.5494
  259SOL     OW  775   0.433   2.909   3.055 -0.6277 -0.1841 -0.0109
  259SOL    HW1  776   0.379   2.845   3.115  1.2209  1.8712 -1.7030
  259SOL    HW2  777   0.460   2.859   2.964  1.8043 -1.3673 -0.6616
  260SOL     OW  778   2.730   0.664   2.775  0.0360 -0.1606 -0.2096
  260SOL    HW1  779   2.646   0.714   2.801 -0.3200 -1.1686 -2.4498
  260SOL    HW2  780   2.720   0.568   2.805  0.4144  0.8201 -4.5688
  261SOL     OW  781   2.725   1.306   1.333  0.2812 -0.7481  0.4643
  261SOL    HW1  782   2.680   1.253   1.257  1.0430 -4.5107  0.2870
  261SOL    HW2  783   2.794   1.240   1.380  0.2465 -0.9395  0.7676
  262SOL     OW  784   1.399   2.947   1.924 -0.1235 -0.1700 -0.2573
  262SOL    HW1  785   1.447   3.034   1.887 -1.0350  0.8332  1.2600
  262SOL    HW2  786   1.297   2.966   1.918 -0.5437  2.7864 -0.4469
  263SOL     OW  787   0.867   0.669   2.283 -0.4252 -0.1912 -0.4342
  263SOL    HW1  788   0.803   0.596   2.256  0.6639  1.2124  3.6468
  263SOL    HW2  789   0.894   0.728   2.203 -1.5591  0.0402  0.8124
  264SOL     OW  790   2.240   0.798   0.403  0.5355  0.1075 -0.5856
  264SOL    HW1  791   2.209   0.747   0.315 -1.5588 -1.0707  1.8488
  264SOL    HW2  792   2.328   0.850   0.388 -2.1847  1.0795 -0.7545
  265SOL     OW  793   0.919   2.452   2.649  0.0807 -0.7786 -0.3112
  265SOL    HW1  794   0.989   2.513   2.704  3.4321  1.4028  1.3949
  265SOL    HW2  795   0.919   2.351   2.683 -1.2045  0.1962 -0.1292
  266SOL     OW  796   1.334   1.807   3.039 -0.1954 -0.5946  0.0165
  266SOL    HW1  797   1.328   1.872   3.121  1.0120 -2.4149  0.4790
  266SOL    HW2  798   1.428   1.766   3.018 -0.2725 -1.0458  0.5309
  267SOL     OW  799   1.028   0.066   2.323  0.0962  0.5114 -0.4726
  267SOL    HW1  800   0.993   0.015   2.239  1.5744  1.9134  1.2555
  267SOL    HW2  801   0.955   0.112   2.380  1.4380  1.2398  1.2954
  268SOL     OW  802   0.662   1.211   1.082  0.9595  0.7718  0.6014
  268SOL    HW1  803   0.658   1.249   1.179  0.3166  1.0769 -3.1626
  268SOL    HW2  804   0.716   1.265   1.015  1.2885  0.7791 -2.9854
  269SOL     OW  805   2.325   2.525   1.621  0.3746 -0.2836 -0.0348
  269SOL    HW1  806   2.392   2.484   1.692  0.5455 -0.9165  0.5793
  269SOL    HW2  807   2.256   2.580   1.680  1.1700 -0.2608  0.1725
  270SOL     OW  808   0.157   2.962   1.958 -0.0162  0.4298  0.0177
  270SOL    HW1  809   0.177   2.931   1.860  0.3529 -1.2462 -0.2974
  270SOL    HW2  810   0.074   2.919   2.000 -0.5976  1.0023  0.3241
  271SOL     OW  811   0.427   1.389   1.158 -0.0249  0.4422 -0.3601
  271SOL    HW1  812   0.411   1.373   1.056  0.0735 -0.4479 -0.6847
  271SOL    HW2  813   0.341   1.387   1.211 -2.1988  1.0207 -1.6051
  272SOL     OW  814   2.031   2.957   1.932  0.0417  0.3138  0.1960
  272SOL    HW1  815   1.928   2.935   1.928  0.4901  3.7383 -0.9561
  272SOL    HW2  816   2.069   3.002   1.853 -1.5968 -2.0769 -0.5602
  273SOL     OW  817   1.500   1.445   2.748  0.1509 -0.4414  0.1348
  273SOL    HW1  818   1.395   1.444   2.757 -0.0216 -0.0727  1.0074
  273SOL    HW2  819   1.548   1.397   2.826 -1.3980 -1.0077 -0.4486
  274SOL     OW  820   1.184   0.504   2.059 -0.0341 -0.3954 -0.0056
  274SOL    HW1  821   1.125   0.421   2.037  0.2399  0.8881  0.1712
  274SOL    HW2  822   1.201   0.526   2.160  0.0849  1.6157 -0.9885
  275SOL     OW  823   0.649   2.135   1.879  0.3650 -0.2283  0.1159
  275SOL    HW1  824   0.603   2.206   1.942  1.6454  0.0670 -0.3456
  275SOL    HW2  825   0.579   2.075   1.833 -0.2149  2.3820  2.0920
  276SOL     OW  826   2.203   1.117   2.774 -0.7104  0.6690  0.1482
  276SOL    HW1  827   2.129   1.127   2.703  2.6382 -1.5756 -0.9436
  276SOL    HW2  828   2.185   1.033   2.831  2.1553 -2.1737 -0.0466
  277SOL     OW  829   3.094   0.758   0.243  0.1969  0.3801 -0.0624
  277SOL    HW1  830   3.186   0.780   0.206 -0.0618  1.2398 -1.2575
  277SOL    HW2  831   3.100   0.690   0.320  1.0480 -1.4624 -1.1519
  278SOL     OW  832   0.218   0.291   2.922 -0.3736 -0.5215 -0.1362
  278SOL    HW1  833   0.303   0.232   2.917  2.6882 -0.4347  1.3869
  278SOL    HW2  834   0.234   0.367   2.990 -0.9131 -0.5287 -1.9374
  279SOL     OW  835   0.230   0.028   0.898  0.1100 -0.0076  0.0458
  279SOL    HW1  836   0.211  -0.053   0.964 -0.6461 -0.9811  0.3623
  279SOL    HW2  837   0.257  -0.002   0.804 -2.7171  0.2714  1.0335
  280SOL     OW  838   1.612   2.948   2.386 -0.0620  0.1171 -0.0663
  280SOL    HW1  839   1.690   2.978   2.446  0.2781  0.9169  0.4848
  280SOL    HW2  840   1.559   3.032   2.358  2.7546 -1.1806  1.2843
  281SOL     OW  841   0.591   0.982   2.268 -0.1867  0.3017 -0.0200
  281SOL    HW1  842   0.604   0.895   2.212  0.8184 -2.2062  1.0920
  281SOL    HW2  843   0.535   0.965   2.351  0.1199  1.5554 -1.5275
  282SOL     OW  844   1.780   2.485   0.495  0.2161  0.0535  0.0940
  282SOL    HW1  845   1.713   2.410   0.459  1.1082 -0.8508 -0.7798
  282SOL    HW2  846   1.759   2.582   0.462  0.7682  0.2616  0.1258
  283SOL     OW  847   1.220   0.940   0.776 -0.3366  0.1643 -0.1094
  283SOL    HW1  848   1.228   0.879   0.858 -0.8518 -0.9840 -1.2124
  283SOL    HW2  849   1.159   1.019   0.798  0.5027  0.3563 -1.1759
  284SOL     OW  850   2.240   2.824   2.516  0.2371 -0.3652  0.3735
  284SOL    HW1  851   2.335   2.797   2.482  0.2125  1.6725 -0.4704
  284SOL    HW2  852   2.243   2.872   2.603  1.0246 -0.9096  0.7968
  285SOL     OW  853   1.371   3.060   2.575  0.6020  0.2560 -0.1252
  285SOL    HW1  854   1.387   3.092   2.476  0.2099 -0.1258 -0.5643
  285SOL    HW2  855   1.299   3.116   2.614  0.0480  0.2088 -0.8890
  286SOL     OW  856   0.426   0.426   0.763 -0.5070 -0.2062  0.1656
  286SOL    HW1  857   0.392   0.356   0.834  4.0915  0.4133 -0.9102
  286SOL    HW2  858   0.416   0.382   0.666 -0.2332 -0.5613 -1.1126
  287SOL     OW  859   0.072   1.268   2.503  0.0682  0.1761  0.4717
  287SOL    HW1  860   0.065   1.188   2.574 -1.7012  3.2021  0.1038
  287SOL    HW2  861   0.058   1.355   2.553 -1.6377  1.2818 -1.7262
  288SOL     OW  862   1.600   2.692   1.624  0.0372  0.5983  0.6212
  288SOL    HW1  863   1.613   2.615   1.698  0.0850 -2.2148  3.6626
  288SOL    HW2  864   1.562   2.655   1.539  0.0033  0.4713  0.6359
  289SOL     OW  865   0.579   2.715   0.851 -0.4038 -0.4097 -0.2133
  289SOL    HW1  866   0.636   2.772   0.783 -1.8570  0.8103 -0.1937
  289SOL    HW2  867   0.579   2.762   0.944  0.8153  1.1896  1.6561
  290SOL     OW  868   2.848   1.154   1.787  0.3372 -0.2393 -0.3513
  290SOL    HW1  869   2.764   1.097   1.788 -0.7933  0.7688 -3.1819
  290SOL    HW2  870   2.937   1.117   1.830  0.2209  1.8762  1.9118
  291SOL     OW  871   1.988   3.086   0.033  0.1937  0.4041  0.4047
  291SOL    HW1  872   1.992   3.114   0.129 -2.7147 -2.5876 -0.7060
  291SOL    HW2  873   2.044   3.146  -0.028  1.7246  0.1871 -0.6581
  292SOL     OW  874   3.021   1.226   3.081  0.1868  0.0099  0.2399
  292SOL    HW1  875   2.936   1.248   3.032 -0.9530  1.9535  0.2749
  292SOL    HW2  876   3.098   1.215   3.019 -1.5002 -0.7294  0.1509
  293SOL     OW  877   0.533   2.179   0.286 -0.4226  0.5607  0.5169
  293SOL    HW1  878   0.495   2.263   0.338  2.5271  2.3792 -1.1050
  293SOL    HW2  879   0.638   2.173   0.276  2.5402 -1.9173 -0.7484
  294SOL     OW  880   1.832   2.298   1.768 -0.0541  0.2321 -0.1784
  294SOL    HW1  881   1.859   2.328   1.868 -0.7343  0.7478  1.5249
  294SOL    HW2  882   1.756   2.364   1.738  1.2400 -2.1086  1.3060
  295SOL     OW  883   0.979   1.064   0.437 -0.0557 -0.3149 -0.4896
  295SOL    HW1  884   1.078   1.058   0.456  0.3321  0.8748 -1.6697
  295SOL    HW2  885   0.919   1.036   0.522 -0.5865  0.5502  4.0040
  296SOL     OW  886   1.222   2.110   2.683 -0.5281  0.3663  1.0394
  296SOL    HW1  887   1.126   2.159   2.690 -2.2214  0.9959 -2.4423
  296SOL    HW2  888   1.242   2.048   2.600  1.5709  0.8398  0.1067
  297SOL     OW  889   1.366   0.589   1.317  0.4588 -0.2610 -0.2626
  297SOL    HW1  890   1.398   0.521   1.392  0.1694 -0.6085  1.5237
  297SOL    HW2  891   1.446   0.631   1.274 -0.0173 -1.1639  1.6280
  298SOL     OW  892   0.529   1.357   3.000 -0.0091 -0.4553  0.0635
  298SOL    HW1  893   0.487   1.290   3.066  0.6063  2.8376 -1.9034
  298SOL    HW2  894   0.592   1.307   2.933 -0.7369 -2.1394 -1.6262
  299SOL     OW  895   0.460   0.299   1.277 -0.6688  0.2933  0.1013
  299SOL    HW1  896   0.400   0.381   1.266  1.0938 -1.2836  0.1753
  299SOL    HW2  897   0.505   0.283   1.372  2.2353  2.4785  0.8718
  300SOL     OW  898   1.259   1.710   2.596 -0.1269  0.2430 -0.6136
  300SOL    HW1  899   1.249   1.624   2.536 -1.3364 -3.2416  0.5413
  300SOL    HW2  900   1.341   1.702   2.662 -1.1528  2.3128 -2.0630
  301SOL     OW  901   0.405   0.260   0.504  0.7675  0.1226  0.6104
  301SOL    HW1  902   0.316   0.216   0.473 -1.9323  0.7196 -2.0169
  301SOL    HW2  903   0.482   0.192   0.490  3.0413  1.0097 -1.9704
  302SOL     OW  904   1.251   2.429   2.318 -0.3278  0.0766 -0.3913
  302SOL    HW1  905   1.154   2.465   2.314  1.8211  0.0899 -1.1109
  302SOL    HW2  906   1.283   2.399   2.414 -0.7392  1.4590  2.0555
  303SOL     OW  907   0.922   2.430   0.813 -0.2233 -0.4158  0.6732
  303SOL    HW1  908   0.960   2.464   0.721 -0.2430  0.0953 -0.1107
  303SOL    HW2  909   0.972   2.462   0.899 -2.4911 -1.4802 -2.3373
  304SOL     OW  910   0.088   1.919   0.701  0.1230 -0.3015 -0.2074
  304SOL    HW1  911   0.150   1.914   0.621 -0.5784 -2.0895  0.8065
  304SOL    HW2  912   0.005   1.979   0.672 -3.9940 -0.5643  0.1539
  305SOL     OW  913   1.595   0.882   0.661  0.3709  0.5011  0.2279
  305SOL    HW1  914   1.534   0.868   0.570  2.2943  0.9379  1.2428
  305SOL    HW2  915   1.627   0.794   0.708 -1.9886 -1.3317  0.5980
  306SOL     OW  916   0.442   1.916   1.889  0.0271  0.8692 -0.0559
  306SOL    HW1  917   0.515   1.845   1.861  2.4784 -1.1039  1.0400
  306SOL    HW2  918   0.463   1.962   1.985 -1.4867  2.0109  2.6732
  307SOL     OW  919   3.013   0.867   2.516 -0.4487 -0.4319  0.1026
  307SOL    HW1  920   3.048   0.925   2.594 -1.8054 -1.3323 -0.9820
  307SOL    HW2  921   2.935   0.802   2.543 -0.2663 -0.7899  0.2813
  308SOL     OW  922   1.600   2.660   2.776 -0.2065  0.0502  0.3085
  308SOL    HW1  923   1.595   2.610   2.685 -0.5891  1.1727  1.3069
  308SOL    HW2  924   1.557   2.611   2.856  0.4482 -1.7800  0.8272
  309SOL     OW  925   1.222   0.176   1.785 -0.4358 -0.3007 -0.1158
  309SOL    HW1  926   1.310   0.132   1.822 -2.1695 -0.3734 -0.1080
  309SOL    HW2  927   1.218   0.178   1.681  1.7454 -0.2643  1.7879
  310SOL     OW  928   1.526   2.544   0.673 -0.2710 -0.3826 -0.1350
  310SOL    HW1  929   1.478   2.572   0.762 -0.2824  5.3899  2.9207
  310SOL    HW2  930   1.599   2.614   0.644 -1.8217 -2.3155  0.4085
  311SOL     OW  931   1.134   0.931   1.751  0.4436  0.1507  0.2940
  311SOL    HW1  932   1.090   0.850   1.801  1.0754  0.4060  0.6081
  311SOL    HW2  933   1.177   0.908   1.656 -1.8031  1.0553 -1.7819
  312SOL     OW  934   1.545   0.684   1.107  0.0455 -0.6772  0.8457
  312SOL    HW1  935   1.562   0.786   1.087  1.3540  0.1200 -2.3400
  312SOL    HW2  936   1.508   0.631   1.025 -1.6457 -2.9837 -0.1162
  313SOL     OW  937   1.619   1.366   0.716 -0.7529 -0.7574  0.1787
  313SOL    HW1  938   1.562   1.400   0.801 -0.4386 -0.3608 -0.7065
  313SOL    HW2  939   1.598   1.269   0.694  0.6136  1.4024  2.1766
  314SOL     OW  940   2.991   3.088   3.063  0.2808  0.0727  0.2199
  314SOL    HW1  941   3.022   3.108   3.160 -1.3562 -0.9382  1.0346
  314SOL    HW2  942   2.896   3.042   3.068 -1.0714 -1.8864  2.5803
  315SOL     OW  943   1.177   0.262   2.783  0.4454 -0.0134 -0.1651
  315SOL    HW1  944   1.137   0.198   2.708  0.7982 -0.0500 -1.9387
  315SOL    HW2  945   1.206   0.208   2.864  1.6496  0.0700 -1.7029
  316SOL     OW  946   1.720   2.088   0.903  0.6281  0.1298 -0.6767
  316SOL    HW1  947   1.668   2.092   0.998  0.4377  0.6576  2.2137
  316SOL    HW2  948   1.722   2.176   0.851  1.4937 -1.4368 -0.5401
  317SOL     OW  949   1.188   0.644   2.787 -0.7770  0.4610  0.0278
  317SOL    HW1  950   1.138   0.709   2.853  1.8823 -0.3149 -2.4602
  317SOL    HW2  951   1.121   0.569   2.756 -1.4993 -2.8251 -0.6373
  318SOL     OW  952   1.435   3.088   2.232 -0.1368  0.1454 -0.2035
  318SOL    HW1  953   1.402   3.185   2.211 -1.4124  1.3174  1.9779
  318SOL    HW2  954   1.395   3.013   2.173  0.1893 -1.3084 -1.0605
  319SOL     OW  955   0.606   2.334   2.914  0.5770 -0.2133 -0.6765
  319SOL    HW1  956   0.567   2.291   2.998 -2.1609 -3.1070 -0.2648
  319SOL    HW2  957   0.644   2.257   2.856  1.4204 -1.5866 -1.7314
  320SOL     OW  958   1.707   2.231   0.413 -0.2584  0.0537 -0.2193
  320SOL    HW1  959   1.792   2.187   0.376 -1.2022  0.0941 -1.7809
  320SOL    HW2  960   1.662   2.178   0.491 -4.6425 -1.6749  3.0699
  321SOL     OW  961   1.674   2.756   0.571  0.1179  0.2715  0.3521
  321SOL    HW1  962   1.587   2.798   0.529 -0.5140  1.8258  1.0244
  321SOL    HW2  963   1.760   2.778   0.524 -2.4944 -3.3252 -0.8972
  322SOL     OW  964   2.598   1.124   2.343 -0.1745  0.2283 -0.7067
  322SOL    HW1  965   2.691   1.111   2.393  1.1467 -0.3208 -0.3071
  322SOL    HW2  966   2.534   1.045   2.345 -1.5356 -1.0259  0.8801
  323SOL     OW  967   1.153   2.673   0.831  0.0854 -0.7192 -0.6494
  323SOL    HW1  968   1.112   2.657   0.736  0.5534  2.6896  2.8494
  323SOL    HW2  969   1.154   2.771   0.852  1.1329 -4.0315 -0.5440
  324SOL     OW  970   0.267   2.504   2.462 -0.0202  0.4933 -0.2450
  324SOL    HW1  971   0.222   2.454   2.538 -1.4584 -0.6771 -1.3169
  324SOL    HW2  972   0.277   2.603   2.487 -2.6471 -0.3930  0.6858
  325SOL     OW  973   1.271   2.994   0.498 -0.1396 -0.1776 -0.6578
  325SOL    HW1  974   1.266   3.032   0.405  0.1950 -0.9044  1.5155
  325SOL    HW2  975   1.270   3.070   0.570  3.0146 -1.8164  0.2912
  326SOL     OW  976   2.445   0.788   0.001  0.4340 -0.1558  0.1269
  326SOL    HW1  977   2.364   0.742  -0.042  1.0927  1.9901  0.9151
  326SOL    HW2  978   2.509   0.723   0.043 -4.2224 -1.1933 -1.7043
  327SOL     OW  979   2.811   0.304   0.555 -0.2322 -0.0457 -0.5456
  327SOL    HW1  980   2.784   0.256   0.462 -1.7264 -1.2959  0.1413
  327SOL    HW2  981   2.815   0.244   0.643 -1.8470  0.3538  1.7481
  328SOL     OW  982   2.605   0.611   0.420 -0.1264 -0.3325  0.0534
  328SOL    HW1  983   2.636   0.707   0.441  4.1704 -2.4854 -1.9644
  328SOL    HW2  984   2.574   0.555   0.502  0.2234  1.0523  2.2263
  329SOL     OW  985   2.913   2.947   2.133 -0.2764 -0.1899 -0.4807
  329SOL    HW1  986   2.992   2.901   2.188 -0.7457 -0.5530  1.5910
  329SOL    HW2  987   2.939   3.041   2.097  1.6042 -1.4012 -0.0768
  330SOL     OW  988   0.586   0.188   1.918 -0.0170 -0.6077  0.5136
  330SOL    HW1  989   0.670   0.171   1.855  1.9391  1.8050 -1.4353
  330SOL    HW2  990   0.587   0.115   1.994  0.3550 -2.0516  1.1489
  331SOL     OW  991   3.016   1.939   1.079  0.0817 -0.3697 -0.2378
  331SOL    HW1  992   2.969   1.915   0.991 -2.2715  1.5442 -0.8561
  331SOL    HW2  993   2.944   1.922   1.157 -0.5530  0.4073  1.2906
  332SOL     OW  994   0.384   1.194   0.071 -0.3457 -0.0945  0.0235
  332SOL    HW1  995   0.328   1.116   0.024  2.4088 -0.9543 -1.0494
  332SOL    HW2  996   0.377   1.206   0.174  1.9400 -0.5597  0.1509
  333SOL     OW  997   2.925   0.988   0.303  0.4855  0.2154  0.3142
  333SOL    HW1  998   2.979   1.061   0.345  0.2535  1.0922  0.4833
  333SOL    HW2  999   2.980   0.917   0.262 -2.0381  0.7992  1.3619
  334SOL     OW 1000   1.695   1.277   1.804  0.5277  0.1926 -0.0377
  334SOL    HW1 1001   1.745   1.261   1.711  1.5508  0.3074  0.6581
  334SOL    HW2 1002   1.757   1.269   1.889 -0.9809 -0.0053 -0.4629
  335SOL     OW 1003   1.988   2.740   2.579  0.2508  0.4779  0.1925
  335SOL    HW1 1004   1.932   2.743   2.666 -1.7877  0.4366  0.3375
  335SOL    HW2 1005   2.077   2.792   2.580  0.1439  1.9560  1.8457
  336SOL     OW 1006   0.258   0.035   2.721  0.1738 -0.5211  0.2525
  336SOL    HW1 1007   0.340   0.038   2.790  0.1743  2.2555  1.7240
  336SOL    HW2 1008   0.167   0.028   2.768  2.5201 -0.6210  0.6742
  337SOL     OW 1009   0.985   2.929   2.936  0.0651  0.3387  0.9592
  337SOL    HW1 1010   0.944   2.865   3.005  1.5427  0.6046 -2.0678
  337SOL    HW2 1011   1.078   2.959   2.956  0.3388 -2.2981 -0.1319
  338SOL     OW 1012   0.068   0.990   0.699 -0.1874  0.1678 -0.0284
  338SOL    HW1 1013  -0.031   0.959   0.723 -0.9738 -0.2214  0.9779
  338SOL    HW2 1014   0.070   1.093   0.685 -1.2538 -0.6456  1.3426
  339SOL     OW 1015   1.714   1.343   2.143  0.1386  0.4358  0.4335
  339SOL    HW1 1016   1.616   1.370   2.167 -2.2171 -1.2407  4.2062
  339SOL    HW2 1017   1.775   1.426   2.164  3.3145  2.7051 -2.8157
  340SOL     OW 1018   2.293   0.751   1.166 -0.2693  0.0703  0.0605
  340SOL    HW1 1019   2.199   0.793   1.147 -0.3609  1.4872 -0.4175
  340SOL    HW2 1020   2.309   0.662   1.122 -2.7352  0.3586  0.2394
  341SOL     OW 1021   1.945   2.116   0.321 -0.2980  0.2307  0.1895
  341SOL    HW1 1022   1.963   2.160   0.226  1.6152  0.3313 -0.5426
  341SOL    HW2 1023   2.032   2.079   0.368  0.9796 -0.9907  2.2326
  342SOL     OW 1024   2.147   2.133   2.781 -0.2078  0.0064 -0.3875
  342SOL    HW1 1025   2.200   2.047   2.805  1.9924 -0.0350  0.2014
  342SOL    HW2 1026   2.058   2.118   2.733  0.5194 -1.5218  0.4964
  343SOL     OW 1027   0.400   0.795   2.778  0.0590 -0.1325 -0.3040
  343SOL    HW1 1028   0.422   0.833   2.687 -1.2304  0.1311  1.7675
  343SOL    HW2 1029   0.481   0.786   2.844  1.9104  0.5479 -0.8175
  344SOL     OW 1030   1.911   1.494   0.420 -0.8071 -0.1937 -0.8197
  344SOL    HW1 1031   1.895   1.417   0.352 -1.7086 -1.4112  0.9634
  344SOL    HW2 1032   1.821   1.532   0.461  0.4943  2.3286  2.5832
  345SOL     OW 1033   1.381   2.255   2.860  0.5468 -0.1214  0.1512
  345SOL    HW1 1034   1.297   2.244   2.803  0.2334  0.6830  0.7916
  345SOL    HW2 1035   1.438   2.168   2.836 -1.1654 -0.5436 -1.9672
  346SOL     OW 1036   2.335   0.920   1.396 -0.2334  0.5164  0.2707
  346SOL    HW1 1037   2.278   1.005   1.418  2.6186  0.9147 -0.5176
  346SOL    HW2 1038   2.320   0.875   1.301  0.6088 -1.2974  1.8723
  347SOL     OW 1039   0.744   2.730   1.637  0.0826 -0.3666  0.2054
  347SOL    HW1 1040   0.675   2.718   1.717  0.0506 -0.4463 -1.1723
  347SOL    HW2 1041   0.741   2.820   1.590 -0.6897 -0.3837 -1.4628
  348SOL     OW 1042   0.175   0.770   2.923  0.5151  0.5505 -0.2892
  348SOL    HW1 1043   0.088   0.737   2.876  0.8190  0.7076  0.2651
  348SOL    HW2 1044   0.252   0.763   2.859 -0.7694 -2.7267  0.7414
  349SOL     OW 1045   1.853   0.420   2.771 -0.3802  0.0153 -0.0668
  349SOL    HW1 1046   1.856   0.505   2.712 -2.2353  0.6761  3.2831
  349SOL    HW2 1047   1.843   0.451   2.873 -3.2774  0.6953  0.5708
  350SOL     OW 1048   1.651   0.401   0.377  0.1005 -0.4582 -0.4810
  350SOL    HW1 1049   1.740   0.393   0.434  1.8159 -0.0781 -0.2346
  350SOL    HW2 1050   1.632   0.496   0.342 -1.3098  2.6544  1.9365
  351SOL     OW 1051   0.963   0.853   2.085 -0.2665  0.1612 -0.0004
  351SOL    HW1 1052   0.994   0.957   2.074  1.1053  0.4869 -3.8032
  351SOL    HW2 1053   1.002   0.797   2.009 -1.6664 -0.9864  1.2593
  352SOL     OW 1054   2.071   1.360   0.590  0.6612  0.4229 -0.5528
  352SOL    HW1 1055   2.010   1.422   0.534 -2.0602  1.7863  1.5088
  352SOL    HW2 1056   2.020   1.339   0.676 -0.9299  1.6670 -2.4944
  353SOL     OW 1057   2.186   2.810   1.075  0.1947  0.8854 -0.7209
  353SOL    HW1 1058   2.245   2.755   1.142 -0.0684 -0.9475  0.7519
  353SOL    HW2 1059   2.093   2.762   1.059 -1.5798 -2.4760  1.3334
  354SOL     OW 1060   0.279   1.412   2.844  0.1225  0.5432  0.2945
  354SOL    HW1 1061   0.262   1.498   2.792 -1.6635  1.2139 -0.2345
  354SOL    HW2 1062   0.377   1.401   2.874 -0.2955  0.0168 -0.2287
  355SOL     OW 1063   0.741   1.595   0.593  0.3783  0.0198 -0.2326
  355SOL    HW1 1064   0.704   1.534   0.671  0.3609 -4.0849 -1.9673
  355SOL    HW2 1065   0.716   1.556   0.502 -0.6704  0.2754 -0.1253
  356SOL     OW 1066   0.849   0.328   2.049  0.0784 -0.2130 -0.2720
  356SOL    HW1 1067   0.955   0.301   2.038  2.0430 -0.0011  0.1154
  356SOL    HW2 1068   0.788   0.266   1.991  1.1594 -0.1188  0.7921
  357SOL     OW 1069   0.999   1.327   0.374  0.9663 -0.3906 -0.2160
  357SOL    HW1 1070   1.086   1.318   0.320  1.2802  1.3721 -2.7358
  357SOL    HW2 1071   0.956   1.233   0.379  2.0403 -1.0217  0.0485
  358SOL     OW 1072   1.633   1.542   0.492  0.4416 -0.0583 -0.0532
  358SOL    HW1 1073   1.627   1.474   0.564 -0.2323  0.4470 -0.3263
  358SOL    HW2 1074   1.606   1.508   0.400  0.2739  0.9516 -1.1207
  359SOL     OW 1075   1.613   2.627   0.246  0.0339 -0.2337  0.2331
  359SOL    HW1 1076   1.600   2.528   0.213  1.4815  0.1757  0.4252
  359SOL    HW2 1077   1.531   2.665   0.290 -1.9562  1.9528 -0.6780
  360SOL     OW 1078   0.766   0.548   0.543  0.0814  0.0148 -0.2466
  360SOL    HW1 1079   0.664   0.547   0.529  3.7521 -1.6832  3.0032
  360SOL    HW2 1080   0.798   0.452   0.553 -1.7367  0.6151  1.0267
  361SOL     OW 1081   1.300   1.274   0.657  0.2876 -0.2679 -0.1780
  361SOL    HW1 1082   1.374   1.328   0.707 -1.3036 -2.7175 -1.0514
  361SOL    HW2 1083   1.208   1.322   0.660  1.4933  0.3095 -1.5448
  362SOL     OW 1084   1.383   1.754   0.753  0.0224 -0.0196 -0.5610
  362SOL    HW1 1085   1.457   1.699   0.800 -1.0527 -0.4369 -0.8063
  362SOL    HW2 1086   1.401   1.769   0.652 -0.3493 -1.0506  0.1338
  363SOL     OW 1087   1.247   1.332   2.078 -0.4053 -0.3366 -0.1049
  363SOL    HW1 1088   1.336   1.394   2.073  0.4033  0.4503 -0.5838
  363SOL    HW2 1089   1.159   1.383   2.053 -1.4028 -1.1995 -0.2468
  364SOL     OW 1090   0.519   2.361   2.019 -0.3005 -0.0630  0.3866
  364SOL    HW1 1091   0.425   2.409   2.025 -1.3135  0.2159 -0.4420
  364SOL    HW2 1092   0.574   2.399   1.940  0.4941  0.2627  2.1734
  365SOL     OW 1093   1.030   1.963   1.335  0.0215  0.0156  0.3225
  365SOL    HW1 1094   0.943   2.001   1.374  0.8675  0.3653  0.2687
  365SOL    HW2 1095   1.033   1.968   1.231  0.6978  1.0020 -0.3615
  366SOL     OW 1096   2.843   1.945   0.363  0.2508 -0.1243 -0.1486
  366SOL    HW1 1097   2.788   1.897   0.439 -1.1147 -0.1745  0.4306
  366SOL    HW2 1098   2.897   1.877   0.306 -0.7718  2.2344  1.8315
  367SOL     OW 1099   0.971   1.188   0.019  0.5587  0.3420  0.4312
  367SOL    HW1 1100   0.948   1.142   0.107  0.0375 -1.0342 -0.5244
  367SOL    HW2 1101   1.063   1.232   0.010 -1.8131  1.6382 -0.9249
  368SOL     OW 1102   1.419   0.540   0.628  0.0773 -0.3409 -0.5270
  368SOL    HW1 1103   1.347   0.567   0.560  2.3143 -1.5128  1.3137
  368SOL    HW2 1104   1.508   0.586   0.614 -1.0162 -1.3721  4.9127
  369SOL     OW 1105   0.372   1.752   0.166  0.3524  0.3550  0.3274
  369SOL    HW1 1106   0.410   1.819   0.235 -1.1174  1.1236  1.4165
  369SOL    HW2 1107   0.309   1.678   0.208 -0.3102  0.4888  2.4084
  370SOL     OW 1108   0.438   2.063   1.053  0.2363  0.7360 -0.5537
  370SOL    HW1 1109   0.450   2.166   1.029  1.0959 -0.6741 -0.2633
  370SOL    HW2 1110   0.352   2.019   1.012 -1.2122 -3.1353  0.2861
  371SOL     OW 1111   2.879   2.205   2.609 -0.6010  0.0952  0.2791
  371SOL    HW1 1112   2.803   2.143   2.643  0.2339  2.0270 -0.5787
  371SOL    HW2 1113   2.934   2.252   2.682  0.6801 -0.9611 -2.1496
  372SOL     OW 1114   1.049   2.044   1.007  0.7593  0.4560 -0.1945
  372SOL    HW1 1115   0.960   2.073   0.962  1.3300  1.1547 -0.8007
  372SOL    HW2 1116   1.133   2.086   0.958  2.1962 -0.7197 -1.7218
  373SOL     OW 1117   1.945   1.920   0.920 -0.7748 -0.3184  0.9549
  373SOL    HW1 1118   2.042   1.946   0.946 -2.4659  1.7022  2.0248
  373SOL    HW2 1119   1.877   1.996   0.911  2.2530  0.7202  0.6863
  374SOL     OW 1120   1.866   0.386   0.554 -0.0539  0.2210  0.3697
  374SOL    HW1 1121   1.842   0.386   0.658 -0.1444 -0.0782 -2.1617
  374SOL    HW2 1122   1.970   0.375   0.542  1.1395 -0.8910 -1.3143
  375SOL     OW 1123   2.401   2.157   1.087 -0.0705  0.0094  0.2358
  375SOL    HW1 1124   2.448   2.127   0.996  0.2960  0.1198 -0.5114
  375SOL    HW2 1125   2.469   2.152   1.168  1.1249  1.3422  0.0150
  376SOL     OW 1126   3.024   0.516   1.485  0.1112 -0.3379 -0.2421
  376SOL    HW1 1127   2.999   0.580   1.566 -0.0727  2.2020  2.1230
  376SOL    HW2 1128   2.945   0.457   1.459  1.2261 -0.2139  0.5507
  377SOL     OW 1129   2.172   2.910   0.310  0.0896  0.1416  0.0498
  377SOL    HW1 1130   2.170   3.011   0.335  1.9601  0.7263 -0.4485
  377SOL    HW2 1131   2.262   2.869   0.335 -1.0490 -1.1778  1.9899
  378SOL     OW 1132   1.738   1.853   2.540  0.0365  0.3040 -0.6677
  378SOL    HW1 1133   1.808   1.911   2.488  0.5825 -3.0708  1.6843
  378SOL    HW2 1134   1.741   1.759   2.497  0.1899  0.5335  0.3166
  379SOL     OW 1135   0.689   0.154   2.843  0.2347 -0.0796  0.0252
  379SOL    HW1 1136   0.729   0.063   2.811  0.1758 -0.0887  0.2091
  379SOL    HW2 1137   0.656   0.206   2.763  1.4652 -0.0585 -1.6374
  380SOL     OW 1138   1.548   1.135   0.592  0.9082  0.1835 -0.4689
  380SOL    HW1 1139   1.447   1.151   0.579 -0.6446 -0.1015 -0.9262
  380SOL    HW2 1140   1.566   1.034   0.612  1.2890  0.7806 -1.8834
  381SOL     OW 1141   1.344   1.198   1.574  0.1655  0.0387  0.1548
  381SOL    HW1 1142   1.382   1.124   1.515  0.2833  1.6956  0.4565
  381SOL    HW2 1143   1.409   1.244   1.642  1.6008  0.8399 -0.3848
  382SOL     OW 1144   1.817   0.894   0.189  0.4709 -0.1724  0.3041
  382SOL    HW1 1145   1.852   0.841   0.104 -0.7031 -1.8683 -0.5043
  382SOL    HW2 1146   1.886   0.886   0.268  0.3832 -0.7750  2.7297
  383SOL     OW 1147   2.581   1.006   1.469 -0.0020 -0.0835  0.2034
  383SOL    HW1 1148   2.487   0.980   1.440 -1.5310 -0.0176 -0.6625
  383SOL    HW2 1149   2.652   0.975   1.398  1.1723 -0.2123 -2.7823
  384SOL     OW 1150   0.942   2.225   0.154 -0.8284  0.1737  0.4692
  384SOL    HW1 1151   0.946   2.321   0.193 -0.1834 -0.7655  0.1565
  384SOL    HW2 1152   0.892   2.158   0.219  0.8126 -0.9377  2.5750
  385SOL     OW 1153   2.966   2.007   1.659 -0.0066 -0.1265  0.3782
  385SOL    HW1 1154   3.027   2.093   1.671 -1.1299 -1.4728 -0.4060
  385SOL    HW2 1155   3.011   1.915   1.654 -1.9769  1.9218 -2.4029
  386SOL     OW 1156   0.521   1.038   0.465  0.1986  0.6166  0.1255
  386SOL    HW1 1157   0.516   0.935   0.471  1.1343  4.6105 -1.7840
  386SOL    HW2 1158   0.429   1.077   0.435 -1.9827 -0.1016  0.9088
  387SOL     OW 1159   0.933   0.406   1.683 -0.7718  0.2503  0.0263
  387SOL    HW1 1160   0.980   0.502   1.683  1.9953 -0.2490 -0.0055
  387SOL    HW2 1161   0.966   0.356   1.600 -2.0104  0.3920  1.4326
  388SOL     OW 1162   1.205   2.713   1.743 -0.0832 -0.1014 -0.4759
  388SOL    HW1 1163   1.230   2.702   1.644 -1.2641  0.8222  0.2129
  388SOL    HW2 1164   1.239   2.636   1.802 -2.7631  0.9065 -2.3685
  389SOL     OW 1165   0.169   3.028   1.211  0.2049 -0.3451  0.4769
  389SOL    HW1 1166   0.069   3.063   1.230 -2.7030 -1.6228  1.8501
  389SOL    HW2 1167   0.172   2.925   1.212  0.3640 -1.6166  0.9807
  390SOL     OW 1168   1.034   0.978   1.322  0.0473 -0.2649 -0.4140
  390SOL    HW1 1169   1.121   0.970   1.383 -0.0708 -0.6098  0.9433
  390SOL    HW2 1170   0.968   1.046   1.365 -2.7679 -2.3649 -0.1014
  391SOL     OW 1171   2.182   1.124   1.080  0.6945  0.1497  0.0290
  391SOL    HW1 1172   2.125   1.042   1.114  1.4327  1.0700  1.6480
  391SOL    HW2 1173   2.223   1.101   0.991 -1.6937 -0.4166 -1.1791
  392SOL     OW 1174   0.852   2.678   3.085  0.1723 -0.3792 -0.4118
  392SOL    HW1 1175   0.896   2.597   3.045  2.5460 -2.2462 -1.6792
  392SOL    HW2 1176   0.879   2.697   3.183 -1.6942  0.0183  0.1395
  393SOL     OW 1177   0.397   0.577   1.969  0.5634  0.3250 -0.0307
  393SOL    HW1 1178   0.324   0.499   1.977 -0.2183  1.0160  0.9498
  393SOL    HW2 1179   0.473   0.560   1.900  2.4178  0.5636 -1.4646
  394SOL     OW 1180   2.956   1.880   2.782 -0.3535  0.8680  0.2682
  394SOL    HW1 1181   3.014   1.934   2.851 -0.5647  0.5207 -0.7512
  394SOL    HW2 1182   2.962   1.914   2.686  1.4372 -1.5547  1.6518
  395SOL     OW 1183   1.611   1.984   0.667 -0.2446 -0.1772 -0.0025
  395SOL    HW1 1184   1.663   1.924   0.598  1.3447  2.3854 -1.3465
  395SOL    HW2 1185   1.665   2.002   0.756 -2.2158  0.4058  0.5547
  396SOL     OW 1186   2.813   1.860   1.280 -0.2771 -0.2914 -0.1211
  396SOL    HW1 1187   2.831   1.758   1.301 -2.0635  1.4278  0.0440
  396SOL    HW2 1188   2.788   1.917   1.363  0.2667 -1.2949  1.1342
  397SOL     OW 1189   1.037   2.237   0.496  0.3476  0.2882  0.1102
  397SOL    HW1 1190   0.936   2.202   0.501  1.5775  0.7529  0.2938
  397SOL    HW2 1191   1.044   2.336   0.522 -0.7631  1.5272 -4.7462
  398SOL     OW 1192   2.155   3.101   1.018  0.4323 -0.1786  0.4405
  398SOL    HW1 1193   2.143   3.000   1.051  0.6251  0.6026 -1.3026
  398SOL    HW2 1194   2.072   3.161   1.036 -0.1863  0.2750  0.6365
  399SOL     OW 1195   3.047   2.472   2.514  0.1707 -0.0414  0.5663
  399SOL    HW1 1196   2.951   2.445   2.471  1.0885 -1.2032 -1.2758
  399SOL    HW2 1197   3.071   2.413   2.593  0.2412 -0.4495 -0.8659
  400SOL     OW 1198   0.778   1.623   1.330  0.1828 -0.0200  0.0723
  400SOL    HW1 1199   0.764   1.671   1.425 -1.5596  1.9529 -0.5893
  400SOL    HW2 1200   0.730   1.669   1.255  1.5384 -0.3349 -0.7949
  401SOL     OW 1201   1.847   0.078   1.307  0.2700 -0.1920  0.1585
  401SOL    HW1 1202   1.926   0.097   1.378  1.8888  0.4915  1.0126
  401SOL    HW2 1203   1.751   0.090   1.349  1.2183  1.2577 -0.4854
  402SOL     OW 1204   1.313   0.156   3.077 -0.3989 -0.5175  0.3377
  402SOL    HW1 1205   1.404   0.128   3.038  1.7594  1.1187 -1.0855
  402SOL    HW2 1206   1.293   0.259   3.070  0.1048  0.4089  0.1752
  403SOL     OW 1207   2.283   1.748   0.948  0.5806 -0.0361  0.6667
  403SOL    HW1 1208   2.382   1.726   0.966 -0.3386  1.3522  1.7804
  403SOL    HW2 1209   2.251   1.828   1.002 -3.6541  1.0408 -0.6453
  404SOL     OW 1210   0.168   2.513   2.788 -0.3645 -0.0129  0.1167
  404SOL    HW1 1211   0.264   2.470   2.777  0.2352  1.0056  0.4178
  404SOL    HW2 1212   0.170   2.613   2.827  0.8314  2.0926  0.4765
  405SOL     OW 1213   0.134   2.414   0.733 -0.0673  0.4424 -0.1902
  405SOL    HW1 1214   0.116   2.413   0.633  1.9608  0.0701  3.6836
  405SOL    HW2 1215   0.222   2.467   0.755  0.1880  0.4943  0.8304
  406SOL     OW 1216   0.090   1.522   3.052  0.6429 -0.3047  0.0105
  406SOL    HW1 1217   0.168   1.488   3.004 -0.4747  1.6434  2.4858
  406SOL    HW2 1218   0.113   1.543   3.155 -1.8429  0.2268  1.7941
  407SOL     OW 1219   1.519   0.962   1.004  0.1540 -0.7025  0.3234
  407SOL    HW1 1220   1.494   0.947   0.909  0.4266 -0.7009  2.0220
  407SOL    HW2 1221   1.444   1.028   1.045 -1.9936 -1.5517 -1.0074
  408SOL     OW 1222   1.613   2.404   0.959  0.1157  0.8359 -0.2968
  408SOL    HW1 1223   1.668   2.374   0.873  1.5069  0.3512  0.2465
  408SOL    HW2 1224   1.556   2.488   0.943 -1.0653 -2.5179 -0.8037
  409SOL     OW 1225   0.606   0.849   0.733 -0.1304 -0.7694  0.4058
  409SOL    HW1 1226   0.542   0.841   0.649 -0.0163 -0.5011 -3.6048
  409SOL    HW2 1227   0.633   0.759   0.779  0.9812 -0.9888 -0.9601
  410SOL     OW 1228   1.319   2.076   1.418 -0.3710  0.0788 -0.1584
  410SOL    HW1 1229   1.377   2.006   1.479  1.4866 -2.7614  1.6499
  410SOL    HW2 1230   1.248   2.026   1.363  3.1047 -0.0423 -1.2716
  411SOL     OW 1231   2.594   1.897   3.042  0.6348  0.1677  0.1126
  411SOL    HW1 1232   2.517   1.944   2.988 -2.8175 -0.6383  1.6367
  411SOL    HW2 1233   2.633   1.815   2.992 -1.5815 -1.5407 -0.7669
  412SOL     OW 1234   1.461   2.460   2.167  0.3563 -0.1520 -0.0480
  412SOL    HW1 1235   1.509   2.537   2.218 -2.6429 -0.3669  0.1478
  412SOL    HW2 1236   1.374   2.429   2.213  1.7253 -0.2306 -0.9776
  413SOL     OW 1237   3.038   0.232   2.949 -0.0419 -0.8359 -0.2541
  413SOL    HW1 1238   3.001   0.138   2.978 -1.8036  0.0104 -1.3392
  413SOL    HW2 1239   3.142   0.241   2.927  0.5989  0.5555 -1.8242
  414SOL     OW 1240   1.847   1.508   1.192  0.5083  0.6630 -0.2147
  414SOL    HW1 1241   1.769   1.570   1.187  2.0686  0.2522  2.1187
  414SOL    HW2 1242   1.817   1.405   1.192  3.1754 -1.1250 -0.8559
  415SOL     OW 1243   0.355   2.231   0.686 -0.3815  0.5144 -0.2107
  415SOL    HW1 1244   0.288   2.306   0.671 -0.4318  2.6716  0.4921
  415SOL    HW2 1245   0.340   2.174   0.769 -0.1054  2.3560 -1.8373
  416SOL     OW 1246   0.379   1.029   1.064  0.0900  0.6687 -0.2429
  416SOL    HW1 1247   0.363   0.983   0.976  1.9545  2.6397  0.8954
  416SOL    HW2 1248   0.463   1.086   1.066 -1.9081 -0.9374  0.7378
  417SOL     OW 1249   2.229   2.333   2.011  0.1521 -0.4272  0.3954
  417SOL    HW1 1250   2.313   2.268   2.018  0.9802 -0.8429  4.4191
  417SOL    HW2 1251   2.145   2.283   1.980 -1.9361 -0.5014  0.5469
  418SOL     OW 1252   1.085   0.534   1.355 -0.1194  0.4305  0.1656
  418SOL    HW1 1253   1.009   0.543   1.279 -0.5604  0.3431  2.0099
  418SOL    HW2 1254   1.180   0.553   1.315  0.5183 -0.1791 -0.8254
  419SOL     OW 1255   0.923   0.477   3.009  0.6673  0.5566 -0.1495
  419SOL    HW1 1256   0.862   0.470   2.927 -2.3098  1.3515 -0.6850
  419SOL    HW2 1257   0.948   0.574   3.036 -1.9829  3.1470  2.6139
  420SOL     OW 1258   0.096   2.259   0.464  0.0755 -0.0525  0.6369
  420SOL    HW1 1259   0.122   2.197   0.386  0.5317  0.0144 -1.1510
  420SOL    HW2 1260   0.014   2.222   0.515  2.3450 -0.7527  2.6161
  421SOL     OW 1261   0.353   3.017   0.656 -0.5461 -0.4806 -0.0428
  421SOL    HW1 1262   0.358   2.935   0.716 -0.3500  0.0389 -1.7868
  421SOL    HW2 1263   0.446   3.056   0.636 -0.5314  2.7928 -0.6802
  422SOL     OW 1264   1.057   2.494   1.033 -0.1269  0.4944  0.4692
  422SOL    HW1 1265   1.126   2.556   0.988  1.1657  0.6435  2.2651
  422SOL    HW2 1266   1.028   2.528   1.125  0.2937  2.2853 -0.6610
  423SOL     OW 1267   0.096   0.681   1.299  0.5198  0.2645 -0.2477
  423SOL    HW1 1268   0.041   0.629   1.379  0.8864  0.0196  1.5344
  423SOL    HW2 1269   0.064   0.781   1.291  0.6726  0.6168 -0.8372
  424SOL     OW 1270   0.989   2.223   2.034  0.2454  0.7338 -0.0535
  424SOL    HW1 1271   0.999   2.326   2.034 -1.2390 -0.5339 -0.1038
  424SOL    HW2 1272   0.967   2.191   2.133 -0.4154  1.2981  0.1827
  425SOL     OW 1273   2.019   1.330   0.985 -0.6408 -0.0086  0.4633
  425SOL    HW1 1274   2.100   1.272   1.020  0.8173 -0.2528  1.1574
  425SOL    HW2 1275   2.044   1.423   0.942  0.9900 -1.6643  1.6268
  426SOL     OW 1276   1.476   1.588   1.387  0.2021 -0.3658 -0.1686
  426SOL    HW1 1277   1.450   1.664   1.323 -2.5002  1.7861  1.2179
  426SOL    HW2 1278   1.429   1.600   1.480  1.2649 -1.2719 -3.1209
  427SOL     OW 1279   1.905   2.363   2.053  0.2081  0.2207  0.1958
  427SOL    HW1 1280   1.958   2.298   2.114  0.7741 -2.1390  1.0080
  427SOL    HW2 1281   1.939   2.463   2.061  0.5449 -0.6334  2.7001
  428SOL     OW 1282   0.845   3.092   0.167 -0.2196  0.8889 -0.4345
  428SOL    HW1 1283   0.822   3.164   0.098  0.6088  0.9168  0.0122
  428SOL    HW2 1284   0.940   3.065   0.169 -2.3101  1.1777 -0.8250
  429SOL     OW 1285   1.309   0.058   0.254 -0.1157  0.1447 -0.1460
  429SOL    HW1 1286   1.404   0.083   0.288 -1.0940 -0.5555  2.6679
  429SOL    HW2 1287   1.291   0.088   0.157 -0.3976  2.1626  0.7657
  430SOL     OW 1288   2.762   1.431   0.308 -0.0133 -0.0144  0.1387
  430SOL    HW1 1289   2.792   1.469   0.217  1.7248  1.3122 -0.9655
  430SOL    HW2 1290   2.816   1.469   0.391  0.0077 -0.8769 -0.5753
  431SOL     OW 1291   2.104   1.554   0.877  0.2502  0.2026 -0.5313
  431SOL    HW1 1292   2.176   1.617   0.918 -0.3916  1.3575  3.5329
  431SOL    HW2 1293   2.043   1.612   0.815 -0.7860 -2.1350  0.0926
  432SOL     OW 1294   2.849   2.241   1.249  0.6067  0.0934 -0.4844
  432SOL    HW1 1295   2.754   2.205   1.277 -0.4291 -1.0365  1.1273
  432SOL    HW2 1296   2.923   2.226   1.323 -1.2978 -0.5463  1.7319
  433SOL     OW 1297   1.850   0.368   0.850 -0.5027  0.1796 -0.1193
  433SOL    HW1 1298   1.769   0.363   0.912  0.2927  1.3065  1.9993
  433SOL    HW2 1299   1.916   0.283   0.858  2.7854 -1.8125 -0.5835
  434SOL     OW 1300   1.510   0.242   0.751  0.0826  0.1503 -0.7064
  434SOL    HW1 1301   1.464   0.324   0.718 -0.2415  2.2407  0.2297
  434SOL    HW2 1302   1.544   0.258   0.848 -3.2327 -0.0824  0.4554
  435SOL     OW 1303   1.470   1.484   2.107 -0.2082  0.0423 -0.8307
  435SOL    HW1 1304   1.455   1.571   2.169  0.9993  0.1078 -2.9607
  435SOL    HW2 1305   1.518   1.514   2.016 -0.7099  2.6995 -3.1406
  436SOL     OW 1306   1.705   2.737   2.230  0.4202 -0.2029  0.4227
  436SOL    HW1 1307   1.641   2.798   2.284 -1.0182 -3.3745  1.8222
  436SOL    HW2 1308   1.728   2.646   2.280  1.5100 -0.5985  0.6375
  437SOL     OW 1309   1.102   2.939   0.958  0.5832  0.5008  0.3803
  437SOL    HW1 1310   1.056   3.025   0.925 -1.3216  1.1346  0.4574
  437SOL    HW2 1311   1.101   2.934   1.062 -0.2868  3.0899  0.4355
  438SOL     OW 1312   0.997   2.597   1.308  0.2225 -0.1525  0.1338
  438SOL    HW1 1313   1.073   2.644   1.369 -1.6333  0.8343  1.7650
  438SOL    HW2 1314   0.993   2.494   1.317 -0.1122 -1.0345  0.6568
  439SOL     OW 1315   0.681   1.766   1.079 -0.0856  0.2895  0.0922
  439SOL    HW1 1316   0.685   1.855   1.023 -2.5280  2.2244  1.2074
  439SOL    HW2 1317   0.585   1.734   1.105  0.3187 -1.3184  0.7596
  440SOL     OW 1318   1.005   2.504   1.965  0.0683 -0.1012 -0.7580
  440SOL    HW1 1319   0.969   2.561   1.887 -0.5823 -2.3301 -0.9501
  440SOL    HW2 1320   1.112   2.516   1.963 -0.0978  2.5385 -2.3682
  441SOL     OW 1321   0.502   2.728   1.434  0.1860 -0.0229  0.1773
  441SOL    HW1 1322   0.573   2.659   1.452 -2.1287  0.7644 -0.0066
  441SOL    HW2 1323   0.411   2.680   1.402  0.9426  0.0221 -3.2180
  442SOL     OW 1324   2.287   0.695   2.495 -0.6579  0.3433  0.2468
  442SOL    HW1 1325   2.296   0.596   2.531 -0.4519 -1.4192  0.4051
  442SOL    HW2 1326   2.186   0.720   2.470 -0.3535  1.6386 -0.6696
  443SOL     OW 1327   1.254   2.703   2.142 -0.5058  0.4707  0.1022
  443SOL    HW1 1328   1.196   2.751   2.218  0.3428 -1.8985  0.4233
  443SOL    HW2 1329   1.288   2.609   2.162  1.1019  0.3862  3.4103
  444SOL     OW 1330   1.070   1.263   1.589 -0.4749  0.0742 -0.3839
  444SOL    HW1 1331   1.164   1.216   1.602 -0.4592 -1.2316 -1.0029
  444SOL    HW2 1332   1.063   1.359   1.636 -0.5090 -1.6315  2.3202
  445SOL     OW 1333   0.025   2.362   1.856 -0.5032  0.0209  0.3714
  445SOL    HW1 1334  -0.000   2.453   1.817 -2.1576  0.2750 -0.4969
  445SOL    HW2 1335  -0.047   2.330   1.922  0.9851  0.5430  0.5853
  446SOL     OW 1336   0.242   1.908   2.303 -0.6839  0.1429  0.2534
  446SOL    HW1 1337   0.204   1.984   2.363  0.5263 -0.0174 -0.6072
  446SOL    HW2 1338   0.181   1.866   2.229  1.5959  2.0345 -0.6320
  447SOL     OW 1339   1.172   1.680   1.938 -0.3024  0.0389  0.1960
  447SOL    HW1 1340   1.097   1.743   1.906  0.3096  0.3075 -2.8011
  447SOL    HW2 1341   1.264   1.730   1.946 -1.2642  2.2337  2.2342
  448SOL     OW 1342   0.169   1.538   2.038  0.4168  0.1585  0.3132
  448SOL    HW1 1343   0.161   1.620   1.974 -0.6547  1.1557  0.4041
  448SOL    HW2 1344   0.111   1.563   2.120  1.3108  0.4456 -3.2562
  449SOL     OW 1345   1.966   2.941   0.833  0.1561 -0.4707 -0.0948
  449SOL    HW1 1346   2.044   2.964   0.902  0.6910  0.9625 -1.4878
  449SOL    HW2 1347   1.965   2.842   0.790  1.6424 -2.2363  2.5740
  450SOL     OW 1348   2.346   1.361   0.737  0.1949 -0.5529  0.1033
  450SOL    HW1 1349   2.274   1.296   0.780  0.1932 -0.7724  1.2009
  450SOL    HW2 1350   2.304   1.434   0.680 -0.4542  1.2775  2.0461
  451SOL     OW 1351   1.319   3.056   1.438  0.0554  0.5451 -0.3244
  451SOL    HW1 1352   1.270   3.144   1.469  0.1936  2.2542  0.4380
  451SOL    HW2 1353   1.379   3.018   1.513  0.7826  0.5087  0.0871
  452SOL     OW 1354   2.680   2.286   2.168  0.1678  0.1376  0.3101
  452SOL    HW1 1355   2.633   2.367   2.214 -0.8053 -0.7264 -0.5920
  452SOL    HW2 1356   2.724   2.219   2.236  2.3596  0.1776 -1.4862
  453SOL     OW 1357   2.457   2.669   3.076 -0.3599 -0.0444 -0.6991
  453SOL    HW1 1358   2.355   2.692   3.086  2.2605 -2.4576 -1.6526
  453SOL    HW2 1359   2.471   2.590   3.009 -1.4096  0.8929  1.2488
  454SOL     OW 1360   1.035   1.107   2.066  0.2267 -0.3284 -0.2800
  454SOL    HW1 1361   1.007   1.118   1.967 -0.5773  0.6200 -0.9865
  454SOL    HW2 1362   1.117   1.168   2.084  0.5286  0.2290  1.5581
  455SOL     OW 1363   0.623   2.602   2.890 -0.5105 -0.1659  0.2952
  455SOL    HW1 1364   0.695   2.650   2.951  0.5978  2.6460  0.8816
  455SOL    HW2 1365   0.628   2.498   2.889  2.1561  0.4457 -0.7718
  456SOL     OW 1366   0.491   1.917   0.336  0.0464 -0.5268  0.4274
  456SOL    HW1 1367   0.585   1.890   0.367 -0.0713  0.6269  1.5007
  456SOL    HW2 1368   0.492   2.019   0.315 -0.2833  2.1669  0.2439
  457SOL     OW 1369   0.339   2.615   0.698  0.5274  0.2807  0.7830
  457SOL    HW1 1370   0.353   2.628   0.599  1.0753 -1.5228 -2.4050
  457SOL    HW2 1371   0.425   2.625   0.753 -0.5301  0.4367  0.5009
  458SOL     OW 1372   2.956   0.001   1.205 -0.1577  0.4813 -0.0857
  458SOL    HW1 1373   2.977   0.098   1.231 -0.0601 -1.6314  0.5322
  458SOL    HW2 1374   2.952  -0.009   1.106 -1.8472 -1.1752 -0.0825
  459SOL     OW 1375   2.195   2.541   0.814 -0.1846 -0.6154  0.5520
  459SOL    HW1 1376   2.219   2.643   0.822 -1.4032 -2.6291 -1.5331
  459SOL    HW2 1377   2.273   2.492   0.762 -0.8593 -0.3915 -1.0470
  460SOL     OW 1378   1.126   1.972   2.897 -0.0729 -0.1794  0.3148
  460SOL    HW1 1379   1.157   2.038   2.823 -2.0679  0.9073  3.0152
  460SOL    HW2 1380   1.206   1.914   2.933 -1.2604  1.8883  0.9965
  461SOL     OW 1381   0.509   2.104   2.670 -0.2551  0.4703  0.4744
  461SOL    HW1 1382   0.450   2.027   2.633  0.0283 -0.5348 -0.6313
  461SOL    HW2 1383   0.557   2.070   2.754 -1.3322  0.2445 -0.7674
  462SOL     OW 1384   0.915   1.095   1.825  0.0898  1.0891  0.4034
  462SOL    HW1 1385   0.976   1.022   1.775  0.9020  0.3652 -0.3161
  462SOL    HW2 1386   0.890   1.176   1.769  1.6014 -1.0811 -0.4568
  463SOL     OW 1387   0.462   0.780   0.505 -0.6372 -0.5074  0.2964
  463SOL    HW1 1388   0.476   0.686   0.458  2.8527 -2.7970  1.8066
  463SOL    HW2 1389   0.367   0.803   0.526  1.8967  0.5338  1.0549
  464SOL     OW 1390   0.578   2.256   2.261  0.0220 -0.6288  0.6815
  464SOL    HW1 1391   0.556   2.322   2.342  2.1246 -0.5871  0.4206
  464SOL    HW2 1392   0.539   2.291   2.169 -2.2585 -1.3502 -0.8225
  465SOL     OW 1393   0.311   0.932   0.813 -0.4208  0.6828  0.2022
  465SOL    HW1 1394   0.218   0.966   0.780  0.5489 -1.2805 -0.7423
  465SOL    HW2 1395   0.319   0.829   0.794  0.1972 -2.4977 -1.2757
  466SOL     OW 1396   1.365   1.146   1.101  0.0298  0.7681  0.9741
  466SOL    HW1 1397   1.425   1.231   1.106 -1.2260  0.2431  1.8900
  466SOL    HW2 1398   1.272   1.171   1.128  1.0640  0.1487  2.7138
  467SOL     OW 1399   0.488   0.297   2.357 -0.0498  0.0446  0.0375
  467SOL    HW1 1400   0.447   0.392   2.370 -0.7353 -2.5521  1.9132
  467SOL    HW2 1401   0.484   0.235   2.442  1.4866  1.5502 -0.0574
  468SOL     OW 1402   0.473   2.309   1.681 -0.0059  0.2402  0.1146
  468SOL    HW1 1403   0.554   2.359   1.721  1.6949  1.1760  2.3010
  468SOL    HW2 1404   0.450   2.333   1.583  1.6014 -0.1446 -1.3339
  469SOL     OW 1405   1.514   1.342   1.237 -0.3374 -0.1586  0.5247
  469SOL    HW1 1406   1.603   1.290   1.235 -1.7746 -0.7530  3.4922
  469SOL    HW2 1407   1.512   1.434   1.294  0.4329  1.4576 -1.3905
  470SOL     OW 1408   3.027   1.671   0.793  0.3602  0.3377 -0.1773
  470SOL    HW1 1409   3.113   1.717   0.757 -0.1996  1.4818  0.9005
  470SOL    HW2 1410   2.990   1.713   0.877  0.2445  1.1271 -2.9093
  471SOL     OW 1411   2.647   1.331   2.158  0.0889  0.2840  0.2171
  471SOL    HW1 1412   2.626   1.255   2.229 -2.1724  1.3546  0.5339
  471SOL    HW2 1413   2.743   1.366   2.166  0.1019 -0.3601 -1.2049
  472SOL     OW 1414   1.140   2.506   3.062 -0.1101 -0.2768  0.0156
  472SOL    HW1 1415   1.175   2.499   3.162 -0.6416  0.7329  0.7649
  472SOL    HW2 1416   1.112   2.411   3.027  1.1974  0.0891 -1.5471
  473SOL     OW 1417   1.080   1.501   0.990 -1.0910 -0.0326 -0.5599
  473SOL    HW1 1418   0.983   1.521   1.017  1.8800 -1.5900  0.6461
  473SOL    HW2 1419   1.145   1.500   1.074  1.5730  1.3257  1.6483
  474SOL     OW 1420   0.707   1.241   0.602 -0.0231 -0.5446  0.5983
  474SOL    HW1 1421   0.668   1.221   0.504  0.8382 -0.5168 -2.1528
  474SOL    HW2 1422   0.765   1.160   0.637  1.1301 -1.1616 -0.0630
  475SOL     OW 1423   2.837   0.143   0.758 -0.3479  0.7853  0.2397
  475SOL    HW1 1424   2.917   0.170   0.822  0.2662  0.5861  0.9589
  475SOL    HW2 1425   2.744   0.143   0.814 -2.9752  2.4011 -2.2940
  476SOL     OW 1426   0.859   2.971   1.770 -0.2597 -0.1082  0.1220
  476SOL    HW1 1427   0.934   2.939   1.834 -0.2125 -2.6678  0.0557
  476SOL    HW2 1428   0.882   2.945   1.671 -0.9290 -2.3364 -1.9257
  477SOL     OW 1429   1.442   0.340   2.493 -0.0333 -0.0432 -0.0290
  477SOL    HW1 1430   1.428   0.360   2.594  0.3550 -0.5663 -0.6040
  477SOL    HW2 1431   1.538   0.301   2.461  0.8225  0.5852 -0.8406
  478SOL     OW 1432   2.227   1.829   0.267  0.3343 -0.4870 -0.2361
  478SOL    HW1 1433   2.157   1.756   0.241  2.9033 -1.0796 -0.1923
  478SOL    HW2 1434   2.330   1.795   0.267  2.4516 -0.8043  1.0707
  479SOL     OW 1435   1.290   1.095   2.939  0.8529 -0.1002  0.4414
  479SOL    HW1 1436   1.347   1.106   2.847 -0.3650 -2.1909 -3.7185
  479SOL    HW2 1437   1.189   1.102   2.909 -2.0441  2.6201 -1.5911
  480SOL     OW 1438   2.515   2.315   0.381  0.2560  0.2423  0.1062
  480SOL    HW1 1439   2.475   2.221   0.400 -2.2838  4.0625 -0.0758
  480SOL    HW2 1440   2.469   2.366   0.302 -1.2251  0.3406  1.2039
  481SOL     OW 1441   1.024   1.149   0.841 -0.1173 -0.1701  0.3642
  481SOL    HW1 1442   1.029   1.224   0.770 -1.4076 -0.9172 -1.3559
  481SOL    HW2 1443   1.034   1.181   0.941  0.0473  3.6508 -0.6324
  482SOL     OW 1444   1.605   0.293   2.046  0.3144 -0.0359  0.2237
  482SOL    HW1 1445   1.619   0.398   2.024  0.0655  1.2927  0.6347
  482SOL    HW2 1446   1.685   0.254   2.092  1.0028 -0.0604  0.7030
  483SOL     OW 1447   0.165   2.327   1.237  0.5887  0.2351  0.4109
  483SOL    HW1 1448   0.077   2.325   1.295 -1.2400 -2.3764 -0.3895
  483SOL    HW2 1449   0.157   2.392   1.157 -0.8054  1.2003 -0.2416
  484SOL     OW 1450   1.735   1.055   1.388 -0.7652 -0.5870 -0.5074
  484SOL    HW1 1451   1.788   0.964   1.374 -1.2619 -1.7426 -3.4896
  484SOL    HW2 1452   1.761   1.108   1.475 -1.0177  0.0514  0.2614
  485SOL     OW 1453   0.637   1.048   1.825 -0.4247 -0.3200 -0.6155
  485SOL    HW1 1454   0.631   1.052   1.724  1.0385 -0.0660 -2.9472
  485SOL    HW2 1455   0.741   1.055   1.851  1.5542 -0.1823 -1.4778
  486SOL     OW 1456   0.896   1.917   2.467  0.6397  0.0384  0.3343
  486SOL    HW1 1457   0.951   1.879   2.549  3.9023 -0.8125  3.0259
  486SOL    HW2 1458   0.832   1.998   2.487 -2.2307  1.2627 -0.6066
  487SOL     OW 1459   1.806   1.578   0.917 -1.0921 -0.4533 -0.1393
  487SOL    HW1 1460   1.871   1.570   0.998  0.7999  1.3862  1.1220
  487SOL    HW2 1461   1.845   1.632   0.834 -1.2054 -1.8029  0.4725
  488SOL     OW 1462   2.932   0.863   2.261 -0.0298  0.3729 -0.2770
  488SOL    HW1 1463   2.969   0.776   2.213  1.4654 -1.2665  0.1234
  488SOL    HW2 1464   2.969   0.873   2.359 -1.2307  2.1442 -0.5799
  489SOL     OW 1465   2.774   0.260   1.295  0.1878 -0.1605  0.2674
  489SOL    HW1 1466   2.759   0.190   1.376 -0.6028  0.8300  0.8086
  489SOL    HW2 1467   2.871   0.266   1.259  1.9676 -3.3483 -1.1952
  490SOL     OW 1468   1.447   2.905   2.806  0.0184 -0.4648 -0.2690
  490SOL    HW1 1469   1.503   2.818   2.803  0.9888  2.1530  1.3728
  490SOL    HW2 1470   1.442   2.954   2.710 -1.7996  1.3891 -0.2267
  491SOL     OW 1471   1.818   1.470   2.607 -0.4720  0.1271  0.4909
  491SOL    HW1 1472   1.761   1.510   2.683 -2.3614 -0.4429  2.7571
  491SOL    HW2 1473   1.919   1.478   2.623 -0.6843  0.5518  0.0419
  492SOL     OW 1474   0.520   1.990   0.655  0.2039  0.1350  0.2758
  492SOL    HW1 1475   0.571   2.017   0.738 -1.3399  1.1084 -0.4451
  492SOL    HW2 1476   0.455   2.065   0.621 -0.4484  1.7698  2.9450
  493SOL     OW 1477   0.394   1.402   2.060 -0.1275 -0.0770  0.3201
  493SOL    HW1 1478   0.303   1.445   2.056  2.1890 -1.6763 -3.0581
  493SOL    HW2 1479   0.412   1.350   2.148 -0.5554 -0.0113  1.7951
  494SOL     OW 1480   2.633   2.751   0.211 -0.2008 -0.0227  0.0788
  494SOL    HW1 1481   2.631   2.672   0.277 -1.7912  1.5511  1.8396
  494SOL    HW2 1482   2.571   2.741   0.128  0.0091  0.5167  2.9271
  495SOL     OW 1483   2.784   2.664   2.673 -0.5618  0.2758 -0.2508
  495SOL    HW1 1484   2.725   2.580   2.654 -0.6759 -0.9892  0.2927
  495SOL    HW2 1485   2.819   2.710   2.587  1.3943 -0.7370  0.1572
  496SOL     OW 1486   2.028   2.227   0.706  0.0104 -0.4850  0.0363
  496SOL    HW1 1487   2.032   2.239   0.809 -1.0179  0.7361  0.5961
  496SOL    HW2 1488   2.096   2.158   0.663  0.8965 -0.1049 -0.9034
  497SOL     OW 1489   0.234   2.998   2.468 -0.0292 -0.3406 -0.4296
  497SOL    HW1 1490   0.199   3.085   2.518 -1.9573  0.4698 -0.1954
  497SOL    HW2 1491   0.274   3.012   2.372  1.6108  0.2414 -1.0320
  498SOL     OW 1492   1.236   1.418   1.223 -0.2279  0.2236 -0.2069
  498SOL    HW1 1493   1.335   1.382   1.224  0.8207  0.8921  0.3391
  498SOL    HW2 1494   1.222   1.508   1.266  0.1012 -1.1631  0.2347
  499SOL     OW 1495   0.718   1.862   0.501 -0.0278 -0.1346  0.2372
  499SOL    HW1 1496   0.741   1.777   0.558 -0.5745  0.5174  1.2919
  499SOL    HW2 1497   0.675   1.935   0.558  0.8697  0.8545  2.2794
  500SOL     OW 1498   1.464   2.948   1.638  0.3659  0.2797  0.0311
  500SOL    HW1 1499   1.422   2.945   1.732 -1.8974  0.5263  0.1211
  500SOL    HW2 1500   1.534   2.873   1.621  1.0054  2.1148 -2.2025
  501SOL     OW 1501   0.853   1.106   2.285 -0.0387 -0.0966 -0.1118
  501SOL    HW1 1502   0.770   1.041   2.278 -1.0179  2.5499  0.5637
  501SOL    HW2 1503   0.901   1.128   2.192  1.3504  0.2747 -2.4622
  502SOL     OW 1504   2.634   0.957   1.758  0.1698  0.3372  0.1834
  502SOL    HW1 1505   2.646   0.951   1.658 -0.8050  1.8656  2.0651
  502SOL    HW2 1506   2.563   0.885   1.791  0.1287 -2.3372 -0.4728
  503SOL     OW 1507   1.257   0.114   0.658  0.1232  0.9154  0.0902
  503SOL    HW1 1508   1.189   0.195   0.672 -0.5278  0.4399  3.3927
  503SOL    HW2 1509   1.347   0.144   0.616  1.6090 -2.0413 -0.4611
  504SOL     OW 1510   3.045   2.351   1.432  0.2406 -0.3807 -0.5022
  504SOL    HW1 1511   3.001   2.443   1.469 -1.0228  0.6294 -1.1861
  504SOL    HW2 1512   3.068   2.282   1.504 -2.3984  1.6421 -1.0958
  505SOL     OW 1513   2.266   1.169   1.498  0.1034 -0.3040  0.2922
  505SOL    HW1 1514   2.289   1.223   1.410  0.1594  2.1899 -0.6539
  505SOL    HW2 1515   2.329   1.199   1.579 -1.6249 -0.9944 -0.1441
  506SOL     OW 1516   1.985   0.156   1.787 -0.2774  0.4450 -0.4655
  506SOL    HW1 1517   2.076   0.101   1.795  1.9436 -2.5878  0.6517
  506SOL    HW2 1518   1.989   0.252   1.831 -0.2136  0.8243 -0.6435
  507SOL     OW 1519   0.544   0.702   2.159 -0.1148 -0.6903 -0.0256
  507SOL    HW1 1520   0.486   0.649   2.087 -3.6910  0.2573 -1.3526
  507SOL    HW2 1521   0.627   0.645   2.195 -2.0628  1.6969  1.8091
  508SOL     OW 1522   0.253   1.660   0.874  0.6573  0.0327  0.3174
  508SOL    HW1 1523   0.337   1.706   0.829  1.3650  1.0424  0.7563
  508SOL    HW2 1524   0.224   1.692   0.968 -0.8446 -1.8445 -1.9613
  509SOL     OW 1525   1.322   1.263   2.348 -0.0730 -0.0497  0.1584
  509SOL    HW1 1526   1.294   1.296   2.248 -1.7125  0.7166  0.7710
  509SOL    HW2 1527   1.363   1.174   2.338  3.0909  1.5371  2.8062
  510SOL     OW 1528   1.297   2.026   2.065  0.0826 -0.0460 -0.4009
  510SOL    HW1 1529   1.307   2.131   2.061  0.4511  0.7290 -0.0940
  510SOL    HW2 1530   1.215   1.994   2.116  3.0974  2.2361 -0.3387
  511SOL     OW 1531   3.086   2.728   1.298  0.1533  0.0933  1.1139
  511SOL    HW1 1532   3.070   2.688   1.205  0.8295 -1.2880  1.3519
  511SOL    HW2 1533   2.990   2.738   1.344 -1.6845 -3.4560  2.0137
  512SOL     OW 1534   2.357   0.414   1.389  0.1293 -0.4552  0.7259
  512SOL    HW1 1535   2.258   0.395   1.415 -0.4358 -0.9880  0.5041
  512SOL    HW2 1536   2.405   0.342   1.337 -0.1822  0.8152  0.0025
  513SOL     OW 1537   2.508   2.070   0.851  0.1710 -0.0571 -0.3131
  513SOL    HW1 1538   2.453   2.123   0.781 -1.7060  0.3797  0.7765
  513SOL    HW2 1539   2.577   2.013   0.796 -2.6068 -0.0088  0.2152
  514SOL     OW 1540   0.552   2.769   0.509 -0.2697  0.0587  0.1140
  514SOL    HW1 1541   0.602   2.794   0.422  0.9559 -0.2614  0.9523
  514SOL    HW2 1542   0.601   2.803   0.593  1.2888  0.6854  0.5661
  515SOL     OW 1543   2.038   1.110   2.282  0.2738 -0.2758 -0.5074
  515SOL    HW1 1544   2.019   1.158   2.195 -2.3607  1.1677  1.0225
  515SOL    HW2 1545   1.962   1.141   2.341 -1.0797  2.2482 -3.8386
  516SOL     OW 1546   0.280   0.289   1.911  0.1181 -0.7260 -0.0019
  516SOL    HW1 1547   0.340   0.285   1.828  2.5325 -2.4164 -1.7685
  516SOL    HW2 1548   0.190   0.246   1.894  0.6776 -2.2112 -0.0159
  517SOL     OW 1549   0.431   3.072   1.171 -0.2323 -0.4898  0.0787
  517SOL    HW1 1550   0.457   3.168   1.180 -1.3668  0.4895 -0.2711
  517SOL    HW2 1551   0.327   3.061   1.174 -2.8228  1.1677 -0.1910
  518SOL     OW 1552   2.228   0.026   1.810 -0.8417 -0.0663 -0.3241
  518SOL    HW1 1553   2.285   0.111   1.847  2.1184 -0.8648  0.3324
  518SOL    HW2 1554   2.281  -0.034   1.743 -0.6484 -2.1440 -0.8764
  519SOL     OW 1555   2.365   2.229   2.587 -0.2618  0.0456  0.2318
  519SOL    HW1 1556   2.287   2.200   2.653  1.7889 -1.6571  0.0317
  519SOL    HW2 1557   2.386   2.332   2.589  1.9456 -0.2776 -0.5234
  520SOL     OW 1558   1.782   2.837   1.870 -0.3743  0.7391 -0.2157
  520SOL    HW1 1559   1.683   2.817   1.907  0.7318 -0.7015  0.4324
  520SOL    HW2 1560   1.834   2.750   1.840  0.0308  1.7275  0.2363
  521SOL     OW 1561   0.573   0.024   2.145 -0.1708 -0.0343  0.3335
  521SOL    HW1 1562   0.477  -0.007   2.162 -0.0999 -2.4619  1.0140
  521SOL    HW2 1563   0.624   0.026   2.236  1.3954  0.3492  0.8541
  522SOL     OW 1564   0.211   1.921   1.448 -0.0354 -0.2077  0.1172
  522SOL    HW1 1565   0.261   1.982   1.517  2.7310  1.1328 -1.8350
  522SOL    HW2 1566   0.192   1.971   1.358  0.5151  0.0164 -0.3640
  523SOL     OW 1567   2.263   2.983   1.541  0.1049 -0.0622 -0.1526
  523SOL    HW1 1568   2.342   2.923   1.522 -0.9527  2.4893  0.7263
  523SOL    HW2 1569   2.171   2.931   1.531  1.1461  1.2135 -1.1611
  524SOL     OW 1570   0.175   2.794   2.820 -0.6847 -1.1377 -0.3316
  524SOL    HW1 1571   0.133   2.891   2.812  2.9196  1.8376  0.3420
  524SOL    HW2 1572   0.276   2.803   2.796  0.5633  0.9774 -1.3975
  525SOL     OW 1573   2.143   2.007   0.468 -0.2929 -0.2628  0.1241
  525SOL    HW1 1574   2.181   1.997   0.564  2.3710 -0.1554 -0.9256
  525SOL    HW2 1575   2.169   1.922   0.410  3.7137 -0.4500 -0.0076
  526SOL     OW 1576   0.409   1.557   1.682 -0.1917  0.4065  0.1681
  526SOL    HW1 1577   0.357   1.519   1.764  0.3348 -2.3611 -1.0412
  526SOL    HW2 1578   0.471   1.486   1.643 -0.6633 -0.1935  0.5080
  527SOL     OW 1579   1.101   2.949   1.226 -0.0396  0.3086 -0.0840
  527SOL    HW1 1580   1.176   2.911   1.285  0.2280 -1.8251 -0.1227
  527SOL    HW2 1581   1.104   3.054   1.222  1.4370  0.1676  0.0769
  528SOL     OW 1582   1.342   2.422   0.524  0.0625  0.0818 -0.5342
  528SOL    HW1 1583   1.369   2.323   0.533  1.0014  3.2413 -0.0016
  528SOL    HW2 1584   1.413   2.483   0.571 -1.1685  1.2520 -1.3657
  529SOL     OW 1585   1.941   1.743   0.730 -0.3382  0.5052  0.4170
  529SOL    HW1 1586   1.869   1.757   0.662  1.7798  0.9762  1.5479
  529SOL    HW2 1587   1.936   1.818   0.807  0.9841 -0.8965  0.7426
  530SOL     OW 1588   0.301   2.572   0.305  0.1401 -0.4678  0.3822
  530SOL    HW1 1589   0.274   2.654   0.365  0.0063 -3.1797  0.7473
  530SOL    HW2 1590   0.337   2.496   0.367 -0.2166 -0.1243  2.6897
  531SOL     OW 1591   1.799   1.004   0.981 -0.1517 -0.0360 -0.1258
  531SOL    HW1 1592   1.823   1.069   0.902  0.1551  3.5808 -0.7669
  531SOL    HW2 1593   1.697   0.983   0.982  0.0881 -0.1557  0.7872
  532SOL     OW 1594   0.468   1.143   0.751  0.9544 -0.8136 -0.0723
  532SOL    HW1 1595   0.532   1.139   0.672 -2.1018 -1.9413  0.5392
  532SOL    HW2 1596   0.425   1.048   0.775  1.9067 -1.3560 -0.5662
  533SOL     OW 1597   1.754   0.030   2.614 -0.1479  0.2045 -0.3878
  533SOL    HW1 1598   1.855   0.017   2.610 -0.2841  2.6093  0.3698
  533SOL    HW2 1599   1.720   0.088   2.692 -0.8328  0.2120  0.3845
  534SOL     OW 1600   0.318   0.247   1.630 -0.4631  0.0857 -0.2060
  534SOL    HW1 1601   0.422   0.263   1.608 -1.0280  0.5369  3.3521
  534SOL    HW2 1602   0.261   0.338   1.616  1.4901 -0.1334  0.9775
  535SOL     OW 1603   1.961   0.338   0.121 -0.6183 -0.0598 -0.2224
  535SOL    HW1 1604   1.951   0.424   0.175  1.1838  0.0086  0.2303
  535SOL    HW2 1605   1.954   0.256   0.177 -0.1519  2.3957 -1.3422
  536SOL     OW 1606   1.410   2.599   0.928  0.0931  0.4170  0.1843
  536SOL    HW1 1607   1.407   2.568   1.029  0.0979 -0.1693 -1.6122
  536SOL    HW2 1608   1.313   2.612   0.884 -0.8955  0.7915 -0.7324
  537SOL     OW 1609   0.826   0.260   2.413  0.3319 -0.1792 -0.0896
  537SOL    HW1 1610   0.805   0.339   2.348  0.5721  3.1765  2.6378
  537SOL    HW2 1611   0.767   0.177   2.397  0.6168  0.4383  0.8505
  538SOL     OW 1612   1.625   2.369   1.540 -0.1440 -0.3502 -0.6091
  538SOL    HW1 1613   1.588   2.269   1.531 -1.1515  0.0443  0.0938
  538SOL    HW2 1614   1.707   2.376   1.473  1.1878 -0.7930  0.5727
  539SOL     OW 1615   0.180   1.647   2.704 -0.4838 -0.0732 -0.4329
  539SOL    HW1 1616   0.102   1.662   2.640  0.4548  2.8231  0.6372
  539SOL    HW2 1617   0.180   1.717   2.778 -2.1648 -0.0772 -2.7449
  540SOL     OW 1618   2.663   1.740   1.936  0.4805  0.8637  0.1962
  540SOL    HW1 1619   2.586   1.675   1.981  1.7512 -1.9931  1.5528
  540SOL    HW2 1620   2.617   1.832   1.908  0.7420 -1.1107 -1.8331
  541SOL     OW 1621   0.469   2.198   0.019 -0.2742 -0.2548 -0.1064
  541SOL    HW1 1622   0.472   2.176   0.118  1.5238  0.0842 -1.4078
  541SOL    HW2 1623   0.373   2.185  -0.019  0.5071  2.6641  0.2698
  542SOL     OW 1624   2.228   2.577   0.427 -0.0167 -0.2515  0.0520
  542SOL    HW1 1625   2.192   2.674   0.428  1.4216  1.8069 -2.8105
  542SOL    HW2 1626   2.154   2.509   0.450 -1.0930  0.2198  1.4094
  543SOL     OW 1627   1.106   1.841   1.573  0.2851 -0.4128  0.1373
  543SOL    HW1 1628   1.080   1.869   1.672  2.1343  3.8976  1.3321
  543SOL    HW2 1629   1.059   1.895   1.501  1.0279 -2.0995  0.0644
  544SOL     OW 1630   1.091   0.452   0.192  0.3460 -0.0108 -0.6673
  544SOL    HW1 1631   1.090   0.384   0.265  1.6692  2.9170 -1.0668
  544SOL    HW2 1632   1.113   0.413   0.102  2.0040 -1.6374  0.5863
  545SOL     OW 1633   1.112   1.742   0.810  0.1469 -0.1273 -0.4433
  545SOL    HW1 1634   1.209   1.762   0.776  0.6988 -0.5092 -0.6752
  545SOL    HW2 1635   1.092   1.638   0.820  0.3120  0.6379  0.3033
  546SOL     OW 1636   2.633   1.516   3.037  0.9444  0.9207  0.0040
  546SOL    HW1 1637   2.650   1.603   2.982 -1.3199  0.3655 -2.8093
  546SOL    HW2 1638   2.530   1.489   3.047 -0.8902  1.5724  0.1004
  547SOL     OW 1639   0.608   3.012   2.633  0.0188 -0.1780 -0.2591
  547SOL    HW1 1640   0.708   2.993   2.643 -2.5417 -0.2561 -1.2278
  547SOL    HW2 1641   0.547   2.960   2.703  1.6733  0.4105 -2.1792
  548SOL     OW 1642   2.072   0.908   2.972  0.3079 -0.5722  0.3782
  548SOL    HW1 1643   1.979   0.869   2.992  0.7601 -1.1108  0.2222
  548SOL    HW2 1644   2.076   1.005   3.002 -0.9418  1.7121  0.0168
  549SOL     OW 1645   0.703   0.520   0.173 -0.4344  0.2679 -0.5035
  549SOL    HW1 1646   0.634   0.561   0.107  4.7947 -0.3186  0.9865
  549SOL    HW2 1647   0.782   0.587   0.192 -2.2978  3.5907  1.0271
  550SOL     OW 1648   2.614   2.818   2.879  0.3379 -0.2814 -0.1719
  550SOL    HW1 1649   2.556   2.761   2.940  0.2650 -2.3273 -0.4618
  550SOL    HW2 1650   2.681   2.767   2.822 -1.3736 -1.2753  2.4891
  551SOL     OW 1651   0.277   0.848   0.233  0.1984 -0.0918 -0.2993
  551SOL    HW1 1652   0.380   0.854   0.231  0.2232  1.0651 -0.6989
  551SOL    HW2 1653   0.249   0.833   0.331  0.5632  0.4013 -0.9382
  552SOL     OW 1654   0.622   2.972   1.901 -0.3261  0.0011 -0.3824
  552SOL    HW1 1655   0.642   3.008   1.998 -2.1009 -1.5996  0.0440
  552SOL    HW2 1656   0.712   2.975   1.839  1.0016 -1.8135 -1.5230
  553SOL     OW 1657   2.933   2.491   0.367 -0.7754 -0.6768 -0.0876
  553SOL    HW1 1658   2.894   2.396   0.387  1.1527 -1.6556  0.3780
  553SOL    HW2 1659   2.858   2.565   0.388 -1.3596  1.7585  0.9826
  554SOL     OW 1660   2.155   0.375   0.549  0.2592 -0.1293 -0.5328
  554SOL    HW1 1661   2.183   0.398   0.453  0.3304 -0.8291  1.9182
  554SOL    HW2 1662   2.161   0.273   0.581  1.4223 -0.2340  0.5908
  555SOL     OW 1663   0.387   2.777   2.491 -0.2749  0.4898  0.4559
  555SOL    HW1 1664   0.337   2.870   2.488 -0.0890  1.2353  0.2155
  555SOL    HW2 1665   0.420   2.739   2.394  0.6048  0.7627  0.4765
  556SOL     OW 1666   0.866   2.375   1.545  0.2988 -0.6074  0.0978
  556SOL    HW1 1667   0.903   2.456   1.594  0.5223  0.0720 -0.0806
  556SOL    HW2 1668   0.926   2.346   1.462 -1.7497 -2.3091  0.9611
  557SOL     OW 1669   0.155   2.079   0.226  0.1160 -0.3661 -0.1942
  557SOL    HW1 1670   0.078   2.016   0.205 -0.4941 -0.5064 -2.6756
  557SOL    HW2 1671   0.189   2.132   0.144 -0.7313  1.0651 -1.7328
  558SOL     OW 1672   2.778   2.251   0.394  0.0504 -0.3135  0.4627
  558SOL    HW1 1673   2.679   2.280   0.419 -2.4193  0.8124  2.8329
  558SOL    HW2 1674   2.780   2.185   0.314 -0.5624 -1.0427 -0.5467
  559SOL     OW 1675   0.388   2.303   1.418 -0.0342  0.6272  0.2775
  559SOL    HW1 1676   0.300   2.308   1.361  1.6701  0.7326 -2.1404
  559SOL    HW2 1677   0.454   2.232   1.373  2.2420 -0.8891  0.3490
  560SOL     OW 1678   2.103   1.178   3.054  0.3837 -0.1407  0.3257
  560SOL    HW1 1679   2.129   1.183   3.153 -0.4353 -2.5983  0.6117
  560SOL    HW2 1680   2.149   1.245   2.992  0.2348 -3.5399  0.8928
  561SOL     OW 1681   3.076   1.849   0.014  0.1248 -0.1662 -0.1658
  561SOL    HW1 1682   3.051   1.798   0.102  0.8879 -1.1449  1.1903
  561SOL    HW2 1683   3.022   1.937  -0.009 -1.1353  1.4885  1.1200
  562SOL     OW 1684   0.963   2.191   2.320  0.5813 -0.6172 -0.8414
  562SOL    HW1 1685   0.990   2.238   2.407  0.1938 -2.1141  0.6001
  562SOL    HW2 1686   0.978   2.086   2.336 -0.7591  0.8836  1.8943
  563SOL     OW 1687   0.692   2.596   2.607  0.3767  0.4589 -0.3525
  563SOL    HW1 1688   0.775   2.535   2.612  0.6372  0.0297  0.3911
  563SOL    HW2 1689   0.657   2.619   2.701  0.6011 -1.4063 -1.0628
  564SOL     OW 1690   2.815   1.330   2.890 -0.0721  0.0975 -0.1342
  564SOL    HW1 1691   2.747   1.388   2.948  1.2678  0.5470  1.4823
  564SOL    HW2 1692   2.883   1.391   2.846 -1.6736  0.5492  0.9043
  565SOL     OW 1693   2.541   2.034   2.654  0.1835  0.4509  0.3910
  565SOL    HW1 1694   2.478   2.110   2.620 -0.2416 -1.5408 -2.1570
  565SOL    HW2 1695   2.618   2.073   2.719  0.7249  0.0877  0.2009
  566SOL     OW 1696   2.062   2.834   1.430 -0.7753 -0.0194  0.4621
  566SOL    HW1 1697   1.996   2.761   1.465  0.9921  0.4339  2.0571
  566SOL    HW2 1698   2.030   2.868   1.334 -2.3636  0.5248 -1.5997
  567SOL     OW 1699   2.414   3.041   2.371 -0.2354 -0.2897 -0.6692
  567SOL    HW1 1700   2.312   3.055   2.397 -0.5888  0.7920  1.9898
  567SOL    HW2 1701   2.431   3.039   2.270  0.4414  1.5403 -2.0277
  568SOL     OW 1702   1.537   1.751   0.211  0.0470  0.4760  0.4184
  568SOL    HW1 1703   1.463   1.818   0.179  1.0792  2.2596 -1.5088
  568SOL    HW2 1704   1.630   1.799   0.205  1.9578 -2.0858 -2.5608
  569SOL     OW 1705   0.269   0.647   0.813 -0.3832 -0.5726 -0.9973
  569SOL    HW1 1706   0.327   0.566   0.799  1.4853  2.2861 -0.0285
  569SOL    HW2 1707   0.171   0.612   0.814 -1.3211 -4.1412  2.6539
  570SOL     OW 1708   0.651   0.822   2.937  0.0736 -0.3071 -0.1316
  570SOL    HW1 1709   0.692   0.843   2.847 -1.4127 -1.6963  0.0211
  570SOL    HW2 1710   0.668   0.900   3.008  1.0441  2.2250 -1.0746
  571SOL     OW 1711   0.761   3.091   1.076 -0.6240  0.2677 -0.0291
  571SOL    HW1 1712   0.834   3.125   1.009 -1.7751 -0.8438  1.6768
  571SOL    HW2 1713   0.749   2.988   1.066  4.1542  2.4485  0.8450
  572SOL     OW 1714   1.636   2.654   1.335 -0.0732  0.2857 -0.2943
  572SOL    HW1 1715   1.565   2.617   1.268 -2.5902  0.6440 -0.7844
  572SOL    HW2 1716   1.639   2.755   1.332 -0.3087 -1.3369 -0.4543
  573SOL     OW 1717   2.911   0.484   2.028  0.6833  0.1565  0.5031
  573SOL    HW1 1718   2.822   0.424   2.015  0.0204  0.2786  1.9104
  573SOL    HW2 1719   2.965   0.492   1.940 -0.4855 -0.6446 -2.1227
  574SOL     OW 1720   0.145   1.763   1.117 -0.0693 -0.3587  0.2827
  574SOL    HW1 1721   0.228   1.816   1.149  0.4891 -2.9242 -0.8177
  574SOL    HW2 1722   0.059   1.823   1.097  0.6998 -1.2235 -0.0702
  575SOL     OW 1723   0.813   2.216   0.935 -0.2553  0.3369 -0.2680
  575SOL    HW1 1724   0.776   2.242   1.027  1.2472  0.7584 -0.3572
  575SOL    HW2 1725   0.871   2.293   0.892 -2.5982 -0.3483  1.8788
  576SOL     OW 1726   2.853   2.996   1.672  0.1305 -0.3125 -0.2251
  576SOL    HW1 1727   2.752   2.962   1.677  0.7697 -0.2662  2.4382
  576SOL    HW2 1728   2.870   3.095   1.640  0.1495 -1.0949  1.4190
  577SOL     OW 1729   2.530   1.173   3.100  0.1368 -0.6699  0.1063
  577SOL    HW1 1730   2.546   1.110   3.018  1.9926  1.4513  0.6539
  577SOL    HW2 1731   2.613   1.205   3.155 -1.3289  1.0010  0.4509
  578SOL     OW 1732   1.439   2.724   2.461 -0.6965  0.8726 -0.0205
  578SOL    HW1 1733   1.350   2.735   2.416  0.8361  2.0914  1.5138
  578SOL    HW2 1734   1.496   2.810   2.448 -0.4644  0.3904 -1.0984
  579SOL     OW 1735   0.046   2.483   0.181 -0.1260  0.0234 -0.1494
  579SOL    HW1 1736  -0.025   2.464   0.257  0.3192  2.6044  0.9111
  579SOL    HW2 1737   0.138   2.513   0.218  1.5048 -0.9847 -0.8950
  580SOL     OW 1738   0.980   2.670   0.342  0.4019  0.0120 -0.4661
  580SOL    HW1 1739   1.066   2.672   0.293 -0.9348  0.6292  0.5810
  580SOL    HW2 1740   0.913   2.597   0.302 -0.3190 -1.0261 -1.1655
  581SOL     OW 1741   1.211   2.663   1.459 -0.3220  0.3129  0.3161
  581SOL    HW1 1742   1.270   2.577   1.474 -0.6725 -0.0983 -1.1780
  581SOL    HW2 1743   1.257   2.739   1.408  1.9895 -2.3862 -0.5224
  582SOL     OW 1744   1.492   0.098   1.858 -0.3491  0.0498  0.2034
  582SOL    HW1 1745   1.531   0.155   1.936  4.1630 -1.0782 -0.8827
  582SOL    HW2 1746   1.562   0.101   1.782  1.0285  0.8262  0.7304
  583SOL     OW 1747   2.421   3.090   0.497 -0.0896 -0.6617  0.1875
  583SOL    HW1 1748   2.514   3.052   0.468  2.0756 -0.2752 -1.3533
  583SOL    HW2 1749   2.366   3.006   0.534  0.7781 -1.6098  1.4883
  584SOL     OW 1750   1.547   1.106   2.232  0.3754 -0.6168  0.4057
  584SOL    HW1 1751   1.626   1.172   2.207  0.8111  1.8027  2.0875
  584SOL    HW2 1752   1.595   1.017   2.255  0.2325  2.5622  0.2504
  585SOL     OW 1753   2.124   2.691   2.917 -0.0785 -0.5934 -0.5976
  585SOL    HW1 1754   2.151   2.595   2.931 -1.3010  1.5197 -0.3016
  585SOL    HW2 1755   2.026   2.699   2.883 -3.2966 -1.7868  2.1060
  586SOL     OW 1756   2.835   0.342   1.612  0.0415  0.1681 -0.4693
  586SOL    HW1 1757   2.865   0.442   1.618 -1.4258  2.4920 -1.1118
  586SOL    HW2 1758   2.730   0.338   1.606  2.5516  3.5059 -1.8260
  587SOL     OW 1759   2.078   1.511   2.660  0.0968 -0.3843 -0.1401
  587SOL    HW1 1760   2.113   1.438   2.595 -1.7881 -0.2868 -2.3430
  587SOL    HW2 1761   2.126   1.514   2.752 -0.0930 -0.3202  0.7582
  588SOL     OW 1762   0.456   2.684   2.228  0.2554  0.0796  0.3818
  588SOL    HW1 1763   0.387   2.669   2.149 -0.9349 -1.3058 -1.9834
  588SOL    HW2 1764   0.479   2.599   2.279 -2.5997  0.6608 -1.8818
  589SOL     OW 1765   2.186   1.324   2.474  0.1762 -0.3011 -0.0534
  589SOL    HW1 1766   2.146   1.275   2.392 -1.3929  3.2231  1.7826
  589SOL    HW2 1767   2.287   1.300   2.490  0.2300 -0.2801 -0.2545
  590SOL     OW 1768   2.297   1.778   2.026 -0.0857  0.2680 -0.2125
  590SOL    HW1 1769   2.340   1.684   2.022 -0.4265 -1.1350 -1.2629
  590SOL    HW2 1770   2.303   1.802   2.128 -0.6880  1.7920  0.2579
  591SOL     OW 1771   1.261   2.423   0.236  0.2535 -0.1337  0.3163
  591SOL    HW1 1772   1.283   2.338   0.181 -0.0772 -2.1047  0.1754
  591SOL    HW2 1773   1.310   2.424   0.333 -1.0877  0.5050  1.6984
  592SOL     OW 1774   1.776   2.313   0.739 -0.1726  0.2083  0.6759
  592SOL    HW1 1775   1.769   2.393   0.670 -0.4518  1.6850 -0.3645
  592SOL    HW2 1776   1.865   2.265   0.729 -1.7737  0.4541  0.6435
  593SOL     OW 1777   0.707   0.253   0.210 -0.0290  0.4549 -0.2698
  593SOL    HW1 1778   0.781   0.218   0.148  1.0697 -2.4421  2.7343
  593SOL    HW2 1779   0.707   0.354   0.201 -0.1173 -2.9873  0.4265
  594SOL     OW 1780   1.029   1.818   2.684  0.3731 -0.4706 -0.3267
  594SOL    HW1 1781   1.108   1.759   2.655 -0.6037  1.0982 -1.0349
  594SOL    HW2 1782   1.036   1.876   2.767 -1.3903  1.4304 -0.9985
  595SOL     OW 1783   1.536   0.079   1.009 -0.1036  1.2271 -0.1935
  595SOL    HW1 1784   1.622   0.020   0.987 -0.1126  0.1265  0.3877
  595SOL    HW2 1785   1.451   0.044   0.957 -0.2745 -0.6310 -1.3966
  596SOL     OW 1786   0.051   1.577   2.274 -0.0822  0.0823  0.5842
  596SOL    HW1 1787   0.095   1.487   2.262  0.0870  2.7566 -1.0052
  596SOL    HW2 1788   0.036   1.608   2.372 -1.6245 -0.6381 -1.0981
  597SOL     OW 1789   1.926   2.631   1.797 -0.3599  0.3411  0.3410
  597SOL    HW1 1790   1.901   2.602   1.703 -3.0694  3.7794  0.0338
  597SOL    HW2 1791   2.027   2.617   1.814 -0.2843  0.9239  0.7585
  598SOL     OW 1792   2.524   2.916   1.228 -0.0145 -0.2177  0.3400
  598SOL    HW1 1793   2.589   2.937   1.307 -0.0604  1.5426 -0.2642
  598SOL    HW2 1794   2.575   2.908   1.137 -0.3862  2.2834  1.8036
  599SOL     OW 1795   2.895   0.302   2.453  0.2678  0.1808 -0.3704
  599SOL    HW1 1796   2.961   0.380   2.458  2.0909 -0.6145 -1.3648
  599SOL    HW2 1797   2.800   0.339   2.433 -1.3475  0.1917  2.2750
  600SOL     OW 1798   2.805   1.098   2.736 -0.2725  0.0513 -0.0742
  600SOL    HW1 1799   2.712   1.059   2.717  0.5622  3.3216  0.4810
  600SOL    HW2 1800   2.809   1.177   2.802  0.3490  0.8941 -1.8202
  601SOL     OW 1801   3.062   1.320   1.995  0.3253 -0.1347 -0.1238
  601SOL    HW1 1802   2.969   1.356   1.958 -0.0767 -0.5081 -1.6126
  601SOL    HW2 1803   3.130   1.395   2.002 -1.9303  0.9079  2.3091
  602SOL     OW 1804   1.449   1.694   2.305  0.1243  0.0882  0.7126
  602SOL    HW1 1805   1.369   1.641   2.343  1.5605  0.8907 -2.4139
  602SOL    HW2 1806   1.537   1.691   2.364 -0.8113 -0.5322  1.5509
  603SOL     OW 1807   0.615   1.204   2.803  0.5486 -0.2956 -0.4325
  603SOL    HW1 1808   0.520   1.176   2.768  0.4476 -3.6712 -0.7655
  603SOL    HW2 1809   0.686   1.136   2.776 -1.5709 -2.0447  0.6862
  604SOL     OW 1810   2.410   1.005   0.181  0.5784  0.4135  0.1233
  604SOL    HW1 1811   2.452   1.080   0.126  0.2594  1.0674  0.8722
  604SOL    HW2 1812   2.412   0.910   0.135 -0.1505 -0.9022 -1.8154
  605SOL     OW 1813   2.519   1.150   1.917  0.0088  0.0874  0.4592
  605SOL    HW1 1814   2.571   1.080   1.865 -0.9431 -0.8383  3.8986
  605SOL    HW2 1815   2.569   1.179   2.006 -1.3357  0.4020 -0.2617
  606SOL     OW 1816   1.527   2.472   2.596  0.0125 -0.0491 -0.2241
  606SOL    HW1 1817   1.487   2.542   2.529 -0.7973 -0.7472 -2.6060
  606SOL    HW2 1818   1.486   2.374   2.592 -1.9921  1.5232  4.7919
  607SOL     OW 1819   1.331   1.576   0.307 -0.2979 -0.1633  0.0878
  607SOL    HW1 1820   1.245   1.637   0.321 -0.9896  0.4211  1.9555
  607SOL    HW2 1821   1.410   1.627   0.265  1.1270  1.6556 -0.9777
  608SOL     OW 1822   1.462   2.833   0.406 -0.0256 -0.1299 -0.1509
  608SOL    HW1 1823   1.510   2.879   0.323  1.1953  1.2730  0.4826
  608SOL    HW2 1824   1.402   2.903   0.458 -1.8075 -0.7793  0.9274
  609SOL     OW 1825   1.270   1.331   0.264 -0.0937  0.1019 -0.5430
  609SOL    HW1 1826   1.274   1.422   0.318  0.2090  2.8858  2.2541
  609SOL    HW2 1827   1.268   1.349   0.160  0.4275  0.8134  1.1992
  610SOL     OW 1828   2.954   1.149   2.219  0.1790 -0.3297  0.0853
  610SOL    HW1 1829   2.945   1.046   2.214 -1.2375  0.0510 -0.5914
  610SOL    HW2 1830   2.981   1.192   2.128 -0.6545  1.4595 -0.6551
  611SOL     OW 1831   2.535   0.276   1.182  0.3233 -0.2042 -0.0173
  611SOL    HW1 1832   2.480   0.188   1.171 -0.9292  1.7492  0.4862
  611SOL    HW2 1833   2.609   0.274   1.259 -0.2681 -0.8620  1.2353
  612SOL     OW 1834   0.741   2.276   1.184 -0.7082  0.2653 -0.1554
  612SOL    HW1 1835   0.683   2.196   1.206  0.2158  4.8977 -0.7201
  612SOL    HW2 1836   0.688   2.361   1.160 -2.9924 -0.1560  0.5764
  613SOL     OW 1837   0.794   1.380   2.394  0.2472  0.3791  0.1735
  613SOL    HW1 1838   0.789   1.446   2.314 -0.3767 -0.4935 -1.0141
  613SOL    HW2 1839   0.811   1.281   2.368  0.7579 -0.6479 -2.0809
  614SOL     OW 1840   1.581   1.693   1.941  0.0780 -0.9523 -0.5313
  614SOL    HW1 1841   1.529   1.779   1.911 -1.0124  1.2572  0.6456
  614SOL    HW2 1842   1.657   1.720   2.003  1.5734  0.3773 -2.1756
  615SOL     OW 1843   0.788   1.340   1.729  0.7017  0.0459  0.1367
  615SOL    HW1 1844   0.728   1.298   1.652  0.0989 -2.2146 -1.2455
  615SOL    HW2 1845   0.839   1.426   1.692 -2.8158  0.0536  1.1132
  616SOL     OW 1846   1.087   1.593   2.180  0.2118 -0.4406 -0.0987
  616SOL    HW1 1847   0.985   1.580   2.173  1.8824  1.0566 -0.0801
  616SOL    HW2 1848   1.121   1.627   2.091  1.8123  0.5670  1.2992
  617SOL     OW 1849   2.969   1.533   1.579  0.1962 -0.1001  1.0900
  617SOL    HW1 1850   2.945   1.464   1.650  1.5125  0.6258  2.0670
  617SOL    HW2 1851   2.975   1.501   1.479 -0.5711  0.8688 -1.4721
  618SOL     OW 1852   1.916   2.011   1.423  0.2898  0.2050  0.4848
  618SOL    HW1 1853   1.968   1.997   1.333  1.1105  1.2844  0.0427
  618SOL    HW2 1854   1.872   1.918   1.455 -1.8670 -1.6447 -2.0757
  619SOL     OW 1855   1.759   0.489   2.393 -0.8848 -0.1647  0.1427
  619SOL    HW1 1856   1.677   0.551   2.358 -2.4732 -0.1369  0.3313
  619SOL    HW2 1857   1.741   0.387   2.403  1.1266  0.4019 -2.2354
  620SOL     OW 1858   2.195   2.951   0.608  0.4568 -0.2836  0.1236
  620SOL    HW1 1859   2.108   3.001   0.617 -2.2730 -2.3401  0.0463
  620SOL    HW2 1860   2.230   2.904   0.695  0.3405 -0.4775 -2.1368
  621SOL     OW 1861   2.138   1.858   1.292  0.5063  0.2884 -0.0996
  621SOL    HW1 1862   2.146   1.855   1.394  0.7382  1.3144  0.3788
  621SOL    HW2 1863   2.102   1.766   1.258  0.5384 -0.2089 -0.8670
  622SOL     OW 1864   2.149   0.852   1.762 -0.3710 -0.6157 -0.5745
  622SOL    HW1 1865   2.243   0.827   1.730 -1.1021  0.0214 -1.4986
  622SOL    HW2 1866   2.124   0.806   1.848 -1.4337  2.1173 -1.3357
  623SOL     OW 1867   1.368   0.769   2.621 -0.1367 -0.0571 -0.6504
  623SOL    HW1 1868   1.309   0.710   2.682 -1.1613  0.9160 -3.1451
  623SOL    HW2 1869   1.315   0.793   2.535 -0.0454 -2.0362  0.4293
  624SOL     OW 1870   0.519   0.663   0.015 -0.0710  0.0405  0.6215
  624SOL    HW1 1871   0.575   0.707  -0.063 -0.6536  1.0474 -3.9772
  624SOL    HW2 1872   0.511   0.724   0.094 -1.6345  0.4019 -0.0385
  625SOL     OW 1873   2.797   1.747   0.953  0.0732 -0.1307 -0.1208
  625SOL    HW1 1874   2.715   1.786   1.008 -3.6133  0.8946 -3.2199
  625SOL    HW2 1875   2.786   1.646   0.938  0.7387 -0.4375  0.2484
  626SOL     OW 1876   0.561   2.708   1.835 -0.3602  0.6205 -0.0141
  626SOL    HW1 1877   0.569   2.802   1.877  0.0385  1.0333 -0.4472
  626SOL    HW2 1878   0.463   2.679   1.816 -0.4528  0.8293 -2.1051
  627SOL     OW 1879   0.718   0.993   1.553 -0.6274  0.1519  0.1110
  627SOL    HW1 1880   0.744   0.891   1.561 -0.6312 -0.1414  4.5876
  627SOL    HW2 1881   0.780   1.048   1.490  1.3446  0.4894 -0.2858
  628SOL     OW 1882   2.401   0.184   0.687 -0.0751  0.5182 -0.1734
  628SOL    HW1 1883   2.428   0.103   0.622  0.6020 -0.1501 -0.9550
  628SOL    HW2 1884   2.305   0.180   0.720  0.6738  1.0491 -0.4171
  629SOL     OW 1885   1.952   0.901   1.986  0.3078  0.7556 -0.5913
  629SOL    HW1 1886   2.048   0.915   2.012 -1.9471 -3.1332 -1.0616
  629SOL    HW2 1887   1.901   0.990   2.000 -0.1056 -0.1723  1.1179
  630SOL     OW 1888   2.794   2.224   0.776 -0.6228 -0.2370  0.1766
  630SOL    HW1 1889   2.720   2.295   0.801 -2.9466  1.5340  0.0347
  630SOL    HW2 1890   2.762   2.132   0.750  0.0969  1.0769 -0.6737
  631SOL     OW 1891   2.956   0.115   2.087  0.4801 -0.3066  0.0701
  631SOL    HW1 1892   2.979   0.168   2.176  2.0072 -2.3039  0.9116
  631SOL    HW2 1893   3.026   0.129   2.014 -2.7289  3.7516  2.1073
  632SOL     OW 1894   2.429   2.493   0.631 -0.6957 -0.1399 -0.2440
  632SOL    HW1 1895   2.485   2.577   0.641  0.3488 -1.9862  1.9235
  632SOL    HW2 1896   2.362   2.501   0.551  1.4026 -1.5885 -2.2382
  633SOL     OW 1897   1.513   1.279   2.529  1.1871  0.0576  0.3397
  633SOL    HW1 1898   1.496   1.357   2.600  3.3508  1.6706  0.6589
  633SOL    HW2 1899   1.433   1.270   2.461  1.1224 -0.9692 -0.3243
  634SOL     OW 1900   0.653   1.987   0.913 -0.0646  0.2457 -0.3159
  634SOL    HW1 1901   0.560   2.009   0.956  0.3429  2.0263  1.6174
  634SOL    HW2 1902   0.719   2.071   0.916  0.5774  0.6047 -0.2590
  635SOL     OW 1903   0.021   2.326   3.061  0.1007 -0.1800 -0.1575
  635SOL    HW1 1904  -0.027   2.361   2.976  2.2658  0.9747  1.3972
  635SOL    HW2 1905   0.037   2.403   3.133  1.4623 -1.3444  0.1462
  636SOL     OW 1906   2.275   2.736   2.035  0.4116  0.6615 -0.0958
  636SOL    HW1 1907   2.289   2.839   2.044  1.0298  1.2902  0.7136
  636SOL    HW2 1908   2.261   2.693   2.133 -2.1851  2.1322 -1.3640
  637SOL     OW 1909   2.595   0.703   2.054 -0.0353 -0.1542  0.3163
  637SOL    HW1 1910   2.536   0.696   1.968 -0.6023  0.1895 -1.0145
  637SOL    HW2 1911   2.632   0.802   2.077  0.8553 -0.4100 -1.6234
  638SOL     OW 1912   2.425   1.843   1.292  0.3297 -0.5040  0.5999
  638SOL    HW1 1913   2.328   1.840   1.264  0.0614  0.7740 -1.7954
  638SOL    HW2 1914   2.464   1.757   1.332  0.7771  0.2756 -0.3073
  639SOL     OW 1915   1.297   2.197   1.646 -0.4318 -0.2162 -0.2992
  639SOL    HW1 1916   1.307   2.163   1.549 -0.7489  0.2134 -2.3089
  639SOL    HW2 1917   1.207   2.178   1.690 -0.8603 -2.3507 -1.4758
  640SOL     OW 1918   0.208   1.181   1.563  0.3142 -0.1464  0.0051
  640SOL    HW1 1919   0.211   1.241   1.647  1.2356  0.5826  0.7695
  640SOL    HW2 1920   0.285   1.111   1.564  2.1633  2.1310  1.0789
  641SOL     OW 1921   2.041   0.078   1.506 -0.2666 -0.3166  0.0619
  641SOL    HW1 1922   2.026   0.080   1.609 -0.7603  0.4936 -0.7437
  641SOL    HW2 1923   2.128   0.033   1.481  0.9899  0.8400  0.1569
  642SOL     OW 1924   1.968   0.104   0.291 -0.3716  0.0398 -0.1598
  642SOL    HW1 1925   2.062   0.105   0.329  0.4399 -0.7919 -1.3802
  642SOL    HW2 1926   1.899   0.102   0.368 -0.5210 -2.9645  1.4650
  643SOL     OW 1927   2.863   1.895   2.064 -0.8781  0.0315  0.2466
  643SOL    HW1 1928   2.823   1.804   2.035  0.1236  0.4224 -0.4343
  643SOL    HW2 1929   2.838   1.976   2.007  0.4073 -1.4881  2.4596
  644SOL     OW 1930   2.227   2.334   1.183 -0.7907  0.3995 -0.1332
  644SOL    HW1 1931   2.293   2.255   1.145 -0.3577 -1.5574 -0.1367
  644SOL    HW2 1932   2.199   2.307   1.285 -1.4485 -1.4728  2.8860
  645SOL     OW 1933   0.636   0.861   1.196 -0.1035 -0.6964  0.1447
  645SOL    HW1 1934   0.554   0.806   1.167  1.4138  0.7769 -1.2987
  645SOL    HW2 1935   0.680   0.915   1.122 -0.8116 -0.1234  2.1774
  646SOL     OW 1936   1.449   1.934   1.850  0.0201  0.2840 -0.0086
  646SOL    HW1 1937   1.533   1.997   1.850  1.1363  2.5851 -2.6240
  646SOL    HW2 1938   1.378   1.959   1.924  1.2927  0.9000  0.6695
  647SOL     OW 1939   0.848   1.010   0.676  0.4591 -0.1686  0.8118
  647SOL    HW1 1940   0.914   1.035   0.755  0.0085  1.0389  0.8428
  647SOL    HW2 1941   0.762   0.955   0.700 -2.7631  0.8743  1.5156
  648SOL     OW 1942   0.118   0.180   0.247 -0.7673 -0.2813  0.1960
  648SOL    HW1 1943   0.152   0.113   0.177  0.4320  1.4056  0.0010
  648SOL    HW2 1944   0.120   0.282   0.209  1.1268  0.8245  0.4671
  649SOL     OW 1945   3.061   0.181   0.917  0.0600 -0.3659  0.2649
  649SOL    HW1 1946   3.115   0.214   0.836 -0.0628 -1.6843 -0.4158
  649SOL    HW2 1947   3.115   0.196   1.005  0.8523 -1.3987  0.5743
  650SOL     OW 1948   2.716   0.700   1.434 -0.0666  0.5333 -0.6646
  650SOL    HW1 1949   2.609   0.696   1.427  0.1821 -0.5903  1.0278
  650SOL    HW2 1950   2.763   0.753   1.361  0.8824  1.7003  3.3142
  651SOL     OW 1951   0.944   1.574   1.635 -0.2707 -0.3724  0.0418
  651SOL    HW1 1952   0.933   1.670   1.676 -1.5573  2.0936  4.5245
  651SOL    HW2 1953   0.939   1.574   1.532 -0.6167  0.8173 -0.4885
  652SOL     OW 1954   2.270   2.521   2.496  0.0109  0.4279 -0.3024
  652SOL    HW1 1955   2.195   2.475   2.547 -1.3764 -0.6930  0.4053
  652SOL    HW2 1956   2.227   2.582   2.426  1.3114 -2.9924 -0.6618
  653SOL     OW 1957   2.733   1.175   0.213  0.1025  0.0028  0.7578
  653SOL    HW1 1958   2.759   1.271   0.249 -2.0694 -0.7653  1.0052
  653SOL    HW2 1959   2.793   1.097   0.249 -0.4006 -3.0799 -1.8416
  654SOL     OW 1960   1.245   2.252   1.228 -0.0733  0.1765 -0.2403
  654SOL    HW1 1961   1.274   2.185   1.301  0.5523  0.9243 -2.6049
  654SOL    HW2 1962   1.303   2.243   1.142  0.0658 -1.5039  0.4703
  655SOL     OW 1963   0.213   0.939   1.851  0.1572  0.0209 -0.6297
  655SOL    HW1 1964   0.239   0.876   1.769  2.0391  2.2915  0.3955
  655SOL    HW2 1965   0.298   0.996   1.868 -0.0545  0.4507  0.7003
  656SOL     OW 1966   2.525   2.497   2.605 -0.5095 -0.1429  0.2542
  656SOL    HW1 1967   2.584   2.472   2.528 -1.2844  0.2831  1.6063
  656SOL    HW2 1968   2.443   2.545   2.567  3.4863 -0.7363  2.0972
  657SOL     OW 1969   3.089   1.071   1.898  0.0660  0.6606 -0.3616
  657SOL    HW1 1970   3.108   1.166   1.928 -0.6296 -0.4257  0.4969
  657SOL    HW2 1971   3.176   1.017   1.874 -0.5859  2.6274  2.1185
  658SOL     OW 1972   1.679   0.225   2.406 -0.5072 -0.5004  0.1009
  658SOL    HW1 1973   1.682   0.165   2.489 -2.6763  1.1603  0.4965
  658SOL    HW2 1974   1.731   0.191   2.324  0.1097  2.0071 -0.8321
  659SOL     OW 1975   1.449   0.637   2.914 -0.4182 -0.5891 -0.1390
  659SOL    HW1 1976   1.496   0.729   2.918 -0.6167  0.6136 -1.3830
  659SOL    HW2 1977   1.362   0.649   2.860  0.7177  0.4832 -0.7228
  660SOL     OW 1978   1.436   0.355   1.448 -0.0679  0.5753  0.1261
  660SOL    HW1 1979   1.499   0.351   1.529 -0.6442  1.3231 -0.7371
  660SOL    HW2 1980   1.489   0.330   1.362  1.5785 -2.6210 -1.6266
  661SOL     OW 1981   2.504   1.155   0.660  0.3222  0.4638 -0.3917
  661SOL    HW1 1982   2.511   1.153   0.554 -0.3001 -1.0008  0.4193
  661SOL    HW2 1983   2.446   1.236   0.695 -0.7206 -1.3261 -0.6402
  662SOL     OW 1984   1.340   0.427   1.842 -0.1622  0.2789  0.0664
  662SOL    HW1 1985   1.286   0.346   1.812  0.7316  0.9498 -0.4113
  662SOL    HW2 1986   1.308   0.469   1.930 -0.6107  1.2358 -0.7688
  663SOL     OW 1987   0.816   1.587   2.149  0.3172  0.4164  0.7442
  663SOL    HW1 1988   0.773   1.676   2.184 -0.4363 -2.7971  0.7871
  663SOL    HW2 1989   0.761   1.543   2.068 -0.5823  1.3345 -3.1150
  664SOL     OW 1990   1.650   2.097   1.450  0.4711 -0.1745 -0.4233
  664SOL    HW1 1991   1.597   2.022   1.499  1.2467 -0.1337 -0.4028
  664SOL    HW2 1992   1.753   2.086   1.467  0.0031 -0.7298  1.5492
  665SOL     OW 1993   2.219   0.660   2.003 -0.3974  0.2020  0.4683
  665SOL    HW1 1994   2.233   0.567   2.044 -0.5708 -0.4365  3.0109
  665SOL    HW2 1995   2.235   0.737   2.070  1.0924  0.8370  1.1726
  666SOL     OW 1996   0.419   2.377   0.442  0.5266  0.0303 -0.1176
  666SOL    HW1 1997   0.508   2.421   0.467  0.5909  1.3203  2.5463
  666SOL    HW2 1998   0.383   2.325   0.528 -0.5509  0.6668  2.1312
  667SOL     OW 1999   1.977   0.187   1.099 -0.1308 -0.1628 -0.9905
  667SOL    HW1 2000   1.966   0.287   1.089 -2.0908 -1.9650 -2.1493
  667SOL    HW2 2001   1.905   0.146   1.165  0.3366  3.3901 -0.5263
  668SOL     OW 2002   1.991   0.507   1.160 -0.4406  0.6258  0.3051
  668SOL    HW1 2003   2.064   0.508   1.086  0.8301  0.2792 -2.8800
  668SOL    HW2 2004   2.032   0.527   1.253 -0.2885  1.2707 -0.8746
  669SOL     OW 2005   3.017   2.275   0.979  0.5275 -0.1142 -0.3016
  669SOL    HW1 2006   2.944   2.268   0.901 -3.5750  0.1989  1.1946
  669SOL    HW2 2007   2.988   2.238   1.073 -0.8650 -1.8298  0.1616
  670SOL     OW 2008   2.883   2.337   1.991  0.4502 -0.3942  0.1720
  670SOL    HW1 2009   2.801   2.306   2.053  1.8114 -1.6461  0.1567
  670SOL    HW2 2010   2.874   2.436   1.964 -0.1631 -0.2233  0.4461
  671SOL     OW 2011   1.799   1.779   1.438 -0.4222 -0.3062 -0.3938
  671SOL    HW1 2012   1.792   1.782   1.335  1.1611  1.6942  2.3681
  671SOL    HW2 2013   1.711   1.750   1.491 -1.4504  0.4444 -0.5482
  672SOL     OW 2014   0.410   0.577   2.389  0.7857 -0.5310  0.0790
  672SOL    HW1 2015   0.443   0.632   2.302 -0.6654  0.3130 -0.5043
  672SOL    HW2 2016   0.328   0.622   2.432  0.8230 -0.0377 -0.4633
  673SOL     OW 2017   0.148   1.184   1.134 -0.1229  0.0371  0.2925
  673SOL    HW1 2018   0.174   1.255   1.205 -1.0747 -1.9782  2.0991
  673SOL    HW2 2019   0.232   1.133   1.094  2.2016  0.5326 -0.1075
  674SOL     OW 2020   1.593   2.905   0.170 -0.2321 -0.2407 -0.5632
  674SOL    HW1 2021   1.628   2.992   0.127  1.6209 -2.3625  2.1447
  674SOL    HW2 2022   1.618   2.821   0.125 -1.2449  1.5111 -1.8355
  675SOL     OW 2023   1.659   0.854   2.279 -0.7228  0.2989  0.3272
  675SOL    HW1 2024   1.747   0.817   2.232 -1.2334 -2.3273  0.8688
  675SOL    HW2 2025   1.583   0.777   2.276  2.0878 -5.0770  1.1293
  676SOL     OW 2026   2.496   1.558   2.021 -0.2243  0.4398  0.1779
  676SOL    HW1 2027   2.504   1.506   1.929 -0.6964 -0.0444 -2.1294
  676SOL    HW2 2028   2.528   1.505   2.100 -0.0162 -1.1423 -0.6427
  677SOL     OW 2029   1.893   0.646   0.888 -0.3756 -0.6494  0.7870
  677SOL    HW1 2030   1.926   0.687   0.977 -2.4549  0.3092 -0.3113
  677SOL    HW2 2031   1.911   0.544   0.887 -0.8500  0.3005 -1.3039
  678SOL     OW 2032   0.032   0.730   1.660 -0.5041 -0.4992  0.0691
  678SOL    HW1 2033   0.133   0.712   1.677  0.4991  1.9259  1.1205
  678SOL    HW2 2034  -0.022   0.741   1.745 -0.2122 -1.2253  1.7394
  679SOL     OW 2035   2.558   1.150   1.120 -0.4958  0.0770 -0.4829
  679SOL    HW1 2036   2.467   1.171   1.165 -0.3278 -3.0727 -0.2334
  679SOL    HW2 2037   2.580   1.050   1.097  0.7291  0.1368 -0.8943
  680SOL     OW 2038   2.825   0.624   1.668  0.4303 -0.1913 -0.4976
  680SOL    HW1 2039   2.780   0.662   1.581  1.5577  0.0215 -0.5977
  680SOL    HW2 2040   2.880   0.691   1.727  0.9203 -0.1308 -1.6928
  681SOL     OW 2041   2.995   0.128   1.622  0.3039 -0.0551  0.6453
  681SOL    HW1 2042   3.085   0.135   1.577 -0.0137 -1.5800 -0.7903
  681SOL    HW2 2043   2.929   0.208   1.613  0.3153 -2.1101  0.8969
  682SOL     OW 2044   0.784   0.069   1.332 -0.4482 -0.3590  0.3452
  682SOL    HW1 2045   0.743  -0.009   1.386 -0.2131 -0.5496 -1.2614
  682SOL    HW2 2046   0.772   0.046   1.230  0.9450 -0.6460  1.6325
  683SOL     OW 2047   1.345   0.258   2.156  0.2482  0.9718 -0.0972
  683SOL    HW1 2048   1.335   0.337   2.223  0.4535 -1.7277  0.7684
  683SOL    HW2 2049   1.437   0.259   2.108  0.1619  0.5038 -1.8600
  684SOL     OW 2050   1.453   2.178   0.553 -0.3124  0.0541 -0.5707
  684SOL    HW1 2051   1.512   2.126   0.623 -1.9354 -0.2570 -0.6124
  684SOL    HW2 2052   1.384   2.111   0.512  0.4140  0.7058  1.0306
  685SOL     OW 2053   2.211   1.999   1.906  0.0320  0.0942 -0.1671
  685SOL    HW1 2054   2.289   2.036   1.848  2.8906  1.9361  0.7889
  685SOL    HW2 2055   2.237   1.910   1.955 -4.4882  0.8770  0.2120
  686SOL     OW 2056   1.509   1.756   2.719  0.0198 -0.1652 -1.0731
  686SOL    HW1 2057   1.536   1.679   2.789 -1.3948 -1.0908 -0.7643
  686SOL    HW2 2058   1.586   1.788   2.652  1.6822  0.6664  0.2941
  687SOL     OW 2059   1.286   2.510   1.923  0.5297 -0.0238 -0.3353
  687SOL    HW1 2060   1.338   2.428   1.942 -0.8228  1.8388  2.2287
  687SOL    HW2 2061   1.337   2.593   1.957  0.8660  0.4190 -2.2729
  688SOL     OW 2062   2.092   1.522   1.721 -0.4107 -0.5511 -0.8059
  688SOL    HW1 2063   2.188   1.552   1.717 -3.1265 -0.8311 -2.1785
  688SOL    HW2 2064   2.059   1.492   1.628  1.4562 -1.3924 -1.2607
  689SOL     OW 2065   2.479   1.097   2.721 -0.3654  0.1831 -0.0901
  689SOL    HW1 2066   2.379   1.105   2.748  3.0517 -2.7144  0.0893
  689SOL    HW2 2067   2.542   1.043   2.790 -0.6283 -2.3777  0.2897
  690SOL     OW 2068   2.218   2.756   0.080 -0.3271 -0.3259  0.7169
  690SOL    HW1 2069   2.150   2.756  -0.002 -2.2775  1.2295 -0.6729
  690SOL    HW2 2070   2.165   2.789   0.164 -1.9646  0.6411 -0.7827
  691SOL     OW 2071   2.564   0.407   2.100 -0.1555 -0.1310 -0.1500
  691SOL    HW1 2072   2.613   0.340   2.038 -0.0805 -1.1542 -0.3334
  691SOL    HW2 2073   2.562   0.506   2.071 -1.7025 -1.7458  0.1303
  692SOL     OW 2074   2.764   1.212   0.708 -0.0938  0.0159 -0.0401
  692SOL    HW1 2075   2.666   1.183   0.700 -0.4688 -0.3193 -1.0000
  692SOL    HW2 2076   2.772   1.309   0.748 -1.3263  0.3358  1.8956
  693SOL     OW 2077   2.827   2.981   0.677  0.7087 -0.0892 -0.0079
  693SOL    HW1 2078   2.819   3.081   0.703  0.5916  0.0960  0.8964
  693SOL    HW2 2079   2.780   2.959   0.588 -2.3119  0.4479 -0.8443
  694SOL     OW 2080   2.434   2.229   0.078  0.2805 -0.0258 -0.4044
  694SOL    HW1 2081   2.382   2.312   0.116 -0.7345 -0.9527  2.5100
  694SOL    HW2 2082   2.375   2.164   0.032 -1.2176  0.6164  1.3272
  695SOL     OW 2083   0.636   2.977   1.469 -0.1098  0.1472 -0.3482
  695SOL    HW1 2084   0.598   2.888   1.429 -0.5960  0.5483  3.1708
  695SOL    HW2 2085   0.569   3.008   1.542  0.2057 -0.8712 -1.0827
  696SOL     OW 2086   2.703   1.916   0.726 -1.0571  0.2865 -0.3826
  696SOL    HW1 2087   2.764   1.860   0.790  0.2994  1.3930  1.1594
  696SOL    HW2 2088   2.705   1.882   0.630  2.3273 -0.2732  2.5422
  697SOL     OW 2089   1.676   2.076   1.862  0.7190  0.0188 -0.3127
  697SOL    HW1 2090   1.754   2.010   1.870  1.1042 -2.1698  1.0870
  697SOL    HW2 2091   1.706   2.160   1.804 -0.4603  1.5046  2.9436
  698SOL     OW 2092   2.930   0.365   2.739 -0.6354 -0.1181 -0.0867
  698SOL    HW1 2093   2.932   0.331   2.642 -0.7408  1.1662 -0.9656
  698SOL    HW2 2094   2.985   0.304   2.812 -1.0346 -2.9650  0.9711
  699SOL     OW 2095   1.529   0.049   2.942 -0.6708  0.1633 -0.8924
  699SOL    HW1 2096   1.521  -0.039   2.887 -1.3282  1.4717  1.8887
  699SOL    HW2 2097   1.569   0.124   2.884  0.4701  1.3949  3.0099
  700SOL     OW 2098   0.986   2.317   1.306  0.2785 -0.3108  0.1547
  700SOL    HW1 2099   1.086   2.312   1.268  0.2031 -0.4577  1.9419
  700SOL    HW2 2100   0.912   2.284   1.241 -1.8081  3.0853 -0.5574
  701SOL     OW 2101   1.934   2.826   0.004 -0.0857 -0.0188  0.3174
  701SOL    HW1 2102   1.910   2.769   0.089 -0.4065 -1.6926  1.2273
  701SOL    HW2 2103   1.951   2.929   0.021  0.8443  1.0133 -0.3551
  702SOL     OW 2104   2.091   1.340   1.917  0.1059 -0.0880  0.5666
  702SOL    HW1 2105   2.167   1.269   1.909  0.5818  1.3836  0.0708
  702SOL    HW2 2106   2.082   1.406   1.836  0.1878  3.0951 -1.9890
  703SOL     OW 2107   1.932   0.837   1.396 -0.2491 -0.3895  0.0103
  703SOL    HW1 2108   1.912   0.765   1.468 -2.4621 -1.7298  1.2628
  703SOL    HW2 2109   1.969   0.922   1.441  0.1181 -0.4070  0.2641
  704SOL     OW 2110   0.302   2.062   1.655 -0.1741  0.1948 -0.1293
  704SOL    HW1 2111   0.313   1.994   1.727 -0.3086 -0.6197 -2.9132
  704SOL    HW2 2112   0.358   2.151   1.669 -0.2077 -0.8770  3.8054
  705SOL     OW 2113   2.525   1.395   0.946  0.2155 -0.0118 -0.0500
  705SOL    HW1 2114   2.445   1.376   0.877 -0.6778 -0.0352 -1.5133
  705SOL    HW2 2115   2.586   1.313   0.962  1.1685 -0.3236  0.3725
  706SOL     OW 2116   0.649   1.756   1.840  0.1031 -0.0161  0.4871
  706SOL    HW1 2117   0.669   1.658   1.872 -2.7147  0.8297  2.1260
  706SOL    HW2 2118   0.700   1.818   1.902 -1.7750 -0.0332 -1.2954
  707SOL     OW 2119   2.230   1.098   1.892  0.0541  0.0730 -0.1134
  707SOL    HW1 2120   2.327   1.114   1.924  0.6644  2.3462  0.0835
  707SOL    HW2 2121   2.216   0.997   1.856  0.2492 -1.9422  1.2696
  708SOL     OW 2122   2.967   0.522   3.045  0.2608  0.2212 -0.0217
  708SOL    HW1 2123   2.996   0.574   2.962  2.4155 -1.1404  0.8411
  708SOL    HW2 2124   2.963   0.419   3.042 -2.4622 -1.9599  2.8525
  709SOL     OW 2125   1.784   1.901   0.251  0.3704 -0.1234  0.4538
  709SOL    HW1 2126   1.827   1.987   0.282 -0.4701 -0.0271 -1.3553
  709SOL    HW2 2127   1.818   1.867   0.157  0.3500  0.9290 -1.0708
  710SOL     OW 2128   1.678   1.591   2.401  0.1360 -0.2130 -0.1556
  710SOL    HW1 2129   1.747   1.606   2.320  0.1218  1.8436 -2.4812
  710SOL    HW2 2130   1.714   1.522   2.474  0.6438 -4.2244  0.7901
  711SOL     OW 2131   2.651   2.941   0.972  0.7846 -0.4163 -0.1023
  711SOL    HW1 2132   2.610   3.027   0.937  0.6874 -0.4900  1.0201
  711SOL    HW2 2133   2.755   2.947   0.955  1.9873  1.6537  2.8057
  712SOL     OW 2134   1.421   2.265   1.908  0.4002  0.0943 -0.8672
  712SOL    HW1 2135   1.519   2.236   1.933  0.8135 -2.2830 -2.4774
  712SOL    HW2 2136   1.385   2.239   1.815  1.0322  2.4372 -0.6056
  713SOL     OW 2137   2.836   1.519   2.540 -0.8008  0.0826 -0.3751
  713SOL    HW1 2138   2.836   1.416   2.524 -0.1834  0.5646 -0.5683
  713SOL    HW2 2139   2.759   1.564   2.595 -1.2576  3.3064 -2.4527
  714SOL     OW 2140   2.683   0.468   2.384 -0.0648 -0.5859  0.6101
  714SOL    HW1 2141   2.599   0.430   2.438 -1.4354 -1.3272 -1.3877
  714SOL    HW2 2142   2.673   0.455   2.278 -0.3785 -0.5468 -0.1688
  715SOL     OW 2143   1.594   2.040   1.170  0.2139 -0.0279 -0.3129
  715SOL    HW1 2144   1.509   2.099   1.142 -2.0655  1.4368  1.3798
  715SOL    HW2 2145   1.635   2.068   1.262 -1.0354  2.2329 -1.1957
  716SOL     OW 2146   1.204   0.213   1.516 -0.0101  0.3892  0.1196
  716SOL    HW1 2147   1.105   0.239   1.496  1.4108  1.0357 -1.2132
  716SOL    HW2 2148   1.274   0.287   1.493 -0.1382 -0.5499 -1.6476
  717SOL     OW 2149   1.114   0.602   1.615 -0.3215  0.2365 -0.6241
  717SOL    HW1 2150   1.214   0.604   1.633 -0.5412  2.2975  0.6587
  717SOL    HW2 2151   1.105   0.578   1.517 -1.2703  0.5583  1.1106
  718SOL     OW 2152   0.737   0.977   0.952 -0.0661  0.5961 -0.3562
  718SOL    HW1 2153   0.668   0.926   0.898  2.0079  0.0985  0.7946
  718SOL    HW2 2154   0.703   1.063   0.993  2.5747 -1.3279  0.9131
  719SOL     OW 2155   0.711   1.803   2.274  0.6824 -0.3729 -0.4029
  719SOL    HW1 2156   0.773   1.844   2.340 -0.1525  2.0360 -3.3214
  719SOL    HW2 2157   0.620   1.773   2.309  1.1913 -0.1988  0.9559
  720SOL     OW 2158   2.188   1.146   0.231  0.1358 -0.1127 -0.2258
  720SOL    HW1 2159   2.267   1.083   0.199  0.3531 -2.0343  1.4448
  720SOL    HW2 2160   2.178   1.134   0.332 -2.7793  0.5140 -1.3100
  721SOL     OW 2161   2.297   3.015   2.098 -0.0650  0.8202  0.2422
  721SOL    HW1 2162   2.308   3.023   1.996  2.0548  0.8563 -0.8311
  721SOL    HW2 2163   2.227   3.085   2.131 -0.8005 -1.6101 -2.9984
  722SOL     OW 2164   2.372   1.613   0.584 -0.2043  0.3311 -0.3650
  722SOL    HW1 2165   2.340   1.542   0.521  1.2339  0.1735  0.9671
  722SOL    HW2 2166   2.295   1.663   0.631 -0.7242 -1.2493 -2.1104
  723SOL     OW 2167   2.555   2.697   1.991  0.3364  0.7361 -0.5349
  723SOL    HW1 2168   2.589   2.756   2.069 -1.4193  0.7269 -1.1161
  723SOL    HW2 2169   2.450   2.696   1.974 -1.4167 -0.8522 -1.1546
  724SOL     OW 2170   0.538   2.471   2.415 -0.0597  0.1515 -0.3354
  724SOL    HW1 2171   0.438   2.453   2.443  1.1694 -0.7391 -0.3428
  724SOL    HW2 2172   0.590   2.527   2.489 -2.5337  1.1459 -3.0778
  725SOL     OW 2173   2.452   2.756   1.543  0.5929 -0.3583  0.4175
  725SOL    HW1 2174   2.448   2.769   1.442 -0.4262 -1.7564 -0.9575
  725SOL    HW2 2175   2.403   2.671   1.569  1.8065  0.3731  0.3091
  726SOL     OW 2176   2.369   2.239   0.665 -0.0303  0.4795 -0.3485
  726SOL    HW1 2177   2.409   2.330   0.641  0.2334 -1.3629  1.5946
  726SOL    HW2 2178   2.361   2.177   0.577  2.0635 -0.8853 -3.8610
  727SOL     OW 2179   0.174   3.086   0.054  0.3102  0.1951  0.1606
  727SOL    HW1 2180   0.234   2.999   0.069  1.4392 -1.5427 -0.2309
  727SOL    HW2 2181   0.119   3.084  -0.033  0.4836  1.1571  1.3479
  728SOL     OW 2182   2.864   0.664   0.974 -0.4699 -0.1462  0.3814
  728SOL    HW1 2183   2.791   0.671   0.899  2.1094  3.0176 -3.2969
  728SOL    HW2 2184   2.839   0.607   1.055  1.1470  1.3671  0.2211
  729SOL     OW 2185   2.957   2.452   0.737 -0.3817 -0.4862 -0.5583
  729SOL    HW1 2186   2.913   2.359   0.730 -0.4586 -0.8392  0.7831
  729SOL    HW2 2187   3.057   2.456   0.738 -3.3533  2.2087 -0.5397
  730SOL     OW 2188   2.602   0.622   0.866  0.2041 -0.3239  0.4254
  730SOL    HW1 2189   2.554   0.696   0.801 -0.6503  1.4208 -1.6385
  730SOL    HW2 2190   2.663   0.552   0.816  0.1592 -0.7202 -1.6678
  731SOL     OW 2191   0.114   2.128   2.440 -0.2036 -0.2722  0.1018
  731SOL    HW1 2192   0.124   2.170   2.539  0.0549  2.7436  0.6141
  731SOL    HW2 2193   0.115   2.201   2.367  0.9069 -1.6241  1.9403
  732SOL     OW 2194   1.096   2.892   1.920  0.0778  0.4043  0.5723
  732SOL    HW1 2195   1.116   2.840   2.006  0.3544 -3.4707 -2.1145
  732SOL    HW2 2196   1.134   2.837   1.838  1.7428  0.2792 -0.0492
  733SOL     OW 2197   3.077   0.633   2.178  0.5378  0.2331 -0.9200
  733SOL    HW1 2198   3.155   0.668   2.125  0.3812 -2.3495  1.1987
  733SOL    HW2 2199   3.006   0.584   2.114  1.5961  1.0163  0.6965
  734SOL     OW 2200   1.413   0.401   2.775  0.3252  0.0981  0.3600
  734SOL    HW1 2201   1.425   0.480   2.845 -0.5567 -1.0413  0.8297
  734SOL    HW2 2202   1.314   0.376   2.763 -0.9115  0.4408 -0.7350
  735SOL     OW 2203   2.927   2.590   2.264 -0.2153 -0.1080  0.3878
  735SOL    HW1 2204   2.891   2.573   2.168  1.2185 -0.2152  1.3171
  735SOL    HW2 2205   3.026   2.606   2.268 -0.8190 -0.2209 -0.3497
  736SOL     OW 2206   0.702   0.368   2.634 -0.3349  1.2305 -0.6824
  736SOL    HW1 2207   0.640   0.452   2.636 -1.4344  3.6044 -0.0708
  736SOL    HW2 2208   0.724   0.332   2.532  1.0064 -1.3307 -2.0839
  737SOL     OW 2209   2.651   0.405   2.846  0.2143  0.3748  0.1663
  737SOL    HW1 2210   2.630   0.384   2.945 -0.1908  0.7521 -1.9708
  737SOL    HW2 2211   2.752   0.409   2.831 -1.2894  1.9899  0.4965
  738SOL     OW 2212   1.603   1.243   2.907  0.4077  0.2406 -0.0762
  738SOL    HW1 2213   1.697   1.187   2.916  2.4107 -0.4844  1.7684
  738SOL    HW2 2214   1.537   1.195   2.841 -2.7147  0.0310  1.7056
  739SOL     OW 2215   1.692   0.628   0.638  0.0783  0.5835 -0.0094
  739SOL    HW1 2216   1.762   0.645   0.715  0.5373  0.1033 -1.0169
  739SOL    HW2 2217   1.730   0.564   0.567 -1.4670 -1.1187 -0.2570
  740SOL     OW 2218   1.941   1.917   2.341 -0.4613 -0.2121  0.1043
  740SOL    HW1 2219   2.022   1.857   2.370  0.8227 -0.2505  3.7228
  740SOL    HW2 2220   1.872   1.870   2.284  2.6503 -0.8636  2.4399
  741SOL     OW 2221   2.537   0.081   2.626  0.5905  0.2550  0.0961
  741SOL    HW1 2222   2.638   0.065   2.599 -0.7339 -1.8964 -1.1418
  741SOL    HW2 2223   2.477   0.032   2.560 -0.2678 -2.8582  1.1309
  742SOL     OW 2224   2.232   1.403   0.182  0.6258 -0.4789 -0.2570
  742SOL    HW1 2225   2.166   1.486   0.202 -1.6967  0.2975 -0.5473
  742SOL    HW2 2226   2.188   1.311   0.206 -1.5406 -0.7429  0.8927
  743SOL     OW 2227   1.822   0.662   2.596 -0.4736 -0.2110 -0.2736
  743SOL    HW1 2228   1.805   0.591   2.524 -2.0052  0.5767  0.2139
  743SOL    HW2 2229   1.758   0.747   2.594 -1.8798  0.6576  0.6261
  744SOL     OW 2230   2.697   2.132   0.076  0.5366  0.5162 -0.0843
  744SOL    HW1 2231   2.608   2.185   0.094 -3.3412  1.9498 -1.8622
  744SOL    HW2 2232   2.680   2.034   0.039 -4.1591  0.5245 -0.2524
  745SOL     OW 2233   2.156   2.663   2.293 -0.4953  0.2618 -0.3915
  745SOL    HW1 2234   2.082   2.676   2.224  0.5369 -0.2457  1.4378
  745SOL    HW2 2235   2.155   2.740   2.357  1.3683  0.0945 -0.4636
  746SOL     OW 2236   3.085   2.621   1.762  0.4931 -0.4115  0.8382
  746SOL    HW1 2237   3.163   2.636   1.697  0.1344 -0.7528  1.1390
  746SOL    HW2 2238   3.054   2.711   1.807  0.3258 -1.0886  3.1186
  747SOL     OW 2239   0.029   1.776   1.615  0.0664 -0.5609 -0.0606
  747SOL    HW1 2240  -0.013   1.682   1.605  3.0832  0.2624 -0.3956
  747SOL    HW2 2241   0.060   1.820   1.524 -0.2374  3.1634 -1.1706
  748SOL     OW 2242   1.861   2.765   2.834 -0.0998  0.4336 -0.2677
  748SOL    HW1 2243   1.889   2.803   2.931  0.1113 -1.1296  1.0860
  748SOL    HW2 2244   1.764   2.725   2.817  1.3752 -2.1772 -1.4695
  749SOL     OW 2245   1.328   3.080   0.884 -0.0068 -0.0176  0.4063
  749SOL    HW1 2246   1.256   3.019   0.917  2.2966 -0.7369 -0.5363
  749SOL    HW2 2247   1.326   3.109   0.783  0.0300 -2.2236  0.1328
  750SOL     OW 2248   2.379   0.233   1.875 -0.5607  0.0119 -0.3723
  750SOL    HW1 2249   2.381   0.297   1.791  0.0542 -0.8135 -0.4107
  750SOL    HW2 2250   2.349   0.277   1.962 -3.7022  0.8738  0.8844
  751SOL     OW 2251   0.940   2.171   2.728  0.0499  0.1734 -0.3755
  751SOL    HW1 2252   0.942   2.155   2.831  0.1764  1.9845  0.2471
  751SOL    HW2 2253   0.857   2.129   2.684 -1.1098 -1.7959  0.6074
  752SOL     OW 2254   1.239   0.868   1.507  0.7258 -0.4464  0.1461
  752SOL    HW1 2255   1.312   0.913   1.449  0.0741  1.4645  4.6135
  752SOL    HW2 2256   1.254   0.769   1.536 -0.6505  0.1476  0.0776
  753SOL     OW 2257   0.955   2.584   1.703 -0.1127  0.5043  0.3112
  753SOL    HW1 2258   1.048   2.638   1.693  2.1227 -2.8335  2.7998
  753SOL    HW2 2259   0.877   2.652   1.687  0.8644  0.9737 -1.4812
  754SOL     OW 2260   1.210   1.315   3.099  0.0876 -0.1837  0.1710
  754SOL    HW1 2261   1.246   1.247   3.028 -1.0974 -0.2081 -2.2803
  754SOL    HW2 2262   1.200   1.413   3.056 -0.3624  0.3935 -2.2300
  755SOL     OW 2263   1.946   0.427   2.213 -0.0557 -0.0913 -0.2153
  755SOL    HW1 2264   2.040   0.419   2.264  0.6318  1.2798  1.2959
  755SOL    HW2 2265   1.872   0.457   2.280  1.1565 -2.0394  2.4640
  756SOL     OW 2266   2.603   0.957   2.932  0.2050 -0.5023 -0.0775
  756SOL    HW1 2267   2.702   0.952   2.953 -1.8682 -1.2266 -0.9032
  756SOL    HW2 2268   2.539   0.908   3.003 -0.6209  3.9494 -0.3640
  757SOL     OW 2269   3.047   0.466   1.790 -0.0468  0.5533 -0.1702
  757SOL    HW1 2270   3.137   0.487   1.742 -0.7028 -1.4397 -2.1887
  757SOL    HW2 2271   3.032   0.361   1.799 -0.4910 -1.3189  3.6914
  758SOL     OW 2272   2.385   0.108   1.426 -0.3771 -0.2028  0.2285
  758SOL    HW1 2273   2.333   0.022   1.459  0.5061 -2.7124  1.3233
  758SOL    HW2 2274   2.384   0.100   1.319  1.0284  0.1026 -1.5107
  759SOL     OW 2275   1.693   0.032   0.068  0.0277 -0.2510  0.7960
  759SOL    HW1 2276   1.627   0.052  -0.014  0.7118  1.2892 -2.2880
  759SOL    HW2 2277   1.783  -0.003   0.032  0.0018  3.6496  0.4275
  760SOL     OW 2278   2.750   2.077   2.816 -0.0541 -0.2377 -0.3160
  760SOL    HW1 2279   2.817   1.999   2.847 -1.1074 -0.1473  2.3762
  760SOL    HW2 2280   2.742   2.161   2.877  1.0497  0.8290 -1.5054
  761SOL     OW 2281   1.953   1.755   1.676  0.4312 -0.5106 -0.8990
  761SOL    HW1 2282   1.999   1.670   1.712 -0.1631  0.5770  0.9545
  761SOL    HW2 2283   1.904   1.739   1.586  1.4806 -2.1418  2.2872
  762SOL     OW 2284   0.467   2.340   0.972  0.0784  0.1352  0.0722
  762SOL    HW1 2285   0.511   2.357   0.879 -0.1605 -1.5047  1.6023
  762SOL    HW2 2286   0.504   2.391   1.051  0.1978  0.9363 -1.5620
  763SOL     OW 2287   2.102   1.535   2.966 -0.0105  0.2836  0.2509
  763SOL    HW1 2288   2.177   1.464   2.965  0.7235 -0.6906 -0.5178
  763SOL    HW2 2289   2.027   1.508   3.032 -1.5728  0.1354  0.7856
  764SOL     OW 2290   0.661   0.595   0.853 -0.0247  0.0044  0.7353
  764SOL    HW1 2291   0.640   0.517   0.789  1.9138  2.3229 -2.5918
  764SOL    HW2 2292   0.763   0.614   0.868  1.2082  1.2401  0.9480
  765SOL     OW 2293   0.707   0.211   0.838 -0.5095 -0.0043  0.3596
  765SOL    HW1 2294   0.728   0.300   0.791 -1.3498 -2.2429 -0.4374
  765SOL    HW2 2295   0.675   0.228   0.935 -0.0578 -0.8851  1.1689
  766SOL     OW 2296   2.962   2.088   3.087  0.0090  0.2318  0.0771
  766SOL    HW1 2297   2.876   2.103   3.139 -1.3377 -1.9002 -0.7788
  766SOL    HW2 2298   3.039   2.157   3.109 -0.0907  0.2732  1.8752
  767SOL     OW 2299   2.860   1.570   0.542  0.2650  0.3111  0.0633
  767SOL    HW1 2300   2.767   1.540   0.584  0.8601 -1.7814 -1.1687
  767SOL    HW2 2301   2.931   1.577   0.611 -0.7031 -3.9742 -0.4245
  768SOL     OW 2302   1.083   0.229   0.354  0.2571  0.3645 -0.0226
  768SOL    HW1 2303   1.023   0.156   0.406  0.0775 -3.4418  0.9881
  768SOL    HW2 2304   1.163   0.184   0.300 -1.0356  1.8730  0.0633
  769SOL     OW 2305   1.118   1.894   2.255 -0.0303 -0.1540  0.4688
  769SOL    HW1 2306   1.081   1.911   2.350 -0.6299  2.4189  1.1053
  769SOL    HW2 2307   1.100   1.801   2.209  0.3346 -3.6015 -2.6538
  770SOL     OW 2308   0.126   1.264   2.249  0.0934  0.8659  0.5228
  770SOL    HW1 2309   0.109   1.254   2.354  1.1938 -0.3767 -0.1367
  770SOL    HW2 2310   0.041   1.256   2.196 -0.9578  0.8773 -0.0463
  771SOL     OW 2311   2.942   2.838   1.874  0.3646  0.2529 -0.3944
  771SOL    HW1 2312   2.918   2.896   1.793  0.5205  3.5888 -0.0075
  771SOL    HW2 2313   2.926   2.893   1.961 -3.5466 -3.7593  0.6518
  772SOL     OW 2314   2.171   0.102   2.974 -0.1116  0.3331  0.1165
  772SOL    HW1 2315   2.260   0.079   2.928  0.8074 -1.1210 -2.0735
  772SOL    HW2 2316   2.171   0.200   3.013  1.1958 -0.7214  1.6080
  773SOL     OW 2317   0.734   2.134   2.512  0.1418 -1.1137  0.2201
  773SOL    HW1 2318   0.723   2.175   2.414  1.2831  1.0820 -0.0213
  773SOL    HW2 2319   0.644   2.134   2.564 -0.8259 -1.6640  0.3933
  774SOL     OW 2320   2.036   0.019   2.671  0.4397 -0.6531  0.2454
  774SOL    HW1 2321   2.058   0.109   2.712  0.1375  1.2256 -0.8774
  774SOL    HW2 2322   2.075  -0.063   2.720 -1.5162  0.6919 -3.9775
  775SOL     OW 2323   2.527   2.805   2.490 -0.2573  0.2420  0.3447
  775SOL    HW1 2324   2.496   2.905   2.481 -2.6976  1.4363 -0.5072
  775SOL    HW2 2325   2.628   2.802   2.506  0.4854  0.8813  1.0757
  776SOL     OW 2326   0.062   1.258   0.233 -0.2333 -0.3313  0.3872
  776SOL    HW1 2327   0.014   1.225   0.146 -2.0762 -0.0935  3.2258
  776SOL    HW2 2328  -0.000   1.257   0.315 -1.0092 -1.7614 -2.3260
  777SOL     OW 2329   0.243   2.780   0.480 -0.3910 -1.2458 -0.0235
  777SOL    HW1 2330   0.149   2.781   0.525  1.0665 -0.7401  3.1074
  777SOL    HW2 2331   0.301   2.864   0.494  1.2314 -0.5110 -1.3789
  778SOL     OW 2332   1.361   1.974   0.160 -0.2596  0.9509  0.2567
  778SOL    HW1 2333   1.349   1.971   0.262  1.5977 -1.4135  1.0889
  778SOL    HW2 2334   1.384   2.070   0.128 -0.1698 -0.4342  1.4324
  779SOL     OW 2335   0.189   0.801   0.497  0.1017 -0.7158  0.1248
  779SOL    HW1 2336   0.145   0.705   0.509 -0.5639  0.0141  2.5867
  779SOL    HW2 2337   0.148   0.871   0.563 -0.2050  0.2816  1.5711
  780SOL     OW 2338   0.040   0.267   2.279 -0.3190  0.4291  0.7577
  780SOL    HW1 2339   0.041   0.363   2.313  3.1433 -0.2826 -1.2501
  780SOL    HW2 2340   0.135   0.240   2.252 -0.9971 -0.1367  1.2789
  781SOL     OW 2341   0.661   1.722   1.564 -0.0656 -0.3325 -0.0469
  781SOL    HW1 2342   0.674   1.748   1.667  1.2367 -0.8725  1.2417
  781SOL    HW2 2343   0.564   1.693   1.542 -2.6625  0.5397 -3.7859
  782SOL     OW 2344   2.587   0.147   0.896  0.6026 -0.0496 -0.2185
  782SOL    HW1 2345   2.516   0.162   0.817  0.2928  1.0202 -2.3784
  782SOL    HW2 2346   2.561   0.192   0.985 -0.2589  1.2415 -2.5694
  783SOL     OW 2347   2.823   0.651   2.525  0.3234  0.2673  0.5079
  783SOL    HW1 2348   2.781   0.655   2.622 -1.5769  1.1488 -0.8878
  783SOL    HW2 2349   2.753   0.603   2.458  0.2337 -1.4650  3.3049
  784SOL     OW 2350   1.375   2.227   0.048 -0.3378  0.2653  0.1190
  784SOL    HW1 2351   1.469   2.259   0.083 -0.5427  2.9036  0.2063
  784SOL    HW2 2352   1.359   2.258  -0.052 -1.0687  1.7691 -2.4556
  785SOL     OW 2353   2.193   0.371   3.069  0.2254  0.4296 -0.2208
  785SOL    HW1 2354   2.110   0.365   3.130  0.1483 -1.2472  0.7978
  785SOL    HW2 2355   2.222   0.466   3.048  0.6031 -1.0612 -1.3631
  786SOL     OW 2356   2.053   2.148   2.196 -0.2111 -0.6935 -0.1949
  786SOL    HW1 2357   2.004   2.062   2.229 -0.1378 -0.8627  0.2486
  786SOL    HW2 2358   2.156   2.123   2.171  2.1801  0.1750  4.1372
  787SOL     OW 2359   1.407   0.615   0.881 -0.3698 -0.0889 -0.0149
  787SOL    HW1 2360   1.324   0.674   0.902 -0.3822  2.0175 -0.7081
  787SOL    HW2 2361   1.414   0.583   0.782 -0.4283 -1.0676 -0.9190
  788SOL     OW 2362   1.221   0.414   3.029  0.0440 -0.0799  0.0492
  788SOL    HW1 2363   1.134   0.416   2.962 -1.9594 -2.6828 -2.3008
  788SOL    HW2 2364   1.230   0.503   3.081  0.4643 -1.4746  2.4499
  789SOL     OW 2365   2.603   0.076   1.805  0.3789  0.1150 -0.4131
  789SOL    HW1 2366   2.514   0.122   1.843 -0.2506 -1.7530  0.5177
  789SOL    HW2 2367   2.584  -0.019   1.785 -0.9403  3.3439 -1.6004
  790SOL     OW 2368   2.561   2.690   0.858 -0.3307 -0.3691 -0.4987
  790SOL    HW1 2369   2.598   2.782   0.904  3.4362  0.9638  2.1240
  790SOL    HW2 2370   2.594   2.607   0.913 -4.5830 -0.2526  0.0569
  791SOL     OW 2371   1.922   1.269   0.257  0.6939  0.2129  0.3050
  791SOL    HW1 2372   1.833   1.215   0.277  0.9084 -0.7948 -1.5470
  791SOL    HW2 2373   2.004   1.207   0.234 -1.9184  0.0944 -2.4660
  792SOL     OW 2374   0.452   2.010   2.131 -0.1712 -0.0697  0.2821
  792SOL    HW1 2375   0.514   2.069   2.189 -0.1106  2.0669 -1.9846
  792SOL    HW2 2376   0.374   1.976   2.189  1.8524  2.7985 -1.3980
  793SOL     OW 2377   2.093   1.551   2.087  0.0335 -0.3338 -0.3521
  793SOL    HW1 2378   2.137   1.642   2.062 -1.0033 -0.5162 -2.3419
  793SOL    HW2 2379   2.110   1.474   2.026 -1.6162  0.7489  3.0437
  794SOL     OW 2380   0.465   1.377   2.486  0.3458 -0.1637 -0.6564
  794SOL    HW1 2381   0.458   1.316   2.404 -1.6126  0.5963  1.6910
  794SOL    HW2 2382   0.417   1.467   2.474  2.0847 -1.9357  0.2560
  795SOL     OW 2383   2.473   2.365   1.791  0.1024  0.0761  0.1591
  795SOL    HW1 2384   2.508   2.379   1.883 -0.6386 -1.0546  0.0750
  795SOL    HW2 2385   2.405   2.286   1.782 -3.5598  0.2285  0.8943
  796SOL     OW 2386   3.097   1.078   2.699  0.4331 -0.5406  0.0617
  796SOL    HW1 2387   2.990   1.085   2.707  0.8987  0.9436 -1.0011
  796SOL    HW2 2388   3.156   1.112   2.782  0.6793  1.6977 -2.1796
  797SOL     OW 2389   0.768   0.668   1.331  0.1264  0.0876 -0.0567
  797SOL    HW1 2390   0.843   0.717   1.393 -0.4816  2.5325 -1.3039
  797SOL    HW2 2391   0.715   0.745   1.281 -0.6673 -0.4896 -1.4008
  798SOL     OW 2392   1.338   0.433   1.068 -0.1222 -0.0080 -0.6849
  798SOL    HW1 2393   1.357   0.473   1.162  1.4851  1.0528  1.9559
  798SOL    HW2 2394   1.361   0.491   0.986 -2.0118 -2.0845 -0.0747
  799SOL     OW 2395   1.952   2.690   1.038 -0.1796  0.5824 -0.1702
  799SOL    HW1 2396   1.918   2.607   1.096 -1.4542 -1.5461  1.2390
  799SOL    HW2 2397   1.890   2.704   0.958  1.1772  1.7297 -2.9903
  800SOL     OW 2398   2.923   0.827   1.859  0.4119  0.0131  0.3880
  800SOL    HW1 2399   2.976   0.903   1.904 -0.9939 -0.2240  1.2175
  800SOL    HW2 2400   2.821   0.851   1.859 -0.3337 -2.4772 -1.1738
  801SOL     OW 2401   1.972   2.159   0.050 -0.0322 -0.5287  0.1348
  801SOL    HW1 2402   1.894   2.117  -0.000 -1.2448  0.2323 -0.4283
  801SOL    HW2 2403   2.061   2.106   0.031 -1.9018  1.1440 -0.1060
  802SOL     OW 2404   0.689   0.758   2.525  0.4978 -0.4892 -0.6404
  802SOL    HW1 2405   0.751   0.740   2.447  0.5228 -4.1396  3.7106
  802SOL    HW2 2406   0.594   0.720   2.511  0.8168 -1.1067  1.2852
  803SOL     OW 2407   0.953   0.095   0.890  0.3560 -0.2491  0.0830
  803SOL    HW1 2408   1.041   0.149   0.900  1.1713 -1.5355 -1.9488
  803SOL    HW2 2409   0.874   0.150   0.851  1.3237  3.8730  1.9314
  804SOL     OW 2410   0.299   3.045   2.199 -0.3893  0.2656 -0.0926
  804SOL    HW1 2411   0.272   3.147   2.203  0.7089 -0.0781 -2.7588
  804SOL    HW2 2412   0.253   3.001   2.115 -0.4201 -1.1498  0.6753
  805SOL     OW 2413   2.335   0.418   0.322  0.1265  0.0399  0.3374
  805SOL    HW1 2414   2.403   0.422   0.398  0.9414 -0.6784  2.3563
  805SOL    HW2 2415   2.360   0.345   0.258 -0.7003  0.3735  3.5053
  806SOL     OW 2416   0.692   2.463   1.798 -0.4614  0.9213 -0.3582
  806SOL    HW1 2417   0.668   2.561   1.823  0.3723 -0.4173  0.0114
  806SOL    HW2 2418   0.791   2.448   1.776 -1.6066 -1.1222 -1.3860
  807SOL     OW 2419   2.516   0.910   0.436 -0.1957  0.5271 -0.0191
  807SOL    HW1 2420   2.598   0.946   0.485 -1.4155  0.5845 -0.9601
  807SOL    HW2 2421   2.488   0.986   0.366 -2.5894 -0.2764 -1.2173
  808SOL     OW 2422   0.663   2.054   2.917 -0.4366 -0.1114 -0.7195
  808SOL    HW1 2423   0.615   2.096   2.996 -0.1203  1.9361 -0.2692
  808SOL    HW2 2424   0.676   1.953   2.924 -1.0851  1.3413 -0.7898
  809SOL     OW 2425   2.562   1.988   1.847 -0.0706 -0.0280 -0.3227
  809SOL    HW1 2426   2.659   2.017   1.856  1.3632 -1.1823  0.6287
  809SOL    HW2 2427   2.532   1.970   1.745 -3.6236  0.7845 -1.8989
  810SOL     OW 2428   2.184   1.123   0.493 -0.1468 -0.5960  0.0297
  810SOL    HW1 2429   2.177   1.032   0.542 -0.7119 -2.2956  1.8030
  810SOL    HW2 2430   2.167   1.203   0.551 -0.7114  1.4265 -0.7392
  811SOL     OW 2431   1.400   2.533   1.192 -0.2104  0.4351 -0.2171
  811SOL    HW1 2432   1.370   2.448   1.243  1.2549  1.5186  0.7971
  811SOL    HW2 2433   1.349   2.616   1.224 -0.5469 -2.7856  2.7587
  812SOL     OW 2434   1.412   0.758   1.981 -0.0481  0.1229  0.0070
  812SOL    HW1 2435   1.316   0.719   1.975 -1.8086  1.3178 -1.6785
  812SOL    HW2 2436   1.420   0.860   1.967 -1.2975  2.3902  0.9146
  813SOL     OW 2437   1.619   2.065   2.438 -0.2070 -0.3327 -0.0254
  813SOL    HW1 2438   1.656   1.982   2.487  2.8884  1.4436 -2.2635
  813SOL    HW2 2439   1.592   2.041   2.339 -0.8621  0.0218 -1.3218
  814SOL     OW 2440   2.988   1.596   2.846  0.8048  0.1284  0.1716
  814SOL    HW1 2441   3.057   1.583   2.921 -2.2663  1.4492 -1.7139
  814SOL    HW2 2442   3.011   1.673   2.785 -0.9598  1.9656  2.3045
  815SOL     OW 2443   2.188   2.906   2.752  0.2239 -0.5232 -1.0573
  815SOL    HW1 2444   2.152   2.838   2.821 -2.1187 -0.0386  1.0888
  815SOL    HW2 2445   2.258   2.967   2.794  0.8829 -2.6315 -1.9864
  816SOL     OW 2446   1.601   0.355   1.678  0.0350 -0.6089 -0.1643
  816SOL    HW1 2447   1.643   0.260   1.685 -1.6205 -2.3163 -1.3757
  816SOL    HW2 2448   1.554   0.389   1.768 -0.8938  1.6322  1.8144
  817SOL     OW 2449   0.396   1.191   2.658  0.3616 -0.4470  0.3196
  817SOL    HW1 2450   0.328   1.231   2.722  1.6482 -0.4584  0.3639
  817SOL    HW2 2451   0.418   1.262   2.585 -2.8265  0.3046  0.2454
  818SOL     OW 2452   1.942   0.830   0.437 -0.2150 -0.0563  0.1984
  818SOL    HW1 2453   2.046   0.818   0.437  0.8686 -1.7669 -0.3697
  818SOL    HW2 2454   1.900   0.879   0.519  2.3440 -0.1746  0.5257
  819SOL     OW 2455   2.760   2.946   0.003 -0.0576  0.4861 -0.6791
  819SOL    HW1 2456   2.788   2.890   0.087 -1.8491 -0.6721 -2.1726
  819SOL    HW2 2457   2.723   2.891  -0.076  0.3471  1.2962  0.8440
  820SOL     OW 2458   1.238   1.050   0.524  0.1563 -0.1036 -0.2510
  820SOL    HW1 2459   1.254   1.138   0.575  0.1408 -1.7498  0.7989
  820SOL    HW2 2460   1.203   0.981   0.594  2.3361  1.8288 -0.4686
  821SOL     OW 2461   0.044   1.265   0.717  0.0545 -0.4693 -0.0574
  821SOL    HW1 2462  -0.016   1.280   0.797  1.5178  1.7290  0.8900
  821SOL    HW2 2463   0.116   1.344   0.708  3.3443  2.0328  1.6914
  822SOL     OW 2464   2.544   1.809   2.456 -0.4322 -0.1625  0.2108
  822SOL    HW1 2465   2.546   1.884   2.525 -0.5007 -0.7938  0.7444
  822SOL    HW2 2466   2.471   1.822   2.384  0.3377 -0.0247  0.6500
  823SOL     OW 2467   2.029   0.883   1.130 -0.4264 -0.0921  0.2221
  823SOL    HW1 2468   1.986   0.852   1.222 -3.2731 -1.3681  0.0233
  823SOL    HW2 2469   1.968   0.935   1.070  1.0241 -0.5891  0.1949
  824SOL     OW 2470   0.212   1.974   2.806 -0.0586  0.2296 -0.2973
  824SOL    HW1 2471   0.253   1.918   2.888  1.9672  2.1104 -2.2192
  824SOL    HW2 2472   0.247   1.953   2.708 -1.8896 -0.4123 -0.4515
  825SOL     OW 2473   1.317   1.036   0.266 -0.1783  0.0323 -0.3514
  825SOL    HW1 2474   1.300   1.130   0.237  0.8908 -2.1336 -0.9481
  825SOL    HW2 2475   1.298   1.020   0.369 -0.4512 -1.0277 -0.8875
  826SOL     OW 2476   1.920   0.639   1.589 -0.2247 -0.1891  0.0387
  826SOL    HW1 2477   2.018   0.615   1.614  1.4490 -1.9709 -0.7646
  826SOL    HW2 2478   1.869   0.564   1.538 -1.4619  0.4357 -0.3379
  827SOL     OW 2479   0.648   1.230   0.297 -0.2349 -0.1279 -0.0021
  827SOL    HW1 2480   0.694   1.184   0.215  1.3754 -0.9865 -0.4896
  827SOL    HW2 2481   0.593   1.162   0.357 -2.9726 -1.1396 -0.1932
  828SOL     OW 2482   2.650   0.108   1.520  0.6282  0.2288  0.3908
  828SOL    HW1 2483   2.558   0.108   1.472 -1.3537 -3.2966 -0.4410
  828SOL    HW2 2484   2.641   0.105   1.624 -0.5438 -0.7538  0.0674
  829SOL     OW 2485   2.954   2.376   2.829  0.1190 -0.6696 -0.2833
  829SOL    HW1 2486   2.864   2.352   2.878 -0.2557  1.2537  1.5057
  829SOL    HW2 2487   2.955   2.479   2.804 -1.5366  1.1098 -0.1508
  830SOL     OW 2488   2.866   0.994   3.050  1.0036 -0.3821  0.2280
  830SOL    HW1 2489   2.909   1.058   3.120 -0.4624 -0.9072  2.8737
  830SOL    HW2 2490   2.901   0.894   3.050 -2.2169 -0.7109  0.4203
  831SOL     OW 2491   0.072   0.556   0.432 -0.7924 -0.1466 -0.0606
  831SOL    HW1 2492   0.033   0.507   0.515  0.3284  1.3121 -0.1619
  831SOL    HW2 2493   0.092   0.497   0.348 -1.8029 -1.7333  0.8131
  832SOL     OW 2494   1.829   0.785   3.033  0.1293 -0.1550  0.3794
  832SOL    HW1 2495   1.741   0.813   2.986 -1.1237  0.9190 -0.1046
  832SOL    HW2 2496   1.838   0.682   3.020 -1.6722  0.2055  0.5270
  833SOL     OW 2497   2.414   2.064   0.465  0.0034 -0.1696  0.3346
  833SOL    HW1 2498   2.324   2.023   0.429  0.7204 -1.5073 -0.0125
  833SOL    HW2 2499   2.487   1.996   0.472 -4.6816  0.8843 -0.1120
  834SOL     OW 2500   0.131   0.110   0.528  0.5099 -0.4405  0.5034
  834SOL    HW1 2501   0.197   0.037   0.562 -2.3365 -0.3621 -0.0991
  834SOL    HW2 2502   0.131   0.119   0.425  1.0703 -1.1054  1.3971
  835SOL     OW 2503   2.402   1.512   1.152  0.0573  0.2744  0.2697
  835SOL    HW1 2504   2.482   1.505   1.219 -1.2155 -1.7121 -0.6842
  835SOL    HW2 2505   2.443   1.478   1.060  1.1626  1.7421 -2.3853
  836SOL     OW 2506   1.629   0.866   2.577 -0.0998 -0.6187 -0.2597
  836SOL    HW1 2507   1.537   0.826   2.599  0.5682  0.4943 -0.4204
  836SOL    HW2 2508   1.650   0.880   2.477  0.7009  0.5286  0.0575
  837SOL     OW 2509   1.630   0.051   0.572  0.1518 -0.2781  0.3191
  837SOL    HW1 2510   1.608   0.129   0.634 -0.6725 -1.4798  0.7118
  837SOL    HW2 2511   1.608   0.069   0.470  0.2620  0.7763  0.2610
  838SOL     OW 2512   1.229   1.378   2.779 -0.1050 -0.2041 -0.3546
  838SOL    HW1 2513   1.197   1.458   2.837  0.3849 -0.4239 -1.9199
  838SOL    HW2 2514   1.145   1.332   2.733 -0.3971 -1.9147  1.4596
  839SOL     OW 2515   1.627   0.333   1.001 -1.1376 -0.1001  0.4816
  839SOL    HW1 2516   1.646   0.382   1.090  3.1366  0.4633 -0.6988
  839SOL    HW2 2517   1.576   0.242   1.011  0.8464  0.1514  0.0519
  840SOL     OW 2518   2.547   2.901   1.784  0.3777  0.5700  0.2082
  840SOL    HW1 2519   2.503   2.851   1.706 -1.4717  0.2895 -0.2024
  840SOL    HW2 2520   2.591   2.841   1.855  2.4304 -0.3495 -0.0847
  841SOL     OW 2521   1.573   0.871   2.974 -0.4087 -0.1389 -0.4309
  841SOL    HW1 2522   1.562   0.912   3.070  1.5830 -1.8059  0.9959
  841SOL    HW2 2523   1.544   0.941   2.905  0.2356  1.1772  2.3383
  842SOL     OW 2524   0.810   1.534   1.005  0.1749 -0.1114  0.1731
  842SOL    HW1 2525   0.764   1.625   1.040  0.3549  1.0808 -0.8452
  842SOL    HW2 2526   0.746   1.483   0.937  0.7094  2.6497 -1.3735
  843SOL     OW 2527   0.129   0.109   1.471 -0.2097  0.2242 -0.3531
  843SOL    HW1 2528   0.197   0.150   1.537  0.3637  1.5689  0.3071
  843SOL    HW2 2529   0.156   0.013   1.440  2.0629 -1.3830  0.4112
  844SOL     OW 2530   0.785   2.484   0.283  0.0550  0.0646 -0.2438
  844SOL    HW1 2531   0.743   2.464   0.377 -1.1241 -1.4991 -0.0500
  844SOL    HW2 2532   0.711   2.463   0.209  0.1850  0.8217 -2.2032
  845SOL     OW 2533   1.678   2.923   1.370 -0.0906  0.9916 -0.4878
  845SOL    HW1 2534   1.716   2.938   1.467 -1.7789  3.1631  2.2113
  845SOL    HW2 2535   1.632   3.010   1.337  1.8215  1.9144 -1.2467
  846SOL     OW 2536   1.685   2.964   0.904  0.3294 -0.2932  0.2932
  846SOL    HW1 2537   1.663   2.973   0.803 -0.1082 -1.2436 -0.6867
  846SOL    HW2 2538   1.785   2.949   0.913 -1.1262 -0.1213 -0.1991
  847SOL     OW 2539   2.039   1.646   0.234  0.5530 -0.0338 -0.1186
  847SOL    HW1 2540   2.018   1.594   0.318  1.2639 -2.1230 -0.9566
  847SOL    HW2 2541   1.975   1.624   0.152 -0.1210  0.9850  1.5525
  848SOL     OW 2542   2.465   0.795   2.666  0.1550  0.8071  0.1922
  848SOL    HW1 2543   2.479   0.901   2.667 -1.4021  3.2831 -0.2081
  848SOL    HW2 2544   2.391   0.764   2.603 -1.1089  1.7168  0.7769
  849SOL     OW 2545   2.457   0.862   2.300 -0.2455 -0.4147 -0.3301
  849SOL    HW1 2546   2.504   0.802   2.230 -1.5488  1.1173 -0.6309
  849SOL    HW2 2547   2.385   0.811   2.352  0.9894 -1.0215  1.4608
  850SOL     OW 2548   1.566   0.067   1.313  0.6228 -0.6455 -0.4778
  850SOL    HW1 2549   1.583   0.062   1.211  0.7461  0.7951  0.6842
  850SOL    HW2 2550   1.467   0.058   1.339  3.7860 -1.7996 -3.0851
  851SOL     OW 2551   0.457   1.710   0.697 -0.3778  0.1821  0.0018
  851SOL    HW1 2552   0.427   1.799   0.651  1.5257  0.9786 -1.0254
  851SOL    HW2 2553   0.558   1.704   0.715  0.7346 -2.5419  3.0088
  852SOL     OW 2554   0.803   2.125   1.652  0.0334 -0.1549 -0.2029
  852SOL    HW1 2555   0.820   2.217   1.597 -2.0152  2.2153 -1.7227
  852SOL    HW2 2556   0.751   2.136   1.739  0.1483 -3.4331  1.0553
  853SOL     OW 2557   2.507   1.563   2.612  0.6074  0.1628 -0.3254
  853SOL    HW1 2558   2.466   1.480   2.568 -2.3553 -1.5252 -1.4962
  853SOL    HW2 2559   2.517   1.642   2.543  0.3020 -0.3165 -0.5328
  854SOL     OW 2560   2.497   1.396   1.799 -0.3694  0.1935 -0.2774
  854SOL    HW1 2561   2.521   1.380   1.702 -2.1446  0.3579 -0.1949
  854SOL    HW2 2562   2.511   1.311   1.856  0.5097  1.5010 -0.7631
  855SOL     OW 2563   2.068   2.329   0.969 -0.0707 -0.0993 -0.5632
  855SOL    HW1 2564   2.100   2.416   0.919  1.7796  1.9105 -1.1401
  855SOL    HW2 2565   2.123   2.324   1.059 -1.6333 -0.8412  1.1291
  856SOL     OW 2566   1.385   1.389   0.912  0.1011 -0.2001  0.6283
  856SOL    HW1 2567   1.416   1.476   0.954  0.1510 -1.9445 -1.7070
  856SOL    HW2 2568   1.293   1.345   0.942 -0.7828 -1.2306 -0.1359
  857SOL     OW 2569   2.999   2.598   1.093 -0.4703  0.0190  0.1353
  857SOL    HW1 2570   2.914   2.546   1.103  0.1042 -0.2249 -0.7919
  857SOL    HW2 2571   3.081   2.539   1.066 -0.3737  2.1080 -1.2005
  858SOL     OW 2572   2.311   2.167   1.699  0.2520  0.4131  0.1038
  858SOL    HW1 2573   2.207   2.171   1.695 -1.5985 -3.1051  0.3122
  858SOL    HW2 2574   2.342   2.096   1.632 -2.5083 -0.4897  2.3460
  859SOL     OW 2575   2.433   0.511   1.061  0.0561 -0.3635  0.0040
  859SOL    HW1 2576   2.516   0.544   1.004  2.1724 -3.4935 -0.9984
  859SOL    HW2 2577   2.463   0.441   1.121 -2.3296  2.2320 -0.7611
  860SOL     OW 2578   1.922   2.784   0.434  0.1148 -0.6682 -0.0189
  860SOL    HW1 2579   1.916   2.740   0.339 -1.2298  1.0600  1.2767
  860SOL    HW2 2580   2.006   2.842   0.435  0.5146  3.1293  0.9692
  861SOL     OW 2581   1.120   2.597   2.787  0.1320  0.4829 -0.1957
  861SOL    HW1 2582   1.150   2.685   2.747 -1.3531 -1.2088  0.2112
  861SOL    HW2 2583   1.119   2.602   2.889  2.7206 -2.1736  0.0087
  862SOL     OW 2584   2.892   2.495   1.613  0.5408 -0.0261 -0.0061
  862SOL    HW1 2585   2.952   2.535   1.695  2.4430  0.4398  3.0919
  862SOL    HW2 2586   2.872   2.569   1.544 -0.9428 -0.3609 -2.5465
  863SOL     OW 2587   1.861   2.675   0.208 -0.1158 -0.9668  0.4725
  863SOL    HW1 2588   1.895   2.572   0.208  0.9817 -2.5227 -2.0864
  863SOL    HW2 2589   1.757   2.668   0.210  0.2455 -2.1022  0.1746
  864SOL     OW 2590   1.869   1.161   2.933 -0.8795  0.4798 -0.2956
  864SOL    HW1 2591   1.894   1.165   2.836 -3.3946  1.4699  1.1552
  864SOL    HW2 2592   1.951   1.159   3.000 -1.1106 -3.2736  0.7141
  865SOL     OW 2593   2.206   1.847   0.678 -0.0040 -0.9217  0.2882
  865SOL    HW1 2594   2.249   1.849   0.772 -0.3293  2.6350 -1.1678
  865SOL    HW2 2595   2.107   1.813   0.676  2.8986  0.6055 -1.8174
  866SOL     OW 2596   2.940   2.904   0.979 -0.3540  0.0819 -0.1891
  866SOL    HW1 2597   2.988   2.931   0.892 -1.2342  0.5213  1.5947
  866SOL    HW2 2598   2.966   2.809   1.017 -0.6214  0.1863  0.3556
  867SOL     OW 2599   0.377   1.345   0.905  0.5065  0.0969 -0.1790
  867SOL    HW1 2600   0.420   1.266   0.848 -1.0673  1.3667 -0.5375
  867SOL    HW2 2601   0.287   1.375   0.864 -1.3566  1.2745  1.0218
  868SOL     OW 2602   0.775   1.919   2.032  0.3084  0.4770  0.0003
  868SOL    HW1 2603   0.763   1.887   2.127 -0.1769 -0.8351 -0.9036
  868SOL    HW2 2604   0.759   2.023   2.023 -1.1946 -1.6936  1.0985
  869SOL     OW 2605   2.497   1.922   1.603 -0.5209  0.1930 -0.0159
  869SOL    HW1 2606   2.575   1.977   1.562 -0.5252  1.2645  0.7674
  869SOL    HW2 2607   2.461   1.851   1.539  2.2375 -0.5888  0.7270
  870SOL     OW 2608   2.274   2.602   1.254 -0.1223 -0.3987 -0.3786
  870SOL    HW1 2609   2.275   2.505   1.211  0.2319  1.7267 -0.5673
  870SOL    HW2 2610   2.214   2.605   1.341 -0.4885 -0.1742  2.5900
  871SOL     OW 2611   2.998   2.096   0.575 -0.1975  0.0182 -0.3609
  871SOL    HW1 2612   2.927   2.141   0.639  1.5023 -0.0667 -0.0580
  871SOL    HW2 2613   2.945   2.046   0.500  0.2496  0.2984 -0.9431
  872SOL     OW 2614   2.135   0.477   1.696 -0.0988 -0.0011  0.4111
  872SOL    HW1 2615   2.089   0.450   1.785  0.4432  2.5632  1.2122
  872SOL    HW2 2616   2.231   0.438   1.688  1.5365  2.7571 -0.4150
  873SOL     OW 2617   1.726   2.088   2.973 -0.3876  0.3080 -0.5776
  873SOL    HW1 2618   1.714   2.190   2.993 -0.4755 -2.2643  2.9151
  873SOL    HW2 2619   1.660   2.056   2.900 -0.2702  0.0056 -0.8157
  874SOL     OW 2620   0.623   2.465   0.788 -0.2675 -0.1247 -0.0565
  874SOL    HW1 2621   0.597   2.555   0.830  1.4694 -0.7222 -2.0234
  874SOL    HW2 2622   0.718   2.432   0.823  1.6525  1.6662 -0.8976
  875SOL     OW 2623   2.274   1.476   1.438 -0.7605  0.5580  0.0875
  875SOL    HW1 2624   2.369   1.514   1.458 -0.4357  2.0784 -0.6605
  875SOL    HW2 2625   2.218   1.532   1.373  1.2388 -1.2122  2.4783
  876SOL     OW 2626   0.110   2.251   2.709  0.3490 -0.4414 -0.1800
  876SOL    HW1 2627   0.138   2.159   2.751  2.3347 -0.3561 -1.3116
  876SOL    HW2 2628   0.102   2.332   2.768  2.2104 -0.2654 -2.6087
  877SOL     OW 2629   2.806   2.680   0.629 -0.3131 -0.2642  1.0218
  877SOL    HW1 2630   2.810   2.769   0.686  0.7660 -0.0323 -0.5077
  877SOL    HW2 2631   2.837   2.602   0.680 -0.7682  1.5552  2.4104
  878SOL     OW 2632   2.856   1.539   2.206  0.3015 -1.0398  0.5971
  878SOL    HW1 2633   2.960   1.556   2.216  0.9079 -1.3549 -1.3418
  878SOL    HW2 2634   2.799   1.564   2.290 -0.8617  0.5669  0.2072
  879SOL     OW 2635   2.397   0.040   1.153 -0.3146 -0.1958  0.3991
  879SOL    HW1 2636   2.426  -0.057   1.176  2.7084 -0.9800  1.1460
  879SOL    HW2 2637   2.312   0.043   1.093 -0.4356  0.6878 -1.7257
  880SOL     OW 2638   0.697   0.460   2.204  0.4182  0.5761 -0.2003
  880SOL    HW1 2639   0.624   0.396   2.245 -0.0986 -1.2562  1.3882
  880SOL    HW2 2640   0.768   0.407   2.138  3.2120  0.0581 -1.9595
  881SOL     OW 2641   0.917   0.056   0.482 -0.4150 -0.0630 -0.3727
  881SOL    HW1 2642   0.943  -0.041   0.505 -1.4418 -1.2570 -1.2678
  881SOL    HW2 2643   0.828   0.052   0.422  0.1029 -1.0012 -1.9604
  882SOL     OW 2644   2.693   1.624   1.665 -0.2251 -0.5585  0.0851
  882SOL    HW1 2645   2.780   1.581   1.638 -2.8144  0.5260 -0.6737
  882SOL    HW2 2646   2.691   1.669   1.761  0.2677  1.7411  0.2254
  883SOL     OW 2647   0.931   0.587   0.937  0.3217 -0.1565 -0.0094
  883SOL    HW1 2648   0.968   0.676   0.980  1.9328  0.4163  1.1953
  883SOL    HW2 2649   0.935   0.504   1.003  0.0525  0.3154 -1.5973
  884SOL     OW 2650   1.184   1.818   1.079  0.5877  0.4145  0.1404
  884SOL    HW1 2651   1.154   1.771   0.988 -3.8720 -2.0100 -2.3141
  884SOL    HW2 2652   1.135   1.911   1.077  0.8840  1.2466  1.2150
  885SOL     OW 2653   2.312   1.838   2.295 -0.1875  0.6815 -0.1686
  885SOL    HW1 2654   2.226   1.780   2.331 -1.3072 -0.3622  0.3477
  885SOL    HW2 2655   2.303   1.943   2.311 -0.2309 -0.3675 -3.2109
  886SOL     OW 2656   2.637   0.465   1.783  0.1508 -0.2038 -0.2205
  886SOL    HW1 2657   2.665   0.396   1.853 -1.1940 -0.5459 -0.0930
  886SOL    HW2 2658   2.715   0.529   1.755  1.3850  1.3806 -2.5326
  887SOL     OW 2659   0.143   2.063   1.212 -0.1877  0.6324  0.0424
  887SOL    HW1 2660   0.049   2.048   1.162 -0.1800 -0.5230  1.9952
  887SOL    HW2 2661   0.171   2.164   1.210 -2.3411  1.4965  1.6545
  888SOL     OW 2662   0.561   1.352   1.557  0.0386 -0.1072 -0.3983
  888SOL    HW1 2663   0.594   1.349   1.458  1.5216  1.2374 -1.3392
  888SOL    HW2 2664   0.494   1.276   1.584 -0.7635 -1.5237 -1.0736
  889SOL     OW 2665   0.814   2.505   2.161  0.3213 -0.3924  0.2203
  889SOL    HW1 2666   0.765   2.413   2.179  0.5958 -0.7217 -1.0682
  889SOL    HW2 2667   0.867   2.492   2.070 -0.8354 -0.7848  1.7266
  890SOL     OW 2668   2.355   2.469   0.190  0.2203 -0.2279 -0.1891
  890SOL    HW1 2669   2.401   2.541   0.129 -1.6263  0.0656 -0.9469
  890SOL    HW2 2670   2.299   2.509   0.269  0.7755 -2.2622  0.5807
  891SOL     OW 2671   2.650   1.550   0.704  0.3812 -0.6528 -0.4553
  891SOL    HW1 2672   2.683   1.532   0.802  2.9052  1.8380 -1.5757
  891SOL    HW2 2673   2.546   1.546   0.685 -1.1974 -1.6974 -1.6438
  892SOL     OW 2674   0.299   0.223   2.172 -0.5834  0.0764  0.3282
  892SOL    HW1 2675   0.312   0.259   2.076  0.7097 -0.1441  1.5935
  892SOL    HW2 2676   0.382   0.238   2.231 -0.6588 -2.4896  1.4867
  893SOL     OW 2677   1.636   0.230   2.771 -0.1459 -0.1390  0.1130
  893SOL    HW1 2678   1.719   0.294   2.768 -0.7342  0.3872  2.1504
  893SOL    HW2 2679   1.550   0.284   2.799  0.7882  0.4813 -0.1512
  894SOL     OW 2680   2.270   2.018   0.025  0.0006  0.4928  0.1104
  894SOL    HW1 2681   2.246   1.946  -0.051  0.4092  0.9977 -1.4759
  894SOL    HW2 2682   2.265   1.986   0.121  2.5364 -1.5267  0.2706
  895SOL     OW 2683   2.864   1.458   0.862 -0.4530 -0.2089 -0.1905
  895SOL    HW1 2684   2.910   1.378   0.916 -0.2106 -0.3575  4.1005
  895SOL    HW2 2685   2.927   1.540   0.858 -0.3051 -1.7285 -2.6494
  896SOL     OW 2686   1.800   1.800   1.157 -0.1812 -0.5101 -0.2571
  896SOL    HW1 2687   1.877   1.822   1.091  0.0224 -0.0518 -0.6954
  896SOL    HW2 2688   1.715   1.858   1.133 -2.0469 -1.2265  0.2491
  897SOL     OW 2689   0.269   0.538   3.045 -0.0802  0.8088 -0.5834
  897SOL    HW1 2690   0.209   0.611   2.999 -2.2029 -2.2483  0.1767
  897SOL    HW2 2691   0.364   0.580   3.066  2.0414 -0.8351  1.0891
  898SOL     OW 2692   0.598   2.826   1.105  0.2113 -0.0055  0.1341
  898SOL    HW1 2693   0.554   2.921   1.113  1.1050  0.3402  2.2786
  898SOL    HW2 2694   0.690   2.823   1.157 -1.0743  1.2924 -2.2950
  899SOL     OW 2695   2.727   0.905   1.225  0.3951  0.5696 -0.2254
  899SOL    HW1 2696   2.651   0.871   1.167  1.1142 -1.3795  1.8246
  899SOL    HW2 2697   2.814   0.914   1.174  2.0685 -0.0823  2.2410
  900SOL     OW 2698   0.988   2.587   2.361 -0.4539 -0.1480  0.1467
  900SOL    HW1 2699   0.925   2.570   2.279 -1.0878 -0.6411 -2.6685
  900SOL    HW2 2700   0.938   2.575   2.451 -1.4878  0.1473 -0.8019
  901SOL     OW 2701   1.873   2.359   1.376  0.3586  0.3984 -0.0541
  901SOL    HW1 2702   1.865   2.390   1.272  3.4317  0.9921 -0.2336
  901SOL    HW2 2703   1.970   2.321   1.398  0.8243 -1.4629 -0.9243
  902SOL     OW 2704   2.563   1.658   1.436  0.5095  0.3920 -0.2495
  902SOL    HW1 2705   2.602   1.648   1.535  0.4571 -2.4753  1.8719
  902SOL    HW2 2706   2.633   1.634   1.363  1.1400 -1.4951  0.3872
  903SOL     OW 2707   0.233   2.467   1.997  0.0506  0.1446  0.0190
  903SOL    HW1 2708   0.172   2.398   1.944 -0.2059 -3.0751  0.1306
  903SOL    HW2 2709   0.259   2.546   1.939 -1.0501  1.4333  1.0892
  904SOL     OW 2710   2.039   0.702   2.395 -0.5310  0.4306 -0.6020
  904SOL    HW1 2711   1.971   0.719   2.471  1.5496  1.3271 -1.0169
  904SOL    HW2 2712   1.999   0.725   2.304 -0.5720  0.0807 -1.6881
  905SOL     OW 2713   2.814   0.076   2.595  0.0482  0.0064 -0.1156
  905SOL    HW1 2714   2.875   0.002   2.632  0.4122  1.3087  0.5130
  905SOL    HW2 2715   2.858   0.143   2.527 -0.4223  0.2173  0.8573
  906SOL     OW 2716   0.147   1.768   1.880 -0.0410 -0.1863  0.1343
  906SOL    HW1 2717   0.081   1.785   1.799 -0.0453 -2.8604  0.2820
  906SOL    HW2 2718   0.239   1.808   1.857 -0.6130 -2.7805 -0.8354
  907SOL     OW 2719   0.129   2.486   1.017  0.2205 -0.3030 -0.3866
  907SOL    HW1 2720   0.191   2.564   0.992  1.2919  2.3223  2.5473
  907SOL    HW2 2721   0.088   2.432   0.941  0.9756 -1.7649 -1.9705
  908SOL     OW 2722   2.700   2.948   0.432  0.4241  0.3529  0.1475
  908SOL    HW1 2723   2.677   3.003   0.348  1.1495 -0.8425  2.0445
  908SOL    HW2 2724   2.734   2.851   0.419 -0.8381 -1.2019  3.9051
  909SOL     OW 2725   0.785   0.966   2.698  0.2215 -0.1887 -0.2784
  909SOL    HW1 2726   0.735   0.904   2.631 -2.1509  0.3346  0.0869
  909SOL    HW2 2727   0.884   0.981   2.664  1.3905 -3.7971 -1.8231
  910SOL     OW 2728   1.758   1.845   2.115 -0.5541  0.2972 -0.5536
  910SOL    HW1 2729   1.823   1.882   2.043 -0.4524 -0.4159  1.4180
  910SOL    HW2 2730   1.685   1.911   2.143  1.5791 -0.9688  1.1532
  911SOL     OW 2731   1.820   2.945   1.613 -0.6161  0.1870  0.5165
  911SOL    HW1 2732   1.919   2.928   1.591  1.2059 -0.9195  2.0455
  911SOL    HW2 2733   1.786   2.882   1.692 -1.1164 -0.9784  0.0483
  912SOL     OW 2734   2.899   0.969   0.756 -0.1709 -0.0450  0.0108
  912SOL    HW1 2735   2.908   0.953   0.857 -0.3327 -1.2192  0.0275
  912SOL    HW2 2736   2.869   1.067   0.729  1.3860  1.2984  2.5667
  913SOL     OW 2737   2.572   1.274   1.559  0.2807  0.0867  0.0466
  913SOL    HW1 2738   2.566   1.168   1.540 -0.1577 -2.0953  0.4051
  913SOL    HW2 2739   2.637   1.319   1.495 -1.4371  0.2671  0.2412
  914SOL     OW 2740   2.801   0.518   1.190 -0.1194  0.5262 -0.6902
  914SOL    HW1 2741   2.760   0.425   1.227  3.1383 -2.3842  2.6522
  914SOL    HW2 2742   2.816   0.581   1.268 -1.3243  0.4210  1.2018
  915SOL     OW 2743   1.250   0.791   1.015  0.4753 -0.2106 -0.3824
  915SOL    HW1 2744   1.332   0.800   1.074  1.2830  1.1926 -1.7684
  915SOL    HW2 2745   1.167   0.827   1.065 -0.3183  0.7802 -1.5832
  916SOL     OW 2746   0.600   0.035   0.669 -0.2000  0.0896  0.1321
  916SOL    HW1 2747   0.641   0.094   0.745  1.0508 -1.6730  1.2886
  916SOL    HW2 2748   0.638   0.056   0.574  3.2474  1.3303  0.1187
  917SOL     OW 2749   2.816   2.609   1.978 -0.1908 -0.1054  0.2455
  917SOL    HW1 2750   2.713   2.636   1.964 -1.6880 -0.1105 -1.1280
  917SOL    HW2 2751   2.880   2.685   1.943 -2.1505  0.5806  0.3244
  918SOL     OW 2752   1.038   2.215   3.004 -0.0400 -0.1022 -0.0018
  918SOL    HW1 2753   0.997   2.230   3.100 -0.3579  0.5210  1.0483
  918SOL    HW2 2754   1.083   2.123   3.005 -0.2227  0.0393  0.1909
  919SOL     OW 2755   0.890   1.612   2.822  0.2967 -0.3761 -0.1063
  919SOL    HW1 2756   0.939   1.678   2.755  0.1710  3.4497  0.7086
  919SOL    HW2 2757   0.831   1.542   2.773  1.3277 -0.5987 -2.7899
  920SOL     OW 2758   1.264   1.965   2.473  0.2573  0.5008 -0.0777
  920SOL    HW1 2759   1.261   1.948   2.370 -0.3810  1.2037 -0.3697
  920SOL    HW2 2760   1.264   1.881   2.527 -0.8359 -0.3609 -1.5312
  921SOL     OW 2761   1.110   0.055   2.603  0.0711  0.3683  0.0660
  921SOL    HW1 2762   1.092   0.070   2.505 -0.3916 -1.2193 -0.3018
  921SOL    HW2 2763   1.035  -0.005   2.649 -3.3580  2.0873  1.7812
  922SOL     OW 2764   2.141   2.414   2.899 -0.1030 -0.2131  0.3287
  922SOL    HW1 2765   2.170   2.311   2.901  1.2877 -1.7696 -0.1777
  922SOL    HW2 2766   2.061   2.431   2.832 -1.0910  2.1509 -2.4719
  923SOL     OW 2767   1.226   2.692   0.265 -0.3625 -0.3866 -0.0158
  923SOL    HW1 2768   1.317   2.728   0.306  0.0576  1.9277  0.6955
  923SOL    HW2 2769   1.227   2.588   0.255 -0.8039 -0.1168  0.8918
  924SOL     OW 2770   2.858   1.550   0.082 -0.0845  0.5237  0.0456
  924SOL    HW1 2771   2.778   1.532   0.017 -1.1182 -0.3706 -0.7528
  924SOL    HW2 2772   2.955   1.528   0.042  1.9311 -0.2345  1.5462
  925SOL     OW 2773   3.102   2.936   1.520 -0.3310 -0.5069  0.2737
  925SOL    HW1 2774   3.010   2.971   1.540  1.1606 -1.0075 -1.9102
  925SOL    HW2 2775   3.114   2.887   1.429  2.3992 -0.4055 -0.6881
  926SOL     OW 2776   1.353   2.832   1.300  0.1321  0.1609  0.3512
  926SOL    HW1 2777   1.400   2.843   1.204  0.9990 -1.6060  0.7886
  926SOL    HW2 2778   1.339   2.927   1.346 -1.7377  0.2744 -1.2944
  927SOL     OW 2779   0.300   2.654   1.788 -0.1536 -0.4373  0.5466
  927SOL    HW1 2780   0.277   2.582   1.715 -0.3301  2.0100  0.6907
  927SOL    HW2 2781   0.261   2.747   1.760 -2.0388 -0.7142 -1.4158
  928SOL     OW 2782   1.559   2.022   2.179  0.4352 -0.0866 -0.6725
  928SOL    HW1 2783   1.591   2.109   2.140 -1.3650 -4.5611  0.6425
  928SOL    HW2 2784   1.460   2.003   2.158  0.9789  2.3805 -0.6582
  929SOL     OW 2785   2.432   2.465   2.876 -0.3415  0.5614 -0.6111
  929SOL    HW1 2786   2.333   2.445   2.897  0.3459 -0.3450  0.0243
  929SOL    HW2 2787   2.449   2.487   2.771 -0.4836 -2.5721 -2.2007
  930SOL     OW 2788   2.187   1.984   1.059 -0.0586  0.1746  0.5869
  930SOL    HW1 2789   2.156   1.939   1.146 -1.4134  0.7817 -0.3556
  930SOL    HW2 2790   2.250   2.063   1.078 -1.7611  2.4277 -1.2573
  931SOL     OW 2791   0.538   1.707   2.698  0.1623 -0.0464 -0.0600
  931SOL    HW1 2792   0.561   1.712   2.794 -0.1575  0.9758 -0.3432
  931SOL    HW2 2793   0.567   1.620   2.661  0.5479  1.0321  0.1847
  932SOL     OW 2794   0.436   0.040   2.918 -0.2214 -0.7825 -0.1495
  932SOL    HW1 2795   0.531   0.086   2.902  1.6316 -0.0721 -3.2176
  932SOL    HW2 2796   0.429  -0.040   2.984 -1.0564  1.8496 -2.6609
  933SOL     OW 2797   1.066   0.727   3.019  0.2989  0.1089 -0.7301
  933SOL    HW1 2798   1.137   0.727   3.094  1.0853 -2.0740 -1.0115
  933SOL    HW2 2799   1.024   0.823   3.007  1.2513  0.6878 -1.4472
  934SOL     OW 2800   0.880   2.984   2.674  0.0714  0.8393  0.3145
  934SOL    HW1 2801   0.872   2.914   2.594  1.3321 -2.4980 -0.3806
  934SOL    HW2 2802   0.931   2.943   2.754  0.3747 -0.8151  0.3796
  935SOL     OW 2803   3.088   0.555   0.816 -0.0373  0.0424 -0.3120
  935SOL    HW1 2804   3.058   0.485   0.743  1.4749  0.4263 -1.8945
  935SOL    HW2 2805   3.009   0.592   0.864  2.1242  0.9285 -1.8002
  936SOL     OW 2806   1.104   2.919   0.136  0.2718  0.0550  0.2994
  936SOL    HW1 2807   1.148   2.973   0.061  0.6130 -3.1798 -0.9058
  936SOL    HW2 2808   1.154   2.829   0.166  2.7354 -2.1522  1.7924
  937SOL     OW 2809   1.946   2.664   2.089 -0.5116 -0.2779  0.2314
  937SOL    HW1 2810   1.851   2.699   2.113 -2.6917  0.8747 -3.4023
  937SOL    HW2 2811   1.963   2.687   1.992 -1.6184 -1.3586  2.2585
  938SOL     OW 2812   2.712   2.065   1.525  0.2166  0.3544  1.2696
  938SOL    HW1 2813   2.686   2.165   1.557  0.6719  1.8392  0.0783
  938SOL    HW2 2814   2.795   2.026   1.577 -2.0139 -2.4407 -0.2637
  939SOL     OW 2815   2.855   1.221   2.461  0.3070  0.2685  0.2021
  939SOL    HW1 2816   2.915   1.214   2.375  0.3724 -0.4231 -0.9266
  939SOL    HW2 2817   2.892   1.176   2.547  2.2607 -0.9070  0.2049
  940SOL     OW 2818   0.984   0.453   2.691  0.2417  0.0557  0.3141
  940SOL    HW1 2819   1.061   0.388   2.716 -2.7874 -1.5565 -3.0045
  940SOL    HW2 2820   0.894   0.409   2.667  3.3579 -0.7547  0.4769
  941SOL     OW 2821   0.063   2.830   2.208 -0.1506  0.3344 -0.1519
  941SOL    HW1 2822   0.100   2.732   2.196 -1.6390 -4.0259 -0.7641
  941SOL    HW2 2823   0.127   2.886   2.274 -0.2555  2.7385 -0.2952
  942SOL     OW 2824   0.059   0.127   2.516 -0.4748  0.1986  0.2083
  942SOL    HW1 2825   0.073   0.197   2.588 -0.2461 -0.5526  1.3182
  942SOL    HW2 2826   0.021   0.159   2.426 -0.5632  0.0390  1.3999
  943SOL     OW 2827   2.139   1.649   2.363  0.2041  0.0092  1.0641
  943SOL    HW1 2828   2.125   1.581   2.285 -2.7784 -2.3908 -0.7274
  943SOL    HW2 2829   2.123   1.602   2.451 -3.1889 -0.4443  1.4770
  944SOL     OW 2830   2.159   2.329   1.449  0.0928 -0.3990  0.1137
  944SOL    HW1 2831   2.228   2.396   1.481 -0.4006 -1.5734  1.4745
  944SOL    HW2 2832   2.130   2.268   1.528  2.0954  0.1390  0.4613
  945SOL     OW 2833   0.654   1.509   0.314 -0.2655  0.1627  0.7554
  945SOL    HW1 2834   0.699   1.555   0.237  0.8965 -1.3742  0.3305
  945SOL    HW2 2835   0.646   1.407   0.307  0.6781 -0.4137  3.1871
  946SOL     OW 2836   0.422   0.932   2.533  0.5924 -0.0041  0.4670
  946SOL    HW1 2837   0.338   0.908   2.481  0.6191  2.7005  1.0946
  946SOL    HW2 2838   0.433   1.033   2.560 -0.4637 -1.4013  1.6325
  947SOL     OW 2839   1.551   0.553   0.074 -0.5400  0.2900  0.2226
  947SOL    HW1 2840   1.521   0.604  -0.015 -0.8607  1.3435 -3.7879
  947SOL    HW2 2841   1.473   0.506   0.116  1.8169  1.7943  0.3959
  948SOL     OW 2842   2.013   3.072   2.179  0.3646 -0.2878 -0.0541
  948SOL    HW1 2843   2.023   3.024   2.085  2.0177  0.7941 -2.4044
  948SOL    HW2 2844   1.990   2.997   2.249  0.8271 -0.1770 -2.4628
  949SOL     OW 2845   0.642   2.503   0.528  0.4168  0.0225 -0.6556
  949SOL    HW1 2846   0.631   2.607   0.504 -0.0610  1.2731  0.0989
  949SOL    HW2 2847   0.644   2.497   0.637  0.7441  1.4303 -0.3693
  950SOL     OW 2848   0.219   2.150   3.053  0.4504 -0.0325  0.1542
  950SOL    HW1 2849   0.154   2.230   3.040 -1.3886 -0.6682 -0.2071
  950SOL    HW2 2850   0.182   2.068   3.006 -0.4401  1.8387 -1.6574
  951SOL     OW 2851   1.185   2.839   2.664  0.5018  0.5426  0.3546
  951SOL    HW1 2852   1.165   2.911   2.590 -0.2832  0.1052  0.3120
  951SOL    HW2 2853   1.282   2.838   2.696 -2.8978  1.7032  2.2536
  952SOL     OW 2854   0.114   1.642   0.444 -0.0372 -0.2017 -0.1201
  952SOL    HW1 2855   0.156   1.739   0.464 -2.3385 -0.7523 -2.5542
  952SOL    HW2 2856   0.137   1.581   0.523 -0.1415 -2.1793 -2.1776
  953SOL     OW 2857   2.492   1.763   0.200 -0.4099 -0.0063 -0.5188
  953SOL    HW1 2858   2.495   1.659   0.181 -0.5369  1.3340 -1.3415
  953SOL    HW2 2859   2.526   1.825   0.128 -1.2525  1.0269 -1.6334
  954SOL     OW 2860   2.187   0.532   0.972 -0.0473 -0.0948  0.3555
  954SOL    HW1 2861   2.185   0.559   0.870  1.1854  0.8457  1.7681
  954SOL    HW2 2862   2.283   0.512   1.000 -0.5910 -0.6836  0.9564
  955SOL     OW 2863   0.238   2.642   1.355  0.3527  0.4211  0.5765
  955SOL    HW1 2864   0.141   2.670   1.346  0.3537 -0.7688  1.1873
  955SOL    HW2 2865   0.281   2.631   1.259 -1.2988 -1.0997  1.8815
  956SOL     OW 2866   2.774   2.448   2.437  0.3065  0.1780 -0.5156
  956SOL    HW1 2867   2.775   2.342   2.425  2.3363 -2.4471 -1.9030
  956SOL    HW2 2868   2.809   2.498   2.356  2.2273 -2.9785  3.3592
  957SOL     OW 2869   1.535   2.034   2.734 -0.0871  0.1371  0.6356
  957SOL    HW1 2870   1.501   1.939   2.753  0.5441 -2.5032 -1.2145
  957SOL    HW2 2871   1.563   2.044   2.634  0.0562 -0.7335 -1.8677
  958SOL     OW 2872   2.694   2.336   2.956  0.5345 -0.5571 -0.1676
  958SOL    HW1 2873   2.599   2.371   2.938  1.1558  1.4430 -1.2728
  958SOL    HW2 2874   2.703   2.278   3.042  2.4218 -0.1573  2.3611
  959SOL     OW 2875   0.260   2.759   0.100 -0.1084 -0.0513  0.3908
  959SOL    HW1 2876   0.158   2.775   0.082  1.2733  0.3912 -0.3846
  959SOL    HW2 2877   0.281   2.686   0.174 -0.7507 -1.8205  2.2837
  960SOL     OW 2878   1.989   0.429   1.922  0.1933 -0.0691  0.0626
  960SOL    HW1 2879   1.921   0.504   1.897  0.4333 -1.6881 -1.0508
  960SOL    HW2 2880   2.000   0.418   2.023  2.6761 -0.7268  1.1185
  961SOL     OW 2881   2.548   1.851   1.021 -0.0412 -0.6479  0.2171
  961SOL    HW1 2882   2.542   1.935   0.959  1.5367  1.4102  0.3592
  961SOL    HW2 2883   2.539   1.867   1.122 -0.3207  1.5750 -0.0451
  962SOL     OW 2884   1.249   0.896   0.041 -0.1238  0.1235  0.3013
  962SOL    HW1 2885   1.263   0.947  -0.049 -0.3261 -0.2028 -0.3817
  962SOL    HW2 2886   1.271   0.958   0.123  1.1588  0.7435  1.1102
  963SOL     OW 2887   2.192   2.564   1.856  0.5051 -0.1390 -0.6205
  963SOL    HW1 2888   2.196   2.474   1.913  0.0186  1.4192 -0.9099
  963SOL    HW2 2889   2.238   2.644   1.905 -1.0896  1.6891 -3.0667
  964SOL     OW 2890   2.405   0.394   1.660  0.4490  0.0942  0.0307
  964SOL    HW1 2891   2.502   0.413   1.685 -2.1732  0.2675 -2.2121
  964SOL    HW2 2892   2.391   0.411   1.558 -2.3543  1.7820  2.1752
  965SOL     OW 2893   2.578   3.085   0.194  0.2379  0.7925  1.0937
  965SOL    HW1 2894   2.655   3.081   0.129  1.3173  0.0184 -0.1953
  965SOL    HW2 2895   2.492   3.077   0.134 -0.4700 -2.4676  0.4406
  966SOL     OW 2896   2.468   2.471   2.232 -0.3236 -0.2712  0.6281
  966SOL    HW1 2897   2.392   2.501   2.294 -1.0869  0.8199  0.5514
  966SOL    HW2 2898   2.482   2.536   2.148  2.2550  1.1461  0.8412
  967SOL     OW 2899   2.803   2.823   2.436 -0.3192  0.0263 -0.2768
  967SOL    HW1 2900   2.836   2.746   2.373 -0.5036 -3.6896  0.3017
  967SOL    HW2 2901   2.880   2.890   2.450  1.6255 -2.8991 -2.5185
  968SOL     OW 2902   1.940   1.085   2.657 -0.3865  0.1876  0.0224
  968SOL    HW1 2903   1.891   1.127   2.579 -2.9690 -0.3276  2.2080
  968SOL    HW2 2904   1.896   1.000   2.689  1.3410  3.2170 -0.1388
  969SOL     OW 2905   2.760   2.439   1.073 -0.3992  0.4689 -0.1355
  969SOL    HW1 2906   2.759   2.417   0.972 -1.0524  0.6066 -1.0703
  969SOL    HW2 2907   2.799   2.357   1.127  1.6134  1.3862 -1.8781
  970SOL     OW 2908   1.065   2.134   1.801 -0.1105  0.1337  0.4047
  970SOL    HW1 2909   0.983   2.143   1.739 -1.0926  0.0211  1.0011
  970SOL    HW2 2910   1.039   2.171   1.899  1.1119  0.3309  2.4520
  971SOL     OW 2911   2.824   2.097   1.883 -0.1220  0.0139 -0.4685
  971SOL    HW1 2912   2.858   2.181   1.931  0.2594  0.3194  0.5169
  971SOL    HW2 2913   2.881   2.067   1.805  2.3619  2.1057  1.2203
  972SOL     OW 2914   1.950   2.412   0.208  0.2859 -0.1207  0.2076
  972SOL    HW1 2915   1.966   2.348   0.124  1.4143  0.8193 -0.0557
  972SOL    HW2 2916   1.982   2.375   0.301 -0.3868 -1.7021 -0.9155
  973SOL     OW 2917   1.326   1.066   1.895 -0.5453  0.1848  0.4484
  973SOL    HW1 2918   1.246   1.025   1.837 -2.2943 -1.4159  1.3008
  973SOL    HW2 2919   1.301   1.158   1.942 -1.1000 -0.5821  2.0356
  974SOL     OW 2920   1.622   0.563   1.974 -0.1412  0.4067 -0.3464
  974SOL    HW1 2921   1.709   0.592   1.923  1.1161 -2.7488 -0.1035
  974SOL    HW2 2922   1.548   0.642   1.978  1.5091  3.1731 -0.0096
  975SOL     OW 2923   2.377   3.015   0.024 -0.0165 -0.1032 -0.1165
  975SOL    HW1 2924   2.334   2.926   0.049 -1.4029 -0.3361  1.6642
  975SOL    HW2 2925   2.398   3.021  -0.077  1.1699  0.0137  2.6577
  976SOL     OW 2926   1.908   2.889   2.355  0.2750  0.4126  0.2879
  976SOL    HW1 2927   1.831   2.834   2.313  1.5194  1.9324  0.1932
  976SOL    HW2 2928   1.940   2.835   2.438  0.4879 -2.0204  2.1114
  977SOL     OW 2929   0.456   0.687   1.005  0.1324 -0.4917  0.0776
  977SOL    HW1 2930   0.375   0.712   0.939 -2.3342  0.9331 -0.1955
  977SOL    HW2 2931   0.535   0.639   0.960  0.6480 -0.6524 -0.9308
   3.10000   3.10000   3.10000
