1000 SPC/Fw water molecules t=   0.34000 step= 340
 2931
    1SOL     OW    1   2.536   0.309   2.542 -0.1442 -0.0453  0.1012
    1SOL    HW1    2   2.562   0.209   2.532 -1.0725  1.2459  1.1332
    1SOL    HW2    3   2.576   0.350   2.631  2.2245  1.9984 -1.1906
    2SOL     OW    4   2.716   3.021   1.389 -0.5742 -0.0995  0.4045
    2SOL    HW1    5   2.793   3.052   1.331 -3.2537  0.7769  1.3537
    2SOL    HW2    6   2.665   3.098   1.436  1.3693 -1.4210 -1.1054
    3SOL     OW    7   2.702   2.581   0.421  0.3288 -0.0309 -0.2496
    3SOL    HW1    8   2.683   2.480   0.399  2.9641 -0.2698 -0.2922
    3SOL    HW2    9   2.770   2.603   0.497 -0.0222  0.2060 -1.8491
    4SOL     OW   10   1.340   1.487   2.383  0.1511 -0.5188 -0.0323
    4SOL    HW1   11   1.238   1.515   2.390 -1.0573 -1.2384 -0.2110
    4SOL    HW2   12   1.364   1.413   2.450  1.0522  0.9586 -1.5183
    5SOL     OW   13   1.215   1.490   3.016 -0.1918  0.0268 -0.1140
    5SOL    HW1   14   1.275   1.560   3.065  1.0515 -0.2704 -0.3613
    5SOL    HW2   15   1.116   1.527   3.015 -1.7613  0.4241 -0.1141
    6SOL     OW   16   0.011   1.804   2.901  0.0409 -0.4893 -0.3593
    6SOL    HW1   17  -0.014   1.867   2.979 -3.2137  0.0780 -1.3935
    6SOL    HW2   18   0.023   1.705   2.921 -0.5997 -0.0570 -1.0341
    7SOL     OW   19   2.561   0.884   1.145 -0.4869 -0.0175 -0.3765
    7SOL    HW1   20   2.467   0.869   1.175  0.4608  0.8869  2.8986
    7SOL    HW2   21   2.573   0.900   1.043 -2.2744  1.7298  0.8792
    8SOL     OW   22   0.435   0.636   1.563 -0.5715 -0.4329 -0.2443
    8SOL    HW1   23   0.526   0.588   1.564 -0.4175 -0.4523 -1.3804
    8SOL    HW2   24   0.382   0.617   1.476 -1.3163  0.4350 -2.6965
    9SOL     OW   25   1.179   0.971   2.277 -0.3749 -0.1866 -0.3279
    9SOL    HW1   26   1.227   1.060   2.248 -0.5349  1.9119 -0.8623
    9SOL    HW2   27   1.127   0.925   2.205 -0.0513  4.6311  2.7310
   10SOL     OW   28   0.738   1.314   1.235  0.4354  0.4693  0.0616
   10SOL    HW1   29   0.646   1.345   1.210  0.2680 -3.1374  1.6350
   10SOL    HW2   30   0.818   1.384   1.232  1.5091  2.2423 -0.8436
   11SOL     OW   31   2.347   2.618   0.945 -0.0313  0.5056  0.2884
   11SOL    HW1   32   2.312   2.636   1.043 -1.1159  1.6004 -1.6782
   11SOL    HW2   33   2.447   2.605   0.931 -0.9702  0.8044 -1.6303
   12SOL     OW   34   1.447   0.898   0.426  0.0742  0.6101 -0.0947
   12SOL    HW1   35   1.445   0.928   0.328 -0.9470 -1.0986  0.3468
   12SOL    HW2   36   1.422   0.796   0.438 -3.1009  1.2901 -0.7218
   13SOL     OW   37   2.518   0.655   1.836 -0.1650  0.5818  0.2864
   13SOL    HW1   38   2.420   0.661   1.867  1.0053 -2.1045  0.1599
   13SOL    HW2   39   2.541   0.559   1.801  0.4146  1.1768  0.8347
   14SOL     OW   40   1.935   0.010   0.630  0.0374  0.4866  0.4374
   14SOL    HW1   41   1.861   0.075   0.601 -0.7303  1.3514  0.3701
   14SOL    HW2   42   1.896  -0.045   0.707 -0.4688  1.3469 -0.1116
   15SOL     OW   43   1.968   2.011   2.862 -0.0816 -0.2997 -0.0485
   15SOL    HW1   44   1.927   2.099   2.896  1.5766  0.1121  0.5355
   15SOL    HW2   45   1.924   1.985   2.770  0.3346  2.3425 -0.2259
   16SOL     OW   46   1.631   1.723   0.015 -0.3798  0.5014 -0.5868
   16SOL    HW1   47   1.652   1.621   0.029  1.2216  1.3842  0.7529
   16SOL    HW2   48   1.718   1.780   0.013 -1.8720  1.2424 -0.8530
   17SOL     OW   49   0.124   0.439   0.165 -0.5187  0.6352  0.3680
   17SOL    HW1   50   0.207   0.502   0.164 -0.7084  0.8066 -0.1554
   17SOL    HW2   51   0.068   0.459   0.079 -0.2587  2.1402  0.0165
   18SOL     OW   52   0.987   2.907   2.208 -0.7373 -0.0444 -0.1872
   18SOL    HW1   53   0.902   2.871   2.158  1.5652 -1.1846 -0.2776
   18SOL    HW2   54   1.062   2.928   2.143  1.4038 -0.6193 -1.6887
   19SOL     OW   55   0.486   0.914   1.960  0.5645 -0.7622 -0.0186
   19SOL    HW1   56   0.452   0.986   2.031 -2.3667 -2.6053  2.6492
   19SOL    HW2   57   0.590   0.893   1.967  1.5265 -0.0049 -1.2961
   20SOL     OW   58   0.215   2.792   0.853 -0.1894  0.3155 -1.1848
   20SOL    HW1   59   0.127   2.830   0.818 -1.7831 -0.0570 -2.2207
   20SOL    HW2   60   0.288   2.775   0.778  1.8623  3.7548 -1.1882
   21SOL     OW   61   2.761   0.194   2.139 -0.3493  0.6302  0.0142
   21SOL    HW1   62   2.772   0.113   2.074 -2.1708  0.6104  0.0885
   21SOL    HW2   63   2.770   0.167   2.243  1.5695 -0.1138  0.8871
   22SOL     OW   64   2.316   0.188   3.085 -0.2853  0.1750  0.4693
   22SOL    HW1   65   2.332   0.085   3.069 -1.1461  3.3537  1.1248
   22SOL    HW2   66   2.215   0.213   3.103 -1.1938 -0.6914  0.2052
   23SOL     OW   67   2.795   0.666   0.656  0.3637 -0.3754 -0.0644
   23SOL    HW1   68   2.817   0.583   0.598  2.4123  0.9743  1.7622
   23SOL    HW2   69   2.760   0.753   0.609  1.2511  1.5051 -0.3043
   24SOL     OW   70   0.181   1.901   0.447 -0.5601 -0.1084 -0.4274
   24SOL    HW1   71   0.083   1.907   0.421 -1.3624 -1.8314  2.8015
   24SOL    HW2   72   0.254   1.893   0.376  1.9305 -0.5494  2.4656
   25SOL     OW   73   2.253   0.477   0.184 -0.2210 -0.0755  0.0278
   25SOL    HW1   74   2.294   0.391   0.226  0.5268 -1.8879  1.2021
   25SOL    HW2   75   2.226   0.484   0.081  2.0264 -0.7499 -0.4982
   26SOL     OW   76   2.498   2.195   2.105 -0.3212  0.1916 -0.2103
   26SOL    HW1   77   2.568   2.253   2.158 -0.8300 -1.3720 -0.5023
   26SOL    HW2   78   2.540   2.114   2.056  1.6869  0.2150 -0.0546
   27SOL     OW   79   0.681   2.942   0.097  0.0801 -0.2228  0.1032
   27SOL    HW1   80   0.773   2.991   0.113 -1.3530  1.0079  1.6881
   27SOL    HW2   81   0.638   2.952   0.002 -2.4652 -1.0527  0.0179
   28SOL     OW   82   1.576   0.157   0.282  0.0299 -0.1748 -0.0833
   28SOL    HW1   83   1.635   0.128   0.201 -0.8804  0.8724  0.3247
   28SOL    HW2   84   1.602   0.246   0.325 -1.4597  1.4211  0.4763
   29SOL     OW   85   2.040   0.599   0.305  0.4776  0.2351  0.9617
   29SOL    HW1   86   2.037   0.693   0.342 -0.1222 -3.8090  0.0071
   29SOL    HW2   87   2.137   0.571   0.272  1.7831 -0.3215  0.3880
   30SOL     OW   88   0.129   2.032   0.947 -0.0047 -0.6491 -0.0008
   30SOL    HW1   89   0.130   2.026   0.841 -2.5655 -0.0230 -1.7053
   30SOL    HW2   90   0.068   2.104   0.990 -0.1920  0.3412 -2.2944
   31SOL     OW   91   2.117   0.011   2.292 -0.0107 -0.3639  0.3589
   31SOL    HW1   92   2.129  -0.014   2.392 -2.0714 -0.0762 -0.3807
   31SOL    HW2   93   2.045  -0.041   2.239  0.2890  0.2520  0.6892
   32SOL     OW   94   2.896   0.154   0.136 -0.0499  0.7913  0.2951
   32SOL    HW1   95   2.871   0.070   0.197 -0.4334 -1.3001  0.5831
   32SOL    HW2   96   2.997   0.177   0.144 -1.7888  0.1125  0.0938
   33SOL     OW   97   0.959   0.313   0.467 -0.2148 -0.4281  0.4169
   33SOL    HW1   98   0.926   0.220   0.448 -1.7212  2.2860  0.4520
   33SOL    HW2   99   1.040   0.314   0.539 -0.7419  1.0235 -0.2642
   34SOL     OW  100   0.425   2.872   1.069 -0.0636 -0.4461  0.3544
   34SOL    HW1  101   0.359   2.847   0.994 -0.6616 -1.6710  2.4360
   34SOL    HW2  102   0.521   2.848   1.039 -1.2824  0.4974 -0.7105
   35SOL     OW  103   0.051   0.048   1.850  0.0990  0.2919 -0.1483
   35SOL    HW1  104   0.043  -0.051   1.882  0.8714  1.4994 -0.0082
   35SOL    HW2  105  -0.002   0.066   1.763  0.3968 -2.4251  2.0217
   36SOL     OW  106   1.938   1.151   1.804 -0.2820 -0.4004 -0.1312
   36SOL    HW1  107   2.029   1.126   1.752 -0.3337  2.1348  0.8624
   36SOL    HW2  108   1.956   1.235   1.861  1.5347 -2.2999 -1.9986
   37SOL     OW  109   1.181   0.249   0.935  0.5835 -0.1411 -0.1270
   37SOL    HW1  110   1.235   0.337   0.953  1.5969 -0.2257  2.1634
   37SOL    HW2  111   1.196   0.179   1.008 -0.6398 -0.6379  0.9419
   38SOL     OW  112   1.098   2.676   2.407 -0.6138  0.6191  0.2335
   38SOL    HW1  113   1.070   2.581   2.438 -1.2687 -1.2585  0.6628
   38SOL    HW2  114   1.027   2.750   2.411 -0.2435 -2.8786 -1.3904
   39SOL     OW  115   2.312   1.412   3.010 -0.5851 -0.2258  0.0289
   39SOL    HW1  116   2.405   1.356   3.011  1.3065 -1.3469 -0.9336
   39SOL    HW2  117   2.257   1.399   3.099 -0.4150 -1.3902  1.0692
   40SOL     OW  118   2.121   2.541   2.507  0.3746 -0.5874 -0.0842
   40SOL    HW1  119   2.099   2.638   2.549 -3.4432  1.0624 -0.6879
   40SOL    HW2  120   2.033   2.500   2.459 -2.0843  2.1227 -0.8667
   41SOL     OW  121   2.922   0.711   2.743 -0.0223 -0.4467  0.3828
   41SOL    HW1  122   2.821   0.734   2.747 -2.2519 -0.3974  0.8988
   41SOL    HW2  123   2.935   0.608   2.725 -0.2786 -2.6725 -2.2946
   42SOL     OW  124   1.785   1.741   0.608 -0.3573  0.1757 -0.1993
   42SOL    HW1  125   1.716   1.665   0.594  1.2173 -1.3874 -1.6670
   42SOL    HW2  126   1.829   1.781   0.517 -0.3209  0.5869 -2.1660
   43SOL     OW  127   0.446   1.743   1.250 -0.2441  1.0763 -0.6892
   43SOL    HW1  128   0.431   1.701   1.340 -0.1652  0.5674 -2.2622
   43SOL    HW2  129   0.361   1.785   1.203  1.7903  2.4643 -1.0734
   44SOL     OW  130   1.766   2.558   0.014  0.1183  0.2210 -0.0783
   44SOL    HW1  131   1.795   2.631  -0.055  1.9266  0.5849  0.3912
   44SOL    HW2  132   1.823   2.560   0.103  4.1738 -0.5138  1.4684
   45SOL     OW  133   0.297   1.939   2.576 -0.7133 -0.3928  0.2729
   45SOL    HW1  134   0.234   1.944   2.493  0.8583 -1.6913 -0.1480
   45SOL    HW2  135   0.368   1.864   2.572 -0.4714  1.0078  0.9681
   46SOL     OW  136   1.150   0.637   0.223  0.0806 -0.0108  0.5894
   46SOL    HW1  137   1.195   0.726   0.201 -0.6683  0.5314  1.4557
   46SOL    HW2  138   1.048   0.655   0.228 -0.5789  0.0712 -1.5483
   47SOL     OW  139   0.246   2.456   1.604 -0.5489  0.1366 -0.5163
   47SOL    HW1  140   0.313   2.374   1.592 -0.8219  0.9283  1.6501
   47SOL    HW2  141   0.194   2.477   1.521 -0.8452 -1.4799 -1.9434
   48SOL     OW  142   2.565   0.583   0.170 -0.1386  0.0171  0.1446
   48SOL    HW1  143   2.535   0.590   0.266  4.3983  1.0907 -1.8808
   48SOL    HW2  144   2.664   0.618   0.154 -2.0607 -1.5030  1.8745
   49SOL     OW  145   0.340   0.824   1.747  0.1265 -0.4300  0.2724
   49SOL    HW1  146   0.378   0.818   1.843 -0.9687  0.3884 -1.2121
   49SOL    HW2  147   0.378   0.747   1.687  0.3494 -0.2049 -1.1457
   50SOL     OW  148   1.711   1.078   0.384  0.0467  0.1059  0.1260
   50SOL    HW1  149   1.714   0.978   0.355  0.3278 -3.0609  1.5577
   50SOL    HW2  150   1.623   1.104   0.442 -1.2369  1.4666  0.7904
   51SOL     OW  151   3.019   1.892   0.365 -0.3050 -0.1901 -0.1793
   51SOL    HW1  152   3.046   1.891   0.265  0.2616  0.9607  1.7711
   51SOL    HW2  153   2.951   1.818   0.393 -0.4297  0.1298 -0.4440
   52SOL     OW  154   0.771   1.986   0.529  0.7225 -0.7544 -0.5271
   52SOL    HW1  155   0.687   2.028   0.571  3.5471 -0.5859  1.1072
   52SOL    HW2  156   0.807   1.898   0.582  3.5707 -1.0175 -1.5978
   53SOL     OW  157   0.019   0.364   1.548  0.0895 -0.4912  0.5372
   53SOL    HW1  158  -0.067   0.331   1.600 -0.6187 -0.4752 -1.0465
   53SOL    HW2  159   0.003   0.459   1.507  1.4962  1.9866 -2.0645
   54SOL     OW  160   1.752   0.456   3.050  0.4101  0.3984  0.2256
   54SOL    HW1  161   1.810   0.415   3.128 -1.6000 -0.7467 -2.9955
   54SOL    HW2  162   1.648   0.448   3.072  0.5192  0.3445  1.6960
   55SOL     OW  163   0.708   2.962   0.595  0.0355  0.4459 -0.7367
   55SOL    HW1  164   0.650   3.045   0.598  0.6305 -1.8152 -0.3977
   55SOL    HW2  165   0.807   2.966   0.556  0.6699  0.8925  0.3290
   56SOL     OW  166   0.462   1.555   3.017  0.0712  0.1780 -0.8621
   56SOL    HW1  167   0.420   1.602   3.103  0.7447  2.1172  3.1790
   56SOL    HW2  168   0.400   1.494   2.965 -0.5179  0.8741  3.1651
   57SOL     OW  169   1.791   2.412   2.671  0.0796  0.3900  0.2071
   57SOL    HW1  170   1.847   2.402   2.586 -1.4425  0.0006 -0.3833
   57SOL    HW2  171   1.693   2.444   2.659 -0.3250  0.1384  0.3772
   58SOL     OW  172   0.622   0.438   1.127  0.3144 -0.3921  0.1324
   58SOL    HW1  173   0.562   0.516   1.118 -2.3996 -3.2348  0.1562
   58SOL    HW2  174   0.572   0.352   1.149 -1.3267 -0.6063 -0.7646
   59SOL     OW  175   0.447   2.405   2.699 -0.5783  0.1433  0.7869
   59SOL    HW1  176   0.461   2.300   2.688  0.3313 -1.0127 -3.2392
   59SOL    HW2  177   0.524   2.453   2.751 -1.8618  0.5277  0.6648
   60SOL     OW  178   2.299   2.131   2.284 -0.4598 -0.6747 -0.0156
   60SOL    HW1  179   2.376   2.165   2.223 -0.7540 -0.0620  0.6934
   60SOL    HW2  180   2.324   2.150   2.384  0.5096  1.4056  0.8440
   61SOL     OW  181   1.415   0.637   0.483 -0.2108 -0.1935  0.6864
   61SOL    HW1  182   1.313   0.649   0.507  0.8935  3.0436  0.5408
   61SOL    HW2  183   1.434   0.585   0.392  0.4444  1.0682  2.1665
   62SOL     OW  184   2.635   1.837   3.068  0.1599 -0.9787 -0.4247
   62SOL    HW1  185   2.626   1.738   3.100 -4.6759  0.2284 -1.0715
   62SOL    HW2  186   2.706   1.851   2.993  2.0007  0.0760 -2.5616
   63SOL     OW  187   0.509   0.850   0.160  0.1875  0.3417 -0.2244
   63SOL    HW1  188   0.501   0.948   0.127  2.0282  1.4204  1.9073
   63SOL    HW2  189   0.585   0.836   0.228 -2.1232  0.7027  1.7750
   64SOL     OW  190   0.103   0.468   2.512 -0.2456  0.0983  0.4642
   64SOL    HW1  191   0.182   0.512   2.567  2.2108  4.3791  1.8723
   64SOL    HW2  192   0.066   0.526   2.436  3.5873 -0.4592 -4.2537
   65SOL     OW  193   0.208   1.475   0.650 -0.3415  0.2931 -0.3394
   65SOL    HW1  194   0.251   1.553   0.701 -0.7422  0.9412 -2.6428
   65SOL    HW2  195   0.273   1.415   0.594 -2.9808  1.1517 -2.3972
   66SOL     OW  196   2.515   0.411   0.662 -0.1635 -0.0461 -0.1956
   66SOL    HW1  197   2.474   0.485   0.725  1.9214 -0.2449 -0.3639
   66SOL    HW2  198   2.471   0.319   0.681  0.2806 -2.8786  3.7007
   67SOL     OW  199   0.502   2.509   1.362 -0.4285  0.0511  0.5749
   67SOL    HW1  200   0.542   2.552   1.444  0.6855  1.0143 -0.1619
   67SOL    HW2  201   0.507   2.407   1.368  0.0445  1.5443  0.2619
   68SOL     OW  202   1.034   1.104   2.474  0.9432  0.0149  0.0473
   68SOL    HW1  203   1.081   1.024   2.432 -2.1436 -0.8047  0.3120
   68SOL    HW2  204   0.955   1.127   2.412  1.5903 -1.0318 -0.2578
   69SOL     OW  205   0.765   2.714   2.123 -0.3773  0.4045  0.0289
   69SOL    HW1  206   0.824   2.635   2.145  0.4994  2.3856  1.4623
   69SOL    HW2  207   0.662   2.698   2.145  2.5986  1.5514 -0.0010
   70SOL     OW  208   0.644   0.265   2.742  0.4378 -0.0609  0.3575
   70SOL    HW1  209   0.667   0.327   2.823 -0.1700 -0.3533 -0.0537
   70SOL    HW2  210   0.577   0.191   2.772  1.7546  1.1486  1.5348
   71SOL     OW  211   1.127   1.795   0.343  0.4845  0.3720 -0.0141
   71SOL    HW1  212   1.084   1.702   0.353 -1.5570 -0.6901  0.4803
   71SOL    HW2  213   1.120   1.819   0.242  0.5194 -1.9007  1.2537
   72SOL     OW  214   1.816   0.139   2.112  0.1100  0.4967 -0.6684
   72SOL    HW1  215   1.859   0.164   2.021  2.0502  0.7975 -0.5037
   72SOL    HW2  216   1.843   0.039   2.145  0.6024 -1.9703 -0.4072
   73SOL     OW  217   2.760   2.211   2.509 -0.5718  0.3100  0.0998
   73SOL    HW1  218   2.764   2.112   2.474 -0.1753  4.0876  1.5048
   73SOL    HW2  219   2.805   2.212   2.600 -1.3630  0.2021  0.1269
   74SOL     OW  220   2.745   2.967   2.038 -0.0008 -0.6076 -0.5295
   74SOL    HW1  221   2.667   2.972   2.106 -1.6476  0.3767  0.7627
   74SOL    HW2  222   2.840   2.987   2.081 -0.3421 -1.6864  0.5128
   75SOL     OW  223   0.905   0.741   1.027  0.0158 -0.2559  0.1589
   75SOL    HW1  224   0.832   0.796   0.989 -0.8927  1.1993  0.8104
   75SOL    HW2  225   0.941   0.782   1.116  1.3704  0.2191 -1.1797
   76SOL     OW  226   1.740   1.246   2.591  0.1851 -0.0874  0.2662
   76SOL    HW1  227   1.641   1.219   2.602 -0.4499 -0.0665  1.1307
   76SOL    HW2  228   1.755   1.351   2.615 -0.7681  1.4709 -0.9887
   77SOL     OW  229   2.925   0.990   0.958  0.0961 -0.0918  0.4120
   77SOL    HW1  230   2.935   0.884   0.968 -3.2618  0.9175  0.2824
   77SOL    HW2  231   2.981   1.032   1.036  0.0784 -0.9006  0.8026
   78SOL     OW  232   1.958   1.409   1.522  0.2805  0.0910 -0.0594
   78SOL    HW1  233   2.054   1.383   1.496 -1.7660 -0.5531  0.4202
   78SOL    HW2  234   1.890   1.399   1.448  1.6695  2.3142  2.7880
   79SOL     OW  235   0.588   1.349   0.815 -0.2682  0.1750 -0.0458
   79SOL    HW1  236   0.498   1.397   0.838 -1.5576  2.5881 -0.8696
   79SOL    HW2  237   0.593   1.318   0.714  0.1638  0.5040  0.1976
   80SOL     OW  238   0.663   0.494   1.586 -0.3422  0.2314  0.3713
   80SOL    HW1  239   0.734   0.552   1.535 -1.3235  1.4483 -1.1532
   80SOL    HW2  240   0.680   0.391   1.576  1.0183 -1.0573  0.0475
   81SOL     OW  241   0.997   1.368   2.624 -0.5578 -0.4050 -0.3271
   81SOL    HW1  242   0.978   1.268   2.640  1.8426  2.3919  0.0854
   81SOL    HW2  243   0.960   1.398   2.530 -0.3640 -0.2915 -1.1763
   82SOL     OW  244   0.956   2.973   1.544  0.1042 -0.5146  0.2546
   82SOL    HW1  245   1.042   2.961   1.487 -1.6502  1.3392 -0.7256
   82SOL    HW2  246   0.877   2.901   1.522  0.6956 -0.7076  0.0026
   83SOL     OW  247   2.736   2.492   0.791 -0.8372 -0.0441 -0.3279
   83SOL    HW1  248   2.679   2.409   0.773  1.0473 -2.6294  0.0455
   83SOL    HW2  249   2.689   2.576   0.752  0.2288 -2.1357 -0.0574
   84SOL     OW  250   0.695   3.104   2.415 -0.7893 -0.6043 -0.2625
   84SOL    HW1  251   0.601   3.071   2.449 -1.2447  2.4112  1.5707
   84SOL    HW2  252   0.753   3.031   2.377 -1.4185 -3.7655  1.3421
   85SOL     OW  253   0.422   1.685   1.511  0.6353 -0.2666  0.6435
   85SOL    HW1  254   0.358   1.764   1.490  2.4679  0.0961  1.5700
   85SOL    HW2  255   0.409   1.637   1.602  0.9756 -0.5394 -1.7374
   86SOL     OW  256   0.359   0.988   1.489  0.0795  0.0353  0.4817
   86SOL    HW1  257   0.351   0.934   1.402  0.5402  0.1004  0.9503
   86SOL    HW2  258   0.406   0.942   1.567  0.7441 -0.2632 -0.7545
   87SOL     OW  259   1.526   0.618   0.246 -0.3655  0.4416 -0.2537
   87SOL    HW1  260   1.589   0.697   0.245  1.2825  0.2900 -0.9391
   87SOL    HW2  261   1.484   0.609   0.151 -0.7812 -0.1803  0.9786
   88SOL     OW  262   1.559   1.282   0.200 -0.2061  0.8464 -0.1690
   88SOL    HW1  263   1.608   1.212   0.258  2.4506 -0.8101 -0.3956
   88SOL    HW2  264   1.460   1.300   0.221 -0.8791  0.4278 -2.9271
   89SOL     OW  265   3.053   0.438   0.567  0.3925 -0.3178 -0.2503
   89SOL    HW1  266   3.128   0.370   0.584  2.0777 -0.7093 -0.2912
   89SOL    HW2  267   2.958   0.406   0.591  3.2038  0.9204  0.2083
   90SOL     OW  268   0.953   1.652   3.015 -0.0351 -0.2868 -0.2520
   90SOL    HW1  269   0.865   1.618   3.066 -0.5262  0.4123  0.6786
   90SOL    HW2  270   0.940   1.679   2.914 -2.0756 -2.4650 -0.7922
   91SOL     OW  271   1.283   1.478   1.788 -0.6553 -0.0252  0.1607
   91SOL    HW1  272   1.298   1.572   1.829 -0.1964  1.1130  2.2881
   91SOL    HW2  273   1.367   1.444   1.736 -0.4096 -0.6085  2.6381
   92SOL     OW  274   3.093   1.059   1.208 -1.1481 -0.0837  0.3382
   92SOL    HW1  275   3.166   1.110   1.160 -1.4857 -1.1830  0.9560
   92SOL    HW2  276   3.125   1.029   1.304  0.2230  4.5216  0.2343
   93SOL     OW  277   0.006   2.762   0.070  0.0411 -1.0832  0.0390
   93SOL    HW1  278  -0.009   2.773  -0.034  1.8751 -1.9958 -1.1205
   93SOL    HW2  279   0.065   2.677   0.097  0.6763 -4.6923 -2.1933
   94SOL     OW  280   1.521   1.366   1.682  0.6809  0.6862  0.1764
   94SOL    HW1  281   1.542   1.266   1.704 -0.1055 -0.5018 -0.5791
   94SOL    HW2  282   1.603   1.427   1.700 -0.0369  0.4495 -0.7435
   95SOL     OW  283   1.311   2.470   2.938 -0.1403  0.2066  0.7550
   95SOL    HW1  284   1.272   2.461   3.036 -1.1106 -2.1927 -0.1139
   95SOL    HW2  285   1.329   2.375   2.893 -2.2964  2.2134  0.5705
   96SOL     OW  286   0.540   1.996   1.211  0.4721 -0.8502 -0.1181
   96SOL    HW1  287   0.492   2.031   1.124  1.0537  1.9781  0.0913
   96SOL    HW2  288   0.521   1.893   1.233  0.6134 -0.2463  2.0224
   97SOL     OW  289   0.383   1.482   2.526 -0.4339  0.6339  0.3134
   97SOL    HW1  290   0.283   1.455   2.533  0.9867  0.6891 -0.5215
   97SOL    HW2  291   0.413   1.561   2.586  3.6822  0.6668 -1.7544
   98SOL     OW  292   1.988   1.659   1.297 -0.4531 -0.3035 -0.5018
   98SOL    HW1  293   2.019   1.597   1.222 -0.9914 -1.9995 -2.4015
   98SOL    HW2  294   2.028   1.625   1.389 -0.4755  0.6334 -0.0587
   99SOL     OW  295   2.498   2.145   1.359  0.4304 -0.3684  0.3915
   99SOL    HW1  296   2.543   2.174   1.446 -3.0421  1.9868  0.2715
   99SOL    HW2  297   2.478   2.044   1.362  0.5179  1.5965  2.2608
  100SOL     OW  298   2.327   0.373   2.022  0.1630  0.2694  0.0984
  100SOL    HW1  299   2.273   0.335   2.102 -0.2784 -2.3102 -1.5622
  100SOL    HW2  300   2.426   0.393   2.040 -4.1929 -1.3050 -1.2425
  101SOL     OW  301   0.374   1.509   0.280 -0.2929  0.6028 -0.3164
  101SOL    HW1  302   0.409   1.547   0.372  1.7992  2.2261 -2.6265
  101SOL    HW2  303   0.341   1.580   0.210 -3.6412 -1.4998  0.3583
  102SOL     OW  304   2.307   1.082   0.809 -0.0854 -0.0241  0.0818
  102SOL    HW1  305   2.229   1.032   0.769  0.5530 -1.1014 -1.8748
  102SOL    HW2  306   2.348   1.153   0.743 -0.5464 -2.5654  1.3644
  103SOL     OW  307   2.307   0.038   0.408  0.0987  0.1951 -0.2014
  103SOL    HW1  308   2.346   0.125   0.368 -1.5245 -3.2248  0.0275
  103SOL    HW2  309   2.369  -0.010   0.475 -1.8126 -2.6002  0.5840
  104SOL     OW  310   0.064   1.865   2.098 -0.1211 -0.1036  0.2554
  104SOL    HW1  311   0.072   1.798   2.025 -2.1759 -2.1842  0.7133
  104SOL    HW2  312  -0.030   1.857   2.141  0.9162 -1.4208 -1.2576
  105SOL     OW  313   1.198   1.977   0.825  1.1157  0.4954 -0.1101
  105SOL    HW1  314   1.132   2.026   0.762  0.2238  0.2692  0.4715
  105SOL    HW2  315   1.250   1.895   0.784  0.4548 -0.6717 -1.0658
  106SOL     OW  316   2.080   0.447   1.366  0.0681  0.3323  0.2776
  106SOL    HW1  317   2.077   0.360   1.425  0.3837 -1.3225  0.3407
  106SOL    HW2  318   2.027   0.526   1.411 -0.4206  3.2531 -1.5477
  107SOL     OW  319   1.804   3.022   1.065 -0.3089 -0.5454 -0.3263
  107SOL    HW1  320   1.855   3.093   1.122  2.5128 -1.6347  0.2517
  107SOL    HW2  321   1.744   2.967   1.128  0.5673 -0.1695 -2.6086
  108SOL     OW  322   0.770   2.661   1.280  0.3831  1.1502 -0.0752
  108SOL    HW1  323   0.765   2.740   1.343 -1.1001  0.0789 -2.6874
  108SOL    HW2  324   0.862   2.609   1.282  0.1518  3.9245 -1.8737
  109SOL     OW  325   2.162   0.110   0.785  0.5991  0.0100  0.7367
  109SOL    HW1  326   2.083   0.056   0.749  0.6513  1.2197  3.2401
  109SOL    HW2  327   2.163   0.106   0.889  1.8794  0.4549  0.4228
  110SOL     OW  328   0.453   2.816   2.728 -0.0770 -0.0312 -1.1672
  110SOL    HW1  329   0.483   2.873   2.651  0.9213  2.4418  2.9559
  110SOL    HW2  330   0.531   2.761   2.764 -0.6318  0.5014  1.1356
  111SOL     OW  331   1.317   0.538   2.272 -0.3901  0.2045 -0.1189
  111SOL    HW1  332   1.238   0.571   2.335 -3.1948  3.5006  0.6689
  111SOL    HW2  333   1.371   0.463   2.322  0.6161  0.3481  1.8885
  112SOL     OW  334   1.751   0.517   1.401  0.2100  0.0757  0.4196
  112SOL    HW1  335   1.731   0.497   1.304  0.5736  0.6650  1.9713
  112SOL    HW2  336   1.730   0.437   1.465 -1.2093 -0.7169 -1.9808
  113SOL     OW  337   2.329   1.619   1.711 -0.0388 -0.3545  0.1680
  113SOL    HW1  338   2.369   1.521   1.708 -0.7332 -0.0269  1.8022
  113SOL    HW2  339   2.340   1.651   1.807  0.4095 -1.4091  1.5961
  114SOL     OW  340   0.305   0.551   1.314 -0.0589 -0.1898  0.2749
  114SOL    HW1  341   0.304   0.652   1.287  0.8553 -1.4814 -1.6572
  114SOL    HW2  342   0.260   0.489   1.246  0.0948  0.3072 -1.3570
  115SOL     OW  343   2.613   1.590   1.216  0.1503  0.0156  0.2094
  115SOL    HW1  344   2.650   1.500   1.253  0.2939  0.7919  1.9369
  115SOL    HW2  345   2.672   1.637   1.143 -1.7085 -1.1683 -0.2312
  116SOL     OW  346   1.812   1.050   0.789 -0.2072 -0.4379  0.7976
  116SOL    HW1  347   1.730   0.995   0.756  3.1000 -1.2297  0.7220
  116SOL    HW2  348   1.792   1.150   0.789  0.4699 -2.9203  2.2955
  117SOL     OW  349   1.119   0.350   0.691 -0.1603 -0.2090  0.5926
  117SOL    HW1  350   1.137   0.320   0.787 -0.5166  0.0689  1.0969
  117SOL    HW2  351   1.121   0.455   0.685 -1.6423 -0.6800  1.3200
  118SOL     OW  352   1.111   1.093   1.150  0.3089  0.0530 -0.0316
  118SOL    HW1  353   1.051   1.023   1.193 -0.3187  0.2028 -0.5098
  118SOL    HW2  354   1.136   1.182   1.208  0.5101  0.8789  1.6446
  119SOL     OW  355   1.829   1.613   2.076 -0.3608  0.2745  0.6882
  119SOL    HW1  356   1.789   1.698   2.114 -0.6511 -1.7123 -0.3002
  119SOL    HW2  357   1.937   1.618   2.074  3.9126 -1.3744 -3.0850
  120SOL     OW  358   2.985   2.816   0.297 -0.3945 -0.1401  0.0806
  120SOL    HW1  359   3.000   2.798   0.194 -1.7621  1.0950  0.2023
  120SOL    HW2  360   2.991   2.732   0.354 -2.3869 -0.9405  1.2214
  121SOL     OW  361   2.005   0.711   2.194 -0.3403  0.0152  0.8572
  121SOL    HW1  362   2.009   0.753   2.096  1.9262  1.6983  0.0855
  121SOL    HW2  363   1.989   0.610   2.194 -0.8421  1.8143 -0.7278
  122SOL     OW  364   2.725   2.592   1.342 -0.2956  0.2110 -1.1351
  122SOL    HW1  365   2.712   2.574   1.247  0.2109  1.8908  0.9577
  122SOL    HW2  366   2.751   2.504   1.396 -1.6006 -1.5963 -0.6092
  123SOL     OW  367   1.721   0.053   1.725  0.3134  0.0476  0.2333
  123SOL    HW1  368   1.730  -0.006   1.638 -0.9461 -2.5650 -0.2636
  123SOL    HW2  369   1.808   0.095   1.756 -0.2241  1.1715 -1.2563
  124SOL     OW  370   0.114   0.480   1.084 -0.0957 -0.2812 -0.0079
  124SOL    HW1  371   0.073   0.568   1.128 -1.9115  1.2511 -2.6036
  124SOL    HW2  372   0.086   0.479   0.980 -4.1312  0.1107 -3.5982
  125SOL     OW  373   0.872   1.793   0.655  0.2787  0.2701 -0.2687
  125SOL    HW1  374   0.961   1.744   0.645 -0.3670 -0.1504  1.0836
  125SOL    HW2  375   0.854   1.832   0.752 -0.4148  2.1054  1.3987
  126SOL     OW  376   1.911   2.389   2.398  0.2421 -0.1019  0.0204
  126SOL    HW1  377   1.981   2.324   2.357  0.4481 -0.5179 -0.7857
  126SOL    HW2  378   1.818   2.342   2.412  0.6620 -1.6069  0.7663
  127SOL     OW  379   0.782   0.960   0.206 -0.4029 -0.4099  0.5268
  127SOL    HW1  380   0.856   0.998   0.270  0.3768  0.4765  1.1015
  127SOL    HW2  381   0.796   0.862   0.182  2.0532  1.0487 -0.7126
  128SOL     OW  382   0.950   0.173   1.449 -0.4377 -0.1791 -0.7224
  128SOL    HW1  383   0.910   0.215   1.363 -0.1783 -0.5473  1.4558
  128SOL    HW2  384   0.919   0.075   1.459  2.7004 -0.6485 -3.3927
  129SOL     OW  385   1.875   0.681   1.861  0.6145  0.1829 -0.1658
  129SOL    HW1  386   1.890   0.669   1.757  0.0681 -0.5191 -3.6595
  129SOL    HW2  387   1.897   0.769   1.907  0.0239 -1.8258  1.4839
  130SOL     OW  388   1.327   2.113   1.011 -0.4249  0.2797 -0.2285
  130SOL    HW1  389   1.271   2.061   0.941  1.9163  1.2917 -0.8139
  130SOL    HW2  390   1.362   2.205   0.971 -3.5159  1.5671 -0.7462
  131SOL     OW  391   0.011   1.520   1.371  0.3572  0.4235 -0.5572
  131SOL    HW1  392  -0.041   1.429   1.368  0.7077  1.4217 -1.2263
  131SOL    HW2  393   0.112   1.498   1.374 -0.7630  1.1579 -0.7474
  132SOL     OW  394   1.970   2.436   0.530  0.8052 -0.1763  0.2325
  132SOL    HW1  395   1.864   2.435   0.534 -0.9544 -4.1584  2.6088
  132SOL    HW2  396   2.007   2.371   0.602  2.6802  0.2130  2.7495
  133SOL     OW  397   1.848   2.267   2.923  0.4103 -0.0238 -0.4955
  133SOL    HW1  398   1.839   2.336   2.999 -2.1758 -1.7024  1.9407
  133SOL    HW2  399   1.845   2.318   2.829  2.8386  1.0144  1.6151
  134SOL     OW  400   2.711   2.362   1.612  0.3600  0.0969  0.3440
  134SOL    HW1  401   2.664   2.344   1.703 -0.1736  0.5726  1.4061
  134SOL    HW2  402   2.788   2.433   1.627  1.6620 -1.4736  2.8902
  135SOL     OW  403   0.730   1.533   2.601  0.1165 -0.4558 -0.2011
  135SOL    HW1  404   0.711   1.441   2.654 -2.4778 -3.4852  5.3530
  135SOL    HW2  405   0.793   1.513   2.525  0.7637  1.8231  1.1917
  136SOL     OW  406   1.203   2.020   0.472  0.2745  0.1080 -0.2070
  136SOL    HW1  407   1.121   2.060   0.526 -1.6197 -0.7842 -0.4486
  136SOL    HW2  408   1.186   1.932   0.420 -0.5988  0.7311 -0.9826
  137SOL     OW  409   0.404   1.060   2.179  0.3282  0.6721 -0.5796
  137SOL    HW1  410   0.313   1.063   2.232 -1.2162 -0.9904  0.6510
  137SOL    HW2  411   0.483   1.039   2.248  0.7716  0.4937 -0.4143
  138SOL     OW  412   2.459   1.502   0.192  0.1638  0.4357 -0.6467
  138SOL    HW1  413   2.363   1.475   0.156 -1.0213  0.3799 -1.4674
  138SOL    HW2  414   2.491   1.428   0.261  0.6562 -1.0073 -0.1023
  139SOL     OW  415   1.801   2.631   1.193 -0.2129  0.6782  0.2465
  139SOL    HW1  416   1.706   2.602   1.165  1.9705 -0.4118  1.3807
  139SOL    HW2  417   1.846   2.565   1.265  1.0702 -0.9044 -3.1498
  140SOL     OW  418   2.995   2.956   2.474  0.0811 -0.1503 -0.0365
  140SOL    HW1  419   3.044   2.870   2.492 -0.1407  3.1492  0.5351
  140SOL    HW2  420   3.039   3.036   2.525  1.1443 -1.1926  0.0289
  141SOL     OW  421   1.223   1.654   1.553  0.4826  0.3960  0.5915
  141SOL    HW1  422   1.183   1.745   1.588  0.3562  3.4609  0.6397
  141SOL    HW2  423   1.248   1.588   1.631 -2.0447 -1.1282  3.5939
  142SOL     OW  424   1.568   0.618   2.252  0.5309  0.0061 -0.9425
  142SOL    HW1  425   1.608   0.610   2.158  1.0156 -0.4834  0.1889
  142SOL    HW2  426   1.468   0.601   2.247 -1.1016  0.8706  0.9213
  143SOL     OW  427   2.718   0.890   0.511 -0.0618 -0.2776  0.0741
  143SOL    HW1  428   2.746   0.921   0.417  2.4553  0.1411 -0.3464
  143SOL    HW2  429   2.778   0.930   0.583 -0.4591  2.3247 -2.4400
  144SOL     OW  430   3.004   1.272   1.338 -0.2367 -0.3958 -0.4260
  144SOL    HW1  431   2.969   1.246   1.434  0.0210 -1.6375 -1.3324
  144SOL    HW2  432   3.020   1.194   1.271  1.3243  0.1765  0.2149
  145SOL     OW  433   1.064   1.862   0.054 -0.5084 -0.2112 -0.0799
  145SOL    HW1  434   1.037   1.947   0.002 -0.1425 -1.8925 -0.6828
  145SOL    HW2  435   1.025   1.778   0.013  0.9772 -0.7025  1.0577
  146SOL     OW  436   2.496   0.634   1.507 -0.5290  0.0668  0.6472
  146SOL    HW1  437   2.431   0.562   1.460  0.3685  0.3445 -0.8539
  146SOL    HW2  438   2.466   0.733   1.493 -4.0535 -0.2257 -1.7728
  147SOL     OW  439   1.037   2.521   0.599  0.2448 -0.3636  0.3208
  147SOL    HW1  440   1.011   2.568   0.513 -0.5920 -0.5701 -2.0678
  147SOL    HW2  441   1.134   2.486   0.590 -0.0149  0.1826 -0.2761
  148SOL     OW  442   1.657   1.442   3.094 -0.4998  0.5542 -0.2405
  148SOL    HW1  443   1.680   1.390   3.010 -2.4922  0.2071  1.9384
  148SOL    HW2  444   1.586   1.394   3.150 -1.5775 -1.2700 -1.5572
  149SOL     OW  445   0.688   1.417   1.953  0.5207  0.3050 -0.3737
  149SOL    HW1  446   0.596   1.396   2.002 -0.1592  1.7610  0.5929
  149SOL    HW2  447   0.710   1.344   1.881 -0.2049 -0.4660 -0.2330
  150SOL     OW  448   2.952   1.273   0.941 -0.5700 -0.0793 -0.4950
  150SOL    HW1  449   3.051   1.284   0.967 -0.1042  1.3759 -1.0522
  150SOL    HW2  450   2.921   1.175   0.925  1.9559  1.0399 -1.8017
  151SOL     OW  451   0.201   0.774   2.160  0.0003  0.0888  0.2217
  151SOL    HW1  452   0.189   0.851   2.096 -0.4991 -1.3058  2.3420
  151SOL    HW2  453   0.239   0.695   2.112 -0.9371  0.5061 -1.3551
  152SOL     OW  454   1.398   1.743   1.261 -0.5423 -0.2196 -0.3078
  152SOL    HW1  455   1.406   1.785   1.357  0.6751  1.2520  1.4555
  152SOL    HW2  456   1.302   1.720   1.227 -1.0496 -1.3237  1.9084
  153SOL     OW  457   0.033   1.541   0.145  0.1474  0.0147  0.1281
  153SOL    HW1  458   0.029   1.435   0.156 -0.3725 -0.7378  2.3860
  153SOL    HW2  459   0.076   1.585   0.227 -1.9555 -2.4317 -1.7139
  154SOL     OW  460   2.388   1.879   2.813 -0.6583 -0.1353  0.0464
  154SOL    HW1  461   2.412   1.776   2.835 -0.6340 -3.0168 -1.5139
  154SOL    HW2  462   2.432   1.915   2.723  0.4871 -0.1577 -0.4646
  155SOL     OW  463   2.494   1.258   0.335  0.1024 -0.3932 -0.4000
  155SOL    HW1  464   2.589   1.255   0.301  0.0085  0.5874  1.1798
  155SOL    HW2  465   2.457   1.166   0.346  2.3515  1.5733 -3.4804
  156SOL     OW  466   2.554   0.937   0.876  0.2255  0.1584  0.0876
  156SOL    HW1  467   2.455   0.950   0.862  2.0671  2.3774  2.0472
  156SOL    HW2  468   2.605   1.029   0.862 -1.4325  0.8570  0.1872
  157SOL     OW  469   1.230   3.006   2.983 -0.9191 -0.3391 -0.2509
  157SOL    HW1  470   1.306   2.953   2.934  2.0692  0.4553 -1.0726
  157SOL    HW2  471   1.239   3.112   2.987  1.0194 -0.5676  0.1398
  158SOL     OW  472   1.045   1.865   2.023 -0.2014 -0.2620 -0.3813
  158SOL    HW1  473   1.081   1.840   2.115 -1.1516  0.5109 -0.9443
  158SOL    HW2  474   0.942   1.873   2.029  2.4826 -2.7163  2.0516
  159SOL     OW  475   0.856   0.398   1.284  0.1285  0.2822 -0.2972
  159SOL    HW1  476   0.835   0.477   1.352 -0.4038  0.5437 -1.0781
  159SOL    HW2  477   0.786   0.396   1.208 -0.1035  1.1956  1.4183
  160SOL     OW  478   1.476   2.476   1.641  0.4316  0.0012  0.0178
  160SOL    HW1  479   1.510   2.540   1.566 -1.2828  2.6345  0.1272
  160SOL    HW2  480   1.532   2.394   1.636 -2.6520  1.4178 -2.4653
  161SOL     OW  481   0.158   2.907   0.347  0.8700 -0.3559  0.3242
  161SOL    HW1  482   0.068   2.863   0.354 -1.4863 -1.1443  2.8206
  161SOL    HW2  483   0.139   3.004   0.304  2.0558  3.6336  0.5685
  162SOL     OW  484   2.601   1.912   0.511 -0.0278  0.0903  0.4518
  162SOL    HW1  485   2.575   1.838   0.444  0.9025  0.0317  3.1653
  162SOL    HW2  486   2.610   1.870   0.604 -0.4032 -3.0160 -0.0898
  163SOL     OW  487   1.964   2.667   0.730 -0.2018 -0.2947 -0.1028
  163SOL    HW1  488   1.923   2.705   0.645  1.0926  0.1397 -0.3727
  163SOL    HW2  489   2.038   2.598   0.711  0.7435 -1.6725 -0.1177
  164SOL     OW  490   3.042   0.309   1.202  0.0788 -0.1992 -0.0391
  164SOL    HW1  491   3.086   0.363   1.124  1.9577  1.0601 -1.2355
  164SOL    HW2  492   3.115   0.278   1.268 -0.6393  1.2168  2.6037
  165SOL     OW  493   0.994   1.470   0.674  0.5931 -0.5594  0.1729
  165SOL    HW1  494   0.914   1.464   0.745 -1.4443  0.1634 -0.0849
  165SOL    HW2  495   0.988   1.557   0.619 -0.8328  0.3408  0.0045
  166SOL     OW  496   1.434   1.072   1.750  0.4294  0.2391 -0.2902
  166SOL    HW1  497   1.356   1.009   1.785 -0.7516 -2.2991  2.4361
  166SOL    HW2  498   1.492   1.103   1.826  2.2260 -0.1441  0.6286
  167SOL     OW  499   0.859   1.939   1.533 -0.4047  0.0582 -0.2625
  167SOL    HW1  500   0.850   1.990   1.624 -0.3137 -1.1828 -0.3300
  167SOL    HW2  501   0.780   1.872   1.516 -2.0655 -1.1197  0.1486
  168SOL     OW  502   1.561   2.373   0.158  0.7816 -0.0951  0.6044
  168SOL    HW1  503   1.637   2.408   0.095 -0.3501 -2.3707 -1.6719
  168SOL    HW2  504   1.592   2.308   0.237  0.3573  2.3148  0.5722
  169SOL     OW  505   0.177   2.592   2.213 -0.0634  0.8083  0.2681
  169SOL    HW1  506   0.252   2.548   2.155  1.7135 -1.4538  0.0860
  169SOL    HW2  507   0.162   2.546   2.309 -1.6719  0.1138  1.2892
  170SOL     OW  508   1.267   0.281   1.909 -0.1376  0.3296  0.1975
  170SOL    HW1  509   1.298   0.242   1.998 -0.1968  0.5136  0.3904
  170SOL    HW2  510   1.219   0.205   1.855 -0.0417  0.6698  1.8522
  171SOL     OW  511   0.253   0.776   2.430 -0.3941 -0.3213  0.5288
  171SOL    HW1  512   0.160   0.796   2.470 -1.6984  1.5519 -1.2903
  171SOL    HW2  513   0.249   0.780   2.330  0.7290  1.4373 -1.5803
  172SOL     OW  514   0.880   1.159   2.929 -0.5982  0.0013 -0.4871
  172SOL    HW1  515   0.973   1.195   2.960  0.5315  0.2915  1.6176
  172SOL    HW2  516   0.881   1.128   2.827 -0.9101  0.5961 -1.6643
  173SOL     OW  517   0.658   2.687   0.156 -0.2923 -0.1204 -0.7407
  173SOL    HW1  518   0.671   2.794   0.140 -0.1376 -0.1311  0.6559
  173SOL    HW2  519   0.560   2.661   0.134 -0.5712 -1.8147  3.1017
  174SOL     OW  520   1.396   2.784   1.056  0.1148  0.8945 -0.1579
  174SOL    HW1  521   1.412   2.868   0.994  0.1702 -0.3110  2.5659
  174SOL    HW2  522   1.338   2.706   1.020  0.0355  0.9037  0.0429
  175SOL     OW  523   0.387   0.014   1.661  0.2375 -0.9447  0.1668
  175SOL    HW1  524   0.441   0.050   1.739 -0.3860  3.0317 -0.5732
  175SOL    HW2  525   0.321   0.086   1.619  0.5203  0.2941 -2.4203
  176SOL     OW  526   2.505   0.399   3.070  0.1501  0.6565 -0.4245
  176SOL    HW1  527   2.499   0.467   3.146 -1.8967  0.8645  1.9836
  176SOL    HW2  528   2.421   0.334   3.083 -3.8829 -1.0303  1.6226
  177SOL     OW  529   0.392   0.376   0.932  0.1342 -0.3774 -0.0022
  177SOL    HW1  530   0.485   0.337   0.965 -1.2524 -3.5298  2.0291
  177SOL    HW2  531   0.314   0.348   0.999  0.6510 -0.9721  2.1983
  178SOL     OW  532   0.022   2.700   2.589  0.0438 -0.6394 -0.0628
  178SOL    HW1  533  -0.043   2.652   2.653  2.2383 -3.2592 -0.6631
  178SOL    HW2  534   0.105   2.746   2.637 -0.6516 -1.1439  0.7974
  179SOL     OW  535   0.028   1.696   1.165 -0.3905 -0.0817  0.5887
  179SOL    HW1  536  -0.051   1.764   1.161  3.1663  0.8351 -0.7106
  179SOL    HW2  537   0.014   1.620   1.238  1.5832 -2.4909  2.8803
  180SOL     OW  538   0.221   1.275   1.832 -0.3855 -0.4620  0.0435
  180SOL    HW1  539   0.324   1.283   1.802  2.5771  1.9634 -2.3671
  180SOL    HW2  540   0.185   1.362   1.879  3.0401 -1.6346 -0.1968
  181SOL     OW  541   3.027   1.827   2.552  0.6215 -0.1020  0.6754
  181SOL    HW1  542   3.089   1.895   2.515 -1.6771 -4.5053  0.5561
  181SOL    HW2  543   2.927   1.870   2.533 -0.5452  2.2220 -1.7390
  182SOL     OW  544   2.335   1.215   1.203 -0.4106  0.6419 -0.2212
  182SOL    HW1  545   2.266   1.173   1.137  2.6908 -0.1577 -0.9737
  182SOL    HW2  546   2.328   1.318   1.213  2.1900 -1.6400 -2.2997
  183SOL     OW  547   1.487   2.274   2.551  0.0816 -0.2603 -0.2864
  183SOL    HW1  548   1.419   2.203   2.544  2.4139 -0.4877  0.7323
  183SOL    HW2  549   1.578   2.226   2.550  0.4752  3.2319 -1.6110
  184SOL     OW  550   2.052   0.929   0.793  0.1217  0.1104  0.7011
  184SOL    HW1  551   1.956   0.961   0.805  0.2611 -1.3015  2.8008
  184SOL    HW2  552   2.061   0.831   0.828  0.0966  1.7410  2.5018
  185SOL     OW  553   1.649   2.681   2.095 -0.1066 -0.6097 -0.0611
  185SOL    HW1  554   1.577   2.746   2.067  1.2566 -2.8373 -1.4726
  185SOL    HW2  555   1.672   2.689   2.197 -0.4170  1.5246  1.7841
  186SOL     OW  556   0.140   2.210   1.747 -0.0087 -0.6128 -0.2253
  186SOL    HW1  557   0.146   2.309   1.711  1.4636  2.2518  0.5823
  186SOL    HW2  558   0.225   2.152   1.726 -1.0010 -0.0216 -1.3052
  187SOL     OW  559   1.414   0.681   1.671 -0.7044  0.0969 -0.2236
  187SOL    HW1  560   1.447   0.760   1.613  0.1613 -1.6554 -0.1623
  187SOL    HW2  561   1.418   0.706   1.768  2.4814 -1.2740 -0.9763
  188SOL     OW  562   2.760   2.784   1.550  0.0530  0.7666 -0.1616
  188SOL    HW1  563   2.745   2.883   1.518  0.2086  1.9594  1.0244
  188SOL    HW2  564   2.731   2.711   1.477  1.5260 -0.4394 -2.3871
  189SOL     OW  565   0.817   0.996   1.426  0.3176 -0.4370 -0.0485
  189SOL    HW1  566   0.900   1.059   1.445  0.8127  1.3831 -1.3694
  189SOL    HW2  567   0.815   0.979   1.320  0.3285 -1.2384 -2.6098
  190SOL     OW  568   1.502   1.696   1.584  0.2716  0.6260 -0.3530
  190SOL    HW1  569   1.399   1.681   1.565 -0.9805  1.9863 -1.9366
  190SOL    HW2  570   1.521   1.779   1.643 -1.1155 -0.6181 -2.0022
  191SOL     OW  571   1.000   0.791   1.553  0.2132 -0.2835  0.3533
  191SOL    HW1  572   1.031   0.697   1.578 -1.6355 -0.8420 -1.7864
  191SOL    HW2  573   1.077   0.860   1.557 -0.5084 -1.4866 -1.1784
  192SOL     OW  574   1.838   2.300   1.193  0.0521 -0.0976 -0.5113
  192SOL    HW1  575   1.752   2.279   1.138 -0.1911 -0.8333  1.3640
  192SOL    HW2  576   1.922   2.344   1.140  0.7190 -4.2440 -3.0387
  193SOL     OW  577   0.521   0.558   0.379 -0.2770 -0.2733  0.3832
  193SOL    HW1  578   0.464   0.475   0.398  2.0130 -0.2180  1.1282
  193SOL    HW2  579   0.592   0.542   0.303 -0.1768  0.7360  0.0129
  194SOL     OW  580   0.305   0.822   1.241  0.1870 -0.3996 -0.1495
  194SOL    HW1  581   0.203   0.798   1.236  0.2068 -1.7901 -0.2839
  194SOL    HW2  582   0.335   0.895   1.171 -0.3560  2.2451 -1.5608
  195SOL     OW  583   0.953   2.912   0.451  0.2768 -0.2210 -0.4088
  195SOL    HW1  584   0.964   2.807   0.429  0.3363  1.1040  0.2282
  195SOL    HW2  585   1.044   2.962   0.442 -1.5370  0.3686  1.2972
  196SOL     OW  586   0.265   1.436   1.416  0.2597  0.2425  0.2888
  196SOL    HW1  587   0.329   1.504   1.456 -0.1653 -0.0776 -3.0978
  196SOL    HW2  588   0.228   1.361   1.478  0.4073  1.6278  2.3556
  197SOL     OW  589   0.863   2.026   0.256  0.0254  0.0397  0.1552
  197SOL    HW1  590   0.833   1.989   0.347  0.8378  0.7328 -0.6227
  197SOL    HW2  591   0.942   1.973   0.212 -0.4964  0.6037  0.3133
  198SOL     OW  592   0.270   1.253   0.260 -0.4725  0.0009 -0.0101
  198SOL    HW1  593   0.181   1.255   0.203  0.6975 -1.5069 -1.1884
  198SOL    HW2  594   0.316   1.343   0.257 -1.9740 -1.9277 -2.0581
  199SOL     OW  595   2.267   0.366   2.551  0.4466  0.0421 -0.4857
  199SOL    HW1  596   2.201   0.315   2.617 -1.7332 -3.7501  1.2056
  199SOL    HW2  597   2.365   0.324   2.542  0.2861  1.7919 -1.0679
  200SOL     OW  598   3.088   2.925   0.742  0.3708  0.1579 -0.2625
  200SOL    HW1  599   3.010   2.958   0.682 -1.0845  2.5960  1.5302
  200SOL    HW2  600   3.135   3.006   0.790 -2.0955  3.8490  1.5801
  201SOL     OW  601   1.144   0.710   0.551 -0.5307  0.2099  0.6307
  201SOL    HW1  602   1.147   0.783   0.625 -2.4232  1.3990  0.5990
  201SOL    HW2  603   1.051   0.674   0.530 -0.3931 -2.5800 -1.5591
  202SOL     OW  604   0.465   1.262   1.725  0.3961 -0.1797  0.4070
  202SOL    HW1  605   0.498   1.243   1.628  2.8755 -0.5308 -1.6516
  202SOL    HW2  606   0.522   1.223   1.799 -0.0890  1.5695 -1.4123
  203SOL     OW  607   0.682   0.232   1.558  0.0269 -0.7947  0.7149
  203SOL    HW1  608   0.700   0.162   1.487 -1.7875  1.6515  0.8296
  203SOL    HW2  609   0.741   0.220   1.637 -0.9275  1.4346 -0.0907
  204SOL     OW  610   2.084   1.829   3.021 -0.2790  0.4025 -0.0696
  204SOL    HW1  611   2.068   1.730   3.016 -1.6375  2.1793  0.6606
  204SOL    HW2  612   2.032   1.884   2.956 -0.8394 -4.6740 -0.3872
  205SOL     OW  613   1.852   1.889   0.080 -0.0920 -0.0605 -0.1674
  205SOL    HW1  614   1.944   1.895   0.028  2.8030  1.2651 -0.6325
  205SOL    HW2  615   1.792   1.968   0.063  0.1830 -0.2899  0.1810
  206SOL     OW  616   2.571   2.829   0.401 -0.3603  0.1789  0.7394
  206SOL    HW1  617   2.616   2.737   0.412 -0.3385 -1.6675  1.2603
  206SOL    HW2  618   2.581   2.864   0.303 -0.2112  1.7515  0.3467
  207SOL     OW  619   0.637   1.736   2.892  0.0852  0.1221  0.5042
  207SOL    HW1  620   0.737   1.711   2.867  0.3561 -1.6132 -1.1456
  207SOL    HW2  621   0.577   1.650   2.912 -2.0043 -1.7996  1.6958
  208SOL     OW  622   1.028   1.493   1.441  0.1081  0.3367  0.0291
  208SOL    HW1  623   0.954   1.532   1.381 -0.0651 -1.1908  0.5979
  208SOL    HW2  624   1.097   1.555   1.480 -1.6793 -0.6993  1.1817
  209SOL     OW  625   0.227   0.939   3.045  0.6322 -0.0193 -0.2348
  209SOL    HW1  626   0.242   0.895   2.950  1.3918  1.1999  1.0427
  209SOL    HW2  627   0.228   0.869   3.121  1.6465 -0.2068 -0.5026
  210SOL     OW  628   1.719   0.502   1.124  0.2787  0.2185  0.0866
  210SOL    HW1  629   1.681   0.584   1.068  1.6962 -0.1482  0.8723
  210SOL    HW2  630   1.822   0.493   1.118  1.2686 -0.8648 -2.2528
  211SOL     OW  631   2.166   1.046   1.679  0.3277  0.2553 -0.4182
  211SOL    HW1  632   2.234   0.992   1.743  4.0989 -2.2576 -3.0729
  211SOL    HW2  633   2.207   1.095   1.601 -0.2086 -1.0099  1.5641
  212SOL     OW  634   0.040   0.961   1.469 -0.6041 -0.2301 -0.1798
  212SOL    HW1  635   0.043   1.056   1.512  2.7295  1.1609 -1.6338
  212SOL    HW2  636   0.079   0.885   1.532  2.4100 -3.2995  0.4053
  213SOL     OW  637   2.730   0.358   0.265 -0.1029  0.0801 -0.2835
  213SOL    HW1  638   2.785   0.298   0.192  0.6709 -3.1143 -1.4640
  213SOL    HW2  639   2.707   0.451   0.232  0.0154 -0.5160  3.7782
  214SOL     OW  640   2.215   0.270   2.272  0.3517 -0.2205 -0.0609
  214SOL    HW1  641   2.232   0.326   2.358  0.9793 -0.0034 -0.5208
  214SOL    HW2  642   2.173   0.177   2.286  0.5458 -2.2881 -0.8293
  215SOL     OW  643   1.671   2.277   2.070  0.1132  0.0728 -0.0835
  215SOL    HW1  644   1.773   2.297   2.056  3.0594 -0.1354  0.0048
  215SOL    HW2  645   1.612   2.346   2.125 -0.8616  0.4152  1.5386
  216SOL     OW  646   2.221   0.527   0.659 -0.1335  0.1742  0.2954
  216SOL    HW1  647   2.200   0.437   0.621  0.1464  0.4155 -1.1028
  216SOL    HW2  648   2.252   0.599   0.587 -2.1171  0.6438 -0.8814
  217SOL     OW  649   0.783   2.805   2.397  0.0465 -0.2076  0.9011
  217SOL    HW1  650   0.753   2.724   2.457 -2.1196 -1.7305  3.2584
  217SOL    HW2  651   0.790   2.780   2.297 -0.5068 -0.9662 -2.6400
  218SOL     OW  652   1.906   1.428   0.085  0.5171 -0.5741 -0.1222
  218SOL    HW1  653   1.805   1.432   0.057  1.3562  0.9689 -2.2912
  218SOL    HW2  654   1.931   1.363   0.161  1.6263  2.9523  2.4981
  219SOL     OW  655   2.387   1.326   2.534 -0.2011 -0.3072 -0.2255
  219SOL    HW1  656   2.474   1.313   2.472  1.0703 -2.0961 -1.3229
  219SOL    HW2  657   2.376   1.257   2.608  0.4004  2.3615  0.9013
  220SOL     OW  658   1.471   1.030   1.266  0.3283  0.3626 -0.1890
  220SOL    HW1  659   1.575   1.028   1.275 -0.3816  3.2446 -2.2432
  220SOL    HW2  660   1.449   1.076   1.178  1.3551 -0.7586  0.1515
  221SOL     OW  661   1.308   1.210   2.184  0.4073 -0.1740  0.4850
  221SOL    HW1  662   1.240   1.250   2.118  1.5384 -1.8473  0.9099
  221SOL    HW2  663   1.399   1.193   2.138 -0.1325 -0.4047  0.5903
  222SOL     OW  664   1.218   0.064   1.144 -0.4672 -0.0182  0.2643
  222SOL    HW1  665   1.295   0.005   1.100  0.7867  0.9840  0.5331
  222SOL    HW2  666   1.250   0.133   1.216  0.0522  0.7033 -2.4138
  223SOL     OW  667   2.926   0.838   2.015  0.8554 -0.0427  0.1839
  223SOL    HW1  668   2.941   0.839   2.120 -0.5385 -0.3520  0.3691
  223SOL    HW2  669   2.943   0.932   1.974  0.9835 -0.3296  0.0676
  224SOL     OW  670   1.540   0.965   2.807 -0.3801 -0.2690  0.7825
  224SOL    HW1  671   1.576   0.909   2.728 -0.0690 -1.6495 -0.4301
  224SOL    HW2  672   1.516   1.058   2.772  0.7212 -4.4730  1.8466
  225SOL     OW  673   3.043   2.793   2.907  0.1042 -0.7183 -0.2232
  225SOL    HW1  674   3.018   2.727   2.835 -0.1504  2.1506  1.1070
  225SOL    HW2  675   3.119   2.860   2.887  0.2495 -1.2134 -1.1098
  226SOL     OW  676   2.471   1.611   2.861  0.2384 -0.0683  0.2201
  226SOL    HW1  677   2.503   1.583   2.766  0.2903  0.4979 -2.0068
  226SOL    HW2  678   2.424   1.533   2.914 -1.5523 -0.3163  2.5853
  227SOL     OW  679   0.860   0.107   2.983  0.3788  0.1505 -0.0006
  227SOL    HW1  680   0.865   0.039   3.057 -0.5065  2.1603  0.5867
  227SOL    HW2  681   0.867   0.072   2.885 -1.5997  1.2418  0.2661
  228SOL     OW  682   2.357   0.585   2.823 -0.3520 -0.0382  0.5566
  228SOL    HW1  683   2.352   0.624   2.731  2.1781  1.7301  2.5786
  228SOL    HW2  684   2.418   0.500   2.829  1.0201  0.1246 -0.1959
  229SOL     OW  685   0.574   0.505   1.859  0.1697  0.0618 -0.3359
  229SOL    HW1  686   0.573   0.495   1.754 -2.6195 -3.3989 -2.8590
  229SOL    HW2  687   0.638   0.590   1.883  0.2983  3.1573  0.3541
  230SOL     OW  688   1.894   1.242   2.149 -0.0317 -0.1308  0.4750
  230SOL    HW1  689   1.968   1.257   2.084 -5.1165  0.2901  0.2579
  230SOL    HW2  690   1.807   1.300   2.137  1.0074  0.6575  0.7429
  231SOL     OW  691   0.636   0.996   3.001  0.1132 -0.3281 -0.0718
  231SOL    HW1  692   0.725   1.048   2.993  1.5560  0.3219 -1.4362
  231SOL    HW2  693   0.566   1.034   3.065  0.9789 -3.3529  0.3345
  232SOL     OW  694   2.507   0.033   2.740 -0.4176 -0.0450 -0.4573
  232SOL    HW1  695   2.514  -0.043   2.810  1.2623 -0.2352  0.2210
  232SOL    HW2  696   2.538  -0.001   2.646 -0.6836  1.5929 -1.0477
  233SOL     OW  697   1.692   1.266   1.057 -0.0997 -0.2536  0.4431
  233SOL    HW1  698   1.736   1.296   0.969 -0.1713 -0.5419  2.0829
  233SOL    HW2  699   1.715   1.166   1.075 -1.1482 -1.3933  2.9778
  234SOL     OW  700   1.661   2.610   1.836  0.2968 -0.3369 -0.1848
  234SOL    HW1  701   1.658   2.611   1.941 -0.9389 -0.9224  0.7316
  234SOL    HW2  702   1.574   2.574   1.789  0.2373 -0.7980 -0.0466
  235SOL     OW  703   0.123   3.013   2.895  0.5545  0.1205  0.4863
  235SOL    HW1  704   0.164   3.091   2.834 -0.0333  2.1931 -0.6215
  235SOL    HW2  705   0.044   3.054   2.952  1.9022  1.9704 -0.7195
  236SOL     OW  706   2.833   0.676   0.104  0.8336 -0.2276  0.5504
  236SOL    HW1  707   2.894   0.740   0.150  1.0807 -0.3223 -2.2681
  236SOL    HW2  708   2.891   0.606   0.056 -2.2557  1.0629  0.7975
  237SOL     OW  709   1.501   1.609   1.038 -0.1134  0.3862 -0.3035
  237SOL    HW1  710   1.608   1.599   1.052  0.8732 -1.9349  0.5891
  237SOL    HW2  711   1.462   1.674   1.106  1.8327  0.2626  1.1384
  238SOL     OW  712   1.791   1.343   0.806  0.7027  0.1165  0.4275
  238SOL    HW1  713   1.881   1.368   0.759  3.2887 -1.3808 -0.6654
  238SOL    HW2  714   1.709   1.392   0.766 -2.5223 -1.1751  0.6380
  239SOL     OW  715   2.082   0.241   2.727 -0.7977  0.1536  0.1367
  239SOL    HW1  716   2.166   0.234   2.789  0.4504 -0.1170  2.6535
  239SOL    HW2  717   2.015   0.315   2.756  0.6005  2.0053  0.9614
  240SOL     OW  718   0.865   0.700   0.236  0.0623  0.1206 -0.6466
  240SOL    HW1  719   0.842   0.622   0.172 -1.2862  1.6812  0.0953
  240SOL    HW2  720   0.859   0.686   0.343 -0.1855  1.5989  3.1727
  241SOL     OW  721   0.546   0.046   0.336 -0.3945  0.0322  0.2541
  241SOL    HW1  722   0.571   0.017   0.237  2.2382 -0.6085 -2.2756
  241SOL    HW2  723   0.492  -0.031   0.378  4.2797  2.4060  0.1171
  242SOL     OW  724   0.696   2.448   1.144  0.0034  0.1916  0.0139
  242SOL    HW1  725   0.666   2.511   1.226 -0.0459  1.0654 -0.4537
  242SOL    HW2  726   0.788   2.480   1.112  1.5898 -0.9302  0.7339
  243SOL     OW  727   1.091   0.610   2.417  0.0353  0.3106 -0.1876
  243SOL    HW1  728   1.018   0.668   2.377  0.1859 -0.1022  0.7379
  243SOL    HW2  729   1.054   0.524   2.451 -0.0433  1.0604  0.3170
  244SOL     OW  730   2.791   1.914   2.437  0.1343 -0.3974 -0.6730
  244SOL    HW1  731   2.847   1.904   2.351  0.0991 -2.4727 -2.5591
  244SOL    HW2  732   2.704   1.854   2.438  0.1304 -2.6014  1.7644
  245SOL     OW  733   2.468   0.744   2.133  0.1147 -0.2362  0.2951
  245SOL    HW1  734   2.510   0.799   2.212 -2.0436 -0.5174 -1.4567
  245SOL    HW2  735   2.529   0.734   2.051 -1.0065  1.6854 -2.1297
  246SOL     OW  736   0.221   2.894   1.697  0.6614  0.6300 -0.2120
  246SOL    HW1  737   0.167   2.870   1.610  1.2079  0.7817 -1.8829
  246SOL    HW2  738   0.281   2.978   1.686 -0.1294 -0.6788 -0.5757
  247SOL     OW  739   2.169   0.557   3.025  0.0210  0.2155  0.1956
  247SOL    HW1  740   2.238   0.558   2.946 -0.5615 -0.6482  1.8593
  247SOL    HW2  741   2.127   0.648   3.032 -0.5453 -0.5954  0.9724
  248SOL     OW  742   2.180   1.851   1.637  0.2157 -0.1665 -0.8180
  248SOL    HW1  743   2.247   1.774   1.647  0.6148  2.0400  1.5432
  248SOL    HW2  744   2.086   1.829   1.677  2.5907 -0.5528  0.0615
  249SOL     OW  745   1.966   1.962   1.956  0.2508  0.7142  0.1970
  249SOL    HW1  746   1.963   1.900   1.872 -0.5950  1.7409  2.2425
  249SOL    HW2  747   2.062   1.995   1.971  0.1234  0.8425 -1.5754
  250SOL     OW  748   1.015   0.652   1.846  0.0932  0.0310 -0.2076
  250SOL    HW1  749   1.054   0.601   1.930  0.1819 -0.5327  0.8152
  250SOL    HW2  750   1.039   0.607   1.753 -1.2626  0.3576 -1.5728
  251SOL     OW  751   3.026   1.562   2.577  0.6027  0.2087 -0.0361
  251SOL    HW1  752   3.020   1.667   2.568  1.5859 -0.5772 -1.8282
  251SOL    HW2  753   2.931   1.519   2.591  0.9315 -0.9816  0.9398
  252SOL     OW  754   1.503   0.912   1.536 -0.6560  0.4099 -0.0191
  252SOL    HW1  755   1.521   0.967   1.449 -0.2434 -1.0505 -0.2028
  252SOL    HW2  756   1.485   0.967   1.618  0.4006 -1.0542  1.6809
  253SOL     OW  757   0.963   1.555   0.385 -0.2883  0.8643 -0.6886
  253SOL    HW1  758   1.029   1.487   0.362 -2.6383  3.4255  3.3565
  253SOL    HW2  759   0.862   1.529   0.373 -1.2198 -2.6822  2.1760
  254SOL     OW  760   1.999   2.175   1.598 -0.0535  0.3083 -0.2193
  254SOL    HW1  761   1.954   2.136   1.511  0.5007  0.0002 -0.6086
  254SOL    HW2  762   1.972   2.122   1.681  1.7913  0.4683 -2.8495
  255SOL     OW  763   0.114   1.159   2.917 -0.1615  0.5855  0.1047
  255SOL    HW1  764   0.182   1.226   2.871 -0.4169 -1.8142  0.8189
  255SOL    HW2  765   0.157   1.082   2.977  2.5053 -2.6494 -1.4699
  256SOL     OW  766   2.792   1.355   1.840 -0.2544  0.5732 -0.2090
  256SOL    HW1  767   2.734   1.433   1.874 -0.0844  1.2688  1.0227
  256SOL    HW2  768   2.751   1.263   1.879 -0.2860 -1.1271 -1.0802
  257SOL     OW  769   0.897   0.203   1.926  0.1477 -0.3939  0.3986
  257SOL    HW1  770   0.909   0.253   1.837  0.8852 -0.1069 -0.1559
  257SOL    HW2  771   0.900   0.102   1.913  0.4714 -0.4255  1.4020
  258SOL     OW  772   2.957   1.250   0.403  0.2932 -0.3842 -0.0887
  258SOL    HW1  773   2.919   1.347   0.396 -2.1699  2.4866 -0.5125
  258SOL    HW2  774   3.003   1.231   0.496 -1.5639 -0.5629  0.9566
  259SOL     OW  775   0.423   2.916   2.994 -0.1055  1.2320 -0.2165
  259SOL    HW1  776   0.390   2.850   3.066  1.8567  1.3684  1.9480
  259SOL    HW2  777   0.435   2.880   2.897 -2.3945  1.6189  0.1613
  260SOL     OW  778   2.653   0.773   2.781  0.1122  0.9500  0.2428
  260SOL    HW1  779   2.604   0.842   2.722  0.6252 -1.2859 -2.3451
  260SOL    HW2  780   2.591   0.693   2.801  0.4606  0.3129  0.9524
  261SOL     OW  781   2.709   1.331   1.324  0.1340 -0.1842  0.3879
  261SOL    HW1  782   2.680   1.242   1.272  1.5558 -2.4950  0.3375
  261SOL    HW2  783   2.814   1.338   1.340  0.2866  0.7652  0.3070
  262SOL     OW  784   1.467   2.912   2.034 -0.2997 -0.4707 -0.1652
  262SOL    HW1  785   1.486   3.006   1.991  0.1580  1.6083 -1.1339
  262SOL    HW2  786   1.388   2.859   1.994  0.0332 -1.4295  1.1794
  263SOL     OW  787   0.882   0.775   2.302  0.0635  0.0150  0.2268
  263SOL    HW1  788   0.806   0.706   2.288  1.5091 -1.0913 -0.1250
  263SOL    HW2  789   0.894   0.827   2.214  0.6535 -1.5976 -0.3609
  264SOL     OW  790   2.258   0.748   0.500 -0.0738 -0.5119 -0.2106
  264SOL    HW1  791   2.162   0.792   0.481 -0.8151  1.9014  1.2000
  264SOL    HW2  792   2.335   0.817   0.482  0.9769  1.3043 -3.4795
  265SOL     OW  793   0.870   2.310   2.692  0.1904 -0.7757  0.0254
  265SOL    HW1  794   0.922   2.382   2.755 -1.7187 -0.5377  1.5140
  265SOL    HW2  795   0.808   2.253   2.750 -1.8139  1.5484  0.0564
  266SOL     OW  796   1.339   1.709   0.049  0.2488 -0.2484  0.1787
  266SOL    HW1  797   1.289   1.794   0.079  0.6502 -0.9269  0.2294
  266SOL    HW2  798   1.437   1.737   0.039 -0.7110  2.2004  0.5873
  267SOL     OW  799   1.081   0.017   2.377  0.1849 -0.5251 -0.0987
  267SOL    HW1  800   1.063  -0.071   2.327  1.6477  0.7427  1.5239
  267SOL    HW2  801   1.022   0.094   2.343 -0.1360  0.2345  2.4781
  268SOL     OW  802   0.651   1.160   1.032  0.3337  0.0173 -0.1510
  268SOL    HW1  803   0.702   1.216   1.106  0.4570  0.9396 -1.5922
  268SOL    HW2  804   0.624   1.220   0.949 -0.2532 -0.2037 -4.3636
  269SOL     OW  805   2.442   2.512   1.607 -0.2157 -0.7833 -0.0920
  269SOL    HW1  806   2.507   2.430   1.621 -1.9343 -2.0982  0.2768
  269SOL    HW2  807   2.374   2.525   1.688  1.3234  1.2168  0.4670
  270SOL     OW  808   0.221   2.928   1.975  0.0938  0.7925 -0.8501
  270SOL    HW1  809   0.219   2.933   1.871 -1.6199  1.5813 -0.5044
  270SOL    HW2  810   0.141   2.869   2.007 -0.9035  0.4835 -1.9987
  271SOL     OW  811   0.445   1.400   1.196  0.0438  0.1211  0.2900
  271SOL    HW1  812   0.412   1.424   1.100 -0.2012 -1.2277 -1.8789
  271SOL    HW2  813   0.382   1.418   1.279 -0.4526  0.0923 -0.2188
  272SOL     OW  814   1.908   2.899   1.895 -0.0874  0.5088 -0.1462
  272SOL    HW1  815   1.875   2.847   1.807  0.2829  0.0455  0.1635
  272SOL    HW2  816   2.001   2.946   1.876  1.4865  2.0312 -1.3783
  273SOL     OW  817   1.455   1.436   2.853 -0.3462 -0.1714 -0.2765
  273SOL    HW1  818   1.552   1.460   2.876 -0.2601 -0.4324 -1.6081
  273SOL    HW2  819   1.387   1.437   2.930  1.4631 -3.7267  1.9172
  274SOL     OW  820   1.169   0.511   2.027 -0.2456 -0.4076  0.0338
  274SOL    HW1  821   1.193   0.429   1.967 -1.1543 -0.7554 -1.6072
  274SOL    HW2  822   1.227   0.518   2.113 -1.1198  0.6969 -4.0566
  275SOL     OW  823   0.627   2.063   2.001 -0.0984 -0.4284  0.3531
  275SOL    HW1  824   0.621   2.168   2.004  2.6837  2.1305  2.3009
  275SOL    HW2  825   0.541   2.019   1.967  0.8916  1.8511 -0.1879
  276SOL     OW  826   2.164   0.997   2.804  0.2131 -0.1558  0.0534
  276SOL    HW1  827   2.073   1.014   2.742 -1.5227 -0.7273 -2.7026
  276SOL    HW2  828   2.144   0.938   2.885 -2.4664  0.4126 -0.5184
  277SOL     OW  829   3.035   0.841   0.190 -0.2422 -0.0031  0.2588
  277SOL    HW1  830   3.122   0.837   0.133  2.7468  0.1900 -0.8237
  277SOL    HW2  831   3.046   0.783   0.274  2.5095 -1.5266  0.7399
  278SOL     OW  832   0.181   0.248   2.987  0.0002 -0.8096 -0.0077
  278SOL    HW1  833   0.248   0.180   3.022 -0.8113  5.0737  0.6025
  278SOL    HW2  834   0.220   0.341   3.005 -1.9008  1.0241  1.4776
  279SOL     OW  835   0.156   0.019   0.859  0.3554  0.7564 -0.0029
  279SOL    HW1  836   0.181  -0.010   0.955 -1.7577 -0.8752  1.1364
  279SOL    HW2  837   0.237   0.031   0.796 -1.6806  1.8232 -0.1323
  280SOL     OW  838   1.677   2.939   2.521 -0.6074 -0.5367  0.0806
  280SOL    HW1  839   1.742   3.012   2.547 -0.8593  2.1546  0.1861
  280SOL    HW2  840   1.587   2.983   2.506 -1.7234 -0.0687  0.2404
  281SOL     OW  841   0.584   0.966   2.337 -0.5194  0.1554 -0.4619
  281SOL    HW1  842   0.565   0.864   2.325  0.4626 -0.6806 -2.8898
  281SOL    HW2  843   0.600   0.991   2.439 -1.7231  0.2964  1.9303
  282SOL     OW  844   1.691   2.443   0.510  0.4126  0.3333 -0.3126
  282SOL    HW1  845   1.644   2.372   0.454  0.3504  1.5663 -2.0410
  282SOL    HW2  846   1.665   2.540   0.490  0.5332 -1.4859 -1.2904
  283SOL     OW  847   1.177   0.971   0.737  0.6034 -0.0752  0.1527
  283SOL    HW1  848   1.203   0.896   0.810 -0.5886 -1.0006 -0.2774
  283SOL    HW2  849   1.123   1.048   0.778 -1.5538 -1.8103  0.8390
  284SOL     OW  850   2.318   2.794   2.391  0.6368  0.2730  0.1875
  284SOL    HW1  851   2.416   2.801   2.348  1.8575  3.2072  0.0858
  284SOL    HW2  852   2.315   2.762   2.487  1.8006 -0.9612  1.2411
  285SOL     OW  853   1.362   2.980   2.526 -0.6822 -0.7476 -0.3232
  285SOL    HW1  854   1.391   3.003   2.427 -1.9424 -2.7737  1.5825
  285SOL    HW2  855   1.287   3.043   2.555 -0.0180  0.5045  0.4910
  286SOL     OW  856   0.474   0.444   0.682 -0.0102 -0.6645  0.5565
  286SOL    HW1  857   0.449   0.405   0.777  1.1420 -3.1659 -1.2249
  286SOL    HW2  858   0.447   0.380   0.605 -0.4232  2.3668 -1.1556
  287SOL     OW  859   0.098   1.343   2.478  0.2681  0.1955  0.1207
  287SOL    HW1  860   0.069   1.250   2.519  0.4041 -0.0542 -1.8647
  287SOL    HW2  861   0.027   1.413   2.498 -0.1618 -0.9997  0.7156
  288SOL     OW  862   1.597   2.654   1.464  0.5980  0.5609 -0.3617
  288SOL    HW1  863   1.691   2.645   1.486 -1.0133  1.8229  1.2132
  288SOL    HW2  864   1.575   2.659   1.362 -2.4526  2.4493  2.4713
  289SOL     OW  865   0.670   2.741   0.764 -0.7754  0.1381 -0.0133
  289SOL    HW1  866   0.713   2.827   0.723  1.8991  0.1750 -0.9972
  289SOL    HW2  867   0.665   2.742   0.866 -2.1747 -1.3097 -1.9056
  290SOL     OW  868   2.903   1.211   1.608 -0.6399 -0.3860 -0.4888
  290SOL    HW1  869   2.877   1.291   1.672 -0.6955 -1.7282 -2.1361
  290SOL    HW2  870   2.920   1.125   1.667  0.5896 -0.8529 -0.2852
  291SOL     OW  871   1.983   0.048   0.064  0.7780  0.7428  0.6507
  291SOL    HW1  872   1.968   0.047   0.167  0.0362 -0.3629  0.3767
  291SOL    HW2  873   2.007   0.141   0.024  1.2870  1.2362 -0.3865
  292SOL     OW  874   2.957   1.177   3.044  0.1821 -0.6677 -0.2907
  292SOL    HW1  875   2.881   1.217   2.986  0.3148  0.8976  0.7788
  292SOL    HW2  876   3.048   1.159   2.993  3.2221  0.5409  0.0159
  293SOL     OW  877   0.629   2.071   0.128  0.8398  0.0422  0.3086
  293SOL    HW1  878   0.572   2.120   0.196 -0.5430 -1.3083 -2.9538
  293SOL    HW2  879   0.730   2.063   0.154  0.8827  1.2710 -0.6075
  294SOL     OW  880   1.678   2.142   1.766 -0.2353  0.0346 -0.6207
  294SOL    HW1  881   1.687   2.183   1.860  1.1129 -0.4192 -0.0896
  294SOL    HW2  882   1.693   2.206   1.687  0.3108 -0.5532 -3.6722
  295SOL     OW  883   0.973   1.033   0.394  0.5735 -0.6400 -0.2620
  295SOL    HW1  884   1.076   1.025   0.398  2.1500 -2.0723  0.5093
  295SOL    HW2  885   0.928   1.043   0.492  0.2035  0.4259  0.5412
  296SOL     OW  886   1.295   2.036   2.513 -0.0409 -0.2049  0.7434
  296SOL    HW1  887   1.322   2.043   2.408 -0.3618 -1.1165 -4.7108
  296SOL    HW2  888   1.309   1.936   2.543  3.4311 -2.0228  0.7399
  297SOL     OW  889   1.480   0.659   1.344 -0.2710 -0.5357 -0.2572
  297SOL    HW1  890   1.554   0.589   1.340 -1.4042 -1.3913  0.8038
  297SOL    HW2  891   1.494   0.736   1.412 -2.6994 -0.0846  0.0329
  298SOL     OW  892   0.481   1.218   2.859 -0.3918 -0.4419  0.0642
  298SOL    HW1  893   0.502   1.133   2.912 -0.0303 -0.1016  1.8522
  298SOL    HW2  894   0.560   1.248   2.795 -0.5825  1.4544 -1.7485
  299SOL     OW  895   0.408   0.324   1.448  0.9259  0.0915  0.2591
  299SOL    HW1  896   0.366   0.411   1.408 -0.4608  0.1282  3.4249
  299SOL    HW2  897   0.510   0.347   1.457  0.1996  0.2935  1.5093
  300SOL     OW  898   1.226   1.800   2.880 -0.8551  0.4751  0.3049
  300SOL    HW1  899   1.208   1.706   2.830 -0.2604 -0.5328  0.9631
  300SOL    HW2  900   1.175   1.808   2.968 -1.2415 -1.5702 -1.8400
  301SOL     OW  901   0.434   0.281   0.427  0.0161 -0.0748 -0.2639
  301SOL    HW1  902   0.331   0.275   0.405 -0.5554 -0.9525  2.3809
  301SOL    HW2  903   0.491   0.202   0.378  0.3726  1.2295 -2.8469
  302SOL     OW  904   1.227   2.315   2.327 -0.1670  1.3334  0.1933
  302SOL    HW1  905   1.151   2.330   2.394  2.1961 -0.2037 -1.0397
  302SOL    HW2  906   1.242   2.216   2.293  1.6248 -3.2405  0.8381
  303SOL     OW  907   0.926   2.357   0.796  0.2460  0.2442  0.0192
  303SOL    HW1  908   0.980   2.385   0.711  2.7337  1.9629  0.9717
  303SOL    HW2  909   0.938   2.423   0.875 -1.4048  0.8424  0.2702
  304SOL     OW  910   0.145   2.086   0.679 -0.1683 -0.5076  0.6437
  304SOL    HW1  911   0.191   2.015   0.612 -0.1311 -0.5787 -0.5786
  304SOL    HW2  912   0.078   2.143   0.623  2.6515 -0.7976  0.7235
  305SOL     OW  913   1.620   0.895   0.643 -0.3404 -0.1003 -0.3863
  305SOL    HW1  914   1.534   0.878   0.593  2.5441 -1.6137 -2.4076
  305SOL    HW2  915   1.694   0.825   0.622 -1.9184  0.5253 -3.4466
  306SOL     OW  916   0.436   1.863   1.884  0.3150  0.1086 -0.0933
  306SOL    HW1  917   0.524   1.823   1.845  0.0322 -1.4548 -3.1696
  306SOL    HW2  918   0.407   1.822   1.975 -1.6917 -1.8577 -3.5293
  307SOL     OW  919   0.024   0.824   2.576  0.3309 -0.0750  0.2775
  307SOL    HW1  920   0.033   0.926   2.598  0.5330  1.4023 -0.2238
  307SOL    HW2  921  -0.056   0.790   2.635 -0.0614  2.3601  2.1772
  308SOL     OW  922   1.576   2.622   2.865 -0.1507 -0.1214  0.2490
  308SOL    HW1  923   1.591   2.565   2.775 -0.8182  0.7664  1.2297
  308SOL    HW2  924   1.483   2.612   2.903  0.6572 -1.0666  2.4137
  309SOL     OW  925   1.229   0.041   1.761 -0.5933  0.6119 -0.3237
  309SOL    HW1  926   1.330   0.015   1.785  3.2602 -2.0067  0.7371
  309SOL    HW2  927   1.216   0.079   1.666  2.5902 -0.8073 -2.3748
  310SOL     OW  928   1.361   2.638   0.709  1.0007  0.0220 -0.1975
  310SOL    HW1  929   1.344   2.715   0.777 -1.7160 -3.1040  3.0345
  310SOL    HW2  930   1.446   2.649   0.649  1.4469 -0.3513 -2.0096
  311SOL     OW  931   1.229   0.921   1.510  0.3857  0.3169  0.5976
  311SOL    HW1  932   1.286   0.888   1.425  0.0603 -2.3295  0.4786
  311SOL    HW2  933   1.269   1.001   1.558 -1.8629 -1.3129  0.1659
  312SOL     OW  934   1.602   0.687   0.946  0.2996  0.0749  0.1036
  312SOL    HW1  935   1.599   0.789   0.976 -1.6873  2.5883 -1.0527
  312SOL    HW2  936   1.505   0.648   0.937 -0.9979 -1.8796 -1.1680
  313SOL     OW  937   1.561   1.433   0.618 -0.3272 -0.6941  0.0357
  313SOL    HW1  938   1.461   1.460   0.597 -1.2548  1.5699 -0.3009
  313SOL    HW2  939   1.576   1.328   0.614 -1.8087 -0.1516  1.0502
  314SOL     OW  940   2.955   0.012   2.995  0.3556  0.3563  0.2891
  314SOL    HW1  941   2.924   0.075   3.074  0.8758 -0.2621  3.1452
  314SOL    HW2  942   2.907  -0.078   2.990 -0.2697  0.3748 -3.3234
  315SOL     OW  943   1.253   0.236   2.781 -0.0862  0.4155  0.0323
  315SOL    HW1  944   1.231   0.157   2.714 -1.9386  1.2370  0.1852
  315SOL    HW2  945   1.224   0.217   2.878 -0.5640 -2.7398  0.0597
  316SOL     OW  946   1.691   2.072   0.900  0.0360 -0.1999  0.4766
  316SOL    HW1  947   1.654   2.104   0.992  1.9707  0.0890 -0.5347
  316SOL    HW2  948   1.713   2.153   0.838 -0.1653  2.7991 -1.8523
  317SOL     OW  949   1.125   0.689   2.856  0.1267 -0.1159 -0.3380
  317SOL    HW1  950   1.047   0.720   2.917 -2.5988 -0.4179  0.0410
  317SOL    HW2  951   1.099   0.597   2.810 -1.5749  0.2714 -0.0932
  318SOL     OW  952   1.450   3.073   2.299  0.6095 -0.2446  0.0125
  318SOL    HW1  953   1.423   3.168   2.274 -0.8521  2.6248  0.9909
  318SOL    HW2  954   1.472   3.005   2.228  0.3313 -1.4804  0.9259
  319SOL     OW  955   0.643   2.399   2.936  0.2725  0.4378 -0.4413
  319SOL    HW1  956   0.569   2.384   3.006 -1.4552 -0.9146  0.5315
  319SOL    HW2  957   0.704   2.317   2.915  1.8165 -0.5045 -1.1460
  320SOL     OW  958   1.629   2.209   0.360  0.4054 -0.4805 -0.6442
  320SOL    HW1  959   1.719   2.171   0.383 -3.9779 -0.6774  1.0286
  320SOL    HW2  960   1.555   2.162   0.416 -0.2776 -1.6663 -3.0724
  321SOL     OW  961   1.575   2.691   0.534 -0.4489 -0.5004  0.0796
  321SOL    HW1  962   1.501   2.752   0.497  0.4520  1.1868  2.0021
  321SOL    HW2  963   1.666   2.745   0.546 -0.2116 -1.8203  0.8674
  322SOL     OW  964   2.604   1.131   2.276 -0.9600 -0.3337 -0.2799
  322SOL    HW1  965   2.659   1.176   2.352 -3.2308  2.8781 -0.9616
  322SOL    HW2  966   2.587   1.025   2.289  0.3440 -2.7569 -1.2873
  323SOL     OW  967   0.971   2.682   0.810 -0.1290 -0.5931 -0.1192
  323SOL    HW1  968   1.003   2.630   0.725 -0.1691 -0.6227 -3.5875
  323SOL    HW2  969   0.994   2.785   0.799 -3.2298 -0.0233 -0.3613
  324SOL     OW  970   0.129   2.478   2.461  0.5502  0.1760  0.3810
  324SOL    HW1  971   0.093   2.395   2.514 -1.0100  0.5838 -0.7788
  324SOL    HW2  972   0.099   2.571   2.501 -0.5073  1.0000 -0.2477
  325SOL     OW  973   1.191   3.094   0.463 -0.0967 -0.1765  0.2259
  325SOL    HW1  974   1.242   3.111   0.379 -2.3841 -1.4846  0.1737
  325SOL    HW2  975   1.230   3.147   0.541 -0.2380  0.8353 -2.3041
  326SOL     OW  976   2.417   0.751   3.094  0.4404 -0.2416 -0.2677
  326SOL    HW1  977   2.403   0.722   2.997  1.6036  1.0879 -1.2775
  326SOL    HW2  978   2.446   0.675   3.156  1.5708  2.6248 -0.3958
  327SOL     OW  979   2.782   0.396   0.538  1.5082 -0.0274 -0.1819
  327SOL    HW1  980   2.765   0.376   0.436  1.9361  1.0612  0.0856
  327SOL    HW2  981   2.700   0.421   0.594  1.0012 -0.5930  1.6727
  328SOL     OW  982   2.480   0.554   0.430 -0.1221 -0.2036 -0.7454
  328SOL    HW1  983   2.379   0.579   0.427  2.1517 -0.1367 -1.6916
  328SOL    HW2  984   2.496   0.496   0.517 -0.9990  1.8874 -1.1814
  329SOL     OW  985   2.980   3.011   2.147 -0.1278 -0.5222 -0.2067
  329SOL    HW1  986   3.007   2.946   2.226 -1.4156 -0.0141 -0.7080
  329SOL    HW2  987   3.045   3.092   2.145  1.1156 -1.3139  3.0907
  330SOL     OW  988   0.519   0.162   1.900  0.1053  0.0801 -0.1052
  330SOL    HW1  989   0.569   0.251   1.877  0.7355  0.1810  0.6460
  330SOL    HW2  990   0.555   0.106   1.981  1.3919 -0.1841 -2.2964
  331SOL     OW  991   2.939   1.916   1.142 -0.0736  0.3807  0.1218
  331SOL    HW1  992   2.956   2.003   1.087  0.0930 -0.2916  0.2993
  331SOL    HW2  993   2.862   1.934   1.207 -2.1848  1.2876  0.0120
  332SOL     OW  994   0.433   1.094   0.063 -0.3750  1.1551  0.4104
  332SOL    HW1  995   0.359   1.045   0.015  0.7143  1.8164  0.9500
  332SOL    HW2  996   0.397   1.151   0.142 -0.5223  0.8832  2.2494
  333SOL     OW  997   2.855   1.018   0.301  0.5555  0.1602  0.1889
  333SOL    HW1  998   2.926   1.074   0.352 -0.7990  0.8172  0.9258
  333SOL    HW2  999   2.896   0.957   0.226  1.6192  0.7178  0.6422
  334SOL     OW 1000   1.651   1.157   1.918 -0.1751  0.4355  0.4575
  334SOL    HW1 1001   1.752   1.144   1.890 -0.5524 -1.9667 -0.6391
  334SOL    HW2 1002   1.629   1.247   1.959 -0.1538 -1.1550 -1.6248
  335SOL     OW 1003   1.996   2.778   2.632  0.5997  0.1372  0.5352
  335SOL    HW1 1004   1.926   2.809   2.704 -0.2711 -2.7253  1.4973
  335SOL    HW2 1005   2.074   2.850   2.625  2.5359 -0.6155 -1.5684
  336SOL     OW 1006   0.253   0.104   2.741  0.1182  0.3200  0.2677
  336SOL    HW1 1007   0.354   0.078   2.729  0.8739 -1.0079 -3.7585
  336SOL    HW2 1008   0.227   0.174   2.815 -0.0661 -0.6572  0.6943
  337SOL     OW 1009   0.905   2.771   2.837 -0.3537 -0.6050 -0.4260
  337SOL    HW1 1010   0.899   2.761   2.942  0.3158  0.2339 -1.4660
  337SOL    HW2 1011   0.996   2.736   2.808 -0.8055  1.2190  2.0540
  338SOL     OW 1012   0.021   1.008   0.610  0.3092 -0.2658  0.1589
  338SOL    HW1 1013  -0.070   0.963   0.588  1.9694 -2.1390 -1.1303
  338SOL    HW2 1014   0.015   1.115   0.618  1.5354  0.2861  2.5009
  339SOL     OW 1015   1.669   1.397   2.074 -0.4027 -0.0754  0.0844
  339SOL    HW1 1016   1.569   1.436   2.072 -3.0911  0.2258  1.3043
  339SOL    HW2 1017   1.747   1.471   2.069  1.4381  0.9168  0.8231
  340SOL     OW 1018   2.296   0.804   1.175  0.1774  0.2447 -0.2081
  340SOL    HW1 1019   2.198   0.839   1.195  1.0621  0.1683  0.6007
  340SOL    HW2 1020   2.302   0.721   1.111 -1.5953  0.0814  0.3133
  341SOL     OW 1021   1.914   2.133   0.372  0.3264 -0.4059  0.1782
  341SOL    HW1 1022   1.937   2.208   0.308 -0.8511  1.2754  1.1169
  341SOL    HW2 1023   2.000   2.115   0.434  2.9706 -0.7015  0.3870
  342SOL     OW 1024   2.206   2.080   2.752 -0.3832 -0.3094  0.1327
  342SOL    HW1 1025   2.276   2.002   2.767  1.4056 -1.5933  6.5155
  342SOL    HW2 1026   2.109   2.054   2.771  2.6962 -0.6982 -0.5220
  343SOL     OW 1027   0.335   0.838   2.783 -0.7201 -0.5842 -0.6540
  343SOL    HW1 1028   0.337   0.907   2.701  0.8881 -1.4863  1.5875
  343SOL    HW2 1029   0.436   0.825   2.821  0.6744 -2.2067  1.0881
  344SOL     OW 1030   1.902   1.475   0.382 -0.0559 -0.3477  0.4229
  344SOL    HW1 1031   1.902   1.375   0.357 -0.4035  1.1163  2.0883
  344SOL    HW2 1032   1.806   1.514   0.400  1.2176  0.0493  5.4799
  345SOL     OW 1033   1.376   2.213   2.841 -0.0838  0.1470  0.0094
  345SOL    HW1 1034   1.290   2.161   2.810 -1.0243 -0.5288 -1.1892
  345SOL    HW2 1035   1.463   2.183   2.793  1.0539  0.9762  1.0057
  346SOL     OW 1036   2.348   0.851   1.438 -0.6396 -0.2298  0.1781
  346SOL    HW1 1037   2.295   0.926   1.486 -0.6761 -0.0283  1.8596
  346SOL    HW2 1038   2.315   0.836   1.338  0.0236  0.5924 -1.1475
  347SOL     OW 1039   0.728   2.836   1.505  0.2907  0.3050  0.7174
  347SOL    HW1 1040   0.699   2.778   1.587  0.6235  0.2423 -1.2659
  347SOL    HW2 1041   0.650   2.882   1.457  0.4859  0.5510  2.6196
  348SOL     OW 1042   0.113   0.705   2.860 -0.1810 -0.0545 -0.3468
  348SOL    HW1 1043   0.020   0.751   2.851 -0.6266  1.5683  1.0443
  348SOL    HW2 1044   0.193   0.759   2.824  3.0124 -1.5901 -1.4915
  349SOL     OW 1045   1.898   0.433   2.811 -0.1517  0.1384  0.1205
  349SOL    HW1 1046   1.864   0.483   2.731 -0.0789 -0.3189  2.0023
  349SOL    HW2 1047   1.846   0.441   2.901 -1.2046  0.2723 -1.2187
  350SOL     OW 1048   1.685   0.400   0.374 -0.5601 -0.2079  0.8375
  350SOL    HW1 1049   1.766   0.391   0.436 -0.7824 -1.7056 -0.5505
  350SOL    HW2 1050   1.646   0.496   0.374 -0.1152 -2.9418 -3.6741
  351SOL     OW 1051   0.914   0.918   2.077  0.3917 -0.2309 -0.5347
  351SOL    HW1 1052   0.943   1.016   2.064  0.8818  0.2907  1.4099
  351SOL    HW2 1053   0.878   0.883   1.988 -0.0579  0.7394  2.5103
  352SOL     OW 1054   1.985   1.341   0.604  0.0299  0.0534  0.1609
  352SOL    HW1 1055   1.935   1.417   0.556  0.1710 -2.9189  1.0773
  352SOL    HW2 1056   2.082   1.356   0.614 -1.4914 -0.2952 -0.6357
  353SOL     OW 1057   2.130   2.867   1.131 -0.5168  0.2113 -0.0661
  353SOL    HW1 1058   2.203   2.801   1.175  1.0295 -0.3389 -0.0905
  353SOL    HW2 1059   2.059   2.815   1.074  1.6260 -0.4441 -0.6227
  354SOL     OW 1060   0.248   1.393   2.855 -0.5401 -0.1188  0.0228
  354SOL    HW1 1061   0.235   1.464   2.775 -1.3893  3.9796 -0.0433
  354SOL    HW2 1062   0.338   1.343   2.847 -0.2460  1.1944 -0.4251
  355SOL     OW 1063   0.472   1.510   0.563  0.7425  0.4785 -0.0191
  355SOL    HW1 1064   0.501   1.601   0.594  1.7684 -0.5149 -1.2056
  355SOL    HW2 1065   0.547   1.446   0.545 -2.2664  1.0355  1.2455
  356SOL     OW 1066   0.895   0.405   2.123  0.2285 -0.5087  0.0500
  356SOL    HW1 1067   0.978   0.470   2.123  2.4147  0.4983  1.9035
  356SOL    HW2 1068   0.895   0.328   2.054 -0.3990  0.8382 -0.7386
  357SOL     OW 1069   1.047   1.277   0.251 -0.4716 -0.5891  0.9185
  357SOL    HW1 1070   0.980   1.293   0.172 -2.9566  0.3205 -1.6232
  357SOL    HW2 1071   1.005   1.198   0.305 -3.2151 -0.6480  0.7130
  358SOL     OW 1072   1.660   1.585   0.408 -0.4938 -0.3385  0.6563
  358SOL    HW1 1073   1.620   1.514   0.469  1.1644 -0.1448  0.6176
  358SOL    HW2 1074   1.594   1.657   0.386  0.1533 -1.4464 -0.0264
  359SOL     OW 1075   1.561   2.698   0.172 -0.6019 -0.1787 -0.4707
  359SOL    HW1 1076   1.596   2.638   0.090  2.8469  0.0818 -1.8741
  359SOL    HW2 1077   1.485   2.761   0.154  2.7576 -1.4889 -1.2930
  360SOL     OW 1078   0.899   0.605   0.508  0.4823  0.3039  0.6822
  360SOL    HW1 1079   0.822   0.633   0.567 -0.8814  0.2887 -0.0178
  360SOL    HW2 1080   0.900   0.504   0.484  0.8190  0.4165  1.4373
  361SOL     OW 1081   1.245   1.383   0.660 -0.4497 -0.2523 -0.3930
  361SOL    HW1 1082   1.290   1.398   0.751  1.1056 -3.2698  1.1792
  361SOL    HW2 1083   1.152   1.424   0.655  1.3542  0.1315  0.3752
  362SOL     OW 1084   1.400   1.764   0.779 -0.3555 -0.2392 -0.3521
  362SOL    HW1 1085   1.438   1.723   0.867  1.8715  1.4259  0.5967
  362SOL    HW2 1086   1.478   1.808   0.719  0.1674  0.4554 -0.7514
  363SOL     OW 1087   1.156   1.363   1.999  0.1816 -0.1371 -0.0091
  363SOL    HW1 1088   1.122   1.437   2.065  2.9426 -0.0292  1.2178
  363SOL    HW2 1089   1.196   1.405   1.910 -1.1828 -0.9859  0.4563
  364SOL     OW 1090   0.575   2.327   1.969 -0.4279 -0.0978 -0.5219
  364SOL    HW1 1091   0.490   2.379   1.996  1.1815  0.2073 -0.7529
  364SOL    HW2 1092   0.600   2.343   1.872 -2.5512  0.0684 -1.5400
  365SOL     OW 1093   1.086   1.926   1.368 -0.2948  0.5034  0.0261
  365SOL    HW1 1094   0.996   1.935   1.416 -0.8907 -1.4293  2.1033
  365SOL    HW2 1095   1.083   1.872   1.279 -0.2669  1.3999 -1.7777
  366SOL     OW 1096   2.824   2.064   0.472  0.4327  0.3841 -0.2903
  366SOL    HW1 1097   2.726   2.024   0.469  0.9764 -0.2547  0.7218
  366SOL    HW2 1098   2.889   2.011   0.416 -1.4485  1.2101 -1.6944
  367SOL     OW 1099   0.806   1.226   0.083  0.2853 -0.0354  0.4685
  367SOL    HW1 1100   0.767   1.138   0.133 -2.2403 -2.1122  0.0866
  367SOL    HW2 1101   0.847   1.193  -0.011  2.2858 -4.2898 -0.7828
  368SOL     OW 1102   1.562   0.534   0.689 -0.5130  0.6310  0.0424
  368SOL    HW1 1103   1.519   0.559   0.600  0.8370 -0.0391  1.3150
  368SOL    HW2 1104   1.643   0.594   0.707  1.8084 -1.5831  0.8478
  369SOL     OW 1105   0.290   1.698   0.109  0.1394  0.4901  0.1742
  369SOL    HW1 1106   0.288   1.795   0.147  2.1649 -1.7316 -0.6499
  369SOL    HW2 1107   0.201   1.676   0.057 -1.0218 -3.5862 -1.0934
  370SOL     OW 1108   0.401   2.119   0.973 -0.4588 -0.1889  0.3695
  370SOL    HW1 1109   0.430   2.207   0.930 -0.3197 -0.4620 -0.1997
  370SOL    HW2 1110   0.300   2.100   0.950 -0.6902  0.4683 -1.2520
  371SOL     OW 1111   2.906   2.202   2.753  0.1227 -0.3503  0.0259
  371SOL    HW1 1112   2.924   2.143   2.839  2.1304  0.7650 -2.7647
  371SOL    HW2 1113   2.989   2.228   2.699  0.3738  3.1059 -0.1889
  372SOL     OW 1114   0.912   1.858   0.941  0.2852 -0.5928 -1.0120
  372SOL    HW1 1115   0.895   1.959   0.964 -0.2911 -1.4562  3.7230
  372SOL    HW2 1116   1.007   1.830   0.916 -0.8855 -1.4809 -0.6981
  373SOL     OW 1117   1.986   2.005   0.930  0.3098 -0.2874  0.3254
  373SOL    HW1 1118   2.039   2.036   1.017  1.2321 -1.8178  0.7629
  373SOL    HW2 1119   1.880   2.017   0.942  0.1330  2.3266  0.2735
  374SOL     OW 1120   1.903   0.434   0.542 -0.4072  0.4168 -0.2017
  374SOL    HW1 1121   1.861   0.371   0.622  1.1287  0.2274  1.6638
  374SOL    HW2 1122   2.002   0.404   0.532  2.3696 -1.5576  0.9932
  375SOL     OW 1123   2.408   2.205   1.091 -0.6758 -1.0014  0.0822
  375SOL    HW1 1124   2.480   2.197   1.016 -0.5558 -0.6093  0.2525
  375SOL    HW2 1125   2.445   2.191   1.192 -1.0909 -0.4900  1.5009
  376SOL     OW 1126   3.041   0.611   1.449  0.2745  0.1348  0.2524
  376SOL    HW1 1127   3.097   0.665   1.518 -1.6894  0.6544 -0.4286
  376SOL    HW2 1128   2.939   0.623   1.468 -0.5007  0.7809  0.5569
  377SOL     OW 1129   2.251   2.886   0.358  0.1534 -0.5160 -0.4243
  377SOL    HW1 1130   2.257   2.993   0.365  1.5622  1.2631 -0.9082
  377SOL    HW2 1131   2.345   2.845   0.372  3.1074  1.0304  0.9860
  378SOL     OW 1132   1.871   1.892   2.635 -0.3208  0.3184 -0.3845
  378SOL    HW1 1133   1.893   1.801   2.679  1.1096 -0.8936 -1.1947
  378SOL    HW2 1134   1.877   1.895   2.532 -1.3292 -2.6093 -0.1027
  379SOL     OW 1135   0.857   0.085   2.713 -0.9078 -0.2003  0.1502
  379SOL    HW1 1136   0.812  -0.000   2.674  1.0267 -3.7710  0.3555
  379SOL    HW2 1137   0.800   0.169   2.708 -1.3633 -1.5712 -1.1082
  380SOL     OW 1138   1.530   1.149   0.583 -0.2438  0.3266  0.4168
  380SOL    HW1 1139   1.431   1.157   0.564 -1.6787 -1.3253 -0.9296
  380SOL    HW2 1140   1.570   1.051   0.585  0.5400 -1.0484 -2.5226
  381SOL     OW 1141   1.300   1.210   1.503  0.5049 -0.0991  0.0322
  381SOL    HW1 1142   1.345   1.246   1.412 -0.2188  0.7161 -0.0594
  381SOL    HW2 1143   1.333   1.261   1.586  0.1031  0.8572 -0.8191
  382SOL     OW 1144   1.737   0.823   0.271  0.2836 -0.1142 -0.4158
  382SOL    HW1 1145   1.775   0.784   0.182 -0.5842 -2.0522 -0.7316
  382SOL    HW2 1146   1.806   0.799   0.347  0.3967 -2.0033  1.5116
  383SOL     OW 1147   2.608   1.022   1.530 -0.5788 -0.2689  0.1396
  383SOL    HW1 1148   2.519   1.006   1.487  0.6198 -1.3786  1.1071
  383SOL    HW2 1149   2.693   0.994   1.472  1.7394  0.1980 -3.1418
  384SOL     OW 1150   0.953   2.264   0.146 -0.2823  0.2799 -0.7099
  384SOL    HW1 1151   0.892   2.348   0.170 -1.1683 -2.0172  1.2447
  384SOL    HW2 1152   0.929   2.185   0.203 -1.6951 -2.3754 -2.8374
  385SOL     OW 1153   3.017   2.013   1.725  0.3373 -0.5013  0.5360
  385SOL    HW1 1154   3.077   2.087   1.767 -4.6175  2.0814  0.6132
  385SOL    HW2 1155   3.073   1.934   1.694 -3.0824  2.0555  0.4147
  386SOL     OW 1156   0.437   1.120   0.442 -0.0909  0.3113 -0.5077
  386SOL    HW1 1157   0.432   1.017   0.428 -3.2836 -1.2106 -0.0673
  386SOL    HW2 1158   0.380   1.174   0.377  2.6540 -0.8835  1.4926
  387SOL     OW 1159   0.972   0.343   1.681  0.2051 -0.2082  0.0030
  387SOL    HW1 1160   1.028   0.426   1.664 -1.9575 -0.6199  0.8595
  387SOL    HW2 1161   0.983   0.274   1.597  0.4769 -1.9420 -4.0490
  388SOL     OW 1162   1.201   2.608   1.782 -0.7424  0.4348 -0.0841
  388SOL    HW1 1163   1.203   2.611   1.682  0.3900 -0.5183  3.2429
  388SOL    HW2 1164   1.244   2.525   1.822  0.5535  2.5055 -1.7623
  389SOL     OW 1165   0.245   3.078   1.148  0.0611  0.2550  0.3050
  389SOL    HW1 1166   0.199   3.066   1.239  0.7860 -0.7722 -2.9232
  389SOL    HW2 1167   0.307   3.002   1.120  0.4894 -0.6225  0.4897
  390SOL     OW 1168   1.013   0.861   1.261  0.7079  0.8167 -0.5716
  390SOL    HW1 1169   1.112   0.833   1.259 -0.8254 -0.7161  1.5708
  390SOL    HW2 1170   0.981   0.839   1.360  0.8751 -1.6738  1.3256
  391SOL     OW 1171   2.125   1.144   1.014 -0.3295 -0.2244  0.2926
  391SOL    HW1 1172   2.044   1.074   1.003 -1.8928  0.0156  1.7778
  391SOL    HW2 1173   2.194   1.135   0.935  0.0165 -2.9628 -1.8766
  392SOL     OW 1174   0.872   2.711   3.090 -0.2246  0.4247  0.2467
  392SOL    HW1 1175   0.804   2.687   3.166  1.7179  0.9119 -0.0684
  392SOL    HW2 1176   0.961   2.754   3.127 -1.0604  0.5170 -0.1571
  393SOL     OW 1177   0.327   0.583   1.974  0.0155  0.0684  0.5573
  393SOL    HW1 1178   0.240   0.530   1.947  1.2559 -1.3056  0.4345
  393SOL    HW2 1179   0.414   0.542   1.931  0.6402 -0.9277 -0.2950
  394SOL     OW 1180   2.822   1.783   2.783  0.4082  0.3462 -0.0669
  394SOL    HW1 1181   2.913   1.798   2.732  1.6356  1.2986 -0.5161
  394SOL    HW2 1182   2.763   1.867   2.793 -0.7124  1.9146  0.1490
  395SOL     OW 1183   1.592   1.927   0.675 -0.2534 -0.1701  0.2894
  395SOL    HW1 1184   1.674   1.870   0.644  1.6010 -1.7103  1.3878
  395SOL    HW2 1185   1.614   1.983   0.763  2.5669 -0.0922  2.6868
  396SOL     OW 1186   2.751   2.058   1.269  0.2494  0.3323 -0.1323
  396SOL    HW1 1187   2.788   2.051   1.367 -0.4163  0.5976 -1.0965
  396SOL    HW2 1188   2.651   2.073   1.263  0.6510 -1.7197 -1.7959
  397SOL     OW 1189   1.004   2.103   0.652 -0.1264 -0.9077 -0.3671
  397SOL    HW1 1190   0.925   2.057   0.599  0.4523  1.3171  1.2756
  397SOL    HW2 1191   0.969   2.178   0.710 -0.3315 -0.6099 -0.3686
  398SOL     OW 1192   2.143   0.045   1.093 -0.2693  0.3981 -0.4643
  398SOL    HW1 1193   2.125  -0.056   1.093 -1.4855 -1.7397 -0.3124
  398SOL    HW2 1194   2.056   0.102   1.104  1.9118 -0.2951 -1.4010
  399SOL     OW 1195   2.944   2.599   2.751  1.0276 -0.1695 -0.7473
  399SOL    HW1 1196   2.892   2.560   2.665 -0.9071 -1.6755 -2.7391
  399SOL    HW2 1197   2.906   2.562   2.839 -0.9637  0.2462 -1.0157
  400SOL     OW 1198   0.825   1.602   1.270  0.4885 -0.0612  0.0327
  400SOL    HW1 1199   0.777   1.647   1.351 -1.8203  1.1134 -1.5316
  400SOL    HW2 1200   0.779   1.634   1.182  1.6573  0.2633 -1.7980
  401SOL     OW 1201   1.849   0.102   1.290 -0.3401  0.0466 -0.0544
  401SOL    HW1 1202   1.883   0.168   1.369 -1.7324  1.2259  1.8258
  401SOL    HW2 1203   1.752   0.077   1.316 -0.1563  1.5222  0.1638
  402SOL     OW 1204   1.302   0.163   3.049 -0.1869 -0.3963 -0.2981
  402SOL    HW1 1205   1.401   0.148   3.014  2.0925  0.1245  2.4769
  402SOL    HW2 1206   1.298   0.249   3.118 -0.6542 -1.1506 -1.6843
  403SOL     OW 1207   2.260   1.788   0.970  0.1942  0.2817 -0.6531
  403SOL    HW1 1208   2.362   1.769   0.986 -0.4768  2.8206 -2.9981
  403SOL    HW2 1209   2.222   1.856   1.043 -0.5963  1.1936  1.7282
  404SOL     OW 1210   0.199   2.449   2.796  0.1756 -0.2214  0.2236
  404SOL    HW1 1211   0.292   2.435   2.751  1.3083 -0.7142  1.3871
  404SOL    HW2 1212   0.156   2.543   2.770 -1.8581  1.2988  2.9562
  405SOL     OW 1213   0.261   2.487   0.593  0.4538  0.6099  0.1666
  405SOL    HW1 1214   0.250   2.466   0.495 -1.0964  0.6879  1.7343
  405SOL    HW2 1215   0.306   2.574   0.613  2.0117 -2.2785 -0.5891
  406SOL     OW 1216   0.030   1.511   2.975  0.0376 -0.0542 -0.6312
  406SOL    HW1 1217   0.102   1.446   2.935  0.4503 -2.8144  0.5645
  406SOL    HW2 1218   0.026   1.512   3.080 -0.6406  0.5148 -1.1111
  407SOL     OW 1219   1.542   0.948   0.942  0.1819 -0.3551 -0.7221
  407SOL    HW1 1220   1.538   0.933   0.841 -0.0743  0.4198  0.6348
  407SOL    HW2 1221   1.471   1.015   0.974  0.2215 -0.5505 -0.9906
  408SOL     OW 1222   1.449   2.347   0.959  0.2282  0.6263  0.4536
  408SOL    HW1 1223   1.535   2.344   0.901 -0.7136 -0.6786  0.6312
  408SOL    HW2 1224   1.446   2.426   1.020 -0.8754 -2.1080  2.2656
  409SOL     OW 1225   0.627   0.883   0.667  0.5168  0.1033 -0.3862
  409SOL    HW1 1226   0.553   0.907   0.596  1.6503  1.8545  1.6217
  409SOL    HW2 1227   0.655   0.780   0.663 -0.9817  0.0586 -2.0589
  410SOL     OW 1228   1.325   1.997   1.498  0.2329  0.0334 -0.0173
  410SOL    HW1 1229   1.316   2.069   1.572  3.2419  3.2039  1.5878
  410SOL    HW2 1230   1.231   1.959   1.471  1.5818 -1.4840 -0.0460
  411SOL     OW 1231   2.364   1.847   0.033  0.1949 -0.0054 -0.2267
  411SOL    HW1 1232   2.300   1.846  -0.043  0.9603 -1.4418  1.5073
  411SOL    HW2 1233   2.463   1.844  -0.003  0.1349 -1.6332 -0.2362
  412SOL     OW 1234   1.505   2.412   2.255  0.1387 -0.2163 -0.5891
  412SOL    HW1 1235   1.444   2.493   2.225  0.8542  0.3556 -3.2524
  412SOL    HW2 1236   1.472   2.379   2.349 -2.2287 -2.2842  1.3900
  413SOL     OW 1237   3.027   0.262   2.892  0.4390 -0.4732  0.4866
  413SOL    HW1 1238   2.987   0.168   2.889 -0.8501  2.0813  1.6010
  413SOL    HW2 1239   3.127   0.259   2.928  0.0446 -1.8313  3.2262
  414SOL     OW 1240   1.779   1.330   1.324  0.5127 -0.7032 -0.8200
  414SOL    HW1 1241   1.703   1.399   1.354 -2.4271  0.8231  0.9602
  414SOL    HW2 1242   1.782   1.317   1.224  0.5699  1.6210 -0.9774
  415SOL     OW 1243   0.352   2.255   0.666 -0.2118  1.0299 -0.3112
  415SOL    HW1 1244   0.321   2.353   0.649 -0.6128  1.3736 -0.8476
  415SOL    HW2 1245   0.268   2.201   0.671  2.5499  0.0092  1.4199
  416SOL     OW 1246   0.353   1.037   1.040  0.1533 -0.2606  0.0603
  416SOL    HW1 1247   0.317   1.010   0.947  0.9794  1.1103 -0.6518
  416SOL    HW2 1248   0.405   1.130   1.032 -0.0806 -1.5623 -0.8988
  417SOL     OW 1249   2.146   2.334   1.863 -0.0511  0.3044  0.2125
  417SOL    HW1 1250   2.192   2.243   1.871 -1.0674 -2.3299 -0.3801
  417SOL    HW2 1251   2.044   2.329   1.883 -2.8277 -0.9183  0.8376
  418SOL     OW 1252   1.118   0.410   1.383  0.5814 -0.2357 -0.2276
  418SOL    HW1 1253   1.017   0.396   1.338 -3.5615  1.7039  0.2792
  418SOL    HW2 1254   1.194   0.412   1.312 -0.0481  0.8375  0.4482
  419SOL     OW 1255   0.974   0.359   3.005 -0.1079 -0.0176  0.0349
  419SOL    HW1 1256   0.996   0.398   2.912 -2.4632  0.4201 -0.9707
  419SOL    HW2 1257   0.949   0.258   2.994 -0.4564 -0.1424  0.2740
  420SOL     OW 1258   0.201   2.291   0.364  0.0536  0.0193  0.3586
  420SOL    HW1 1259   0.182   2.226   0.288 -1.5558 -1.0970 -0.7701
  420SOL    HW2 1260   0.121   2.289   0.427  0.3761 -1.7535 -1.5845
  421SOL     OW 1261   0.346   0.023   0.662 -0.1816 -0.9076 -0.2801
  421SOL    HW1 1262   0.351  -0.067   0.609 -1.1152 -0.6790 -0.6580
  421SOL    HW2 1263   0.440   0.063   0.681  0.6824 -3.7723 -1.4690
  422SOL     OW 1264   0.935   2.514   1.023  0.0426  0.1964 -0.6112
  422SOL    HW1 1265   0.938   2.605   0.970  0.8033 -0.7802 -2.8419
  422SOL    HW2 1266   0.971   2.519   1.120 -1.7121 -1.1994  2.7912
  423SOL     OW 1267   0.018   0.715   1.209 -0.3366  0.7107 -0.4717
  423SOL    HW1 1268  -0.007   0.660   1.301  0.0538  0.8053  1.3949
  423SOL    HW2 1269  -0.035   0.799   1.197 -0.9620 -0.1384 -0.8177
  424SOL     OW 1270   0.996   2.149   2.222  0.8067 -0.1996 -0.7435
  424SOL    HW1 1271   1.009   2.248   2.201 -0.8545  0.1778 -1.0726
  424SOL    HW2 1272   0.959   2.133   2.321  0.0813 -0.0430  1.4209
  425SOL     OW 1273   2.036   1.413   1.085  0.0578 -0.2986 -0.0422
  425SOL    HW1 1274   2.060   1.311   1.093 -1.3006  0.4879  0.9267
  425SOL    HW2 1275   2.065   1.465   0.993  1.7093 -0.1905  0.0434
  426SOL     OW 1276   1.564   1.499   1.398 -0.1676  0.5518  0.4881
  426SOL    HW1 1277   1.551   1.578   1.336 -1.1419  1.3320 -1.7552
  426SOL    HW2 1278   1.539   1.520   1.497  2.0205  1.2831  2.4264
  427SOL     OW 1279   1.927   2.354   2.023 -0.4119  0.0674 -0.5292
  427SOL    HW1 1280   1.985   2.285   2.084  0.6827  0.6591  1.4072
  427SOL    HW2 1281   1.952   2.451   2.047 -1.3904 -0.4391  1.6047
  428SOL     OW 1282   0.938   3.068   0.105  0.0298 -0.0630  0.4511
  428SOL    HW1 1283   0.980   3.154   0.140 -0.6728 -0.2293  2.0938
  428SOL    HW2 1284   1.007   2.987   0.102  3.1306 -1.8875 -1.3949
  429SOL     OW 1285   1.324   0.017   0.219  0.3147  0.3355  0.0735
  429SOL    HW1 1286   1.416   0.063   0.235 -0.1694 -1.2499 -0.3691
  429SOL    HW2 1287   1.309  -0.006   0.123  2.3654  2.1699  1.7127
  430SOL     OW 1288   2.818   1.510   0.370 -0.0083  0.4609  0.0765
  430SOL    HW1 1289   2.746   1.556   0.304 -0.4701  0.3204  0.0332
  430SOL    HW2 1290   2.810   1.557   0.461 -0.4590 -0.6205 -0.1200
  431SOL     OW 1291   2.119   1.587   0.859 -0.2206  0.0066  0.2132
  431SOL    HW1 1292   2.195   1.650   0.893 -1.1914  1.0877  1.5633
  431SOL    HW2 1293   2.031   1.642   0.840 -0.7690 -0.1961  0.0439
  432SOL     OW 1294   2.886   2.298   1.233 -0.2296 -0.4940  0.5333
  432SOL    HW1 1295   2.818   2.229   1.274 -1.0835 -1.3202 -2.9762
  432SOL    HW2 1296   2.971   2.315   1.288  0.5207 -0.2667 -3.3385
  433SOL     OW 1297   1.842   0.296   0.792 -0.0904  0.3269 -0.4748
  433SOL    HW1 1298   1.757   0.330   0.838  0.9684  0.4267  0.9939
  433SOL    HW2 1299   1.890   0.230   0.851 -2.1861  3.3903 -0.0317
  434SOL     OW 1300   1.536   0.263   0.724  0.2891  0.2668  0.1992
  434SOL    HW1 1301   1.546   0.353   0.672 -0.4715  2.7436 -2.2816
  434SOL    HW2 1302   1.573   0.270   0.819 -0.0047 -0.8314 -2.7532
  435SOL     OW 1303   1.416   1.520   2.127  0.2105  0.6532 -0.0106
  435SOL    HW1 1304   1.397   1.490   2.221  1.4889 -0.2599 -2.4379
  435SOL    HW2 1305   1.346   1.582   2.088 -0.4421 -1.5490 -0.1909
  436SOL     OW 1306   1.619   2.732   2.386 -0.0436  0.0081  0.1861
  436SOL    HW1 1307   1.648   2.821   2.431  0.3054  1.1216 -2.0195
  436SOL    HW2 1308   1.607   2.660   2.457  1.0950  1.0738 -1.2805
  437SOL     OW 1309   1.053   2.960   0.820  0.6794 -0.4385  0.2471
  437SOL    HW1 1310   0.998   3.044   0.804  1.5100 -1.2728 -2.0290
  437SOL    HW2 1311   1.110   2.963   0.906  2.1895 -2.0394  0.2020
  438SOL     OW 1312   0.997   2.513   1.314  0.0948 -0.5871 -0.7420
  438SOL    HW1 1313   1.043   2.558   1.396  0.4419  0.0837  3.0288
  438SOL    HW2 1314   1.003   2.409   1.331  1.9752 -1.9379  1.1256
  439SOL     OW 1315   0.703   1.690   1.026  0.2375  0.1406 -0.2790
  439SOL    HW1 1316   0.762   1.770   0.993 -1.2449 -0.9769  1.3548
  439SOL    HW2 1317   0.599   1.708   1.027 -0.0648 -3.5084  0.9504
  440SOL     OW 1318   1.034   2.415   2.026  0.2499  0.9984  0.6362
  440SOL    HW1 1319   0.972   2.431   1.947  1.4411  0.3700  1.5559
  440SOL    HW2 1320   1.134   2.424   1.999  1.1415  2.5298  0.7258
  441SOL     OW 1321   0.341   2.722   1.301 -0.4562 -0.9292 -0.0953
  441SOL    HW1 1322   0.379   2.627   1.323 -1.0229  1.9771  1.4279
  441SOL    HW2 1323   0.379   2.761   1.212 -0.9324 -2.9911  0.6293
  442SOL     OW 1324   2.241   0.654   2.572 -0.0043  0.1813  0.1571
  442SOL    HW1 1325   2.250   0.553   2.575  1.1384  1.0699  4.3916
  442SOL    HW2 1326   2.152   0.682   2.525  0.5184 -1.1918 -1.6823
  443SOL     OW 1327   1.256   2.555   2.214  0.4223  0.2275  0.7019
  443SOL    HW1 1328   1.239   2.456   2.246 -1.3350 -0.9319 -1.3992
  443SOL    HW2 1329   1.203   2.622   2.271  1.2294 -1.5815 -2.2336
  444SOL     OW 1330   1.016   1.214   1.463  0.3871  0.4321 -0.3050
  444SOL    HW1 1331   1.122   1.201   1.475  3.3012 -1.4124  0.9264
  444SOL    HW2 1332   0.986   1.315   1.471 -0.1457  1.1344 -0.4348
  445SOL     OW 1333   0.192   2.266   2.108  0.0645  0.0619 -0.6978
  445SOL    HW1 1334   0.084   2.259   2.113 -3.1655  0.2628  1.9407
  445SOL    HW2 1335   0.236   2.176   2.131  1.1715  1.3001  0.4538
  446SOL     OW 1336   0.130   1.952   2.372  0.2519  0.1208 -0.1381
  446SOL    HW1 1337   0.063   2.033   2.385 -0.5831  2.0259 -2.2960
  446SOL    HW2 1338   0.124   1.900   2.281  1.2251  2.3773 -0.3099
  447SOL     OW 1339   1.285   1.726   1.915  0.0548 -0.1669  0.1826
  447SOL    HW1 1340   1.205   1.789   1.936 -2.5195 -2.3802  1.4150
  447SOL    HW2 1341   1.379   1.758   1.954  0.9985 -1.1368  1.6857
  448SOL     OW 1342   0.184   1.464   2.033 -0.0823 -0.0633  0.1779
  448SOL    HW1 1343   0.186   1.553   1.972  3.2331 -1.4807 -0.2205
  448SOL    HW2 1344   0.101   1.458   2.098 -0.4983  2.1329  3.7955
  449SOL     OW 1345   1.835   2.940   0.814  0.5687  0.0150  0.4300
  449SOL    HW1 1346   1.831   2.974   0.917  1.2323 -0.6612  3.8752
  449SOL    HW2 1347   1.884   2.850   0.807  1.0451  2.2130  1.5908
  450SOL     OW 1348   2.247   1.465   0.673 -0.3979 -0.4171  0.2365
  450SOL    HW1 1349   2.187   1.508   0.752 -4.0035 -1.3861 -1.0689
  450SOL    HW2 1350   2.296   1.538   0.615  1.8881 -0.4283 -0.0938
  451SOL     OW 1351   1.406   3.008   1.465  0.0552  0.0283  0.2863
  451SOL    HW1 1352   1.349   3.094   1.462 -2.8918  1.4492  3.5136
  451SOL    HW2 1353   1.436   2.975   1.562 -2.1825  1.0822  0.8665
  452SOL     OW 1354   2.701   2.324   2.252 -0.2125  0.0896 -0.1642
  452SOL    HW1 1355   2.619   2.384   2.272 -0.9301 -0.5462 -0.5133
  452SOL    HW2 1356   2.744   2.294   2.341  0.7969  2.1895  2.5749
  453SOL     OW 1357   2.464   2.653   3.080 -0.1364 -0.4663 -0.0764
  453SOL    HW1 1358   2.378   2.688   3.122  2.7913 -0.3253 -2.4102
  453SOL    HW2 1359   2.442   2.587   2.998  0.3723  4.6404  0.0554
  454SOL     OW 1360   0.939   1.191   2.012 -0.0790  0.5491 -0.3574
  454SOL    HW1 1361   0.924   1.151   1.917  1.4220  0.1564 -0.7963
  454SOL    HW2 1362   1.012   1.265   2.014  0.9304  0.4373 -2.3388
  455SOL     OW 1363   0.640   2.641   2.805 -0.0505  0.1581  0.4939
  455SOL    HW1 1364   0.711   2.704   2.837  0.7478 -1.1072  1.2668
  455SOL    HW2 1365   0.640   2.554   2.857  2.3083  2.5642  1.3303
  456SOL     OW 1366   0.370   1.942   0.225  0.1763  0.3770 -0.6267
  456SOL    HW1 1367   0.474   1.933   0.226  0.0410 -1.1271  1.4158
  456SOL    HW2 1368   0.342   2.041   0.218  1.6236  0.9978 -0.1414
  457SOL     OW 1369   0.416   2.766   0.664  0.5687  0.4256 -0.1751
  457SOL    HW1 1370   0.389   2.826   0.584 -2.3627  0.4926 -2.5095
  457SOL    HW2 1371   0.517   2.760   0.680 -0.9318 -0.9897 -1.1231
  458SOL     OW 1372   2.925   0.039   1.261  0.0063  0.1205 -0.2515
  458SOL    HW1 1373   2.964   0.132   1.272 -2.0729  0.1835  1.6165
  458SOL    HW2 1374   2.951  -0.006   1.173 -1.1496  0.3961 -1.3507
  459SOL     OW 1375   2.186   2.483   0.761  0.3503  0.0856  0.0816
  459SOL    HW1 1376   2.238   2.549   0.823  3.2618  0.2659  1.0895
  459SOL    HW2 1377   2.245   2.407   0.725  1.3819 -1.2947  3.0786
  460SOL     OW 1378   1.172   2.060   2.758  0.8271 -0.1112 -0.3467
  460SOL    HW1 1379   1.207   2.064   2.658  0.5381 -0.0786 -1.2300
  460SOL    HW2 1380   1.188   1.967   2.800  1.6841  0.7799  0.4989
  461SOL     OW 1381   0.466   2.136   2.722 -0.2977  0.0041 -0.2354
  461SOL    HW1 1382   0.407   2.079   2.654 -0.5866 -1.6743  1.6642
  461SOL    HW2 1383   0.491   2.078   2.812 -1.7617 -1.7615  1.6480
  462SOL     OW 1384   0.952   1.013   1.753 -0.0433  0.1378 -0.0438
  462SOL    HW1 1385   0.975   0.937   1.684 -0.7480 -0.1502  0.5561
  462SOL    HW2 1386   0.874   1.076   1.718 -1.0090 -1.0293  1.7894
  463SOL     OW 1387   0.439   0.836   0.470  0.0361  0.6988  0.3568
  463SOL    HW1 1388   0.471   0.740   0.449 -2.0652  3.1046  1.3701
  463SOL    HW2 1389   0.334   0.833   0.488 -0.2130 -1.8277 -1.1326
  464SOL     OW 1390   0.598   2.341   2.238  0.6137  0.3887  0.1211
  464SOL    HW1 1391   0.523   2.398   2.285 -0.6180  0.8477  3.4524
  464SOL    HW2 1392   0.595   2.346   2.133 -3.2236 -0.3934 -1.3747
  465SOL     OW 1393   0.245   0.941   0.802  0.2431  0.3060  0.2186
  465SOL    HW1 1394   0.153   0.962   0.754 -0.5816  2.3670  2.1262
  465SOL    HW2 1395   0.269   0.838   0.803  2.4588  1.2653  1.1920
  466SOL     OW 1396   1.362   1.134   1.026  0.0430 -0.0933  0.3339
  466SOL    HW1 1397   1.328   1.226   0.997  0.2268 -0.5033 -0.6001
  466SOL    HW2 1398   1.283   1.072   1.054 -2.0879  1.5067 -1.1092
  467SOL     OW 1399   0.617   0.420   2.479 -0.2940  0.2145 -0.5209
  467SOL    HW1 1400   0.543   0.481   2.515  0.9723  0.0967  0.1224
  467SOL    HW2 1401   0.627   0.332   2.538  1.6914 -0.1713 -1.7785
  468SOL     OW 1402   0.442   2.248   1.608 -0.2490 -0.2416  0.9729
  468SOL    HW1 1403   0.527   2.304   1.636  2.1155 -1.4297  1.1667
  468SOL    HW2 1404   0.443   2.229   1.504 -0.6531  0.3667  0.1076
  469SOL     OW 1405   1.396   1.356   1.235 -0.6074 -0.8270  0.3760
  469SOL    HW1 1406   1.430   1.365   1.138  0.3448  1.5977 -3.6389
  469SOL    HW2 1407   1.467   1.384   1.306 -2.1375 -0.9085  1.1294
  470SOL     OW 1408   3.032   1.800   0.759  0.4932 -0.4138 -0.1067
  470SOL    HW1 1409   3.103   1.780   0.686  0.4548 -0.5996 -3.0657
  470SOL    HW2 1410   3.031   1.743   0.847 -1.6666  0.1916 -1.0055
  471SOL     OW 1411   2.589   1.391   2.189 -0.4729  0.3387 -0.0767
  471SOL    HW1 1412   2.581   1.289   2.216 -0.6620 -0.4129 -2.3378
  471SOL    HW2 1413   2.682   1.432   2.207 -2.1330  0.8237 -2.2091
  472SOL     OW 1414   1.151   2.493   0.105 -0.2380 -0.3927  0.2456
  472SOL    HW1 1415   1.205   2.503   0.192  0.7162  0.1720  0.1065
  472SOL    HW2 1416   1.092   2.407   0.100  0.9738 -0.8934  0.7502
  473SOL     OW 1417   1.060   1.531   1.008 -0.1116 -0.6499  0.0795
  473SOL    HW1 1418   0.971   1.512   0.954 -0.4106  1.4905 -1.1367
  473SOL    HW2 1419   1.061   1.476   1.096 -1.1496 -1.4942 -0.1516
  474SOL     OW 1420   0.648   1.284   0.541  0.1927  0.2404  0.4004
  474SOL    HW1 1421   0.586   1.211   0.499  1.9193 -2.6922  0.6886
  474SOL    HW2 1422   0.732   1.236   0.582 -0.5364 -0.9228  0.0258
  475SOL     OW 1423   2.817   0.067   0.816 -0.4526 -0.1230  0.3790
  475SOL    HW1 1424   2.892   0.138   0.804  1.0267 -1.1726  2.4333
  475SOL    HW2 1425   2.727   0.091   0.864 -2.4440 -0.6480 -2.1414
  476SOL     OW 1426   0.957   3.067   1.805 -0.0387 -0.8003  0.0867
  476SOL    HW1 1427   1.052   3.109   1.814  0.4192  1.4194 -2.3287
  476SOL    HW2 1428   0.945   3.024   1.707 -2.2313 -0.2852 -1.9015
  477SOL     OW 1429   1.440   0.304   2.402  0.5676 -0.4730 -0.0679
  477SOL    HW1 1430   1.446   0.327   2.504  0.7069 -0.9547  1.1826
  477SOL    HW2 1431   1.530   0.265   2.370  0.1994 -0.9639 -0.6060
  478SOL     OW 1432   2.248   1.900   0.277  0.0664  0.0229  0.5213
  478SOL    HW1 1433   2.212   1.822   0.328  1.2526  2.2237 -0.6660
  478SOL    HW2 1434   2.283   1.870   0.177  1.7080 -5.3513 -1.1653
  479SOL     OW 1435   1.252   0.966   2.900 -0.2570  0.2154  0.1827
  479SOL    HW1 1436   1.351   0.982   2.878 -1.7841  0.6221 -2.9105
  479SOL    HW2 1437   1.208   0.891   2.843 -1.9242  0.8541  0.3570
  480SOL     OW 1438   2.660   2.306   0.384  0.1085 -0.3141 -0.1042
  480SOL    HW1 1439   2.726   2.246   0.438  0.0251  0.6521  1.0419
  480SOL    HW2 1440   2.568   2.260   0.389  1.3390  1.4434  0.8360
  481SOL     OW 1441   1.041   1.162   0.880  0.1619  0.6587  0.1435
  481SOL    HW1 1442   1.041   1.263   0.869  2.2754 -1.6403  0.0582
  481SOL    HW2 1443   1.054   1.135   0.979  3.7584  0.6078  1.1704
  482SOL     OW 1444   1.570   0.300   1.980 -0.4018  0.3011 -0.1352
  482SOL    HW1 1445   1.583   0.400   1.965 -1.0286 -1.8731  0.4676
  482SOL    HW2 1446   1.648   0.258   2.029 -0.1394  0.9975  0.1977
  483SOL     OW 1447   0.222   2.325   1.193  0.1734  0.1560  0.4284
  483SOL    HW1 1448   0.191   2.407   1.253 -0.7652 -1.8131 -0.4744
  483SOL    HW2 1449   0.237   2.340   1.090 -0.3500 -0.9520 -1.4021
  484SOL     OW 1450   1.727   1.053   1.348  0.6947  0.2002 -0.8243
  484SOL    HW1 1451   1.783   1.001   1.422  2.8867  0.1828 -0.2036
  484SOL    HW2 1452   1.742   1.155   1.346 -0.8045 -0.2777 -0.8046
  485SOL     OW 1453   0.740   0.750   1.843 -0.2113 -0.5090 -0.5260
  485SOL    HW1 1454   0.705   0.806   1.761  1.1095  2.5357  1.4491
  485SOL    HW2 1455   0.839   0.708   1.824 -0.1110 -0.4864 -1.3602
  486SOL     OW 1456   0.845   1.884   2.426 -0.4153  0.2764 -0.2225
  486SOL    HW1 1457   0.856   1.943   2.511 -0.6781  2.4826  0.9425
  486SOL    HW2 1458   0.791   1.935   2.355  1.4360 -0.0829  1.9326
  487SOL     OW 1459   1.776   1.620   1.038  0.2818 -0.1272 -0.2514
  487SOL    HW1 1460   1.827   1.533   1.063 -1.6719 -2.0215  0.6945
  487SOL    HW2 1461   1.826   1.669   0.958  2.1958  0.8971  2.1883
  488SOL     OW 1462   2.928   0.788   2.277  0.0347  0.0799  0.2777
  488SOL    HW1 1463   3.010   0.720   2.273  0.1440  1.4207 -2.1879
  488SOL    HW2 1464   2.870   0.777   2.363  0.9429  0.1858  2.4162
  489SOL     OW 1465   2.774   0.332   1.297 -0.2501 -0.3848  0.3555
  489SOL    HW1 1466   2.763   0.260   1.372  1.5110 -0.5531  0.1925
  489SOL    HW2 1467   2.859   0.324   1.238 -1.0103 -1.1031  0.1313
  490SOL     OW 1468   1.439   2.924   2.817 -0.1528 -0.3621  0.1901
  490SOL    HW1 1469   1.470   2.832   2.851  2.3729  0.1309  1.7350
  490SOL    HW2 1470   1.415   2.933   2.715 -2.0929 -0.4586 -0.2241
  491SOL     OW 1471   1.752   1.491   2.724 -0.3593  0.1424 -0.2238
  491SOL    HW1 1472   1.746   1.424   2.798  0.9407  1.4474  0.6984
  491SOL    HW2 1473   1.822   1.563   2.744 -0.3807  1.3723 -1.9179
  492SOL     OW 1474   0.552   2.080   0.641 -0.8210 -0.7064  0.2509
  492SOL    HW1 1475   0.606   2.082   0.729  2.0643 -0.4006  2.5300
  492SOL    HW2 1476   0.473   2.148   0.647  1.9857 -1.3850  0.7159
  493SOL     OW 1477   0.431   1.347   2.085  0.3360 -0.0302  0.3753
  493SOL    HW1 1478   0.344   1.404   2.076  0.6456 -0.6311 -0.0562
  493SOL    HW2 1479   0.402   1.246   2.096  0.8620  0.6233 -2.7126
  494SOL     OW 1480   2.710   2.636   0.109 -0.2952 -0.7240 -0.2446
  494SOL    HW1 1481   2.712   2.633   0.211 -0.1540 -1.5380  0.1102
  494SOL    HW2 1482   2.614   2.657   0.077  0.5860  1.3366  0.6143
  495SOL     OW 1483   2.531   2.829   2.637  0.0021  0.0933 -0.0783
  495SOL    HW1 1484   2.572   2.739   2.666 -2.4441  0.3071 -4.1458
  495SOL    HW2 1485   2.585   2.866   2.558 -2.8181  0.4867 -0.8710
  496SOL     OW 1486   1.960   2.287   0.830  0.7615  0.6999 -0.5713
  496SOL    HW1 1487   2.045   2.333   0.872 -1.4986  0.0828  0.0867
  496SOL    HW2 1488   1.969   2.186   0.824  0.3003 -0.1688  0.2745
  497SOL     OW 1489   0.216   3.008   2.365 -0.4253 -0.0635  0.4881
  497SOL    HW1 1490   0.160   3.067   2.425  0.8712 -3.4106 -2.0961
  497SOL    HW2 1491   0.244   3.049   2.275 -1.2419 -2.6463  1.7088
  498SOL     OW 1492   1.133   1.377   1.229 -0.1892  0.0330 -0.0019
  498SOL    HW1 1493   1.236   1.359   1.228 -0.4680  0.0404 -0.5925
  498SOL    HW2 1494   1.109   1.420   1.323 -0.6254  1.1760  1.0739
  499SOL     OW 1495   0.600   1.834   0.339  0.7676 -0.0939  0.1302
  499SOL    HW1 1496   0.630   1.775   0.255 -0.6372 -2.5756  0.3481
  499SOL    HW2 1497   0.671   1.889   0.388  0.3765 -0.9393  2.2598
  500SOL     OW 1498   1.540   2.870   1.686  0.1038  0.1704 -0.0709
  500SOL    HW1 1499   1.573   2.826   1.771 -2.4898  3.1209 -0.4488
  500SOL    HW2 1500   1.533   2.803   1.607 -2.0101  0.6370  0.5319
  501SOL     OW 1501   0.800   1.181   2.292 -0.4657 -0.0065  0.2276
  501SOL    HW1 1502   0.740   1.097   2.303 -1.2822 -1.2658  1.6584
  501SOL    HW2 1503   0.826   1.203   2.187  2.7070  0.7119 -0.8671
  502SOL     OW 1504   2.596   0.925   1.771 -0.4027  0.4638  0.1473
  502SOL    HW1 1505   2.602   0.954   1.669  0.0098  0.4833 -1.2392
  502SOL    HW2 1506   2.612   0.824   1.782  1.0865 -2.5095  0.4687
  503SOL     OW 1507   1.307   0.127   0.680 -0.3151  0.0240 -0.2947
  503SOL    HW1 1508   1.224   0.188   0.703  0.9760  0.7061 -1.8410
  503SOL    HW2 1509   1.400   0.169   0.701 -1.2650 -0.9726 -0.2042
  504SOL     OW 1510   3.033   2.314   1.497  0.4550 -0.0326  0.6970
  504SOL    HW1 1511   2.992   2.400   1.527 -0.5551 -2.3847 -1.8416
  504SOL    HW2 1512   3.075   2.253   1.576 -2.9387 -0.5241  2.2952
  505SOL     OW 1513   2.302   1.173   1.467  0.3601  0.0436  0.0487
  505SOL    HW1 1514   2.293   1.155   1.366  2.4136  0.3711 -0.0890
  505SOL    HW2 1515   2.345   1.259   1.489 -1.6156 -1.1658 -1.9510
  506SOL     OW 1516   1.946   0.170   1.831  0.4446 -0.4216  0.2620
  506SOL    HW1 1517   2.049   0.152   1.825  2.6577 -1.7279  1.0573
  506SOL    HW2 1518   1.930   0.269   1.868  1.9341 -0.1516  0.5679
  507SOL     OW 1519   0.503   0.700   2.207  0.1214 -0.1718 -0.1622
  507SOL    HW1 1520   0.481   0.736   2.113  1.7163  3.2421 -2.1890
  507SOL    HW2 1521   0.567   0.621   2.205  0.6074  2.6720  0.1583
  508SOL     OW 1522   0.304   1.697   0.789  0.5788  0.2529 -0.3724
  508SOL    HW1 1523   0.326   1.736   0.699  0.2537 -1.6616  2.8087
  508SOL    HW2 1524   0.293   1.765   0.863  1.3579  0.0101 -2.1096
  509SOL     OW 1525   1.292   1.214   2.453 -0.8532  0.6002 -0.0159
  509SOL    HW1 1526   1.295   1.234   2.351 -0.4942  1.2968  1.8255
  509SOL    HW2 1527   1.210   1.159   2.478  2.2536 -1.3531  0.6957
  510SOL     OW 1528   1.294   2.017   2.220 -0.3207 -0.1858 -0.1574
  510SOL    HW1 1529   1.314   2.041   2.120 -0.2446 -0.2276 -1.5703
  510SOL    HW2 1530   1.227   1.945   2.233  2.6575 -1.1909 -0.3649
  511SOL     OW 1531   3.003   2.761   1.292 -0.0212  0.0984  0.2781
  511SOL    HW1 1532   3.022   2.793   1.197  1.3392  1.3093  1.3337
  511SOL    HW2 1533   2.906   2.724   1.296  0.5447  1.5985  0.1501
  512SOL     OW 1534   2.357   0.438   1.379  0.1733 -0.4868 -0.6713
  512SOL    HW1 1535   2.261   0.452   1.345  1.1274  2.5300  0.0048
  512SOL    HW2 1536   2.415   0.401   1.303 -0.5163 -0.3869  1.0894
  513SOL     OW 1537   2.577   2.104   0.882  0.0621  0.6714  0.7715
  513SOL    HW1 1538   2.556   2.190   0.829  1.0659 -0.5216  1.6047
  513SOL    HW2 1539   2.663   2.058   0.848  0.6473  0.3055  3.8087
  514SOL     OW 1540   0.623   2.718   0.434 -0.1753  0.3389 -0.0000
  514SOL    HW1 1541   0.661   2.730   0.341 -0.7722  3.1972  0.5987
  514SOL    HW2 1542   0.685   2.760   0.508  0.0130 -0.2203 -0.2327
  515SOL     OW 1543   1.940   1.339   2.407 -0.0712  0.1701  0.1532
  515SOL    HW1 1544   1.934   1.303   2.308 -2.4774 -0.5663  1.0153
  515SOL    HW2 1545   1.872   1.303   2.472  1.1858  0.8221  0.5538
  516SOL     OW 1546   0.249   0.220   1.878 -0.4712  0.5987 -0.8370
  516SOL    HW1 1547   0.349   0.187   1.882  2.8207 -0.8044  2.6608
  516SOL    HW2 1548   0.177   0.142   1.868 -0.2487  0.8140  0.7863
  517SOL     OW 1549   0.474   0.206   1.162  0.0975 -0.0072 -0.0150
  517SOL    HW1 1550   0.537   0.164   1.230 -1.9451  2.0432 -3.5961
  517SOL    HW2 1551   0.379   0.168   1.165  1.9496  1.9150  0.6701
  518SOL     OW 1552   2.161   3.009   1.834 -0.6332  0.0152 -0.6342
  518SOL    HW1 1553   2.202   3.101   1.858 -0.7928 -1.6568 -1.6786
  518SOL    HW2 1554   2.184   2.978   1.740 -0.3882  0.3567  2.9082
  519SOL     OW 1555   2.357   2.219   2.549  0.0430 -0.5072 -0.3153
  519SOL    HW1 1556   2.324   2.180   2.639 -1.3517 -1.3440 -0.7247
  519SOL    HW2 1557   2.373   2.321   2.538  3.0241 -0.0135 -0.0956
  520SOL     OW 1558   1.849   2.731   1.686  0.4204  0.4872  0.1645
  520SOL    HW1 1559   1.793   2.679   1.751  1.8794 -0.4510  2.3004
  520SOL    HW2 1560   1.943   2.682   1.672 -0.7337  0.5737 -1.3818
  521SOL     OW 1561   0.587   0.059   2.147 -0.1801 -0.1501  0.2006
  521SOL    HW1 1562   0.489   0.064   2.174  2.0311 -0.8144 -0.2713
  521SOL    HW2 1563   0.659   0.057   2.225 -0.9740 -0.9533  0.2941
  522SOL     OW 1564   0.248   1.904   1.475 -0.1688 -0.2379  0.0313
  522SOL    HW1 1565   0.254   1.963   1.561  0.2687 -2.9810  0.4766
  522SOL    HW2 1566   0.210   1.962   1.396 -2.5510  0.8755  0.3588
  523SOL     OW 1567   2.150   2.938   1.570 -0.6037 -0.1098  0.1461
  523SOL    HW1 1568   2.240   2.886   1.575  1.5807 -2.6095  0.8386
  523SOL    HW2 1569   2.095   2.900   1.491  3.0095 -2.0910  1.6482
  524SOL     OW 1570   0.215   2.760   2.795 -0.1463 -0.1977  0.0340
  524SOL    HW1 1571   0.200   2.844   2.851 -0.8893 -0.5247 -0.1671
  524SOL    HW2 1572   0.320   2.763   2.761  2.9425 -0.0359 -0.6267
  525SOL     OW 1573   2.128   2.060   0.486 -0.5729 -0.1247  0.1031
  525SOL    HW1 1574   2.162   2.027   0.582  0.1291  0.6814 -0.2247
  525SOL    HW2 1575   2.158   2.004   0.408  0.0314  1.2658 -0.8522
  526SOL     OW 1576   0.421   1.549   1.735 -0.2572 -0.1232  0.3908
  526SOL    HW1 1577   0.525   1.566   1.754  1.6174 -2.3020 -0.0184
  526SOL    HW2 1578   0.409   1.449   1.714  0.5887  2.5912  1.0376
  527SOL     OW 1579   1.064   2.956   1.186 -0.0651  0.3654  0.2741
  527SOL    HW1 1580   1.140   2.886   1.193 -1.4007 -0.7715 -0.9577
  527SOL    HW2 1581   1.099   3.052   1.187 -3.1663 -1.5835  0.5084
  528SOL     OW 1582   1.307   2.402   0.574  0.0371 -0.2953  0.1869
  528SOL    HW1 1583   1.343   2.306   0.594  1.2478 -4.2535  0.3005
  528SOL    HW2 1584   1.334   2.473   0.647  1.8885 -1.7681 -1.5128
  529SOL     OW 1585   1.878   1.768   0.853 -0.0635 -0.2996 -0.8100
  529SOL    HW1 1586   1.850   1.762   0.755  2.6940  1.5015 -0.7547
  529SOL    HW2 1587   1.929   1.855   0.872 -2.1092 -1.9702  0.3128
  530SOL     OW 1588   0.425   2.500   0.156  0.2254 -0.1061  0.1972
  530SOL    HW1 1589   0.454   2.441   0.235  0.5666 -0.8519 -2.5044
  530SOL    HW2 1590   0.437   2.444   0.066  1.9482 -1.2366 -1.7362
  531SOL     OW 1591   1.831   0.996   1.050  0.0749  0.3117  0.3215
  531SOL    HW1 1592   1.835   1.015   0.947  0.3598  1.2238  2.1852
  531SOL    HW2 1593   1.742   0.964   1.087  1.3563  0.7812  0.4595
  532SOL     OW 1594   0.388   1.154   0.717 -0.5603 -0.5130  0.5001
  532SOL    HW1 1595   0.413   1.151   0.617  0.2135 -0.5506 -0.4346
  532SOL    HW2 1596   0.356   1.066   0.764 -2.1548  2.1920  2.6909
  533SOL     OW 1597   1.827   0.050   2.544 -0.0892  0.0784 -0.8260
  533SOL    HW1 1598   1.932   0.041   2.544 -1.3147 -0.3027 -0.2964
  533SOL    HW2 1599   1.795   0.122   2.607  1.8408  0.0608  0.7010
  534SOL     OW 1600   0.226   0.194   1.577  0.1185  0.0117 -0.0648
  534SOL    HW1 1601   0.309   0.247   1.531  1.2857  2.6383  0.7888
  534SOL    HW2 1602   0.138   0.258   1.576 -0.5914  2.0151  0.7516
  535SOL     OW 1603   1.886   0.408   0.175  0.7568 -0.1411 -0.5514
  535SOL    HW1 1604   1.938   0.491   0.203 -3.8684 -2.3447  2.8653
  535SOL    HW2 1605   1.818   0.373   0.247 -1.0489  0.0866  1.8996
  536SOL     OW 1606   1.245   2.541   1.020  0.4251  0.2327 -0.3318
  536SOL    HW1 1607   1.255   2.442   1.037 -3.3110  2.4347  1.1968
  536SOL    HW2 1608   1.176   2.562   0.944  0.7118  1.2051 -1.7583
  537SOL     OW 1609   0.876   0.220   2.331  0.2577  0.3048 -0.0326
  537SOL    HW1 1610   0.880   0.248   2.231  3.3804 -3.0298 -0.4112
  537SOL    HW2 1611   0.795   0.170   2.369 -0.9008 -0.5350 -1.5686
  538SOL     OW 1612   1.697   2.335   1.559 -0.0780  0.3746  0.2009
  538SOL    HW1 1613   1.647   2.284   1.485  1.7865  2.4397  0.6762
  538SOL    HW2 1614   1.783   2.383   1.521  1.2532 -1.3729 -3.6700
  539SOL     OW 1615   0.183   1.616   2.700  0.1973  0.2601 -0.2132
  539SOL    HW1 1616   0.101   1.589   2.644  0.6752 -1.7014 -3.8578
  539SOL    HW2 1617   0.156   1.692   2.765 -0.4800  3.1955  2.0263
  540SOL     OW 1618   2.696   1.730   2.076  0.2328  0.1241 -0.5634
  540SOL    HW1 1619   2.651   1.647   2.027 -1.7645  1.8893 -1.5905
  540SOL    HW2 1620   2.662   1.822   2.037 -0.9826 -2.3345 -2.9319
  541SOL     OW 1621   0.447   2.298   3.086 -0.3819  0.8300 -0.0897
  541SOL    HW1 1622   0.486   2.226   3.148  2.0301 -0.6942 -0.3387
  541SOL    HW2 1623   0.367   2.251   3.037  1.2602  0.0199 -1.4069
  542SOL     OW 1624   2.194   2.635   0.452 -0.2011 -0.3256  0.5694
  542SOL    HW1 1625   2.184   2.731   0.422 -2.3009 -0.3304 -1.7649
  542SOL    HW2 1626   2.103   2.584   0.474 -0.8466  0.0380  2.3764
  543SOL     OW 1627   1.039   1.797   1.741 -0.3519 -0.2252 -0.2669
  543SOL    HW1 1628   1.035   1.798   1.841 -2.1415 -0.1841 -1.3431
  543SOL    HW2 1629   0.977   1.873   1.701  1.9578  0.5010  0.8433
  544SOL     OW 1630   0.855   0.430   0.149  0.7484  0.1653  0.2295
  544SOL    HW1 1631   0.892   0.376   0.230 -0.2648 -1.0127  0.5120
  544SOL    HW2 1632   0.886   0.390   0.058  0.8219  1.2195 -2.2791
  545SOL     OW 1633   1.180   1.717   0.621 -0.0577 -0.5498 -0.0649
  545SOL    HW1 1634   1.265   1.750   0.671  0.1398 -0.3053  1.1636
  545SOL    HW2 1635   1.177   1.748   0.522  0.8697 -1.2525  0.8031
  546SOL     OW 1636   2.670   1.581   0.040 -0.3173 -0.0963 -0.5171
  546SOL    HW1 1637   2.712   1.552  -0.049 -2.3033 -2.5984  0.5459
  546SOL    HW2 1638   2.598   1.511   0.081 -4.6499 -2.6234  1.9111
  547SOL     OW 1639   0.528   0.013   2.775  0.3802  0.2189  0.7349
  547SOL    HW1 1640   0.599  -0.032   2.724  1.4262  1.5956  0.6011
  547SOL    HW2 1641   0.502  -0.045   2.854 -2.8502  0.0774 -2.2227
  548SOL     OW 1642   2.078   0.822   3.030  0.0487 -0.2155 -0.8669
  548SOL    HW1 1643   1.995   0.772   3.058 -1.0425  1.9403  0.1381
  548SOL    HW2 1644   2.077   0.919   3.069 -0.2202 -1.6066 -2.3558
  549SOL     OW 1645   0.576   0.415   0.111 -0.4946 -0.3505  0.1597
  549SOL    HW1 1646   0.555   0.507   0.059  1.1630  3.1504  0.9163
  549SOL    HW2 1647   0.676   0.419   0.141  2.2963  1.1787  0.3314
  550SOL     OW 1648   2.523   2.892   2.902 -0.6123  0.7670 -0.5042
  550SOL    HW1 1649   2.499   2.813   2.971 -1.1581 -3.9467 -2.6000
  550SOL    HW2 1650   2.519   2.862   2.800 -0.2938  0.3978  0.4983
  551SOL     OW 1651   0.242   0.784   0.171 -0.1846  0.1779  0.3453
  551SOL    HW1 1652   0.341   0.791   0.142 -0.1229  0.4859  2.0856
  551SOL    HW2 1653   0.228   0.797   0.270  0.0341 -0.9459 -0.3673
  552SOL     OW 1654   0.840   2.826   1.883  0.2523  0.7844 -0.6944
  552SOL    HW1 1655   0.799   2.812   1.972  1.3965 -0.8328 -3.6548
  552SOL    HW2 1656   0.874   2.921   1.869 -1.4941 -1.9993  0.4220
  553SOL     OW 1657   3.081   2.558   0.423 -0.5205 -0.0042 -0.3516
  553SOL    HW1 1658   3.041   2.463   0.406 -0.5291 -1.6747  1.3600
  553SOL    HW2 1659   3.047   2.594   0.515 -0.7408 -0.6466  0.9406
  554SOL     OW 1660   2.128   0.270   0.569  0.1022 -0.6413  0.5355
  554SOL    HW1 1661   2.071   0.217   0.497  0.2893 -1.1940 -3.5925
  554SOL    HW2 1662   2.142   0.215   0.655  0.7323 -1.2925 -2.1773
  555SOL     OW 1663   0.476   2.948   2.443  0.2602 -0.0968 -0.1959
  555SOL    HW1 1664   0.374   2.953   2.416  0.4743  1.2724 -0.0666
  555SOL    HW2 1665   0.532   2.913   2.361  0.5646 -0.8209 -2.0819
  556SOL     OW 1666   0.899   2.272   1.653  0.4015 -0.3939  0.9446
  556SOL    HW1 1667   0.943   2.361   1.686 -0.8406  2.2833 -0.2244
  556SOL    HW2 1668   0.933   2.240   1.561 -1.1882  0.1682  1.6372
  557SOL     OW 1669   0.160   2.132   0.133  0.3634 -0.0808 -0.1754
  557SOL    HW1 1670   0.098   2.053   0.142  1.1573  0.4281 -0.3988
  557SOL    HW2 1671   0.161   2.159   0.032  0.2145 -1.5097 -1.6924
  558SOL     OW 1672   2.964   2.334   0.271  0.3120  0.2681 -0.1228
  558SOL    HW1 1673   2.865   2.317   0.270  2.7030 -2.2965  2.0653
  558SOL    HW2 1674   3.002   2.335   0.174  0.1734 -0.8564  0.4266
  559SOL     OW 1675   0.446   2.219   1.334  0.0278 -0.4429 -0.1941
  559SOL    HW1 1676   0.374   2.268   1.281  1.5796 -0.9248 -0.9075
  559SOL    HW2 1677   0.489   2.139   1.279  0.0436 -1.4586  1.7603
  560SOL     OW 1678   2.045   1.104   3.099  0.3555  0.6378  0.2008
  560SOL    HW1 1679   2.024   1.143   3.005  1.1668  2.1930  1.9413
  560SOL    HW2 1680   1.997   1.146   3.182  1.2600  1.1311  0.9676
  561SOL     OW 1681   3.040   1.918   0.064  0.0091 -0.1452 -0.7056
  561SOL    HW1 1682   2.967   1.844   0.083 -1.2069  0.2108 -4.7489
  561SOL    HW2 1683   2.994   2.006   0.037 -1.0744 -2.6431  1.2311
  562SOL     OW 1684   0.856   2.172   2.443  0.2067  0.1272  0.3029
  562SOL    HW1 1685   0.757   2.156   2.418 -0.0698  2.7405 -2.4493
  562SOL    HW2 1686   0.866   2.189   2.548  1.1673 -2.8381 -1.9599
  563SOL     OW 1687   0.735   2.533   2.537 -0.1728  0.0459  0.1104
  563SOL    HW1 1688   0.791   2.444   2.529  1.9473  0.2433 -0.5936
  563SOL    HW2 1689   0.707   2.562   2.633  0.7726 -0.9379 -1.9672
  564SOL     OW 1690   2.746   1.289   2.838 -0.5913  0.3151 -0.1556
  564SOL    HW1 1691   2.681   1.293   2.920 -0.2375 -1.2737 -0.4795
  564SOL    HW2 1692   2.790   1.380   2.813 -0.5503  0.5107  1.1030
  565SOL     OW 1693   2.499   1.984   2.599  0.0757 -0.4346 -0.2808
  565SOL    HW1 1694   2.464   2.069   2.548 -0.1400 -0.5503 -2.7870
  565SOL    HW2 1695   2.592   1.997   2.640 -0.0359  0.1231  1.8338
  566SOL     OW 1696   1.989   2.857   1.355 -0.0367  0.5640 -0.1716
  566SOL    HW1 1697   1.942   2.766   1.332 -0.5013 -2.1876 -1.2061
  566SOL    HW2 1698   2.046   2.891   1.273  0.5615  0.0266 -0.5113
  567SOL     OW 1699   2.455   0.152   2.268 -0.0447  0.4434 -0.1504
  567SOL    HW1 1700   2.473   0.141   2.168 -1.5402 -0.0465 -0.5030
  567SOL    HW2 1701   2.384   0.226   2.290 -2.1821 -0.6655 -0.9535
  568SOL     OW 1702   1.459   1.817   0.427  0.4852  0.2009 -0.2223
  568SOL    HW1 1703   1.444   1.875   0.343  0.8835 -2.5331  0.2124
  568SOL    HW2 1704   1.511   1.870   0.498  3.2420  2.8397  2.1336
  569SOL     OW 1705   0.302   0.652   0.797  0.3584 -0.6437 -0.1929
  569SOL    HW1 1706   0.365   0.600   0.744 -3.6087  1.8087  1.9838
  569SOL    HW2 1707   0.233   0.597   0.846  3.3378  2.2184 -0.0710
  570SOL     OW 1708   0.605   0.785   2.851  0.3128 -0.0069 -0.3741
  570SOL    HW1 1709   0.678   0.766   2.782 -1.1747  4.0680  2.2527
  570SOL    HW2 1710   0.633   0.860   2.918 -3.5994 -0.2861  0.9874
  571SOL     OW 1711   0.815   3.050   1.117 -0.2592 -0.2765 -0.2311
  571SOL    HW1 1712   0.845   3.113   1.037  0.0542  0.6949  0.1235
  571SOL    HW2 1713   0.901   2.993   1.145 -0.8868 -1.9729 -0.9824
  572SOL     OW 1714   1.541   2.570   1.155  0.2532 -0.0701  0.0141
  572SOL    HW1 1715   1.467   2.522   1.207  2.0007  1.5672 -1.1507
  572SOL    HW2 1716   1.508   2.661   1.114 -0.5499 -1.5144 -0.1140
  573SOL     OW 1717   2.942   0.414   2.094 -0.2262  0.3924 -0.4153
  573SOL    HW1 1718   2.908   0.313   2.106  1.7835 -1.0954  2.9549
  573SOL    HW2 1719   2.870   0.487   2.084  2.0063 -1.6680  2.0670
  574SOL     OW 1720   0.257   1.802   1.056 -0.0495  0.0495 -0.0463
  574SOL    HW1 1721   0.237   1.896   1.025 -0.6716 -0.0697  0.6762
  574SOL    HW2 1722   0.169   1.761   1.090  2.5237  0.7696 -0.0694
  575SOL     OW 1723   0.886   2.132   1.017  0.1991  0.4534  0.0377
  575SOL    HW1 1724   0.851   2.165   1.110 -1.5786  0.6050  0.8930
  575SOL    HW2 1725   0.933   2.203   0.961 -0.2799 -1.0014 -1.6337
  576SOL     OW 1726   2.920   2.920   1.732 -0.2825  0.2157  0.8312
  576SOL    HW1 1727   2.857   2.877   1.665  3.3422  1.4411 -0.0307
  576SOL    HW2 1728   2.947   3.018   1.711  2.0933  0.0203 -0.4140
  577SOL     OW 1729   2.561   1.285   3.051  0.2396 -0.0507 -0.2721
  577SOL    HW1 1730   2.531   1.192   3.023  3.1971 -0.1635  0.3627
  577SOL    HW2 1731   2.610   1.282   3.137  0.0818 -0.2307  0.8144
  578SOL     OW 1732   1.320   2.722   2.548 -0.0490 -0.0776 -0.2944
  578SOL    HW1 1733   1.242   2.699   2.477 -2.4522  0.6842  0.8300
  578SOL    HW2 1734   1.343   2.823   2.540  1.8337  0.3674  1.8455
  579SOL     OW 1735   0.116   2.544   0.184 -0.4198  0.2676 -0.1997
  579SOL    HW1 1736   0.087   2.546   0.284  1.4311  1.2727 -0.5820
  579SOL    HW2 1737   0.212   2.503   0.172 -0.3674 -3.1337 -1.2092
  580SOL     OW 1738   1.017   2.647   0.358 -0.0121 -0.0455  0.0192
  580SOL    HW1 1739   1.108   2.662   0.313  0.3029 -1.0203  0.1330
  580SOL    HW2 1740   0.954   2.588   0.298 -1.6866 -0.6807 -0.3055
  581SOL     OW 1741   1.191   2.620   1.486 -0.6193 -0.1856  0.6898
  581SOL    HW1 1742   1.259   2.543   1.476  2.0295  1.4889  0.7599
  581SOL    HW2 1743   1.235   2.704   1.439  1.1793  1.6899 -0.5143
  582SOL     OW 1744   1.487   0.039   1.852 -0.0908 -0.0285 -0.3654
  582SOL    HW1 1745   1.514   0.128   1.907 -1.5450  1.6376  0.1884
  582SOL    HW2 1746   1.570  -0.005   1.804  3.2414 -0.0778  0.0241
  583SOL     OW 1747   2.439   2.985   0.604  0.0771 -0.1755  0.1994
  583SOL    HW1 1748   2.513   2.929   0.554  2.5431  2.0012 -1.4968
  583SOL    HW2 1749   2.372   2.920   0.654  0.3898  0.5105 -1.9103
  584SOL     OW 1750   1.564   0.989   2.116  0.4848  0.5194  0.1059
  584SOL    HW1 1751   1.603   1.040   2.036  1.4352 -1.1665 -1.9224
  584SOL    HW2 1752   1.621   0.985   2.201  1.2590  0.0508 -0.9609
  585SOL     OW 1753   2.113   2.654   2.931  0.6868  0.1132  0.1183
  585SOL    HW1 1754   2.142   2.566   2.887 -1.6711 -1.0787  1.0372
  585SOL    HW2 1755   2.013   2.682   2.899 -4.1360 -0.3802  1.4511
  586SOL     OW 1756   2.766   0.215   1.566 -0.0087  0.0482 -0.6177
  586SOL    HW1 1757   2.786   0.308   1.618 -0.3036 -0.3874 -0.4722
  586SOL    HW2 1758   2.670   0.174   1.578 -1.4191  1.4862 -0.3867
  587SOL     OW 1759   1.999   1.623   2.727 -0.6457  0.4787  0.0467
  587SOL    HW1 1760   2.057   1.570   2.664 -0.5589 -1.5215  1.6346
  587SOL    HW2 1761   2.032   1.614   2.829  2.1944 -0.3700  1.3432
  588SOL     OW 1762   0.468   2.724   2.234 -0.1474 -0.2863  0.5473
  588SOL    HW1 1763   0.377   2.743   2.197  0.6377  1.7802  0.6914
  588SOL    HW2 1764   0.467   2.636   2.289 -2.3156 -0.3051  0.3035
  589SOL     OW 1765   2.146   1.494   2.531 -0.0643 -0.5746  0.2436
  589SOL    HW1 1766   2.061   1.448   2.489  0.2042 -2.6228  1.6192
  589SOL    HW2 1767   2.226   1.421   2.536  2.8251 -2.2001 -0.9180
  590SOL     OW 1768   2.323   1.700   1.992 -0.1367 -0.5562  0.0126
  590SOL    HW1 1769   2.410   1.644   2.013  1.6983 -0.2142 -0.0872
  590SOL    HW2 1770   2.307   1.771   2.068  3.6670  4.4521 -0.8025
  591SOL     OW 1771   1.325   2.467   0.289  0.3399 -0.5053 -0.7370
  591SOL    HW1 1772   1.406   2.436   0.233  1.6382  1.1174 -1.7005
  591SOL    HW2 1773   1.322   2.423   0.383 -0.9858  0.5978  1.1313
  592SOL     OW 1774   1.695   2.343   0.785 -0.0443 -0.0899  0.3421
  592SOL    HW1 1775   1.680   2.395   0.700 -0.7341  0.5079 -1.7510
  592SOL    HW2 1776   1.793   2.356   0.816 -1.6869  1.2983 -3.1025
  593SOL     OW 1777   0.594   0.172   3.051  0.6777 -0.2810  0.5281
  593SOL    HW1 1778   0.697   0.161   3.040  3.3997 -0.7135 -2.3704
  593SOL    HW2 1779   0.565   0.240   3.128  2.0182  0.9138  2.3562
  594SOL     OW 1780   0.912   1.980   2.677  0.2325  0.6272  0.0636
  594SOL    HW1 1781   1.015   1.973   2.678  0.8070  0.4884 -1.5075
  594SOL    HW2 1782   0.884   2.051   2.748  1.0450  0.6110 -1.7859
  595SOL     OW 1783   1.559   0.043   1.071  0.2274  0.5539  0.6245
  595SOL    HW1 1784   1.656   0.023   1.048 -1.5250 -3.1124  3.1990
  595SOL    HW2 1785   1.491  -0.006   1.013  0.6047 -0.4089  1.2707
  596SOL     OW 1786   3.083   1.408   2.238  0.2917 -1.0355 -0.0149
  596SOL    HW1 1787   2.988   1.446   2.252  2.5040 -1.0400  3.7821
  596SOL    HW2 1788   3.134   1.423   2.333  0.7361  0.1353  1.3865
  597SOL     OW 1789   2.102   2.622   1.630 -0.4435 -0.0341  0.3205
  597SOL    HW1 1790   2.114   2.539   1.566  0.2324  0.7763  0.3297
  597SOL    HW2 1791   2.151   2.610   1.727  1.5634  2.1582  3.6059
  598SOL     OW 1792   2.548   2.904   1.213  0.4797  0.5396  0.5811
  598SOL    HW1 1793   2.620   2.947   1.273 -2.1769 -1.3670  2.0057
  598SOL    HW2 1794   2.574   2.887   1.112  1.7560 -0.9858  2.2586
  599SOL     OW 1795   2.904   0.338   2.449 -0.3748  0.3847  0.6629
  599SOL    HW1 1796   3.003   0.363   2.423  0.9489  0.8063  3.8385
  599SOL    HW2 1797   2.834   0.407   2.408  0.7977  4.8515  1.3353
  600SOL     OW 1798   2.830   1.058   2.708 -0.3791  0.6940  0.1467
  600SOL    HW1 1799   2.812   0.963   2.745 -0.3763 -0.1326 -0.4691
  600SOL    HW2 1800   2.796   1.135   2.772 -0.1451  0.1549 -3.0579
  601SOL     OW 1801   2.999   1.254   2.043  0.6063 -0.2602 -0.4302
  601SOL    HW1 1802   2.952   1.313   1.977  2.1536  0.0235 -0.9323
  601SOL    HW2 1803   3.044   1.308   2.123 -1.0658  0.9391  3.2218
  602SOL     OW 1804   1.547   1.710   2.386  0.0935  0.1884  0.1637
  602SOL    HW1 1805   1.512   1.635   2.327  0.2287  3.5836  0.6657
  602SOL    HW2 1806   1.641   1.696   2.414 -3.9250 -2.3082  1.5055
  603SOL     OW 1807   0.667   1.265   2.656 -0.1195  0.0426  0.7141
  603SOL    HW1 1808   0.584   1.245   2.589 -0.3181  1.4453 -0.5094
  603SOL    HW2 1809   0.729   1.180   2.664 -1.9851  2.3394  1.6694
  604SOL     OW 1810   2.413   0.963   0.200  0.2130  0.1319 -0.3038
  604SOL    HW1 1811   2.477   0.994   0.126 -1.1309 -0.7682  2.2582
  604SOL    HW2 1812   2.364   0.873   0.179 -0.5799  0.5858 -0.8044
  605SOL     OW 1813   2.683   1.143   1.940  0.2982 -0.2374 -0.1448
  605SOL    HW1 1814   2.661   1.066   1.877 -1.1794  0.7405 -1.1258
  605SOL    HW2 1815   2.665   1.125   2.040 -1.1827 -0.2107  1.4410
  606SOL     OW 1816   1.558   2.541   2.597  0.4716 -0.1117  0.3062
  606SOL    HW1 1817   1.477   2.611   2.598 -2.9180  0.0618  0.1479
  606SOL    HW2 1818   1.524   2.447   2.586 -1.4906  1.6372  2.9532
  607SOL     OW 1819   1.351   1.561   0.448  0.2417  0.2905 -0.1164
  607SOL    HW1 1820   1.279   1.565   0.524  1.1570  2.8140  1.0803
  607SOL    HW2 1821   1.393   1.653   0.421  0.3078  2.8245 -1.9981
  608SOL     OW 1822   1.410   2.911   0.446  0.0529 -0.5073  0.1438
  608SOL    HW1 1823   1.495   2.944   0.387  2.6970 -0.4128 -0.1068
  608SOL    HW2 1824   1.355   2.989   0.492  0.7880  0.0748  0.6341
  609SOL     OW 1825   1.313   1.347   0.263 -0.1030  0.0452  0.0728
  609SOL    HW1 1826   1.321   1.432   0.326  1.1853  1.7924  0.0407
  609SOL    HW2 1827   1.219   1.315   0.248 -0.1215  3.3078 -0.6608
  610SOL     OW 1828   2.958   1.077   2.301  0.0899  0.7393  0.2383
  610SOL    HW1 1829   2.946   0.974   2.300 -1.5904  0.6114 -0.9083
  610SOL    HW2 1830   2.961   1.116   2.205  1.1087  0.6113 -2.1160
  611SOL     OW 1831   2.510   0.321   1.192  0.0754  0.0806 -0.9751
  611SOL    HW1 1832   2.475   0.224   1.207  1.6249  0.7930  2.1992
  611SOL    HW2 1833   2.611   0.332   1.216  0.6689  1.8744  1.1221
  612SOL     OW 1834   0.745   2.185   1.248  0.0007  0.5025  0.4993
  612SOL    HW1 1835   0.681   2.102   1.233  1.4675 -2.0389 -1.8356
  612SOL    HW2 1836   0.697   2.275   1.224 -1.1156 -1.5408  2.1803
  613SOL     OW 1837   0.891   1.439   2.375  0.3653  0.4288 -0.3793
  613SOL    HW1 1838   0.955   1.494   2.314  1.1520 -2.1207  0.7415
  613SOL    HW2 1839   0.844   1.353   2.329 -2.7034  1.4724 -2.6067
  614SOL     OW 1840   1.672   1.583   1.821  0.0045  0.3428 -0.2143
  614SOL    HW1 1841   1.654   1.683   1.812  0.3355 -0.9198 -0.4942
  614SOL    HW2 1842   1.711   1.556   1.914 -2.3901 -0.9961  1.3483
  615SOL     OW 1843   0.769   1.243   1.737  0.2906  0.4497 -0.5040
  615SOL    HW1 1844   0.716   1.224   1.646  1.8848 -0.7424  2.9575
  615SOL    HW2 1845   0.817   1.339   1.734  1.5531  0.0143 -1.6720
  616SOL     OW 1846   1.086   1.547   2.201  0.2200 -0.4117 -0.4481
  616SOL    HW1 1847   1.001   1.538   2.136  0.3156 -1.4631  1.5256
  616SOL    HW2 1848   1.101   1.649   2.224  0.9746 -2.5819 -2.3470
  617SOL     OW 1849   2.983   1.555   1.635  0.2687  0.7754  0.1201
  617SOL    HW1 1850   3.004   1.486   1.707 -0.2555 -0.0710 -1.3495
  617SOL    HW2 1851   3.017   1.532   1.538  0.5260  1.5146  1.4096
  618SOL     OW 1852   1.867   2.097   1.365  0.3663  0.4517 -0.1199
  618SOL    HW1 1853   1.848   2.186   1.308 -0.6930  1.9525  1.8955
  618SOL    HW2 1854   1.836   2.011   1.317  0.8102 -2.4393  0.7316
  619SOL     OW 1855   1.753   0.452   2.374  0.2084  0.0648  0.2387
  619SOL    HW1 1856   1.678   0.518   2.345 -1.1412  2.1186 -1.6278
  619SOL    HW2 1857   1.721   0.355   2.367  2.0020 -0.9374  2.3855
  620SOL     OW 1858   2.279   2.846   0.786  0.2915  0.0187  0.0103
  620SOL    HW1 1859   2.182   2.863   0.772  0.8641  1.3390  0.8134
  620SOL    HW2 1860   2.299   2.758   0.843 -0.9715  0.1564  1.8473
  621SOL     OW 1861   2.165   1.872   1.363 -0.1311 -0.2749 -0.1330
  621SOL    HW1 1862   2.166   1.886   1.467 -0.1051  0.0764  0.1983
  621SOL    HW2 1863   2.079   1.824   1.330  0.4055  0.8305 -0.9266
  622SOL     OW 1864   2.326   0.950   1.874  0.5578  0.4171 -0.4446
  622SOL    HW1 1865   2.422   0.934   1.849 -1.1994  1.9718  2.0709
  622SOL    HW2 1866   2.278   0.865   1.912 -2.7182  0.6979 -1.3237
  623SOL     OW 1867   1.302   0.812   2.472  0.6566 -0.4833 -0.2466
  623SOL    HW1 1868   1.239   0.735   2.449  0.0322 -0.3606 -3.2897
  623SOL    HW2 1869   1.297   0.892   2.401 -3.7373  0.2663 -2.7614
  624SOL     OW 1870   0.515   0.643   3.079  0.6213 -0.6503  0.4908
  624SOL    HW1 1871   0.549   0.689   2.992 -1.3638  0.1371 -1.1239
  624SOL    HW2 1872   0.497   0.712   3.152  2.1930 -0.3570  3.3583
  625SOL     OW 1873   2.782   1.710   1.039  0.1711  0.3092 -0.3560
  625SOL    HW1 1874   2.694   1.750   1.000  0.3366  0.9215  1.1697
  625SOL    HW2 1875   2.851   1.780   1.062 -0.6454 -0.4751 -0.4258
  626SOL     OW 1876   0.647   2.685   1.723 -0.4207  0.6015 -0.3804
  626SOL    HW1 1877   0.695   2.728   1.805  1.0054  2.7512 -1.7312
  626SOL    HW2 1878   0.543   2.690   1.731 -2.8659  0.3357 -1.9590
  627SOL     OW 1879   0.663   0.864   1.606 -0.0897  0.5508 -0.8588
  627SOL    HW1 1880   0.603   0.790   1.562 -0.1816  0.4270 -1.2515
  627SOL    HW2 1881   0.719   0.918   1.541 -0.9131 -1.7565  2.8066
  628SOL     OW 1882   2.426   0.164   0.717  0.2479  0.0303 -0.1588
  628SOL    HW1 1883   2.463   0.101   0.647 -0.0500  1.4981  2.1614
  628SOL    HW2 1884   2.326   0.151   0.739  1.0366  1.3565 -0.9913
  629SOL     OW 1885   1.903   0.927   1.979 -0.1896 -0.4385 -0.0732
  629SOL    HW1 1886   1.919   0.984   1.897 -0.9155  1.4170  2.0642
  629SOL    HW2 1887   1.893   0.987   2.061  0.7124  1.2934  0.0300
  630SOL     OW 1888   2.905   2.265   0.785  0.2793  0.2891  0.0516
  630SOL    HW1 1889   2.850   2.352   0.787  2.2555  3.1781 -1.0105
  630SOL    HW2 1890   2.848   2.180   0.770  1.4359 -0.0800  0.0502
  631SOL     OW 1891   0.037   0.139   2.144  0.0738  0.0342  0.3948
  631SOL    HW1 1892   0.085   0.204   2.212  0.7846 -0.8759  0.9436
  631SOL    HW2 1893   0.066   0.149   2.049 -2.2014 -0.7399  2.4045
  632SOL     OW 1894   2.444   2.555   0.584 -0.6261  0.2444 -0.3019
  632SOL    HW1 1895   2.522   2.623   0.577  0.6718  0.8117  0.6785
  632SOL    HW2 1896   2.358   2.601   0.558  2.3151  0.6070  1.1490
  633SOL     OW 1897   1.446   1.205   2.683 -0.0733  0.2298 -0.3093
  633SOL    HW1 1898   1.451   1.295   2.740 -0.7117  1.1111  3.0041
  633SOL    HW2 1899   1.386   1.213   2.597  1.0330 -4.7102 -0.3890
  634SOL     OW 1900   0.670   2.057   0.875 -0.5004 -0.1464  0.6428
  634SOL    HW1 1901   0.576   2.081   0.911  1.8920 -1.6361  1.4900
  634SOL    HW2 1902   0.747   2.099   0.929 -3.2206  0.6887  0.5052
  635SOL     OW 1903   3.049   2.391   0.010 -0.2814 -0.0866  0.4626
  635SOL    HW1 1904   2.965   2.436  -0.037 -0.6506 -0.6828  1.6420
  635SOL    HW2 1905   3.119   2.460   0.050 -2.0166  1.7045  0.6403
  636SOL     OW 1906   2.378   2.752   2.041 -0.2871 -0.7548 -0.2529
  636SOL    HW1 1907   2.360   2.848   2.073 -0.7658  0.3459 -2.6290
  636SOL    HW2 1908   2.324   2.683   2.092  3.4866  0.0052 -1.5036
  637SOL     OW 1909   2.745   0.608   2.002  0.2275 -0.6523 -0.2962
  637SOL    HW1 1910   2.675   0.617   1.923  1.1824  0.5415 -0.0900
  637SOL    HW2 1911   2.797   0.695   2.010 -3.4791 -1.6939 -1.2132
  638SOL     OW 1912   2.417   1.865   1.299 -0.2995 -0.2760 -0.1178
  638SOL    HW1 1913   2.313   1.866   1.317  0.0021  0.1973  0.7847
  638SOL    HW2 1914   2.465   1.798   1.358 -0.5297 -0.3394 -0.0694
  639SOL     OW 1915   1.318   2.218   1.670  0.2096 -0.0162  0.2990
  639SOL    HW1 1916   1.343   2.316   1.677 -0.0551  0.3527  1.1582
  639SOL    HW2 1917   1.239   2.190   1.730  0.2551  0.2864 -2.6839
  640SOL     OW 1918   0.183   1.196   1.547 -0.4238 -0.0844 -0.2734
  640SOL    HW1 1919   0.180   1.206   1.649  3.0029 -0.4789 -0.3399
  640SOL    HW2 1920   0.255   1.129   1.511  2.3786 -0.2896  1.6547
  641SOL     OW 1921   1.944   0.235   1.494 -0.1493  0.5718 -0.2400
  641SOL    HW1 1922   1.887   0.262   1.577  0.4776  0.9729  1.9005
  641SOL    HW2 1923   2.016   0.169   1.518 -0.0910  2.2251 -1.8040
  642SOL     OW 1924   2.023   0.067   0.356 -0.0620  0.4686  0.1913
  642SOL    HW1 1925   2.121   0.038   0.375  0.0616  0.2184 -0.3584
  642SOL    HW2 1926   1.966   0.031   0.435  1.3589 -0.0615  1.9268
  643SOL     OW 1927   2.884   1.883   2.184 -0.3192 -0.7334  0.1144
  643SOL    HW1 1928   2.808   1.823   2.142 -0.4974  0.5879 -0.6983
  643SOL    HW2 1929   2.886   1.980   2.146  0.6278 -0.6746  2.3118
  644SOL     OW 1930   2.288   2.413   1.250  0.0387 -0.1776  0.3181
  644SOL    HW1 1931   2.341   2.348   1.193  0.0453  0.8927 -0.2139
  644SOL    HW2 1932   2.267   2.391   1.346  1.1077  2.5038 -1.5107
  645SOL     OW 1933   0.646   0.822   1.243 -0.8483 -0.1268 -0.8363
  645SOL    HW1 1934   0.548   0.810   1.270 -1.4994  0.7388 -0.4613
  645SOL    HW2 1935   0.660   0.853   1.150 -0.4111 -1.9735 -1.4994
  646SOL     OW 1936   1.485   1.841   2.051 -0.0420 -0.1948 -0.0998
  646SOL    HW1 1937   1.561   1.865   1.983  0.7412  1.4566  1.8456
  646SOL    HW2 1938   1.518   1.814   2.146 -0.4029  2.4345  1.0789
  647SOL     OW 1939   0.823   1.115   0.686 -0.1583 -0.6041 -0.4162
  647SOL    HW1 1940   0.907   1.128   0.747  1.2270  1.2722  0.4462
  647SOL    HW2 1941   0.743   1.064   0.732 -1.0534  0.4719  2.6676
  648SOL     OW 1942   0.173   0.225   0.336 -0.4935  0.0817  0.0180
  648SOL    HW1 1943   0.145   0.147   0.274  0.5236  3.1698 -2.1821
  648SOL    HW2 1944   0.142   0.317   0.294  1.1829 -1.0685 -1.3542
  649SOL     OW 1945   3.014   0.256   0.770  0.6371 -0.4177 -0.5578
  649SOL    HW1 1946   3.081   0.203   0.706  2.0218 -2.2524 -0.3119
  649SOL    HW2 1947   3.067   0.328   0.824 -1.0837 -0.6673  1.1546
  650SOL     OW 1948   2.784   0.657   1.515 -0.9445  0.3552  0.3061
  650SOL    HW1 1949   2.685   0.642   1.512  0.6282 -4.5136 -0.1194
  650SOL    HW2 1950   2.813   0.752   1.491 -1.6172 -1.2722  1.3650
  651SOL     OW 1951   0.869   1.537   1.671  0.1943 -0.0734 -0.2428
  651SOL    HW1 1952   0.913   1.596   1.745  0.0294  0.9055  0.5265
  651SOL    HW2 1953   0.922   1.536   1.584 -0.3062  1.6355  0.9212
  652SOL     OW 1954   2.374   2.497   2.465 -0.2754 -0.0177 -0.1780
  652SOL    HW1 1955   2.272   2.519   2.477 -0.9539  3.0472 -3.8873
  652SOL    HW2 1956   2.403   2.490   2.367  0.6564  1.0868 -0.8105
  653SOL     OW 1957   2.732   1.267   0.188  0.0416 -0.0614  0.1864
  653SOL    HW1 1958   2.783   1.325   0.255  0.4130 -1.6130  0.5207
  653SOL    HW2 1959   2.770   1.171   0.188  0.4304 -1.1024  0.8705
  654SOL     OW 1960   1.271   2.179   1.281  0.0240  0.6748  0.3755
  654SOL    HW1 1961   1.294   2.103   1.347  0.0562 -0.5696 -1.5354
  654SOL    HW2 1962   1.280   2.157   1.182 -0.1152 -0.2869 -0.9664
  655SOL     OW 1963   0.155   0.973   1.907 -0.3431 -0.0281 -0.4514
  655SOL    HW1 1964   0.223   0.927   1.838  0.8301  1.0043 -0.0535
  655SOL    HW2 1965   0.177   1.068   1.941 -0.3759 -1.1988  0.9258
  656SOL     OW 1966   2.577   2.547   2.633  0.2460  0.1651  0.4429
  656SOL    HW1 1967   2.673   2.526   2.596  1.9240 -0.3210 -0.8087
  656SOL    HW2 1968   2.499   2.544   2.558  1.1604 -1.6077 -1.4221
  657SOL     OW 1969   3.012   1.076   1.826  0.3992  0.2422  0.1950
  657SOL    HW1 1970   2.994   1.153   1.892 -1.0291 -2.1016 -1.2212
  657SOL    HW2 1971   3.105   1.039   1.842  1.5815 -0.6333  0.4016
  658SOL     OW 1972   1.685   0.204   2.338  0.1896 -0.4756  0.1015
  658SOL    HW1 1973   1.737   0.164   2.423  1.7644  2.3972 -1.0248
  658SOL    HW2 1974   1.707   0.153   2.253  2.0546  0.7565 -0.6220
  659SOL     OW 1975   1.423   0.629   2.753 -0.0008  0.2798 -0.3507
  659SOL    HW1 1976   1.480   0.705   2.703 -0.3492  3.5678 -0.6387
  659SOL    HW2 1977   1.335   0.667   2.794  2.3678  0.5230 -0.7243
  660SOL     OW 1978   1.450   0.334   1.394  0.0494 -0.1731 -0.3508
  660SOL    HW1 1979   1.461   0.361   1.498 -0.6764 -0.0267  0.3115
  660SOL    HW2 1980   1.509   0.248   1.386 -0.8465  2.7878 -1.1789
  661SOL     OW 1981   2.421   1.266   0.622  0.0305 -0.2513  0.1586
  661SOL    HW1 1982   2.448   1.257   0.528 -0.3363  0.6700  0.5712
  661SOL    HW2 1983   2.345   1.336   0.646  0.9158 -0.5458  0.6343
  662SOL     OW 1984   1.472   0.413   1.680 -0.0958  0.4442  0.6117
  662SOL    HW1 1985   1.429   0.363   1.762  5.1138  0.3094  0.4888
  662SOL    HW2 1986   1.446   0.516   1.672 -1.2310  2.1552 -0.1883
  663SOL     OW 1987   0.890   1.587   2.040 -0.4427  0.2066  1.2625
  663SOL    HW1 1988   0.855   1.681   2.035 -2.1657 -3.4825 -3.6197
  663SOL    HW2 1989   0.815   1.516   2.022  0.0722 -1.7615 -2.0358
  664SOL     OW 1990   1.556   2.111   1.433 -0.3226  0.1624 -0.2731
  664SOL    HW1 1991   1.461   2.072   1.454  0.0910 -1.3473  1.8556
  664SOL    HW2 1992   1.625   2.078   1.507  1.1226 -0.5577 -2.0262
  665SOL     OW 1993   2.244   0.693   1.953  0.2402 -0.4568  0.0215
  665SOL    HW1 1994   2.203   0.602   1.956  0.1757 -0.5265  0.1253
  665SOL    HW2 1995   2.297   0.711   2.041  0.2845  0.2332 -2.3271
  666SOL     OW 1996   0.485   2.224   0.333  0.0027  0.2395 -0.1455
  666SOL    HW1 1997   0.562   2.262   0.392  2.1223 -1.1028 -0.9990
  666SOL    HW2 1998   0.389   2.249   0.365  0.6283 -2.0308 -0.2383
  667SOL     OW 1999   1.956   0.227   1.068 -0.1033  0.8040 -0.6472
  667SOL    HW1 2000   1.996   0.323   1.079  0.6173 -0.3567  0.1617
  667SOL    HW2 2001   1.911   0.194   1.158  0.8339  1.0403  1.4639
  668SOL     OW 2002   1.985   0.473   1.124  0.0046 -0.2187  0.1628
  668SOL    HW1 2003   2.051   0.532   1.073  0.3516 -2.3323  1.7892
  668SOL    HW2 2004   1.998   0.465   1.223  0.3810  2.9051  1.9779
  669SOL     OW 2005   3.022   2.188   1.027 -0.5426  0.3109 -0.9279
  669SOL    HW1 2006   2.987   2.212   0.932  0.4347  0.9691 -1.3242
  669SOL    HW2 2007   2.961   2.215   1.104  3.3350 -0.0089 -1.9248
  670SOL     OW 2008   2.915   2.288   2.079  0.0701  0.1089 -0.1505
  670SOL    HW1 2009   2.840   2.283   2.152 -3.1101 -2.2470  0.9456
  670SOL    HW2 2010   2.923   2.384   2.030  1.0259  1.5097 -1.3881
  671SOL     OW 2011   1.807   1.766   1.534 -0.2057  0.4919  0.7778
  671SOL    HW1 2012   1.858   1.757   1.445 -2.1812 -4.0504 -1.1565
  671SOL    HW2 2013   1.707   1.761   1.516  0.0490  2.1949 -1.1839
  672SOL     OW 2014   0.461   0.650   2.564  0.2109 -0.0038 -0.2033
  672SOL    HW1 2015   0.399   0.691   2.486 -3.1235 -2.0444 -2.4558
  672SOL    HW2 2016   0.436   0.686   2.655 -1.9504  0.7738 -0.9785
  673SOL     OW 2017   0.092   1.340   1.092 -0.0879 -0.5059  0.6438
  673SOL    HW1 2018   0.024   1.393   1.146 -0.8072  1.0506 -0.4577
  673SOL    HW2 2019   0.174   1.389   1.056 -1.8951 -2.3586  1.7934
  674SOL     OW 2020   1.636   2.970   0.288  0.0430 -0.1306  0.4797
  674SOL    HW1 2021   1.638   3.022   0.197 -3.6777  0.1949 -2.3758
  674SOL    HW2 2022   1.691   2.881   0.285  1.4380  0.4593  1.3333
  675SOL     OW 2023   1.717   0.844   2.348  0.3144 -0.1361 -0.1448
  675SOL    HW1 2024   1.820   0.844   2.347  1.9488  1.4921  0.5521
  675SOL    HW2 2025   1.676   0.757   2.309  0.8530  1.1074  2.5308
  676SOL     OW 2026   2.563   1.528   1.956  0.1175 -0.0550 -0.6363
  676SOL    HW1 2027   2.544   1.477   1.868 -0.0430  4.6957  1.3784
  676SOL    HW2 2028   2.557   1.464   2.039 -0.8697 -0.9817  0.4221
  677SOL     OW 2029   1.874   0.702   0.912  0.3930  0.3848  0.0662
  677SOL    HW1 2030   1.783   0.657   0.918  3.2331 -2.8082  0.4892
  677SOL    HW2 2031   1.950   0.654   0.962 -1.2344  2.2466  1.4368
  678SOL     OW 2032   0.112   0.756   1.628  0.1380 -0.4290 -0.3909
  678SOL    HW1 2033   0.208   0.781   1.659  1.0300 -2.3914 -0.0865
  678SOL    HW2 2034   0.073   0.680   1.690 -2.8904  1.3564  2.8850
  679SOL     OW 2035   2.620   1.145   1.167  0.2727  0.7476  0.1286
  679SOL    HW1 2036   2.520   1.168   1.168  0.2569  3.2529 -1.2172
  679SOL    HW2 2037   2.634   1.040   1.171 -1.7272  0.5549 -2.8147
  680SOL     OW 2038   2.848   0.477   1.698 -0.1491  0.2844  0.1695
  680SOL    HW1 2039   2.819   0.549   1.624 -0.5880  1.2184 -0.4335
  680SOL    HW2 2040   2.939   0.494   1.743 -1.0410 -1.9402  0.0549
  681SOL     OW 2041   2.994   0.080   1.609 -0.2715  0.2951  0.0634
  681SOL    HW1 2042   3.048   0.071   1.519  3.2333 -0.6228  0.8841
  681SOL    HW2 2043   2.905   0.144   1.605 -1.6674  0.3226 -0.7937
  682SOL     OW 2044   0.673   0.037   1.330  0.1011 -0.2487  0.2752
  682SOL    HW1 2045   0.584   0.004   1.367 -1.0558  1.3247  0.2601
  682SOL    HW2 2046   0.706  -0.020   1.249 -0.4812 -0.0041  1.8828
  683SOL     OW 2047   1.372   0.208   2.166 -0.5015  0.0429  0.1379
  683SOL    HW1 2048   1.363   0.246   2.264  3.1979 -0.7503  0.2384
  683SOL    HW2 2049   1.457   0.238   2.121 -0.5942  0.0621  0.1367
  684SOL     OW 2050   1.442   2.124   0.546 -0.1750 -0.4361 -0.0402
  684SOL    HW1 2051   1.486   2.054   0.613 -2.3956 -0.5354 -0.3421
  684SOL    HW2 2052   1.350   2.088   0.513 -0.4512 -1.0962 -1.5612
  685SOL     OW 2053   2.227   2.045   1.940 -0.8377 -0.5754  0.3176
  685SOL    HW1 2054   2.291   2.061   1.859 -0.6824 -0.2255 -0.4543
  685SOL    HW2 2055   2.263   2.059   2.035 -1.8439  1.6263 -2.0270
  686SOL     OW 2056   1.496   1.842   2.893  0.5375 -0.2218 -0.4712
  686SOL    HW1 2057   1.552   1.780   2.954  0.4838  0.2543  1.1495
  686SOL    HW2 2058   1.396   1.818   2.895  2.2515  0.1789 -0.7230
  687SOL     OW 2059   1.295   2.409   1.975  0.2045 -0.2735 -0.3761
  687SOL    HW1 2060   1.355   2.325   1.970 -1.3412 -0.4949 -0.0265
  687SOL    HW2 2061   1.304   2.464   2.065 -1.2800 -1.7839  2.9685
  688SOL     OW 2062   2.075   1.510   1.742 -0.2037  0.0993 -0.0678
  688SOL    HW1 2063   2.174   1.528   1.714 -0.6724  4.1914 -0.2483
  688SOL    HW2 2064   2.008   1.491   1.661 -1.1720  0.0837  2.5384
  689SOL     OW 2065   2.386   1.125   2.746 -0.4513 -0.7012 -0.0553
  689SOL    HW1 2066   2.290   1.080   2.759 -1.1216  1.1020 -1.9577
  689SOL    HW2 2067   2.444   1.106   2.831 -0.2121  1.9485  0.6363
  690SOL     OW 2068   2.217   2.776   0.052 -0.2066 -0.6898  0.0557
  690SOL    HW1 2069   2.178   2.738  -0.033  2.1025 -0.4694 -1.7343
  690SOL    HW2 2070   2.152   2.788   0.136  1.1517  2.1062  2.3739
  691SOL     OW 2071   2.584   0.417   2.096  0.7133 -0.5267  0.1741
  691SOL    HW1 2072   2.637   0.339   2.142  2.6118 -2.6828 -2.7600
  691SOL    HW2 2073   2.641   0.497   2.062 -1.7273 -0.1066  1.1779
  692SOL     OW 2074   2.655   1.187   0.805 -0.2333  0.0328  0.7397
  692SOL    HW1 2075   2.597   1.219   0.727  1.1014  1.2074 -0.0064
  692SOL    HW2 2076   2.679   1.262   0.871  1.1923 -0.6973  0.4218
  693SOL     OW 2077   2.845   2.954   0.607  0.1497 -0.1598 -0.8624
  693SOL    HW1 2078   2.807   3.023   0.678 -0.4732  1.4224  0.2695
  693SOL    HW2 2079   2.822   2.982   0.510 -0.1150  4.0764 -1.5088
  694SOL     OW 2080   2.436   2.218   0.163  0.4236  0.7218  0.0948
  694SOL    HW1 2081   2.412   2.318   0.180  0.3539  1.7709  1.9046
  694SOL    HW2 2082   2.365   2.172   0.100 -3.1047  0.2029 -1.0696
  695SOL     OW 2083   0.462   2.960   1.431  0.2479  0.0226 -0.1147
  695SOL    HW1 2084   0.404   2.884   1.395 -0.0446  1.0134  1.8040
  695SOL    HW2 2085   0.422   3.005   1.513  1.5588 -1.3199 -0.3387
  696SOL     OW 2086   2.813   1.999   0.759  0.4635  0.8974 -0.0499
  696SOL    HW1 2087   2.891   1.937   0.792 -2.1134 -1.7438 -0.5532
  696SOL    HW2 2088   2.812   2.005   0.654  1.8342 -0.4021 -2.1389
  697SOL     OW 2089   1.673   1.878   1.832 -0.1120  0.2910  0.0827
  697SOL    HW1 2090   1.776   1.855   1.829  0.4819  0.4141 -1.0167
  697SOL    HW2 2091   1.655   1.978   1.806  0.9623 -2.3335 -1.5043
  698SOL     OW 2092   2.882   0.432   2.714  0.4489  0.1433 -0.1224
  698SOL    HW1 2093   2.885   0.419   2.614  1.3642 -0.5674 -0.8364
  698SOL    HW2 2094   2.944   0.364   2.760  0.1644 -1.3618  2.7977
  699SOL     OW 2095   1.567   0.065   2.904 -0.3526 -0.1997 -0.1824
  699SOL    HW1 2096   1.524  -0.020   2.864 -0.7197  0.2559 -1.1756
  699SOL    HW2 2097   1.610   0.131   2.835  3.6504  0.0805 -0.3310
  700SOL     OW 2098   0.994   2.238   1.355  0.1029 -0.2714 -0.3070
  700SOL    HW1 2099   1.060   2.163   1.344 -1.0638  2.0669  2.3717
  700SOL    HW2 2100   0.902   2.205   1.318 -0.8568  1.2779  0.0757
  701SOL     OW 2101   1.900   2.861   0.034  0.0115 -0.2025 -0.7058
  701SOL    HW1 2102   1.878   2.798   0.121 -0.2522 -1.5586 -1.2217
  701SOL    HW2 2103   1.955   2.952   0.047  2.0405 -2.0000  2.0898
  702SOL     OW 2104   2.092   1.336   1.970  0.1568 -0.6665  0.2812
  702SOL    HW1 2105   2.178   1.280   1.975  0.0256 -2.1176  0.1352
  702SOL    HW2 2106   2.086   1.397   1.885 -1.2571 -0.6382 -0.3886
  703SOL     OW 2107   1.917   0.907   1.508  0.3056 -0.1206 -0.6204
  703SOL    HW1 2108   1.934   0.806   1.524  0.3281 -1.4373  0.5288
  703SOL    HW2 2109   1.962   0.969   1.580 -1.7329 -0.3533  2.1631
  704SOL     OW 2110   0.323   2.017   1.698 -0.1166  0.1633  0.5014
  704SOL    HW1 2111   0.366   1.951   1.770  1.5650 -0.5493  0.6267
  704SOL    HW2 2112   0.385   2.094   1.674  0.7604 -2.4027 -0.9650
  705SOL     OW 2113   2.465   1.488   0.898  0.7665  0.0467 -0.2823
  705SOL    HW1 2114   2.409   1.424   0.842 -0.6079  1.6784  1.3058
  705SOL    HW2 2115   2.565   1.456   0.917  0.6959 -0.4851  0.9778
  706SOL     OW 2116   0.649   1.715   1.824 -0.0786  0.5570  0.9810
  706SOL    HW1 2117   0.717   1.704   1.758 -1.7234 -1.5229  1.4488
  706SOL    HW2 2118   0.688   1.736   1.918  0.2202  2.8434 -1.2013
  707SOL     OW 2119   2.343   1.213   1.955  0.1630 -0.4266  0.0211
  707SOL    HW1 2120   2.364   1.230   2.054 -1.5900 -1.8515 -0.6986
  707SOL    HW2 2121   2.348   1.113   1.925  1.1423 -0.7274 -0.1667
  708SOL     OW 2122   3.015   0.510   3.073 -0.1729  0.6533 -0.0672
  708SOL    HW1 2123   3.035   0.580   3.003 -0.0516  0.8368 -1.8324
  708SOL    HW2 2124   2.990   0.424   3.020 -1.7857 -1.0378 -1.6682
  709SOL     OW 2125   1.903   1.875   0.370 -0.7204  0.1978  0.0066
  709SOL    HW1 2126   1.903   1.978   0.371  2.4004 -1.2810 -2.2124
  709SOL    HW2 2127   1.866   1.840   0.280  1.1891 -1.4965  0.0831
  710SOL     OW 2128   1.789   1.628   2.475 -0.6028  0.4044 -0.1280
  710SOL    HW1 2129   1.832   1.554   2.416 -0.7185  1.4096  1.3973
  710SOL    HW2 2130   1.758   1.593   2.574  1.8410 -1.8899  1.8797
  711SOL     OW 2131   2.630   2.929   0.971 -0.3777  0.2251  0.6858
  711SOL    HW1 2132   2.587   3.022   0.966 -0.6951 -0.6479  2.3324
  711SOL    HW2 2133   2.729   2.931   0.992 -0.6400  0.9890 -0.2281
  712SOL     OW 2134   1.390   2.120   1.975  0.1828 -0.0814  0.1007
  712SOL    HW1 2135   1.480   2.121   1.916  4.4720  2.4004 -1.2983
  712SOL    HW2 2136   1.300   2.108   1.919  0.3354 -0.9024 -2.0048
  713SOL     OW 2137   2.778   1.467   2.526  0.2047  0.6693  0.4128
  713SOL    HW1 2138   2.791   1.359   2.523 -0.0487 -1.7449  0.6431
  713SOL    HW2 2139   2.690   1.502   2.574 -2.3804  0.6836 -2.0138
  714SOL     OW 2140   2.679   0.477   2.375 -0.8493 -0.3756  0.3442
  714SOL    HW1 2141   2.627   0.423   2.457 -1.0770 -1.4996  0.4494
  714SOL    HW2 2142   2.618   0.498   2.295  0.8298 -0.0618  1.0312
  715SOL     OW 2143   1.592   2.193   1.162 -0.4516 -0.2877  0.2257
  715SOL    HW1 2144   1.517   2.220   1.091 -1.8668 -1.2438 -2.1598
  715SOL    HW2 2145   1.562   2.174   1.258 -0.3010 -0.7749  0.6803
  716SOL     OW 2146   1.229   0.151   1.481 -0.3449  0.6703 -0.4221
  716SOL    HW1 2147   1.133   0.173   1.457  2.3295  0.4931  4.4009
  716SOL    HW2 2148   1.282   0.234   1.452 -0.0603 -0.8561 -2.5162
  717SOL     OW 2149   1.139   0.557   1.617  0.4962 -0.1091 -0.1678
  717SOL    HW1 2150   1.234   0.597   1.639  0.3214 -0.1551 -2.2852
  717SOL    HW2 2151   1.136   0.496   1.529  1.5956  0.9272 -2.0549
  718SOL     OW 2152   0.655   0.900   0.963 -0.4737 -0.1643  0.6308
  718SOL    HW1 2153   0.650   0.886   0.860 -1.6762  0.4154 -1.6518
  718SOL    HW2 2154   0.642   1.000   0.992 -0.2420  1.0479 -1.8301
  719SOL     OW 2155   0.636   1.746   2.297 -0.7430 -0.3015  0.3555
  719SOL    HW1 2156   0.709   1.771   2.360 -1.8471  0.3989 -2.3191
  719SOL    HW2 2157   0.611   1.642   2.307 -1.4733 -0.8464 -0.4470
  720SOL     OW 2158   2.218   1.150   0.299 -0.1294 -0.0937  0.3492
  720SOL    HW1 2159   2.253   1.074   0.237  0.2155 -1.2535  0.3695
  720SOL    HW2 2160   2.180   1.118   0.388  1.6628  2.1738 -0.3562
  721SOL     OW 2161   2.265   2.999   2.098 -0.9361  0.1890 -1.1629
  721SOL    HW1 2162   2.206   2.972   2.022  1.4463  0.6922  3.2032
  721SOL    HW2 2163   2.208   3.021   2.182  1.7620  1.1959  0.9109
  722SOL     OW 2164   2.364   1.635   0.505 -0.0971  0.0583 -0.5853
  722SOL    HW1 2165   2.426   1.675   0.429  1.9808  0.7123 -1.0098
  722SOL    HW2 2166   2.258   1.646   0.480 -2.2104 -1.2979 -0.2918
  723SOL     OW 2167   2.655   2.745   1.918  0.6941 -0.2394  0.0683
  723SOL    HW1 2168   2.689   2.830   1.974 -1.2799 -0.2200  0.6930
  723SOL    HW2 2169   2.549   2.732   1.926  0.5809  0.6246  1.7888
  724SOL     OW 2170   0.456   2.496   2.409  0.4308  0.0839 -0.7307
  724SOL    HW1 2171   0.358   2.514   2.441 -1.8438  0.6969  1.6820
  724SOL    HW2 2172   0.520   2.500   2.491  0.0849  1.0669 -1.4941
  725SOL     OW 2173   2.389   2.806   1.544 -0.3064 -0.3352  0.1871
  725SOL    HW1 2174   2.379   2.819   1.446 -3.6628  0.9770  3.5212
  725SOL    HW2 2175   2.417   2.710   1.575 -2.4832 -0.2749  2.4080
  726SOL     OW 2176   2.505   2.320   0.695 -0.0021 -0.2736  0.0531
  726SOL    HW1 2177   2.495   2.409   0.634 -0.4063  2.5845 -2.5307
  726SOL    HW2 2178   2.463   2.243   0.644  0.5811 -1.2466  2.4872
  727SOL     OW 2179   0.105   0.028   0.164 -0.6043  0.2749  0.4463
  727SOL    HW1 2180   0.186   0.018   0.095  1.5908 -1.0621 -1.9340
  727SOL    HW2 2181   0.022  -0.020   0.126  0.5817 -0.8145  1.0035
  728SOL     OW 2182   2.909   0.720   0.932  0.3719  0.0903 -0.5721
  728SOL    HW1 2183   2.862   0.689   0.845 -1.2471  0.8037 -1.9206
  728SOL    HW2 2184   2.890   0.661   1.013 -0.9941 -0.9979 -2.6960
  729SOL     OW 2185   0.032   2.510   0.760 -0.0583  0.0370 -0.2448
  729SOL    HW1 2186   0.077   2.488   0.856  3.6751 -2.6095 -0.7850
  729SOL    HW2 2187   0.098   2.510   0.680  2.0646  2.8645  0.4536
  730SOL     OW 2188   2.579   0.656   0.891 -0.7697 -0.3836  0.1764
  730SOL    HW1 2189   2.567   0.760   0.880 -0.4925 -0.6444 -2.3564
  730SOL    HW2 2190   2.648   0.610   0.825 -1.4080 -0.9818 -3.6403
  731SOL     OW 2191   3.070   2.177   2.361  0.2218 -0.4287  0.4434
  731SOL    HW1 2192   3.075   2.204   2.459 -0.3600  1.0812 -1.7386
  731SOL    HW2 2193   3.040   2.253   2.298  0.7103 -0.0710 -0.6774
  732SOL     OW 2194   1.248   2.750   2.010 -0.3829  0.5418  0.1938
  732SOL    HW1 2195   1.259   2.687   2.095  0.2874  0.4372  0.9701
  732SOL    HW2 2196   1.233   2.698   1.919 -0.4184 -0.9498 -1.1717
  733SOL     OW 2197   0.004   0.588   2.267 -0.0263 -0.4648 -0.6641
  733SOL    HW1 2198   0.082   0.645   2.228 -0.3517 -0.3658 -1.7868
  733SOL    HW2 2199  -0.029   0.512   2.203  1.3520 -0.3949  0.8893
  734SOL     OW 2200   1.458   0.368   2.676 -0.1165 -0.2118 -0.1309
  734SOL    HW1 2201   1.455   0.467   2.703 -1.1747 -1.2241 -0.7124
  734SOL    HW2 2202   1.380   0.317   2.721  0.3594  0.2529 -0.7994
  735SOL     OW 2203   2.860   2.638   2.287 -0.1161 -0.5656 -0.0868
  735SOL    HW1 2204   2.832   2.590   2.195 -2.6742 -0.3600 -3.9665
  735SOL    HW2 2205   2.953   2.683   2.279  0.3110 -1.0118  1.9962
  736SOL     OW 2206   0.915   0.429   2.504  0.0616  0.1874  0.0215
  736SOL    HW1 2207   0.814   0.434   2.526  2.0806  3.2881  0.7415
  736SOL    HW2 2208   0.922   0.357   2.427 -1.3361  1.0166 -1.8046
  737SOL     OW 2209   2.614   0.422   2.796 -0.4411  0.2106  0.8060
  737SOL    HW1 2210   2.596   0.425   2.896  1.2099  0.1345 -0.2454
  737SOL    HW2 2211   2.719   0.415   2.783  1.2835  0.5890 -0.6206
  738SOL     OW 2212   1.724   1.257   2.891 -0.8059  0.2325 -0.8606
  738SOL    HW1 2213   1.831   1.261   2.891  1.4719 -0.5845  2.0288
  738SOL    HW2 2214   1.698   1.156   2.891  0.7957 -1.8475 -2.7347
  739SOL     OW 2215   1.830   0.671   0.651 -1.0841  0.1387  0.1023
  739SOL    HW1 2216   1.874   0.689   0.742  0.5480 -0.8428  2.5697
  739SOL    HW2 2217   1.860   0.581   0.606 -1.6757  1.8491 -0.4942
  740SOL     OW 2218   1.944   1.918   2.369 -0.6454 -0.0559  0.2483
  740SOL    HW1 2219   2.015   1.842   2.386  1.5538 -0.8560  3.6804
  740SOL    HW2 2220   1.865   1.896   2.313  2.5889  1.7828 -0.6424
  741SOL     OW 2221   2.568   0.010   2.457 -0.5628  0.3525  0.2691
  741SOL    HW1 2222   2.666   0.037   2.433 -1.7221 -1.0326  0.6268
  741SOL    HW2 2223   2.499   0.049   2.387 -0.7047 -1.2576 -1.9448
  742SOL     OW 2224   2.199   1.403   0.164  0.5314 -0.7767  0.0996
  742SOL    HW1 2225   2.098   1.423   0.162 -2.6161 -1.8871 -1.5031
  742SOL    HW2 2226   2.227   1.314   0.207 -1.9833 -1.0811  2.4037
  743SOL     OW 2227   1.813   0.600   2.610 -0.5962 -0.1369  0.0666
  743SOL    HW1 2228   1.812   0.533   2.536 -2.2265  2.8711 -0.3889
  743SOL    HW2 2229   1.715   0.617   2.643  0.3460 -2.2382 -0.5642
  744SOL     OW 2230   2.672   2.115   0.066 -0.3619 -0.3929 -0.3251
  744SOL    HW1 2231   2.601   2.165   0.117  1.3388  3.2017 -0.4568
  744SOL    HW2 2232   2.642   2.017   0.046  0.6625  1.5393 -0.0129
  745SOL     OW 2233   2.249   2.599   2.225  0.2836  0.4112 -1.0659
  745SOL    HW1 2234   2.152   2.580   2.200  2.1488  0.2365  2.8641
  745SOL    HW2 2235   2.261   2.673   2.294  1.0926 -0.6535 -1.2256
  746SOL     OW 2236   0.048   2.634   1.746  0.4489 -0.1345 -0.2878
  746SOL    HW1 2237   0.139   2.586   1.735  0.7018 -0.1964  1.9998
  746SOL    HW2 2238   0.047   2.691   1.831 -0.8907 -0.7391  1.8245
  747SOL     OW 2239   0.044   1.770   1.644 -0.5983 -0.2997 -0.0268
  747SOL    HW1 2240  -0.018   1.686   1.627 -3.0701  0.8580  2.7791
  747SOL    HW2 2241   0.128   1.780   1.572  2.8258 -1.5616 -3.4727
  748SOL     OW 2242   1.856   2.730   2.892 -1.2980  0.2055 -0.2374
  748SOL    HW1 2243   1.869   2.779   2.985 -0.8090 -0.5489 -0.4351
  748SOL    HW2 2244   1.759   2.727   2.852  2.9144  0.7772 -1.6603
  749SOL     OW 2245   1.408   3.026   0.897 -0.3338  0.1336 -0.1133
  749SOL    HW1 2246   1.320   3.058   0.866  3.3432 -1.6153 -1.6763
  749SOL    HW2 2247   1.480   3.001   0.817  2.2117 -0.1088 -1.1233
  750SOL     OW 2248   2.254   0.175   1.842  0.0867  0.2327  0.0523
  750SOL    HW1 2249   2.266   0.220   1.752 -1.1479  1.0256 -2.8334
  750SOL    HW2 2250   2.270   0.247   1.916  1.6855 -1.1390  1.3214
  751SOL     OW 2251   0.754   2.141   2.875 -0.1402  0.7793 -0.2699
  751SOL    HW1 2252   0.828   2.104   2.945  1.8122 -3.1167 -1.9880
  751SOL    HW2 2253   0.661   2.095   2.887  0.8802  0.9467  0.6581
  752SOL     OW 2254   1.290   0.825   1.239 -0.5700 -0.1873  0.9850
  752SOL    HW1 2255   1.323   0.925   1.250  1.1283  0.0549  0.7261
  752SOL    HW2 2256   1.356   0.754   1.279  0.3176  0.7400 -1.0626
  753SOL     OW 2257   0.920   2.546   1.807 -0.4595 -0.4951  0.1184
  753SOL    HW1 2258   1.015   2.581   1.789  1.5683 -1.5475  0.9077
  753SOL    HW2 2259   0.858   2.624   1.828 -1.1096  0.7901 -0.9642
  754SOL     OW 2260   1.141   1.196   3.028 -0.0360  0.5765  0.3854
  754SOL    HW1 2261   1.180   1.128   2.963 -1.1015  1.9752  1.1746
  754SOL    HW2 2262   1.182   1.291   3.020 -0.3258 -1.5001  0.5958
  755SOL     OW 2263   1.982   0.434   2.226 -0.5078  0.0492 -0.4461
  755SOL    HW1 2264   2.047   0.363   2.272  1.3292 -2.9003  0.6092
  755SOL    HW2 2265   1.891   0.434   2.273  1.9097 -2.1271 -2.4236
  756SOL     OW 2266   2.504   1.001   2.981  0.5601 -0.1278  0.0619
  756SOL    HW1 2267   2.611   0.988   2.990  1.9862  1.1801  1.6801
  756SOL    HW2 2268   2.446   0.920   3.009  0.8057  0.9173 -0.1191
  757SOL     OW 2269   0.103   0.431   1.981  0.4309  0.1715  0.5741
  757SOL    HW1 2270   0.154   0.351   1.944 -0.6102  1.2185  2.2795
  757SOL    HW2 2271   0.014   0.406   2.034 -2.5914  1.3957  3.1276
  758SOL     OW 2272   2.192   0.092   1.503  0.0957  0.0184 -0.2345
  758SOL    HW1 2273   2.171  -0.003   1.538  1.0350  0.0300  1.0677
  758SOL    HW2 2274   2.264   0.097   1.425  1.5783 -0.7264  0.0078
  759SOL     OW 2275   1.702   0.022   0.073 -0.1787  0.2800  0.3934
  759SOL    HW1 2276   1.652   0.035  -0.018 -1.0136 -0.8281 -0.0156
  759SOL    HW2 2277   1.808   0.015   0.063 -0.4181 -0.1679  1.8236
  760SOL     OW 2278   2.689   2.028   2.827  0.1044  0.2596  0.4928
  760SOL    HW1 2279   2.607   1.986   2.879 -0.4602  1.0707  1.5859
  760SOL    HW2 2280   2.695   2.128   2.852 -2.5681 -0.3857 -0.4073
  761SOL     OW 2281   1.937   1.779   1.763 -0.4488  0.5937  0.4129
  761SOL    HW1 2282   1.971   1.685   1.794 -0.7342  0.5114 -0.9585
  761SOL    HW2 2283   1.878   1.769   1.677 -0.2871 -2.0484  0.6671
  762SOL     OW 2284   0.496   2.401   0.972  0.0179  0.0187  0.1857
  762SOL    HW1 2285   0.534   2.425   0.878 -0.3401 -3.1627  0.2739
  762SOL    HW2 2286   0.568   2.420   1.041 -0.9531  1.9326 -0.6240
  763SOL     OW 2287   2.070   1.546   2.984 -0.6706 -0.4869 -0.3300
  763SOL    HW1 2288   2.176   1.545   2.978  2.3772 -1.2214 -0.8540
  763SOL    HW2 2289   2.029   1.494   3.067  2.3592 -0.2430  0.3564
  764SOL     OW 2290   0.692   0.621   0.677  0.4282  0.0638  0.2309
  764SOL    HW1 2291   0.620   0.547   0.663  0.8191  1.2062  0.3914
  764SOL    HW2 2292   0.756   0.598   0.760 -0.1024  0.2828 -0.5087
  765SOL     OW 2293   0.793   0.301   0.735 -0.0614  0.3188 -0.1559
  765SOL    HW1 2294   0.862   0.311   0.670 -2.9726 -1.9365  3.4330
  765SOL    HW2 2295   0.792   0.384   0.804  0.6759  2.2555 -1.0087
  766SOL     OW 2296   2.928   2.133   3.052  0.3091  0.2433 -0.4860
  766SOL    HW1 2297   2.835   2.143   3.101 -1.0194 -0.6609  2.7797
  766SOL    HW2 2298   2.981   2.222   3.053 -0.0007  0.1469 -1.8392
  767SOL     OW 2299   2.790   1.634   0.609 -0.2485  0.0999 -0.1049
  767SOL    HW1 2300   2.690   1.660   0.636 -0.1136  0.9664  0.1654
  767SOL    HW2 2301   2.859   1.671   0.676 -0.3023  3.5857 -1.0678
  768SOL     OW 2302   1.070   0.177   0.224  0.2166 -0.5404 -0.0765
  768SOL    HW1 2303   1.060   0.273   0.264 -2.0991 -0.1201  1.7991
  768SOL    HW2 2304   1.170   0.137   0.221  1.1864 -1.9460  0.9046
  769SOL     OW 2305   1.107   1.798   2.302  0.0692  0.5693 -0.1712
  769SOL    HW1 2306   1.023   1.851   2.335  1.5517 -0.6303 -0.2741
  769SOL    HW2 2307   1.177   1.796   2.377 -1.6911 -0.8195  1.9332
  770SOL     OW 2308   0.176   1.120   2.304 -0.0286  0.0284 -0.1941
  770SOL    HW1 2309   0.163   1.214   2.349 -0.4941 -0.1458  0.4211
  770SOL    HW2 2310   0.088   1.084   2.267  1.9151  0.0039  0.6516
  771SOL     OW 2311   3.054   2.824   1.945 -0.1842  0.4570  0.3211
  771SOL    HW1 2312   3.010   2.863   1.854 -2.0053  1.5279  0.0458
  771SOL    HW2 2313   3.016   2.865   2.035 -4.0542  1.3221  1.0505
  772SOL     OW 2314   2.350   0.243   2.815  0.2818 -0.6030  0.5032
  772SOL    HW1 2315   2.410   0.157   2.785 -0.5622 -2.6542 -0.4264
  772SOL    HW2 2316   2.347   0.255   2.916 -1.4907  0.8574 -0.2352
  773SOL     OW 2317   0.603   2.120   2.373  0.1257 -0.0642 -0.0140
  773SOL    HW1 2318   0.592   2.188   2.289  0.2336 -0.9691 -2.7955
  773SOL    HW2 2319   0.527   2.121   2.444 -0.9936  2.5928  0.5350
  774SOL     OW 2320   2.096   0.007   2.587 -0.2995  0.0211 -0.1807
  774SOL    HW1 2321   2.108   0.094   2.642  3.7603  0.0527  0.7441
  774SOL    HW2 2322   2.145  -0.066   2.637 -0.5025  1.8190 -1.7991
  775SOL     OW 2323   2.545   2.959   2.216  1.2534 -0.3393  0.9674
  775SOL    HW1 2324   2.458   3.012   2.201  1.7810  1.8900  1.8331
  775SOL    HW2 2325   2.600   2.981   2.307  4.2786  0.9372  0.3203
  776SOL     OW 2326   3.089   1.272   0.179  0.3146  0.0427  0.0783
  776SOL    HW1 2327   3.033   1.230   0.100  0.3192 -2.3094  1.8866
  776SOL    HW2 2328   3.056   1.245   0.271 -1.1482 -0.9947 -1.2468
  777SOL     OW 2329   0.415   2.904   0.421  1.0072 -0.5532  0.4985
  777SOL    HW1 2330   0.315   2.895   0.382  1.2291  1.0098 -1.9018
  777SOL    HW2 2331   0.479   2.820   0.406 -0.3559 -0.1447 -0.9469
  778SOL     OW 2332   1.325   2.011   0.206 -0.4237 -0.7887 -0.3219
  778SOL    HW1 2333   1.264   2.056   0.276 -0.0107 -0.5348  0.1909
  778SOL    HW2 2334   1.343   2.075   0.127 -0.3046 -2.0009 -0.1375
  779SOL     OW 2335   0.166   0.831   0.468  0.1996  0.4296 -0.4064
  779SOL    HW1 2336   0.126   0.734   0.485 -2.0264 -1.6772 -0.0734
  779SOL    HW2 2337   0.122   0.909   0.519 -0.5406 -0.0599 -4.5285
  780SOL     OW 2338   0.141   0.272   2.345  0.2915  0.1321  0.4841
  780SOL    HW1 2339   0.139   0.335   2.428  2.0539 -0.6026 -1.1150
  780SOL    HW2 2340   0.218   0.302   2.281  0.5983  0.3786  1.3560
  781SOL     OW 2341   0.703   1.708   1.494 -0.4384 -0.2802 -0.1198
  781SOL    HW1 2342   0.736   1.641   1.566 -2.6680 -0.5030  1.1453
  781SOL    HW2 2343   0.600   1.714   1.494 -0.3150  1.0803  0.0515
  782SOL     OW 2344   2.529   0.103   0.953 -0.2571  0.4855  0.1095
  782SOL    HW1 2345   2.491   0.124   0.856  0.3128 -0.3999 -0.9872
  782SOL    HW2 2346   2.466   0.125   1.033  0.3138  0.1512  0.7020
  783SOL     OW 2347   2.775   0.708   2.475 -0.6444 -0.5574 -0.6356
  783SOL    HW1 2348   2.818   0.701   2.567 -2.5033  0.6710 -1.8533
  783SOL    HW2 2349   2.718   0.632   2.434  0.5614 -0.7080  0.4383
  784SOL     OW 2350   1.410   2.207   0.010 -0.0779  0.3977  0.1495
  784SOL    HW1 2351   1.464   2.286   0.046  0.1205  2.3309  1.9703
  784SOL    HW2 2352   1.401   2.203  -0.093  1.8759  2.3568  2.3628
  785SOL     OW 2353   2.058   0.302   3.096  0.2279 -0.2090 -0.5315
  785SOL    HW1 2354   1.995   0.330   3.180 -0.6223  0.0394  0.2474
  785SOL    HW2 2355   2.099   0.380   3.040  1.1490  1.2215 -2.1842
  786SOL     OW 2356   2.031   2.167   2.227 -0.3807 -0.2298  0.4103
  786SOL    HW1 2357   1.977   2.099   2.275  0.1539  1.9970  0.2132
  786SOL    HW2 2358   2.136   2.162   2.244  4.9871  0.6539  0.8479
  787SOL     OW 2359   1.373   0.555   0.915 -0.1227 -0.5598  0.6535
  787SOL    HW1 2360   1.299   0.624   0.890 -2.4621 -1.7682 -0.9643
  787SOL    HW2 2361   1.429   0.518   0.828  3.1633 -0.3752 -4.0652
  788SOL     OW 2362   1.226   0.444   0.035 -0.1290  0.1438  0.6268
  788SOL    HW1 2363   1.141   0.408  -0.018 -0.6015 -0.8234 -3.1722
  788SOL    HW2 2364   1.203   0.512   0.115 -1.2663  2.6352  1.4960
  789SOL     OW 2365   2.509   0.117   1.961  0.1309  0.0155  0.4669
  789SOL    HW1 2366   2.416   0.071   1.923 -1.6834 -2.7089 -1.9839
  789SOL    HW2 2367   2.588   0.053   1.945  0.2469  2.8598 -1.9204
  790SOL     OW 2368   2.642   2.745   0.728  0.4216 -0.2938  0.2640
  790SOL    HW1 2369   2.714   2.799   0.686 -0.1510 -0.9391  3.4049
  790SOL    HW2 2370   2.599   2.800   0.808  1.3315  2.1658 -1.0318
  791SOL     OW 2371   1.928   1.210   0.262 -0.0992 -0.0252  0.7218
  791SOL    HW1 2372   1.838   1.169   0.310  0.6102 -2.3369  1.4379
  791SOL    HW2 2373   2.012   1.153   0.289 -2.5055 -1.9569 -2.4291
  792SOL     OW 2374   0.381   1.734   2.104 -0.3173  0.2942 -0.5523
  792SOL    HW1 2375   0.469   1.686   2.119 -1.4315  0.5691 -0.7331
  792SOL    HW2 2376   0.344   1.784   2.187  0.7778 -1.7066 -1.0636
  793SOL     OW 2377   2.103   1.588   2.098  0.3428 -0.0234  0.0299
  793SOL    HW1 2378   2.169   1.643   2.042 -2.4362  1.8790  2.6750
  793SOL    HW2 2379   2.082   1.494   2.059  0.0365  0.1353 -0.3974
  794SOL     OW 2380   0.562   1.485   2.313  0.2755 -0.1966  0.6050
  794SOL    HW1 2381   0.522   1.426   2.236 -0.6515  1.2680 -1.2801
  794SOL    HW2 2382   0.511   1.482   2.403 -1.8105 -0.1681  1.9391
  795SOL     OW 2383   2.529   2.317   1.814  0.2833 -0.2663 -0.2623
  795SOL    HW1 2384   2.556   2.298   1.910  1.1526  1.0625 -1.2814
  795SOL    HW2 2385   2.476   2.245   1.771  1.4191  1.0157  1.6093
  796SOL     OW 2386   0.009   1.108   2.652  0.3979 -0.1989  0.6216
  796SOL    HW1 2387  -0.090   1.079   2.649  0.2868  1.2858 -1.6617
  796SOL    HW2 2388   0.047   1.143   2.741  1.2094  0.3759 -1.3817
  797SOL     OW 2389   0.793   0.650   1.399 -0.2478 -0.0791  0.5224
  797SOL    HW1 2390   0.859   0.717   1.446  2.3317  0.8290 -0.2362
  797SOL    HW2 2391   0.728   0.701   1.336 -0.1324  2.3095 -0.6770
  798SOL     OW 2392   1.327   0.393   1.170 -0.5721 -0.4661 -0.6812
  798SOL    HW1 2393   1.388   0.390   1.260  1.4170 -1.2458  0.3448
  798SOL    HW2 2394   1.370   0.452   1.096  2.6674 -0.4382  0.4879
  799SOL     OW 2395   1.978   2.686   0.993  0.4592  0.7602 -0.9803
  799SOL    HW1 2396   1.896   2.659   1.053  0.9585  1.0663 -0.6530
  799SOL    HW2 2397   1.959   2.661   0.896  0.7247 -0.7144  2.0140
  800SOL     OW 2398   3.078   0.607   1.817 -0.4139  0.7384 -0.3015
  800SOL    HW1 2399   3.028   0.679   1.868 -0.1212  2.1940 -1.8971
  800SOL    HW2 2400   3.127   0.536   1.873  0.1158  1.8481  0.9512
  801SOL     OW 2401   1.918   2.262   0.115  0.1631  0.3161 -0.7162
  801SOL    HW1 2402   1.839   2.197   0.094  1.2568  2.2444 -4.5029
  801SOL    HW2 2403   2.014   2.217   0.102 -0.2696 -2.0317 -1.8364
  802SOL     OW 2404   0.720   0.787   2.584  0.2075  0.8420 -0.1994
  802SOL    HW1 2405   0.791   0.766   2.514  4.0841  0.1908  0.6085
  802SOL    HW2 2406   0.623   0.753   2.564  1.5791  0.3940 -0.1190
  803SOL     OW 2407   0.933   0.106   0.912  0.3931 -0.6413  0.0503
  803SOL    HW1 2408   1.021   0.165   0.920  2.2104  0.6502  2.6005
  803SOL    HW2 2409   0.854   0.163   0.881 -0.6259  1.1427  0.3515
  804SOL     OW 2410   0.317   0.041   2.146 -1.2052  0.6794  0.2933
  804SOL    HW1 2411   0.269   0.133   2.132 -1.0976  2.9744  1.6805
  804SOL    HW2 2412   0.303  -0.024   2.062 -0.4936  1.5922 -2.3628
  805SOL     OW 2413   2.411   0.231   0.242 -0.0529  0.1930 -0.6633
  805SOL    HW1 2414   2.503   0.282   0.260 -1.0344 -1.7896 -0.4272
  805SOL    HW2 2415   2.405   0.188   0.147 -0.3129  1.0583  1.8770
  806SOL     OW 2416   0.642   2.406   1.685  0.3028 -0.1545 -0.0236
  806SOL    HW1 2417   0.653   2.509   1.706 -1.4023  0.2643 -1.5832
  806SOL    HW2 2418   0.732   2.355   1.669 -1.1582 -1.2419 -4.2564
  807SOL     OW 2419   2.465   0.985   0.466 -1.0828  0.8131  0.1726
  807SOL    HW1 2420   2.551   0.937   0.501 -3.2758 -2.6586 -1.8278
  807SOL    HW2 2421   2.465   0.974   0.359  0.7470  0.5775 -0.4838
  808SOL     OW 2422   0.517   1.975   2.935 -0.0520  0.1601  0.3340
  808SOL    HW1 2423   0.539   2.014   3.028 -0.2880 -2.5540 -0.2824
  808SOL    HW2 2424   0.564   1.882   2.913 -0.3421 -2.7270 -1.0348
  809SOL     OW 2425   2.583   1.958   1.969  0.2813  0.1095  0.7520
  809SOL    HW1 2426   2.683   1.991   1.943  3.5545 -3.0434  2.1435
  809SOL    HW2 2427   2.525   1.945   1.884  0.6166  1.7428 -1.4514
  810SOL     OW 2428   2.046   1.089   0.514  0.9709 -0.1969 -0.5114
  810SOL    HW1 2429   2.071   1.035   0.594 -2.6687  0.0113 -3.2808
  810SOL    HW2 2430   2.004   1.181   0.532  0.2973 -0.5676  0.1102
  811SOL     OW 2431   1.329   2.442   1.282  0.0917 -0.5726  0.5214
  811SOL    HW1 2432   1.323   2.340   1.282  2.5278 -0.3521 -1.8891
  811SOL    HW2 2433   1.238   2.486   1.254  2.3603  0.8750 -1.2125
  812SOL     OW 2434   1.434   0.778   1.938  0.5007  0.2385  0.0826
  812SOL    HW1 2435   1.489   0.847   1.992  0.5682 -2.3207  3.1049
  812SOL    HW2 2436   1.336   0.816   1.926  0.3778  0.7262 -0.3490
  813SOL     OW 2437   1.739   2.154   2.435  0.1908  0.5585  0.0900
  813SOL    HW1 2438   1.800   2.081   2.474 -3.9776  0.9845  1.0161
  813SOL    HW2 2439   1.696   2.118   2.352  2.4342  0.1221 -0.2384
  814SOL     OW 2440   2.854   1.553   2.918  0.3159 -0.5699 -0.0284
  814SOL    HW1 2441   2.953   1.528   2.922 -0.7327  1.6416 -1.7495
  814SOL    HW2 2442   2.842   1.636   2.861 -0.1737 -0.7713  2.0841
  815SOL     OW 2443   2.260   2.885   2.684  0.4427 -0.7849 -0.1285
  815SOL    HW1 2444   2.247   2.835   2.773  2.5427 -2.2767 -0.0906
  815SOL    HW2 2445   2.362   2.890   2.666 -2.5766 -1.3811 -2.2607
  816SOL     OW 2446   1.724   0.325   1.649 -1.3019  0.2880 -0.7843
  816SOL    HW1 2447   1.707   0.223   1.673 -2.4198  0.3657  1.0448
  816SOL    HW2 2448   1.635   0.376   1.660  0.8721 -0.5809 -1.5544
  817SOL     OW 2449   0.459   1.218   2.465 -0.3263  0.7485  0.0711
  817SOL    HW1 2450   0.432   1.316   2.493 -1.8502 -0.1054  0.9217
  817SOL    HW2 2451   0.474   1.212   2.366  2.0194 -0.6877  2.5785
  818SOL     OW 2452   1.990   0.834   0.442 -0.3404 -0.0519 -0.8399
  818SOL    HW1 2453   1.980   0.938   0.457 -1.0155  0.9866 -0.2138
  818SOL    HW2 2454   1.940   0.787   0.519  0.7400  0.5021  0.2826
  819SOL     OW 2455   2.759   2.921   3.036  0.1570 -0.1756  0.3029
  819SOL    HW1 2456   2.815   2.836   3.057 -1.7914  1.2739  0.6666
  819SOL    HW2 2457   2.685   2.906   2.963  0.1698 -1.0050 -0.1656
  820SOL     OW 2458   1.253   1.156   0.515  0.0318  0.0474  0.5711
  820SOL    HW1 2459   1.235   1.251   0.551  0.3640  2.7199  0.8472
  820SOL    HW2 2460   1.228   1.079   0.573  0.0580  2.5501 -0.8177
  821SOL     OW 2461   3.071   1.283   0.660  0.1613 -0.4113 -0.0348
  821SOL    HW1 2462   3.009   1.291   0.741 -1.2927 -0.4734  2.7849
  821SOL    HW2 2463   3.141   1.356   0.656 -1.2392 -0.4071  0.5348
  822SOL     OW 2464   2.516   1.766   2.432 -0.0200  0.0714 -0.2366
  822SOL    HW1 2465   2.505   1.841   2.503 -1.3979  0.7722 -0.6978
  822SOL    HW2 2466   2.462   1.781   2.347 -0.1630 -1.6655 -2.3455
  823SOL     OW 2467   2.044   0.885   1.245 -0.6435 -0.0569 -0.1317
  823SOL    HW1 2468   1.991   0.868   1.334 -2.2446  3.3005 -0.2443
  823SOL    HW2 2469   1.981   0.901   1.167  1.1909  0.0941  0.0913
  824SOL     OW 2470   0.119   2.028   2.762 -0.3350  0.0920  0.6498
  824SOL    HW1 2471   0.061   1.947   2.799 -0.4579  0.2762 -0.4590
  824SOL    HW2 2472   0.200   2.003   2.700  0.7458  1.6602 -0.1410
  825SOL     OW 2473   1.252   1.063   0.212  0.1041  0.3727  0.1679
  825SOL    HW1 2474   1.272   1.088   0.312  2.0491 -0.0155  0.4662
  825SOL    HW2 2475   1.245   1.137   0.137  1.4511  0.7563 -2.8601
  826SOL     OW 2476   1.952   0.631   1.540 -0.0978  0.3924  0.4335
  826SOL    HW1 2477   2.010   0.556   1.584 -1.1094  0.5187 -1.8607
  826SOL    HW2 2478   1.864   0.598   1.492  0.8222 -0.3184  2.0326
  827SOL     OW 2479   0.719   1.444   0.311  0.4134  0.2651 -0.1074
  827SOL    HW1 2480   0.740   1.397   0.221  0.0743  1.6915  0.2179
  827SOL    HW2 2481   0.685   1.382   0.384  0.7797  0.5481  0.5067
  828SOL     OW 2482   2.541   0.069   1.583 -0.3006  0.1610 -0.2736
  828SOL    HW1 2483   2.444   0.113   1.593 -2.7669 -0.1552  2.6330
  828SOL    HW2 2484   2.549  -0.011   1.653 -2.7826  0.3798  1.2909
  829SOL     OW 2485   2.814   2.482   2.984  0.0802  0.4397 -0.2668
  829SOL    HW1 2486   2.743   2.428   2.930  0.6700 -0.5408  0.7198
  829SOL    HW2 2487   2.766   2.509   3.075 -1.3577 -0.7904 -1.7523
  830SOL     OW 2488   2.778   0.943   3.023  0.1795 -0.1279 -0.3227
  830SOL    HW1 2489   2.857   1.010   3.018 -0.7625 -0.5573  0.5967
  830SOL    HW2 2490   2.799   0.851   3.070 -1.2242  1.4066 -0.8216
  831SOL     OW 2491   3.096   0.611   0.364  0.3432  0.4638 -0.1721
  831SOL    HW1 2492   3.079   0.564   0.451  0.1317  1.2595 -5.2380
  831SOL    HW2 2493   3.106   0.549   0.283 -0.7622  0.8557  0.0962
  832SOL     OW 2494   1.833   0.726   0.043  0.6830 -0.4442  0.4319
  832SOL    HW1 2495   1.742   0.771   0.015  2.3100  1.2495  0.2432
  832SOL    HW2 2496   1.853   0.634   0.002 -0.7117  1.2521  0.1528
  833SOL     OW 2497   2.411   2.134   0.515 -0.8409 -0.4989  0.1943
  833SOL    HW1 2498   2.312   2.143   0.476  0.7541  0.3276  0.3387
  833SOL    HW2 2499   2.455   2.043   0.486  1.1372  0.6535 -2.4225
  834SOL     OW 2500   0.136   0.218   0.598  0.5746 -0.1004 -0.7599
  834SOL    HW1 2501   0.220   0.168   0.639 -1.6889 -0.9185  0.7183
  834SOL    HW2 2502   0.146   0.224   0.489 -2.5507 -0.4211 -5.0182
  835SOL     OW 2503   2.334   1.537   1.138 -0.1740  0.0046 -0.2225
  835SOL    HW1 2504   2.405   1.584   1.199  0.5493 -0.4965 -3.2396
  835SOL    HW2 2505   2.374   1.513   1.043  2.4368  1.8893 -2.3110
  836SOL     OW 2506   1.559   0.801   2.579  0.4594 -0.0552  0.3429
  836SOL    HW1 2507   1.459   0.791   2.547 -0.0608 -1.5522  0.0211
  836SOL    HW2 2508   1.620   0.837   2.500  0.6601  1.0996  0.4396
  837SOL     OW 2509   1.703   0.115   0.520  1.3739  0.2153  0.2125
  837SOL    HW1 2510   1.641   0.181   0.570 -3.0262 -0.0646 -0.5321
  837SOL    HW2 2511   1.665   0.085   0.427  0.6041 -0.9051  1.0401
  838SOL     OW 2512   1.214   1.587   2.710 -0.2368  0.0647  0.3140
  838SOL    HW1 2513   1.292   1.530   2.747 -1.0046 -1.5890 -0.0338
  838SOL    HW2 2514   1.135   1.523   2.701  1.2738  0.2658  1.6673
  839SOL     OW 2515   1.604   0.292   0.989 -0.4448 -0.2035 -0.1869
  839SOL    HW1 2516   1.660   0.365   1.037 -1.2534  0.1219  2.0065
  839SOL    HW2 2517   1.576   0.217   1.056 -1.0799 -0.7692  2.7018
  840SOL     OW 2518   2.552   2.953   1.734 -0.2935 -0.5623 -0.1030
  840SOL    HW1 2519   2.494   2.893   1.676 -2.2748  1.3908  1.6658
  840SOL    HW2 2520   2.611   2.904   1.802  1.9680 -0.5219  1.9333
  841SOL     OW 2521   1.602   0.849   3.055 -0.1799 -0.4603 -0.0143
  841SOL    HW1 2522   1.518   0.842   3.120  0.4259 -1.4665 -0.2808
  841SOL    HW2 2523   1.590   0.916   2.978  2.3728  0.1358 -4.2100
  842SOL     OW 2524   0.823   1.488   0.896  0.2218 -0.2989  0.3594
  842SOL    HW1 2525   0.777   1.560   0.952  2.4665 -1.9932  0.2778
  842SOL    HW2 2526   0.749   1.428   0.861 -0.3191  0.2029  1.5482
  843SOL     OW 2527   0.118   0.015   1.384 -0.4059  0.3359 -0.6966
  843SOL    HW1 2528   0.168   0.072   1.458  0.9468 -0.5232  2.4738
  843SOL    HW2 2529   0.090  -0.078   1.428 -0.8839 -0.6851  0.1256
  844SOL     OW 2530   0.796   2.464   0.267  0.0625  0.8519  0.1175
  844SOL    HW1 2531   0.758   2.437   0.361  0.0885  0.2006 -0.3660
  844SOL    HW2 2532   0.729   2.529   0.221 -2.1043  0.5716  2.1780
  845SOL     OW 2533   1.677   2.877   1.248  0.0593  0.2528  0.1303
  845SOL    HW1 2534   1.737   2.801   1.224 -2.8788  2.3063 -1.0756
  845SOL    HW2 2535   1.699   2.918   1.342  0.6320 -0.9000  2.0675
  846SOL     OW 2536   1.568   2.959   0.690 -0.0525 -0.1869  0.0104
  846SOL    HW1 2537   1.552   2.966   0.591  0.3279  1.0503  1.1456
  846SOL    HW2 2538   1.668   2.959   0.717 -0.3702  1.1508 -1.7977
  847SOL     OW 2539   2.104   1.681   0.430 -0.1167 -0.7731 -0.0138
  847SOL    HW1 2540   2.056   1.606   0.383 -0.1150  1.6630 -0.0783
  847SOL    HW2 2541   2.048   1.775   0.436  1.5902  1.8813 -2.9044
  848SOL     OW 2542   2.439   0.868   2.602  0.3186 -0.2571  0.1858
  848SOL    HW1 2543   2.417   0.947   2.666 -0.2656  0.9350 -1.0835
  848SOL    HW2 2544   2.365   0.796   2.596  2.0532 -0.0008  1.4651
  849SOL     OW 2545   2.568   0.857   2.356  0.4216 -0.4650  0.0209
  849SOL    HW1 2546   2.660   0.827   2.394  0.0918 -1.2305 -0.1235
  849SOL    HW2 2547   2.501   0.867   2.438 -2.2361 -1.2365  3.4720
  850SOL     OW 2548   1.581   0.088   1.357 -0.0135  0.4589 -0.0177
  850SOL    HW1 2549   1.588   0.080   1.256  1.7296 -0.3299  0.1300
  850SOL    HW2 2550   1.532   0.007   1.395 -2.0050 -2.2672 -2.3669
  851SOL     OW 2551   0.452   1.808   0.577 -0.3332  0.4893 -0.2511
  851SOL    HW1 2552   0.451   1.889   0.645  1.3078  1.0533  0.1191
  851SOL    HW2 2553   0.494   1.822   0.482 -1.3070 -0.6288 -2.2471
  852SOL     OW 2554   0.843   2.036   1.800 -0.2045  0.7016 -0.0135
  852SOL    HW1 2555   0.854   2.123   1.746  0.9997 -0.5348  2.0931
  852SOL    HW2 2556   0.772   2.037   1.877 -0.6479 -2.6751  0.3977
  853SOL     OW 2557   2.524   1.547   2.613 -0.2910 -0.4565  0.0710
  853SOL    HW1 2558   2.457   1.476   2.582  0.2993 -0.7486 -2.2235
  853SOL    HW2 2559   2.511   1.632   2.558  1.9255 -1.7510  2.2166
  854SOL     OW 2560   2.447   1.377   1.766 -0.3254  0.1579 -0.2850
  854SOL    HW1 2561   2.482   1.331   1.678  1.4517 -1.4263  0.2926
  854SOL    HW2 2562   2.421   1.310   1.838 -0.6672  2.6179 -0.3840
  855SOL     OW 2563   2.064   2.419   1.078  0.2888  0.4671 -0.2101
  855SOL    HW1 2564   2.047   2.509   1.033 -0.5061  0.8950  1.1978
  855SOL    HW2 2565   2.161   2.413   1.117  0.8813  0.2396  0.5490
  856SOL     OW 2566   1.308   1.421   0.942 -0.3791  0.2359  0.0665
  856SOL    HW1 2567   1.372   1.497   0.977 -2.0017 -3.0976  1.9919
  856SOL    HW2 2568   1.206   1.444   0.953  0.5132 -1.7448  0.3577
  857SOL     OW 2569   3.082   2.764   1.020 -0.5881 -0.1458 -0.4130
  857SOL    HW1 2570   3.069   2.666   1.023 -1.4551  1.4741 -0.0347
  857SOL    HW2 2571   3.172   2.790   0.970  0.7584  1.2288 -2.5640
  858SOL     OW 2572   2.373   2.084   1.727  0.6202  0.1400  0.0176
  858SOL    HW1 2573   2.288   2.044   1.678 -3.9668 -1.0424  0.3495
  858SOL    HW2 2574   2.451   2.014   1.705  0.1300 -0.7018 -0.5766
  859SOL     OW 2575   2.390   0.545   1.043 -0.1198  0.5735  0.4399
  859SOL    HW1 2576   2.458   0.599   0.979  2.1097  1.4799  0.9340
  859SOL    HW2 2577   2.444   0.469   1.094 -1.4875 -1.0725 -0.9556
  860SOL     OW 2578   1.817   2.831   0.528 -0.6275 -0.4238 -1.0800
  860SOL    HW1 2579   1.806   2.797   0.431  2.4551  3.0510  1.4300
  860SOL    HW2 2580   1.845   2.931   0.530  0.0100  0.3449  1.3749
  861SOL     OW 2581   0.972   2.491   2.873  0.5325 -0.0630 -0.4066
  861SOL    HW1 2582   1.059   2.536   2.834  3.1733 -0.0951  0.3630
  861SOL    HW2 2583   0.922   2.544   2.947 -0.9673 -0.4848  0.2524
  862SOL     OW 2584   2.906   2.554   1.636  0.3928 -0.0853 -0.2258
  862SOL    HW1 2585   2.992   2.562   1.696  1.3157  1.5690  1.4792
  862SOL    HW2 2586   2.876   2.651   1.620  0.4298 -1.4547 -1.9149
  863SOL     OW 2587   1.808   2.730   0.262  0.3758 -0.3706 -0.2808
  863SOL    HW1 2588   1.863   2.648   0.286  0.1900 -0.5795  1.6666
  863SOL    HW2 2589   1.711   2.703   0.234 -1.5328  0.3891 -0.9535
  864SOL     OW 2590   2.013   1.264   2.834  0.6518 -0.1997  0.0844
  864SOL    HW1 2591   2.044   1.189   2.765  0.2985  1.1140 -0.0203
  864SOL    HW2 2592   2.094   1.322   2.861 -0.3375 -1.7155 -1.2562
  865SOL     OW 2593   2.181   1.933   0.737  0.2124 -0.1439 -0.1277
  865SOL    HW1 2594   2.260   1.881   0.781  1.0138  0.4428 -0.9901
  865SOL    HW2 2595   2.104   1.958   0.805  0.1696 -1.4641  0.5006
  866SOL     OW 2596   2.903   2.982   1.018 -0.1605 -0.8328 -0.4278
  866SOL    HW1 2597   2.921   3.058   0.946 -2.2685  1.1012  0.0315
  866SOL    HW2 2598   2.968   2.904   1.016 -2.5637  2.3556  1.5321
  867SOL     OW 2599   0.348   1.436   0.916  0.2749  0.3968 -0.0062
  867SOL    HW1 2600   0.325   1.363   0.852  3.6359  1.3773  2.9835
  867SOL    HW2 2601   0.330   1.534   0.884  0.7765 -1.5951  1.0544
  868SOL     OW 2602   0.745   1.839   2.069 -0.0014  0.1362 -0.1741
  868SOL    HW1 2603   0.699   1.813   2.158 -0.4952  0.4828 -2.1867
  868SOL    HW2 2604   0.705   1.922   2.030  2.2250 -1.1631  0.1339
  869SOL     OW 2605   2.582   1.917   1.672 -0.4549  0.4924 -0.3921
  869SOL    HW1 2606   2.661   1.983   1.638  2.7676 -1.1118  0.2228
  869SOL    HW2 2607   2.615   1.821   1.661 -3.2998  2.6453 -3.2391
  870SOL     OW 2608   2.331   2.737   1.247 -0.3037 -0.1269  0.0706
  870SOL    HW1 2609   2.351   2.635   1.271 -0.7180  1.4257 -1.5802
  870SOL    HW2 2610   2.414   2.787   1.212 -3.1927 -0.3619 -0.3312
  871SOL     OW 2611   3.059   2.250   0.555  0.2049  0.7268  0.5863
  871SOL    HW1 2612   3.007   2.263   0.646 -4.1247 -0.5294 -0.1991
  871SOL    HW2 2613   2.988   2.240   0.477  0.6345 -0.2826  1.0189
  872SOL     OW 2614   2.096   0.464   1.701  0.0505 -0.7112  0.0849
  872SOL    HW1 2615   2.060   0.428   1.789 -0.4275 -1.0357  0.4793
  872SOL    HW2 2616   2.170   0.402   1.664 -1.8554 -0.5613  0.8833
  873SOL     OW 2617   1.692   2.097   0.013 -0.1324 -0.1707  0.0883
  873SOL    HW1 2618   1.591   2.092   0.024  1.8903 -3.1955  0.1274
  873SOL    HW2 2619   1.728   2.154  -0.066 -0.9738  1.0648  0.2873
  874SOL     OW 2620   0.659   2.441   0.761  0.0274 -0.0222  0.0359
  874SOL    HW1 2621   0.669   2.540   0.784 -0.4453  0.5354  0.9425
  874SOL    HW2 2622   0.751   2.394   0.768 -1.3400  3.8725  1.4806
  875SOL     OW 2623   2.240   1.493   1.422  0.1618  0.0002  0.4148
  875SOL    HW1 2624   2.320   1.540   1.474  2.5931  1.9566 -0.7850
  875SOL    HW2 2625   2.252   1.509   1.318  0.2289 -0.3682  1.4381
  876SOL     OW 2626   0.059   2.259   2.637  0.3035 -0.3478  0.6872
  876SOL    HW1 2627   0.070   2.167   2.673 -1.3304  2.0230 -1.6557
  876SOL    HW2 2628   0.079   2.335   2.711 -0.6670  2.7953  0.9603
  877SOL     OW 2629   2.930   2.681   0.626 -0.4025 -0.1934  0.0796
  877SOL    HW1 2630   2.920   2.784   0.638  1.6989  1.2079  0.4521
  877SOL    HW2 2631   2.988   2.642   0.708  0.2441 -3.3257 -1.6231
  878SOL     OW 2632   2.826   1.521   2.232 -0.0630 -0.3055 -0.3352
  878SOL    HW1 2633   2.819   1.609   2.176  0.5275 -1.2612 -0.0797
  878SOL    HW2 2634   2.817   1.536   2.335 -0.7025 -1.5812 -0.2580
  879SOL     OW 2635   2.410   0.054   1.217  0.0763 -0.1959  0.2468
  879SOL    HW1 2636   2.439  -0.038   1.185  0.5852  0.0003 -1.6230
  879SOL    HW2 2637   2.311   0.067   1.193  1.0364  1.6391  0.9077
  880SOL     OW 2638   0.731   0.563   2.279  0.0091 -0.8009  0.1119
  880SOL    HW1 2639   0.691   0.519   2.365 -3.4289 -1.4817 -0.2186
  880SOL    HW2 2640   0.780   0.499   2.213  0.4140 -0.3749 -0.2213
  881SOL     OW 2641   0.822   0.093   0.414  0.0611 -0.1548  0.1282
  881SOL    HW1 2642   0.880   0.020   0.373 -0.1740  3.4460  1.2882
  881SOL    HW2 2643   0.724   0.077   0.390  0.2322  1.1286 -0.3079
  882SOL     OW 2644   2.728   1.664   1.690  0.4189 -0.0269  0.1488
  882SOL    HW1 2645   2.818   1.620   1.660 -0.6931  1.9805  1.2303
  882SOL    HW2 2646   2.712   1.653   1.793 -0.4746 -0.3755  3.6307
  883SOL     OW 2647   0.814   0.504   0.925 -0.0541 -0.2808  0.0046
  883SOL    HW1 2648   0.865   0.592   0.946  1.2982  0.2685  1.2066
  883SOL    HW2 2649   0.763   0.468   1.007  1.9153 -0.3855 -1.3675
  884SOL     OW 2650   1.110   1.774   1.112 -0.1066 -0.0486  0.1456
  884SOL    HW1 2651   1.112   1.675   1.067 -1.9974 -1.9621 -0.7458
  884SOL    HW2 2652   1.033   1.830   1.084  0.1941 -1.3359 -0.1346
  885SOL     OW 2653   2.332   1.850   2.227  0.0686 -0.0503 -0.5067
  885SOL    HW1 2654   2.284   1.785   2.288  2.5113  1.2547  0.2554
  885SOL    HW2 2655   2.322   1.950   2.250 -0.6516 -1.7371  0.3986
  886SOL     OW 2656   2.618   0.376   1.800  0.0021 -0.7754  0.4620
  886SOL    HW1 2657   2.612   0.325   1.889  1.5928 -0.1076 -0.1849
  886SOL    HW2 2658   2.718   0.394   1.773  0.4195  0.1705  1.6350
  887SOL     OW 2659   0.149   2.052   1.255  0.2816 -0.0410 -0.3359
  887SOL    HW1 2660   0.068   2.000   1.212 -2.5607  0.5199  1.7222
  887SOL    HW2 2661   0.158   2.153   1.224 -0.0537 -0.6321 -2.3313
  888SOL     OW 2662   0.646   1.212   1.496  0.0969 -0.1253  0.1951
  888SOL    HW1 2663   0.672   1.279   1.418  4.3089 -0.9516 -1.7274
  888SOL    HW2 2664   0.665   1.117   1.463  0.6200  3.7674  1.4908
  889SOL     OW 2665   0.865   2.447   2.224 -0.0588 -0.1734  0.0417
  889SOL    HW1 2666   0.779   2.386   2.233  0.4606 -1.5621  0.9775
  889SOL    HW2 2667   0.934   2.421   2.151 -1.0321  1.0317  1.5487
  890SOL     OW 2668   2.327   2.479   0.226  0.0355 -1.1415 -0.3466
  890SOL    HW1 2669   2.348   2.531   0.141  1.7331  0.9286 -0.7466
  890SOL    HW2 2670   2.323   2.544   0.308  5.4600  1.0794  3.5349
  891SOL     OW 2671   2.533   1.689   0.716 -0.1350  0.2580 -0.1643
  891SOL    HW1 2672   2.502   1.635   0.799  1.7778  3.1192  2.4286
  891SOL    HW2 2673   2.464   1.673   0.642 -0.5931 -0.2866  2.8318
  892SOL     OW 2674   0.372   0.389   2.215  0.4236  0.2119  0.1149
  892SOL    HW1 2675   0.359   0.444   2.127  1.8731 -4.7441 -1.3041
  892SOL    HW2 2676   0.462   0.408   2.259  2.4064 -0.3526 -0.6542
  893SOL     OW 2677   1.696   0.246   2.718 -0.1049 -0.1617 -0.3505
  893SOL    HW1 2678   1.770   0.303   2.761  3.2295 -1.3110  0.6890
  893SOL    HW2 2679   1.616   0.298   2.684 -0.1240 -0.8563 -0.8645
  894SOL     OW 2680   2.169   2.092   0.092  0.0650  0.0090 -0.4285
  894SOL    HW1 2681   2.198   2.046   0.003  0.6386 -2.0296  0.0641
  894SOL    HW2 2682   2.196   2.035   0.177  1.5582 -0.3217 -0.4996
  895SOL     OW 2683   2.744   1.427   0.948 -0.2319 -0.3011 -0.5185
  895SOL    HW1 2684   2.830   1.362   0.948 -0.1416  2.4348  0.2913
  895SOL    HW2 2685   2.763   1.512   1.001  0.1916  1.1406  1.0899
  896SOL     OW 2686   1.818   1.869   1.222  0.5448  0.0183  0.0969
  896SOL    HW1 2687   1.880   1.783   1.235 -0.0473  0.3347 -2.2950
  896SOL    HW2 2688   1.739   1.842   1.163  1.4774 -0.7610  1.4588
  897SOL     OW 2689   0.247   0.523   3.016  0.1302 -0.7137  0.5296
  897SOL    HW1 2690   0.198   0.586   2.949 -0.6814 -0.0149 -0.7342
  897SOL    HW2 2691   0.333   0.567   3.059  1.3819  2.0651 -3.5196
  898SOL     OW 2692   0.687   2.801   1.070  0.0119 -0.1859 -0.4989
  898SOL    HW1 2693   0.747   2.881   1.098 -0.7722 -1.6547  1.9268
  898SOL    HW2 2694   0.706   2.718   1.128  1.8039 -0.0465 -0.2263
  899SOL     OW 2695   2.850   0.918   1.425 -0.0587 -1.1462  0.2761
  899SOL    HW1 2696   2.839   0.905   1.322 -0.5641  3.2999  0.3638
  899SOL    HW2 2697   2.952   0.945   1.449  1.4039 -0.4061  0.6967
  900SOL     OW 2698   1.027   2.420   2.467 -0.6012 -0.2620 -0.0741
  900SOL    HW1 2699   0.965   2.421   2.385 -0.3011 -0.6954  2.0496
  900SOL    HW2 2700   0.984   2.378   2.545 -0.1408 -1.6636 -4.0824
  901SOL     OW 2701   1.918   2.458   1.408  0.1132  0.3187  0.4169
  901SOL    HW1 2702   1.880   2.392   1.338 -0.1241 -1.6666 -0.9586
  901SOL    HW2 2703   2.016   2.442   1.441  0.8030 -0.6474  1.5954
  902SOL     OW 2704   2.548   1.641   1.458 -0.3772  0.0977 -0.1327
  902SOL    HW1 2705   2.625   1.635   1.526 -0.4181 -1.4139 -1.9779
  902SOL    HW2 2706   2.577   1.622   1.359  0.0965  1.2080 -1.0476
  903SOL     OW 2707   0.333   2.471   2.005 -0.0813  0.3808 -0.1581
  903SOL    HW1 2708   0.257   2.410   2.044 -1.6738  1.3137  1.5141
  903SOL    HW2 2709   0.311   2.520   1.918  2.9289 -1.6561 -0.5259
  904SOL     OW 2710   2.000   0.768   2.470 -0.1413  0.1899 -0.1422
  904SOL    HW1 2711   1.927   0.709   2.507 -0.7026  2.8860  0.5160
  904SOL    HW2 2712   2.011   0.762   2.367  1.4506  0.1451 -0.2453
  905SOL     OW 2713   2.813   0.092   2.403  0.7129 -0.0363 -0.4638
  905SOL    HW1 2714   2.875   0.017   2.431 -0.2724 -0.6602  0.0069
  905SOL    HW2 2715   2.854   0.185   2.417  0.7066 -0.6003 -0.1115
  906SOL     OW 2716   0.173   1.697   1.894  0.0774 -0.1826  0.0577
  906SOL    HW1 2717   0.122   1.722   1.810  0.7545 -2.7095 -2.9006
  906SOL    HW2 2718   0.269   1.729   1.902  0.9744  0.5163 -0.0626
  907SOL     OW 2719   0.248   2.515   0.957 -0.3387 -0.6739 -0.2256
  907SOL    HW1 2720   0.346   2.474   0.963 -1.3112 -1.8254 -0.4157
  907SOL    HW2 2721   0.245   2.606   0.910  2.0450  0.9410  1.0194
  908SOL     OW 2722   2.832   3.035   0.286  0.0908  0.0568 -0.4960
  908SOL    HW1 2723   2.747   3.005   0.241  0.1556  1.6549 -2.3367
  908SOL    HW2 2724   2.897   2.958   0.305 -0.1969  1.8467  1.8538
  909SOL     OW 2725   0.824   1.038   2.676  0.0749 -0.1548  0.5595
  909SOL    HW1 2726   0.774   0.945   2.677  1.0447 -2.6773  2.4458
  909SOL    HW2 2727   0.891   1.045   2.592 -1.0157 -0.4250 -0.1714
  910SOL     OW 2728   1.775   1.885   2.156 -0.3194 -0.1379  0.2952
  910SOL    HW1 2729   1.837   1.910   2.073  1.9351 -0.4170  0.7308
  910SOL    HW2 2730   1.697   1.951   2.187 -0.2187  1.0745  2.3630
  911SOL     OW 2731   1.773   2.983   1.493  0.1148  0.0931  0.8469
  911SOL    HW1 2732   1.870   2.984   1.457 -0.0514  1.2184 -1.2234
  911SOL    HW2 2733   1.754   2.898   1.552 -1.8807 -2.0368 -0.8643
  912SOL     OW 2734   2.836   1.016   0.714  0.1620 -0.2593  0.3463
  912SOL    HW1 2735   2.856   0.979   0.808 -3.8375  0.9889  1.4320
  912SOL    HW2 2736   2.765   1.093   0.729  1.6586  0.9702 -1.4775
  913SOL     OW 2737   2.576   1.287   1.560 -0.5212  0.0321 -0.7484
  913SOL    HW1 2738   2.591   1.184   1.565  1.8647  1.1305 -5.3765
  913SOL    HW2 2739   2.631   1.334   1.483  1.6415  1.4161  0.2833
  914SOL     OW 2740   2.781   0.580   1.160 -0.4351  0.2013  0.0466
  914SOL    HW1 2741   2.773   0.502   1.234  1.5817 -0.2894 -0.3856
  914SOL    HW2 2742   2.687   0.612   1.130  2.0345 -1.4916  0.3926
  915SOL     OW 2743   1.183   0.796   0.946  0.1878  0.3178  0.7036
  915SOL    HW1 2744   1.233   0.790   1.032 -1.1723 -0.5977 -0.0705
  915SOL    HW2 2745   1.084   0.764   0.955 -1.4770 -1.1488 -0.4961
  916SOL     OW 2746   0.587   0.140   0.669 -0.0488  0.0028  0.9585
  916SOL    HW1 2747   0.675   0.184   0.693  0.3796 -0.1450 -1.2325
  916SOL    HW2 2748   0.542   0.204   0.599 -0.9639  1.6251 -3.2567
  917SOL     OW 2749   2.876   2.572   2.010 -0.3802  0.0910  0.0318
  917SOL    HW1 2750   2.794   2.628   1.972 -2.4729 -0.5596  0.2814
  917SOL    HW2 2751   2.966   2.627   2.002 -1.0946 -2.5015 -3.0682
  918SOL     OW 2752   1.006   2.114   2.999  0.1172 -0.5104  0.3245
  918SOL    HW1 2753   1.024   2.169   3.083 -0.1485 -1.1814 -1.6981
  918SOL    HW2 2754   1.083   2.116   2.927 -1.1305 -1.1985  0.5105
  919SOL     OW 2755   0.881   1.707   2.758  0.0304  0.2462 -0.0539
  919SOL    HW1 2756   0.880   1.802   2.712 -1.2837 -1.3129 -1.6642
  919SOL    HW2 2757   0.839   1.638   2.691  0.2151  0.9553  0.2899
  920SOL     OW 2758   1.306   1.763   2.502  0.1249  0.1876  0.1676
  920SOL    HW1 2759   1.404   1.752   2.474 -1.3414 -1.7924  0.0573
  920SOL    HW2 2760   1.267   1.682   2.556  1.9089 -2.1145  0.0937
  921SOL     OW 2761   1.124   0.034   2.647  0.3186 -0.1759  0.7932
  921SOL    HW1 2762   1.101   0.050   2.544  0.1939 -0.1545 -2.0561
  921SOL    HW2 2763   1.050   0.063   2.709  0.0305 -4.3929 -0.9664
  922SOL     OW 2764   2.187   2.386   2.757 -0.0057 -0.5066  0.1663
  922SOL    HW1 2765   2.142   2.299   2.786  0.5783 -0.1132 -1.8862
  922SOL    HW2 2766   2.149   2.418   2.667  0.9555 -0.8569 -5.3033
  923SOL     OW 2767   1.281   2.748   0.262 -0.0893  0.2218  0.0150
  923SOL    HW1 2768   1.330   2.804   0.334 -0.9235  0.7566 -0.7283
  923SOL    HW2 2769   1.309   2.649   0.255 -1.8228  0.8976  1.8264
  924SOL     OW 2770   2.901   1.690   0.134 -0.0642  0.6832  0.5925
  924SOL    HW1 2771   2.808   1.657   0.098  0.1355  2.4345 -3.0464
  924SOL    HW2 2772   2.969   1.618   0.122 -0.2075  0.8604 -1.7456
  925SOL     OW 2773   0.032   2.861   1.508  0.3012 -0.0481  0.1552
  925SOL    HW1 2774  -0.006   2.808   1.589  1.4662 -0.2826  1.1249
  925SOL    HW2 2775  -0.018   2.835   1.424  1.0220  2.1415  1.1059
  926SOL     OW 2776   1.304   2.808   1.320  0.6360  0.5256 -0.4161
  926SOL    HW1 2777   1.338   2.796   1.222 -1.1603 -2.5105  0.4561
  926SOL    HW2 2778   1.351   2.891   1.367  0.6753  1.9307  1.3811
  927SOL     OW 2779   0.368   2.642   1.738  0.0081  0.1493 -0.1239
  927SOL    HW1 2780   0.327   2.560   1.692 -0.5932  0.8354  0.8156
  927SOL    HW2 2781   0.307   2.724   1.735 -0.5702 -1.4211  1.4197
  928SOL     OW 2782   1.590   2.062   2.219  0.0266  0.0086 -0.0284
  928SOL    HW1 2783   1.607   2.151   2.167  2.4571 -0.7476  1.2174
  928SOL    HW2 2784   1.491   2.026   2.202  1.0392 -2.1982 -3.1964
  929SOL     OW 2785   2.421   2.497   2.846 -0.9746  0.1554  0.2025
  929SOL    HW1 2786   2.329   2.451   2.837  1.1005  2.1182 -0.6368
  929SOL    HW2 2787   2.475   2.512   2.757  4.1355 -0.2147  0.6329
  930SOL     OW 2788   2.185   2.031   1.124 -0.0170 -0.1098  0.4345
  930SOL    HW1 2789   2.184   1.984   1.216 -1.7302 -2.5040  1.7666
  930SOL    HW2 2790   2.267   2.092   1.101  0.9953 -3.5826  0.3294
  931SOL     OW 2791   0.500   1.724   2.631  0.0145  0.1411  0.2324
  931SOL    HW1 2792   0.542   1.742   2.729  0.8258  1.8367  2.7097
  931SOL    HW2 2793   0.573   1.682   2.568  0.3916 -0.4519 -0.8263
  932SOL     OW 2794   0.336   0.053   3.085 -0.1034  0.4788 -1.1355
  932SOL    HW1 2795   0.428   0.096   3.103  0.2813 -1.1418 -1.5797
  932SOL    HW2 2796   0.345  -0.041   3.045 -1.6478  3.4119  1.4698
  933SOL     OW 2797   0.981   0.845   3.032 -0.3427  0.0513  0.0335
  933SOL    HW1 2798   1.021   0.817   3.121 -3.1173 -1.2330  1.2979
  933SOL    HW2 2799   0.949   0.946   3.027  0.8765  1.6630 -1.8146
  934SOL     OW 2800   0.734   2.920   2.673 -0.2667  0.1552  0.3008
  934SOL    HW1 2801   0.731   2.896   2.571 -1.3422  0.3928  0.7888
  934SOL    HW2 2802   0.804   2.874   2.727  1.1403  0.0906 -2.4529
  935SOL     OW 2803   0.023   0.527   0.823 -0.2385  0.1080  0.1098
  935SOL    HW1 2804   0.002   0.502   0.725  1.5054  1.9288  2.8269
  935SOL    HW2 2805  -0.027   0.613   0.860 -2.1171 -0.3288  1.5288
  936SOL     OW 2806   1.103   2.827   0.075 -0.2802 -0.2887  0.4031
  936SOL    HW1 2807   1.138   2.869  -0.018 -1.2347 -0.5157 -2.9732
  936SOL    HW2 2808   1.177   2.797   0.142  0.8464 -0.5148 -0.3421
  937SOL     OW 2809   1.966   2.630   2.047 -0.6611  0.3171  0.4233
  937SOL    HW1 2810   1.866   2.635   2.073 -0.9501 -1.9851 -2.0028
  937SOL    HW2 2811   1.998   2.721   2.004 -1.0961  2.4096 -0.6298
  938SOL     OW 2812   2.788   2.086   1.565  0.0726  0.1088  0.1085
  938SOL    HW1 2813   2.758   2.186   1.555 -3.6009 -2.1428 -0.5489
  938SOL    HW2 2814   2.879   2.072   1.613 -0.2849  2.2776 -1.4475
  939SOL     OW 2815   2.790   1.202   2.481 -0.0604  0.8552  0.6129
  939SOL    HW1 2816   2.858   1.165   2.413 -1.9853  0.1605 -0.0747
  939SOL    HW2 2817   2.790   1.148   2.572  1.7894  0.5208  1.1915
  940SOL     OW 2818   1.056   0.450   2.731 -0.7185 -0.2090  0.6562
  940SOL    HW1 2819   1.119   0.368   2.738  1.0869 -1.1619 -1.6959
  940SOL    HW2 2820   0.993   0.454   2.646  1.9727 -0.7450  1.6477
  941SOL     OW 2821   0.012   2.802   2.287 -0.2727 -0.2409 -0.6231
  941SOL    HW1 2822   0.064   2.720   2.242 -0.6249 -0.1072 -2.5194
  941SOL    HW2 2823   0.074   2.861   2.346 -2.5352  1.3997  1.5756
  942SOL     OW 2824   0.057   0.088   2.533 -0.4316  0.2048  0.4931
  942SOL    HW1 2825   0.127   0.103   2.608 -0.5202 -0.8709  0.0256
  942SOL    HW2 2826   0.077   0.138   2.443  2.2727 -0.7647  0.5364
  943SOL     OW 2827   2.143   1.698   2.372 -0.6263  0.3168 -0.2276
  943SOL    HW1 2828   2.115   1.656   2.280 -1.1690 -2.6281  1.2561
  943SOL    HW2 2829   2.150   1.621   2.445 -0.3484  0.1746 -4.3650
  944SOL     OW 2830   2.174   2.356   1.503  0.4884 -0.1024 -0.3445
  944SOL    HW1 2831   2.266   2.366   1.549  1.5482 -2.4810 -0.1494
  944SOL    HW2 2832   2.104   2.293   1.545 -1.4827 -0.6681  2.0785
  945SOL     OW 2833   0.726   1.593   0.069 -0.3693 -0.1783  0.0193
  945SOL    HW1 2834   0.634   1.581   0.028 -0.0419  0.3035 -1.5613
  945SOL    HW2 2835   0.728   1.567   0.172 -0.9224 -0.7878  0.8144
  946SOL     OW 2836   0.331   0.999   2.577  0.5274 -0.6734 -0.7333
  946SOL    HW1 2837   0.307   0.922   2.510 -0.6720  1.7829 -1.2888
  946SOL    HW2 2838   0.359   1.092   2.536 -0.1978  0.7476  2.6043
  947SOL     OW 2839   1.456   0.562   3.078  0.3237  0.0566  0.1068
  947SOL    HW1 2840   1.480   0.598   2.980  0.6500  1.6554  0.2322
  947SOL    HW2 2841   1.356   0.525   3.084  0.3262 -0.8977  1.8415
  948SOL     OW 2842   1.897   2.989   2.152 -0.1102  0.2101 -0.3715
  948SOL    HW1 2843   1.883   2.946   2.058 -1.7415  2.1012  1.9444
  948SOL    HW2 2844   1.889   2.923   2.226 -0.3742  0.2675 -1.5500
  949SOL     OW 2845   0.616   2.437   0.477 -0.2255  0.1931  0.0764
  949SOL    HW1 2846   0.609   2.537   0.447 -0.9516 -4.0060 -0.8866
  949SOL    HW2 2847   0.595   2.430   0.581  0.8724 -0.8658  0.8805
  950SOL     OW 2848   0.219   2.203   2.952 -0.3089  0.3457  0.4299
  950SOL    HW1 2849   0.211   2.299   2.915  2.0181  3.6115 -0.6907
  950SOL    HW2 2850   0.189   2.134   2.885 -0.2701  2.3678 -2.6602
  951SOL     OW 2851   1.169   2.653   2.786 -0.5188 -0.3040 -0.2213
  951SOL    HW1 2852   1.231   2.608   2.853 -1.4158  0.0162 -2.2410
  951SOL    HW2 2853   1.212   2.669   2.690  1.0263  1.1443 -0.8298
  952SOL     OW 2854   0.140   1.614   0.407  0.2210  0.4894  0.4037
  952SOL    HW1 2855   0.145   1.708   0.445 -1.9780 -1.0953 -0.1299
  952SOL    HW2 2856   0.151   1.540   0.482  1.8923 -3.3751  0.5283
  953SOL     OW 2857   2.518   1.744   0.298  0.1293  0.1705 -0.7746
  953SOL    HW1 2858   2.496   1.649   0.263  1.2369  1.4346 -3.7826
  953SOL    HW2 2859   2.540   1.807   0.216 -1.5918  2.0357 -3.3319
  954SOL     OW 2860   2.133   0.582   0.911  0.3622  0.1072  0.4381
  954SOL    HW1 2861   2.157   0.552   0.818 -1.5764 -2.2818 -1.0225
  954SOL    HW2 2862   2.217   0.567   0.967 -0.4771  0.0329  1.9517
  955SOL     OW 2863   0.146   2.565   1.364  0.3806  0.4358  0.1582
  955SOL    HW1 2864   0.051   2.591   1.341  0.5774  1.4724  0.5368
  955SOL    HW2 2865   0.204   2.652   1.345  2.1038 -1.1924 -0.7281
  956SOL     OW 2866   2.826   2.486   2.533 -0.2766 -0.2381  0.3316
  956SOL    HW1 2867   2.842   2.386   2.529  0.0979  0.2902  0.8595
  956SOL    HW2 2868   2.828   2.539   2.443  0.1517  0.4194  0.2340
  957SOL     OW 2869   1.595   2.043   2.741 -0.9022  0.0853 -0.3897
  957SOL    HW1 2870   1.557   1.969   2.805  1.8695 -1.1172 -0.8490
  957SOL    HW2 2871   1.684   2.012   2.703  1.0699  0.3499  1.2842
  958SOL     OW 2872   2.625   2.282   2.915 -0.4729 -0.6525  0.7985
  958SOL    HW1 2873   2.529   2.327   2.903 -1.1969  0.2673  0.5848
  958SOL    HW2 2874   2.653   2.266   3.011 -1.2370  1.2722 -1.6808
  959SOL     OW 2875   0.366   2.753   0.098 -0.0734 -0.1239 -0.0208
  959SOL    HW1 2876   0.283   2.790   0.149 -1.9312 -1.5014  2.7543
  959SOL    HW2 2877   0.390   2.655   0.117  1.9143  2.9811 -2.8670
  960SOL     OW 2878   1.958   0.414   1.949 -0.0813 -0.1595  0.3863
  960SOL    HW1 2879   1.917   0.504   1.913  1.3551  2.3498 -1.7583
  960SOL    HW2 2880   1.978   0.425   2.051 -0.5961  0.5763 -1.0640
  961SOL     OW 2881   2.542   1.848   0.998  0.4199 -0.5422  0.2655
  961SOL    HW1 2882   2.527   1.924   0.929  1.5659 -0.2238  0.4469
  961SOL    HW2 2883   2.505   1.873   1.094 -0.7920  2.2013 -0.8100
  962SOL     OW 2884   1.309   0.838   0.057  0.3595  0.1222 -0.2551
  962SOL    HW1 2885   1.278   0.851  -0.040 -0.5750  0.9415  1.9370
  962SOL    HW2 2886   1.277   0.918   0.122  1.9236  1.6752  0.1982
  963SOL     OW 2887   2.307   2.559   1.833 -0.3291 -0.1135  0.0510
  963SOL    HW1 2888   2.260   2.484   1.888 -1.3499  0.6016  1.3283
  963SOL    HW2 2889   2.360   2.626   1.898  1.8494  1.1063  1.0152
  964SOL     OW 2890   2.344   0.343   1.638 -0.0328  0.3632  0.1113
  964SOL    HW1 2891   2.438   0.366   1.684  2.7067  5.1796  1.2268
  964SOL    HW2 2892   2.353   0.357   1.536  0.4614  0.6992 -0.9289
  965SOL     OW 2893   2.605   2.950   0.146 -0.0902  0.3301 -0.2927
  965SOL    HW1 2894   2.669   2.932   0.067 -0.4697 -1.5960 -0.4068
  965SOL    HW2 2895   2.539   3.026   0.125  1.1266  1.7478 -2.6948
  966SOL     OW 2896   2.492   2.501   2.203  0.3877  0.1237 -0.1810
  966SOL    HW1 2897   2.543   2.551   2.129 -0.1951 -0.9127  0.5688
  966SOL    HW2 2898   2.391   2.527   2.211 -0.9794 -0.4658 -1.3293
  967SOL     OW 2899   2.734   2.841   2.431 -0.4712  0.3984 -0.0160
  967SOL    HW1 2900   2.737   2.748   2.382 -0.5905 -0.2155  0.0350
  967SOL    HW2 2901   2.824   2.887   2.414 -1.2464  1.3702 -1.0975
  968SOL     OW 2902   1.956   1.039   2.641  0.0980 -0.0574  0.2509
  968SOL    HW1 2903   1.864   1.086   2.627  0.9181  0.5758 -1.4514
  968SOL    HW2 2904   1.985   0.965   2.570  1.8768 -0.1007  1.4204
  969SOL     OW 2905   2.784   2.512   1.055 -0.4940 -0.4192  0.1775
  969SOL    HW1 2906   2.766   2.511   0.953 -0.9025 -0.3160 -0.0952
  969SOL    HW2 2907   2.837   2.428   1.087  0.1808 -0.5266  0.1927
  970SOL     OW 2908   1.134   2.146   1.873 -1.0574 -0.3738 -0.2966
  970SOL    HW1 2909   1.094   2.051   1.892 -1.3402 -0.8658 -1.2075
  970SOL    HW2 2910   1.113   2.215   1.944  0.0692 -1.1521 -2.9454
  971SOL     OW 2911   2.842   2.061   1.938 -0.2017 -0.5678  0.4074
  971SOL    HW1 2912   2.872   2.154   1.975  0.1079  0.9170  3.2713
  971SOL    HW2 2913   2.912   2.022   1.872  0.9502  0.2724 -1.7413
  972SOL     OW 2914   1.921   2.487   0.258 -0.0509  0.6147 -0.0318
  972SOL    HW1 2915   1.933   2.407   0.192  0.2780  2.2962  2.9368
  972SOL    HW2 2916   1.967   2.467   0.348  1.9387 -3.5731 -0.9637
  973SOL     OW 2917   1.188   0.893   1.877  0.6011  0.5698 -0.0694
  973SOL    HW1 2918   1.144   0.800   1.891 -1.8121 -1.0479  1.3531
  973SOL    HW2 2919   1.119   0.953   1.831  0.9514 -0.9774 -1.3679
  974SOL     OW 2920   1.641   0.584   1.987  0.3404 -0.3196 -0.1639
  974SOL    HW1 2921   1.731   0.610   1.945 -2.3782 -1.0631  0.3818
  974SOL    HW2 2922   1.564   0.652   1.967  0.1142 -1.6564  0.3701
  975SOL     OW 2923   2.362   3.035   3.051  0.0673  0.7995 -0.1545
  975SOL    HW1 2924   2.293   2.967   3.092  0.6028 -1.5619  0.1062
  975SOL    HW2 2925   2.444   2.989   3.002  2.3604  1.4638 -0.0550
  976SOL     OW 2926   1.912   2.781   2.360 -0.1249  0.6327 -0.1700
  976SOL    HW1 2927   1.821   2.739   2.344  0.2262  1.6723  1.4028
  976SOL    HW2 2928   1.934   2.783   2.464  0.4867 -0.1896 -0.6995
  977SOL     OW 2929   0.486   0.675   1.029  0.7934 -0.2308 -0.2283
  977SOL    HW1 2930   0.433   0.635   0.951  2.3174  1.4180  0.4739
  977SOL    HW2 2931   0.537   0.760   1.004 -3.3609 -2.1410  2.0134
   3.10000   3.10000   3.10000
